A-SYNC WITH LIG-47 in water
35301
  121NASP     N    1   4.632   4.017   6.374  0.1970 -0.0137  0.0083
  121NASP    H1    2   4.689   4.026   6.291 -2.2049  0.8453 -1.6307
  121NASP    H2    3   4.686   3.975   6.449  1.3875  2.0683  0.4130
  121NASP    H3    4   4.597   4.108   6.401  2.6633  1.2089 -0.5300
  121NASP    CA    5   4.520   3.936   6.338  0.3423 -0.2856 -0.2693
  121NASP    HA    6   4.480   3.891   6.429  0.2022  3.4066  1.6799
  121NASP    CB    7   4.408   4.008   6.262 -0.0686 -0.0416  0.1469
  121NASP   HB1    8   4.333   3.931   6.241  0.6032 -0.2004 -1.8190
  121NASP   HB2    9   4.446   4.026   6.162  1.3063 -0.7630  0.5294
  121NASP    CG   10   4.355   4.135   6.317  0.2093  0.1371 -0.4393
  121NASP   OD1   11   4.420   4.191   6.408 -0.9831 -0.3161  0.3044
  121NASP   OD2   12   4.241   4.176   6.285 -0.4573  0.1711 -0.0441
  121NASP     C   13   4.568   3.812   6.256  0.4069  0.2306  0.1280
  121NASP     O   14   4.649   3.832   6.166  0.2847 -0.0965  0.0790
  122ASN      N   15   4.522   3.696   6.297  0.4732 -0.0631  0.6114
  122ASN      H   16   4.462   3.683   6.377  0.6832 -0.7715  0.6588
  122ASN     CA   17   4.567   3.575   6.232 -0.3761 -0.4514  0.4844
  122ASN     HA   18   4.676   3.577   6.219 -0.5241  1.0147 -0.8034
  122ASN     CB   19   4.536   3.455   6.315 -0.2814  0.1261  0.2007
  122ASN    HB1   20   4.560   3.365   6.259 -0.6950  0.1548 -0.0260
  122ASN    HB2   21   4.430   3.467   6.339 -0.1739 -0.5373  1.0502
  122ASN     CG   22   4.622   3.445   6.440  0.1900  0.6226 -0.5711
  122ASN    OD1   23   4.728   3.512   6.463  0.4178 -0.4239 -0.2550
  122ASN    ND2   24   4.591   3.349   6.522  0.6614 -0.2964  0.0684
  122ASN   HD21   25   4.631   3.363   6.614  1.2355  1.9509 -0.4809
  122ASN   HD22   26   4.506   3.296   6.505  0.5144  0.1445 -0.6069
  122ASN      C   27   4.511   3.561   6.085 -0.4436  0.2022  0.1844
  122ASN      O   28   4.394   3.596   6.065  0.2174  0.8808 -0.1242
  123GLU      N   29   4.584   3.497   5.993  0.0259  0.1873  0.3169
  123GLU      H   30   4.684   3.489   6.006  0.2611 -0.9602 -1.7030
  123GLU     CA   31   4.546   3.478   5.853  0.3936 -0.1445  1.1154
  123GLU     HA   32   4.496   3.571   5.827 -0.6359 -1.0507 -0.3365
  123GLU     CB   33   4.663   3.486   5.749  0.3566  0.5067 -0.2639
  123GLU    HB1   34   4.615   3.462   5.654 -0.3082  1.7672 -0.2689
  123GLU    HB2   35   4.738   3.410   5.768  0.3149  0.7655  1.0504
  123GLU     CG   36   4.745   3.619   5.734 -0.1352  0.4845  0.2249
  123GLU    HG1   37   4.758   3.668   5.830  0.6109  1.7174 -0.4753
  123GLU    HG2   38   4.684   3.692   5.682 -1.2987  0.1241  1.0529
  123GLU     CD   39   4.879   3.598   5.657  0.3497  0.0493  0.1846
  123GLU    OE1   40   4.887   3.515   5.562 -0.2430  0.0382 -0.2527
  123GLU    OE2   41   4.973   3.674   5.682 -0.5228 -0.1269  0.0686
  123GLU      C   42   4.438   3.366   5.830  0.5575 -0.0688  0.0096
  123GLU      O   43   4.403   3.333   5.715  0.2421  0.5072  0.2074
  124ALA      N   44   4.396   3.302   5.934  0.0681  0.4477 -0.0683
  124ALA      H   45   4.429   3.343   6.019  0.9565  0.1443 -0.2581
  124ALA     CA   46   4.293   3.203   5.945  0.9967  0.2605 -0.0458
  124ALA     HA   47   4.347   3.110   5.925 -0.3781 -0.3953 -0.8417
  124ALA     CB   48   4.237   3.201   6.089 -0.3204  0.4957  0.1370
  124ALA    HB1   49   4.322   3.188   6.157  0.3558 -0.5836 -0.8755
  124ALA    HB2   50   4.164   3.121   6.101  0.8346 -0.6155 -0.0446
  124ALA    HB3   51   4.196   3.297   6.118 -1.1309  0.6049 -1.2684
  124ALA      C   52   4.181   3.212   5.842  0.2685  0.4042 -0.2451
  124ALA      O   53   4.126   3.318   5.816  0.1024 -0.8317 -0.4909
  125TYR      N   54   4.154   3.096   5.774 -0.6455  0.2699  0.4631
  125TYR      H   55   4.200   3.012   5.803  0.5604  0.2579 -1.2842
  125TYR     CA   56   4.059   3.078   5.665  0.2792  0.8982 -0.2792
  125TYR     HA   57   4.090   3.157   5.598 -0.1146  1.4833  0.2086
  125TYR     CB   58   4.081   2.947   5.586  0.4592  0.0728 -0.0159
  125TYR    HB1   59   4.011   2.948   5.503 -0.4829  1.0955  0.7519
  125TYR    HB2   60   4.051   2.867   5.654  0.6228 -0.5342 -0.6536
  125TYR     CG   61   4.228   2.916   5.545  0.1950 -0.4881 -0.7334
  125TYR    CD1   62   4.309   2.830   5.619 -0.0054  0.1753 -0.0684
  125TYR    HD1   63   4.277   2.782   5.711 -1.6328 -1.3884 -1.3597
  125TYR    CE1   64   4.442   2.802   5.579  0.3265  0.5363  0.5560
  125TYR    HE1   65   4.496   2.726   5.634 -2.5476  0.0943  3.0139
  125TYR     CZ   66   4.497   2.878   5.471  0.0667  0.2059 -0.9474
  125TYR     OH   67   4.626   2.859   5.427 -0.6527 -0.8586  0.0008
  125TYR     HH   68   4.676   2.795   5.478 -0.5583 -0.7158  0.0869
  125TYR    CE2   69   4.419   2.977   5.409  0.8963  0.2304  0.0789
  125TYR    HE2   70   4.457   3.048   5.337  4.0521 -0.7497  0.6076
  125TYR    CD2   71   4.276   2.994   5.441 -0.1302  0.8457 -0.1525
  125TYR    HD2   72   4.224   3.072   5.389  1.7667  4.4022  2.8055
  125TYR      C   73   3.915   3.097   5.716 -0.3924 -0.1436  0.5242
  125TYR      O   74   3.892   3.079   5.834 -0.1189  0.5755 -0.2286
  126GLU      N   75   3.824   3.138   5.632  0.2517  0.0139 -0.3868
  126GLU      H   76   3.841   3.141   5.532  0.6502  0.1430 -0.3155
  126GLU     CA   77   3.682   3.182   5.673  0.4025  0.1298  0.6874
  126GLU     HA   78   3.688   3.269   5.737  2.5215  0.8610 -0.3970
  126GLU     CB   79   3.601   3.226   5.546  0.5488 -0.2749  0.1341
  126GLU    HB1   80   3.498   3.223   5.581  0.5860 -1.5443  0.2109
  126GLU    HB2   81   3.608   3.153   5.465  0.0725 -0.8597  0.6089
  126GLU     CG   82   3.641   3.363   5.501  0.1878  0.6013  0.5069
  126GLU    HG1   83   3.747   3.360   5.475 -0.4129  0.6945 -2.2485
  126GLU    HG2   84   3.632   3.443   5.574  0.7079  1.1704 -0.0240
  126GLU     CD   85   3.547   3.403   5.381 -0.1912  0.1623 -0.6281
  126GLU    OE1   86   3.423   3.415   5.403  0.3716 -0.0342  0.5094
  126GLU    OE2   87   3.599   3.412   5.269 -0.0238 -0.4139 -0.3337
  126GLU      C   88   3.620   3.066   5.751  0.2544 -0.3500 -0.2468
  126GLU      O   89   3.597   2.955   5.701 -0.2580 -0.3558  0.1566
  127MET      N   90   3.570   3.099   5.867  0.1106 -0.4671 -0.3364
  127MET      H   91   3.595   3.192   5.895 -1.9125  0.3438 -0.9815
  127MET     CA   92   3.518   3.002   5.966  0.5967 -0.5789 -0.1249
  127MET     HA   93   3.609   2.954   6.003 -0.3332 -1.4135  1.1758
  127MET     CB   94   3.455   3.085   6.088 -0.4582  0.1255  0.3713
  127MET    HB1   95   3.347   3.083   6.070 -0.3082  0.3163 -0.6212
  127MET    HB2   96   3.484   3.189   6.074  0.1046 -0.1944 -0.9800
  127MET     CG   97   3.491   3.029   6.223  0.2992 -0.5241 -0.5959
  127MET    HG1   98   3.480   3.114   6.290  1.3351  0.5390 -1.7342
  127MET    HG2   99   3.596   2.999   6.225  0.2683 -0.6447 -0.8003
  127MET     SD  100   3.395   2.881   6.280  0.1131  0.0644  0.2286
  127MET     CE  101   3.492   2.846   6.431 -0.5303  0.0145  0.0427
  127MET    HE1  102   3.474   2.928   6.501 -1.4883  0.4425 -0.6888
  127MET    HE2  103   3.598   2.829   6.412 -0.5479 -1.2510  0.9562
  127MET    HE3  104   3.451   2.753   6.467  0.7213  0.1293  1.9308
  127MET      C  105   3.407   2.918   5.903 -0.0630  0.7839  0.6545
  127MET      O  106   3.312   2.974   5.846 -0.1473  0.1563  0.1086
  128PRO      N  107   3.416   2.783   5.917  0.3999  0.7177 -0.0442
  128PRO     CD  108   3.533   2.720   5.972 -0.7761  0.3479  0.0622
  128PRO    HD1  109   3.552   2.761   6.071 -0.0710  0.7408 -0.2257
  128PRO    HD2  110   3.613   2.736   5.900 -1.8274 -2.1997 -1.8328
  128PRO     CG  111   3.493   2.574   5.975  0.3428 -0.0527 -0.3405
  128PRO    HG1  112   3.437   2.556   6.067  2.2967  1.3318  1.2334
  128PRO    HG2  113   3.578   2.505   5.972  1.1241  0.8161  0.5600
  128PRO     CB  114   3.401   2.552   5.861  0.4268 -1.0625  0.5185
  128PRO    HB1  115   3.456   2.536   5.768  2.3458 -1.1157  1.6289
  128PRO    HB2  116   3.339   2.463   5.869 -0.7344 -0.3100  0.2615
  128PRO     CA  117   3.316   2.683   5.866 -0.4844 -0.2383 -0.5178
  128PRO     HA  118   3.292   2.702   5.761  0.7702  2.7520 -0.3742
  128PRO      C  119   3.184   2.672   5.949 -0.1674  0.1959  0.2859
  128PRO      O  120   3.185   2.682   6.072  0.7746  0.3545  0.1607
  129SER      N  121   3.071   2.647   5.883  0.5117  0.5231 -0.1679
  129SER      H  122   3.078   2.638   5.782  2.6006  1.3157 -0.1437
  129SER     CA  123   2.950   2.586   5.941 -0.3766 -0.2567 -0.1136
  129SER     HA  124   2.951   2.612   6.047  1.8738  0.0524 -0.1528
  129SER     CB  125   2.820   2.645   5.888 -0.5146 -0.1252 -0.2504
  129SER    HB1  126   2.825   2.754   5.883  1.7965 -0.0723  1.3245
  129SER    HB2  127   2.732   2.624   5.948 -1.3716 -3.3296 -2.3626
  129SER     OG  128   2.800   2.613   5.747  0.0505  0.1883 -0.0978
  129SER    HG1  129   2.858   2.673   5.699  2.6312 -1.9789  0.0821
  129SER      C  130   2.941   2.433   5.924  0.1318 -0.2043 -0.8589
  129SER      O  131   2.858   2.373   5.990 -0.4003  0.3207  0.0490
  130GLU      N  132   3.038   2.374   5.848 -0.0395 -0.5807 -0.0372
  130GLU      H  133   3.099   2.427   5.788  1.7046 -1.3638  0.9580
  130GLU     CA  134   3.039   2.228   5.835  0.5622  1.0406  0.0973
  130GLU     HA  135   2.938   2.190   5.821  1.3068 -1.5848  1.1138
  130GLU     CB  136   3.122   2.195   5.710 -0.1913 -0.2406  0.4803
  130GLU    HB1  137   3.228   2.197   5.737 -0.1534  0.0789  0.3168
  130GLU    HB2  138   3.101   2.266   5.629 -1.3247 -0.0041  0.9645
  130GLU     CG  139   3.093   2.052   5.659 -0.8579  0.3442 -0.3694
  130GLU    HG1  140   2.990   2.016   5.668 -0.8281  0.4165  0.2655
  130GLU    HG2  141   3.157   1.994   5.725 -0.1261 -1.1973 -2.3253
  130GLU     CD  142   3.157   2.027   5.525 -0.0418  0.3556 -0.3597
  130GLU    OE1  143   3.208   2.118   5.459 -0.3245  0.0656  0.3705
  130GLU    OE2  144   3.181   1.903   5.498  0.4453  0.4634  0.7788
  130GLU      C  145   3.088   2.153   5.962  0.3733 -0.3357 -0.5780
  130GLU      O  146   3.182   2.203   6.029  0.1251  0.1971 -0.1490
  131GLU      N  147   3.014   2.052   6.006  0.5507  0.0434 -0.6888
  131GLU      H  148   2.944   2.019   5.941  1.3488  0.0914 -1.6054
  131GLU     CA  149   3.054   1.967   6.117 -0.5996 -0.2118 -0.2374
  131GLU     HA  150   3.094   2.032   6.195 -0.8189 -0.6624  0.2570
  131GLU     CB  151   2.943   1.908   6.194  0.5833 -0.3739 -0.3642
  131GLU    HB1  152   2.984   1.857   6.281 -0.5844  0.8965  0.9823
  131GLU    HB2  153   2.886   1.842   6.128 -0.4310  1.4564 -1.3871
  131GLU     CG  154   2.836   1.992   6.254 -0.5754 -0.6017  0.2472
  131GLU    HG1  155   2.770   2.013   6.169  0.6266  0.3342 -0.4994
  131GLU    HG2  156   2.884   2.074   6.308 -0.9301 -0.7292  0.7630
  131GLU     CD  157   2.745   1.925   6.356 -0.3218  0.0288 -0.2323
  131GLU    OE1  158   2.785   1.822   6.416 -0.1103  0.2801 -0.1912
  131GLU    OE2  159   2.632   1.975   6.375 -0.2087 -0.2444  0.0704
  131GLU      C  160   3.170   1.873   6.080  0.5951 -0.4994 -0.2676
  131GLU      O  161   3.181   1.830   5.964  0.2340  0.3460 -0.6467
  132GLY      N  162   3.261   1.861   6.176 -0.4924  0.1003 -0.2048
  132GLY      H  163   3.235   1.907   6.262  0.7130 -0.6114  0.5558
  132GLY     CA  164   3.379   1.776   6.173  0.5419 -0.2712 -0.3318
  132GLY    HA1  165   3.354   1.671   6.156  0.3854  0.0088 -1.9977
  132GLY    HA2  166   3.423   1.780   6.272  1.3690  2.2411 -0.7403
  132GLY      C  167   3.481   1.811   6.063  0.1546 -0.4855  0.4176
  132GLY      O  168   3.555   1.725   6.015 -0.0948  0.2298 -0.6066
  133TYR      N  169   3.492   1.935   6.013  0.4334  0.0291 -0.2890
  133TYR      H  170   3.439   2.010   6.055 -0.0724 -0.3663 -0.2168
  133TYR     CA  171   3.560   1.976   5.887  0.0106 -1.2883 -0.6373
  133TYR     HA  172   3.507   1.942   5.798  0.5719 -0.0528 -1.4663
  133TYR     CB  173   3.540   2.129   5.880  0.3487 -0.3018  0.5768
  133TYR    HB1  174   3.577   2.168   5.974  2.9710 -0.6481 -0.2496
  133TYR    HB2  175   3.436   2.157   5.858  0.4629  1.1161  1.6728
  133TYR     CG  176   3.616   2.199   5.772  0.0233 -0.4039 -0.0942
  133TYR    CD1  177   3.744   2.253   5.806 -0.1166 -0.5971 -0.0176
  133TYR    HD1  178   3.782   2.258   5.907 -1.0996  0.3615  0.3208
  133TYR    CE1  179   3.820   2.314   5.706 -0.2532 -0.7327  0.1741
  133TYR    HE1  180   3.916   2.357   5.734 -0.0820 -0.9044 -0.1493
  133TYR     CZ  181   3.780   2.306   5.568 -0.2747 -0.2279 -0.5251
  133TYR     OH  182   3.852   2.370   5.468  0.3744  0.2824  0.2530
  133TYR     HH  183   3.913   2.431   5.510  1.2387 -1.4372  1.5847
  133TYR    CE2  184   3.657   2.252   5.541  0.5334  0.4397  0.3333
  133TYR    HE2  185   3.625   2.270   5.439  1.0840  0.9785  0.2539
  133TYR    CD2  186   3.568   2.198   5.640 -0.1333 -0.0877 -0.5854
  133TYR    HD2  187   3.470   2.161   5.613  0.5058 -2.4212  0.0337
  133TYR      C  188   3.706   1.930   5.859 -0.0792  0.1107  0.1850
  133TYR      O  189   3.793   1.919   5.946  0.1593  0.0855  0.0010
  134GLN      N  190   3.728   1.905   5.728  0.7044 -0.2818 -0.6341
  134GLN      H  191   3.653   1.922   5.662 -1.4185  0.2267  1.7557
  134GLN     CA  192   3.853   1.849   5.677  0.1080 -0.1243  0.0984
  134GLN     HA  193   3.912   1.811   5.760 -1.9464  1.1507  2.2524
  134GLN     CB  194   3.818   1.732   5.590 -0.5284  0.2492 -0.5288
  134GLN    HB1  195   3.911   1.691   5.551 -0.4218  1.3389 -1.4550
  134GLN    HB2  196   3.760   1.765   5.504 -2.8451 -2.4146 -0.1332
  134GLN     CG  197   3.746   1.619   5.666 -0.6427 -1.0047  0.0709
  134GLN    HG1  198   3.719   1.538   5.597 -1.9166 -0.4443 -0.1276
  134GLN    HG2  199   3.651   1.654   5.708 -0.7819 -0.2094 -0.8763
  134GLN     CD  200   3.827   1.564   5.781 -0.4266  0.7774  0.1620
  134GLN    OE1  201   3.921   1.490   5.759 -0.8243  0.2923 -0.0529
  134GLN    NE2  202   3.793   1.576   5.907  0.1327  0.4772 -0.0414
  134GLN   HE21  203   3.848   1.532   5.980 -1.3878 -0.8007  0.3959
  134GLN   HE22  204   3.715   1.634   5.933 -0.1353  0.9921 -1.8826
  134GLN      C  205   3.938   1.956   5.593 -0.2036 -0.9313 -0.0499
  134GLN      O  206   3.887   2.028   5.511  0.3966  0.2460 -0.0313
  135ASP      N  207   4.076   1.965   5.622  0.7858  0.3144  0.0692
  135ASP      H  208   4.100   1.918   5.708  1.5774  0.1573 -0.2250
  135ASP     CA  209   4.173   2.052   5.552  0.2706 -0.7129  0.3078
  135ASP     HA  210   4.125   2.062   5.454 -0.4097  0.4163  0.7429
  135ASP     CB  211   4.179   2.194   5.621 -0.4122 -0.3169 -0.0589
  135ASP    HB1  212   4.077   2.229   5.605  0.1148  1.0010 -0.7842
  135ASP    HB2  213   4.248   2.259   5.567  2.1135 -1.8564  1.1514
  135ASP     CG  214   4.203   2.198   5.772  0.1952  0.6874 -0.1815
  135ASP    OD1  215   4.239   2.098   5.830 -0.3462  0.7571  0.6174
  135ASP    OD2  216   4.190   2.308   5.829 -0.0311 -0.9900 -0.4304
  135ASP      C  217   4.309   1.986   5.538  0.5861 -0.4299  0.0006
  135ASP      O  218   4.397   2.058   5.495  0.9238 -0.1222 -0.1092
  136TYR      N  219   4.322   1.858   5.578  0.1754 -0.3660 -0.0764
  136TYR      H  220   4.243   1.828   5.634 -0.2283  1.2357  0.2816
  136TYR     CA  221   4.439   1.771   5.545 -0.2069  0.3785 -0.1883
  136TYR     HA  222   4.425   1.671   5.585  1.1098 -0.6428 -2.1001
  136TYR     CB  223   4.440   1.744   5.394 -0.0491 -0.4772  0.2213
  136TYR    HB1  224   4.437   1.841   5.344 -0.0769  0.0888  1.2843
  136TYR    HB2  225   4.348   1.692   5.366 -2.0809  3.3438 -0.8813
  136TYR     CG  226   4.557   1.664   5.349  0.1460  0.6133  0.0763
  136TYR    CD1  227   4.564   1.535   5.396 -0.1571 -0.6719  0.4813
  136TYR    HD1  228   4.497   1.501   5.474 -1.5391 -0.9404 -0.7741
  136TYR    CE1  229   4.663   1.447   5.345  0.3529 -0.2222 -0.1366
  136TYR    HE1  230   4.657   1.344   5.376 -0.2965 -0.4338 -0.9319
  136TYR     CZ  231   4.763   1.491   5.257  0.0881  0.4559  0.1294
  136TYR     OH  232   4.856   1.408   5.203 -0.3608  0.2969  0.1227
  136TYR     HH  233   4.844   1.317   5.231  0.7273 -0.5013 -1.8298
  136TYR    CE2  234   4.764   1.625   5.223 -0.1494 -0.6441 -0.2578
  136TYR    HE2  235   4.851   1.655   5.166  0.5707 -1.1954  0.5264
  136TYR    CD2  236   4.657   1.716   5.262 -0.5955  0.6681  0.1905
  136TYR    HD2  237   4.654   1.819   5.232  1.7351  0.6469 -0.3269
  136TYR      C  238   4.573   1.803   5.603 -0.7807  0.2688  0.4907
  136TYR      O  239   4.634   1.906   5.561 -0.1685  0.1158 -0.2486
  137GLU      N  240   4.625   1.724   5.701 -0.1166  0.1173 -0.3618
  137GLU      H  241   4.575   1.642   5.731 -1.4250  1.5342  1.5693
  137GLU     CA  242   4.758   1.730   5.748  0.0097  0.1162 -0.7869
  137GLU     HA  243   4.795   1.832   5.755  2.0563 -0.4961 -1.7669
  137GLU     CB  244   4.769   1.673   5.892  0.0142  0.2389 -0.0923
  137GLU    HB1  245   4.877   1.668   5.908  0.4450  1.9378 -1.9718
  137GLU    HB2  246   4.742   1.568   5.898  3.3080 -0.6748  3.4228
  137GLU     CG  247   4.694   1.757   5.994 -0.0215  0.2443 -0.3135
  137GLU    HG1  248   4.589   1.776   5.972 -0.8465 -0.2198  2.8218
  137GLU    HG2  249   4.737   1.856   5.980  0.3334  0.1344 -0.0115
  137GLU     CD  250   4.695   1.719   6.140 -0.6115 -0.6665 -0.1312
  137GLU    OE1  251   4.714   1.808   6.223  0.1866  0.4596 -0.4656
  137GLU    OE2  252   4.665   1.607   6.177 -0.3347  0.9117  0.5083
  137GLU      C  253   4.851   1.665   5.653  0.5552 -0.0068  0.6055
  137GLU      O  254   4.825   1.544   5.627  0.0213 -0.0444  0.5586
  138PRO      N  255   4.950   1.735   5.585  0.1800  0.1889 -1.0348
  138PRO     CD  256   4.980   1.877   5.600  0.7457  0.5013 -0.8075
  138PRO    HD1  257   5.016   1.903   5.700 -0.3791 -0.5196 -0.1080
  138PRO    HD2  258   4.896   1.934   5.562  0.0695 -0.0165 -0.1355
  138PRO     CG  259   5.101   1.892   5.507 -0.2447 -0.5154 -0.1257
  138PRO    HG1  260   5.197   1.887   5.560 -2.0083 -2.0974  3.2548
  138PRO    HG2  261   5.096   1.992   5.463  1.2377 -0.5982 -0.5536
  138PRO     CB  262   5.100   1.781   5.407 -0.3416  0.2591 -0.1299
  138PRO    HB1  263   5.040   1.807   5.319 -1.0655 -0.8022  0.0382
  138PRO    HB2  264   5.197   1.748   5.370 -0.5080 -0.1877 -0.1751
  138PRO     CA  265   5.027   1.670   5.481  0.5999  0.2806 -0.3237
  138PRO     HA  266   4.955   1.625   5.413  0.7361 -1.5551  0.6897
  138PRO      C  267   5.114   1.560   5.545 -0.6934  0.0964  0.2881
  138PRO      O  268   5.122   1.538   5.663  0.2071 -0.5724  0.3314
  139GLU      N  269   5.163   1.470   5.455  0.2413 -0.1195  0.1231
  139GLU      H  270   5.171   1.496   5.358 -0.5054 -0.1742  0.0359
  139GLU     CA  271   5.234   1.347   5.489 -0.1605  0.3127  0.0335
  139GLU     HA  272   5.169   1.292   5.556  1.1907 -0.1284  1.0303
  139GLU     CB  273   5.260   1.264   5.359 -0.4314 -0.0121  0.1661
  139GLU    HB1  274   5.328   1.187   5.394  0.6225  1.2709  1.0393
  139GLU    HB2  275   5.308   1.318   5.277 -0.8176  0.3805  0.1936
  139GLU     CG  276   5.134   1.187   5.311 -0.2744 -0.2288 -0.1733
  139GLU    HG1  277   5.054   1.253   5.277 -1.7980 -1.2126  1.3131
  139GLU    HG2  278   5.087   1.140   5.398 -2.6982  1.8895 -0.1957
  139GLU     CD  279   5.167   1.083   5.204  0.0166 -0.1190 -0.1616
  139GLU    OE1  280   5.199   0.970   5.240 -0.2565  0.3552 -0.0083
  139GLU    OE2  281   5.164   1.114   5.084 -0.0902 -0.3220 -0.1273
  139GLU      C  282   5.367   1.372   5.562  0.8718 -0.3593  0.5873
  139GLU      O  283   5.425   1.480   5.549  0.2724  0.3481 -0.3792
  140CALA     N  284   5.407   1.277   5.638 -0.4161  0.4104  0.8397
  140CALA     H  285   5.346   1.197   5.638 -1.3698  1.1078  0.3073
  140CALA    CA  286   5.518   1.301   5.734 -0.5365  0.0816 -0.2814
  140CALA    HA  287   5.570   1.389   5.697 -1.9377  0.2905 -1.9280
  140CALA    CB  288   5.455   1.322   5.874 -0.1705 -0.0213  0.0295
  140CALA   HB1  289   5.368   1.256   5.885  0.6374 -1.0062  0.6671
  140CALA   HB2  290   5.413   1.423   5.870  1.5601  0.7588  0.6008
  140CALA   HB3  291   5.529   1.295   5.949 -1.5928 -3.4355  0.4146
  140CALA     C  292   5.630   1.193   5.735  0.3461 -0.4629 -0.3624
  140CALA   OC1  293   5.623   1.096   5.811  0.0980  0.5109  0.6629
  140CALA   OC2  294   5.733   1.202   5.660  0.8582  0.5318 -0.0729
  141L47      C  295   4.661   0.893   2.137  0.1925  1.0668  0.3165
  141L47      H  296   4.627   0.909   2.241  0.3291 -0.5612  0.6425
  141L47     H1  297   4.625   0.793   2.109  2.0538  0.3410  0.4077
  141L47     H2  298   4.625   0.971   2.070  0.7051  1.2804  0.2884
  141L47     C1  299   4.811   0.883   2.136  1.2373  0.2773  0.3679
  141L47      O  300   4.858   0.774   2.121  0.2259 -0.3734 -0.0596
  141L47      N  301   4.891   0.995   2.161  0.6874  0.5796  0.1736
  141L47     C2  302   4.836   1.117   2.216  0.1044  0.0282  0.4447
  141L47     H3  303   4.795   1.086   2.313  0.3718 -0.6734  0.3352
  141L47     H4  304   4.758   1.162   2.153  1.4594  0.3139 -1.1138
  141L47     C3  305   4.952   1.213   2.248 -0.3114  0.1369 -0.2953
  141L47     H5  306   4.959   1.233   2.356  2.5242 -1.6161 -0.0374
  141L47     H6  307   4.928   1.309   2.200  0.9457  1.3482  1.3332
  141L47     C4  308   5.072   1.134   2.207 -0.4503  0.5709  1.0813
  141L47     C5  309   5.029   1.008   2.149 -0.5440 -0.0480 -0.6428
  141L47     C6  310   5.124   0.907   2.121 -0.9860 -0.0118 -0.1960
  141L47     H7  311   5.106   0.813   2.068 -0.4916  0.1182 -0.6043
  141L47     C7  312   5.261   0.940   2.140 -0.3002  0.6231  1.0093
  141L47     H8  313   5.339   0.874   2.103 -0.5226  1.6973 -1.5671
  141L47     C8  314   5.304   1.063   2.187 -0.3958  0.3677  0.5390
  141L47     C9  315   5.207   1.159   2.226 -0.4395 -0.3023  0.2781
  141L47     H9  316   5.241   1.254   2.267  1.8146 -0.8155 -0.2812
  141L47      S  317   5.481   1.083   2.205 -0.2450 -0.0725  0.0055
  141L47     O1  318   5.497   1.225   2.184 -0.3132 -0.4573 -0.2438
  141L47     O2  319   5.567   0.983   2.141  0.5575 -0.0737  0.1035
  141L47     N1  320   5.496   1.057   2.368 -0.0670 -0.3754 -0.7206
  141L47    C10  321   5.623   1.103   2.426 -0.5907  0.3045 -0.4345
  141L47    H10  322   5.670   1.171   2.353 -2.2681 -0.7442 -2.6131
  141L47    H11  323   5.697   1.024   2.441  2.5164  3.3124  1.4177
  141L47    C11  324   5.595   1.183   2.558 -0.3376 -0.2007  0.1637
  141L47    H12  325   5.536   1.273   2.537  0.3328  0.3293  0.5134
  141L47    H13  326   5.688   1.229   2.594  0.8048 -2.7004  0.6687
  141L47    C12  327   5.544   1.106   2.679  0.3311 -0.4220 -0.0829
  141L47    H14  328   5.523   1.179   2.757  1.8625  0.9540 -0.8864
  141L47    H15  329   5.623   1.036   2.708  1.5368  1.0050  0.1643
  141L47     N2  330   5.426   1.021   2.648 -0.6020 -0.3815  0.0651
  141L47    H16  331   5.367   1.001   2.730 -1.5847  0.4675 -0.4125
  141L47    H17  332   5.363   1.078   2.589  0.8802  0.3779 -0.8365
  141L47    C13  333   5.456   0.903   2.562 -0.2934 -0.0260 -0.1375
  141L47    H18  334   5.387   0.825   2.593  1.8159 -2.0386 -0.2089
  141L47    H19  335   5.546   0.858   2.603  0.0227 -0.8535 -1.6596
  141L47    C14  336   5.455   0.921   2.413 -0.9115  0.0941  0.2573
  141L47    H20  337   5.526   0.849   2.370 -0.5250  0.0590  0.9359
  141L47    H21  338   5.358   0.895   2.370 -1.1332 -0.5449  1.1109
  142SOL     OW  339   1.015   3.436   3.215 -0.1066  0.1319 -0.3174
  142SOL    HW2  340   1.105   3.428   3.185 -0.2101 -3.2100 -0.0488
  142SOL    HW3  341   1.014   3.394   3.301 -1.7429  1.1122  0.1951
  142SOL    MW4  342   1.027   3.430   3.223 -0.3070 -0.2285  0.0922
  143SOL     OW  343   5.357   1.809   2.890 -0.1255 -0.7082  0.1854
  143SOL    HW2  344   5.314   1.870   2.950 -0.6739  0.4736 -1.3276
  143SOL    HW3  345   5.450   1.821   2.905 -0.2026  1.0784 -0.5851
  143SOL    MW4  346   5.363   1.818   2.900  0.1827 -0.0365 -0.7287
  144SOL     OW  347   1.642   5.175   4.805 -0.1074 -0.5070  0.3346
  144SOL    HW2  348   1.685   5.255   4.774  0.8592 -0.6387  1.2568
  144SOL    HW3  349   1.581   5.206   4.873 -1.7621 -0.2864 -1.1788
  144SOL    MW4  350   1.639   5.190   4.810  0.1698 -0.1586  0.2575
  145SOL     OW  351   2.026   0.189   5.845  0.3096 -0.6042 -0.2172
  145SOL    HW2  352   1.982   0.250   5.904  1.1098  1.1340 -1.3294
  145SOL    HW3  353   2.092   0.145   5.899 -0.3379 -0.5384  0.6243
  145SOL    MW4  354   2.029   0.191   5.860  0.6312 -0.1021 -0.2994
  146SOL     OW  355   2.153   2.492   6.090 -0.3412 -0.6227 -0.1295
  146SOL    HW2  356   2.194   2.522   6.171 -0.7265  0.4604 -0.3134
  146SOL    HW3  357   2.203   2.414   6.064 -0.1133 -0.8827  1.0507
  146SOL    MW4  358   2.165   2.486   6.097 -0.5663  0.1145 -0.0109
  147SOL     OW  359   2.243   5.989   6.095  0.0548 -0.1087 -0.0768
  147SOL    HW2  360   2.162   5.940   6.081  0.0762 -0.4019  0.7923
  147SOL    HW3  361   2.249   6.047   6.019 -0.9686 -0.0721 -0.1408
  147SOL    MW4  362   2.233   5.990   6.083  0.2341  0.0437 -0.3794
  148SOL     OW  363   0.490   1.569   0.871 -0.2606  0.2601 -1.4483
  148SOL    HW2  364   0.572   1.540   0.911 -0.6525  0.8405 -0.1739
  148SOL    HW3  365   0.430   1.495   0.885 -0.6859  0.8353  0.0140
  148SOL    MW4  366   0.493   1.555   0.878  0.0795  0.5291  0.4925
  149SOL     OW  367   2.514   3.107   1.545 -0.6709  0.0978  0.4124
  149SOL    HW2  368   2.608   3.118   1.557 -0.6350 -0.8360  1.0655
  149SOL    HW3  369   2.484   3.066   1.626 -0.9972 -3.2165 -1.1880
  149SOL    MW4  370   2.523   3.103   1.557  0.4261 -0.0655 -0.1677
  150SOL     OW  371   0.973   6.220   4.187 -0.0368 -0.1673  0.4029
  150SOL    HW2  372   0.943   6.251   4.102  0.9083  1.9001  0.7441
  150SOL    HW3  373   1.058   6.180   4.170 -0.6079 -1.3365  0.1718
  150SOL    MW4  374   0.980   6.219   4.174  0.9586 -0.3555 -0.1292
  151SOL     OW  375   5.196   4.015   2.388 -0.1124  0.6933  0.4235
  151SOL    HW2  376   5.261   3.959   2.345 -1.8090  0.4751 -2.0646
  151SOL    HW3  377   5.124   3.957   2.409 -1.2871  1.6280 -0.8546
  151SOL    MW4  378   5.195   4.000   2.385 -0.2791 -0.2121 -0.4183
  152SOL     OW  379   6.079   5.884   1.688  1.0121 -0.0163 -0.0940
  152SOL    HW2  380   6.041   5.943   1.623  1.1363 -0.0033 -0.1553
  152SOL    HW3  381   6.150   5.840   1.642  0.4371 -0.7765 -0.2648
  152SOL    MW4  382   6.083   5.886   1.673 -0.5657  0.2369 -0.0579
  153SOL     OW  383   0.699   4.111   5.987 -0.2383 -0.1229  0.9032
  153SOL    HW2  384   0.678   4.027   5.947  1.6303 -0.9194  1.4585
  153SOL    HW3  385   0.656   4.108   6.073 -0.5748 -0.3087  0.7275
  153SOL    MW4  386   0.690   4.099   5.993  0.1392 -0.2791  0.3186
  154SOL     OW  387   4.232   2.086   2.763  0.0503 -0.3798  0.3522
  154SOL    HW2  388   4.294   2.047   2.702  1.1610 -0.7943  1.7080
  154SOL    HW3  389   4.149   2.042   2.743  0.5137 -0.9299 -0.4475
  154SOL    MW4  390   4.229   2.075   2.752 -0.3373 -0.1180  0.0902
  155SOL     OW  391   2.339   3.581   0.941 -0.0171 -0.1256  0.2039
  155SOL    HW2  392   2.275   3.587   0.870 -0.8389 -0.9020  0.8485
  155SOL    HW3  393   2.379   3.495   0.929  1.1489  0.4680 -0.3656
  155SOL    MW4  394   2.336   3.570   0.930 -0.5004 -0.3339  0.1597
  156SOL     OW  395   1.890   3.661   1.781  0.1296 -0.0700 -0.4551
  156SOL    HW2  396   1.812   3.717   1.782 -0.2494 -0.5661 -1.1648
  156SOL    HW3  397   1.952   3.705   1.839  0.0199  1.3410 -1.3582
  156SOL    MW4  398   1.887   3.674   1.789 -0.0503 -0.3392 -0.1614
  157SOL     OW  399   2.266   0.495   2.562 -0.8205 -0.1153 -0.1816
  157SOL    HW2  400   2.248   0.533   2.648  1.6679  1.6323 -0.3352
  157SOL    HW3  401   2.203   0.537   2.503 -0.6764  0.8258  0.3228
  157SOL    MW4  402   2.255   0.505   2.565 -0.1715 -0.0192  0.1490
  158SOL     OW  403   5.898   4.966   4.353 -0.1104 -0.0407 -0.0411
  158SOL    HW2  404   5.988   4.936   4.365  0.2235 -0.0515 -2.1884
  158SOL    HW3  405   5.899   5.057   4.383  0.7149  0.0816 -0.4101
  158SOL    MW4  406   5.910   4.974   4.359  0.4203 -0.0572 -0.0526
  159SOL     OW  407   1.275   3.273   2.066  0.0745 -0.2249 -0.4673
  159SOL    HW2  408   1.238   3.361   2.080  1.0354 -0.1469  2.3917
  159SOL    HW3  409   1.242   3.246   1.981 -1.6090  2.2354 -0.7080
  159SOL    MW4  410   1.266   3.281   2.057  0.1616  0.3842  0.3929
  160SOL     OW  411   5.075   1.768   6.162 -0.2238  0.3191  0.4053
  160SOL    HW2  412   5.071   1.763   6.066 -1.3622  0.4251  0.4354
  160SOL    HW3  413   5.040   1.685   6.192 -0.6506  0.6158  0.7379
  160SOL    MW4  414   5.070   1.757   6.153  0.3419  0.6096 -0.0228
  161SOL     OW  415   6.283   3.967   3.441 -0.0105  0.3145 -0.0965
  161SOL    HW2  416   6.286   3.883   3.488 -2.0075  0.6416  0.7219
  161SOL    HW3  417   6.269   3.943   3.350 -0.8975 -0.2591  0.1768
  161SOL    MW4  418   6.282   3.952   3.435  0.2006 -0.5305 -0.6521
  162SOL     OW  419   3.940   2.441   2.120  0.0006 -0.1035  0.8400
  162SOL    HW2  420   3.868   2.450   2.183 -0.7426 -1.4603  0.2414
  162SOL    HW3  421   4.017   2.474   2.166 -1.1952  2.7407  1.0251
  162SOL    MW4  422   3.940   2.446   2.134  0.7144  0.1620 -0.2424
  163SOL     OW  423   5.931   6.256   2.210 -0.1024  0.5418 -0.2303
  163SOL    HW2  424   5.853   6.271   2.263 -0.3947  2.1401 -1.0447
  163SOL    HW3  425   5.899   6.213   2.131  0.1616 -0.7404  0.3446
  163SOL    MW4  426   5.917   6.252   2.206 -0.7203  0.2013  0.2279
  164SOL     OW  427   2.503   1.735   5.538 -0.1007  0.2569 -0.9666
  164SOL    HW2  428   2.566   1.670   5.507 -0.6977 -1.1307  0.5638
  164SOL    HW3  429   2.427   1.683   5.566 -0.5037  1.5878  0.5614
  164SOL    MW4  430   2.501   1.720   5.538  0.4220 -0.5999  0.1477
  165SOL     OW  431   5.129   0.619   6.116 -0.2008 -0.0512 -0.2900
  165SOL    HW2  432   5.082   0.546   6.156  0.1321 -0.5029 -0.7105
  165SOL    HW3  433   5.218   0.586   6.104  0.3711  0.9609  0.9560
  165SOL    MW4  434   5.135   0.605   6.120  0.1524  0.2293 -0.0916
  166SOL     OW  435   5.112   3.568   2.853  0.2425 -0.0243 -0.3507
  166SOL    HW2  436   5.173   3.638   2.874 -0.0673  0.0210  0.4396
  166SOL    HW3  437   5.105   3.517   2.934  0.8231 -1.2508 -1.0415
  166SOL    MW4  438   5.119   3.570   2.867 -0.4212  0.2696 -0.1605
  167SOL     OW  439   1.227   0.292   5.389  0.5747  0.4317  0.2960
  167SOL    HW2  440   1.238   0.319   5.297 -0.0216  0.1967  0.1513
  167SOL    HW3  441   1.222   0.197   5.385  0.4026  0.4304  0.5566
  167SOL    MW4  442   1.228   0.283   5.376 -0.5369  0.4332  0.3523
  168SOL     OW  443   2.591   5.919   0.425 -0.2603 -0.8222  0.6595
  168SOL    HW2  444   2.517   5.975   0.402 -1.3031 -1.8999  1.2694
  168SOL    HW3  445   2.610   5.941   0.516  0.0689 -0.6618  0.5524
  168SOL    MW4  446   2.584   5.929   0.434  0.2693  0.4938 -0.1141
  169SOL     OW  447   2.480   5.105   5.862 -0.0087 -0.0066 -0.2440
  169SOL    HW2  448   2.433   5.128   5.942 -2.0674 -1.4573 -0.9321
  169SOL    HW3  449   2.435   5.154   5.793 -1.0843 -1.9412 -1.0110
  169SOL    MW4  450   2.468   5.114   5.863 -0.5935  0.0337 -0.2979
  170SOL     OW  451   1.868   5.399   4.718 -0.0676 -0.1028 -0.1739
  170SOL    HW2  452   1.937   5.406   4.652  0.0040  1.3917  0.0342
  170SOL    HW3  453   1.882   5.475   4.775 -0.7474 -0.8138  0.9665
  170SOL    MW4  454   1.879   5.410   4.717  0.0701  0.1856 -0.8340
  171SOL     OW  455   2.441   2.618   0.092  0.5517 -0.1874 -0.2298
  171SOL    HW2  456   2.384   2.554   0.049  0.0909  0.0658 -0.0032
  171SOL    HW3  457   2.529   2.594   0.063  0.3689 -0.8122 -0.2919
  171SOL    MW4  458   2.445   2.606   0.082 -0.4534  0.6185 -0.2121
  172SOL     OW  459   3.035   1.118   3.068  0.2026  0.0769  0.1837
  172SOL    HW2  460   2.957   1.166   3.096  0.6181 -0.3247  2.1429
  172SOL    HW3  461   3.107   1.161   3.115  0.7640 -1.4809  0.8018
  172SOL    MW4  462   3.035   1.130   3.078 -0.0386 -0.8497 -0.4908
  173SOL     OW  463   1.190   5.778   6.209 -0.2315 -0.2930 -0.0960
  173SOL    HW2  464   1.106   5.823   6.219 -0.0186 -0.1023  1.0500
  173SOL    HW3  465   1.171   5.702   6.154 -0.9744  0.2006 -0.5321
  173SOL    MW4  466   1.177   5.774   6.203  0.4992  0.9846  0.1779
  174SOL     OW  467   6.194   1.928   4.822  0.1629 -0.1643 -0.2127
  174SOL    HW2  468   6.284   1.900   4.840  0.4135  1.7699  2.1951
  174SOL    HW3  469   6.140   1.860   4.863  0.6144 -0.0196  0.6581
  174SOL    MW4  470   6.199   1.915   4.830  0.6387 -0.1048  0.0920
  175SOL     OW  471   6.099   5.311   3.137 -0.0887  0.1289 -0.3249
  175SOL    HW2  472   6.142   5.352   3.062 -0.5498 -1.5274 -1.5589
  175SOL    HW3  473   6.027   5.261   3.099 -0.6626 -0.3408  1.2923
  175SOL    MW4  474   6.095   5.310   3.122 -0.2760  0.0360 -0.4483
  176SOL     OW  475   1.887   0.226   0.751  0.0347  1.0019 -0.1625
  176SOL    HW2  476   1.810   0.253   0.801  1.2452  3.3002  0.6296
  176SOL    HW3  477   1.941   0.178   0.814 -1.0977 -1.4968 -0.9757
  176SOL    MW4  478   1.884   0.223   0.766 -0.1726 -0.0264  0.3526
  177SOL     OW  479   0.987   2.270   1.824 -0.1899  0.0835 -0.6044
  177SOL    HW2  480   1.061   2.316   1.863  1.0383 -2.0694 -0.2080
  177SOL    HW3  481   0.963   2.205   1.891 -2.6276  0.8684 -0.6235
  177SOL    MW4  482   0.993   2.267   1.838  0.2282 -0.0015 -0.3508
  178SOL     OW  483   4.783   2.252   1.201 -0.0813  0.0694 -0.2084
  178SOL    HW2  484   4.822   2.237   1.287 -1.0350  2.0849  0.6580
  178SOL    HW3  485   4.790   2.347   1.188 -0.4507 -0.1253 -2.1210
  178SOL    MW4  486   4.789   2.263   1.211 -0.1013 -0.4500 -0.2744
  179SOL     OW  487   4.918   4.982   3.319  0.1235  0.2393  0.1859
  179SOL    HW2  488   4.957   5.024   3.243  2.8473  0.6002  1.6491
  179SOL    HW3  489   4.893   5.055   3.376 -0.1231 -0.0384  0.4346
  179SOL    MW4  490   4.920   4.997   3.317 -0.1708 -0.4686  0.1422
  180SOL     OW  491   3.190   2.393   2.530 -0.2617 -0.4698 -0.4448
  180SOL    HW2  492   3.184   2.441   2.447  0.7644  0.7462  0.1399
  180SOL    HW3  493   3.283   2.400   2.555 -0.6778 -0.1952  1.1440
  180SOL    MW4  494   3.202   2.400   2.522 -0.2215  0.4236 -0.1581
  181SOL     OW  495   5.169   1.592   2.889 -0.3956  0.9866  0.2416
  181SOL    HW2  496   5.245   1.647   2.909  0.0923  1.1123 -1.7158
  181SOL    HW3  497   5.134   1.628   2.807 -1.0439 -0.6042 -0.2220
  181SOL    MW4  498   5.175   1.604   2.881  0.6730  0.1091 -0.7337
  182SOL     OW  499   6.239   4.523   4.866 -0.1501 -0.0987 -0.1961
  182SOL    HW2  500   6.288   4.474   4.932 -0.0623  0.3311  0.0615
  182SOL    HW3  501   6.298   4.593   4.838  0.2021 -0.9010 -1.5035
  182SOL    MW4  502   6.253   4.526   4.871  0.1641 -0.3958 -0.3191
  183SOL     OW  503   1.160   3.518   2.137  0.0793  0.7055 -0.2781
  183SOL    HW2  504   1.125   3.572   2.209 -2.0276  0.1021 -0.7866
  183SOL    HW3  505   1.083   3.481   2.095  1.3491 -3.1385  0.3220
  183SOL    MW4  506   1.146   3.520   2.141  0.1475  0.4149  0.7551
  184SOL     OW  507   4.394   6.174   5.014  0.3842 -0.2896  0.2539
  184SOL    HW2  508   4.358   6.152   4.928  1.4737  0.4957 -0.4330
  184SOL    HW3  509   4.417   6.267   5.008  2.5524 -0.7325  0.5847
  184SOL    MW4  510   4.392   6.183   5.002  0.1785 -0.5568  0.0281
  185SOL     OW  511   0.910   2.465   3.193  0.2017 -0.3434 -0.1436
  185SOL    HW2  512   0.926   2.559   3.180 -0.3250 -0.2706 -0.2630
  185SOL    HW3  513   0.971   2.440   3.262  1.5056 -0.2639 -1.2103
  185SOL    MW4  514   0.920   2.474   3.200 -0.7557 -0.0762  0.0768
  186SOL     OW  515   4.315   1.623   4.752 -0.1217  0.6192  0.5311
  186SOL    HW2  516   4.357   1.692   4.701  0.5591 -0.5043 -0.4640
  186SOL    HW3  517   4.363   1.621   4.834 -0.7143  1.9118  0.9264
  186SOL    MW4  518   4.327   1.632   4.756  0.0884  0.2950 -0.2595
  187SOL     OW  519   3.762   0.635   3.699 -0.1200 -0.0082 -0.4814
  187SOL    HW2  520   3.838   0.634   3.756 -0.5902  1.4856  0.2277
  187SOL    HW3  521   3.710   0.710   3.729 -0.3548  0.9179 -2.9045
  187SOL    MW4  522   3.765   0.645   3.710 -0.0187  0.7397 -0.1154
  188SOL     OW  523   5.982   2.997   2.210  0.1307  0.3647  0.2576
  188SOL    HW2  524   5.941   3.081   2.190 -2.4630 -0.8410  0.0063
  188SOL    HW3  525   6.069   3.001   2.170 -0.5483  2.3170 -1.1386
  188SOL    MW4  526   5.988   3.008   2.202  0.2156 -0.6480 -0.4085
  189SOL     OW  527   5.919   1.259   3.589 -1.0028 -0.2229  0.0970
  189SOL    HW2  528   5.886   1.264   3.499  0.3421  0.9490 -0.3602
  189SOL    HW3  529   5.921   1.350   3.619 -0.0529 -0.4611  0.7905
  189SOL    MW4  530   5.915   1.271   3.581 -0.1554 -0.0527  0.0846
  190SOL     OW  531   1.741   2.967   4.980  0.1258  0.1314 -0.1488
  190SOL    HW2  532   1.731   3.017   5.061  0.9672  0.4722 -0.2419
  190SOL    HW3  533   1.821   2.917   4.992  0.6840  0.7715 -1.0545
  190SOL    MW4  534   1.750   2.967   4.992  0.1944 -0.4335  0.5064
  191SOL     OW  535   5.537   6.263   2.420  0.1596  0.3390  0.7617
  191SOL    HW2  536   5.608   6.310   2.375  0.5757  0.1342  1.1947
  191SOL    HW3  537   5.581   6.192   2.466 -0.5517 -1.0909 -0.6459
  191SOL    MW4  538   5.552   6.260   2.420  0.1094 -0.2958  0.0070
  192SOL     OW  539   4.747   3.815   3.889  0.4272 -0.0780 -0.0137
  192SOL    HW2  540   4.828   3.863   3.870  0.0832  0.3204 -0.4865
  192SOL    HW3  541   4.772   3.723   3.882  0.2305  0.0155 -2.9704
  192SOL    MW4  542   4.761   3.809   3.886  0.1427  0.1519  0.0317
  193SOL     OW  543   2.357   1.062   5.865  0.7411 -0.2934  0.1542
  193SOL    HW2  544   2.391   1.084   5.952 -0.3285 -0.2429  0.5739
  193SOL    HW3  545   2.266   1.091   5.867  1.0751  1.0591 -1.4928
  193SOL    MW4  546   2.350   1.069   5.877  0.0024  0.1981  0.0369
  194SOL     OW  547   1.656   0.338   3.635  0.2834  0.6883 -0.1809
  194SOL    HW2  548   1.568   0.321   3.669 -0.1546  1.6622 -0.7854
  194SOL    HW3  549   1.646   0.416   3.580  0.9969 -0.6576 -2.3769
  194SOL    MW4  550   1.643   0.346   3.632  0.0389  0.6749 -0.2198
  195SOL     OW  551   4.090   4.964   1.990  0.0267  0.0708 -0.1795
  195SOL    HW2  552   4.080   5.052   2.026  0.7176 -0.0605  0.3455
  195SOL    HW3  553   4.001   4.929   1.990  0.1685 -0.6208  3.2220
  195SOL    MW4  554   4.077   4.971   1.994 -0.0989 -0.3514  0.4682
  196SOL     OW  555   3.804   5.725   3.564  0.0734  0.0271 -0.0053
  196SOL    HW2  556   3.763   5.786   3.503  0.2896  0.0712 -0.1064
  196SOL    HW3  557   3.890   5.707   3.526  0.0192 -0.3256  0.0317
  196SOL    MW4  558   3.810   5.731   3.551  0.3188 -0.4225 -0.0486
  197SOL     OW  559   0.816   5.674   5.058 -0.1471 -0.5585 -0.2810
  197SOL    HW2  560   0.770   5.756   5.042  0.5297  0.2139  1.4687
  197SOL    HW3  561   0.753   5.619   5.104  0.3010  0.1276  1.2168
  197SOL    MW4  562   0.802   5.677   5.062  0.3561  0.7814  0.3930
  198SOL     OW  563   3.527   5.119   1.297  0.1425 -1.2277 -0.1672
  198SOL    HW2  564   3.466   5.102   1.369  1.0687  1.4150  1.4046
  198SOL    HW3  565   3.608   5.074   1.322 -0.1379 -1.9931 -0.6061
  198SOL    MW4  566   3.530   5.111   1.310  0.2040 -0.1953  0.0389
  199SOL     OW  567   5.749   4.536   5.408 -0.3637 -0.0422 -0.5200
  199SOL    HW2  568   5.829   4.523   5.459  0.6749 -0.1449 -2.1027
  199SOL    HW3  569   5.684   4.564   5.473  0.7960 -0.4701  0.8929
  199SOL    MW4  570   5.751   4.538   5.424  0.3517 -0.2031  0.0686
  200SOL     OW  571   3.171   4.544   0.783 -0.5634  0.3098 -0.3139
  200SOL    HW2  572   3.243   4.481   0.791 -0.7261  0.0036 -1.1616
  200SOL    HW3  573   3.179   4.600   0.861  0.6731  0.3713 -0.4641
  200SOL    MW4  574   3.181   4.543   0.794 -0.1443 -0.1012 -0.8816
  201SOL     OW  575   4.666   4.617   2.025 -0.3162  0.5054 -0.8807
  201SOL    HW2  576   4.588   4.626   2.080 -0.1223  0.0014 -0.5164
  201SOL    HW3  577   4.739   4.639   2.084 -0.1305  0.2589 -1.0159
  201SOL    MW4  578   4.666   4.621   2.040 -0.0295  0.0407  0.1041
  202SOL     OW  579   0.499   6.316   4.021  0.1225 -0.3282 -0.3794
  202SOL    HW2  580   0.431   6.380   4.040  0.7695 -0.5586  3.3318
  202SOL    HW3  581   0.579   6.368   4.010  0.1103 -0.3112 -0.3871
  202SOL    MW4  582   0.501   6.331   4.022 -0.3060  0.3101 -0.2718
  203SOL     OW  583   4.036   5.044   0.942 -0.3631  0.2711  0.4886
  203SOL    HW2  584   3.976   5.016   0.872 -0.6070  1.1168  0.3457
  203SOL    HW3  585   4.103   4.976   0.945  0.3045  0.7856 -1.3782
  203SOL    MW4  586   4.037   5.031   0.933 -0.4201  0.1262 -0.0455
  204SOL     OW  587   2.378   2.590   2.888 -0.0593 -0.4999  0.4149
  204SOL    HW2  588   2.347   2.676   2.860  0.6478 -0.2789  0.2824
  204SOL    HW3  589   2.317   2.563   2.957 -0.7519 -0.2526 -0.0831
  204SOL    MW4  590   2.366   2.597   2.893  0.5160  0.3097 -0.7848
  205SOL     OW  591   6.031   1.977   0.385  0.6161 -0.0798  0.2982
  205SOL    HW2  592   5.951   2.027   0.370 -0.5447 -1.7140  0.7795
  205SOL    HW3  593   6.042   1.978   0.480  0.9498 -0.1992  0.2622
  205SOL    MW4  594   6.022   1.984   0.396 -0.1636 -0.2718 -0.4187
  206SOL     OW  595   2.789   2.371   6.280  0.6025 -0.0573  0.8136
  206SOL    HW2  596   2.836   2.453   6.297 -0.3097  0.3237  1.6003
  206SOL    HW3  597   2.819   2.343   6.194  0.3351  1.5387  0.1698
  206SOL    MW4  598   2.799   2.378   6.271  0.0387  0.2877  0.2245
  207SOL     OW  599   4.729   3.425   0.691  0.5496 -0.1231 -0.5079
  207SOL    HW2  600   4.783   3.346   0.699  0.8995  0.1887  0.3060
  207SOL    HW3  601   4.699   3.424   0.600  2.2527 -0.1152 -1.1138
  207SOL    MW4  602   4.732   3.415   0.680  0.2777  0.2693  0.1177
  208SOL     OW  603   3.240   4.227   1.816 -0.3666  0.4325 -0.0848
  208SOL    HW2  604   3.329   4.199   1.833  0.0190  1.5911 -0.0814
  208SOL    HW3  605   3.226   4.210   1.723 -0.6941 -1.1713  0.2320
  208SOL    MW4  606   3.250   4.221   1.806  0.1787 -0.4274  0.2820
  209SOL     OW  607   5.228   4.779   6.145 -0.4438  0.1480  0.2496
  209SOL    HW2  608   5.231   4.730   6.227 -0.4931 -0.3575 -0.0452
  209SOL    HW3  609   5.216   4.870   6.172 -0.3869 -0.0043  0.8043
  209SOL    MW4  610   5.227   4.785   6.159 -0.1073 -0.2691 -0.4614
  210SOL     OW  611   1.800   5.951   0.032 -0.0971  0.0933 -0.8609
  210SOL    HW2  612   1.809   5.973  -0.061  0.3772  1.3469 -0.5427
  210SOL    HW3  613   1.709   5.924   0.042 -0.1922  0.0884 -1.6539
  210SOL    MW4  614   1.789   5.950   0.021  0.3782  0.7486  0.4182
  211SOL     OW  615   1.132   4.024   5.459  0.5933 -0.0651 -0.1238
  211SOL    HW2  616   1.165   3.938   5.484 -1.7540 -1.1628 -0.5721
  211SOL    HW3  617   1.119   4.019   5.365 -1.2767  0.0919  0.0855
  211SOL    MW4  618   1.135   4.012   5.450 -0.2142 -0.0343 -0.3942
  212SOL     OW  619   5.758   5.702   4.262 -0.0367 -0.0821 -0.6279
  212SOL    HW2  620   5.690   5.659   4.210  1.1915 -1.9723 -0.7687
  212SOL    HW3  621   5.819   5.737   4.198 -0.2358  0.5446 -0.4821
  212SOL    MW4  622   5.757   5.701   4.247  0.7081  0.2703 -0.3847
  213SOL     OW  623   1.436   2.820   6.043  0.3799  0.6050 -0.7160
  213SOL    HW2  624   1.430   2.838   6.136 -1.2200  0.7690 -0.8206
  213SOL    HW3  625   1.345   2.804   6.016  0.4247  2.9681 -2.6984
  213SOL    MW4  626   1.423   2.821   6.051  0.4791 -0.5752  0.6189
  214SOL     OW  627   1.454   4.418   1.900  0.2961  0.2555  0.2443
  214SOL    HW2  628   1.474   4.381   1.987  0.1602 -2.5095 -0.8014
  214SOL    HW3  629   1.522   4.483   1.886  2.4393 -1.6391  1.0834
  214SOL    MW4  630   1.466   4.421   1.910 -0.2538  0.1483 -0.3386
  215SOL     OW  631   1.461   0.410   0.491  0.1829 -0.1813 -0.7694
  215SOL    HW2  632   1.404   0.477   0.451  1.3056  0.0204 -2.1034
  215SOL    HW3  633   1.423   0.327   0.463 -0.5025 -0.0890 -0.1352
  215SOL    MW4  634   1.448   0.408   0.482 -0.4629  0.0433 -0.8085
  216SOL     OW  635   1.296   3.888   0.810 -0.6911  0.3583  0.6227
  216SOL    HW2  636   1.260   3.901   0.898 -1.8115  1.5665  0.0188
  216SOL    HW3  637   1.219   3.871   0.755 -0.2218  1.5651 -0.4613
  216SOL    MW4  638   1.281   3.887   0.814  0.2980  0.2253  0.2511
  217SOL     OW  639   1.316   6.008   1.584 -0.4974 -0.2127  0.1804
  217SOL    HW2  640   1.411   6.017   1.576 -0.8164  2.3459 -2.0602
  217SOL    HW3  641   1.296   6.040   1.672  0.6602 -0.0513  0.3933
  217SOL    MW4  642   1.326   6.014   1.594  0.3200  0.0303  0.1727
  218SOL     OW  643   5.065   0.134   0.049  0.4121  0.7039 -0.5953
  218SOL    HW2  644   5.088   0.153  -0.042 -0.9534 -0.2863 -1.1868
  218SOL    HW3  645   5.060   0.219   0.091  0.6463  1.2079 -1.5500
  218SOL    MW4  646   5.067   0.148   0.043  0.5843 -0.1819 -0.2125
  219SOL     OW  647   3.475   0.573   1.504  0.5962  0.5833  0.2434
  219SOL    HW2  648   3.518   0.544   1.585  0.3958 -0.7975 -0.1289
  219SOL    HW3  649   3.462   0.667   1.517  1.8273  0.6478  1.2369
  219SOL    MW4  650   3.479   0.581   1.516  0.6861 -0.2221 -0.5538
  220SOL     OW  651   2.849   2.589   1.139  0.0705 -0.4305 -0.4048
  220SOL    HW2  652   2.789   2.560   1.207 -0.8117  0.3793 -0.8158
  220SOL    HW3  653   2.896   2.662   1.178  0.1276 -0.4667 -0.4047
  220SOL    MW4  654   2.848   2.595   1.153  0.0557  0.0901 -0.3672
  221SOL     OW  655   1.830   1.798   1.225  0.2235 -0.7282 -0.7550
  221SOL    HW2  656   1.889   1.787   1.151  2.0617  0.1329  0.5158
  221SOL    HW3  657   1.843   1.720   1.279 -1.0507 -1.3145 -1.2410
  221SOL    MW4  658   1.839   1.786   1.222 -0.0467 -0.7270 -0.0153
  222SOL     OW  659   5.560   3.087   1.548 -0.0140  0.2198 -0.3448
  222SOL    HW2  660   5.471   3.115   1.528  0.2107  0.5786 -0.8695
  222SOL    HW3  661   5.584   3.029   1.475 -0.1445 -0.6243  0.2647
  222SOL    MW4  662   5.551   3.083   1.535 -0.5063  0.3126  0.6343
  223SOL     OW  663   5.803   4.310   6.342  1.1195 -0.3069 -0.5332
  223SOL    HW2  664   5.801   4.405   6.344  2.9463 -0.2057 -1.3058
  223SOL    HW3  665   5.767   4.286   6.256  0.3019 -0.3499 -0.1871
  223SOL    MW4  666   5.798   4.319   6.331 -0.1617 -0.5120  0.1183
  224SOL     OW  667   5.813   0.405   0.050  0.1507 -0.2578 -0.1164
  224SOL    HW2  668   5.901   0.414   0.085  0.1513 -0.3807 -0.0858
  224SOL    HW3  669   5.812   0.319   0.009  0.0193 -0.2913 -0.0430
  224SOL    MW4  670   5.824   0.395   0.049 -0.5203  0.8800 -0.2945
  225SOL     OW  671   0.298   6.015   0.991  0.0867  0.5292 -0.3148
  225SOL    HW2  672   0.217   6.060   0.969 -0.6347 -0.6597 -0.1896
  225SOL    HW3  673   0.363   6.085   1.002 -0.8417  1.4719 -0.7237
  225SOL    MW4  674   0.296   6.030   0.990 -0.3068  0.2842 -0.5759
  226SOL     OW  675   6.061   4.211   4.258 -0.3441  1.1485  0.1539
  226SOL    HW2  676   5.972   4.182   4.237  0.2733 -0.7492 -0.0457
  226SOL    HW3  677   6.082   4.274   4.190 -0.8292  0.1193 -0.9833
  226SOL    MW4  678   6.052   4.216   4.246  0.5069  0.5219  0.1032
  227SOL     OW  679   0.423   5.141   2.563  0.5648 -0.7510  0.1261
  227SOL    HW2  680   0.492   5.174   2.621  0.2353 -1.4810  0.9482
  227SOL    HW3  681   0.419   5.047   2.582 -1.1938 -0.5938  0.6599
  227SOL    MW4  682   0.432   5.133   2.573 -0.2588  0.1480  0.2410
  228SOL     OW  683   4.579   3.077   5.778  0.8207  0.2528 -0.5953
  228SOL    HW2  684   4.582   3.113   5.689 -0.1361  1.3218 -0.2187
  228SOL    HW3  685   4.489   3.044   5.787  1.1264 -0.5014 -0.2666
  228SOL    MW4  686   4.567   3.077   5.767  0.2849 -0.0718 -0.3714
  229SOL     OW  687   3.455   0.436   0.980 -0.3335 -0.2455 -0.7705
  229SOL    HW2  688   3.480   0.489   1.056 -1.0637 -0.4481 -0.3851
  229SOL    HW3  689   3.538   0.396   0.952 -0.1098 -0.4777  0.1625
  229SOL    MW4  690   3.469   0.437   0.986 -0.0729 -0.2227 -0.3714
  230SOL     OW  691   5.710   5.108   3.269  0.3112  0.5420  0.0593
  230SOL    HW2  692   5.667   5.061   3.340  0.9947  2.2823  1.6861
  230SOL    HW3  693   5.638   5.149   3.221 -0.1031 -0.0062  0.1952
  230SOL    MW4  694   5.694   5.107   3.272  0.1316 -0.2990  0.2248
  231SOL     OW  695   4.393   3.501   4.980 -0.6245  0.1259  0.2737
  231SOL    HW2  696   4.382   3.509   4.885  1.2978 -0.5526 -0.0530
  231SOL    HW3  697   4.470   3.554   5.000 -2.0575  1.7589  1.7922
  231SOL    MW4  698   4.402   3.509   4.970 -0.4308  0.3437  0.0645
  232SOL     OW  699   5.290   4.600   5.369  0.2498  0.2840  0.2027
  232SOL    HW2  700   5.356   4.570   5.432  0.1561  1.9871  1.1716
  232SOL    HW3  701   5.296   4.538   5.296  2.1000 -0.2784  0.7899
  232SOL    MW4  702   5.300   4.587   5.367  0.5121  0.3107  0.1465
  233SOL     OW  703   4.098   3.441   1.780 -0.1675 -0.3456  0.4086
  233SOL    HW2  704   4.054   3.506   1.835 -0.2105 -0.4686  0.5211
  233SOL    HW3  705   4.136   3.492   1.708 -1.4760 -0.3581 -0.3330
  233SOL    MW4  706   4.097   3.456   1.778 -0.0833 -0.0311  0.2944
  234SOL     OW  707   4.365   0.765   5.039 -0.3454  0.2872 -0.2527
  234SOL    HW2  708   4.274   0.775   5.065  0.0992  2.5895  0.7054
  234SOL    HW3  709   4.395   0.687   5.085 -1.0423  1.2498  1.9783
  234SOL    MW4  710   4.357   0.756   5.049 -0.3694  0.2476 -0.4460
  235SOL     OW  711   5.764   1.603   4.843  0.1717 -0.5654 -0.0411
  235SOL    HW2  712   5.714   1.556   4.909  0.0758 -0.1662  0.1764
  235SOL    HW3  713   5.703   1.669   4.810  0.0703 -1.0552 -0.8574
  235SOL    MW4  714   5.749   1.606   4.847 -0.3293 -0.3378 -0.0798
  236SOL     OW  715   3.485   0.121   5.634 -0.0002  0.0607  0.0410
  236SOL    HW2  716   3.476   0.085   5.546 -0.2293 -0.9571  0.4735
  236SOL    HW3  717   3.457   0.051   5.693 -0.1907  0.8409  0.9206
  236SOL    MW4  718   3.480   0.107   5.631 -0.6409  0.3287 -0.6212
  237SOL     OW  719   0.586   5.536   6.030 -0.6152  0.2105 -0.2895
  237SOL    HW2  720   0.659   5.550   6.091  1.9473 -2.9907 -2.2778
  237SOL    HW3  721   0.517   5.498   6.083  0.9753 -1.0715  0.9878
  237SOL    MW4  722   0.587   5.533   6.045  0.0078  0.5790  0.6065
  238SOL     OW  723   4.509   1.298   2.152 -0.5183 -0.3805  0.0151
  238SOL    HW2  724   4.459   1.369   2.193 -1.3106 -1.0606  0.2668
  238SOL    HW3  725   4.449   1.223   2.154 -0.2488 -0.6618 -1.5974
  238SOL    MW4  726   4.494   1.298   2.158  0.2688  0.3957  0.2600
  239SOL     OW  727   3.988   5.951   4.227 -0.6638 -0.0866 -0.0854
  239SOL    HW2  728   4.025   6.039   4.241  1.8956 -1.2602  1.2912
  239SOL    HW3  729   4.034   5.919   4.150  0.3790 -1.1081  0.9157
  239SOL    MW4  730   3.999   5.959   4.219  0.5005  0.2964 -0.6468
  240SOL     OW  731   2.480   3.746   0.364  0.3775 -0.3840 -0.2631
  240SOL    HW2  732   2.476   3.680   0.434  1.6906  0.3032  0.5070
  240SOL    HW3  733   2.521   3.701   0.291  0.8107 -0.5725  0.0898
  240SOL    MW4  734   2.485   3.732   0.364 -0.1273  0.1883  0.6440
  241SOL     OW  735   3.806   0.262   3.163 -0.5531  0.1258 -0.2653
  241SOL    HW2  736   3.871   0.201   3.197  1.2184  1.8219 -0.4326
  241SOL    HW3  737   3.816   0.340   3.218 -2.8880  0.2503  0.0810
  241SOL    MW4  738   3.816   0.264   3.175 -0.0437  0.8008 -0.1066
  242SOL     OW  739   2.759   2.839   5.438  0.0101 -0.2252 -0.5849
  242SOL    HW2  740   2.706   2.771   5.479 -0.8556  0.8345  0.1084
  242SOL    HW3  741   2.759   2.817   5.345  1.8044 -2.5333 -0.1066
  242SOL    MW4  742   2.752   2.827   5.431  0.2976  0.0110 -0.0981
  243SOL     OW  743   5.530   3.037   2.959  0.2239 -0.3621  0.1040
  243SOL    HW2  744   5.573   2.993   3.032  0.2888 -0.2845  0.1129
  243SOL    HW3  745   5.601   3.062   2.900  0.1590 -0.5435 -0.0510
  243SOL    MW4  746   5.545   3.035   2.961 -0.3663  1.0305  0.2077
  244SOL     OW  747   1.939   4.133   1.559  0.0007  0.4055  0.0550
  244SOL    HW2  748   2.006   4.152   1.624 -1.3526  1.2323  1.2709
  244SOL    HW3  749   1.870   4.196   1.577 -0.8030  0.0560 -1.6274
  244SOL    MW4  750   1.939   4.144   1.570  0.5089 -0.4140 -0.2624
  245SOL     OW  751   2.294   3.229   3.439  0.2803 -0.1486  0.0755
  245SOL    HW2  752   2.362   3.289   3.406  1.0175 -0.5596  0.8234
  245SOL    HW3  753   2.236   3.216   3.364 -0.0197  1.6579 -0.0487
  245SOL    MW4  754   2.295   3.235   3.424 -0.1100  0.1362 -0.0682
  246SOL     OW  755   0.142   5.623   5.382  0.0120 -0.5294  0.1074
  246SOL    HW2  756   0.209   5.593   5.443 -0.1882 -1.1391  0.0387
  246SOL    HW3  757   0.101   5.698   5.425 -0.7393 -1.5154  1.1418
  246SOL    MW4  758   0.145   5.629   5.395  0.3274 -0.0381 -0.1337
  247SOL     OW  759   2.872   1.545   2.260  0.3112 -0.3217 -0.2080
  247SOL    HW2  760   2.934   1.502   2.201  0.1311 -0.3216 -0.4001
  247SOL    HW3  761   2.909   1.631   2.276  0.8084 -0.6408  0.3898
  247SOL    MW4  762   2.885   1.550   2.255 -0.2471  0.8380 -0.2253
  248SOL     OW  763   2.034   2.663   4.233  0.6166 -0.0853  0.1123
  248SOL    HW2  764   2.029   2.610   4.312 -0.6435 -0.7102 -0.3476
  248SOL    HW3  765   2.126   2.688   4.226  0.9147 -0.7781  1.2697
  248SOL    MW4  766   2.045   2.660   4.242  0.1957  0.5810  0.4231
  249SOL     OW  767   0.305   2.128   4.566  0.3363  0.1613 -0.3994
  249SOL    HW2  768   0.288   2.101   4.657 -0.8931  1.4256 -0.2194
  249SOL    HW3  769   0.302   2.223   4.568  0.3723  0.2136 -1.7582
  249SOL    MW4  770   0.302   2.137   4.578  0.0926 -0.4518 -0.3716
  250SOL     OW  771   2.342   4.423   5.496  0.4389 -0.1118  0.1649
  250SOL    HW2  772   2.332   4.455   5.586  0.4142 -2.0209  0.8926
  250SOL    HW3  773   2.430   4.452   5.470  0.7023 -0.0738  1.0510
  250SOL    MW4  774   2.352   4.431   5.505  0.0089  0.8732 -0.5185
  251SOL     OW  775   5.802   4.216   2.967 -0.3281  0.5544 -0.0316
  251SOL    HW2  776   5.818   4.283   2.900  0.7471 -0.7186 -1.1101
  251SOL    HW3  777   5.883   4.213   3.018 -0.3006 -0.0317 -0.1038
  251SOL    MW4  778   5.815   4.224   2.965 -0.8692  0.2775  0.2627
  252SOL     OW  779   2.363   2.488   1.302  0.1219  0.0154 -0.1352
  252SOL    HW2  780   2.335   2.398   1.319  1.3684 -0.4295 -0.3351
  252SOL    HW3  781   2.326   2.539   1.374  0.7305 -0.9249  0.8546
  252SOL    MW4  782   2.354   2.483   1.313  1.0000  0.0539  0.1584
  253SOL     OW  783   1.842   0.699   1.763  0.3798 -0.4704 -0.0791
  253SOL    HW2  784   1.781   0.733   1.698  2.1731  0.5010 -1.3501
  253SOL    HW3  785   1.868   0.614   1.727  0.0969 -0.6974  0.2503
  253SOL    MW4  786   1.837   0.692   1.749 -0.0015  0.0088 -0.2217
  254SOL     OW  787   2.006   5.915   1.849 -0.2095 -0.0517  0.2307
  254SOL    HW2  788   2.044   5.984   1.795 -0.8811  0.8408  0.8662
  254SOL    HW3  789   2.074   5.848   1.854  0.0546  0.0750 -1.2698
  254SOL    MW4  790   2.020   5.915   1.843  0.0601 -0.5529 -0.6227
  255SOL     OW  791   6.304   0.428   3.273  0.3775  0.0802 -0.0241
  255SOL    HW2  792   6.298   0.337   3.301 -1.5899  0.0873 -0.2786
  255SOL    HW3  793   6.217   0.464   3.289  0.7002  1.5182 -1.2607
  255SOL    MW4  794   6.292   0.421   3.278 -0.2102 -0.4576  0.4362
  256SOL     OW  795   6.218   4.964   3.862  0.7175  0.3339 -0.1839
  256SOL    HW2  796   6.296   4.968   3.917  0.8990 -0.7453 -0.3451
  256SOL    HW3  797   6.223   5.044   3.809 -0.3791  2.3375  2.5131
  256SOL    MW4  798   6.229   4.975   3.862  0.3911 -0.1519 -0.2427
  257SOL     OW  799   3.463   0.285   3.016  0.2282  0.1484 -0.0404
  257SOL    HW2  800   3.435   0.270   3.106 -0.6579 -0.2606 -0.3762
  257SOL    HW3  801   3.453   0.379   3.002  0.3483  0.2086  0.2764
  257SOL    MW4  802   3.458   0.295   3.026 -0.4372  0.2461 -0.4346
  258SOL     OW  803   1.753   3.383   6.323  0.2766 -0.2287 -0.3744
  258SOL    HW2  804   1.780   3.314   6.383 -0.1728  0.4035  0.5893
  258SOL    HW3  805   1.746   3.340   6.238  1.2604 -1.0727 -0.0444
  258SOL    MW4  806   1.755   3.368   6.320 -0.3550 -0.0374 -0.1078
  259SOL     OW  807   4.678   0.941   0.156  0.7068  0.6359  0.6929
  259SOL    HW2  808   4.664   0.897   0.240  1.7779  2.9109  2.1982
  259SOL    HW3  809   4.752   0.895   0.117  0.9972  0.2970  1.6101
  259SOL    MW4  810   4.686   0.929   0.162 -0.1058  0.0326 -0.0822
  260SOL     OW  811   3.957   6.103   3.591  0.0768 -0.3488 -0.4738
  260SOL    HW2  812   3.909   6.074   3.669  0.2572 -0.3913 -0.3790
  260SOL    HW3  813   4.045   6.069   3.603  1.1222  2.5743  1.0013
  260SOL    MW4  814   3.962   6.095   3.602 -0.4126  0.7222  0.2846
  261SOL     OW  815   1.036   2.937   5.632  0.0958 -0.1799  0.2664
  261SOL    HW2  816   1.110   2.948   5.573 -0.2530 -1.3739 -0.4305
  261SOL    HW3  817   1.038   3.014   5.688  1.3102  0.2550 -0.3460
  261SOL    MW4  818   1.046   2.949   5.632 -0.1796 -0.6695  0.2881
  262SOL     OW  819   3.960   2.754   4.239  0.3214 -0.2141 -1.1125
  262SOL    HW2  820   3.986   2.815   4.170 -0.2868  1.1329 -0.1855
  262SOL    HW3  821   3.936   2.810   4.313 -0.3275 -1.5844 -0.2523
  262SOL    MW4  822   3.960   2.769   4.240  0.6248  0.0312  0.0559
  263SOL     OW  823   5.306   4.648   4.937 -0.0901 -0.2649  0.5567
  263SOL    HW2  824   5.232   4.591   4.918 -0.9609  1.2909 -0.9581
  263SOL    HW3  825   5.304   4.659   5.032 -1.8838 -0.1761  0.5396
  263SOL    MW4  826   5.296   4.642   4.947  0.2608 -0.0486 -0.9328
  264SOL     OW  827   2.074   6.311   4.298  0.3138  0.5312  0.5239
  264SOL    HW2  828   2.064   6.249   4.225 -1.5352  0.7706  0.5176
  264SOL    HW3  829   1.988   6.313   4.339  0.7513  1.9990  1.4309
  264SOL    MW4  830   2.061   6.303   4.294  0.4103  0.2647 -0.2846
  265SOL     OW  831   6.195   1.590   5.931 -0.0126 -0.2290  0.6562
  265SOL    HW2  832   6.187   1.570   5.837  1.9528  0.0113  0.3970
  265SOL    HW3  833   6.141   1.668   5.943  0.0133 -0.0360 -0.3726
  265SOL    MW4  834   6.187   1.598   5.920  0.0588 -0.3693  0.2496
  266SOL     OW  835   5.814   6.416   0.108 -0.1795 -0.5466 -0.2664
  266SOL    HW2  836   5.727   6.444   0.135  0.6156  2.1399 -0.2190
  266SOL    HW3  837   5.871   6.436   0.182  0.7966 -0.3108 -1.0486
  266SOL    MW4  838   5.810   6.422   0.121  0.5325 -0.5269  0.2450
  267SOL     OW  839   1.487   1.252   3.261 -0.1420  0.0008 -0.6483
  267SOL    HW2  840   1.496   1.343   3.234  1.3812  0.0609 -0.0437
  267SOL    HW3  841   1.397   1.229   3.238 -0.6910  1.7705 -0.4632
  267SOL    MW4  842   1.476   1.261   3.255  0.1208 -0.4646  0.3430
  268SOL     OW  843   0.909   1.815   3.541  0.3697  0.1982 -0.4847
  268SOL    HW2  844   0.985   1.776   3.499 -0.6344 -0.2864 -1.9560
  268SOL    HW3  845   0.883   1.886   3.482  0.4578  1.2420  0.6893
  268SOL    MW4  846   0.915   1.819   3.528  0.3490  0.4900 -0.0746
  269SOL     OW  847   1.528   3.092   4.130  0.0211  0.4156  0.6738
  269SOL    HW2  848   1.607   3.040   4.124  0.0892  0.4473  1.2188
  269SOL    HW3  849   1.480   3.055   4.204 -0.9827 -0.2871 -0.2896
  269SOL    MW4  850   1.532   3.080   4.139  0.2817  0.2188 -0.3199
  270SOL     OW  851   5.988   2.422   1.940 -0.1228  0.2143  0.1608
  270SOL    HW2  852   5.931   2.378   2.003 -0.3000 -0.0943 -0.2083
  270SOL    HW3  853   5.927   2.465   1.879  0.0055  2.9826  1.8393
  270SOL    MW4  854   5.972   2.422   1.940 -0.0583  0.4394  0.3949
  271SOL     OW  855   2.235   2.794   1.078  0.1587 -0.0681 -0.0083
  271SOL    HW2  856   2.167   2.731   1.054 -0.5201  0.0411  1.5032
  271SOL    HW3  857   2.189   2.863   1.125  1.1214  0.7865 -0.2814
  271SOL    MW4  858   2.220   2.795   1.081  0.0811 -0.1345 -1.1674
  272SOL     OW  859   5.084   2.223   1.872 -0.3895 -0.6112  0.5591
  272SOL    HW2  860   5.141   2.146   1.866  1.0266  0.4707 -0.4325
  272SOL    HW3  861   5.029   2.217   1.794  0.7101  0.0952 -0.3077
  272SOL    MW4  862   5.084   2.212   1.861 -0.0349 -0.4594  0.2852
  273SOL     OW  863   0.357   1.359   4.382  0.0709 -0.2400 -0.0313
  273SOL    HW2  864   0.317   1.422   4.442 -0.4523  0.2079 -0.8275
  273SOL    HW3  865   0.365   1.278   4.433 -1.2711 -0.1579  0.3443
  273SOL    MW4  866   0.353   1.357   4.397 -0.4326  0.6126 -0.6439
  274SOL     OW  867   2.255   0.444   4.936 -0.2874 -0.2756  0.1859
  274SOL    HW2  868   2.181   0.384   4.936 -0.9776  0.5419 -0.5091
  274SOL    HW3  869   2.221   0.525   4.897  0.2797  0.9679  2.0763
  274SOL    MW4  870   2.241   0.447   4.931 -0.0359  0.1664 -0.9340
  275SOL     OW  871   3.351   3.217   2.737 -0.1204 -0.2744  0.2281
  275SOL    HW2  872   3.263   3.235   2.704  0.5878  0.4629 -1.3512
  275SOL    HW3  873   3.393   3.168   2.667  1.5325  1.5747 -0.1504
  275SOL    MW4  874   3.345   3.213   2.723  0.4221 -0.1322  0.3650
  276SOL     OW  875   3.324   6.416   0.168  0.1076  0.2536  0.1693
  276SOL    HW2  876   3.296   6.488   0.225  1.1345 -0.4805  1.6679
  276SOL    HW3  877   3.359   6.460   0.090 -2.6997  1.2417 -0.6721
  276SOL    MW4  878   3.325   6.432   0.165 -0.1316  0.3325 -0.0107
  277SOL     OW  879   1.340   4.458   3.011  0.6941  0.3322  0.4224
  277SOL    HW2  880   1.293   4.487   3.089  1.2289 -0.1427  0.9358
  277SOL    HW3  881   1.354   4.537   2.960  0.5939  0.6924  0.9527
  277SOL    MW4  882   1.336   4.472   3.015 -0.2625  0.2119 -0.3338
  278SOL     OW  883   2.716   0.120   2.963  0.0285 -0.3191 -0.6906
  278SOL    HW2  884   2.665   0.114   3.044  1.4701 -2.6258  0.1571
  278SOL    HW3  885   2.752   0.208   2.963  0.7006 -0.5374  1.6709
  278SOL    MW4  886   2.714   0.131   2.974  0.1305 -0.0171 -0.5897
  279SOL     OW  887   4.041   5.236   0.189  0.0203  0.2172  0.7144
  279SOL    HW2  888   4.088   5.307   0.233  1.5335 -1.1642  1.4270
  279SOL    HW3  889   4.005   5.183   0.261 -0.1560 -0.3417  0.2215
  279SOL    MW4  890   4.042   5.238   0.205 -0.1996 -0.4338  0.2892
  280SOL     OW  891   1.281   2.713   0.369  0.1277 -0.3742  0.3401
  280SOL    HW2  892   1.228   2.633   0.370 -2.0307  0.9750 -0.5343
  280SOL    HW3  893   1.242   2.769   0.435 -0.6519  1.2979 -1.4480
  280SOL    MW4  894   1.269   2.709   0.378 -0.4988 -0.1042 -0.1574
  281SOL     OW  895   6.070   4.951   0.746  0.0496  0.4003  0.2552
  281SOL    HW2  896   6.052   4.992   0.830  1.7215  0.5309  0.5815
  281SOL    HW3  897   6.052   4.858   0.760 -0.5886  0.5511  0.4629
  281SOL    MW4  898   6.065   4.944   0.759  0.5028  0.4423  0.7364
  282SOL     OW  899   4.046   6.168   3.259  0.2628 -0.1743 -0.2496
  282SOL    HW2  900   4.130   6.181   3.301 -0.0691  0.1080  0.3386
  282SOL    HW3  901   4.043   6.235   3.190  0.4789 -0.1327 -0.2191
  282SOL    MW4  902   4.056   6.178   3.255 -0.1095  0.2828  0.4260
  283SOL     OW  903   0.228   0.570   2.316 -0.3505  0.5867 -0.1142
  283SOL    HW2  904   0.258   0.640   2.258 -0.9478  1.7210  0.9106
  283SOL    HW3  905   0.134   0.582   2.323 -0.6252 -0.9439 -0.6960
  283SOL    MW4  906   0.220   0.580   2.309 -0.5474  0.0653 -0.9717
  284SOL     OW  907   6.064   4.582   1.245  0.1318  0.1454  0.0669
  284SOL    HW2  908   6.134   4.517   1.253 -0.1195 -0.1136  0.1369
  284SOL    HW3  909   5.983   4.533   1.258 -0.1840  0.1255 -1.6535
  284SOL    MW4  910   6.063   4.567   1.248 -0.2420 -0.3658  0.0185
  285SOL     OW  911   1.700   1.466   2.851 -0.5579 -0.0447  0.0342
  285SOL    HW2  912   1.718   1.375   2.877  0.7139  0.3167  0.5120
  285SOL    HW3  913   1.649   1.459   2.770 -2.5893 -1.1950  1.3248
  285SOL    MW4  914   1.696   1.453   2.844  0.3193 -0.0546  0.5068
  286SOL     OW  915   2.819   3.228   4.746 -0.2803  0.3715 -0.0944
  286SOL    HW2  916   2.853   3.316   4.764 -1.3967  0.6905  0.4825
  286SOL    HW3  917   2.877   3.169   4.795 -0.8234  0.9487  1.2865
  286SOL    MW4  918   2.831   3.232   4.755  0.1879 -0.4302 -0.0092
  287SOL     OW  919   1.861   2.202   2.907 -0.2435 -0.3275 -0.4934
  287SOL    HW2  920   1.929   2.269   2.907  1.4878 -1.9777  1.0180
  287SOL    HW3  921   1.787   2.242   2.953 -0.2477  1.3861 -1.8855
  287SOL    MW4  922   1.860   2.216   2.913  0.1180 -0.1994 -0.1396
  288SOL     OW  923   3.287   1.038   5.305  1.0244 -0.3441 -0.1201
  288SOL    HW2  924   3.315   1.014   5.217 -2.4944 -2.1731 -0.9373
  288SOL    HW3  925   3.313   0.964   5.359  0.2979 -0.7665 -0.3313
  288SOL    MW4  926   3.294   1.025   5.300  0.4090  0.1427 -0.1194
  289SOL     OW  927   5.578   4.944   5.259 -0.7052 -0.1614 -0.2470
  289SOL    HW2  928   5.667   4.971   5.234 -0.0096 -2.8125 -0.9065
  289SOL    HW3  929   5.543   5.020   5.307  2.2140  0.6529  0.8382
  289SOL    MW4  930   5.585   4.958   5.262 -0.3542  0.2123 -0.7698
  290SOL     OW  931   0.169   3.124   1.684  0.0006  0.0625 -0.0802
  290SOL    HW2  932   0.193   3.214   1.660 -0.1344  0.5739  1.5613
  290SOL    HW3  933   0.177   3.122   1.779 -2.9622 -0.7619  0.2431
  290SOL    MW4  934   0.173   3.136   1.693 -0.1514  0.4822 -0.3338
  291SOL     OW  935   5.901   6.075   0.342 -0.0301  0.4060  0.2259
  291SOL    HW2  936   5.962   6.041   0.408 -0.2691  0.4114  0.4492
  291SOL    HW3  937   5.899   6.007   0.274 -0.3044  0.0910  0.5453
  291SOL    MW4  938   5.909   6.061   0.342  0.9027  0.3657 -0.6949
  292SOL     OW  939   3.588   4.130   3.789  0.3212  0.2958  0.0255
  292SOL    HW2  940   3.630   4.210   3.756 -1.2817  1.4291  0.5855
  292SOL    HW3  941   3.521   4.110   3.724  0.2065 -0.1587  0.2807
  292SOL    MW4  942   3.585   4.138   3.776 -0.0238  0.3803  0.0388
  293SOL     OW  943   3.402   2.119   0.897  0.1730  0.0227  0.2299
  293SOL    HW2  944   3.360   2.161   0.972  0.8384 -0.1639  0.7129
  293SOL    HW3  945   3.441   2.190   0.847 -1.2488  0.2706 -0.5799
  293SOL    MW4  946   3.402   2.134   0.900 -0.4579 -0.1380  0.2842
  294SOL     OW  947   1.881   4.860   4.560 -0.3590  0.2469  0.1951
  294SOL    HW2  948   1.833   4.883   4.481  0.7011  0.6538 -0.3640
  294SOL    HW3  949   1.823   4.884   4.632 -0.5038  1.9240 -0.4235
  294SOL    MW4  950   1.867   4.866   4.559  0.0630  0.1001  0.5195
  295SOL     OW  951   0.298   0.616   1.918 -0.1403  0.2332 -0.1809
  295SOL    HW2  952   0.224   0.589   1.863 -0.2295 -0.2594  0.1716
  295SOL    HW3  953   0.340   0.534   1.943  1.3953  0.5692 -1.5413
  295SOL    MW4  954   0.293   0.601   1.914  0.3967  0.0406 -0.9346
  296SOL     OW  955   0.730   2.300   1.176  0.0778 -0.5406 -0.3977
  296SOL    HW2  956   0.758   2.214   1.145 -0.8700 -1.5924  1.4957
  296SOL    HW3  957   0.808   2.336   1.218  0.0373 -1.2392  0.3090
  296SOL    MW4  958   0.744   2.293   1.177 -0.2879 -0.3769  0.1134
  297SOL     OW  959   5.776   5.673   5.902  0.0210 -0.4289  0.1177
  297SOL    HW2  960   5.770   5.582   5.874 -0.4337  0.3176 -2.4597
  297SOL    HW3  961   5.743   5.723   5.827  0.4898  1.8760  1.3683
  297SOL    MW4  962   5.771   5.668   5.888  0.0605 -0.8369  0.1752
  298SOL     OW  963   1.973   6.333   2.905  0.2599 -1.0175  0.7054
  298SOL    HW2  964   1.969   6.413   2.854  3.3829 -0.6115  0.9210
  298SOL    HW3  965   1.928   6.267   2.852  0.6972  0.0928 -1.0900
  298SOL    MW4  966   1.966   6.335   2.891 -0.1022  0.1302 -0.1415
  299SOL     OW  967   1.932   3.558   6.063  0.1090  0.0080 -0.1161
  299SOL    HW2  968   1.988   3.532   6.135  2.2820  0.8409 -1.4205
  299SOL    HW3  969   1.876   3.627   6.098  0.8295  0.0962  0.8734
  299SOL    MW4  970   1.932   3.564   6.077 -0.0932 -0.0252 -0.1944
  300SOL     OW  971   0.149   0.255   0.775  0.1298 -0.3100 -0.4174
  300SOL    HW2  972   0.093   0.212   0.840  2.4499 -1.9850  0.6306
  300SOL    HW3  973   0.140   0.201   0.697 -0.6277  0.1280 -0.6322
  300SOL    MW4  974   0.141   0.242   0.774  0.3294  0.3407 -0.4772
  301SOL     OW  975   5.591   3.630   0.796 -0.5200  0.0410  0.0343
  301SOL    HW2  976   5.580   3.723   0.816 -0.5203 -0.0925  0.6641
  301SOL    HW3  977   5.542   3.585   0.865 -1.4470 -0.4000 -0.8915
  301SOL    MW4  978   5.583   3.637   0.808 -0.0385  0.4699  0.1894
  302SOL     OW  979   2.577   6.326   2.083 -0.4371 -0.4049 -0.3487
  302SOL    HW2  980   2.666   6.308   2.111 -0.5219  0.7968  0.7676
  302SOL    HW3  981   2.578   6.417   2.055 -1.5079 -0.0972  0.5506
  302SOL    MW4  982   2.589   6.336   2.083 -0.0947  0.8112  0.1954
  303SOL     OW  983   4.661   2.989   4.677 -0.2124  0.2643 -0.2846
  303SOL    HW2  984   4.658   2.980   4.772  0.4230 -2.5339 -0.4445
  303SOL    HW3  985   4.737   2.937   4.651  1.2294  3.0693 -2.1770
  303SOL    MW4  986   4.671   2.981   4.686  0.2700  0.8479 -0.0242
  304SOL     OW  987   1.839   0.929   1.106  0.4625  0.2988 -0.3682
  304SOL    HW2  988   1.769   0.993   1.097  1.3121  1.1555 -1.1114
  304SOL    HW3  989   1.795   0.849   1.133 -0.9748  0.4915 -1.9672
  304SOL    MW4  990   1.824   0.927   1.108 -0.4251 -0.3649 -0.4717
  305SOL     OW  991   1.292   5.549   2.541  0.1769 -0.4819  0.3154
  305SOL    HW2  992   1.305   5.466   2.586 -1.4328  0.9348  3.6677
  305SOL    HW3  993   1.212   5.585   2.578  0.3888  2.2457 -1.5708
  305SOL    MW4  994   1.283   5.543   2.551 -0.4933 -0.6208 -0.5972
  306SOL     OW  995   1.552   5.811   2.263  0.0624 -0.0463 -0.3266
  306SOL    HW2  996   1.516   5.735   2.308  0.8988  0.6345  1.6033
  306SOL    HW3  997   1.509   5.886   2.303  0.0876  0.5744 -1.4078
  306SOL    MW4  998   1.542   5.811   2.274 -0.5165  0.4091  0.2312
  307SOL     OW  999   2.886   0.617   4.034 -0.0071 -0.0496  0.6273
  307SOL    HW2 1000   2.960   0.604   3.975  0.3591  1.1787  0.8042
  307SOL    HW3 1001   2.856   0.528   4.053 -0.0193 -0.4890 -1.2412
  307SOL    MW4 1002   2.892   0.603   4.029  0.3167  0.0154  0.0501
  308SOL     OW 1003   3.005   3.491   2.915 -0.6447  0.2522 -0.1643
  308SOL    HW2 1004   2.938   3.423   2.908 -1.1800  0.8374 -0.8788
  308SOL    HW3 1005   3.062   3.461   2.986 -0.3408 -1.3969 -1.0368
  308SOL    MW4 1006   3.004   3.478   2.923 -0.1164 -0.4394  0.2810
  309SOL     OW 1007   0.552   0.956   6.126  0.0080  0.2134  0.1487
  309SOL    HW2 1008   0.630   0.902   6.113  1.1796  2.3781 -3.0705
  309SOL    HW3 1009   0.582   1.031   6.177  0.2045  1.1901 -1.3312
  309SOL    MW4 1010   0.566   0.959   6.131 -0.4530  0.3076  0.7826
  310SOL     OW 1011   2.835   4.601   4.100 -0.0962 -0.2603  0.0169
  310SOL    HW2 1012   2.859   4.527   4.156  1.0492  0.8847  1.1124
  310SOL    HW3 1013   2.909   4.610   4.040 -1.5979 -1.8970 -2.2615
  310SOL    MW4 1014   2.848   4.592   4.099 -0.3430 -0.5941 -0.1803
  311SOL     OW 1015   1.433   6.169   0.652 -0.3382  0.2181 -0.4290
  311SOL    HW2 1016   1.523   6.191   0.625 -0.0432 -1.1076 -0.5872
  311SOL    HW3 1017   1.432   6.182   0.746  0.9563 -2.6818  0.0706
  311SOL    MW4 1018   1.445   6.174   0.661 -0.5751 -0.4078  0.2806
  312SOL     OW 1019   3.009   3.060   2.535  0.5640 -0.0597  0.1819
  312SOL    HW2 1020   3.040   2.971   2.513  1.8728  0.6680 -1.1316
  312SOL    HW3 1021   3.000   3.103   2.450 -1.1116  0.7600  0.7481
  312SOL    MW4 1022   3.012   3.054   2.521 -0.6338 -0.0451  0.4655
  313SOL     OW 1023   0.954   3.540   3.842  0.0259 -0.0817  0.4548
  313SOL    HW2 1024   1.025   3.589   3.884  1.1890 -1.0805 -0.2757
  313SOL    HW3 1025   0.911   3.604   3.785  0.6561  0.4334  0.5468
  313SOL    MW4 1026   0.957   3.555   3.840  0.0080 -0.3031 -0.3184
  314SOL     OW 1027   0.729   0.572   1.945 -0.2352 -0.1465  0.2290
  314SOL    HW2 1028   0.731   0.551   1.851 -0.3919 -3.1769  0.8024
  314SOL    HW3 1029   0.660   0.517   1.981 -1.8198  2.6707  1.8579
  314SOL    MW4 1030   0.720   0.562   1.937  0.0267 -0.2505  0.5003
  315SOL     OW 1031   2.741   3.195   0.360  0.8201  0.2501 -0.2983
  315SOL    HW2 1032   2.814   3.145   0.323  1.5159  1.1906 -0.2475
  315SOL    HW3 1033   2.663   3.148   0.332  1.4240 -0.4746 -0.8202
  315SOL    MW4 1034   2.740   3.182   0.352 -0.1147  0.1042 -0.2899
  316SOL     OW 1035   0.741   3.736   0.154 -0.5769  0.3368  0.0725
  316SOL    HW2 1036   0.729   3.809   0.214  0.0204  1.5112 -1.1763
  316SOL    HW3 1037   0.766   3.777   0.071  0.9847 -1.3466 -0.3456
  316SOL    MW4 1038   0.743   3.751   0.151  0.6199 -0.0103 -0.0899
  317SOL     OW 1039   1.944   5.368   0.645 -0.3310 -0.1353 -0.2092
  317SOL    HW2 1040   1.982   5.397   0.562 -0.0717 -0.9255 -0.3809
  317SOL    HW3 1041   1.937   5.273   0.636  0.9184 -0.3890  1.1671
  317SOL    MW4 1042   1.948   5.359   0.633  0.3727 -0.1500 -0.4017
  318SOL     OW 1043   5.605   0.753   3.339 -0.5508 -0.4101 -0.2809
  318SOL    HW2 1044   5.560   0.719   3.261  0.3043 -1.5178 -0.3119
  318SOL    HW3 1045   5.564   0.706   3.412  0.6633 -1.6158 -0.3285
  318SOL    MW4 1046   5.594   0.742   3.338  0.0349  0.0498  0.5191
  319SOL     OW 1047   0.103   6.356   5.255 -0.4327  0.1436  0.2448
  319SOL    HW2 1048   0.029   6.295   5.247 -0.5146  0.1523  0.8788
  319SOL    HW3 1049   0.078   6.415   5.326 -0.5424  1.1963 -0.6290
  319SOL    MW4 1050   0.090   6.356   5.263 -0.2161 -0.6175  0.0859
  320SOL     OW 1051   3.194   3.406   3.091  0.2096 -0.0419  0.3717
  320SOL    HW2 1052   3.264   3.413   3.027 -0.0747  0.2374  0.0858
  320SOL    HW3 1053   3.226   3.454   3.167 -0.1759  1.1726 -0.2109
  320SOL    MW4 1054   3.207   3.413   3.092  0.1914  0.4590  0.2570
  321SOL     OW 1055   0.407   3.366   2.715 -0.3402  0.0046 -0.3407
  321SOL    HW2 1056   0.450   3.285   2.688 -0.2092 -0.9964  2.4931
  321SOL    HW3 1057   0.474   3.434   2.707  1.3472 -1.2097  2.3166
  321SOL    MW4 1058   0.421   3.364   2.711  0.1553  0.3958  0.0952
  322SOL     OW 1059   6.046   1.795   6.030 -0.1039  0.1601  0.2491
  322SOL    HW2 1060   5.955   1.766   6.019 -0.2172  0.5808  0.0779
  322SOL    HW3 1061   6.047   1.885   5.998  0.8639 -0.5468 -1.9214
  322SOL    MW4 1062   6.034   1.803   6.024  0.1666 -0.1565 -0.4195
  323SOL     OW 1063   2.067   5.944   4.276 -0.0816 -0.4798  0.5178
  323SOL    HW2 1064   2.049   5.944   4.370 -0.8336  0.3322  0.3855
  323SOL    HW3 1065   1.991   5.899   4.238  0.4276 -1.1933  0.3262
  323SOL    MW4 1066   2.054   5.938   4.284  0.2470 -0.4489 -0.1282
  324SOL     OW 1067   4.972   5.736   2.025 -0.0233 -0.5534  0.3295
  324SOL    HW2 1068   4.970   5.648   2.060  1.0414 -0.3090  1.0367
  324SOL    HW3 1069   5.059   5.770   2.047  0.4930 -0.1573 -1.9946
  324SOL    MW4 1070   4.983   5.729   2.032 -0.1612  0.6992  0.4306
  325SOL     OW 1071   6.360   1.322   1.103  0.1420  0.0844 -0.2371
  325SOL    HW2 1072   6.284   1.371   1.134  1.1860  2.2319 -0.8880
  325SOL    HW3 1073   6.324   1.259   1.041 -1.3424 -0.5521  1.2237
  325SOL    MW4 1074   6.345   1.320   1.099 -0.2730  0.2401 -0.5598
  326SOL     OW 1075   3.718   2.574   3.706  0.3032 -0.2442  0.2910
  326SOL    HW2 1076   3.750   2.494   3.747 -1.4487 -0.7137  0.8524
  326SOL    HW3 1077   3.652   2.544   3.644 -0.7787  0.7574  0.9052
  326SOL    MW4 1078   3.713   2.560   3.704 -0.4054 -0.5169 -0.1078
  327SOL     OW 1079   4.093   2.409   3.792  0.3943 -0.1235  0.0615
  327SOL    HW2 1080   4.138   2.484   3.753  0.0075  0.6968  1.1379
  327SOL    HW3 1081   4.088   2.431   3.886  0.1100 -1.4113  0.3572
  327SOL    MW4 1082   4.098   2.422   3.800 -0.3977  0.4952 -0.4945
  328SOL     OW 1083   1.531   2.076   3.210 -0.5793 -0.2165 -0.0599
  328SOL    HW2 1084   1.575   2.151   3.171 -1.7096  0.8287  0.5952
  328SOL    HW3 1085   1.499   2.025   3.136  0.6291 -0.3348 -0.5133
  328SOL    MW4 1086   1.532   2.079   3.195 -0.6260  0.1148 -0.0391
  329SOL     OW 1087   0.453   1.356   2.199  0.1723 -0.0946  0.0522
  329SOL    HW2 1088   0.388   1.286   2.210  0.6386 -0.3675  1.1666
  329SOL    HW3 1089   0.422   1.405   2.122 -0.9926 -0.6041  0.1705
  329SOL    MW4 1090   0.440   1.353   2.190  0.0606  0.3250  0.3638
  330SOL     OW 1091   3.201   4.693   1.017  0.5907  0.4198 -0.2689
  330SOL    HW2 1092   3.268   4.738   1.070 -0.4851  2.3387 -0.4613
  330SOL    HW3 1093   3.119   4.735   1.042 -0.4076 -1.0838 -0.9113
  330SOL    MW4 1094   3.199   4.705   1.028 -0.0709 -0.2600 -0.0614
  331SOL     OW 1095   5.097   3.965   3.322  0.1013 -0.4750 -0.1976
  331SOL    HW2 1096   5.156   4.039   3.310  1.4942 -1.1130  2.0436
  331SOL    HW3 1097   5.011   4.005   3.339  0.9009  0.6841  1.3658
  331SOL    MW4 1098   5.093   3.980   3.323 -0.0017  0.0124 -0.7207
  332SOL     OW 1099   1.825   3.005   2.840 -0.2313 -0.2899  0.0844
  332SOL    HW2 1100   1.865   2.933   2.889 -0.6436 -0.3195  0.3875
  332SOL    HW3 1101   1.838   3.082   2.896  1.2733  0.1215 -0.7820
  332SOL    MW4 1102   1.832   3.006   2.854 -0.2074  0.2106  0.0410
  333SOL     OW 1103   0.602   0.386   2.322  0.7287  0.1162 -0.4052
  333SOL    HW2 1104   0.611   0.309   2.266  2.1494 -0.2699  0.3102
  333SOL    HW3 1105   0.530   0.365   2.380  1.5665 -1.0127  0.2714
  333SOL    MW4 1106   0.594   0.373   2.322  0.4784 -0.0165  0.1320
  334SOL     OW 1107   0.365   1.502   1.966 -0.1935 -0.2475  0.0180
  334SOL    HW2 1108   0.276   1.500   1.931  0.9827  0.0774 -3.4032
  334SOL    HW3 1109   0.408   1.574   1.919  2.6376 -2.1912 -0.6659
  334SOL    MW4 1110   0.359   1.511   1.955  0.7443  0.0312  0.5588
  335SOL     OW 1111   5.181   0.661   1.403 -0.3746 -0.5594 -0.2628
  335SOL    HW2 1112   5.159   0.735   1.345  2.9013 -0.5174 -1.6790
  335SOL    HW3 1113   5.187   0.586   1.345  1.0662 -0.9215  0.3112
  335SOL    MW4 1114   5.179   0.661   1.388 -0.0833  0.9082 -0.4297
  336SOL     OW 1115   2.880   1.605   1.316 -0.0241 -0.0149  0.1794
  336SOL    HW2 1116   2.871   1.560   1.400  0.8328  0.5485  0.5884
  336SOL    HW3 1117   2.793   1.638   1.297 -0.5222 -1.2693  0.1931
  336SOL    MW4 1118   2.868   1.603   1.325  0.1475 -0.0917 -0.5444
  337SOL     OW 1119   2.143   2.767   6.031 -0.0174  0.3741  0.0790
  337SOL    HW2 1120   2.157   2.797   6.121 -3.0105  0.7747  0.4896
  337SOL    HW3 1121   2.163   2.673   6.034  2.7125  0.8766  0.3963
  337SOL    MW4 1122   2.148   2.759   6.043  0.2072 -0.3046 -0.1871
  338SOL     OW 1123   4.766   0.281   0.830 -0.0294 -0.0317  0.5502
  338SOL    HW2 1124   4.796   0.356   0.777  2.0995  0.2377  1.9996
  338SOL    HW3 1125   4.729   0.220   0.766  0.8988  1.0041 -1.0420
  338SOL    MW4 1126   4.765   0.283   0.814 -0.2227 -0.4809  0.2558
  339SOL     OW 1127   1.720   4.916   4.772 -0.4304 -0.2392 -0.8185
  339SOL    HW2 1128   1.687   5.004   4.790  0.1441 -0.0507 -0.6866
  339SOL    HW3 1129   1.716   4.871   4.857 -1.2231 -0.5153 -0.9894
  339SOL    MW4 1130   1.715   4.921   4.786  0.2822  0.2922 -0.1986
  340SOL     OW 1131   2.443   1.059   4.873  0.0005  0.2708 -0.0081
  340SOL    HW2 1132   2.389   1.071   4.952  0.2063  1.5302 -0.0328
  340SOL    HW3 1133   2.473   0.969   4.878  0.6321  0.5456  1.7676
  340SOL    MW4 1134   2.440   1.049   4.884  0.0865  0.2737  0.0740
  341SOL     OW 1135   1.167   6.172   1.160 -0.0352 -0.4131 -0.5294
  341SOL    HW2 1136   1.149   6.156   1.068  0.5694 -0.1710 -0.6955
  341SOL    HW3 1137   1.206   6.091   1.192  0.8951 -0.0825 -0.7986
  341SOL    MW4 1138   1.170   6.159   1.152  0.1195 -0.2031  0.6530
  342SOL     OW 1139   4.573   3.767   2.702 -0.4183  0.1722 -0.1469
  342SOL    HW2 1140   4.543   3.857   2.717 -0.9271 -0.0689  0.2984
  342SOL    HW3 1141   4.577   3.728   2.789 -1.4560 -0.6349 -0.4429
  342SOL    MW4 1142   4.570   3.774   2.715  0.2823 -0.0927  0.0635
  343SOL     OW 1143   2.614   4.394   5.150  0.2451 -0.0756  0.3266
  343SOL    HW2 1144   2.641   4.482   5.176  0.7481 -0.4573  1.1526
  343SOL    HW3 1145   2.696   4.345   5.143  0.3107  0.2928 -3.3191
  343SOL    MW4 1146   2.629   4.399   5.152 -0.1726  0.0279  0.5544
  344SOL     OW 1147   6.104   0.554   4.311 -0.4714 -0.0605  0.1140
  344SOL    HW2 1148   6.158   0.476   4.304 -1.8658 -0.9337 -1.7384
  344SOL    HW3 1149   6.140   0.615   4.247  0.5250  0.8300  1.4551
  344SOL    MW4 1150   6.116   0.552   4.302  0.3296 -0.3819 -0.9529
  345SOL     OW 1151   0.446   5.716   6.369 -0.2719  0.6462 -0.0378
  345SOL    HW2 1152   0.442   5.714   6.465 -1.3381 -2.1005 -0.0707
  345SOL    HW3 1153   0.357   5.734   6.341 -0.0508  1.0001 -0.5418
  345SOL    MW4 1154   0.434   5.718   6.378 -0.3411  0.0569 -0.1726
  346SOL     OW 1155   4.360   2.003   3.305  0.0755  0.2570 -0.2738
  346SOL    HW2 1156   4.345   2.011   3.211  0.6723 -0.2164 -0.4246
  346SOL    HW3 1157   4.293   1.942   3.335 -0.4345  0.8053 -0.2970
  346SOL    MW4 1158   4.349   1.996   3.296 -0.1068  0.0896  0.0807
  347SOL     OW 1159   0.455   2.181   2.248  0.0780 -0.3349  0.5275
  347SOL    HW2 1160   0.401   2.173   2.326 -0.4205  0.0939  0.2320
  347SOL    HW3 1161   0.526   2.117   2.261 -1.3463 -2.0577  0.2191
  347SOL    MW4 1162   0.457   2.171   2.260  0.1359 -0.1323  0.1068
  348SOL     OW 1163   0.896   3.622   4.874  0.2031 -0.6226  0.3295
  348SOL    HW2 1164   0.812   3.607   4.832 -0.5902  0.2340  1.5461
  348SOL    HW3 1165   0.931   3.701   4.831 -0.5090  0.1307  1.1071
  348SOL    MW4 1166   0.890   3.631   4.863 -0.4222 -0.8631 -0.0028
  349SOL     OW 1167   2.023   5.102   3.135 -0.5191  0.0477 -0.3504
  349SOL    HW2 1168   1.929   5.098   3.115 -1.1760 -2.4129  2.4903
  349SOL    HW3 1169   2.055   5.015   3.114  0.6560  0.2307  0.6001
  349SOL    MW4 1170   2.015   5.090   3.129 -0.3227 -0.0472 -0.4723
  350SOL     OW 1171   3.762   3.540   0.582  0.3639  0.3109  0.3447
  350SOL    HW2 1172   3.670   3.566   0.589  0.4902  1.0007 -0.2985
  350SOL    HW3 1173   3.811   3.619   0.606  0.8005 -0.2166  1.2317
  350SOL    MW4 1174   3.756   3.554   0.586 -0.1124  0.0347 -0.3030
  351SOL     OW 1175   2.709   0.740   2.727  0.1816  0.0205 -0.5119
  351SOL    HW2 1176   2.705   0.833   2.748 -0.7988 -0.3775  1.2366
  351SOL    HW3 1177   2.796   0.728   2.687  0.2824  1.6699 -0.8505
  351SOL    MW4 1178   2.720   0.751   2.724 -0.0167  0.3546  0.1865
  352SOL     OW 1179   0.458   4.025   1.560 -0.0420  0.4658  0.7139
  352SOL    HW2 1180   0.537   4.045   1.510 -0.2159 -2.1902 -0.8040
  352SOL    HW3 1181   0.489   3.967   1.630 -0.4254  0.6673  1.0516
  352SOL    MW4 1182   0.473   4.020   1.563 -0.0442  0.0288 -0.4019
  353SOL     OW 1183   3.686   5.691   5.916  0.0103 -0.2432  0.3468
  353SOL    HW2 1184   3.757   5.628   5.906  0.5162  0.4164 -0.3642
  353SOL    HW3 1185   3.622   5.666   5.849 -1.0594 -1.6211  1.8212
  353SOL    MW4 1186   3.687   5.680   5.905  0.0205  0.2405  0.1170
  354SOL     OW 1187   0.256   4.719   4.768 -0.4139 -0.4304 -0.0503
  354SOL    HW2 1188   0.301   4.803   4.759 -1.0271 -0.2336 -1.5253
  354SOL    HW3 1189   0.321   4.662   4.809  0.2398  0.5711  0.3608
  354SOL    MW4 1190   0.270   4.722   4.773 -0.3276 -0.5984 -0.1658
  355SOL     OW 1191   1.652   4.883   1.055  1.0341 -0.4342 -0.1761
  355SOL    HW2 1192   1.641   4.927   0.971 -2.5562  0.0858  0.4378
  355SOL    HW3 1193   1.582   4.917   1.110  2.9106 -1.1652  2.9152
  355SOL    MW4 1194   1.642   4.893   1.051  0.2697 -0.2089  0.4617
  356SOL     OW 1195   1.900   3.123   1.978  0.1183 -0.0674  0.0620
  356SOL    HW2 1196   1.840   3.094   2.048 -1.0186 -1.2236 -1.3082
  356SOL    HW3 1197   1.980   3.074   1.994 -0.0527 -0.1537  0.6901
  356SOL    MW4 1198   1.902   3.113   1.990  0.2690  0.0742 -0.0137
  357SOL     OW 1199   0.463   5.025   6.275  0.1215 -0.0066 -0.1733
  357SOL    HW2 1200   0.484   5.053   6.186  0.3128  1.5399  0.3241
  357SOL    HW3 1201   0.377   5.065   6.293  1.3932  2.2736  1.3402
  357SOL    MW4 1202   0.454   5.034   6.265  0.0487 -0.0178 -0.4070
  358SOL     OW 1203   2.732   1.478   3.222 -0.5081  0.0797 -0.4322
  358SOL    HW2 1204   2.734   1.410   3.155  0.0404 -1.3856  1.0191
  358SOL    HW3 1205   2.668   1.541   3.190 -0.7316 -0.9025 -2.0176
  358SOL    MW4 1206   2.724   1.478   3.209 -0.1067  0.2035  0.4586
  359SOL     OW 1207   4.482   2.675   4.539 -0.4278  0.1200  0.7636
  359SOL    HW2 1208   4.455   2.584   4.535  0.3088 -0.2934  3.2806
  359SOL    HW3 1209   4.404   2.723   4.567 -0.4480  0.0257  0.8697
  359SOL    MW4 1210   4.468   2.669   4.542  0.3186 -0.1384 -0.1775
  360SOL     OW 1211   6.369   4.340   2.079 -0.3552 -0.1909 -0.2283
  360SOL    HW2 1212   6.341   4.431   2.087 -0.3871 -0.2689  0.7951
  360SOL    HW3 1213   6.437   4.331   2.147  2.3544  0.0576 -2.7214
  360SOL    MW4 1214   6.375   4.351   2.089 -0.0555 -0.2052  0.1686
  361SOL     OW 1215   4.922   4.713   6.354  0.0941 -0.2298 -0.1429
  361SOL    HW2 1216   4.886   4.684   6.438 -0.9877  0.2637 -0.4220
  361SOL    HW3 1217   4.962   4.634   6.316  4.4887  0.3053  2.6426
  361SOL    MW4 1218   4.923   4.698   6.360  0.5194  0.3003 -0.5326
  362SOL     OW 1219   6.164   2.726   5.762  0.5602  0.0274  0.4424
  362SOL    HW2 1220   6.135   2.792   5.699 -0.3459 -1.7582 -1.1512
  362SOL    HW3 1221   6.252   2.754   5.788  0.4952  1.4560 -0.7316
  362SOL    MW4 1222   6.172   2.738   5.757  0.2163  0.1639 -1.1434
  363SOL     OW 1223   2.421   5.651   5.423  0.2647  0.2288  0.2258
  363SOL    HW2 1224   2.335   5.676   5.455  0.3444  2.6252 -1.1754
  363SOL    HW3 1225   2.413   5.558   5.399 -1.4508  0.0133  1.5060
  363SOL    MW4 1226   2.409   5.642   5.424  0.9704 -0.1725  0.0031
  364SOL     OW 1227   5.874   4.841   0.395  0.5486  0.1790  0.8009
  364SOL    HW2 1228   5.787   4.801   0.399  1.5008 -2.3387 -0.6973
  364SOL    HW3 1229   5.872   4.895   0.316  0.0501  0.9754  1.3507
  364SOL    MW4 1230   5.862   4.843   0.385  0.1937 -0.1856  0.4715
  365SOL     OW 1231   0.988   3.481   1.818  0.3089  0.7420  0.4636
  365SOL    HW2 1232   0.973   3.447   1.906 -0.9986  1.9684  0.7499
  365SOL    HW3 1233   1.047   3.418   1.777 -2.1878 -2.0532  0.8475
  365SOL    MW4 1234   0.994   3.469   1.824  0.8663 -0.0709  0.2388
  366SOL     OW 1235   2.879   2.867   1.674 -0.8227 -0.0888 -0.0428
  366SOL    HW2 1236   2.834   2.866   1.758  0.8791  0.7468  0.9353
  366SOL    HW3 1237   2.970   2.888   1.695 -0.3522  0.2166 -2.0989
  366SOL    MW4 1238   2.885   2.870   1.688  0.7208 -0.1412 -0.3366
  367SOL     OW 1239   2.292   4.203   0.695 -0.1908  0.6642 -0.0908
  367SOL    HW2 1240   2.287   4.116   0.655 -0.3843  0.0871  1.1365
  367SOL    HW3 1241   2.231   4.256   0.645  1.8206  0.8347 -2.5584
  367SOL    MW4 1242   2.284   4.199   0.683  0.8870 -0.1668  0.5831
  368SOL     OW 1243   1.778   1.805   3.260 -0.3855 -0.0864 -0.2930
  368SOL    HW2 1244   1.684   1.785   3.255 -0.8448  0.7715  2.6292
  368SOL    HW3 1245   1.821   1.731   3.218 -2.3393 -0.7504 -1.2613
  368SOL    MW4 1246   1.771   1.793   3.254  0.0477  0.3561  0.2122
  369SOL     OW 1247   2.904   2.312   1.002 -0.0900 -0.1868  0.3954
  369SOL    HW2 1248   2.861   2.390   0.967 -1.3440 -0.7958  0.5151
  369SOL    HW3 1249   2.858   2.294   1.085  1.0296 -0.3275  1.0111
  369SOL    MW4 1250   2.892   2.320   1.009  0.7061 -0.2304  0.1929
  370SOL     OW 1251   5.298   0.755   3.423 -0.2960 -0.5895  0.3454
  370SOL    HW2 1252   5.313   0.834   3.371 -1.1081 -0.6193  0.0524
  370SOL    HW3 1253   5.267   0.788   3.508  1.7711 -0.5063  1.1266
  370SOL    MW4 1254   5.295   0.770   3.428 -0.3738 -0.7719  0.2490
  371SOL     OW 1255   4.061   1.336   5.095 -0.4278 -0.0035 -0.5818
  371SOL    HW2 1256   4.131   1.398   5.117 -0.9346 -0.3678  2.5316
  371SOL    HW3 1257   4.107   1.253   5.080 -0.0731 -0.0556  0.6501
  371SOL    MW4 1258   4.077   1.333   5.096 -0.1282 -0.0208  0.3572
  372SOL     OW 1259   4.811   5.757   3.367  0.2100 -0.5641  0.1402
  372SOL    HW2 1260   4.781   5.748   3.277  1.2169 -0.3254 -0.2228
  372SOL    HW3 1261   4.739   5.721   3.420 -0.6888 -0.0606 -0.7099
  372SOL    MW4 1262   4.797   5.751   3.362  0.1480 -0.1396  0.0341
  373SOL     OW 1263   4.837   0.386   1.784  0.2833 -0.0350  0.2442
  373SOL    HW2 1264   4.869   0.296   1.786 -0.2711 -0.2675 -0.6678
  373SOL    HW3 1265   4.834   0.408   1.691 -0.0326  0.7661  0.4330
  373SOL    MW4 1266   4.841   0.377   1.772  0.2107 -0.1365 -0.1019
  374SOL     OW 1267   1.520   5.794   5.623 -0.5269  0.1651 -0.0585
  374SOL    HW2 1268   1.483   5.798   5.535  2.4003 -1.0778 -1.5100
  374SOL    HW3 1269   1.523   5.700   5.643 -0.8362  0.4144  1.2136
  374SOL    MW4 1270   1.516   5.782   5.614 -0.3687  0.6250 -0.2973
  375SOL     OW 1271   4.666   6.147   4.762 -0.0460 -0.0611  0.3324
  375SOL    HW2 1272   4.726   6.087   4.805 -0.1894  0.6332  1.5385
  375SOL    HW3 1273   4.713   6.230   4.758 -0.4475  0.1603  0.1402
  375SOL    MW4 1274   4.680   6.150   4.767 -0.3237  0.0003  0.4720
  376SOL     OW 1275   2.884   0.637   5.983  0.0283  0.7449 -0.2787
  376SOL    HW2 1276   2.876   0.683   5.899  1.4011 -0.0203 -0.8650
  376SOL    HW3 1277   2.805   0.582   5.988  1.4819 -1.8600 -2.7942
  376SOL    MW4 1278   2.872   0.636   5.972 -0.2764  0.2790 -0.0750
  377SOL     OW 1279   3.060   2.214   2.948 -0.4027 -0.8792  0.5166
  377SOL    HW2 1280   3.039   2.236   2.858 -1.4286 -0.2416  0.8934
  377SOL    HW3 1281   3.151   2.183   2.945 -0.2050 -0.2330 -0.6225
  377SOL    MW4 1282   3.070   2.213   2.936  0.4070  0.0500  0.2333
  378SOL     OW 1283   4.472   0.483   3.882  0.2550 -0.6204  0.0025
  378SOL    HW2 1284   4.529   0.515   3.813  0.6481  1.6501  1.2916
  378SOL    HW3 1285   4.400   0.441   3.836  1.0110 -0.0669 -1.7557
  378SOL    MW4 1286   4.470   0.482   3.867 -0.5232 -0.4277  0.2129
  379SOL     OW 1287   2.245   5.205   0.669  0.2463  0.1004 -0.3441
  379SOL    HW2 1288   2.181   5.148   0.712 -0.5558 -0.4292 -2.1292
  379SOL    HW3 1289   2.326   5.154   0.670  0.0061 -0.2913 -0.2387
  379SOL    MW4 1290   2.247   5.190   0.675 -0.1672 -0.0877 -0.1645
  380SOL     OW 1291   2.251   4.766   1.240 -0.1397  0.2123 -0.7909
  380SOL    HW2 1292   2.246   4.730   1.152  0.5914  1.1788 -1.2449
  380SOL    HW3 1293   2.344   4.765   1.261 -0.3288 -0.2146  0.0663
  380SOL    MW4 1294   2.262   4.761   1.231 -0.1286  0.2895  0.6852
  381SOL     OW 1295   2.998   1.016   0.489 -0.4567  0.2898 -0.3635
  381SOL    HW2 1296   3.090   1.007   0.514 -0.3781 -1.1441 -1.0498
  381SOL    HW3 1297   2.993   1.100   0.442  0.6498  0.0624 -0.9163
  381SOL    MW4 1298   3.009   1.026   0.486 -0.3753  0.3684  0.5471
  382SOL     OW 1299   5.990   0.581   2.460  0.1266 -0.0387  0.9272
  382SOL    HW2 1300   5.970   0.616   2.373  0.8444  0.0400  0.7931
  382SOL    HW3 1301   6.030   0.654   2.507  0.5216 -0.3282  1.0422
  382SOL    MW4 1302   5.993   0.595   2.454 -0.3633  0.4612 -0.1132
  383SOL     OW 1303   2.607   0.540   6.050 -0.1827 -0.0185 -0.0552
  383SOL    HW2 1304   2.610   0.503   6.138 -2.4684  0.5359  0.3146
  383SOL    HW3 1305   2.514   0.553   6.033  0.1043 -1.0329 -2.9572
  383SOL    MW4 1306   2.595   0.537   6.059 -0.2302 -0.2967 -0.4818
  384SOL     OW 1307   3.089   4.143   0.488  0.2890 -0.6542 -0.0497
  384SOL    HW2 1308   3.051   4.223   0.451  0.6406 -1.0408 -1.2852
  384SOL    HW3 1309   3.014   4.083   0.498 -0.2626  0.3092  2.3628
  384SOL    MW4 1310   3.074   4.146   0.485  0.4034  0.2044 -0.0237
  385SOL     OW 1311   2.153   3.153   5.791  0.1818  0.5358  0.6219
  385SOL    HW2 1312   2.097   3.159   5.868 -0.0998  1.3315  0.3648
  385SOL    HW3 1313   2.196   3.238   5.786  0.2095  0.4901 -0.0900
  385SOL    MW4 1314   2.152   3.165   5.800  0.4408  0.3100 -0.4132
  386SOL     OW 1315   1.585   3.042   1.431  0.6848  0.1989 -0.2567
  386SOL    HW2 1316   1.527   2.996   1.370 -2.1253  1.6930  1.1056
  386SOL    HW3 1317   1.661   2.984   1.441 -0.7026 -2.0304 -1.9053
  386SOL    MW4 1318   1.588   3.028   1.424  0.0343 -0.3391  0.1389
  387SOL     OW 1319   3.673   4.249   0.057  0.2641 -0.0135 -0.1151
  387SOL    HW2 1320   3.586   4.259   0.020 -0.7256  1.1524  2.2813
  387SOL    HW3 1321   3.730   4.236  -0.018 -1.8475  0.0764 -1.8273
  387SOL    MW4 1322   3.669   4.249   0.042 -0.4778 -0.4065  0.3737
  388SOL     OW 1323   4.678   3.249   1.531 -0.2402  0.5243  0.8179
  388SOL    HW2 1324   4.583   3.263   1.532 -0.2493  0.5038  0.3549
  388SOL    HW3 1325   4.714   3.332   1.562 -0.4333  0.2593  1.7801
  388SOL    MW4 1326   4.670   3.262   1.535 -0.3491 -0.4741  0.0393
  389SOL     OW 1327   5.808   2.166   2.107  0.9567  0.1183  0.1169
  389SOL    HW2 1328   5.804   2.158   2.202 -3.5768 -0.9583  0.0642
  389SOL    HW3 1329   5.828   2.077   2.077  1.5430  0.2760  0.0312
  389SOL    MW4 1330   5.810   2.153   2.115 -0.3977 -0.3586 -0.0198
  390SOL     OW 1331   0.619   2.478   0.990  0.6379 -0.1580  0.5158
  390SOL    HW2 1332   0.570   2.555   1.020  1.0435  0.0076  0.7555
  390SOL    HW3 1333   0.648   2.435   1.070 -0.0199 -0.8450  0.3880
  390SOL    MW4 1334   0.617   2.483   1.004  0.1090 -0.2780  0.3014
  391SOL     OW 1335   4.017   4.739   3.635 -0.3648 -0.0828 -0.0560
  391SOL    HW2 1336   4.030   4.819   3.584  0.2008 -0.8476 -1.1513
  391SOL    HW3 1337   4.100   4.725   3.680 -0.2701 -0.3552 -0.3119
  391SOL    MW4 1338   4.029   4.747   3.634 -0.0583 -0.2416 -0.1196
  392SOL     OW 1339   6.172   1.481   4.605  0.0557  0.1814 -0.0212
  392SOL    HW2 1340   6.102   1.435   4.651 -0.5554 -0.0526 -1.1562
  392SOL    HW3 1341   6.243   1.417   4.600  0.0434  0.1316  0.3773
  392SOL    MW4 1342   6.172   1.466   4.611  0.0964 -0.2946  0.5188
  393SOL     OW 1343   2.836   2.295   1.517  0.3277  0.5145 -0.7104
  393SOL    HW2 1344   2.831   2.287   1.422  1.1865  1.7990 -0.8886
  393SOL    HW3 1345   2.860   2.207   1.547 -0.9077 -0.1533 -1.5712
  393SOL    MW4 1346   2.839   2.282   1.509  0.0560  0.6010  0.0758
  394SOL     OW 1347   0.185   4.655   3.137  0.1225  0.2398  0.0903
  394SOL    HW2 1348   0.220   4.733   3.179  0.1818  1.2982 -1.7978
  394SOL    HW3 1349   0.092   4.654   3.163  0.2514  0.6243  0.5791
  394SOL    MW4 1350   0.177   4.666   3.146 -0.4509 -0.8633 -0.0002
  395SOL     OW 1351   5.060   3.544   1.137  0.3069  0.1175 -0.0562
  395SOL    HW2 1352   5.077   3.570   1.228  1.0196 -0.5906  0.0331
  395SOL    HW3 1353   5.146   3.550   1.095 -0.0280  0.4753 -0.6945
  395SOL    MW4 1354   5.074   3.548   1.144 -0.0581 -0.1218  0.0973
  396SOL     OW 1355   3.293   1.461   1.933 -0.8673  0.3389  0.0815
  396SOL    HW2 1356   3.298   1.467   1.838 -0.0174  0.7133  0.1354
  396SOL    HW3 1357   3.366   1.402   1.957  0.2302  1.8466  0.6291
  396SOL    MW4 1358   3.304   1.454   1.924 -0.1372 -0.2545  0.3531
  397SOL     OW 1359   2.211   3.965   1.180  0.1505 -0.1438  0.5022
  397SOL    HW2 1360   2.190   3.971   1.086  0.2383  1.4210  0.5577
  397SOL    HW3 1361   2.171   4.043   1.218  3.0139  1.0702  1.2064
  397SOL    MW4 1362   2.203   3.976   1.172 -0.1619 -0.8238 -0.0292
  398SOL     OW 1363   2.643   2.938   3.267  0.3830  0.2997  0.2899
  398SOL    HW2 1364   2.581   2.979   3.327 -0.4815  2.6303 -1.9741
  398SOL    HW3 1365   2.590   2.910   3.192  1.7691  0.5215 -0.8359
  398SOL    MW4 1366   2.628   2.940   3.265 -0.4464 -0.2184 -0.5701
  399SOL     OW 1367   4.129   5.384   5.648 -0.1048 -0.2547  0.5793
  399SOL    HW2 1368   4.190   5.444   5.605 -0.3285 -0.9583 -0.7457
  399SOL    HW3 1369   4.179   5.303   5.660 -0.6313 -0.6985 -0.1429
  399SOL    MW4 1370   4.143   5.381   5.644  1.0780  0.4160  0.6273
  400SOL     OW 1371   3.596   6.101   5.862 -0.4939 -0.3821  0.1434
  400SOL    HW2 1372   3.564   6.051   5.937  2.2854 -0.4001  1.4329
  400SOL    HW3 1373   3.668   6.049   5.828  2.4679  2.5350  1.4679
  400SOL    MW4 1374   3.601   6.087   5.867 -0.1591 -0.2956 -0.0475
  401SOL     OW 1375   1.100   2.976   2.683 -0.2906 -0.1595  0.1621
  401SOL    HW2 1376   1.091   2.890   2.724  1.6678 -0.8317 -0.7270
  401SOL    HW3 1377   1.026   2.982   2.622 -1.0109 -0.7554  0.9571
  401SOL    MW4 1378   1.089   2.966   2.681 -0.3143 -0.0388 -0.1223
  402SOL     OW 1379   1.737   3.624   4.092  0.8094  1.0151  0.2877
  402SOL    HW2 1380   1.814   3.568   4.102 -0.0595 -0.2258  0.2985
  402SOL    HW3 1381   1.773   3.712   4.082  2.2326  0.4515  0.1141
  402SOL    MW4 1382   1.752   3.628   4.092 -0.3335  0.0256  0.0644
  403SOL     OW 1383   0.533   3.753   6.029 -0.2416  0.2082  0.4944
  403SOL    HW2 1384   0.525   3.689   5.958  1.4986 -0.7006  1.0616
  403SOL    HW3 1385   0.536   3.699   6.109  0.3280  1.0630  1.0562
  403SOL    MW4 1386   0.532   3.737   6.030  0.5094 -0.5737 -0.3223
  404SOL     OW 1387   2.168   2.430   4.808  0.0389 -0.3595 -0.1025
  404SOL    HW2 1388   2.172   2.338   4.783 -0.4429 -0.7592  1.2113
  404SOL    HW3 1389   2.223   2.475   4.745 -1.3017 -1.2676 -2.0067
  404SOL    MW4 1390   2.175   2.424   4.797 -0.8691 -0.6870  0.4164
  405SOL     OW 1391   0.265   3.813   2.467 -0.4826 -0.5247  0.2104
  405SOL    HW2 1392   0.289   3.898   2.431  0.0248 -0.4913  0.6274
  405SOL    HW3 1393   0.194   3.832   2.529 -0.3572 -0.4013  0.3171
  405SOL    MW4 1394   0.259   3.827   2.470 -0.0730  0.2746  0.0891
  406SOL     OW 1395   3.027   1.258   4.888  0.0482  0.0134  0.0167
  406SOL    HW2 1396   2.997   1.303   4.967 -1.1954 -1.1520  0.2472
  406SOL    HW3 1397   3.080   1.185   4.920 -0.6928 -0.6293 -0.2061
  406SOL    MW4 1398   3.030   1.254   4.902 -0.1548  0.0631 -0.6415
  407SOL     OW 1399   6.197   5.954   0.505  0.5319 -0.3879  0.3516
  407SOL    HW2 1400   6.253   6.007   0.449  0.8448  0.8226  1.7612
  407SOL    HW3 1401   6.254   5.926   0.577  0.0260 -1.5142  0.3358
  407SOL    MW4 1402   6.212   5.957   0.507  0.4090  0.4021  0.0423
  408SOL     OW 1403   4.616   4.208   2.077 -0.6069 -0.2574 -0.5378
  408SOL    HW2 1404   4.640   4.152   2.151 -0.1768 -0.6525 -0.9724
  408SOL    HW3 1405   4.526   4.236   2.097 -0.7446 -0.9154 -0.2065
  408SOL    MW4 1406   4.607   4.204   2.090  0.1692 -0.1734  0.0957
  409SOL     OW 1407   1.847   6.126   5.458  0.0062 -0.9475 -0.1309
  409SOL    HW2 1408   1.925   6.093   5.415 -0.2149 -0.2080 -1.1338
  409SOL    HW3 1409   1.799   6.174   5.390 -0.9222 -0.7052  0.6520
  409SOL    MW4 1410   1.851   6.128   5.444  0.1859 -0.0124 -0.4671
  410SOL     OW 1411   2.892   5.444   5.052 -0.5450 -0.1153 -0.2078
  410SOL    HW2 1412   2.798   5.429   5.051 -0.6499  0.4931 -1.2408
  410SOL    HW3 1413   2.929   5.364   5.013 -0.6398 -0.2893  0.0557
  410SOL    MW4 1414   2.885   5.431   5.047  0.2681  0.3589  0.1518
  411SOL     OW 1415   1.416   0.513   6.188 -0.6790 -0.2767 -0.1243
  411SOL    HW2 1416   1.440   0.604   6.202 -2.3038 -0.3328  5.3196
  411SOL    HW3 1417   1.321   0.515   6.177 -0.5566 -1.2753 -1.6284
  411SOL    MW4 1418   1.406   0.525   6.189  0.0978 -0.4018  0.0156
  412SOL     OW 1419   4.916   3.548   4.559 -0.2539 -0.2272 -0.0168
  412SOL    HW2 1420   4.981   3.594   4.506  2.1316 -2.0689  1.1747
  412SOL    HW3 1421   4.863   3.501   4.495  1.3492 -0.8936 -0.9099
  412SOL    MW4 1422   4.917   3.548   4.544 -0.4979 -0.0685 -0.4529
  413SOL     OW 1423   5.199   3.298   0.788 -0.2233 -0.0441 -0.0736
  413SOL    HW2 1424   5.183   3.372   0.730 -0.4611 -0.2382 -0.2584
  413SOL    HW3 1425   5.267   3.329   0.847 -1.1679  0.7660  0.6444
  413SOL    MW4 1426   5.206   3.312   0.788 -0.2194 -0.4750  0.3798
  414SOL     OW 1427   1.797   5.638   2.006 -0.2709 -0.0566  0.0875
  414SOL    HW2 1428   1.780   5.732   2.002  0.5229  0.1643  1.3145
  414SOL    HW3 1429   1.873   5.625   1.949 -0.1217  0.1100  0.2495
  414SOL    MW4 1430   1.805   5.649   1.998  0.6189  0.2320 -0.7954
  415SOL     OW 1431   5.658   2.357   1.664 -0.5566 -0.2247  0.0699
  415SOL    HW2 1432   5.663   2.327   1.574  1.3943  0.9232 -0.2830
  415SOL    HW3 1433   5.736   2.412   1.675 -2.9205  3.2986  1.1195
  415SOL    MW4 1434   5.669   2.361   1.654 -0.8143 -0.2396  0.4668
  416SOL     OW 1435   6.252   0.112   6.149  0.6246  0.1785  0.7452
  416SOL    HW2 1436   6.320   0.044   6.148  2.8624  2.2759  0.8970
  416SOL    HW3 1437   6.242   0.139   6.058  0.9757  0.7525  0.8680
  416SOL    MW4 1438   6.260   0.107   6.137 -0.5767 -0.0186 -0.2451
  417SOL     OW 1439   0.668   1.436   6.349  0.3196 -0.1115 -0.0746
  417SOL    HW2 1440   0.638   1.346   6.342  1.1755 -0.5677  1.4572
  417SOL    HW3 1441   0.665   1.455   6.443  0.4705  1.3414 -0.3364
  417SOL    MW4 1442   0.664   1.427   6.361  0.0072 -0.1641  0.0624
  418SOL     OW 1443   3.512   3.109   0.287 -0.1230  0.3562 -0.1972
  418SOL    HW2 1444   3.570   3.121   0.212  0.0865  0.7855  0.0332
  418SOL    HW3 1445   3.560   3.051   0.346  0.8875  2.2014  0.8524
  418SOL    MW4 1446   3.526   3.103   0.285 -0.0802  0.2223  0.0667
  419SOL     OW 1447   3.594   0.783   5.387  0.1650  0.0257  0.0663
  419SOL    HW2 1448   3.619   0.855   5.329 -0.2622 -0.1941 -0.3908
  419SOL    HW3 1449   3.647   0.796   5.466 -0.8299  1.5949  0.5232
  419SOL    MW4 1450   3.604   0.794   5.390 -0.6430 -0.3143  0.0126
  420SOL     OW 1451   5.667   3.487   4.904  0.2580  0.1247 -0.2442
  420SOL    HW2 1452   5.680   3.392   4.898  3.3707  0.4712 -1.1564
  420SOL    HW3 1453   5.686   3.507   4.996  0.4437 -0.0743 -0.2348
  420SOL    MW4 1454   5.671   3.477   4.915  0.0300  0.0018  0.2116
  421SOL     OW 1455   1.165   5.585   0.739  0.4968 -0.0165 -0.0047
  421SOL    HW2 1456   1.247   5.632   0.728 -0.6924  2.4063  0.7602
  421SOL    HW3 1457   1.190   5.502   0.780  2.5021  0.8758  0.7131
  421SOL    MW4 1458   1.179   5.580   0.743  0.1956  0.1264  0.2009
  422SOL     OW 1459   2.531   0.514   0.446  0.3620 -0.4201 -0.1467
  422SOL    HW2 1460   2.591   0.556   0.508  1.3726 -1.4239 -0.4064
  422SOL    HW3 1461   2.482   0.586   0.407  0.2463  0.3017  1.2443
  422SOL    MW4 1462   2.532   0.529   0.449 -0.1956  0.2965  0.0917
  423SOL     OW 1463   1.366   5.258   1.598  0.7396 -0.1543  0.0621
  423SOL    HW2 1464   1.416   5.319   1.653 -1.1090  1.0926  0.4508
  423SOL    HW3 1465   1.378   5.291   1.509 -1.5501  1.8781  0.4103
  423SOL    MW4 1466   1.374   5.271   1.594 -0.0050  0.2220 -0.5193
  424SOL     OW 1467   0.304   3.401   5.054  0.4107 -0.4740  0.0155
  424SOL    HW2 1468   0.286   3.460   4.980 -1.4395  0.1110  0.8848
  424SOL    HW3 1469   0.269   3.317   5.026 -1.8632  0.1486  0.8436
  424SOL    MW4 1470   0.297   3.398   5.040 -0.6128  0.1235 -0.6259
  425SOL     OW 1471   3.076   6.294   4.610  0.3019  0.3586 -0.2590
  425SOL    HW2 1472   3.015   6.224   4.586 -0.2726  0.9341 -0.4852
  425SOL    HW3 1473   3.024   6.354   4.663  0.4468  1.2614 -1.1069
  425SOL    MW4 1474   3.061   6.293   4.614 -0.3050 -0.1198  0.4160
  426SOL     OW 1475   0.141   4.089   5.605 -0.3409  0.3385  0.9887
  426SOL    HW2 1476   0.099   4.005   5.587 -0.0146  0.0712  1.4398
  426SOL    HW3 1477   0.233   4.068   5.617  0.3551  1.1885 -2.0479
  426SOL    MW4 1478   0.148   4.075   5.604 -0.2661 -0.0166 -0.0929
  427SOL     OW 1479   2.030   4.599   0.011  0.0385  0.1239  0.3744
  427SOL    HW2 1480   2.084   4.603  -0.068 -1.8759 -1.0224 -1.0851
  427SOL    HW3 1481   2.057   4.675   0.063  0.8303  1.3614 -1.7309
  427SOL    MW4 1482   2.040   4.610   0.007 -0.0511  0.6507 -0.4135
  428SOL     OW 1483   5.215   4.219   1.254 -0.3425  0.4986  0.1808
  428SOL    HW2 1484   5.178   4.280   1.317  0.1317  1.7049 -0.6811
  428SOL    HW3 1485   5.174   4.242   1.171 -0.4083 -0.5900 -0.1098
  428SOL    MW4 1486   5.204   4.230   1.251 -0.0240 -0.1833  0.1981
  429SOL     OW 1487   0.255   2.151   5.042  0.0945  0.4238  0.7728
  429SOL    HW2 1488   0.335   2.160   5.095  0.0495  1.5252  0.6761
  429SOL    HW3 1489   0.193   2.108   5.101  1.2452 -2.1227  0.2970
  429SOL    MW4 1490   0.257   2.146   5.057  0.0814  0.1628 -0.1412
  430SOL     OW 1491   2.323   2.129   3.812  0.1206 -0.3818  0.2383
  430SOL    HW2 1492   2.399   2.137   3.870 -0.1143 -2.1008  0.8312
  430SOL    HW3 1493   2.264   2.199   3.842  0.3141 -0.7642  1.6162
  430SOL    MW4 1494   2.325   2.139   3.824 -0.0243 -0.6133  0.1802
  431SOL     OW 1495   3.505   3.431   6.408 -0.6943  0.3337  0.0717
  431SOL    HW2 1496   3.450   3.431   6.330  1.0800 -0.4224 -1.2456
  431SOL    HW3 1497   3.566   3.504   6.395  1.1317 -1.1921 -0.4371
  431SOL    MW4 1498   3.506   3.441   6.396  0.2254  0.3216 -0.5413
  432SOL     OW 1499   2.003   6.221   0.896  0.1818 -1.0078  0.3720
  432SOL    HW2 1500   1.937   6.287   0.918 -0.5322 -1.6698  0.2714
  432SOL    HW3 1501   2.081   6.271   0.873 -0.6068 -0.1763 -0.5384
  432SOL    MW4 1502   2.004   6.236   0.896 -0.0265 -0.7806 -0.1956
  433SOL     OW 1503   2.119   0.435   4.587 -0.3096  0.0081  0.8395
  433SOL    HW2 1504   2.199   0.476   4.620 -0.6499  0.7174  0.8037
  433SOL    HW3 1505   2.134   0.426   4.493 -0.3886  0.4202  0.7856
  433SOL    MW4 1506   2.131   0.439   4.579  0.9599  0.5126 -0.0330
  434SOL     OW 1507   3.222   5.754   5.347 -0.1156 -0.2447  0.3571
  434SOL    HW2 1508   3.239   5.693   5.276 -0.2111 -0.2963  0.3791
  434SOL    HW3 1509   3.308   5.769   5.387  0.0817  0.4282 -0.2884
  434SOL    MW4 1510   3.236   5.748   5.343  0.0910  0.0149 -0.3015
  435SOL     OW 1511   4.838   3.767   2.959 -0.4638 -0.2948  0.1248
  435SOL    HW2 1512   4.916   3.822   2.956 -0.2751 -0.5978 -2.4712
  435SOL    HW3 1513   4.863   3.686   2.916 -1.2720 -1.7899  2.2796
  435SOL    MW4 1514   4.851   3.764   2.953  0.0102 -0.0029  0.1814
  436SOL     OW 1515   5.505   0.058   3.171  0.4928 -0.0474  0.5371
  436SOL    HW2 1516   5.512   0.082   3.263  3.2174 -1.5575  0.8170
  436SOL    HW3 1517   5.471  -0.032   3.171 -2.0789  0.8312 -0.1403
  436SOL    MW4 1518   5.501   0.049   3.183  0.0360 -0.3250 -0.3931
  437SOL     OW 1519   0.216   3.643   5.360 -0.2262 -0.6298  0.2637
  437SOL    HW2 1520   0.142   3.581   5.365  0.0952 -0.9526  1.5122
  437SOL    HW3 1521   0.292   3.587   5.345  0.0297 -0.5252  1.1190
  437SOL    MW4 1522   0.216   3.627   5.359  0.6328  0.3813  0.1340
  438SOL     OW 1523   3.854   2.872   2.132 -0.4930  0.1266  0.0938
  438SOL    HW2 1524   3.874   2.808   2.201 -0.0319  0.3735  0.1942
  438SOL    HW3 1525   3.759   2.871   2.126 -0.5710  0.4042  1.0293
  438SOL    MW4 1526   3.844   2.863   2.140  0.1136  0.3987 -0.1168
  439SOL     OW 1527   6.375   5.828   0.756  0.3272  0.1613 -0.4864
  439SOL    HW2 1528   6.399   5.913   0.794  1.5790 -0.6532  0.6767
  439SOL    HW3 1529   6.441   5.813   0.688  0.1462  0.1013 -0.6469
  439SOL    MW4 1530   6.387   5.837   0.752  0.6509 -0.1750 -0.1172
  440SOL     OW 1531   4.431   0.869   0.015 -0.3022 -0.6463 -0.3651
  440SOL    HW2 1532   4.386   0.836   0.092 -0.0910  0.0017  0.0388
  440SOL    HW3 1533   4.503   0.921   0.049 -1.4529  1.4349 -0.9605
  440SOL    MW4 1534   4.435   0.871   0.030  0.1244 -0.4351 -0.1154
  441SOL     OW 1535   2.625   0.192   2.046 -0.3223  0.0438  0.3222
  441SOL    HW2 1536   2.592   0.251   2.114  0.9663  2.1700 -0.8117
  441SOL    HW3 1537   2.720   0.204   2.047 -0.1213 -1.2851 -0.6195
  441SOL    MW4 1538   2.633   0.201   2.055  0.3122 -0.5776 -0.4410
  442SOL     OW 1539   1.313   4.887   0.614 -0.0106 -0.1573  0.4234
  442SOL    HW2 1540   1.273   4.901   0.528  0.0542  0.5589  0.5037
  442SOL    HW3 1541   1.242   4.906   0.676  0.9203  3.2996  0.6566
  442SOL    MW4 1542   1.298   4.891   0.611 -0.3133 -0.8035 -0.3585
  443SOL     OW 1543   0.752   1.018   1.630 -0.3281  0.2151 -0.0299
  443SOL    HW2 1544   0.713   1.057   1.552  0.1579 -1.6551 -1.2492
  443SOL    HW3 1545   0.793   0.938   1.600 -0.3763 -0.7260  2.2099
  443SOL    MW4 1546   0.752   1.013   1.616  0.3978  0.1538 -0.0965
  444SOL     OW 1547   2.502   0.885   0.653  0.3567  0.7523  0.0274
  444SOL    HW2 1548   2.512   0.975   0.619  0.1646  0.8664  0.2764
  444SOL    HW3 1549   2.414   0.860   0.627 -0.0329  1.0802  1.0104
  444SOL    MW4 1550   2.492   0.894   0.645 -0.4656 -0.8361  0.4537
  445SOL     OW 1551   0.047   4.756   5.075  0.1520 -0.1232 -0.2403
  445SOL    HW2 1552   0.068   4.836   5.026  1.2396 -1.9881 -3.0722
  445SOL    HW3 1553   0.098   4.764   5.156  1.3877  1.4085 -1.1013
  445SOL    MW4 1554   0.056   4.768   5.080  0.3084  0.0320 -0.0275
  446SOL     OW 1555   5.922   2.446   5.687 -0.5637 -0.6915  0.0341
  446SOL    HW2 1556   6.006   2.426   5.647  0.2341  0.2092  1.1787
  446SOL    HW3 1557   5.899   2.532   5.653 -0.7802 -0.7180  0.1116
  446SOL    MW4 1558   5.930   2.455   5.678 -0.0505 -0.1279  0.0590
  447SOL     OW 1559   4.959   5.578   3.962 -0.1041 -0.5825 -0.4441
  447SOL    HW2 1560   5.026   5.532   4.013  0.4569 -0.9482 -1.4822
  447SOL    HW3 1561   4.880   5.525   3.973  0.4232 -1.5703 -1.2679
  447SOL    MW4 1562   4.957   5.565   3.970 -0.2698 -0.0175  0.0242
  448SOL     OW 1563   5.395   4.989   1.367 -0.1166  0.0856 -0.0508
  448SOL    HW2 1564   5.414   4.942   1.286 -0.1714  0.9571 -0.5879
  448SOL    HW3 1565   5.456   5.063   1.367  2.6937 -1.9857  2.6662
  448SOL    MW4 1566   5.405   4.992   1.357  0.4018 -0.3117  0.5015
  449SOL     OW 1567   2.701   1.329   6.288  0.3162  0.4545 -0.7874
  449SOL    HW2 1568   2.762   1.292   6.225  1.7872  0.4748  0.5844
  449SOL    HW3 1569   2.705   1.424   6.272  0.3234  0.4274 -0.9540
  449SOL    MW4 1570   2.709   1.337   6.277 -0.1504  0.0764  0.0486
  450SOL     OW 1571   6.422   3.726   0.494 -0.1862  0.0574  0.2874
  450SOL    HW2 1572   6.327   3.719   0.480 -0.1664  0.0611  0.1404
  450SOL    HW3 1573   6.440   3.669   0.568 -0.1175 -0.9328 -0.4753
  450SOL    MW4 1574   6.412   3.718   0.502 -0.0518 -0.0718  0.4559
  451SOL     OW 1575   3.886   1.204   5.791 -0.3573  0.4377 -0.6147
  451SOL    HW2 1576   3.894   1.284   5.739 -1.0524 -0.2248 -1.7808
  451SOL    HW3 1577   3.907   1.133   5.730 -0.5677 -0.3308  0.1810
  451SOL    MW4 1578   3.890   1.205   5.776  0.3425 -0.2316 -0.4813
  452SOL     OW 1579   5.561   0.627   6.275 -0.5028  0.2736 -0.1759
  452SOL    HW2 1580   5.584   0.719   6.269 -0.6749  0.2804 -0.9216
  452SOL    HW3 1581   5.535   0.614   6.366 -3.4105  1.6992 -0.6592
  452SOL    MW4 1582   5.561   0.637   6.286  0.4914  0.1539 -0.8173
  453SOL     OW 1583   4.347   3.385   2.057  0.3957  0.0402  0.1848
  453SOL    HW2 1584   4.430   3.404   2.101  1.1448  1.6203 -1.7751
  453SOL    HW3 1585   4.294   3.464   2.070 -0.0504 -0.1843 -0.2310
  453SOL    MW4 1586   4.351   3.398   2.065 -0.3832 -0.2384 -0.2962
  454SOL     OW 1587   4.767   2.999   5.232 -0.0971 -0.0908  0.4661
  454SOL    HW2 1588   4.715   2.934   5.279 -1.2791 -0.0485 -0.7245
  454SOL    HW3 1589   4.831   2.947   5.183 -0.7951 -0.3541 -0.1877
  454SOL    MW4 1590   4.768   2.984   5.232 -0.0377  0.1809  0.3992
  455SOL     OW 1591   3.091   0.337   4.806 -0.4848  0.1244  0.2773
  455SOL    HW2 1592   3.105   0.337   4.711 -0.1760 -0.0236  0.3230
  455SOL    HW3 1593   3.117   0.426   4.833  2.6244 -0.7790  0.6787
  455SOL    MW4 1594   3.096   0.349   4.797  0.6825 -0.2347  0.1483
  456SOL     OW 1595   0.972   1.839   1.629 -0.0315  0.1619  0.1729
  456SOL    HW2 1596   0.942   1.872   1.714 -1.3305  0.6911 -0.4572
  456SOL    HW3 1597   0.925   1.893   1.565 -0.4737 -1.4251 -0.8873
  456SOL    MW4 1598   0.962   1.851   1.632  0.3502 -0.1248 -0.2544
  457SOL     OW 1599   1.726   0.493   3.227  0.1291 -0.0172  0.3178
  457SOL    HW2 1600   1.797   0.435   3.255 -0.5350 -0.6541  0.7448
  457SOL    HW3 1601   1.769   0.575   3.205  0.7674  0.5150  3.1082
  457SOL    MW4 1602   1.741   0.496   3.228 -0.0806  0.2018  0.3659
  458SOL     OW 1603   5.158   4.876   0.620 -0.2881 -0.1281  0.4570
  458SOL    HW2 1604   5.096   4.864   0.548 -0.2084 -1.4189  0.5845
  458SOL    HW3 1605   5.111   4.844   0.697  0.8513 -2.0671  0.4062
  458SOL    MW4 1606   5.144   4.870   0.621 -0.1912 -0.8449 -0.3825
  459SOL     OW 1607   4.125   0.409   2.203 -0.2005  0.2375  0.3573
  459SOL    HW2 1608   4.121   0.375   2.292 -0.4650  0.8899  0.6063
  459SOL    HW3 1609   4.095   0.500   2.212 -0.9114  0.0943 -0.5037
  459SOL    MW4 1610   4.120   0.417   2.216 -0.3224 -0.1512 -0.2928
  460SOL     OW 1611   2.204   6.314   2.581 -0.3267  0.4197  0.4342
  460SOL    HW2 1612   2.109   6.325   2.586 -0.2653  1.0794  0.1828
  460SOL    HW3 1613   2.240   6.393   2.620  0.1331 -0.2729  1.4558
  460SOL    MW4 1614   2.196   6.326   2.587  0.2337 -0.4340 -0.5890
  461SOL     OW 1615   1.198   5.992   4.081  0.2047 -0.5140 -0.1150
  461SOL    HW2 1616   1.234   6.066   4.128 -0.6156  0.3915 -0.8632
  461SOL    HW3 1617   1.265   5.969   4.016 -0.2160  0.6723 -0.9994
  461SOL    MW4 1618   1.212   5.999   4.079  0.0271  0.1556 -0.0248
  462SOL     OW 1619   0.610   2.319   0.770 -0.4841 -0.2692 -0.6917
  462SOL    HW2 1620   0.602   2.385   0.839  0.3924 -0.1821 -0.6618
  462SOL    HW3 1621   0.585   2.365   0.690  1.0595  0.4010 -0.8233
  462SOL    MW4 1622   0.606   2.334   0.769  0.1623 -0.0745  0.4756
  463SOL     OW 1623   4.827   1.789   3.148  0.4165  0.1601 -0.2901
  463SOL    HW2 1624   4.888   1.767   3.219 -0.7891 -0.8475  0.4721
  463SOL    HW3 1625   4.771   1.857   3.186 -1.3222 -1.5605  0.3842
  463SOL    MW4 1626   4.827   1.795   3.163  1.1495  0.0185  0.3104
  464SOL     OW 1627   2.251   4.338   4.537  0.1551 -0.3374 -0.0935
  464SOL    HW2 1628   2.333   4.290   4.543  0.1192 -0.6040 -1.3211
  464SOL    HW3 1629   2.234   4.344   4.443 -1.1795 -0.2101  0.1325
  464SOL    MW4 1630   2.259   4.333   4.525 -0.3333 -0.2698  0.1594
  465SOL     OW 1631   4.035   4.899   5.507 -0.0853 -0.2238 -0.2240
  465SOL    HW2 1632   4.031   4.841   5.431 -1.6651  0.3701 -0.6213
  465SOL    HW3 1633   4.015   4.842   5.582  1.4428 -0.8008 -0.2256
  465SOL    MW4 1634   4.032   4.884   5.507 -0.2630 -0.1324  0.0838
  466SOL     OW 1635   4.515   4.919   0.084 -0.1764  0.0939 -0.8923
  466SOL    HW2 1636   4.554   5.004   0.104 -1.1895  0.3777 -0.0750
  466SOL    HW3 1637   4.504   4.919  -0.011 -2.1501  1.8006 -0.7323
  466SOL    MW4 1638   4.519   4.930   0.074  0.3289  0.1881  0.2470
  467SOL     OW 1639   0.046   0.618   2.041 -0.3775  0.0489 -0.6903
  467SOL    HW2 1640   0.141   0.612   2.029 -0.0448 -0.3758  1.5977
  467SOL    HW3 1641   0.027   0.711   2.039  0.5937  0.3745  1.5533
  467SOL    MW4 1642   0.056   0.629   2.039  0.1247  0.1283  0.8710
  468SOL     OW 1643   6.185   3.371   0.600  0.1761 -0.0705  0.1493
  468SOL    HW2 1644   6.182   3.366   0.504 -0.9963  3.6234 -0.1814
  468SOL    HW3 1645   6.176   3.281   0.630 -1.3856 -1.1692 -3.1958
  468SOL    MW4 1646   6.183   3.358   0.591  0.1683 -0.6109  0.4031
  469SOL     OW 1647   1.600   4.918   2.731 -0.0349  0.2831  0.2370
  469SOL    HW2 1648   1.538   4.924   2.658  0.7244 -0.5213 -0.5079
  469SOL    HW3 1649   1.548   4.885   2.804  0.0180 -3.3822 -1.1642
  469SOL    MW4 1650   1.585   4.914   2.731  0.0447 -0.2747  0.3518
  470SOL     OW 1651   3.483   5.652   5.739 -0.5182 -0.5304  0.6374
  470SOL    HW2 1652   3.403   5.663   5.790 -0.4413  0.0283  0.6421
  470SOL    HW3 1653   3.476   5.564   5.702 -1.8589  0.0492 -0.5716
  470SOL    MW4 1654   3.472   5.642   5.741 -0.1675 -0.1425  0.4533
  471SOL     OW 1655   0.981   0.635   0.740 -0.2570 -0.3090 -0.7174
  471SOL    HW2 1656   0.954   0.708   0.685  0.6979  0.3211 -0.3811
  471SOL    HW3 1657   0.916   0.567   0.723 -1.6205  0.8733 -0.4749
  471SOL    MW4 1658   0.969   0.636   0.731  0.3497  0.0139 -0.3165
  472SOL     OW 1659   6.283   3.554   4.046  0.5028 -0.3876  0.0996
  472SOL    HW2 1660   6.305   3.562   3.953  0.4006 -1.1216  0.0059
  472SOL    HW3 1661   6.240   3.469   4.053 -2.3353  0.9459  0.2658
  472SOL    MW4 1662   6.280   3.544   4.035 -0.5642  0.6218 -0.1553
  473SOL     OW 1663   1.144   2.350   0.891 -0.4937  0.2377  0.5951
  473SOL    HW2 1664   1.169   2.408   0.819  1.0573  0.2964  1.1269
  473SOL    HW3 1665   1.054   2.324   0.872  0.5822 -1.6322 -2.6344
  473SOL    MW4 1666   1.136   2.354   0.879  0.5741 -0.5236  0.0822
  474SOL     OW 1667   2.235   4.426   0.308 -0.5989 -0.1516  0.2973
  474SOL    HW2 1668   2.176   4.501   0.320 -0.6130 -0.5081  3.1068
  474SOL    HW3 1669   2.183   4.350   0.335  0.2649 -0.8463  0.0624
  474SOL    MW4 1670   2.220   4.426   0.313  0.3328  0.4156 -0.3383
  475SOL     OW 1671   2.675   5.680   1.714  0.3458  0.0989 -0.5006
  475SOL    HW2 1672   2.648   5.627   1.640  1.3637  0.7652 -1.3859
  475SOL    HW3 1673   2.606   5.745   1.724 -1.0216 -1.4784  0.7399
  475SOL    MW4 1674   2.663   5.682   1.706 -0.1057 -0.3075 -0.2449
  476SOL     OW 1675   5.470   4.351   4.204  0.5954 -0.2961 -0.0042
  476SOL    HW2 1676   5.409   4.420   4.231 -0.9348 -1.4452 -0.3321
  476SOL    HW3 1677   5.549   4.368   4.254  0.4277  1.9044 -0.3636
  476SOL    MW4 1678   5.472   4.362   4.214  0.4395  0.0582  0.5941
  477SOL     OW 1679   3.298   2.494   5.214  0.8540  0.0818 -0.5625
  477SOL    HW2 1680   3.274   2.436   5.142  2.1561  0.2850 -1.1941
  477SOL    HW3 1681   3.358   2.557   5.174  1.1436  0.5498  0.5896
  477SOL    MW4 1682   3.303   2.495   5.199  0.7624  0.0311 -0.5611
  478SOL     OW 1683   1.705   2.794   3.426  0.1823  0.2108  0.1262
  478SOL    HW2 1684   1.620   2.817   3.463 -0.2698 -1.0233 -0.0771
  478SOL    HW3 1685   1.684   2.742   3.348  1.1189  1.5516 -1.0724
  478SOL    MW4 1686   1.691   2.790   3.420  0.3164 -0.4019  0.5459
  479SOL     OW 1687   1.829   1.525   3.392 -0.0630 -0.1075  0.1581
  479SOL    HW2 1688   1.886   1.602   3.400  1.5314 -1.3603  1.3985
  479SOL    HW3 1689   1.744   1.555   3.425  0.6026  1.0408  0.9005
  479SOL    MW4 1690   1.825   1.539   3.398 -0.1612 -0.1451  0.1563
  480SOL     OW 1691   4.315   6.199   2.946  0.1724 -0.3055 -0.1008
  480SOL    HW2 1692   4.340   6.225   3.035 -0.6088 -1.8551  0.6055
  480SOL    HW3 1693   4.395   6.161   2.909 -0.1976 -2.3210  1.0168
  480SOL    MW4 1694   4.329   6.197   2.953  0.1985 -0.1309 -0.5615
  481SOL     OW 1695   1.835   5.263   2.691 -0.0703 -0.2116  0.0424
  481SOL    HW2 1696   1.904   5.205   2.657 -0.8275 -0.4039 -1.2484
  481SOL    HW3 1697   1.874   5.350   2.691  0.6830 -0.5430  0.8301
  481SOL    MW4 1698   1.849   5.267   2.686  0.1792  0.0670 -0.5706
  482SOL     OW 1699   6.063   2.714   5.146  0.1393 -0.3128  0.2115
  482SOL    HW2 1700   6.011   2.760   5.212  0.2302  0.7730 -0.4513
  482SOL    HW3 1701   6.074   2.777   5.075  1.5088 -0.8548 -0.1060
  482SOL    MW4 1702   6.058   2.728   5.145 -0.0355  0.0120  0.1655
  483SOL     OW 1703   3.081   5.467   0.772  0.2328 -0.5126  0.2049
  483SOL    HW2 1704   3.068   5.541   0.831  1.8229  0.2351 -0.3478
  483SOL    HW3 1705   2.994   5.426   0.767 -0.5895  1.0532  0.8441
  483SOL    MW4 1706   3.068   5.472   0.779  0.3114 -0.0626 -0.1834
  484SOL     OW 1707   0.503   4.997   3.302  0.0855  0.4080 -0.1625
  484SOL    HW2 1708   0.428   4.962   3.254  0.4572  0.4376 -0.7836
  484SOL    HW3 1709   0.575   4.995   3.238  0.3571  1.3582  0.0976
  484SOL    MW4 1710   0.503   4.993   3.287  0.3892 -0.1827  0.9478
  485SOL     OW 1711   5.281   3.737   1.056 -0.3793 -0.1867 -0.5967
  485SOL    HW2 1712   5.325   3.762   1.138 -1.8068 -1.0406  0.4771
  485SOL    HW3 1713   5.198   3.784   1.058 -0.6183 -0.5608 -1.3504
  485SOL    MW4 1714   5.276   3.746   1.067 -0.0962  0.2990 -0.6808
  486SOL     OW 1715   3.592   1.292   0.017 -0.1991 -0.1410 -0.0015
  486SOL    HW2 1716   3.504   1.279   0.053 -0.3939 -0.9087 -0.7244
  486SOL    HW3 1717   3.594   1.237  -0.061 -0.6947  3.3887 -2.7518
  486SOL    MW4 1718   3.581   1.283   0.012 -0.1752 -0.1770  0.3335
  487SOL     OW 1719   3.156   6.180   1.379 -0.5947  0.1606  0.3831
  487SOL    HW2 1720   3.192   6.229   1.305 -0.1411  1.0824  1.1935
  487SOL    HW3 1721   3.186   6.090   1.365 -1.1068  0.1641 -0.9164
  487SOL    MW4 1722   3.165   6.175   1.367 -0.1914  0.0658  0.2548
  488SOL     OW 1723   1.074   2.747   2.851  0.1758  0.2805  0.6406
  488SOL    HW2 1724   1.021   2.693   2.792 -0.7335  0.3371  1.3811
  488SOL    HW3 1725   1.034   2.736   2.937  0.7602  1.1243  1.0420
  488SOL    MW4 1726   1.062   2.738   2.855  0.4484 -0.0004 -0.4205
  489SOL     OW 1727   2.777   4.898   1.286 -0.2122 -0.0315 -0.7013
  489SOL    HW2 1728   2.833   4.922   1.360 -0.6028 -1.1506 -0.0212
  489SOL    HW3 1729   2.731   4.979   1.264  0.1897  0.4101  0.0383
  489SOL    MW4 1730   2.778   4.912   1.293 -0.6654  0.4071 -0.4044
  490SOL     OW 1731   3.682   3.985   3.161 -0.5770 -0.2893 -0.1792
  490SOL    HW2 1732   3.776   3.975   3.178 -0.4390  0.2700 -0.5749
  490SOL    HW3 1733   3.642   3.988   3.247 -0.1552  0.1484  0.0021
  490SOL    MW4 1734   3.689   3.984   3.174  0.2123 -0.5672 -0.0132
  491SOL     OW 1735   2.005   0.094   0.965  0.4850  0.0238 -0.2239
  491SOL    HW2 1736   2.061   0.026   1.001 -0.2874 -0.1877  0.5944
  491SOL    HW3 1737   1.985   0.151   1.039  0.3110  0.5769 -0.6867
  491SOL    MW4 1738   2.010   0.093   0.979 -0.0929  0.0385 -0.1068
  492SOL     OW 1739   0.338   5.282   4.688 -0.0383  0.1392 -0.1350
  492SOL    HW2 1740   0.244   5.270   4.671  0.0292  1.6789 -1.8445
  492SOL    HW3 1741   0.382   5.231   4.620  0.3870  0.0523  0.1956
  492SOL    MW4 1742   0.331   5.273   4.677 -0.3057  0.0972 -0.0628
  493SOL     OW 1743   3.251   0.653   3.303 -0.4718 -0.2764  0.1798
  493SOL    HW2 1744   3.229   0.706   3.379 -0.6052 -1.5153  1.0451
  493SOL    HW3 1745   3.312   0.587   3.337 -0.4976 -0.8144 -0.7848
  493SOL    MW4 1746   3.256   0.651   3.318 -0.2721  0.0042  0.4886
  494SOL     OW 1747   5.852   1.464   0.032  0.2236  0.3030  0.2681
  494SOL    HW2 1748   5.849   1.554  -0.001  1.6766  0.4431  0.4376
  494SOL    HW3 1749   5.762   1.445   0.058 -0.5957  0.8454 -1.9734
  494SOL    MW4 1750   5.840   1.474   0.031  0.2367  0.2749  0.3622
  495SOL     OW 1751   5.846   4.373   2.747 -0.4825  0.0789  0.6378
  495SOL    HW2 1752   5.925   4.424   2.734 -0.8048  0.8664  1.5998
  495SOL    HW3 1753   5.776   4.438   2.753 -1.2653 -0.6157 -0.4909
  495SOL    MW4 1754   5.847   4.388   2.746  0.1247 -0.2614 -0.3179
  496SOL     OW 1755   3.595   6.257   3.740  0.1606 -0.6568  0.4325
  496SOL    HW2 1756   3.655   6.183   3.749  0.7504 -0.6057 -2.1758
  496SOL    HW3 1757   3.541   6.235   3.664  0.1988  1.4540 -0.2738
  496SOL    MW4 1758   3.596   6.244   3.731  0.0621 -0.1181  0.1630
  497SOL     OW 1759   2.235   0.134   4.435  0.2768 -0.6675 -0.2046
  497SOL    HW2 1760   2.287   0.168   4.508 -0.3888  0.8063 -0.3875
  497SOL    HW3 1761   2.199   0.212   4.393 -0.9209 -1.5962 -0.9476
  497SOL    MW4 1762   2.237   0.149   4.439 -0.1694  0.2223 -0.1526
  498SOL     OW 1763   5.975   1.906   1.375  0.6700 -0.4418  0.3563
  498SOL    HW2 1764   5.966   1.932   1.466  1.6096  2.0515 -0.1528
  498SOL    HW3 1765   5.885   1.897   1.343  0.2944  0.7280  1.0272
  498SOL    MW4 1766   5.962   1.909   1.383  0.3401 -0.1547 -0.0083
  499SOL     OW 1767   1.952   4.814   3.286 -0.2727 -0.2176 -0.4591
  499SOL    HW2 1768   1.892   4.880   3.320  0.5671 -1.1547  3.2767
  499SOL    HW3 1769   1.895   4.745   3.250 -1.2059  0.9799 -1.3776
  499SOL    MW4 1770   1.937   4.814   3.285 -0.1058 -0.0203 -0.3666
  500SOL     OW 1771   5.284   3.797   1.819  0.8141  0.0342  0.1590
  500SOL    HW2 1772   5.320   3.880   1.850  0.3190  0.9039 -1.4920
  500SOL    HW3 1773   5.360   3.743   1.798  1.2175  1.4350 -2.2250
  500SOL    MW4 1774   5.299   3.800   1.821  0.1384 -0.2471 -0.4302
  501SOL     OW 1775   4.843   4.227   5.397  0.1047 -0.3348 -0.0771
  501SOL    HW2 1776   4.842   4.179   5.314  0.3285 -0.3272 -0.0864
  501SOL    HW3 1777   4.836   4.160   5.464  1.5066 -0.4950 -0.0512
  501SOL    MW4 1778   4.842   4.212   5.395  0.1141  0.4499 -0.4825
  502SOL     OW 1779   0.170   4.307   3.809 -0.4481 -0.3306  0.3201
  502SOL    HW2 1780   0.083   4.300   3.769 -2.1108  2.4906  2.9274
  502SOL    HW3 1781   0.187   4.220   3.844 -2.0564 -1.0613 -0.5730
  502SOL    MW4 1782   0.161   4.295   3.808  0.1365 -0.2039 -0.5114
  503SOL     OW 1783   3.031   6.277   2.810  0.1984  0.6476  0.0329
  503SOL    HW2 1784   3.025   6.335   2.886 -1.4499  1.6029 -0.7826
  503SOL    HW3 1785   3.110   6.307   2.764 -0.7224  2.4326 -0.4756
  503SOL    MW4 1786   3.041   6.289   2.814 -0.1617  0.0784  0.4562
  504SOL     OW 1787   4.042   0.409   5.460 -0.3592  0.0657  0.1006
  504SOL    HW2 1788   4.083   0.327   5.488 -0.1323  0.7286  1.8342
  504SOL    HW3 1789   4.069   0.418   5.369  0.8895 -1.0280  0.3151
  504SOL    MW4 1790   4.051   0.399   5.452 -0.3528 -0.3628  0.3711
  505SOL     OW 1791   4.160   2.502   3.153 -0.0649  0.1822  0.4472
  505SOL    HW2 1792   4.189   2.555   3.079  1.4226  0.1766  1.0042
  505SOL    HW3 1793   4.067   2.525   3.163  0.4306  2.3795  0.4261
  505SOL    MW4 1794   4.151   2.512   3.144  0.0796  0.1455  0.0038
  506SOL     OW 1795   5.165   3.202   2.399 -0.4298 -0.0092 -0.7066
  506SOL    HW2 1796   5.107   3.136   2.360 -0.0065  0.1096 -1.5560
  506SOL    HW3 1797   5.119   3.230   2.479 -0.1501 -2.0736  0.2533
  506SOL    MW4 1798   5.151   3.197   2.405  0.5373  0.2888 -0.3343
  507SOL     OW 1799   1.853   5.720   0.696  0.1836 -0.0217 -0.3351
  507SOL    HW2 1800   1.919   5.752   0.758 -0.3400 -0.0372  0.2340
  507SOL    HW3 1801   1.897   5.724   0.611  0.3709  1.5522 -0.1999
  507SOL    MW4 1802   1.868   5.725   0.693 -0.3854 -0.5525 -0.7795
  508SOL     OW 1803   1.250   4.068   1.745  0.2106 -0.6708  0.0772
  508SOL    HW2 1804   1.316   4.055   1.813 -0.5289 -0.2681  0.8830
  508SOL    HW3 1805   1.218   4.157   1.758  0.8607 -0.1614 -1.5348
  508SOL    MW4 1806   1.255   4.078   1.756 -0.1849 -0.3214 -0.4226
  509SOL     OW 1807   1.937   2.500   3.850  0.0167 -0.1901 -0.2428
  509SOL    HW2 1808   1.923   2.420   3.901  2.4083 -0.0843  0.7200
  509SOL    HW3 1809   1.931   2.571   3.913  1.7738  0.0424 -0.2852
  509SOL    MW4 1810   1.935   2.499   3.865 -0.3150  0.1119 -0.0006
  510SOL     OW 1811   3.140   5.882   3.097 -0.0181 -0.1997 -0.6801
  510SOL    HW2 1812   3.206   5.876   3.028  0.9644 -1.7518  0.3296
  510SOL    HW3 1813   3.061   5.845   3.058  1.3517 -4.2056 -0.1373
  510SOL    MW4 1814   3.138   5.876   3.083  0.1304  0.4869 -0.0554
  511SOL     OW 1815   1.675   3.834   1.729  0.7068  0.6119  0.1473
  511SOL    HW2 1816   1.670   3.921   1.769  0.2053  1.1690 -1.1020
  511SOL    HW3 1817   1.593   3.792   1.754  1.0098  0.4375  0.8695
  511SOL    MW4 1818   1.664   3.840   1.738 -0.1038 -0.2899 -0.0678
  512SOL     OW 1819   3.519   3.805   0.084 -0.3803  0.2023 -0.0082
  512SOL    HW2 1820   3.430   3.821   0.052 -0.6736 -0.7716  0.2917
  512SOL    HW3 1821   3.564   3.763   0.011 -0.0348  1.0726 -0.3045
  512SOL    MW4 1822   3.513   3.802   0.070  0.6516  0.6777 -0.4378
  513SOL     OW 1823   3.478   0.928   6.310  0.0286  0.1023  0.2763
  513SOL    HW2 1824   3.382   0.932   6.303 -0.0979  0.0234  1.6795
  513SOL    HW3 1825   3.508   1.011   6.272 -0.5908  0.1651 -0.0945
  513SOL    MW4 1826   3.469   0.940   6.304 -0.5771 -0.1807 -1.0899
  514SOL     OW 1827   4.522   5.849   0.462  0.6198 -0.0641 -0.2132
  514SOL    HW2 1828   4.547   5.855   0.370 -1.7976  1.2776 -0.8383
  514SOL    HW3 1829   4.599   5.882   0.509  1.1360  1.2112 -1.8516
  514SOL    MW4 1830   4.536   5.854   0.456  0.1783  0.4079  0.7699
  515SOL     OW 1831   2.383   1.067   6.375  0.0013 -0.0443  0.0280
  515SOL    HW2 1832   2.457   1.097   6.428 -0.2009 -0.0567  0.3247
  515SOL    HW3 1833   2.324   1.142   6.372  0.6164  0.3979 -1.3058
  515SOL    MW4 1834   2.385   1.081   6.382  0.1842  0.0004 -0.4476
  516SOL     OW 1835   4.767   5.970   5.796 -0.4277 -0.1403  0.4443
  516SOL    HW2 1836   4.716   5.892   5.816 -0.1426 -0.2306  0.8368
  516SOL    HW3 1837   4.735   6.036   5.858 -0.2139 -0.1360  0.5499
  516SOL    MW4 1838   4.756   5.969   5.807  0.3901  0.4368  0.3374
  517SOL     OW 1839   4.298   4.452   1.220 -0.1774 -0.1782  0.1255
  517SOL    HW2 1840   4.334   4.538   1.240 -1.2764  0.6693 -1.3314
  517SOL    HW3 1841   4.313   4.400   1.299  1.4541  1.0133  0.6469
  517SOL    MW4 1842   4.305   4.456   1.233 -0.1763 -0.2453  0.8248
  518SOL     OW 1843   2.525   4.716   1.327  0.1894 -0.3948 -0.2198
  518SOL    HW2 1844   2.600   4.773   1.311  1.2029 -1.5911  0.0644
  518SOL    HW3 1845   2.563   4.638   1.368 -1.2844 -0.8245  0.3986
  518SOL    MW4 1846   2.540   4.713   1.331 -0.2334 -0.3005  0.1808
  519SOL     OW 1847   1.673   3.673   4.367  0.0960  0.1366  0.0963
  519SOL    HW2 1848   1.749   3.708   4.413  0.3013 -0.3983  0.1678
  519SOL    HW3 1849   1.702   3.660   4.277  0.6484 -1.7185  0.4959
  519SOL    MW4 1850   1.687   3.676   4.361  0.1135  0.1729 -0.1214
  520SOL     OW 1851   6.362   0.555   3.944  0.3807  0.3625  0.3289
  520SOL    HW2 1852   6.288   0.598   3.901  0.3301  0.9537  0.9773
  520SOL    HW3 1853   6.364   0.593   4.032  0.9297 -0.2760  0.6052
  520SOL    MW4 1854   6.353   0.566   3.950  0.0444  0.1519  0.1852
  521SOL     OW 1855   0.168   2.873   0.485  0.3865 -0.2245 -0.1836
  521SOL    HW2 1856   0.205   2.960   0.501 -1.3342  0.8244 -1.5459
  521SOL    HW3 1857   0.177   2.861   0.390  0.1034 -1.2976 -0.0832
  521SOL    MW4 1858   0.174   2.883   0.474  0.5177 -0.0412 -0.4705
  522SOL     OW 1859   5.086   1.494   3.586 -0.1240  0.7673 -0.1014
  522SOL    HW2 1860   5.066   1.502   3.679 -0.4156  2.0824 -0.2576
  522SOL    HW3 1861   5.040   1.415   3.558  0.3320  0.1106  0.9559
  522SOL    MW4 1862   5.078   1.485   3.594 -0.7320 -0.2496 -0.0384
  523SOL     OW 1863   1.697   2.038   4.844  0.0994  0.4496 -0.1890
  523SOL    HW2 1864   1.689   2.002   4.756  1.3839  1.2460 -0.6460
  523SOL    HW3 1865   1.722   2.129   4.831  0.4110  0.5491  1.0077
  523SOL    MW4 1866   1.699   2.045   4.831 -0.6207 -0.5783  0.2296
  524SOL     OW 1867   4.915   4.289   2.119 -0.4142 -0.2277 -0.2299
  524SOL    HW2 1868   4.851   4.302   2.049 -1.5194  1.6603  1.0271
  524SOL    HW3 1869   4.893   4.356   2.184  0.5862 -1.8558  1.9107
  524SOL    MW4 1870   4.904   4.299   2.119 -0.2525  0.6470 -0.5229
  525SOL     OW 1871   0.185   1.132   3.941 -0.4011 -0.1560  0.6251
  525SOL    HW2 1872   0.119   1.162   3.879 -1.8824 -1.4306  1.5040
  525SOL    HW3 1873   0.135   1.107   4.019  1.1133 -1.2494  1.3046
  525SOL    MW4 1874   0.170   1.133   3.943  0.3950  0.0216 -0.3061
  526SOL     OW 1875   4.078   6.139   0.942 -0.1156 -0.3461  0.6064
  526SOL    HW2 1876   4.097   6.201   0.872 -1.5919  1.7077  1.9331
  526SOL    HW3 1877   4.010   6.082   0.904 -1.2626  1.0496  0.4636
  526SOL    MW4 1878   4.071   6.139   0.927 -0.6142 -0.0899  0.1485
  527SOL     OW 1879   5.480   5.258   2.131  0.0641  0.2016 -0.9939
  527SOL    HW2 1880   5.454   5.193   2.065  0.6697 -0.4366 -0.6248
  527SOL    HW3 1881   5.500   5.337   2.080  0.3355 -0.2214 -1.5615
  527SOL    MW4 1882   5.480   5.260   2.115 -0.0884 -0.0061  0.1961
  528SOL     OW 1883   2.849   1.646   0.170  0.3365 -0.2510  0.0760
  528SOL    HW2 1884   2.942   1.656   0.150  0.1846  2.1224  0.2602
  528SOL    HW3 1885   2.805   1.704   0.108 -1.0342 -1.1676  0.1460
  528SOL    MW4 1886   2.855   1.655   0.159  0.0513  0.1837  0.6294
  529SOL     OW 1887   0.973   6.307   1.578 -0.2937  0.0551 -0.4583
  529SOL    HW2 1888   1.030   6.320   1.502 -2.6078 -0.1781 -2.3194
  529SOL    HW3 1889   0.959   6.213   1.582 -0.7283  0.1319 -0.1551
  529SOL    MW4 1890   0.979   6.296   1.568  0.3771 -0.4865 -0.0057
  530SOL     OW 1891   3.377   6.107   0.959 -0.1919 -0.0008 -0.1555
  530SOL    HW2 1892   3.312   6.116   0.890  1.6070 -0.9572 -2.0848
  530SOL    HW3 1893   3.356   6.176   1.022 -1.4547  1.4113 -2.0430
  530SOL    MW4 1894   3.366   6.117   0.958  0.2079 -0.0691  0.5447
  531SOL     OW 1895   0.229   3.090   1.962  0.5591 -0.5063  0.7944
  531SOL    HW2 1896   0.278   3.022   2.009  2.8968 -0.3385 -1.2050
  531SOL    HW3 1897   0.287   3.166   1.961 -0.4944  0.3220 -0.1021
  531SOL    MW4 1898   0.243   3.091   1.968  0.0572  0.0933  0.0134
  532SOL     OW 1899   1.335   0.990   4.587 -0.0411 -0.0127 -0.1955
  532SOL    HW2 1900   1.303   1.033   4.507 -0.5743 -2.3479 -1.3002
  532SOL    HW3 1901   1.375   0.909   4.557  3.2376  0.7494  1.5663
  532SOL    MW4 1902   1.336   0.985   4.572 -0.0926 -0.1477  0.5692
  533SOL     OW 1903   3.413   4.418   5.810  0.0422 -0.2531 -0.6786
  533SOL    HW2 1904   3.333   4.468   5.794 -0.2988 -1.4988 -3.6564
  533SOL    HW3 1905   3.463   4.471   5.871 -2.5441  1.1093  0.4289
  533SOL    MW4 1906   3.409   4.432   5.816 -0.8961  0.4234  0.0887
  534SOL     OW 1907   3.644   4.535   1.550 -0.1502 -0.1477  0.0645
  534SOL    HW2 1908   3.726   4.584   1.543 -0.4285  0.3112 -0.0112
  534SOL    HW3 1909   3.672   4.444   1.564  0.3765 -0.0818 -0.4938
  534SOL    MW4 1910   3.659   4.529   1.551 -0.7623 -0.3308  0.2069
  535SOL     OW 1911   5.211   3.076   6.244 -0.1886  0.1881  0.4230
  535SOL    HW2 1912   5.157   3.149   6.214 -0.4188  0.1361  0.7102
  535SOL    HW3 1913   5.217   3.087   6.339 -0.3460 -0.2507  0.4856
  535SOL    MW4 1914   5.205   3.087   6.253 -0.1669  0.4487  0.5902
  536SOL     OW 1915   0.888   2.829   1.005  0.2926 -0.2318  0.0438
  536SOL    HW2 1916   0.975   2.789   1.012 -0.2958 -1.4895  0.3212
  536SOL    HW3 1917   0.881   2.884   1.084 -0.1238 -2.0832  1.3606
  536SOL    MW4 1918   0.899   2.831   1.017  0.0611 -0.0607  0.3584
  537SOL     OW 1919   0.965   0.849   2.424  0.2865  0.6757 -0.0773
  537SOL    HW2 1920   1.025   0.793   2.374 -0.0712  0.8171 -0.6724
  537SOL    HW3 1921   0.915   0.896   2.357  0.1006  1.1896  0.4180
  537SOL    MW4 1922   0.966   0.848   2.408 -0.8213 -0.6165  0.0754
  538SOL     OW 1923   0.310   0.943   0.167 -0.0301  0.2683 -0.0452
  538SOL    HW2 1924   0.312   0.857   0.207 -1.9825 -0.1830 -0.7816
  538SOL    HW3 1925   0.310   0.926   0.073  0.0067  1.0799 -0.2007
  538SOL    MW4 1926   0.310   0.930   0.160 -0.2294 -0.4807 -0.5255
  539SOL     OW 1927   1.916   0.503   6.377  0.5103  0.1078  0.8488
  539SOL    HW2 1928   1.878   0.425   6.419  0.1502 -0.1176  0.1195
  539SOL    HW3 1929   1.847   0.534   6.318  1.4515 -0.3095 -0.5043
  539SOL    MW4 1930   1.902   0.497   6.375 -0.2349 -0.3258  0.7252
  540SOL     OW 1931   4.531   4.398   4.433  0.0774  0.4191 -0.2684
  540SOL    HW2 1932   4.612   4.348   4.442  0.4842  1.2479  0.9573
  540SOL    HW3 1933   4.558   4.481   4.394 -0.2860  0.4686 -0.4200
  540SOL    MW4 1934   4.545   4.402   4.429  0.6432  0.0855  0.1684
  541SOL     OW 1935   1.463   1.262   5.217  0.6178 -0.4625 -0.8480
  541SOL    HW2 1936   1.411   1.275   5.138 -1.2460 -1.1076  0.2206
  541SOL    HW3 1937   1.553   1.278   5.189 -0.0698  0.1352 -2.8968
  541SOL    MW4 1938   1.468   1.266   5.203 -0.0396 -0.0221  0.0295
  542SOL     OW 1939   0.069   2.072   2.860  0.0369 -0.6308 -0.0341
  542SOL    HW2 1940   0.009   2.146   2.861  0.2295 -0.4403  1.9999
  542SOL    HW3 1941   0.097   2.065   2.769  0.0918  1.8587 -0.2720
  542SOL    MW4 1942   0.065   2.081   2.848 -0.0772 -0.2021 -0.4175
  543SOL     OW 1943   0.619   5.251   0.061 -0.7637 -0.2485 -0.0823
  543SOL    HW2 1944   0.529   5.249   0.028 -0.1325  0.9746 -2.0085
  543SOL    HW3 1945   0.649   5.161   0.052 -0.9405 -0.1549 -2.0592
  543SOL    MW4 1946   0.611   5.239   0.056 -0.3424 -0.0737 -0.1876
  544SOL     OW 1947   2.715   5.149   3.930 -0.3544  0.1189  0.3200
  544SOL    HW2 1948   2.668   5.098   3.996  1.6118 -1.3248  0.7025
  544SOL    HW3 1949   2.671   5.127   3.847 -0.4375 -1.1127  0.6660
  544SOL    MW4 1950   2.703   5.139   3.928  0.2803  0.2877 -0.2000
  545SOL     OW 1951   5.023   5.680   3.053 -0.1583 -0.9485  0.1000
  545SOL    HW2 1952   5.022   5.621   2.978  0.1650  0.3238 -0.9508
  545SOL    HW3 1953   4.931   5.690   3.078 -0.1308 -2.8230  1.0943
  545SOL    MW4 1954   5.011   5.674   3.047 -0.6081 -0.0872  0.4203
  546SOL     OW 1955   4.853   5.173   3.487 -0.5176 -0.0376 -0.4156
  546SOL    HW2 1956   4.933   5.218   3.514  0.1654 -0.8023 -1.0863
  546SOL    HW3 1957   4.790   5.192   3.556  0.7269 -0.7228  0.9601
  546SOL    MW4 1958   4.856   5.181   3.500  0.3798  0.1214 -0.5127
  547SOL     OW 1959   4.541   3.940   4.058 -0.5438 -0.5547 -0.4335
  547SOL    HW2 1960   4.570   4.032   4.059 -1.8632 -0.1197 -0.7266
  547SOL    HW3 1961   4.587   3.901   3.983 -0.6021  0.0850 -0.8104
  547SOL    MW4 1962   4.551   3.947   4.048 -0.2932  0.3452  0.0968
  548SOL     OW 1963   0.776   5.449   0.708  0.5382 -0.2018  0.4603
  548SOL    HW2 1964   0.725   5.457   0.789  0.6940 -0.7233  0.6185
  548SOL    HW3 1965   0.847   5.388   0.731 -0.4263 -1.7820 -0.5284
  548SOL    MW4 1966   0.779   5.442   0.722  0.2226  0.1654 -0.0429
  549SOL     OW 1967   0.018   3.871   1.367  0.8155  0.2694  0.3543
  549SOL    HW2 1968  -0.039   3.934   1.411  1.8845  1.1593  0.5031
  549SOL    HW3 1969   0.016   3.793   1.423  0.0869  0.4300  0.5646
  549SOL    MW4 1970   0.010   3.869   1.380 -0.7160  0.0977 -0.9021
  550SOL     OW 1971   1.740   3.946   5.198  0.3025 -0.6740  0.4311
  550SOL    HW2 1972   1.827   3.983   5.212 -0.0712  0.1742  0.5679
  550SOL    HW3 1973   1.707   3.991   5.120  0.1968 -1.3838  0.0582
  550SOL    MW4 1974   1.747   3.956   5.189  0.5880  0.6336 -0.0235
  551SOL     OW 1975   0.353   5.093   3.051  0.4049  0.6393  0.5611
  551SOL    HW2 1976   0.394   5.177   3.031  0.4090  0.6341  0.5479
  551SOL    HW3 1977   0.262   5.115   3.070  0.0274  0.4747 -0.9777
  551SOL    MW4 1978   0.346   5.107   3.051  0.3523  0.8065 -0.2795
  552SOL     OW 1979   5.226   6.040   1.540  0.6233 -0.0905 -0.1810
  552SOL    HW2 1980   5.183   5.955   1.526 -0.8525  0.4711  0.7200
  552SOL    HW3 1981   5.197   6.093   1.466  2.2262 -0.5729 -1.2157
  552SOL    MW4 1982   5.216   6.036   1.528 -0.2428 -0.2745  0.1638
  553SOL     OW 1983   2.117   0.624   2.116 -0.1644  0.4625  0.2302
  553SOL    HW2 1984   2.095   0.714   2.093  0.0266  0.7721  1.2315
  553SOL    HW3 1985   2.212   0.619   2.107 -0.1616  0.3927  0.2986
  553SOL    MW4 1986   2.126   0.635   2.112  0.0394  0.2992  0.4267
  554SOL     OW 1987   2.289   4.606   3.641  0.3022 -0.0038 -0.1852
  554SOL    HW2 1988   2.377   4.611   3.679 -0.4403  1.6052  1.5201
  554SOL    HW3 1989   2.277   4.692   3.600 -0.0476 -0.6544 -1.4800
  554SOL    MW4 1990   2.299   4.618   3.641  0.2712 -0.1965  0.2101
  555SOL     OW 1991   0.070   6.362   6.204 -0.4640 -0.1574 -0.0064
  555SOL    HW2 1992   0.055   6.285   6.149 -0.8215 -0.4870  0.5482
  555SOL    HW3 1993   0.140   6.410   6.158  0.0959 -1.0464 -0.1233
  555SOL    MW4 1994   0.078   6.358   6.191  0.3052 -0.2029  0.5001
  556SOL     OW 1995   1.694   6.046   5.687 -0.3635 -0.1693  0.0941
  556SOL    HW2 1996   1.657   5.975   5.635  0.6532 -1.4268  1.0498
  556SOL    HW3 1997   1.757   6.088   5.628 -0.1738 -0.7530 -0.1272
  556SOL    MW4 1998   1.697   6.043   5.672 -0.1596  0.0191  0.4141
  557SOL     OW 1999   0.562   2.301   3.977 -0.0289 -0.0636  0.8807
  557SOL    HW2 2000   0.519   2.370   3.926 -1.1078 -2.6757 -2.1495
  557SOL    HW3 2001   0.492   2.263   4.030  0.5724  1.0857  2.5821
  557SOL    MW4 2002   0.547   2.305   3.977  0.7378 -0.6652 -0.8338
  558SOL     OW 2003   1.133   2.479   1.969  0.9929  0.3225 -0.0694
  558SOL    HW2 2004   1.193   2.503   1.899  0.8657  0.9185  0.0161
  558SOL    HW3 2005   1.185   2.425   2.029  1.2733  0.3373 -0.2990
  558SOL    MW4 2006   1.148   2.475   1.968 -0.1695  0.4900 -0.8053
  559SOL     OW 2007   4.872   1.839   3.985  0.1699  0.5302  0.3539
  559SOL    HW2 2008   4.796   1.781   3.984  0.9094 -0.4623 -0.6450
  559SOL    HW3 2009   4.876   1.871   4.076 -1.8570  1.2208  0.2404
  559SOL    MW4 2010   4.863   1.836   3.997 -0.6512  0.0854  0.0375
  560SOL     OW 2011   1.461   1.576   2.680 -0.0879  0.1017  0.5674
  560SOL    HW2 2012   1.438   1.515   2.609  1.5736  0.1249 -0.0550
  560SOL    HW3 2013   1.407   1.653   2.664  0.5527  0.2843 -0.9820
  560SOL    MW4 2014   1.451   1.578   2.668 -0.2881 -0.0134  0.1854
  561SOL     OW 2015   4.690   5.070   1.480 -0.0126 -0.2851  0.3908
  561SOL    HW2 2016   4.698   4.988   1.431  0.2018  0.7358 -1.3829
  561SOL    HW3 2017   4.749   5.060   1.554  2.1898 -0.7195 -1.3039
  561SOL    MW4 2018   4.699   5.058   1.483 -0.1728 -0.2893 -0.9068
  562SOL     OW 2019   5.645   6.007   2.139  0.1254  0.1348  0.3739
  562SOL    HW2 2020   5.686   6.008   2.225 -0.6901  1.4630  0.7866
  562SOL    HW3 2021   5.554   6.034   2.156 -0.0227  0.5033 -0.8979
  562SOL    MW4 2022   5.638   6.011   2.153  0.2576  0.2707  0.3577
  563SOL     OW 2023   2.028   3.890   5.952  0.9002  0.4112 -0.3785
  563SOL    HW2 2024   2.032   3.966   5.893  0.1147 -1.3981 -2.9042
  563SOL    HW3 2025   2.057   3.816   5.899 -0.0806 -1.3896  1.4348
  563SOL    MW4 2026   2.032   3.890   5.937  0.2800  0.6617  0.3529
  564SOL     OW 2027   2.542   1.651   2.498  0.6344 -0.2100  0.2501
  564SOL    HW2 2028   2.597   1.722   2.465 -0.1632  0.9230  1.2646
  564SOL    HW3 2029   2.508   1.609   2.419 -0.4867  1.8476 -0.4334
  564SOL    MW4 2030   2.544   1.655   2.483  0.2221 -0.0884 -0.7262
  565SOL     OW 2031   1.825   5.869   4.186 -0.3396 -0.0144 -0.1138
  565SOL    HW2 2032   1.760   5.924   4.143 -0.6152 -0.8272 -0.7532
  565SOL    HW3 2033   1.786   5.782   4.186  0.7338 -0.5048 -0.4656
  565SOL    MW4 2034   1.811   5.865   4.181  0.1494 -0.1029 -0.1693
  566SOL     OW 2035   5.395   4.093   4.308 -0.6704 -0.0452 -0.3632
  566SOL    HW2 2036   5.302   4.073   4.316 -0.9016  0.9303 -0.4708
  566SOL    HW3 2037   5.398   4.167   4.248  0.2567 -0.7009 -1.1540
  566SOL    MW4 2038   5.383   4.100   4.301 -0.0035  0.0813 -0.4555
  567SOL     OW 2039   1.905   5.631   0.412  0.0005  0.4578 -0.2258
  567SOL    HW2 2040   1.839   5.624   0.342 -0.4035  0.5694  0.1411
  567SOL    HW3 2041   1.978   5.578   0.381 -0.1562  0.5467 -0.7602
  567SOL    MW4 2042   1.906   5.623   0.398  0.3129  1.0456  0.9198
  568SOL     OW 2043   1.307   1.940   5.012 -0.2087  0.0423 -0.0205
  568SOL    HW2 2044   1.298   1.990   5.093  0.1464 -1.4307  0.9653
  568SOL    HW3 2045   1.296   1.848   5.038 -0.9294 -0.4242 -1.7806
  568SOL    MW4 2046   1.305   1.934   5.026  0.7626  0.4599 -0.0480
  569SOL     OW 2047   3.370   4.913   2.596 -0.2420 -0.0561 -0.3319
  569SOL    HW2 2048   3.322   4.974   2.540  1.2954  0.7491 -0.8518
  569SOL    HW3 2049   3.341   4.934   2.685 -1.0974  0.1470 -0.6494
  569SOL    MW4 2050   3.360   4.924   2.601 -0.3534  0.4653 -0.2808
  570SOL     OW 2051   5.378   5.451   0.072 -0.2125 -0.5427 -0.4185
  570SOL    HW2 2052   5.286   5.424   0.071 -0.4381  0.1852  0.0738
  570SOL    HW3 2053   5.383   5.519   0.139  0.3731  0.5220 -1.5014
  570SOL    MW4 2054   5.367   5.456   0.081  0.6458 -0.1136 -0.6092
  571SOL     OW 2055   3.845   3.288   1.739 -0.3701 -0.0905  0.1690
  571SOL    HW2 2056   3.863   3.218   1.676  0.2217  0.1442  0.0727
  571SOL    HW3 2057   3.924   3.342   1.738  0.2047 -0.8248  2.0961
  571SOL    MW4 2058   3.857   3.286   1.730 -0.6396 -0.2704  0.4028
  572SOL     OW 2059   5.106   1.079   1.790  0.0510 -0.5545 -0.2450
  572SOL    HW2 2060   5.054   1.101   1.713  0.0236 -0.7950 -0.2958
  572SOL    HW3 2061   5.067   1.130   1.861 -1.0203 -1.6396 -0.0213
  572SOL    MW4 2062   5.094   1.089   1.789 -0.4008 -0.1100  0.2367
  573SOL     OW 2063   0.438   4.897   5.311 -0.4368 -0.1769  0.1947
  573SOL    HW2 2064   0.429   4.992   5.311  0.8955 -0.0322 -0.8182
  573SOL    HW3 2065   0.520   4.880   5.357  0.3552 -0.7030 -1.3517
  573SOL    MW4 2066   0.447   4.907   5.317 -0.2994 -0.8061 -0.3406
  574SOL     OW 2067   2.450   1.618   6.198  0.2092 -0.4986 -0.0984
  574SOL    HW2 2068   2.519   1.605   6.133  1.3888 -0.5764  1.1294
  574SOL    HW3 2069   2.492   1.668   6.268 -0.9668 -0.5934  0.6985
  574SOL    MW4 2070   2.465   1.623   6.199  0.5603 -0.4277  0.6446
  575SOL     OW 2071   5.799   5.406   5.763 -0.2137 -0.0701  0.2438
  575SOL    HW2 2072   5.823   5.432   5.674 -0.8684 -0.8530 -0.1752
  575SOL    HW3 2073   5.879   5.369   5.800  0.0824  0.3300  0.0106
  575SOL    MW4 2074   5.812   5.405   5.756  0.1605 -0.4546  0.0699
  576SOL     OW 2075   0.495   5.675   4.694  0.5481  0.1122  0.2642
  576SOL    HW2 2076   0.438   5.629   4.632  0.6771  0.4283 -0.0898
  576SOL    HW3 2077   0.479   5.631   4.778  1.8388 -1.6594 -0.3434
  576SOL    MW4 2078   0.485   5.663   4.697  0.3275 -0.3126  0.6231
  577SOL     OW 2079   5.000   5.945   1.786  0.2277  0.4164 -0.0756
  577SOL    HW2 2080   4.904   5.947   1.791  0.0025 -0.8611 -2.3604
  577SOL    HW3 2081   5.028   5.909   1.869 -1.3864 -0.5933  0.0677
  577SOL    MW4 2082   4.991   5.941   1.797  0.2004 -0.4552 -0.0378
  578SOL     OW 2083   2.817   1.399   0.520  0.1781  0.2239  0.0755
  578SOL    HW2 2084   2.786   1.400   0.430 -0.1301 -0.7983  0.1520
  578SOL    HW3 2085   2.814   1.307   0.546 -2.1159  0.7332  1.9383
  578SOL    MW4 2086   2.813   1.387   0.512  0.1734 -0.0778  0.3784
  579SOL     OW 2087   3.777   6.131   3.237  0.8776  0.1336  0.1185
  579SOL    HW2 2088   3.871   6.131   3.255  1.1632  0.8928 -1.1934
  579SOL    HW3 2089   3.772   6.126   3.141 -0.4842 -3.3892  0.2271
  579SOL    MW4 2090   3.789   6.130   3.226 -0.6863 -0.0960  0.3814
  580SOL     OW 2091   3.867   4.725   0.582 -0.0149  0.3200 -0.4510
  580SOL    HW2 2092   3.834   4.745   0.494  0.1256  0.9403 -0.3671
  580SOL    HW3 2093   3.932   4.792   0.599 -0.4936  0.5858  0.3873
  580SOL    MW4 2094   3.871   4.736   0.573 -0.0257 -0.0405 -0.4380
  581SOL     OW 2095   6.153   6.392   5.511 -0.2587 -0.0432  0.4843
  581SOL    HW2 2096   6.077   6.336   5.525 -0.1106 -0.0971  1.1154
  581SOL    HW3 2097   6.226   6.346   5.554  0.3584 -0.4843 -0.9732
  581SOL    MW4 2098   6.153   6.379   5.519 -0.4963  0.2785  0.2378
  582SOL     OW 2099   2.568   4.001   0.431  0.4570 -0.0619  0.0733
  582SOL    HW2 2100   2.554   3.912   0.400  0.1209 -0.2560  0.7627
  582SOL    HW3 2101   2.514   4.055   0.373  0.1662 -0.3708  0.0550
  582SOL    MW4 2102   2.559   3.997   0.419 -0.0689  0.0994  0.0443
  583SOL     OW 2103   2.874   5.296   4.347  0.0591 -0.2745 -0.0212
  583SOL    HW2 2104   2.785   5.328   4.331  0.3971  0.8188  0.2610
  583SOL    HW3 2105   2.929   5.374   4.345  1.0241 -0.9416 -0.1925
  583SOL    MW4 2106   2.869   5.310   4.345 -0.4922 -0.1612  0.5757
  584SOL     OW 2107   1.849   3.803   5.585  0.1140 -0.7625 -0.2430
  584SOL    HW2 2108   1.796   3.878   5.611 -0.1281 -0.6893 -0.9357
  584SOL    HW3 2109   1.820   3.732   5.643  0.6516 -0.2259  0.7156
  584SOL    MW4 2110   1.838   3.804   5.596 -0.1117  0.1137  0.0781
  585SOL     OW 2111   0.143   6.163   5.007  0.0354  0.5739 -1.0722
  585SOL    HW2 2112   0.133   6.084   4.953  1.2990  1.1194 -2.1694
  585SOL    HW3 2113   0.077   6.223   4.974 -0.5220  0.2061 -0.6461
  585SOL    MW4 2114   0.133   6.161   4.995 -0.4828 -0.3885  0.2866
  586SOL     OW 2115   2.603   6.397   1.257 -0.0072  0.0771  0.0307
  586SOL    HW2 2116   2.661   6.459   1.213  0.5534 -0.1350  0.4635
  586SOL    HW3 2117   2.515   6.430   1.238  0.2846  1.0742  0.3430
  586SOL    MW4 2118   2.599   6.410   1.249 -0.0850 -0.6167 -0.4621
  587SOL     OW 2119   3.111   0.773   6.410  0.4051  0.1236  0.1788
  587SOL    HW2 2120   3.114   0.765   6.506  0.9288  1.0213  0.2510
  587SOL    HW3 2121   3.177   0.712   6.379  0.8452  0.4597  0.4436
  587SOL    MW4 2122   3.120   0.764   6.419  0.1005 -0.3192  0.3337
  588SOL     OW 2123   5.510   2.749   6.050 -0.1245 -0.2715  0.4124
  588SOL    HW2 2124   5.491   2.843   6.046  0.9329 -0.0235  0.8316
  588SOL    HW3 2125   5.440   2.708   5.999 -0.8237  0.7085  0.5572
  588SOL    MW4 2126   5.499   2.756   6.043 -0.0567  0.2332 -0.4548
  589SOL     OW 2127   5.971   0.032   4.998 -0.0184 -0.0133  0.0840
  589SOL    HW2 2128   5.986   0.038   5.092  1.1991 -2.5061  0.1483
  589SOL    HW3 2129   6.016  -0.048   4.972 -2.9473 -1.1496 -2.0828
  589SOL    MW4 2130   5.979   0.022   5.007  0.1764  0.0333  0.4425
  590SOL     OW 2131   2.387   4.635   1.736 -0.0800 -0.1776 -0.6095
  590SOL    HW2 2132   2.435   4.647   1.819  0.9733 -0.8787 -1.0921
  590SOL    HW3 2133   2.416   4.707   1.681 -0.6173  0.1677 -0.4378
  590SOL    MW4 2134   2.397   4.646   1.740  0.4472  0.1314 -0.2904
  591SOL     OW 2135   1.736   5.875   4.511 -0.1236 -0.4554  0.1064
  591SOL    HW2 2136   1.765   5.891   4.601 -0.5764 -2.1122  0.5773
  591SOL    HW3 2137   1.661   5.934   4.499  1.6334  1.8235 -0.1796
  591SOL    MW4 2138   1.730   5.885   4.521  0.0649 -0.0563  0.0854
  592SOL     OW 2139   2.347   6.068   2.002 -0.1010  0.2751 -0.1363
  592SOL    HW2 2140   2.378   5.982   1.976  0.3860  0.6958 -0.9907
  592SOL    HW3 2141   2.395   6.129   1.946 -0.6987  1.0797  0.2015
  592SOL    MW4 2142   2.357   6.065   1.991 -0.2653  0.2785 -0.5215
  593SOL     OW 2143   3.596   3.125   2.240  0.2798 -0.0231  0.1145
  593SOL    HW2 2144   3.647   3.180   2.180 -1.2569 -0.6076 -1.8486
  593SOL    HW3 2145   3.510   3.167   2.243 -0.6395 -1.7432 -0.6912
  593SOL    MW4 2146   3.592   3.138   2.232 -0.0289 -0.2257 -0.4222
  594SOL     OW 2147   0.263   0.726   2.531  0.3904  0.0648  0.2543
  594SOL    HW2 2148   0.257   0.652   2.472  1.8328  0.0924  0.0498
  594SOL    HW3 2149   0.254   0.688   2.619  0.3261 -0.2396  0.1150
  594SOL    MW4 2150   0.261   0.711   2.535 -0.9947  0.4788 -0.0489
  595SOL     OW 2151   3.366   1.237   5.469 -0.5457 -0.1984  0.0372
  595SOL    HW2 2152   3.329   1.176   5.406 -1.0860 -0.0991  0.2531
  595SOL    HW3 2153   3.437   1.188   5.510 -0.9708 -0.6863  0.2066
  595SOL    MW4 2154   3.370   1.223   5.466  0.4222  0.1031 -0.1397
  596SOL     OW 2155   1.864   1.726   2.361 -0.0697  0.0341  0.2315
  596SOL    HW2 2156   1.770   1.717   2.374 -0.2684 -2.3116 -1.8885
  596SOL    HW3 2157   1.901   1.645   2.396  0.7279 -0.5193 -1.7127
  596SOL    MW4 2158   1.856   1.714   2.367 -0.0326  0.4545  0.1335
  597SOL     OW 2159   2.138   4.143   0.418 -0.5593 -0.5749  0.3155
  597SOL    HW2 2160   2.131   4.064   0.365 -1.3500 -2.2592  2.7535
  597SOL    HW3 2161   2.065   4.137   0.480 -0.2962  1.7890  0.9504
  597SOL    MW4 2162   2.128   4.132   0.419  0.0345  0.3538 -0.3473
  598SOL     OW 2163   4.931   3.254   5.572 -0.7668 -0.4489  0.2763
  598SOL    HW2 2164   4.844   3.215   5.571 -0.1120 -2.0150 -0.9612
  598SOL    HW3 2165   4.916   3.347   5.558 -2.2664 -0.5827  0.8061
  598SOL    MW4 2166   4.918   3.261   5.570 -0.0500  0.3246 -0.3272
  599SOL     OW 2167   6.151   1.212   2.340 -0.2675  0.0081 -0.2689
  599SOL    HW2 2168   6.102   1.135   2.366 -0.5478 -0.2608 -1.5018
  599SOL    HW3 2169   6.199   1.184   2.262 -0.1618  0.9967 -0.5728
  599SOL    MW4 2170   6.151   1.198   2.333  0.0041  0.8053  0.2979
  600SOL     OW 2171   5.601   3.674   2.399  0.3281 -0.2803  0.0941
  600SOL    HW2 2172   5.555   3.745   2.444 -0.2135 -0.2235 -0.5467
  600SOL    HW3 2173   5.532   3.619   2.363  0.7503 -0.1385 -0.9597
  600SOL    MW4 2174   5.586   3.676   2.401  0.0406  0.2805 -0.1258
  601SOL     OW 2175   3.243   2.516   4.089  0.1149  0.0457  0.1846
  601SOL    HW2 2176   3.183   2.468   4.031  2.6771 -1.2679 -1.5742
  601SOL    HW3 2177   3.317   2.457   4.101  0.8425  1.3366  2.7829
  601SOL    MW4 2178   3.245   2.502   4.082  0.4829 -0.0010 -0.2886
  602SOL     OW 2179   6.349   0.864   1.432  0.1504 -0.4947 -0.6270
  602SOL    HW2 2180   6.388   0.841   1.516 -0.8495  0.1779  0.0425
  602SOL    HW3 2181   6.321   0.955   1.441 -0.0631 -0.4374 -1.6564
  602SOL    MW4 2182   6.350   0.873   1.444  0.5478 -0.5752  0.4294
  603SOL     OW 2183   1.097   5.207   1.473 -0.1181  0.3545  0.1466
  603SOL    HW2 2184   1.070   5.297   1.456 -3.5553 -0.5421  0.0652
  603SOL    HW3 2185   1.173   5.215   1.530  1.1328  3.2620 -1.7213
  603SOL    MW4 2186   1.103   5.220   1.478 -0.2177 -0.7526 -0.1669
  604SOL     OW 2187   4.375   1.336   2.616  0.2129 -0.1464  0.2896
  604SOL    HW2 2188   4.459   1.361   2.578  0.3780 -0.6535  0.3137
  604SOL    HW3 2189   4.381   1.361   2.708 -0.2706  1.2921 -0.0414
  604SOL    MW4 2190   4.386   1.343   2.623 -0.7777 -0.1380 -0.7248
  605SOL     OW 2191   1.879   2.140   2.385 -0.1952  0.1240 -0.0701
  605SOL    HW2 2192   1.816   2.071   2.361  1.4324 -1.2383 -0.6361
  605SOL    HW3 2193   1.905   2.118   2.475  3.2236 -2.5026 -1.4636
  605SOL    MW4 2194   1.874   2.128   2.394 -0.0076  0.3806  0.6944
  606SOL     OW 2195   5.279   5.911   2.473  0.1037  0.6877 -0.4941
  606SOL    HW2 2196   5.199   5.860   2.465  0.0758  0.3534  1.4503
  606SOL    HW3 2197   5.318   5.908   2.385 -0.5440 -1.5593 -0.7672
  606SOL    MW4 2198   5.273   5.904   2.460 -0.3804 -0.3842 -0.2866
  607SOL     OW 2199   6.086   1.810   2.759  0.3594 -0.0260 -0.1494
  607SOL    HW2 2200   6.004   1.765   2.779  0.3271 -0.4522 -1.2060
  607SOL    HW3 2201   6.059   1.894   2.724  0.3823 -0.0256 -0.1657
  607SOL    MW4 2202   6.072   1.815   2.757 -0.1346 -0.2333  0.7291
  608SOL     OW 2203   3.293   4.613   1.861 -0.2234 -0.4590 -0.0620
  608SOL    HW2 2204   3.249   4.542   1.813 -1.6169  0.8091 -0.7168
  608SOL    HW3 2205   3.275   4.593   1.953 -0.4946 -1.0245 -0.2261
  608SOL    MW4 2206   3.285   4.601   1.866  0.1662  0.0123 -0.3004
  609SOL     OW 2207   5.795   0.724   6.049  0.0114  0.3624  0.0623
  609SOL    HW2 2208   5.781   0.658   6.117  0.4978 -0.8882 -1.0179
  609SOL    HW3 2209   5.711   0.730   6.003 -0.5725  1.7976  1.2220
  609SOL    MW4 2210   5.782   0.716   6.052  0.1087  0.3094  0.2837
  610SOL     OW 2211   5.211   2.927   2.238  0.5893  0.0050  0.1879
  610SOL    HW2 2212   5.126   2.905   2.200  1.2004  0.4472 -1.5311
  610SOL    HW3 2213   5.258   2.970   2.167  1.4647  1.7745  1.7483
  610SOL    MW4 2214   5.206   2.930   2.223 -0.0223  0.8414  0.7719
  611SOL     OW 2215   4.220   1.210   1.915  0.5108  0.3636 -0.7488
  611SOL    HW2 2216   4.229   1.148   1.842  3.4023  0.9878 -1.0488
  611SOL    HW3 2217   4.205   1.295   1.873 -3.4045  0.0776 -0.3370
  611SOL    MW4 2218   4.219   1.213   1.900  0.6250 -0.5358  0.4275
  612SOL     OW 2219   5.856   1.764   0.299  0.1720 -0.3008 -0.3431
  612SOL    HW2 2220   5.920   1.807   0.356  1.4012 -3.7056  1.1253
  612SOL    HW3 2221   5.887   1.781   0.210  1.7743  0.1020  0.2565
  612SOL    MW4 2222   5.869   1.772   0.295 -0.4118  0.0837 -0.0157
  613SOL     OW 2223   4.346   0.567   6.202 -0.6509 -0.3971 -0.1248
  613SOL    HW2 2224   4.367   0.474   6.189 -1.2451 -0.8472  1.7414
  613SOL    HW3 2225   4.271   0.583   6.146  0.2237 -0.6925 -1.4140
  613SOL    MW4 2226   4.339   0.557   6.193  0.1265  0.0299 -0.0768
  614SOL     OW 2227   5.394   1.614   1.699 -0.0519 -0.0560  0.3695
  614SOL    HW2 2228   5.438   1.652   1.775  1.1903 -0.5885 -0.0539
  614SOL    HW3 2229   5.461   1.562   1.656 -1.2288 -1.2804 -0.0640
  614SOL    MW4 2230   5.408   1.612   1.703 -0.1552 -0.2617 -0.7720
  615SOL     OW 2231   4.354   1.480   1.106  0.0065 -0.0511  0.3310
  615SOL    HW2 2232   4.293   1.536   1.153  1.0325  0.5015  1.0507
  615SOL    HW3 2233   4.411   1.542   1.059  0.1214 -0.5503 -0.2029
  615SOL    MW4 2234   4.354   1.496   1.106  0.5386 -0.1923 -0.2330
  616SOL     OW 2235   2.758   3.440   3.608 -0.1171 -0.5080  0.0585
  616SOL    HW2 2236   2.669   3.458   3.579  0.3989 -0.1070 -1.3715
  616SOL    HW3 2237   2.758   3.463   3.701 -1.2191  0.5723 -0.1821
  616SOL    MW4 2238   2.747   3.445   3.616 -0.4055 -0.3082 -0.0300
  617SOL     OW 2239   2.861   0.747   5.742  0.0004 -0.3112 -0.3253
  617SOL    HW2 2240   2.931   0.799   5.703 -0.3502 -0.9498 -1.8687
  617SOL    HW3 2241   2.869   0.662   5.700 -1.6973 -0.3977 -0.5118
  617SOL    MW4 2242   2.872   0.743   5.732 -0.0812  0.1654 -0.3568
  618SOL     OW 2243   2.815   3.314   5.157 -0.3225  0.0625 -0.2450
  618SOL    HW2 2244   2.863   3.366   5.222  0.0757  1.4436 -1.5954
  618SOL    HW3 2245   2.881   3.290   5.092 -1.0811  0.3415 -1.1282
  618SOL    MW4 2246   2.830   3.318   5.157  0.1433  0.2003 -0.1050
  619SOL     OW 2247   5.276   3.886   3.606 -0.4001 -0.0553  0.8737
  619SOL    HW2 2248   5.258   3.974   3.640  1.9185  0.9342 -0.2424
  619SOL    HW3 2249   5.190   3.845   3.597 -1.5900  2.3129  0.8448
  619SOL    MW4 2250   5.262   3.892   3.610 -0.5950 -0.2189 -0.7628
  620SOL     OW 2251   6.397   1.359   3.371 -0.1676  0.4639  0.1835
  620SOL    HW2 2252   6.314   1.400   3.348 -0.5544 -0.4788 -0.1269
  620SOL    HW3 2253   6.425   1.407   3.449 -2.3522 -0.9243  1.9525
  620SOL    MW4 2254   6.390   1.371   3.379 -0.3893 -0.3237  0.3099
  621SOL     OW 2255   1.549   5.713   1.410 -0.2341 -0.3856  0.1419
  621SOL    HW2 2256   1.630   5.687   1.367 -0.2930 -0.3504  0.0070
  621SOL    HW3 2257   1.576   5.773   1.479 -0.1626 -0.2046 -0.0426
  621SOL    MW4 2258   1.563   5.718   1.413 -0.5840  0.6130 -0.6834
  622SOL     OW 2259   3.464   4.044   4.764  0.6810 -0.1540  0.4427
  622SOL    HW2 2260   3.529   4.012   4.826 -0.0492  0.3934  1.5180
  622SOL    HW3 2261   3.471   4.139   4.768 -0.2497 -0.0862  0.6493
  622SOL    MW4 2262   3.473   4.052   4.772  0.3347  0.1905  0.1735
  623SOL     OW 2263   5.420   5.936   6.277  0.3415 -0.0720  0.1496
  623SOL    HW2 2264   5.479   5.866   6.250  0.5193  0.1247  0.0229
  623SOL    HW3 2265   5.351   5.892   6.327 -0.3129 -0.5241 -1.0968
  623SOL    MW4 2266   5.419   5.921   6.280  0.0176  0.9759 -0.1142
  624SOL     OW 2267   4.571   3.330   3.111 -0.2496 -0.3846 -0.2842
  624SOL    HW2 2268   4.628   3.275   3.165 -0.3188 -0.2237 -0.0443
  624SOL    HW3 2269   4.618   3.412   3.102  0.0835 -0.6497 -1.0699
  624SOL    MW4 2270   4.585   3.333   3.117 -0.0986 -0.2118  0.1330
  625SOL     OW 2271   6.318   1.675   3.403 -0.5953  0.4815  0.7291
  625SOL    HW2 2272   6.332   1.640   3.315  0.2674 -1.6641  1.6389
  625SOL    HW3 2273   6.242   1.733   3.394 -0.4578  0.4137 -1.4270
  625SOL    MW4 2274   6.310   1.678   3.390  0.0279 -0.3286 -0.4006
  626SOL     OW 2275   3.160   1.001   4.875 -0.2841 -0.2325  0.1174
  626SOL    HW2 2276   3.234   0.962   4.921  0.1678  0.5647  0.0863
  626SOL    HW3 2277   3.173   0.978   4.784  0.4367  0.6631 -0.0215
  626SOL    MW4 2278   3.171   0.993   4.869 -0.2001  0.0411  0.2981
  627SOL     OW 2279   5.310   0.941   4.897 -0.4288 -0.0606 -0.0436
  627SOL    HW2 2280   5.386   0.999   4.897 -0.3706 -0.1354  0.2572
  627SOL    HW3 2281   5.255   0.972   4.969 -0.0021 -0.8826  0.6673
  627SOL    MW4 2282   5.312   0.953   4.907  0.5029  0.0969  0.4799
  628SOL     OW 2283   1.195   4.533   0.860 -0.0661 -0.3418 -0.5274
  628SOL    HW2 2284   1.173   4.551   0.768 -0.3931 -0.9445 -0.5748
  628SOL    HW3 2285   1.150   4.601   0.909  0.7255  0.4421 -0.8585
  628SOL    MW4 2286   1.186   4.544   0.854 -0.5928 -0.0763 -0.5814
  629SOL     OW 2287   0.220   2.350   0.482  0.1788  0.4289  0.5445
  629SOL    HW2 2288   0.310   2.341   0.514 -0.0437 -0.5009  0.9159
  629SOL    HW3 2289   0.229   2.407   0.405  0.8279  1.9097  1.6618
  629SOL    MW4 2290   0.233   2.357   0.476 -0.2034  0.5107  0.3390
  630SOL     OW 2291   3.799   5.634   1.905  0.1381  0.6120  0.1636
  630SOL    HW2 2292   3.732   5.631   1.837 -1.1544  0.2735  1.4030
  630SOL    HW3 2293   3.785   5.555   1.957  1.9096  0.2160  0.1180
  630SOL    MW4 2294   3.788   5.624   1.903  0.1789  0.0518  0.2187
  631SOL     OW 2295   4.570   4.291   5.074  0.2707 -0.2468 -0.4285
  631SOL    HW2 2296   4.592   4.335   5.157  0.1110 -0.1372 -0.4438
  631SOL    HW3 2297   4.617   4.341   5.007 -1.7216  1.3607 -0.7247
  631SOL    MW4 2298   4.580   4.304   5.076  1.0462 -0.0246 -1.0602
  632SOL     OW 2299   2.061   1.724   5.515 -0.4676 -0.0646 -0.1874
  632SOL    HW2 2300   2.019   1.759   5.594 -0.7971 -0.5068 -0.1628
  632SOL    HW3 2301   2.075   1.632   5.534 -3.3224 -0.9334 -1.7408
  632SOL    MW4 2302   2.057   1.717   5.528  0.1790 -0.9175 -0.8598
  633SOL     OW 2303   4.212   4.629   1.573 -0.3784 -0.3159  0.4311
  633SOL    HW2 2304   4.135   4.576   1.596  0.5237 -2.7225 -1.6323
  633SOL    HW3 2305   4.253   4.648   1.657 -0.5397 -3.3686  1.3285
  633SOL    MW4 2306   4.207   4.624   1.587 -0.0540  0.5944  0.2725
  634SOL     OW 2307   0.445   4.056   5.371  0.1387  0.1006 -0.1692
  634SOL    HW2 2308   0.516   4.120   5.379 -0.5396  0.7869  0.4088
  634SOL    HW3 2309   0.428   4.028   5.461 -0.1389 -0.2878 -0.3383
  634SOL    MW4 2310   0.452   4.060   5.384  0.1568  0.3066  0.3274
  635SOL     OW 2311   2.658   6.441   3.654  0.0867 -0.1049 -0.4254
  635SOL    HW2 2312   2.752   6.447   3.668  0.2321 -0.7751 -1.0008
  635SOL    HW3 2313   2.649   6.432   3.559 -0.5601  0.0214 -0.3812
  635SOL    MW4 2314   2.669   6.441   3.643  0.3248  0.3046 -0.2923
  636SOL     OW 2315   2.975   1.934   4.116 -0.3399 -0.1123  0.7681
  636SOL    HW2 2316   2.884   1.963   4.105  0.4357  2.4961  0.5941
  636SOL    HW3 2317   3.011   1.993   4.182  1.5047 -0.4101  0.0848
  636SOL    MW4 2318   2.968   1.946   4.123  0.4311  0.0667  0.0821
  637SOL     OW 2319   3.806   4.270   1.073 -0.2919  0.1090 -0.0207
  637SOL    HW2 2320   3.774   4.292   0.986  0.0917 -0.9356 -0.4453
  637SOL    HW3 2321   3.870   4.339   1.094 -0.4856  0.4365 -0.5051
  637SOL    MW4 2322   3.811   4.282   1.064  0.2735  0.3003 -0.4935
  638SOL     OW 2323   5.781   3.592   2.770 -0.8731  0.5175  0.5748
  638SOL    HW2 2324   5.866   3.586   2.812 -0.2248  2.1268 -0.3737
  638SOL    HW3 2325   5.733   3.657   2.822 -0.4537  1.7153 -0.4724
  638SOL    MW4 2326   5.786   3.600   2.782 -0.1650 -0.1222 -0.6819
  639SOL     OW 2327   4.591   6.346   2.885 -0.8223 -0.6097 -0.8137
  639SOL    HW2 2328   4.530   6.274   2.899 -0.2507 -1.0216 -0.4123
  639SOL    HW3 2329   4.656   6.311   2.824  0.0818 -0.8112  0.2409
  639SOL    MW4 2330   4.591   6.332   2.879  0.5280 -0.2686  0.8537
  640SOL     OW 2331   4.292   0.984   4.512 -0.3445  0.0113 -0.0098
  640SOL    HW2 2332   4.200   0.989   4.538 -0.7889  0.9125 -1.6056
  640SOL    HW3 2333   4.290   0.982   4.416  1.2847 -0.5687 -0.0682
  640SOL    MW4 2334   4.280   0.984   4.503 -0.1883  0.3572 -0.1222
  641SOL     OW 2335   5.348   5.285   6.151 -0.4076 -0.2278 -0.1509
  641SOL    HW2 2336   5.330   5.248   6.065  0.0219 -2.7778  0.7623
  641SOL    HW3 2337   5.431   5.332   6.140 -0.9368  0.4832 -1.3505
  641SOL    MW4 2338   5.356   5.287   6.138  0.1713 -0.1031 -0.5271
  642SOL     OW 2339   4.551   0.479   4.416 -0.2648  0.3500  0.0514
  642SOL    HW2 2340   4.478   0.424   4.391 -1.0265  2.0482 -1.7057
  642SOL    HW3 2341   4.621   0.456   4.354 -0.3032  0.7689 -0.1482
  642SOL    MW4 2342   4.551   0.469   4.404 -0.1058  0.1502  0.3640
  643SOL     OW 2343   5.938   5.098   1.828 -0.7845  0.2553  0.3888
  643SOL    HW2 2344   5.882   5.079   1.753  1.2892  1.6729 -1.6690
  643SOL    HW3 2345   6.014   5.040   1.817  2.0419  3.8982 -1.7832
  643SOL    MW4 2346   5.941   5.088   1.816 -0.2764 -0.4043 -0.2073
  644SOL     OW 2347   5.275   2.074   0.513 -0.0076 -0.1698  0.0476
  644SOL    HW2 2348   5.283   2.040   0.424  1.0241  0.9012 -0.2920
  644SOL    HW3 2349   5.246   2.165   0.502  1.7895  0.5229  0.6972
  644SOL    MW4 2350   5.272   2.082   0.500 -0.4953  0.3629 -0.6001
  645SOL     OW 2351   2.127   2.990   1.939 -0.1834 -0.2070 -0.1197
  645SOL    HW2 2352   2.154   2.932   2.010  2.7865 -0.0925 -1.0153
  645SOL    HW3 2353   2.115   2.932   1.864 -1.3525 -0.0906 -0.0477
  645SOL    MW4 2354   2.129   2.975   1.938  0.0580 -0.1248  0.4274
  646SOL     OW 2355   6.274   1.222   0.845  0.1860 -0.1926 -0.1102
  646SOL    HW2 2356   6.214   1.151   0.869 -1.1195 -1.1297 -4.9541
  646SOL    HW3 2357   6.217   1.298   0.832  0.0268 -0.7136 -3.3332
  646SOL    MW4 2358   6.258   1.223   0.846  0.0601  0.5936  0.6405
  647SOL     OW 2359   2.677   1.472   0.303 -0.3048  0.0152  0.0821
  647SOL    HW2 2360   2.737   1.529   0.256 -0.9721  0.3812 -0.3282
  647SOL    HW3 2361   2.600   1.465   0.247 -1.6826  1.5463  1.6737
  647SOL    MW4 2362   2.675   1.478   0.290  0.1586 -0.3335  0.2950
  648SOL     OW 2363   0.447   2.860   1.808 -0.5344 -0.4170 -0.1527
  648SOL    HW2 2364   0.391   2.784   1.793  0.7560 -1.4461  0.0431
  648SOL    HW3 2365   0.482   2.881   1.721 -1.1554  0.1846 -0.2641
  648SOL    MW4 2366   0.444   2.853   1.794 -0.0257  0.2529 -0.7966
  649SOL     OW 2367   0.764   5.150   3.997  0.7984 -0.5407 -0.2281
  649SOL    HW2 2368   0.762   5.207   4.074  3.1756 -0.6347 -0.0130
  649SOL    HW3 2369   0.780   5.209   3.923 -0.5288 -0.5532 -0.5412
  649SOL    MW4 2370   0.766   5.165   3.998 -0.1102  0.3770 -0.2416
  650SOL     OW 2371   6.169   5.668   0.462  0.3585  0.0407  0.1621
  650SOL    HW2 2372   6.181   5.761   0.482  1.6002 -0.1387  0.3751
  650SOL    HW3 2373   6.111   5.667   0.386 -1.1465  0.9030  1.2612
  650SOL    MW4 2374   6.163   5.680   0.455 -0.0386 -0.0389 -0.4176
  651SOL     OW 2375   0.021   2.431   0.240  0.1370  0.0463 -0.5148
  651SOL    HW2 2376  -0.016   2.345   0.261  0.0887 -0.4901 -2.5780
  651SOL    HW3 2377  -0.012   2.489   0.309 -0.3035 -1.4534  0.5888
  651SOL    MW4 2378   0.012   2.428   0.252  0.3969  0.3518  0.5030
  652SOL     OW 2379   6.215   4.093   5.769 -0.5898  0.2597 -0.6292
  652SOL    HW2 2380   6.262   4.019   5.809  0.7990  0.4877 -1.7622
  652SOL    HW3 2381   6.160   4.052   5.702 -0.5521  0.1522 -0.5946
  652SOL    MW4 2382   6.214   4.077   5.765  0.1627  0.2029 -0.4642
  653SOL     OW 2383   3.060   2.487   1.307  0.5775  0.4714 -0.1561
  653SOL    HW2 2384   2.972   2.498   1.271 -0.6434 -0.4876  2.3361
  653SOL    HW3 2385   3.070   2.561   1.367  0.7362 -0.3818  0.8923
  653SOL    MW4 2386   3.049   2.498   1.310  0.4998 -0.3854  0.3804
  654SOL     OW 2387   3.491   0.354   5.907 -0.5185  0.2004  0.0320
  654SOL    HW2 2388   3.488   0.428   5.847  1.3147  0.5173  0.2701
  654SOL    HW3 2389   3.525   0.390   5.988  1.1287 -0.9965 -0.0697
  654SOL    MW4 2390   3.495   0.368   5.909 -0.4815 -0.3850  0.5568
  655SOL     OW 2391   4.801   3.480   1.642  0.1888 -0.1745  0.3507
  655SOL    HW2 2392   4.821   3.453   1.731 -3.0660  0.0175  1.2279
  655SOL    HW3 2393   4.769   3.570   1.650 -0.7911 -0.3827 -0.9229
  655SOL    MW4 2394   4.800   3.489   1.655 -0.1178 -0.3012  0.2681
  656SOL     OW 2395   2.495   4.772   1.990 -0.2244  0.6630 -0.2304
  656SOL    HW2 2396   2.441   4.844   1.956 -1.8006  0.2332  1.2245
  656SOL    HW3 2397   2.438   4.726   2.051  1.0799 -1.2513 -0.3694
  656SOL    MW4 2398   2.480   4.776   1.993  0.3709  0.6569  0.0867
  657SOL     OW 2399   3.531   5.698   5.018  0.2300 -0.6002  0.3791
  657SOL    HW2 2400   3.563   5.620   4.973  0.3927 -0.3573  0.0693
  657SOL    HW3 2401   3.526   5.765   4.950  1.5025  0.0745  0.8970
  657SOL    MW4 2402   3.535   5.697   5.003 -0.0821  0.3285  0.2562
  658SOL     OW 2403   2.306   0.847   3.713 -0.0111  0.2113  0.0236
  658SOL    HW2 2404   2.221   0.892   3.710  0.2390  0.7442  0.6581
  658SOL    HW3 2405   2.310   0.810   3.801  0.5167  0.3984  0.0820
  658SOL    MW4 2406   2.295   0.848   3.724  0.5635 -0.0780  0.1340
  659SOL     OW 2407   4.008   5.176   2.890 -0.3937 -0.4672 -0.1723
  659SOL    HW2 2408   3.947   5.222   2.833 -0.3888 -0.2469 -0.0014
  659SOL    HW3 2409   4.094   5.204   2.860 -0.3999 -0.0145  0.2178
  659SOL    MW4 2410   4.011   5.186   2.878  0.9037  0.1299  0.1326
  660SOL     OW 2411   1.203   2.440   0.241 -0.3239  0.2588  0.1439
  660SOL    HW2 2412   1.187   2.387   0.163 -0.4872 -0.3318  0.5735
  660SOL    HW3 2413   1.192   2.379   0.314  0.2501  0.7055  0.6107
  660SOL    MW4 2414   1.199   2.425   0.241 -0.3032  0.2473 -0.2978
  661SOL     OW 2415   4.424   5.385   5.361  0.3296 -0.4782 -0.8299
  661SOL    HW2 2416   4.456   5.444   5.292  1.2658 -2.4188 -2.1548
  661SOL    HW3 2417   4.405   5.303   5.315  0.9939 -1.8566  1.2086
  661SOL    MW4 2418   4.426   5.382   5.346  0.4924 -0.4031 -0.2158
  662SOL     OW 2419   3.258   5.901   1.325  0.1227 -0.1716  0.2752
  662SOL    HW2 2420   3.349   5.929   1.314  0.9975 -2.8385  0.0599
  662SOL    HW3 2421   3.263   5.817   1.370 -2.2711 -0.2197  0.5942
  662SOL    MW4 2422   3.271   5.894   1.329  0.2177 -0.1634  0.4849
  663SOL     OW 2423   5.537   4.886   2.278  0.3914  0.2626  0.0815
  663SOL    HW2 2424   5.557   4.972   2.317 -0.5920  0.6301 -0.1821
  663SOL    HW3 2425   5.504   4.835   2.352  0.1778  0.3913  0.0772
  663SOL    MW4 2426   5.535   4.891   2.293  0.3720  0.2676 -0.7157
  664SOL     OW 2427   3.783   2.425   0.643  0.3180 -0.3253  0.5103
  664SOL    HW2 2428   3.731   2.496   0.681 -0.0438  0.4745 -1.3688
  664SOL    HW3 2429   3.871   2.440   0.675  0.3871  1.4164 -0.3764
  664SOL    MW4 2430   3.787   2.437   0.652 -0.1494  0.2366  0.7311
  665SOL     OW 2431   4.615   3.712   4.247 -0.4857 -0.4500  0.4126
  665SOL    HW2 2432   4.584   3.789   4.198  1.5435 -0.0035 -0.2780
  665SOL    HW3 2433   4.568   3.716   4.330  0.2493  2.1537  0.7998
  665SOL    MW4 2434   4.605   3.723   4.251 -0.2040 -0.7839 -0.3286
  666SOL     OW 2435   3.281   2.548   1.116 -0.0549 -0.2937  0.1384
  666SOL    HW2 2436   3.341   2.480   1.146 -0.9316 -0.7349  0.9466
  666SOL    HW3 2437   3.205   2.540   1.174 -1.0535  0.0051 -1.0868
  666SOL    MW4 2438   3.279   2.538   1.128 -0.2148 -0.0306  0.2709
  667SOL     OW 2439   0.586   5.252   1.607 -0.1549 -0.1750  0.1885
  667SOL    HW2 2440   0.652   5.209   1.553 -1.2705 -0.0838 -1.3068
  667SOL    HW3 2441   0.567   5.333   1.560 -0.3613  0.4441  1.3178
  667SOL    MW4 2442   0.593   5.257   1.594  0.2602 -1.1798 -0.0107
  668SOL     OW 2443   3.277   4.561   0.075  0.4296 -0.4020  0.6040
  668SOL    HW2 2444   3.270   4.562  -0.021  0.1756  1.7052  0.5907
  668SOL    HW3 2445   3.330   4.484   0.094  0.2640 -1.0230 -1.2155
  668SOL    MW4 2446   3.283   4.551   0.065  0.2796  0.4692  0.0741
  669SOL     OW 2447   3.843   1.063   6.365  0.1569  0.0237  0.0901
  669SOL    HW2 2448   3.794   1.125   6.417  0.0292  0.8795 -1.0142
  669SOL    HW3 2449   3.923   1.109   6.341  0.9970 -0.9557  0.9220
  669SOL    MW4 2450   3.847   1.077   6.369  0.2628 -0.5264  0.4441
  670SOL     OW 2451   1.418   1.169   2.464  0.0013 -0.1477  0.2050
  670SOL    HW2 2452   1.330   1.141   2.437 -1.2805  2.9955  0.7287
  670SOL    HW3 2453   1.422   1.262   2.442  3.7401 -0.4266 -0.9855
  670SOL    MW4 2454   1.407   1.177   2.458 -0.6639  0.0385  0.0250
  671SOL     OW 2455   6.425   2.322   4.566 -0.1777  0.6474 -0.3989
  671SOL    HW2 2456   6.416   2.404   4.518  0.4309  1.6053  1.0295
  671SOL    HW3 2457   6.344   2.316   4.618 -0.7712 -0.3038 -1.4092
  671SOL    MW4 2458   6.413   2.332   4.567 -0.3080  0.1486  0.2725
  672SOL     OW 2459   6.201   2.514   5.571 -0.4305 -0.4694 -0.0230
  672SOL    HW2 2460   6.186   2.561   5.652  1.5901 -2.0229  1.3692
  672SOL    HW3 2461   6.295   2.522   5.556 -0.8578  0.5698 -2.7938
  672SOL    MW4 2462   6.212   2.521   5.580  0.1757  0.1543  0.4831
  673SOL     OW 2463   0.338   4.636   4.152  0.3223 -0.1521 -0.3261
  673SOL    HW2 2464   0.340   4.603   4.062  2.0265 -1.2563  0.0713
  673SOL    HW3 2465   0.247   4.663   4.166 -0.4690 -1.9524 -1.6767
  673SOL    MW4 2466   0.326   4.635   4.142  0.5376  0.0334 -0.1046
  674SOL     OW 2467   0.800   1.480   2.041 -0.3572  0.2573  0.0944
  674SOL    HW2 2468   0.791   1.470   2.136 -0.0189  0.1827  0.1183
  674SOL    HW3 2469   0.876   1.536   2.030  0.7698 -1.2500 -0.1775
  674SOL    MW4 2470   0.809   1.486   2.052 -0.3291 -0.4364  0.1028
  675SOL     OW 2471   5.408   3.172   4.180  0.1287 -0.4876  0.8232
  675SOL    HW2 2472   5.348   3.109   4.141  0.0261 -0.3635  0.7786
  675SOL    HW3 2473   5.415   3.242   4.114 -0.0932 -0.2478  1.0504
  675SOL    MW4 2474   5.401   3.173   4.166 -0.0952  0.2592  0.1594
  676SOL     OW 2475   5.303   3.013   1.978  0.0603  0.0635  0.0050
  676SOL    HW2 2476   5.392   2.983   1.961  0.0789  0.3849 -0.4674
  676SOL    HW3 2477   5.297   3.097   1.933  0.0525  0.8486  1.3972
  676SOL    MW4 2478   5.314   3.020   1.970 -0.0665 -0.1772  0.1099
  677SOL     OW 2479   0.879   1.449   5.326  0.0537  0.5709  0.1654
  677SOL    HW2 2480   0.804   1.436   5.383  1.8192 -2.3182  2.1150
  677SOL    HW3 2481   0.927   1.521   5.365  0.0719  0.1082  1.0264
  677SOL    MW4 2482   0.875   1.457   5.338 -0.0208 -0.2417 -0.0660
  678SOL     OW 2483   1.614   0.145   5.363  0.4400  0.0473 -0.0870
  678SOL    HW2 2484   1.573   0.123   5.279 -0.3341 -0.9445  0.5238
  678SOL    HW3 2485   1.558   0.102   5.428  1.5103  0.0988  0.8840
  678SOL    MW4 2486   1.601   0.136   5.360  0.2015  0.1012 -0.3531
  679SOL     OW 2487   2.425   2.556   5.874 -0.0914 -0.3077 -0.5366
  679SOL    HW2 2488   2.344   2.520   5.837 -1.0046  1.3659 -0.2508
  679SOL    HW3 2489   2.465   2.483   5.921 -3.5037 -0.2833  2.8185
  679SOL    MW4 2490   2.420   2.542   5.875 -0.3682 -0.5416 -0.7437
  680SOL     OW 2491   5.832   5.456   4.769  0.0558 -0.5709  0.1864
  680SOL    HW2 2492   5.812   5.526   4.830 -1.0080 -0.1985 -0.5581
  680SOL    HW3 2493   5.873   5.388   4.822  2.6313  1.2164  0.6825
  680SOL    MW4 2494   5.835   5.456   4.784 -0.1338 -0.0966 -0.3315
  681SOL     OW 2495   6.423   3.484   5.050  0.0184  0.5653  0.2790
  681SOL    HW2 2496   6.451   3.430   4.976  0.8608  4.4905 -2.5923
  681SOL    HW3 2497   6.465   3.444   5.126  2.2555 -1.5995 -1.8969
  681SOL    MW4 2498   6.432   3.472   5.050  0.8483  0.8877 -0.1435
  682SOL     OW 2499   5.707   1.766   6.110  0.3429 -0.4361 -0.3236
  682SOL    HW2 2500   5.621   1.741   6.142 -0.7701  1.4571 -1.6917
  682SOL    HW3 2501   5.732   1.696   6.049 -1.0756 -0.0868 -1.3371
  682SOL    MW4 2502   5.699   1.754   6.106 -0.4996  0.0712  0.1215
  683SOL     OW 2503   1.526   4.715   4.208 -0.4683  0.3856 -0.2488
  683SOL    HW2 2504   1.550   4.623   4.202 -0.9563  0.2120  0.4134
  683SOL    HW3 2505   1.437   4.715   4.244 -0.1513  1.1259  0.5923
  683SOL    MW4 2506   1.518   4.703   4.212  0.3416  0.1203 -0.0214
  684SOL     OW 2507   4.414   0.353   5.922 -0.2200 -0.0217  0.2256
  684SOL    HW2 2508   4.455   0.440   5.916 -1.8688  0.9030  1.4846
  684SOL    HW3 2509   4.478   0.294   5.882  1.0221  1.7402 -0.5410
  684SOL    MW4 2510   4.428   0.357   5.916 -0.1383  0.8185  0.1023
  685SOL     OW 2511   2.989   0.867   0.778 -0.0965  0.3163 -0.3726
  685SOL    HW2 2512   2.912   0.916   0.806  0.0727 -0.1509  0.9407
  685SOL    HW3 2513   2.961   0.821   0.699 -1.7472 -1.2939  1.0834
  685SOL    MW4 2514   2.975   0.867   0.771 -0.3606 -0.5273  0.8882
  686SOL     OW 2515   2.428   4.847   3.086  0.2012  0.0315 -0.5606
  686SOL    HW2 2516   2.336   4.851   3.058  0.3414  2.8658 -0.9445
  686SOL    HW3 2517   2.447   4.753   3.092 -2.4850 -0.6528 -1.1789
  686SOL    MW4 2518   2.418   4.835   3.083  0.3481 -0.3658 -0.9572
  687SOL     OW 2519   4.381   1.468   1.517 -0.2685 -0.1870  0.1371
  687SOL    HW2 2520   4.395   1.388   1.568  0.6596 -0.1670 -0.0792
  687SOL    HW3 2521   4.412   1.538   1.574 -3.0878  0.3049  1.2492
  687SOL    MW4 2522   4.387   1.466   1.531 -0.1981  0.0977  0.0375
  688SOL     OW 2523   1.536   3.440   5.367 -0.2037  0.0332 -0.1087
  688SOL    HW2 2524   1.554   3.529   5.398 -1.4464  0.4625 -0.5879
  688SOL    HW3 2525   1.546   3.446   5.272  1.3848 -0.7571 -0.0215
  688SOL    MW4 2526   1.540   3.453   5.359  0.0891 -0.3145  0.0808
  689SOL     OW 2527   5.354   6.428   3.592 -0.3309  0.3077  0.3441
  689SOL    HW2 2528   5.400   6.354   3.630  1.1091  2.6071  3.5127
  689SOL    HW3 2529   5.422   6.476   3.544 -0.9837  0.2450 -0.6726
  689SOL    MW4 2530   5.369   6.425   3.591  0.4575  0.1935  0.0045
  690SOL     OW 2531   5.415   4.091   5.021  0.0084  0.6054 -0.1979
  690SOL    HW2 2532   5.415   4.108   5.115  0.0181 -0.4634  0.0183
  690SOL    HW3 2533   5.405   3.996   5.014  2.2901  0.3713 -1.2265
  690SOL    MW4 2534   5.413   4.080   5.032 -0.1089 -0.2350  0.0969
  691SOL     OW 2535   2.771   0.399   2.958  0.3557 -0.0985 -0.0641
  691SOL    HW2 2536   2.701   0.463   2.949 -0.1525 -0.4162  1.3894
  691SOL    HW3 2537   2.830   0.436   3.024  0.2383 -0.9486  0.5364
  691SOL    MW4 2538   2.770   0.412   2.966 -0.0467 -0.0351  0.4616
  692SOL     OW 2539   0.287   3.044   4.321  0.3143 -0.1972 -0.3151
  692SOL    HW2 2540   0.218   3.092   4.367 -0.4454 -1.2786 -0.2949
  692SOL    HW3 2541   0.368   3.079   4.357 -0.1432  2.0118 -1.2341
  692SOL    MW4 2542   0.289   3.055   4.331 -0.6044  0.0647 -0.1954
  693SOL     OW 2543   4.716   0.896   2.496 -0.8034 -0.2671  0.6474
  693SOL    HW2 2544   4.705   0.801   2.497  0.9381 -0.5028  0.5666
  693SOL    HW3 2545   4.698   0.923   2.586  2.8137 -1.2888  1.8573
  693SOL    MW4 2546   4.713   0.887   2.508  0.3080  0.0707  0.0474
  694SOL     OW 2547   3.771   5.878   4.382 -0.6873 -0.5352 -0.6440
  694SOL    HW2 2548   3.852   5.906   4.340 -0.5542  1.1318  0.6399
  694SOL    HW3 2549   3.790   5.879   4.475 -1.2752 -3.1999 -0.4065
  694SOL    MW4 2550   3.784   5.882   4.388 -0.1215  0.7182  0.0881
  695SOL     OW 2551   0.191   2.450   5.912  0.4080  0.0763  0.0812
  695SOL    HW2 2552   0.190   2.514   5.841 -0.3030 -0.8212 -0.7398
  695SOL    HW3 2553   0.281   2.451   5.945  0.6276  0.8163 -0.5377
  695SOL    MW4 2554   0.202   2.458   5.907 -0.0552  0.0685 -0.1942
  696SOL     OW 2555   4.649   1.304   0.091 -0.2982 -0.2570  0.1013
  696SOL    HW2 2556   4.678   1.375   0.033 -0.5046 -0.0899  0.2003
  696SOL    HW3 2557   4.657   1.225   0.038 -2.5478  0.1299 -0.9244
  696SOL    MW4 2558   4.654   1.303   0.076 -0.2129 -0.0036  0.5620
  697SOL     OW 2559   1.758   3.263   2.580  0.6161 -0.4144 -0.6315
  697SOL    HW2 2560   1.713   3.313   2.648  0.9689  1.5649 -1.7575
  697SOL    HW3 2561   1.700   3.190   2.561  0.7511 -1.3617  2.1175
  697SOL    MW4 2562   1.745   3.260   2.587 -0.0856 -0.4221 -0.1000
  698SOL     OW 2563   2.522   2.620   5.180 -0.0869 -0.2374 -0.3184
  698SOL    HW2 2564   2.607   2.663   5.189 -0.8747  1.1255  1.1105
  698SOL    HW3 2565   2.459   2.684   5.214 -1.6646 -1.3106 -1.1055
  698SOL    MW4 2566   2.525   2.634   5.186 -0.4505  0.3720  0.2772
  699SOL     OW 2567   0.699   0.649   2.277 -0.0009 -0.6686  0.4428
  699SOL    HW2 2568   0.670   0.565   2.313  0.5563 -1.0175  0.0948
  699SOL    HW3 2569   0.787   0.631   2.243 -0.2325 -0.1647 -0.4309
  699SOL    MW4 2570   0.707   0.636   2.278 -0.2517 -0.6654 -0.1038
  700SOL     OW 2571   2.602   2.055   1.982  0.0017  0.2863  0.2360
  700SOL    HW2 2572   2.680   1.999   1.985 -0.7158 -0.7299  0.6435
  700SOL    HW3 2573   2.629   2.131   1.931  1.8670  0.9463  2.1023
  700SOL    MW4 2574   2.616   2.057   1.976  0.1251  0.1262  0.4203
  701SOL     OW 2575   5.046   2.746   5.646 -0.2735 -0.5731  0.1567
  701SOL    HW2 2576   5.101   2.774   5.719  0.1013 -2.6299  0.7405
  701SOL    HW3 2577   5.054   2.816   5.581 -0.0724  0.9855  1.7880
  701SOL    MW4 2578   5.054   2.759   5.647 -0.6664  0.0766  0.2261
  702SOL     OW 2579   5.286   3.543   4.159  0.2680 -0.1221 -0.0163
  702SOL    HW2 2580   5.341   3.477   4.117 -0.6577 -1.2362  0.4407
  702SOL    HW3 2581   5.269   3.508   4.247  0.7686  1.3359  0.6994
  702SOL    MW4 2582   5.291   3.530   4.165 -0.4835 -0.0012 -0.3476
  703SOL     OW 2583   5.047   2.231   5.323  0.5430 -0.1286  0.3498
  703SOL    HW2 2584   5.008   2.172   5.258  0.8516 -0.1184  0.1551
  703SOL    HW3 2585   5.140   2.209   5.324  0.3482 -1.0336  1.7419
  703SOL    MW4 2586   5.054   2.221   5.315 -0.4393 -0.5057 -0.3861
  704SOL     OW 2587   1.787   1.294   4.152 -0.3594  0.6665 -0.2443
  704SOL    HW2 2588   1.881   1.274   4.158 -0.4872  0.1072 -0.0839
  704SOL    HW3 2589   1.779   1.340   4.068  0.2153  1.6537  0.2262
  704SOL    MW4 2590   1.799   1.297   4.141  0.0694  0.5498 -0.5183
  705SOL     OW 2591   2.014   2.465   1.368  0.1285 -0.2974 -0.6493
  705SOL    HW2 2592   1.975   2.471   1.455  2.6026 -0.8250  0.5997
  705SOL    HW3 2593   2.080   2.535   1.367  0.4834 -0.6244 -1.9004
  705SOL    MW4 2594   2.017   2.475   1.380  0.0441  0.3030  0.8128
  706SOL     OW 2595   0.070   4.852   5.793 -0.0483 -0.0493  0.1241
  706SOL    HW2 2596   0.083   4.849   5.888 -0.7658 -3.7536  0.2674
  706SOL    HW3 2597   0.091   4.763   5.764 -1.1232  0.6094 -3.0190
  706SOL    MW4 2598   0.075   4.840   5.802  0.0749  0.2191 -0.0800
  707SOL     OW 2599   5.252   3.647   3.414 -0.0940 -0.4449  0.1259
  707SOL    HW2 2600   5.264   3.689   3.500 -1.2914 -0.2887  0.2246
  707SOL    HW3 2601   5.187   3.579   3.430 -0.8598  0.0486 -0.8087
  707SOL    MW4 2602   5.245   3.643   3.428 -0.6601 -0.2056 -0.3053
  708SOL     OW 2603   5.012   4.993   6.386 -0.6308 -0.1583  0.2020
  708SOL    HW2 2604   4.999   4.997   6.481 -2.1490 -0.3893  0.0292
  708SOL    HW3 2605   4.993   4.901   6.364  0.6541 -0.3424 -0.2160
  708SOL    MW4 2606   5.008   4.981   6.396 -0.4524  0.0980  0.0873
  709SOL     OW 2607   2.078   3.444   3.785  0.1830 -0.2256  0.1563
  709SOL    HW2 2608   2.050   3.535   3.788  0.5421 -0.0435 -1.2753
  709SOL    HW3 2609   2.070   3.419   3.693  1.0634 -1.3272  0.3494
  709SOL    MW4 2610   2.074   3.452   3.773 -0.0567  0.3747 -0.4868
  710SOL     OW 2611   5.728   5.639   1.520  0.6809 -0.5947  0.7753
  710SOL    HW2 2612   5.697   5.730   1.511 -1.6182 -1.4796 -1.6191
  710SOL    HW3 2613   5.797   5.644   1.586  2.2633  3.2777 -0.8327
  710SOL    MW4 2614   5.733   5.652   1.527  0.2690 -0.2027  0.1171
  711SOL     OW 2615   0.371   0.864   6.321 -0.2730 -0.0986  0.3184
  711SOL    HW2 2616   0.285   0.892   6.288 -0.4371 -0.9626 -0.0063
  711SOL    HW3 2617   0.431   0.880   6.248 -0.2448  0.0508  0.3745
  711SOL    MW4 2618   0.367   0.870   6.307  0.0292 -0.0017  0.1682
  712SOL     OW 2619   2.097   1.295   0.378 -0.2197  0.2775 -0.1267
  712SOL    HW2 2620   2.097   1.389   0.363 -0.0346  0.1756 -0.8186
  712SOL    HW3 2621   2.012   1.265   0.344  0.2200  0.0383 -1.0693
  712SOL    MW4 2622   2.085   1.303   0.371  0.2568 -0.4034  0.5410
  713SOL     OW 2623   4.999   2.054   5.116 -0.3572 -0.0255 -0.5278
  713SOL    HW2 2624   4.924   2.015   5.161  0.3202  1.0487  1.6489
  713SOL    HW3 2625   5.058   1.980   5.100 -1.5339 -0.7657 -1.6604
  713SOL    MW4 2626   4.997   2.039   5.120 -0.1846  0.4260 -0.0798
  714SOL     OW 2627   6.328   1.744   1.531 -0.1028 -0.1895  0.6441
  714SOL    HW2 2628   6.265   1.743   1.459  2.5116 -0.4624 -1.7926
  714SOL    HW3 2629   6.337   1.837   1.554 -0.3142 -0.0205  0.0449
  714SOL    MW4 2630   6.321   1.756   1.525  0.3589  0.0050 -0.4158
  715SOL     OW 2631   0.139   2.114   6.254  0.1006 -0.6368 -0.3169
  715SOL    HW2 2632   0.068   2.115   6.191  0.9707 -0.1564 -1.3259
  715SOL    HW3 2633   0.134   2.028   6.296 -0.5646 -0.9165 -0.9557
  715SOL    MW4 2634   0.129   2.103   6.252  0.1030  0.2311  0.3168
  716SOL     OW 2635   0.738   3.758   1.501  0.7467  0.2562  0.1643
  716SOL    HW2 2636   0.746   3.834   1.559 -0.1569  0.3632  0.1587
  716SOL    HW3 2637   0.658   3.713   1.531  0.7598 -0.1764 -0.4296
  716SOL    MW4 2638   0.728   3.762   1.513  0.2422  0.1358  0.1510
  717SOL     OW 2639   0.602   1.395   4.866  0.2508  0.7479  0.4074
  717SOL    HW2 2640   0.509   1.420   4.866 -0.4436 -1.3935  3.2009
  717SOL    HW3 2641   0.638   1.439   4.943  1.2474  0.4609  0.1150
  717SOL    MW4 2642   0.594   1.404   4.876  0.5428 -0.2742  0.0553
  718SOL     OW 2643   4.102   2.333   2.798  0.6691 -0.0528  0.8658
  718SOL    HW2 2644   4.178   2.278   2.815 -0.4798 -1.4131  1.9467
  718SOL    HW3 2645   4.057   2.290   2.725  0.4188  0.1668  0.8880
  718SOL    MW4 2646   4.106   2.320   2.790  0.4614 -0.0706  0.0580
  719SOL     OW 2647   0.316   2.239   5.740  0.2958 -0.0933 -0.7916
  719SOL    HW2 2648   0.260   2.213   5.667 -0.5245  1.5005 -0.7848
  719SOL    HW3 2649   0.260   2.294   5.795  1.1979 -0.4207  0.5116
  719SOL    MW4 2650   0.301   2.243   5.738  0.1335  0.7912 -0.0043
  720SOL     OW 2651   0.095   6.260   3.395 -1.4554 -0.5103  0.5119
  720SOL    HW2 2652   0.038   6.315   3.341  0.3776  2.4666  1.3084
  720SOL    HW3 2653   0.158   6.223   3.333  0.1064  2.1764  0.3245
  720SOL    MW4 2654   0.096   6.263   3.380  0.0846 -0.2811 -1.2507
  721SOL     OW 2655   0.468   1.241   0.625 -0.1431 -0.6565 -0.6076
  721SOL    HW2 2656   0.393   1.198   0.584 -0.4811 -1.1388  0.4834
  721SOL    HW3 2657   0.542   1.182   0.610 -0.0318 -0.3182 -1.4346
  721SOL    MW4 2658   0.468   1.228   0.618  0.5904 -0.1735 -0.2888
  722SOL     OW 2659   0.577   4.050   0.628  0.6187 -0.5069 -0.7155
  722SOL    HW2 2660   0.563   4.121   0.691 -0.0680 -0.8089 -0.5123
  722SOL    HW3 2661   0.671   4.050   0.611  0.9962 -1.1251  1.1571
  722SOL    MW4 2662   0.587   4.059   0.634 -0.2657 -0.7935 -0.0025
  723SOL     OW 2663   5.699   4.397   2.135 -0.1332  0.9221 -0.1103
  723SOL    HW2 2664   5.790   4.382   2.161 -0.1781  1.1473  0.1886
  723SOL    HW3 2665   5.651   4.321   2.167  0.2383 -0.0938 -1.8696
  723SOL    MW4 2666   5.705   4.385   2.143 -0.0742  0.4947  0.6123
  724SOL     OW 2667   2.655   2.672   3.653  0.0442  0.8746  0.8240
  724SOL    HW2 2668   2.627   2.753   3.696 -2.2451 -0.4441  1.9938
  724SOL    HW3 2669   2.576   2.639   3.610  0.8224 -0.9157  0.6752
  724SOL    MW4 2670   2.641   2.678   3.653  0.3144  0.2310  0.4108
  725SOL     OW 2671   2.259   3.031   3.097 -0.0732  0.2452  0.2716
  725SOL    HW2 2672   2.205   3.103   3.129  0.7216  0.7281  0.5755
  725SOL    HW3 2673   2.342   3.073   3.074  0.8267 -0.7332  1.5771
  725SOL    MW4 2674   2.263   3.046   3.098 -0.2241 -0.7603  0.0371
  726SOL     OW 2675   6.055   0.564   2.851 -0.1573  0.4418  0.6064
  726SOL    HW2 2676   6.136   0.557   2.900  0.4613 -0.2440 -0.4553
  726SOL    HW3 2677   5.994   0.506   2.896  0.4797 -0.3808  0.4354
  726SOL    MW4 2678   6.058   0.555   2.863  0.2731  0.6949  0.4536
  727SOL     OW 2679   5.288   0.800   3.705 -0.4188 -0.1755 -0.0000
  727SOL    HW2 2680   5.356   0.867   3.700 -1.7564  1.2743  0.2734
  727SOL    HW3 2681   5.206   0.849   3.703 -1.4957 -1.8885 -0.9677
  727SOL    MW4 2682   5.286   0.815   3.704 -0.2172  0.0367  0.1240
  728SOL     OW 2683   3.837   1.373   4.226  0.2526  0.2329  0.2389
  728SOL    HW2 2684   3.849   1.333   4.140  0.0122 -0.8587  0.7063
  728SOL    HW3 2685   3.923   1.365   4.268 -0.5619 -2.9073  1.6066
  728SOL    MW4 2686   3.850   1.367   4.220 -0.2099 -0.0939  0.6340
  729SOL     OW 2687   4.834   2.442   4.482  0.3215  0.6615 -0.4356
  729SOL    HW2 2688   4.919   2.475   4.513  1.3082 -0.4451 -1.8361
  729SOL    HW3 2689   4.770   2.486   4.538  1.8691  0.5908  1.5248
  729SOL    MW4 2690   4.837   2.452   4.494 -0.1838 -0.0218  0.3574
  730SOL     OW 2691   3.752   3.925   3.869 -0.6962 -0.2941  0.1429
  730SOL    HW2 2692   3.840   3.922   3.832 -1.5775 -1.6130 -2.0663
  730SOL    HW3 2693   3.713   4.005   3.835 -0.2210  0.5948  1.5904
  730SOL    MW4 2694   3.758   3.935   3.860  0.1908 -0.0668  0.6804
  731SOL     OW 2695   4.321   5.214   1.779  0.2260  0.0576 -0.1881
  731SOL    HW2 2696   4.348   5.176   1.863 -2.9575  0.7058  1.3041
  731SOL    HW3 2697   4.349   5.149   1.714 -0.7352 -2.5807  1.8024
  731SOL    MW4 2698   4.328   5.200   1.782 -0.1093 -0.2283 -0.0190
  732SOL     OW 2699   5.409   5.240   5.127  0.6588 -0.3720 -0.6885
  732SOL    HW2 2700   5.445   5.165   5.080  0.0740 -1.1219  0.0446
  732SOL    HW3 2701   5.428   5.223   5.219 -1.1378 -0.5862 -0.3109
  732SOL    MW4 2702   5.416   5.228   5.133  0.1975 -0.1833 -0.5424
  733SOL     OW 2703   3.618   1.484   1.690 -0.2961 -0.1566 -0.0197
  733SOL    HW2 2704   3.671   1.406   1.706 -0.0841  0.1142  0.6127
  733SOL    HW3 2705   3.624   1.534   1.771 -1.7416 -0.2511  0.1626
  733SOL    MW4 2706   3.626   1.481   1.703 -0.4661  0.7264 -0.2495
  734SOL     OW 2707   6.023   4.042   1.941 -0.2979  0.2556 -0.0268
  734SOL    HW2 2708   5.986   4.122   1.904 -0.5543  0.2276  0.1682
  734SOL    HW3 2709   6.082   4.072   2.010 -1.7218  0.2259  1.2493
  734SOL    MW4 2710   6.026   4.057   1.945  0.2518  0.6269  1.0227
  735SOL     OW 2711   5.561   3.531   6.285 -0.1714  0.4985 -0.0798
  735SOL    HW2 2712   5.481   3.483   6.308  0.6848 -1.4883 -1.0318
  735SOL    HW3 2713   5.573   3.593   6.357 -1.9204  0.0388  0.6589
  735SOL    MW4 2714   5.552   3.533   6.298  0.4793 -0.2200 -0.4880
  736SOL     OW 2715   5.210   0.465   5.424 -0.1832 -0.4778  1.0996
  736SOL    HW2 2716   5.289   0.510   5.453 -0.7876  1.1891  0.3102
  736SOL    HW3 2717   5.138   0.518   5.460 -0.9678 -1.8175  1.5930
  736SOL    MW4 2718   5.211   0.478   5.433  0.3398  0.3958  0.0784
  737SOL     OW 2719   5.045   5.997   5.902  0.1962 -0.1327 -0.3672
  737SOL    HW2 2720   5.027   6.067   5.964 -1.5829 -0.7016 -0.1957
  737SOL    HW3 2721   4.962   5.983   5.856  1.4174  0.2087 -2.8521
  737SOL    MW4 2722   5.032   6.004   5.904  0.3390 -0.8885 -0.4328
  738SOL     OW 2723   2.919   1.962   1.283  0.5011  0.8655  0.2026
  738SOL    HW2 2724   2.988   1.928   1.340 -1.1008 -3.3203 -0.0270
  738SOL    HW3 2725   2.951   1.947   1.194 -0.2338 -0.1590  0.0955
  738SOL    MW4 2726   2.932   1.956   1.279  0.2471  0.0349  0.7220
  739SOL     OW 2727   0.014   4.557   3.977 -0.2646 -0.0378  0.3860
  739SOL    HW2 2728   0.054   4.479   4.017 -1.1148 -0.0770  1.1915
  739SOL    HW3 2729  -0.042   4.593   4.046 -1.7984 -0.1133 -0.7667
  739SOL    MW4 2730   0.012   4.551   3.991  0.2969  0.2187 -0.1899
  740SOL     OW 2731   3.581   3.999   0.681  0.3324 -0.2591  0.7550
  740SOL    HW2 2732   3.608   4.008   0.773  0.1788  0.4569  0.7397
  740SOL    HW3 2733   3.629   4.068   0.635  2.0604 -1.9500 -0.1064
  740SOL    MW4 2734   3.590   4.010   0.687 -0.1849  0.3578  0.1985
  741SOL     OW 2735   3.243   6.077   4.675  0.5872 -0.3192 -0.2814
  741SOL    HW2 2736   3.206   6.022   4.744  1.4489 -0.0293  0.4353
  741SOL    HW3 2737   3.183   6.151   4.669  1.5053  0.6669  1.5924
  741SOL    MW4 2738   3.231   6.080   4.683  0.6271 -0.0488 -0.1595
  742SOL     OW 2739   0.588   3.982   3.192  0.4510  0.7830  0.7938
  742SOL    HW2 2740   0.578   4.023   3.106 -0.7072  0.9684  0.9976
  742SOL    HW3 2741   0.564   4.051   3.254 -0.5431  0.1042  1.1823
  742SOL    MW4 2742   0.584   3.996   3.189 -0.1396  0.4491  0.0297
  743SOL     OW 2743   5.836   3.005   4.405  0.5384 -0.3538 -0.0927
  743SOL    HW2 2744   5.850   3.016   4.311 -1.9030  1.9063 -0.2978
  743SOL    HW3 2745   5.759   2.949   4.412  0.7214 -0.5363  0.5936
  743SOL    MW4 2746   5.828   2.999   4.394  0.8286  0.5183 -0.0103
  744SOL     OW 2747   3.528   6.197   5.587 -0.4860 -0.4383 -0.2367
  744SOL    HW2 2748   3.557   6.204   5.678  1.0931 -0.2225 -0.7310
  744SOL    HW3 2749   3.493   6.284   5.566 -1.6210 -0.7213  0.3842
  744SOL    MW4 2750   3.527   6.209   5.596  0.1541 -0.9346  0.6723
  745SOL     OW 2751   5.407   2.782   0.319 -0.3423 -0.4114 -0.3117
  745SOL    HW2 2752   5.315   2.796   0.340 -0.1193 -1.1495  1.3916
  745SOL    HW3 2753   5.410   2.774   0.224 -1.7628  1.3545 -0.5522
  745SOL    MW4 2754   5.395   2.783   0.309  0.4393  0.1945 -0.3349
  746SOL     OW 2755   5.459   1.471   3.941 -0.0082 -0.0734 -0.1039
  746SOL    HW2 2756   5.487   1.483   4.032 -0.1122  0.0952 -0.0936
  746SOL    HW3 2757   5.403   1.547   3.923 -1.3665 -0.9767  0.2331
  746SOL    MW4 2758   5.455   1.483   3.951 -0.3276 -0.3328 -0.6501
  747SOL     OW 2759   0.017   4.477   1.571  0.0302  0.5588 -0.4625
  747SOL    HW2 2760   0.068   4.409   1.526 -3.1735 -2.9462  0.7110
  747SOL    HW3 2761   0.052   4.477   1.660 -1.1009 -0.9616  0.0174
  747SOL    MW4 2762   0.028   4.468   1.577  0.2717 -0.0298  0.5541
  748SOL     OW 2763   2.093   0.248   4.800  0.1172  0.3493 -0.3961
  748SOL    HW2 2764   2.130   0.305   4.733 -0.9822  0.5944 -0.8138
  748SOL    HW3 2765   2.003   0.279   4.812  0.0692 -0.1440  0.6834
  748SOL    MW4 2766   2.086   0.260   4.793  1.0914  0.0796 -0.4748
  749SOL     OW 2767   1.825   0.060   0.519 -0.0978 -0.0496 -0.3723
  749SOL    HW2 2768   1.909   0.017   0.534  1.7398  2.6455 -2.0381
  749SOL    HW3 2769   1.828   0.138   0.574 -1.5330  0.1004 -0.4656
  749SOL    MW4 2770   1.837   0.064   0.528  0.2641  0.8598  0.1019
  750SOL     OW 2771   4.765   5.048   6.002 -0.5743 -0.2399  0.2808
  750SOL    HW2 2772   4.819   5.074   5.928  1.2145  2.6616  2.3908
  750SOL    HW3 2773   4.780   4.954   6.011  0.3044 -0.3767 -2.0846
  750SOL    MW4 2774   4.774   5.039   5.994 -0.0849  0.5521 -0.3420
  751SOL     OW 2775   4.379   5.623   2.980  0.5370 -0.5661  0.4162
  751SOL    HW2 2776   4.372   5.597   2.888  0.7774 -0.0585  0.2493
  751SOL    HW3 2777   4.291   5.611   3.015 -0.0173  0.9128 -0.3473
  751SOL    MW4 2778   4.367   5.618   2.972  0.2209  0.6762  0.2414
  752SOL     OW 2779   3.006   3.435   4.058 -0.1698 -0.0014 -0.3057
  752SOL    HW2 2780   2.987   3.344   4.082  1.5362 -0.2129  0.4183
  752SOL    HW3 2781   3.101   3.444   4.073  0.1660  1.1908 -2.7493
  752SOL    MW4 2782   3.016   3.424   4.063  0.1307  0.4641  0.2201
  753SOL     OW 2783   6.026   2.556   2.302 -0.0635 -0.2292  0.5605
  753SOL    HW2 2784   5.993   2.606   2.227  0.2288 -0.8643  0.0041
  753SOL    HW3 2785   6.055   2.473   2.265  1.9164  0.1840  1.0620
  753SOL    MW4 2786   6.025   2.552   2.287  0.2365  0.6215 -0.4453
  754SOL     OW 2787   3.004   2.669   5.408  0.1137  0.0892  0.4109
  754SOL    HW2 2788   3.041   2.680   5.320  0.3796  0.2248  0.5392
  754SOL    HW3 2789   2.926   2.725   5.409  0.1031  0.0777  0.2586
  754SOL    MW4 2790   2.999   2.678   5.397  0.6097 -0.0780 -0.2070
  755SOL     OW 2791   2.188   4.014   3.860 -0.0455  0.1443 -0.3371
  755SOL    HW2 2792   2.227   4.059   3.935  0.2273  0.7876 -0.8572
  755SOL    HW3 2793   2.244   3.937   3.847 -0.2315 -0.0954  0.2556
  755SOL    MW4 2794   2.201   4.010   3.868 -0.8321  0.1432  0.1757
  756SOL     OW 2795   5.824   4.093   4.017 -0.0689  0.0511 -0.0332
  756SOL    HW2 2796   5.806   4.070   4.108 -0.3140 -0.0650 -0.1104
  756SOL    HW3 2797   5.886   4.026   3.987  0.5980  0.5179  0.2655
  756SOL    MW4 2798   5.830   4.081   4.025 -0.7345 -0.1537  0.8090
  757SOL     OW 2799   0.445   5.771   3.168 -0.1433 -0.3256  0.6030
  757SOL    HW2 2800   0.429   5.679   3.189  1.3687 -2.2302 -4.8540
  757SOL    HW3 2801   0.362   5.800   3.129 -0.4693  0.6204  1.9175
  757SOL    MW4 2802   0.432   5.762   3.166 -0.2384  0.4708  0.3916
  758SOL     OW 2803   1.255   4.132   0.532 -0.3244 -0.2816  0.2914
  758SOL    HW2 2804   1.310   4.149   0.607  0.2845  0.7107 -0.3658
  758SOL    HW3 2805   1.176   4.184   0.547 -0.3472 -0.3516  0.4101
  758SOL    MW4 2806   1.252   4.141   0.544  0.1593  0.1411  0.0251
  759SOL     OW 2807   1.376   4.553   6.338 -0.0551 -0.3357 -0.7121
  759SOL    HW2 2808   1.383   4.492   6.412  1.9554  1.1856  0.4635
  759SOL    HW3 2809   1.422   4.510   6.267 -2.0027 -1.8148 -1.1809
  759SOL    MW4 2810   1.383   4.539   6.339  0.1363 -0.4800  0.1841
  760SOL     OW 2811   0.109   4.841   3.467  0.5060 -0.0312 -0.2405
  760SOL    HW2 2812   0.106   4.754   3.507  0.5942 -0.7536 -1.7439
  760SOL    HW3 2813   0.017   4.868   3.463  0.5647  0.5152  1.3563
  760SOL    MW4 2814   0.096   4.833   3.472 -0.2844 -0.1285 -0.3138
  761SOL     OW 2815   4.940   5.444   2.086 -0.3988  0.2995  0.0184
  761SOL    HW2 2816   4.886   5.375   2.048  0.1950  0.4906 -1.2113
  761SOL    HW3 2817   5.013   5.398   2.127 -0.7267  0.1259  0.4128
  761SOL    MW4 2818   4.942   5.429   2.087  0.0355  0.4758  0.1950
  762SOL     OW 2819   4.387   1.423   2.899 -0.1581 -0.0710  0.2062
  762SOL    HW2 2820   4.298   1.390   2.912  0.1369 -1.3207 -0.6819
  762SOL    HW3 2821   4.444   1.349   2.921  0.5164 -0.6007 -2.7634
  762SOL    MW4 2822   4.383   1.409   2.903 -0.2453 -0.5010 -0.2330
  763SOL     OW 2823   2.737   5.057   5.007 -0.0003  0.3972  0.3094
  763SOL    HW2 2824   2.710   4.967   4.990 -1.7728  1.3532 -2.6684
  763SOL    HW3 2825   2.722   5.070   5.101  0.0235 -2.2895  0.7374
  763SOL    MW4 2826   2.731   5.047   5.017  0.6723 -0.3479 -0.3311
  764SOL     OW 2827   4.487   4.457   5.908  0.2176 -0.1460  0.1219
  764SOL    HW2 2828   4.459   4.366   5.911  0.3350 -0.1634  0.7416
  764SOL    HW3 2829   4.457   4.495   5.991 -0.0316  0.4394 -0.2242
  764SOL    MW4 2830   4.479   4.450   5.919 -0.2150  0.1159 -0.3656
  765SOL     OW 2831   1.563   1.582   3.501 -0.4921 -0.0834 -0.0142
  765SOL    HW2 2832   1.523   1.663   3.468  1.1490  0.4678 -0.7298
  765SOL    HW3 2833   1.584   1.601   3.592 -0.5666  0.1232 -0.0398
  765SOL    MW4 2834   1.560   1.595   3.509 -0.1110 -0.6673  0.0841
  766SOL     OW 2835   2.429   4.854   3.897 -0.5576  0.0021 -0.2456
  766SOL    HW2 2836   2.464   4.779   3.849 -0.8702 -0.8148  0.7461
  766SOL    HW3 2837   2.335   4.851   3.882 -0.6759 -0.3392  0.4763
  766SOL    MW4 2838   2.421   4.844   3.889 -0.1785 -0.0784 -0.2781
  767SOL     OW 2839   3.240   5.960   3.560  0.0196  0.4418  0.0748
  767SOL    HW2 2840   3.233   5.872   3.599 -0.9190  0.6838  0.4607
  767SOL    HW3 2841   3.333   5.981   3.569  1.0729 -1.9408 -3.2143
  767SOL    MW4 2842   3.252   5.951   3.566  0.1954  0.5172  0.4519
  768SOL     OW 2843   5.459   0.683   3.103  0.2838 -0.2409  0.4416
  768SOL    HW2 2844   5.409   0.663   3.024 -1.7102 -1.2849  1.8804
  768SOL    HW3 2845   5.459   0.779   3.108  0.5896 -0.1524 -0.8765
  768SOL    MW4 2846   5.453   0.693   3.093 -0.0050  0.3405 -0.4706
  769SOL     OW 2847   1.287   3.712   6.090  0.0878 -0.5909 -0.2049
  769SOL    HW2 2848   1.297   3.618   6.102  1.9392 -0.5296 -0.9708
  769SOL    HW3 2849   1.336   3.751   6.162  0.4421 -0.2373 -0.6246
  769SOL    MW4 2850   1.295   3.705   6.101 -0.0919 -0.2819  0.0198
  770SOL     OW 2851   0.091   0.263   1.327 -0.7455 -0.0122  0.1787
  770SOL    HW2 2852   0.041   0.334   1.368 -0.9618 -0.8136  1.3821
  770SOL    HW3 2853   0.048   0.248   1.243 -2.1052 -0.1962  0.8798
  770SOL    MW4 2854   0.079   0.271   1.322  0.0180 -0.1194  0.1081
  771SOL     OW 2855   5.080   1.528   4.127 -0.1730 -0.0156 -0.5877
  771SOL    HW2 2856   5.087   1.606   4.184  3.6632 -0.4272 -0.2199
  771SOL    HW3 2857   5.023   1.469   4.176 -0.4338  1.2886  0.7919
  771SOL    MW4 2858   5.074   1.531   4.141 -0.3464 -0.1405  0.2400
  772SOL     OW 2859   1.538   1.193   0.808  0.3119 -0.5718 -0.0557
  772SOL    HW2 2860   1.555   1.176   0.900 -0.7747 -0.3999  0.1918
  772SOL    HW3 2861   1.582   1.276   0.790 -1.6109  0.7607  1.0156
  772SOL    MW4 2862   1.546   1.202   0.817 -0.0039  0.1780 -0.2463
  773SOL     OW 2863   4.617   2.867   1.567 -0.0985 -0.0519 -0.1442
  773SOL    HW2 2864   4.681   2.816   1.517 -0.4137 -1.1488  0.5206
  773SOL    HW3 2865   4.667   2.935   1.611  0.6040 -0.8649  0.3281
  773SOL    MW4 2866   4.632   2.869   1.566 -0.0520 -0.4836  0.1408
  774SOL     OW 2867   5.328   5.220   1.758  0.2386 -0.5688  0.0431
  774SOL    HW2 2868   5.300   5.308   1.786  1.4770 -0.1281 -0.0507
  774SOL    HW3 2869   5.422   5.229   1.743  0.1676 -1.6234 -1.1185
  774SOL    MW4 2870   5.336   5.233   1.760 -0.2432  0.1048  0.4543
  775SOL     OW 2871   2.095   4.115   4.579 -0.5144 -0.4944  0.1135
  775SOL    HW2 2872   2.129   4.204   4.565 -0.8897 -0.1968  1.0078
  775SOL    HW3 2873   2.137   4.063   4.511  1.6648 -0.1151  1.0483
  775SOL    MW4 2874   2.105   4.120   4.568 -0.7208  0.5773 -0.0802
  776SOL     OW 2875   0.751   3.692   4.077  0.6881 -0.2301  0.7320
  776SOL    HW2 2876   0.722   3.614   4.030  0.2135 -0.1169  0.8267
  776SOL    HW3 2877   0.834   3.715   4.037  1.1532 -1.1562  1.1295
  776SOL    MW4 2878   0.758   3.685   4.066  0.2536 -0.4101  0.2950
  777SOL     OW 2879   4.803   4.706   4.027 -0.3007 -0.2188 -0.5958
  777SOL    HW2 2880   4.871   4.707   3.959 -0.6233 -1.6976 -0.9738
  777SOL    HW3 2881   4.822   4.783   4.081  1.4584 -0.3985 -0.9037
  777SOL    MW4 2882   4.815   4.716   4.025  0.1228 -0.1924 -0.6073
  778SOL     OW 2883   2.142   0.374   6.126 -0.1601 -0.0130 -0.0465
  778SOL    HW2 2884   2.075   0.413   6.072 -0.1007 -1.4259 -1.1906
  778SOL    HW3 2885   2.094   0.318   6.188 -0.0555 -2.8427 -2.3306
  778SOL    MW4 2886   2.127   0.372   6.127  0.1177  0.5582  0.0760
  779SOL     OW 2887   6.232   6.249   2.924  0.3157 -0.1982 -0.1435
  779SOL    HW2 2888   6.269   6.216   3.006  0.0298  1.4703  0.6858
  779SOL    HW3 2889   6.227   6.344   2.936 -2.5508 -0.1627 -0.9031
  779SOL    MW4 2890   6.237   6.257   2.936  0.2072 -0.1069 -0.1217
  780SOL     OW 2891   5.900   0.781   6.398 -0.1512 -0.1721 -0.3638
  780SOL    HW2 2892   5.892   0.771   6.493  0.8278 -3.9897 -0.5277
  780SOL    HW3 2893   5.814   0.814   6.370 -1.0667 -0.7039  1.6637
  780SOL    MW4 2894   5.887   0.784   6.407 -0.1917 -0.4717 -0.1831
  781SOL     OW 2895   4.036   1.518   2.046 -0.4317  0.0229 -0.2163
  781SOL    HW2 2896   4.099   1.501   1.976  0.7293 -1.4324  1.1227
  781SOL    HW3 2897   3.983   1.591   2.013 -0.1314 -0.7777 -2.7326
  781SOL    MW4 2898   4.037   1.525   2.032 -0.1339  1.1624  0.1631
  782SOL     OW 2899   2.529   5.026   0.022  0.0045 -0.6177 -0.1222
  782SOL    HW2 2900   2.591   4.967   0.064 -0.2342 -1.3215 -0.7370
  782SOL    HW3 2901   2.459   4.969  -0.011 -0.0422 -0.0442 -1.0502
  782SOL    MW4 2902   2.528   5.011   0.023  0.5900  0.9574  0.5291
  783SOL     OW 2903   4.145   4.546   4.535 -0.3854  0.1342  0.2126
  783SOL    HW2 2904   4.205   4.587   4.472 -2.0648  1.9160 -0.3266
  783SOL    HW3 2905   4.123   4.616   4.596  1.0326 -1.4999  2.7917
  783SOL    MW4 2906   4.150   4.560   4.535  0.0861  0.2451 -0.2357
  784SOL     OW 2907   6.016   4.318   1.058 -0.3812  0.6493  0.3775
  784SOL    HW2 2908   6.094   4.309   1.003  0.5368  0.3813  1.6808
  784SOL    HW3 2909   6.007   4.232   1.100 -3.2972 -0.4419 -2.1361
  784SOL    MW4 2910   6.025   4.305   1.056 -0.3326 -0.3561 -0.3104
  785SOL     OW 2911   3.230   3.483   2.306 -0.0477  0.4041 -0.0732
  785SOL    HW2 2912   3.299   3.541   2.272 -0.6911  1.1503 -0.1406
  785SOL    HW3 2913   3.177   3.540   2.362 -0.2640 -0.3060  0.4618
  785SOL    MW4 2914   3.232   3.498   2.309 -0.2050 -0.2170 -0.4392
  786SOL     OW 2915   1.712   3.051   5.505 -0.0590 -0.5157  0.1827
  786SOL    HW2 2916   1.796   3.086   5.534  0.3303 -0.8548 -0.5046
  786SOL    HW3 2917   1.718   2.957   5.522  0.4259 -0.8350 -1.4695
  786SOL    MW4 2918   1.724   3.043   5.511  0.0863 -0.3686 -0.0763
  787SOL     OW 2919   2.774   0.542   0.913  0.1683 -0.3542 -0.7449
  787SOL    HW2 2920   2.733   0.555   0.828  0.2754  1.8488 -0.5236
  787SOL    HW3 2921   2.754   0.622   0.962  1.0946 -1.0678  0.8847
  787SOL    MW4 2922   2.766   0.554   0.908 -0.5862 -0.0868 -0.4780
  788SOL     OW 2923   5.142   0.033   2.777  0.5261  0.0348  0.1102
  788SOL    HW2 2924   5.101  -0.042   2.819  0.9094  0.2821  0.9471
  788SOL    HW3 2925   5.113   0.108   2.829  0.2963  0.4515 -0.6014
  788SOL    MW4 2926   5.133   0.033   2.789 -0.1488 -0.5527  0.2025
  789SOL     OW 2927   3.221   1.490   1.190  0.0980  0.0589  0.0950
  789SOL    HW2 2928   3.202   1.535   1.272  0.9085  2.7512 -1.1036
  789SOL    HW3 2929   3.298   1.436   1.210  1.0031  1.5567  0.8709
  789SOL    MW4 2930   3.229   1.489   1.203  0.1807 -0.6347  0.8243
  790SOL     OW 2931   0.065   4.419   3.376  0.2330 -0.4582  0.3395
  790SOL    HW2 2932   0.026   4.342   3.416 -1.6770  0.0203 -0.4695
  790SOL    HW3 2933  -0.008   4.461   3.330  1.7566  0.4365 -1.3742
  790SOL    MW4 2934   0.050   4.415   3.375 -0.4043  0.4227 -0.1936
  791SOL     OW 2935   5.298   5.104   5.941  0.0425 -0.9883  0.4100
  791SOL    HW2 2936   5.369   5.057   5.984 -0.9362 -0.7805  2.3266
  791SOL    HW3 2937   5.218   5.070   5.981 -0.7617  1.3289  0.9309
  791SOL    MW4 2938   5.297   5.093   5.952 -0.0755  0.5231  0.0442
  792SOL     OW 2939   4.346   6.220   5.531  0.1269  0.2513  0.1731
  792SOL    HW2 2940   4.424   6.169   5.552 -0.2744 -0.8241 -0.8140
  792SOL    HW3 2941   4.350   6.295   5.590  1.6410 -0.0300  0.4792
  792SOL    MW4 2942   4.357   6.223   5.542 -0.3990  0.1398 -0.1209
  793SOL     OW 2943   5.431   3.030   1.064 -0.5626  0.3433  0.5776
  793SOL    HW2 2944   5.462   3.077   0.987 -2.0178  0.6836  0.1728
  793SOL    HW3 2945   5.411   2.942   1.032  0.4416 -0.0407  0.9517
  793SOL    MW4 2946   5.432   3.024   1.050 -0.0034 -0.5492 -0.4523
  794SOL     OW 2947   1.192   2.717   3.428  0.4444 -0.4435 -0.0340
  794SOL    HW2 2948   1.163   2.626   3.425  0.9899 -0.6576  0.9730
  794SOL    HW3 2949   1.250   2.726   3.352  0.2768 -0.8935 -0.2189
  794SOL    MW4 2950   1.196   2.707   3.417 -0.1057  0.2764  0.0539
  795SOL     OW 2951   1.585   5.145   0.438  0.0917  0.0489  0.5784
  795SOL    HW2 2952   1.508   5.135   0.494 -0.9108 -1.6618 -1.0320
  795SOL    HW3 2953   1.589   5.239   0.419 -0.4962  0.4251  2.1228
  795SOL    MW4 2954   1.576   5.156   0.443  0.0062 -0.5897  0.1953
  796SOL     OW 2955   0.783   3.825   6.255 -0.0704  0.0995  0.5409
  796SOL    HW2 2956   0.833   3.750   6.224 -0.6054 -0.5960  1.3261
  796SOL    HW3 2957   0.823   3.900   6.211 -0.8371 -0.8126 -1.9137
  796SOL    MW4 2958   0.795   3.825   6.245  0.4373 -0.2585  0.4489
  797SOL     OW 2959   0.357   4.868   2.889 -0.0000 -0.4767  0.3282
  797SOL    HW2 2960   0.362   4.956   2.925  0.3278 -0.4440  0.2042
  797SOL    HW3 2961   0.263   4.850   2.882 -0.0701 -0.0210  0.0720
  797SOL    MW4 2962   0.345   4.877   2.893  0.3369  0.0001 -0.0965
  798SOL     OW 2963   5.132   1.544   1.401 -0.3286  0.4470 -0.3354
  798SOL    HW2 2964   5.195   1.540   1.330  1.0574  0.2327  0.8576
  798SOL    HW3 2965   5.097   1.633   1.398  1.7095  1.3285  0.3318
  798SOL    MW4 2966   5.136   1.555   1.392  0.0674 -0.1442  0.1738
  799SOL     OW 2967   4.584   6.437   2.486 -0.0730 -0.0831 -0.0480
  799SOL    HW2 2968   4.550   6.351   2.460 -0.1986 -0.5809  1.6946
  799SOL    HW3 2969   4.519   6.471   2.547  1.3337  0.0074  1.4715
  799SOL    MW4 2970   4.571   6.430   2.490  0.8189 -0.3155  0.0168
  800SOL     OW 2971   1.974   2.747   3.514  0.3703  0.5037 -0.1697
  800SOL    HW2 2972   2.025   2.666   3.510  2.3662  1.6537  0.3941
  800SOL    HW3 2973   1.886   2.722   3.485  0.4570 -2.2086  1.5279
  800SOL    MW4 2974   1.969   2.733   3.510 -0.4126  0.2579  0.0065
  801SOL     OW 2975   5.886   4.253   1.771 -0.3743 -0.2931 -0.0037
  801SOL    HW2 2976   5.808   4.217   1.812 -1.1039  0.4708 -0.6770
  801SOL    HW3 2977   5.883   4.220   1.681  0.1599 -0.3792  0.0084
  801SOL    MW4 2978   5.875   4.244   1.765 -0.2941  0.5791 -0.3622
  802SOL     OW 2979   5.037   3.481   3.508  0.7532  0.6675  0.2475
  802SOL    HW2 2980   4.953   3.515   3.477 -0.0182 -0.4544  1.0027
  802SOL    HW3 2981   5.033   3.387   3.489  1.4358  0.4417  1.1435
  802SOL    MW4 2982   5.025   3.473   3.502  0.5536 -0.3479 -0.3444
  803SOL     OW 2983   2.903   0.236   2.041 -0.9259  0.1119  0.1737
  803SOL    HW2 2984   2.947   0.321   2.036 -1.4749  0.3287 -1.0773
  803SOL    HW3 2985   2.921   0.194   1.957 -1.6084 -0.5517  0.3481
  803SOL    MW4 2986   2.911   0.241   2.030  0.2298 -0.1091  0.1617
  804SOL     OW 2987   5.098   6.145   5.587  0.4862  0.1378  0.1870
  804SOL    HW2 2988   5.127   6.168   5.675 -1.5758 -0.6888  1.1426
  804SOL    HW3 2989   5.158   6.075   5.560  0.6532 -0.1486  1.2528
  804SOL    MW4 2990   5.110   6.139   5.595 -0.4722 -0.3495  0.0518
  805SOL     OW 2991   3.703   0.748   5.121  0.7374 -0.7205  0.4980
  805SOL    HW2 2992   3.612   0.749   5.092  1.0992 -0.3102 -0.6775
  805SOL    HW3 2993   3.740   0.828   5.085  1.2877 -0.3131  1.9241
  805SOL    MW4 2994   3.696   0.759   5.112 -0.2573 -0.0054 -0.0119
  806SOL     OW 2995   5.792   1.214   3.329  0.2923 -0.1186 -0.2608
  806SOL    HW2 2996   5.863   1.176   3.278 -0.5095 -1.1534 -0.6571
  806SOL    HW3 2997   5.747   1.139   3.368  0.1317  0.5793  0.9685
  806SOL    MW4 2998   5.795   1.199   3.328  0.1381  0.2633 -0.4825
  807SOL     OW 2999   5.973   4.686   3.061  0.1067 -0.0273 -0.0049
  807SOL    HW2 3000   6.005   4.597   3.073  0.2874 -0.2015 -1.6062
  807SOL    HW3 3001   6.035   4.740   3.111 -0.3695 -0.8286  1.4965
  807SOL    MW4 3002   5.986   4.682   3.069 -0.1517 -0.0144  0.5336
  808SOL     OW 3003   0.651   5.979   0.451 -0.8931  0.0777 -0.2412
  808SOL    HW2 3004   0.680   6.025   0.373  1.0020 -0.9309 -0.1696
  808SOL    HW3 3005   0.661   5.886   0.430  0.0850 -0.2147  1.3209
  808SOL    MW4 3006   0.656   5.973   0.438 -0.2568  0.1852 -0.4727
  809SOL     OW 3007   1.819   1.748   3.904  0.3200  0.1453 -0.2509
  809SOL    HW2 3008   1.809   1.763   3.998  0.5268  1.6146 -0.4410
  809SOL    HW3 3009   1.910   1.720   3.894 -0.2144 -1.9048  0.1707
  809SOL    MW4 3010   1.830   1.746   3.916  0.3532 -0.1371  0.2414
  810SOL     OW 3011   2.815   4.351   3.026  0.0525  0.8841 -0.8665
  810SOL    HW2 3012   2.901   4.317   3.049 -0.9500 -0.2617  1.5593
  810SOL    HW3 3013   2.773   4.368   3.111 -2.4193  0.5781 -1.9525
  810SOL    MW4 3014   2.821   4.349   3.040  0.2917 -0.0954 -0.7031
  811SOL     OW 3015   1.711   4.142   4.200  0.3342 -0.1115  0.8879
  811SOL    HW2 3016   1.773   4.189   4.145 -0.5323  0.0852  0.0602
  811SOL    HW3 3017   1.740   4.161   4.290  0.6820  1.0572  0.5474
  811SOL    MW4 3018   1.723   4.151   4.205  0.2059  0.1117  0.9067
  812SOL     OW 3019   5.563   6.030   3.308 -0.1476 -0.4414 -0.1530
  812SOL    HW2 3020   5.590   5.942   3.280 -1.0812  0.1631 -3.4659
  812SOL    HW3 3021   5.645   6.076   3.325  0.3416 -2.1666  2.7569
  812SOL    MW4 3022   5.577   6.024   3.307  0.0385 -0.0890 -0.0020
  813SOL     OW 3023   4.231   3.935   5.460 -0.3479 -0.2799 -0.1115
  813SOL    HW2 3024   4.274   3.906   5.379 -1.0622 -1.1282 -0.1975
  813SOL    HW3 3025   4.139   3.947   5.436 -0.2263  1.3835  0.1130
  813SOL    MW4 3026   4.225   3.933   5.446 -0.0728  0.3904  0.5288
  814SOL     OW 3027   5.879   5.976   0.026 -0.3629  0.1258 -0.3609
  814SOL    HW2 3028   5.809   5.933  -0.024 -0.9194  0.6975 -0.0953
  814SOL    HW3 3029   5.900   6.054  -0.025  1.7824 -1.2169 -1.6997
  814SOL    MW4 3030   5.872   5.981   0.012 -0.3137  0.4137 -0.0407
  815SOL     OW 3031   3.573   3.336   1.712  0.0853 -0.2356 -0.0278
  815SOL    HW2 3032   3.553   3.430   1.713  0.6329 -0.1256  0.3509
  815SOL    HW3 3033   3.665   3.330   1.736 -0.2865 -0.9621  1.2914
  815SOL    MW4 3034   3.582   3.348   1.715 -0.4720 -0.5600  0.5473
  816SOL     OW 3035   4.029   1.185   4.556 -0.0574  0.3204  0.1294
  816SOL    HW2 3036   4.058   1.251   4.492  0.7562  0.3436  0.5077
  816SOL    HW3 3037   4.072   1.211   4.638  2.1007 -1.9014 -0.1908
  816SOL    MW4 3038   4.039   1.197   4.558 -0.0039 -0.0652  0.0439
  817SOL     OW 3039   2.280   1.784   5.326 -0.3956  0.0444  0.4076
  817SOL    HW2 3040   2.202   1.737   5.356  0.0460 -0.2687  1.0685
  817SOL    HW3 3041   2.353   1.738   5.367  0.0597  1.1810  0.9047
  817SOL    MW4 3042   2.279   1.771   5.335 -0.0686 -1.5752  0.4283
  818SOL     OW 3043   4.920   2.983   2.385  0.1519  0.1736  0.6519
  818SOL    HW2 3044   4.862   2.972   2.310 -0.6911  1.4214  1.0751
  818SOL    HW3 3045   4.864   3.024   2.452  1.5501  1.5639  1.0237
  818SOL    MW4 3046   4.905   2.987   2.384 -0.2108  0.2437  0.3563
  819SOL     OW 3047   4.032   3.922   3.680  0.1037  0.7576 -0.3986
  819SOL    HW2 3048   4.076   3.886   3.757 -0.5763 -0.3622 -0.5060
  819SOL    HW3 3049   4.014   4.013   3.703 -0.7944  0.2290  1.1025
  819SOL    MW4 3050   4.035   3.930   3.693  0.4699 -0.3227 -0.3903
  820SOL     OW 3051   3.227   3.161   0.646  0.3643 -0.3431  0.0379
  820SOL    HW2 3052   3.134   3.185   0.649  0.5700  0.9175 -1.9138
  820SOL    HW3 3053   3.242   3.139   0.554  2.2890  0.6847  0.0680
  820SOL    MW4 3054   3.217   3.161   0.634  0.5154  0.0829 -0.2522
  821SOL     OW 3055   3.953   1.970   1.349 -0.5136  0.2040  0.3847
  821SOL    HW2 3056   4.040   1.933   1.332 -1.0815 -0.4787 -1.2980
  821SOL    HW3 3057   3.916   1.983   1.262 -1.4662  2.1057  1.0234
  821SOL    MW4 3058   3.960   1.967   1.335 -0.1896  0.4167  0.0664
  822SOL     OW 3059   2.994   4.746   5.042  1.4536 -0.5534  0.0156
  822SOL    HW2 3060   2.998   4.675   5.106 -0.1465 -0.9147 -0.2473
  822SOL    HW3 3061   2.903   4.774   5.043  1.0650 -1.4476 -3.0347
  822SOL    MW4 3062   2.983   4.741   5.051  0.0704 -0.1036 -0.2777
  823SOL     OW 3063   2.475   3.032   0.593 -0.6721  0.0724 -0.5526
  823SOL    HW2 3064   2.522   3.022   0.676 -0.5775 -0.8447 -0.7035
  823SOL    HW3 3065   2.541   3.015   0.526 -0.9370 -0.0103 -0.7946
  823SOL    MW4 3066   2.490   3.029   0.595  0.7257 -0.0711 -0.1287
  824SOL     OW 3067   2.990   5.136   2.695 -0.1240  0.4760  0.0416
  824SOL    HW2 3068   3.024   5.166   2.779  0.4561  1.2596 -0.4668
  824SOL    HW3 3069   2.910   5.187   2.681 -0.2949  0.2462  0.1854
  824SOL    MW4 3070   2.984   5.147   2.704 -0.4981 -0.1462 -0.0265
  825SOL     OW 3071   1.649   0.417   1.127 -0.4119 -0.1831 -0.3149
  825SOL    HW2 3072   1.729   0.382   1.168 -0.5825 -0.3943 -0.1591
  825SOL    HW3 3073   1.578   0.372   1.172 -0.8208  2.6689  2.2130
  825SOL    MW4 3074   1.650   0.406   1.138 -0.0594  0.3218 -0.8341
  826SOL     OW 3075   2.062   3.386   3.510 -0.0106  0.0140  0.1513
  826SOL    HW2 3076   2.012   3.433   3.443 -2.4882 -0.9504  1.2098
  826SOL    HW3 3077   2.146   3.366   3.468 -0.6696  1.2755 -1.9049
  826SOL    MW4 3078   2.067   3.390   3.496  0.2061  0.9212 -0.1866
  827SOL     OW 3079   0.048   2.575   5.483 -1.0037  0.3724 -0.0549
  827SOL    HW2 3080   0.057   2.507   5.416 -0.2084  1.6778 -1.3329
  827SOL    HW3 3081   0.043   2.657   5.434 -1.8354  1.2650  1.4415
  827SOL    MW4 3082   0.049   2.577   5.468  0.4528  0.6029  0.1654
  828SOL     OW 3083   5.148   6.239   5.144 -0.2583  0.3399  0.2291
  828SOL    HW2 3084   5.092   6.317   5.147 -0.1712  0.3890  0.8892
  828SOL    HW3 3085   5.150   6.209   5.235  1.8487  1.1094  0.4785
  828SOL    MW4 3086   5.141   6.245   5.157  0.2852 -0.5179  1.2026
  829SOL     OW 3087   2.083   6.006   5.349 -0.2992 -0.7515  0.6115
  829SOL    HW2 3088   2.159   6.062   5.330 -1.3872  0.4856 -0.2473
  829SOL    HW3 3089   2.122   5.925   5.383  1.4101 -0.1715  0.1799
  829SOL    MW4 3090   2.098   6.003   5.351 -0.6652  0.1773 -0.3950
  830SOL     OW 3091   2.555   3.804   4.169  0.3044 -0.9748 -0.0788
  830SOL    HW2 3092   2.493   3.743   4.129 -0.2686 -0.6989  0.3744
  830SOL    HW3 3093   2.543   3.793   4.263  0.5940 -0.5629  0.0085
  830SOL    MW4 3094   2.545   3.794   4.176  0.1322 -0.1938  0.3294
  831SOL     OW 3095   3.081   4.821   1.674 -0.2513  0.8487  0.1405
  831SOL    HW2 3096   3.085   4.903   1.722 -0.0782 -0.4165  2.4286
  831SOL    HW3 3097   3.014   4.769   1.719  0.8544 -0.8998 -0.1130
  831SOL    MW4 3098   3.073   4.825   1.686 -0.6381  0.0108 -0.2012
  832SOL     OW 3099   5.009   6.063   6.208 -0.6150 -0.2408  0.3294
  832SOL    HW2 3100   4.978   6.150   6.185 -1.4240 -0.3430  1.0041
  832SOL    HW3 3101   5.100   6.076   6.235 -0.5883  0.3186 -0.0315
  832SOL    MW4 3102   5.017   6.076   6.209 -0.3847  0.3880 -0.2848
  833SOL     OW 3103   0.564   1.033   4.161  0.1395  0.4578  0.4099
  833SOL    HW2 3104   0.484   0.985   4.179  0.1530  0.3061  0.0565
  833SOL    HW3 3105   0.617   0.974   4.109  0.7260  0.3324  1.1278
  833SOL    MW4 3106   0.561   1.019   4.157 -0.6223 -0.3719  0.4829
  834SOL     OW 3107   4.279   2.816   1.995  0.4774  0.2161 -0.0273
  834SOL    HW2 3108   4.302   2.739   2.046  0.9783 -0.4803 -1.2622
  834SOL    HW3 3109   4.362   2.854   1.967  0.2429 -0.4726 -1.8227
  834SOL    MW4 3110   4.293   2.811   1.998  0.1380  0.2356 -0.2458
  835SOL     OW 3111   1.801   3.425   1.680 -0.6220 -0.3344 -0.2132
  835SOL    HW2 3112   1.849   3.506   1.697  2.8814 -2.4213  0.8500
  835SOL    HW3 3113   1.752   3.409   1.760 -1.1022  0.5547 -0.3152
  835SOL    MW4 3114   1.801   3.433   1.693 -0.3131 -0.6187 -0.1940
  836SOL     OW 3115   0.190   3.284   3.753 -0.2502  0.6872 -0.0622
  836SOL    HW2 3116   0.102   3.254   3.731  0.0945  0.1894 -0.8370
  836SOL    HW3 3117   0.242   3.203   3.757 -0.2178  0.7732  2.3702
  836SOL    MW4 3118   0.185   3.269   3.750 -0.6454  0.7487  0.0973
  837SOL     OW 3119   4.392   5.270   2.569  0.6662  0.4388 -0.1957
  837SOL    HW2 3120   4.468   5.251   2.623  2.0162  0.1963 -2.0695
  837SOL    HW3 3121   4.323   5.292   2.631  2.5575  1.7933  1.5562
  837SOL    MW4 3122   4.393   5.271   2.584 -0.0946  0.3173  0.0543
  838SOL     OW 3123   5.779   6.300   4.677  0.4306  0.5451 -0.5920
  838SOL    HW2 3124   5.707   6.311   4.615 -0.2289  0.3609  0.1279
  838SOL    HW3 3125   5.768   6.372   4.740 -2.6608 -2.5111  2.9207
  838SOL    MW4 3126   5.768   6.311   4.677  0.3941 -0.8384 -0.2462
  839SOL     OW 3127   0.867   0.955   0.615 -0.2533  0.2897 -0.2448
  839SOL    HW2 3128   0.851   0.883   0.554 -0.7999  0.4575 -0.3058
  839SOL    HW3 3129   0.960   0.976   0.604 -0.7552  1.6761 -2.5217
  839SOL    MW4 3130   0.877   0.949   0.606 -0.4257  0.4560  0.3887
  840SOL     OW 3131   4.904   2.010   2.023 -0.1004 -0.1962  0.2966
  840SOL    HW2 3132   4.820   2.020   1.979  0.2942 -0.1704 -0.4659
  840SOL    HW3 3133   4.949   2.093   2.009 -0.0714 -0.0892  0.9814
  840SOL    MW4 3134   4.899   2.022   2.015 -0.5616  0.2083 -0.4011
  841SOL     OW 3135   4.199   1.898   1.164 -0.5183  0.4466  0.2087
  841SOL    HW2 3136   4.176   1.807   1.144 -0.3868  0.2314  1.0306
  841SOL    HW3 3137   4.246   1.929   1.086 -1.4659  0.1402 -0.5061
  841SOL    MW4 3138   4.202   1.890   1.151 -0.0742  0.1533 -0.1343
  842SOL     OW 3139   0.377   6.023   0.469 -0.1663  0.3741  0.2980
  842SOL    HW2 3140   0.396   6.029   0.376 -0.7363 -0.1757  0.1375
  842SOL    HW3 3141   0.458   5.990   0.508  0.7121  2.3265  0.2756
  842SOL    MW4 3142   0.390   6.020   0.462 -0.2224  0.0221  0.4637
  843SOL     OW 3143   3.240   5.323   3.425  0.3093  0.1745  0.1082
  843SOL    HW2 3144   3.305   5.265   3.387  1.5295  1.9038 -0.5622
  843SOL    HW3 3145   3.180   5.265   3.472  2.9162 -1.3947  1.6828
  843SOL    MW4 3146   3.240   5.308   3.426  0.4613  0.4848 -0.2415
  844SOL     OW 3147   0.325   2.231   0.774 -0.3969  0.7840  0.2407
  844SOL    HW2 3148   0.419   2.246   0.763 -0.4750 -0.2650 -2.3859
  844SOL    HW3 3149   0.314   2.137   0.763 -1.4819  0.4187  3.4028
  844SOL    MW4 3150   0.336   2.221   0.771  0.0714  0.6225  0.1304
  845SOL     OW 3151   3.260   0.110   0.993 -0.3785 -0.7155 -0.1063
  845SOL    HW2 3152   3.209   0.191   0.987 -2.1934 -1.8730 -1.3072
  845SOL    HW3 3153   3.325   0.119   0.923 -0.4694 -0.2284 -0.1376
  845SOL    MW4 3154   3.262   0.122   0.983  0.4960 -0.0851  0.0037
  846SOL     OW 3155   3.742   4.369   0.794  1.0020  0.7457  0.0966
  846SOL    HW2 3156   3.688   4.445   0.816  0.2962 -0.0042  1.0166
  846SOL    HW3 3157   3.824   4.407   0.762  0.8180  1.8992  0.9374
  846SOL    MW4 3158   3.746   4.384   0.793  0.1792 -0.3029 -0.2652
  847SOL     OW 3159   0.691   4.474   0.737 -0.2993  0.3121 -0.2179
  847SOL    HW2 3160   0.624   4.406   0.726  0.2277 -0.1218 -0.8430
  847SOL    HW3 3161   0.663   4.545   0.680 -0.5245  0.3662 -0.0410
  847SOL    MW4 3162   0.678   4.474   0.728  0.3536 -0.3449  0.6749
  848SOL     OW 3163   5.155   5.931   4.757  0.0185 -0.2360  0.0859
  848SOL    HW2 3164   5.187   6.003   4.812  0.3378 -0.7725  0.6102
  848SOL    HW3 3165   5.232   5.875   4.743 -0.9146 -2.3358  2.5686
  848SOL    MW4 3166   5.169   5.933   4.763  0.3541  0.1290  0.0765
  849SOL     OW 3167   4.799   0.840   5.484  0.2677 -0.2163  0.5584
  849SOL    HW2 3168   4.755   0.769   5.437 -0.1366  1.6080 -2.0474
  849SOL    HW3 3169   4.892   0.825   5.468  0.1710 -0.0511 -0.1866
  849SOL    MW4 3170   4.806   0.829   5.476  0.6994 -0.7138  0.3906
  850SOL     OW 3171   1.894   6.197   4.735 -0.0885 -0.1718  0.1180
  850SOL    HW2 3172   1.895   6.213   4.829  1.1426 -0.1726  0.1221
  850SOL    HW3 3173   1.912   6.283   4.696 -2.6548  0.2782 -0.2252
  850SOL    MW4 3174   1.897   6.211   4.742  0.5659  0.4240  0.2277
  851SOL     OW 3175   3.934   0.046   0.736  0.1029  0.4185 -0.4473
  851SOL    HW2 3176   3.908   0.106   0.665 -0.2004 -0.0059 -0.7009
  851SOL    HW3 3177   3.872  -0.026   0.729  0.9591 -0.3128 -0.6449
  851SOL    MW4 3178   3.922   0.045   0.726 -0.3954 -0.3708 -0.1513
  852SOL     OW 3179   0.745   1.720   0.226  0.1115  0.2342  0.2436
  852SOL    HW2 3180   0.683   1.755   0.290 -0.9972  0.4226 -0.9017
  852SOL    HW3 3181   0.814   1.786   0.221 -0.0932  0.4980  0.8253
  852SOL    MW4 3182   0.746   1.733   0.234  0.0821 -0.3020 -0.3222
  853SOL     OW 3183   5.370   0.155   3.842  0.3233  0.8346 -0.1975
  853SOL    HW2 3184   5.357   0.113   3.757 -2.6652  0.0638  0.5262
  853SOL    HW3 3185   5.300   0.221   3.847 -0.9574 -0.5786  2.4495
  853SOL    MW4 3186   5.359   0.158   3.831 -0.0807 -0.3359  0.3584
  854SOL     OW 3187   0.580   1.398   3.787 -0.2907 -0.2590  0.8497
  854SOL    HW2 3188   0.552   1.325   3.842 -0.7875  0.6363  1.8239
  854SOL    HW3 3189   0.609   1.464   3.849  0.6573  0.1761 -0.0371
  854SOL    MW4 3190   0.580   1.397   3.802 -0.4918 -0.0337 -0.4007
  855SOL     OW 3191   6.034   0.075   2.179  0.2059 -0.5835 -0.1112
  855SOL    HW2 3192   6.073   0.088   2.265 -1.2521  0.6601  0.4094
  855SOL    HW3 3193   5.993  -0.011   2.184 -2.2221  0.5394  1.4862
  855SOL    MW4 3194   6.034   0.066   2.191 -0.1411 -0.4180 -0.8992
  856SOL     OW 3195   2.458   4.068   4.203  0.0632 -0.0947 -0.4781
  856SOL    HW2 3196   2.531   4.123   4.173 -0.1921 -0.2990 -1.4830
  856SOL    HW3 3197   2.487   3.978   4.187 -1.1559 -0.1431 -2.7178
  856SOL    MW4 3198   2.472   4.063   4.197  0.4107  0.1216  0.4306
  857SOL     OW 3199   2.509   2.179   5.775 -0.2057  0.7441  1.0188
  857SOL    HW2 3200   2.443   2.135   5.721 -0.3838 -0.3393  2.0867
  857SOL    HW3 3201   2.531   2.258   5.726 -0.8560  0.1304 -0.3089
  857SOL    MW4 3202   2.504   2.184   5.761  0.7751  0.3761  0.8823
  858SOL     OW 3203   3.695   0.786   6.133 -0.1327  0.1295  0.0907
  858SOL    HW2 3204   3.640   0.843   6.186 -1.4712 -0.1314 -0.9558
  858SOL    HW3 3205   3.773   0.838   6.114 -0.4546  0.8848  0.7869
  858SOL    MW4 3206   3.698   0.800   6.137  0.5511 -0.7561  0.5059
  859SOL     OW 3207   1.747   5.280   0.099  0.5121 -0.4531 -0.4500
  859SOL    HW2 3208   1.780   5.207   0.046 -1.1162  0.4231 -2.8689
  859SOL    HW3 3209   1.788   5.358   0.060 -0.8905  0.2321 -0.6160
  859SOL    MW4 3210   1.757   5.281   0.087  0.4883 -0.3732 -0.2615
  860SOL     OW 3211   0.972   2.967   6.014 -0.6005 -0.2978  0.1373
  860SOL    HW2 3212   0.976   3.035   5.948 -1.6509 -0.2612  0.0904
  860SOL    HW3 3213   0.880   2.941   6.016 -0.1182 -2.1983 -0.3470
  860SOL    MW4 3214   0.960   2.972   6.006 -0.6051 -0.4393 -0.0198
  861SOL     OW 3215   3.281   6.020   3.295 -0.2329  0.7926 -0.1078
  861SOL    HW2 3216   3.222   5.994   3.365  0.4106 -1.3082 -0.2891
  861SOL    HW3 3217   3.245   5.980   3.216  0.2363  1.3255 -0.6040
  861SOL    MW4 3218   3.269   6.011   3.294 -0.2517 -0.2766 -0.1052
  862SOL     OW 3219   5.506   6.030   4.573 -0.2972  0.2906 -0.4079
  862SOL    HW2 3220   5.468   5.951   4.612  0.8430  0.0586  0.2861
  862SOL    HW3 3221   5.577   5.998   4.517 -0.2394  0.7921 -0.6312
  862SOL    MW4 3222   5.510   6.016   4.571 -0.2711  0.3319 -0.0943
  863SOL     OW 3223   5.304   4.146   3.235 -0.1979 -0.0474  0.5973
  863SOL    HW2 3224   5.355   4.116   3.160  1.5781 -0.1421  1.7904
  863SOL    HW3 3225   5.277   4.235   3.211 -1.9524 -0.9613 -1.2069
  863SOL    MW4 3226   5.307   4.154   3.222  0.4712 -0.0847 -0.1753
  864SOL     OW 3227   0.823   1.049   0.139  0.0629 -0.2988 -0.3392
  864SOL    HW2 3228   0.737   1.020   0.168  0.2921 -1.7568 -1.0084
  864SOL    HW3 3229   0.832   1.138   0.173 -0.8196 -0.9034  1.6015
  864SOL    MW4 3230   0.813   1.057   0.148  0.0005  0.2684  0.4883
  865SOL     OW 3231   2.814   4.350   2.604 -0.2058  0.0651 -0.1990
  865SOL    HW2 3232   2.868   4.400   2.664 -0.8092  2.0228 -1.1719
  865SOL    HW3 3233   2.859   4.266   2.593 -0.0932 -0.3804  2.9176
  865SOL    MW4 3234   2.827   4.346   2.610 -0.2691 -0.8681  0.1778
  866SOL     OW 3235   0.106   5.215   4.198 -0.0525  0.1924 -0.4381
  866SOL    HW2 3236   0.087   5.201   4.105 -0.1321  0.2583 -0.4323
  866SOL    HW3 3237   0.035   5.273   4.228 -0.4515 -0.4344 -0.1571
  866SOL    MW4 3238   0.094   5.221   4.189 -0.6002  0.7124  0.0338
  867SOL     OW 3239   5.526   2.516   5.838  0.2912 -0.2320 -0.4409
  867SOL    HW2 3240   5.605   2.558   5.873 -0.8608  2.0636 -0.4220
  867SOL    HW3 3241   5.526   2.539   5.745 -1.0478  1.0169 -0.1599
  867SOL    MW4 3242   5.537   2.524   5.831  0.7487  0.4799 -0.1690
  868SOL     OW 3243   3.190   4.355   2.845 -0.7966 -0.6785  0.0178
  868SOL    HW2 3244   3.198   4.450   2.850 -0.6706 -0.5930 -1.4411
  868SOL    HW3 3245   3.165   4.329   2.934  2.0807  0.3947  1.2580
  868SOL    MW4 3246   3.187   4.364   2.858 -0.6626 -0.2349  0.2025
  869SOL     OW 3247   3.709   3.452   6.003  0.0850  0.3844  0.6658
  869SOL    HW2 3248   3.621   3.432   5.972  0.2636 -0.2934  0.5880
  869SOL    HW3 3249   3.695   3.493   6.089 -0.3633  1.5075  0.0711
  869SOL    MW4 3250   3.696   3.455   6.011 -0.1224 -0.1219 -0.7085
  870SOL     OW 3251   4.371   5.579   0.173  0.3837  0.0600 -0.1843
  870SOL    HW2 3252   4.428   5.537   0.237  1.0562 -0.3286 -1.0224
  870SOL    HW3 3253   4.282   5.554   0.200  0.6518 -0.0644  0.6114
  870SOL    MW4 3254   4.367   5.570   0.185 -0.0525  0.0657  0.2838
  871SOL     OW 3255   6.026   1.346   3.048  0.1360 -0.1962 -0.4538
  871SOL    HW2 3256   6.072   1.328   3.130 -1.4653 -1.3267  0.2376
  871SOL    HW3 3257   6.000   1.259   3.016 -1.4744  0.3871 -0.8204
  871SOL    MW4 3258   6.029   1.332   3.054 -0.3474 -0.2864  0.2088
  872SOL     OW 3259   5.738   4.243   6.093  0.7164 -0.3749  0.0120
  872SOL    HW2 3260   5.685   4.163   6.088 -0.4595  0.0826  3.0840
  872SOL    HW3 3261   5.677   4.313   6.069  1.4805 -0.2342 -1.6892
  872SOL    MW4 3262   5.723   4.241   6.089 -0.0494  0.4682  0.3503
  873SOL     OW 3263   3.103   1.580   1.722 -0.1200 -0.4127 -0.1471
  873SOL    HW2 3264   3.079   1.489   1.737  0.1591 -0.7212 -1.4444
  873SOL    HW3 3265   3.022   1.630   1.734 -0.4076 -0.9072 -0.0461
  873SOL    MW4 3266   3.089   1.575   1.725 -1.3668 -0.4706  0.0025
  874SOL     OW 3267   3.189   6.050   4.242 -0.2000 -0.2579 -0.3284
  874SOL    HW2 3268   3.095   6.038   4.228 -0.3815  1.1396 -0.3557
  874SOL    HW3 3269   3.224   6.069   4.154  0.3417 -2.0126 -0.5496
  874SOL    MW4 3270   3.181   6.051   4.228  0.1523  0.1660  0.1153
  875SOL     OW 3271   5.190   5.872   0.402 -0.4006  0.1356  0.3023
  875SOL    HW2 3272   5.125   5.888   0.471 -1.2507  0.9717 -0.6635
  875SOL    HW3 3273   5.147   5.809   0.344  1.0286 -2.0339  1.4730
  875SOL    MW4 3274   5.175   5.866   0.404 -0.5049 -0.4622 -0.3149
  876SOL     OW 3275   0.596   5.500   0.489  0.2899  0.7198 -0.1211
  876SOL    HW2 3276   0.654   5.489   0.564 -0.7349  0.9354  0.7292
  876SOL    HW3 3277   0.516   5.539   0.526 -1.4410 -1.9097 -0.7719
  876SOL    MW4 3278   0.593   5.504   0.504  0.6144 -0.2557  0.2268
  877SOL     OW 3279   1.066   0.327   4.704  0.7428  0.5671 -0.4304
  877SOL    HW2 3280   1.013   0.350   4.627  3.3071  2.1330 -1.8633
  877SOL    HW3 3281   1.136   0.271   4.670  0.4762 -0.9281  1.2976
  877SOL    MW4 3282   1.068   0.323   4.689 -0.7216  0.0254 -0.1936
  878SOL     OW 3283   0.792   6.328   0.031 -0.1421 -0.1582 -0.2101
  878SOL    HW2 3284   0.737   6.255   0.061 -2.7273  1.9523  0.5754
  878SOL    HW3 3285   0.787   6.392   0.103  1.3889  1.1288 -1.1916
  878SOL    MW4 3286   0.784   6.327   0.045 -0.5512 -0.2639 -0.6203
  879SOL     OW 3287   1.724   2.294   6.297 -0.4061 -1.4019 -0.0865
  879SOL    HW2 3288   1.797   2.236   6.319 -0.1963 -0.2946  2.3831
  879SOL    HW3 3289   1.761   2.356   6.234  0.3689 -1.7444  0.0192
  879SOL    MW4 3290   1.738   2.294   6.292  0.4285  0.1341  0.6984
  880SOL     OW 3291   4.908   4.423   3.912 -0.2298 -0.5824 -0.3864
  880SOL    HW2 3292   4.996   4.426   3.874 -0.0746 -0.8148 -0.0501
  880SOL    HW3 3293   4.868   4.506   3.887  0.5327  0.0716  0.5223
  880SOL    MW4 3294   4.914   4.434   3.903 -0.4332 -0.1628  0.2233
  881SOL     OW 3295   2.151   4.478   0.885 -0.2127 -0.3805  0.0718
  881SOL    HW2 3296   2.068   4.496   0.929  0.9707  0.1577  2.2116
  881SOL    HW3 3297   2.184   4.399   0.928  1.6129  0.9169  1.2098
  881SOL    MW4 3298   2.144   4.470   0.897 -0.3394 -0.7334 -0.2677
  882SOL     OW 3299   6.078   2.075   3.608  0.3294  0.0623 -0.0333
  882SOL    HW2 3300   6.074   1.980   3.598  1.8603 -0.1078  0.6885
  882SOL    HW3 3301   6.142   2.104   3.543 -0.0699  0.5974 -0.1977
  882SOL    MW4 3302   6.086   2.067   3.598 -0.1143  0.4467 -0.3709
  883SOL     OW 3303   2.836   4.214   5.193  0.2199 -0.0170  0.1516
  883SOL    HW2 3304   2.895   4.215   5.268  0.0946  1.3358  0.2513
  883SOL    HW3 3305   2.885   4.170   5.124  1.3589  1.0748  0.2304
  883SOL    MW4 3306   2.850   4.208   5.194 -0.6462 -0.9596 -0.1108
  884SOL     OW 3307   1.232   4.147   3.211 -0.7022  0.0960 -0.0268
  884SOL    HW2 3308   1.149   4.190   3.192 -1.2263  0.0681  1.9141
  884SOL    HW3 3309   1.261   4.187   3.293  0.3299 -1.1021  0.2193
  884SOL    MW4 3310   1.225   4.158   3.220 -0.3392  0.3275  0.5084
  885SOL     OW 3311   0.874   0.733   0.459 -0.7957 -0.2491 -0.3310
  885SOL    HW2 3312   0.920   0.652   0.433  0.8633  1.2194 -2.3066
  885SOL    HW3 3313   0.914   0.801   0.405 -2.4101  1.8617  1.0016
  885SOL    MW4 3314   0.886   0.731   0.448  0.4537 -0.0552 -0.7694
  886SOL     OW 3315   1.332   3.622   3.469 -0.4338 -0.2855 -0.6942
  886SOL    HW2 3316   1.291   3.690   3.417 -0.5657 -0.0585 -0.2951
  886SOL    HW3 3317   1.304   3.639   3.559  0.7165  0.0170 -0.3713
  886SOL    MW4 3318   1.323   3.633   3.474  0.1944 -0.2935 -0.1006
  887SOL     OW 3319   3.565   3.799   4.261  0.0261 -0.3316 -0.4766
  887SOL    HW2 3320   3.575   3.886   4.224  0.0687 -0.3901 -0.6014
  887SOL    HW3 3321   3.478   3.771   4.233 -0.7476  0.4025  1.0719
  887SOL    MW4 3322   3.555   3.807   4.252  0.0586  0.0736  0.1855
  888SOL     OW 3323   5.191   0.028   1.624 -0.2735 -0.6044  0.3187
  888SOL    HW2 3324   5.139   0.108   1.626 -0.0600 -0.4803  2.2825
  888SOL    HW3 3325   5.128  -0.042   1.636 -0.5825 -0.8764 -2.2584
  888SOL    MW4 3326   5.176   0.030   1.626 -0.3893 -0.2657 -0.1792
  889SOL     OW 3327   6.358   3.107   6.055 -0.4877  0.2401  0.1286
  889SOL    HW2 3328   6.362   3.024   6.103  1.1530  0.1375 -0.1215
  889SOL    HW3 3329   6.289   3.157   6.099 -1.1190 -1.0284  0.6346
  889SOL    MW4 3330   6.349   3.102   6.068 -0.5551 -0.2881  0.6297
  890SOL     OW 3331   4.235   5.336   2.793  0.2996  0.4012 -0.2463
  890SOL    HW2 3332   4.303   5.317   2.857  0.8399 -0.5399 -1.0560
  890SOL    HW3 3333   4.219   5.430   2.801 -0.1234  0.1874  1.6943
  890SOL    MW4 3334   4.242   5.346   2.802 -0.0722 -0.4569  0.3148
  891SOL     OW 3335   5.942   2.313   3.337  0.2915 -0.3370  0.4457
  891SOL    HW2 3336   5.943   2.363   3.418 -0.8586  1.4631 -0.5672
  891SOL    HW3 3337   6.034   2.300   3.314  0.7732 -3.3527  3.3758
  891SOL    MW4 3338   5.954   2.318   3.345 -0.1508  0.1858  0.2978
  892SOL     OW 3339   5.304   2.062   0.220 -0.1519  0.4846  0.4430
  892SOL    HW2 3340   5.385   2.112   0.229  0.2619  0.0694 -0.7507
  892SOL    HW3 3341   5.260   2.101   0.144 -0.3702 -0.2156  0.2020
  892SOL    MW4 3342   5.309   2.074   0.211 -0.0229  0.1089  0.2375
  893SOL     OW 3343   1.894   4.427   4.308  0.6770 -0.5976 -0.0855
  893SOL    HW2 3344   1.908   4.489   4.379 -1.5459  0.1900 -0.2648
  893SOL    HW3 3345   1.864   4.347   4.351 -1.2245  0.0585 -0.1086
  893SOL    MW4 3346   1.892   4.425   4.323  0.1494  0.3978  0.2719
  894SOL     OW 3347   5.091   2.734   4.302  0.1530 -0.1993  0.3501
  894SOL    HW2 3348   5.068   2.802   4.239  1.7386 -1.0900 -1.2677
  894SOL    HW3 3349   5.137   2.780   4.372  1.1146  0.4454 -0.6703
  894SOL    MW4 3350   5.094   2.749   4.303  0.3324 -0.1073  0.1816
  895SOL     OW 3351   2.260   2.148   4.233 -0.2580  0.0935 -0.5311
  895SOL    HW2 3352   2.329   2.131   4.296 -1.5522 -0.1307  0.8978
  895SOL    HW3 3353   2.197   2.202   4.281 -1.7597 -0.9077 -1.2934
  895SOL    MW4 3354   2.260   2.153   4.247 -0.5729  0.3354  0.0751
  896SOL     OW 3355   2.313   4.992   1.888 -0.2619 -0.3537 -0.2356
  896SOL    HW2 3356   2.288   5.009   1.979 -0.2444 -1.3702 -0.0372
  896SOL    HW3 3357   2.371   5.065   1.866 -1.7063  0.9231 -0.0350
  896SOL    MW4 3358   2.317   5.004   1.897  0.1276  0.1707  0.0595
  897SOL     OW 3359   5.125   6.219   0.892  0.0197  0.0070  0.3182
  897SOL    HW2 3360   5.207   6.246   0.934  0.2811 -1.0464  0.5040
  897SOL    HW3 3361   5.119   6.125   0.910 -0.9566 -0.0281 -0.1636
  897SOL    MW4 3362   5.135   6.210   0.900  0.7677 -0.0153 -0.0275
  898SOL     OW 3363   3.508   3.253   4.378  0.1626 -0.1425  0.4837
  898SOL    HW2 3364   3.464   3.335   4.356  1.4856  1.1230  2.2356
  898SOL    HW3 3365   3.445   3.185   4.354 -1.3204  1.4148 -0.2527
  898SOL    MW4 3366   3.494   3.255   4.372 -0.1730  0.4935  0.1743
  899SOL     OW 3367   2.479   2.440   5.395  0.3425 -0.1312  0.4567
  899SOL    HW2 3368   2.548   2.373   5.387  0.1398 -0.3504  0.5343
  899SOL    HW3 3369   2.497   2.501   5.323  1.4044  0.5448  1.2561
  899SOL    MW4 3370   2.490   2.439   5.384 -0.3082 -0.2825  0.4169
  900SOL     OW 3371   6.348   4.983   1.586  0.1470 -0.1321 -0.3132
  900SOL    HW2 3372   6.409   4.997   1.658 -0.2898  2.1300 -0.3022
  900SOL    HW3 3373   6.362   4.892   1.559  2.4351 -0.1204  0.6512
  900SOL    MW4 3374   6.358   4.973   1.592 -0.0913  0.3788 -0.2076
  901SOL     OW 3375   6.108   5.802   0.067  0.6442  0.1117 -0.3071
  901SOL    HW2 3376   6.027   5.853   0.071 -1.2259 -2.7139  0.6748
  901SOL    HW3 3377   6.113   5.772  -0.024  1.0918  0.9865 -0.5818
  901SOL    MW4 3378   6.098   5.805   0.056 -0.0852 -0.1791 -0.3941
  902SOL     OW 3379   6.071   3.383   0.864 -0.3769  0.0101 -1.1471
  902SOL    HW2 3380   6.104   3.404   0.776 -0.0332  0.5625 -0.8930
  902SOL    HW3 3381   6.086   3.290   0.873  1.2840  0.2708 -0.9833
  902SOL    MW4 3382   6.077   3.374   0.853 -0.0878 -0.6759  0.2879
  903SOL     OW 3383   2.265   1.324   6.349 -0.4616  0.1208  0.3342
  903SOL    HW2 3384   2.299   1.340   6.262  0.8964 -0.3034  0.7698
  903SOL    HW3 3385   2.311   1.387   6.405 -0.7059 -0.1746  0.8776
  903SOL    MW4 3386   2.275   1.335   6.345 -0.2925  0.4994  0.1348
  904SOL     OW 3387   4.334   0.657   4.281 -0.4035 -0.3281 -0.1572
  904SOL    HW2 3388   4.418   0.637   4.324 -1.7759 -3.2961  1.4772
  904SOL    HW3 3389   4.268   0.617   4.339 -2.7988  0.0668 -2.4408
  904SOL    MW4 3390   4.336   0.649   4.295 -0.3696  0.5857 -0.2887
  905SOL     OW 3391   4.698   5.798   4.842 -0.2812  0.8205  0.0115
  905SOL    HW2 3392   4.764   5.732   4.860  1.1665  1.9816 -0.8199
  905SOL    HW3 3393   4.671   5.829   4.928 -0.7748 -0.6233  0.4008
  905SOL    MW4 3394   4.703   5.793   4.856  0.0160 -0.2068  0.3708
  906SOL     OW 3395   3.767   4.104   5.519  0.0848  0.1281 -0.2987
  906SOL    HW2 3396   3.822   4.182   5.520 -1.9983  1.6694  0.9092
  906SOL    HW3 3397   3.756   4.081   5.611  1.0893 -1.9745 -0.6519
  906SOL    MW4 3398   3.773   4.111   5.531  0.1180 -0.0049 -0.3778
  907SOL     OW 3399   5.355   3.587   4.645 -0.8518  0.0839 -0.1443
  907SOL    HW2 3400   5.409   3.556   4.572  0.6405  0.6710  0.6743
  907SOL    HW3 3401   5.375   3.680   4.652 -0.6371 -0.0597  1.2924
  907SOL    MW4 3402   5.365   3.595   4.636  0.3624 -0.2937 -0.2778
  908SOL     OW 3403   0.291   1.393   2.616  0.2212  0.1762 -0.1637
  908SOL    HW2 3404   0.205   1.435   2.615 -0.6534 -1.2064  3.4306
  908SOL    HW3 3405   0.290   1.333   2.541 -1.3523  1.1955 -1.0067
  908SOL    MW4 3406   0.280   1.391   2.606  0.2488 -0.0123  0.0090
  909SOL     OW 3407   6.367   5.550   6.397  0.6958  0.1639 -0.1359
  909SOL    HW2 3408   6.293   5.498   6.427  1.9602 -1.9042 -0.3885
  909SOL    HW3 3409   6.329   5.612   6.334 -0.9039 -0.3183  0.3085
  909SOL    MW4 3410   6.352   5.552   6.393 -0.0703  0.7009  0.1392
  910SOL     OW 3411   4.815   1.588   2.789 -0.3337  0.6441  0.1775
  910SOL    HW2 3412   4.869   1.608   2.713  0.3121 -0.8161  0.2078
  910SOL    HW3 3413   4.763   1.667   2.804 -0.6742  0.8785 -1.9351
  910SOL    MW4 3414   4.815   1.601   2.781  0.2351  0.2267  0.2344
  911SOL     OW 3415   4.001   2.435   1.446  0.7299 -0.0509 -0.0023
  911SOL    HW2 3416   4.094   2.434   1.468  0.6224  1.4638  0.6182
  911SOL    HW3 3417   3.969   2.518   1.481 -0.9724 -0.7823  0.2486
  911SOL    MW4 3418   4.009   2.446   1.453 -0.3495 -0.2885  0.1984
  912SOL     OW 3419   2.862   6.284   2.151  0.0872  0.6740 -0.1754
  912SOL    HW2 3420   2.915   6.208   2.129 -0.6220 -0.0558  0.5365
  912SOL    HW3 3421   2.917   6.336   2.210  0.5284  0.6452 -0.5636
  912SOL    MW4 3422   2.876   6.281   2.156 -0.1788  0.2420 -0.5896
  913SOL     OW 3423   5.978   0.323   4.948 -0.2065 -0.0006  0.2029
  913SOL    HW2 3424   5.900   0.330   5.003  0.9446 -0.6472  2.0178
  913SOL    HW3 3425   5.983   0.231   4.924 -1.3212  0.4616 -2.0371
  913SOL    MW4 3426   5.968   0.312   4.952  0.0033  0.0069 -0.0938
  914SOL     OW 3427   5.401   2.454   3.947  0.2757  0.6601  0.2191
  914SOL    HW2 3428   5.362   2.519   4.005 -0.3789  0.4488  0.0231
  914SOL    HW3 3429   5.326   2.408   3.908  0.7151 -0.9741  1.2111
  914SOL    MW4 3430   5.386   2.457   3.949  0.6126 -0.6778  0.1822
  915SOL     OW 3431   1.228   2.729   5.342  0.5734 -0.7577 -0.8439
  915SOL    HW2 3432   1.220   2.635   5.355 -0.0163 -0.5826  0.1526
  915SOL    HW3 3433   1.139   2.757   5.319  0.4767 -0.2719  0.0893
  915SOL    MW4 3434   1.215   2.721   5.341  0.2871 -0.3733 -0.5914
  916SOL     OW 3435   1.972   1.758   3.484 -0.0699 -0.0936 -0.1238
  916SOL    HW2 3436   2.037   1.821   3.515  0.6222 -0.7158 -0.2497
  916SOL    HW3 3437   1.907   1.810   3.438  1.4069  0.3818 -1.7849
  916SOL    MW4 3438   1.972   1.773   3.482 -0.0639 -0.2469  0.1081
  917SOL     OW 3439   4.278   5.935   5.875 -0.6041  0.1759 -0.0430
  917SOL    HW2 3440   4.285   5.878   5.952 -2.0276  0.1156  0.0751
  917SOL    HW3 3441   4.331   5.892   5.808  1.0494  0.4888  1.0291
  917SOL    MW4 3442   4.286   5.922   5.876 -0.4681 -0.6786  0.9090
  918SOL     OW 3443   5.904   0.476   3.406  0.2753 -0.3530 -0.2615
  918SOL    HW2 3444   5.876   0.416   3.476 -0.0566 -0.4095 -0.4392
  918SOL    HW3 3445   5.840   0.462   3.336  0.1143  0.3154 -0.2520
  918SOL    MW4 3446   5.892   0.466   3.406  0.3112 -0.0483 -0.7476
  919SOL     OW 3447   0.687   2.787   1.918 -0.1207 -0.0833 -0.4083
  919SOL    HW2 3448   0.605   2.821   1.882 -0.8126 -0.2536  0.9201
  919SOL    HW3 3449   0.659   2.732   1.992  1.1851 -0.2651 -0.0303
  919SOL    MW4 3450   0.672   2.784   1.923  0.1206  0.6538 -0.5298
  920SOL     OW 3451   4.638   3.876   5.440 -0.0081 -0.0715 -0.1867
  920SOL    HW2 3452   4.628   3.945   5.375 -1.1867 -0.7870 -0.7982
  920SOL    HW3 3453   4.593   3.801   5.402 -1.1826 -0.3646  1.6594
  920SOL    MW4 3454   4.631   3.875   5.426  0.2189 -0.0848  0.4863
  921SOL     OW 3455   0.240   1.540   4.585 -0.5109 -0.1425 -0.4696
  921SOL    HW2 3456   0.264   1.620   4.539 -1.7899  1.4795  1.5235
  921SOL    HW3 3457   0.147   1.551   4.606 -0.2117 -1.1587  1.6893
  921SOL    MW4 3458   0.231   1.552   4.582 -0.9264 -0.1545 -0.6290
  922SOL     OW 3459   0.997   3.815   3.976 -0.1785  0.4441  0.0173
  922SOL    HW2 3460   1.013   3.872   4.051  1.1050 -0.8421  0.7910
  922SOL    HW3 3461   1.043   3.857   3.904  0.1895  0.7343  0.4132
  922SOL    MW4 3462   1.005   3.828   3.977  0.0522 -0.1094  0.0639
  923SOL     OW 3463   5.367   2.147   5.613 -0.5890 -0.6435  0.4744
  923SOL    HW2 3464   5.321   2.086   5.672  0.1126 -0.7254  0.9530
  923SOL    HW3 3465   5.434   2.093   5.571  0.0663 -0.1983  0.9352
  923SOL    MW4 3466   5.370   2.131   5.616 -0.4486  0.4530  0.0808
  924SOL     OW 3467   0.433   1.800   1.834  0.3853 -0.4041  0.1669
  924SOL    HW2 3468   0.477   1.760   1.759 -0.7857 -1.6374  0.1083
  924SOL    HW3 3469   0.355   1.841   1.798  0.5609  0.2549  0.5210
  924SOL    MW4 3470   0.429   1.800   1.819 -0.1398 -0.6059 -0.5431
  925SOL     OW 3471   2.991   0.269   0.666  0.0404  0.1299  0.5347
  925SOL    HW2 3472   2.930   0.215   0.617 -0.5602  1.6392 -0.4782
  925SOL    HW3 3473   2.951   0.278   0.753  0.3581 -1.3423  0.8450
  925SOL    MW4 3474   2.977   0.263   0.671  0.2608  0.2419  0.1284
  926SOL     OW 3475   4.198   1.105   5.726 -0.2244 -0.5936 -0.2119
  926SOL    HW2 3476   4.153   1.153   5.656 -0.5732 -1.0693 -0.3199
  926SOL    HW3 3477   4.176   1.013   5.710  0.6025 -0.8137 -0.1232
  926SOL    MW4 3478   4.189   1.099   5.715 -0.5701  0.5709  0.0772
  927SOL     OW 3479   0.692   4.726   5.637  0.4033 -0.8676  0.0125
  927SOL    HW2 3480   0.713   4.806   5.686  3.2134 -0.7832 -1.1094
  927SOL    HW3 3481   0.761   4.665   5.662 -0.0782 -1.9754 -1.2646
  927SOL    MW4 3482   0.704   4.729   5.647  0.4314 -0.6606 -0.1505
  928SOL     OW 3483   1.146   2.419   5.626 -0.2536  0.0765 -0.0432
  928SOL    HW2 3484   1.170   2.403   5.535 -0.9109  0.5428 -0.3079
  928SOL    HW3 3485   1.147   2.333   5.667 -0.5755 -0.2254 -0.6548
  928SOL    MW4 3486   1.149   2.406   5.620  0.1158  0.6925  0.0568
  929SOL     OW 3487   5.454   5.701   5.538  0.0145 -0.1660 -0.0953
  929SOL    HW2 3488   5.489   5.621   5.501 -2.3319 -0.7223 -1.2843
  929SOL    HW3 3489   5.402   5.673   5.613 -0.8212  0.2130 -0.5167
  929SOL    MW4 3490   5.452   5.687   5.543 -0.0976 -0.1642 -0.8458
  930SOL     OW 3491   6.045   5.228   3.475  0.1810 -0.2705 -0.5409
  930SOL    HW2 3492   6.055   5.166   3.403 -3.3326 -1.5774 -0.0773
  930SOL    HW3 3493   5.954   5.257   3.469 -0.0106  0.1737  2.8808
  930SOL    MW4 3494   6.034   5.224   3.464 -0.0003 -0.2886  0.2231
  931SOL     OW 3495   3.610   2.226   0.694  0.5908 -0.1393  0.1585
  931SOL    HW2 3496   3.658   2.146   0.712  1.4554  0.5952  1.2399
  931SOL    HW3 3497   3.677   2.291   0.673 -0.1515  0.0579 -1.8573
  931SOL    MW4 3498   3.625   2.224   0.693 -0.0376 -0.4512 -0.0011
  932SOL     OW 3499   4.092   1.438   1.555 -0.1789 -0.2216 -0.0816
  932SOL    HW2 3500   4.162   1.496   1.524  0.2216 -0.5128  0.2695
  932SOL    HW3 3501   4.099   1.360   1.501 -0.7661  0.0798 -0.6039
  932SOL    MW4 3502   4.102   1.435   1.544 -0.0045  0.0467  0.5692
  933SOL     OW 3503   4.136   6.389   1.653  0.0508 -0.4169 -0.7990
  933SOL    HW2 3504   4.139   6.466   1.596 -2.8865 -1.5527 -2.7516
  933SOL    HW3 3505   4.164   6.316   1.596 -3.1286 -1.6167 -1.0045
  933SOL    MW4 3506   4.140   6.389   1.638 -0.3146  0.1150 -0.1259
  934SOL     OW 3507   2.243   2.056   6.231  0.1819 -0.3923 -0.2448
  934SOL    HW2 3508   2.176   2.038   6.165  1.1434 -0.5352 -1.2266
  934SOL    HW3 3509   2.325   2.029   6.189  0.6562 -2.0880  1.6571
  934SOL    MW4 3510   2.245   2.050   6.216  0.1025 -0.2471  1.1453
  935SOL     OW 3511   3.027   1.972   2.695 -0.7501  0.1941  0.1207
  935SOL    HW2 3512   2.960   1.962   2.627 -1.1388 -1.3157  0.6922
  935SOL    HW3 3513   2.987   2.028   2.761 -0.2816  1.8785 -0.9640
  935SOL    MW4 3514   3.013   1.978   2.695 -0.1640  0.1613  0.3854
  936SOL     OW 3515   3.895   0.969   6.054  0.1321 -0.3017 -0.2802
  936SOL    HW2 3516   3.989   0.956   6.070 -0.2242  0.1722  2.8798
  936SOL    HW3 3517   3.879   1.060   6.077 -1.0458 -0.2306 -1.2785
  936SOL    MW4 3518   3.905   0.979   6.060 -0.5820 -0.7090 -0.0276
  937SOL     OW 3519   4.555   0.588   0.158 -0.0571 -0.0450 -0.1572
  937SOL    HW2 3520   4.564   0.652   0.086 -0.3974 -0.0720 -0.2275
  937SOL    HW3 3521   4.599   0.629   0.232  0.8008 -0.2618 -0.5279
  937SOL    MW4 3522   4.562   0.602   0.158  0.5081  0.1185  0.7863
  938SOL     OW 3523   6.209   3.014   4.397 -0.2902 -0.0670 -0.3040
  938SOL    HW2 3524   6.121   3.019   4.433 -0.6503 -1.9976 -0.7724
  938SOL    HW3 3525   6.197   3.019   4.302  0.4553  2.8953 -0.3211
  938SOL    MW4 3526   6.196   3.015   4.389  0.1239 -0.5415 -0.2252
  939SOL     OW 3527   0.396   5.923   4.584 -0.2710  0.1824  0.0452
  939SOL    HW2 3528   0.426   5.844   4.630 -0.1029 -1.5487 -2.8238
  939SOL    HW3 3529   0.306   5.902   4.557 -0.8548  1.7054  0.6927
  939SOL    MW4 3530   0.388   5.910   4.587 -0.6619  0.1225 -0.2209
  940SOL     OW 3531   4.872   6.194   0.971 -0.7779  0.2158 -0.4371
  940SOL    HW2 3532   4.962   6.215   0.947 -0.5463 -0.2561 -0.0048
  940SOL    HW3 3533   4.869   6.098   0.970 -1.7207  0.2102 -2.0659
  940SOL    MW4 3534   4.884   6.184   0.967 -0.4788  0.1878 -0.4485
  941SOL     OW 3535   2.224   4.334   3.056  0.6503  0.3366 -0.0165
  941SOL    HW2 3536   2.242   4.424   3.030  0.2867  0.4070 -0.0277
  941SOL    HW3 3537   2.311   4.296   3.072  0.8395  0.5273 -0.5488
  941SOL    MW4 3538   2.238   4.341   3.055 -0.3090 -0.1953 -0.5721
  942SOL     OW 3539   4.209   5.178   4.407 -0.1867  0.3106 -0.2021
  942SOL    HW2 3540   4.270   5.215   4.343 -1.1965 -0.8188 -1.8911
  942SOL    HW3 3541   4.140   5.243   4.414 -1.1420 -0.4329 -1.9436
  942SOL    MW4 3542   4.208   5.191   4.399 -0.9020 -0.1988  0.1160
  943SOL     OW 3543   2.849   6.428   1.880  0.3281  0.5892  0.4583
  943SOL    HW2 3544   2.875   6.358   1.940 -0.5555  0.1384  0.3304
  943SOL    HW3 3545   2.927   6.445   1.827  0.4480 -0.5675  0.2326
  943SOL    MW4 3546   2.863   6.421   1.881 -0.3272  0.1435  0.4333
  944SOL     OW 3547   2.957   6.044   4.558  0.2970 -0.4118 -0.2695
  944SOL    HW2 3548   2.933   6.005   4.642 -2.2476  0.1934 -0.6372
  944SOL    HW3 3549   3.019   5.982   4.519  0.1478 -1.5769  1.2796
  944SOL    MW4 3550   2.962   6.030   4.564  0.0537  0.1524 -0.2414
  945SOL     OW 3551   1.849   3.611   6.431 -0.0779  0.3992 -0.2285
  945SOL    HW2 3552   1.804   3.551   6.372  0.0755 -0.5401  0.5787
  945SOL    HW3 3553   1.899   3.669   6.373 -0.7824  0.2036 -1.0504
  945SOL    MW4 3554   1.850   3.611   6.415 -0.3533 -0.4302  0.4762
  946SOL     OW 3555   0.129   1.010   3.575 -0.1142 -0.5915 -0.3967
  946SOL    HW2 3556   0.155   0.919   3.588  0.6287 -0.9741 -3.7440
  946SOL    HW3 3557   0.187   1.042   3.507 -1.5619  1.8406 -0.6024
  946SOL    MW4 3558   0.140   1.002   3.568  0.6228  0.0930  0.1076
  947SOL     OW 3559   0.812   1.584   4.319  0.4350 -0.0916 -0.0926
  947SOL    HW2 3560   0.807   1.621   4.407 -0.2734 -0.0162 -0.1593
  947SOL    HW3 3561   0.880   1.517   4.325 -0.2892 -0.7897  0.7808
  947SOL    MW4 3562   0.820   1.580   4.331 -0.0336 -0.0997  0.1297
  948SOL     OW 3563   5.185   5.799   3.408 -0.2128  0.1272 -0.0488
  948SOL    HW2 3564   5.235   5.861   3.462 -0.6561  1.0897 -0.7090
  948SOL    HW3 3565   5.111   5.851   3.374 -1.6867 -1.2422  0.8961
  948SOL    MW4 3566   5.181   5.814   3.410  0.0040 -0.2875  0.4240
  949SOL     OW 3567   5.710   1.315   0.782  0.2482  0.2620 -0.4705
  949SOL    HW2 3568   5.788   1.368   0.798  0.7421 -0.2698 -1.0643
  949SOL    HW3 3569   5.705   1.306   0.687 -0.9936  0.9435 -0.4948
  949SOL    MW4 3570   5.719   1.321   0.772 -0.3260 -0.0028 -0.0935
  950SOL     OW 3571   0.988   1.414   1.031  0.0639 -0.3411  0.2305
  950SOL    HW2 3572   1.033   1.442   0.952 -0.9369  1.1239  0.1276
  950SOL    HW3 3573   1.022   1.472   1.099 -0.0423 -0.7079  0.5979
  950SOL    MW4 3574   0.998   1.425   1.030  0.3057  0.4500  0.1016
  951SOL     OW 3575   2.971   2.867   1.172  0.4515  0.1828 -0.5510
  951SOL    HW2 3576   3.049   2.915   1.203 -0.2560  1.1977 -0.2793
  951SOL    HW3 3577   2.898   2.912   1.214 -0.2798 -0.8573 -0.6875
  951SOL    MW4 3578   2.972   2.879   1.182  0.1678  0.3105 -0.2751
  952SOL     OW 3579   2.460   3.239   2.012  0.3996  0.0205 -0.3035
  952SOL    HW2 3580   2.517   3.208   1.942 -0.9866 -0.1748 -1.3960
  952SOL    HW3 3581   2.402   3.302   1.969 -0.4865 -0.1108  0.6570
  952SOL    MW4 3582   2.460   3.243   1.997  0.5078  0.0579 -0.2715
  953SOL     OW 3583   6.418   2.205   0.590  0.3891 -0.0216 -0.1695
  953SOL    HW2 3584   6.491   2.266   0.580  0.5646 -0.2024  0.0123
  953SOL    HW3 3585   6.395   2.181   0.500  2.9313 -2.7908 -0.2147
  953SOL    MW4 3586   6.424   2.210   0.577 -0.3860  0.1072 -0.5277
  954SOL     OW 3587   6.042   5.577   2.619 -0.3529 -0.4300  0.2617
  954SOL    HW2 3588   6.015   5.504   2.675  0.4067 -1.0858 -0.1984
  954SOL    HW3 3589   6.053   5.538   2.533  0.8083  0.0586  0.1711
  954SOL    MW4 3590   6.040   5.562   2.615  0.0743 -0.2915 -0.3606
  955SOL     OW 3591   2.895   2.549   4.063 -0.3274  0.2060 -0.7371
  955SOL    HW2 3592   2.818   2.499   4.039  0.0873 -0.7074 -0.2158
  955SOL    HW3 3593   2.896   2.546   4.159 -0.6210  1.7272 -0.6569
  955SOL    MW4 3594   2.885   2.542   4.073  0.8627 -0.1278  0.0658
  956SOL     OW 3595   4.784   2.703   5.609  1.0475  0.1124 -0.1572
  956SOL    HW2 3596   4.878   2.720   5.616  1.2073 -0.1009 -1.4486
  956SOL    HW3 3597   4.770   2.627   5.665  1.5181  0.5490  0.5691
  956SOL    MW4 3598   4.795   2.695   5.617 -0.3731  0.4720  0.0979
  957SOL     OW 3599   4.184   1.984   5.232 -0.1373 -0.2554  0.2097
  957SOL    HW2 3600   4.254   1.949   5.176  0.8747  0.1600  1.1890
  957SOL    HW3 3601   4.210   2.074   5.250 -2.0406  0.6436 -1.1625
  957SOL    MW4 3602   4.197   1.991   5.227 -0.0940  0.1711 -0.1490
  958SOL     OW 3603   2.698   3.026   0.957 -0.2065 -0.4842 -0.3277
  958SOL    HW2 3604   2.714   3.005   1.049 -1.5031  2.0204  0.5866
  958SOL    HW3 3605   2.606   3.003   0.943  0.3973 -2.3835 -1.5566
  958SOL    MW4 3606   2.688   3.020   0.968  0.0274  0.4579  0.1201
  959SOL     OW 3607   1.344   1.796   5.647 -0.4928  0.1327 -0.4728
  959SOL    HW2 3608   1.381   1.812   5.561  0.1393 -0.7527 -0.3919
  959SOL    HW3 3609   1.375   1.708   5.670 -1.4355 -0.0303  0.2472
  959SOL    MW4 3610   1.353   1.786   5.639  0.0541  0.3823  0.1180
  960SOL     OW 3611   0.704   5.317   3.007  0.2689 -0.4890 -0.2300
  960SOL    HW2 3612   0.632   5.321   3.069 -0.7019 -0.0094 -1.3455
  960SOL    HW3 3613   0.736   5.407   3.001  1.0759 -0.7240  0.3666
  960SOL    MW4 3614   0.699   5.330   3.014  0.0269  0.3051 -0.1313
  961SOL     OW 3615   3.155   5.846   4.437  0.0849  0.1955 -0.2582
  961SOL    HW2 3616   3.117   5.780   4.378  0.4947  0.8088 -1.2403
  961SOL    HW3 3617   3.178   5.919   4.379  0.0080  1.0431  0.7526
  961SOL    MW4 3618   3.153   5.847   4.421 -0.3745 -0.5415 -0.5770
  962SOL     OW 3619   5.294   5.765   0.032  0.3773  0.6142 -0.4844
  962SOL    HW2 3620   5.316   5.746   0.123  0.2983  0.9041 -0.4046
  962SOL    HW3 3621   5.240   5.691   0.005  2.5276 -0.8136 -1.0996
  962SOL    MW4 3622   5.290   5.753   0.041 -1.1301 -0.2778  0.1173
  963SOL     OW 3623   4.773   1.821   3.530  0.1817 -0.8876  0.3301
  963SOL    HW2 3624   4.718   1.803   3.606 -0.5890 -3.9248 -0.7912
  963SOL    HW3 3625   4.861   1.796   3.558  0.7555  2.0750  1.4840
  963SOL    MW4 3626   4.777   1.815   3.543 -0.0010  0.1751 -0.2137
  964SOL     OW 3627   5.410   0.939   5.872 -0.0304 -0.3505 -0.6788
  964SOL    HW2 3628   5.395   0.953   5.966  1.2632 -3.4426  0.1410
  964SOL    HW3 3629   5.477   1.003   5.849 -0.0032  0.1384  0.6439
  964SOL    MW4 3630   5.417   0.949   5.882  0.7294  0.2981  0.3431
  965SOL     OW 3631   4.182   1.457   1.806 -0.0245  0.2066  0.7553
  965SOL    HW2 3632   4.269   1.488   1.783 -0.8243  0.7483 -1.9178
  965SOL    HW3 3633   4.143   1.431   1.722 -2.5450  0.2611  1.8182
  965SOL    MW4 3634   4.188   1.458   1.792 -0.3335 -0.1225  0.0658
  966SOL     OW 3635   0.776   5.808   2.358 -0.0561 -0.3733  0.1267
  966SOL    HW2 3636   0.698   5.768   2.397 -1.3583  0.2508 -1.6753
  966SOL    HW3 3637   0.748   5.832   2.269  2.0564  0.3457 -0.3951
  966SOL    MW4 3638   0.762   5.806   2.351 -0.2878  0.3692 -0.0039
  967SOL     OW 3639   1.399   3.141   0.486  0.1404  0.0308 -0.0715
  967SOL    HW2 3640   1.488   3.164   0.460 -0.3817  0.8528 -1.2532
  967SOL    HW3 3641   1.405   3.124   0.580  1.7655 -1.1854 -0.3481
  967SOL    MW4 3642   1.411   3.142   0.495  0.5382  0.5180  0.6525
  968SOL     OW 3643   3.545   0.226   2.308 -0.3106 -0.4750 -0.2272
  968SOL    HW2 3644   3.603   0.224   2.233  1.4380 -0.5776  1.0729
  968SOL    HW3 3645   3.481   0.294   2.287  1.4882  1.1073 -0.8604
  968SOL    MW4 3646   3.544   0.235   2.295 -0.4103 -0.1766  0.2724
  969SOL     OW 3647   5.774   3.353   1.890 -0.2379  0.3943 -0.1362
  969SOL    HW2 3648   5.745   3.315   1.973 -1.6005 -1.3263 -1.3067
  969SOL    HW3 3649   5.857   3.308   1.871  0.1166  0.8489  0.3153
  969SOL    MW4 3650   5.781   3.342   1.898 -0.4164  0.8472 -0.3510
  970SOL     OW 3651   6.400   5.036   0.783  0.5869 -0.0538 -0.1490
  970SOL    HW2 3652   6.372   5.059   0.872  0.7246 -2.0781  0.4582
  970SOL    HW3 3653   6.319   5.039   0.731  0.1082 -0.9944  0.5252
  970SOL    MW4 3654   6.386   5.040   0.788 -0.1198 -0.2104  0.1213
  971SOL     OW 3655   3.982   4.500   0.698  0.0212  0.2367 -0.3260
  971SOL    HW2 3656   3.949   4.575   0.648  0.9093  1.8702  1.4104
  971SOL    HW3 3657   4.020   4.441   0.632 -2.4991  0.2814 -1.9378
  971SOL    MW4 3658   3.983   4.502   0.683 -0.3276 -0.2054  0.1313
  972SOL     OW 3659   1.574   0.226   3.040  0.4998  0.1339 -0.1372
  972SOL    HW2 3660   1.663   0.256   3.023  0.5504  0.5642  0.7903
  972SOL    HW3 3661   1.518   0.294   3.003  0.4444 -1.3478 -3.0275
  972SOL    MW4 3662   1.579   0.239   3.033  0.2925  0.0904 -0.1323
  973SOL     OW 3663   0.228   2.860   0.215 -0.5828  0.0143 -0.5883
  973SOL    HW2 3664   0.224   2.934   0.154  0.2470 -0.3027 -1.0369
  973SOL    HW3 3665   0.231   2.783   0.159 -0.8851 -0.3295 -0.1280
  973SOL    MW4 3666   0.228   2.860   0.200  0.6014 -0.3115 -0.2706
  974SOL     OW 3667   5.676   3.874   2.096  0.3710  0.1622  0.1308
  974SOL    HW2 3668   5.693   3.785   2.064  1.2765  0.1510  0.6058
  974SOL    HW3 3669   5.694   3.930   2.020  2.1515  0.1064  0.4653
  974SOL    MW4 3670   5.681   3.869   2.082  0.3993  0.0510  0.1575
  975SOL     OW 3671   1.757   2.441   5.503 -0.0869  0.1467 -0.5820
  975SOL    HW2 3672   1.781   2.459   5.413 -0.2598  0.6923 -0.5192
  975SOL    HW3 3673   1.817   2.371   5.530 -0.0534 -0.0383 -1.1224
  975SOL    MW4 3674   1.768   2.434   5.495  0.0765 -0.1488 -0.0501
  976SOL     OW 3675   4.926   0.874   4.222 -0.2107  0.3086 -0.1697
  976SOL    HW2 3676   4.911   0.958   4.265  0.5822  0.2187  0.3097
  976SOL    HW3 3677   4.977   0.895   4.145  0.8324  0.1752  0.4709
  976SOL    MW4 3678   4.930   0.888   4.218  0.9332 -0.3146 -0.5079
  977SOL     OW 3679   4.142   1.528   5.911 -0.6007  0.6414  0.4481
  977SOL    HW2 3680   4.212   1.480   5.868 -1.8728 -1.8383  0.9640
  977SOL    HW3 3681   4.079   1.546   5.841 -1.2312 -0.6446  0.6548
  977SOL    MW4 3682   4.143   1.524   5.896 -0.1354 -0.2780 -0.1389
  978SOL     OW 3683   5.959   0.074   6.063 -0.0207  0.0508 -0.4359
  978SOL    HW2 3684   5.954   0.169   6.047 -1.3515 -0.1954 -1.6910
  978SOL    HW3 3685   6.034   0.046   6.010  0.1869  0.3402 -0.3047
  978SOL    MW4 3686   5.969   0.083   6.054 -0.9549  0.5264  0.0366
  979SOL     OW 3687   4.534   6.063   3.663 -0.2435  0.2736  0.4941
  979SOL    HW2 3688   4.627   6.048   3.679  0.1258  1.8503 -0.0332
  979SOL    HW3 3689   4.530   6.094   3.572 -1.4687 -1.1915 -0.0050
  979SOL    MW4 3690   4.545   6.065   3.653  0.6457 -0.1077 -0.4288
  980SOL     OW 3691   0.064   1.021   4.628 -0.2955 -0.0448 -0.8888
  980SOL    HW2 3692   0.016   0.971   4.695 -1.1818 -1.6118 -2.6057
  980SOL    HW3 3693   0.154   1.026   4.663 -0.6870 -0.9515  0.3497
  980SOL    MW4 3694   0.070   1.015   4.642  0.4467 -0.0995  0.2019
  981SOL     OW 3695   2.678   1.693   5.072  0.7242 -0.0904 -0.1146
  981SOL    HW2 3696   2.641   1.781   5.070 -3.3482 -1.3991  3.4556
  981SOL    HW3 3697   2.732   1.691   5.151  0.0851 -0.9784  0.3189
  981SOL    MW4 3698   2.680   1.704   5.082 -0.0122 -0.5347  0.5369
  982SOL     OW 3699   5.533   2.553   5.569  0.0961  0.0508 -0.5185
  982SOL    HW2 3700   5.438   2.558   5.558  0.1129  0.9932 -0.3671
  982SOL    HW3 3701   5.560   2.645   5.576  0.9073 -0.2480  0.4036
  982SOL    MW4 3702   5.524   2.566   5.568 -0.4820 -0.9593  0.0447
  983SOL     OW 3703   0.933   0.583   1.346  0.1381 -0.1833  0.1973
  983SOL    HW2 3704   0.848   0.579   1.303  0.1028 -0.9555  0.3252
  983SOL    HW3 3705   0.996   0.583   1.274  0.0269  1.9847  0.0312
  983SOL    MW4 3706   0.930   0.583   1.331 -0.1806 -0.5524 -0.2437
  984SOL     OW 3707   6.376   5.792   4.225  0.2401  0.2857 -0.1585
  984SOL    HW2 3708   6.370   5.883   4.255  1.0759 -0.3528  2.1959
  984SOL    HW3 3709   6.292   5.753   4.249  0.6350 -0.0401  0.7532
  984SOL    MW4 3710   6.364   5.799   4.232  0.0972  0.2157  0.1354
  985SOL     OW 3711   2.283   6.132   6.344  0.2228  0.3725  0.4458
  985SOL    HW2 3712   2.276   6.225   6.325  0.3254  0.0626 -1.3037
  985SOL    HW3 3713   2.262   6.089   6.261  0.9364 -1.1442  1.0120
  985SOL    MW4 3714   2.279   6.138   6.331  0.1884 -0.0906 -0.2717
  986SOL     OW 3715   4.544   3.430   4.183  0.0235 -0.0927  0.0786
  986SOL    HW2 3716   4.601   3.387   4.247  0.8931  0.1242 -0.5336
  986SOL    HW3 3717   4.559   3.523   4.194 -0.4371 -0.0166  0.1079
  986SOL    MW4 3718   4.553   3.436   4.193 -0.3120  0.3922  0.4439
  987SOL     OW 3719   3.959   4.834   5.994 -0.0708 -0.7124 -0.3889
  987SOL    HW2 3720   4.024   4.880   5.941 -1.6755  0.8149 -1.1315
  987SOL    HW3 3721   3.922   4.901   6.051 -0.6917 -1.6472  0.3481
  987SOL    MW4 3722   3.962   4.849   5.994  0.0514 -0.1049 -0.3155
  988SOL     OW 3723   5.040   0.013   3.989  0.5149  0.0586 -0.2061
  988SOL    HW2 3724   5.040   0.024   3.894  1.9498  0.9318 -0.1435
  988SOL    HW3 3725   4.984   0.083   4.022 -0.5511 -0.6718 -0.4216
  988SOL    MW4 3726   5.033   0.024   3.981 -0.1808  0.3415  0.0072
  989SOL     OW 3727   0.594   0.780   1.220 -0.5083  0.2610 -0.4246
  989SOL    HW2 3728   0.626   0.692   1.201 -1.2968  0.0022 -0.6043
  989SOL    HW3 3729   0.549   0.771   1.304  2.4613  1.2707  1.4087
  989SOL    MW4 3730   0.592   0.767   1.229  0.0245 -0.1014  0.3366
  990SOL     OW 3731   2.976   3.877   5.098 -0.0131  0.1618  0.4605
  990SOL    HW2 3732   3.057   3.927   5.110 -1.0057  1.6646  1.2368
  990SOL    HW3 3733   3.005   3.791   5.068  1.6915  1.9110 -3.6126
  990SOL    MW4 3734   2.991   3.872   5.096 -0.1462  0.3501 -0.0244
  991SOL     OW 3735   6.331   5.850   2.278  0.3488 -0.1226  0.2251
  991SOL    HW2 3736   6.371   5.867   2.193  0.9094  1.4402  0.7671
  991SOL    HW3 3737   6.403   5.857   2.341 -0.4760  1.2410  1.0646
  991SOL    MW4 3738   6.346   5.853   2.275 -0.3382  0.1196 -0.0666
  992SOL     OW 3739   3.568   2.848   2.299  0.4672 -0.8587  0.6430
  992SOL    HW2 3740   3.597   2.842   2.390  1.8173 -0.1074  0.2925
  992SOL    HW3 3741   3.570   2.942   2.280 -1.3514 -0.8651  0.2973
  992SOL    MW4 3742   3.572   2.860   2.309 -0.2590  1.1161  0.4061
  993SOL     OW 3743   2.968   3.162   4.060  0.6943  0.1321 -0.2206
  993SOL    HW2 3744   2.989   3.142   3.968 -0.8475 -0.5245 -0.4672
  993SOL    HW3 3745   2.880   3.197   4.057  0.8240  0.5989  0.9787
  993SOL    MW4 3746   2.960   3.164   4.047  0.0441 -0.0760 -0.2246
  994SOL     OW 3747   3.066   4.646   0.246  0.2397  0.7094  0.1601
  994SOL    HW2 3748   3.141   4.607   0.201  0.1658 -0.7769  1.2563
  994SOL    HW3 3749   3.104   4.712   0.304  0.5981  0.6547 -0.0082
  994SOL    MW4 3750   3.081   4.649   0.247  0.4453  0.0746 -0.4172
  995SOL     OW 3751   4.976   0.039   4.575  0.2744 -0.1969 -0.0291
  995SOL    HW2 3752   4.907   0.032   4.641 -0.4226 -0.3034 -0.7641
  995SOL    HW3 3753   5.038  -0.030   4.600 -0.7404 -1.2691 -0.3556
  995SOL    MW4 3754   4.975   0.029   4.587 -0.2700  0.3366 -0.2758
  996SOL     OW 3755   4.276   4.605   0.479 -0.8114  0.2309 -0.5446
  996SOL    HW2 3756   4.193   4.586   0.435 -1.0703 -0.9766  0.4157
  996SOL    HW3 3757   4.285   4.700   0.474 -3.4871  0.7102  1.4779
  996SOL    MW4 3758   4.266   4.615   0.472 -0.0607  0.0279  0.4835
  997SOL     OW 3759   2.138   0.310   3.738  0.1046 -0.3796  0.2339
  997SOL    HW2 3760   2.104   0.367   3.668  0.1041 -0.6355  0.0249
  997SOL    HW3 3761   2.065   0.252   3.760  0.3424 -0.8045 -0.0839
  997SOL    MW4 3762   2.124   0.310   3.732  0.1506  0.1974  0.2821
  998SOL     OW 3763   0.854   2.979   0.763 -0.2264  0.1339 -0.6940
  998SOL    HW2 3764   0.870   2.934   0.847 -0.6267  1.6574  0.2418
  998SOL    HW3 3765   0.913   3.055   0.765  1.1305 -0.7845 -2.6582
  998SOL    MW4 3766   0.864   2.983   0.775  0.7155 -0.2811 -0.7796
  999SOL     OW 3767   3.192   3.569   5.299 -0.6128  0.0327 -0.3987
  999SOL    HW2 3768   3.135   3.523   5.361 -0.9419  1.1253  0.1390
  999SOL    HW3 3769   3.278   3.529   5.312 -1.1015 -1.1477 -0.7136
  999SOL    MW4 3770   3.196   3.558   5.309 -0.2445  0.2706 -0.4220
 1000SOL     OW 3771   5.794   0.896   2.782  0.1918  0.2226 -1.1304
 1000SOL    HW2 3772   5.713   0.844   2.776  1.4040 -1.7558 -1.4588
 1000SOL    HW3 3773   5.823   0.885   2.873 -0.5292  1.9652 -0.6670
 1000SOL    MW4 3774   5.787   0.887   2.793 -0.3929  0.4805  0.1336
 1001SOL     OW 3775   0.069   1.424   3.994  0.2712 -0.4929 -0.3538
 1001SOL    HW2 3776   0.082   1.444   4.086  0.3404 -0.0716 -0.4526
 1001SOL    HW3 3777   0.115   1.341   3.980 -0.9126 -1.2817  0.3013
 1001SOL    MW4 3778   0.077   1.415   4.004  0.3230  0.2162 -0.1953
 1002SOL     OW 3779   3.137   0.502   0.659 -0.0774 -1.0149 -0.7691
 1002SOL    HW2 3780   3.222   0.482   0.619 -0.8140 -0.7577 -2.5804
 1002SOL    HW3 3781   3.098   0.416   0.675  0.6497 -1.1449  0.4284
 1002SOL    MW4 3782   3.143   0.488   0.656  0.7580  0.0939 -0.5776
 1003SOL     OW 3783   3.984   1.778   1.916  0.2625 -0.4487  0.3226
 1003SOL    HW2 3784   3.913   1.811   1.971 -0.1282 -0.7840  0.0244
 1003SOL    HW3 3785   3.946   1.773   1.828 -0.0058 -2.5456  0.5040
 1003SOL    MW4 3786   3.969   1.782   1.912  0.2070 -0.4441 -0.1993
 1004SOL     OW 3787   2.789   3.477   1.374  0.1459 -0.4023 -0.2574
 1004SOL    HW2 3788   2.753   3.506   1.458  1.1869  0.0914  0.0274
 1004SOL    HW3 3789   2.860   3.418   1.398 -0.7006 -1.7184 -0.8224
 1004SOL    MW4 3790   2.793   3.473   1.388 -0.9254 -0.4020  0.1409
 1005SOL     OW 3791   0.788   3.505   0.589  0.2332 -0.8791  0.0546
 1005SOL    HW2 3792   0.739   3.586   0.602  2.0623  0.2813  0.1544
 1005SOL    HW3 3793   0.831   3.516   0.504  0.5698 -1.7057  0.1020
 1005SOL    MW4 3794   0.788   3.517   0.579 -0.3070 -0.2744 -0.1972
 1006SOL     OW 3795   4.353   1.652   0.180 -0.0720 -0.5174  0.0641
 1006SOL    HW2 3796   4.280   1.590   0.181 -0.3432 -0.2159 -0.2913
 1006SOL    HW3 3797   4.358   1.681   0.088  0.4034 -0.4275  0.1176
 1006SOL    MW4 3798   4.344   1.648   0.168  0.2952  0.1091 -0.4254
 1007SOL     OW 3799   4.722   2.389   2.768 -0.3274  0.0013  0.0717
 1007SOL    HW2 3800   4.783   2.356   2.702 -0.6380  0.8039 -0.6277
 1007SOL    HW3 3801   4.747   2.343   2.849  1.3323  0.4543 -0.1528
 1007SOL    MW4 3802   4.734   2.378   2.770  0.5282 -0.1975  0.0992
 1008SOL     OW 3803   2.234   1.492   5.137 -0.8814 -0.4945 -0.1281
 1008SOL    HW2 3804   2.223   1.399   5.156 -1.8096 -0.4362 -0.3389
 1008SOL    HW3 3805   2.173   1.536   5.197  0.5299  0.0818  0.9399
 1008SOL    MW4 3806   2.225   1.486   5.148  0.2396  0.1128  0.0010
 1009SOL     OW 3807   3.246   1.136   4.163  0.0996  0.0513 -0.7123
 1009SOL    HW2 3808   3.331   1.147   4.122  0.1158 -1.3953 -1.1620
 1009SOL    HW3 3809   3.244   1.044   4.190 -1.7067 -0.2724 -1.7096
 1009SOL    MW4 3810   3.257   1.125   4.161 -0.1569 -0.2985 -0.0138
 1010SOL     OW 3811   5.333   3.249   3.685 -0.0876 -0.5571  0.0021
 1010SOL    HW2 3812   5.426   3.230   3.674 -0.0221 -0.1128 -0.2492
 1010SOL    HW3 3813   5.326   3.344   3.673 -0.5032 -0.5199  0.5208
 1010SOL    MW4 3814   5.344   3.259   3.682  0.7533  0.5469 -0.4575
 1011SOL     OW 3815   2.639   3.812   1.479 -0.1628 -0.5105  0.0894
 1011SOL    HW2 3816   2.613   3.831   1.569 -2.1538  0.6633 -0.6514
 1011SOL    HW3 3817   2.731   3.839   1.474 -0.6795  1.7126  1.1999
 1011SOL    MW4 3818   2.648   3.818   1.490 -0.7225  0.0292 -1.1630
 1012SOL     OW 3819   1.041   0.522   0.303 -0.4838 -0.0380 -0.2857
 1012SOL    HW2 3820   1.082   0.497   0.220 -1.6133 -0.0413 -0.8629
 1012SOL    HW3 3821   1.018   0.439   0.344 -0.1848 -0.0303 -0.1004
 1012SOL    MW4 3822   1.043   0.508   0.297 -0.6939  0.4665 -0.5402
 1013SOL     OW 3823   1.089   0.481   1.561 -0.2459  0.3185 -0.4338
 1013SOL    HW2 3824   1.089   0.542   1.635 -1.3454 -0.2031  0.0386
 1013SOL    HW3 3825   1.051   0.530   1.489 -2.1969 -0.0794  0.2476
 1013SOL    MW4 3826   1.084   0.495   1.561 -0.2725  0.4542  0.1805
 1014SOL     OW 3827   5.207   2.068   2.222  0.1073 -0.1732 -0.3659
 1014SOL    HW2 3828   5.268   2.079   2.148 -0.7687 -0.5541 -1.1654
 1014SOL    HW3 3829   5.146   2.141   2.214 -1.0520 -1.1674 -1.1001
 1014SOL    MW4 3830   5.207   2.079   2.211  0.0437  0.1436 -0.7020
 1015SOL     OW 3831   1.172   5.496   3.561  0.3641  0.2607  0.8266
 1015SOL    HW2 3832   1.244   5.491   3.623  1.4207  0.4907 -0.3259
 1015SOL    HW3 3833   1.101   5.541   3.608  1.7275  1.9881  1.3297
 1015SOL    MW4 3834   1.172   5.502   3.575 -0.0041 -1.1508 -0.4305
 1016SOL     OW 3835   2.525   1.540   1.790 -0.1856  0.2208  0.4631
 1016SOL    HW2 3836   2.471   1.617   1.771 -1.3115 -0.7393 -0.4710
 1016SOL    HW3 3837   2.578   1.565   1.865  0.6458  2.4540 -0.7812
 1016SOL    MW4 3838   2.525   1.553   1.797  0.2825 -0.0034  0.6790
 1017SOL     OW 3839   5.561   2.918   4.188 -0.1662 -0.2114  0.1921
 1017SOL    HW2 3840   5.498   2.988   4.200 -1.5963 -1.2743 -0.7823
 1017SOL    HW3 3841   5.538   2.852   4.254 -0.9360 -1.1644 -0.9843
 1017SOL    MW4 3842   5.550   2.918   4.198 -0.2643 -0.4921  0.4014
 1018SOL     OW 3843   1.347   1.136   2.911  0.2778 -0.2151 -0.3947
 1018SOL    HW2 3844   1.305   1.222   2.920 -0.6092 -0.5305 -1.2791
 1018SOL    HW3 3845   1.287   1.075   2.953  0.6295 -0.4764 -0.2665
 1018SOL    MW4 3846   1.334   1.139   2.918 -0.2200  0.1717  0.3620
 1019SOL     OW 3847   3.050   5.990   5.120 -0.4692  0.3143  0.1700
 1019SOL    HW2 3848   3.101   5.992   5.201 -1.3249  1.2681  0.7145
 1019SOL    HW3 3849   2.976   5.933   5.140 -0.6979  0.5764  0.0820
 1019SOL    MW4 3850   3.047   5.983   5.133 -0.3799 -0.4134  0.2810
 1020SOL     OW 3851   3.505   5.892   4.803  0.3322  0.3391  0.0713
 1020SOL    HW2 3852   3.442   5.958   4.832 -0.9662  0.0524 -1.9040
 1020SOL    HW3 3853   3.473   5.865   4.717  1.3882 -2.1677  0.3980
 1020SOL    MW4 3854   3.492   5.897   4.795  0.1203 -0.4589  0.2550
 1021SOL     OW 3855   4.396   0.302   0.426  0.1971  0.4641 -0.3839
 1021SOL    HW2 3856   4.383   0.393   0.454 -1.6026  0.6833 -1.6958
 1021SOL    HW3 3857   4.408   0.309   0.331  2.2272 -0.5331 -0.2430
 1021SOL    MW4 3858   4.396   0.315   0.417 -0.0782 -0.4122 -0.3387
 1022SOL     OW 3859   1.460   2.514   1.126 -0.4980 -0.1880  0.2633
 1022SOL    HW2 3860   1.504   2.527   1.210  1.6209 -0.6178 -0.7032
 1022SOL    HW3 3861   1.478   2.593   1.077 -0.1816 -0.6673 -0.4096
 1022SOL    MW4 3862   1.468   2.526   1.131  0.0120 -0.1048  0.5570
 1023SOL     OW 3863   6.015   5.997   1.324 -0.4472 -0.1686 -0.5936
 1023SOL    HW2 3864   5.942   5.947   1.288 -0.0704 -0.3766 -1.0699
 1023SOL    HW3 3865   6.068   6.022   1.248 -0.7494  1.1567 -0.4069
 1023SOL    MW4 3866   6.012   5.994   1.310  0.3263 -0.0351 -0.0102
 1024SOL     OW 3867   5.715   3.376   1.417 -0.3335  0.6279 -0.0335
 1024SOL    HW2 3868   5.638   3.336   1.378 -0.4954  0.6654  0.2518
 1024SOL    HW3 3869   5.783   3.366   1.350 -0.7853  1.2843 -0.6010
 1024SOL    MW4 3870   5.714   3.370   1.403  0.4794 -0.1052  0.3531
 1025SOL     OW 3871   4.441   3.311   1.790  0.1341  0.9806 -0.0433
 1025SOL    HW2 3872   4.398   3.327   1.874 -0.1178  2.2196 -0.3747
 1025SOL    HW3 3873   4.383   3.252   1.743  0.0811  0.5983  0.4983
 1025SOL    MW4 3874   4.428   3.306   1.795 -0.7583 -0.0224 -0.3668
 1026SOL     OW 3875   5.733   3.684   5.693  0.0749 -0.2365  0.3547
 1026SOL    HW2 3876   5.732   3.624   5.768 -1.3399 -0.7322 -0.0394
 1026SOL    HW3 3877   5.775   3.635   5.623  0.8340  0.0043  0.6339
 1026SOL    MW4 3878   5.738   3.670   5.694  0.4405 -0.2559  0.1117
 1027SOL     OW 3879   5.557   0.544   0.130 -0.1233  0.7266 -0.8589
 1027SOL    HW2 3880   5.649   0.529   0.107 -0.3634  0.2599 -1.5586
 1027SOL    HW3 3881   5.560   0.587   0.216  0.7604  1.2696 -1.1523
 1027SOL    MW4 3882   5.569   0.547   0.138  0.5475  0.3260  0.1241
 1028SOL     OW 3883   0.262   4.885   3.242 -0.0405  0.2522  0.2299
 1028SOL    HW2 3884   0.207   4.936   3.183 -0.9448 -1.2925 -0.3171
 1028SOL    HW3 3885   0.206   4.866   3.317  0.1319 -0.3539  0.2079
 1028SOL    MW4 3886   0.248   4.889   3.244 -1.0823 -0.3578  0.5186
 1029SOL     OW 3887   4.571   3.960   1.649 -0.2720  0.4445  0.0306
 1029SOL    HW2 3888   4.592   3.964   1.742  0.2450  0.5400 -0.0855
 1029SOL    HW3 3889   4.636   3.900   1.612  0.2147  1.2309 -0.4411
 1029SOL    MW4 3890   4.583   3.953   1.656 -0.6567 -0.3050 -0.9005
 1030SOL     OW 3891   1.948   5.206   1.383  0.1433 -0.0687  0.3251
 1030SOL    HW2 3892   1.890   5.183   1.311 -0.1400 -0.0660  0.5500
 1030SOL    HW3 3893   2.015   5.138   1.383  1.4098  1.1049 -1.3211
 1030SOL    MW4 3894   1.949   5.194   1.374  0.4639  0.2817  0.4496
 1031SOL     OW 3895   1.222   1.605   3.543  0.1926  0.0211  0.0536
 1031SOL    HW2 3896   1.292   1.540   3.537  1.0660  0.9855 -0.4741
 1031SOL    HW3 3897   1.158   1.565   3.601 -0.0110 -1.9562 -1.4224
 1031SOL    MW4 3898   1.223   1.591   3.550 -0.8303 -0.2480  0.4206
 1032SOL     OW 3899   5.827   5.786   1.264 -0.3605  0.0600 -0.3478
 1032SOL    HW2 3900   5.879   5.727   1.318  0.1416  1.1656  0.4189
 1032SOL    HW3 3901   5.745   5.796   1.312 -0.5291 -0.1700 -0.5841
 1032SOL    MW4 3902   5.823   5.780   1.277  1.1541  0.0020 -0.4252
 1033SOL     OW 3903   1.820   3.139   1.683 -0.4039 -0.1566  1.0540
 1033SOL    HW2 3904   1.859   3.129   1.770 -0.4612  0.6218  1.1706
 1033SOL    HW3 3905   1.829   3.232   1.663 -0.4839 -0.3166  0.2662
 1033SOL    MW4 3906   1.826   3.150   1.692  0.1194  0.2029 -0.3442
 1034SOL     OW 3907   1.426   0.074   5.560  0.1874  0.7859 -0.6922
 1034SOL    HW2 3908   1.409   0.144   5.623  1.2924 -0.6203  1.2513
 1034SOL    HW3 3909   1.341   0.035   5.544 -0.0367  0.8595  0.2928
 1034SOL    MW4 3910   1.413   0.078   5.566  0.4918 -0.3309  0.8777
 1035SOL     OW 3911   1.612   6.412   2.628  0.0967 -0.1430 -0.1105
 1035SOL    HW2 3912   1.567   6.429   2.710 -0.5595 -0.4585 -0.4018
 1035SOL    HW3 3913   1.566   6.465   2.563 -0.6828 -1.4403 -0.6473
 1035SOL    MW4 3914   1.600   6.421   2.630  0.4772 -0.6390 -0.3507
 1036SOL     OW 3915   3.823   2.496   2.575 -0.0768 -0.1379  0.1020
 1036SOL    HW2 3916   3.888   2.425   2.578  0.6881  0.5771  1.3917
 1036SOL    HW3 3917   3.875   2.576   2.582 -0.7574  0.7395 -3.2575
 1036SOL    MW4 3918   3.839   2.497   2.577  0.6711  0.0956 -0.2520
 1037SOL     OW 3919   1.340   6.389   3.383  0.6662  0.0290 -0.0525
 1037SOL    HW2 3920   1.369   6.310   3.429  0.6224  0.9737  1.6822
 1037SOL    HW3 3921   1.418   6.444   3.379 -0.0890  1.3507  1.9757
 1037SOL    MW4 3922   1.354   6.386   3.388  0.0123  0.0087  0.2462
 1038SOL     OW 3923   3.694   3.816   5.844  0.1080 -0.3173  0.3807
 1038SOL    HW2 3924   3.713   3.826   5.937 -0.0230  3.4996  0.1370
 1038SOL    HW3 3925   3.777   3.787   5.805  1.6054  2.5549  1.1722
 1038SOL    MW4 3926   3.707   3.813   5.851 -0.2701 -0.0124 -0.0058
 1039SOL     OW 3927   3.054   4.181   6.216 -0.0102  0.4306 -0.6334
 1039SOL    HW2 3928   2.991   4.148   6.280  0.8051  1.4475  0.7327
 1039SOL    HW3 3929   3.006   4.181   6.133 -0.2381 -3.7169 -0.7158
 1039SOL    MW4 3930   3.039   4.176   6.213 -0.5343  0.1619  0.2204
 1040SOL     OW 3931   4.364   2.350   6.237  0.1547  0.0888 -0.3508
 1040SOL    HW2 3932   4.345   2.315   6.324 -0.7874  0.2450 -0.4826
 1040SOL    HW3 3933   4.432   2.416   6.252  0.7225 -0.5928  0.1239
 1040SOL    MW4 3934   4.370   2.354   6.251 -0.6730  0.3243 -0.4351
 1041SOL     OW 3935   0.444   3.353   4.374  0.3437 -0.5583 -0.3133
 1041SOL    HW2 3936   0.502   3.317   4.307  2.1747  0.8559  0.4491
 1041SOL    HW3 3937   0.478   3.320   4.456 -0.0722  0.1104  0.1374
 1041SOL    MW4 3938   0.456   3.344   4.376 -0.2410  0.2033  0.2280
 1042SOL     OW 3939   4.693   0.350   0.401  0.0565 -0.0589  0.4107
 1042SOL    HW2 3940   4.607   0.385   0.380 -0.5120 -0.7920  1.4130
 1042SOL    HW3 3941   4.675   0.266   0.445  1.3545 -1.3790 -1.4455
 1042SOL    MW4 3942   4.679   0.344   0.404  0.1384 -0.1895  0.1349
 1043SOL     OW 3943   3.716   4.589   1.192 -0.1824  0.3175 -0.8076
 1043SOL    HW2 3944   3.754   4.648   1.127  0.0013  2.3341  0.9944
 1043SOL    HW3 3945   3.782   4.522   1.205  0.0813  0.2896 -2.1528
 1043SOL    MW4 3946   3.730   4.588   1.185  0.2891 -0.2757 -0.7778
 1044SOL     OW 3947   5.631   1.464   2.171 -0.7443  0.2340  0.8229
 1044SOL    HW2 3948   5.634   1.464   2.075 -1.3027  0.3853  0.8053
 1044SOL    HW3 3949   5.566   1.398   2.193 -1.3604  0.9170  1.0744
 1044SOL    MW4 3950   5.623   1.455   2.161  0.5666 -0.0581 -0.4053
 1045SOL     OW 3951   4.592   3.884   0.408  0.0583  0.0726 -0.4139
 1045SOL    HW2 3952   4.518   3.943   0.421  0.2853  0.0767  0.9511
 1045SOL    HW3 3953   4.571   3.837   0.327 -1.1311  0.5080 -0.3794
 1045SOL    MW4 3954   4.580   3.886   0.399 -0.5249  0.7493  0.5175
 1046SOL     OW 3955   1.691   5.417   1.556 -0.1140  0.6347 -0.1603
 1046SOL    HW2 3956   1.626   5.469   1.604  0.3265 -0.1040  1.3243
 1046SOL    HW3 3957   1.644   5.384   1.480 -2.0059 -1.1374  1.6335
 1046SOL    MW4 3958   1.676   5.419   1.553 -0.4082  0.4778  0.4897
 1047SOL     OW 3959   0.432   0.725   4.673 -0.3495 -0.1697 -0.0435
 1047SOL    HW2 3960   0.389   0.686   4.597 -0.4755 -0.6514  0.2690
 1047SOL    HW3 3961   0.363   0.732   4.739 -0.8001  2.2873 -0.6660
 1047SOL    MW4 3962   0.417   0.721   4.672  0.1083  0.1713  0.3049
 1048SOL     OW 3963   5.231   3.040   0.551  0.0525 -0.5851  0.1929
 1048SOL    HW2 3964   5.298   3.081   0.606  2.3715  2.7446 -4.4028
 1048SOL    HW3 3965   5.151   3.089   0.570  1.1040  1.3459 -0.0873
 1048SOL    MW4 3966   5.229   3.052   0.561  0.4269 -0.3229 -0.7390
 1049SOL     OW 3967   4.743   4.536   5.987 -0.1837  0.2506  0.6492
 1049SOL    HW2 3968   4.728   4.595   5.913  0.9472  0.3251  0.4709
 1049SOL    HW3 3969   4.672   4.472   5.981  0.3664 -0.2510 -1.0056
 1049SOL    MW4 3970   4.731   4.536   5.976  0.0862  0.4485  0.5301
 1050SOL     OW 3971   0.414   0.483   5.363  0.0837  0.0266  0.2665
 1050SOL    HW2 3972   0.480   0.413   5.358  0.1356  0.1546 -1.0568
 1050SOL    HW3 3973   0.433   0.527   5.446  0.9042 -0.6900  0.4813
 1050SOL    MW4 3974   0.426   0.479   5.373  0.2484  1.2071  0.2429
 1051SOL     OW 3975   4.401   0.743   3.027  0.6834  0.2214 -0.1158
 1051SOL    HW2 3976   4.378   0.686   3.101  0.7594  1.2508  0.7382
 1051SOL    HW3 3977   4.347   0.822   3.040 -1.7161 -0.7766 -2.9553
 1051SOL    MW4 3978   4.391   0.746   3.039  0.4131 -0.2374 -0.2894
 1052SOL     OW 3979   3.211   1.920   3.570 -0.2833 -0.2415  0.3956
 1052SOL    HW2 3980   3.170   1.847   3.617 -1.1630  0.4041  0.6475
 1052SOL    HW3 3981   3.158   1.996   3.592  1.2737  0.7118  1.0651
 1052SOL    MW4 3982   3.199   1.920   3.579  0.5163  0.1112  0.2134
 1053SOL     OW 3983   3.252   6.025   2.724 -0.2170 -0.4921 -0.2995
 1053SOL    HW2 3984   3.281   6.117   2.727  1.4491 -0.9917  1.8808
 1053SOL    HW3 3985   3.162   6.027   2.758 -0.2374  0.3400 -0.3795
 1053SOL    MW4 3986   3.244   6.038   2.729  0.1886 -0.1353 -0.2739
 1054SOL     OW 3987   3.949   4.142   4.725 -0.2054  0.5789  0.3442
 1054SOL    HW2 3988   4.003   4.211   4.686  2.1380 -0.2467  1.9256
 1054SOL    HW3 3989   3.992   4.122   4.808 -1.6447 -1.7840  0.6050
 1054SOL    MW4 3990   3.962   4.148   4.731  0.2775 -0.1756 -0.5007
 1055SOL     OW 3991   1.427   0.747   0.156  0.2362  0.2478 -0.0539
 1055SOL    HW2 3992   1.522   0.762   0.155  0.1973  0.5224 -0.7403
 1055SOL    HW3 3993   1.417   0.652   0.149  0.4678  0.2439 -0.3850
 1055SOL    MW4 3994   1.438   0.736   0.155 -0.1689 -0.2228 -0.2478
 1056SOL     OW 3995   4.051   5.802   5.514 -0.2830 -0.2482  0.3649
 1056SOL    HW2 3996   4.048   5.859   5.591  2.1981  0.0678  0.3233
 1056SOL    HW3 3997   3.967   5.816   5.470  0.1099  3.3203  0.4505
 1056SOL    MW4 3998   4.040   5.812   5.519 -0.2710 -0.5186  0.6756
 1057SOL     OW 3999   3.210   1.942   0.048 -0.4253 -0.0091  0.0835
 1057SOL    HW2 4000   3.133   1.958   0.103  0.8149  0.5623  1.7327
 1057SOL    HW3 4001   3.277   2.001   0.082  1.0816 -1.2650 -0.5856
 1057SOL    MW4 4002   3.209   1.952   0.060  0.1907  0.1315 -0.7697
 1058SOL     OW 4003   2.882   0.469   3.549  0.4866 -0.1186 -0.1357
 1058SOL    HW2 4004   2.859   0.561   3.564 -0.5347 -0.2966 -0.5940
 1058SOL    HW3 4005   2.840   0.446   3.467 -0.3714 -1.3708  0.6199
 1058SOL    MW4 4006   2.874   0.478   3.540 -1.0772  0.7752  0.2500
 1059SOL     OW 4007   3.503   5.028   2.037 -0.2050 -0.0212  0.5875
 1059SOL    HW2 4008   3.505   5.080   1.957  1.0044 -0.3720  0.3723
 1059SOL    HW3 4009   3.421   4.980   2.032  0.3193 -0.8042 -0.9477
 1059SOL    MW4 4010   3.492   5.029   2.026  0.1225  0.1437  0.5101
 1060SOL     OW 4011   5.287   0.541   5.161  0.1073  0.3368  0.1334
 1060SOL    HW2 4012   5.259   0.531   5.252 -0.6359  2.5326  0.2113
 1060SOL    HW3 4013   5.360   0.603   5.165  2.1729 -1.9164 -0.5228
 1060SOL    MW4 4014   5.293   0.548   5.173 -0.0410  0.0158 -0.0887
 1061SOL     OW 4015   1.239   1.686   1.819  0.3315  0.1353 -0.1921
 1061SOL    HW2 4016   1.319   1.646   1.785  0.4565 -0.2903  0.5770
 1061SOL    HW3 4017   1.202   1.734   1.745 -0.4060 -2.2529 -1.4406
 1061SOL    MW4 4018   1.245   1.687   1.805 -0.3674  0.0291 -0.3675
 1062SOL     OW 4019   2.394   2.331   6.040 -0.2499 -0.0985 -0.2991
 1062SOL    HW2 4020   2.406   2.247   5.995 -0.0748 -0.8438  1.0970
 1062SOL    HW3 4021   2.418   2.314   6.131 -1.9359  1.0181  0.4138
 1062SOL    MW4 4022   2.399   2.318   6.046  0.4215 -0.8817  0.2391
 1063SOL     OW 4023   1.240   2.571   1.715 -0.2938  0.5048  0.6396
 1063SOL    HW2 4024   1.335   2.584   1.712  0.1043 -1.9274 -1.7436
 1063SOL    HW3 4025   1.204   2.650   1.678  1.0783  0.2040 -1.5254
 1063SOL    MW4 4026   1.248   2.583   1.710 -0.5038  0.7519  0.1161
 1064SOL     OW 4027   3.587   0.787   0.992  0.3094 -0.1587 -0.2223
 1064SOL    HW2 4028   3.526   0.857   1.011  0.3497 -0.3247  0.5348
 1064SOL    HW3 4029   3.538   0.726   0.936  0.0104  0.0534 -0.1911
 1064SOL    MW4 4030   3.573   0.788   0.987 -0.3924  0.3969  0.4972
 1065SOL     OW 4031   5.654   4.156   0.772 -0.1109 -0.1332  0.4069
 1065SOL    HW2 4032   5.716   4.104   0.720 -0.7118 -0.9923  0.5297
 1065SOL    HW3 4033   5.588   4.185   0.709  1.1917  2.1000 -0.0364
 1065SOL    MW4 4034   5.654   4.153   0.757  0.6306  0.0090  0.5018
 1066SOL     OW 4035   3.202   4.364   6.071 -0.1337  0.3501 -0.0928
 1066SOL    HW2 4036   3.268   4.299   6.047  0.1931 -0.3481  2.3277
 1066SOL    HW3 4037   3.144   4.317   6.132 -0.0644  2.2296  1.5079
 1066SOL    MW4 4038   3.203   4.349   6.076 -0.2855  0.2581 -0.0372
 1067SOL     OW 4039   3.864   0.626   2.009 -0.1306 -0.0041 -0.0337
 1067SOL    HW2 4040   3.892   0.702   1.958 -2.4806 -0.3172 -1.9771
 1067SOL    HW3 4041   3.910   0.552   1.968 -1.4106 -0.1548 -1.2703
 1067SOL    MW4 4042   3.874   0.626   1.997 -0.2531 -0.2321 -0.4682
 1068SOL     OW 4043   4.085   2.209   6.420  0.2850 -0.2367 -0.2847
 1068SOL    HW2 4044   4.155   2.189   6.482 -0.3366  0.4782  0.6620
 1068SOL    HW3 4045   4.004   2.190   6.468 -0.2356  1.3636 -0.4789
 1068SOL    MW4 4046   4.083   2.204   6.434  0.7098 -0.6734  0.2121
 1069SOL     OW 4047   4.311   5.897   1.805  0.1080  0.6226  0.3046
 1069SOL    HW2 4048   4.285   5.815   1.848 -1.2836  0.3906 -0.9030
 1069SOL    HW3 4049   4.347   5.869   1.721 -0.2384  1.2381 -0.0512
 1069SOL    MW4 4050   4.312   5.882   1.800 -0.3185 -0.4515  0.1471
 1070SOL     OW 4051   0.623   2.671   3.126 -0.1985  0.1143 -0.6828
 1070SOL    HW2 4052   0.648   2.580   3.114 -0.2102 -0.3225  2.0205
 1070SOL    HW3 4053   0.556   2.686   3.059  0.3874 -1.5986 -1.7115
 1070SOL    MW4 4054   0.617   2.661   3.116 -0.1060 -0.3116  0.0919
 1071SOL     OW 4055   5.461   0.113   2.124 -0.2511  0.7892 -0.1550
 1071SOL    HW2 4056   5.540   0.071   2.158 -0.0931  2.8080  2.2843
 1071SOL    HW3 4057   5.488   0.153   2.041  0.9185  0.3031 -0.0196
 1071SOL    MW4 4058   5.475   0.113   2.118  0.1699 -0.3207 -0.3864
 1072SOL     OW 4059   3.704   4.853   2.824  0.5046  0.2284 -0.0130
 1072SOL    HW2 4060   3.670   4.928   2.872  1.3353  0.5886  0.0333
 1072SOL    HW3 4061   3.794   4.844   2.855  0.5780 -0.4644 -0.4084
 1072SOL    MW4 4062   3.712   4.862   2.835  0.0447  0.2078 -0.2333
 1073SOL     OW 4063   1.730   2.066   2.672 -0.0062 -0.0069 -0.1319
 1073SOL    HW2 4064   1.685   1.997   2.722  2.1649 -2.1282 -0.8942
 1073SOL    HW3 4065   1.763   2.126   2.740  0.7394 -1.4641  0.8548
 1073SOL    MW4 4066   1.729   2.065   2.688  0.2150  0.2423  0.2628
 1074SOL     OW 4067   4.305   3.413   1.152 -0.0984 -0.1210 -0.0559
 1074SOL    HW2 4068   4.290   3.319   1.147 -0.7857 -0.2060  2.1517
 1074SOL    HW3 4069   4.398   3.424   1.133  0.1841 -1.3668  0.4880
 1074SOL    MW4 4070   4.315   3.402   1.149  0.0515  0.2703  0.3028
 1075SOL     OW 4071   2.469   6.157   3.164  0.5072 -0.3602 -0.5519
 1075SOL    HW2 4072   2.417   6.199   3.095 -0.6562  0.6482  0.8651
 1075SOL    HW3 4073   2.410   6.092   3.202  0.3511  0.5642  0.8574
 1075SOL    MW4 4074   2.454   6.154   3.160  0.1665  0.5944  0.2159
 1076SOL     OW 4075   1.240   5.855   2.374  0.5040  0.7207  0.4435
 1076SOL    HW2 4076   1.273   5.861   2.285  1.8901 -0.0331  0.8773
 1076SOL    HW3 4077   1.205   5.942   2.392 -2.1416  0.2235 -1.6504
 1076SOL    MW4 4078   1.240   5.867   2.365 -0.2704 -0.0165 -0.0880
 1077SOL     OW 4079   5.334   5.316   3.388  0.3136 -0.3674 -0.0572
 1077SOL    HW2 4080   5.332   5.402   3.430  2.3761  0.4665 -1.4650
 1077SOL    HW3 4081   5.408   5.270   3.429  1.0763 -0.3025 -1.2938
 1077SOL    MW4 4082   5.344   5.321   3.399 -0.1043 -0.1719  0.0777
 1078SOL     OW 4083   4.940   2.304   2.581  0.3117 -0.2074 -1.0200
 1078SOL    HW2 4084   4.983   2.219   2.574  1.1360  0.2879 -2.3528
 1078SOL    HW3 4085   5.008   2.363   2.613  0.0279  0.1485 -1.0666
 1078SOL    MW4 4086   4.955   2.300   2.584  0.2689  0.4952 -0.1913
 1079SOL     OW 4087   0.482   1.223   3.979 -0.4203 -0.5413 -0.1152
 1079SOL    HW2 4088   0.398   1.192   3.945 -1.1875  0.7900  0.5017
 1079SOL    HW3 4089   0.503   1.162   4.050 -0.9824 -0.7461 -0.1180
 1079SOL    MW4 4090   0.474   1.211   3.984 -0.3609 -0.1189 -0.0720
 1080SOL     OW 4091   1.345   1.769   0.358  0.2296  0.0656 -0.3206
 1080SOL    HW2 4092   1.394   1.795   0.436 -0.7913  0.6195  0.1514
 1080SOL    HW3 4093   1.412   1.738   0.297  1.1758  0.9174  0.2577
 1080SOL    MW4 4094   1.360   1.768   0.360 -0.0143 -0.1312 -0.0107
 1081SOL     OW 4095   4.256   2.665   4.016 -0.0899 -0.0800  0.8704
 1081SOL    HW2 4096   4.216   2.581   4.039 -1.3957  0.4284  0.5455
 1081SOL    HW3 4097   4.190   2.709   3.962  0.2252  1.5106  1.7252
 1081SOL    MW4 4098   4.242   2.660   4.012  0.6980  0.4467 -0.2365
 1082SOL     OW 4099   6.059   6.105   4.679 -0.0577  0.0172  1.2062
 1082SOL    HW2 4100   6.141   6.071   4.643 -0.1577  2.1139 -1.3271
 1082SOL    HW3 4101   5.997   6.033   4.670  0.1157  0.1272 -2.4829
 1082SOL    MW4 4102   6.062   6.091   4.673  0.5036  0.3973 -0.0687
 1083SOL     OW 4103   3.301   0.070   6.089  0.1102 -0.0110 -0.0053
 1083SOL    HW2 4104   3.274   0.127   6.017  0.0910  0.4482  0.3550
 1083SOL    HW3 4105   3.396   0.080   6.093  0.0305  0.6075  0.5496
 1083SOL    MW4 4106   3.310   0.079   6.080  0.5248  0.1268  0.3009
 1084SOL     OW 4107   4.281   2.487   3.395 -0.2698  0.0219 -0.0500
 1084SOL    HW2 4108   4.369   2.517   3.370  0.4659 -1.3196  0.7796
 1084SOL    HW3 4109   4.229   2.495   3.315  0.8393  0.0657 -0.7896
 1084SOL    MW4 4110   4.286   2.492   3.381  0.4336  0.5752  0.0877
 1085SOL     OW 4111   6.116   4.673   0.769  0.1222  0.0151 -0.2702
 1085SOL    HW2 4112   6.183   4.678   0.700  1.2564 -0.1833  0.7783
 1085SOL    HW3 4113   6.067   4.594   0.749  1.0246 -0.5421 -0.3560
 1085SOL    MW4 4114   6.118   4.663   0.757  0.2574 -0.3153  0.4268
 1086SOL     OW 4115   5.221   0.039   1.339 -0.1206 -0.5072  0.1892
 1086SOL    HW2 4116   5.157  -0.025   1.309 -1.6810  1.1717 -0.2346
 1086SOL    HW3 4117   5.208   0.042   1.434 -0.9478  0.0844  0.0666
 1086SOL    MW4 4118   5.211   0.031   1.348 -0.3067 -0.1249  0.2721
 1087SOL     OW 4119   3.647   2.768   2.551  0.0402 -0.3250 -0.0457
 1087SOL    HW2 4120   3.648   2.757   2.646 -0.5533  1.5449  0.2098
 1087SOL    HW3 4121   3.737   2.786   2.528 -0.0420  0.6845  0.3774
 1087SOL    MW4 4122   3.659   2.769   2.561 -0.0224 -0.2110 -0.0647
 1088SOL     OW 4123   5.863   2.269   4.472 -0.1375 -0.0977 -0.0674
 1088SOL    HW2 4124   5.855   2.362   4.449  0.4151  0.0831  0.4257
 1088SOL    HW3 4125   5.865   2.269   4.568  1.6152 -0.4446 -0.0659
 1088SOL    MW4 4126   5.862   2.282   4.482  0.5110  0.1676 -0.3855
 1089SOL     OW 4127   4.329   1.296   5.330 -0.0359  0.0673  0.3346
 1089SOL    HW2 4128   4.245   1.283   5.374  0.1884 -0.2505  0.6731
 1089SOL    HW3 4129   4.357   1.208   5.306  0.4007  0.1311  0.5993
 1089SOL    MW4 4130   4.322   1.283   5.333 -0.1286  0.1326 -0.7313
 1090SOL     OW 4131   2.668   4.074   5.486 -0.6819 -0.4057 -0.3037
 1090SOL    HW2 4132   2.731   4.032   5.426 -0.1314  1.5051 -1.1369
 1090SOL    HW3 4133   2.586   4.027   5.470 -0.0266 -1.4165 -0.8988
 1090SOL    MW4 4134   2.666   4.062   5.476  0.2719 -0.3621  0.6552
 1091SOL     OW 4135   5.370   6.327   0.959  0.0384  0.2376 -0.5855
 1091SOL    HW2 4136   5.343   6.407   1.005 -1.8434 -1.4361  1.4154
 1091SOL    HW3 4137   5.465   6.325   0.969 -0.2024  0.2215  2.9800
 1091SOL    MW4 4138   5.379   6.337   0.967  0.1434  0.6318  0.0120
 1092SOL     OW 4139   4.215   2.498   0.942 -0.2971 -0.3484  0.0177
 1092SOL    HW2 4140   4.142   2.491   0.881 -0.4150  0.0299  0.1121
 1092SOL    HW3 4141   4.215   2.415   0.990 -0.6679 -0.3480  0.0202
 1092SOL    MW4 4142   4.205   2.486   0.941 -0.1122 -0.2620  0.0232
 1093SOL     OW 4143   1.719   0.593   0.268  0.2526 -0.0275 -0.2898
 1093SOL    HW2 4144   1.771   0.589   0.349  1.2357 -1.2945 -0.9414
 1093SOL    HW3 4145   1.710   0.686   0.250  0.5691  0.2642  0.9228
 1093SOL    MW4 4146   1.725   0.605   0.277  0.1518  0.3437 -0.6429
 1094SOL     OW 4147   0.714   1.879   5.479  0.1709 -0.9226  0.4964
 1094SOL    HW2 4148   0.718   1.830   5.397 -0.3264 -0.9100  0.4597
 1094SOL    HW3 4149   0.621   1.898   5.491  0.2392 -0.9139  1.0544
 1094SOL    MW4 4150   0.702   1.875   5.470  0.0596  0.5501  0.2057
 1095SOL     OW 4151   6.122   2.601   3.303  0.3035  0.0609 -0.0375
 1095SOL    HW2 4152   6.131   2.696   3.300  0.9544 -0.0102 -1.9680
 1095SOL    HW3 4153   6.064   2.584   3.377 -0.3597  2.0023 -0.0677
 1095SOL    MW4 4154   6.116   2.611   3.312  0.3467 -0.1872  0.7090
 1096SOL     OW 4155   4.018   0.678   3.861 -0.3314 -0.3188 -0.1735
 1096SOL    HW2 4156   4.045   0.728   3.784 -1.5244  3.6801  1.7501
 1096SOL    HW3 4157   4.098   0.666   3.911 -0.0875  0.0737 -0.4615
 1096SOL    MW4 4158   4.032   0.683   3.857  0.3146 -0.3676  0.3018
 1097SOL     OW 4159   2.120   4.234   2.125 -0.5628 -0.3684 -0.3187
 1097SOL    HW2 4160   2.054   4.174   2.090  1.4491 -3.1189  0.2570
 1097SOL    HW3 4161   2.129   4.301   2.058 -3.2999 -0.3652 -0.7722
 1097SOL    MW4 4162   2.112   4.235   2.111 -0.0353  0.0494  0.0064
 1098SOL     OW 4163   0.318   4.032   3.475 -0.8090 -0.2958 -0.7387
 1098SOL    HW2 4164   0.332   4.006   3.566 -1.2514 -0.1124 -0.6177
 1098SOL    HW3 4165   0.382   4.102   3.460 -2.7431  1.8354  0.3712
 1098SOL    MW4 4166   0.328   4.038   3.485 -0.2259 -0.0772 -0.0044
 1099SOL     OW 4167   1.144   0.135   3.301  0.1679 -0.6615 -0.4383
 1099SOL    HW2 4168   1.218   0.093   3.346  0.5017  0.0275 -0.3235
 1099SOL    HW3 4169   1.185   0.187   3.232  0.0063  1.4403  0.9535
 1099SOL    MW4 4170   1.160   0.136   3.298 -0.3643 -0.1457 -0.0720
 1100SOL     OW 4171   4.729   2.086   4.683 -0.2185  0.2538  0.1586
 1100SOL    HW2 4172   4.799   2.112   4.742 -0.1032  0.2700  0.0146
 1100SOL    HW3 4173   4.755   2.121   4.597 -0.1621 -0.1564  0.0033
 1100SOL    MW4 4174   4.741   2.094   4.679  0.1222 -0.0492  0.0509
 1101SOL     OW 4175   2.373   2.696   4.913  0.0674  0.1777  0.0229
 1101SOL    HW2 4176   2.399   2.704   5.005 -1.0695 -0.2788  0.4033
 1101SOL    HW3 4177   2.385   2.784   4.878 -0.1654  0.5378  0.8040
 1101SOL    MW4 4178   2.378   2.708   4.921  0.2297  0.9901 -0.2601
 1102SOL     OW 4179   5.324   5.630   0.548  0.3017 -0.1888 -0.7996
 1102SOL    HW2 4180   5.415   5.637   0.576 -0.2878  1.0905  0.9362
 1102SOL    HW3 4181   5.276   5.692   0.603 -1.3640  0.5711 -2.9202
 1102SOL    MW4 4182   5.329   5.639   0.559  0.0349 -0.6060 -0.4247
 1103SOL     OW 4183   5.849   2.581   4.988  0.9132  0.4404  0.3929
 1103SOL    HW2 4184   5.934   2.557   5.026  0.2404 -0.0976  1.6128
 1103SOL    HW3 4185   5.806   2.631   5.057 -0.8924 -1.6999  0.9330
 1103SOL    MW4 4186   5.854   2.585   5.002 -0.0715  0.0642  0.2594
 1104SOL     OW 4187   6.050   4.756   3.336  0.2796  0.2694 -0.0998
 1104SOL    HW2 4188   5.978   4.753   3.399 -0.3145  1.2150 -0.7017
 1104SOL    HW3 4189   6.121   4.800   3.382 -0.6074  2.2237 -0.4695
 1104SOL    MW4 4190   6.050   4.762   3.350 -0.0274  0.4103 -0.5246
 1105SOL     OW 4191   4.476   2.421   0.457 -0.2658 -0.1177 -0.3905
 1105SOL    HW2 4192   4.440   2.451   0.541 -2.5883 -0.2350 -1.2588
 1105SOL    HW3 4193   4.400   2.387   0.410  0.7581  0.9873 -3.0119
 1105SOL    MW4 4194   4.461   2.420   0.462  0.2750 -0.3292 -0.4550
 1106SOL     OW 4195   4.426   5.047   1.596 -0.1801  0.4450  0.2906
 1106SOL    HW2 4196   4.370   4.987   1.548  1.6991 -0.4311 -0.9288
 1106SOL    HW3 4197   4.501   5.063   1.538  0.0168  2.9896  1.0950
 1106SOL    MW4 4198   4.429   5.042   1.582  0.0436 -0.4607  0.2151
 1107SOL     OW 4199   5.770   0.578   1.904  0.6363  0.2655  0.0189
 1107SOL    HW2 4200   5.862   0.599   1.916  0.7216 -0.5207  0.8343
 1107SOL    HW3 4201   5.728   0.663   1.889  1.6084  0.5395 -1.3035
 1107SOL    MW4 4202   5.776   0.592   1.904  0.4726  0.1229  0.0970
 1108SOL     OW 4203   4.295   2.930   3.647  0.7788 -0.2018 -0.0773
 1108SOL    HW2 4204   4.214   2.884   3.667  0.0265  0.6279 -1.1247
 1108SOL    HW3 4205   4.323   2.965   3.732 -0.0559 -0.3484  0.2721
 1108SOL    MW4 4206   4.288   2.929   3.661 -0.1254 -0.1864  0.1447
 1109SOL     OW 4207   5.222   3.624   2.026 -0.0409 -1.4747 -0.3959
 1109SOL    HW2 4208   5.252   3.692   1.966  1.5271 -0.8732  0.9970
 1109SOL    HW3 4209   5.135   3.653   2.054  0.0045 -0.8103 -0.9301
 1109SOL    MW4 4210   5.214   3.637   2.022  0.0907  0.3295 -0.8113
 1110SOL     OW 4211   2.959   4.800   3.827  0.1728 -0.4782 -0.3587
 1110SOL    HW2 4212   2.898   4.741   3.783 -2.7179  0.8047  1.5694
 1110SOL    HW3 4213   2.989   4.859   3.758 -1.9895 -0.2671 -1.1891
 1110SOL    MW4 4214   2.955   4.800   3.812 -0.4346  0.6848 -0.1710
 1111SOL     OW 4215   5.120   5.940   0.928 -0.1523 -0.5737  0.2244
 1111SOL    HW2 4216   5.188   5.895   0.877  0.6279  0.7091  0.0987
 1111SOL    HW3 4217   5.121   5.896   1.013  2.0678  0.4852  0.8233
 1111SOL    MW4 4218   5.129   5.928   0.933  0.8523  0.0045 -0.0334
 1112SOL     OW 4219   2.941   0.695   2.579 -0.4369 -0.1171  0.6869
 1112SOL    HW2 4220   3.022   0.744   2.591  0.6753 -1.4555 -0.9127
 1112SOL    HW3 4221   2.903   0.730   2.498 -1.5674  0.5791  1.4775
 1112SOL    MW4 4222   2.946   0.706   2.570 -0.2325  0.0466 -0.5988
 1113SOL     OW 4223   5.261   0.420   2.549 -0.4595  0.1794 -0.4190
 1113SOL    HW2 4224   5.296   0.400   2.462 -1.6646 -0.1264 -0.8510
 1113SOL    HW3 4225   5.327   0.387   2.610  0.2614  0.1304 -1.2053
 1113SOL    MW4 4226   5.274   0.413   2.546 -0.1301  0.5791  0.2255
 1114SOL     OW 4227   5.914   6.108   1.567  0.1905  0.4493  0.0519
 1114SOL    HW2 4228   5.981   6.170   1.596  0.4046  0.1313  0.2498
 1114SOL    HW3 4229   5.933   6.092   1.475  0.5359  0.1819  0.1651
 1114SOL    MW4 4230   5.925   6.114   1.559 -0.3339  0.0935  0.0021
 1115SOL     OW 4231   0.046   5.568   1.252  0.1751 -0.2176  0.5136
 1115SOL    HW2 4232   0.032   5.475   1.267  0.0471 -0.4477 -0.9376
 1115SOL    HW3 4233   0.115   5.571   1.185 -1.7875  0.6435 -1.5710
 1115SOL    MW4 4234   0.053   5.556   1.245  0.1195 -0.4086  0.1976
 1116SOL     OW 4235   5.326   4.376   5.740 -0.3021  0.1472 -0.5243
 1116SOL    HW2 4236   5.318   4.442   5.809  0.0231  0.9890 -1.2606
 1116SOL    HW3 4237   5.391   4.314   5.772  1.6572  1.8407 -1.0501
 1116SOL    MW4 4238   5.333   4.377   5.753  0.0345 -0.4359  0.4045
 1117SOL     OW 4239   2.276   6.072   2.384  0.6584 -0.1789 -0.5557
 1117SOL    HW2 4240   2.201   6.084   2.326 -0.3218 -1.0960  0.4725
 1117SOL    HW3 4241   2.253   6.119   2.464  0.2349 -2.1204  0.5298
 1117SOL    MW4 4242   2.263   6.080   2.387  0.0984 -0.2078  0.1070
 1118SOL     OW 4243   4.626   0.052   3.997 -0.2670  0.2319 -0.7194
 1118SOL    HW2 4244   4.577   0.135   3.997  2.2829  1.8534 -0.1379
 1118SOL    HW3 4245   4.649   0.038   4.089 -0.0241 -0.7098 -0.9197
 1118SOL    MW4 4246   4.623   0.061   4.009  0.4898  0.1871 -0.1159
 1119SOL     OW 4247   5.876   1.899   4.475 -0.1218  0.9171 -0.3266
 1119SOL    HW2 4248   5.873   1.911   4.380 -0.2516  3.3073 -0.0751
 1119SOL    HW3 4249   5.961   1.933   4.501  0.1724 -0.2950  0.3787
 1119SOL    MW4 4250   5.887   1.905   4.466  0.1316 -0.1075  0.2955
 1120SOL     OW 4251   4.503   1.727   1.974  0.4319 -0.2611  0.1056
 1120SOL    HW2 4252   4.413   1.726   2.006  1.0668 -1.0048  2.0784
 1120SOL    HW3 4253   4.502   1.672   1.896 -0.5892 -1.5277  0.9640
 1120SOL    MW4 4254   4.491   1.719   1.968  0.0909 -0.6567  0.1685
 1121SOL     OW 4255   0.730   5.208   0.422 -0.5792 -0.4600 -0.0533
 1121SOL    HW2 4256   0.680   5.273   0.371 -1.7176 -0.1303  1.4111
 1121SOL    HW3 4257   0.807   5.256   0.452 -0.5896 -0.2676 -0.3232
 1121SOL    MW4 4258   0.734   5.223   0.419 -0.7204 -0.2940 -0.0559
 1122SOL     OW 4259   3.390   0.664   0.808  0.1435 -0.0145  0.1997
 1122SOL    HW2 4260   3.298   0.677   0.834  0.9309  0.5640  3.1702
 1122SOL    HW3 4261   3.409   0.574   0.834  0.4543 -0.0895 -0.2938
 1122SOL    MW4 4262   3.380   0.654   0.815  0.3055 -0.2610 -0.1055
 1123SOL     OW 4263   4.766   6.337   2.670 -0.0240  0.5163  0.1106
 1123SOL    HW2 4264   4.718   6.371   2.595 -0.0919  0.3983  0.1001
 1123SOL    HW3 4265   4.791   6.414   2.720 -0.8872  0.5310  0.5260
 1123SOL    MW4 4266   4.763   6.352   2.666 -0.1844 -0.1488 -0.1871
 1124SOL     OW 4267   1.545   3.705   0.527  0.2185  0.2882 -0.0289
 1124SOL    HW2 4268   1.510   3.790   0.502 -0.5392 -0.3811 -1.3570
 1124SOL    HW3 4269   1.520   3.695   0.619 -1.7064  0.5294 -0.4762
 1124SOL    MW4 4270   1.537   3.715   0.536  0.0466  0.4026 -0.2069
 1125SOL     OW 4271   0.680   4.916   3.881 -0.4163 -0.3298  0.4605
 1125SOL    HW2 4272   0.690   4.997   3.931 -1.1856  0.2595 -0.3151
 1125SOL    HW3 4273   0.683   4.846   3.947  0.9561  0.2702  1.0653
 1125SOL    MW4 4274   0.682   4.917   3.896 -0.2291 -0.0032 -0.4402
 1126SOL     OW 4275   2.650   6.346   0.640  0.7285 -0.3244  0.1404
 1126SOL    HW2 4276   2.738   6.311   0.650 -0.0875 -2.2467  1.2135
 1126SOL    HW3 4277   2.615   6.348   0.729 -1.0564 -1.8127 -0.4418
 1126SOL    MW4 4278   2.657   6.341   0.653 -0.0011 -0.3584  0.0353
 1127SOL     OW 4279   1.271   1.379   3.865 -0.3788  0.4738  0.8488
 1127SOL    HW2 4280   1.252   1.416   3.951 -0.3287 -1.2554  1.6391
 1127SOL    HW3 4281   1.362   1.350   3.870 -0.5720 -0.2277  0.4466
 1127SOL    MW4 4282   1.280   1.380   3.877 -0.0957 -0.1692  0.4783
 1128SOL     OW 4283   5.938   5.499   6.194 -0.3381  0.0211 -0.3233
 1128SOL    HW2 4284   5.950   5.592   6.214  4.2451 -0.3635 -0.2580
 1128SOL    HW3 4285   5.892   5.464   6.270 -0.8614  1.9455  0.3205
 1128SOL    MW4 4286   5.933   5.507   6.207  0.3760 -0.0252 -0.1177
 1129SOL     OW 4287   3.450   1.483   5.406  0.2247 -0.9322  0.1742
 1129SOL    HW2 4288   3.384   1.419   5.432 -0.4946  0.2954  1.5307
 1129SOL    HW3 4289   3.402   1.548   5.355  0.5807 -0.5598  0.3041
 1129SOL    MW4 4290   3.435   1.483   5.403  0.5888  0.2122 -0.0153
 1130SOL     OW 4291   0.101   1.977   2.210 -0.2173  0.0024  0.0108
 1130SOL    HW2 4292   0.038   1.950   2.276 -1.3156  0.7686 -0.6836
 1130SOL    HW3 4293   0.110   1.902   2.151  0.5918 -0.5988  0.8730
 1130SOL    MW4 4294   0.094   1.964   2.211 -0.3623  0.2536  0.5054
 1131SOL     OW 4295   1.995   3.389   1.952 -0.2443  0.3382  0.4344
 1131SOL    HW2 4296   1.941   3.451   2.001  0.2852  0.8190  0.4130
 1131SOL    HW3 4297   1.952   3.304   1.966 -1.7252  0.8792 -0.6118
 1131SOL    MW4 4298   1.982   3.386   1.961  0.1471  0.0062 -0.1793
 1132SOL     OW 4299   5.352   6.006   3.511  0.0550 -0.1674  0.0993
 1132SOL    HW2 4300   5.402   5.981   3.589  0.7138  0.0953 -0.2306
 1132SOL    HW3 4301   5.419   6.019   3.443 -0.1553  3.0153  0.3633
 1132SOL    MW4 4302   5.368   6.004   3.513 -0.2179 -0.0049  0.3786
 1133SOL     OW 4303   0.150   0.385   5.537 -0.2375 -0.1430  0.6872
 1133SOL    HW2 4304   0.190   0.464   5.502 -1.5375  0.5641  0.7255
 1133SOL    HW3 4305   0.080   0.416   5.594 -2.7971 -1.2306 -1.6082
 1133SOL    MW4 4306   0.146   0.399   5.540 -0.4017  0.2818  0.0650
 1134SOL     OW 4307   0.197   5.955   6.277  0.2378  0.4087  0.5231
 1134SOL    HW2 4308   0.202   5.859   6.267 -0.7859  0.3224  0.7454
 1134SOL    HW3 4309   0.191   5.968   6.372 -0.2683  0.6517  0.4593
 1134SOL    MW4 4310   0.197   5.944   6.288  0.2313 -0.0240  0.1855
 1135SOL     OW 4311   5.296   5.879   5.854  0.1599  0.5949  0.0939
 1135SOL    HW2 4312   5.288   5.785   5.840  1.3592  0.2810  1.3998
 1135SOL    HW3 4313   5.219   5.902   5.906  0.5855  0.0622  0.9792
 1135SOL    MW4 4314   5.284   5.870   5.859 -0.5205  0.2846 -0.2528
 1136SOL     OW 4315   6.427   5.423   5.850  0.4739 -0.7692 -0.0984
 1136SOL    HW2 4316   6.423   5.484   5.923 -0.3611 -0.6891 -0.2032
 1136SOL    HW3 4317   6.401   5.474   5.773 -0.8568 -1.3849 -0.0862
 1136SOL    MW4 4318   6.423   5.438   5.849  0.2833 -0.0466 -0.2262
 1137SOL     OW 4319   1.461   5.462   5.007 -0.0024 -0.2066 -0.0690
 1137SOL    HW2 4320   1.495   5.406   5.077 -1.9112  0.6384  1.6284
 1137SOL    HW3 4321   1.407   5.404   4.954  0.1563 -0.5158  0.1036
 1137SOL    MW4 4322   1.459   5.447   5.009  0.1965 -0.1398 -0.9065
 1138SOL     OW 4323   5.339   5.381   0.758  0.1393 -0.3208  0.1157
 1138SOL    HW2 4324   5.354   5.351   0.668 -0.8801 -1.9297  0.4423
 1138SOL    HW3 4325   5.275   5.452   0.749 -1.2379 -1.5805 -0.3283
 1138SOL    MW4 4326   5.333   5.387   0.745  0.0871 -0.0171 -0.2558
 1139SOL     OW 4327   5.809   2.020   4.731 -0.1056 -0.0734 -0.0957
 1139SOL    HW2 4328   5.764   1.941   4.761  0.9964 -0.9877 -0.7609
 1139SOL    HW3 4329   5.819   2.007   4.637  1.4215  0.1451  0.0164
 1139SOL    MW4 4330   5.804   2.008   4.723 -0.2098  0.2987 -0.6768
 1140SOL     OW 4331   3.305   0.466   4.093  0.6293 -0.5992 -0.1001
 1140SOL    HW2 4332   3.266   0.522   4.026 -0.0657  0.5845  1.2311
 1140SOL    HW3 4333   3.389   0.438   4.056 -0.3765 -1.2144 -2.0439
 1140SOL    MW4 4334   3.311   0.470   4.080  0.2156 -0.3641  0.0457
 1141SOL     OW 4335   2.405   6.222   3.929 -0.7327 -0.1636  0.4159
 1141SOL    HW2 4336   2.356   6.143   3.906 -1.4287 -0.2086  1.9614
 1141SOL    HW3 4337   2.339   6.292   3.926  0.3016  0.8712 -3.2422
 1141SOL    MW4 4338   2.390   6.221   3.925 -0.4196 -0.4020  0.0685
 1142SOL     OW 4339   4.401   0.095   2.838  0.7127  0.1563  0.3470
 1142SOL    HW2 4340   4.465   0.025   2.838  0.3201 -0.2369 -1.0238
 1142SOL    HW3 4341   4.412   0.138   2.753 -0.7589  0.1287  0.1083
 1142SOL    MW4 4342   4.411   0.092   2.827 -0.1702 -0.0387 -0.0676
 1143SOL     OW 4343   5.088   5.393   0.180 -0.4856  0.1082 -0.4484
 1143SOL    HW2 4344   5.099   5.419   0.272  0.4459 -0.7679 -0.2953
 1143SOL    HW3 4345   5.028   5.458   0.144 -2.0850 -0.3988  1.1629
 1143SOL    MW4 4346   5.081   5.405   0.188  0.1047  0.4430  0.1168
 1144SOL     OW 4347   4.733   5.919   0.615 -0.5061  0.1956 -0.2610
 1144SOL    HW2 4348   4.707   6.007   0.590 -1.0862  0.4893  1.2504
 1144SOL    HW3 4349   4.677   5.898   0.690 -0.9046 -1.7466 -1.0286
 1144SOL    MW4 4350   4.722   5.928   0.621  0.4832  0.2315 -0.0994
 1145SOL     OW 4351   1.501   1.365   6.268 -0.3561 -0.2319  0.1078
 1145SOL    HW2 4352   1.537   1.300   6.327  0.2114  0.7399  0.8666
 1145SOL    HW3 4353   1.461   1.430   6.326 -1.5749 -0.2715 -0.6542
 1145SOL    MW4 4354   1.500   1.365   6.283 -0.3631  0.6370  0.2186
 1146SOL     OW 4355   2.449   4.930   4.507 -0.0213 -0.2370 -0.4412
 1146SOL    HW2 4356   2.436   4.915   4.601 -0.7898 -0.7545 -0.6203
 1146SOL    HW3 4357   2.537   4.897   4.489  0.3348  0.3327  0.1856
 1146SOL    MW4 4358   2.459   4.924   4.517  0.2065  0.0197  0.0060
 1147SOL     OW 4359   2.400   2.859   0.230  0.0892  0.5926 -0.7360
 1147SOL    HW2 4360   2.463   2.855   0.302  2.1778  2.9960 -2.2565
 1147SOL    HW3 4361   2.441   2.807   0.160 -1.2624 -0.5798 -0.6997
 1147SOL    MW4 4362   2.414   2.851   0.230  0.3398  0.4342 -0.6194
 1148SOL     OW 4363   0.299   2.939   5.538 -0.0681 -0.2993 -0.6163
 1148SOL    HW2 4364   0.340   2.903   5.616 -0.9803 -1.4134 -0.6353
 1148SOL    HW3 4365   0.205   2.931   5.554 -0.2755  0.4398 -1.3819
 1148SOL    MW4 4366   0.292   2.934   5.550 -0.6395 -0.1097 -0.2241
 1149SOL     OW 4367   3.242   2.964   3.689 -0.4987  0.1146 -0.4373
 1149SOL    HW2 4368   3.241   3.050   3.646  3.2219 -0.3947 -1.9552
 1149SOL    HW3 4369   3.213   2.903   3.622 -2.7076  0.0586  0.5028
 1149SOL    MW4 4370   3.238   2.967   3.675  0.8569  0.1116  0.3146
 1150SOL     OW 4371   2.301   5.486   2.490  0.0933 -0.0732  0.0374
 1150SOL    HW2 4372   2.377   5.545   2.495  1.4246 -1.6791 -0.3207
 1150SOL    HW3 4373   2.287   5.475   2.396 -0.2931 -0.1559  0.1060
 1150SOL    MW4 4374   2.309   5.492   2.478 -0.0505 -0.1207  0.5149
 1151SOL     OW 4375   0.132   1.914   2.627 -0.2784 -0.0385  0.0283
 1151SOL    HW2 4376   0.063   1.891   2.564 -0.1485 -0.7373  0.1288
 1151SOL    HW3 4377   0.205   1.856   2.605  0.4741  1.0408 -0.3966
 1151SOL    MW4 4378   0.132   1.903   2.616  0.4810  0.2032 -0.0043
 1152SOL     OW 4379   5.751   2.654   5.991 -0.6553 -0.4392 -0.4052
 1152SOL    HW2 4380   5.738   2.569   6.033 -1.8867 -0.5155 -0.9047
 1152SOL    HW3 4381   5.672   2.703   6.011 -0.4202  0.2108 -1.0209
 1152SOL    MW4 4382   5.739   2.649   5.999 -0.2488 -0.0657 -0.0308
 1153SOL     OW 4383   5.997   0.708   1.195  0.2008  0.2675 -0.2374
 1153SOL    HW2 4384   5.920   0.735   1.245  0.3976 -1.2121  0.9215
 1153SOL    HW3 4385   5.966   0.699   1.105 -0.9216 -0.0606  0.1729
 1153SOL    MW4 4386   5.983   0.711   1.189  0.7117 -0.0625 -0.5818
 1154SOL     OW 4387   4.820   2.027   3.344 -0.0636  0.0591 -1.0394
 1154SOL    HW2 4388   4.832   1.953   3.404 -1.4250 -1.2913 -2.3126
 1154SOL    HW3 4389   4.758   2.085   3.389  2.2138  1.3116  0.6547
 1154SOL    MW4 4390   4.813   2.025   3.358 -0.2349 -0.0135  0.2878
 1155SOL     OW 4391   1.473   5.506   1.723  0.0069 -0.0551  0.3873
 1155SOL    HW2 4392   1.420   5.583   1.702  0.6691  0.1958 -0.4498
 1155SOL    HW3 4393   1.486   5.510   1.817 -0.0862  0.7750  0.3669
 1155SOL    MW4 4394   1.467   5.516   1.733 -0.2607  0.1569  0.1002
 1156SOL     OW 4395   6.247   0.658   4.921  0.6016  0.8231 -0.3771
 1156SOL    HW2 4396   6.269   0.567   4.901 -0.5915  0.7332 -1.4403
 1156SOL    HW3 4397   6.227   0.659   5.014  0.4797 -0.0483 -0.3897
 1156SOL    MW4 4398   6.247   0.646   4.930 -0.5951  0.7632  0.4006
 1157SOL     OW 4399   0.855   5.488   4.442 -0.5578 -0.4061  0.3861
 1157SOL    HW2 4400   0.843   5.394   4.458 -3.1332 -0.3874 -0.9780
 1157SOL    HW3 4401   0.768   5.520   4.421  0.3448  2.2379  0.3435
 1157SOL    MW4 4402   0.842   5.480   4.441 -0.4447  0.4329 -0.1884
 1158SOL     OW 4403   6.305   0.599   0.715 -0.0474 -0.1358 -0.3103
 1158SOL    HW2 4404   6.274   0.574   0.628  3.3473 -0.0615 -1.7152
 1158SOL    HW3 4405   6.289   0.693   0.720 -0.2792 -0.1423 -0.8572
 1158SOL    MW4 4406   6.299   0.608   0.704 -0.1898  0.0446  0.0670
 1159SOL     OW 4407   2.116   6.136   4.069 -0.1766 -0.7104 -0.0907
 1159SOL    HW2 4408   2.145   6.107   3.982 -2.0842 -2.6125 -0.1787
 1159SOL    HW3 4409   2.109   6.056   4.120 -2.3660 -0.0501  0.7610
 1159SOL    MW4 4410   2.119   6.122   4.064  0.2284 -0.0056 -0.8131
 1160SOL     OW 4411   4.674   1.066   1.471 -0.3092  0.1125  0.3599
 1160SOL    HW2 4412   4.606   1.129   1.495  0.4027  1.0636 -0.0790
 1160SOL    HW3 4413   4.671   1.064   1.375 -0.8194 -1.0909  0.3807
 1160SOL    MW4 4414   4.664   1.074   1.461 -0.9066  0.2033  0.4771
 1161SOL     OW 4415   0.685   6.163   5.572 -0.0226 -0.1011  0.4983
 1161SOL    HW2 4416   0.714   6.177   5.662  1.6652 -3.9043  0.7396
 1161SOL    HW3 4417   0.637   6.080   5.575 -0.8173  0.1934 -1.9691
 1161SOL    MW4 4418   0.682   6.154   5.584  0.2560  0.0751  0.3348
 1162SOL     OW 4419   6.170   4.237   3.501 -0.0480 -0.0224 -0.0886
 1162SOL    HW2 4420   6.077   4.248   3.481 -0.3397 -0.8142  0.7998
 1162SOL    HW3 4421   6.191   4.149   3.471  0.6474  0.4655 -1.0897
 1162SOL    MW4 4422   6.161   4.227   3.494 -0.1737  0.1461  0.5150
 1163SOL     OW 4423   6.104   3.020   4.125  0.0315 -0.2597 -0.3045
 1163SOL    HW2 4424   6.011   3.000   4.121 -0.1057 -0.0966  1.4181
 1163SOL    HW3 4425   6.147   2.940   4.097 -0.6142 -0.2931 -1.2477
 1163SOL    MW4 4426   6.097   3.007   4.121 -0.7457 -0.0048 -0.1245
 1164SOL     OW 4427   5.968   4.456   0.677 -0.1024  0.1556  0.1511
 1164SOL    HW2 4428   5.920   4.420   0.751  0.9883 -0.8668  0.3960
 1164SOL    HW3 4429   5.905   4.458   0.606 -1.6054  2.5198  1.4109
 1164SOL    MW4 4430   5.954   4.452   0.678 -0.6445 -0.7574 -0.8993
 1165SOL     OW 4431   5.028   2.039   6.199 -0.1571 -0.2467  0.4908
 1165SOL    HW2 4432   4.935   2.061   6.194  0.0254  0.8638  1.3972
 1165SOL    HW3 4433   5.032   1.944   6.189 -1.5929 -0.5831  2.6438
 1165SOL    MW4 4434   5.016   2.030   6.197 -0.2743 -0.1113 -0.0582
 1166SOL     OW 4435   0.128   0.265   6.263 -0.1922  0.0996 -0.7612
 1166SOL    HW2 4436   0.192   0.236   6.198  1.1421 -0.7892  0.8891
 1166SOL    HW3 4437   0.160   0.351   6.291  1.1557 -0.9328  1.0722
 1166SOL    MW4 4438   0.141   0.273   6.258  0.1639  0.6122 -0.3987
 1167SOL     OW 4439   0.937   3.508   0.949 -0.7480 -0.1122 -0.0107
 1167SOL    HW2 4440   0.847   3.532   0.931 -1.2098 -2.1708 -0.6754
 1167SOL    HW3 4441   0.980   3.509   0.863 -0.6625 -1.0736  0.0070
 1167SOL    MW4 4442   0.931   3.511   0.935 -0.5373 -0.0822 -0.3849
 1168SOL     OW 4443   1.276   3.835   1.395 -0.2593 -0.0802  0.5481
 1168SOL    HW2 4444   1.259   3.773   1.466  1.4281  0.7018  1.7062
 1168SOL    HW3 4445   1.361   3.807   1.360  1.3662  2.3939  2.1531
 1168SOL    MW4 4446   1.285   3.823   1.400  0.1719 -0.2290 -0.4367
 1169SOL     OW 4447   5.447   2.203   4.089 -0.1851 -0.4264 -0.3075
 1169SOL    HW2 4448   5.543   2.206   4.098 -0.3401  2.7311  3.6645
 1169SOL    HW3 4449   5.425   2.288   4.051 -1.4441 -0.6948 -0.2026
 1169SOL    MW4 4450   5.457   2.215   4.085  0.0204  0.2363 -0.0526
 1170SOL     OW 4451   4.189   3.536   1.505  0.6114 -0.3940  0.5898
 1170SOL    HW2 4452   4.118   3.565   1.448 -0.0340  1.0412  2.0296
 1170SOL    HW3 4453   4.267   3.581   1.472  0.7129 -1.3342 -0.4981
 1170SOL    MW4 4454   4.190   3.546   1.493  0.0583 -0.2092 -0.5773
 1171SOL     OW 4455   1.700   2.007   4.387  0.0959  0.4681 -0.6075
 1171SOL    HW2 4456   1.729   1.943   4.322  0.6840  0.3404 -0.2360
 1171SOL    HW3 4457   1.680   1.955   4.465  1.9689  0.8213  0.1773
 1171SOL    MW4 4458   1.701   1.992   4.389 -0.1036  0.3025  0.4544
 1172SOL     OW 4459   5.742   4.904   2.753  0.8068 -0.0151  0.1330
 1172SOL    HW2 4460   5.652   4.874   2.741  1.3010 -1.4274 -0.1857
 1172SOL    HW3 4461   5.744   4.940   2.842 -0.6827  2.4436 -0.7168
 1172SOL    MW4 4462   5.731   4.905   2.764  0.0001 -0.5433 -0.4173
 1173SOL     OW 4463   1.090   0.303   5.819  0.5737  0.2189 -0.4769
 1173SOL    HW2 4464   1.087   0.389   5.861 -0.9890 -0.1984  0.3444
 1173SOL    HW3 4465   1.070   0.321   5.727 -1.3735  0.6161 -0.0315
 1173SOL    MW4 4466   1.087   0.317   5.812  0.5907 -0.1231 -0.2895
 1174SOL     OW 4467   2.425   2.873   5.273  0.1515  0.4467  0.1399
 1174SOL    HW2 4468   2.494   2.935   5.249  0.7160 -0.4440 -0.6017
 1174SOL    HW3 4469   2.421   2.878   5.369  1.5577  0.1979  0.2285
 1174SOL    MW4 4470   2.433   2.882   5.282  0.3514 -0.1347  0.0406
 1175SOL     OW 4471   1.468   3.212   5.127 -0.3055  0.3188 -0.1516
 1175SOL    HW2 4472   1.564   3.212   5.134 -0.4129  1.4445  2.6307
 1175SOL    HW3 4473   1.443   3.122   5.150  0.0713 -0.3362 -2.1129
 1175SOL    MW4 4474   1.478   3.200   5.131 -0.8227 -0.1209 -0.0554
 1176SOL     OW 4475   4.631   0.838   4.347  0.1142  0.2311 -0.0294
 1176SOL    HW2 4476   4.617   0.818   4.439 -0.8839  1.0382  0.0065
 1176SOL    HW3 4477   4.700   0.778   4.320  0.0114 -0.4161  1.0900
 1176SOL    MW4 4478   4.639   0.827   4.355  0.1068  0.1004  0.0311
 1177SOL     OW 4479   0.520   0.812   1.833  0.4280  0.0671 -0.1780
 1177SOL    HW2 4480   0.465   0.734   1.841 -1.5315  1.3919 -0.2072
 1177SOL    HW3 4481   0.555   0.808   1.744  0.7057 -0.9680 -0.0372
 1177SOL    MW4 4482   0.518   0.801   1.822 -0.8998  0.0732 -0.1790
 1178SOL     OW 4483   3.159   0.368   2.406  0.2070  0.4824  0.0328
 1178SOL    HW2 4484   3.203   0.289   2.439  1.5059  1.1958  0.0954
 1178SOL    HW3 4485   3.068   0.358   2.433  0.3403 -0.9767  0.0624
 1178SOL    MW4 4486   3.153   0.356   2.414  0.1870 -0.0029 -0.0493
 1179SOL     OW 4487   5.617   2.173   1.902 -0.7359 -0.0170  0.6719
 1179SOL    HW2 4488   5.637   2.231   1.829  1.9968 -2.8324 -1.0233
 1179SOL    HW3 4489   5.674   2.202   1.973 -0.1139 -0.0396  0.1797
 1179SOL    MW4 4490   5.627   2.185   1.902  0.1269 -0.2154 -0.1158
 1180SOL     OW 4491   1.487   3.462   0.017  0.0363 -0.2309 -0.4616
 1180SOL    HW2 4492   1.474   3.550  -0.020 -0.9282  0.2477  0.9327
 1180SOL    HW3 4493   1.566   3.430  -0.026  1.0192  1.7408 -0.2510
 1180SOL    MW4 4494   1.495   3.470   0.006 -0.1928 -0.0870 -0.4690
 1181SOL     OW 4495   0.334   0.452   0.970 -0.6374  0.0353 -0.3726
 1181SOL    HW2 4496   0.330   0.515   0.899 -1.2360  0.7107  0.2476
 1181SOL    HW3 4497   0.255   0.468   1.022  0.8104  1.0154  1.6393
 1181SOL    MW4 4498   0.323   0.462   0.968 -0.0915  0.1654 -0.3057
 1182SOL     OW 4499   4.975   4.455   6.285  0.3231 -0.2618  0.7597
 1182SOL    HW2 4500   5.040   4.423   6.348 -0.1654 -0.0485  1.3938
 1182SOL    HW3 4501   4.895   4.408   6.309 -0.4233  1.3996  1.7299
 1182SOL    MW4 4502   4.973   4.445   6.297 -0.3783  0.0048 -0.5463
 1183SOL     OW 4503   3.905   0.878   3.034 -0.0431  0.3559  0.3570
 1183SOL    HW2 4504   3.951   0.803   3.071 -2.1111 -0.6450  1.0572
 1183SOL    HW3 4505   3.957   0.903   2.958  1.5285 -0.7866  1.0026
 1183SOL    MW4 4506   3.918   0.872   3.029  0.3895  0.1290 -0.3913
 1184SOL     OW 4507   2.966   2.185   3.822 -0.0882 -0.4605  0.2327
 1184SOL    HW2 4508   2.912   2.261   3.798 -0.1861 -0.6693 -0.2289
 1184SOL    HW3 4509   3.034   2.221   3.879  1.2303  0.4179 -1.7680
 1184SOL    MW4 4510   2.968   2.200   3.826 -0.3228  0.4896  0.0720
 1185SOL     OW 4511   4.789   3.029   3.579 -0.2821 -0.4544  0.4524
 1185SOL    HW2 4512   4.736   3.002   3.654 -0.5105 -2.2176 -0.3052
 1185SOL    HW3 4513   4.830   2.949   3.547 -0.2414  0.2271 -1.3554
 1185SOL    MW4 4514   4.787   3.015   3.585 -0.0148 -0.2691 -0.2669
 1186SOL     OW 4515   5.957   5.470   4.344  0.8025 -0.6919  0.4851
 1186SOL    HW2 4516   5.932   5.491   4.254  0.7720  0.5475  0.7605
 1186SOL    HW3 4517   5.914   5.386   4.362  0.1227 -0.5429 -0.3801
 1186SOL    MW4 4518   5.948   5.462   4.335 -0.0444  0.4214  0.1220
 1187SOL     OW 4519   2.847   3.712   2.244 -0.0164  0.1132 -0.1445
 1187SOL    HW2 4520   2.825   3.673   2.329  0.3722  1.0510  0.4012
 1187SOL    HW3 4521   2.764   3.713   2.196 -0.7839  1.7086  1.1116
 1187SOL    MW4 4522   2.833   3.707   2.249 -0.4639 -0.3456  0.0615
 1188SOL     OW 4523   2.082   4.311   6.428 -0.0161  0.2923 -0.1030
 1188SOL    HW2 4524   2.177   4.314   6.439  0.0059 -1.9274  0.8575
 1188SOL    HW3 4525   2.054   4.402   6.437  2.1254  1.2643 -2.0552
 1188SOL    MW4 4526   2.091   4.324   6.430 -0.7643  0.1738  0.4730
 1189SOL     OW 4527   3.078   1.937   4.924 -0.6625  0.9128 -0.0809
 1189SOL    HW2 4528   3.166   1.947   4.960 -0.5580 -1.4664  0.4938
 1189SOL    HW3 4529   3.036   2.022   4.937  2.2655  2.9469 -2.5887
 1189SOL    MW4 4530   3.084   1.950   4.930  0.0449 -0.4026 -0.4950
 1190SOL     OW 4531   5.195   3.855   5.335  0.2323  0.3642 -0.3578
 1190SOL    HW2 4532   5.128   3.877   5.400 -1.5337 -3.0781 -0.7831
 1190SOL    HW3 4533   5.250   3.789   5.378 -0.3197 -1.1913 -1.9075
 1190SOL    MW4 4534   5.194   3.849   5.349 -0.4378 -0.5277 -0.2834
 1191SOL     OW 4535   2.613   1.885   3.302  0.6300  0.1024  0.2103
 1191SOL    HW2 4536   2.644   1.974   3.318  0.1843  0.4130 -0.6025
 1191SOL    HW3 4537   2.660   1.857   3.224  1.6164 -0.8133  1.0901
 1191SOL    MW4 4538   2.624   1.893   3.294 -0.2087  0.6243 -0.4218
 1192SOL     OW 4539   5.911   0.595   3.956 -0.2845 -0.4143  0.2519
 1192SOL    HW2 4540   5.831   0.584   3.904  0.3161 -1.8650 -0.4345
 1192SOL    HW3 4541   5.975   0.628   3.894 -0.3971  1.0600  0.8771
 1192SOL    MW4 4542   5.909   0.598   3.941  0.0732  0.1997 -0.1762
 1193SOL     OW 4543   1.651   2.942   5.874  0.0296  0.2684 -0.2208
 1193SOL    HW2 4544   1.573   2.930   5.928 -1.4302  2.5690 -1.6607
 1193SOL    HW3 4545   1.660   3.037   5.865  1.2680  0.0012 -2.5219
 1193SOL    MW4 4546   1.642   2.953   5.880 -0.3182 -0.1164  0.3913
 1194SOL     OW 4547   1.624   3.422   2.772  0.2813 -0.3146  0.2263
 1194SOL    HW2 4548   1.628   3.459   2.860 -0.5194 -1.4271  0.7486
 1194SOL    HW3 4549   1.547   3.462   2.733 -0.3144 -1.0593  0.6245
 1194SOL    MW4 4550   1.615   3.432   2.778  0.0940 -0.5411  0.9668
 1195SOL     OW 4551   3.508   2.914   3.370  0.0426  0.2712 -0.2091
 1195SOL    HW2 4552   3.512   2.847   3.439  2.9628  0.6009  0.0734
 1195SOL    HW3 4553   3.462   2.987   3.411 -0.3400 -0.3956  0.5867
 1195SOL    MW4 4554   3.502   2.915   3.385 -0.0708 -0.7863  0.6883
 1196SOL     OW 4555   2.504   3.993   6.104 -0.2892 -0.6511 -0.0069
 1196SOL    HW2 4556   2.423   3.943   6.107 -0.5806 -0.5159 -2.8561
 1196SOL    HW3 4557   2.573   3.928   6.092 -0.3972 -0.5903 -1.1031
 1196SOL    MW4 4558   2.502   3.978   6.102 -0.3259 -0.4845  0.1266
 1197SOL     OW 4559   2.493   3.019   3.495  0.5067  0.1460  0.3990
 1197SOL    HW2 4560   2.544   3.055   3.567 -0.2799  1.3147  0.4091
 1197SOL    HW3 4561   2.424   3.084   3.480  0.5432 -0.1600 -1.2845
 1197SOL    MW4 4562   2.491   3.032   3.503  0.1336  0.7622  0.4858
 1198SOL     OW 4563   5.595   1.417   0.124  0.1562 -0.1015 -0.0171
 1198SOL    HW2 4564   5.622   1.328   0.145 -1.6620 -0.9588 -1.0851
 1198SOL    HW3 4565   5.553   1.411   0.038 -0.2201  1.7333 -0.0207
 1198SOL    MW4 4566   5.593   1.405   0.115  0.4192 -0.4521 -0.2209
 1199SOL     OW 4567   3.278   0.136   2.524 -0.3670  0.2952  0.5012
 1199SOL    HW2 4568   3.250   0.049   2.554 -0.8796 -0.1923 -1.2618
 1199SOL    HW3 4569   3.371   0.140   2.546  0.0790 -1.3877 -0.8483
 1199SOL    MW4 4570   3.286   0.125   2.531  0.8247 -0.0255 -0.0634
 1200SOL     OW 4571   2.899   4.857   5.356  0.2992  0.5955 -0.7499
 1200SOL    HW2 4572   2.892   4.834   5.449  0.5704  0.6829 -0.7086
 1200SOL    HW3 4573   2.891   4.952   5.354  1.8332  0.7482 -0.6618
 1200SOL    MW4 4574   2.897   4.866   5.368 -0.0827 -0.0497  0.3741
 1201SOL     OW 4575   4.183   4.417   3.495  0.1608 -0.0796  0.1024
 1201SOL    HW2 4576   4.173   4.413   3.590 -0.2362 -0.7755  0.0384
 1201SOL    HW3 4577   4.226   4.501   3.479  0.6075 -0.1447  0.9262
 1201SOL    MW4 4578   4.187   4.428   3.505  0.2157  0.2208  0.2507
 1202SOL     OW 4579   2.638   5.287   1.658  0.0099 -0.3377  0.0028
 1202SOL    HW2 4580   2.564   5.281   1.717 -0.0682 -3.0580 -0.2671
 1202SOL    HW3 4581   2.599   5.292   1.571  0.1664  1.2690 -0.0163
 1202SOL    MW4 4582   2.623   5.287   1.654  0.7079 -0.2166  0.2319
 1203SOL     OW 4583   2.557   1.134   2.913  0.0642  0.2499 -0.4070
 1203SOL    HW2 4584   2.609   1.120   2.993  0.6349  1.5145 -0.5301
 1203SOL    HW3 4585   2.480   1.182   2.942 -1.8126 -2.7526 -0.0088
 1203SOL    MW4 4586   2.554   1.138   2.928 -0.4821  0.2050  0.2415
 1204SOL     OW 4587   4.429   3.259   3.852 -0.0107 -0.2686  0.4105
 1204SOL    HW2 4588   4.487   3.328   3.883 -0.4304  0.2833 -0.0058
 1204SOL    HW3 4589   4.351   3.267   3.907  0.5414 -1.4362  1.4175
 1204SOL    MW4 4590   4.426   3.269   3.863 -0.3157 -0.5982 -1.3864
 1205SOL     OW 4591   5.670   3.144   6.122 -0.4127 -0.0353 -0.5825
 1205SOL    HW2 4592   5.604   3.085   6.084  0.7627 -2.0637  0.3788
 1205SOL    HW3 4593   5.750   3.092   6.126  0.4687  1.3340  1.1514
 1205SOL    MW4 4594   5.672   3.129   6.118 -0.2564  0.2607  0.4826
 1206SOL     OW 4595   4.500   0.714   6.020  0.3148  0.3568  0.0526
 1206SOL    HW2 4596   4.510   0.805   6.045 -0.9151  0.2639  1.0089
 1206SOL    HW3 4597   4.431   0.680   6.078 -0.4174 -0.7405 -1.3645
 1206SOL    MW4 4598   4.492   0.721   6.031  0.6465  0.3458 -0.0022
 1207SOL     OW 4599   4.991   4.005   4.777  0.0056  0.5583 -0.3244
 1207SOL    HW2 4600   5.024   3.995   4.866  0.1142  0.0512 -0.4215
 1207SOL    HW3 4601   4.935   3.928   4.763  0.0850  0.5729 -0.7350
 1207SOL    MW4 4602   4.988   3.994   4.787 -0.2240  0.1075  0.0849
 1208SOL     OW 4603   5.240   2.720   5.874  0.1025  0.6498  0.8291
 1208SOL    HW2 4604   5.221   2.628   5.856  0.3925  0.9551 -1.2804
 1208SOL    HW3 4605   5.183   2.742   5.948 -1.2100 -0.7869  0.2963
 1208SOL    MW4 4606   5.230   2.711   5.882 -0.5936 -0.0686  0.1307
 1209SOL     OW 4607   5.925   2.183   6.120  0.4308  0.3139 -0.6836
 1209SOL    HW2 4608   5.857   2.127   6.083 -1.1992  1.8402 -0.1469
 1209SOL    HW3 4609   5.929   2.258   6.060  1.9795  0.0521 -0.9457
 1209SOL    MW4 4610   5.917   2.185   6.107 -0.4839 -0.1917 -0.2847
 1210SOL     OW 4611   4.232   0.961   0.709  0.5166 -0.4947  0.0024
 1210SOL    HW2 4612   4.192   0.884   0.668  1.0529  0.4151 -2.4242
 1210SOL    HW3 4613   4.225   0.945   0.803 -0.7369 -2.7874 -0.4084
 1210SOL    MW4 4614   4.226   0.949   0.716 -0.4090 -0.1207 -0.1573
 1211SOL     OW 4615   6.332   6.201   5.630 -0.0981 -0.5897  0.1256
 1211SOL    HW2 4616   6.388   6.158   5.565 -0.7827 -0.4537 -0.5683
 1211SOL    HW3 4617   6.246   6.159   5.619 -0.6605  0.6001 -0.2388
 1211SOL    MW4 4618   6.328   6.190   5.620  0.1875 -0.4007 -0.1294
 1212SOL     OW 4619   2.534   1.503   2.985 -0.7321  0.3844 -0.3196
 1212SOL    HW2 4620   2.608   1.535   2.933 -0.9764  0.1406 -0.8276
 1212SOL    HW3 4621   2.460   1.503   2.924 -0.7893 -0.9123 -0.2842
 1212SOL    MW4 4622   2.534   1.507   2.970  0.1568  0.9429 -0.4341
 1213SOL     OW 4623   2.280   5.555   0.759  0.4690  0.3188  0.3510
 1213SOL    HW2 4624   2.245   5.524   0.675  3.9076  2.6424 -2.2250
 1213SOL    HW3 4625   2.225   5.631   0.780  0.9561  1.1379 -1.1403
 1213SOL    MW4 4626   2.268   5.561   0.751  0.1717  0.5355  0.0232
 1214SOL     OW 4627   4.484   2.253   3.130  0.7236 -0.3704  0.1920
 1214SOL    HW2 4628   4.433   2.180   3.096  1.4266 -0.0045 -1.7723
 1214SOL    HW3 4629   4.562   2.256   3.073  1.5292  0.8534  1.3002
 1214SOL    MW4 4630   4.488   2.244   3.118  0.0160  0.2189 -0.5447
 1215SOL     OW 4631   1.723   4.439   1.376 -0.2399 -0.0918  0.0271
 1215SOL    HW2 4632   1.742   4.386   1.299 -0.3816  0.7125 -0.5764
 1215SOL    HW3 4633   1.654   4.391   1.422 -1.9515  0.6152 -1.6683
 1215SOL    MW4 4634   1.716   4.425   1.372 -0.8228 -0.1118 -0.2399
 1216SOL     OW 4635   5.381   0.548   6.084  0.2179  0.0447  0.2823
 1216SOL    HW2 4636   5.437   0.583   6.153  1.1829 -0.2884 -0.3125
 1216SOL    HW3 4637   5.435   0.481   6.041  0.7067  2.1031 -2.5680
 1216SOL    MW4 4638   5.396   0.544   6.087 -0.2828  0.1984 -0.2587
 1217SOL     OW 4639   2.027   1.039   3.449  0.0638  0.1261 -0.2934
 1217SOL    HW2 4640   2.089   1.022   3.379 -0.2659 -1.0052 -0.3371
 1217SOL    HW3 4641   1.990   1.125   3.429  1.3414  0.6572 -0.4546
 1217SOL    MW4 4642   2.030   1.048   3.437 -0.4865 -0.4882  0.3744
 1218SOL     OW 4643   2.924   0.715   5.303  0.0823 -0.1661 -0.0897
 1218SOL    HW2 4644   2.953   0.767   5.378 -1.3267  0.5589 -0.0252
 1218SOL    HW3 4645   2.959   0.760   5.227  0.3868 -0.1450  0.0618
 1218SOL    MW4 4646   2.932   0.728   5.303  0.2734  0.7285  0.3797
 1219SOL     OW 4647   2.849   3.543   0.309 -0.7086 -0.1440 -0.0107
 1219SOL    HW2 4648   2.864   3.609   0.376 -1.0109 -0.1674  0.0808
 1219SOL    HW3 4649   2.785   3.582   0.250  1.0515  0.7154 -1.4636
 1219SOL    MW4 4650   2.842   3.557   0.310 -0.1670  0.7466 -0.3711
 1220SOL     OW 4651   0.209   5.672   5.118 -0.0538 -0.2058  0.3434
 1220SOL    HW2 4652   0.122   5.651   5.083 -0.8436  2.8574  0.1385
 1220SOL    HW3 4653   0.201   5.661   5.212 -0.5375 -0.4192  0.2790
 1220SOL    MW4 4654   0.196   5.668   5.126  0.2305 -0.0564  0.1988
 1221SOL     OW 4655   2.629   2.887   0.376  0.0109 -0.3708  0.2668
 1221SOL    HW2 4656   2.652   2.881   0.283 -1.0218 -0.4040  0.0084
 1221SOL    HW3 4657   2.711   2.912   0.419  0.2233  0.8600 -0.7995
 1221SOL    MW4 4658   2.643   2.890   0.370 -0.1786  0.2487  0.0569
 1222SOL     OW 4659   1.635   3.186   6.134  0.5162 -0.2999  0.1340
 1222SOL    HW2 4660   1.549   3.180   6.174  0.7219  3.7730  1.5961
 1222SOL    HW3 4661   1.618   3.204   6.041 -0.1360 -0.4707  0.2182
 1222SOL    MW4 4662   1.621   3.187   6.127  0.4184 -0.4403 -0.0743
 1223SOL     OW 4663   0.138   3.765   6.235 -0.0705 -0.3339 -0.8080
 1223SOL    HW2 4664   0.114   3.776   6.143 -0.8693 -1.0200 -0.6893
 1223SOL    HW3 4665   0.084   3.828   6.281  0.7249  0.3949 -0.8506
 1223SOL    MW4 4666   0.128   3.775   6.229 -0.5520  0.2357 -0.3927
 1224SOL     OW 4667   2.796   5.943   2.343  0.5488 -0.0353  0.2774
 1224SOL    HW2 4668   2.843   6.004   2.286 -1.0070 -1.1184 -2.3097
 1224SOL    HW3 4669   2.757   5.999   2.410  0.2938  1.6834 -1.2201
 1224SOL    MW4 4670   2.797   5.959   2.344 -0.0954  0.1510 -0.7205
 1225SOL     OW 4671   5.288   0.118   4.998 -0.5390  0.3489  0.1726
 1225SOL    HW2 4672   5.340   0.045   4.965 -0.5872  1.0179 -1.5235
 1225SOL    HW3 4673   5.249   0.156   4.919 -0.4791  2.2154  0.9917
 1225SOL    MW4 4674   5.290   0.114   4.983 -0.2028  0.1245  0.1107
 1226SOL     OW 4675   1.137   0.793   5.499 -0.1934 -0.2729  0.3668
 1226SOL    HW2 4676   1.214   0.748   5.534 -1.3447 -1.1550  1.9123
 1226SOL    HW3 4677   1.157   0.886   5.507  1.7194 -0.4267 -1.6876
 1226SOL    MW4 4678   1.149   0.799   5.504  0.0522  0.1058  0.3622
 1227SOL     OW 4679   3.915   4.311   2.926 -0.3730 -0.9161 -0.2338
 1227SOL    HW2 4680   3.987   4.249   2.932 -1.7013 -2.5725 -0.5579
 1227SOL    HW3 4681   3.944   4.376   2.862  0.1307 -2.5764 -1.7684
 1227SOL    MW4 4682   3.928   4.311   2.918 -0.4423  0.0519 -0.2505
 1228SOL     OW 4683   6.088   6.068   5.586  0.7326 -0.1484  0.3744
 1228SOL    HW2 4684   6.009   6.033   5.544  0.7111  0.5899 -0.2162
 1228SOL    HW3 4685   6.074   6.052   5.680 -0.6419  0.9724  0.4013
 1228SOL    MW4 4686   6.075   6.061   5.593  0.2811 -0.2871  0.2962
 1229SOL     OW 4687   1.483   5.739   0.967 -0.0434 -0.0833  0.3942
 1229SOL    HW2 4688   1.502   5.797   1.041  1.7503 -0.4105  0.2467
 1229SOL    HW3 4689   1.563   5.687   0.957 -0.7904 -1.0345 -0.8780
 1229SOL    MW4 4690   1.496   5.740   0.975 -0.0946  0.6150  0.1175
 1230SOL     OW 4691   6.233   1.723   4.415 -0.6849  0.4557 -0.8798
 1230SOL    HW2 4692   6.295   1.744   4.345 -0.8080 -0.4147 -1.2631
 1230SOL    HW3 4693   6.252   1.632   4.437 -1.5434  0.3102 -0.7080
 1230SOL    MW4 4694   6.244   1.714   4.409  1.1087  0.3697 -0.3896
 1231SOL     OW 4695   5.713   2.773   5.179 -0.5255  0.0769  0.5456
 1231SOL    HW2 4696   5.637   2.715   5.181 -0.8440  0.4017  4.0398
 1231SOL    HW3 4697   5.689   2.842   5.117 -2.4910 -0.5445  0.5466
 1231SOL    MW4 4698   5.700   2.775   5.171  0.0784 -0.0213 -0.1768
 1232SOL     OW 4699   6.255   2.874   2.618 -0.4852  0.2499  0.2986
 1232SOL    HW2 4700   6.205   2.806   2.573  1.4920  0.2987 -2.2341
 1232SOL    HW3 4701   6.306   2.827   2.684 -0.3021 -0.5487 -0.3846
 1232SOL    MW4 4702   6.255   2.859   2.621  0.1037  0.0182 -0.0712
 1233SOL     OW 4703   5.366   4.708   4.487  0.0101  0.8419 -0.0699
 1233SOL    HW2 4704   5.402   4.623   4.512  1.0855  0.4298 -2.6884
 1233SOL    HW3 4705   5.311   4.734   4.561  0.9697 -1.3305  1.5109
 1233SOL    MW4 4706   5.364   4.700   4.500 -0.1546  0.0270 -0.4235
 1234SOL     OW 4707   4.898   1.244   1.149  0.0968 -0.4726 -0.2618
 1234SOL    HW2 4708   4.840   1.320   1.157  1.5484  0.7237 -0.6428
 1234SOL    HW3 4709   4.961   1.254   1.221  0.6895 -0.9473 -0.7048
 1234SOL    MW4 4710   4.899   1.256   1.160 -0.0510  0.0568  0.0803
 1235SOL     OW 4711   3.415   4.421   0.836  0.0556  0.4051  0.0900
 1235SOL    HW2 4712   3.464   4.494   0.875  2.9317 -1.2127 -0.2147
 1235SOL    HW3 4713   3.451   4.343   0.878 -0.6600 -1.0408 -1.8325
 1235SOL    MW4 4714   3.426   4.420   0.846 -0.1107 -0.0644 -0.1913
 1236SOL     OW 4715   2.339   3.309   3.768 -0.3967 -0.2110  0.9922
 1236SOL    HW2 4716   2.390   3.288   3.846 -0.0705 -2.6761  0.1878
 1236SOL    HW3 4717   2.272   3.369   3.799  0.3657 -0.2930  2.9392
 1236SOL    MW4 4718   2.337   3.314   3.782  0.1704 -0.0293  0.1140
 1237SOL     OW 4719   6.187   4.406   1.718  0.4610  0.1020 -0.1665
 1237SOL    HW2 4720   6.111   4.457   1.745 -0.2463 -0.3560 -1.2498
 1237SOL    HW3 4721   6.255   4.471   1.700  0.1214  0.5511  0.1630
 1237SOL    MW4 4722   6.186   4.421   1.719  0.3015 -0.2813 -0.1730
 1238SOL     OW 4723   4.375   0.021   1.397 -0.3615 -0.3518  0.1200
 1238SOL    HW2 4724   4.344  -0.062   1.433  0.0941 -0.0842  1.1804
 1238SOL    HW3 4725   4.304   0.083   1.416 -1.6452 -0.8808 -2.5373
 1238SOL    MW4 4726   4.361   0.019   1.405  0.4008  0.5012 -0.2223
 1239SOL     OW 4727   0.610   0.993   2.829 -0.6990 -0.8096 -0.6142
 1239SOL    HW2 4728   0.680   0.929   2.838 -1.0708 -1.0805  0.6004
 1239SOL    HW3 4729   0.563   0.967   2.750 -1.7913 -3.0190  0.6634
 1239SOL    MW4 4730   0.613   0.981   2.820 -0.0158  0.1168 -0.3321
 1240SOL     OW 4731   3.243   5.963   5.708 -0.2051 -0.7940  0.2428
 1240SOL    HW2 4732   3.324   5.968   5.658 -0.2503 -1.8677  0.0452
 1240SOL    HW3 4733   3.185   6.027   5.667  0.6056  0.1546  0.5343
 1240SOL    MW4 4734   3.246   5.972   5.696  0.2453  0.0384  0.0331
 1241SOL     OW 4735   1.011   5.394   1.959 -0.6351 -0.1688  0.6331
 1241SOL    HW2 4736   1.005   5.305   1.993 -0.7298 -0.6422 -0.5792
 1241SOL    HW3 4737   0.980   5.388   1.868  0.7326  0.8086  0.0553
 1241SOL    MW4 4738   1.006   5.381   1.951  0.3000 -0.1488  0.4158
 1242SOL     OW 4739   6.359   2.142   1.383  0.2294 -0.5250 -0.0165
 1242SOL    HW2 4740   6.373   2.231   1.353 -0.3646 -0.6463 -0.6705
 1242SOL    HW3 4741   6.363   2.088   1.304  0.9499 -1.1286  0.4170
 1242SOL    MW4 4742   6.361   2.146   1.369  0.5373  0.5350 -0.2853
 1243SOL     OW 4743   5.173   6.206   3.513  0.1408 -0.0102  0.6761
 1243SOL    HW2 4744   5.227   6.284   3.525 -0.3978  0.7615 -1.5252
 1243SOL    HW3 4745   5.234   6.133   3.515  1.2180  0.7909 -1.0775
 1243SOL    MW4 4746   5.188   6.207   3.515  0.3060 -0.0440 -0.3836
 1244SOL     OW 4747   0.347   4.521   3.897  0.0963  0.1094 -0.1670
 1244SOL    HW2 4748   0.426   4.469   3.884  0.0269  0.2577 -1.2000
 1244SOL    HW3 4749   0.278   4.456   3.911  0.1070 -0.0698 -0.9147
 1244SOL    MW4 4750   0.348   4.505   3.897 -0.3898 -0.6315 -0.0382
 1245SOL     OW 4751   4.093   3.896   4.571  0.1633  0.5998 -0.1177
 1245SOL    HW2 4752   4.173   3.894   4.624  1.0248  1.7669 -1.3287
 1245SOL    HW3 4753   4.048   3.976   4.598 -1.0762 -0.4858  1.1802
 1245SOL    MW4 4754   4.097   3.906   4.582  0.2005 -0.1573  0.0452
 1246SOL     OW 4755   3.096   0.046   5.284  0.3338 -0.4711 -0.5735
 1246SOL    HW2 4756   3.075   0.058   5.191 -0.3053 -1.6146 -0.6031
 1246SOL    HW3 4757   3.103   0.134   5.319 -1.0596 -0.0161 -1.3561
 1246SOL    MW4 4758   3.094   0.059   5.276 -0.2266 -0.5509 -0.2957
 1247SOL     OW 4759   1.958   4.652   1.927 -0.3271  0.5570 -0.0069
 1247SOL    HW2 4760   1.963   4.742   1.957 -0.0337  0.1173  1.3334
 1247SOL    HW3 4761   1.998   4.653   1.840  1.0764  1.4426  0.6190
 1247SOL    MW4 4762   1.964   4.664   1.920 -0.0340  0.4508  0.1115
 1248SOL     OW 4763   3.431   2.816   5.551 -0.2410 -0.6029  0.1670
 1248SOL    HW2 4764   3.450   2.722   5.549  2.1232 -0.1829 -1.2447
 1248SOL    HW3 4765   3.495   2.852   5.613  1.9608  0.5267 -2.5323
 1248SOL    MW4 4766   3.442   2.809   5.559 -0.0273  0.2631  0.0709
 1249SOL     OW 4767   6.430   5.449   0.795  0.0312  0.5577  0.0223
 1249SOL    HW2 4768   6.497   5.381   0.782 -0.5041  0.1114 -0.4541
 1249SOL    HW3 4769   6.351   5.400   0.816 -0.4481  1.0282 -0.6796
 1249SOL    MW4 4770   6.429   5.433   0.796 -0.0863  0.1038  0.2415
 1250SOL     OW 4771   0.358   5.345   1.103 -0.1313 -0.1381  0.4476
 1250SOL    HW2 4772   0.438   5.310   1.142  2.4578  2.3805 -2.1266
 1250SOL    HW3 4773   0.288   5.316   1.162  2.6608 -2.0033  3.1761
 1250SOL    MW4 4774   0.360   5.336   1.116  0.1288  0.2913 -0.5677
 1251SOL     OW 4775   1.375   6.092   4.711  0.2856  0.1690 -0.0911
 1251SOL    HW2 4776   1.356   6.004   4.743 -0.4197  0.1554 -0.5238
 1251SOL    HW3 4777   1.400   6.080   4.619 -0.5668  0.4832 -0.3772
 1251SOL    MW4 4778   1.376   6.079   4.703  0.0965  0.4104 -0.2837
 1252SOL     OW 4779   3.662   5.990   6.312  0.0325  0.1216  0.3631
 1252SOL    HW2 4780   3.602   6.063   6.330 -0.0390  0.0096  0.5817
 1252SOL    HW3 4781   3.629   5.918   6.366  1.5556  0.6553  2.1097
 1252SOL    MW4 4782   3.649   5.990   6.322 -0.1790 -0.5365  1.0626
 1253SOL     OW 4783   2.559   6.082   3.491 -0.6426 -0.3745  0.0044
 1253SOL    HW2 4784   2.512   5.999   3.498 -0.6336 -0.4630 -0.8573
 1253SOL    HW3 4785   2.516   6.140   3.554 -0.2589 -1.2081  1.0514
 1253SOL    MW4 4786   2.547   6.079   3.500 -0.7257 -0.7538 -1.0652
 1254SOL     OW 4787   4.859   5.222   4.107  0.0931  0.7381 -0.3385
 1254SOL    HW2 4788   4.906   5.262   4.180 -0.0428  0.5766 -0.1636
 1254SOL    HW3 4789   4.926   5.173   4.060  0.1449  0.7003 -0.2239
 1254SOL    MW4 4790   4.874   5.221   4.110  0.0126 -0.2039 -0.3063
 1255SOL     OW 4791   1.161   2.543   4.617 -0.7957  0.0380  0.0560
 1255SOL    HW2 4792   1.073   2.511   4.638 -0.4837  0.2130  1.8205
 1255SOL    HW3 4793   1.220   2.479   4.658 -0.0625 -0.5007 -1.7673
 1255SOL    MW4 4794   1.157   2.531   4.625 -0.1300 -0.0249 -0.4225
 1256SOL     OW 4795   0.649   4.058   4.088 -0.6990  0.1139 -0.5221
 1256SOL    HW2 4796   0.696   4.037   4.168 -0.9998 -0.2656 -0.4381
 1256SOL    HW3 4797   0.564   4.091   4.118  0.5843  3.8920 -0.5505
 1256SOL    MW4 4798   0.644   4.060   4.103 -0.5477  0.2743 -0.1327
 1257SOL     OW 4799   4.467   5.209   5.001  0.2561 -0.1913 -0.4356
 1257SOL    HW2 4800   4.547   5.238   5.045  0.1660 -1.7086  0.8400
 1257SOL    HW3 4801   4.423   5.290   4.976  0.8780  0.7486  1.2906
 1257SOL    MW4 4802   4.472   5.224   5.004  0.4619  0.1504 -0.2475
 1258SOL     OW 4803   6.211   6.139   6.368 -0.0941 -0.0897  0.4164
 1258SOL    HW2 4804   6.291   6.183   6.397  0.2362 -0.4497  0.0710
 1258SOL    HW3 4805   6.152   6.145   6.442  1.1535 -2.0891  1.6958
 1258SOL    MW4 4806   6.214   6.145   6.381  0.0020  0.0308  0.0265
 1259SOL     OW 4807   0.648   3.239   1.606  0.2258  1.0662  0.5420
 1259SOL    HW2 4808   0.662   3.246   1.700  2.9560  2.4392  0.1461
 1259SOL    HW3 4809   0.730   3.270   1.567 -1.1521  1.5159 -2.3128
 1259SOL    MW4 4810   0.661   3.244   1.613 -0.0956  0.5503  0.8268
 1260SOL     OW 4811   2.532   1.594   3.848 -0.6746  0.1506  0.0090
 1260SOL    HW2 4812   2.541   1.512   3.801  2.1459  1.2053 -1.5645
 1260SOL    HW3 4813   2.465   1.643   3.799  1.3457  0.7495 -2.3515
 1260SOL    MW4 4814   2.524   1.590   3.835  0.4262 -0.0818  0.2292
 1261SOL     OW 4815   2.245   4.182   2.793 -0.2063 -0.5082 -0.1722
 1261SOL    HW2 4816   2.258   4.241   2.868 -1.3042 -1.2238  0.6238
 1261SOL    HW3 4817   2.334   4.156   2.768  0.2449  0.6995  0.0879
 1261SOL    MW4 4818   2.259   4.187   2.800 -0.5546  0.0789  0.1696
 1262SOL     OW 4819   5.279   5.318   4.673 -0.4483  0.2560 -0.2202
 1262SOL    HW2 4820   5.365   5.323   4.714 -1.6238 -2.2538  3.0416
 1262SOL    HW3 4821   5.222   5.368   4.732 -1.6819 -0.6790 -0.5769
 1262SOL    MW4 4822   5.283   5.325   4.686  0.6641 -0.2477 -0.1389
 1263SOL     OW 4823   2.234   3.172   2.363  0.4632 -0.2437 -0.0767
 1263SOL    HW2 4824   2.182   3.248   2.337  0.5511 -0.6178 -1.4352
 1263SOL    HW3 4825   2.173   3.098   2.356  0.2239 -0.2520  1.7683
 1263SOL    MW4 4826   2.219   3.172   2.359 -0.1450  0.7131  0.5769
 1264SOL     OW 4827   1.681   5.879   5.008  0.2559  0.0537  0.3199
 1264SOL    HW2 4828   1.767   5.891   5.048  0.0640  0.0621  0.7373
 1264SOL    HW3 4829   1.671   5.953   4.949  1.0691 -0.6216 -0.6960
 1264SOL    MW4 4830   1.691   5.890   5.006  0.3140  0.0170  0.1878
 1265SOL     OW 4831   2.798   1.652   5.505 -0.5871  0.0541 -0.1409
 1265SOL    HW2 4832   2.852   1.708   5.449  0.6632  1.1012  1.9930
 1265SOL    HW3 4833   2.861   1.594   5.548 -1.7949 -2.7569 -1.8996
 1265SOL    MW4 4834   2.814   1.652   5.503 -0.0388  0.7580  0.0451
 1266SOL     OW 4835   3.097   2.730   2.044  0.2229 -0.1400  0.1864
 1266SOL    HW2 4836   3.173   2.730   2.102  0.4724 -0.3497 -0.1319
 1266SOL    HW3 4837   3.038   2.795   2.081  1.4321  1.5469 -0.6961
 1266SOL    MW4 4838   3.099   2.738   2.057 -0.2114  0.4735 -0.0933
 1267SOL     OW 4839   2.538   0.061   6.099 -0.5645  0.1201 -0.0308
 1267SOL    HW2 4840   2.499   0.136   6.054 -0.0110 -0.6438 -1.8949
 1267SOL    HW3 4841   2.624   0.091   6.127 -0.1629  0.0724 -1.1777
 1267SOL    MW4 4842   2.544   0.075   6.097  0.7484 -0.1612  0.4509
 1268SOL     OW 4843   1.805   0.810   2.026  0.1841 -0.6498  0.2286
 1268SOL    HW2 4844   1.716   0.799   2.061 -0.3808 -0.3593 -1.0583
 1268SOL    HW3 4845   1.802   0.770   1.939  0.8606  0.7626 -0.4753
 1268SOL    MW4 4846   1.793   0.803   2.019  0.0313  0.0746 -0.6881
 1269SOL     OW 4847   2.174   2.691   5.189  0.5945  0.0398  0.2449
 1269SOL    HW2 4848   2.109   2.721   5.126 -0.2000  0.3358  1.1711
 1269SOL    HW3 4849   2.157   2.743   5.267  0.7862 -1.1281  1.0955
 1269SOL    MW4 4850   2.163   2.702   5.191 -0.2918  0.5445  0.3568
 1270SOL     OW 4851   4.227   3.150   1.099 -0.3108 -0.1380 -0.0222
 1270SOL    HW2 4852   4.313   3.135   1.058 -0.8653  1.9930 -2.1451
 1270SOL    HW3 4853   4.214   3.072   1.153  3.9093  0.3809  2.2165
 1270SOL    MW4 4854   4.237   3.137   1.101  0.0805 -0.4295  0.2195
 1271SOL     OW 4855   1.362   3.443   0.734 -0.3015  0.7326 -0.0465
 1271SOL    HW2 4856   1.348   3.354   0.769 -0.3846  1.1527  1.0344
 1271SOL    HW3 4857   1.341   3.435   0.641 -1.8493 -0.0492  0.3205
 1271SOL    MW4 4858   1.357   3.430   0.727  0.2780 -0.5264  0.0920
 1272SOL     OW 4859   1.296   4.062   5.881 -0.0888 -0.2609  0.1449
 1272SOL    HW2 4860   1.236   3.988   5.890 -0.1318 -0.2153  0.2318
 1272SOL    HW3 4861   1.270   4.123   5.951  1.5770 -1.2945  1.7522
 1272SOL    MW4 4862   1.285   4.060   5.891  0.4997 -0.0274  0.3139
 1273SOL     OW 4863   3.225   0.465   1.566  0.5665 -0.1796 -0.3252
 1273SOL    HW2 4864   3.157   0.533   1.558  1.8072  1.2700  0.8200
 1273SOL    HW3 4865   3.306   0.509   1.541  1.5572 -0.9454  1.3885
 1273SOL    MW4 4866   3.226   0.480   1.562 -0.0129  0.8950  0.0770
 1274SOL     OW 4867   4.624   0.353   1.402 -0.5733  0.5198 -0.2964
 1274SOL    HW2 4868   4.632   0.262   1.375 -0.6536  0.5645 -0.4747
 1274SOL    HW3 4869   4.712   0.378   1.430 -0.8714 -0.0943  1.3112
 1274SOL    MW4 4870   4.636   0.345   1.402  0.1940  0.3580  0.2807
 1275SOL     OW 4871   4.606   5.155   3.055  0.2034  0.0641 -0.0475
 1275SOL    HW2 4872   4.627   5.072   3.098  1.7696  1.2040  1.5661
 1275SOL    HW3 4873   4.677   5.214   3.083 -1.9374  2.5080  0.5553
 1275SOL    MW4 4874   4.618   5.152   3.064  0.0769  0.4180  0.0855
 1276SOL     OW 4875   5.010   5.565   3.400  0.1998 -0.2291 -0.6303
 1276SOL    HW2 4876   5.077   5.631   3.415 -0.9715  0.5658  1.7134
 1276SOL    HW3 4877   4.930   5.615   3.383 -0.1540 -1.1143 -1.6578
 1276SOL    MW4 4878   5.008   5.580   3.400  0.1988 -0.0435  0.3025
 1277SOL     OW 4879   3.428   6.294   1.757  0.3273 -0.4281  0.1806
 1277SOL    HW2 4880   3.353   6.236   1.749 -0.6281  0.6560  0.9715
 1277SOL    HW3 4881   3.409   6.367   1.697  1.4438 -0.8329 -0.7022
 1277SOL    MW4 4882   3.416   6.296   1.748  0.9986 -0.7336  0.2614
 1278SOL     OW 4883   4.858   3.419   1.918 -0.1649 -0.1713  0.6199
 1278SOL    HW2 4884   4.949   3.436   1.894 -1.2063 -1.5364 -7.0757
 1278SOL    HW3 4885   4.822   3.505   1.940  1.9541  1.5291 -1.9306
 1278SOL    MW4 4886   4.865   3.432   1.918 -0.0731 -0.3718 -0.0427
 1279SOL     OW 4887   5.665   3.414   4.057 -0.1090  0.7056 -0.3905
 1279SOL    HW2 4888   5.715   3.495   4.061  1.0928 -0.0132 -0.5753
 1279SOL    HW3 4889   5.707   3.356   4.121 -2.0634  0.8001  1.0792
 1279SOL    MW4 4890   5.677   3.417   4.066  0.4714 -0.1927 -0.2560
 1280SOL     OW 4891   1.290   3.275   5.679  0.2289 -0.3145  0.0420
 1280SOL    HW2 4892   1.224   3.281   5.610  0.5844 -0.8829 -0.3669
 1280SOL    HW3 4893   1.373   3.283   5.632  0.5730 -3.0006  0.0331
 1280SOL    MW4 4894   1.292   3.277   5.664 -0.0205 -0.3356 -0.3903
 1281SOL     OW 4895   3.789   3.218   4.378 -0.6229  0.7596 -0.5914
 1281SOL    HW2 4896   3.811   3.260   4.461 -0.0797 -1.8441  0.6832
 1281SOL    HW3 4897   3.693   3.216   4.378 -0.6299  0.2932  0.2825
 1281SOL    MW4 4898   3.779   3.223   4.389 -0.7616  0.3592  0.3891
 1282SOL     OW 4899   4.350   1.513   3.176  0.1138 -0.2558 -0.3297
 1282SOL    HW2 4900   4.392   1.599   3.175  1.1007 -0.7411 -1.0179
 1282SOL    HW3 4901   4.355   1.482   3.086  0.4110 -1.3494  0.0469
 1282SOL    MW4 4902   4.356   1.520   3.164  0.2728  0.5856 -0.2403
 1283SOL     OW 4903   3.826   2.643   4.684  0.4725  0.3849  0.3975
 1283SOL    HW2 4904   3.799   2.552   4.668 -0.9779  0.8026  0.3551
 1283SOL    HW3 4905   3.831   2.649   4.780  1.0870  0.1310  0.3881
 1283SOL    MW4 4906   3.823   2.632   4.695  0.2179  0.2630 -0.1508
 1284SOL     OW 4907   1.655   0.895   3.669 -0.6449 -0.3207  0.6558
 1284SOL    HW2 4908   1.654   0.963   3.736  2.0926  0.4910  0.0081
 1284SOL    HW3 4909   1.649   0.942   3.586 -0.0041 -0.9447  0.2399
 1284SOL    MW4 4910   1.654   0.910   3.667 -0.1950  0.3713  0.1761
 1285SOL     OW 4911   3.991   2.924   1.903 -0.3238 -0.0732  0.2859
 1285SOL    HW2 4912   4.058   2.988   1.926  0.2568 -0.4526 -0.2803
 1285SOL    HW3 4913   3.946   2.905   1.985  1.6767 -1.3934  1.1876
 1285SOL    MW4 4914   3.994   2.930   1.917  0.1108 -0.8005  0.1434
 1286SOL     OW 4915   0.443   0.036   5.624  0.1925  0.0985 -0.3591
 1286SOL    HW2 4916   0.411   0.031   5.534  0.8389 -0.0260 -0.5893
 1286SOL    HW3 4917   0.529   0.078   5.617  0.3926 -0.2023  0.1595
 1286SOL    MW4 4918   0.450   0.041   5.612  0.0708  0.0165  0.0010
 1287SOL     OW 4919   2.581   4.707   3.365  0.1143  0.3020 -0.1962
 1287SOL    HW2 4920   2.620   4.622   3.344 -3.3860 -1.3564 -0.6236
 1287SOL    HW3 4921   2.622   4.768   3.303  2.6750 -1.0160  0.0736
 1287SOL    MW4 4922   2.592   4.704   3.354 -0.2813  0.2960  0.1615
 1288SOL     OW 4923   0.886   3.564   0.338 -0.1515 -0.0956  0.4819
 1288SOL    HW2 4924   0.906   3.478   0.302 -1.1065 -0.2965  0.3984
 1288SOL    HW3 4925   0.828   3.605   0.273 -0.4366  0.2456  0.9374
 1288SOL    MW4 4926   0.881   3.558   0.325  0.1375 -0.3332 -0.1445
 1289SOL     OW 4927   5.892   3.020   5.772  0.0447  0.8971 -0.7609
 1289SOL    HW2 4928   5.930   3.009   5.859 -0.6650 -0.8403 -0.6317
 1289SOL    HW3 4929   5.967   3.015   5.712  0.1790 -1.5676 -0.4584
 1289SOL    MW4 4930   5.907   3.018   5.776  0.4083  0.0503  0.2089
 1290SOL     OW 4931   1.200   0.916   1.722  0.6802  0.2790 -0.1608
 1290SOL    HW2 4932   1.195   0.991   1.662 -0.8615  0.4813  0.1779
 1290SOL    HW3 4933   1.160   0.948   1.803 -0.8508 -1.1790 -0.3018
 1290SOL    MW4 4934   1.194   0.930   1.725  0.1628 -0.2415 -0.2378
 1291SOL     OW 4935   6.258   6.247   5.200  0.3573  0.0508  0.3050
 1291SOL    HW2 4936   6.182   6.289   5.157 -0.3246 -1.2555  0.1893
 1291SOL    HW3 4937   6.220   6.179   5.255  1.4414 -0.4625  0.4442
 1291SOL    MW4 4938   6.243   6.244   5.201 -0.2347  0.5170 -0.2323
 1292SOL     OW 4939   3.325   0.738   1.781 -0.3440  0.3705  0.8597
 1292SOL    HW2 4940   3.311   0.650   1.816 -0.2874 -0.2835 -0.6615
 1292SOL    HW3 4941   3.417   0.757   1.799 -0.5929  0.5275  2.0311
 1292SOL    MW4 4942   3.335   0.729   1.788  0.3257  0.2127  0.7584
 1293SOL     OW 4943   0.879   2.495   4.301  0.4470 -0.1192 -0.3020
 1293SOL    HW2 4944   0.841   2.456   4.222  0.4070  0.4549 -0.5763
 1293SOL    HW3 4945   0.812   2.482   4.368  0.4816 -0.6155 -0.3613
 1293SOL    MW4 4946   0.865   2.488   4.299  0.1161  0.3054 -0.7107
 1294SOL     OW 4947   1.781   5.498   5.854  0.4213  0.0524 -0.5982
 1294SOL    HW2 4948   1.863   5.538   5.882 -0.0216  2.0607 -1.9562
 1294SOL    HW3 4949   1.713   5.552   5.894 -0.2142  0.0393 -1.6377
 1294SOL    MW4 4950   1.783   5.510   5.863 -0.0535  0.1428  0.1317
 1295SOL     OW 4951   0.920   5.825   1.810 -0.4555 -0.0798  0.3540
 1295SOL    HW2 4952   0.997   5.794   1.858  0.6023 -1.2563 -1.9471
 1295SOL    HW3 4953   0.902   5.755   1.747 -2.5366  0.8440 -0.1435
 1295SOL    MW4 4954   0.928   5.811   1.808 -0.6027 -0.1477  0.3823
 1296SOL     OW 4955   3.021   3.219   5.000  0.1011 -0.8113 -0.2913
 1296SOL    HW2 4956   3.043   3.135   4.960 -0.1323 -1.5494  1.0858
 1296SOL    HW3 4957   3.104   3.268   5.000  0.4295 -1.3604 -0.3335
 1296SOL    MW4 4958   3.035   3.215   4.995 -0.0649 -0.1028 -0.3530
 1297SOL     OW 4959   4.161   5.203   4.817 -0.0479 -0.0466  0.8878
 1297SOL    HW2 4960   4.078   5.247   4.799 -0.0495 -0.1080  0.7378
 1297SOL    HW3 4961   4.140   5.138   4.885 -0.0519  0.1626  1.0857
 1297SOL    MW4 4962   4.147   5.200   4.823  0.5214 -0.0609 -0.6600
 1298SOL     OW 4963   3.291   4.105   0.687 -0.1943 -0.1109  0.3683
 1298SOL    HW2 4964   3.382   4.127   0.666 -0.1212 -0.4221  0.3541
 1298SOL    HW3 4965   3.243   4.126   0.607 -0.2089  0.4984  0.5337
 1298SOL    MW4 4966   3.297   4.110   0.673 -0.0222 -0.4995 -0.3268
 1299SOL     OW 4967   1.907   1.058   0.865  0.3514  0.1869 -0.7697
 1299SOL    HW2 4968   1.860   1.017   0.938  1.2148  2.3799  1.1765
 1299SOL    HW3 4969   1.993   1.017   0.865  0.5389  0.5527 -0.1301
 1299SOL    MW4 4970   1.912   1.047   0.875  0.5740  0.2279 -0.2857
 1300SOL     OW 4971   4.321   5.977   0.887 -0.5991 -0.2124  0.0908
 1300SOL    HW2 4972   4.318   5.986   0.792  2.4485  1.9709  0.0825
 1300SOL    HW3 4973   4.242   6.022   0.917 -0.3471  1.3170 -1.3591
 1300SOL    MW4 4974   4.310   5.984   0.878 -0.3769  0.5194 -0.1999
 1301SOL     OW 4975   1.935   2.314   1.016  0.0547  0.5022 -0.2619
 1301SOL    HW2 4976   1.969   2.369   1.087 -0.4577  2.3435 -1.3705
 1301SOL    HW3 4977   1.844   2.343   1.005 -0.0675 -0.2028 -1.2457
 1301SOL    MW4 4978   1.927   2.325   1.024 -0.0305  0.4091  0.3409
 1302SOL     OW 4979   6.129   2.973   5.629  0.4016  0.5630  0.0477
 1302SOL    HW2 4980   6.162   2.998   5.543  1.1200 -3.7900 -1.1606
 1302SOL    HW3 4981   6.187   3.016   5.691  1.2683  1.9963 -1.6974
 1302SOL    MW4 4982   6.141   2.982   5.626  0.0851 -0.3547 -0.2112
 1303SOL     OW 4983   0.802   5.317   3.778  0.7010 -0.3992 -0.0466
 1303SOL    HW2 4984   0.790   5.261   3.701  0.6914 -1.7291  0.8875
 1303SOL    HW3 4985   0.719   5.364   3.785  0.7741 -0.1019 -0.9537
 1303SOL    MW4 4986   0.789   5.316   3.769 -0.7779 -0.1129 -0.2537
 1304SOL     OW 4987   4.560   2.367   2.288  0.0958  0.1834 -0.0643
 1304SOL    HW2 4988   4.584   2.330   2.203 -2.7978 -0.7603 -0.5896
 1304SOL    HW3 4989   4.599   2.308   2.352 -0.0289 -0.7280 -0.8093
 1304SOL    MW4 4990   4.568   2.354   2.285 -0.4421 -0.2299 -0.1421
 1305SOL     OW 4991   5.175   1.634   0.679 -0.3201  0.1471  0.1816
 1305SOL    HW2 4992   5.234   1.594   0.615 -0.7762  1.2476 -0.9660
 1305SOL    HW3 4993   5.217   1.718   0.701 -2.1862  1.7293 -1.9035
 1305SOL    MW4 4994   5.189   1.640   0.674 -0.1473 -0.0627 -0.3233
 1306SOL     OW 4995   2.077   6.373   0.558  0.8415 -0.4589 -0.0717
 1306SOL    HW2 4996   2.145   6.379   0.625  0.9911  0.6227 -0.3084
 1306SOL    HW3 4997   2.118   6.322   0.487  1.4213  0.1999 -0.2207
 1306SOL    MW4 4998   2.091   6.367   0.557  0.1383  0.3040  0.3354
 1307SOL     OW 4999   5.809   1.480   3.193  0.0113  0.1650  0.2268
 1307SOL    HW2 5000   5.868   1.447   3.125  0.3096  1.2154 -0.0460
 1307SOL    HW3 5001   5.758   1.404   3.219  0.7027 -0.5171 -0.3447
 1307SOL    MW4 5002   5.810   1.466   3.187 -0.0531 -0.2306  0.6306
 1308SOL     OW 5003   0.172   3.990   2.200 -0.2660  0.0495 -0.0053
 1308SOL    HW2 5004   0.100   4.010   2.140  0.0939  0.4491 -0.3206
 1308SOL    HW3 5005   0.150   3.905   2.238 -0.3415 -0.3649 -0.9573
 1308SOL    MW4 5006   0.160   3.981   2.197  0.8724 -0.9514  0.3602
 1309SOL     OW 5007   2.080   3.377   2.270  0.1856 -0.5551 -0.5664
 1309SOL    HW2 5008   1.994   3.412   2.246  1.0138  2.4043  0.3531
 1309SOL    HW3 5009   2.141   3.448   2.252  1.8892 -0.9607  2.7353
 1309SOL    MW4 5010   2.077   3.391   2.264 -0.1858  0.4490 -0.6689
 1310SOL     OW 5011   1.359   3.936   2.806 -0.4700  0.1478  0.0857
 1310SOL    HW2 5012   1.290   4.001   2.792  0.2928  0.5976 -1.9064
 1310SOL    HW3 5013   1.440   3.987   2.812  0.2854 -0.5684 -2.6164
 1310SOL    MW4 5014   1.361   3.951   2.805 -0.6664 -0.6161  0.4782
 1311SOL     OW 5015   2.621   0.057   1.740  0.0122 -0.0571  0.1294
 1311SOL    HW2 5016   2.699   0.044   1.793  1.1679 -0.4389 -1.5756
 1311SOL    HW3 5017   2.549   0.060   1.803  1.2896 -0.5923  1.6747
 1311SOL    MW4 5018   2.621   0.056   1.755 -0.6492  0.1907 -0.2589
 1312SOL     OW 5019   0.080   5.263   4.660  0.6378 -0.3676  0.2979
 1312SOL    HW2 5020   0.060   5.334   4.599  1.2619 -1.1175 -0.8349
 1312SOL    HW3 5021   0.014   5.196   4.641  0.8715 -0.6281  0.3973
 1312SOL    MW4 5022   0.069   5.264   4.649 -0.9032 -0.1165 -0.4426
 1313SOL     OW 5023   5.928   2.237   5.279  0.0854  0.1227 -0.0225
 1313SOL    HW2 5024   5.882   2.268   5.201  2.3372 -0.1722 -1.5668
 1313SOL    HW3 5025   5.986   2.309   5.303  1.5982 -0.9086 -0.4835
 1313SOL    MW4 5026   5.929   2.251   5.272  0.2263 -0.1692  0.5868
 1314SOL     OW 5027   0.307   0.862   1.563 -0.4531 -0.0027 -0.1029
 1314SOL    HW2 5028   0.402   0.861   1.560 -0.4307  0.1538  0.4357
 1314SOL    HW3 5029   0.281   0.922   1.493 -0.1475  0.1229 -0.1076
 1314SOL    MW4 5030   0.316   0.870   1.554  0.0139  0.0348 -0.3703
 1315SOL     OW 5031   4.798   2.666   2.528 -0.1424 -0.1291 -0.5466
 1315SOL    HW2 5032   4.794   2.686   2.622  0.7870  3.7790 -1.1778
 1315SOL    HW3 5033   4.707   2.673   2.498 -0.2771 -0.1820 -0.1569
 1315SOL    MW4 5034   4.785   2.670   2.537 -0.0842  0.3757 -0.0172
 1316SOL     OW 5035   5.324   3.975   0.339 -0.3758  0.0775 -0.0324
 1316SOL    HW2 5036   5.345   3.934   0.256  0.6970 -0.9230  0.6955
 1316SOL    HW3 5037   5.281   4.057   0.316  2.4318  1.2232 -1.6458
 1316SOL    MW4 5038   5.321   3.980   0.325 -0.3966  0.2107 -0.6652
 1317SOL     OW 5039   4.679   4.026   1.336  0.0688 -0.0695 -0.2569
 1317SOL    HW2 5040   4.667   4.072   1.252  0.0714 -1.6914 -1.1823
 1317SOL    HW3 5041   4.689   4.096   1.400 -0.4300  1.2249 -1.5372
 1317SOL    MW4 5042   4.679   4.041   1.333 -0.5973  0.0844 -0.3637
 1318SOL     OW 5043   0.227   4.048   3.917  0.2169 -0.2666 -0.1361
 1318SOL    HW2 5044   0.241   4.002   4.000 -0.7974  1.4992  1.1054
 1318SOL    HW3 5045   0.275   3.997   3.852  1.4224 -1.4745  1.6105
 1318SOL    MW4 5046   0.235   4.035   3.919 -0.3256 -0.0451 -0.1559
 1319SOL     OW 5047   5.799   2.628   1.139 -0.6809  0.0139  0.3123
 1319SOL    HW2 5048   5.760   2.646   1.225 -2.2463 -2.5393  0.2508
 1319SOL    HW3 5049   5.887   2.595   1.159 -0.0504  1.8446  0.7249
 1319SOL    MW4 5050   5.805   2.626   1.153 -0.2746 -0.0293 -0.1832
 1320SOL     OW 5051   0.356   2.713   4.920 -0.2973  0.2132  0.0195
 1320SOL    HW2 5052   0.296   2.720   4.846  0.1948  1.5345 -0.2697
 1320SOL    HW3 5053   0.300   2.685   4.993 -1.2565  1.3529 -0.2526
 1320SOL    MW4 5054   0.340   2.710   4.920 -0.3944 -0.0283 -0.2247
 1321SOL     OW 5055   1.536   1.701   6.144 -0.6661  0.3518  0.1996
 1321SOL    HW2 5056   1.486   1.782   6.154 -2.2047 -0.6675  1.2162
 1321SOL    HW3 5057   1.627   1.728   6.154 -1.0468  2.1165 -0.6797
 1321SOL    MW4 5058   1.541   1.716   6.147  0.2934 -0.5755  0.6592
 1322SOL     OW 5059   5.644   1.430   1.895 -0.2025 -0.0999  0.4262
 1322SOL    HW2 5060   5.553   1.402   1.898  0.4190 -2.1893  1.1491
 1322SOL    HW3 5061   5.646   1.498   1.827 -2.6069  1.3348  1.6732
 1322SOL    MW4 5062   5.632   1.436   1.886  0.3285  0.6736  0.4878
 1323SOL     OW 5063   6.236   4.339   0.844  0.0105  0.0521  0.4191
 1323SOL    HW2 5064   6.319   4.335   0.892  1.7505 -0.4896 -2.4245
 1323SOL    HW3 5065   6.211   4.431   0.848  1.3307  0.4274  0.3952
 1323SOL    MW4 5066   6.244   4.351   0.851 -0.2664  0.1763 -0.0324
 1324SOL     OW 5067   3.509   1.014   4.005  0.2106 -0.4722 -0.1249
 1324SOL    HW2 5068   3.583   0.963   3.974 -0.4333 -1.4068 -0.1790
 1324SOL    HW3 5069   3.443   0.949   4.028  0.3019  0.1824  2.3446
 1324SOL    MW4 5070   3.510   0.999   4.004  0.2295  0.2075  0.4752
 1325SOL     OW 5071   2.158   4.731   5.933  0.2372 -0.1517 -1.3026
 1325SOL    HW2 5072   2.241   4.778   5.932 -0.5510  1.3519 -0.0470
 1325SOL    HW3 5073   2.106   4.773   5.865  0.3140 -0.7602 -1.7456
 1325SOL    MW4 5074   2.162   4.743   5.924  0.1006 -0.1019 -0.5950
 1326SOL     OW 5075   2.935   4.774   1.052  0.2508  0.5604  0.2695
 1326SOL    HW2 5076   2.888   4.826   1.118 -0.9199 -0.6007  0.3942
 1326SOL    HW3 5077   2.892   4.689   1.053  0.7780  0.2267 -1.3773
 1326SOL    MW4 5078   2.923   4.770   1.061 -0.0876 -0.1159 -0.1387
 1327SOL     OW 5079   3.765   6.041   3.792  0.2397  0.7819 -0.0169
 1327SOL    HW2 5080   3.724   5.965   3.750  2.9419 -1.9391  1.8357
 1327SOL    HW3 5081   3.783   6.011   3.881  1.8402  3.4910  0.6637
 1327SOL    MW4 5082   3.762   6.027   3.798  0.4838  0.0641  0.1409
 1328SOL     OW 5083   4.992   3.822   1.866 -0.1981 -0.1934  0.0788
 1328SOL    HW2 5084   5.077   3.804   1.825 -0.5945 -0.8118 -0.4874
 1328SOL    HW3 5085   5.007   3.901   1.918  0.3696  0.4997 -1.0982
 1328SOL    MW4 5086   5.005   3.830   1.868  0.2685  0.1263 -0.5018
 1329SOL     OW 5087   3.239   1.606   0.782 -0.1781  0.3255  0.1744
 1329SOL    HW2 5088   3.237   1.699   0.802  0.2332  0.4045 -0.1329
 1329SOL    HW3 5089   3.190   1.597   0.701 -0.2607  0.2691  0.2304
 1329SOL    MW4 5090   3.233   1.617   0.774 -0.2962 -0.1821  0.1908
 1330SOL     OW 5091   1.315   3.232   5.941 -0.4993  0.3412  0.3363
 1330SOL    HW2 5092   1.404   3.231   5.906 -0.0869  1.4525  1.2881
 1330SOL    HW3 5093   1.258   3.236   5.864  0.3729  2.4150 -0.2694
 1330SOL    MW4 5094   1.319   3.232   5.926  0.2388 -0.6367  0.2299
 1331SOL     OW 5095   0.219   5.084   2.232 -0.1501 -0.7019 -0.3940
 1331SOL    HW2 5096   0.293   5.024   2.224 -0.5244 -1.3050  0.5106
 1331SOL    HW3 5097   0.164   5.046   2.300 -0.4333  0.6430  0.1661
 1331SOL    MW4 5098   0.222   5.071   2.240  0.5354  0.1472  0.4535
 1332SOL     OW 5099   5.289   1.804   0.154 -0.0131 -0.8813  0.6639
 1332SOL    HW2 5100   5.336   1.756   0.222 -0.5020 -1.6209  0.4872
 1332SOL    HW3 5101   5.299   1.896   0.179  0.3729 -1.1063  1.3681
 1332SOL    MW4 5102   5.297   1.810   0.166 -0.0822 -0.5596 -0.3783
 1333SOL     OW 5103   2.079   2.501   5.363 -0.3390 -0.1608  0.3744
 1333SOL    HW2 5104   2.141   2.442   5.407  0.4486  0.4755  0.1425
 1333SOL    HW3 5105   2.130   2.540   5.292 -1.4142 -0.6645 -0.6925
 1333SOL    MW4 5106   2.094   2.498   5.360  0.2446  0.1259  0.3130
 1334SOL     OW 5107   0.523   4.470   6.198  0.1658  0.0562 -0.2609
 1334SOL    HW2 5108   0.539   4.564   6.198  1.1267 -0.0892 -0.3131
 1334SOL    HW3 5109   0.575   4.438   6.272 -0.8643 -0.3293  0.3134
 1334SOL    MW4 5110   0.532   4.478   6.208  0.3357  0.2687 -0.0751
 1335SOL     OW 5111   5.514   4.208   5.832 -0.7216 -0.5356 -0.0800
 1335SOL    HW2 5112   5.588   4.267   5.816 -0.5991 -0.6020  0.2291
 1335SOL    HW3 5113   5.535   4.166   5.916 -1.0387 -0.6651 -0.0651
 1335SOL    MW4 5114   5.527   4.210   5.841  0.1247  0.0929 -0.7754
 1336SOL     OW 5115   4.130   3.573   5.687  0.0629 -0.1201  0.1312
 1336SOL    HW2 5116   4.212   3.618   5.666  0.1283 -1.0042 -1.7262
 1336SOL    HW3 5117   4.157   3.484   5.709 -0.2642  0.0810  1.4098
 1336SOL    MW4 5118   4.145   3.567   5.687 -0.0236  0.6781 -0.3634
 1337SOL     OW 5119   0.602   1.804   2.073 -0.3693 -0.0044  0.6494
 1337SOL    HW2 5120   0.602   1.900   2.064  1.8524  0.1022  1.2946
 1337SOL    HW3 5121   0.561   1.773   1.992  0.3787  1.4540 -0.3497
 1337SOL    MW4 5122   0.596   1.813   2.061  0.0461 -0.3270  0.2274
 1338SOL     OW 5123   6.000   1.389   6.226  0.1513 -0.3503  0.2144
 1338SOL    HW2 5124   5.964   1.387   6.315  0.9958 -2.8544  0.5754
 1338SOL    HW3 5125   6.055   1.467   6.225 -2.5521  1.7129  0.6972
 1338SOL    MW4 5126   6.003   1.399   6.238  0.2389 -0.0886  0.0181
 1339SOL     OW 5127   6.197   0.774   0.015  0.2087 -0.0712  0.0368
 1339SOL    HW2 5128   6.119   0.788   0.068  0.9728  1.1689  0.8597
 1339SOL    HW3 5129   6.174   0.809  -0.071 -0.6144 -1.0049 -0.1487
 1339SOL    MW4 5130   6.184   0.780   0.011 -0.0954 -0.3628 -0.2145
 1340SOL     OW 5131   6.126   5.544   3.316  0.0393  0.3024 -0.3728
 1340SOL    HW2 5132   6.134   5.548   3.411 -0.9863  1.0433 -0.3147
 1340SOL    HW3 5133   6.155   5.455   3.294  1.4602  0.5083  0.4918
 1340SOL    MW4 5134   6.131   5.533   3.325 -0.1097 -0.6808 -0.0076
 1341SOL     OW 5135   5.666   1.040   1.297  0.0816  0.0859  0.8701
 1341SOL    HW2 5136   5.580   1.076   1.274  0.3252 -0.0822 -0.3769
 1341SOL    HW3 5137   5.727   1.111   1.277  0.4682 -0.6438 -0.7074
 1341SOL    MW4 5138   5.663   1.054   1.291  0.0914 -0.3420 -0.7780
 1342SOL     OW 5139   2.991   0.852   2.114  0.6687 -0.0845 -0.1733
 1342SOL    HW2 5140   3.030   0.938   2.129 -0.1767  0.3597 -0.4689
 1342SOL    HW3 5141   2.935   0.837   2.190  1.2914 -0.6563  0.1803
 1342SOL    MW4 5142   2.989   0.861   2.126  0.6814 -0.2338  0.2431
 1343SOL     OW 5143   3.233   0.616   5.646  0.2724 -0.1775  0.6935
 1343SOL    HW2 5144   3.201   0.581   5.729 -0.0917 -0.3571  0.4804
 1343SOL    HW3 5145   3.278   0.542   5.605 -1.9513 -0.9368 -0.5218
 1343SOL    MW4 5146   3.235   0.602   5.652  0.3129 -0.2367 -0.1932
 1344SOL     OW 5147   1.554   0.286   4.437 -0.0358  0.1275 -0.2405
 1344SOL    HW2 5148   1.579   0.350   4.503 -0.6787  0.5739 -0.4142
 1344SOL    HW3 5149   1.483   0.329   4.388 -1.9542 -1.4796  0.9659
 1344SOL    MW4 5150   1.548   0.300   4.439 -0.2536 -0.1519 -0.0423
 1345SOL     OW 5151   3.110   1.525   6.274 -0.1022  0.0509  0.4672
 1345SOL    HW2 5152   3.168   1.541   6.199 -1.1692  0.8904 -0.2211
 1345SOL    HW3 5153   3.116   1.431   6.290  0.6597 -0.0323 -0.2487
 1345SOL    MW4 5154   3.118   1.515   6.266  0.4379 -0.0939  0.0833
 1346SOL     OW 5155   3.105   3.655   2.497 -0.7108  0.3125  0.1161
 1346SOL    HW2 5156   3.143   3.736   2.464 -1.0777 -0.0187 -1.1818
 1346SOL    HW3 5157   3.145   3.642   2.583 -0.2248  1.5587  0.0885
 1346SOL    MW4 5158   3.115   3.664   2.504 -0.1953  0.2906 -0.4783
 1347SOL     OW 5159   4.522   4.418   1.715  0.0912 -0.0461 -0.1979
 1347SOL    HW2 5160   4.551   4.497   1.669  1.2759 -0.3603 -0.0239
 1347SOL    HW3 5161   4.596   4.395   1.772 -0.7154 -0.5882  0.6570
 1347SOL    MW4 5162   4.536   4.426   1.717  0.2817  0.0933  0.2166
 1348SOL     OW 5163   5.432   4.608   1.215 -0.0714 -0.1580 -0.2064
 1348SOL    HW2 5164   5.518   4.568   1.219  1.0731  2.1694  0.7170
 1348SOL    HW3 5165   5.392   4.573   1.136  1.3778 -1.9216 -0.2059
 1348SOL    MW4 5166   5.438   4.598   1.205  0.0583  0.1169 -0.9272
 1349SOL     OW 5167   3.969   4.786   2.899  0.0139  0.4495  0.0285
 1349SOL    HW2 5168   3.995   4.800   2.990 -0.1228 -0.0937  0.1578
 1349SOL    HW3 5169   4.034   4.832   2.847  0.4474  0.2389  0.3846
 1349SOL    MW4 5170   3.981   4.794   2.904 -1.0797  0.5244 -0.4141
 1350SOL     OW 5171   0.901   1.082   5.852  0.1087 -0.7749 -0.3840
 1350SOL    HW2 5172   0.810   1.114   5.851 -0.5562 -2.3347  2.0848
 1350SOL    HW3 5173   0.944   1.133   5.921  0.3737 -1.7776  0.2112
 1350SOL    MW4 5174   0.894   1.093   5.861 -0.0129 -0.0212 -0.4083
 1351SOL     OW 5175   6.108   0.031   1.887 -0.0002 -0.6241  0.2482
 1351SOL    HW2 5176   6.134   0.012   1.977 -0.5821 -0.0832  0.5366
 1351SOL    HW3 5177   6.108  -0.054   1.843  1.3727 -0.7605  0.4549
 1351SOL    MW4 5178   6.112   0.018   1.893  0.4366 -0.8530 -0.4631
 1352SOL     OW 5179   2.161   0.705   4.817 -0.4782 -0.0851  0.0584
 1352SOL    HW2 5180   2.186   0.756   4.894 -0.1473  0.5619 -0.4692
 1352SOL    HW3 5181   2.069   0.684   4.832 -0.3316 -0.2434  0.7807
 1352SOL    MW4 5182   2.152   0.709   4.829 -0.5293  0.2137  0.1485
 1353SOL     OW 5183   2.232   3.261   5.226 -0.0838 -0.0461 -0.2618
 1353SOL    HW2 5184   2.289   3.262   5.302 -1.2032  0.6811  0.6094
 1353SOL    HW3 5185   2.236   3.171   5.193  3.2208  0.4439 -1.5944
 1353SOL    MW4 5186   2.240   3.249   5.232 -0.5506  0.5361 -0.2804
 1354SOL     OW 5187   3.977   2.066   5.066  0.0386 -0.2296 -0.2983
 1354SOL    HW2 5188   4.035   2.019   5.126  1.9870  3.0432  0.6582
 1354SOL    HW3 5189   3.921   2.117   5.124 -0.2829  0.5210 -1.2563
 1354SOL    MW4 5190   3.977   2.066   5.082 -0.6074 -0.4643 -0.0528
 1355SOL     OW 5191   2.832   3.565   2.488  0.5962  0.3735 -0.3896
 1355SOL    HW2 5192   2.927   3.559   2.495  0.5805  0.6239  0.0644
 1355SOL    HW3 5193   2.799   3.519   2.566  0.2954 -1.5673 -1.5852
 1355SOL    MW4 5194   2.840   3.558   2.500  0.3474  0.2589  0.2323
 1356SOL     OW 5195   0.716   6.004   1.877 -0.5708 -0.0538  0.2579
 1356SOL    HW2 5196   0.667   6.025   1.798 -2.3833  1.0059  1.5753
 1356SOL    HW3 5197   0.773   5.931   1.853 -0.5351  0.7116 -2.1807
 1356SOL    MW4 5198   0.717   5.997   1.864 -0.0382  0.2307  0.7228
 1357SOL     OW 5199   6.219   0.176   1.619 -0.4035  0.2234  0.9945
 1357SOL    HW2 5200   6.202   0.129   1.701 -0.5678  1.2326  1.5561
 1357SOL    HW3 5201   6.136   0.218   1.598  0.3932  2.4119  1.9343
 1357SOL    MW4 5202   6.206   0.175   1.627 -0.1870 -0.1240  0.6937
 1358SOL     OW 5203   3.042   3.829   6.261 -0.4409 -0.1609 -0.7620
 1358SOL    HW2 5204   3.131   3.853   6.288 -0.2882 -0.6839 -0.7897
 1358SOL    HW3 5205   2.988   3.845   6.338 -0.1187 -1.0161 -0.3516
 1358SOL    MW4 5206   3.047   3.835   6.274 -0.1510 -0.2763 -0.2523
 1359SOL     OW 5207   3.108   2.103   2.048  0.2477 -0.0003  0.3051
 1359SOL    HW2 5208   3.130   2.190   2.015 -0.9629 -0.5241 -2.0796
 1359SOL    HW3 5209   3.188   2.051   2.034  0.9080  0.6343  1.5605
 1359SOL    MW4 5210   3.121   2.107   2.042  0.2213 -0.3405  0.3237
 1360SOL     OW 5211   5.422   0.532   4.547 -0.7404 -0.0820  0.0636
 1360SOL    HW2 5212   5.511   0.530   4.511 -0.5155  0.9358  0.5337
 1360SOL    HW3 5213   5.402   0.440   4.565 -0.4543 -0.5109 -1.6370
 1360SOL    MW4 5214   5.431   0.520   4.545 -0.3300 -0.0077  0.2221
 1361SOL     OW 5215   3.122   0.286   3.935 -0.3195  0.4258 -0.3947
 1361SOL    HW2 5216   3.144   0.359   3.993 -1.8172  0.1496  0.5898
 1361SOL    HW3 5217   3.026   0.284   3.935 -0.3309 -1.9818  0.1974
 1361SOL    MW4 5218   3.112   0.295   3.943  0.0155  0.4005  0.3958
 1362SOL     OW 5219   5.391   3.864   2.216  0.0001 -0.1427  0.1957
 1362SOL    HW2 5220   5.344   3.782   2.199 -0.7136  0.2345  0.3513
 1362SOL    HW3 5221   5.484   3.838   2.214 -0.1772 -0.7734 -0.7128
 1362SOL    MW4 5222   5.397   3.850   2.213 -0.5359 -0.7103  0.3310
 1363SOL     OW 5223   1.658   3.627   4.734  0.2553  0.1903  0.1823
 1363SOL    HW2 5224   1.670   3.532   4.729  0.6260  0.3051 -2.0877
 1363SOL    HW3 5225   1.741   3.663   4.705  0.3840  1.2596  1.7676
 1363SOL    MW4 5226   1.670   3.619   4.730  0.0087  0.0995  0.0160
 1364SOL     OW 5227   4.817   3.370   4.888 -0.4607 -0.1071  0.2027
 1364SOL    HW2 5228   4.812   3.304   4.819  3.3584  0.1385 -0.5353
 1364SOL    HW3 5229   4.826   3.319   4.969  0.9733 -0.5530 -0.2008
 1364SOL    MW4 5230   4.818   3.354   4.890  0.8694  0.3161 -0.0779
 1365SOL     OW 5231   0.895   3.060   1.261 -0.3706 -0.1047 -0.6673
 1365SOL    HW2 5232   0.901   3.062   1.357  0.3427  1.0530 -0.7209
 1365SOL    HW3 5233   0.832   3.127   1.239 -2.4462 -2.0166 -0.9323
 1365SOL    MW4 5234   0.888   3.069   1.271  0.3509  0.0931  1.2568
 1366SOL     OW 5235   3.189   0.399   1.058 -0.0169  0.8018  0.5161
 1366SOL    HW2 5236   3.218   0.376   1.146  3.0330 -2.7886 -1.1361
 1366SOL    HW3 5237   3.270   0.412   1.009 -1.5822  1.7674 -1.9821
 1366SOL    MW4 5238   3.204   0.398   1.063 -0.2622 -0.0069 -0.3559
 1367SOL     OW 5239   1.298   1.994   1.599  0.2249  0.1286 -0.0888
 1367SOL    HW2 5240   1.237   1.961   1.533 -0.0366  0.5835 -0.0810
 1367SOL    HW3 5241   1.349   2.060   1.553 -0.0668  0.5612  0.2001
 1367SOL    MW4 5242   1.297   1.998   1.584 -0.4157 -0.2046 -0.1695
 1368SOL     OW 5243   2.127   5.265   3.542 -0.0352  0.2140 -0.1756
 1368SOL    HW2 5244   2.218   5.269   3.572 -0.1791  0.5205  0.2295
 1368SOL    HW3 5245   2.090   5.188   3.586  0.3835 -0.7183 -1.3735
 1368SOL    MW4 5246   2.134   5.255   3.551 -0.1289  0.5594 -0.5584
 1369SOL     OW 5247   4.912   6.182   0.310 -0.1660  0.1880 -0.4018
 1369SOL    HW2 5248   4.989   6.128   0.292 -1.6764 -2.6947  1.0042
 1369SOL    HW3 5249   4.852   6.164   0.238 -1.0036 -0.7464  0.4944
 1369SOL    MW4 5250   4.915   6.173   0.298 -0.9007 -0.1194  0.0829
 1370SOL     OW 5251   4.380   2.444   4.800  0.7633  0.1850 -0.1987
 1370SOL    HW2 5252   4.386   2.407   4.712  1.4843  0.7721 -0.3992
 1370SOL    HW3 5253   4.298   2.407   4.835  0.8924 -0.7035 -0.7977
 1370SOL    MW4 5254   4.370   2.434   4.793 -0.0803 -0.2421  0.1188
 1371SOL     OW 5255   3.598   5.932   0.871  0.1568 -0.2084  0.4429
 1371SOL    HW2 5256   3.547   5.884   0.806  0.1710 -0.4797  0.6311
 1371SOL    HW3 5257   3.536   5.994   0.909 -0.2946 -1.1893  1.3507
 1371SOL    MW4 5258   3.583   5.934   0.867  0.5730  0.0372 -0.0480
 1372SOL     OW 5259   0.949   4.805   3.309  0.2176  0.4495  0.1492
 1372SOL    HW2 5260   0.919   4.893   3.287 -0.6870 -0.0845 -0.8540
 1372SOL    HW3 5261   0.899   4.747   3.252  0.9232 -0.7158  0.6601
 1372SOL    MW4 5262   0.938   4.809   3.299 -0.3075  0.1448 -0.3243
 1373SOL     OW 5263   4.793   6.323   5.692  0.2153 -0.1934  0.4608
 1373SOL    HW2 5264   4.866   6.298   5.635  0.3038 -2.1147  1.3222
 1373SOL    HW3 5265   4.812   6.413   5.719  1.9635 -0.4648  0.2040
 1373SOL    MW4 5266   4.805   6.331   5.688 -0.2371  0.0077 -0.1126
 1374SOL     OW 5267   6.391   3.508   1.990 -0.2668  0.0047 -0.5483
 1374SOL    HW2 5268   6.409   3.496   2.083 -0.7408 -1.0313 -0.5801
 1374SOL    HW3 5269   6.368   3.421   1.958 -1.1895  0.5301 -1.3920
 1374SOL    MW4 5270   6.390   3.495   1.998 -0.0585  1.2154  0.0176
 1375SOL     OW 5271   0.068   5.519   3.007  0.5555 -0.1720 -0.6820
 1375SOL    HW2 5272   0.105   5.605   3.027  2.2158 -0.9787 -0.0809
 1375SOL    HW3 5273   0.129   5.480   2.944  0.5770 -1.4022  0.0515
 1375SOL    MW4 5274   0.081   5.525   3.001  0.0683  0.0177 -0.0348
 1376SOL     OW 5275   1.762   0.133   3.494 -0.2642 -0.0346  0.1975
 1376SOL    HW2 5276   1.707   0.199   3.535 -1.4332  1.3269 -3.2154
 1376SOL    HW3 5277   1.828   0.182   3.446 -0.6365 -1.3082 -1.7393
 1376SOL    MW4 5278   1.763   0.148   3.493 -0.1049 -0.2084 -0.6799
 1377SOL     OW 5279   3.614   3.961   3.426  0.0974  0.3315  0.0521
 1377SOL    HW2 5280   3.628   3.868   3.440 -0.7417  0.2047  0.1466
 1377SOL    HW3 5281   3.700   4.001   3.435  0.5735 -0.5194 -0.7072
 1377SOL    MW4 5282   3.627   3.954   3.429 -0.0544  0.4583 -0.0604
 1378SOL     OW 5283   5.668   3.729   6.095 -0.1464 -0.4126  0.1661
 1378SOL    HW2 5284   5.669   3.673   6.018 -0.6357  0.2576 -0.3348
 1378SOL    HW3 5285   5.615   3.682   6.158  0.7326 -1.2364  0.3195
 1378SOL    MW4 5286   5.661   3.716   6.093  0.6413 -0.2510 -0.3408
 1379SOL     OW 5287   1.481   3.691   0.812  0.5387 -0.5304  0.2669
 1379SOL    HW2 5288   1.430   3.611   0.801  0.9441 -0.6723 -0.6346
 1379SOL    HW3 5289   1.416   3.761   0.821  0.1874 -0.7715 -0.4031
 1379SOL    MW4 5290   1.466   3.690   0.812  0.0841  0.0927 -0.3867
 1380SOL     OW 5291   3.824   2.832   6.054  0.0260  0.4335 -0.0839
 1380SOL    HW2 5292   3.835   2.801   5.964  1.4657 -1.2255  0.5994
 1380SOL    HW3 5293   3.817   2.752   6.106  1.7032  1.2611  1.5430
 1380SOL    MW4 5294   3.825   2.817   6.049  0.4199  0.1670  0.4359
 1381SOL     OW 5295   0.586   6.035   0.717  0.1145 -0.5506  0.3046
 1381SOL    HW2 5296   0.639   6.001   0.645 -0.6899 -1.8801  0.3117
 1381SOL    HW3 5297   0.532   5.961   0.744 -1.9368  0.8276  0.1280
 1381SOL    MW4 5298   0.586   6.020   0.711  0.1372 -0.3783 -0.5747
 1382SOL     OW 5299   1.236   1.553   1.511 -0.2865  0.1563  0.0046
 1382SOL    HW2 5300   1.255   1.513   1.595  0.3044 -0.5922 -0.4712
 1382SOL    HW3 5301   1.315   1.601   1.489  0.5964 -1.7801 -1.3102
 1382SOL    MW4 5302   1.249   1.554   1.519  0.4014  0.6836  0.6606
 1383SOL     OW 5303   2.037   5.241   1.018  0.5692  0.4159  0.4334
 1383SOL    HW2 5304   2.130   5.264   1.017  1.2595 -2.0728  0.9652
 1383SOL    HW3 5305   1.996   5.305   0.960  3.0577 -0.1718 -2.2222
 1383SOL    MW4 5306   2.044   5.252   1.010 -0.2820 -0.1887  0.5309
 1384SOL     OW 5307   3.886   2.139   3.986 -0.1926 -0.9516 -0.0985
 1384SOL    HW2 5308   3.803   2.188   3.989  0.8476  0.8562  0.4970
 1384SOL    HW3 5309   3.935   2.178   3.914  0.6006 -1.2380  0.2755
 1384SOL    MW4 5310   3.881   2.151   3.977  0.3760 -0.2628 -0.2891
 1385SOL     OW 5311   3.552   6.424   2.439 -0.1286 -0.2586  0.1505
 1385SOL    HW2 5312   3.541   6.364   2.365 -1.5253 -0.3576  0.4122
 1385SOL    HW3 5313   3.550   6.512   2.400  0.3413 -0.3416 -0.0593
 1385SOL    MW4 5314   3.550   6.428   2.424 -0.2608  0.1715  0.5712
 1386SOL     OW 5315   3.082   0.701   4.477  0.6474 -0.1685 -0.4301
 1386SOL    HW2 5316   3.147   0.632   4.466  1.3055  0.3811 -0.0904
 1386SOL    HW3 5317   3.132   0.777   4.505 -0.3295 -0.2041  1.6466
 1386SOL    MW4 5318   3.097   0.702   4.479 -0.0004 -0.1060  0.0158
 1387SOL     OW 5319   6.103   5.536   4.744  0.5689 -0.0755  0.3063
 1387SOL    HW2 5320   6.011   5.519   4.761  0.4951  0.6931  0.7219
 1387SOL    HW3 5321   6.130   5.465   4.686 -0.8293  0.8119 -1.5443
 1387SOL    MW4 5322   6.095   5.524   4.738  0.1521 -0.0876 -0.1874
 1388SOL     OW 5323   0.232   0.093   2.906  0.0990  0.1536  0.8034
 1388SOL    HW2 5324   0.309   0.149   2.897  0.1940 -0.1035 -0.1117
 1388SOL    HW3 5325   0.162   0.141   2.861  0.2001 -0.4739 -0.0514
 1388SOL    MW4 5326   0.233   0.107   2.899 -0.0058 -0.2461 -0.2304
 1389SOL     OW 5327   1.193   3.679   1.603 -0.1569 -0.3895  0.3417
 1389SOL    HW2 5328   1.145   3.711   1.680 -2.2864 -0.4207 -0.9029
 1389SOL    HW3 5329   1.203   3.585   1.620 -1.7081 -0.6332  0.0858
 1389SOL    MW4 5330   1.188   3.670   1.616  0.6776  0.2090  0.6232
 1390SOL     OW 5331   0.510   3.828   2.610  0.7037  0.2427  0.6495
 1390SOL    HW2 5332   0.567   3.829   2.533  0.4040 -0.8219  0.3960
 1390SOL    HW3 5333   0.422   3.844   2.575  0.8546  2.1599  1.0724
 1390SOL    MW4 5334   0.506   3.830   2.595 -0.6093  0.4798 -0.0017
 1391SOL     OW 5335   2.560   4.290   0.802 -0.6008 -0.0313  0.4964
 1391SOL    HW2 5336   2.607   4.225   0.854  0.2899  0.9813  1.0159
 1391SOL    HW3 5337   2.486   4.243   0.765  0.1608 -1.3925  0.6374
 1391SOL    MW4 5338   2.556   4.276   0.804 -0.0733 -0.1072  0.4937
 1392SOL     OW 5339   6.299   3.326   1.610  0.2393  0.4743 -0.7861
 1392SOL    HW2 5340   6.332   3.413   1.631  0.6552  0.4298 -1.2275
 1392SOL    HW3 5341   6.260   3.294   1.691  0.2058  1.0165 -0.5863
 1392SOL    MW4 5342   6.298   3.333   1.623 -0.2890  0.0311  0.0694
 1393SOL     OW 5343   1.935   2.142   4.595 -0.1499  0.4404 -0.7312
 1393SOL    HW2 5344   1.871   2.193   4.645  1.0471  0.8252  0.4682
 1393SOL    HW3 5345   1.895   2.056   4.586 -0.8806  0.7044 -0.0937
 1393SOL    MW4 5346   1.922   2.138   4.600  0.8515  0.2434  0.2263
 1394SOL     OW 5347   1.769   2.659   6.355 -0.5148  0.2487  0.1177
 1394SOL    HW2 5348   1.735   2.670   6.444  0.2983  1.5059  0.2914
 1394SOL    HW3 5349   1.856   2.622   6.366 -1.5836 -2.6768 -0.3195
 1394SOL    MW4 5350   1.776   2.656   6.368 -0.2167 -0.0004  0.0978
 1395SOL     OW 5351   4.183   1.851   5.859 -0.3102 -0.2107 -0.0927
 1395SOL    HW2 5352   4.214   1.942   5.856 -1.3335  0.1513 -0.2095
 1395SOL    HW3 5353   4.244   1.806   5.917 -0.1687  0.7061  0.4835
 1395SOL    MW4 5354   4.195   1.857   5.866 -0.0348 -0.4061 -0.0205
 1396SOL     OW 5355   5.298   1.277   4.937 -0.2309 -0.3546  0.5233
 1396SOL    HW2 5356   5.255   1.201   4.977  0.4429 -1.0851 -0.1109
 1396SOL    HW3 5357   5.382   1.283   4.983 -0.9543  1.0531  1.7474
 1396SOL    MW4 5358   5.304   1.268   4.949  0.3992  0.2531 -0.2465
 1397SOL     OW 5359   4.632   2.029   1.613 -0.0827  0.2789  0.0975
 1397SOL    HW2 5360   4.597   2.113   1.584  0.5305  0.0937 -1.2798
 1397SOL    HW3 5361   4.567   1.965   1.586  0.2070  0.1655 -0.3537
 1397SOL    MW4 5362   4.619   2.031   1.606 -0.2718  0.2147  0.1010
 1398SOL     OW 5363   0.842   3.503   3.007  0.5141 -0.3970 -0.0651
 1398SOL    HW2 5364   0.769   3.441   3.001 -1.6577  1.5895  2.8744
 1398SOL    HW3 5365   0.897   3.470   3.077  0.7929 -0.3106 -0.2403
 1398SOL    MW4 5366   0.839   3.491   3.015  0.0121 -0.0568  0.5296
 1399SOL     OW 5367   6.387   6.422   3.183  0.2801 -0.0141 -0.0213
 1399SOL    HW2 5368   6.329   6.472   3.127 -0.5666 -0.6832  0.2372
 1399SOL    HW3 5369   6.465   6.477   3.192  0.3456  0.2058 -1.6491
 1399SOL    MW4 5370   6.390   6.436   3.177  0.4232  0.2710  0.6004
 1400SOL     OW 5371   6.243   5.456   2.920  0.1904  0.6480 -0.3352
 1400SOL    HW2 5372   6.249   5.360   2.915 -1.2851  0.5344 -0.3949
 1400SOL    HW3 5373   6.322   5.483   2.966  1.0636 -0.5270 -1.0880
 1400SOL    MW4 5374   6.254   5.447   2.925 -0.0092  0.5832 -0.3279
 1401SOL     OW 5375   2.810   5.377   2.689  0.2447 -0.0554 -0.3181
 1401SOL    HW2 5376   2.770   5.414   2.768  0.2394  1.0807 -0.8216
 1401SOL    HW3 5377   2.742   5.383   2.622  0.7605  0.5260 -0.8085
 1401SOL    MW4 5378   2.796   5.383   2.691  0.0143  0.3742  0.1879
 1402SOL     OW 5379   1.091   2.134   5.729  0.1054 -0.2001  0.2885
 1402SOL    HW2 5380   1.131   2.061   5.775 -0.0215  0.2540  1.1297
 1402SOL    HW3 5381   1.017   2.096   5.682  0.8592 -0.8533 -0.4054
 1402SOL    MW4 5382   1.087   2.119   5.729  0.8264 -0.4708 -0.2255
 1403SOL     OW 5383   3.862   6.214   1.418 -0.3248 -0.4000 -0.6483
 1403SOL    HW2 5384   3.906   6.143   1.464 -1.8757 -1.8142 -1.2317
 1403SOL    HW3 5385   3.834   6.175   1.335 -0.5467  1.1206 -1.3151
 1403SOL    MW4 5386   3.864   6.200   1.413  0.1560  0.6132  0.0959
 1404SOL     OW 5387   1.107   3.317   5.462  0.0434  0.2811 -0.0776
 1404SOL    HW2 5388   1.049   3.381   5.502  1.1204  0.3883  1.3997
 1404SOL    HW3 5389   1.153   3.366   5.393  1.5371  1.4295  1.6387
 1404SOL    MW4 5390   1.106   3.332   5.458  0.0164  0.0618  0.2121
 1405SOL     OW 5391   0.379   0.523   0.494 -0.2808  0.4254  0.2683
 1405SOL    HW2 5392   0.289   0.522   0.527 -0.8560  1.1677 -1.1892
 1405SOL    HW3 5393   0.413   0.436   0.515 -2.5455 -1.2554 -2.2414
 1405SOL    MW4 5394   0.371   0.512   0.501  0.5367  0.1095 -0.1456
 1406SOL     OW 5395   4.318   0.302   6.181 -0.3483 -0.1858 -0.5882
 1406SOL    HW2 5396   4.224   0.290   6.177 -0.4243 -0.7919  1.5751
 1406SOL    HW3 5397   4.346   0.306   6.090 -2.4338 -0.0537 -1.2730
 1406SOL    MW4 5398   4.310   0.301   6.169 -0.1255  0.0514  0.0863
 1407SOL     OW 5399   6.076   6.304   0.524 -0.0073 -0.3988  0.0022
 1407SOL    HW2 5400   6.046   6.356   0.450  0.3377  1.1303  0.9092
 1407SOL    HW3 5401   5.999   6.293   0.579  0.8869  3.9641  2.5938
 1407SOL    MW4 5402   6.062   6.309   0.521 -0.3327 -0.0013 -0.0418
 1408SOL     OW 5403   0.079   5.049   3.127 -0.4137  0.5131  0.4567
 1408SOL    HW2 5404  -0.003   5.074   3.170 -0.6919  1.1399 -0.4079
 1408SOL    HW3 5405   0.051   5.007   3.046  0.0844  3.0857 -1.1549
 1408SOL    MW4 5406   0.064   5.046   3.122  0.9047  0.3089 -0.1604
 1409SOL     OW 5407   0.571   5.309   5.807 -0.2225 -0.2256 -0.2516
 1409SOL    HW2 5408   0.555   5.401   5.785 -0.9100 -0.8026 -2.5125
 1409SOL    HW3 5409   0.659   5.308   5.846 -1.2244  1.6627  2.3050
 1409SOL    MW4 5410   0.581   5.321   5.809  0.2799  0.4719 -0.9168
 1410SOL     OW 5411   0.828   5.583   3.020 -0.4071 -0.0947 -0.1234
 1410SOL    HW2 5412   0.918   5.616   3.015 -0.7998  0.8952 -1.2377
 1410SOL    HW3 5413   0.789   5.632   3.091 -0.6778  1.1249 -1.0790
 1410SOL    MW4 5414   0.835   5.594   3.029 -0.2995  0.3727  0.0829
 1411SOL     OW 5415   0.148   0.834   5.080 -0.4948  0.2437 -0.6449
 1411SOL    HW2 5416   0.187   0.758   5.123 -1.3123 -0.8247 -1.7380
 1411SOL    HW3 5417   0.216   0.866   5.021 -1.0657 -1.4303 -2.3243
 1411SOL    MW4 5418   0.162   0.828   5.078  0.0546  0.2505 -0.3475
 1412SOL     OW 5419   4.933   6.357   0.508 -0.1339 -0.0652  0.0996
 1412SOL    HW2 5420   5.009   6.315   0.549  1.3676  1.0894 -1.3320
 1412SOL    HW3 5421   4.927   6.316   0.421 -1.2591 -0.2474  0.2508
 1412SOL    MW4 5422   4.943   6.346   0.502  0.1174 -0.5471  0.6999
 1413SOL     OW 5423   2.288   3.990   4.417 -0.8187  0.2821  0.5775
 1413SOL    HW2 5424   2.328   4.034   4.342 -0.2523 -0.9062  0.1640
 1413SOL    HW3 5425   2.341   3.911   4.430 -2.7245 -1.1169  0.3092
 1413SOL    MW4 5426   2.300   3.985   4.409  0.1808 -0.0524  0.0406
 1414SOL     OW 5427   4.317   5.001   3.665  0.2512  0.3197  0.8463
 1414SOL    HW2 5428   4.302   4.981   3.758  2.1666 -0.1447  1.1149
 1414SOL    HW3 5429   4.276   5.086   3.652 -0.8150 -0.0069  1.8933
 1414SOL    MW4 5430   4.310   5.009   3.676  0.7542 -0.2125 -0.6945
 1415SOL     OW 5431   4.207   3.766   3.395  0.2299 -0.0310  0.3305
 1415SOL    HW2 5432   4.192   3.699   3.328  0.8789  0.0218  0.1245
 1415SOL    HW3 5433   4.190   3.722   3.478  2.3325 -0.9635  0.3191
 1415SOL    MW4 5434   4.202   3.752   3.397  0.0893  0.4482 -0.5201
 1416SOL     OW 5435   1.660   2.074   3.872 -0.2844 -0.2820 -0.2103
 1416SOL    HW2 5436   1.571   2.045   3.854 -1.7308  3.4602 -0.1180
 1416SOL    HW3 5437   1.675   2.051   3.964 -1.2346 -0.8217 -0.1878
 1416SOL    MW4 5438   1.650   2.067   3.882 -0.0509  0.3068 -0.0012
 1417SOL     OW 5439   5.354   6.021   0.590 -0.3407  0.0501 -0.5201
 1417SOL    HW2 5440   5.289   6.087   0.615  1.2344  1.9859 -1.2279
 1417SOL    HW3 5441   5.319   5.982   0.510 -2.0026 -1.1096  0.7055
 1417SOL    MW4 5442   5.341   6.025   0.582 -0.1744 -0.0077  0.2090
 1418SOL     OW 5443   0.376   5.713   3.822 -0.2756  0.2457 -0.0395
 1418SOL    HW2 5444   0.357   5.775   3.752 -0.7967  0.9367  0.6974
 1418SOL    HW3 5445   0.440   5.758   3.877 -1.1203  0.3888  0.8382
 1418SOL    MW4 5446   0.382   5.727   3.820 -0.4784  0.6301  0.2886
 1419SOL     OW 5447   1.888   3.310   3.918  0.2462 -0.0998 -0.0040
 1419SOL    HW2 5448   1.919   3.225   3.949  0.3102  0.3527  1.2449
 1419SOL    HW3 5449   1.958   3.343   3.861  1.1205 -0.0375  1.0695
 1419SOL    MW4 5450   1.901   3.303   3.915  0.1364 -0.0365  0.3209
 1420SOL     OW 5451   6.005   5.233   0.240 -0.1877  0.3810 -0.0637
 1420SOL    HW2 5452   5.944   5.160   0.242 -0.2445  0.4223 -0.2956
 1420SOL    HW3 5453   5.986   5.282   0.320  0.8663 -0.6832  0.8868
 1420SOL    MW4 5454   5.995   5.230   0.251  0.1974  0.1859 -0.0585
 1421SOL     OW 5455   2.751   3.486   3.117 -0.1027 -0.4013 -0.1680
 1421SOL    HW2 5456   2.797   3.404   3.131 -0.0622 -0.2671  0.5460
 1421SOL    HW3 5457   2.794   3.548   3.176 -0.6361 -0.0597 -0.1291
 1421SOL    MW4 5458   2.763   3.483   3.126 -0.5481  0.2887 -0.5707
 1422SOL     OW 5459   1.653   0.529   5.306  0.3354 -0.0918  0.0009
 1422SOL    HW2 5460   1.632   0.527   5.213 -0.0043 -0.9401  0.0863
 1422SOL    HW3 5461   1.579   0.487   5.348  1.2421 -1.2468  0.4935
 1422SOL    MW4 5462   1.640   0.523   5.299  0.4306 -0.4266 -0.0942
 1423SOL     OW 5463   3.428   5.733   2.126  0.1663  0.0299  0.3004
 1423SOL    HW2 5464   3.462   5.810   2.082  0.0491 -1.5538 -2.8742
 1423SOL    HW3 5465   3.505   5.693   2.168  0.4573  1.1540  0.8606
 1423SOL    MW4 5466   3.443   5.738   2.126 -0.1201  0.1139  0.8347
 1424SOL     OW 5467   5.169   5.532   4.131  0.5835 -0.1307 -1.2729
 1424SOL    HW2 5468   5.258   5.527   4.096  1.1504 -1.6443  0.2579
 1424SOL    HW3 5469   5.180   5.566   4.220 -0.4067 -0.0625 -1.1613
 1424SOL    MW4 5470   5.182   5.536   4.138 -0.8918  0.2623 -0.0080
 1425SOL     OW 5471   6.256   2.359   5.129  0.6150 -0.4058  0.5589
 1425SOL    HW2 5472   6.177   2.375   5.181 -1.8122 -1.0760 -2.5724
 1425SOL    HW3 5473   6.278   2.268   5.146 -0.3374 -0.7108  0.2508
 1425SOL    MW4 5474   6.248   2.349   5.138 -0.1308 -0.5582 -0.4362
 1426SOL     OW 5475   5.063   2.320   4.113  0.6880 -0.8856  0.4354
 1426SOL    HW2 5476   5.097   2.231   4.120  0.7183 -0.7716  2.0341
 1426SOL    HW3 5477   5.133   2.376   4.147 -0.4431 -0.5216  2.3025
 1426SOL    MW4 5478   5.077   2.316   4.118  0.0291 -0.7856 -0.0522
 1427SOL     OW 5479   2.857   3.534   4.749  0.1579  0.2396  0.6304
 1427SOL    HW2 5480   2.900   3.600   4.695 -1.6679  2.1878  1.4173
 1427SOL    HW3 5481   2.786   3.581   4.793 -0.9557 -2.1576  1.5976
 1427SOL    MW4 5482   2.853   3.549   4.747  0.5352 -0.4359 -0.0059
 1428SOL     OW 5483   1.686   2.478   2.398 -0.1474 -0.0479  0.1091
 1428SOL    HW2 5484   1.671   2.549   2.335  2.1571  0.0164 -0.4738
 1428SOL    HW3 5485   1.669   2.398   2.348 -0.2222  0.0543 -0.0284
 1428SOL    MW4 5486   1.682   2.477   2.383 -0.3440  0.4972  0.4048
 1429SOL     OW 5487   4.102   3.588   1.099  0.7229  0.2547  0.3482
 1429SOL    HW2 5488   4.183   3.538   1.115 -0.2119 -1.6981 -0.6359
 1429SOL    HW3 5489   4.133   3.676   1.076  2.5030 -0.0807  1.2514
 1429SOL    MW4 5490   4.117   3.593   1.098 -0.0790  0.1351 -0.7391
 1430SOL     OW 5491   2.397   5.759   2.117 -0.1923 -0.6154 -0.0974
 1430SOL    HW2 5492   2.364   5.670   2.128  0.8093 -1.3119 -2.1619
 1430SOL    HW3 5493   2.489   5.754   2.144 -1.0345  0.7995  3.5691
 1430SOL    MW4 5494   2.405   5.747   2.122 -0.6885  0.2722  0.1995
 1431SOL     OW 5495   2.660   1.040   2.432 -0.3100  1.0448 -0.5672
 1431SOL    HW2 5496   2.572   1.006   2.415  0.8232 -1.5175 -1.8805
 1431SOL    HW3 5497   2.664   1.048   2.528 -1.1244 -1.5552 -0.2309
 1431SOL    MW4 5498   2.649   1.036   2.443  0.0997 -0.2564 -0.9899
 1432SOL     OW 5499   4.964   4.970   1.035  0.2141 -0.5105 -0.3325
 1432SOL    HW2 5500   4.895   5.025   0.997 -0.5487 -0.9185  0.4292
 1432SOL    HW3 5501   5.020   5.031   1.083 -0.5891 -0.3621  0.4509
 1432SOL    MW4 5502   4.962   4.985   1.036 -0.8065 -0.1615 -0.3238
 1433SOL     OW 5503   1.585   2.969   4.561  0.5662  0.2153 -0.2193
 1433SOL    HW2 5504   1.515   3.011   4.512 -1.3610 -1.6847  0.7502
 1433SOL    HW3 5505   1.548   2.953   4.647  1.8024 -1.8295 -0.0060
 1433SOL    MW4 5506   1.571   2.972   4.566  0.3542 -0.0385 -0.0448
 1434SOL     OW 5507   5.100   0.422   2.235  0.2475  0.5320 -0.7327
 1434SOL    HW2 5508   5.061   0.488   2.292 -2.3117 -2.2180  0.9936
 1434SOL    HW3 5509   5.166   0.379   2.289 -1.0197 -0.9933 -0.3475
 1434SOL    MW4 5510   5.103   0.425   2.249 -0.8862  0.1743 -0.5460
 1435SOL     OW 5511   0.901   2.764   4.382 -0.0701 -0.1205  0.0778
 1435SOL    HW2 5512   0.976   2.810   4.344  0.1375 -1.4875 -1.2741
 1435SOL    HW3 5513   0.913   2.673   4.356 -2.4041 -0.3166 -0.5739
 1435SOL    MW4 5514   0.912   2.758   4.373  0.0621  0.2432 -0.2871
 1436SOL     OW 5515   0.961   2.302   5.449 -0.3156  0.0098  0.0496
 1436SOL    HW2 5516   0.969   2.208   5.465 -1.2056  0.0243  0.6350
 1436SOL    HW3 5517   0.883   2.328   5.497  0.5700  1.2749  0.8696
 1436SOL    MW4 5518   0.952   2.293   5.457 -0.1101  0.2869 -0.3456
 1437SOL     OW 5519   2.227   3.517   3.133 -0.2211  0.8192 -0.0211
 1437SOL    HW2 5520   2.157   3.567   3.173  0.1409  1.8181 -0.5980
 1437SOL    HW3 5521   2.303   3.575   3.136  0.2126  0.3068 -0.6930
 1437SOL    MW4 5522   2.228   3.531   3.139 -0.6962 -0.5004  0.1471
 1438SOL     OW 5523   1.727   1.457   2.417 -0.2373  0.0839 -0.3786
 1438SOL    HW2 5524   1.784   1.397   2.466  0.2314  0.3525 -0.5877
 1438SOL    HW3 5525   1.777   1.479   2.339  0.6045  2.5143  0.7455
 1438SOL    MW4 5526   1.741   1.452   2.413  0.5804  0.5420  0.2814
 1439SOL     OW 5527   1.061   2.941   0.052 -0.3481  0.1386 -0.1336
 1439SOL    HW2 5528   1.033   2.861   0.007  0.9877  0.1116 -0.9533
 1439SOL    HW3 5529   0.993   2.956   0.117 -1.1642 -1.0844 -0.6619
 1439SOL    MW4 5530   1.048   2.932   0.055 -0.4963 -0.1636  0.1181
 1440SOL     OW 5531   2.549   5.266   5.512 -0.3387 -0.1563  0.3470
 1440SOL    HW2 5532   2.624   5.326   5.518 -0.7570  0.5383 -1.0159
 1440SOL    HW3 5533   2.582   5.192   5.461 -0.8961  0.7416 -1.3970
 1440SOL    MW4 5534   2.563   5.264   5.506 -0.5015  0.0619 -0.5010
 1441SOL     OW 5535   3.868   1.177   4.002  0.1059 -0.0224 -0.0125
 1441SOL    HW2 5536   3.928   1.211   3.936 -1.1917 -2.2068 -2.5375
 1441SOL    HW3 5537   3.909   1.096   4.033 -0.7478 -0.7044 -0.5974
 1441SOL    MW4 5538   3.881   1.171   3.997 -0.3066 -0.0212  0.1657
 1442SOL     OW 5539   5.672   3.379   2.920  0.6729  0.7425  0.3074
 1442SOL    HW2 5540   5.580   3.406   2.920  0.2276 -0.6381 -1.3200
 1442SOL    HW3 5541   5.719   3.456   2.888 -0.2493  0.6273 -1.4613
 1442SOL    MW4 5542   5.666   3.393   2.916  0.2632 -0.4906 -0.0594
 1443SOL     OW 5543   4.822   5.494   0.113 -0.2631 -0.2397  0.7588
 1443SOL    HW2 5544   4.772   5.505   0.032  0.0524 -2.5226  0.1804
 1443SOL    HW3 5545   4.771   5.540   0.179 -1.7459 -0.2868 -0.3053
 1443SOL    MW4 5546   4.809   5.501   0.111  0.6795 -0.5959  0.3184
 1444SOL     OW 5547   5.035   2.284   2.282 -0.4088 -0.0823  0.6967
 1444SOL    HW2 5548   5.011   2.356   2.223  2.2012 -0.1956 -0.6354
 1444SOL    HW3 5549   5.078   2.327   2.356  1.7976 -0.2132 -0.4347
 1444SOL    MW4 5550   5.037   2.299   2.284 -0.0676  0.1230 -0.2395
 1445SOL     OW 5551   0.294   0.628   3.151  0.0370 -0.0832 -0.3734
 1445SOL    HW2 5552   0.319   0.540   3.123 -0.3377 -0.9540  1.8285
 1445SOL    HW3 5553   0.273   0.674   3.070  2.3739 -1.3111 -1.7715
 1445SOL    MW4 5554   0.294   0.623   3.137 -0.0483 -0.4241 -1.0656
 1446SOL     OW 5555   0.929   2.227   0.496  0.7163 -0.4619 -0.0901
 1446SOL    HW2 5556   0.881   2.306   0.468 -2.7441 -2.7968 -1.5026
 1446SOL    HW3 5557   0.928   2.231   0.591 -2.6139 -0.3466  0.0043
 1446SOL    MW4 5558   0.923   2.238   0.505 -0.5827 -0.5237  0.2490
 1447SOL     OW 5559   2.649   5.067   5.279  0.1550  0.0601  0.2981
 1447SOL    HW2 5560   2.601   4.985   5.283  1.6095 -0.9803 -1.8356
 1447SOL    HW3 5561   2.715   5.060   5.348  0.0558 -0.4281  0.3430
 1447SOL    MW4 5562   2.651   5.056   5.289 -0.2324  0.4747 -0.1651
 1448SOL     OW 5563   2.740   5.661   4.089  0.0331 -0.2320 -0.3138
 1448SOL    HW2 5564   2.756   5.642   3.997  0.2770 -0.4368 -0.2311
 1448SOL    HW3 5565   2.666   5.722   4.089  1.8212  2.1162 -0.8224
 1448SOL    MW4 5566   2.732   5.667   4.077  0.0251 -0.1877  0.6253
 1449SOL     OW 5567   0.104   0.355   3.660 -0.7857 -0.3720 -0.0424
 1449SOL    HW2 5568   0.185   0.403   3.679 -0.4059 -0.1914 -1.9104
 1449SOL    HW3 5569   0.117   0.320   3.571 -2.1843 -1.5712  0.1857
 1449SOL    MW4 5570   0.117   0.357   3.650 -0.4908 -0.3647 -0.0638
 1450SOL     OW 5571   1.001   0.918   4.313 -0.3122  0.0859 -0.0385
 1450SOL    HW2 5572   0.909   0.943   4.320 -0.9978 -1.0077 -3.4153
 1450SOL    HW3 5573   1.018   0.915   4.219  2.1390 -3.2217  0.3222
 1450SOL    MW4 5574   0.991   0.921   4.301  0.2019  0.1961 -0.0773
 1451SOL     OW 5575   5.005   1.459   5.949 -0.0927  0.8183  0.4762
 1451SOL    HW2 5576   5.034   1.546   5.924  0.7168  0.6492  0.7831
 1451SOL    HW3 5577   5.086   1.409   5.961 -0.5489 -0.0601  0.0070
 1451SOL    MW4 5578   5.019   1.464   5.947  0.5719 -0.0615 -0.4269
 1452SOL     OW 5579   2.492   0.447   1.270  0.0268 -0.6133 -0.1182
 1452SOL    HW2 5580   2.579   0.407   1.273  0.1043 -0.4598  2.3661
 1452SOL    HW3 5581   2.507   0.534   1.232  0.6440 -1.1853 -1.2339
 1452SOL    MW4 5582   2.506   0.454   1.266  0.2390 -0.5099  0.1861
 1453SOL     OW 5583   4.636   0.767   1.467 -0.2359 -0.1751 -0.2275
 1453SOL    HW2 5584   4.659   0.860   1.467 -0.9452  0.0093  0.1460
 1453SOL    HW3 5585   4.716   0.723   1.496  0.7839  0.1068 -2.4347
 1453SOL    MW4 5586   4.650   0.773   1.471 -0.1618  0.2833 -0.1668
 1454SOL     OW 5587   0.950   4.219   5.161  0.2357  0.0958 -0.2337
 1454SOL    HW2 5588   1.010   4.146   5.176  0.3763  0.1325 -0.6084
 1454SOL    HW3 5589   0.977   4.285   5.225  0.3003 -0.0636 -0.0944
 1454SOL    MW4 5590   0.961   4.218   5.171 -0.0934  0.0498 -0.4758
 1455SOL     OW 5591   2.041   1.046   1.789  0.6215  0.0424  0.4968
 1455SOL    HW2 5592   2.073   1.135   1.803 -2.1583  1.1118  0.6115
 1455SOL    HW3 5593   2.051   1.004   1.875 -0.9446  1.2969  1.3468
 1455SOL    MW4 5594   2.047   1.052   1.802  0.2959  0.3677 -0.5813
 1456SOL     OW 5595   1.921   3.592   2.130  0.0671 -0.3152  0.1276
 1456SOL    HW2 5596   1.919   3.629   2.218 -1.1267 -2.1057  0.9296
 1456SOL    HW3 5597   1.829   3.593   2.101  0.4661  0.4356 -1.2043
 1456SOL    MW4 5598   1.909   3.597   2.137  0.5186  0.1969  0.4797
 1457SOL     OW 5599   6.430   2.217   5.696 -0.5560  0.0860 -0.4412
 1457SOL    HW2 5600   6.484   2.206   5.617 -0.2373  0.9442 -0.3515
 1457SOL    HW3 5601   6.458   2.146   5.754  0.3466  0.3960 -0.4754
 1457SOL    MW4 5602   6.441   2.206   5.693 -0.4216  0.0853  0.2655
 1458SOL     OW 5603   3.474   2.028   3.665 -0.0559 -0.6450 -0.2742
 1458SOL    HW2 5604   3.383   2.010   3.644 -0.6451  0.9426  0.7133
 1458SOL    HW3 5605   3.523   1.953   3.630 -1.3987 -0.2834 -3.2135
 1458SOL    MW4 5606   3.469   2.016   3.657  0.7370  0.7417  0.0058
 1459SOL     OW 5607   1.435   6.043   6.366 -0.5126  0.1979 -0.4576
 1459SOL    HW2 5608   1.466   6.085   6.446 -3.0336  2.0656 -0.3336
 1459SOL    HW3 5609   1.465   6.101   6.296 -0.8045  0.1770 -0.6026
 1459SOL    MW4 5610   1.443   6.056   6.367  0.4236  0.0084  0.5648
 1460SOL     OW 5611   2.499   1.124   0.352  0.3474  0.8647  0.0060
 1460SOL    HW2 5612   2.506   1.175   0.433  1.5200  2.0270 -0.7878
 1460SOL    HW3 5613   2.541   1.179   0.286 -0.3634 -0.1752 -1.3491
 1460SOL    MW4 5614   2.505   1.138   0.354 -0.2136  0.2877  0.0932
 1461SOL     OW 5615   0.585   0.584   4.896  0.0095  0.5098  0.0855
 1461SOL    HW2 5616   0.553   0.557   4.810  1.7257 -0.1462 -0.3829
 1461SOL    HW3 5617   0.575   0.507   4.952  0.9532  0.2123 -0.1338
 1461SOL    MW4 5618   0.580   0.571   4.892 -0.3551 -0.3739  0.1448
 1462SOL     OW 5619   4.572   2.105   2.124  0.5040  0.0471 -0.3000
 1462SOL    HW2 5620   4.479   2.128   2.119  0.4593  0.1448  0.7804
 1462SOL    HW3 5621   4.591   2.064   2.040 -0.9090 -1.4281  0.0523
 1462SOL    MW4 5622   4.562   2.103   2.112 -0.0371 -0.1999 -0.5066
 1463SOL     OW 5623   1.484   3.842   2.211  0.0979  0.1849 -0.1084
 1463SOL    HW2 5624   1.459   3.771   2.270 -0.1956  0.1650 -0.2574
 1463SOL    HW3 5625   1.454   3.921   2.254  0.2916  0.2092 -0.0145
 1463SOL    MW4 5626   1.477   3.843   2.224 -0.1241 -0.3658 -0.0050
 1464SOL     OW 5627   4.167   4.012   6.063 -0.1811 -0.2198 -0.1297
 1464SOL    HW2 5628   4.180   4.038   6.154  0.8673  0.2475 -0.3848
 1464SOL    HW3 5629   4.163   3.916   6.065  1.7478 -0.3396  0.2333
 1464SOL    MW4 5630   4.168   4.003   6.075  0.4345  0.5508 -0.3771
 1465SOL     OW 5631   2.217   3.558   1.195 -0.2009 -0.0902  0.2027
 1465SOL    HW2 5632   2.279   3.515   1.254 -1.1310 -1.9659 -0.1285
 1465SOL    HW3 5633   2.264   3.562   1.111 -0.7007 -2.1340 -0.2298
 1465SOL    MW4 5634   2.232   3.553   1.192 -0.3793  0.4195 -0.1304
 1466SOL     OW 5635   0.384   2.121   6.131  0.4470 -0.2090  0.3205
 1466SOL    HW2 5636   0.303   2.120   6.182 -0.2602  1.0344 -0.7431
 1466SOL    HW3 5637   0.453   2.102   6.196 -0.3732  1.6791  1.8298
 1466SOL    MW4 5638   0.383   2.118   6.147  0.4137  0.5089 -0.0622
 1467SOL     OW 5639   4.545   1.990   1.189 -0.0162 -0.3671  0.1596
 1467SOL    HW2 5640   4.554   1.895   1.182  2.3934 -0.2063  0.2549
 1467SOL    HW3 5641   4.480   2.013   1.123 -1.4360 -2.1533  0.8403
 1467SOL    MW4 5642   4.537   1.980   1.180  0.1177 -0.0354  0.0297
 1468SOL     OW 5643   3.813   5.905   0.559 -0.3822  0.5040 -0.4888
 1468SOL    HW2 5644   3.830   5.959   0.636  2.0292  0.6324 -1.0213
 1468SOL    HW3 5645   3.824   5.815   0.590  2.2075  0.5898 -0.9140
 1468SOL    MW4 5646   3.817   5.900   0.573 -0.9051 -0.1379  0.2073
 1469SOL     OW 5647   3.824   1.485   1.477  0.5206 -0.2433  0.4878
 1469SOL    HW2 5648   3.767   1.529   1.540  0.8500  0.2119  0.4782
 1469SOL    HW3 5649   3.911   1.486   1.518  0.4578 -1.2784  0.6746
 1469SOL    MW4 5650   3.828   1.491   1.490  0.0302 -0.0749 -0.2408
 1470SOL     OW 5651   5.085   1.688   2.657  0.2362 -0.1441  0.3457
 1470SOL    HW2 5652   5.032   1.740   2.597  0.1633 -0.4703  0.1218
 1470SOL    HW3 5653   5.172   1.689   2.619  0.8124  1.7801  1.5839
 1470SOL    MW4 5654   5.089   1.695   2.644  0.3255  0.1664  0.0284
 1471SOL     OW 5655   2.326   4.555   3.352 -0.0255 -0.4659 -0.1897
 1471SOL    HW2 5656   2.301   4.547   3.444 -1.1395 -0.2752 -0.4613
 1471SOL    HW3 5657   2.395   4.621   3.352 -1.8221  1.5146  0.2451
 1471SOL    MW4 5658   2.332   4.563   3.364 -0.6057 -0.6973 -0.5443
 1472SOL     OW 5659   0.867   5.137   3.529 -0.4473 -0.5507 -0.7996
 1472SOL    HW2 5660   0.844   5.103   3.443  0.5410 -0.2768 -1.1849
 1472SOL    HW3 5661   0.949   5.184   3.515  0.3891 -1.5373  0.5092
 1472SOL    MW4 5662   0.875   5.139   3.516 -0.0349 -0.0296 -0.3448
 1473SOL     OW 5663   3.402   2.106   5.283  0.1797  0.1835 -0.3927
 1473SOL    HW2 5664   3.460   2.037   5.314  0.8579  1.0727  0.3976
 1473SOL    HW3 5665   3.325   2.099   5.339  0.0873 -0.1633 -0.5617
 1473SOL    MW4 5666   3.399   2.096   5.295 -0.8333 -0.3899 -0.1598
 1474SOL     OW 5667   1.260   5.233   1.845  0.4418  0.4974 -0.0975
 1474SOL    HW2 5668   1.247   5.323   1.877  1.5939  0.7689 -0.3242
 1474SOL    HW3 5669   1.271   5.242   1.751 -2.5048 -0.2618 -0.5991
 1474SOL    MW4 5670   1.260   5.246   1.837  0.1765 -0.2330 -0.3022
 1475SOL     OW 5671   3.229   1.883   0.825 -0.4618  0.5390 -0.0941
 1475SOL    HW2 5672   3.301   1.940   0.851  0.4366 -0.8605  0.5989
 1475SOL    HW3 5673   3.154   1.913   0.876  0.0897  0.8679  0.5388
 1475SOL    MW4 5674   3.229   1.895   0.835  0.4612  0.7378  0.6062
 1476SOL     OW 5675   1.640   5.907   1.618 -0.7194  0.4401  0.0311
 1476SOL    HW2 5676   1.729   5.888   1.590 -0.0901 -0.6882  2.4950
 1476SOL    HW3 5677   1.641   6.001   1.639 -0.1490  0.4722 -0.1245
 1476SOL    MW4 5678   1.652   5.917   1.617 -0.0312 -0.3881  0.1894
 1477SOL     OW 5679   1.494   3.578   1.077  0.5714  0.0446 -0.0230
 1477SOL    HW2 5680   1.589   3.571   1.085  0.4015 -1.7520  0.9695
 1477SOL    HW3 5681   1.480   3.646   1.011  2.5239  0.5982  0.0795
 1477SOL    MW4 5682   1.504   3.586   1.070  0.5101  0.0501  0.7114
 1478SOL     OW 5683   4.620   3.025   4.958  0.2906 -0.2333  0.1295
 1478SOL    HW2 5684   4.650   3.087   5.025  0.4862 -0.5495  0.3389
 1478SOL    HW3 5685   4.526   3.018   4.973 -0.0617  1.3366 -1.0056
 1478SOL    MW4 5686   4.612   3.033   4.969  0.3793 -0.1501 -0.1167
 1479SOL     OW 5687   1.858   6.070   6.207 -0.1434  0.4514  0.1390
 1479SOL    HW2 5688   1.888   5.998   6.151  3.6874  1.8602  0.0194
 1479SOL    HW3 5689   1.766   6.082   6.184 -0.9087 -4.0267 -0.1014
 1479SOL    MW4 5690   1.850   6.062   6.197 -0.1035  0.5177 -0.1814
 1480SOL     OW 5691   5.410   5.729   1.004 -0.0488  0.1204  0.0957
 1480SOL    HW2 5692   5.331   5.679   1.027  0.0977 -1.6273 -2.7815
 1480SOL    HW3 5693   5.382   5.821   1.010 -3.0691 -0.3898 -2.7872
 1480SOL    MW4 5694   5.396   5.735   1.008  0.0635  0.5070 -0.1082
 1481SOL     OW 5695   5.810   4.879   3.485  0.3786 -0.3868  0.3002
 1481SOL    HW2 5696   5.818   4.932   3.565 -0.0363  1.0848 -0.5872
 1481SOL    HW3 5697   5.783   4.793   3.516  0.5397  0.0620  1.7733
 1481SOL    MW4 5698   5.807   4.875   3.500  0.9702 -0.2128 -0.4916
 1482SOL     OW 5699   5.710   2.047   5.914  0.1598 -0.2473 -0.2291
 1482SOL    HW2 5700   5.730   1.979   5.849 -0.5516  0.4961 -1.2616
 1482SOL    HW3 5701   5.703   2.128   5.863  1.1733  0.6535  1.0027
 1482SOL    MW4 5702   5.712   2.049   5.898  0.4123 -0.3433 -0.1962
 1483SOL     OW 5703   2.431   2.493   3.917 -0.1888 -0.0945  0.0924
 1483SOL    HW2 5704   2.354   2.448   3.952  0.5622  0.6041  2.9018
 1483SOL    HW3 5705   2.406   2.585   3.912 -0.1563 -0.1282 -0.9425
 1483SOL    MW4 5706   2.418   2.499   3.921  0.1427  0.4807  0.4621
 1484SOL     OW 5707   3.828   4.142   3.474  0.3449 -0.4329  0.4772
 1484SOL    HW2 5708   3.776   4.218   3.445  0.0949 -1.0679 -0.8278
 1484SOL    HW3 5709   3.863   4.168   3.559  0.8411  1.4379 -0.2408
 1484SOL    MW4 5710   3.825   4.156   3.481 -0.0281  0.4343  0.4922
 1485SOL     OW 5711   5.002   2.502   1.813 -0.0009  0.0840 -0.3354
 1485SOL    HW2 5712   5.053   2.426   1.841 -1.9494 -0.6651  1.4338
 1485SOL    HW3 5713   5.062   2.576   1.821  1.8309 -1.1616 -1.7517
 1485SOL    MW4 5714   5.017   2.502   1.818 -0.4745 -0.1933  0.4126
 1486SOL     OW 5715   3.510   4.789   4.360  0.8268  0.0148 -0.4393
 1486SOL    HW2 5716   3.477   4.704   4.332 -0.5090  0.5304 -0.4936
 1486SOL    HW3 5717   3.451   4.816   4.429 -0.1242  1.8563 -1.8756
 1486SOL    MW4 5718   3.498   4.781   4.365 -0.2838  0.3297 -0.0615
 1487SOL     OW 5719   4.194   1.817   3.435  0.0767 -0.5836  0.1802
 1487SOL    HW2 5720   4.110   1.844   3.472  1.0630  3.0796  0.1829
 1487SOL    HW3 5721   4.239   1.772   3.507 -0.1298  1.6285  1.8069
 1487SOL    MW4 5722   4.189   1.815   3.450 -0.2570  0.6446  0.1308
 1488SOL     OW 5723   3.216   5.421   1.290 -0.3120  0.1719 -0.4546
 1488SOL    HW2 5724   3.247   5.390   1.205 -0.2464  0.5956 -0.5851
 1488SOL    HW3 5725   3.179   5.507   1.272 -3.5403 -1.1077 -0.7254
 1488SOL    MW4 5726   3.215   5.428   1.276  0.2504  0.2236 -0.0583
 1489SOL     OW 5727   5.529   5.582   4.568  0.2260 -0.0549  0.1365
 1489SOL    HW2 5728   5.547   5.496   4.608  1.9583 -0.6167 -1.6919
 1489SOL    HW3 5729   5.615   5.622   4.557 -0.3009  0.6853 -1.6279
 1489SOL    MW4 5730   5.543   5.576   4.572  0.5011  0.0834  0.0833
 1490SOL     OW 5731   3.083   5.170   5.499  0.2718 -0.3030  0.3510
 1490SOL    HW2 5732   3.116   5.258   5.518 -1.0017  0.1579  0.5313
 1490SOL    HW3 5733   3.109   5.154   5.408  1.1547 -0.0550  0.5447
 1490SOL    MW4 5734   3.091   5.180   5.489 -0.0463 -0.1324  0.1731
 1491SOL     OW 5735   5.941   4.361   4.475 -0.1754 -0.3893 -0.2539
 1491SOL    HW2 5736   5.980   4.293   4.419  1.9400 -0.0792  0.7335
 1491SOL    HW3 5737   5.951   4.328   4.564  0.1521  0.8492  0.1885
 1491SOL    MW4 5738   5.948   4.347   4.479  0.0626  0.2485 -0.0605
 1492SOL     OW 5739   1.269   0.107   6.417  0.1469 -0.0262  0.3887
 1492SOL    HW2 5740   1.205   0.039   6.396 -1.9094  2.0650 -0.4114
 1492SOL    HW3 5741   1.282   0.155   6.336 -0.4582  2.1407  1.5119
 1492SOL    MW4 5742   1.263   0.104   6.404 -0.1212 -0.2709 -0.0734
 1493SOL     OW 5743   5.301   0.950   2.914 -0.4530  0.5585  0.2415
 1493SOL    HW2 5744   5.372   0.945   2.978  0.5228 -0.1035 -0.8595
 1493SOL    HW3 5745   5.234   0.891   2.948 -0.0716  0.4394  0.8038
 1493SOL    MW4 5746   5.302   0.942   2.927  0.1637 -0.1491 -0.3854
 1494SOL     OW 5747   4.088   2.366   4.701 -0.3032  0.1261 -0.1566
 1494SOL    HW2 5748   4.116   2.294   4.757 -0.4068  0.8656  0.8698
 1494SOL    HW3 5749   3.992   2.367   4.710 -0.2307  1.0973  0.7638
 1494SOL    MW4 5750   4.079   2.357   4.710  0.4072  0.4058  0.8252
 1495SOL     OW 5751   4.277   3.698   0.036 -0.3159  0.0418 -0.4886
 1495SOL    HW2 5752   4.273   3.602   0.042 -0.1339  0.1158  1.6253
 1495SOL    HW3 5753   4.197   3.723  -0.009 -1.1886 -1.0301  0.4143
 1495SOL    MW4 5754   4.266   3.689   0.031  0.4021 -0.4402 -0.0152
 1496SOL     OW 5755   5.248   6.152   4.907  0.3542  0.7151  0.2624
 1496SOL    HW2 5756   5.212   6.162   4.995  0.8066  0.7710  0.4476
 1496SOL    HW3 5757   5.339   6.124   4.921  0.2628  0.1726 -0.1976
 1496SOL    MW4 5758   5.255   6.150   4.920 -0.3073  0.3160  0.4228
 1497SOL     OW 5759   0.710   1.472   2.952  0.1251 -0.5671  0.4877
 1497SOL    HW2 5760   0.688   1.437   3.038 -1.5511 -0.4750  0.1357
 1497SOL    HW3 5761   0.713   1.394   2.895  2.7102 -0.8111  0.8583
 1497SOL    MW4 5762   0.707   1.457   2.956 -0.2243 -0.4531  0.1872
 1498SOL     OW 5763   0.862   0.631   5.662  0.1274  0.2601 -0.6398
 1498SOL    HW2 5764   0.917   0.577   5.606  0.0226 -1.0138  0.4501
 1498SOL    HW3 5765   0.819   0.570   5.721  0.3622  1.5548  0.9512
 1498SOL    MW4 5766   0.863   0.616   5.662 -0.4090 -0.0176 -0.5558
 1499SOL     OW 5767   0.693   6.332   2.387 -0.0017  0.2038  0.2359
 1499SOL    HW2 5768   0.605   6.368   2.399 -0.6187 -0.4657 -1.8743
 1499SOL    HW3 5769   0.690   6.289   2.302  1.7965 -1.5801  0.9965
 1499SOL    MW4 5770   0.681   6.331   2.378 -0.1948 -0.3336 -0.2877
 1500SOL     OW 5771   3.222   1.284   5.719  0.4298  0.5489  0.5200
 1500SOL    HW2 5772   3.271   1.264   5.639 -1.3320 -1.4443 -0.1814
 1500SOL    HW3 5773   3.273   1.351   5.764  4.0945 -1.8031  0.2043
 1500SOL    MW4 5774   3.235   1.290   5.714 -0.5594  0.0498  0.2832
 1501SOL     OW 5775   6.047   2.763   6.017  0.7283  0.7930 -0.5155
 1501SOL    HW2 5776   6.087   2.749   5.931 -0.0186  1.4872 -0.9906
 1501SOL    HW3 5777   5.955   2.740   6.004  0.5716  1.0875  0.0488
 1501SOL    MW4 5778   6.040   2.758   6.004 -0.2808  0.4123 -0.3553
 1502SOL     OW 5779   2.304   5.979   2.845  0.1351  0.0181 -0.0955
 1502SOL    HW2 5780   2.351   6.027   2.777  1.2189  1.6351  1.6828
 1502SOL    HW3 5781   2.254   6.046   2.892 -1.2543 -1.1725  0.2176
 1502SOL    MW4 5782   2.303   5.994   2.842 -0.1451  0.1063  0.6757
 1503SOL     OW 5783   3.303   5.380   5.772 -0.0524  0.3415  0.1443
 1503SOL    HW2 5784   3.281   5.379   5.679  0.0826  1.9747  0.0573
 1503SOL    HW3 5785   3.283   5.292   5.803 -0.9738  0.0437 -1.2257
 1503SOL    MW4 5786   3.298   5.368   5.764  0.0100  0.0160  0.2712
 1504SOL     OW 5787   2.960   0.863   5.042 -0.3132  0.2380 -0.2668
 1504SOL    HW2 5788   3.032   0.908   4.998 -0.1052 -0.8381 -1.0442
 1504SOL    HW3 5789   2.901   0.934   5.069  1.0351  1.1452  0.4417
 1504SOL    MW4 5790   2.962   0.878   5.040  0.2722 -0.5222  0.2639
 1505SOL     OW 5791   1.305   1.630   0.683 -0.0844 -0.3206 -0.4046
 1505SOL    HW2 5792   1.237   1.691   0.656  0.9243  1.9095  1.7121
 1505SOL    HW3 5793   1.341   1.595   0.601 -2.7131 -0.4365 -1.5961
 1505SOL    MW4 5794   1.301   1.633   0.669  0.4466 -0.2222  0.2858
 1506SOL     OW 5795   1.003   1.545   3.344 -0.0192 -0.5164  0.0228
 1506SOL    HW2 5796   1.089   1.561   3.383 -0.2025  0.9170 -0.1013
 1506SOL    HW3 5797   1.022   1.514   3.255  0.3713 -0.1145 -0.0346
 1506SOL    MW4 5798   1.017   1.543   3.338  0.0402  0.2667 -0.0743
 1507SOL     OW 5799   4.569   1.322   5.674 -0.1624  0.3423 -0.0404
 1507SOL    HW2 5800   4.664   1.318   5.669 -0.1112 -0.0859  1.1106
 1507SOL    HW3 5801   4.539   1.245   5.626  0.0240  0.9176 -1.1280
 1507SOL    MW4 5802   4.578   1.312   5.667  0.2942  0.4272  0.3098
 1508SOL     OW 5803   4.803   4.400   1.402  0.2615  0.0300 -0.2726
 1508SOL    HW2 5804   4.733   4.357   1.452 -0.5522  1.9673  0.3495
 1508SOL    HW3 5805   4.799   4.491   1.429  4.2317 -0.0295  1.1538
 1508SOL    MW4 5806   4.793   4.406   1.412  0.0256  0.3713  0.6404
 1509SOL     OW 5807   1.002   4.755   1.260  0.2019  0.0347 -0.8104
 1509SOL    HW2 5808   0.925   4.810   1.246 -1.2547 -1.1833  1.6604
 1509SOL    HW3 5809   1.073   4.817   1.274 -0.8987  1.2663 -0.4414
 1509SOL    MW4 5810   1.001   4.771   1.260  0.5319  0.6695  0.6559
 1510SOL     OW 5811   6.399   0.625   5.797  0.5284  0.3558 -0.1398
 1510SOL    HW2 5812   6.363   0.536   5.799  1.3946 -0.0532 -1.6856
 1510SOL    HW3 5813   6.489   0.615   5.828  0.2151  0.9463  1.0413
 1510SOL    MW4 5814   6.406   0.612   5.802  0.2608 -0.0932 -0.5591
 1511SOL     OW 5815   2.726   5.521   2.907  0.1572 -0.0452  0.2996
 1511SOL    HW2 5816   2.805   5.533   2.960  0.3888 -1.5939  0.3613
 1511SOL    HW3 5817   2.728   5.593   2.844  2.1861 -0.6121 -0.3648
 1511SOL    MW4 5818   2.737   5.532   2.906  0.0455 -0.4284  0.8451
 1512SOL     OW 5819   1.571   5.545   3.011 -0.4266 -0.5157  0.0404
 1512SOL    HW2 5820   1.489   5.504   2.983 -0.4902 -0.9948  0.8796
 1512SOL    HW3 5821   1.636   5.475   3.003  0.4179  0.4691 -2.8246
 1512SOL    MW4 5822   1.569   5.530   3.006 -0.2844  0.4649 -0.3354
 1513SOL     OW 5823   3.587   5.045   3.025 -0.0892  0.0498  0.2567
 1513SOL    HW2 5824   3.592   4.976   3.092  1.8183 -1.5904 -1.4434
 1513SOL    HW3 5825   3.636   5.118   3.063 -0.6892 -0.1293  1.4181
 1513SOL    MW4 5826   3.594   5.046   3.039 -0.1232 -0.5335  0.2978
 1514SOL     OW 5827   0.616   4.929   1.646 -0.1886  0.1781 -0.5379
 1514SOL    HW2 5828   0.704   4.967   1.655  0.0413 -0.0755 -1.5605
 1514SOL    HW3 5829   0.564   4.974   1.712  0.8348 -0.0561  0.4600
 1514SOL    MW4 5830   0.621   4.940   1.656 -0.2551  0.4443  0.0364
 1515SOL     OW 5831   0.440   0.838   4.957 -0.2518  0.2419  0.2616
 1515SOL    HW2 5832   0.442   0.857   5.051 -0.1974  0.3580  0.2372
 1515SOL    HW3 5833   0.470   0.747   4.951  0.8253  0.5804  0.2652
 1515SOL    MW4 5834   0.444   0.828   4.969 -0.5515 -0.0177 -0.7605
 1516SOL     OW 5835   4.699   4.453   2.480 -0.9164  0.5634 -0.0010
 1516SOL    HW2 5836   4.743   4.400   2.546 -1.5503 -0.5565 -0.4584
 1516SOL    HW3 5837   4.674   4.533   2.527  1.7284  1.3481  0.2252
 1516SOL    MW4 5838   4.701   4.457   2.495 -0.6509 -0.3993  0.8678
 1517SOL     OW 5839   1.198   6.383   5.429 -1.2996  0.6595 -0.2316
 1517SOL    HW2 5840   1.113   6.401   5.469 -1.2471  1.6364 -0.5432
 1517SOL    HW3 5841   1.177   6.328   5.353 -1.5469  0.1146  0.2166
 1517SOL    MW4 5842   1.184   6.378   5.424 -0.2906 -0.2286 -0.3138
 1518SOL     OW 5843   1.722   0.680   1.197  0.1414 -0.9568 -0.4528
 1518SOL    HW2 5844   1.769   0.619   1.140 -0.3107 -0.1388 -1.7441
 1518SOL    HW3 5845   1.633   0.645   1.200 -0.2066 -0.2092 -1.4757
 1518SOL    MW4 5846   1.716   0.667   1.190 -0.3107  0.0017 -0.2540
 1519SOL     OW 5847   4.445   2.234   1.721  0.2137  0.3711  0.5886
 1519SOL    HW2 5848   4.500   2.271   1.790 -0.7860 -0.9869  2.1970
 1519SOL    HW3 5849   4.409   2.310   1.675 -0.2593  1.3664  2.5176
 1519SOL    MW4 5850   4.447   2.249   1.724 -0.3111  0.0064 -0.2698
 1520SOL     OW 5851   0.498   2.977   3.126  0.5105 -0.4486 -0.4385
 1520SOL    HW2 5852   0.538   3.027   3.196 -1.1439  0.7167 -0.2544
 1520SOL    HW3 5853   0.421   3.029   3.100 -1.3972 -2.9298 -0.1604
 1520SOL    MW4 5854   0.493   2.991   3.132  0.5877 -0.0604 -0.2906
 1521SOL     OW 5855   1.990   3.465   1.012 -0.0063 -0.5366 -0.7702
 1521SOL    HW2 5856   2.040   3.484   1.091 -0.4559  0.6756 -0.7625
 1521SOL    HW3 5857   1.999   3.543   0.958  1.0426 -1.6859 -2.3485
 1521SOL    MW4 5858   1.998   3.478   1.015 -0.4805 -0.0372  0.5299
 1522SOL     OW 5859   2.797   1.809   3.076  0.7603 -0.0421 -0.0330
 1522SOL    HW2 5860   2.789   1.754   2.999  2.1460 -1.7227  0.9286
 1522SOL    HW3 5861   2.891   1.812   3.094  0.4171 -0.7186  2.2510
 1522SOL    MW4 5862   2.808   1.802   3.068  0.1736  1.0554 -0.3360
 1523SOL     OW 5863   3.518   0.552   3.366 -0.4690 -0.4770 -0.2509
 1523SOL    HW2 5864   3.518   0.641   3.331  0.9693 -0.1227  0.5847
 1523SOL    HW3 5865   3.602   0.515   3.336 -0.2621 -0.9445  0.8695
 1523SOL    MW4 5866   3.529   0.559   3.357 -0.0839 -0.2391 -0.3203
 1524SOL     OW 5867   4.482   4.923   5.667 -0.1058  0.3346 -0.2975
 1524SOL    HW2 5868   4.476   4.991   5.735  0.2507 -1.9940  2.2238
 1524SOL    HW3 5869   4.509   4.844   5.714  2.0691 -1.0241 -3.4765
 1524SOL    MW4 5870   4.485   4.922   5.683 -0.4150  0.1863 -0.6356
 1525SOL     OW 5871   6.309   5.159   5.154  0.0894  0.2496  0.1316
 1525SOL    HW2 5872   6.379   5.143   5.217 -0.7240 -0.8834  0.7864
 1525SOL    HW3 5873   6.326   5.247   5.120  1.0649  0.5166  1.2560
 1525SOL    MW4 5874   6.320   5.168   5.158  0.3532 -0.7113  0.2564
 1526SOL     OW 5875   5.583   5.343   4.731 -0.3283  0.1326  0.1062
 1526SOL    HW2 5876   5.676   5.350   4.753  0.0407 -1.3093 -0.8941
 1526SOL    HW3 5877   5.581   5.293   4.650 -1.9455  0.8739 -0.3573
 1526SOL    MW4 5878   5.595   5.338   4.723  0.1586  0.1343 -0.2282
 1527SOL     OW 5879   1.387   0.659   0.918 -0.4324 -0.5742 -0.0877
 1527SOL    HW2 5880   1.356   0.750   0.914  1.8453  0.2216 -1.9442
 1527SOL    HW3 5881   1.342   0.615   0.846  1.7715  0.3454 -2.1739
 1527SOL    MW4 5882   1.377   0.665   0.908  0.5318  0.6518 -0.3479
 1528SOL     OW 5883   1.139   0.979   3.040  1.1414 -0.5084  0.6220
 1528SOL    HW2 5884   1.059   1.020   3.074  0.0826 -0.4837 -1.7417
 1528SOL    HW3 5885   1.132   0.888   3.067  1.5447 -0.0442  2.4658
 1528SOL    MW4 5886   1.127   0.973   3.048 -0.0204  0.2777  0.4949
 1529SOL     OW 5887   1.270   2.342   1.513  0.8953  0.4109  0.0206
 1529SOL    HW2 5888   1.272   2.345   1.417  0.7357 -1.4915 -0.0897
 1529SOL    HW3 5889   1.258   2.433   1.540  0.8708  0.9774 -1.7607
 1529SOL    MW4 5890   1.269   2.354   1.504  0.0685  0.4540 -0.2708
 1530SOL     OW 5891   2.772   3.698   1.830 -0.1230  0.6162  1.0309
 1530SOL    HW2 5892   2.705   3.762   1.807  0.8288  0.9083 -1.1263
 1530SOL    HW3 5893   2.755   3.623   1.774  0.8372  0.3634  1.0455
 1530SOL    MW4 5894   2.761   3.697   1.820  0.0310 -0.2606 -0.5598
 1531SOL     OW 5895   5.953   2.300   1.024 -0.2543  0.0385 -0.9481
 1531SOL    HW2 5896   5.997   2.215   1.020 -1.1616 -0.4893 -0.1157
 1531SOL    HW3 5897   5.911   2.302   1.110  0.5572  1.7524 -0.5288
 1531SOL    MW4 5898   5.954   2.289   1.034 -0.4219  0.2229  0.6703
 1532SOL     OW 5899   0.689   1.318   2.367 -0.3669 -0.1194  0.2861
 1532SOL    HW2 5900   0.692   1.225   2.389  0.9384 -0.1970 -0.1190
 1532SOL    HW3 5901   0.617   1.326   2.305  0.3553 -1.1151 -0.7210
 1532SOL    MW4 5902   0.680   1.307   2.362 -0.1498  0.2920  0.4914
 1533SOL     OW 5903   2.940   5.254   4.070  0.6203 -0.5771  0.2015
 1533SOL    HW2 5904   2.869   5.228   4.011  0.5180 -2.1406  0.9763
 1533SOL    HW3 5905   2.898   5.264   4.155  0.9278  0.8143  0.2109
 1533SOL    MW4 5906   2.925   5.252   4.073  0.9876 -0.3405 -0.1567
 1534SOL     OW 5907   0.487   2.072   5.869 -0.0142  0.4936 -0.0848
 1534SOL    HW2 5908   0.451   2.142   5.816 -1.3715  1.0862  1.5366
 1534SOL    HW3 5909   0.447   2.083   5.955 -0.5432 -2.4534  0.1730
 1534SOL    MW4 5910   0.477   2.083   5.874  0.0863 -0.4024  0.2901
 1535SOL     OW 5911   3.408   0.563   3.636  0.9159 -0.0908 -0.1342
 1535SOL    HW2 5912   3.316   0.545   3.618 -0.1579  4.2369 -0.0782
 1535SOL    HW3 5913   3.450   0.561   3.550  0.6070 -1.2370 -0.2659
 1535SOL    MW4 5914   3.401   0.561   3.622  0.4340 -0.4375  0.0959
 1536SOL     OW 5915   4.181   3.022   3.026 -0.2154 -0.0468 -0.1030
 1536SOL    HW2 5916   4.271   3.054   3.023 -0.4199  0.5224 -0.3522
 1536SOL    HW3 5917   4.137   3.079   3.090 -0.7970  0.7609 -1.1833
 1536SOL    MW4 5918   4.187   3.034   3.034 -0.6644 -0.2167  0.3536
 1537SOL     OW 5919   3.990   2.490   1.773  0.1437  0.3709 -0.5150
 1537SOL    HW2 5920   4.037   2.573   1.781 -1.4977  1.2687  0.5495
 1537SOL    HW3 5921   4.047   2.426   1.815  1.3921  0.9624 -1.2509
 1537SOL    MW4 5922   4.003   2.492   1.780  0.6061 -0.3177 -0.0295
 1538SOL     OW 5923   5.809   1.612   1.069  0.0564  0.0694 -0.5682
 1538SOL    HW2 5924   5.721   1.640   1.045 -0.2776 -1.7198 -1.6455
 1538SOL    HW3 5925   5.797   1.558   1.147 -0.1336 -1.7255 -1.7572
 1538SOL    MW4 5926   5.796   1.609   1.076  0.5818  0.1916  0.8680
 1539SOL     OW 5927   5.198   4.255   4.539  0.3566  0.0471  0.5027
 1539SOL    HW2 5928   5.249   4.238   4.618 -0.2897 -1.7085  0.5939
 1539SOL    HW3 5929   5.130   4.316   4.566  2.3393  2.5202  0.3576
 1539SOL    MW4 5930   5.196   4.261   4.553  0.5547  0.2531  0.2925
 1540SOL     OW 5931   5.317   5.487   5.043  0.5367 -0.0488  0.5355
 1540SOL    HW2 5932   5.382   5.419   5.064  2.0232  1.3980  0.8146
 1540SOL    HW3 5933   5.301   5.531   5.126 -0.2658  0.0980  0.3143
 1540SOL    MW4 5934   5.323   5.484   5.057 -0.0239 -0.2884 -0.4199
 1541SOL     OW 5935   5.289   2.141   3.343  0.0375 -0.1975  0.1104
 1541SOL    HW2 5936   5.311   2.159   3.434  1.7609  2.1816 -0.6777
 1541SOL    HW3 5937   5.318   2.218   3.295 -1.4370 -1.0654 -2.4019
 1541SOL    MW4 5938   5.296   2.153   3.349 -0.3668 -0.4070 -0.0110
 1542SOL     OW 5939   2.663   1.787   2.283  0.1388  0.1308  0.4869
 1542SOL    HW2 5940   2.736   1.848   2.274  1.3114 -1.5173 -2.6335
 1542SOL    HW3 5941   2.600   1.814   2.216  0.2090 -1.4057 -0.2437
 1542SOL    MW4 5942   2.664   1.799   2.273 -0.2777  0.3068  0.1133
 1543SOL     OW 5943   1.175   1.678   1.021  0.2237 -0.6046 -0.5527
 1543SOL    HW2 5944   1.186   1.756   0.967  2.0523  0.2106  0.8778
 1543SOL    HW3 5945   1.198   1.605   0.963  0.9110  0.1311 -1.2201
 1543SOL    MW4 5946   1.179   1.679   1.006 -0.2176 -0.5461  0.2238
 1544SOL     OW 5947   1.904   1.330   0.765 -0.0242  0.1309  0.3144
 1544SOL    HW2 5948   1.887   1.256   0.823  0.6032 -0.0006  0.3388
 1544SOL    HW3 5949   1.992   1.313   0.730 -0.6237 -0.1304 -1.1740
 1544SOL    MW4 5950   1.913   1.318   0.768  0.0486 -0.7272 -0.5738
 1545SOL     OW 5951   5.842   6.255   2.528 -0.4724 -0.5394  0.1650
 1545SOL    HW2 5952   5.844   6.229   2.620 -0.1772 -2.1684 -0.2813
 1545SOL    HW3 5953   5.919   6.311   2.517  0.9491 -2.3854  0.3518
 1545SOL    MW4 5954   5.852   6.259   2.539 -0.0141  0.0131 -0.5623
 1546SOL     OW 5955   1.935   2.275   4.044  0.5373 -0.8647 -0.0143
 1546SOL    HW2 5956   1.872   2.276   4.117 -0.5067  0.8700 -0.8718
 1546SOL    HW3 5957   1.954   2.182   4.030  1.3620 -1.2471  2.9220
 1546SOL    MW4 5958   1.929   2.263   4.052  0.4935  0.4508 -0.5424
 1547SOL     OW 5959   5.890   2.142   1.563 -0.4721 -0.1614  0.3158
 1547SOL    HW2 5960   5.817   2.102   1.610 -1.1598  3.7819  3.0654
 1547SOL    HW3 5961   5.961   2.145   1.627  0.2016  1.0463 -0.4545
 1547SOL    MW4 5962   5.890   2.137   1.577 -0.3487  1.0848 -0.1029
 1548SOL     OW 5963   4.293   0.467   1.977  0.8277 -0.0344  0.1876
 1548SOL    HW2 5964   4.278   0.430   2.064  3.1933 -0.2832  0.5615
 1548SOL    HW3 5965   4.370   0.421   1.945  0.5170  0.6852 -1.6981
 1548SOL    MW4 5966   4.301   0.456   1.985 -0.4505  0.4576 -0.7779
 1549SOL     OW 5967   1.008   5.426   5.605  0.1099  0.2594 -0.0372
 1549SOL    HW2 5968   0.969   5.464   5.683  1.6435  0.0407  0.8591
 1549SOL    HW3 5969   1.096   5.463   5.601 -0.1557  0.7896 -2.0482
 1549SOL    MW4 5970   1.014   5.436   5.615 -0.1792 -0.1541  0.0865
 1550SOL     OW 5971   0.773   2.953   5.489 -0.4730 -0.6740  0.3251
 1550SOL    HW2 5972   0.709   2.882   5.490 -1.0129 -0.2009 -0.1877
 1550SOL    HW3 5973   0.844   2.921   5.545 -0.7328 -1.5924  0.1535
 1550SOL    MW4 5974   0.774   2.939   5.497 -0.0310 -0.2063 -0.2987
 1551SOL     OW 5975   4.623   1.984   1.907 -0.2740  0.0175  0.5493
 1551SOL    HW2 5976   4.600   2.018   1.821  0.7873 -0.6101 -0.0006
 1551SOL    HW3 5977   4.580   1.899   1.912 -0.4458  0.1103  0.7105
 1551SOL    MW4 5978   4.614   1.977   1.896  0.3379  0.1214  0.1732
 1552SOL     OW 5979   4.616   1.712   4.019 -0.1319 -0.2000 -0.6908
 1552SOL    HW2 5980   4.594   1.735   3.929  0.3359  1.2938 -0.4400
 1552SOL    HW3 5981   4.550   1.757   4.072  1.3262  1.3967 -0.1413
 1552SOL    MW4 5982   4.604   1.721   4.014 -0.0267  0.4545 -0.4039
 1553SOL     OW 5983   3.820   1.563   0.613  0.3552  0.2092  0.0810
 1553SOL    HW2 5984   3.759   1.518   0.672  1.2360  0.1334  0.9536
 1553SOL    HW3 5985   3.775   1.564   0.528  0.2741 -2.2666  0.0328
 1553SOL    MW4 5986   3.806   1.557   0.610  0.4260 -0.1668  0.1210
 1554SOL     OW 5987   2.669   5.356   2.462 -0.0785  0.2931 -0.5652
 1554SOL    HW2 5988   2.692   5.331   2.373 -0.7251 -0.5213 -0.5193
 1554SOL    HW3 5989   2.597   5.297   2.485  1.1075 -0.5735  1.0633
 1554SOL    MW4 5990   2.662   5.345   2.453  0.2903 -0.5204  0.3951
 1555SOL     OW 5991   5.007   6.302   1.220 -0.3274  0.2364  0.0248
 1555SOL    HW2 5992   4.947   6.361   1.174 -0.1416  1.3027  1.1041
 1555SOL    HW3 5993   4.959   6.274   1.298  0.5260  1.0963  0.8968
 1555SOL    MW4 5994   4.993   6.306   1.224  0.2847 -0.2434 -0.0851
 1556SOL     OW 5995   2.990   0.040   3.006 -0.4521 -0.1228 -0.3256
 1556SOL    HW2 5996   3.043   0.117   2.986 -0.9860  0.0029 -1.2627
 1556SOL    HW3 5997   2.900   0.071   3.002 -0.6373 -0.5231  0.4970
 1556SOL    MW4 5998   2.985   0.054   3.003 -0.5671  0.0418  0.0357
 1557SOL     OW 5999   2.042   3.904   4.962 -0.7311 -0.4519  0.1091
 1557SOL    HW2 6000   1.971   3.936   4.907 -0.2686  0.3889 -0.0094
 1557SOL    HW3 6001   2.035   3.955   5.043 -1.5420 -1.8298  0.9496
 1557SOL    MW4 6002   2.032   3.915   4.965  0.0569  0.4863 -0.1314
 1558SOL     OW 6003   0.065   0.507   1.086  0.5593  0.0103  0.2161
 1558SOL    HW2 6004   0.045   0.526   1.178  0.7458  0.6641  0.1295
 1558SOL    HW3 6005   0.029   0.420   1.070 -1.3298  0.7405  0.3373
 1558SOL    MW4 6006   0.058   0.498   1.096 -0.3092  0.2980  0.2468
 1559SOL     OW 6007   5.353   1.480   0.524  0.2991  0.1835 -0.0296
 1559SOL    HW2 6008   5.351   1.483   0.428 -0.0347  1.0859 -0.0099
 1559SOL    HW3 6009   5.341   1.388   0.545  0.9262 -0.1049 -0.8606
 1559SOL    MW4 6010   5.351   1.468   0.514  0.6220 -0.0080 -0.3882
 1560SOL     OW 6011   3.947   3.267   1.235 -0.2314  0.2470  0.0931
 1560SOL    HW2 6012   3.883   3.258   1.165  0.1137 -0.6604 -0.1166
 1560SOL    HW3 6013   4.014   3.202   1.215 -0.1215 -0.0248  1.2587
 1560SOL    MW4 6014   3.947   3.258   1.223 -0.1381  0.0555 -0.2349
 1561SOL     OW 6015   0.291   1.886   0.423 -0.2380  0.3230 -0.0716
 1561SOL    HW2 6016   0.237   1.813   0.394 -1.2413  1.1230 -0.2637
 1561SOL    HW3 6017   0.381   1.854   0.414 -0.5724 -0.2430 -1.9632
 1561SOL    MW4 6018   0.296   1.872   0.418  0.1523 -0.2050  0.2215
 1562SOL     OW 6019   1.425   3.319   1.105 -0.1280  0.1219  0.1289
 1562SOL    HW2 6020   1.459   3.402   1.071 -1.0852  1.1437  1.5389
 1562SOL    HW3 6021   1.342   3.342   1.147 -1.3460 -1.8676 -0.9950
 1562SOL    MW4 6022   1.419   3.333   1.106 -0.2208  0.4046  0.4757
 1563SOL     OW 6023   4.004   4.741   5.276  0.1506  0.4670  0.6926
 1563SOL    HW2 6024   4.014   4.689   5.197  0.7450  1.0618  0.3703
 1563SOL    HW3 6025   3.941   4.692   5.329  0.5932 -0.5065  0.3403
 1563SOL    MW4 6026   3.997   4.728   5.273  0.0533 -0.3463 -0.2789
 1564SOL     OW 6027   0.812   3.661   4.371  0.3556 -0.0989 -0.5835
 1564SOL    HW2 6028   0.799   3.642   4.278  1.3061 -3.8921 -0.0947
 1564SOL    HW3 6029   0.800   3.577   4.415 -0.0487  1.5388  2.7944
 1564SOL    MW4 6030   0.809   3.648   4.364  0.0712 -0.1486 -0.2078
 1565SOL     OW 6031   1.651   4.415   3.299  0.1690 -0.2237 -0.0400
 1565SOL    HW2 6032   1.719   4.478   3.277 -0.3795  0.2891 -0.3196
 1565SOL    HW3 6033   1.595   4.461   3.362  0.1771 -0.6992  0.3191
 1565SOL    MW4 6034   1.652   4.429   3.304  0.4347  0.2002 -0.3868
 1566SOL     OW 6035   1.646   6.052   3.602  0.0236 -0.0795  0.5512
 1566SOL    HW2 6036   1.626   6.145   3.595 -0.4028 -0.1625  0.6566
 1566SOL    HW3 6037   1.713   6.047   3.671 -0.6135  0.0593  1.1913
 1566SOL    MW4 6038   1.652   6.064   3.610  0.0137 -0.0480 -0.2938
 1567SOL     OW 6039   2.095   2.481   4.481 -0.3531  0.0030 -0.1374
 1567SOL    HW2 6040   2.075   2.399   4.436 -0.2999 -0.4423  0.6290
 1567SOL    HW3 6041   2.184   2.469   4.515  0.5764  1.2577 -1.9363
 1567SOL    MW4 6042   2.104   2.469   4.479 -0.0277 -0.3721  0.6520
 1568SOL     OW 6043   0.356   3.061   3.851 -0.2971 -1.0057  0.0258
 1568SOL    HW2 6044   0.436   3.018   3.822  0.5374 -1.0978  2.2414
 1568SOL    HW3 6045   0.380   3.103   3.934 -1.5895  2.1099 -1.0200
 1568SOL    MW4 6046   0.370   3.061   3.858 -0.6288  0.2058  0.6171
 1569SOL     OW 6047   1.677   2.299   3.124 -0.9589 -0.1178  0.0208
 1569SOL    HW2 6048   1.669   2.345   3.208  0.5582 -1.3769  0.9059
 1569SOL    HW3 6049   1.595   2.317   3.079 -1.8643  0.4841  1.8299
 1569SOL    MW4 6050   1.665   2.308   3.129 -0.0746 -0.0019  0.3995
 1570SOL     OW 6051   0.841   3.107   3.145  0.5713  0.2418 -0.0908
 1570SOL    HW2 6052   0.877   3.032   3.193  1.4678  2.0502  2.2543
 1570SOL    HW3 6053   0.761   3.128   3.191  1.5497  2.1463  0.8422
 1570SOL    MW4 6054   0.836   3.100   3.158  0.0015  0.4527 -0.0967
 1571SOL     OW 6055   1.959   1.957   0.530  0.8959  0.0586  0.0467
 1571SOL    HW2 6056   2.049   1.989   0.541  0.9681 -0.0202 -0.3056
 1571SOL    HW3 6057   1.904   2.027   0.565  1.1185 -0.2408  1.0390
 1571SOL    MW4 6058   1.964   1.970   0.536  0.5523 -0.0289  0.0800
 1572SOL     OW 6059   3.080   3.571   5.634  0.1957  0.0427  0.3030
 1572SOL    HW2 6060   3.045   3.484   5.616 -0.0921  0.2897 -0.3548
 1572SOL    HW3 6061   3.054   3.589   5.724  1.7248 -1.2430  1.0623
 1572SOL    MW4 6062   3.072   3.562   5.644 -0.0380 -0.0290 -0.3311
 1573SOL     OW 6063   4.555   2.254   1.404  0.2037  0.0741 -0.1662
 1573SOL    HW2 6064   4.618   2.251   1.332 -1.4419  2.1621 -1.8045
 1573SOL    HW3 6065   4.482   2.201   1.373  0.6266 -1.4355  1.2739
 1573SOL    MW4 6066   4.554   2.247   1.390  0.3462  0.8163 -0.1249
 1574SOL     OW 6067   1.083   0.302   5.012 -0.2084  0.1103  0.2479
 1574SOL    HW2 6068   1.065   0.319   4.919  0.5719 -2.0352 -0.3629
 1574SOL    HW3 6069   1.003   0.329   5.057 -1.1226 -0.0306 -1.2127
 1574SOL    MW4 6070   1.070   0.308   5.006 -0.7010  0.1645  0.0227
 1575SOL     OW 6071   6.101   5.960   1.956  0.8438  0.0426 -0.5456
 1575SOL    HW2 6072   6.120   5.931   1.867  1.4440  2.5374 -1.3043
 1575SOL    HW3 6073   6.013   5.996   1.952  0.5582 -0.5364  0.1029
 1575SOL    MW4 6074   6.092   5.961   1.944  0.5434  0.1644  0.0544
 1576SOL     OW 6075   6.226   4.943   1.204 -0.0641 -0.3797 -0.1476
 1576SOL    HW2 6076   6.180   4.878   1.151 -0.2151  0.0242 -0.5256
 1576SOL    HW3 6077   6.177   4.947   1.286  0.3754 -1.2648  0.1793
 1576SOL    MW4 6078   6.214   4.935   1.208  0.3579  0.3818  0.2825
 1577SOL     OW 6079   4.045   4.850   2.491 -0.5864  0.4877 -0.2329
 1577SOL    HW2 6080   4.112   4.803   2.440 -1.9772 -0.8445 -0.9433
 1577SOL    HW3 6081   4.094   4.900   2.556  1.1944  1.1054 -1.9528
 1577SOL    MW4 6082   4.060   4.850   2.493  0.6983 -0.0163  0.6169
 1578SOL     OW 6083   1.538   0.107   1.009 -0.6892 -0.3770 -0.3570
 1578SOL    HW2 6084   1.483   0.128   1.084 -0.2651  1.4370 -0.5076
 1578SOL    HW3 6085   1.478   0.074   0.943 -1.2054 -1.0139  0.4145
 1578SOL    MW4 6086   1.523   0.106   1.010 -0.1896 -0.2831  0.5445
 1579SOL     OW 6087   0.434   2.671   2.917  0.3598 -0.3771  0.1438
 1579SOL    HW2 6088   0.386   2.620   2.982  0.8608 -0.4366  0.4778
 1579SOL    HW3 6089   0.376   2.674   2.841 -0.2219 -0.3361  0.5799
 1579SOL    MW4 6090   0.420   2.665   2.915  0.0838  0.4844  0.0096
 1580SOL     OW 6091   3.519   3.495   4.176  0.1802 -0.0377 -0.3481
 1580SOL    HW2 6092   3.544   3.496   4.268  0.8217  1.2738 -0.5224
 1580SOL    HW3 6093   3.582   3.435   4.135 -0.5973 -1.2473  0.1741
 1580SOL    MW4 6094   3.531   3.487   4.183  0.0881  0.1593 -0.3173
 1581SOL     OW 6095   0.768   4.213   5.704  0.3967 -0.6241 -0.1764
 1581SOL    HW2 6096   0.860   4.203   5.727 -0.0353  0.6964  2.5001
 1581SOL    HW3 6097   0.721   4.157   5.766 -0.6693 -1.0596 -1.3116
 1581SOL    MW4 6098   0.774   4.204   5.715  0.0372  0.1933  0.3472
 1582SOL     OW 6099   0.421   5.148   4.452  0.0968  0.6025 -0.4463
 1582SOL    HW2 6100   0.504   5.104   4.439 -0.1495 -0.4944  1.3694
 1582SOL    HW3 6101   0.417   5.214   4.382  1.9756 -0.0303 -1.1990
 1582SOL    MW4 6102   0.431   5.151   4.441  0.0966  0.5247  0.4077
 1583SOL     OW 6103   5.681   3.747   2.985 -0.5994  0.3308 -0.3039
 1583SOL    HW2 6104   5.718   3.829   2.953  0.7663 -0.3760 -0.6389
 1583SOL    HW3 6105   5.634   3.771   3.065  0.9115  1.2592  0.3508
 1583SOL    MW4 6106   5.680   3.761   2.992 -0.3175 -0.4085 -0.1952
 1584SOL     OW 6107   0.538   6.193   1.319  0.0605 -0.3286 -0.3194
 1584SOL    HW2 6108   0.477   6.196   1.246 -0.3701  0.0040  0.0547
 1584SOL    HW3 6109   0.526   6.105   1.356 -1.9232  0.5114  1.2120
 1584SOL    MW4 6110   0.529   6.181   1.314 -0.2961 -0.1031  0.2066
 1585SOL     OW 6111   2.564   1.349   3.745  0.1552 -0.1483 -0.2582
 1585SOL    HW2 6112   2.476   1.321   3.720  0.1564  0.0728 -0.5202
 1585SOL    HW3 6113   2.582   1.303   3.826  0.9795 -2.5532 -1.6946
 1585SOL    MW4 6114   2.555   1.339   3.752  0.3227  0.0366 -0.1086
 1586SOL     OW 6115   5.135   2.572   5.252  0.1281  0.0144 -0.0856
 1586SOL    HW2 6116   5.184   2.608   5.326  0.7612 -1.3539  0.1948
 1586SOL    HW3 6117   5.058   2.532   5.292  1.3474 -2.2921  0.0994
 1586SOL    MW4 6118   5.132   2.571   5.267 -0.2649 -0.0389  0.0800
 1587SOL     OW 6119   6.142   4.375   2.487  0.1573  0.3313 -0.1258
 1587SOL    HW2 6120   6.125   4.427   2.565  1.6098  0.8460 -0.1158
 1587SOL    HW3 6121   6.144   4.285   2.518  0.3011  0.4989  0.3607
 1587SOL    MW4 6122   6.140   4.370   2.501 -0.4057 -0.1806 -0.0078
 1588SOL     OW 6123   6.432   6.406   4.622  0.7288 -0.3513  0.8020
 1588SOL    HW2 6124   6.524   6.403   4.597  0.8894  0.7558  1.1784
 1588SOL    HW3 6125   6.418   6.498   4.648 -0.8768 -0.1267 -0.7237
 1588SOL    MW4 6126   6.442   6.418   4.622 -0.0351  0.0923 -0.2142
 1589SOL     OW 6127   4.064   3.205   3.195 -0.8344 -0.7634 -0.9108
 1589SOL    HW2 6128   3.987   3.253   3.226 -0.2483  0.9495 -2.0257
 1589SOL    HW3 6129   4.127   3.211   3.266 -1.4867 -1.6823 -0.2254
 1589SOL    MW4 6130   4.062   3.212   3.208 -0.0003  0.3737  0.1175
 1590SOL     OW 6131   3.131   2.081   4.316 -0.5172 -0.0839 -0.6803
 1590SOL    HW2 6132   3.122   2.026   4.393 -0.1991  0.0218 -0.5666
 1590SOL    HW3 6133   3.091   2.165   4.342  1.5739  0.7199  0.1694
 1590SOL    MW4 6134   3.125   2.085   4.330  0.2907 -0.1128 -0.0897
 1591SOL     OW 6135   5.667   0.499   1.182 -0.0174 -0.0355 -0.7625
 1591SOL    HW2 6136   5.673   0.575   1.241 -1.0089 -0.9474  0.5795
 1591SOL    HW3 6137   5.750   0.453   1.195  0.1368  0.2406 -0.7558
 1591SOL    MW4 6138   5.679   0.503   1.192  0.0003  0.0220 -0.4697
 1592SOL     OW 6139   6.156   1.512   5.652  0.4773 -0.1079 -0.8785
 1592SOL    HW2 6140   6.066   1.481   5.639  0.8055 -2.1755  1.1239
 1592SOL    HW3 6141   6.200   1.493   5.570  0.2181 -3.7475 -0.3417
 1592SOL    MW4 6142   6.150   1.506   5.640  0.3767 -0.1966 -0.7739
 1593SOL     OW 6143   6.398   2.526   4.383 -0.1898  0.0289  0.2158
 1593SOL    HW2 6144   6.304   2.528   4.401  0.4237  0.0665  4.2049
 1593SOL    HW3 6145   6.428   2.613   4.409  0.8896  0.3486 -1.9282
 1593SOL    MW4 6146   6.389   2.538   4.389  0.2934  0.8280  0.2813
 1594SOL     OW 6147   0.951   3.099   1.536 -0.2277 -0.0687  0.2101
 1594SOL    HW2 6148   0.954   3.195   1.544 -4.0924  0.2254  0.1587
 1594SOL    HW3 6149   0.922   3.069   1.622  2.7325 -1.4964  0.8213
 1594SOL    MW4 6150   0.948   3.108   1.549  0.1091  0.6467  0.1279
 1595SOL     OW 6151   3.264   2.970   2.333  0.4086 -0.0858  0.2145
 1595SOL    HW2 6152   3.332   2.907   2.310  0.7073  0.7979 -1.5235
 1595SOL    HW3 6153   3.294   3.053   2.296 -0.4034  0.8945  1.6561
 1595SOL    MW4 6154   3.277   2.973   2.325 -0.2066 -0.0192 -0.1617
 1596SOL     OW 6155   0.628   4.778   0.551 -0.5459  0.1455  0.0234
 1596SOL    HW2 6156   0.702   4.831   0.581 -0.5197  2.2293 -3.2424
 1596SOL    HW3 6157   0.556   4.841   0.542 -1.5826 -1.0862 -0.6301
 1596SOL    MW4 6158   0.628   4.793   0.554 -0.1758  0.5998  0.1955
 1597SOL     OW 6159   1.634   2.928   1.726  0.6967  0.0016  0.0992
 1597SOL    HW2 6160   1.615   2.858   1.663  1.7367 -0.5917  0.4215
 1597SOL    HW3 6161   1.692   2.988   1.679  1.0877 -0.1908  0.3319
 1597SOL    MW4 6162   1.639   2.927   1.712 -0.2655 -0.1587  0.0688
 1598SOL     OW 6163   3.818   2.205   5.224 -0.3077 -0.2709  0.0105
 1598SOL    HW2 6164   3.729   2.203   5.190 -0.0428  1.5364 -0.9030
 1598SOL    HW3 6165   3.813   2.262   5.301 -0.0427 -0.7054  0.3598
 1598SOL    MW4 6166   3.805   2.212   5.230  0.5207 -0.0663  0.5021
 1599SOL     OW 6167   0.513   4.500   1.887 -0.2916  0.4761 -0.2151
 1599SOL    HW2 6168   0.545   4.430   1.830 -1.1429  0.2158 -0.3805
 1599SOL    HW3 6169   0.579   4.505   1.957  1.2085  1.3638 -1.6313
 1599SOL    MW4 6170   0.526   4.491   1.889  0.6869 -0.0311  0.4339
 1600SOL     OW 6171   0.154   4.699   2.358 -0.9697 -0.2239  0.4307
 1600SOL    HW2 6172   0.238   4.687   2.402 -1.1342 -0.1145  0.7751
 1600SOL    HW3 6173   0.093   4.646   2.409 -1.2859  0.4050  0.7129
 1600SOL    MW4 6174   0.157   4.691   2.371  0.1977 -0.0332  0.2776
 1601SOL     OW 6175   2.407   4.036   0.036  0.0256 -0.3749 -0.1959
 1601SOL    HW2 6176   2.412   4.074   0.124  1.2052 -0.6963 -0.1066
 1601SOL    HW3 6177   2.484   4.069  -0.009 -1.2044  0.7877 -1.5503
 1601SOL    MW4 6178   2.418   4.045   0.042 -0.1485  0.2438  0.1916
 1602SOL     OW 6179   0.208   3.553   4.370 -0.5127  0.1489 -0.1959
 1602SOL    HW2 6180   0.199   3.594   4.283  0.2410  0.6434 -0.0470
 1602SOL    HW3 6181   0.296   3.515   4.369 -0.4388  0.3085  0.4181
 1602SOL    MW4 6182   0.218   3.553   4.358 -0.0857  0.0734  0.2158
 1603SOL     OW 6183   3.297   4.375   4.544  0.1870 -0.2866 -0.4082
 1603SOL    HW2 6184   3.381   4.329   4.539  1.1316  1.4027 -0.7331
 1603SOL    HW3 6185   3.302   4.426   4.624 -0.3514  0.1560 -0.6497
 1603SOL    MW4 6186   3.309   4.376   4.554 -0.1799 -0.3640 -0.4866
 1604SOL     OW 6187   6.363   5.345   2.581 -0.2156 -0.5206  0.2158
 1604SOL    HW2 6188   6.336   5.429   2.617 -0.8987 -1.1278  1.1760
 1604SOL    HW3 6189   6.431   5.367   2.516  0.4796  0.6660  1.3064
 1604SOL    MW4 6190   6.368   5.359   2.577 -0.2595 -0.2344  0.6158
 1605SOL     OW 6191   3.417   1.374   2.974  0.2216  0.0693  0.7966
 1605SOL    HW2 6192   3.457   1.296   3.013  0.5035 -0.6525 -0.8237
 1605SOL    HW3 6193   3.385   1.344   2.889 -1.6112  1.2347  1.0192
 1605SOL    MW4 6194   3.418   1.360   2.968 -0.1286 -0.2830 -0.0942
 1606SOL     OW 6195   5.692   6.026   4.133 -0.3655 -0.0279 -0.0663
 1606SOL    HW2 6196   5.673   6.004   4.224  0.5724  0.2198  0.2013
 1606SOL    HW3 6197   5.647   6.109   4.118 -2.1063 -0.9940 -0.4206
 1606SOL    MW4 6198   5.684   6.034   4.143 -0.2206 -0.1839 -0.3002
 1607SOL     OW 6199   3.200   1.731   4.374  0.1484  0.5709  0.0978
 1607SOL    HW2 6200   3.284   1.700   4.407  0.0765  0.1581 -0.1064
 1607SOL    HW3 6201   3.142   1.655   4.377 -0.1364  0.7784 -0.0373
 1607SOL    MW4 6202   3.204   1.717   4.379 -0.0165 -0.1416 -0.0271
 1608SOL     OW 6203   3.573   0.639   4.001  0.0141 -0.1303  0.0964
 1608SOL    HW2 6204   3.590   0.607   4.090 -1.8278  0.5271  0.7226
 1608SOL    HW3 6205   3.575   0.560   3.947  0.0514 -0.6976  0.8954
 1608SOL    MW4 6206   3.576   0.624   4.006  0.2195  0.4230 -0.0074
 1609SOL     OW 6207   5.890   3.692   2.451  0.3742  0.4796  0.2946
 1609SOL    HW2 6208   5.901   3.608   2.496 -1.5289 -0.1154 -0.2254
 1609SOL    HW3 6209   5.795   3.700   2.440  0.6112  2.0627 -0.8866
 1609SOL    MW4 6210   5.879   3.682   2.455 -0.3499 -0.3610 -0.1649
 1610SOL     OW 6211   1.536   1.822   0.564  0.3076  0.7864  0.0268
 1610SOL    HW2 6212   1.603   1.764   0.529  1.8505  1.1806  2.1383
 1610SOL    HW3 6213   1.517   1.788   0.651 -0.6246  1.9957  0.3323
 1610SOL    MW4 6214   1.542   1.810   0.570  0.1590 -0.2046 -0.2287
 1611SOL     OW 6215   4.206   4.825   0.978 -0.2168 -0.1006 -0.1357
 1611SOL    HW2 6216   4.182   4.732   0.986 -2.1170  0.3800  0.0732
 1611SOL    HW3 6217   4.272   4.838   1.046  0.4023 -1.3819 -0.4460
 1611SOL    MW4 6218   4.212   4.814   0.988  0.0118 -0.0757 -0.2883
 1612SOL     OW 6219   1.871   3.321   0.440 -0.6374  0.0979 -0.0678
 1612SOL    HW2 6220   1.888   3.395   0.382  1.1024  0.6458  1.0552
 1612SOL    HW3 6221   1.900   3.351   0.526  0.2572 -1.9351  0.3976
 1612SOL    MW4 6222   1.877   3.335   0.444  0.4032  0.2105 -0.0325
 1613SOL     OW 6223   2.889   0.106   1.146 -0.1103  0.3468 -0.6260
 1613SOL    HW2 6224   2.902   0.165   1.072 -0.8901 -0.2552 -1.2618
 1613SOL    HW3 6225   2.898   0.018   1.110 -0.7699  0.0368 -0.0694
 1613SOL    MW4 6226   2.892   0.102   1.132 -0.2165 -0.1006 -0.0297
 1614SOL     OW 6227   5.186   6.132   0.235 -0.3591 -0.4738 -0.9574
 1614SOL    HW2 6228   5.258   6.123   0.173 -0.4970 -2.3130 -0.9195
 1614SOL    HW3 6229   5.189   6.051   0.287 -0.5903  0.7408  1.0781
 1614SOL    MW4 6230   5.196   6.120   0.234 -0.2074 -0.4956 -0.5505
 1615SOL     OW 6231   3.732   2.117   2.737 -0.1221 -0.6528 -0.3804
 1615SOL    HW2 6232   3.746   2.172   2.814  1.3594 -1.3875 -0.0895
 1615SOL    HW3 6233   3.799   2.049   2.744  0.1950 -0.5974 -2.4512
 1615SOL    MW4 6234   3.742   2.115   2.748 -0.6948  0.2747  0.0503
 1616SOL     OW 6235   1.821   3.636   0.504 -0.4893 -0.2394  0.0959
 1616SOL    HW2 6236   1.837   3.652   0.411 -0.1795  2.8549  0.5720
 1616SOL    HW3 6237   1.727   3.649   0.514 -0.2451  1.4962  0.4806
 1616SOL    MW4 6238   1.811   3.640   0.493 -0.0605 -0.5191  0.1850
 1617SOL     OW 6239   3.534   1.748   3.368 -0.4939  0.0336  0.2501
 1617SOL    HW2 6240   3.450   1.793   3.353 -1.7331 -2.4922 -0.8869
 1617SOL    HW3 6241   3.562   1.781   3.453 -2.3860  1.3207  0.4635
 1617SOL    MW4 6242   3.526   1.758   3.377  0.0558 -0.1990 -0.1434
 1618SOL     OW 6243   6.340   4.305   5.509  0.1289 -0.0826 -0.1788
 1618SOL    HW2 6244   6.274   4.238   5.491  0.1095 -0.5980  1.6233
 1618SOL    HW3 6245   6.401   4.264   5.570  0.2873  1.4048  0.7428
 1618SOL    MW4 6246   6.339   4.291   5.515 -0.2098 -0.2120 -0.3978
 1619SOL     OW 6247   6.279   3.148   5.788 -0.7426 -0.0378  0.1126
 1619SOL    HW2 6248   6.307   3.121   5.876 -2.4594  0.2123  0.7731
 1619SOL    HW3 6249   6.259   3.241   5.796 -2.4935 -0.3611 -0.0828
 1619SOL    MW4 6250   6.280   3.157   5.801  0.0793  0.0705 -0.0678
 1620SOL     OW 6251   0.570   2.614   4.705 -0.0985  0.4743 -0.3194
 1620SOL    HW2 6252   0.549   2.534   4.752  0.9719  0.9418  1.0091
 1620SOL    HW3 6253   0.661   2.633   4.728 -0.2167  1.8706 -0.8957
 1620SOL    MW4 6254   0.579   2.606   4.714  0.3742 -0.4681  0.2256
 1621SOL     OW 6255   5.747   2.503   2.232  0.4852  0.1825 -0.2963
 1621SOL    HW2 6256   5.781   2.500   2.321 -0.3733 -1.0266  0.0306
 1621SOL    HW3 6257   5.763   2.592   2.203  1.6275  0.3412  0.7228
 1621SOL    MW4 6258   5.753   2.514   2.240  0.3107  0.2235  0.6309
 1622SOL     OW 6259   0.124   5.868   5.955  0.0253  0.5478 -0.1158
 1622SOL    HW2 6260   0.050   5.809   5.966  0.8278 -0.2103  1.8455
 1622SOL    HW3 6261   0.195   5.825   6.004  1.5562  1.5738 -1.3652
 1622SOL    MW4 6262   0.124   5.854   5.963  0.0008  0.5107  0.3782
 1623SOL     OW 6263   2.503   1.388   5.707  0.1698  0.0121  0.4577
 1623SOL    HW2 6264   2.490   1.317   5.770  0.3358  0.3844  0.9180
 1623SOL    HW3 6265   2.570   1.443   5.747  1.1244 -0.3633 -0.5728
 1623SOL    MW4 6266   2.510   1.386   5.720 -0.0985 -0.2444 -0.0851
 1624SOL     OW 6267   4.912   4.807   4.734 -0.4682 -0.1192 -0.0490
 1624SOL    HW2 6268   4.883   4.897   4.749  0.6691  0.0175  1.6463
 1624SOL    HW3 6269   5.007   4.815   4.725 -0.4424 -1.0776 -0.6724
 1624SOL    MW4 6270   4.921   4.820   4.735  0.1931  0.5647 -0.3118
 1625SOL     OW 6271   4.916   5.917   1.350 -0.3803 -0.1522 -0.1511
 1625SOL    HW2 6272   4.824   5.909   1.325 -0.4478 -1.3210  0.3928
 1625SOL    HW3 6273   4.923   6.005   1.387 -1.1198  0.2016 -0.8209
 1625SOL    MW4 6274   4.905   5.927   1.352  0.2216 -0.1443  0.4510
 1626SOL     OW 6275   0.273   4.284   0.745 -0.2923  0.3388  0.1842
 1626SOL    HW2 6276   0.243   4.300   0.835 -0.2361 -0.0105  0.2680
 1626SOL    HW3 6277   0.235   4.199   0.722  0.2665  0.0997  0.1306
 1626SOL    MW4 6278   0.264   4.275   0.754  0.5611 -0.3928 -1.0963
 1627SOL     OW 6279   3.959   0.268   5.896  0.6591  0.1881  0.7143
 1627SOL    HW2 6280   3.952   0.174   5.910  0.5051  0.1797  0.5910
 1627SOL    HW3 6281   4.043   0.280   5.852  0.4619  0.0546  0.2932
 1627SOL    MW4 6282   3.969   0.257   5.892  0.0163 -0.4606  0.5433
 1628SOL     OW 6283   3.374   5.100   5.417  0.0999 -0.2570  0.2602
 1628SOL    HW2 6284   3.315   5.024   5.421  1.2876 -1.3355 -1.3942
 1628SOL    HW3 6285   3.416   5.102   5.502 -2.2104  0.4967  1.4656
 1628SOL    MW4 6286   3.372   5.090   5.428 -0.5274 -0.2578  0.1256
 1629SOL     OW 6287   1.772   1.523   4.420 -0.0095 -0.0786 -0.6008
 1629SOL    HW2 6288   1.794   1.523   4.327  1.4453 -2.3171 -0.3239
 1629SOL    HW3 6289   1.696   1.466   4.427  1.3737 -1.9496 -0.1820
 1629SOL    MW4 6290   1.765   1.516   4.408 -0.0378 -0.1753 -0.2346
 1630SOL     OW 6291   4.577   0.291   1.867  0.0153 -0.5823  0.5298
 1630SOL    HW2 6292   4.666   0.326   1.863 -0.1611 -0.1538  0.2717
 1630SOL    HW3 6293   4.554   0.275   1.775 -0.4954  0.1463  0.5203
 1630SOL    MW4 6294   4.586   0.294   1.854 -0.6359 -0.4781  0.3309
 1631SOL     OW 6295   4.950   2.700   3.085  0.1162  0.5342  0.0446
 1631SOL    HW2 6296   5.025   2.640   3.086 -0.9588 -0.8923 -0.9718
 1631SOL    HW3 6297   4.882   2.655   3.134  0.0218  2.0398  1.4009
 1631SOL    MW4 6298   4.951   2.686   3.092  0.3218  0.2139  0.2701
 1632SOL     OW 6299   1.991   5.231   1.680 -0.4196 -0.1699  0.0749
 1632SOL    HW2 6300   1.968   5.245   1.588  0.4176  0.7310 -0.0228
 1632SOL    HW3 6301   1.915   5.262   1.729  0.0262  1.6165 -0.2692
 1632SOL    MW4 6302   1.978   5.237   1.674  0.1660  0.1148  0.1757
 1633SOL     OW 6303   6.132   4.773   4.488  0.5083  0.4800  0.4580
 1633SOL    HW2 6304   6.074   4.793   4.561  0.1038 -0.0446  0.2809
 1633SOL    HW3 6305   6.099   4.691   4.452  0.1980  1.1399 -0.8319
 1633SOL    MW4 6306   6.120   4.765   4.493  0.0507  0.4630 -0.7941
 1634SOL     OW 6307   1.872   2.818   4.392 -0.5149  0.5485 -0.2522
 1634SOL    HW2 6308   1.908   2.763   4.323 -2.4857  0.6519 -1.4312
 1634SOL    HW3 6309   1.949   2.845   4.443  0.6524 -2.3589 -0.2588
 1634SOL    MW4 6310   1.887   2.814   4.390  0.0656  0.2689  0.1412
 1635SOL     OW 6311   5.494   6.415   1.356  0.4143 -0.4459  0.3794
 1635SOL    HW2 6312   5.403   6.429   1.330 -0.6791 -1.1968  3.4314
 1635SOL    HW3 6313   5.517   6.329   1.319  1.1026  1.0484 -3.0920
 1635SOL    MW4 6314   5.485   6.405   1.347 -0.4241  0.2206  0.1389
 1636SOL     OW 6315   4.079   4.751   4.693  0.1163 -0.0764 -0.7054
 1636SOL    HW2 6316   4.109   4.720   4.779 -3.1221  2.3274  1.5785
 1636SOL    HW3 6317   4.100   4.845   4.693 -0.3911  0.0649 -2.3562
 1636SOL    MW4 6318   4.086   4.759   4.705 -0.0953 -0.4512  0.2585
 1637SOL     OW 6319   2.652   5.732   5.097 -0.6325 -0.3164 -0.3967
 1637SOL    HW2 6320   2.671   5.751   5.005 -3.8434 -1.4538 -1.4251
 1637SOL    HW3 6321   2.575   5.785   5.117 -0.5152 -0.7447  1.4056
 1637SOL    MW4 6322   2.645   5.742   5.088 -0.4522 -0.2788  0.3608
 1638SOL     OW 6323   3.739   1.895   2.047  0.1080  0.3499 -0.8208
 1638SOL    HW2 6324   3.768   1.981   2.078 -1.2250 -0.0530  1.7664
 1638SOL    HW3 6325   3.683   1.915   1.972 -0.8043  1.8275  0.2030
 1638SOL    MW4 6326   3.736   1.909   2.041 -0.5597  0.6560 -0.3586
 1639SOL     OW 6327   2.919   2.291   2.400 -0.2527 -0.2831 -0.3443
 1639SOL    HW2 6328   2.848   2.348   2.371  0.2181 -0.0625 -1.0996
 1639SOL    HW3 6329   2.994   2.315   2.345 -0.1154 -1.8021 -0.8847
 1639SOL    MW4 6330   2.920   2.301   2.389 -0.3130  0.1181  0.5181
 1640SOL     OW 6331   1.948   6.291   5.652  0.0234  0.2943 -0.5411
 1640SOL    HW2 6332   1.926   6.270   5.561 -2.1638  0.2959 -0.0841
 1640SOL    HW3 6333   1.903   6.374   5.668  2.8560  1.9153 -0.2813
 1640SOL    MW4 6334   1.939   6.299   5.642  0.1286 -0.7078 -0.2487
 1641SOL     OW 6335   0.986   4.463   2.253  0.0002  0.2655 -0.3971
 1641SOL    HW2 6336   0.997   4.543   2.201  2.1175  0.2875 -0.0215
 1641SOL    HW3 6337   1.074   4.426   2.259 -0.3937 -0.4822  1.9869
 1641SOL    MW4 6338   0.999   4.469   2.247 -0.8991  0.2692 -0.4061
 1642SOL     OW 6339   0.184   2.658   4.708 -0.3857  0.6164 -0.3849
 1642SOL    HW2 6340   0.151   2.691   4.625  0.3888  2.1955 -0.1027
 1642SOL    HW3 6341   0.205   2.566   4.691  0.8115  1.1899 -2.2788
 1642SOL    MW4 6342   0.182   2.650   4.695 -0.1338  0.0378  0.0572
 1643SOL     OW 6343   5.978   4.722   2.372  0.4821 -0.1312 -0.5365
 1643SOL    HW2 6344   5.890   4.684   2.373 -0.2760  1.5257  0.4751
 1643SOL    HW3 6345   5.972   4.793   2.308  1.1347 -0.0742 -0.5371
 1643SOL    MW4 6346   5.966   4.726   2.364  0.8739  0.3312  0.2456
 1644SOL     OW 6347   1.711   3.745   0.216 -0.3634 -0.5137 -0.5106
 1644SOL    HW2 6348   1.628   3.787   0.196  0.0227  0.4600 -0.1258
 1644SOL    HW3 6349   1.745   3.718   0.131  0.6834  2.4780 -1.1601
 1644SOL    MW4 6350   1.705   3.747   0.202  0.3549 -0.2635 -0.0940
 1645SOL     OW 6351   2.782   4.486   2.366  0.3533 -0.1609 -0.2512
 1645SOL    HW2 6352   2.869   4.521   2.348 -0.4025  1.9089 -0.0904
 1645SOL    HW3 6353   2.791   4.440   2.449  1.3748 -0.3152 -0.4419
 1645SOL    MW4 6354   2.794   4.484   2.374  0.1555 -0.0203  0.2385
 1646SOL     OW 6355   3.608   2.074   1.464  0.3375  0.0832  0.1039
 1646SOL    HW2 6356   3.546   2.137   1.500  0.4414  0.8908 -1.0831
 1646SOL    HW3 6357   3.693   2.118   1.471  1.0202 -1.3905  2.6334
 1646SOL    MW4 6358   3.611   2.088   1.470  0.3261  0.2574 -0.0671
 1647SOL     OW 6359   4.351   2.671   0.166 -0.4357 -0.5701 -0.2317
 1647SOL    HW2 6360   4.259   2.697   0.162 -0.1102  0.4383 -1.4041
 1647SOL    HW3 6361   4.396   2.729   0.105  1.1179 -0.5327  0.8950
 1647SOL    MW4 6362   4.345   2.682   0.158  0.5495 -0.3628  0.2210
 1648SOL     OW 6363   3.383   0.754   0.352  0.3194 -0.0131  0.0160
 1648SOL    HW2 6364   3.370   0.684   0.289  0.7253 -1.1780  1.1889
 1648SOL    HW3 6365   3.469   0.736   0.390 -0.7608 -0.5771  2.3803
 1648SOL    MW4 6366   3.393   0.743   0.349 -0.2822 -0.0037 -0.4498
 1649SOL     OW 6367   2.536   0.456   4.373  0.2021 -0.1053  0.2260
 1649SOL    HW2 6368   2.506   0.457   4.282 -0.8334  2.1878  0.5082
 1649SOL    HW3 6369   2.629   0.475   4.368 -0.1178  1.4786 -0.3465
 1649SOL    MW4 6370   2.544   0.459   4.361  0.4931 -0.4246 -0.4406
 1650SOL     OW 6371   3.096   5.484   4.018 -0.1779 -1.1168 -0.5762
 1650SOL    HW2 6372   3.153   5.505   4.092  0.7017 -1.4256 -1.1578
 1650SOL    HW3 6373   3.049   5.405   4.045  0.2176 -1.2899 -0.4008
 1650SOL    MW4 6374   3.097   5.476   4.032 -0.1824  0.1173 -0.0737
 1651SOL     OW 6375   3.169   4.226   4.947  0.1231 -0.0916  0.2981
 1651SOL    HW2 6376   3.255   4.261   4.923  0.4109 -0.2985  1.0140
 1651SOL    HW3 6377   3.188   4.141   4.987 -0.5692 -1.3330 -1.7966
 1651SOL    MW4 6378   3.183   4.219   4.949  0.2689  0.4514  0.2075
 1652SOL     OW 6379   0.214   6.262   2.775 -0.0481 -0.0221 -0.0462
 1652SOL    HW2 6380   0.249   6.337   2.823 -1.3338  0.5638  0.0056
 1652SOL    HW3 6381   0.291   6.220   2.737  0.8650  0.2954  1.3847
 1652SOL    MW4 6382   0.229   6.266   2.777  0.0023 -0.1945 -0.1171
 1653SOL     OW 6383   4.174   0.274   0.036 -0.3194 -0.0140  0.0253
 1653SOL    HW2 6384   4.108   0.309   0.096 -0.4228 -1.0301  0.5286
 1653SOL    HW3 6385   4.184   0.342  -0.031 -1.5911  0.3207  0.1519
 1653SOL    MW4 6386   4.167   0.288   0.036 -0.1505 -0.1675 -0.0486
 1654SOL     OW 6387   0.843   0.064   1.383 -0.9464  0.2282  0.5146
 1654SOL    HW2 6388   0.892   0.016   1.450 -1.6282 -2.4889 -0.7719
 1654SOL    HW3 6389   0.861   0.016   1.302 -3.4123  0.8614 -0.4944
 1654SOL    MW4 6390   0.851   0.051   1.381 -0.0925  0.1534  0.1520
 1655SOL     OW 6391   1.709   1.284   1.909  0.3565  0.1234  0.1750
 1655SOL    HW2 6392   1.649   1.304   1.981 -1.2536  0.3860 -1.1800
 1655SOL    HW3 6393   1.701   1.189   1.897 -0.9405  0.3469 -0.9354
 1655SOL    MW4 6394   1.700   1.274   1.917 -0.0481  0.0953 -0.5334
 1656SOL     OW 6395   4.948   3.737   4.205 -0.0241 -0.2539  0.2553
 1656SOL    HW2 6396   4.858   3.734   4.238 -0.3051  0.1337 -0.4520
 1656SOL    HW3 6397   4.941   3.706   4.115  0.5081  0.0506  0.1066
 1656SOL    MW4 6398   4.935   3.733   4.198 -0.1144 -0.0464  0.7474
 1657SOL     OW 6399   1.874   0.344   2.285 -0.3775  0.5358  0.4816
 1657SOL    HW2 6400   1.879   0.364   2.192  1.2467  0.4796  0.5356
 1657SOL    HW3 6401   1.930   0.267   2.296 -0.1668  0.8408  1.5889
 1657SOL    MW4 6402   1.882   0.336   2.274 -0.2047 -0.3287  1.1625
 1658SOL     OW 6403   1.668   6.297   3.199 -0.4689 -0.6108  0.1041
 1658SOL    HW2 6404   1.751   6.345   3.202 -0.0086 -1.3524 -0.3318
 1658SOL    HW3 6405   1.602   6.361   3.227 -0.0622  0.6895 -1.7021
 1658SOL    MW4 6406   1.670   6.312   3.203  0.1650 -0.4111  0.0119
 1659SOL     OW 6407   1.530   3.785   1.291 -0.4028 -0.0638  0.2311
 1659SOL    HW2 6408   1.592   3.745   1.352  0.3541 -0.7347 -0.9381
 1659SOL    HW3 6409   1.510   3.715   1.229 -2.1454  0.2213  0.4245
 1659SOL    MW4 6410   1.536   3.771   1.291  0.3384 -0.3797  0.2024
 1660SOL     OW 6411   0.055   5.847   3.763 -0.8432 -0.2044 -0.1133
 1660SOL    HW2 6412  -0.005   5.875   3.694 -0.5703 -0.8891 -0.6391
 1660SOL    HW3 6413   0.075   5.756   3.741  1.2436  0.3239 -0.5676
 1660SOL    MW4 6414   0.049   5.839   3.751  0.2911 -0.4417 -0.7640
 1661SOL     OW 6415   2.258   4.509   5.759 -0.1220  0.5480  0.0331
 1661SOL    HW2 6416   2.237   4.596   5.790 -0.5227  0.2161  0.7056
 1661SOL    HW3 6417   2.275   4.458   5.838 -2.0439 -0.5451 -0.1996
 1661SOL    MW4 6418   2.258   4.513   5.773  0.4523  0.0814 -0.1567
 1662SOL     OW 6419   0.638   3.625   5.272  0.6416  0.2257  0.3324
 1662SOL    HW2 6420   0.638   3.704   5.218 -0.9336 -0.6446 -1.0445
 1662SOL    HW3 6421   0.712   3.574   5.240 -0.2574 -0.2666 -1.0763
 1662SOL    MW4 6422   0.648   3.629   5.260  0.4438 -0.2268  0.0521
 1663SOL     OW 6423   3.545   2.504   4.117 -0.2449  0.8689 -0.3912
 1663SOL    HW2 6424   3.505   2.533   4.035  1.8404  1.3862 -1.2903
 1663SOL    HW3 6425   3.580   2.584   4.157 -0.6125  0.5216  0.6804
 1663SOL    MW4 6426   3.544   2.518   4.112  0.4184 -0.2658  0.4306
 1664SOL     OW 6427   0.310   4.517   2.828 -0.4452 -0.2881  0.0941
 1664SOL    HW2 6428   0.318   4.484   2.917 -0.9547  1.9700  1.0336
 1664SOL    HW3 6429   0.229   4.478   2.795 -0.4430 -0.8595  0.7370
 1664SOL    MW4 6430   0.300   4.508   2.835  0.9791  0.4513 -0.1065
 1665SOL     OW 6431   5.438   1.469   1.345  0.2779  0.0102 -0.0443
 1665SOL    HW2 6432   5.387   1.501   1.271  1.2953  1.3650 -0.1826
 1665SOL    HW3 6433   5.461   1.379   1.322 -1.7635 -0.5369 -0.1065
 1665SOL    MW4 6434   5.434   1.461   1.332  0.0563  0.1608 -0.7788
 1666SOL     OW 6435   1.304   3.107   3.289  0.3393 -0.0661  0.4123
 1666SOL    HW2 6436   1.237   3.116   3.221  0.4791 -2.4333 -0.1378
 1666SOL    HW3 6437   1.381   3.073   3.242  0.4048 -1.8565  1.7313
 1666SOL    MW4 6438   1.305   3.104   3.274  0.3377  0.0259  0.2499
 1667SOL     OW 6439   4.161   5.770   4.382  0.4796 -0.0546 -0.7280
 1667SOL    HW2 6440   4.226   5.818   4.432 -0.4691 -0.1903  0.7055
 1667SOL    HW3 6441   4.107   5.837   4.341  0.1064  0.0821 -0.0122
 1667SOL    MW4 6442   4.162   5.785   4.383  0.0112 -0.2553 -0.0234
 1668SOL     OW 6443   3.190   6.173   0.169  0.0489  0.2119  0.0084
 1668SOL    HW2 6444   3.215   6.265   0.165  1.9458 -0.2257  0.9179
 1668SOL    HW3 6445   3.107   6.173   0.217 -1.4867  1.6286 -2.3785
 1668SOL    MW4 6446   3.182   6.185   0.175  0.6236 -0.0409 -0.3495
 1669SOL     OW 6447   0.364   1.839   3.736 -0.3968  0.1968  0.2060
 1669SOL    HW2 6448   0.399   1.856   3.823 -0.0555  0.6329 -0.0082
 1669SOL    HW3 6449   0.355   1.744   3.732  1.5684 -0.0329 -0.0056
 1669SOL    MW4 6450   0.368   1.829   3.747 -0.5080 -0.2071  0.0066
 1670SOL     OW 6451   1.888   0.608   4.967  0.0084 -0.3388  0.7728
 1670SOL    HW2 6452   1.901   0.616   5.061 -0.1467 -0.9309  0.8481
 1670SOL    HW3 6453   1.837   0.685   4.943  1.0180  0.4120  0.9813
 1670SOL    MW4 6454   1.883   0.619   4.976 -0.4428 -0.0232 -0.1849
 1671SOL     OW 6455   2.590   0.818   4.853 -0.5057 -0.2258  0.4931
 1671SOL    HW2 6456   2.670   0.801   4.804 -0.3371 -0.1590  0.7436
 1671SOL    HW3 6457   2.578   0.740   4.908 -0.7609 -0.3545  0.2599
 1671SOL    MW4 6458   2.599   0.806   4.854  0.0969 -0.4803 -0.3892
 1672SOL     OW 6459   1.580   6.006   4.095 -0.0957  0.3706  0.0509
 1672SOL    HW2 6460   1.605   6.093   4.126  3.7163  0.1643 -1.8578
 1672SOL    HW3 6461   1.537   6.021   4.011  1.3027  0.4512 -0.6767
 1672SOL    MW4 6462   1.578   6.019   4.088  0.7668  0.2594  0.8043
 1673SOL     OW 6463   2.577   5.915   4.415  0.3149  0.3700  0.3208
 1673SOL    HW2 6464   2.495   5.882   4.378 -1.3253  2.4699  1.8245
 1673SOL    HW3 6465   2.593   5.997   4.369  2.1157 -0.4382 -0.5727
 1673SOL    MW4 6466   2.568   5.921   4.404 -0.1324 -0.0668  0.3298
 1674SOL     OW 6467   4.199   5.465   1.062  0.2831  0.1665 -0.0025
 1674SOL    HW2 6468   4.224   5.398   1.125  2.5268 -0.7908 -1.7746
 1674SOL    HW3 6469   4.135   5.422   1.005  0.0555  0.2580  0.1825
 1674SOL    MW4 6470   4.194   5.450   1.063 -0.3760  0.2721 -0.0360
 1675SOL     OW 6471   1.133   3.573   0.728 -0.5306 -0.1208 -0.2625
 1675SOL    HW2 6472   1.220   3.532   0.729 -0.5007 -0.1104  1.2848
 1675SOL    HW3 6473   1.117   3.595   0.637  0.7447 -0.8731 -0.6907
 1675SOL    MW4 6474   1.142   3.571   0.716 -0.0546  0.1223 -0.5270
 1676SOL     OW 6475   4.197   0.682   4.806 -0.0673 -0.0826  0.0783
 1676SOL    HW2 6476   4.257   0.658   4.736 -0.8496  1.8587 -1.3387
 1676SOL    HW3 6477   4.254   0.718   4.874  0.6855 -1.8665  0.4519
 1676SOL    MW4 6478   4.213   0.684   4.806 -0.3063 -0.1987 -0.2518
 1677SOL     OW 6479   3.430   5.762   3.352  0.2392  0.6344 -0.1228
 1677SOL    HW2 6480   3.369   5.832   3.326 -0.4476 -0.1917 -0.8095
 1677SOL    HW3 6481   3.513   5.807   3.367 -0.3859  1.7086  0.2270
 1677SOL    MW4 6482   3.433   5.777   3.350 -0.2849 -0.3830 -0.0340
 1678SOL     OW 6483   2.901   2.895   5.684  1.0113 -0.0879  0.1304
 1678SOL    HW2 6484   2.995   2.906   5.673  0.7703  0.6003 -1.4831
 1678SOL    HW3 6485   2.866   2.893   5.595 -0.6582  1.1988  0.6994
 1678SOL    MW4 6486   2.909   2.896   5.671  0.2035 -0.3158 -0.3149
 1679SOL     OW 6487   5.536   0.661   4.767  0.2587 -0.3366 -0.1985
 1679SOL    HW2 6488   5.487   0.615   4.699  2.5719 -1.4155 -1.2310
 1679SOL    HW3 6489   5.572   0.738   4.721  1.6595 -0.9593 -0.1648
 1679SOL    MW4 6490   5.534   0.665   4.752  0.2578  0.6805 -0.0308
 1680SOL     OW 6491   4.491   1.039   3.440 -0.3164  0.1130  0.0842
 1680SOL    HW2 6492   4.487   1.070   3.530 -0.4480  3.5071 -0.9536
 1680SOL    HW3 6493   4.584   1.046   3.416 -0.2559 -0.9249 -0.0154
 1680SOL    MW4 6494   4.503   1.044   3.449  0.1220 -0.1985  0.2864
 1681SOL     OW 6495   4.602   5.969   2.592 -0.1068  0.0193  0.5702
 1681SOL    HW2 6496   4.688   6.011   2.599  0.2444 -0.9263  2.4094
 1681SOL    HW3 6497   4.556   6.021   2.525  1.8251  0.6052 -0.3910
 1681SOL    MW4 6498   4.607   5.981   2.584 -0.3938 -0.4188  0.1483
 1682SOL     OW 6499   5.231   1.117   4.332 -0.0377 -0.1908  0.0228
 1682SOL    HW2 6500   5.245   1.207   4.302  0.4250 -0.3513 -0.2505
 1682SOL    HW3 6501   5.224   1.124   4.428  0.4412  0.0771  0.0371
 1682SOL    MW4 6502   5.232   1.129   4.341  0.0099 -0.4853  0.0820
 1683SOL     OW 6503   2.815   2.227   4.639 -0.6028  0.2710  0.0373
 1683SOL    HW2 6504   2.868   2.274   4.575  2.4015 -3.2581 -0.4212
 1683SOL    HW3 6505   2.867   2.228   4.719 -0.6350 -1.6807  0.1401
 1683SOL    MW4 6506   2.829   2.233   4.641  1.3850  0.2118 -0.1175
 1684SOL     OW 6507   1.274   0.963   4.039 -0.3677 -0.1309  0.0782
 1684SOL    HW2 6508   1.306   0.873   4.048  0.2291  0.1869  1.3651
 1684SOL    HW3 6509   1.304   0.991   3.952  2.0023 -0.2133  0.7874
 1684SOL    MW4 6510   1.282   0.955   4.029 -0.1688  0.6380  0.3170
 1685SOL     OW 6511   2.924   4.891   0.782 -0.0639  0.1923 -0.1816
 1685SOL    HW2 6512   2.925   4.876   0.876 -0.2370 -2.1950 -0.4925
 1685SOL    HW3 6513   2.859   4.959   0.768 -0.0856  0.5182  1.4023
 1685SOL    MW4 6514   2.916   4.898   0.792 -0.5109 -0.0057 -0.5890
 1686SOL     OW 6515   3.606   5.397   1.285  0.0315 -0.3887  0.0529
 1686SOL    HW2 6516   3.576   5.308   1.306  1.2321 -0.5908  1.0226
 1686SOL    HW3 6517   3.652   5.426   1.364 -2.5266  2.1276  0.7553
 1686SOL    MW4 6518   3.608   5.389   1.298  0.2360 -0.2887  0.1556
 1687SOL     OW 6519   1.272   5.572   5.592  0.5123 -0.0935 -0.2001
 1687SOL    HW2 6520   1.316   5.544   5.512  0.9590 -0.8558  0.3034
 1687SOL    HW3 6521   1.221   5.649   5.566 -0.2246 -0.9776 -1.4626
 1687SOL    MW4 6522   1.271   5.578   5.578 -0.1774  0.0755  0.2347
 1688SOL     OW 6523   1.973   1.896   5.278  0.2491 -0.0772 -0.1671
 1688SOL    HW2 6524   1.893   1.882   5.328 -0.6658  2.5903 -0.7194
 1688SOL    HW3 6525   2.042   1.896   5.344 -0.1981 -2.0804  0.3599
 1688SOL    MW4 6526   1.972   1.894   5.293 -0.1865 -0.3295 -0.0913
 1689SOL     OW 6527   0.529   3.406   1.173 -0.4110  0.3111 -0.3028
 1689SOL    HW2 6528   0.471   3.350   1.121 -0.1854  0.2484 -0.4899
 1689SOL    HW3 6529   0.498   3.398   1.263 -1.1277  0.8185 -0.4977
 1689SOL    MW4 6530   0.518   3.398   1.178  0.3966 -0.1740  0.2641
 1690SOL     OW 6531   4.342   4.654   3.502  1.0451 -0.4584  0.4759
 1690SOL    HW2 6532   4.310   4.670   3.591  0.7008 -0.6673  0.3918
 1690SOL    HW3 6533   4.339   4.739   3.460  2.8295 -0.0071  1.1686
 1690SOL    MW4 6534   4.338   4.667   3.508 -0.6488 -0.1324 -0.0301
 1691SOL     OW 6535   1.819   2.150   0.679 -0.4447  0.0606  0.2642
 1691SOL    HW2 6536   1.905   2.148   0.723 -0.6408  0.0213  0.6509
 1691SOL    HW3 6537   1.795   2.243   0.678 -0.6203  0.0208  0.5999
 1691SOL    MW4 6538   1.827   2.162   0.685 -0.4780  0.4742 -0.5336
 1692SOL     OW 6539   2.362   2.775   3.498  0.4114  0.1137 -0.1922
 1692SOL    HW2 6540   2.408   2.860   3.503  3.2808 -1.3976  1.8888
 1692SOL    HW3 6541   2.294   2.780   3.565 -2.4405  2.1717 -2.9226
 1692SOL    MW4 6542   2.359   2.787   3.507  0.1163  0.3278 -0.0118
 1693SOL     OW 6543   5.181   4.224   0.267 -0.0325 -0.0758 -0.2520
 1693SOL    HW2 6544   5.165   4.251   0.177 -0.2537  2.0322  0.3548
 1693SOL    HW3 6545   5.094   4.227   0.309  0.1836 -0.2778  0.2212
 1693SOL    MW4 6546   5.167   4.228   0.261  0.3054  0.4738 -0.0689
 1694SOL     OW 6547   4.169   6.204   2.171 -0.0326  0.0107 -0.0043
 1694SOL    HW2 6548   4.264   6.194   2.179 -0.0481  0.5536  1.0945
 1694SOL    HW3 6549   4.134   6.167   2.252 -0.8229 -0.9073 -0.7493
 1694SOL    MW4 6550   4.177   6.198   2.183  0.0978  0.4595  0.9365
 1695SOL     OW 6551   3.845   2.762   5.353  0.4120 -0.3200  1.0244
 1695SOL    HW2 6552   3.774   2.822   5.328  0.4726 -0.5251  0.3134
 1695SOL    HW3 6553   3.830   2.743   5.445 -0.0945  0.1365  1.0388
 1695SOL    MW4 6554   3.833   2.767   5.362  0.4063 -0.2230  0.2681
 1696SOL     OW 6555   0.511   5.157   3.729  0.4367  0.4294  0.0894
 1696SOL    HW2 6556   0.540   5.066   3.737  0.4223  0.3430 -0.7521
 1696SOL    HW3 6557   0.463   5.174   3.809  1.0128 -0.0988  0.5568
 1696SOL    MW4 6558   0.509   5.147   3.740 -0.0046 -0.2503 -0.2583
 1697SOL     OW 6559   3.827   1.271   6.054  0.0606 -0.1769 -0.3091
 1697SOL    HW2 6560   3.860   1.249   5.967 -1.5865  1.2179 -1.3432
 1697SOL    HW3 6561   3.889   1.336   6.088 -0.1549  0.4508 -1.1030
 1697SOL    MW4 6562   3.840   1.276   6.047 -0.0786 -0.1821 -0.1991
 1698SOL     OW 6563   5.605   5.579   6.290 -0.1738 -0.0157  0.0730
 1698SOL    HW2 6564   5.559   5.535   6.362  1.1005  1.3113  1.7880
 1698SOL    HW3 6565   5.653   5.509   6.246  1.6612 -0.5145  2.6153
 1698SOL    MW4 6566   5.605   5.564   6.294  0.2458 -0.0165 -0.2160
 1699SOL     OW 6567   2.431   1.186   5.518  0.0175  0.2514 -0.5157
 1699SOL    HW2 6568   2.490   1.113   5.502  0.3029  0.6623 -1.4322
 1699SOL    HW3 6569   2.480   1.246   5.574  0.2930  0.3785 -0.8962
 1699SOL    MW4 6570   2.445   1.185   5.523 -0.1624 -0.0794  0.1426
 1700SOL     OW 6571   6.180   2.384   0.893  0.3793  0.5682  0.1539
 1700SOL    HW2 6572   6.210   2.444   0.961  0.6319 -0.6047  1.0999
 1700SOL    HW3 6573   6.092   2.359   0.920  0.5886 -0.1238  0.2257
 1700SOL    MW4 6574   6.173   2.389   0.905 -0.2460  0.3652  0.4873
 1701SOL     OW 6575   2.025   2.623   1.019 -0.2398  0.0413 -0.0271
 1701SOL    HW2 6576   1.969   2.645   0.945 -0.2816 -0.7109 -0.2304
 1701SOL    HW3 6577   2.070   2.543   0.992  0.9572  0.6508  0.1285
 1701SOL    MW4 6578   2.023   2.615   1.006  0.2937  0.1590 -0.1702
 1702SOL     OW 6579   2.430   0.989   4.388 -0.1246  0.0654  0.0034
 1702SOL    HW2 6580   2.351   0.936   4.376  0.1326 -0.5914  1.0252
 1702SOL    HW3 6581   2.457   0.971   4.478 -0.8955  3.1169  0.9857
 1702SOL    MW4 6582   2.423   0.980   4.399  0.0735  0.1249  0.3725
 1703SOL     OW 6583   4.433   2.980   3.260 -0.1653  0.2579  0.1014
 1703SOL    HW2 6584   4.485   3.053   3.292 -0.3269  0.0204  0.9261
 1703SOL    HW3 6585   4.352   2.984   3.311 -0.5576  0.0514 -0.4956
 1703SOL    MW4 6586   4.429   2.990   3.271  0.1356  0.2943 -0.5988
 1704SOL     OW 6587   0.280   5.336   2.085 -0.6603 -0.1346  0.4506
 1704SOL    HW2 6588   0.303   5.319   1.994 -0.5173  0.4024  0.3797
 1704SOL    HW3 6589   0.271   5.249   2.125 -0.3790 -0.3682  0.0127
 1704SOL    MW4 6590   0.282   5.322   2.078  0.2643  0.1263  0.1284
 1705SOL     OW 6591   3.393   5.613   3.108 -0.1994 -0.2526  0.1795
 1705SOL    HW2 6592   3.392   5.518   3.119 -1.1744 -0.0534  2.1868
 1705SOL    HW3 6593   3.433   5.647   3.188  0.0261  1.0530 -0.4535
 1705SOL    MW4 6594   3.398   5.605   3.120  0.0421 -0.3292 -0.1532
 1706SOL     OW 6595   6.395   3.591   1.669  0.0766  0.1350  0.4194
 1706SOL    HW2 6596   6.312   3.636   1.683 -0.0534 -0.3266  1.1982
 1706SOL    HW3 6597   6.443   3.604   1.751  0.2791 -0.6192  0.4248
 1706SOL    MW4 6598   6.390   3.599   1.682  0.2012 -0.2726  0.0629
 1707SOL     OW 6599   5.475   1.891   2.219  0.3147 -0.1057 -0.2900
 1707SOL    HW2 6600   5.438   1.965   2.171  1.9927  0.6209 -0.5293
 1707SOL    HW3 6601   5.478   1.920   2.310  0.4091 -0.1033 -0.2933
 1707SOL    MW4 6602   5.471   1.905   2.225 -0.0811 -1.1734 -0.2529
 1708SOL     OW 6603   1.487   0.937   5.632 -0.1553 -0.0126  0.4809
 1708SOL    HW2 6604   1.415   0.997   5.612  0.0722  0.3801  0.8223
 1708SOL    HW3 6605   1.453   0.850   5.610  0.1673  0.3840 -1.9008
 1708SOL    MW4 6606   1.473   0.933   5.626 -0.3977 -0.1201 -0.4680
 1709SOL     OW 6607   4.169   2.993   2.229  0.5937  0.4136  0.2841
 1709SOL    HW2 6608   4.218   2.954   2.301 -1.5391 -2.4607  0.3500
 1709SOL    HW3 6609   4.188   2.937   2.153  1.6630  2.5307 -1.1208
 1709SOL    MW4 6610   4.178   2.981   2.228 -0.4406 -0.1098 -0.3938
 1710SOL     OW 6611   4.834   2.939   5.764  0.4387 -0.4971  0.0389
 1710SOL    HW2 6612   4.746   2.973   5.776 -0.5206  0.0260 -5.6863
 1710SOL    HW3 6613   4.821   2.849   5.734  2.2445 -1.7199  2.5342
 1710SOL    MW4 6614   4.821   2.931   5.762 -0.1790  0.3092 -0.5136
 1711SOL     OW 6615   4.688   2.144   6.429 -0.1702  0.2827 -0.1155
 1711SOL    HW2 6616   4.744   2.073   6.460  0.2908  0.0559 -1.4025
 1711SOL    HW3 6617   4.737   2.224   6.450  1.1835  0.0513 -2.1699
 1711SOL    MW4 6618   4.702   2.145   6.436 -0.3753  0.3548 -0.2099
 1712SOL     OW 6619   0.378   2.689   0.599  0.0284  0.0015 -0.0356
 1712SOL    HW2 6620   0.407   2.733   0.679 -0.2362  0.8799 -0.4044
 1712SOL    HW3 6621   0.330   2.757   0.551  1.5079 -0.0404 -1.6667
 1712SOL    MW4 6622   0.375   2.704   0.603  0.2568  0.5924 -0.0155
 1713SOL     OW 6623   0.903   0.279   6.412 -0.3078  0.8211 -0.6642
 1713SOL    HW2 6624   0.860   0.292   6.327  0.2595 -0.1150 -1.1055
 1713SOL    HW3 6625   0.979   0.338   6.410 -0.0417  0.4740 -1.0004
 1713SOL    MW4 6626   0.907   0.289   6.401 -0.5856  0.2378 -0.2436
 1714SOL     OW 6627   2.507   0.813   5.853 -0.1311  0.2026  0.5480
 1714SOL    HW2 6628   2.454   0.750   5.901 -0.6515  1.2641  1.4124
 1714SOL    HW3 6629   2.460   0.896   5.862 -0.3646  0.4269 -1.9995
 1714SOL    MW4 6630   2.494   0.816   5.861  0.4630 -0.2824 -0.4273
 1715SOL     OW 6631   4.897   6.160   3.949  0.1262  0.4912  0.0856
 1715SOL    HW2 6632   4.861   6.114   4.024  1.5092 -0.3453  0.2856
 1715SOL    HW3 6633   4.910   6.250   3.980 -0.2754  0.4083  0.5072
 1715SOL    MW4 6634   4.894   6.166   3.963  0.0301  0.0239 -0.0064
 1716SOL     OW 6635   6.170   4.135   2.163 -0.7382  0.6988  0.1505
 1716SOL    HW2 6636   6.242   4.189   2.128  0.7923 -1.6160 -0.5379
 1716SOL    HW3 6637   6.100   4.197   2.180  0.8599  2.8803 -0.6852
 1716SOL    MW4 6638   6.171   4.150   2.160 -0.2550  0.0908 -0.3422
 1717SOL     OW 6639   6.333   3.639   6.051 -0.4374  0.3998  0.1671
 1717SOL    HW2 6640   6.340   3.720   6.000  0.6118 -0.4585 -1.1176
 1717SOL    HW3 6641   6.386   3.576   6.003 -2.0561 -1.3518  0.5634
 1717SOL    MW4 6642   6.341   3.641   6.038  0.0271  0.6712 -0.2884
 1718SOL     OW 6643   1.474   6.085   0.226  0.0200  0.8251 -0.7574
 1718SOL    HW2 6644   1.547   6.052   0.278 -0.0365  2.8125  0.7015
 1718SOL    HW3 6645   1.398   6.034   0.255  0.6086 -0.5341 -1.5293
 1718SOL    MW4 6646   1.474   6.074   0.237  0.4050  0.0880  0.2982
 1719SOL     OW 6647   5.680   1.729   1.837  0.0069 -0.3035  0.0956
 1719SOL    HW2 6648   5.684   1.736   1.933 -1.7205 -2.6369  0.4245
 1719SOL    HW3 6649   5.702   1.817   1.806  0.8685  0.4685  2.5953
 1719SOL    MW4 6650   5.684   1.741   1.846 -0.0753 -0.2129 -0.5434
 1720SOL     OW 6651   2.460   3.174   6.335  0.1991 -0.1676 -0.5510
 1720SOL    HW2 6652   2.418   3.215   6.259 -0.6606 -1.0459 -0.5636
 1720SOL    HW3 6653   2.474   3.083   6.309 -1.5418 -0.9059  0.8421
 1720SOL    MW4 6654   2.456   3.168   6.321  0.4647  0.1570 -0.3014
 1721SOL     OW 6655   6.040   3.215   3.853 -0.0155  0.0312 -0.2469
 1721SOL    HW2 6656   5.977   3.273   3.810 -0.0601 -0.6296 -1.1037
 1721SOL    HW3 6657   5.992   3.133   3.867  0.5265 -0.3454 -0.5472
 1721SOL    MW4 6658   6.026   3.212   3.849 -0.4680  0.2905  0.3305
 1722SOL     OW 6659   3.622   1.158   0.768  0.5945  0.1365  0.1556
 1722SOL    HW2 6660   3.561   1.092   0.734  0.6336  0.8611 -1.4300
 1722SOL    HW3 6661   3.692   1.106   0.808  0.0361 -0.7561  0.0221
 1722SOL    MW4 6662   3.623   1.142   0.769  0.1309  0.5065  0.5100
 1723SOL     OW 6663   2.376   5.201   2.527  0.5673  0.3016  0.0953
 1723SOL    HW2 6664   2.440   5.190   2.597 -0.1255  0.9718  0.8597
 1723SOL    HW3 6665   2.347   5.292   2.535 -0.8026 -0.1087  0.0562
 1723SOL    MW4 6666   2.380   5.212   2.537 -0.0170  0.0791  0.0031
 1724SOL     OW 6667   6.056   1.615   2.176 -0.5065 -0.7405  0.1305
 1724SOL    HW2 6668   5.988   1.646   2.115 -0.3899 -1.1192 -0.1975
 1724SOL    HW3 6669   6.083   1.694   2.224 -1.0446 -0.5554  0.1311
 1724SOL    MW4 6670   6.051   1.630   2.174 -0.7602  0.3580  0.3476
 1725SOL     OW 6671   3.494   0.898   0.673  0.0089 -0.4554  0.1082
 1725SOL    HW2 6672   3.484   0.818   0.724  0.5527 -0.5132  0.1286
 1725SOL    HW3 6673   3.589   0.907   0.660 -0.1078 -0.3328 -0.7132
 1725SOL    MW4 6674   3.505   0.889   0.678 -0.2214 -0.0710 -0.2795
 1726SOL     OW 6675   3.841   1.014   5.131  0.1527  0.0673 -0.1944
 1726SOL    HW2 6676   3.874   1.087   5.078 -0.2444  0.9719  0.7821
 1726SOL    HW3 6677   3.769   1.051   5.182 -0.7161 -1.2577 -0.4036
 1726SOL    MW4 6678   3.836   1.028   5.130  0.1202  0.0444 -0.3999
 1727SOL     OW 6679   3.902   5.472   3.223 -0.5555 -0.3735 -0.0727
 1727SOL    HW2 6680   3.942   5.453   3.308  0.6672 -0.9537 -0.7454
 1727SOL    HW3 6681   3.871   5.562   3.230  0.3038 -0.1266  0.6926
 1727SOL    MW4 6682   3.903   5.481   3.235 -0.9809 -0.2850  0.5753
 1728SOL     OW 6683   5.203   5.321   2.142 -0.0772  0.1734  0.1019
 1728SOL    HW2 6684   5.290   5.280   2.139 -0.5108 -0.7848  0.0906
 1728SOL    HW3 6685   5.206   5.390   2.075  0.3110 -0.6264 -0.7333
 1728SOL    MW4 6686   5.215   5.324   2.133  0.0680  0.1779  0.1067
 1729SOL     OW 6687   0.573   5.858   2.870  0.4637 -0.1959 -0.2216
 1729SOL    HW2 6688   0.582   5.915   2.946 -0.6351 -0.8447  0.4033
 1729SOL    HW3 6689   0.662   5.824   2.856  0.6209 -0.3120  0.9526
 1729SOL    MW4 6690   0.586   5.861   2.878  0.9100 -0.1857 -0.6039
 1730SOL     OW 6691   3.234   3.619   2.764  0.1391  0.0994  0.4028
 1730SOL    HW2 6692   3.184   3.547   2.802 -1.5471 -0.3218 -2.3266
 1730SOL    HW3 6693   3.313   3.578   2.730  0.0925 -0.1047  0.5371
 1730SOL    MW4 6694   3.238   3.604   2.765  0.1876 -0.3613  0.2306
 1731SOL     OW 6695   0.438   1.135   3.712 -0.0505 -0.2392 -0.1362
 1731SOL    HW2 6696   0.489   1.060   3.744 -1.0880 -0.6844  0.5399
 1731SOL    HW3 6697   0.347   1.109   3.725 -0.4678  0.4635 -1.4932
 1731SOL    MW4 6698   0.433   1.122   3.718 -0.1954 -0.2641 -0.2174
 1732SOL     OW 6699   3.460   4.228   5.537 -0.3964  0.5608  0.2802
 1732SOL    HW2 6700   3.433   4.312   5.572  0.5725  1.2747 -0.6424
 1732SOL    HW3 6701   3.554   4.235   5.526 -0.4214 -0.3261 -0.6502
 1732SOL    MW4 6702   3.469   4.240   5.540 -0.2525 -0.2063 -0.1262
 1733SOL     OW 6703   4.667   4.407   5.298 -0.6610 -0.2824  0.0648
 1733SOL    HW2 6704   4.711   4.488   5.271 -1.0896 -0.2624 -0.6144
 1733SOL    HW3 6705   4.734   4.357   5.344 -0.1564  0.1018 -0.2434
 1733SOL    MW4 6706   4.682   4.411   5.300  0.6360 -0.4027 -0.3493
 1734SOL     OW 6707   0.715   0.168   0.974  0.1790  0.0087  0.1830
 1734SOL    HW2 6708   0.795   0.194   1.019  0.1030  1.0741 -0.2430
 1734SOL    HW3 6709   0.664   0.249   0.969 -0.5708 -0.4817 -0.2514
 1734SOL    MW4 6710   0.719   0.182   0.979 -0.0732  0.8583  0.2412
 1735SOL     OW 6711   2.990   5.508   5.336 -0.2128 -0.4439  0.2454
 1735SOL    HW2 6712   2.982   5.457   5.256  0.1115 -0.1381  0.0174
 1735SOL    HW3 6713   2.912   5.486   5.387 -0.4854 -0.5274 -0.2124
 1735SOL    MW4 6714   2.979   5.498   5.332  0.3712  0.6162 -0.3817
 1736SOL     OW 6715   5.092   0.301   0.933  0.0492 -0.2552  0.6638
 1736SOL    HW2 6716   5.070   0.270   0.845 -2.0115  1.6010  0.4156
 1736SOL    HW3 6717   5.088   0.397   0.926  1.3720 -0.0218  2.4344
 1736SOL    MW4 6718   5.088   0.310   0.921 -0.3396 -0.0829 -0.2373
 1737SOL     OW 6719   5.964   1.407   4.775 -0.0408 -0.2785  0.4186
 1737SOL    HW2 6720   5.913   1.333   4.808 -0.9424  0.0896 -0.1144
 1737SOL    HW3 6721   5.901   1.478   4.768  0.5190  0.1543 -0.3824
 1737SOL    MW4 6722   5.949   1.406   4.779 -0.1794 -0.6249 -0.1014
 1738SOL     OW 6723   1.857   1.103   1.410  0.2644  0.5430  0.5920
 1738SOL    HW2 6724   1.939   1.057   1.426  0.8413  0.4274 -2.1245
 1738SOL    HW3 6725   1.836   1.145   1.493  1.4394 -1.8944  2.2357
 1738SOL    MW4 6726   1.865   1.102   1.423  0.1487  0.4265 -0.5323
 1739SOL     OW 6727   0.029   4.185   1.193  0.5278  0.2034  0.1337
 1739SOL    HW2 6728  -0.031   4.135   1.138  1.3411  1.4315 -1.9919
 1739SOL    HW3 6729   0.101   4.124   1.211  1.8328  0.6523 -2.9690
 1739SOL    MW4 6730   0.030   4.170   1.188 -0.2298 -0.1718 -0.0524
 1740SOL     OW 6731   3.610   4.069   4.116  0.3972 -0.3152  0.0277
 1740SOL    HW2 6732   3.590   4.057   4.023 -1.1189  3.5550 -0.3178
 1740SOL    HW3 6733   3.698   4.108   4.117 -0.0660  0.7700  0.0655
 1740SOL    MW4 6734   3.619   4.072   4.104  0.4253 -0.2798 -0.1137
 1741SOL     OW 6735   1.186   0.530   4.182  0.0897  0.1724  0.0532
 1741SOL    HW2 6736   1.219   0.494   4.264 -2.5776 -0.2524  1.0543
 1741SOL    HW3 6737   1.175   0.453   4.125 -1.0827  0.0004  0.4838
 1741SOL    MW4 6738   1.189   0.515   4.185  0.2591 -0.0101  0.8299
 1742SOL     OW 6739   3.481   0.783   4.830  0.2726 -0.2026  0.5969
 1742SOL    HW2 6740   3.512   0.694   4.815  0.0817 -0.5051  1.9200
 1742SOL    HW3 6741   3.504   0.830   4.750 -0.8355 -1.7589 -0.7062
 1742SOL    MW4 6742   3.488   0.778   4.817 -0.1370 -0.5394  0.0071
 1743SOL     OW 6743   4.233   1.390   4.084  0.5168 -0.4620  0.1777
 1743SOL    HW2 6744   4.329   1.393   4.075  0.6742 -2.1613  0.8661
 1743SOL    HW3 6745   4.200   1.447   4.014  2.0332  0.8058  0.4302
 1743SOL    MW4 6746   4.242   1.398   4.074 -0.0119  0.3867  0.3091
 1744SOL     OW 6747   0.736   0.047   1.725  0.0494  0.2557  0.2401
 1744SOL    HW2 6748   0.642   0.031   1.735 -0.1537  0.7324 -0.7865
 1744SOL    HW3 6749   0.776  -0.040   1.731 -0.2768  0.2056  2.2659
 1744SOL    MW4 6750   0.729   0.033   1.727  0.3256  0.0153  0.0402
 1745SOL     OW 6751   0.048   2.236   4.113  0.0279 -0.0006  0.0759
 1745SOL    HW2 6752   0.032   2.207   4.203 -0.5763 -2.9225 -0.8600
 1745SOL    HW3 6753   0.143   2.232   4.103  0.2102  1.5307  0.8859
 1745SOL    MW4 6754   0.058   2.231   4.124  0.2632  0.1674 -0.4932
 1746SOL     OW 6755   6.213   1.175   4.850  0.3889  0.6068 -0.2314
 1746SOL    HW2 6756   6.168   1.169   4.766  2.3136  0.1499 -1.2877
 1746SOL    HW3 6757   6.281   1.107   4.846  0.1300  0.1429  1.9653
 1746SOL    MW4 6758   6.216   1.165   4.839  0.5628  0.4018  0.0616
 1747SOL     OW 6759   4.229   4.258   2.706 -0.2042  0.5370  0.3817
 1747SOL    HW2 6760   4.159   4.256   2.641 -0.8814  0.8327  1.0966
 1747SOL    HW3 6761   4.287   4.186   2.680 -0.3785  0.7434 -0.6321
 1747SOL    MW4 6762   4.228   4.248   2.694  0.4200  0.1173 -0.2433
 1748SOL     OW 6763   5.024   6.295   2.981 -0.0816 -0.3277 -0.6085
 1748SOL    HW2 6764   5.074   6.249   3.048 -0.2180 -0.7336 -0.7852
 1748SOL    HW3 6765   4.974   6.361   3.029  1.2793  0.6969 -0.5014
 1748SOL    MW4 6766   5.024   6.298   2.996  0.3733 -0.6072  0.3462
 1749SOL     OW 6767   0.059   4.755   6.336  0.2435 -0.0860  0.3138
 1749SOL    HW2 6768   0.038   4.666   6.310 -0.5237  0.6229 -1.6922
 1749SOL    HW3 6769   0.154   4.756   6.347  0.1561 -1.3657  1.3880
 1749SOL    MW4 6770   0.069   4.743   6.334  0.1162 -0.0093  0.2057
 1750SOL     OW 6771   4.256   1.515   0.616  0.3109 -0.1145  0.0636
 1750SOL    HW2 6772   4.317   1.524   0.543 -1.0778  0.4307 -1.0796
 1750SOL    HW3 6773   4.265   1.424   0.644  1.8677  0.0430  0.1523
 1750SOL    MW4 6774   4.266   1.504   0.610 -0.0879 -0.5735  0.1983
 1751SOL     OW 6775   5.663   4.086   4.869 -0.2669  0.1347 -0.3457
 1751SOL    HW2 6776   5.726   4.087   4.941 -1.3431 -0.7646  0.6718
 1751SOL    HW3 6777   5.578   4.100   4.912 -0.7957  1.2045 -1.6531
 1751SOL    MW4 6778   5.660   4.088   4.884 -0.3366 -0.5753 -0.0555
 1752SOL     OW 6779   5.981   5.245   4.056  0.1273  0.8302 -0.2110
 1752SOL    HW2 6780   5.909   5.184   4.070  2.3736 -1.6146  1.8102
 1752SOL    HW3 6781   6.009   5.230   3.966  1.3235 -2.1288  0.5487
 1752SOL    MW4 6782   5.975   5.235   4.046 -0.3805 -0.6164 -0.3581
 1753SOL     OW 6783   5.980   2.497   6.231  0.0734 -0.4347  0.1884
 1753SOL    HW2 6784   6.070   2.489   6.262  0.5575  0.6663 -0.8554
 1753SOL    HW3 6785   5.984   2.474   6.138 -0.7072 -0.2698  0.1082
 1753SOL    MW4 6786   5.992   2.493   6.223  0.6635  0.2435 -0.0979
 1754SOL     OW 6787   2.833   0.016   5.832 -0.7095  0.6525 -0.0619
 1754SOL    HW2 6788   2.766   0.084   5.844 -2.0397 -0.5286 -0.4788
 1754SOL    HW3 6789   2.786  -0.056   5.789  0.2385 -1.1870  1.8214
 1754SOL    MW4 6790   2.818   0.016   5.828 -0.4093  0.0794 -0.0831
 1755SOL     OW 6791   2.318   6.299   1.694 -0.2874  0.2772 -0.5786
 1755SOL    HW2 6792   2.274   6.337   1.619  0.1686  1.5956 -0.2082
 1755SOL    HW3 6793   2.343   6.374   1.748  1.4271 -0.4765 -0.2420
 1755SOL    MW4 6794   2.316   6.314   1.691  0.8559  0.5867  0.2716
 1756SOL     OW 6795   5.565   5.490   2.000 -0.2447  0.5032 -0.1994
 1756SOL    HW2 6796   5.603   5.563   2.049  0.6872 -1.2079  1.7269
 1756SOL    HW3 6797   5.631   5.469   1.934  0.1023  0.5393  0.1290
 1756SOL    MW4 6798   5.579   5.497   1.998  0.4345 -0.3228 -0.1056
 1757SOL     OW 6799   5.258   5.012   3.675  0.3400 -0.2506 -0.6076
 1757SOL    HW2 6800   5.267   4.919   3.654  2.9882 -0.2756  0.3205
 1757SOL    HW3 6801   5.246   5.015   3.770  0.3889  0.3671 -0.6157
 1757SOL    MW4 6802   5.258   5.000   3.684  0.3017 -0.4650  0.2199
 1758SOL     OW 6803   5.538   4.924   3.799  0.4632 -0.3768 -0.1582
 1758SOL    HW2 6804   5.485   4.934   3.720  1.2311  1.1763 -0.5042
 1758SOL    HW3 6805   5.541   4.829   3.814 -1.5046 -0.5725 -0.7164
 1758SOL    MW4 6806   5.531   4.913   3.791  0.2874 -0.5563 -0.3201
 1759SOL     OW 6807   1.119   2.281   5.174  0.2034 -0.2846  0.1465
 1759SOL    HW2 6808   1.084   2.334   5.102 -0.1238  1.1784  1.3294
 1759SOL    HW3 6809   1.048   2.277   5.237  1.0606 -0.0693  1.1424
 1759SOL    MW4 6810   1.105   2.287   5.172 -0.4306 -0.1331  0.0419
 1760SOL     OW 6811   0.441   1.123   4.488  0.2502 -0.4530 -0.0546
 1760SOL    HW2 6812   0.531   1.151   4.504  0.2778 -0.0997 -0.7423
 1760SOL    HW3 6813   0.447   1.067   4.410  0.0557 -1.5699  0.7196
 1760SOL    MW4 6814   0.454   1.120   4.480  0.3925  0.3488 -0.3376
 1761SOL     OW 6815   4.380   0.345   1.284 -0.5317 -0.4302 -0.4204
 1761SOL    HW2 6816   4.467   0.356   1.321 -0.3003  1.1190 -1.3087
 1761SOL    HW3 6817   4.349   0.435   1.268 -0.9687 -0.9435 -3.0326
 1761SOL    MW4 6818   4.388   0.358   1.287 -0.0911  0.9251 -0.0542
 1762SOL     OW 6819   3.374   5.489   1.547 -0.0391 -0.4419  0.1605
 1762SOL    HW2 6820   3.372   5.484   1.451 -0.9748  1.8345  0.0023
 1762SOL    HW3 6821   3.337   5.575   1.567  1.0917 -0.4404  2.5313
 1762SOL    MW4 6822   3.369   5.500   1.537  0.1252  0.0227  0.2075
 1763SOL     OW 6823   1.209   2.808   3.896  0.6551 -0.1653 -0.2059
 1763SOL    HW2 6824   1.182   2.746   3.964  1.3784  1.6414  1.8869
 1763SOL    HW3 6825   1.281   2.765   3.850  0.3240 -1.3516  0.3648
 1763SOL    MW4 6826   1.215   2.794   3.899  1.0145  0.1342 -0.0851
 1764SOL     OW 6827   0.752   5.017   6.370  0.4449 -0.8846  0.7321
 1764SOL    HW2 6828   0.785   4.999   6.282 -2.0433  2.0736 -1.0121
 1764SOL    HW3 6829   0.670   4.969   6.375 -1.8160  2.4778 -0.5957
 1764SOL    MW4 6830   0.746   5.008   6.359 -0.2822  0.1091  0.1809
 1765SOL     OW 6831   6.071   0.057   6.342  0.2609 -0.6853 -0.2422
 1765SOL    HW2 6832   6.032  -0.024   6.311  1.2870 -0.8853 -1.0760
 1765SOL    HW3 6833   6.122   0.089   6.268 -2.5049  2.3736 -1.0863
 1765SOL    MW4 6834   6.073   0.050   6.329  0.2480 -0.6316 -0.5567
 1766SOL     OW 6835   4.239   5.665   1.949 -0.1225  0.0930 -0.2996
 1766SOL    HW2 6836   4.226   5.720   2.026  1.3273  1.1117 -0.7465
 1766SOL    HW3 6837   4.314   5.610   1.971 -0.8232 -0.9060 -0.3192
 1766SOL    MW4 6838   4.247   5.665   1.962  0.4389 -0.3888 -0.2880
 1767SOL     OW 6839   3.315   0.358   0.534 -0.1329 -0.0824 -0.3023
 1767SOL    HW2 6840   3.338   0.304   0.609 -0.2616 -0.0708 -0.2538
 1767SOL    HW3 6841   3.398   0.393   0.502 -0.1831  0.7534  0.4576
 1767SOL    MW4 6842   3.329   0.355   0.539  0.0907  0.2282 -0.2405
 1768SOL     OW 6843   3.734   0.107   1.780  0.5597  0.0596 -0.6607
 1768SOL    HW2 6844   3.678   0.118   1.857  0.5608  0.4742 -0.7193
 1768SOL    HW3 6845   3.692   0.036   1.731  0.2493  0.1669 -0.5568
 1768SOL    MW4 6846   3.721   0.099   1.784  0.3404 -0.0741 -0.4071
 1769SOL     OW 6847   5.265   2.593   1.302 -0.4955  0.5185  0.5773
 1769SOL    HW2 6848   5.325   2.552   1.239 -1.3848  0.2930 -0.1436
 1769SOL    HW3 6849   5.309   2.674   1.327  0.9171 -0.4477  1.4048
 1769SOL    MW4 6850   5.279   2.598   1.297 -0.4075 -0.0244  0.1687
 1770SOL     OW 6851   5.695   3.655   1.341 -0.2887 -0.2757 -0.0185
 1770SOL    HW2 6852   5.696   3.572   1.389  0.1881  0.1207  0.6854
 1770SOL    HW3 6853   5.737   3.717   1.401 -2.7270  1.0437  0.4559
 1770SOL    MW4 6854   5.701   3.652   1.355  0.5599  0.1960 -0.2358
 1771SOL     OW 6855   0.581   2.048   1.878 -0.5482  0.5396  0.1249
 1771SOL    HW2 6856   0.512   2.109   1.853 -0.7700 -0.6569 -2.4530
 1771SOL    HW3 6857   0.543   1.961   1.867  1.1645 -0.1410 -0.9518
 1771SOL    MW4 6858   0.567   2.045   1.873 -0.3292  0.1520  0.2871
 1772SOL     OW 6859   0.187   1.364   1.771 -0.5929 -0.2568  0.6338
 1772SOL    HW2 6860   0.110   1.353   1.716 -1.9688 -0.8833  2.5504
 1772SOL    HW3 6861   0.257   1.318   1.724 -1.2724  0.5574 -1.2790
 1772SOL    MW4 6862   0.186   1.356   1.758  0.1326 -0.5717  0.2715
 1773SOL     OW 6863   5.702   4.713   4.189 -0.4164 -0.1760 -0.2566
 1773SOL    HW2 6864   5.700   4.625   4.226 -0.1785 -0.4079 -0.7868
 1773SOL    HW3 6865   5.754   4.705   4.110 -2.6494 -0.1433 -1.8203
 1773SOL    MW4 6866   5.708   4.700   4.184  0.2262  0.0642 -0.0107
 1774SOL     OW 6867   3.268   0.525   4.382  0.5073  0.3797 -0.1712
 1774SOL    HW2 6868   3.273   0.503   4.289  0.3956 -1.0013  0.1247
 1774SOL    HW3 6869   3.277   0.441   4.427 -0.0329  0.9481  1.0490
 1774SOL    MW4 6870   3.270   0.511   4.375 -0.0019 -0.2883 -0.4376
 1775SOL     OW 6871   2.557   2.646   3.278  0.0767 -0.6549 -0.2280
 1775SOL    HW2 6872   2.604   2.724   3.309 -1.6113  0.7422 -0.9793
 1775SOL    HW3 6873   2.622   2.598   3.227  1.0287  0.5446 -0.1992
 1775SOL    MW4 6874   2.572   2.650   3.275 -0.0671  0.5510  0.3500
 1776SOL     OW 6875   1.956   5.921   5.094  0.3284  0.1580 -0.7326
 1776SOL    HW2 6876   1.956   5.966   5.178 -0.5279 -0.9290 -0.1299
 1776SOL    HW3 6877   2.041   5.878   5.090  0.1219 -0.3096 -0.1349
 1776SOL    MW4 6878   1.967   5.922   5.104  0.3552  0.6023 -0.7043
 1777SOL     OW 6879   2.995   4.102   2.622 -0.1269  0.5844 -0.5316
 1777SOL    HW2 6880   3.030   4.120   2.535 -1.9420  1.5227 -1.1202
 1777SOL    HW3 6881   3.071   4.111   2.681  0.7146  2.0918 -1.7657
 1777SOL    MW4 6882   3.010   4.105   2.619 -0.1006  0.2660  0.0058
 1778SOL     OW 6883   0.223   5.296   5.956 -0.1104 -0.0786 -0.1940
 1778SOL    HW2 6884   0.150   5.317   5.898  0.9908  0.9852 -1.2489
 1778SOL    HW3 6885   0.269   5.224   5.912 -1.2440 -1.6743  1.1329
 1778SOL    MW4 6886   0.219   5.289   5.943  0.1133  0.6726 -0.3217
 1779SOL     OW 6887   1.017   4.720   2.142 -0.0139 -0.4156  0.0639
 1779SOL    HW2 6888   0.934   4.752   2.107  0.5048  0.7295 -0.1785
 1779SOL    HW3 6889   1.058   4.797   2.182  2.9507  0.2488 -3.6697
 1779SOL    MW4 6890   1.012   4.734   2.143  0.9577 -0.3855 -0.3596
 1780SOL     OW 6891   5.593   6.096   0.403 -0.1626 -0.4807  0.5057
 1780SOL    HW2 6892   5.574   6.183   0.438  1.2216 -0.8208  2.2308
 1780SOL    HW3 6893   5.685   6.101   0.377 -0.0369 -1.4692  0.7461
 1780SOL    MW4 6894   5.602   6.108   0.404 -0.3707 -0.9339  0.0816
 1781SOL     OW 6895   4.631   1.536   4.698  0.4945 -0.0793 -0.4722
 1781SOL    HW2 6896   4.623   1.631   4.693  1.6152  0.0371 -0.1909
 1781SOL    HW3 6897   4.549   1.503   4.661 -0.8195  1.0104  1.2977
 1781SOL    MW4 6898   4.619   1.544   4.693 -0.2994  0.0253 -0.1896
 1782SOL     OW 6899   0.758   2.022   4.082  0.4792  0.3460  0.1189
 1782SOL    HW2 6900   0.767   2.073   4.162  1.1275  3.6189 -1.8609
 1782SOL    HW3 6901   0.847   2.015   4.048 -0.0174  0.9537 -1.3822
 1782SOL    MW4 6902   0.771   2.028   4.088 -0.0019  0.3202  0.1862
 1783SOL     OW 6903   6.102   0.647   1.539 -0.2729  0.3512 -0.1571
 1783SOL    HW2 6904   6.114   0.728   1.588 -0.8107  0.4038 -0.1144
 1783SOL    HW3 6905   6.008   0.640   1.525 -0.1067  0.4445 -1.3840
 1783SOL    MW4 6906   6.092   0.657   1.544 -0.4664  0.4336  0.1608
 1784SOL     OW 6907   2.662   2.174   3.302  0.2710 -0.0578  0.6377
 1784SOL    HW2 6908   2.693   2.196   3.214 -1.7165 -0.3673 -0.2160
 1784SOL    HW3 6909   2.728   2.209   3.361  1.8753 -0.2104 -0.9846
 1784SOL    MW4 6910   2.675   2.182   3.298 -0.1273  0.0666 -0.5302
 1785SOL     OW 6911   0.467   2.240   5.240 -0.2012  0.2843 -0.2868
 1785SOL    HW2 6912   0.483   2.225   5.334  0.6802 -0.1968 -0.5040
 1785SOL    HW3 6913   0.554   2.254   5.204 -0.5751  0.8934 -0.9705
 1785SOL    MW4 6914   0.481   2.240   5.248  0.3474  0.3690 -0.7393
 1786SOL     OW 6915   4.349   4.880   2.190  0.3641 -0.3448 -0.0407
 1786SOL    HW2 6916   4.337   4.960   2.241  2.0178 -0.3297  0.3640
 1786SOL    HW3 6917   4.285   4.888   2.119 -0.1115  0.9053  0.4906
 1786SOL    MW4 6918   4.339   4.892   2.188  0.2410 -0.3681 -0.0220
 1787SOL     OW 6919   4.896   2.841   4.606 -0.0837 -0.1971  0.7071
 1787SOL    HW2 6920   4.885   2.820   4.513  1.5670  0.8142  0.2401
 1787SOL    HW3 6921   4.845   2.773   4.652 -1.1649 -0.5548 -0.9121
 1787SOL    MW4 6922   4.887   2.829   4.600 -0.1445 -0.7685 -0.0146
 1788SOL     OW 6923   6.406   3.059   4.151  0.0773  0.0791  0.3049
 1788SOL    HW2 6924   6.353   3.089   4.078 -0.7819  0.2671  0.9860
 1788SOL    HW3 6925   6.439   3.139   4.191  1.6793 -0.0522 -0.6589
 1788SOL    MW4 6926   6.404   3.073   4.147 -0.0394  0.0599 -0.6299
 1789SOL     OW 6927   6.189   5.830   0.972  0.1227 -0.2013 -0.1062
 1789SOL    HW2 6928   6.117   5.804   0.915  0.3997 -0.5147 -0.3215
 1789SOL    HW3 6929   6.266   5.829   0.914  0.1386  1.1686 -0.1428
 1789SOL    MW4 6930   6.190   5.826   0.956  0.2448 -0.7213 -0.2226
 1790SOL     OW 6931   2.065   0.418   3.037 -0.3572  0.2136 -0.0814
 1790SOL    HW2 6932   2.142   0.363   3.049 -0.2194  0.7815  1.9651
 1790SOL    HW3 6933   1.999   0.359   3.001  0.7106 -0.5170 -0.9032
 1790SOL    MW4 6934   2.066   0.403   3.034  0.2025  0.1860  0.4505
 1791SOL     OW 6935   6.389   0.268   2.284 -0.0867  0.3689 -0.1650
 1791SOL    HW2 6936   6.364   0.359   2.299  0.6287  0.8795 -1.8631
 1791SOL    HW3 6937   6.401   0.261   2.189 -2.0193 -2.0041 -0.3238
 1791SOL    MW4 6938   6.388   0.279   2.273 -0.3346  0.3770  0.1504
 1792SOL     OW 6939   1.523   4.885   0.308 -0.6972 -0.0696  0.3898
 1792SOL    HW2 6940   1.431   4.909   0.306 -1.1403 -1.5152  1.7709
 1792SOL    HW3 6941   1.567   4.962   0.344 -1.4187  0.4140  0.2722
 1792SOL    MW4 6942   1.517   4.898   0.312  0.6814 -0.8586 -0.3943
 1793SOL     OW 6943   5.463   2.748   4.402  0.7009  0.3189  0.1960
 1793SOL    HW2 6944   5.377   2.766   4.440  0.5204 -0.3439  0.1057
 1793SOL    HW3 6945   5.465   2.653   4.390  2.3666 -0.0110  2.4616
 1793SOL    MW4 6946   5.452   2.738   4.405 -0.5379 -0.3809  0.1499
 1794SOL     OW 6947   0.726   6.067   4.723 -0.5873  0.0473 -0.3335
 1794SOL    HW2 6948   0.730   6.134   4.656  0.3580 -0.8351 -1.1981
 1794SOL    HW3 6949   0.816   6.059   4.755 -0.9183  0.0639  0.6531
 1794SOL    MW4 6950   0.738   6.075   4.718  0.4510  0.5582  0.3945
 1795SOL     OW 6951   1.002   1.408   4.378 -0.3748  0.1438  0.0592
 1795SOL    HW2 6952   1.089   1.431   4.412 -0.3598 -0.0839  0.1805
 1795SOL    HW3 6953   0.976   1.332   4.431 -0.0291 -0.6854 -0.9318
 1795SOL    MW4 6954   1.010   1.401   4.390  0.1612 -0.2710  0.3931
 1796SOL     OW 6955   3.975   4.181   3.753 -0.1191 -0.0787 -0.3504
 1796SOL    HW2 6956   4.049   4.242   3.753  0.2460 -0.5181 -0.1458
 1796SOL    HW3 6957   3.915   4.217   3.819 -0.0359  0.2156 -0.4346
 1796SOL    MW4 6958   3.977   4.194   3.762  0.1894  0.1677  0.1096
 1797SOL     OW 6959   4.076   5.446   4.137 -0.4880  0.8582  0.0353
 1797SOL    HW2 6960   4.076   5.452   4.041  0.9506  1.5109  0.0509
 1797SOL    HW3 6961   4.102   5.533   4.167 -1.1408  0.7249  1.0421
 1797SOL    MW4 6962   4.080   5.458   4.128 -0.8358 -0.0803  0.0343
 1798SOL     OW 6963   1.413   5.721   0.679 -0.2540  0.5586  0.2999
 1798SOL    HW2 6964   1.466   5.645   0.653 -1.5866 -0.7353  1.2106
 1798SOL    HW3 6965   1.441   5.740   0.768  0.8856  1.9239 -0.3048
 1798SOL    MW4 6966   1.424   5.713   0.687  0.5575  0.3133  0.0531
 1799SOL     OW 6967   3.766   5.921   5.759  0.1682 -0.1200  0.0910
 1799SOL    HW2 6968   3.754   5.834   5.797  1.9602 -0.5067 -0.1367
 1799SOL    HW3 6969   3.858   5.942   5.776  0.4165  0.6711 -1.9709
 1799SOL    MW4 6970   3.776   5.912   5.766 -0.0356  0.7353  0.0817
 1800SOL     OW 6971   1.207   1.122   4.391  0.3740 -0.2768  0.1667
 1800SOL    HW2 6972   1.129   1.071   4.373 -0.5738  0.8907  0.8067
 1800SOL    HW3 6973   1.268   1.099   4.321 -0.7751 -0.7293 -0.7063
 1800SOL    MW4 6974   1.205   1.113   4.379  0.0045  0.0955 -0.6895
 1801SOL     OW 6975   4.600   1.287   4.967 -0.5250 -0.1114  0.6272
 1801SOL    HW2 6976   4.542   1.358   4.996  0.6722  0.1969  2.4114
 1801SOL    HW3 6977   4.569   1.266   4.879 -2.6174  0.7997  1.0696
 1801SOL    MW4 6978   4.588   1.293   4.959 -0.0014  0.1941 -0.4854
 1802SOL     OW 6979   4.358   2.868   4.177 -0.6228 -0.5251 -0.0812
 1802SOL    HW2 6980   4.446   2.833   4.189 -0.9161 -1.7135 -1.1499
 1802SOL    HW3 6981   4.312   2.800   4.127 -2.0695  0.1831  0.2356
 1802SOL    MW4 6982   4.364   2.854   4.172 -0.5881  0.1668  0.5703
 1803SOL     OW 6983   5.172   3.733   3.166  0.2686 -0.0829 -0.2327
 1803SOL    HW2 6984   5.201   3.725   3.257  0.0503 -1.1721 -0.2414
 1803SOL    HW3 6985   5.124   3.815   3.163 -0.2118 -0.3112  0.7799
 1803SOL    MW4 6986   5.170   3.743   3.178  0.2456 -0.0639  0.8587
 1804SOL     OW 6987   1.677   3.351   4.732 -0.3733  0.0339 -0.4320
 1804SOL    HW2 6988   1.598   3.300   4.710  0.2297 -1.1736  0.0863
 1804SOL    HW3 6989   1.745   3.314   4.677 -0.1409  1.0378 -0.8379
 1804SOL    MW4 6990   1.675   3.339   4.722  0.6531 -0.0946  0.1827
 1805SOL     OW 6991   2.022   5.016   3.651 -0.4455 -0.1169  0.5403
 1805SOL    HW2 6992   1.935   4.985   3.672 -0.0589 -0.5452  1.5246
 1805SOL    HW3 6993   2.062   4.945   3.600 -0.8495  0.2995 -0.3733
 1805SOL    MW4 6994   2.016   5.003   3.647  0.1679  0.0772 -0.3560
 1806SOL     OW 6995   4.052   5.452   2.094  0.3225 -0.1794 -0.2277
 1806SOL    HW2 6996   3.957   5.464   2.096  0.3320  0.1430 -1.3653
 1806SOL    HW3 6997   4.086   5.534   2.058  1.4190  1.5862  4.1550
 1806SOL    MW4 6998   4.044   5.465   2.090  0.4978 -0.4997 -0.0547
 1807SOL     OW 6999   4.201   4.406   6.181 -0.1090 -0.2983  0.2787
 1807SOL    HW2 7000   4.115   4.425   6.218  0.2669  1.2322  0.4594
 1807SOL    HW3 7001   4.222   4.318   6.211 -1.2254 -0.3395  0.9774
 1807SOL    MW4 7002   4.193   4.397   6.190  0.4002 -0.1247 -0.4385
 1808SOL     OW 7003   3.424   3.436   2.909  0.1547 -0.1171 -0.1914
 1808SOL    HW2 7004   3.419   3.369   2.840  0.6921 -1.0326  0.6278
 1808SOL    HW3 7005   3.505   3.416   2.956 -0.4107  0.2136  0.9650
 1808SOL    MW4 7006   3.434   3.424   2.906  0.1481  0.4578 -0.0102
 1809SOL     OW 7007   6.055   4.700   4.967  0.0171 -0.8203  0.2825
 1809SOL    HW2 7008   6.092   4.744   5.044  0.6107 -1.0518  0.1351
 1809SOL    HW3 7009   6.120   4.634   4.944  0.0172 -0.4974 -0.6550
 1809SOL    MW4 7010   6.068   4.697   4.974  0.4128 -0.0711 -0.6266
 1810SOL     OW 7011   1.167   3.172   0.960 -0.5093  0.1897 -0.4594
 1810SOL    HW2 7012   1.072   3.167   0.970 -0.2880 -1.0806  1.6647
 1810SOL    HW3 7013   1.200   3.184   1.048  1.3626 -0.8379 -0.9525
 1810SOL    MW4 7014   1.159   3.173   0.973 -0.2396  0.2593 -0.1045
 1811SOL     OW 7015   1.382   0.459   2.274 -0.0344  0.1174  0.4846
 1811SOL    HW2 7016   1.319   0.391   2.248 -1.0158  0.9998  0.4530
 1811SOL    HW3 7017   1.359   0.479   2.365 -0.3069  0.9642  0.2412
 1811SOL    MW4 7018   1.370   0.453   2.282  0.1372 -0.0565  0.0469
 1812SOL     OW 7019   5.844   2.553   1.747 -0.3277  0.2974 -0.5376
 1812SOL    HW2 7020   5.902   2.558   1.670 -1.8213  0.2458 -1.7225
 1812SOL    HW3 7021   5.802   2.639   1.750  2.0647  1.5153  2.2462
 1812SOL    MW4 7022   5.846   2.565   1.737 -0.0607 -0.2863 -0.0838
 1813SOL     OW 7023   0.279   5.895   2.211 -0.0742  0.2468  0.7260
 1813SOL    HW2 7024   0.367   5.909   2.246  0.1134 -1.8051  1.1876
 1813SOL    HW3 7025   0.278   5.803   2.183 -1.3651  0.8280 -1.3865
 1813SOL    MW4 7026   0.291   5.885   2.212  0.1524  0.2854  0.1093
 1814SOL     OW 7027   1.623   3.433   1.915  0.1020  0.5010 -0.1325
 1814SOL    HW2 7028   1.547   3.484   1.886 -0.1270  0.3477  0.1953
 1814SOL    HW3 7029   1.592   3.343   1.916 -0.3222  0.6132  1.8925
 1814SOL    MW4 7030   1.609   3.428   1.911  0.1766  0.4409 -0.0641
 1815SOL     OW 7031   1.200   1.000   5.063  0.3359  0.0597 -0.0592
 1815SOL    HW2 7032   1.263   0.962   5.125  0.5700 -0.3909 -0.5565
 1815SOL    HW3 7033   1.242   1.080   5.033 -0.7528  1.4797  2.0115
 1815SOL    MW4 7034   1.214   1.005   5.067  0.3452  0.1723  0.1212
 1816SOL     OW 7035   2.154   3.785   3.017  0.0345  0.5528  0.0238
 1816SOL    HW2 7036   2.096   3.790   2.942  0.7550  3.6798 -0.4510
 1816SOL    HW3 7037   2.132   3.862   3.070 -0.4406 -1.4884  3.1080
 1816SOL    MW4 7038   2.143   3.796   3.014  0.4514 -0.1681  0.2480
 1817SOL     OW 7039   2.841   0.162   5.222  0.3601  0.3398  0.1390
 1817SOL    HW2 7040   2.781   0.093   5.193  0.1283  1.3382 -1.9364
 1817SOL    HW3 7041   2.909   0.115   5.270  0.5775 -1.4791 -1.7672
 1817SOL    MW4 7042   2.842   0.146   5.225 -0.1819  0.5831 -0.8386
 1818SOL     OW 7043   3.807   3.040   1.570  0.4287  0.0665  0.4937
 1818SOL    HW2 7044   3.854   3.017   1.490  1.7657 -1.6351  1.7040
 1818SOL    HW3 7045   3.716   3.052   1.541  0.9146 -0.2399 -1.3120
 1818SOL    MW4 7046   3.801   3.038   1.555 -0.7269 -0.3798 -0.1875
 1819SOL     OW 7047   6.112   5.714   4.292  0.0447  0.5497  0.1479
 1819SOL    HW2 7048   6.047   5.652   4.326 -0.5348  1.3436  0.5007
 1819SOL    HW3 7049   6.067   5.759   4.221  0.0346  1.4353  0.6980
 1819SOL    MW4 7050   6.097   5.712   4.287 -0.0885 -0.2733  0.3941
 1820SOL     OW 7051   0.009   1.900   0.824 -0.1173 -0.6494 -0.1691
 1820SOL    HW2 7052  -0.004   1.992   0.801 -2.9410  0.1498  3.5749
 1820SOL    HW3 7053   0.084   1.900   0.884  2.4861 -1.5993 -3.1377
 1820SOL    MW4 7054   0.017   1.912   0.829 -0.0037 -0.1310 -0.8209
 1821SOL     OW 7055   1.956   0.822   4.183  0.0667 -0.1397 -0.2127
 1821SOL    HW2 7056   1.949   0.894   4.121  2.7370  1.5792  1.2699
 1821SOL    HW3 7057   1.904   0.850   4.259 -1.3794 -1.2392 -0.7417
 1821SOL    MW4 7058   1.948   0.835   4.185  0.0905 -0.8635 -0.2559
 1822SOL     OW 7059   1.097   4.942   0.780 -0.3104 -0.4207 -0.1923
 1822SOL    HW2 7060   1.005   4.945   0.754 -0.6354 -2.0763  0.6028
 1822SOL    HW3 7061   1.101   4.868   0.841  1.7465 -1.0467 -1.0225
 1822SOL    MW4 7062   1.085   4.933   0.785 -0.0281  0.1331  0.0374
 1823SOL     OW 7063   5.003   4.484   6.011 -0.1936 -0.4366  0.1753
 1823SOL    HW2 7064   5.003   4.464   6.104  0.0198  0.1335  0.3030
 1823SOL    HW3 7065   4.915   4.516   5.992 -0.5970 -1.6481 -0.0722
 1823SOL    MW4 7066   4.991   4.486   6.021 -0.8400  0.1480  0.2333
 1824SOL     OW 7067   1.117   4.372   2.883  0.3278  0.2484 -0.2951
 1824SOL    HW2 7068   1.124   4.279   2.863  2.4759  0.3401 -0.2303
 1824SOL    HW3 7069   1.204   4.396   2.916  0.5469  2.7644 -2.3582
 1824SOL    MW4 7070   1.129   4.363   2.885 -0.4775  0.0602 -0.0255
 1825SOL     OW 7071   2.959   4.612   1.384  0.4333 -0.7729 -0.8977
 1825SOL    HW2 7072   3.031   4.670   1.360  0.0775  1.2520  2.2901
 1825SOL    HW3 7073   2.980   4.582   1.472 -1.4274 -2.1914 -0.8648
 1825SOL    MW4 7074   2.971   4.616   1.392 -0.2889  0.2347  0.6760
 1826SOL     OW 7075   0.395   1.763   0.004 -0.4187 -0.6361  0.1163
 1826SOL    HW2 7076   0.410   1.669   0.009 -1.2623 -1.0860 -3.3247
 1826SOL    HW3 7077   0.300   1.772   0.005 -0.3810  0.4984  2.8057
 1826SOL    MW4 7078   0.384   1.752   0.005  0.3610 -0.1349  0.4745
 1827SOL     OW 7079   5.317   1.628   2.317  0.0089  0.1008 -0.0752
 1827SOL    HW2 7080   5.377   1.615   2.390  1.5395  1.3196 -1.0306
 1827SOL    HW3 7081   5.265   1.705   2.343 -1.4386 -1.1596  0.9000
 1827SOL    MW4 7082   5.318   1.637   2.330 -0.7506 -0.3696 -0.3418
 1828SOL     OW 7083   2.573   0.910   3.638  0.3676 -0.2286 -0.6442
 1828SOL    HW2 7084   2.518   0.854   3.693  0.1842  1.5916  1.1531
 1828SOL    HW3 7085   2.553   0.883   3.548  1.5778 -4.1589  0.0926
 1828SOL    MW4 7086   2.563   0.899   3.633  0.2497 -0.1654 -0.5685
 1829SOL     OW 7087   0.254   3.535   2.360  0.0769  0.1513 -0.1319
 1829SOL    HW2 7088   0.227   3.619   2.324  0.5667  0.5962  0.5116
 1829SOL    HW3 7089   0.262   3.550   2.454  0.8928 -0.4137 -0.0983
 1829SOL    MW4 7090   0.251   3.548   2.368 -0.2451  0.1600 -0.3538
 1830SOL     OW 7091   5.363   1.827   0.787  0.5060 -0.3177  0.2701
 1830SOL    HW2 7092   5.429   1.758   0.777  0.3794 -0.3670 -0.2987
 1830SOL    HW3 7093   5.407   1.906   0.757  0.6517 -0.1457  0.9241
 1830SOL    MW4 7094   5.377   1.828   0.781 -0.9963 -0.3093  0.9821
 1831SOL     OW 7095   6.247   5.167   2.899  0.4209 -0.3643 -0.2598
 1831SOL    HW2 7096   6.189   5.147   2.826 -1.4933 -1.8106  1.5076
 1831SOL    HW3 7097   6.334   5.138   2.871 -0.5190 -2.2251 -1.4451
 1831SOL    MW4 7098   6.251   5.161   2.886 -0.9749 -0.5777 -0.1787
 1832SOL     OW 7099   2.098   5.012   4.662 -0.6896  0.2545  0.3453
 1832SOL    HW2 7100   2.152   5.051   4.593 -1.3329 -0.6831 -0.6952
 1832SOL    HW3 7101   2.028   4.966   4.617 -0.1573 -1.8710  1.5168
 1832SOL    MW4 7102   2.096   5.011   4.647 -0.1774  0.1598 -0.1350
 1833SOL     OW 7103   2.373   2.574   2.203 -0.0221 -0.6264 -1.2600
 1833SOL    HW2 7104   2.303   2.539   2.148 -0.8742  0.2029 -0.7213
 1833SOL    HW3 7105   2.375   2.668   2.183 -2.7996  0.5037  2.6033
 1833SOL    MW4 7106   2.364   2.582   2.193  0.0547  0.0514 -0.7725
 1834SOL     OW 7107   1.343   4.681   1.170  0.8170 -0.3818  0.2431
 1834SOL    HW2 7108   1.286   4.606   1.189  0.6793 -0.9840 -2.1815
 1834SOL    HW3 7109   1.410   4.646   1.112 -0.3819  1.6551 -2.6496
 1834SOL    MW4 7110   1.344   4.666   1.165  0.3822  0.0165  0.4625
 1835SOL     OW 7111   1.941   3.512   0.242 -0.1829  0.0770  0.3832
 1835SOL    HW2 7112   1.903   3.531   0.156  0.7387  0.5835  0.0722
 1835SOL    HW3 7113   2.033   3.538   0.233 -0.1335  0.3490  1.5988
 1835SOL    MW4 7114   1.948   3.518   0.229 -0.4983 -0.5731  0.4404
 1836SOL     OW 7115   6.398   0.695   2.573  0.5688  0.0749 -0.2319
 1836SOL    HW2 7116   6.401   0.610   2.618  0.5065 -1.1270 -2.3741
 1836SOL    HW3 7117   6.486   0.707   2.538  0.3038  0.4043 -0.8001
 1836SOL    MW4 7118   6.410   0.685   2.574  0.0835 -0.0813 -0.3453
 1837SOL     OW 7119   0.693   3.496   6.120 -0.6488  0.3661  0.1822
 1837SOL    HW2 7120   0.607   3.484   6.162 -0.0580  0.3713  1.4451
 1837SOL    HW3 7121   0.729   3.407   6.115  0.1448  0.5612  1.6531
 1837SOL    MW4 7122   0.686   3.483   6.125 -0.6631  0.2142 -0.6379
 1838SOL     OW 7123   4.028   4.413   0.129  0.4504 -0.2616 -0.4026
 1838SOL    HW2 7124   4.035   4.346   0.061  0.7005  1.5452 -2.2645
 1838SOL    HW3 7125   3.939   4.405   0.162  0.5649 -1.6614 -0.3831
 1838SOL    MW4 7126   4.017   4.403   0.124  0.2989  0.3037  0.0959
 1839SOL     OW 7127   3.427   0.230   5.225 -0.7473  0.5043  0.5256
 1839SOL    HW2 7128   3.402   0.206   5.136  0.4743  1.8120 -0.2074
 1839SOL    HW3 7129   3.477   0.310   5.215  0.3728  0.0734  2.2930
 1839SOL    MW4 7130   3.430   0.237   5.212  0.2627  0.0903  0.5082
 1840SOL     OW 7131   1.747   0.134   0.272 -0.5034  0.0493  0.1466
 1840SOL    HW2 7132   1.737   0.046   0.236  1.2507  0.3097 -1.1062
 1840SOL    HW3 7133   1.781   0.120   0.361  0.1217 -0.5431 -0.1767
 1840SOL    MW4 7134   1.751   0.120   0.279  0.0849 -0.5262  0.0314
 1841SOL     OW 7135   0.001   1.055   5.866 -0.4318 -0.2599 -0.1656
 1841SOL    HW2 7136  -0.012   1.123   5.800 -0.4353  0.1924  0.2952
 1841SOL    HW3 7137  -0.087   1.035   5.897 -0.7398 -2.3343 -2.1043
 1841SOL    MW4 7138  -0.012   1.062   5.861  0.3470  0.2008  0.0533
 1842SOL     OW 7139   1.932   5.621   4.857 -0.1983  0.4399  0.1435
 1842SOL    HW2 7140   1.872   5.599   4.928  1.1926  0.2405  1.3024
 1842SOL    HW3 7141   1.916   5.714   4.839  0.2420  0.7980  1.5413
 1842SOL    MW4 7142   1.922   5.630   4.864 -0.2093 -0.4251 -0.0617
 1843SOL     OW 7143   5.105   4.621   2.028 -0.0701  0.3290 -0.8128
 1843SOL    HW2 7144   5.104   4.527   2.044 -0.8081  0.5867  0.9263
 1843SOL    HW3 7145   5.180   4.653   2.079  0.1127  0.6994 -1.3072
 1843SOL    MW4 7146   5.115   4.613   2.037 -0.1574  0.0885  0.3010
 1844SOL     OW 7147   0.021   2.862   2.235  0.4690  0.1334 -0.4735
 1844SOL    HW2 7148  -0.007   2.781   2.278 -3.6997  1.9989  0.8819
 1844SOL    HW3 7149   0.006   2.846   2.142 -2.8701  0.0310 -0.0214
 1844SOL    MW4 7150   0.015   2.849   2.228  0.1754 -0.6943  0.7335
 1845SOL     OW 7151   1.993   2.759   2.701 -0.6387  0.1157  0.7770
 1845SOL    HW2 7152   2.066   2.770   2.763 -1.2121  0.1483  1.4608
 1845SOL    HW3 7153   2.008   2.827   2.635 -1.1357  1.4789  1.9923
 1845SOL    MW4 7154   2.005   2.770   2.701 -0.5092 -0.5643  0.3492
 1846SOL     OW 7155   4.836   3.167   2.940  0.0923  0.5042 -0.1146
 1846SOL    HW2 7156   4.861   3.204   3.025 -1.7172  0.0723  0.6563
 1846SOL    HW3 7157   4.866   3.076   2.943 -0.3953  0.3531  0.2719
 1846SOL    MW4 7158   4.843   3.160   2.952 -0.5242  0.0880 -0.1433
 1847SOL     OW 7159   1.941   4.757   4.003 -0.5575  0.1382 -0.2119
 1847SOL    HW2 7160   1.922   4.702   4.079 -1.1034  0.3121 -0.2159
 1847SOL    HW3 7161   1.987   4.833   4.039  1.9870 -1.1910 -0.4336
 1847SOL    MW4 7162   1.944   4.760   4.017  0.3611 -0.2026  0.2390
 1848SOL     OW 7163   0.814   2.267   6.244  0.5803 -0.2595 -0.2220
 1848SOL    HW2 7164   0.852   2.200   6.302 -0.1099  0.2320  0.8330
 1848SOL    HW3 7165   0.828   2.234   6.156  2.6155 -0.5450  0.1654
 1848SOL    MW4 7166   0.821   2.254   6.240  0.1932  0.6893 -0.4490
 1849SOL     OW 7167   2.828   5.758   4.448  0.6202  0.5971 -0.1583
 1849SOL    HW2 7168   2.896   5.776   4.383  1.7268  3.1049  1.5330
 1849SOL    HW3 7169   2.750   5.801   4.413  0.2637 -0.9257 -1.3427
 1849SOL    MW4 7170   2.826   5.766   4.435  0.3994 -0.0357  0.4671
 1850SOL     OW 7171   5.084   4.579   0.194  0.3362  0.6376 -0.0223
 1850SOL    HW2 7172   5.149   4.521   0.234  0.0311 -0.2264 -0.7490
 1850SOL    HW3 7173   5.001   4.532   0.203  0.1536  0.7469 -1.0128
 1850SOL    MW4 7174   5.082   4.565   0.200  0.9538 -0.1179  0.2398
 1851SOL     OW 7175   1.961   5.465   3.509 -0.0504 -0.2257  0.1487
 1851SOL    HW2 7176   2.026   5.397   3.524  0.3722  0.1307 -0.0522
 1851SOL    HW3 7177   1.932   5.451   3.419 -0.0531 -0.2178  0.1481
 1851SOL    MW4 7178   1.965   5.454   3.499  0.5180 -0.1037 -0.6760
 1852SOL     OW 7179   2.269   3.546   2.843 -0.4048  0.3778 -0.2442
 1852SOL    HW2 7180   2.250   3.607   2.914 -1.5092 -0.1894 -0.0337
 1852SOL    HW3 7181   2.328   3.481   2.881 -1.0656  0.0219  0.1955
 1852SOL    MW4 7182   2.274   3.546   2.857 -0.6195  0.1076 -0.0644
 1853SOL     OW 7183   5.733   4.627   3.166 -0.0172  0.2432 -0.3051
 1853SOL    HW2 7184   5.762   4.576   3.242 -0.5683  2.5234  1.5582
 1853SOL    HW3 7185   5.813   4.667   3.131  0.0084  0.8821  0.4454
 1853SOL    MW4 7186   5.747   4.626   3.171  0.1460 -0.1235 -0.1120
 1854SOL     OW 7187   5.275   5.717   3.163 -0.6399  0.1724  0.4959
 1854SOL    HW2 7188   5.251   5.739   3.253 -1.3228 -2.5352  1.0818
 1854SOL    HW3 7189   5.191   5.699   3.119 -0.2566  0.5765 -0.4369
 1854SOL    MW4 7190   5.261   5.717   3.169  0.1107 -0.0240  0.0032
 1855SOL     OW 7191   3.394   1.667   2.381 -0.6218 -0.4486 -0.1995
 1855SOL    HW2 7192   3.464   1.732   2.382 -2.0974  1.2156 -0.7790
 1855SOL    HW3 7193   3.357   1.672   2.292 -2.6064  0.0427  0.5867
 1855SOL    MW4 7194   3.398   1.676   2.369  0.4838 -0.2699  0.2806
 1856SOL     OW 7195   4.022   1.007   4.800 -0.3810 -0.0631  0.2420
 1856SOL    HW2 7196   3.970   1.074   4.845  1.6302  1.1675  0.9133
 1856SOL    HW3 7197   3.979   0.925   4.820 -1.9334  0.8734  0.9076
 1856SOL    MW4 7198   4.010   1.005   4.809 -0.3062 -0.5253  0.1012
 1857SOL     OW 7199   1.137   1.095   2.407  0.0794 -0.5751  0.0130
 1857SOL    HW2 7200   1.150   1.029   2.339 -0.1795 -1.2043  0.5663
 1857SOL    HW3 7201   1.051   1.074   2.444  1.0137 -1.4160  1.8124
 1857SOL    MW4 7202   1.127   1.084   2.403  0.0830  0.2226 -0.8214
 1858SOL     OW 7203   2.377   6.304   3.387 -0.4116  0.2058  0.0282
 1858SOL    HW2 7204   2.345   6.237   3.447  0.6407 -1.6032 -1.3216
 1858SOL    HW3 7205   2.401   6.255   3.308 -1.4062  2.4197 -1.7587
 1858SOL    MW4 7206   2.376   6.288   3.384  0.0661 -0.0962  0.6842
 1859SOL     OW 7207   6.395   2.815   1.951 -0.2498  0.4316  0.0842
 1859SOL    HW2 7208   6.333   2.743   1.941  0.0839  0.2745 -1.0015
 1859SOL    HW3 7209   6.385   2.867   1.871 -0.1663  1.3469  0.6465
 1859SOL    MW4 7210   6.385   2.812   1.939  1.2259 -0.3784  0.2094
 1860SOL     OW 7211   0.412   0.180   0.854  0.3202 -0.8037 -0.1679
 1860SOL    HW2 7212   0.441   0.231   0.930  0.4653 -1.0861 -0.0273
 1860SOL    HW3 7213   0.332   0.223   0.825  0.7456 -0.1575 -0.4070
 1860SOL    MW4 7214   0.405   0.192   0.860 -0.1805  0.1974 -0.2551
 1861SOL     OW 7215   0.383   6.305   1.548  0.0705 -0.0669 -0.2367
 1861SOL    HW2 7216   0.424   6.382   1.507  0.0413 -0.3181 -0.7529
 1861SOL    HW3 7217   0.455   6.245   1.565  0.5267  1.1528  2.7549
 1861SOL    MW4 7218   0.398   6.307   1.545  1.2536  0.2867 -0.0306
 1862SOL     OW 7219   5.574   2.261   5.787 -0.6036  0.0035 -0.0649
 1862SOL    HW2 7220   5.501   2.230   5.734 -0.4803 -0.5519  0.0825
 1862SOL    HW3 7221   5.560   2.355   5.793 -2.0530 -0.2445  1.0753
 1862SOL    MW4 7222   5.562   2.269   5.781  0.3162 -0.0358 -0.3513
 1863SOL     OW 7223   0.914   6.276   6.003 -0.2511 -0.1860  0.7829
 1863SOL    HW2 7224   0.908   6.346   6.068 -0.7557  1.2375 -0.7281
 1863SOL    HW3 7225   0.837   6.288   5.948  0.4820 -0.9364 -0.4573
 1863SOL    MW4 7226   0.903   6.287   6.004  0.6271  0.0766 -0.1152
 1864SOL     OW 7227   5.860   5.503   1.067 -0.2478 -0.6997 -0.1873
 1864SOL    HW2 7228   5.881   5.558   0.992  0.6843  0.6498  1.0108
 1864SOL    HW3 7229   5.901   5.418   1.048  0.0581 -0.3451 -1.1425
 1864SOL    MW4 7230   5.868   5.499   1.055 -0.3574  0.3751  0.1070
 1865SOL     OW 7231   4.360   2.013   3.031  0.6347 -0.3399 -0.0996
 1865SOL    HW2 7232   4.380   1.921   3.012 -2.6674 -1.5102  1.4365
 1865SOL    HW3 7233   4.313   2.044   2.954  0.9229 -0.2179 -0.2278
 1865SOL    MW4 7234   4.357   2.005   3.018 -0.8219  0.4278  0.3491
 1866SOL     OW 7235   0.677   2.872   6.306  0.0631  0.2102  0.0380
 1866SOL    HW2 7236   0.609   2.843   6.245 -0.0503  0.5902 -0.0218
 1866SOL    HW3 7237   0.682   2.967   6.292  0.6861  0.1679 -0.0405
 1866SOL    MW4 7238   0.669   2.881   6.296 -0.5083 -0.1197 -0.1033
 1867SOL     OW 7239   0.191   0.529   2.727  0.0629  0.0069 -0.3947
 1867SOL    HW2 7240   0.250   0.456   2.710 -0.2168 -0.3171 -0.0128
 1867SOL    HW3 7241   0.104   0.495   2.704  0.2486  1.2841 -3.4267
 1867SOL    MW4 7242   0.187   0.515   2.721 -0.1073  0.1515  0.0179
 1868SOL     OW 7243   6.421   2.956   1.089 -0.1808 -0.0435  0.5309
 1868SOL    HW2 7244   6.468   3.012   1.150 -0.3022 -0.5799  1.1277
 1868SOL    HW3 7245   6.482   2.943   1.017 -0.1798  0.9088  0.3462
 1868SOL    MW4 7246   6.435   2.962   1.088 -0.2352  0.6502  0.4076
 1869SOL     OW 7247   5.828   4.254   5.328  0.3963  0.1166 -0.0667
 1869SOL    HW2 7248   5.919   4.282   5.330  0.2529  0.5727  1.4949
 1869SOL    HW3 7249   5.788   4.298   5.403 -0.5317 -1.9626  0.7362
 1869SOL    MW4 7250   5.835   4.263   5.338  0.0074  0.8454 -0.4377
 1870SOL     OW 7251   1.198   3.288   4.115  0.2755 -0.5870 -0.5868
 1870SOL    HW2 7252   1.166   3.350   4.050  1.5728  0.4137 -0.3224
 1870SOL    HW3 7253   1.233   3.215   4.064  1.1290  0.1126 -1.0348
 1870SOL    MW4 7254   1.199   3.287   4.100  0.1371  0.4137  0.5261
 1871SOL     OW 7255   1.163   1.932   0.888  0.2405  0.0120  0.3666
 1871SOL    HW2 7256   1.251   1.937   0.852 -0.0420 -1.1343 -0.5328
 1871SOL    HW3 7257   1.107   1.919   0.812 -0.5978 -0.3456  1.0328
 1871SOL    MW4 7258   1.167   1.931   0.873  1.0579  0.2271  0.1896
 1872SOL     OW 7259   5.512   3.053   6.414 -0.2289  0.7542  0.1403
 1872SOL    HW2 7260   5.522   3.049   6.319 -0.6575  1.2510  0.0692
 1872SOL    HW3 7261   5.445   2.987   6.434  0.4152  0.1079  0.1882
 1872SOL    MW4 7262   5.504   3.044   6.404 -0.0882  0.4457  0.1972
 1873SOL     OW 7263   0.037   1.472   3.609  0.9010 -0.2967  0.1988
 1873SOL    HW2 7264   0.016   1.400   3.668  2.8559 -0.7545  0.4041
 1873SOL    HW3 7265  -0.043   1.525   3.607 -0.3996 -2.1678  0.4349
 1873SOL    MW4 7266   0.024   1.470   3.617 -0.1166 -0.3723  0.5401
 1874SOL     OW 7267   4.841   1.953   4.253 -0.1791  0.2700  0.0073
 1874SOL    HW2 7268   4.863   2.038   4.292  0.7456 -0.0628  0.2269
 1874SOL    HW3 7269   4.771   1.918   4.309  1.5489 -0.4909  1.8061
 1874SOL    MW4 7270   4.835   1.960   4.265  0.1784 -0.6271 -0.2342
 1875SOL     OW 7271   5.264   4.468   3.196 -0.3258 -0.5515  0.0673
 1875SOL    HW2 7272   5.339   4.484   3.252 -0.4180  1.6399 -0.3536
 1875SOL    HW3 7273   5.273   4.531   3.124 -3.2905  0.9225  0.7896
 1875SOL    MW4 7274   5.275   4.479   3.194  0.2433  0.7023 -0.0397
 1876SOL     OW 7275   1.226   4.374   2.344  0.3582 -0.6647  0.7458
 1876SOL    HW2 7276   1.236   4.296   2.399 -1.3523 -0.2123  1.7655
 1876SOL    HW3 7277   1.276   4.442   2.391 -0.1488 -0.5639  1.1483
 1876SOL    MW4 7278   1.234   4.373   2.358  0.5916 -0.3070  0.3033
 1877SOL     OW 7279   5.358   6.114   1.766 -0.1175  0.3775 -0.0586
 1877SOL    HW2 7280   5.306   6.102   1.686 -0.0885  0.7340 -0.1325
 1877SOL    HW3 7281   5.403   6.197   1.753  0.1748  0.2589  0.1730
 1877SOL    MW4 7282   5.357   6.123   1.754  0.0860  0.2453 -0.3831
 1878SOL     OW 7283   4.527   6.173   4.481 -0.3287 -0.2591  0.9285
 1878SOL    HW2 7284   4.527   6.269   4.481  1.2895 -0.2377  1.5286
 1878SOL    HW3 7285   4.472   6.150   4.406  1.2633  1.1715 -0.7812
 1878SOL    MW4 7286   4.520   6.183   4.471  0.1689  0.5840 -0.2242
 1879SOL     OW 7287   2.063   5.131   2.598  0.2866  0.0197  0.3809
 1879SOL    HW2 7288   2.117   5.079   2.658  1.9162 -0.0920 -1.0868
 1879SOL    HW3 7289   2.110   5.214   2.591 -2.4462  1.9939  2.9615
 1879SOL    MW4 7290   2.077   5.135   2.605  0.2155  0.1110 -0.0257
 1880SOL     OW 7291   1.477   5.536   2.338  0.0317 -0.1308  0.4674
 1880SOL    HW2 7292   1.412   5.530   2.407  0.4509 -0.7377  0.8279
 1880SOL    HW3 7293   1.465   5.456   2.286 -0.3747  0.3851 -0.2581
 1880SOL    MW4 7294   1.467   5.525   2.340  0.3162 -0.3312  0.4957
 1881SOL     OW 7295   1.527   4.179   6.158  0.3396  0.1849 -0.2509
 1881SOL    HW2 7296   1.434   4.186   6.134  0.1943  0.0655  0.2708
 1881SOL    HW3 7297   1.564   4.263   6.131  0.0617  0.2681 -0.3844
 1881SOL    MW4 7298   1.519   4.191   6.151 -0.6969 -0.0642 -0.1550
 1882SOL     OW 7299   5.899   5.876   4.710  0.4531  0.2369  0.4231
 1882SOL    HW2 7300   5.820   5.930   4.722  0.5409  0.2163  1.1075
 1882SOL    HW3 7301   5.880   5.824   4.631 -0.4554 -0.1697  0.8872
 1882SOL    MW4 7302   5.886   5.876   4.701 -1.0505 -0.4057  0.7914
 1883SOL     OW 7303   5.508   1.409   0.972 -0.2079 -0.3117  0.2038
 1883SOL    HW2 7304   5.597   1.389   0.940 -0.4693 -0.9564 -0.1528
 1883SOL    HW3 7305   5.488   1.495   0.935  0.6943  0.3576  1.2096
 1883SOL    MW4 7306   5.517   1.417   0.963 -0.3519  0.1859  0.0135
 1884SOL     OW 7307   0.285   3.332   0.210 -0.2742  0.3479 -0.1926
 1884SOL    HW2 7308   0.365   3.300   0.253 -0.9256 -1.8780 -0.5487
 1884SOL    HW3 7309   0.274   3.275   0.135 -2.3519  0.4476 -0.0059
 1884SOL    MW4 7310   0.294   3.320   0.206  0.3381  0.2760  0.0293
 1885SOL     OW 7311   3.854   0.175   0.973 -0.7053 -0.1048 -0.1827
 1885SOL    HW2 7312   3.894   0.152   0.889 -0.1741  0.9681 -0.2366
 1885SOL    HW3 7313   3.928   0.201   1.028 -0.9516 -1.5147  0.8872
 1885SOL    MW4 7314   3.869   0.175   0.970 -0.0395 -0.1289  0.5858
 1886SOL     OW 7315   4.776   4.077   3.048 -0.8125 -0.0101 -0.1576
 1886SOL    HW2 7316   4.823   4.064   2.966  0.5503  0.5357  0.5029
 1886SOL    HW3 7317   4.775   4.172   3.060 -0.6860 -0.0996  0.6152
 1886SOL    MW4 7318   4.782   4.088   3.039  0.0752  0.5687  0.2987
 1887SOL     OW 7319   5.846   3.270   2.240 -0.3108  0.1241  0.2369
 1887SOL    HW2 7320   5.882   3.355   2.216 -0.3249 -0.2009 -0.9815
 1887SOL    HW3 7321   5.862   3.263   2.334  3.1397 -0.1734 -0.2699
 1887SOL    MW4 7322   5.853   3.280   2.249  0.5249 -0.7365 -0.2829
 1888SOL     OW 7323   6.310   2.604   0.441  0.5848 -0.0048 -0.0125
 1888SOL    HW2 7324   6.250   2.565   0.504  0.9802 -0.0687  0.3341
 1888SOL    HW3 7325   6.263   2.679   0.406  0.4687  0.2064  0.5848
 1888SOL    MW4 7326   6.296   2.609   0.445  0.3741  0.3163  0.5444
 1889SOL     OW 7327   0.906   0.331   2.989  0.1233  0.5807  0.0631
 1889SOL    HW2 7328   0.849   0.379   2.929  0.6071  0.3592 -0.5844
 1889SOL    HW3 7329   0.993   0.337   2.949  0.6046  1.0959  1.1431
 1889SOL    MW4 7330   0.910   0.338   2.976  0.2419 -0.7632 -0.3787
 1890SOL     OW 7331   6.106   6.216   0.190  0.2034  0.2574 -0.4707
 1890SOL    HW2 7332   6.135   6.304   0.213  0.5619 -0.0291  0.2014
 1890SOL    HW3 7333   6.027   6.202   0.243 -1.9569  1.4691 -3.1215
 1890SOL    MW4 7334   6.100   6.226   0.200  0.3508  0.7461 -0.2915
 1891SOL     OW 7335   4.037   6.396   5.038  0.4636  0.6108  0.2848
 1891SOL    HW2 7336   4.025   6.302   5.049 -1.8639  0.8727  0.4872
 1891SOL    HW3 7337   4.044   6.409   4.943 -0.0609  0.2787  0.1933
 1891SOL    MW4 7338   4.036   6.386   5.027  0.0957  0.9862  0.0734
 1892SOL     OW 7339   5.811   2.297   5.029 -0.6565  0.6189  0.1773
 1892SOL    HW2 7340   5.817   2.389   5.004  0.1508 -0.1487 -2.7498
 1892SOL    HW3 7341   5.886   2.255   4.987 -2.3687 -1.7901 -0.7049
 1892SOL    MW4 7342   5.822   2.304   5.020  1.0392 -0.1958  0.4523
 1893SOL     OW 7343   2.491   3.111   5.001 -0.0834  0.3713 -0.1999
 1893SOL    HW2 7344   2.538   3.109   5.084 -0.1585  1.3675 -0.1165
 1893SOL    HW3 7345   2.496   3.203   4.973  0.1335  0.0093 -1.4093
 1893SOL    MW4 7346   2.498   3.123   5.008  0.0745 -0.4657 -0.0070
 1894SOL     OW 7347   4.291   1.747   2.184 -0.1352  0.1772 -0.0089
 1894SOL    HW2 7348   4.240   1.779   2.109  0.3131 -0.2349 -0.4986
 1894SOL    HW3 7349   4.244   1.780   2.261 -1.4342 -0.6409 -0.4269
 1894SOL    MW4 7350   4.278   1.756   2.184 -0.2938 -0.1813  0.2576
 1895SOL     OW 7351   4.799   1.114   0.496  0.1106  0.5660 -0.6091
 1895SOL    HW2 7352   4.837   1.150   0.416 -1.0493  1.9265 -0.5986
 1895SOL    HW3 7353   4.704   1.123   0.484 -0.0849  1.0458  0.9896
 1895SOL    MW4 7354   4.791   1.120   0.484 -0.0737 -0.0502 -0.0639
 1896SOL     OW 7355   1.862   6.109   2.790 -0.0802 -0.0776  0.8402
 1896SOL    HW2 7356   1.910   6.027   2.777  1.2475  0.8630 -0.4748
 1896SOL    HW3 7357   1.822   6.099   2.877  0.4888 -1.8900  0.9421
 1896SOL    MW4 7358   1.863   6.097   2.800  0.7102  0.1732 -0.0144
 1897SOL     OW 7359   6.053   2.163   0.628  0.1929 -0.2797  0.1410
 1897SOL    HW2 7360   6.012   2.125   0.706  1.6390 -2.1125  0.0720
 1897SOL    HW3 7361   6.123   2.218   0.663  0.1939 -0.2977  0.1679
 1897SOL    MW4 7362   6.057   2.165   0.643  0.5429  0.3157 -0.2416
 1898SOL     OW 7363   0.768   2.886   0.513 -0.3750  0.2761 -0.5362
 1898SOL    HW2 7364   0.713   2.807   0.508  1.3371 -1.0469  0.3827
 1898SOL    HW3 7365   0.816   2.876   0.595  1.7545  0.9816 -1.6201
 1898SOL    MW4 7366   0.767   2.874   0.523  0.6213  0.0035 -0.3320
 1899SOL     OW 7367   4.725   5.413   4.741 -0.7543  0.0403 -0.3102
 1899SOL    HW2 7368   4.789   5.479   4.713 -1.4541  0.4330 -1.0073
 1899SOL    HW3 7369   4.739   5.405   4.836 -1.5817  2.2323  0.0670
 1899SOL    MW4 7370   4.735   5.421   4.750  0.1969 -0.2684 -0.1545
 1900SOL     OW 7371   4.585   4.867   1.786 -0.1342  0.2692  0.2630
 1900SOL    HW2 7372   4.631   4.917   1.854  0.0743  0.3161  0.0855
 1900SOL    HW3 7373   4.542   4.934   1.732  0.5629  0.2823 -0.2781
 1900SOL    MW4 7374   4.585   4.883   1.788 -0.3215  0.3231 -0.1350
 1901SOL     OW 7375   4.958   2.563   2.186 -0.4030  0.5535  0.0371
 1901SOL    HW2 7376   5.006   2.635   2.144  2.0200 -1.9088 -1.8456
 1901SOL    HW3 7377   4.941   2.594   2.274  1.1398  3.1762 -0.4561
 1901SOL    MW4 7378   4.962   2.576   2.192  0.1142  0.0595 -0.9847
 1902SOL     OW 7379   5.897   2.626   0.404 -0.4238  0.2303  0.4609
 1902SOL    HW2 7380   5.926   2.547   0.449  2.2663 -0.1219 -1.6270
 1902SOL    HW3 7381   5.965   2.643   0.338 -3.2028  1.6122 -2.3373
 1902SOL    MW4 7382   5.910   2.618   0.401  0.8729  0.0665  0.4022
 1903SOL     OW 7383   2.462   1.162   0.903 -0.1674 -0.3447  0.3824
 1903SOL    HW2 7384   2.383   1.128   0.946 -1.7698  1.8324 -0.6569
 1903SOL    HW3 7385   2.466   1.254   0.931  0.4153  0.3174 -1.7211
 1903SOL    MW4 7386   2.452   1.170   0.913  0.2274  0.1974 -0.3719
 1904SOL     OW 7387   1.264   4.506   1.599 -0.1287 -0.4259 -0.2038
 1904SOL    HW2 7388   1.239   4.594   1.628 -3.7802 -1.1865 -0.5715
 1904SOL    HW3 7389   1.360   4.506   1.601 -0.0272  2.9724  1.4592
 1904SOL    MW4 7390   1.273   4.517   1.603  0.4253  0.0370 -0.5370
 1905SOL     OW 7391   5.415   3.027   6.054  0.0985  0.0310  0.5391
 1905SOL    HW2 7392   5.403   3.093   5.985  1.4899 -0.0271  0.2026
 1905SOL    HW3 7393   5.359   3.057   6.126  1.7490  2.4254  0.9509
 1905SOL    MW4 7394   5.406   3.040   6.054  0.1315 -0.0994  0.1186
 1906SOL     OW 7395   4.142   6.301   0.732  0.1832  0.0083  0.0877
 1906SOL    HW2 7396   4.106   6.251   0.659  0.3793 -0.5112  0.3451
 1906SOL    HW3 7397   4.076   6.368   0.750 -0.8729 -1.1911  0.8242
 1906SOL    MW4 7398   4.129   6.303   0.725 -0.8503 -0.2050 -0.1165
 1907SOL     OW 7399   2.660   5.918   3.842 -0.1733  0.0404  0.2686
 1907SOL    HW2 7400   2.636   5.874   3.760 -0.4940 -0.9585  0.8710
 1907SOL    HW3 7401   2.644   6.011   3.826  0.0917 -0.1027 -0.9068
 1907SOL    MW4 7402   2.654   5.924   3.829 -0.1660  0.3742  0.2021
 1908SOL     OW 7403   4.725   1.556   6.417 -0.6300 -0.3676 -0.3911
 1908SOL    HW2 7404   4.700   1.586   6.330  0.2654 -0.2543 -0.6178
 1908SOL    HW3 7405   4.734   1.636   6.468 -0.5892 -0.4003 -0.3472
 1908SOL    MW4 7406   4.723   1.571   6.412 -0.0825  0.2876  0.1874
 1909SOL     OW 7407   6.307   5.137   3.270 -0.0130  0.1482 -0.0959
 1909SOL    HW2 7408   6.229   5.163   3.221  0.0405 -1.2092 -0.9669
 1909SOL    HW3 7409   6.353   5.219   3.287 -2.2288  1.1846  1.6015
 1909SOL    MW4 7410   6.302   5.151   3.266  0.7254  0.5567 -0.6844
 1910SOL     OW 7411   2.993   3.072   0.316  0.5429 -0.5484 -0.0345
 1910SOL    HW2 7412   3.076   3.117   0.334 -0.1657  0.9826 -0.4014
 1910SOL    HW3 7413   2.973   3.025   0.396  0.6678  0.8734  0.8558
 1910SOL    MW4 7414   3.002   3.072   0.329  0.5228  0.6647  0.3566
 1911SOL     OW 7415   1.495   1.244   4.733  0.4633 -0.0524 -0.4272
 1911SOL    HW2 7416   1.400   1.256   4.735  0.2947 -0.6295  3.1570
 1911SOL    HW3 7417   1.531   1.332   4.747  0.3416 -0.0726  0.0408
 1911SOL    MW4 7418   1.488   1.257   4.735  0.5641 -0.5451 -0.0998
 1912SOL     OW 7419   3.359   1.290   4.748  0.5092 -0.1912  0.0778
 1912SOL    HW2 7420   3.341   1.366   4.803 -1.1751 -1.2447  1.0764
 1912SOL    HW3 7421   3.279   1.278   4.696  0.4356 -1.7202  0.5125
 1912SOL    MW4 7422   3.346   1.298   4.748 -0.5474  0.0615 -0.3555
 1913SOL     OW 7423   5.577   0.095   1.587 -0.1754 -0.0702  0.5629
 1913SOL    HW2 7424   5.537   0.059   1.508 -0.3453  1.3961 -0.0636
 1913SOL    HW3 7425   5.542   0.042   1.659 -0.2445 -1.2423 -0.3164
 1913SOL    MW4 7426   5.567   0.083   1.586 -0.8610 -0.0850 -0.3145
 1914SOL     OW 7427   0.012   0.182   2.780  0.1484 -0.5255 -0.2166
 1914SOL    HW2 7428  -0.035   0.265   2.784 -1.0765 -1.1597 -1.1103
 1914SOL    HW3 7429   0.031   0.169   2.687  2.4335 -0.1227  0.1302
 1914SOL    MW4 7430   0.009   0.191   2.769 -0.4107  0.2450 -0.1063
 1915SOL     OW 7431   5.988   2.469   2.725  0.2491 -0.2444  0.5480
 1915SOL    HW2 7432   6.082   2.454   2.735  0.1697  0.1153  2.0602
 1915SOL    HW3 7433   5.952   2.381   2.711  1.0308 -0.1911 -2.9200
 1915SOL    MW4 7434   5.996   2.455   2.724 -0.4622  0.1032 -0.3371
 1916SOL     OW 7435   3.835   5.468   5.187 -0.0660 -0.1195 -0.0734
 1916SOL    HW2 7436   3.740   5.463   5.181 -0.0692  0.9899 -1.7371
 1916SOL    HW3 7437   3.852   5.556   5.221  0.3620  0.1381 -0.9197
 1916SOL    MW4 7438   3.825   5.479   5.191  0.3823  0.8351  0.1914
 1917SOL     OW 7439   3.061   1.890   4.588 -0.1680  0.5247  0.2401
 1917SOL    HW2 7440   3.100   1.843   4.515 -0.9723  0.5872 -0.2498
 1917SOL    HW3 7441   2.968   1.899   4.564 -0.8781 -1.1069  2.0921
 1917SOL    MW4 7442   3.054   1.885   4.575 -0.3103  0.3740 -0.1120
 1918SOL     OW 7443   3.958   4.048   1.013  0.1680  0.1897 -0.1894
 1918SOL    HW2 7444   3.895   4.115   1.039  0.1680  0.1768 -0.1559
 1918SOL    HW3 7445   4.039   4.071   1.059 -0.3323 -0.8779  1.3148
 1918SOL    MW4 7446   3.961   4.060   1.023  0.2864 -0.1664  0.1550
 1919SOL     OW 7447   1.274   3.643   4.634  0.4785 -0.3775 -0.2549
 1919SOL    HW2 7448   1.195   3.696   4.642 -0.2200 -1.2973 -0.8779
 1919SOL    HW3 7449   1.346   3.704   4.654 -0.3749  0.4623  0.3313
 1919SOL    MW4 7450   1.273   3.658   4.638  0.2982  0.0205  0.2542
 1920SOL     OW 7451   2.696   3.637   5.379  0.3998  0.0060 -0.0462
 1920SOL    HW2 7452   2.758   3.704   5.408 -1.3575  1.2987  0.8827
 1920SOL    HW3 7453   2.675   3.588   5.458 -0.5886  0.2929 -0.1222
 1920SOL    MW4 7454   2.702   3.639   5.393  0.1343 -0.6527 -0.3989
 1921SOL     OW 7455   5.169   4.129   5.785  0.9685 -0.1961 -0.1106
 1921SOL    HW2 7456   5.224   4.052   5.792  1.0090 -0.1478  0.1078
 1921SOL    HW3 7457   5.230   4.203   5.778  0.9306 -0.1801 -0.2886
 1921SOL    MW4 7458   5.184   4.129   5.785 -0.2474  0.3273 -0.4016
 1922SOL     OW 7459   4.402   5.894   5.276 -0.4336  0.3123  0.1257
 1922SOL    HW2 7460   4.352   5.976   5.283  0.2806  0.7453  0.2699
 1922SOL    HW3 7461   4.337   5.828   5.253 -0.6984  1.3256 -2.3444
 1922SOL    MW4 7462   4.387   5.896   5.274  0.2701 -0.1166 -0.6448
 1923SOL     OW 7463   3.284   3.902   6.367  0.4366  0.4757 -0.0253
 1923SOL    HW2 7464   3.283   3.989   6.407  0.0686  1.1787 -1.4817
 1923SOL    HW3 7465   3.323   3.916   6.281  0.1743 -0.7594 -0.3597
 1923SOL    MW4 7466   3.289   3.916   6.361  0.2856  0.4111 -0.7348
 1924SOL     OW 7467   4.434   4.844   1.155  0.1346 -0.2001  0.1062
 1924SOL    HW2 7468   4.452   4.782   1.226 -0.5642 -1.1660 -0.5266
 1924SOL    HW3 7469   4.490   4.815   1.083  0.6160  0.5864  0.1601
 1924SOL    MW4 7470   4.443   4.832   1.155  0.7332  0.7874  0.4985
 1925SOL     OW 7471   6.385   6.254   2.687 -0.0850 -0.1932  0.4262
 1925SOL    HW2 7472   6.471   6.282   2.719 -0.2788 -1.4352  2.2266
 1925SOL    HW3 7473   6.330   6.252   2.766 -1.4575 -0.5173 -0.5019
 1925SOL    MW4 7474   6.389   6.257   2.702 -0.1050 -0.5031  0.0336
 1926SOL     OW 7475   5.658   3.069   1.229  0.2891  0.2021  0.4611
 1926SOL    HW2 7476   5.566   3.094   1.213 -0.0202 -0.8772  0.4877
 1926SOL    HW3 7477   5.700   3.150   1.258 -0.0732  1.3384 -1.8960
 1926SOL    MW4 7478   5.651   3.083   1.230 -0.2689  0.2613 -0.2905
 1927SOL     OW 7479   1.844   0.745   3.200  0.3882  0.2647 -0.1416
 1927SOL    HW2 7480   1.825   0.819   3.259 -0.8551 -1.0007  1.1479
 1927SOL    HW3 7481   1.933   0.718   3.223  0.2878  0.4278  0.4542
 1927SOL    MW4 7482   1.853   0.751   3.211 -0.3932 -0.6776  0.4265
 1928SOL     OW 7483   1.443   0.610   1.200  0.4114  0.4266  0.3275
 1928SOL    HW2 7484   1.446   0.592   1.106  1.9906  0.5253  0.3304
 1928SOL    HW3 7485   1.353   0.638   1.216  0.2617  0.9625 -1.2517
 1928SOL    MW4 7486   1.432   0.611   1.190 -0.0136 -0.0770  0.1269
 1929SOL     OW 7487   6.386   0.571   6.396 -0.3715  0.0511  0.5222
 1929SOL    HW2 7488   6.307   0.618   6.421 -1.2261  0.1351 -2.0129
 1929SOL    HW3 7489   6.354   0.490   6.358  0.6932  0.3101 -1.0176
 1929SOL    MW4 7490   6.372   0.567   6.394 -0.1387 -0.2109 -0.1114
 1930SOL     OW 7491   3.465   2.150   3.210  0.1300 -0.1789  0.5615
 1930SOL    HW2 7492   3.449   2.230   3.159  1.0546 -0.1391  0.3260
 1930SOL    HW3 7493   3.477   2.082   3.143  0.6999 -0.2517  0.7372
 1930SOL    MW4 7494   3.464   2.151   3.194  0.1570 -0.2910 -0.6781
 1931SOL     OW 7495   3.557   4.477   1.847  0.2639 -0.0654  0.5190
 1931SOL    HW2 7496   3.568   4.403   1.787  0.6200 -1.3400  2.1165
 1931SOL    HW3 7497   3.469   4.511   1.826 -0.6084 -1.9795  0.8671
 1931SOL    MW4 7498   3.547   4.472   1.836 -0.8059  0.3690  0.1938
 1932SOL     OW 7499   2.923   4.510   1.999  0.0687  0.7187 -0.3854
 1932SOL    HW2 7500   2.985   4.437   1.997  0.0986  0.7561 -1.8202
 1932SOL    HW3 7501   2.860   4.485   2.067  1.2663  0.3863  0.6528
 1932SOL    MW4 7502   2.923   4.497   2.008  0.3611  0.0108  0.1884
 1933SOL     OW 7503   0.178   5.578   2.460 -0.0718 -0.1816  0.3159
 1933SOL    HW2 7504   0.083   5.576   2.450 -0.0913  0.5988  0.3532
 1933SOL    HW3 7505   0.206   5.492   2.428 -0.7696 -0.3698  0.1789
 1933SOL    MW4 7506   0.169   5.566   2.455 -0.1286  0.2829  0.2104
 1934SOL     OW 7507   5.852   5.225   4.413  0.1356  0.0546  0.4543
 1934SOL    HW2 7508   5.867   5.194   4.502  1.6961 -0.7403 -0.0589
 1934SOL    HW3 7509   5.757   5.237   4.408  0.0726  0.7377  2.4029
 1934SOL    MW4 7510   5.841   5.223   4.424  0.0490 -0.4557 -0.0830
 1935SOL     OW 7511   4.633   4.473   2.816  0.0807 -0.2875  0.1235
 1935SOL    HW2 7512   4.541   4.499   2.823 -0.1006 -0.1571 -2.0264
 1935SOL    HW3 7513   4.630   4.386   2.776  0.8910 -0.5851  0.6867
 1935SOL    MW4 7514   4.621   4.465   2.812  0.2623 -0.3450  0.0380
 1936SOL     OW 7515   2.649   4.533   4.536 -0.9126  0.6184  0.5108
 1936SOL    HW2 7516   2.598   4.530   4.455  1.0751  0.2372 -0.7975
 1936SOL    HW3 7517   2.672   4.442   4.554  0.5068  0.8904  0.2213
 1936SOL    MW4 7518   2.646   4.521   4.528 -0.6940 -0.3121  0.2555
 1937SOL     OW 7519   2.703   5.734   4.821 -0.1268  0.2744  0.1300
 1937SOL    HW2 7520   2.634   5.780   4.774 -0.0681 -0.5209 -0.7653
 1937SOL    HW3 7521   2.696   5.643   4.791  1.2472  0.1579  0.1030
 1937SOL    MW4 7522   2.693   5.728   4.811 -0.3210 -0.7142 -0.1309
 1938SOL     OW 7523   5.720   6.331   5.146  0.0615 -0.4640 -0.2670
 1938SOL    HW2 7524   5.814   6.328   5.166  0.1847 -0.3850 -0.8067
 1938SOL    HW3 7525   5.691   6.240   5.154  0.3794 -0.6366 -0.9776
 1938SOL    MW4 7526   5.729   6.319   5.150  0.5167 -0.2934 -0.0688
 1939SOL     OW 7527   3.378   5.067   2.856  0.2287  0.0721  0.5034
 1939SOL    HW2 7528   3.320   5.109   2.919 -0.8206 -1.1050  0.3624
 1939SOL    HW3 7529   3.464   5.069   2.897 -0.5035 -1.0315  2.1639
 1939SOL    MW4 7530   3.381   5.073   2.870 -0.1599  0.7158  0.5358
 1940SOL     OW 7531   3.039   0.408   0.235 -0.1457 -0.2005  0.3304
 1940SOL    HW2 7532   2.966   0.414   0.297 -0.0092 -1.3564  0.6366
 1940SOL    HW3 7533   3.080   0.494   0.237 -0.0249 -0.2529  2.0204
 1940SOL    MW4 7534   3.035   0.420   0.244  0.2429 -0.2539  0.4036
 1941SOL     OW 7535   2.319   0.633   4.221 -0.0869 -0.3164 -0.5198
 1941SOL    HW2 7536   2.413   0.649   4.223 -0.1024  0.2004 -2.0115
 1941SOL    HW3 7537   2.284   0.687   4.292  0.8760 -1.8869  1.2176
 1941SOL    MW4 7538   2.327   0.642   4.230 -0.6471 -0.3359  0.2125
 1942SOL     OW 7539   4.062   5.578   1.495  0.1301 -0.2211  0.1132
 1942SOL    HW2 7540   4.054   5.598   1.588 -0.8666 -0.8139  0.1638
 1942SOL    HW3 7541   4.020   5.652   1.451 -0.6648 -0.6311  0.1839
 1942SOL    MW4 7542   4.056   5.591   1.501 -0.0508  0.3154 -0.2977
 1943SOL     OW 7543   3.766   1.090   3.119  0.4870  0.5161  0.5948
 1943SOL    HW2 7544   3.798   1.086   3.209  0.2520  0.5874  0.6840
 1943SOL    HW3 7545   3.800   1.011   3.077 -0.5322 -0.2208  1.1298
 1943SOL    MW4 7546   3.775   1.079   3.125  0.3158  0.3776  0.1021
 1944SOL     OW 7547   6.424   3.494   3.098 -0.3830  0.2237 -0.4130
 1944SOL    HW2 7548   6.433   3.546   3.178  1.4162  1.8156 -1.5774
 1944SOL    HW3 7549   6.330   3.497   3.078 -0.4896  2.1030  0.1724
 1944SOL    MW4 7550   6.413   3.501   3.106 -0.0089  0.0329  0.4633
 1945SOL     OW 7551   4.357   4.189   3.416 -0.4185  0.1540 -0.1975
 1945SOL    HW2 7552   4.379   4.246   3.342 -1.3380 -1.8074 -2.1043
 1945SOL    HW3 7553   4.284   4.232   3.459  1.2146  2.1922  0.7010
 1945SOL    MW4 7554   4.350   4.202   3.412 -0.4043  0.1925 -0.2542
 1946SOL     OW 7555   4.213   6.217   1.452 -0.8296 -0.2399 -0.0945
 1946SOL    HW2 7556   4.180   6.207   1.363 -0.1583 -0.1059 -0.3638
 1946SOL    HW3 7557   4.219   6.128   1.486  0.6104 -0.4391 -0.8181
 1946SOL    MW4 7558   4.209   6.204   1.445  0.5049 -0.2616 -0.4827
 1947SOL     OW 7559   1.667   6.243   4.225  0.1269 -0.0863  0.6663
 1947SOL    HW2 7560   1.582   6.274   4.257 -0.4497 -1.8561  0.9971
 1947SOL    HW3 7561   1.713   6.213   4.304  1.4909  1.7190  0.6164
 1947SOL    MW4 7562   1.662   6.243   4.240 -0.6682 -0.2194  0.3112
 1948SOL     OW 7563   5.654   1.163   2.967 -0.2637  0.0513 -0.0106
 1948SOL    HW2 7564   5.642   1.249   2.925  1.4873 -1.0226 -3.0533
 1948SOL    HW3 7565   5.741   1.167   3.006 -0.4781 -0.1236  0.4944
 1948SOL    MW4 7566   5.664   1.175   2.966  0.4986  0.5529  0.4380
 1949SOL     OW 7567   0.783   0.326   1.482 -0.1921  0.4572  0.8145
 1949SOL    HW2 7568   0.784   0.232   1.469  2.5762  0.6964 -2.1361
 1949SOL    HW3 7569   0.868   0.345   1.522 -0.3535  1.7180  0.6114
 1949SOL    MW4 7570   0.795   0.316   1.485 -0.7757 -0.3458  0.6590
 1950SOL     OW 7571   6.378   1.398   4.886 -0.0555 -0.1469  0.8310
 1950SOL    HW2 7572   6.441   1.398   4.959  0.2797 -1.0543  0.5614
 1950SOL    HW3 7573   6.330   1.316   4.897 -2.4252  1.2849  2.0327
 1950SOL    MW4 7574   6.380   1.387   4.897  0.3826 -0.5287  0.2119
 1951SOL     OW 7575   1.712   0.209   5.066  0.1921  0.4335  0.3333
 1951SOL    HW2 7576   1.712   0.244   5.155 -1.5527  0.2741  0.4279
 1951SOL    HW3 7577   1.776   0.138   5.068  1.8718  1.8997  0.8229
 1951SOL    MW4 7578   1.720   0.204   5.078 -0.1791 -0.5496 -0.0722
 1952SOL     OW 7579   5.811   1.590   5.439 -0.5068 -0.1043 -0.0188
 1952SOL    HW2 7580   5.829   1.530   5.367  1.0784  1.5849 -1.1110
 1952SOL    HW3 7581   5.733   1.639   5.410  0.3704  0.8615 -0.8409
 1952SOL    MW4 7582   5.803   1.589   5.426 -0.1114 -0.8411 -0.1882
 1953SOL     OW 7583   2.724   5.220   3.116 -0.0495 -0.2721 -0.3485
 1953SOL    HW2 7584   2.767   5.299   3.084 -0.7273 -0.4205 -1.6857
 1953SOL    HW3 7585   2.744   5.154   3.050  2.2822 -1.8468  1.7699
 1953SOL    MW4 7586   2.733   5.222   3.103 -0.1659  0.1597 -0.3477
 1954SOL     OW 7587   3.179   1.532   1.450 -0.2931  0.6666 -0.5505
 1954SOL    HW2 7588   3.146   1.592   1.517  0.8042  0.0780  0.5417
 1954SOL    HW3 7589   3.110   1.467   1.441 -0.3620  0.6254  0.1838
 1954SOL    MW4 7590   3.165   1.531   1.458  0.0343  0.0039  0.5309
 1955SOL     OW 7591   4.002   2.468   5.979  0.2477 -0.7199 -0.2025
 1955SOL    HW2 7592   4.074   2.524   6.006 -0.7767  0.8063 -0.4988
 1955SOL    HW3 7593   4.044   2.393   5.937  1.6694 -0.3978  0.5730
 1955SOL    MW4 7594   4.017   2.466   5.977 -0.1528  0.5147  0.5300
 1956SOL     OW 7595   4.637   0.933   0.795  0.1859  0.3742 -0.1537
 1956SOL    HW2 7596   4.732   0.936   0.787  0.6509 -0.6683  3.3292
 1956SOL    HW3 7597   4.620   0.858   0.853 -2.7556  0.5694 -0.6116
 1956SOL    MW4 7598   4.647   0.924   0.802 -0.7593  0.0957 -0.2212
 1957SOL     OW 7599   1.637   3.010   2.657 -0.0565 -0.2195  0.3596
 1957SOL    HW2 7600   1.551   3.021   2.697  0.4160 -1.2155  1.7312
 1957SOL    HW3 7601   1.698   3.009   2.731  1.2790  1.4255 -0.6251
 1957SOL    MW4 7602   1.634   3.012   2.672  0.5846  0.0440  0.0788
 1958SOL     OW 7603   4.357   3.032   5.093 -0.0650  0.3061  0.2783
 1958SOL    HW2 7604   4.405   3.106   5.130 -0.3368 -0.1500  1.5682
 1958SOL    HW3 7605   4.304   3.070   5.023  1.3816  0.9813 -0.5123
 1958SOL    MW4 7606   4.356   3.047   5.088  0.3499 -0.1893 -0.2405
 1959SOL     OW 7607   2.687   1.866   1.446 -0.6392  0.1044 -0.4928
 1959SOL    HW2 7608   2.662   1.781   1.412  0.9325 -0.8490  0.5930
 1959SOL    HW3 7609   2.766   1.890   1.397 -0.1603  0.1708  0.2833
 1959SOL    MW4 7610   2.694   1.858   1.435  0.1314  0.3034  0.3636
 1960SOL     OW 7611   6.000   3.443   5.825 -0.9142 -0.6364 -0.2260
 1960SOL    HW2 7612   5.974   3.438   5.917  1.4159  0.2772  0.5431
 1960SOL    HW3 7613   5.921   3.419   5.777 -2.8177  0.8919  1.9326
 1960SOL    MW4 7614   5.986   3.439   5.831  0.0509 -0.1903  0.4603
 1961SOL     OW 7615   1.288   4.612   5.258  0.3277 -0.0185  0.8727
 1961SOL    HW2 7616   1.287   4.544   5.190  0.2588  1.4511 -0.6789
 1961SOL    HW3 7617   1.197   4.621   5.284  0.0026  0.9253 -0.4885
 1961SOL    MW4 7618   1.276   4.604   5.252  0.4948  0.1690  0.8334
 1962SOL     OW 7619   0.055   4.476   5.049 -0.4640 -0.0936 -0.0504
 1962SOL    HW2 7620   0.063   4.570   5.035 -1.1565 -0.1218 -0.7477
 1962SOL    HW3 7621   0.052   4.465   5.144  2.0901  0.3510  0.1535
 1962SOL    MW4 7622   0.056   4.487   5.059  0.0016 -0.4090 -0.1598
 1963SOL     OW 7623   3.985   4.299   5.540 -0.0226 -0.4990 -0.1354
 1963SOL    HW2 7624   4.015   4.347   5.618  0.5646  0.0472 -0.6779
 1963SOL    HW3 7625   4.058   4.307   5.478 -1.4886  1.4103 -1.7626
 1963SOL    MW4 7626   3.999   4.307   5.542 -0.0246 -0.1970 -0.2931
 1964SOL     OW 7627   0.449   0.931   2.604 -0.2163  0.3639 -0.3692
 1964SOL    HW2 7628   0.441   0.844   2.565  0.6865  0.3871 -0.6199
 1964SOL    HW3 7629   0.369   0.941   2.656 -0.1572 -0.7554 -0.0439
 1964SOL    MW4 7630   0.437   0.921   2.605 -0.1794 -0.4905 -0.1313
 1965SOL     OW 7631   6.213   1.890   6.295  0.5168 -0.1111 -0.6890
 1965SOL    HW2 7632   6.124   1.921   6.309  0.2687 -0.2098 -1.9695
 1965SOL    HW3 7633   6.241   1.860   6.382 -0.3117  0.8670 -0.0583
 1965SOL    MW4 7634   6.205   1.890   6.309 -0.6808  0.0721  0.1664
 1966SOL     OW 7635   4.953   4.182   0.397  0.1912 -0.5565  0.0905
 1966SOL    HW2 7636   4.971   4.089   0.409 -2.1090 -0.9676  0.7573
 1966SOL    HW3 7637   4.861   4.186   0.371 -0.1151  1.5858  1.2839
 1966SOL    MW4 7638   4.944   4.170   0.395  0.1698  0.0829  0.1224
 1967SOL     OW 7639   3.730   4.355   3.720  0.8555 -0.3700  0.4502
 1967SOL    HW2 7640   3.727   4.416   3.794  1.0334  0.7171 -0.4100
 1967SOL    HW3 7641   3.739   4.411   3.644 -0.1331 -1.4311 -0.4834
 1967SOL    MW4 7642   3.731   4.371   3.720  0.7781 -0.4579  0.2364
 1968SOL     OW 7643   2.291   0.471   3.272 -0.3645  0.2007  0.0880
 1968SOL    HW2 7644   2.350   0.542   3.246 -0.6940  0.5320  0.2271
 1968SOL    HW3 7645   2.340   0.420   3.336 -1.7446  3.1089  3.8207
 1968SOL    MW4 7646   2.305   0.474   3.277  0.3664 -0.5495  0.0949
 1969SOL     OW 7647   2.073   2.157   0.830 -0.3037  0.0464 -0.6107
 1969SOL    HW2 7648   2.116   2.218   0.769  1.1505 -1.3650 -1.0875
 1969SOL    HW3 7649   2.025   2.214   0.890  0.3104  1.6219 -1.5212
 1969SOL    MW4 7650   2.073   2.173   0.830 -0.6392 -0.1288 -0.1866
 1970SOL     OW 7651   2.628   3.320   4.564 -1.0286  0.3305 -0.1126
 1970SOL    HW2 7652   2.681   3.285   4.637 -0.0720  0.6323 -0.6429
 1970SOL    HW3 7653   2.575   3.389   4.604 -0.3677  0.6269  0.2664
 1970SOL    MW4 7654   2.628   3.325   4.579 -0.0769 -0.0419 -0.2808
 1971SOL     OW 7655   1.554   0.097   3.305  0.0880  0.0267 -0.3136
 1971SOL    HW2 7656   1.637   0.128   3.343 -0.0140  1.1551 -0.9592
 1971SOL    HW3 7657   1.545   0.147   3.224 -0.0947 -1.7594 -1.4421
 1971SOL    MW4 7658   1.564   0.108   3.300 -0.1788  0.2501 -0.3150
 1972SOL     OW 7659   4.613   0.692   0.914  0.0571 -0.4309  0.0043
 1972SOL    HW2 7660   4.685   0.640   0.880  0.8054  0.7736 -0.3049
 1972SOL    HW3 7661   4.633   0.703   1.007  0.5902  0.3733 -0.1940
 1972SOL    MW4 7662   4.625   0.686   0.922 -0.6092  0.5839  0.4874
 1973SOL     OW 7663   2.646   0.658   0.631 -0.3416  0.7174 -0.6452
 1973SOL    HW2 7664   2.610   0.746   0.639 -0.5592  0.7326 -1.6081
 1973SOL    HW3 7665   2.741   0.671   0.625 -0.1162  0.6774  1.9024
 1973SOL    MW4 7666   2.654   0.671   0.631 -0.3164 -0.4028 -0.8035
 1974SOL     OW 7667   4.154   3.146   1.988 -0.5732 -0.3651 -0.2081
 1974SOL    HW2 7668   4.185   3.112   2.072 -0.7218  0.9026  0.3942
 1974SOL    HW3 7669   4.172   3.240   1.993 -0.2573 -0.3192 -1.7511
 1974SOL    MW4 7670   4.161   3.154   2.000 -0.6260 -0.3806  0.2191
 1975SOL     OW 7671   4.091   3.344   2.663 -0.4382  0.3030  0.2249
 1975SOL    HW2 7672   4.162   3.364   2.723  0.8247  0.4231 -1.2614
 1975SOL    HW3 7673   4.041   3.275   2.708  1.6382 -1.0772  0.5873
 1975SOL    MW4 7674   4.093   3.337   2.677 -0.0270 -0.5521 -0.3326
 1976SOL     OW 7675   4.464   0.262   4.050  0.1767  0.1309  0.3583
 1976SOL    HW2 7676   4.463   0.327   3.980  0.0307 -0.2337  0.0152
 1976SOL    HW3 7677   4.412   0.302   4.120 -0.0884  0.3014  0.0714
 1976SOL    MW4 7678   4.457   0.276   4.050  0.1862  0.2926 -0.1668
 1977SOL     OW 7679   0.475   0.048   2.483  0.0245 -0.2640 -0.0174
 1977SOL    HW2 7680   0.406  -0.010   2.451 -0.3959 -0.0380  0.4578
 1977SOL    HW3 7681   0.482   0.028   2.577  2.7549 -2.4963 -0.5818
 1977SOL    MW4 7682   0.467   0.038   2.492  0.3744  0.4940 -0.4258
 1978SOL     OW 7683   1.453   1.858   5.401 -0.1583  0.4831  0.8694
 1978SOL    HW2 7684   1.435   1.930   5.341 -2.2877  1.2088  2.2622
 1978SOL    HW3 7685   1.547   1.842   5.392 -0.2495  1.0231 -2.0572
 1978SOL    MW4 7686   1.463   1.865   5.392  0.5632 -0.1343  0.1419
 1979SOL     OW 7687   2.828   1.353   2.976  0.4299 -0.2483  0.0877
 1979SOL    HW2 7688   2.769   1.332   2.904 -1.0690  0.0716  1.1964
 1979SOL    HW3 7689   2.873   1.433   2.947  0.2232 -0.4087 -0.6985
 1979SOL    MW4 7690   2.826   1.361   2.963  0.2025  0.4295  0.3975
 1980SOL     OW 7691   4.328   2.841   2.444 -0.2219  0.3344  0.2980
 1980SOL    HW2 7692   4.401   2.779   2.442 -0.4487  0.0700  0.0072
 1980SOL    HW3 7693   4.366   2.922   2.477 -0.0477 -0.1259  1.2664
 1980SOL    MW4 7694   4.343   2.844   2.448  0.0879  0.6596  0.2988
 1981SOL     OW 7695   1.954   1.296   2.474 -0.4796 -0.0400  0.5072
 1981SOL    HW2 7696   1.949   1.224   2.411  0.1767 -0.1428  0.5617
 1981SOL    HW3 7697   1.966   1.253   2.559  0.4316  0.1379  0.4776
 1981SOL    MW4 7698   1.955   1.281   2.477 -0.1058  0.4408  0.4256
 1982SOL     OW 7699   4.068   5.681   0.481 -0.1051  0.3657 -0.2814
 1982SOL    HW2 7700   4.090   5.774   0.480 -1.3079  0.6755  0.3413
 1982SOL    HW3 7701   3.986   5.676   0.530  1.2675 -1.3304  2.0315
 1982SOL    MW4 7702   4.060   5.693   0.487 -0.2869 -0.0047 -1.2194
 1983SOL     OW 7703   1.379   4.100   1.487 -0.5961 -0.2565 -0.6447
 1983SOL    HW2 7704   1.368   4.011   1.453 -0.4707 -0.8618  0.8445
 1983SOL    HW3 7705   1.327   4.102   1.568  2.0777 -0.0747  1.2043
 1983SOL    MW4 7706   1.371   4.088   1.493  0.2337 -0.1230  0.4270
 1984SOL     OW 7707   5.837   4.132   5.701  0.6343 -0.1085  0.1720
 1984SOL    HW2 7708   5.861   4.041   5.681 -3.0157 -1.2209  0.0889
 1984SOL    HW3 7709   5.878   4.149   5.786  1.6148 -1.7423  0.0690
 1984SOL    MW4 7710   5.846   4.122   5.710 -0.3249  0.1946 -0.2851
 1985SOL     OW 7711   4.041   3.813   6.289  0.4023 -0.1592 -0.5611
 1985SOL    HW2 7712   3.987   3.886   6.258  0.2412  0.2096  0.5417
 1985SOL    HW3 7713   4.090   3.785   6.211  0.0252  0.7263 -1.1386
 1985SOL    MW4 7714   4.040   3.819   6.274  0.1488  0.0387  0.6702
 1986SOL     OW 7715   2.889   1.753   0.501  0.2938  0.1418 -0.0471
 1986SOL    HW2 7716   2.981   1.750   0.473  0.6871 -1.8198  1.2445
 1986SOL    HW3 7717   2.854   1.668   0.477 -1.8017  1.5254 -2.2334
 1986SOL    MW4 7718   2.897   1.741   0.494  0.2124  0.2154 -0.3591
 1987SOL     OW 7719   1.935   1.617   3.074 -0.0329  0.1590 -0.3286
 1987SOL    HW2 7720   1.914   1.532   3.113 -1.2077  0.3228 -0.5730
 1987SOL    HW3 7721   2.026   1.632   3.099  0.3470 -1.3702 -0.6527
 1987SOL    MW4 7722   1.945   1.608   3.083 -0.0618  0.6991 -0.7146
 1988SOL     OW 7723   3.453   0.307   4.703 -0.0742 -0.6559 -0.3727
 1988SOL    HW2 7724   3.501   0.228   4.678  0.2110 -0.5647 -0.1137
 1988SOL    HW3 7725   3.407   0.283   4.783 -0.0957 -0.5996 -0.3683
 1988SOL    MW4 7726   3.453   0.293   4.710  0.3806 -0.9810 -0.0188
 1989SOL     OW 7727   3.263   6.314   2.640  0.3670 -0.6299 -0.5136
 1989SOL    HW2 7728   3.233   6.262   2.565  1.3921 -2.0442  0.0007
 1989SOL    HW3 7729   3.358   6.315   2.632  0.3819  1.3818 -0.5898
 1989SOL    MW4 7730   3.272   6.307   2.629  0.1857 -0.0533  0.0721
 1990SOL     OW 7731   4.315   1.415   5.717  0.1090 -0.3583 -0.2370
 1990SOL    HW2 7732   4.381   1.365   5.669  0.6656  0.8931 -0.8300
 1990SOL    HW3 7733   4.254   1.445   5.650 -0.7201 -0.9705  0.2264
 1990SOL    MW4 7734   4.316   1.412   5.702  0.5200 -0.4894  0.1543
 1991SOL     OW 7735   5.666   1.383   5.039 -0.3658 -0.1588 -0.0466
 1991SOL    HW2 7736   5.707   1.353   5.120  1.3735 -1.1850 -1.2441
 1991SOL    HW3 7737   5.622   1.306   5.004  0.1639 -0.1168 -0.8227
 1991SOL    MW4 7738   5.665   1.369   5.045  0.6710  0.0030 -0.3406
 1992SOL     OW 7739   3.030   2.405   0.460  0.1579  0.2120  0.6601
 1992SOL    HW2 7740   3.108   2.412   0.515  0.2410  1.6087  0.4125
 1992SOL    HW3 7741   2.970   2.471   0.495  0.0576  0.8469 -0.6382
 1992SOL    MW4 7742   3.033   2.415   0.472  0.6647 -0.4824 -0.6695
 1993SOL     OW 7743   1.628   2.436   3.908 -0.0675  0.7150  0.3191
 1993SOL    HW2 7744   1.594   2.514   3.865  0.2943  0.8602  0.2914
 1993SOL    HW3 7745   1.689   2.399   3.845  0.3724  0.8581  0.6563
 1993SOL    MW4 7746   1.631   2.441   3.894  0.1347 -0.3760  0.0197
 1994SOL     OW 7747   2.138   6.034   3.813 -0.1707 -0.0561  0.5739
 1994SOL    HW2 7748   2.048   6.019   3.784  0.4319 -2.2204 -0.4116
 1994SOL    HW3 7749   2.177   5.947   3.815  1.5185  0.6763  2.3975
 1994SOL    MW4 7750   2.131   6.021   3.809  0.0015 -0.2168 -0.3692
 1995SOL     OW 7751   1.302   1.086   0.038  0.5823 -0.4552  0.2787
 1995SOL    HW2 7752   1.263   1.167   0.006  0.2338 -1.0303 -0.8142
 1995SOL    HW3 7753   1.392   1.088   0.006  1.0435  0.1968  1.5620
 1995SOL    MW4 7754   1.309   1.097   0.029  0.5770  0.1048  0.0886
 1996SOL     OW 7755   6.145   3.740   0.425 -0.4581 -0.4936 -0.1399
 1996SOL    HW2 7756   6.086   3.771   0.494 -1.0697  0.0701 -0.9035
 1996SOL    HW3 7757   6.145   3.811   0.360  1.3145 -0.3340 -0.0152
 1996SOL    MW4 7758   6.137   3.754   0.425  0.0287 -0.1953  0.2373
 1997SOL     OW 7759   1.225   4.446   4.555 -0.6053  0.4429  0.2925
 1997SOL    HW2 7760   1.164   4.508   4.516 -0.5061 -0.2776 -1.0496
 1997SOL    HW3 7761   1.310   4.471   4.521 -0.2236  1.0129  1.6126
 1997SOL    MW4 7762   1.228   4.457   4.546  0.6307  0.3080 -0.1921
 1998SOL     OW 7763   4.778   2.927   2.151 -0.5038 -0.1271  0.2305
 1998SOL    HW2 7764   4.728   2.857   2.109  0.3335 -0.3699 -0.3881
 1998SOL    HW3 7765   4.779   2.998   2.086  0.6552 -0.4423 -0.1240
 1998SOL    MW4 7766   4.771   2.927   2.137  0.0207  0.1177  0.0134
 1999SOL     OW 7767   4.222   1.103   5.112  0.2568  0.0265  0.2540
 1999SOL    HW2 7768   4.263   1.068   5.033  0.7917 -1.2208  1.0582
 1999SOL    HW3 7769   4.277   1.071   5.184 -1.8475 -1.3131  1.3560
 1999SOL    MW4 7770   4.235   1.094   5.111  0.1160 -0.1419 -0.0479
 2000SOL     OW 7771   2.417   0.860   1.879 -0.1573  0.0271 -0.1320
 2000SOL    HW2 7772   2.435   0.792   1.814  1.4211  0.6092 -0.3582
 2000SOL    HW3 7773   2.413   0.941   1.828  0.6517  0.4313  0.4173
 2000SOL    MW4 7774   2.419   0.862   1.863 -0.7038 -0.2919 -0.3443
 2001SOL     OW 7775   3.033   2.469   1.685 -0.1225  0.1058 -0.4482
 2001SOL    HW2 7776   2.994   2.389   1.649  2.0572 -1.0274 -0.4657
 2001SOL    HW3 7777   3.118   2.475   1.643  1.4574  0.1874  2.4934
 2001SOL    MW4 7778   3.039   2.459   1.675  0.1686 -0.1180  0.6725
 2002SOL     OW 7779   1.737   0.560   5.644 -0.3637 -0.4010  0.4604
 2002SOL    HW2 7780   1.772   0.619   5.578 -0.4497 -1.0900 -0.2139
 2002SOL    HW3 7781   1.701   0.618   5.712 -0.8317  0.3184 -0.3827
 2002SOL    MW4 7782   1.737   0.575   5.645 -0.3085  0.1222  0.0803
 2003SOL     OW 7783   3.274   3.113   1.970 -0.2190 -0.0435  0.1228
 2003SOL    HW2 7784   3.368   3.120   1.949 -0.2044  0.7249  0.4190
 2003SOL    HW3 7785   3.248   3.029   1.932  0.3864  0.1476 -0.7642
 2003SOL    MW4 7786   3.283   3.103   1.962  0.1986  0.6351  0.7034
 2004SOL     OW 7787   3.352   0.820   2.357  0.0488 -0.4656  0.9064
 2004SOL    HW2 7788   3.359   0.796   2.450 -1.1794  0.2626  1.1927
 2004SOL    HW3 7789   3.279   0.768   2.324 -0.4332  0.3346  0.6982
 2004SOL    MW4 7790   3.344   0.810   2.365  0.1136 -0.1690 -0.0353
 2005SOL     OW 7791   3.145   5.440   0.037 -0.2352 -0.1100 -0.2726
 2005SOL    HW2 7792   3.227   5.391   0.027 -1.9458 -3.0776 -0.6012
 2005SOL    HW3 7793   3.077   5.381   0.007 -2.5421  2.4370 -0.4714
 2005SOL    MW4 7794   3.147   5.426   0.032 -0.3683  0.1083 -0.2567
 2006SOL     OW 7795   1.800   3.009   4.173 -0.5011  0.0401 -0.4121
 2006SOL    HW2 7796   1.832   2.938   4.228  1.0604  1.3505  0.4242
 2006SOL    HW3 7797   1.855   3.005   4.095  0.0092  0.7091 -0.0903
 2006SOL    MW4 7798   1.811   2.999   4.170 -0.0154 -0.1456  0.0503
 2007SOL     OW 7799   0.608   5.571   4.372  0.1420 -0.1618  0.5724
 2007SOL    HW2 7800   0.549   5.645   4.387  0.2009  0.0220 -0.0509
 2007SOL    HW3 7801   0.574   5.501   4.427 -1.5682 -0.5297 -0.8728
 2007SOL    MW4 7802   0.596   5.571   4.381 -0.0571  0.2204 -0.3485
 2008SOL     OW 7803   1.411   6.416   1.374  0.5879  0.1589 -1.0695
 2008SOL    HW2 7804   1.482   6.357   1.347  1.1819  0.7445 -0.7924
 2008SOL    HW3 7805   1.428   6.497   1.328 -0.6594 -0.1019 -2.0438
 2008SOL    MW4 7806   1.422   6.419   1.364 -0.4219  0.1045  0.4308
 2009SOL     OW 7807   3.459   5.674   0.760  0.3031  0.8481 -0.7199
 2009SOL    HW2 7808   3.548   5.654   0.789 -0.0887  0.8726  0.5558
 2009SOL    HW3 7809   3.420   5.589   0.741  0.5858  0.8382 -1.3007
 2009SOL    MW4 7810   3.466   5.660   0.761 -0.6237  0.3179 -0.0694
 2010SOL     OW 7811   4.882   4.864   2.602  0.5169 -0.4166  0.4339
 2010SOL    HW2 7812   4.903   4.918   2.526  0.7641 -0.4201  0.4979
 2010SOL    HW3 7813   4.807   4.811   2.575 -0.2446  0.5383  0.6425
 2010SOL    MW4 7814   4.875   4.864   2.589  0.1267 -0.2492  0.5211
 2011SOL     OW 7815   2.812   1.928   5.827  0.2843  0.0660 -0.0858
 2011SOL    HW2 7816   2.760   1.852   5.803  1.1113 -0.0356 -1.6404
 2011SOL    HW3 7817   2.752   1.984   5.877 -1.3351 -0.0055 -1.8709
 2011SOL    MW4 7818   2.798   1.926   5.831  0.1717  0.3574 -0.4817
 2012SOL     OW 7819   2.852   2.590   4.779  0.6988 -0.4489 -0.7136
 2012SOL    HW2 7820   2.764   2.554   4.787  0.0939  1.0640 -0.0586
 2012SOL    HW3 7821   2.910   2.514   4.777 -0.3923 -1.4742  1.9510
 2012SOL    MW4 7822   2.848   2.575   4.780  0.1819 -0.6556  0.2913
 2013SOL     OW 7823   6.054   6.246   0.901  0.0893 -0.3937  0.0272
 2013SOL    HW2 7824   6.055   6.331   0.945  2.1778 -0.9659  1.1991
 2013SOL    HW3 7825   6.061   6.182   0.971  2.1882 -1.3933 -0.9876
 2013SOL    MW4 7826   6.055   6.249   0.916 -0.5433  0.7999 -0.0928
 2014SOL     OW 7827   4.724   1.224   4.068 -0.4154 -0.1826 -0.1413
 2014SOL    HW2 7828   4.790   1.252   4.131 -0.3074 -0.2470 -0.2248
 2014SOL    HW3 7829   4.660   1.176   4.120 -0.6291  0.2617  0.0097
 2014SOL    MW4 7830   4.724   1.221   4.083  0.0402  0.2139 -0.0944
 2015SOL     OW 7831   2.147   5.702   2.259  0.1585  0.6576  0.6796
 2015SOL    HW2 7832   2.053   5.719   2.254 -0.0420 -0.3510  0.8171
 2015SOL    HW3 7833   2.187   5.777   2.214 -0.8772 -0.7916 -3.0106
 2015SOL    MW4 7834   2.140   5.714   2.252 -0.1678 -0.4180 -0.8648
 2016SOL     OW 7835   5.139   1.448   1.687 -0.2764 -0.4144 -0.7068
 2016SOL    HW2 7836   5.132   1.483   1.598  0.5069 -0.0273 -0.6210
 2016SOL    HW3 7837   5.231   1.460   1.710 -0.1859 -1.7143 -0.3360
 2016SOL    MW4 7838   5.150   1.454   1.678 -0.5866 -0.5835 -0.2467
 2017SOL     OW 7839   1.573   4.978   1.465  0.8600  0.0529  0.2856
 2017SOL    HW2 7840   1.532   4.894   1.448  1.4641 -0.3340  0.7054
 2017SOL    HW3 7841   1.667   4.960   1.464  0.9794  0.5713  1.1424
 2017SOL    MW4 7842   1.580   4.965   1.463  0.2507 -0.2883  0.1150
 2018SOL     OW 7843   4.912   1.149   4.978 -0.5720 -0.0973 -0.2380
 2018SOL    HW2 7844   4.855   1.131   5.053  1.7112 -0.3366  1.5512
 2018SOL    HW3 7845   5.000   1.128   5.009  1.0264  3.6781 -1.5918
 2018SOL    MW4 7846   4.916   1.144   4.992  1.0778 -0.3746 -0.2074
 2019SOL     OW 7847   2.412   3.355   1.665  0.1990  0.1225  0.0769
 2019SOL    HW2 7848   2.322   3.323   1.670 -0.3146  1.4413 -0.2439
 2019SOL    HW3 7849   2.463   3.280   1.635 -0.8391 -0.5621 -0.0196
 2019SOL    MW4 7850   2.407   3.341   1.661  0.2370 -0.1842  0.3163
 2020SOL     OW 7851   2.847   4.695   1.744 -0.2988 -0.0449 -0.3779
 2020SOL    HW2 7852   2.778   4.679   1.679  0.4840 -0.5413 -1.0972
 2020SOL    HW3 7853   2.839   4.622   1.806 -0.1089 -0.3685 -0.7329
 2020SOL    MW4 7854   2.837   4.683   1.744 -0.0247 -0.4102  0.1604
 2021SOL     OW 7855   6.075   2.083   2.706  0.0753 -0.2580 -0.0117
 2021SOL    HW2 7856   5.991   2.129   2.708 -0.0635 -0.5200  0.1960
 2021SOL    HW3 7857   6.104   2.083   2.797  0.1896 -0.3745 -0.0484
 2021SOL    MW4 7858   6.067   2.089   2.718  0.3132  0.6237 -0.0185
 2022SOL     OW 7859   2.221   4.105   4.821 -0.6913  0.3970  0.1442
 2022SOL    HW2 7860   2.184   4.033   4.872  4.0080 -2.1473  0.5011
 2022SOL    HW3 7861   2.183   4.094   4.734 -1.7387 -1.1598  0.7490
 2022SOL    MW4 7862   2.211   4.094   4.816 -0.0538  0.5929 -1.1710
 2023SOL     OW 7863   4.550   0.183   5.763  0.0009 -0.1160 -0.2131
 2023SOL    HW2 7864   4.618   0.132   5.808 -0.4051 -0.0359  0.5049
 2023SOL    HW3 7865   4.597   0.234   5.697  0.8965  1.3168  1.4559
 2023SOL    MW4 7866   4.565   0.183   5.760  0.5587  0.3473 -0.4206
 2024SOL     OW 7867   2.811   0.536   1.871 -0.1163 -0.1326 -0.5171
 2024SOL    HW2 7868   2.775   0.594   1.939  0.7820  1.1315 -1.0808
 2024SOL    HW3 7869   2.740   0.474   1.853 -0.6300 -0.0636  1.0671
 2024SOL    MW4 7870   2.797   0.535   1.878 -0.0167 -0.1817  0.5467
 2025SOL     OW 7871   2.391   5.213   4.727  0.0936  0.4577  0.0356
 2025SOL    HW2 7872   2.483   5.205   4.702 -0.0500  0.7422 -0.6242
 2025SOL    HW3 7873   2.373   5.136   4.781  0.7709  0.5088  0.3382
 2025SOL    MW4 7874   2.401   5.202   4.731 -0.0246 -0.7779  0.1039
 2026SOL     OW 7875   6.406   2.388   1.226  1.0554  0.0758  0.0850
 2026SOL    HW2 7876   6.348   2.443   1.174  0.8019  0.5767  0.8652
 2026SOL    HW3 7877   6.449   2.330   1.163 -1.6286 -1.5822 -0.3580
 2026SOL    MW4 7878   6.404   2.388   1.211  0.1133  0.5811 -0.9211
 2027SOL     OW 7879   0.671   5.393   4.775 -0.3950  0.7042 -0.5187
 2027SOL    HW2 7880   0.687   5.346   4.856 -2.2300  0.1782 -0.4237
 2027SOL    HW3 7881   0.729   5.469   4.780  0.9296 -0.3172  0.3763
 2027SOL    MW4 7882   0.681   5.397   4.786  0.2025 -0.3919 -0.5386
 2028SOL     OW 7883   1.522   4.335   1.586  0.4875  0.1019 -0.0483
 2028SOL    HW2 7884   1.512   4.315   1.679 -0.4249 -0.3302 -0.2262
 2028SOL    HW3 7885   1.479   4.262   1.541  2.5494 -0.6704 -0.8621
 2028SOL    MW4 7886   1.515   4.323   1.593  0.1999  0.3739  0.2625
 2029SOL     OW 7887   0.807   0.707   2.592  0.1543 -0.1908  0.0869
 2029SOL    HW2 7888   0.864   0.770   2.547  0.5336  0.5438  1.5332
 2029SOL    HW3 7889   0.823   0.722   2.685 -0.8927 -1.3984  0.4974
 2029SOL    MW4 7890   0.817   0.717   2.598  0.2718  0.0900 -0.4146
 2030SOL     OW 7891   4.372   4.197   5.928  0.1004  0.0612 -0.0402
 2030SOL    HW2 7892   4.321   4.185   5.849 -0.0489 -1.5563  0.2606
 2030SOL    HW3 7893   4.339   4.130   5.989  3.1595 -1.7896 -0.1690
 2030SOL    MW4 7894   4.361   4.186   5.926  0.1506 -0.4430 -0.3793
 2031SOL     OW 7895   3.807   1.635   6.297 -0.5166 -0.2605  0.1518
 2031SOL    HW2 7896   3.739   1.579   6.259  1.1256 -1.0116 -1.8864
 2031SOL    HW3 7897   3.855   1.577   6.355 -0.1328 -0.4113 -0.3080
 2031SOL    MW4 7898   3.804   1.620   6.299  0.3189 -0.7853  0.2017
 2032SOL     OW 7899   6.334   0.714   6.148 -0.8146 -0.2319  0.5077
 2032SOL    HW2 7900   6.376   0.679   6.227 -0.1817  1.4279  0.9403
 2032SOL    HW3 7901   6.242   0.691   6.158 -0.5876 -0.8400  1.2838
 2032SOL    MW4 7902   6.327   0.706   6.160 -0.4436  0.1825 -0.0375
 2033SOL     OW 7903   2.303   0.363   0.450  0.4866 -0.4838  0.1468
 2033SOL    HW2 7904   2.370   0.431   0.457 -0.8697  1.0902 -1.2843
 2033SOL    HW3 7905   2.334   0.305   0.381  1.0198 -0.5848  0.4656
 2033SOL    MW4 7906   2.316   0.364   0.442  0.0294  0.4067 -0.6121
 2034SOL     OW 7907   3.706   5.181   5.054 -0.1553 -0.0556  0.1848
 2034SOL    HW2 7908   3.763   5.114   5.093  0.1083  0.0765  0.0296
 2034SOL    HW3 7909   3.618   5.146   5.064  0.1504 -2.2309 -3.1995
 2034SOL    MW4 7910   3.702   5.167   5.060 -0.2094 -0.1632  0.3235
 2035SOL     OW 7911   0.647   1.469   5.950 -0.0555 -0.1138 -0.1645
 2035SOL    HW2 7912   0.562   1.473   5.994  0.3095  1.1432  0.4590
 2035SOL    HW3 7913   0.704   1.527   6.000  0.2802  1.6884 -2.4764
 2035SOL    MW4 7914   0.643   1.477   5.962  0.0014 -0.4313 -0.0749
 2036SOL     OW 7915   5.768   5.288   0.738  0.1843 -0.6530  0.0821
 2036SOL    HW2 7916   5.754   5.230   0.812  0.8339  0.7978  1.4215
 2036SOL    HW3 7917   5.839   5.247   0.689  1.7137 -0.3085  1.8544
 2036SOL    MW4 7918   5.776   5.275   0.742 -0.0349 -0.1542 -0.5106
 2037SOL     OW 7919   3.259   1.710   2.099  0.2918 -0.0949  0.2801
 2037SOL    HW2 7920   3.183   1.743   2.051 -0.6064 -0.0387  1.6886
 2037SOL    HW3 7921   3.287   1.632   2.051 -1.4447 -0.8484  0.4497
 2037SOL    MW4 7922   3.253   1.704   2.087 -0.2145 -0.1723  0.2194
 2038SOL     OW 7923   0.012   5.402   3.261  0.1944 -0.4213 -0.0860
 2038SOL    HW2 7924   0.015   5.446   3.176  2.2451  2.0766  1.1496
 2038SOL    HW3 7925   0.103   5.378   3.280 -0.0981 -0.2838  1.6909
 2038SOL    MW4 7926   0.024   5.405   3.253  0.2993  0.8740 -0.4460
 2039SOL     OW 7927   4.938   1.147   4.690 -0.3110  0.4660  0.1970
 2039SOL    HW2 7928   4.944   1.143   4.786 -1.0609  0.8024  0.2617
 2039SOL    HW3 7929   4.882   1.222   4.672  2.2185  2.2689 -0.6059
 2039SOL    MW4 7930   4.931   1.156   4.700 -0.2644  0.4685  0.4549
 2040SOL     OW 7931   2.152   1.960   5.825  0.3943 -0.1555 -0.3285
 2040SOL    HW2 7932   2.075   1.905   5.809 -0.7692  1.0149  1.0107
 2040SOL    HW3 7933   2.192   1.971   5.738 -1.4601 -0.0485 -1.2138
 2040SOL    MW4 7934   2.147   1.954   5.811  0.0603  0.5613 -0.0255
 2041SOL     OW 7935   4.683   1.548   4.267 -0.1535  0.0634  0.7261
 2041SOL    HW2 7936   4.592   1.528   4.286 -0.0685 -2.3578 -0.8603
 2041SOL    HW3 7937   4.684   1.571   4.174  0.4791  3.4520  1.4376
 2041SOL    MW4 7938   4.671   1.548   4.257 -0.2047  0.3995 -0.0896
 2042SOL     OW 7939   2.211   0.558   2.813 -0.3379 -0.2255  0.7977
 2042SOL    HW2 7940   2.149   0.528   2.879 -0.8003 -0.6937  0.1573
 2042SOL    HW3 7941   2.284   0.496   2.819 -1.0872 -1.2319 -0.2058
 2042SOL    MW4 7942   2.213   0.546   2.823 -0.0870 -0.2526  0.4620
 2043SOL     OW 7943   1.634   1.063   4.552  0.8702  0.0225 -0.5908
 2043SOL    HW2 7944   1.589   1.091   4.632  1.5892 -0.8952  0.1620
 2043SOL    HW3 7945   1.591   0.981   4.528  1.5356 -0.4006 -0.3667
 2043SOL    MW4 7946   1.623   1.055   4.560 -0.4119  0.6201  0.2514
 2044SOL     OW 7947   2.620   4.568   5.940  0.2953  0.1567  0.2701
 2044SOL    HW2 7948   2.580   4.647   5.976  0.1364 -1.3035  3.6330
 2044SOL    HW3 7949   2.548   4.505   5.934  1.0610 -0.8612  1.2964
 2044SOL    MW4 7950   2.605   4.570   5.944  0.2353  0.1780  0.1628
 2045SOL     OW 7951   4.992   4.419   4.616  0.5449 -0.3863  0.0968
 2045SOL    HW2 7952   4.994   4.511   4.590  2.4508 -0.3048  0.3795
 2045SOL    HW3 7953   4.917   4.382   4.569  0.5043  1.0170 -1.0039
 2045SOL    MW4 7954   4.982   4.426   4.607 -0.3538 -0.4524  0.3010
 2046SOL     OW 7955   2.747   1.324   5.453  0.4504 -0.0027  0.4090
 2046SOL    HW2 7956   2.842   1.321   5.446  0.4868 -0.8208  1.0737
 2046SOL    HW3 7957   2.726   1.417   5.462  1.2308  0.1409  0.8167
 2046SOL    MW4 7958   2.757   1.336   5.453  0.0251  0.1937 -0.1110
 2047SOL     OW 7959   2.012   3.129   2.654 -0.0307 -0.1552 -0.0575
 2047SOL    HW2 7960   1.975   3.206   2.611 -0.6627 -0.9128 -0.9203
 2047SOL    HW3 7961   1.939   3.093   2.704  0.1068 -0.4933 -0.1007
 2047SOL    MW4 7962   1.997   3.134   2.655 -0.0910 -0.4412 -0.4421
 2048SOL     OW 7963   1.477   3.960   0.444 -0.1954 -0.2644 -0.6768
 2048SOL    HW2 7964   1.394   4.007   0.440 -0.1375 -0.1472 -0.5016
 2048SOL    HW3 7965   1.537   4.020   0.490 -0.1780 -0.5884 -0.2688
 2048SOL    MW4 7966   1.474   3.974   0.450 -0.1753 -0.6392 -0.2767
 2049SOL     OW 7967   2.560   1.272   2.337  0.0664 -0.4281 -0.2292
 2049SOL    HW2 7968   2.622   1.204   2.363 -0.7996 -1.7224 -1.4069
 2049SOL    HW3 7969   2.538   1.251   2.246 -1.5635  0.4033 -0.0624
 2049SOL    MW4 7970   2.565   1.261   2.328  0.2127  0.0920  0.1246
 2050SOL     OW 7971   3.999   0.973   4.164  0.1175 -0.5420 -0.0739
 2050SOL    HW2 7972   4.087   0.989   4.197 -1.1804 -0.7567  3.9380
 2050SOL    HW3 7973   3.989   0.878   4.168 -0.8700 -0.4009  1.2774
 2050SOL    MW4 7974   4.010   0.962   4.169  0.4558 -0.0988 -0.5806
 2051SOL     OW 7975   0.646   2.353   2.098 -0.3255 -0.4871 -0.6687
 2051SOL    HW2 7976   0.667   2.328   2.007 -0.9640  0.4716 -1.0960
 2051SOL    HW3 7977   0.564   2.306   2.116 -0.7355  0.1095 -0.9509
 2051SOL    MW4 7978   0.638   2.343   2.088 -0.1698 -0.4379 -0.2187
 2052SOL     OW 7979   1.962   4.665   5.380  0.2455  0.0333 -0.4201
 2052SOL    HW2 7980   1.955   4.586   5.326  0.8671 -0.1991 -0.1778
 2052SOL    HW3 7981   2.043   4.707   5.351  0.0379  0.4586 -0.3885
 2052SOL    MW4 7982   1.972   4.660   5.369  0.1353 -0.0682  0.2801
 2053SOL     OW 7983   3.042   4.206   5.389 -0.3434  0.0817  0.0261
 2053SOL    HW2 7984   3.112   4.143   5.405 -1.1180 -1.0345 -0.7741
 2053SOL    HW3 7985   3.014   4.234   5.476  1.0845  0.5585  0.3502
 2053SOL    MW4 7986   3.047   4.201   5.402 -0.6422 -0.6110 -0.3768
 2054SOL     OW 7987   5.293   5.410   2.521 -0.0103  0.1200  0.4728
 2054SOL    HW2 7988   5.285   5.325   2.478  1.4577 -0.6394  1.5975
 2054SOL    HW3 7989   5.256   5.472   2.459  0.0072 -1.1898 -0.9032
 2054SOL    MW4 7990   5.287   5.407   2.507 -0.0029 -0.3951  0.7422
 2055SOL     OW 7991   1.391   6.431   3.981 -0.0875  0.4758  0.2243
 2055SOL    HW2 7992   1.453   6.465   4.047  0.8472 -0.3985 -0.1724
 2055SOL    HW3 7993   1.447   6.392   3.914 -0.9683  2.1668 -1.5929
 2055SOL    MW4 7994   1.407   6.430   3.981 -0.4710 -0.1502  0.4335
 2056SOL     OW 7995   1.755   1.251   1.605  0.2553  0.2103  0.5646
 2056SOL    HW2 7996   1.779   1.340   1.579  0.2863  0.4632  1.4205
 2056SOL    HW3 7997   1.753   1.254   1.701  0.2186 -0.7026  0.6004
 2056SOL    MW4 7998   1.758   1.263   1.614 -0.1346 -0.3056 -0.1135
 2057SOL     OW 7999   5.347   1.439   2.575  0.2303  0.4590 -0.0271
 2057SOL    HW2 8000   5.325   1.365   2.519 -0.0400  1.2274 -0.9656
 2057SOL    HW3 8001   5.320   1.412   2.662  0.6623 -0.7691 -0.2582
 2057SOL    MW4 8002   5.341   1.426   2.579 -0.5359 -0.6996 -0.4118
 2058SOL     OW 8003   1.313   0.305   3.446  0.1514  0.3369  0.2069
 2058SOL    HW2 8004   1.351   0.366   3.382  1.3760 -0.9739 -0.3941
 2058SOL    HW3 8005   1.219   0.309   3.430  0.3874  0.4625 -1.3182
 2058SOL    MW4 8006   1.306   0.314   3.435  0.3632 -0.6452  0.3951
 2059SOL     OW 8007   3.083   1.174   3.566 -0.0216 -0.1767  0.0846
 2059SOL    HW2 8008   3.115   1.254   3.524  0.5566 -0.4254  0.0345
 2059SOL    HW3 8009   2.995   1.196   3.595  0.6448  0.9664  1.3611
 2059SOL    MW4 8010   3.076   1.188   3.564  0.2536  0.1173 -0.2711
 2060SOL     OW 8011   4.110   5.593   2.785 -0.1095 -0.8100 -0.7232
 2060SOL    HW2 8012   4.066   5.588   2.700 -1.3411  0.7145 -0.2060
 2060SOL    HW3 8013   4.174   5.664   2.775  2.0810 -2.7291 -1.3351
 2060SOL    MW4 8014   4.113   5.601   2.773 -0.0220 -0.3803 -0.3111
 2061SOL     OW 8015   1.080   5.762   2.712 -0.1167 -0.4529  0.3339
 2061SOL    HW2 8016   1.005   5.703   2.700  1.1083 -1.7262 -1.6136
 2061SOL    HW3 8017   1.091   5.803   2.626  0.5023  0.8873  1.0287
 2061SOL    MW4 8018   1.071   5.760   2.699  0.1042  0.1020  0.1782
 2062SOL     OW 8019   5.409   0.592   0.934  0.4582 -0.1225  0.8335
 2062SOL    HW2 8020   5.320   0.608   0.903  0.7712 -0.4115 -0.2397
 2062SOL    HW3 8021   5.407   0.619   1.026 -0.9914 -1.0399  1.0987
 2062SOL    MW4 8022   5.397   0.598   0.942 -0.0792 -0.1884 -0.7221
 2063SOL     OW 8023   3.432   5.507   4.479 -0.2829  0.2931 -0.4916
 2063SOL    HW2 8024   3.429   5.599   4.503  1.0991  0.0280  0.8620
 2063SOL    HW3 8025   3.485   5.504   4.400 -0.4907  0.6776 -0.6444
 2063SOL    MW4 8026   3.439   5.519   4.472  0.5532 -0.4306  0.2875
 2064SOL     OW 8027   1.913   0.563   1.000 -0.3539  0.0331  0.3640
 2064SOL    HW2 8028   2.001   0.600   0.990  0.3704 -1.9407 -1.1372
 2064SOL    HW3 8029   1.874   0.571   0.913 -1.9158  1.4065  1.1543
 2064SOL    MW4 8030   1.920   0.569   0.987 -0.1535  0.2279 -0.1579
 2065SOL     OW 8031   3.845   4.676   3.255 -0.1312  0.2013 -0.5878
 2065SOL    HW2 8032   3.816   4.619   3.184 -0.0622 -2.2905  1.2254
 2065SOL    HW3 8033   3.936   4.696   3.235  0.4457 -1.9608 -0.4062
 2065SOL    MW4 8034   3.853   4.671   3.243 -0.4467  0.7429  0.0897
 2066SOL     OW 8035   0.627   0.018   3.623 -0.1572 -0.1364 -0.0264
 2066SOL    HW2 8036   0.533   0.030   3.609  0.3424  1.8332 -2.4848
 2066SOL    HW3 8037   0.667   0.082   3.565  2.7846 -2.3962 -0.6789
 2066SOL    MW4 8038   0.620   0.028   3.614 -0.0780 -0.7398 -0.0394
 2067SOL     OW 8039   0.072   4.148   3.472 -0.3879 -0.1550 -0.7909
 2067SOL    HW2 8040   0.153   4.098   3.486  0.1180  0.0676 -2.6563
 2067SOL    HW3 8041   0.003   4.082   3.473  0.0104 -0.5790 -0.8327
 2067SOL    MW4 8042   0.074   4.133   3.474 -0.0384  0.4022  0.4111
 2068SOL     OW 8043   5.222   2.060   4.156 -0.5926 -0.0279 -0.5885
 2068SOL    HW2 8044   5.241   2.053   4.249  0.2030 -2.0155 -0.8563
 2068SOL    HW3 8045   5.293   2.115   4.121 -0.1614 -0.3526 -0.2236
 2068SOL    MW4 8046   5.234   2.067   4.163 -0.6571  0.3991  0.3026
 2069SOL     OW 8047   0.997   2.595   2.173 -0.5709  0.3353  0.3618
 2069SOL    HW2 8048   0.941   2.525   2.205  0.5032 -0.6936  0.0539
 2069SOL    HW3 8049   1.047   2.555   2.102  2.2075  0.5377  2.0979
 2069SOL    MW4 8050   0.996   2.581   2.168 -0.3715  0.3793 -0.1713
 2070SOL     OW 8051   2.104   0.712   6.114  0.3652  0.3887 -0.1692
 2070SOL    HW2 8052   2.087   0.800   6.078 -1.0268  0.3758  0.4082
 2070SOL    HW3 8053   2.028   0.661   6.090 -0.5047  0.2874  2.4746
 2070SOL    MW4 8054   2.092   0.717   6.106  0.0659  0.2914  0.5813
 2071SOL     OW 8055   2.556   0.404   6.298 -0.3399 -0.6097  0.1269
 2071SOL    HW2 8056   2.486   0.354   6.341 -1.0349  1.0792  1.0488
 2071SOL    HW3 8057   2.637   0.365   6.331 -0.8657 -0.9881  1.0157
 2071SOL    MW4 8058   2.557   0.392   6.308  0.3549  0.3757  0.0141
 2072SOL     OW 8059   1.628   1.571   5.227 -0.3519 -0.4370  0.2692
 2072SOL    HW2 8060   1.643   1.537   5.138  0.5748  1.3406 -0.2933
 2072SOL    HW3 8061   1.622   1.665   5.216 -0.0758 -0.1722  2.1247
 2072SOL    MW4 8062   1.629   1.579   5.214 -0.1041  0.3293  0.0611
 2073SOL     OW 8063   2.480   3.479   3.562 -0.1795  0.2547 -0.1405
 2073SOL    HW2 8064   2.433   3.562   3.575  1.1489  1.0149  0.0228
 2073SOL    HW3 8065   2.438   3.418   3.623  0.3793  1.4624  1.5178
 2073SOL    MW4 8066   2.468   3.482   3.572  0.0579  0.2905  0.2591
 2074SOL     OW 8067   1.182   2.665   4.132 -0.1146  0.5294  0.5962
 2074SOL    HW2 8068   1.275   2.684   4.135 -0.6280  3.7047 -0.5837
 2074SOL    HW3 8069   1.173   2.582   4.181  3.7635 -2.2190 -2.7036
 2074SOL    MW4 8070   1.193   2.656   4.139 -0.2659 -0.2140  0.1268
 2075SOL     OW 8071   4.157   0.906   6.056  0.3135  0.1672  0.9123
 2075SOL    HW2 8072   4.173   0.912   6.150  1.2838 -2.2598  0.9740
 2075SOL    HW3 8073   4.214   0.974   6.018  0.8378  0.3667  1.9987
 2075SOL    MW4 8074   4.167   0.916   6.063 -0.3945 -0.9283  0.3675
 2076SOL     OW 8075   1.747   4.281   1.164 -0.5261  0.2528  0.4395
 2076SOL    HW2 8076   1.672   4.222   1.165 -0.3980  0.0958  1.2134
 2076SOL    HW3 8077   1.746   4.319   1.076 -0.2901 -1.2824 -0.2577
 2076SOL    MW4 8078   1.737   4.279   1.152 -0.2758  0.1420  0.6387
 2077SOL     OW 8079   0.253   2.041   1.741  0.2065 -0.0327 -0.1323
 2077SOL    HW2 8080   0.277   2.126   1.777 -2.3428  1.2556 -1.2077
 2077SOL    HW3 8081   0.319   2.024   1.674  1.3851  0.5532  0.8582
 2077SOL    MW4 8082   0.265   2.050   1.737  0.5117 -0.8451  0.6608
 2078SOL     OW 8083   3.141   0.553   5.903 -0.4006  0.2066 -0.5188
 2078SOL    HW2 8084   3.144   0.459   5.922 -0.1503  0.5339  1.3066
 2078SOL    HW3 8085   3.051   0.579   5.923 -0.2109  0.5192 -0.0466
 2078SOL    MW4 8086   3.130   0.544   5.909 -0.5927 -0.5237  0.2352
 2079SOL     OW 8087   5.083   5.325   3.190  1.4054 -0.3204  0.5044
 2079SOL    HW2 8088   5.104   5.375   3.268  0.6036  2.1123 -0.7281
 2079SOL    HW3 8089   5.131   5.368   3.119 -0.3430 -0.4153 -0.8309
 2079SOL    MW4 8090   5.092   5.337   3.191 -0.5850  0.0612  0.0337
 2080SOL     OW 8091   3.612   5.689   3.990  0.2374  0.1441  0.2608
 2080SOL    HW2 8092   3.591   5.629   4.062  0.4852  0.5246  0.6531
 2080SOL    HW3 8093   3.546   5.670   3.923  0.5871 -0.8857  0.1907
 2080SOL    MW4 8094   3.601   5.678   3.991 -0.7633  0.2734 -0.3548
 2081SOL     OW 8095   2.030   2.415   2.826  0.4363 -0.0268  0.8293
 2081SOL    HW2 8096   1.969   2.393   2.755  1.0839  2.3245 -0.5696
 2081SOL    HW3 8097   2.105   2.357   2.812  0.3929  0.1498 -0.2372
 2081SOL    MW4 8098   2.032   2.405   2.814 -0.0502 -0.3469  0.2339
 2082SOL     OW 8099   2.572   0.074   4.578  0.2702 -0.2430  0.9095
 2082SOL    HW2 8100   2.533  -0.011   4.561  1.0960 -0.5399  0.4465
 2082SOL    HW3 8101   2.614   0.064   4.664  1.2004 -0.6186  0.4218
 2082SOL    MW4 8102   2.573   0.062   4.587  0.4872  0.5535  0.0582
 2083SOL     OW 8103   5.154   0.776   5.872  0.2912 -0.3619  0.3110
 2083SOL    HW2 8104   5.220   0.846   5.877 -0.6681  0.8277 -2.0166
 2083SOL    HW3 8105   5.149   0.742   5.961  2.0262  1.3967  1.1732
 2083SOL    MW4 8106   5.162   0.781   5.885  0.4133  0.4125  0.5039
 2084SOL     OW 8107   3.205   4.860   5.678 -0.3742 -0.4848  0.2462
 2084SOL    HW2 8108   3.177   4.872   5.587 -0.6888 -0.3347  0.3616
 2084SOL    HW3 8109   3.206   4.948   5.715 -3.9404 -0.8014  1.4700
 2084SOL    MW4 8110   3.201   4.873   5.671 -0.1487 -0.2283 -0.0983
 2085SOL     OW 8111   4.665   4.831   0.416  0.3054  0.7191  0.0130
 2085SOL    HW2 8112   4.672   4.752   0.471  0.3851  1.7738  1.5672
 2085SOL    HW3 8113   4.734   4.889   0.449  1.9127  0.5405 -2.7333
 2085SOL    MW4 8114   4.675   4.828   0.428  0.0555 -0.2216  0.1850
 2086SOL     OW 8115   4.828   2.244   0.364  0.0057  0.0917  0.0444
 2086SOL    HW2 8116   4.860   2.226   0.275  1.0376  0.6484  0.2852
 2086SOL    HW3 8117   4.807   2.158   0.400 -2.8695 -0.0063 -1.5830
 2086SOL    MW4 8118   4.830   2.230   0.357  0.0803 -0.1810 -0.4454
 2087SOL     OW 8119   4.333   3.278   4.640 -0.1324  0.1740  0.3221
 2087SOL    HW2 8120   4.389   3.208   4.606  1.4663  0.3967  2.3285
 2087SOL    HW3 8121   4.258   3.278   4.581  1.1489 -1.3026 -1.4599
 2087SOL    MW4 8122   4.331   3.269   4.628  0.1590  0.3802 -0.1704
 2088SOL     OW 8123   1.645   4.346   5.840 -0.6731  0.0507 -0.6218
 2088SOL    HW2 8124   1.621   4.263   5.800 -0.3626 -0.0786 -0.5421
 2088SOL    HW3 8125   1.653   4.407   5.767 -0.0349 -0.2024 -0.7717
 2088SOL    MW4 8126   1.643   4.343   5.825 -0.6649 -0.3066  0.5256
 2089SOL     OW 8127   0.729   1.812   4.510  0.2409 -0.1875 -0.1592
 2089SOL    HW2 8128   0.816   1.849   4.496 -0.4840  0.9799 -2.1239
 2089SOL    HW3 8129   0.677   1.885   4.544 -0.3358 -0.4031 -0.5536
 2089SOL    MW4 8130   0.733   1.826   4.512 -0.2851 -0.2385 -0.0354
 2090SOL     OW 8131   3.504   3.984   2.265 -0.3330  0.2000  0.0825
 2090SOL    HW2 8132   3.475   3.955   2.178  1.6882  2.5084 -1.4851
 2090SOL    HW3 8133   3.489   4.079   2.265  3.5612  0.9946  0.4921
 2090SOL    MW4 8134   3.498   3.993   2.253 -0.4185 -0.0115 -0.0907
 2091SOL     OW 8135   2.706   0.274   1.333  0.3695 -0.0092  0.5000
 2091SOL    HW2 8136   2.774   0.255   1.269 -1.0041 -1.1558 -0.6937
 2091SOL    HW3 8137   2.754   0.292   1.414  2.0863 -0.2850 -0.4025
 2091SOL    MW4 8138   2.721   0.274   1.335  0.2844 -0.5130  0.3296
 2092SOL     OW 8139   4.490   5.713   3.892  0.1423  0.0676  0.1326
 2092SOL    HW2 8140   4.448   5.770   3.827  1.2039  0.7040 -0.0232
 2092SOL    HW3 8141   4.469   5.624   3.864 -0.2682  0.3577 -0.4964
 2092SOL    MW4 8142   4.482   5.709   3.880 -0.4338  0.4304 -0.0575
 2093SOL     OW 8143   1.452   0.425   5.469  0.2147  0.0924  0.9217
 2093SOL    HW2 8144   1.522   0.363   5.489 -0.7136 -0.9163  1.0713
 2093SOL    HW3 8145   1.377   0.371   5.446 -0.4003  1.1703  0.3038
 2093SOL    MW4 8146   1.451   0.410   5.468  0.0211 -0.8966 -0.0667
 2094SOL     OW 8147   0.381   0.343   3.097 -0.0111 -0.7667 -0.2528
 2094SOL    HW2 8148   0.415   0.307   3.179  0.2365  0.9174  0.4064
 2094SOL    HW3 8149   0.442   0.312   3.030  0.0477 -1.7666  0.2365
 2094SOL    MW4 8150   0.393   0.334   3.099  0.0037 -0.1638  0.4090
 2095SOL     OW 8151   3.513   2.700   1.557  0.3431  0.1326  0.2544
 2095SOL    HW2 8152   3.434   2.649   1.539 -0.2710  0.8656  0.7728
 2095SOL    HW3 8153   3.574   2.637   1.596  0.9776 -1.0244 -2.4236
 2095SOL    MW4 8154   3.510   2.685   1.560 -0.1901  0.6535 -0.5546
 2096SOL     OW 8155   0.411   1.499   1.362  0.0985  0.0768 -0.2201
 2096SOL    HW2 8156   0.329   1.536   1.393 -0.1089 -1.5852  1.4415
 2096SOL    HW3 8157   0.385   1.427   1.305  0.3832 -0.2077  0.0022
 2096SOL    MW4 8158   0.397   1.494   1.359 -0.0763  0.2943 -0.3278
 2097SOL     OW 8159   5.918   0.708   5.643 -0.3977 -0.2755 -0.1023
 2097SOL    HW2 8160   5.937   0.712   5.549 -1.7221  1.8757 -0.3696
 2097SOL    HW3 8161   5.839   0.762   5.653 -1.3027 -1.8312  2.0315
 2097SOL    MW4 8162   5.910   0.716   5.632  0.0039  0.1358 -0.3836
 2098SOL     OW 8163   5.361   5.588   3.501 -0.1445  0.3691  0.1745
 2098SOL    HW2 8164   5.302   5.654   3.464  0.5011  1.1595  0.5108
 2098SOL    HW3 8165   5.329   5.575   3.591 -0.3355  0.1522  0.0737
 2098SOL    MW4 8166   5.349   5.595   3.508 -0.3239 -0.2613  0.7286
 2099SOL     OW 8167   2.090   1.202   4.440  0.1952 -0.3321  0.3872
 2099SOL    HW2 8168   2.018   1.176   4.499 -1.1689  3.0921  0.4734
 2099SOL    HW3 8169   2.168   1.196   4.495 -0.6183 -0.1666  1.6265
 2099SOL    MW4 8170   2.091   1.198   4.455 -0.1456 -0.0888 -0.1593
 2100SOL     OW 8171   1.492   6.023   4.457  0.1409  0.3046  0.5426
 2100SOL    HW2 8172   1.469   6.110   4.423 -0.6290 -0.6090 -1.3590
 2100SOL    HW3 8173   1.418   5.968   4.434  1.1725 -1.1548  0.6305
 2100SOL    MW4 8174   1.479   6.027   4.450  0.3676 -0.2681 -0.4494
 2101SOL     OW 8175   0.366   4.687   4.517 -0.1580 -0.3479  0.0802
 2101SOL    HW2 8176   0.344   4.649   4.602  1.2454 -0.1051  0.5773
 2101SOL    HW3 8177   0.360   4.782   4.532  3.3615 -0.1142  0.9615
 2101SOL    MW4 8178   0.362   4.695   4.530  0.3400  0.0911  0.7610
 2102SOL     OW 8179   4.750   3.456   2.856  0.0126  0.4804 -0.3396
 2102SOL    HW2 8180   4.700   3.440   2.776 -0.3413  0.0567 -0.0341
 2102SOL    HW3 8181   4.770   3.369   2.890 -1.3935  0.6363  0.9990
 2102SOL    MW4 8182   4.746   3.443   2.850 -0.0265 -0.8141 -0.2358
 2103SOL     OW 8183   0.937   2.700   1.802 -0.3428  0.1295 -0.4559
 2103SOL    HW2 8184   0.931   2.604   1.799  1.7421 -0.1538  1.4603
 2103SOL    HW3 8185   0.868   2.726   1.863  0.3881 -0.4127  0.6538
 2103SOL    MW4 8186   0.927   2.691   1.810  0.2513  0.1158  0.2668
 2104SOL     OW 8187   4.269   0.071   3.724 -0.0166 -0.2558 -0.1493
 2104SOL    HW2 8188   4.209   0.003   3.694  1.4907 -0.6368 -2.4935
 2104SOL    HW3 8189   4.321   0.029   3.793 -0.9371 -0.5901  0.3557
 2104SOL    MW4 8190   4.268   0.057   3.729  0.5527  0.4877  0.1321
 2105SOL     OW 8191   3.749   0.228   1.331  0.1386  0.4677  0.0730
 2105SOL    HW2 8192   3.727   0.249   1.421 -0.7760  0.5289 -0.1527
 2105SOL    HW3 8193   3.674   0.259   1.280  0.4305  0.0146 -0.6527
 2105SOL    MW4 8194   3.736   0.235   1.336 -0.3937 -0.1894 -0.3598
 2106SOL     OW 8195   2.964   6.037   2.139 -0.4215 -0.1747  0.6346
 2106SOL    HW2 8196   3.055   6.034   2.168  0.4230  0.0702 -1.7639
 2106SOL    HW3 8197   2.957   5.965   2.076 -1.3847  0.8873 -0.5201
 2106SOL    MW4 8198   2.975   6.027   2.135 -0.3340 -0.1316 -0.1670
 2107SOL     OW 8199   1.930   5.654   2.833 -0.0988 -0.1461 -0.2728
 2107SOL    HW2 8200   1.839   5.675   2.809 -0.0842 -0.8540 -0.9586
 2107SOL    HW3 8201   1.928   5.650   2.929 -0.3656  1.7293 -0.1507
 2107SOL    MW4 8202   1.918   5.656   2.842 -0.1508  0.4211  0.5524
 2108SOL     OW 8203   5.221   3.686   2.441  0.2399 -0.0815  0.3969
 2108SOL    HW2 8204   5.268   3.740   2.505 -3.2957  4.4756 -0.3883
 2108SOL    HW3 8205   5.150   3.646   2.491  1.7434 -2.8177  0.5701
 2108SOL    MW4 8206   5.218   3.688   2.456  0.4424 -0.0542 -0.4752
 2109SOL     OW 8207   1.222   6.085   2.995 -0.2127  0.2037 -0.1842
 2109SOL    HW2 8208   1.244   6.033   3.073  0.5853 -0.9116 -1.1130
 2109SOL    HW3 8209   1.138   6.051   2.966 -0.2346  0.2160 -0.1347
 2109SOL    MW4 8210   1.214   6.074   3.001 -0.0173 -0.0650  0.3761
 2110SOL     OW 8211   0.846   1.779   1.114  0.2644 -0.1753 -0.7999
 2110SOL    HW2 8212   0.755   1.748   1.110  0.5419 -0.9692 -1.1172
 2110SOL    HW3 8213   0.889   1.719   1.175  0.6711 -0.0363 -0.9494
 2110SOL    MW4 8214   0.840   1.767   1.122 -0.4143  0.2414  0.1053
 2111SOL     OW 8215   5.831   3.005   1.814  0.1849 -0.3607  0.7649
 2111SOL    HW2 8216   5.926   2.996   1.821  0.3419  0.7042  0.2138
 2111SOL    HW3 8217   5.819   3.077   1.752 -0.9820  0.2410  1.6793
 2111SOL    MW4 8218   5.842   3.013   1.807  0.6943 -0.5577 -0.4061
 2112SOL     OW 8219   5.685   1.093   6.089  0.1227  0.2148  0.1887
 2112SOL    HW2 8220   5.688   1.188   6.094 -0.1668  0.2569 -0.3162
 2112SOL    HW3 8221   5.656   1.075   5.999  0.6633 -0.3554  0.1240
 2112SOL    MW4 8222   5.682   1.103   6.078 -0.4051  0.5341 -0.0213
 2113SOL     OW 8223   5.356   0.621   0.588  0.0103 -0.5333 -0.1240
 2113SOL    HW2 8224   5.413   0.668   0.649  0.2385 -0.5292 -0.3404
 2113SOL    HW3 8225   5.373   0.529   0.606 -1.1070 -0.5565  0.9364
 2113SOL    MW4 8226   5.366   0.615   0.599 -0.0606 -0.6598  0.4864
 2114SOL     OW 8227   2.447   4.327   1.912  0.0657 -0.5125 -0.6104
 2114SOL    HW2 8228   2.506   4.328   1.837  0.3239 -0.4986 -0.4077
 2114SOL    HW3 8229   2.483   4.391   1.972 -0.0248 -0.6734 -0.3840
 2114SOL    MW4 8230   2.459   4.335   1.910  0.3379 -0.0892  0.2020
 2115SOL     OW 8231   4.229   0.360   3.798 -0.7567 -0.6546  1.4137
 2115SOL    HW2 8232   4.166   0.406   3.743  0.0476  0.6507  1.5597
 2115SOL    HW3 8233   4.225   0.269   3.768 -0.0734  0.0699 -1.0737
 2115SOL    MW4 8234   4.220   0.354   3.787 -0.0942 -0.1768  0.0083
 2116SOL     OW 8235   2.865   1.010   6.306 -0.1569  0.2725 -0.6333
 2116SOL    HW2 8236   2.783   1.008   6.357  0.2221  1.1030  0.0337
 2116SOL    HW3 8237   2.861   1.093   6.259  0.2957  0.3126 -0.6048
 2116SOL    MW4 8238   2.853   1.021   6.307 -0.0200  0.5857 -0.0973
 2117SOL     OW 8239   1.253   5.688   3.385  0.1346  0.1370  0.1622
 2117SOL    HW2 8240   1.231   5.627   3.456 -2.2014  1.8517  1.0486
 2117SOL    HW3 8241   1.335   5.655   3.350 -0.1264 -2.4788  1.7343
 2117SOL    MW4 8242   1.261   5.676   3.390 -0.1667 -0.0801  0.2791
 2118SOL     OW 8243   5.858   3.307   1.199  0.4230 -0.0045  0.0399
 2118SOL    HW2 8244   5.949   3.336   1.197 -0.0256  1.4483 -1.7962
 2118SOL    HW3 8245   5.827   3.316   1.109 -1.5508 -0.3985  0.6221
 2118SOL    MW4 8246   5.866   3.312   1.187 -0.3241 -0.3016 -0.1200
 2119SOL     OW 8247   4.376   5.589   6.340 -0.6513  0.6157 -0.0083
 2119SOL    HW2 8248   4.371   5.586   6.435 -0.4664  0.5884  0.0000
 2119SOL    HW3 8249   4.340   5.675   6.317 -0.6203  0.6549  0.0915
 2119SOL    MW4 8250   4.371   5.600   6.349  0.3085 -0.1980 -0.1356
 2120SOL     OW 8251   5.646   1.823   2.957 -0.9589  0.1744  0.3453
 2120SOL    HW2 8252   5.620   1.768   3.031  1.0554 -1.0999  0.1969
 2120SOL    HW3 8253   5.716   1.878   2.991  0.0014 -0.4376 -0.5784
 2120SOL    MW4 8254   5.652   1.823   2.971  0.2355 -0.5106 -0.3233
 2121SOL     OW 8255   2.000   6.187   1.436 -0.1458  0.2011 -0.1006
 2121SOL    HW2 8256   2.020   6.188   1.530  0.4276 -0.3068 -0.2094
 2121SOL    HW3 8257   1.987   6.094   1.416  0.1314  0.2725 -0.6055
 2121SOL    MW4 8258   2.001   6.175   1.446 -0.5696 -0.2983 -0.0563
 2122SOL     OW 8259   1.268   5.557   1.388  0.6653 -0.5763  0.3577
 2122SOL    HW2 8260   1.298   5.594   1.471 -1.9507  1.9219  0.3559
 2122SOL    HW3 8261   1.332   5.588   1.324  0.5990  0.8004  0.9265
 2122SOL    MW4 8262   1.280   5.566   1.391  0.2874 -0.4181 -0.0193
 2123SOL     OW 8263   1.791   4.979   2.989 -0.1133  0.1829  0.0252
 2123SOL    HW2 8264   1.734   4.927   3.046 -2.2124  1.7574 -0.5352
 2123SOL    HW3 8265   1.787   4.934   2.904  0.4345 -0.3614  0.2822
 2123SOL    MW4 8266   1.783   4.966   2.985  0.0262  0.4170 -0.1078
 2124SOL     OW 8267   3.903   4.740   1.057 -0.6469 -0.3504  0.1062
 2124SOL    HW2 8268   3.950   4.798   1.116  0.4269  1.9021 -2.7214
 2124SOL    HW3 8269   3.959   4.664   1.047 -0.0715 -0.0082  0.6803
 2124SOL    MW4 8270   3.916   4.738   1.063  0.1088 -0.9403 -0.3676
 2125SOL     OW 8271   2.982   3.426   3.473 -0.3333 -0.1432  0.3935
 2125SOL    HW2 8272   2.905   3.447   3.527 -0.0853  0.2207  0.6130
 2125SOL    HW3 8273   2.946   3.383   3.395 -0.6886 -0.8143  0.9122
 2125SOL    MW4 8274   2.967   3.423   3.470 -0.3688 -0.2269  0.4924
 2126SOL     OW 8275   1.258   0.428   4.430  0.1694  0.0667  0.7294
 2126SOL    HW2 8276   1.251   0.339   4.465  3.0470 -0.6582 -0.2399
 2126SOL    HW3 8277   1.287   0.481   4.505  2.1558 -0.6375  0.5291
 2126SOL    MW4 8278   1.261   0.423   4.445 -0.2777  0.3037  0.0909
 2127SOL     OW 8279   2.308   5.493   1.490 -0.0349 -0.4279  0.4484
 2127SOL    HW2 8280   2.402   5.509   1.478 -0.1112  1.0475  1.5169
 2127SOL    HW3 8281   2.270   5.505   1.403  0.5630  0.7908  0.3319
 2127SOL    MW4 8282   2.315   5.497   1.477 -0.8613  0.0244  0.2341
 2128SOL     OW 8283   3.842   2.083   1.745  0.1476 -0.1324 -1.3297
 2128SOL    HW2 8284   3.855   2.118   1.657  0.2633 -0.6914 -1.5332
 2128SOL    HW3 8285   3.861   1.990   1.738  0.1435 -0.1869 -0.7163
 2128SOL    MW4 8286   3.846   2.076   1.733 -0.2757  0.2411 -0.1547
 2129SOL     OW 8287   3.931   1.681   2.533 -0.1244 -0.0355 -0.0889
 2129SOL    HW2 8288   3.838   1.666   2.549 -0.1474  0.6467  0.4794
 2129SOL    HW3 8289   3.972   1.673   2.619  0.4986 -1.2889 -0.4723
 2129SOL    MW4 8290   3.924   1.678   2.547  0.0330 -0.1409  0.3529
 2130SOL     OW 8291   5.960   4.466   5.557 -0.9872  0.3357  0.2873
 2130SOL    HW2 8292   5.969   4.492   5.648  1.1186  0.0531  0.2087
 2130SOL    HW3 8293   6.040   4.498   5.515 -1.0888 -1.0696 -1.0711
 2130SOL    MW4 8294   5.971   4.474   5.563  0.6514  0.4510 -0.0297
 2131SOL     OW 8295   3.845   3.385   3.242 -0.9277  0.5135 -0.2120
 2131SOL    HW2 8296   3.871   3.477   3.240  0.3046  0.1951  0.2755
 2131SOL    HW3 8297   3.798   3.375   3.324 -1.0830  0.7186 -0.2766
 2131SOL    MW4 8298   3.843   3.395   3.253 -0.2742  0.1378 -0.8978
 2132SOL     OW 8299   5.337   3.731   2.943 -0.4147 -0.2407 -0.1190
 2132SOL    HW2 8300   5.357   3.637   2.938 -1.3595 -0.4135 -0.7394
 2132SOL    HW3 8301   5.274   3.738   3.014 -1.7579 -0.3337 -1.2742
 2132SOL    MW4 8302   5.332   3.719   2.952 -0.2012  0.0469  0.3100
 2133SOL     OW 8303   2.754   0.160   0.565  0.9234  0.3701  0.8079
 2133SOL    HW2 8304   2.690   0.176   0.495 -1.1802  1.7291  2.8908
 2133SOL    HW3 8305   2.722   0.080   0.607  0.0947  1.4224  2.2799
 2133SOL    MW4 8306   2.741   0.151   0.561 -0.2585  0.1551 -0.4948
 2134SOL     OW 8307   0.986   0.996   4.039  0.0046 -0.2832 -0.0009
 2134SOL    HW2 8308   0.996   1.073   4.095  1.0595 -1.2362  1.1896
 2134SOL    HW3 8309   1.074   0.978   4.006 -0.6213  0.4011 -2.2486
 2134SOL    MW4 8310   0.999   1.003   4.042 -0.0337 -0.1940 -0.1004
 2135SOL     OW 8311   1.776   5.669   3.622 -0.2403  0.5485  0.2395
 2135SOL    HW2 8312   1.687   5.648   3.596 -0.3416  1.0676  0.1644
 2135SOL    HW3 8313   1.824   5.587   3.610 -0.4508  0.5641 -0.8446
 2135SOL    MW4 8314   1.771   5.655   3.617 -0.4723  0.2369 -0.1414
 2136SOL     OW 8315   5.125   2.209   0.920 -0.0210  0.6760 -0.2281
 2136SOL    HW2 8316   5.100   2.118   0.908 -2.1946  0.9273  1.5908
 2136SOL    HW3 8317   5.221   2.210   0.912  0.1229 -1.8897  0.4689
 2136SOL    MW4 8318   5.134   2.197   0.918 -0.4079 -0.3596 -0.1829
 2137SOL     OW 8319   0.285   3.673   1.204 -0.3762  0.3008  0.1767
 2137SOL    HW2 8320   0.236   3.648   1.283 -0.6572  1.4299  0.3696
 2137SOL    HW3 8321   0.351   3.735   1.235  0.7192 -0.6249 -0.2041
 2137SOL    MW4 8322   0.288   3.678   1.219  0.3518  0.2084 -0.1253
 2138SOL     OW 8323   3.040   4.337   0.063 -0.3058 -0.6953  0.1667
 2138SOL    HW2 8324   3.100   4.270   0.032  0.9405  0.9036 -1.0326
 2138SOL    HW3 8325   3.063   4.348   0.155  2.5193  1.0269 -0.6081
 2138SOL    MW4 8326   3.051   4.330   0.071 -0.2510 -0.5826 -0.3589
 2139SOL     OW 8327   2.603   0.182   0.318 -0.0133  0.5592  0.0103
 2139SOL    HW2 8328   2.678   0.139   0.277 -1.7066 -1.8510 -0.8202
 2139SOL    HW3 8329   2.564   0.234   0.248 -0.3654  0.0147 -0.2055
 2139SOL    MW4 8330   2.608   0.183   0.303  0.1041  0.1453 -0.0188
 2140SOL     OW 8331   3.462   2.390   2.538  0.2281  0.7227 -0.5132
 2140SOL    HW2 8332   3.511   2.357   2.613  1.1951  3.2895  0.0881
 2140SOL    HW3 8333   3.455   2.314   2.479  0.6612 -0.9891  1.5090
 2140SOL    MW4 8334   3.468   2.375   2.540  0.4994  0.4051  0.2202
 2141SOL     OW 8335   1.863   3.448   1.411  0.1825 -0.1194  0.6911
 2141SOL    HW2 8336   1.869   3.413   1.500 -1.3408 -0.5769  0.6608
 2141SOL    HW3 8337   1.813   3.381   1.363  1.7364 -0.3123 -0.7637
 2141SOL    MW4 8338   1.857   3.434   1.416 -0.0808 -0.5637  0.0719
 2142SOL     OW 8339   6.076   5.233   5.293 -0.0691 -0.1405 -0.1538
 2142SOL    HW2 8340   6.082   5.306   5.231  0.6608  0.0262  0.1033
 2142SOL    HW3 8341   6.152   5.178   5.273 -0.3129 -0.5442  0.0201
 2142SOL    MW4 8342   6.087   5.235   5.282 -0.7972 -0.1909 -0.4325
 2143SOL     OW 8343   5.261   4.415   2.828 -0.2626  0.0819  0.0620
 2143SOL    HW2 8344   5.172   4.395   2.855 -0.4500  1.0749  0.2211
 2143SOL    HW3 8345   5.312   4.339   2.855 -0.8660 -0.0085  0.9917
 2143SOL    MW4 8346   5.256   4.402   2.835 -0.0214 -1.0839  0.0215
 2144SOL     OW 8347   1.550   1.065   6.338 -0.2394 -0.5128 -0.1218
 2144SOL    HW2 8348   1.611   1.059   6.412 -1.3927  0.3919  0.9324
 2144SOL    HW3 8349   1.599   1.113   6.271  0.3360 -0.0883  0.5801
 2144SOL    MW4 8350   1.565   1.070   6.339 -0.0570 -0.3895 -0.4551
 2145SOL     OW 8351   0.928   5.164   5.256  0.3261 -0.0967  0.0986
 2145SOL    HW2 8352   1.014   5.150   5.215 -0.6876  0.2652 -2.3647
 2145SOL    HW3 8353   0.878   5.086   5.233 -0.8150  0.8964 -0.9273
 2145SOL    MW4 8354   0.933   5.152   5.247  0.6069  0.1340 -0.3153
 2146SOL     OW 8355   0.297   3.984   4.889 -0.4065 -0.1296 -0.4782
 2146SOL    HW2 8356   0.202   3.988   4.881 -0.6634  0.5811  2.0299
 2146SOL    HW3 8357   0.318   4.047   4.958  1.9552  0.0828 -1.2840
 2146SOL    MW4 8358   0.287   3.993   4.897 -0.2803  0.3473  0.1915
 2147SOL     OW 8359   5.182   3.730   4.481 -0.4598  0.5651  0.0832
 2147SOL    HW2 8360   5.188   3.824   4.498  2.1402  0.6184 -0.6430
 2147SOL    HW3 8361   5.253   3.692   4.531 -1.0487 -0.9487 -0.1828
 2147SOL    MW4 8362   5.192   3.738   4.490 -0.3730  0.4056  0.2693
 2148SOL     OW 8363   1.736   5.002   2.219 -0.6647 -0.4919 -0.3852
 2148SOL    HW2 8364   1.785   4.977   2.297 -0.5680  0.9637  0.0553
 2148SOL    HW3 8365   1.645   4.982   2.239 -0.5484 -0.8527 -0.2163
 2148SOL    MW4 8366   1.731   4.996   2.232 -0.2296 -0.1880 -0.2528
 2149SOL     OW 8367   2.306   1.560   5.616  0.3177  0.0751  0.5822
 2149SOL    HW2 8368   2.360   1.481   5.607 -0.2935 -0.4421  1.2799
 2149SOL    HW3 8369   2.217   1.526   5.628  0.2727  0.7700  2.6835
 2149SOL    MW4 8370   2.302   1.545   5.617 -0.5886 -0.4313  0.5343
 2150SOL     OW 8371   6.243   4.688   2.486  0.5005 -0.5158  0.3002
 2150SOL    HW2 8372   6.277   4.598   2.482 -0.7404 -0.9616 -0.5526
 2150SOL    HW3 8373   6.148   4.678   2.486  0.2967  0.7057  2.6576
 2150SOL    MW4 8374   6.235   4.675   2.486 -0.5438  0.4587  0.5570
 2151SOL     OW 8375   2.520   2.015   6.136 -0.6384 -0.0766  0.2284
 2151SOL    HW2 8376   2.595   2.065   6.103 -1.0868  0.6764  0.3190
 2151SOL    HW3 8377   2.548   1.984   6.222 -0.3359 -0.0124  0.1548
 2151SOL    MW4 8378   2.533   2.017   6.143 -0.6903 -0.2137  0.0966
 2152SOL     OW 8379   3.823   4.219   3.996  0.2419  0.4224 -0.4930
 2152SOL    HW2 8380   3.883   4.203   4.070 -0.4879  0.9223  0.2246
 2152SOL    HW3 8381   3.775   4.298   4.021 -1.6094 -0.6640 -0.4651
 2152SOL    MW4 8382   3.825   4.227   4.009  0.4431  0.4078 -0.0201
 2153SOL     OW 8383   3.717   3.682   4.022  0.4027 -0.2876 -0.1640
 2153SOL    HW2 8384   3.691   3.758   3.970  0.0676 -1.0585 -1.1503
 2153SOL    HW3 8385   3.663   3.688   4.101  1.0387  0.9862  0.2059
 2153SOL    MW4 8386   3.706   3.693   4.025 -0.0059  0.8143  0.3591
 2154SOL     OW 8387   2.364   3.785   3.856  0.3462 -0.3189  0.4928
 2154SOL    HW2 8388   2.438   3.845   3.848  0.1836 -0.1998 -0.1764
 2154SOL    HW3 8389   2.348   3.754   3.767  0.2052 -1.0904  0.7779
 2154SOL    MW4 8390   2.372   3.789   3.843 -0.9651  0.0067 -0.2572
 2155SOL     OW 8391   5.621   5.759   3.025  0.9335  0.0864 -0.2214
 2155SOL    HW2 8392   5.578   5.844   3.026  1.3556  0.3038  0.4120
 2155SOL    HW3 8393   5.678   5.762   2.948 -0.4188 -0.3441 -1.2745
 2155SOL    MW4 8394   5.623   5.771   3.015 -0.0340 -0.1796  0.1484
 2156SOL     OW 8395   3.753   3.763   2.424 -0.2915  0.3611  0.1421
 2156SOL    HW2 8396   3.777   3.683   2.470  0.0755 -0.0416 -0.7167
 2156SOL    HW3 8397   3.675   3.795   2.468 -1.8170 -1.7240 -0.9281
 2156SOL    MW4 8398   3.746   3.757   2.436  0.4901 -0.8746 -0.0235
 2157SOL     OW 8399   4.526   3.595   1.081  0.3066 -0.2950 -0.1604
 2157SOL    HW2 8400   4.556   3.680   1.048 -0.2122  0.8195  2.0548
 2157SOL    HW3 8401   4.569   3.586   1.166 -3.4374  0.1798  1.9922
 2157SOL    MW4 8402   4.536   3.605   1.088  0.8097 -0.0827 -0.0268
 2158SOL     OW 8403   6.345   4.088   2.390 -0.1345 -0.4206  0.0890
 2158SOL    HW2 8404   6.373   3.997   2.380 -2.4149 -1.6148  2.9949
 2158SOL    HW3 8405   6.271   4.097   2.329  0.2720 -0.3884 -0.4076
 2158SOL    MW4 8406   6.339   4.077   2.381  0.2085  0.2368 -0.0968
 2159SOL     OW 8407   4.800   0.055   0.142  0.4120 -0.2723 -0.3130
 2159SOL    HW2 8408   4.770  -0.035   0.159  0.2464 -0.1762 -0.1010
 2159SOL    HW3 8409   4.875   0.044   0.083  2.0003 -0.7008  1.6899
 2159SOL    MW4 8410   4.806   0.041   0.136  0.0808  0.6023  0.1977
 2160SOL     OW 8411   0.502   5.009   1.879  0.0506  0.4507  0.4914
 2160SOL    HW2 8412   0.558   5.038   1.951 -1.6153 -0.1802  2.1145
 2160SOL    HW3 8413   0.474   4.921   1.905  1.1479 -0.7296 -2.0163
 2160SOL    MW4 8414   0.506   5.001   1.892 -0.4417 -0.3064 -0.6745
 2161SOL     OW 8415   2.090   0.072   4.108  0.4179  0.0680  0.7023
 2161SOL    HW2 8416   2.163   0.134   4.101  0.7832 -0.1147  2.2870
 2161SOL    HW3 8417   2.110   0.021   4.187 -1.0298 -0.5354  0.7146
 2161SOL    MW4 8418   2.103   0.073   4.118 -0.4381 -0.0666  0.0375
 2162SOL     OW 8419   3.730   6.272   0.734  0.5245 -0.2993 -0.2304
 2162SOL    HW2 8420   3.658   6.318   0.692  0.3033 -0.2595  0.1941
 2162SOL    HW3 8421   3.714   6.281   0.828  0.5414 -1.1374 -0.1389
 2162SOL    MW4 8422   3.718   6.279   0.741 -0.5678  0.5914 -1.3379
 2163SOL     OW 8423   3.363   4.485   1.573 -0.1314  0.0457  0.4289
 2163SOL    HW2 8424   3.456   4.506   1.587 -0.4141  0.5004  1.7067
 2163SOL    HW3 8425   3.364   4.428   1.496  1.2786 -0.4970  0.7996
 2163SOL    MW4 8426   3.376   4.480   1.564  0.1667 -0.3612 -0.3519
 2164SOL     OW 8427   5.976   3.814   0.623  0.0421 -0.2457 -0.1384
 2164SOL    HW2 8428   6.046   3.823   0.687  1.0390  0.1470 -1.2522
 2164SOL    HW3 8429   5.927   3.737   0.653  1.3211 -0.9216  0.3255
 2164SOL    MW4 8430   5.979   3.805   0.636 -0.1814  0.3121 -0.1720
 2165SOL     OW 8431   4.849   2.172   4.442  0.4667  0.0068  0.6537
 2165SOL    HW2 8432   4.934   2.152   4.480 -0.9733  0.3868  4.5077
 2165SOL    HW3 8433   4.842   2.267   4.447 -0.0385  0.0189 -0.0606
 2165SOL    MW4 8434   4.859   2.182   4.447 -0.1131 -0.7835 -0.7763
 2166SOL     OW 8435   2.959   3.265   1.389  0.0766  0.5281 -0.5304
 2166SOL    HW2 8436   3.043   3.286   1.431 -1.2569  2.4872  1.4066
 2166SOL    HW3 8437   2.979   3.262   1.296  2.8555 -2.2054 -0.0058
 2166SOL    MW4 8438   2.973   3.268   1.383  0.0419 -0.1210  0.1170
 2167SOL     OW 8439   3.187   3.940   4.424 -0.0912  0.4027  0.2959
 2167SOL    HW2 8440   3.169   4.022   4.378 -1.2767 -0.6510 -1.2262
 2167SOL    HW3 8441   3.281   3.944   4.444 -0.0790  2.0207  0.0678
 2167SOL    MW4 8442   3.197   3.952   4.421  0.5629  0.1942 -0.3866
 2168SOL     OW 8443   4.721   5.452   4.027  0.2417 -0.1583  0.1355
 2168SOL    HW2 8444   4.762   5.369   4.050  0.3160 -0.3262 -0.5669
 2168SOL    HW3 8445   4.678   5.481   4.107  1.2490 -0.2642  0.7196
 2168SOL    MW4 8446   4.720   5.445   4.040  0.2863  0.1117  0.2469
 2169SOL     OW 8447   2.653   6.199   3.813 -0.1544 -0.2572  0.0015
 2169SOL    HW2 8448   2.641   6.259   3.739  2.5661  0.5155  0.0621
 2169SOL    HW3 8449   2.583   6.222   3.874 -0.9846  0.7687 -1.2698
 2169SOL    MW4 8450   2.642   6.210   3.811  0.3487  0.4927 -0.4696
 2170SOL     OW 8451   5.766   2.417   0.005  0.0606 -0.0681 -0.2392
 2170SOL    HW2 8452   5.816   2.452  -0.069  0.4881  0.1154  0.1260
 2170SOL    HW3 8453   5.763   2.489   0.067  2.4908 -1.1391  1.3012
 2170SOL    MW4 8454   5.772   2.431   0.003 -0.0488 -0.1946 -0.3489
 2171SOL     OW 8455   0.136   0.499   0.638  0.4328  0.1558  0.1429
 2171SOL    HW2 8456   0.140   0.426   0.699  0.4957  0.6248  0.7160
 2171SOL    HW3 8457   0.063   0.553   0.670  1.4198  1.1928  0.7411
 2171SOL    MW4 8458   0.127   0.497   0.651 -0.0246  0.6561 -0.6679
 2172SOL     OW 8459   6.066   4.664   0.002 -0.0766  0.1378  0.8934
 2172SOL    HW2 8460   6.140   4.622   0.046  1.2636 -1.0155 -2.1265
 2172SOL    HW3 8461   6.104   4.701  -0.078 -2.8452 -1.1694 -1.1877
 2172SOL    MW4 8462   6.081   4.663  -0.003  0.1995 -0.0470  0.0071
 2173SOL     OW 8463   6.002   1.805   5.411  0.0109  0.1125  0.3139
 2173SOL    HW2 8464   5.948   1.727   5.403 -0.6815  0.4885  1.1370
 2173SOL    HW3 8465   5.945   1.877   5.384  0.1841  0.4819  0.9113
 2173SOL    MW4 8466   5.987   1.804   5.406 -0.2945 -0.5103 -0.1552
 2174SOL     OW 8467   0.717   2.478   2.500  0.2402  0.0237 -0.0849
 2174SOL    HW2 8468   0.772   2.454   2.425  1.2159  0.9229  0.3135
 2174SOL    HW3 8469   0.671   2.556   2.472  0.9124  0.5973  0.3742
 2174SOL    MW4 8470   0.718   2.485   2.486  0.1115  0.2609 -0.6334
 2175SOL     OW 8471   2.586   1.166   3.973  0.2121  0.1004  0.4231
 2175SOL    HW2 8472   2.561   1.196   4.060  1.6891  0.3429  0.7874
 2175SOL    HW3 8473   2.594   1.071   3.982 -3.0096 -0.3913 -0.3658
 2175SOL    MW4 8474   2.583   1.157   3.986 -0.6589 -0.0477 -0.1479
 2176SOL     OW 8475   4.209   2.193   0.654  0.6868  0.3361  0.3399
 2176SOL    HW2 8476   4.285   2.244   0.682  0.2879  0.6667  0.8343
 2176SOL    HW3 8477   4.238   2.102   0.659  0.4654  0.3277  2.4443
 2176SOL    MW4 8478   4.223   2.188   0.659 -0.5370 -0.0873  0.1988
 2177SOL     OW 8479   1.003   5.600   3.979  0.0016 -0.6715  0.0381
 2177SOL    HW2 8480   1.088   5.635   4.005  0.5512 -0.3728 -1.9897
 2177SOL    HW3 8481   0.981   5.538   4.048  0.7622  0.9297  1.7912
 2177SOL    MW4 8482   1.012   5.596   3.991 -0.2651 -0.2323  0.4988
 2178SOL     OW 8483   0.967   3.707   5.358  0.0329 -0.2808  0.2355
 2178SOL    HW2 8484   0.972   3.640   5.290 -0.3339 -0.7732  0.6884
 2178SOL    HW3 8485   1.057   3.712   5.393  0.4143  0.5452 -0.8097
 2178SOL    MW4 8486   0.980   3.699   5.354 -0.4398  0.0048 -0.7525
 2179SOL     OW 8487   2.286   4.981   0.952  0.2269 -0.0541  0.1159
 2179SOL    HW2 8488   2.305   4.890   0.972 -0.1074 -0.0792  0.3068
 2179SOL    HW3 8489   2.195   4.982   0.923  0.0449  0.3080  0.6881
 2179SOL    MW4 8490   2.277   4.969   0.951 -0.1846 -0.2719  0.2554
 2180SOL     OW 8491   4.293   4.249   0.719  0.4393 -0.2579  0.6871
 2180SOL    HW2 8492   4.298   4.302   0.799  1.0395 -0.3070  0.6896
 2180SOL    HW3 8493   4.222   4.289   0.668  2.6621  2.4025 -0.6202
 2180SOL    MW4 8494   4.284   4.261   0.723 -0.3020  0.4385 -0.6006
 2181SOL     OW 8495   3.959   3.534   5.449 -0.6711  0.0767 -0.2447
 2181SOL    HW2 8496   4.002   3.577   5.523  1.1795 -2.5773  0.3849
 2181SOL    HW3 8497   3.981   3.588   5.374  2.0427  0.0621  0.4107
 2181SOL    MW4 8498   3.968   3.546   5.449  0.1943  0.4278  0.7939
 2182SOL     OW 8499   1.230   1.632   5.945  0.6380 -0.5025  0.2630
 2182SOL    HW2 8500   1.300   1.571   5.968  1.7032  1.0703  1.3792
 2182SOL    HW3 8501   1.151   1.577   5.941  1.6891 -2.0928  0.2976
 2182SOL    MW4 8502   1.228   1.616   5.947 -0.2654  0.1316  0.2859
 2183SOL     OW 8503   1.092   1.779   3.873  0.2745 -0.0822  1.1416
 2183SOL    HW2 8504   1.032   1.708   3.850  1.4234 -0.9217  0.5882
 2183SOL    HW3 8505   1.067   1.804   3.961 -0.2388 -1.1187  1.3089
 2183SOL    MW4 8506   1.081   1.773   3.881  0.2882  0.1174 -0.0170
 2184SOL     OW 8507   1.091   4.767   3.557 -0.2160  0.1745  0.3595
 2184SOL    HW2 8508   1.052   4.767   3.470 -2.7912  0.7495  1.4029
 2184SOL    HW3 8509   1.020   4.798   3.614  1.2651 -0.5215  2.6961
 2184SOL    MW4 8510   1.076   4.771   3.553  0.2285 -0.5333  0.1167
 2185SOL     OW 8511   2.555   0.600   5.660  0.0301  0.1514 -0.5305
 2185SOL    HW2 8512   2.563   0.672   5.723  0.2401 -0.7497  0.5036
 2185SOL    HW3 8513   2.645   0.573   5.643  0.0089  0.7583 -1.6762
 2185SOL    MW4 8514   2.568   0.606   5.666  0.1839 -0.7306 -0.6692
 2186SOL     OW 8515   5.239   2.827   4.527  0.4580 -0.1611  0.7855
 2186SOL    HW2 8516   5.223   2.920   4.540 -1.2465 -0.5591  1.8556
 2186SOL    HW3 8517   5.199   2.785   4.603 -0.6078 -1.8995 -0.6518
 2186SOL    MW4 8518   5.231   2.834   4.539  0.1861 -0.2294  0.0942
 2187SOL     OW 8519   5.038   0.540   3.151 -0.5658  0.1009  0.0106
 2187SOL    HW2 8520   5.123   0.514   3.188 -0.4324  1.6721  0.8831
 2187SOL    HW3 8521   4.999   0.457   3.123  0.3266 -0.9150  1.5876
 2187SOL    MW4 8522   5.044   0.526   3.152  0.0977 -0.1270 -0.4496
 2188SOL     OW 8523   1.018   6.147   3.365 -0.1492 -0.5095  0.1340
 2188SOL    HW2 8524   0.959   6.076   3.343 -0.7331 -0.6301  1.9006
 2188SOL    HW3 8525   0.990   6.220   3.310 -1.6261 -0.7168  0.5641
 2188SOL    MW4 8526   1.007   6.147   3.355 -0.1249  0.5955 -0.5999
 2189SOL     OW 8527   5.297   4.854   4.261  0.2985 -0.0119  0.1074
 2189SOL    HW2 8528   5.208   4.864   4.293 -0.4082 -0.1657 -1.7006
 2189SOL    HW3 8529   5.326   4.770   4.297  0.3588  0.7902  2.0518
 2189SOL    MW4 8530   5.289   4.844   4.270 -0.1389  0.4975 -0.1042
 2190SOL     OW 8531   5.132   3.112   3.824 -0.8537  0.0992 -0.0842
 2190SOL    HW2 8532   5.096   3.183   3.878  1.4107  0.5942  0.8873
 2190SOL    HW3 8533   5.200   3.154   3.771  0.0383 -1.1982 -0.0033
 2190SOL    MW4 8534   5.136   3.127   3.824  0.1630  0.5356 -0.4016
 2191SOL     OW 8535   4.748   2.243   3.008  0.2808  0.2617 -0.0217
 2191SOL    HW2 8536   4.807   2.261   3.081  1.1405  1.5943 -0.9980
 2191SOL    HW3 8537   4.789   2.169   2.962 -0.8326 -1.3069  1.4032
 2191SOL    MW4 8538   4.761   2.236   3.012  0.5946  0.2756 -0.2929
 2192SOL     OW 8539   4.377   1.919   2.605  0.1479  0.0641  0.3674
 2192SOL    HW2 8540   4.411   1.935   2.517 -0.5624  0.5961  0.1745
 2192SOL    HW3 8541   4.386   1.825   2.618 -0.1842 -0.0879 -0.4618
 2192SOL    MW4 8542   4.383   1.909   2.595 -0.1701 -0.3709  0.0516
 2193SOL     OW 8543   5.249   5.355   2.990 -0.6416 -0.2530 -0.0791
 2193SOL    HW2 8544   5.335   5.319   3.012  0.0065  1.4379  0.3633
 2193SOL    HW3 8545   5.269   5.425   2.926 -1.7487 -0.2110 -0.3926
 2193SOL    MW4 8546   5.263   5.360   2.984  0.3244  0.1537  0.6028
 2194SOL     OW 8547   0.346   2.027   4.302  0.3396 -0.3990  0.3688
 2194SOL    HW2 8548   0.312   2.050   4.388  0.5809  0.8429  0.1400
 2194SOL    HW3 8549   0.355   1.931   4.305  0.3565 -0.3710  1.7137
 2194SOL    MW4 8550   0.342   2.017   4.314  0.0177  0.2317 -0.8738
 2195SOL     OW 8551   3.436   3.896   4.532  0.1333 -0.2386  0.3783
 2195SOL    HW2 8552   3.526   3.914   4.503  0.2384  0.7374  1.2276
 2195SOL    HW3 8553   3.427   3.948   4.612 -1.2152 -0.2835  0.2675
 2195SOL    MW4 8554   3.447   3.905   4.539 -0.4742 -0.0510  0.5220
 2196SOL     OW 8555   4.537   4.520   3.770  0.3377 -0.0066 -0.2065
 2196SOL    HW2 8556   4.514   4.545   3.859 -2.7748  0.7464 -1.0641
 2196SOL    HW3 8557   4.550   4.425   3.774  0.8201  0.0946  1.1263
 2196SOL    MW4 8558   4.535   4.511   3.782 -0.5717 -0.2641 -0.1364
 2197SOL     OW 8559   2.156   3.124   6.203 -0.3679 -0.1851 -0.4368
 2197SOL    HW2 8560   2.230   3.155   6.150  0.8989 -0.5158  1.0549
 2197SOL    HW3 8561   2.159   3.178   6.282 -1.2819 -0.7059 -0.0362
 2197SOL    MW4 8562   2.166   3.135   6.206 -0.1039 -0.9581 -0.3368
 2198SOL     OW 8563   0.636   4.390   0.026  0.6570 -0.3856  0.1528
 2198SOL    HW2 8564   0.572   4.459   0.043  0.0689 -0.4069 -1.7309
 2198SOL    HW3 8565   0.648   4.346   0.110  0.3063  1.3763  1.1678
 2198SOL    MW4 8566   0.629   4.393   0.040 -0.1533  0.2871  0.0890
 2199SOL     OW 8567   5.835   1.300   2.200 -0.1030  0.0119  0.6014
 2199SOL    HW2 8568   5.886   1.349   2.264 -0.1456  0.9119 -0.0360
 2199SOL    HW3 8569   5.764   1.359   2.175  1.5952  0.9723 -2.5185
 2199SOL    MW4 8570   5.832   1.315   2.205 -0.1595  0.2499 -0.1706
 2200SOL     OW 8571   4.374   4.989   2.896 -0.5734  0.0150  0.5181
 2200SOL    HW2 8572   4.423   5.065   2.926  0.3643 -0.6995  0.8615
 2200SOL    HW3 8573   4.425   4.914   2.928  0.1121 -0.7931 -2.2430
 2200SOL    MW4 8574   4.387   4.989   2.904 -0.2450 -0.1197 -0.0294
 2201SOL     OW 8575   3.591   0.539   4.785  0.0165  0.3699 -0.3127
 2201SOL    HW2 8576   3.543   0.462   4.756  0.8431 -0.3479  0.1949
 2201SOL    HW3 8577   3.662   0.549   4.722  1.8166 -1.1918  1.3425
 2201SOL    MW4 8578   3.594   0.530   4.773 -0.3687 -0.0329 -0.1046
 2202SOL     OW 8579   6.348   2.305   2.881 -0.1039 -0.6058 -0.5064
 2202SOL    HW2 8580   6.389   2.384   2.917  1.5915 -1.1326 -1.1736
 2202SOL    HW3 8581   6.288   2.276   2.949 -1.4266  1.7023 -0.5758
 2202SOL    MW4 8582   6.346   2.312   2.895 -0.5446 -0.2577  0.0804
 2203SOL     OW 8583   2.435   2.430   0.352 -0.3911 -0.5650 -0.0318
 2203SOL    HW2 8584   2.511   2.435   0.295 -0.4100 -1.1402 -0.1132
 2203SOL    HW3 8585   2.402   2.520   0.357 -0.6071 -0.5713 -1.2096
 2203SOL    MW4 8586   2.440   2.443   0.345  0.2736  0.0416 -0.1105
 2204SOL     OW 8587   2.715   3.787   6.077 -0.5689  0.4177 -0.8889
 2204SOL    HW2 8588   2.709   3.692   6.084 -0.4819  0.4048 -0.9839
 2204SOL    HW3 8589   2.804   3.808   6.106 -1.1233  0.6304  0.7600
 2204SOL    MW4 8590   2.726   3.777   6.082 -0.4340  0.3681  0.5206
 2205SOL     OW 8591   0.268   0.399   4.757  0.3425 -0.2088  0.6683
 2205SOL    HW2 8592   0.241   0.485   4.789  0.1184 -0.3216  0.7831
 2205SOL    HW3 8593   0.261   0.405   4.662 -0.7510 -0.4555  0.7231
 2205SOL    MW4 8594   0.264   0.411   4.749  0.2677  0.3248 -0.2479
 2206SOL     OW 8595   6.334   0.823   3.034  0.1353 -0.0694 -0.5466
 2206SOL    HW2 8596   6.397   0.870   3.088  0.6157 -2.0411  0.7088
 2206SOL    HW3 8597   6.360   0.842   2.944  2.1243 -0.3272 -0.0571
 2206SOL    MW4 8598   6.346   0.832   3.029 -0.0367 -0.4034 -0.0620
 2207SOL     OW 8599   4.536   2.029   3.788  0.0627 -0.8057  0.2548
 2207SOL    HW2 8600   4.462   2.042   3.848 -0.9986 -0.8231 -1.0025
 2207SOL    HW3 8601   4.524   2.096   3.721  1.4106 -0.5737  0.2214
 2207SOL    MW4 8602   4.524   2.040   3.787  0.1996 -0.3092 -0.4890
 2208SOL     OW 8603   4.910   1.856   4.620  0.2736 -0.0877 -0.1585
 2208SOL    HW2 8604   4.988   1.889   4.576 -0.8901  2.3146 -0.5810
 2208SOL    HW3 8605   4.856   1.933   4.634 -0.8073 -1.2237  2.7135
 2208SOL    MW4 8606   4.913   1.870   4.616  0.3708  0.2217  0.0588
 2209SOL     OW 8607   0.084   4.878   2.047  0.0919  0.1390 -0.4474
 2209SOL    HW2 8608   0.135   4.803   2.075  0.9159  0.3668 -1.3030
 2209SOL    HW3 8609   0.094   4.942   2.118 -1.2111 -0.8027  0.6230
 2209SOL    MW4 8610   0.092   4.877   2.060  0.0140 -0.5771  0.0498
 2210SOL     OW 8611   5.259   3.319   5.065 -0.0218  0.2150  0.0063
 2210SOL    HW2 8612   5.175   3.329   5.109 -0.5044  1.2621 -1.1039
 2210SOL    HW3 8613   5.288   3.409   5.049  1.5570 -0.1131  0.7965
 2210SOL    MW4 8614   5.252   3.332   5.069 -0.4450  0.1656 -0.2460
 2211SOL     OW 8615   2.190   6.395   6.267 -0.4922  0.2281  0.2233
 2211SOL    HW2 8616   2.252   6.458   6.304 -0.8830  0.4946  0.4351
 2211SOL    HW3 8617   2.205   6.399   6.173  0.2299 -0.1549  0.3086
 2211SOL    MW4 8618   2.200   6.403   6.259 -0.1161  0.3017 -0.2914
 2212SOL     OW 8619   3.886   3.897   4.179 -0.0402 -0.3421 -0.1824
 2212SOL    HW2 8620   3.928   3.839   4.242 -1.2572 -1.8824 -0.7187
 2212SOL    HW3 8621   3.830   3.840   4.127 -2.0962  1.4537 -0.1034
 2212SOL    MW4 8622   3.884   3.882   4.180  0.1140 -0.2871  0.1929
 2213SOL     OW 8623   3.978   2.550   1.196 -0.3488  0.2476 -0.0195
 2213SOL    HW2 8624   4.039   2.621   1.177 -0.8414  0.5907 -0.3593
 2213SOL    HW3 8625   4.013   2.508   1.274 -0.4616  1.3507  0.6428
 2213SOL    MW4 8626   3.991   2.554   1.203 -0.1747  0.1470  0.2435
 2214SOL     OW 8627   4.253   2.140   2.108  0.6589 -0.2644  0.3473
 2214SOL    HW2 8628   4.173   2.147   2.160  0.6500  0.6299  0.2209
 2214SOL    HW3 8629   4.241   2.060   2.057  0.3801 -0.7875  1.2165
 2214SOL    MW4 8630   4.241   2.130   2.108 -0.0924 -0.6150  0.2489
 2215SOL     OW 8631   1.951   1.355   4.974  0.2671 -0.0540  0.2137
 2215SOL    HW2 8632   2.025   1.357   4.915  0.2521  3.0099  0.1320
 2215SOL    HW3 8633   1.986   1.320   5.056  0.2687 -4.4136 -1.3799
 2215SOL    MW4 8634   1.965   1.350   4.977 -0.4360 -0.1042  0.3193
 2216SOL     OW 8635   0.705   4.398   5.979 -0.0808  0.4627  0.2992
 2216SOL    HW2 8636   0.700   4.303   5.970 -0.8819  0.5485 -0.3132
 2216SOL    HW3 8637   0.670   4.417   6.065  1.4611  0.1074  1.0411
 2216SOL    MW4 8638   0.700   4.388   5.989  0.0307  0.4515  0.0298
 2217SOL     OW 8639   1.747   5.899   1.922  0.2179 -1.1480 -0.5365
 2217SOL    HW2 8640   1.827   5.937   1.885 -1.2814 -0.1944 -3.0442
 2217SOL    HW3 8641   1.700   5.864   1.847 -1.4786 -2.1995  0.9430
 2217SOL    MW4 8642   1.751   5.899   1.907  0.0431  0.1538  0.3648
 2218SOL     OW 8643   4.981   3.144   0.554  0.4501 -0.3059  0.4361
 2218SOL    HW2 8644   4.977   3.226   0.506  1.7380 -0.2255  0.4420
 2218SOL    HW3 8645   4.941   3.164   0.639  0.8747  0.3425  0.4855
 2218SOL    MW4 8646   4.975   3.157   0.559 -0.1249 -0.3457  0.3120
 2219SOL     OW 8647   0.729   0.048   4.935 -0.4202 -0.2491 -0.1073
 2219SOL    HW2 8648   0.771   0.003   5.008 -1.6514  1.9772  2.1158
 2219SOL    HW3 8649   0.667  -0.017   4.900  0.9976 -1.7384  0.0203
 2219SOL    MW4 8650   0.726   0.034   4.940 -0.3237 -0.1875  0.0838
 2220SOL     OW 8651   2.913   1.098   5.224 -0.2912  0.4751  0.3595
 2220SOL    HW2 8652   2.821   1.075   5.210 -0.2617  1.0497 -0.8419
 2220SOL    HW3 8653   2.924   1.091   5.319 -1.2912 -0.6244  0.4162
 2220SOL    MW4 8654   2.902   1.094   5.235  0.7249  0.2986 -0.7961
 2221SOL     OW 8655   3.608   4.887   3.245  0.3025  0.7791 -0.2015
 2221SOL    HW2 8656   3.514   4.874   3.256 -0.0061  0.9794 -2.1956
 2221SOL    HW3 8657   3.646   4.801   3.261 -0.6362 -0.2348 -2.8672
 2221SOL    MW4 8658   3.600   4.874   3.248  0.1577  0.2950 -0.1420
 2222SOL     OW 8659   5.461   5.587   1.628  0.1716  0.0042  0.3945
 2222SOL    HW2 8660   5.395   5.590   1.558  0.3741  0.8092  0.2222
 2222SOL    HW3 8661   5.541   5.618   1.586  0.2883  0.5261  0.9843
 2222SOL    MW4 8662   5.463   5.591   1.613 -0.1963 -0.2581 -0.2107
 2223SOL     OW 8663   1.006   0.409   3.222  0.1038 -0.5618  0.0902
 2223SOL    HW2 8664   0.959   0.382   3.143  0.0958 -1.6529  0.4417
 2223SOL    HW3 8665   1.097   0.416   3.194  0.0720 -0.7560 -0.0698
 2223SOL    MW4 8666   1.012   0.406   3.207  0.5616 -0.1013 -0.1395
 2224SOL     OW 8667   6.362   5.580   2.339 -0.0461  0.2302  0.3410
 2224SOL    HW2 8668   6.340   5.669   2.312  2.5270  0.9376  0.2756
 2224SOL    HW3 8669   6.383   5.534   2.257  1.5863  0.5121  0.5614
 2224SOL    MW4 8670   6.362   5.586   2.324  0.0308 -0.3840  0.8482
 2225SOL     OW 8671   2.502   0.233   5.560  0.1548 -0.4802  0.1910
 2225SOL    HW2 8672   2.413   0.248   5.591 -0.2481  1.4098 -1.6941
 2225SOL    HW3 8673   2.527   0.150   5.601 -0.2768  1.5800  5.4193
 2225SOL    MW4 8674   2.493   0.224   5.570 -0.0884  0.2550  0.0228
 2226SOL     OW 8675   1.558   4.801   5.396 -0.1840  0.0449  0.3920
 2226SOL    HW2 8676   1.649   4.831   5.395  0.1577 -0.8535  1.7838
 2226SOL    HW3 8677   1.547   4.753   5.314  0.3147  0.8930 -0.1888
 2226SOL    MW4 8678   1.568   4.799   5.385 -0.3422 -0.0630  0.6844
 2227SOL     OW 8679   6.104   3.271   4.892 -0.2345  0.5411 -0.2346
 2227SOL    HW2 8680   6.073   3.299   4.806 -0.2822  0.4541 -0.2465
 2227SOL    HW3 8681   6.199   3.278   4.887 -0.2769  1.4502  0.0227
 2227SOL    MW4 8682   6.113   3.275   4.880  0.3797  0.2485  1.0182
 2228SOL     OW 8683   4.798   0.649   5.074  0.4218  0.3736  0.0224
 2228SOL    HW2 8684   4.880   0.690   5.100  0.6707 -0.4879  0.6423
 2228SOL    HW3 8685   4.815   0.555   5.081  0.2109  0.0881 -2.3762
 2228SOL    MW4 8686   4.811   0.642   5.078  0.1748  0.0990 -0.4724
 2229SOL     OW 8687   6.103   2.062   5.945 -0.3120  0.3910  0.1395
 2229SOL    HW2 8688   6.026   2.095   5.989 -1.9886 -1.7242 -0.9990
 2229SOL    HW3 8689   6.078   2.057   5.853  0.0970 -2.9657  0.0897
 2229SOL    MW4 8690   6.090   2.066   5.938  0.0313 -0.4091  0.6486
 2230SOL     OW 8691   3.645   4.514   5.158 -0.7520 -0.4762  0.3920
 2230SOL    HW2 8692   3.570   4.454   5.165 -0.3691 -0.8709  1.1193
 2230SOL    HW3 8693   3.714   4.461   5.119 -0.7475 -0.1986  0.0213
 2230SOL    MW4 8694   3.644   4.499   5.154  0.2251  0.8498 -0.4848
 2231SOL     OW 8695   3.793   1.295   4.564 -0.5394  0.2293  0.4570
 2231SOL    HW2 8696   3.752   1.261   4.644 -1.2985 -0.2155 -0.1104
 2231SOL    HW3 8697   3.884   1.265   4.569 -0.7387 -0.3313  0.8605
 2231SOL    MW4 8698   3.800   1.286   4.575  0.2957 -0.1824  0.0823
 2232SOL     OW 8699   5.476   0.523   2.257  0.4234 -0.0257  0.6148
 2232SOL    HW2 8700   5.391   0.530   2.213  0.3141 -0.1581  0.8022
 2232SOL    HW3 8701   5.536   0.494   2.189  0.2226 -0.3840  0.5883
 2232SOL    MW4 8702   5.473   0.521   2.243 -0.0060  0.1429  0.5164
 2233SOL     OW 8703   5.669   3.430   2.547 -0.7501 -0.1286 -0.5554
 2233SOL    HW2 8704   5.655   3.505   2.490 -2.4628 -0.4876 -0.6401
 2233SOL    HW3 8705   5.701   3.468   2.629 -0.0620  0.5345 -1.1180
 2233SOL    MW4 8706   5.671   3.445   2.550  0.1159 -0.1292  0.2057
 2234SOL     OW 8707   5.431   2.232   2.359 -0.0882  0.7551 -0.0853
 2234SOL    HW2 8708   5.375   2.282   2.418  0.7387 -0.1796  1.5708
 2234SOL    HW3 8709   5.379   2.156   2.334  0.1136  0.3251  0.7659
 2234SOL    MW4 8710   5.417   2.229   2.363 -0.0412  0.1608 -0.1633
 2235SOL     OW 8711   1.167   1.877   1.325 -0.3036  0.1249  0.6377
 2235SOL    HW2 8712   1.161   1.941   1.254  1.1741 -1.3457 -0.9082
 2235SOL    HW3 8713   1.132   1.796   1.288 -2.2968  0.0062  2.6028
 2235SOL    MW4 8714   1.162   1.875   1.311 -0.1544  0.8758 -0.3246
 2236SOL     OW 8715   5.311   4.466   0.331 -0.0765 -0.4011  0.7877
 2236SOL    HW2 8716   5.278   4.377   0.314 -0.0215 -0.5171  1.2639
 2236SOL    HW3 8717   5.292   4.481   0.424  2.4703 -1.0301  1.5053
 2236SOL    MW4 8718   5.304   4.456   0.341  0.0412  0.0838  0.1889
 2237SOL     OW 8719   0.366   2.081   3.203 -0.4295  0.1542 -0.0409
 2237SOL    HW2 8720   0.300   2.136   3.160 -0.2718 -0.4729 -1.1201
 2237SOL    HW3 8721   0.446   2.135   3.203 -0.3532  0.0527 -0.8251
 2237SOL    MW4 8722   0.368   2.095   3.198 -0.4049 -0.1349  0.1052
 2238SOL     OW 8723   5.054   3.316   0.101  0.4392 -0.0602  0.1797
 2238SOL    HW2 8724   5.050   3.406   0.069 -1.7130 -0.1829 -0.0744
 2238SOL    HW3 8725   5.147   3.294   0.100  1.1603  2.5112  1.3096
 2238SOL    MW4 8726   5.065   3.325   0.097  0.3631  0.3046 -0.2306
 2239SOL     OW 8727   3.182   1.868   5.244 -0.6392 -0.0739 -0.1837
 2239SOL    HW2 8728   3.101   1.818   5.256 -1.0735  0.6203 -0.1504
 2239SOL    HW3 8729   3.208   1.893   5.333  0.7647 -2.0317  0.0195
 2239SOL    MW4 8730   3.174   1.865   5.257  0.7513  0.1746  0.1229
 2240SOL     OW 8731   3.470   1.651   1.380 -0.3597  0.3745 -0.2234
 2240SOL    HW2 8732   3.439   1.562   1.402  0.7630 -0.0517 -0.3262
 2240SOL    HW3 8733   3.395   1.691   1.336  0.0998 -1.6415 -3.1640
 2240SOL    MW4 8734   3.456   1.644   1.377  0.0140 -0.0121  0.3217
 2241SOL     OW 8735   3.851   5.822   2.573 -0.3814 -0.8611 -0.1696
 2241SOL    HW2 8736   3.912   5.859   2.637 -0.8423 -2.5091  1.3116
 2241SOL    HW3 8737   3.772   5.875   2.581 -0.0207 -0.3051 -0.2554
 2241SOL    MW4 8738   3.849   5.834   2.583 -0.5612 -0.7412  0.0699
 2242SOL     OW 8739   2.123   1.017   0.573  0.2555 -0.0215  0.0365
 2242SOL    HW2 8740   2.172   0.980   0.499 -2.0036  1.2402 -2.2590
 2242SOL    HW3 8741   2.160   1.104   0.586  0.4322 -0.1141  0.1493
 2242SOL    MW4 8742   2.135   1.023   0.565 -0.3299 -0.4008  0.0739
 2243SOL     OW 8743   5.959   4.312   2.257  0.9075 -0.0367  0.3612
 2243SOL    HW2 8744   5.982   4.335   2.347 -0.6951  0.2506  0.7255
 2243SOL    HW3 8745   5.917   4.226   2.265  1.7350 -0.5133 -0.2657
 2243SOL    MW4 8746   5.956   4.303   2.270  0.2536  0.1025 -0.3263
 2244SOL     OW 8747   3.363   4.297   3.829 -0.6838  0.4603 -0.0152
 2244SOL    HW2 8748   3.331   4.235   3.895 -1.6703  1.3263  0.3400
 2244SOL    HW3 8749   3.454   4.272   3.815 -0.3823  0.4266  1.8600
 2244SOL    MW4 8750   3.371   4.285   3.836 -0.1345  0.7626 -0.2162
 2245SOL     OW 8751   2.428   2.961   0.911  0.3967  0.4638 -0.0175
 2245SOL    HW2 8752   2.389   2.888   0.959  1.0555  0.0940 -0.0277
 2245SOL    HW3 8753   2.364   3.032   0.918  0.0575  0.1053  0.5790
 2245SOL    MW4 8754   2.414   2.961   0.918 -0.0723  0.2663  0.2476
 2246SOL     OW 8755   0.456   0.287   1.713  0.7231 -0.8933 -0.1238
 2246SOL    HW2 8756   0.471   0.196   1.741 -1.6093 -1.8713 -1.7795
 2246SOL    HW3 8757   0.449   0.282   1.618  2.5861  1.4166 -0.4786
 2246SOL    MW4 8758   0.457   0.274   1.704 -0.1351 -0.2312 -0.5139
 2247SOL     OW 8759   3.694   1.899   6.326  0.3102  0.2309  0.3972
 2247SOL    HW2 8760   3.646   1.912   6.408  0.1559 -0.2576  0.3851
 2247SOL    HW3 8761   3.729   1.810   6.332  1.0747  0.5193  0.3268
 2247SOL    MW4 8762   3.692   1.889   6.338  0.0358 -0.1917 -0.1251
 2248SOL     OW 8763   4.533   2.791   3.644 -0.4544  0.0222  0.2812
 2248SOL    HW2 8764   4.454   2.845   3.642  0.0486  0.8576  1.5550
 2248SOL    HW3 8765   4.582   2.822   3.720  0.3507 -1.5577  0.4689
 2248SOL    MW4 8766   4.529   2.802   3.653 -0.4545  0.2485  0.2619
 2249SOL     OW 8767   4.279   6.145   5.253 -0.3660 -0.0971 -0.2954
 2249SOL    HW2 8768   4.335   6.170   5.179  0.8021 -0.6880  0.3524
 2249SOL    HW3 8769   4.312   6.197   5.326 -2.8399  2.0443 -0.5648
 2249SOL    MW4 8770   4.291   6.155   5.253 -0.0730  0.5325 -0.0103
 2250SOL     OW 8771   4.520   2.126   5.272 -0.1348  0.2480  0.2374
 2250SOL    HW2 8772   4.474   2.116   5.355  0.2497 -2.2117  0.2479
 2250SOL    HW3 8773   4.610   2.144   5.297 -0.4964  2.1650  0.2669
 2250SOL    MW4 8774   4.526   2.127   5.286  0.4668 -0.2990  0.6366
 2251SOL     OW 8775   3.983   0.191   2.115  0.0476 -0.0871 -0.0361
 2251SOL    HW2 8776   4.038   0.267   2.136 -1.3615  0.9119  0.1999
 2251SOL    HW3 8777   4.011   0.164   2.028  2.3172 -0.9381  0.8799
 2251SOL    MW4 8778   3.994   0.198   2.107 -0.4375 -0.2161  0.1850
 2252SOL     OW 8779   4.332   3.832   1.705 -0.4363 -0.6241  0.2480
 2252SOL    HW2 8780   4.390   3.886   1.650 -0.5043  0.2561  1.0059
 2252SOL    HW3 8781   4.375   3.747   1.709  0.6260 -0.1005  0.4616
 2252SOL    MW4 8782   4.346   3.828   1.698 -0.0859 -0.4220  0.3657
 2253SOL     OW 8783   5.746   1.462   1.287 -0.0997 -0.1672 -0.5146
 2253SOL    HW2 8784   5.785   1.414   1.360 -0.3101  0.4748  0.0320
 2253SOL    HW3 8785   5.663   1.495   1.321  0.6791  1.7922 -0.3890
 2253SOL    MW4 8786   5.740   1.460   1.301 -0.2359 -0.4941  0.1665
 2254SOL     OW 8787   2.134   2.360   3.676  0.4471  0.0779  0.1235
 2254SOL    HW2 8788   2.072   2.400   3.737  0.6492  0.3057  0.1872
 2254SOL    HW3 8789   2.099   2.273   3.658  0.7874 -0.2975  1.1867
 2254SOL    MW4 8790   2.121   2.354   3.682 -0.0209  0.5323 -0.1143
 2255SOL     OW 8791   1.512   2.310   4.585  0.0862  0.4050  0.1990
 2255SOL    HW2 8792   1.572   2.363   4.531 -2.1704  1.1957 -1.7303
 2255SOL    HW3 8793   1.465   2.256   4.521 -1.2368 -0.1783  1.6175
 2255SOL    MW4 8794   1.514   2.310   4.569  0.3903 -0.3175 -0.0844
 2256SOL     OW 8795   4.408   5.710   4.936  0.9390  0.2709 -0.3515
 2256SOL    HW2 8796   4.436   5.799   4.957 -0.5031  0.3029  1.6836
 2256SOL    HW3 8797   4.317   5.719   4.911  0.5172 -0.7030  0.7495
 2256SOL    MW4 8798   4.400   5.723   4.936 -0.0641 -0.0647 -0.0782
 2257SOL     OW 8799   5.111   2.290   2.891  0.0522  0.5128  0.0025
 2257SOL    HW2 8800   5.185   2.229   2.886  1.1632  1.8432 -0.2472
 2257SOL    HW3 8801   5.037   2.235   2.914  0.8144 -1.0962 -1.1895
 2257SOL    MW4 8802   5.111   2.275   2.894  0.0841  0.4072  0.0995
 2258SOL     OW 8803   0.829   5.859   4.372 -0.3878  0.2988 -0.1507
 2258SOL    HW2 8804   0.845   5.799   4.300 -0.0756  0.1897  0.0095
 2258SOL    HW3 8805   0.789   5.804   4.440 -0.0038  0.2464  0.0368
 2258SOL    MW4 8806   0.826   5.844   4.372 -0.3841 -0.5183 -0.0535
 2259SOL     OW 8807   5.440   2.461   4.394 -0.2059 -0.0516  0.0573
 2259SOL    HW2 8808   5.501   2.396   4.359  0.0117  0.4275 -0.4693
 2259SOL    HW3 8809   5.402   2.419   4.471  1.2048 -0.1520  0.7436
 2259SOL    MW4 8810   5.443   2.447   4.400  0.8733  0.1347  0.1293
 2260SOL     OW 8811   0.084   5.705   1.871  0.2748 -0.2775  0.5867
 2260SOL    HW2 8812   0.051   5.652   1.799 -2.6486  0.7297  1.0714
 2260SOL    HW3 8813   0.114   5.786   1.830  0.1838 -0.3706  0.3362
 2260SOL    MW4 8814   0.084   5.709   1.856 -0.0657 -0.5029 -0.6511
 2261SOL     OW 8815   3.932   1.086   3.386 -0.1042 -0.2037  1.0402
 2261SOL    HW2 8816   3.886   1.169   3.390 -1.7866 -1.0210  0.0717
 2261SOL    HW3 8817   3.877   1.025   3.437  1.1869 -0.7039  1.8955
 2261SOL    MW4 8818   3.919   1.089   3.393  0.3616  0.5723 -0.1503
 2262SOL     OW 8819   1.321   0.405   5.156  0.3083  0.6319  0.6610
 2262SOL    HW2 8820   1.329   0.500   5.155  0.3393  0.6341 -0.7902
 2262SOL    HW3 8821   1.246   0.386   5.100  1.5883 -0.2862 -0.8094
 2262SOL    MW4 8822   1.312   0.415   5.149  0.0201  0.0001 -0.3944
 2263SOL     OW 8823   6.215   5.105   4.163 -0.0791  0.2039 -0.3327
 2263SOL    HW2 8824   6.134   5.144   4.130 -0.6015 -0.0488  0.5994
 2263SOL    HW3 8825   6.272   5.099   4.087 -1.6187 -1.3359 -1.4388
 2263SOL    MW4 8826   6.212   5.109   4.149 -0.4621 -0.0515 -0.1609
 2264SOL     OW 8827   5.196   0.854   0.779  0.1215  1.0171 -0.1407
 2264SOL    HW2 8828   5.229   0.783   0.725 -0.7825 -1.1780  1.9751
 2264SOL    HW3 8829   5.165   0.920   0.717  1.5251 -0.1577 -2.1946
 2264SOL    MW4 8830   5.196   0.853   0.764  0.2947  0.0305  0.0394
 2265SOL     OW 8831   5.998   5.755   5.580  0.5335 -0.4448 -0.2392
 2265SOL    HW2 8832   5.928   5.815   5.554  0.3804  0.0571  1.2719
 2265SOL    HW3 8833   6.046   5.739   5.499  0.7753  1.9833 -0.6457
 2265SOL    MW4 8834   5.995   5.761   5.566  0.1595 -0.1959 -0.5916
 2266SOL     OW 8835   5.893   6.322   5.466  0.2496  0.2920  0.2212
 2266SOL    HW2 8836   5.877   6.236   5.425 -3.3578  1.5909 -1.5626
 2266SOL    HW3 8837   5.813   6.340   5.516  1.6029  1.9694  1.9384
 2266SOL    MW4 8838   5.880   6.313   5.467 -0.1704  0.0989 -0.3560
 2267SOL     OW 8839   0.184   1.844   3.139  0.5128  0.9554  0.0789
 2267SOL    HW2 8840   0.218   1.851   3.050  1.4849  1.0185  0.4408
 2267SOL    HW3 8841   0.119   1.773   3.134  1.2230  0.3204 -0.4925
 2267SOL    MW4 8842   0.180   1.835   3.127 -0.5491  0.1241  0.5186
 2268SOL     OW 8843   3.567   1.163   6.197 -0.7242  0.7078  0.5673
 2268SOL    HW2 8844   3.635   1.139   6.134 -0.4178 -0.0283  1.1661
 2268SOL    HW3 8845   3.543   1.252   6.173 -0.1602  0.6642 -0.1943
 2268SOL    MW4 8846   3.573   1.172   6.186  0.3313 -0.2104 -0.5179
 2269SOL     OW 8847   2.977   6.209   3.141  0.8756 -0.1817 -0.1926
 2269SOL    HW2 8848   2.954   6.290   3.094  2.2469 -1.3455 -3.1509
 2269SOL    HW3 8849   2.906   6.149   3.121  0.2434  0.0221  1.3561
 2269SOL    MW4 8850   2.965   6.212   3.132 -0.1009 -0.4069 -0.5953
 2270SOL     OW 8851   2.862   5.474   3.360  0.5242  0.1219 -0.9012
 2270SOL    HW2 8852   2.948   5.457   3.321  0.7829  0.7968 -0.6381
 2270SOL    HW3 8853   2.859   5.418   3.438  0.1452 -0.9680 -1.6630
 2270SOL    MW4 8854   2.873   5.464   3.365 -0.2685 -0.0817 -0.1792
 2271SOL     OW 8855   1.425   4.508   3.459  0.1599  0.5968 -0.2043
 2271SOL    HW2 8856   1.370   4.553   3.523  0.4410  1.8050 -0.7864
 2271SOL    HW3 8857   1.387   4.420   3.452  0.4460  0.2261  2.0128
 2271SOL    MW4 8858   1.413   4.502   3.467  0.4282 -0.2250  0.1848
 2272SOL     OW 8859   6.316   5.502   3.997  0.0244  0.1942 -0.0693
 2272SOL    HW2 8860   6.390   5.544   3.953  0.7879  0.1522  1.1474
 2272SOL    HW3 8861   6.239   5.548   3.964  0.6825  1.0608 -0.4253
 2272SOL    MW4 8862   6.315   5.513   3.987 -0.6310  0.3866  0.1543
 2273SOL     OW 8863   6.112   4.523   4.347  0.1394  0.0951  0.0916
 2273SOL    HW2 8864   6.050   4.473   4.401 -0.7458  0.9310 -0.1226
 2273SOL    HW3 8865   6.079   4.513   4.257  1.7928 -1.5700 -0.3842
 2273SOL    MW4 8866   6.100   4.515   4.342 -0.6539  0.4123  0.7479
 2274SOL     OW 8867   6.423   1.635   3.143 -0.0547 -0.0391 -0.1211
 2274SOL    HW2 8868   6.352   1.666   3.087  0.2216 -0.6887 -0.8407
 2274SOL    HW3 8869   6.457   1.557   3.099  0.7650 -0.0390  0.4795
 2274SOL    MW4 8870   6.418   1.629   3.130 -0.1657 -0.4955 -0.2331
 2275SOL     OW 8871   5.996   0.095   5.258  0.3928 -0.2255 -0.1024
 2275SOL    HW2 8872   5.975   0.051   5.340  1.9250  0.3216  0.6234
 2275SOL    HW3 8873   5.962   0.184   5.269  1.9039  0.2948  0.5770
 2275SOL    MW4 8874   5.989   0.101   5.270 -0.6112  0.5632 -0.4578
 2276SOL     OW 8875   5.333   1.203   0.926 -0.3769  0.1380  0.0415
 2276SOL    HW2 8876   5.239   1.223   0.922 -0.6325 -0.7927  1.0314
 2276SOL    HW3 8877   5.375   1.288   0.934 -1.1628  0.5429 -0.0088
 2276SOL    MW4 8878   5.326   1.217   0.926  0.0278 -0.7671 -0.0861
 2277SOL     OW 8879   2.699   1.024   5.823  0.2589  0.3463  0.4159
 2277SOL    HW2 8880   2.635   1.087   5.856 -0.0465  0.4016 -0.2581
 2277SOL    HW3 8881   2.647   0.962   5.773  0.6581  0.0144  0.4110
 2277SOL    MW4 8882   2.684   1.024   5.820 -0.1534  0.3067  0.4741
 2278SOL     OW 8883   0.014   0.045   5.734  0.1233 -0.2019 -0.4006
 2278SOL    HW2 8884   0.086   0.102   5.757 -0.3553  0.5147 -0.6373
 2278SOL    HW3 8885   0.050  -0.043   5.739  0.5187  0.0282  1.2596
 2278SOL    MW4 8886   0.028   0.041   5.738 -0.4755  0.0428 -0.0949
 2279SOL     OW 8887   0.034   3.375   2.266  0.4425 -0.6839  0.2990
 2279SOL    HW2 8888  -0.052   3.367   2.307  0.3261  0.8574  0.4020
 2279SOL    HW3 8889   0.074   3.450   2.310  1.3099 -0.5562 -0.6872
 2279SOL    MW4 8890   0.028   3.384   2.277  0.1491 -0.0851  1.0723
 2280SOL     OW 8891   1.141   0.239   1.250  0.6957 -0.0258 -0.0933
 2280SOL    HW2 8892   1.159   0.156   1.205  1.0327  0.0165 -0.0424
 2280SOL    HW3 8893   1.075   0.217   1.316 -0.2295  0.0300 -0.9793
 2280SOL    MW4 8894   1.135   0.225   1.253  0.3081 -0.0707  0.4479
 2281SOL     OW 8895   3.454   1.722   4.496  0.0368 -0.6007 -0.6315
 2281SOL    HW2 8896   3.491   1.793   4.443 -1.4757  1.6981  1.1769
 2281SOL    HW3 8897   3.510   1.647   4.478  1.0250  0.6654 -3.5922
 2281SOL    MW4 8898   3.466   1.722   4.486  0.2410  0.0033 -0.2762
 2282SOL     OW 8899   0.764   5.803   1.391  0.0055  0.1616 -0.1191
 2282SOL    HW2 8900   0.822   5.872   1.359 -0.1073  0.4783  0.3464
 2282SOL    HW3 8901   0.763   5.738   1.321 -1.6339  1.6468 -1.5818
 2282SOL    MW4 8902   0.771   5.803   1.378 -0.2236  0.0809  0.4394
 2283SOL     OW 8903   1.772   3.553   1.157  0.2667  0.0041  0.2500
 2283SOL    HW2 8904   1.802   3.537   1.247  2.3275  0.7201 -0.2573
 2283SOL    HW3 8905   1.839   3.513   1.102 -0.8128 -0.1593 -1.0055
 2283SOL    MW4 8906   1.785   3.545   1.162 -0.2571  0.0566 -0.0445
 2284SOL     OW 8907   0.927   4.428   1.918  0.5946  0.0757 -0.0096
 2284SOL    HW2 8908   0.881   4.354   1.878  0.1775  1.4981 -2.3653
 2284SOL    HW3 8909   0.889   4.435   2.005  0.7404 -2.5251  0.3450
 2284SOL    MW4 8910   0.916   4.419   1.924  0.1758  0.2025 -0.1416
 2285SOL     OW 8911   4.237   5.851   2.161  0.3781 -0.3361 -0.0890
 2285SOL    HW2 8912   4.238   5.946   2.151  0.4977 -0.1953  1.0841
 2285SOL    HW3 8913   4.291   5.834   2.238  0.8763 -1.4130 -0.6449
 2285SOL    MW4 8914   4.244   5.861   2.170 -0.0626 -0.0992  0.1027
 2286SOL     OW 8915   4.450   4.347   4.157 -0.3258  0.1378 -0.2381
 2286SOL    HW2 8916   4.525   4.304   4.117 -1.2161 -2.1149  0.3440
 2286SOL    HW3 8917   4.468   4.345   4.251 -0.0349  1.8219 -0.2286
 2286SOL    MW4 8918   4.462   4.341   4.164 -0.1947 -0.0634 -0.0631
 2287SOL     OW 8919   5.679   6.357   2.876  0.1719 -0.1356 -0.2146
 2287SOL    HW2 8920   5.677   6.397   2.963 -0.4423 -1.3617  0.3534
 2287SOL    HW3 8921   5.589   6.364   2.844  0.8373  2.4377 -1.7949
 2287SOL    MW4 8922   5.667   6.363   2.883  0.7963  0.4733  0.1301
 2288SOL     OW 8923   0.134   4.689   3.770  0.0773 -0.3005 -0.3984
 2288SOL    HW2 8924   0.079   4.647   3.836  0.4742  3.2052  2.4696
 2288SOL    HW3 8925   0.217   4.641   3.774 -0.7760 -1.8331 -0.3608
 2288SOL    MW4 8926   0.138   4.677   3.779 -0.3778  0.8474  0.2371
 2289SOL     OW 8927   0.489   0.287   0.598 -0.5439  0.4153 -0.1338
 2289SOL    HW2 8928   0.477   0.258   0.688 -2.5693  1.0735 -0.1435
 2289SOL    HW3 8929   0.445   0.219   0.545 -2.1247  1.5903 -0.3865
 2289SOL    MW4 8930   0.482   0.274   0.603 -0.7515  0.0498  0.3966
 2290SOL     OW 8931   2.560   3.479   6.089 -0.6435  0.3527  0.0233
 2290SOL    HW2 8932   2.579   3.522   6.173  0.4063  1.6591 -0.8389
 2290SOL    HW3 8933   2.523   3.394   6.113  0.6510  0.2405  1.8146
 2290SOL    MW4 8934   2.557   3.474   6.103  0.1820  0.2442 -0.4934
 2291SOL     OW 8935   0.548   4.681   2.977  0.3761 -0.0352  0.4008
 2291SOL    HW2 8936   0.497   4.602   2.997 -0.1982  0.6711  1.8052
 2291SOL    HW3 8937   0.483   4.744   2.946  0.6671  0.2842  0.4350
 2291SOL    MW4 8938   0.532   4.679   2.975 -0.8552 -0.1712 -0.9227
 2292SOL     OW 8939   0.409   1.892   5.472 -0.0399  0.4215  0.0440
 2292SOL    HW2 8940   0.404   1.988   5.470 -0.7167  0.4136  0.9755
 2292SOL    HW3 8941   0.389   1.869   5.563  1.4354 -0.5357  0.1557
 2292SOL    MW4 8942   0.406   1.902   5.484 -0.0176  0.0608 -0.0350
 2293SOL     OW 8943   2.867   1.245   5.750  0.1649  0.0940 -0.0413
 2293SOL    HW2 8944   2.847   1.289   5.667 -0.0855  1.7899  0.8762
 2293SOL    HW3 8945   2.803   1.174   5.754 -0.3760  0.4986 -0.9150
 2293SOL    MW4 8946   2.856   1.241   5.739  0.7780  0.7445 -0.3072
 2294SOL     OW 8947   0.776   0.643   1.031  0.7209 -0.5277 -0.2079
 2294SOL    HW2 8948   0.871   0.640   1.039  0.8249  1.0977 -0.4624
 2294SOL    HW3 8949   0.759   0.715   0.970 -0.5992 -2.4792 -2.3010
 2294SOL    MW4 8950   0.786   0.652   1.024  0.6687  0.6120  0.1812
 2295SOL     OW 8951   4.572   4.241   3.795 -0.4101  0.9102  0.2580
 2295SOL    HW2 8952   4.634   4.215   3.864 -0.6471  3.6831  1.6633
 2295SOL    HW3 8953   4.603   4.196   3.717  1.6750 -0.0347  1.5402
 2295SOL    MW4 8954   4.585   4.232   3.794  0.4987 -0.9923 -0.8146
 2296SOL     OW 8955   6.164   0.380   5.152 -0.2922 -0.3440 -0.4121
 2296SOL    HW2 8956   6.183   0.311   5.215 -0.2020  0.6623  0.6968
 2296SOL    HW3 8957   6.104   0.340   5.090 -3.4199 -0.4076  2.3636
 2296SOL    MW4 8958   6.159   0.366   5.152 -0.0180  0.0832 -0.5536
 2297SOL     OW 8959   3.453   1.182   1.822  0.3226  0.0235 -0.0719
 2297SOL    HW2 8960   3.384   1.121   1.849 -0.6419  1.1541  0.0779
 2297SOL    HW3 8961   3.409   1.245   1.765  1.3764  0.3841 -0.5079
 2297SOL    MW4 8962   3.438   1.182   1.818  0.1269 -0.4022 -0.2547
 2298SOL     OW 8963   1.251   5.918   0.267  0.1232 -0.2014 -0.3206
 2298SOL    HW2 8964   1.294   5.841   0.229 -0.1694 -0.8033  0.5439
 2298SOL    HW3 8965   1.278   5.918   0.359 -0.5308  0.2713 -0.1228
 2298SOL    MW4 8966   1.261   5.908   0.274  0.3352  0.3247  0.0230
 2299SOL     OW 8967   2.595   3.968   3.858  0.2550 -0.8127  0.6888
 2299SOL    HW2 8968   2.654   3.921   3.917  0.8722 -1.2561 -0.2543
 2299SOL    HW3 8969   2.635   3.958   3.771  0.1749  1.0854  0.3890
 2299SOL    MW4 8970   2.608   3.960   3.854 -0.1636  0.0956 -0.4158
 2300SOL     OW 8971   4.535   2.222   5.973 -0.3605 -0.2366 -0.4171
 2300SOL    HW2 8972   4.566   2.160   6.039 -4.8733 -1.5098  0.8465
 2300SOL    HW3 8973   4.540   2.174   5.891  1.9431  0.0870 -0.5359
 2300SOL    MW4 8974   4.540   2.208   5.971 -0.4893 -0.6062 -0.4600
 2301SOL     OW 8975   5.053   0.166   1.952  0.4980 -0.9585 -0.4278
 2301SOL    HW2 8976   5.008   0.137   1.873 -0.4093  2.0543 -1.1696
 2301SOL    HW3 8977   4.982   0.186   2.013  1.1917 -3.7408  1.4784
 2301SOL    MW4 8978   5.038   0.165   1.950 -0.3672  0.0652 -0.5863
 2302SOL     OW 8979   2.152   1.425   2.879 -0.0053  0.0261 -0.0850
 2302SOL    HW2 8980   2.201   1.381   2.948  0.5923 -0.4098 -0.7636
 2302SOL    HW3 8981   2.218   1.448   2.813 -0.6988 -0.5439 -1.0123
 2302SOL    MW4 8982   2.167   1.422   2.879 -0.0181  0.2398 -0.1348
 2303SOL     OW 8983   4.865   5.610   0.947 -0.6769  0.3082  0.4133
 2303SOL    HW2 8984   4.831   5.696   0.973  0.3799  0.8126  0.1569
 2303SOL    HW3 8985   4.947   5.602   0.996  0.6420  0.6569 -1.6372
 2303SOL    MW4 8986   4.871   5.620   0.957 -0.2172  0.0762  0.2575
 2304SOL     OW 8987   4.656   5.881   1.242  0.1831  0.1342 -0.1831
 2304SOL    HW2 8988   4.582   5.939   1.260  0.8672  0.2305  2.6877
 2304SOL    HW3 8989   4.623   5.793   1.259  0.3902  0.0619 -0.1543
 2304SOL    MW4 8990   4.642   5.877   1.246  0.4112 -1.1931 -0.4145
 2305SOL     OW 8991   4.477   2.853   0.004 -0.5823 -0.0565 -0.3072
 2305SOL    HW2 8992   4.425   2.852  -0.076 -2.0424 -0.5615  0.6285
 2305SOL    HW3 8993   4.453   2.935   0.047 -0.6487 -0.3170  0.1580
 2305SOL    MW4 8994   4.467   2.864  -0.001 -0.3610 -0.1551 -0.0526
 2306SOL     OW 8995   3.464   5.991   2.032 -0.0771  0.3940  0.2207
 2306SOL    HW2 8996   3.391   6.053   2.036 -0.8680 -0.5915  2.0159
 2306SOL    HW3 8997   3.537   6.038   2.073  0.3544  1.3667 -1.5462
 2306SOL    MW4 8998   3.464   6.006   2.038 -0.3121 -0.1752 -0.0319
 2307SOL     OW 8999   3.371   2.136   4.217  0.4345  0.2427 -0.1589
 2307SOL    HW2 9000   3.363   2.098   4.129  0.4040  0.0755 -0.0854
 2307SOL    HW3 9001   3.287   2.118   4.259  0.4098  0.4185 -0.1321
 2307SOL    MW4 9002   3.359   2.128   4.211 -0.7332 -0.1208 -0.4743
 2308SOL     OW 9003   1.243   6.433   1.067 -0.4060  0.0678 -0.1622
 2308SOL    HW2 9004   1.252   6.345   1.102 -0.3289  0.1081 -0.0820
 2308SOL    HW3 9005   1.297   6.434   0.988  0.6918  0.4550  0.5775
 2308SOL    MW4 9006   1.251   6.422   1.061  0.0973  0.0635  0.6148
 2309SOL     OW 9007   0.244   1.452   0.283  0.3177 -0.5358 -0.2179
 2309SOL    HW2 9008   0.181   1.385   0.255  0.3701 -0.3015 -0.9143
 2309SOL    HW3 9009   0.195   1.533   0.280  0.6963 -0.3278 -0.9254
 2309SOL    MW4 9010   0.229   1.453   0.279  0.0930 -0.2204 -0.6525
 2310SOL     OW 9011   5.811   2.766   2.158 -0.1520  0.2591  0.5602
 2310SOL    HW2 9012   5.868   2.841   2.143  1.3357 -0.8239  0.5778
 2310SOL    HW3 9013   5.723   2.797   2.135  0.7148  1.3468 -1.5432
 2310SOL    MW4 9014   5.807   2.780   2.153 -0.4082  0.4963  0.1300
 2311SOL     OW 9015   3.449   2.799   0.909  0.0891  0.2143 -0.0314
 2311SOL    HW2 9016   3.515   2.763   0.968  0.5776  1.2932  0.1036
 2311SOL    HW3 9017   3.492   2.874   0.868 -0.9958  0.8509 -0.0402
 2311SOL    MW4 9018   3.463   2.804   0.912 -0.8912 -0.5931 -0.1274
 2312SOL     OW 9019   2.461   2.913   6.227 -0.0815 -0.2756 -0.2149
 2312SOL    HW2 9020   2.476   2.879   6.138 -1.8657  0.5379 -0.8618
 2312SOL    HW3 9021   2.366   2.919   6.235  0.0971  1.1920  1.1814
 2312SOL    MW4 9022   2.451   2.909   6.216 -0.0308 -0.0974 -0.1726
 2313SOL     OW 9023   3.257   4.126   0.101 -0.0321  0.0815 -0.0169
 2313SOL    HW2 9024   3.203   4.064   0.149  0.9471  0.1914  1.2552
 2313SOL    HW3 9025   3.312   4.168   0.167  0.2109  1.4164 -1.0065
 2313SOL    MW4 9026   3.257   4.123   0.116  0.3936  0.4684  0.3370
 2314SOL     OW 9027   4.250   5.261   2.228 -0.1961 -0.1057  0.0384
 2314SOL    HW2 9028   4.191   5.221   2.292  1.0169 -0.2079  1.1434
 2314SOL    HW3 9029   4.193   5.309   2.169 -1.2918  0.9950  1.9099
 2314SOL    MW4 9030   4.235   5.262   2.228  0.7876  0.5436 -0.4157
 2315SOL     OW 9031   1.908   2.115   6.369 -0.5499 -0.4490 -0.0153
 2315SOL    HW2 9032   1.868   2.088   6.452 -1.0795  1.8611  0.5737
 2315SOL    HW3 9033   1.984   2.167   6.395  1.2433 -2.3934 -1.0928
 2315SOL    MW4 9034   1.912   2.119   6.383 -0.3588  0.4196  0.2487
 2316SOL     OW 9035   6.111   4.145   5.490  0.2561 -0.2414  0.9071
 2316SOL    HW2 9036   6.034   4.195   5.517  0.2460 -1.0481  2.4211
 2316SOL    HW3 9037   6.076   4.070   5.442  0.2491  0.7839 -0.8029
 2316SOL    MW4 9038   6.096   4.142   5.487 -0.1527 -0.1357  0.0960
 2317SOL     OW 9039   2.276   0.810   5.029  0.0568 -0.6779 -0.1793
 2317SOL    HW2 9040   2.203   0.842   5.081  2.0809  0.4547  2.1378
 2317SOL    HW3 9041   2.349   0.801   5.091  1.6306 -2.8677 -2.1243
 2317SOL    MW4 9042   2.276   0.813   5.044 -0.4850 -0.0576  0.2678
 2318SOL     OW 9043   6.379   2.959   1.711  0.1330  0.3540  0.0756
 2318SOL    HW2 9044   6.390   2.903   1.634  1.4649  0.4909  0.1543
 2318SOL    HW3 9045   6.456   3.015   1.712 -0.0121  0.5661  1.3382
 2318SOL    MW4 9046   6.391   2.959   1.701 -0.3454 -0.4632 -0.4936
 2319SOL     OW 9047   4.709   3.979   5.948  0.0229 -0.6191  0.6928
 2319SOL    HW2 9048   4.669   3.931   6.020 -3.3135 -2.5536 -2.1565
 2319SOL    HW3 9049   4.779   3.922   5.917 -1.2953 -1.8657 -0.1255
 2319SOL    MW4 9050   4.713   3.965   5.953  0.3476 -0.4247  0.3308
 2320SOL     OW 9051   1.755   1.632   1.926 -0.0495 -0.5639  0.1083
 2320SOL    HW2 9052   1.772   1.722   1.954 -0.9987 -0.7431  1.3737
 2320SOL    HW3 9053   1.806   1.578   1.986  0.7705 -0.8788 -0.8507
 2320SOL    MW4 9054   1.764   1.636   1.938  0.1394  0.1763  0.3648
 2321SOL     OW 9055   5.197   6.413   2.152  0.3511 -0.9135 -0.0828
 2321SOL    HW2 9056   5.269   6.470   2.176 -0.3653  0.3471 -0.7876
 2321SOL    HW3 9057   5.150   6.461   2.084  0.1709 -2.7028 -1.2939
 2321SOL    MW4 9058   5.200   6.427   2.146 -0.1682 -0.4883 -0.1656
 2322SOL     OW 9059   1.889   4.578   6.156 -0.2551 -0.4584  0.2820
 2322SOL    HW2 9060   1.857   4.591   6.245 -0.4389 -1.0784  0.3103
 2322SOL    HW3 9061   1.984   4.592   6.162 -0.6554  3.5911 -0.2127
 2322SOL    MW4 9062   1.898   4.582   6.168  0.0796  0.2231  0.5405
 2323SOL     OW 9063   5.390   2.006   3.591 -0.3601  0.5989 -0.1349
 2323SOL    HW2 9064   5.423   1.989   3.679 -0.5726  0.5455 -0.0644
 2323SOL    HW3 9065   5.296   2.021   3.603 -0.2847  1.2017 -0.2733
 2323SOL    MW4 9066   5.382   2.006   3.604  0.0737  0.1188  0.3781
 2324SOL     OW 9067   4.235   0.601   4.030 -0.3179  0.7788  0.4133
 2324SOL    HW2 9068   4.304   0.568   3.973 -0.6747 -0.3669  0.6115
 2324SOL    HW3 9069   4.280   0.629   4.110 -0.2146 -1.6864  1.2922
 2324SOL    MW4 9070   4.250   0.601   4.033 -0.6004  0.2074 -0.1556
 2325SOL     OW 9071   3.424   4.061   2.536  0.5093 -0.7371 -0.3307
 2325SOL    HW2 9072   3.440   4.057   2.442 -0.2283 -1.5124 -0.4319
 2325SOL    HW3 9073   3.458   3.978   2.569 -1.4170 -1.5517 -0.2712
 2325SOL    MW4 9074   3.431   4.049   2.528  0.4598 -0.6882 -0.0952
 2326SOL     OW 9075   5.805   0.531   1.628  0.3914  0.1160 -0.2985
 2326SOL    HW2 9076   5.872   0.464   1.615  2.2126  2.0729 -1.9256
 2326SOL    HW3 9077   5.806   0.547   1.723 -0.5943 -2.4988  0.2396
 2326SOL    MW4 9078   5.814   0.525   1.639 -0.0303 -0.0872 -0.2877
 2327SOL     OW 9079   6.265   2.588   1.072 -0.0997 -0.3401 -1.2120
 2327SOL    HW2 9080   6.242   2.670   1.116  0.1420 -1.2404  0.7226
 2327SOL    HW3 9081   6.330   2.613   1.007  1.5602  0.7922  0.7452
 2327SOL    MW4 9082   6.270   2.602   1.069  0.0412 -0.8057  0.1190
 2328SOL     OW 9083   3.434   4.917   4.807  0.3057 -0.3826 -0.2479
 2328SOL    HW2 9084   3.484   4.870   4.873 -0.6137  0.6666  1.2483
 2328SOL    HW3 9085   3.344   4.918   4.840 -0.2623 -0.1373 -1.6981
 2328SOL    MW4 9086   3.428   4.911   4.820 -0.2224  0.0686 -0.6042
 2329SOL     OW 9087   2.810   2.044   2.287 -0.5692 -0.1364  0.4309
 2329SOL    HW2 9088   2.847   2.120   2.331 -1.1868 -0.4072  1.4619
 2329SOL    HW3 9089   2.717   2.047   2.309 -0.6887 -0.8986  0.0529
 2329SOL    MW4 9090   2.802   2.054   2.296  0.3418  0.0705 -0.1416
 2330SOL     OW 9091   2.228   5.634   3.386  0.4002  0.2386 -0.5064
 2330SOL    HW2 9092   2.178   5.554   3.370  1.1086 -0.1516 -0.8256
 2330SOL    HW3 9093   2.190   5.698   3.326 -0.3035  0.2084 -0.1061
 2330SOL    MW4 9094   2.216   5.632   3.376 -0.0216 -0.3959  0.6136
 2331SOL     OW 9095   4.507   1.776   1.517  0.2833  0.3427 -0.5931
 2331SOL    HW2 9096   4.540   1.753   1.431  2.0317  2.1573 -0.4842
 2331SOL    HW3 9097   4.572   1.740   1.578  0.1057  0.7725 -0.1412
 2331SOL    MW4 9098   4.520   1.768   1.514 -0.9055 -0.4925 -0.1473
 2332SOL     OW 9099   0.433   4.379   5.202  0.6364 -0.1996 -0.0902
 2332SOL    HW2 9100   0.515   4.340   5.230  1.3290  1.5508  0.4930
 2332SOL    HW3 9101   0.398   4.421   5.281  0.2961  0.9088 -0.7984
 2332SOL    MW4 9102   0.439   4.380   5.216 -0.1281  0.0389 -0.1123
 2333SOL     OW 9103   0.012   3.983   6.405 -0.1221  0.2147 -0.7518
 2333SOL    HW2 9104  -0.027   4.012   6.487  0.5335 -3.7262  1.2035
 2333SOL    HW3 9105   0.103   4.014   6.410 -0.5286  1.4975 -0.9044
 2333SOL    MW4 9106   0.019   3.991   6.417 -0.2901 -0.3545  0.0372
 2334SOL     OW 9107   3.774   0.447   2.929 -0.6675 -0.1545 -0.0782
 2334SOL    HW2 9108   3.837   0.432   3.000  0.2503 -1.0302 -1.0402
 2334SOL    HW3 9109   3.701   0.388   2.949 -0.1066 -0.9107 -0.1966
 2334SOL    MW4 9110   3.773   0.437   2.941 -0.6801  0.5018  0.3329
 2335SOL     OW 9111   3.477   4.890   4.099 -0.1703  0.1565  0.1700
 2335SOL    HW2 9112   3.509   4.854   4.182 -0.9312  1.1437  0.9049
 2335SOL    HW3 9113   3.393   4.846   4.086  0.7809 -1.4222 -1.0781
 2335SOL    MW4 9114   3.471   4.879   4.109  0.5525  0.2590  0.2423
 2336SOL     OW 9115   2.564   3.353   0.073 -0.7756 -0.5441 -0.0320
 2336SOL    HW2 9116   2.659   3.365   0.071 -0.8797  0.3273  0.0453
 2336SOL    HW3 9117   2.548   3.283   0.009 -0.1723 -0.0495 -0.7392
 2336SOL    MW4 9118   2.574   3.345   0.064  0.0356  0.0296  0.3213
 2337SOL     OW 9119   3.962   4.610   0.361  0.4698  0.3653 -0.0980
 2337SOL    HW2 9120   3.941   4.613   0.455  1.6161 -0.2508  0.2009
 2337SOL    HW3 9121   3.949   4.518   0.337  0.2582  0.5055 -0.5239
 2337SOL    MW4 9122   3.958   4.598   0.370 -0.4824  0.0717 -0.3726
 2338SOL     OW 9123   6.177   0.856   4.285 -0.8241 -0.5117  0.4995
 2338SOL    HW2 9124   6.118   0.848   4.210 -0.4302 -1.0045  0.2394
 2338SOL    HW3 9125   6.247   0.793   4.268  0.0406  0.4016  0.5582
 2338SOL    MW4 9126   6.178   0.847   4.273  0.3997 -0.2527 -0.8523
 2339SOL     OW 9127   4.322   0.783   2.559 -0.0530  0.2170  0.1045
 2339SOL    HW2 9128   4.309   0.719   2.629 -0.7537 -0.0735 -0.2818
 2339SOL    HW3 9129   4.233   0.805   2.530 -0.1432  4.1158  2.6510
 2339SOL    MW4 9130   4.308   0.777   2.564 -0.4616 -0.3826 -0.4169
 2340SOL     OW 9131   1.189   5.360   0.865 -0.0533 -0.5332 -0.7010
 2340SOL    HW2 9132   1.180   5.382   0.957 -0.1853  2.4090 -1.3325
 2340SOL    HW3 9133   1.249   5.285   0.865  0.3044 -0.3394  1.7249
 2340SOL    MW4 9134   1.196   5.353   0.877 -0.0678  0.2269 -0.2230
 2341SOL     OW 9135   0.171   4.117   5.306  0.1921  0.4991 -0.0864
 2341SOL    HW2 9136   0.165   4.137   5.399 -0.3380 -1.6883  0.4077
 2341SOL    HW3 9137   0.266   4.115   5.288  0.3786 -0.7214  0.8570
 2341SOL    MW4 9138   0.183   4.119   5.316  0.3915  0.1369  0.3647
 2342SOL     OW 9139   5.861   5.336   0.007  0.2348 -0.3626  0.2813
 2342SOL    HW2 9140   5.908   5.305   0.084  2.0371 -0.3106 -0.7339
 2342SOL    HW3 9141   5.768   5.328   0.030  0.7071 -1.6367  1.9253
 2342SOL    MW4 9142   5.855   5.331   0.020  0.6998 -0.3949  0.7389
 2343SOL     OW 9143   1.752   2.695   2.818 -0.0907 -0.1320  0.3728
 2343SOL    HW2 9144   1.821   2.733   2.764 -1.4051  0.9231 -0.6331
 2343SOL    HW3 9145   1.741   2.607   2.784  0.8213 -0.3610  0.6301
 2343SOL    MW4 9146   1.760   2.689   2.806 -0.5386  0.1494 -0.0703
 2344SOL     OW 9147   3.096   5.078   4.744  0.3235  0.2283  0.0635
 2344SOL    HW2 9148   3.023   5.067   4.683  0.1959 -2.2216  0.5704
 2344SOL    HW3 9149   3.169   5.106   4.688  0.0526 -1.3395 -1.1553
 2344SOL    MW4 9150   3.096   5.080   4.728 -0.5041  0.4001  0.6031
 2345SOL     OW 9151   5.076   3.305   6.124 -0.1062 -0.0137 -0.4679
 2345SOL    HW2 9152   5.000   3.311   6.181 -1.1025 -3.1107 -1.2977
 2345SOL    HW3 9153   5.042   3.317   6.036  0.4635 -0.7078 -0.7969
 2345SOL    MW4 9154   5.062   3.308   6.120 -0.0676  0.0318  0.3762
 2346SOL     OW 9155   5.155   4.426   0.757  0.1931  0.0984  0.5929
 2346SOL    HW2 9156   5.086   4.449   0.694  2.6864  2.8546 -1.3696
 2346SOL    HW3 9157   5.191   4.344   0.724 -0.8900 -0.3874  0.5834
 2346SOL    MW4 9158   5.151   4.418   0.744  1.2327  0.0587  0.7086
 2347SOL     OW 9159   3.580   5.945   2.378  0.0492 -0.4263 -0.1352
 2347SOL    HW2 9160   3.547   5.862   2.413 -1.0648  0.9360  2.3410
 2347SOL    HW3 9161   3.502   5.995   2.356  0.6611  0.4514 -0.3809
 2347SOL    MW4 9162   3.566   5.941   2.380  0.3782 -0.2461 -0.4609
 2348SOL     OW 9163   2.354   3.919   3.322  0.2906  0.2553 -0.0784
 2348SOL    HW2 9164   2.363   3.849   3.256  2.1600 -1.8604  2.2378
 2348SOL    HW3 9165   2.443   3.951   3.335  0.0894  0.0868  1.9248
 2348SOL    MW4 9166   2.367   3.914   3.315 -0.3873 -0.0284  0.5362
 2349SOL     OW 9167   2.444   3.688   3.158  0.3459  0.0481  0.4932
 2349SOL    HW2 9168   2.471   3.621   3.221  2.2933  1.5802  1.3929
 2349SOL    HW3 9169   2.524   3.712   3.113 -0.2694  1.8118  0.2518
 2349SOL    MW4 9170   2.458   3.682   3.161  0.2858 -0.9602  0.4705
 2350SOL     OW 9171   4.214   5.508   2.493 -0.4307 -0.1286 -0.1533
 2350SOL    HW2 9172   4.125   5.492   2.524 -1.3240 -0.0897 -2.5021
 2350SOL    HW3 9173   4.232   5.435   2.434  0.5129  0.6690 -0.8837
 2350SOL    MW4 9174   4.205   5.496   2.489 -0.2717 -0.5193 -0.4926
 2351SOL     OW 9175   5.944   0.752   3.631 -0.3151 -0.2594  0.1453
 2351SOL    HW2 9176   5.927   0.843   3.604  2.2598  0.0898 -0.5898
 2351SOL    HW3 9177   5.918   0.699   3.555  0.0558  0.0580 -0.2080
 2351SOL    MW4 9178   5.938   0.757   3.617  0.4745  0.3567 -0.0954
 2352SOL     OW 9179   3.861   4.551   6.027  0.0906 -0.0790  0.1842
 2352SOL    HW2 9180   3.928   4.502   5.980  0.4937  0.0322  0.6422
 2352SOL    HW3 9181   3.893   4.641   6.027  0.8675 -0.3184  2.0067
 2352SOL    MW4 9182   3.874   4.556   6.021 -0.0433 -0.1663  0.0690
 2353SOL     OW 9183   1.770   6.322   0.122  0.0940 -0.3537  0.6876
 2353SOL    HW2 9184   1.678   6.323   0.097 -0.0556 -0.7467  1.2032
 2353SOL    HW3 9185   1.817   6.333   0.040 -0.3797 -1.8560  0.1891
 2353SOL    MW4 9186   1.764   6.324   0.108  0.0189 -0.0196  0.0845
 2354SOL     OW 9187   1.962   2.189   5.542  0.1251  0.2340  0.6266
 2354SOL    HW2 9188   1.995   2.202   5.631 -0.5073  1.4657  0.6916
 2354SOL    HW3 9189   1.881   2.139   5.554  1.4782 -2.1828  0.5102
 2354SOL    MW4 9190   1.956   2.184   5.555  0.3101  0.2240  0.0235
 2355SOL     OW 9191   4.831   0.701   3.303  0.0275 -0.0851  0.1787
 2355SOL    HW2 9192   4.908   0.653   3.274 -0.5661 -0.5383 -0.6806
 2355SOL    HW3 9193   4.788   0.728   3.222 -0.2666  0.9112  0.6480
 2355SOL    MW4 9194   4.836   0.698   3.288 -0.0503 -0.5143  0.7698
 2356SOL     OW 9195   2.096   4.058   2.565 -0.5370  0.3870  0.0778
 2356SOL    HW2 9196   2.012   4.103   2.551 -1.4579 -1.4667 -0.7649
 2356SOL    HW3 9197   2.124   4.087   2.652 -2.2699  0.7340  0.5677
 2356SOL    MW4 9198   2.088   4.068   2.574 -0.0203 -0.3154 -0.5423
 2357SOL     OW 9199   1.280   5.690   3.988 -0.1099  0.1681 -0.5540
 2357SOL    HW2 9200   1.362   5.701   4.036 -0.0483  1.1478 -0.8724
 2357SOL    HW3 9201   1.302   5.711   3.897 -0.2513 -1.5397 -1.0351
 2357SOL    MW4 9202   1.294   5.694   3.982 -0.5471  0.5222  0.0140
 2358SOL     OW 9203   0.237   1.164   6.342  0.1942 -0.5830 -0.2405
 2358SOL    HW2 9204   0.168   1.113   6.300 -0.6093  1.2388 -1.2641
 2358SOL    HW3 9205   0.197   1.250   6.356  2.1711  0.4430 -0.6399
 2358SOL    MW4 9206   0.222   1.169   6.339  0.2233 -0.0508  0.2710
 2359SOL     OW 9207   3.501   3.766   3.095 -0.0354  0.4432  0.1636
 2359SOL    HW2 9208   3.436   3.782   3.026 -0.1147 -0.6026 -0.0161
 2359SOL    HW3 9209   3.548   3.849   3.103 -0.4402  0.7681 -0.7061
 2359SOL    MW4 9210   3.498   3.779   3.087  0.2805 -0.3145  0.0622
 2360SOL     OW 9211   0.942   3.604   6.201 -0.1340 -0.3646  0.7783
 2360SOL    HW2 9212   0.984   3.562   6.276  1.2961 -1.3624 -0.5071
 2360SOL    HW3 9213   0.861   3.555   6.187  0.2043 -0.9631  0.9201
 2360SOL    MW4 9214   0.937   3.592   6.209  0.3203 -0.9329 -0.0682
 2361SOL     OW 9215   2.265   4.242   3.670  0.4554 -0.0016  0.3630
 2361SOL    HW2 9216   2.276   4.310   3.736  1.7110 -2.1340  2.5172
 2361SOL    HW3 9217   2.212   4.174   3.713  1.2236 -1.4368 -0.8425
 2361SOL    MW4 9218   2.259   4.242   3.684 -0.0983 -0.1936 -0.3235
 2362SOL     OW 9219   1.234   5.442   3.152  0.1789 -0.1639 -0.1220
 2362SOL    HW2 9220   1.309   5.399   3.192 -0.5451 -1.0379  0.3424
 2362SOL    HW3 9221   1.164   5.377   3.156 -0.4645  0.4372 -1.0239
 2362SOL    MW4 9222   1.235   5.428   3.158  0.2948 -0.5427 -0.5051
 2363SOL     OW 9223   5.220   0.115   4.180 -0.1311  0.0306  0.1225
 2363SOL    HW2 9224   5.294   0.058   4.203  1.6592  1.6906 -1.1567
 2363SOL    HW3 9225   5.214   0.110   4.085  1.4761  3.4175 -0.3065
 2363SOL    MW4 9226   5.229   0.107   4.171 -0.4369 -0.0862  0.2100
 2364SOL     OW 9227   4.938   3.841   5.915  0.6373  0.2337  0.2131
 2364SOL    HW2 9228   4.958   3.793   5.835 -2.5899 -0.9538 -0.0498
 2364SOL    HW3 9229   4.943   3.775   5.984 -1.1299  0.0623  0.2394
 2364SOL    MW4 9230   4.941   3.826   5.913 -0.2353  0.2681  0.1234
 2365SOL     OW 9231   5.297   2.093   4.969 -0.1179 -0.1404 -0.1573
 2365SOL    HW2 9232   5.266   2.169   5.018 -1.2563 -1.1877  0.8254
 2365SOL    HW3 9233   5.390   2.088   4.988  0.0402  1.1905 -0.5107
 2365SOL    MW4 9234   5.305   2.102   4.978 -0.0461  0.1857 -0.4730
 2366SOL     OW 9235   3.603   1.855   2.307 -0.6515 -0.2335  0.2598
 2366SOL    HW2 9236   3.635   1.867   2.218 -1.5481 -0.2172 -0.0775
 2366SOL    HW3 9237   3.550   1.934   2.324 -2.2731 -1.2133 -0.0233
 2366SOL    MW4 9238   3.600   1.867   2.298  0.0113  0.0354  0.1079
 2367SOL     OW 9239   2.929   6.099   1.505 -0.4028  0.2772 -0.4368
 2367SOL    HW2 9240   2.857   6.156   1.478  0.3931  1.2215 -0.6130
 2367SOL    HW3 9241   3.008   6.143   1.472  0.4631  0.4690  1.7581
 2367SOL    MW4 9242   2.930   6.112   1.497 -0.3471  0.4011 -0.1472
 2368SOL     OW 9243   5.264   0.964   6.118  0.2504 -0.8824 -0.5405
 2368SOL    HW2 9244   5.242   1.057   6.123  2.1876 -0.4113 -0.2252
 2368SOL    HW3 9245   5.211   0.923   6.187 -1.4446 -0.2285 -1.3883
 2368SOL    MW4 9246   5.254   0.971   6.128  0.1996 -0.4822  0.5698
 2369SOL     OW 9247   3.195   3.960   4.789  0.0423  0.3596  0.4491
 2369SOL    HW2 9248   3.281   4.002   4.787 -0.1661  0.8381  1.1441
 2369SOL    HW3 9249   3.212   3.870   4.760  0.7248  0.5339  0.2816
 2369SOL    MW4 9250   3.209   3.953   4.785 -0.1993 -0.0784 -0.0438
 2370SOL     OW 9251   0.017   2.736   5.846 -0.3505 -0.1654  0.5423
 2370SOL    HW2 9252   0.032   2.801   5.778 -2.6472  1.4404  1.4716
 2370SOL    HW3 9253   0.046   2.779   5.927  1.5069 -1.7111  0.7716
 2370SOL    MW4 9254   0.023   2.750   5.848 -0.1023 -0.2750  0.0073
 2371SOL     OW 9255   6.179   5.538   1.935  0.1029 -0.1239 -0.0185
 2371SOL    HW2 9256   6.221   5.542   1.849  0.6228 -0.1315  0.2299
 2371SOL    HW3 9257   6.251   5.550   1.998 -0.3970  0.8283  0.3963
 2371SOL    MW4 9258   6.194   5.540   1.932  0.0136  0.2487  0.1086
 2372SOL     OW 9259   1.427   2.900   2.223  0.0579 -0.5218 -0.4466
 2372SOL    HW2 9260   1.486   2.922   2.151 -0.7023 -1.8407 -1.5365
 2372SOL    HW3 9261   1.355   2.853   2.181 -0.6334 -0.9468  1.1318
 2372SOL    MW4 9262   1.425   2.897   2.208  0.1707  0.0162 -0.6534
 2373SOL     OW 9263   4.900   6.178   1.456  0.3724 -0.0885 -0.2992
 2373SOL    HW2 9264   4.921   6.187   1.549 -0.6216 -2.2141  0.2002
 2373SOL    HW3 9265   4.806   6.195   1.451  0.1110 -1.5089 -0.6233
 2373SOL    MW4 9266   4.890   6.182   1.467 -0.3670 -0.0468 -0.1534
 2374SOL     OW 9267   3.974   3.932   3.141  0.0876  0.1137  0.1567
 2374SOL    HW2 9268   4.008   3.976   3.218  0.0438  0.5860 -0.0889
 2374SOL    HW3 9269   4.005   3.985   3.067  1.3275 -1.1170 -0.2438
 2374SOL    MW4 9270   3.982   3.945   3.141  0.0143  0.5335 -0.0247
 2375SOL     OW 9271   2.740   2.929   1.919  0.1782  0.7925 -0.3451
 2375SOL    HW2 9272   2.667   2.868   1.932 -0.2475  0.8646 -2.1329
 2375SOL    HW3 9273   2.793   2.920   1.999 -0.8542 -0.5471  0.2353
 2375SOL    MW4 9274   2.737   2.920   1.931 -0.0606  0.1993 -0.0321
 2376SOL     OW 9275   4.680   0.254   6.214 -0.0143  0.4967 -0.5801
 2376SOL    HW2 9276   4.626   0.256   6.293 -0.1928 -0.2185 -0.6769
 2376SOL    HW3 9277   4.745   0.323   6.228 -0.1399  0.4794  0.1241
 2376SOL    MW4 9278   4.682   0.264   6.226 -0.2316  0.5503 -0.3332
 2377SOL     OW 9279   5.350   1.348   0.259  0.4487  0.5983  0.2893
 2377SOL    HW2 9280   5.272   1.374   0.210  0.3166  0.3961  0.3931
 2377SOL    HW3 9281   5.423   1.366   0.199  0.3513  1.1054  0.3183
 2377SOL    MW4 9282   5.349   1.354   0.245  0.1564 -0.2762 -0.2039
 2378SOL     OW 9283   4.427   4.559   6.167 -0.1066 -0.2152  0.1819
 2378SOL    HW2 9284   4.399   4.650   6.168 -0.3522 -0.1976 -2.4944
 2378SOL    HW3 9285   4.349   4.509   6.193 -0.2783  0.2646  0.5971
 2378SOL    MW4 9286   4.413   4.564   6.171  0.5678  0.3771 -0.1225
 2379SOL     OW 9287   1.257   2.858   2.489 -0.1993  0.0570  0.5073
 2379SOL    HW2 9288   1.300   2.926   2.437  1.3537 -0.0754  1.5680
 2379SOL    HW3 9289   1.211   2.905   2.558 -1.1404  0.1472 -0.1586
 2379SOL    MW4 9290   1.256   2.873   2.491 -0.5106  0.0242 -0.1509
 2380SOL     OW 9291   3.751   1.096   1.128 -1.0514 -0.6425  0.3748
 2380SOL    HW2 9292   3.741   1.002   1.143  1.0889 -0.6738  1.9859
 2380SOL    HW3 9293   3.773   1.132   1.214 -2.5835  1.4824 -0.0597
 2380SOL    MW4 9294   3.753   1.088   1.141 -0.1318  0.3439 -0.1137
 2381SOL     OW 9295   0.009   4.746   1.482 -0.2824 -0.1272  0.0830
 2381SOL    HW2 9296  -0.008   4.655   1.505  1.9045 -1.5962 -3.3542
 2381SOL    HW3 9297   0.016   4.747   1.386  0.7096  3.4734  0.0144
 2381SOL    MW4 9298   0.008   4.734   1.472 -0.0598  0.4470  0.1745
 2382SOL     OW 9299   2.907   3.063   3.514 -0.6079 -0.2940  0.1444
 2382SOL    HW2 9300   2.914   2.971   3.541  0.0519  0.0205  1.0824
 2382SOL    HW3 9301   2.953   3.112   3.582 -0.3771  0.6814 -0.6872
 2382SOL    MW4 9302   2.914   3.057   3.526  0.1691  0.4869 -0.0571
 2383SOL     OW 9303   3.787   3.182   6.081  0.0196  0.0743 -0.2267
 2383SOL    HW2 9304   3.817   3.123   6.012 -0.0426 -0.4736  0.2024
 2383SOL    HW3 9305   3.775   3.266   6.038 -3.0720 -0.9362 -1.6030
 2383SOL    MW4 9306   3.789   3.185   6.066  0.0590 -0.1169  0.2744
 2384SOL     OW 9307   5.155   0.317   1.607  0.2626 -0.5648 -0.0664
 2384SOL    HW2 9308   5.237   0.326   1.558  0.2170 -0.4043 -0.1151
 2384SOL    HW3 9309   5.164   0.380   1.679  0.3432 -0.8222  0.1492
 2384SOL    MW4 9310   5.167   0.327   1.610 -0.0519  0.3358  0.2060
 2385SOL     OW 9311   1.368   5.688   0.191 -0.5382  0.4382  0.1190
 2385SOL    HW2 9312   1.296   5.670   0.130  0.5430 -1.1479 -0.7551
 2385SOL    HW3 9313   1.436   5.728   0.136  0.5372 -1.2207  0.1741
 2385SOL    MW4 9314   1.367   5.691   0.175 -0.3677 -0.4716  0.4510
 2386SOL     OW 9315   6.353   5.571   5.019 -0.1732  0.9229 -0.1452
 2386SOL    HW2 9316   6.295   5.645   5.002 -4.2110 -1.9328 -0.3373
 2386SOL    HW3 9317   6.341   5.552   5.112 -1.4461 -1.0802 -0.6723
 2386SOL    MW4 9318   6.344   5.578   5.029 -0.7629 -0.1828  0.0988
 2387SOL     OW 9319   3.557   3.791   5.597 -0.1422 -0.1198 -0.1702
 2387SOL    HW2 9320   3.607   3.795   5.679 -0.1831 -0.5550 -0.1240
 2387SOL    HW3 9321   3.498   3.716   5.608 -0.0331 -0.2785 -0.6619
 2387SOL    MW4 9322   3.556   3.782   5.609 -0.1693  0.0853 -0.0912
 2388SOL     OW 9323   1.263   0.946   0.261  0.4914 -0.2237  0.0537
 2388SOL    HW2 9324   1.268   1.017   0.197  0.4590  0.6737  1.0169
 2388SOL    HW3 9325   1.325   0.881   0.229  0.4502  0.1871 -0.9066
 2388SOL    MW4 9326   1.272   0.947   0.248  0.2808 -0.2143 -0.2160
 2389SOL     OW 9327   0.915   1.045   6.266  0.2364 -0.2052  0.0377
 2389SOL    HW2 9328   0.848   0.987   6.228  0.2867 -0.5137  0.4150
 2389SOL    HW3 9329   0.883   1.065   6.354  0.2551  0.2891 -0.0642
 2389SOL    MW4 9330   0.902   1.040   6.272 -0.5634 -0.1931  0.4455
 2390SOL     OW 9331   4.098   6.080   4.521 -0.4522  0.1981  0.3696
 2390SOL    HW2 9332   4.044   6.079   4.600 -0.1832  1.1216  0.5810
 2390SOL    HW3 9333   4.164   6.012   4.536 -0.7436 -0.0178  0.6907
 2390SOL    MW4 9334   4.100   6.071   4.533  0.0925 -0.0078 -0.0655
 2391SOL     OW 9335   2.567   4.462   2.144 -0.2016 -0.1566  0.0471
 2391SOL    HW2 9336   2.500   4.531   2.144 -0.3191 -0.2671 -0.4281
 2391SOL    HW3 9337   2.625   4.485   2.216 -0.7881 -0.0939  0.5064
 2391SOL    MW4 9338   2.566   4.474   2.154 -0.5525  0.4821  0.0712
 2392SOL     OW 9339   2.814   4.580   3.656  0.1252  0.5520 -0.2988
 2392SOL    HW2 9340   2.808   4.526   3.577  0.9425  1.4975 -1.0385
 2392SOL    HW3 9341   2.789   4.668   3.627  0.9505  1.0216  0.3483
 2392SOL    MW4 9342   2.810   4.584   3.642 -0.4579 -0.0282 -0.1014
 2393SOL     OW 9343   2.065   0.887   2.043 -0.1157  0.6512  0.0065
 2393SOL    HW2 9344   2.077   0.952   2.112  1.4751  0.6581 -0.2495
 2393SOL    HW3 9345   1.971   0.867   2.046 -0.3220  1.6427  1.2550
 2393SOL    MW4 9346   2.054   0.893   2.052 -0.2142  0.4168  0.0418
 2394SOL     OW 9347   3.649   3.517   4.563  0.2197  0.0954 -0.1806
 2394SOL    HW2 9348   3.731   3.469   4.555  0.1262  0.1925 -2.9590
 2394SOL    HW3 9349   3.674   3.609   4.558 -0.0165  0.1336 -0.7524
 2394SOL    MW4 9350   3.663   3.523   4.561 -0.4153 -0.4811  0.5592
 2395SOL     OW 9351   2.941   5.442   3.068  0.0806  0.1348  0.2227
 2395SOL    HW2 9352   2.967   5.351   3.054  0.2499 -0.3661  3.1670
 2395SOL    HW3 9353   3.020   5.493   3.051  0.8628 -0.6054  1.5372
 2395SOL    MW4 9354   2.955   5.437   3.064 -0.6038  0.0888 -0.1002
 2396SOL     OW 9355   4.887   0.312   3.144  0.3483 -0.1332 -0.0111
 2396SOL    HW2 9356   4.809   0.363   3.124 -0.3382 -1.2877 -0.3555
 2396SOL    HW3 9357   4.870   0.226   3.106  1.5829 -0.5451  0.3326
 2396SOL    MW4 9358   4.874   0.308   3.137  0.7553 -1.0532 -0.7209
 2397SOL     OW 9359   3.924   3.917   2.755 -0.4024 -0.3542 -0.6224
 2397SOL    HW2 9360   3.960   3.829   2.759  0.5066 -0.0315 -1.3525
 2397SOL    HW3 9361   3.845   3.913   2.809 -0.4186 -1.6264 -0.7078
 2397SOL    MW4 9362   3.918   3.905   2.763 -0.2968  0.1475 -0.8912
 2398SOL     OW 9363   1.861   2.829   0.796  0.4477  0.2337  0.2796
 2398SOL    HW2 9364   1.806   2.860   0.867  0.0283  1.2112 -0.4518
 2398SOL    HW3 9365   1.882   2.908   0.746  2.0456 -0.1959  0.2161
 2398SOL    MW4 9366   1.857   2.844   0.799  0.0681 -0.6169  0.0213
 2399SOL     OW 9367   2.311   5.777   1.578 -0.0467  0.7206  0.3746
 2399SOL    HW2 9368   2.304   5.827   1.497 -0.9165  1.8655  1.1227
 2399SOL    HW3 9369   2.286   5.688   1.554  0.5476  0.8399 -0.7733
 2399SOL    MW4 9370   2.307   5.772   1.564 -0.5105  0.4147 -0.2552
 2400SOL     OW 9371   0.793   2.128   6.002 -0.4170  0.4443 -0.2771
 2400SOL    HW2 9372   0.699   2.125   5.983 -0.2435  1.1014 -1.2948
 2400SOL    HW3 9373   0.832   2.164   5.923  0.8499 -1.1003 -0.4050
 2400SOL    MW4 9374   0.786   2.132   5.989 -0.4827  0.2304 -0.3942
 2401SOL     OW 9375   0.083   4.411   2.703 -0.2174 -0.3465 -0.1880
 2401SOL    HW2 9376   0.113   4.320   2.704  0.4901 -0.1143  0.5851
 2401SOL    HW3 9377   0.051   4.425   2.613 -0.3509 -1.3569 -0.3036
 2401SOL    MW4 9378   0.083   4.401   2.691  0.0940  0.0826  0.3839
 2402SOL     OW 9379   1.189   6.117   6.230  0.5282  0.0213  0.3321
 2402SOL    HW2 9380   1.122   6.053   6.206  1.2429 -0.3055 -0.9182
 2402SOL    HW3 9381   1.252   6.067   6.283  0.9911 -0.2912 -0.4908
 2402SOL    MW4 9382   1.189   6.102   6.234 -0.3163 -0.2491 -0.1491
 2403SOL     OW 9383   5.515   4.956   6.036  0.4131 -0.6269 -0.7415
 2403SOL    HW2 9384   5.534   4.921   5.949  1.0274 -0.9861 -0.4669
 2403SOL    HW3 9385   5.567   4.901   6.095  1.2573  0.6338 -0.2850
 2403SOL    MW4 9386   5.524   4.944   6.032 -0.0127 -0.0678  0.2361
 2404SOL     OW 9387   0.835   3.793   1.868  0.7542  0.2893  0.1074
 2404SOL    HW2 9388   0.930   3.801   1.853  0.8943 -0.6325  0.4552
 2404SOL    HW3 9389   0.828   3.753   1.955  0.0017  2.2723  1.0191
 2404SOL    MW4 9390   0.847   3.789   1.878  0.6638  0.2245 -0.0872
 2405SOL     OW 9391   2.614   1.274   4.912 -0.4425 -0.0313 -0.7349
 2405SOL    HW2 9392   2.565   1.195   4.892 -0.5032 -0.8192  2.0664
 2405SOL    HW3 9393   2.628   1.270   5.007  0.9648  2.5170 -0.7445
 2405SOL    MW4 9394   2.609   1.263   4.922  0.0294 -0.4278  0.7330
 2406SOL     OW 9395   1.029   4.073   4.090  0.2435  0.6669 -0.4629
 2406SOL    HW2 9396   0.969   4.130   4.041  0.9198  0.4624 -1.5694
 2406SOL    HW3 9397   1.116   4.107   4.068  0.6178 -0.2743 -0.4756
 2406SOL    MW4 9398   1.033   4.085   4.080 -0.6231  0.4939  0.3927
 2407SOL     OW 9399   1.915   6.106   0.658 -0.4365  0.3629  0.1192
 2407SOL    HW2 9400   1.999   6.093   0.614 -0.2247  1.0137  0.3281
 2407SOL    HW3 9401   1.932   6.174   0.724 -0.9249 -0.0790  0.7187
 2407SOL    MW4 9402   1.929   6.113   0.661 -0.4732 -0.6438  0.0332
 2408SOL     OW 9403   6.295   4.641   0.531 -0.1368  0.1560 -0.0433
 2408SOL    HW2 9404   6.378   4.643   0.579 -0.8171  0.1601  1.1845
 2408SOL    HW3 9405   6.297   4.558   0.483  0.0945 -0.3820  0.8768
 2408SOL    MW4 9406   6.306   4.630   0.531 -0.5902  0.2249 -0.2335
 2409SOL     OW 9407   2.286   4.144   2.344  0.0176 -0.7259 -0.6836
 2409SOL    HW2 9408   2.221   4.175   2.281 -1.6616 -1.0235  0.8033
 2409SOL    HW3 9409   2.234   4.104   2.414  1.8496 -1.4530  0.3367
 2409SOL    MW4 9410   2.270   4.142   2.345  0.1646  0.2254 -0.0075
 2410SOL     OW 9411   5.123   2.791   2.702 -0.3898  0.7254  0.0325
 2410SOL    HW2 9412   5.219   2.782   2.699 -0.4415  0.2611 -0.3271
 2410SOL    HW3 9413   5.094   2.762   2.616 -0.8831  0.5299  0.2659
 2410SOL    MW4 9414   5.132   2.786   2.690  0.3990 -0.1665  0.6152
 2411SOL     OW 9415   0.458   0.016   1.798  0.1713 -0.0893  0.6415
 2411SOL    HW2 9416   0.421  -0.038   1.729  0.0071 -1.4282  1.7314
 2411SOL    HW3 9417   0.444  -0.034   1.878  1.7436  0.7021  1.4638
 2411SOL    MW4 9418   0.451   0.002   1.800  0.1683  0.9096 -0.0917
 2412SOL     OW 9419   2.699   0.964   5.099 -0.2541 -0.4993 -0.0003
 2412SOL    HW2 9420   2.629   0.956   5.164 -1.0077  1.7296 -0.4244
 2412SOL    HW3 9421   2.662   0.924   5.020 -0.0560 -1.5631  0.4349
 2412SOL    MW4 9422   2.685   0.958   5.097  0.1289 -0.0338  0.5493
 2413SOL     OW 9423   4.575   2.629   0.796  0.1337 -0.1812 -0.2522
 2413SOL    HW2 9424   4.541   2.651   0.883 -1.1997  0.2593 -0.8507
 2413SOL    HW3 9425   4.535   2.545   0.775 -0.4850  0.2687 -0.9085
 2413SOL    MW4 9426   4.565   2.621   0.805  0.6427  0.0257 -0.7034
 2414SOL     OW 9427   2.541   4.582   3.791  0.1775 -0.0787 -0.2627
 2414SOL    HW2 9428   2.533   4.547   3.879  0.1583 -0.2919 -0.3498
 2414SOL    HW3 9429   2.631   4.561   3.765  0.7224  1.4083  0.3231
 2414SOL    MW4 9430   2.552   4.575   3.799 -0.4616 -0.3617 -0.1975
 2415SOL     OW 9431   5.678   4.321   2.509 -0.3477  0.0089 -0.1226
 2415SOL    HW2 9432   5.711   4.342   2.597 -0.9406  0.9697 -0.1158
 2415SOL    HW3 9433   5.697   4.399   2.457 -2.8878  0.7678 -0.0341
 2415SOL    MW4 9434   5.685   4.334   2.514  0.4868 -0.1086 -0.9619
 2416SOL     OW 9435   4.722   3.414   5.363  0.2198  0.0675  0.1828
 2416SOL    HW2 9436   4.774   3.452   5.434  2.0629  1.4973 -1.7984
 2416SOL    HW3 9437   4.658   3.481   5.341  1.1265  0.6031 -0.9354
 2416SOL    MW4 9438   4.720   3.428   5.369 -0.4632  0.4741 -0.2909
 2417SOL     OW 9439   2.540   4.152   1.538  0.0248  0.1960 -0.6256
 2417SOL    HW2 9440   2.514   4.108   1.456 -1.0909  0.6276 -0.5214
 2417SOL    HW3 9441   2.461   4.195   1.568  0.6163  0.6627  0.3103
 2417SOL    MW4 9442   2.526   4.152   1.531 -0.1702  0.0671 -0.1693
 2418SOL     OW 9443   5.823   5.672   2.285 -0.4982  0.5215  0.1219
 2418SOL    HW2 9444   5.884   5.672   2.212  0.2071  1.3321  0.6958
 2418SOL    HW3 9445   5.878   5.675   2.363 -1.1119 -3.0997  0.8678
 2418SOL    MW4 9446   5.838   5.673   2.286  0.1777  0.7584 -0.2121
 2419SOL     OW 9447   1.432   6.369   1.664 -0.1636  0.1311  0.4622
 2419SOL    HW2 9448   1.516   6.416   1.672  0.0045 -0.2707  1.1792
 2419SOL    HW3 9449   1.400   6.392   1.577  1.2187 -0.5801 -0.2648
 2419SOL    MW4 9450   1.439   6.379   1.654  0.2965  0.2046 -0.6001
 2420SOL     OW 9451   0.982   3.179   5.809 -0.1716 -0.4703  0.3361
 2420SOL    HW2 9452   0.925   3.207   5.737  1.4865  1.1145 -0.4630
 2420SOL    HW3 9453   0.976   3.249   5.873 -2.2585 -2.2433  2.2276
 2420SOL    MW4 9454   0.974   3.192   5.808 -0.2495  0.5268 -0.1112
 2421SOL     OW 9455   4.086   5.484   5.914 -0.6114 -0.1024  0.0691
 2421SOL    HW2 9456   3.997   5.451   5.925 -0.3216 -1.1812 -0.6694
 2421SOL    HW3 9457   4.106   5.468   5.822 -0.1767  1.5102 -0.1480
 2421SOL    MW4 9458   4.077   5.477   5.904  0.1580  0.0814  0.1226
 2422SOL     OW 9459   1.933   4.691   5.642  0.0305 -0.8274  0.3966
 2422SOL    HW2 9460   1.855   4.636   5.642 -1.1075  0.7219 -0.1486
 2422SOL    HW3 9461   1.972   4.678   5.555 -1.1075  0.3644 -0.3260
 2422SOL    MW4 9462   1.928   4.682   5.630  0.1005  0.3773  0.0609
 2423SOL     OW 9463   1.568   6.401   2.114 -0.1466 -0.5933 -0.5817
 2423SOL    HW2 9464   1.475   6.423   2.123  0.5207  3.0565 -1.1092
 2423SOL    HW3 9465   1.593   6.368   2.201 -1.2737  1.4894  0.6156
 2423SOL    MW4 9466   1.559   6.399   2.127  0.2932 -0.3778  0.1022
 2424SOL     OW 9467   0.567   2.244   4.333 -0.2890 -0.2328  0.5949
 2424SOL    HW2 9468   0.653   2.235   4.292 -1.2263  0.1619 -1.5737
 2424SOL    HW3 9469   0.532   2.155   4.336 -0.6541 -0.1367 -0.5090
 2424SOL    MW4 9470   0.574   2.231   4.328  0.1152  0.1395 -0.4468
 2425SOL     OW 9471   6.367   1.900   2.427 -0.0821 -0.5980  0.1545
 2425SOL    HW2 9472   6.346   1.988   2.458  0.2974 -1.1932  2.2595
 2425SOL    HW3 9473   6.282   1.856   2.418 -0.1994 -0.4443  0.4967
 2425SOL    MW4 9474   6.353   1.906   2.430  0.0326  0.2459  0.4437
 2426SOL     OW 9475   5.002   0.890   3.655  0.4673  0.2644 -0.4204
 2426SOL    HW2 9476   4.991   0.923   3.566 -1.5992 -0.4945 -0.4951
 2426SOL    HW3 9477   4.913   0.873   3.686  1.2340 -1.4649  1.0352
 2426SOL    MW4 9478   4.989   0.892   3.647 -0.7386 -0.1224 -0.5049
 2427SOL     OW 9479   3.647   0.302   0.845  0.8376 -0.5962 -0.1503
 2427SOL    HW2 9480   3.703   0.361   0.794 -0.1217  2.6608  2.1847
 2427SOL    HW3 9481   3.705   0.266   0.913  0.9929 -0.6879 -0.3307
 2427SOL    MW4 9482   3.662   0.305   0.847  0.1411  0.1012 -0.0136
 2428SOL     OW 9483   3.541   4.121   1.095 -0.0228 -0.2942 -0.1301
 2428SOL    HW2 9484   3.462   4.086   1.136 -1.2190  1.3656 -0.8599
 2428SOL    HW3 9485   3.590   4.045   1.065 -2.1146 -1.3634 -1.0079
 2428SOL    MW4 9486   3.537   4.107   1.097  0.5770  1.1595  0.1273
 2429SOL     OW 9487   4.242   2.059   0.213  0.5213  0.0006 -0.0605
 2429SOL    HW2 9488   4.249   2.151   0.239 -0.9373  0.4664 -1.1692
 2429SOL    HW3 9489   4.333   2.030   0.201  0.9709  1.4946 -0.3855
 2429SOL    MW4 9490   4.255   2.067   0.215 -0.0664 -0.2366 -0.0355
 2430SOL     OW 9491   0.736   4.577   3.430  0.0644 -0.2709 -0.8830
 2430SOL    HW2 9492   0.729   4.538   3.517 -1.7467 -0.4619 -1.0798
 2430SOL    HW3 9493   0.677   4.652   3.432  1.0708  0.5761 -1.5305
 2430SOL    MW4 9494   0.727   4.582   3.442  0.0431  0.0054  0.0218
 2431SOL     OW 9495   3.582   4.804   0.608  0.1058 -0.0642 -0.7984
 2431SOL    HW2 9496   3.557   4.787   0.517  0.6385  0.8325 -1.1380
 2431SOL    HW3 9497   3.673   4.774   0.614 -0.1963 -0.9000 -0.3168
 2431SOL    MW4 9498   3.591   4.798   0.597  1.1447  0.0926  0.0939
 2432SOL     OW 9499   5.415   5.284   0.509  0.1655  0.2625 -0.0519
 2432SOL    HW2 9500   5.441   5.193   0.523  1.8726  0.5385 -1.1924
 2432SOL    HW3 9501   5.489   5.324   0.464 -1.2335  1.8052 -1.1033
 2432SOL    MW4 9502   5.428   5.277   0.505 -0.0354 -0.1980 -0.0572
 2433SOL     OW 9503   3.612   3.934   1.722  0.2039  0.2870  0.2556
 2433SOL    HW2 9504   3.679   3.939   1.653  0.5067 -1.5066  0.3779
 2433SOL    HW3 9505   3.533   3.907   1.676  0.5612 -1.5667  0.6454
 2433SOL    MW4 9506   3.611   3.931   1.707 -0.8114  0.6524  0.4327
 2434SOL     OW 9507   2.020   4.320   5.625  0.6584 -0.2013 -0.3183
 2434SOL    HW2 9508   2.076   4.393   5.653  0.4362  0.0518 -0.5284
 2434SOL    HW3 9509   2.003   4.271   5.705  0.6341  0.0966 -0.1384
 2434SOL    MW4 9510   2.025   4.323   5.639 -0.0091 -0.0563 -0.2252
 2435SOL     OW 9511   4.548   5.344   1.191  0.0599 -0.4863 -0.0253
 2435SOL    HW2 9512   4.501   5.261   1.186 -1.1866  0.2319 -0.8318
 2435SOL    HW3 9513   4.617   5.337   1.126 -0.0335 -0.8846 -0.0846
 2435SOL    MW4 9514   4.551   5.332   1.182 -0.1944  0.1944  0.5396
 2436SOL     OW 9515   1.052   3.221   2.804 -0.3143  0.3421  0.0592
 2436SOL    HW2 9516   1.136   3.262   2.785  0.2082  0.1973  1.7997
 2436SOL    HW3 9517   1.054   3.139   2.755 -0.3679  1.2803 -1.5780
 2436SOL    MW4 9518   1.064   3.215   2.795 -0.5352 -0.1203  0.1893
 2437SOL     OW 9519   2.031   5.488   2.631 -1.0375 -0.0067  0.0505
 2437SOL    HW2 9520   2.117   5.499   2.591  0.0201 -0.4507  2.0632
 2437SOL    HW3 9521   2.012   5.572   2.672 -0.2344 -0.6898  1.9524
 2437SOL    MW4 9522   2.040   5.500   2.631  0.0699  0.0550 -0.3494
 2438SOL     OW 9523   2.815   5.957   3.405 -0.2709  0.0078 -0.6407
 2438SOL    HW2 9524   2.734   5.987   3.446  0.4886 -0.8578  1.6606
 2438SOL    HW3 9525   2.839   5.879   3.455  2.4451  0.7626 -0.6264
 2438SOL    MW4 9526   2.808   5.951   3.417  0.0922  0.1777  0.1836
 2439SOL     OW 9527   1.471   4.269   3.743 -0.6874 -0.1465 -0.2025
 2439SOL    HW2 9528   1.542   4.213   3.715  0.2851  1.8204 -1.9455
 2439SOL    HW3 9529   1.434   4.305   3.662 -1.7415  1.1271  0.7846
 2439SOL    MW4 9530   1.475   4.267   3.729 -0.0928  0.2244  0.0174
 2440SOL     OW 9531   2.469   0.352   2.204 -0.3784 -0.0280 -0.1201
 2440SOL    HW2 9532   2.490   0.389   2.289  1.5945 -1.7447  0.2012
 2440SOL    HW3 9533   2.408   0.280   2.223  0.5545 -0.8202 -0.0517
 2440SOL    MW4 9534   2.464   0.347   2.218 -0.1083 -0.0961  0.2640
 2441SOL     OW 9535   0.662   3.562   0.923  0.0523 -0.0955 -0.2770
 2441SOL    HW2 9536   0.627   3.522   1.003 -0.9501 -1.9625 -1.5735
 2441SOL    HW3 9537   0.636   3.502   0.853  0.6921  1.5926 -2.0502
 2441SOL    MW4 9538   0.654   3.549   0.924 -0.3232 -0.0876  0.0097
 2442SOL     OW 9539   3.532   2.561   5.523 -0.4054 -0.4099 -0.1926
 2442SOL    HW2 9540   3.571   2.542   5.437  0.3954 -1.3206  0.3404
 2442SOL    HW3 9541   3.470   2.490   5.538  0.2839 -0.9015  0.4495
 2442SOL    MW4 9542   3.529   2.549   5.514 -0.0789  0.2951 -0.4775
 2443SOL     OW 9543   3.656   0.373   3.658 -0.1268  0.0640 -0.1421
 2443SOL    HW2 9544   3.564   0.399   3.668 -0.5036 -1.1028 -0.4668
 2443SOL    HW3 9545   3.705   0.443   3.701 -1.1792  0.5813  0.2532
 2443SOL    MW4 9546   3.650   0.386   3.665  0.3276  0.2184  0.1347
 2444SOL     OW 9547   5.790   5.723   5.317 -0.5565  0.2575 -0.3821
 2444SOL    HW2 9548   5.870   5.699   5.270  0.6756  1.3921  1.0288
 2444SOL    HW3 9549   5.785   5.661   5.389  0.3801  1.5481  0.8678
 2444SOL    MW4 9550   5.800   5.712   5.320  0.7470  0.5024 -0.5604
 2445SOL     OW 9551   1.731   2.288   3.689 -0.1423  0.7745 -0.5889
 2445SOL    HW2 9552   1.722   2.199   3.724  0.8476  0.9274  0.0782
 2445SOL    HW3 9553   1.777   2.276   3.606 -1.5010  0.5219 -1.3393
 2445SOL    MW4 9554   1.736   2.275   3.682 -0.5497  0.2043 -0.6873
 2446SOL     OW 9555   1.086   2.601   1.028 -0.0226  0.4227 -0.5295
 2446SOL    HW2 9556   1.178   2.622   1.044  0.4562 -0.7878 -1.5202
 2446SOL    HW3 9557   1.089   2.524   0.972 -1.6142 -1.3893  1.6605
 2446SOL    MW4 9558   1.099   2.593   1.023 -0.3847  0.0701  0.3809
 2447SOL     OW 9559   1.961   0.408   5.518 -0.3425  0.6996 -0.1964
 2447SOL    HW2 9560   1.925   0.354   5.448  0.7272 -0.9212  0.4622
 2447SOL    HW3 9561   1.892   0.411   5.584 -0.0971 -0.6492  0.1517
 2447SOL    MW4 9562   1.947   0.402   5.518  0.2851  0.6733  0.4573
 2448SOL     OW 9563   2.017   4.726   0.700  0.0883  0.2510  0.4259
 2448SOL    HW2 9564   2.108   4.697   0.691 -0.3279 -1.1074  0.4768
 2448SOL    HW3 9565   2.002   4.728   0.795 -0.1258 -0.1270  0.3987
 2448SOL    MW4 9566   2.027   4.723   0.711 -0.3821 -0.4503  0.0690
 2449SOL     OW 9567   4.646   5.364   2.171  0.1977  0.0436 -0.1125
 2449SOL    HW2 9568   4.725   5.417   2.157  1.2403 -1.2278  0.6919
 2449SOL    HW3 9569   4.625   5.377   2.264 -0.7099  0.5768 -0.3843
 2449SOL    MW4 9570   4.654   5.372   2.182  0.4452  0.2451 -0.5070
 2450SOL     OW 9571   3.944   3.404   4.861 -0.0524 -0.0344  0.3791
 2450SOL    HW2 9572   3.862   3.363   4.889  1.4830 -2.1820  2.0757
 2450SOL    HW3 9573   4.002   3.394   4.936  1.9718  0.8814 -0.9916
 2450SOL    MW4 9574   3.941   3.397   4.875 -0.7621  0.1548 -0.1024
 2451SOL     OW 9575   4.433   0.292   1.608  0.3947  0.5026  0.4732
 2451SOL    HW2 9576   4.350   0.268   1.567 -0.1971  1.3284  1.1684
 2451SOL    HW3 9577   4.488   0.320   1.534 -0.7108  2.1244  0.2250
 2451SOL    MW4 9578   4.429   0.292   1.593 -1.0867  0.2621  0.1226
 2452SOL     OW 9579   4.743   3.336   4.388  0.2955  0.4638 -0.1563
 2452SOL    HW2 9580   4.700   3.263   4.344  0.7051  0.6419 -0.8624
 2452SOL    HW3 9581   4.821   3.355   4.335  1.5580 -0.2008  1.3745
 2452SOL    MW4 9582   4.748   3.329   4.375 -0.5612  0.6638  0.2951
 2453SOL     OW 9583   4.808   2.517   1.602  0.7215 -0.0691  0.4956
 2453SOL    HW2 9584   4.825   2.449   1.537 -0.7750  0.5276 -0.5684
 2453SOL    HW3 9585   4.887   2.518   1.656  1.5714 -1.3114 -0.6491
 2453SOL    MW4 9586   4.821   2.508   1.600  0.3006  0.0291 -0.0673
 2454SOL     OW 9587   6.171   2.500   3.676 -0.3615  0.4633 -0.0327
 2454SOL    HW2 9588   6.235   2.541   3.618 -0.3464  1.0908  0.4035
 2454SOL    HW3 9589   6.224   2.448   3.737 -0.3414  0.1748 -0.2994
 2454SOL    MW4 9590   6.186   2.499   3.677  0.6486  0.1461  0.2320
 2455SOL     OW 9591   6.188   1.061   3.538 -0.4899 -0.3240 -0.2797
 2455SOL    HW2 9592   6.259   1.125   3.546  0.1758 -1.0620 -0.2436
 2455SOL    HW3 9593   6.114   1.102   3.584 -0.1002  0.4552 -0.3369
 2455SOL    MW4 9594   6.188   1.075   3.545  0.0428  0.6455  0.4752
 2456SOL     OW 9595   2.209   5.061   3.341 -0.4282 -0.2631  0.0497
 2456SOL    HW2 9596   2.146   5.035   3.274  0.5886  1.3492 -1.6193
 2456SOL    HW3 9597   2.169   5.137   3.384 -0.1145  0.0829 -0.2636
 2456SOL    MW4 9598   2.196   5.068   3.338  0.4976 -0.1017 -0.0383
 2457SOL     OW 9599   3.871   6.168   6.336 -0.0907 -0.2894  0.3855
 2457SOL    HW2 9600   3.918   6.143   6.415 -0.6645  0.4323  0.9709
 2457SOL    HW3 9601   3.800   6.104   6.329 -0.1609 -0.2314  0.5656
 2457SOL    MW4 9602   3.868   6.156   6.346 -0.2032  0.5043 -0.3464
 2458SOL     OW 9603   3.089   1.512   0.563 -0.2490 -0.1080  0.2016
 2458SOL    HW2 9604   3.009   1.467   0.537 -0.6867  1.0179 -0.4818
 2458SOL    HW3 9605   3.152   1.442   0.579 -1.3884 -1.0203  0.8609
 2458SOL    MW4 9606   3.087   1.497   0.562 -0.1507 -0.3031  0.0983
 2459SOL     OW 9607   4.996   2.451   0.428 -0.5820  0.4544 -0.1392
 2459SOL    HW2 9608   4.971   2.521   0.368 -0.4604 -0.6432 -1.5072
 2459SOL    HW3 9609   4.927   2.385   0.419 -0.1067 -0.1162  0.2867
 2459SOL    MW4 9610   4.983   2.452   0.419 -0.3715 -0.0389 -0.1212
 2460SOL     OW 9611   6.279   5.333   4.891  0.1040 -0.7914  0.6150
 2460SOL    HW2 9612   6.344   5.333   4.821  0.2472  0.0300  0.7452
 2460SOL    HW3 9613   6.277   5.423   4.923 -1.6600 -0.6033  0.0884
 2460SOL    MW4 9614   6.287   5.345   4.886 -0.9784  0.3393  0.4029
 2461SOL     OW 9615   0.437   4.895   2.267 -0.0531  0.2634  0.2769
 2461SOL    HW2 9616   0.517   4.890   2.319  2.2377  1.4453 -2.8230
 2461SOL    HW3 9617   0.461   4.860   2.182 -2.3550  2.1006 -1.2640
 2461SOL    MW4 9618   0.451   4.890   2.263 -0.2960  0.0348 -0.0436
 2462SOL     OW 9619   3.245   3.880   2.360 -0.0160 -0.3750  0.2994
 2462SOL    HW2 9620   3.341   3.881   2.365  0.1080 -0.6260 -1.3771
 2462SOL    HW3 9621   3.220   3.972   2.359  0.3233 -0.2835 -0.6914
 2462SOL    MW4 9622   3.254   3.892   2.361  0.2241  0.0856 -0.3641
 2463SOL     OW 9623   5.059   4.507   4.870 -0.1126 -0.3198  0.0049
 2463SOL    HW2 9624   5.010   4.474   4.795 -1.2613 -0.8372  0.9394
 2463SOL    HW3 9625   4.995   4.559   4.919  1.2837  2.2163 -0.6830
 2463SOL    MW4 9626   5.044   4.510   4.867 -0.0385 -0.5726 -0.0895
 2464SOL     OW 9627   4.651   5.554   6.315  0.8544 -0.2266  0.3303
 2464SOL    HW2 9628   4.556   5.552   6.315  0.8288 -2.4918 -1.0034
 2464SOL    HW3 9629   4.674   5.621   6.251  0.2508  1.6980  2.0244
 2464SOL    MW4 9630   4.642   5.563   6.307 -0.2943  0.3077 -0.2134
 2465SOL     OW 9631   5.694   4.060   1.864 -0.2550  0.2201  0.3037
 2465SOL    HW2 9632   5.735   4.019   1.788 -2.3698  0.5826 -1.1357
 2465SOL    HW3 9633   5.603   4.073   1.838 -0.4865  2.6865  1.9559
 2465SOL    MW4 9634   5.687   4.056   1.851  0.3576  0.9818 -0.4634
 2466SOL     OW 9635   0.472   2.345   2.535  0.1078  0.3724 -0.0302
 2466SOL    HW2 9636   0.495   2.255   2.514  0.6037  0.4896 -0.0078
 2466SOL    HW3 9637   0.554   2.393   2.527 -0.2041  0.8669 -0.2801
 2466SOL    MW4 9638   0.486   2.339   2.531  0.7792  0.7838 -0.1203
 2467SOL     OW 9639   5.473   2.418   0.226 -0.3897 -0.3512  0.1519
 2467SOL    HW2 9640   5.495   2.418   0.319  2.0767  0.7206 -0.3253
 2467SOL    HW3 9641   5.549   2.460   0.184 -1.5401 -0.5507 -2.3114
 2467SOL    MW4 9642   5.486   2.424   0.232 -0.3419 -0.6744  0.5464
 2468SOL     OW 9643   1.201   3.175   1.816 -0.2170 -0.3102 -0.2479
 2468SOL    HW2 9644   1.223   3.240   1.749 -1.9851 -0.0342 -0.6223
 2468SOL    HW3 9645   1.134   3.121   1.775 -2.8494  1.0909  1.8812
 2468SOL    MW4 9646   1.195   3.176   1.801  0.1581  0.4997  0.4948
 2469SOL     OW 9647   6.228   3.011   2.060  0.4563 -0.0252 -0.5555
 2469SOL    HW2 9648   6.291   3.082   2.074  0.9422 -0.7357  1.1668
 2469SOL    HW3 9649   6.281   2.938   2.029  0.0832  0.0956 -1.5036
 2469SOL    MW4 9650   6.243   3.011   2.058  0.6799 -0.2673  0.1173
 2470SOL     OW 9651   2.987   5.470   2.479 -0.6381 -0.0328 -0.0445
 2470SOL    HW2 9652   2.916   5.425   2.525 -1.3540  1.4833  0.3986
 2470SOL    HW3 9653   2.957   5.561   2.473  1.3954  0.7183  0.4301
 2470SOL    MW4 9654   2.973   5.476   2.485 -0.0221 -0.1468  0.1787
 2471SOL     OW 9655   2.583   1.295   5.207  0.3283  0.2855  0.2731
 2471SOL    HW2 9656   2.623   1.264   5.288  0.2291  0.2482  0.3081
 2471SOL    HW3 9657   2.537   1.375   5.231  0.9897  0.7327  0.0846
 2471SOL    MW4 9658   2.582   1.301   5.221  0.2591  0.6109 -0.7214
 2472SOL     OW 9659   5.580   6.364   5.471  0.3519 -0.4054 -0.7073
 2472SOL    HW2 9660   5.584   6.437   5.409  1.9264  1.1977  1.1603
 2472SOL    HW3 9661   5.499   6.378   5.520  0.3991 -0.2099 -0.6869
 2472SOL    MW4 9662   5.570   6.375   5.469 -0.3485 -0.2024  0.3883
 2473SOL     OW 9663   5.321   1.221   0.647 -0.0178  0.1819 -0.3267
 2473SOL    HW2 9664   5.341   1.206   0.740 -1.2846 -0.4158 -0.1307
 2473SOL    HW3 9665   5.237   1.176   0.633 -1.0863  2.3238 -1.1621
 2473SOL    MW4 9666   5.313   1.213   0.658  0.5173 -0.0674 -0.6548
 2474SOL     OW 9667   1.023   4.971   2.613 -0.5613  0.1193  0.1189
 2474SOL    HW2 9668   0.957   4.997   2.549 -0.6754 -0.4352  0.0096
 2474SOL    HW3 9669   0.973   4.952   2.692 -0.5315 -0.2746  0.0440
 2474SOL    MW4 9670   1.008   4.972   2.615 -0.1019  0.6945  0.1365
 2475SOL     OW 9671   1.219   1.744   4.163 -0.1907  0.7719 -0.1450
 2475SOL    HW2 9672   1.280   1.816   4.150  0.7503  0.4995  2.2261
 2475SOL    HW3 9673   1.143   1.784   4.204 -0.1507  0.6169  0.0858
 2475SOL    MW4 9674   1.217   1.758   4.167  0.1071 -0.1159 -0.7453
 2476SOL     OW 9675   3.826   0.140   4.724 -0.2496  0.3066  0.5718
 2476SOL    HW2 9676   3.732   0.121   4.718 -0.2745  0.6096 -0.0957
 2476SOL    HW3 9677   3.831   0.224   4.771 -0.3261  0.3887  0.4349
 2476SOL    MW4 9678   3.814   0.149   4.730 -0.1016  0.2126  0.1608
 2477SOL     OW 9679   4.802   3.629   3.492 -0.5148  0.1862 -0.6483
 2477SOL    HW2 9680   4.793   3.649   3.399 -0.4937  1.6785 -0.3621
 2477SOL    HW3 9681   4.858   3.699   3.526 -0.1369 -0.5995  0.4040
 2477SOL    MW4 9682   4.808   3.641   3.484  0.3561 -0.2110 -0.4155
 2478SOL     OW 9683   5.804   3.971   2.865  0.0821 -0.1552 -0.2465
 2478SOL    HW2 9684   5.852   3.954   2.784 -0.8592 -1.9584 -0.4940
 2478SOL    HW3 9685   5.819   4.063   2.884  0.9154  0.1246 -2.0849
 2478SOL    MW4 9686   5.812   3.981   2.857  0.8185 -0.0591 -0.2740
 2479SOL     OW 9687   4.243   1.873   1.932  0.3289  0.3622 -0.3797
 2479SOL    HW2 9688   4.151   1.868   1.910  0.0595  0.6112  0.6269
 2479SOL    HW3 9689   4.288   1.883   1.848 -0.3435 -2.1782 -1.1283
 2479SOL    MW4 9690   4.237   1.873   1.918  0.4218 -0.1154 -0.2314
 2480SOL     OW 9691   4.833   0.054   3.064  0.2741 -0.2437 -0.0297
 2480SOL    HW2 9692   4.816   0.019   3.151  1.1771  0.9310  0.6434
 2480SOL    HW3 9693   4.754   0.032   3.014  0.2152 -1.9325  0.7382
 2480SOL    MW4 9694   4.820   0.047   3.069 -0.0919  0.1945  0.2248
 2481SOL     OW 9695   4.000   5.069   3.147 -0.1793  0.2437  0.3457
 2481SOL    HW2 9696   4.078   5.113   3.181 -0.2622  0.3396  0.4139
 2481SOL    HW3 9697   3.984   5.109   3.062  0.5560 -0.6296 -0.2182
 2481SOL    MW4 9698   4.008   5.080   3.140 -0.4025 -0.3861  0.2389
 2482SOL     OW 9699   2.242   2.402   1.049 -0.1901  0.4747 -0.2391
 2482SOL    HW2 9700   2.277   2.452   1.123 -0.4020  1.4234 -0.7630
 2482SOL    HW3 9701   2.306   2.414   0.979  0.8252 -1.7259  0.2241
 2482SOL    MW4 9702   2.255   2.410   1.050  0.0194  0.3759  0.5628
 2483SOL     OW 9703   2.974   3.717   3.719 -0.2214 -0.2784 -0.3845
 2483SOL    HW2 9704   3.029   3.717   3.641 -1.1887  0.0710 -1.0961
 2483SOL    HW3 9705   3.035   3.711   3.792  0.6683 -1.5697 -1.1814
 2483SOL    MW4 9706   2.989   3.716   3.718 -0.1947 -0.0568  0.3101
 2484SOL     OW 9707   0.194   5.531   1.474  0.8424  0.3389  0.3883
 2484SOL    HW2 9708   0.232   5.599   1.531 -3.8298  2.1207  1.8913
 2484SOL    HW3 9709   0.154   5.580   1.402 -2.6497 -0.5725  1.4958
 2484SOL    MW4 9710   0.193   5.547   1.472 -0.3035  0.4693 -0.1703
 2485SOL     OW 9711   2.361   2.769   3.913  0.0490  0.1860  0.1238
 2485SOL    HW2 9712   2.433   2.823   3.880  0.3558 -0.7362 -0.7649
 2485SOL    HW3 9713   2.300   2.763   3.839  0.8694 -2.1195 -0.4430
 2485SOL    MW4 9714   2.363   2.776   3.899 -0.1685  0.3170  0.0515
 2486SOL     OW 9715   4.933   1.120   4.382  0.0068  0.2077  0.1021
 2486SOL    HW2 9716   5.026   1.121   4.359  0.2970 -2.0689  1.0134
 2486SOL    HW3 9717   4.930   1.091   4.473 -1.6439 -1.6088 -0.4517
 2486SOL    MW4 9718   4.945   1.117   4.391 -0.3357 -0.6342  0.4335
 2487SOL     OW 9719   3.266   5.590   5.109 -0.1243  0.0030  0.0372
 2487SOL    HW2 9720   3.214   5.621   5.035 -0.3120 -0.6135 -0.1009
 2487SOL    HW3 9721   3.351   5.632   5.098 -0.8514  1.7345  0.7713
 2487SOL    MW4 9722   3.271   5.600   5.098 -0.0869  0.2541 -0.1240
 2488SOL     OW 9723   3.862   0.580   5.956 -0.4864  0.1117 -0.5480
 2488SOL    HW2 9724   3.869   0.528   5.875 -0.4517 -1.0584  0.1842
 2488SOL    HW3 9725   3.950   0.579   5.992 -0.5684  0.3797 -0.3415
 2488SOL    MW4 9726   3.875   0.573   5.950  0.0471  0.5728 -0.1778
 2489SOL     OW 9727   3.688   2.505   2.806  0.3190 -0.0626 -0.2720
 2489SOL    HW2 9728   3.723   2.502   2.717  1.7370  0.1907  0.2426
 2489SOL    HW3 9729   3.721   2.425   2.848 -0.8946 -0.5212 -0.1548
 2489SOL    MW4 9730   3.697   2.494   2.800 -0.1962  0.4973  0.3146
 2490SOL     OW 9731   2.044   1.663   1.018  0.6612 -0.0559  0.0845
 2490SOL    HW2 9732   2.060   1.678   0.925  0.3704 -0.3523 -0.0167
 2490SOL    HW3 9733   2.068   1.571   1.032  0.7536  0.0008  0.3153
 2490SOL    MW4 9734   2.049   1.653   1.008 -0.5988 -0.1785  0.5204
 2491SOL     OW 9735   1.030   0.013   0.552  0.3650 -0.3914 -0.0328
 2491SOL    HW2 9736   1.125  -0.003   0.546  0.3283 -0.3462 -0.8693
 2491SOL    HW3 9737   1.018   0.098   0.509 -0.1143 -0.6035 -0.3136
 2491SOL    MW4 9738   1.041   0.022   0.546 -0.5212 -0.2557 -0.2227
 2492SOL     OW 9739   4.744   3.150   4.028  0.0895  0.7105 -0.2921
 2492SOL    HW2 9740   4.709   3.088   3.963 -1.6415 -0.7443  1.8459
 2492SOL    HW3 9741   4.829   3.114   4.052  0.9451  1.5135 -2.0276
 2492SOL    MW4 9742   4.750   3.137   4.023  0.3413 -0.0152 -0.6240
 2493SOL     OW 9743   0.070   3.875   2.699 -0.9857 -0.1434 -0.2521
 2493SOL    HW2 9744   0.009   3.850   2.630 -0.5543 -1.1942 -0.2754
 2493SOL    HW3 9745   0.084   3.795   2.749 -0.0427  0.2092  0.0731
 2493SOL    MW4 9746   0.064   3.861   2.696  0.2447  0.0099  0.1698
 2494SOL     OW 9747   6.081   4.497   2.724 -1.0250  0.4376  0.2343
 2494SOL    HW2 9748   6.048   4.587   2.728  0.4357  1.0077  0.4210
 2494SOL    HW3 9749   6.165   4.501   2.770  0.4185 -0.3915 -2.1682
 2494SOL    MW4 9750   6.088   4.509   2.731 -0.0990  0.6063  0.0540
 2495SOL     OW 9751   3.858   5.369   0.004 -0.5134  0.7143 -0.1956
 2495SOL    HW2 9752   3.903   5.446  -0.031 -0.5018  0.8032  0.0090
 2495SOL    HW3 9753   3.913   5.341   0.078 -1.3281  1.4506  0.7230
 2495SOL    MW4 9754   3.872   5.376   0.009  0.3533 -0.2884 -0.1523
 2496SOL     OW 9755   5.651   4.860   1.736  0.0610 -0.1564 -0.0103
 2496SOL    HW2 9756   5.557   4.848   1.749  0.0961 -1.7666 -0.9786
 2496SOL    HW3 9757   5.690   4.840   1.821 -0.2923 -2.3607 -0.3217
 2496SOL    MW4 9758   5.644   4.856   1.749 -0.2229 -0.4778 -0.3244
 2497SOL     OW 9759   0.188   4.293   1.459 -0.1060  0.4737  0.6882
 2497SOL    HW2 9760   0.274   4.334   1.446 -1.0247  2.6621  1.0652
 2497SOL    HW3 9761   0.196   4.207   1.419  1.4821  1.5852 -1.6355
 2497SOL    MW4 9762   0.201   4.287   1.452  0.0351 -0.5486  0.9352
 2498SOL     OW 9763   0.275   3.553   3.699  0.3505  0.4259 -0.3762
 2498SOL    HW2 9764   0.238   3.467   3.719 -2.1296  1.6566  0.8373
 2498SOL    HW3 9765   0.288   3.552   3.604 -1.2817 -0.7528 -0.6388
 2498SOL    MW4 9766   0.272   3.542   3.689 -0.2195  0.0005 -0.0805
 2499SOL     OW 9767   0.369   6.127   6.149 -0.4983  0.1712  0.3427
 2499SOL    HW2 9768   0.306   6.073   6.197 -0.0299 -0.7964 -0.1085
 2499SOL    HW3 9769   0.403   6.069   6.081 -0.5692  1.2823 -0.6698
 2499SOL    MW4 9770   0.365   6.112   6.146  0.3008 -0.9618  0.5389
 2500SOL     OW 9771   5.854   3.043   3.276  0.4087  0.3159  0.1014
 2500SOL    HW2 9772   5.866   3.117   3.217 -1.1706  0.4064 -0.1471
 2500SOL    HW3 9773   5.829   3.082   3.359  0.6656  0.1000  0.2812
 2500SOL    MW4 9774   5.853   3.058   3.279  0.3630 -0.9795 -0.0718
 2501SOL     OW 9775   2.983   3.660   1.287  0.2881 -0.5585 -0.2592
 2501SOL    HW2 9776   2.925   3.586   1.308 -0.7916 -0.2336 -1.8746
 2501SOL    HW3 9777   3.056   3.620   1.240  0.6981 -0.8191  0.5949
 2501SOL    MW4 9778   2.985   3.645   1.283 -0.0765  0.4152  0.0594
 2502SOL     OW 9779   3.430   1.844   4.013 -0.5883  0.2043 -0.1915
 2502SOL    HW2 9780   3.413   1.936   3.989 -0.7608  0.8897  2.2736
 2502SOL    HW3 9781   3.347   1.814   4.051 -0.5730 -1.0504 -1.0947
 2502SOL    MW4 9782   3.417   1.852   4.015 -0.3684 -0.4535 -0.5353
 2503SOL     OW 9783   2.234   3.827   2.284 -0.0746  0.1190  0.0785
 2503SOL    HW2 9784   2.155   3.879   2.269 -0.1216  0.1563  0.4534
 2503SOL    HW3 9785   2.305   3.883   2.250 -0.4358 -1.1507 -3.1627
 2503SOL    MW4 9786   2.233   3.841   2.277 -0.8798  0.4356 -0.0472
 2504SOL     OW 9787   1.473   0.734   3.808  0.4304 -0.3955  0.7636
 2504SOL    HW2 9788   1.431   0.686   3.737 -0.1328 -0.5497  1.1890
 2504SOL    HW3 9789   1.552   0.771   3.769  0.1319 -0.4821  0.0637
 2504SOL    MW4 9790   1.478   0.732   3.794 -0.5590 -0.6414  0.1099
 2505SOL     OW 9791   3.678   3.226   0.092 -0.1206  0.1343 -0.4651
 2505SOL    HW2 9792   3.625   3.286   0.039  0.6298  0.3081 -1.0432
 2505SOL    HW3 9793   3.735   3.283   0.143 -1.0395 -0.0190  0.7902
 2505SOL    MW4 9794   3.679   3.241   0.092 -0.0008 -0.2108  0.3135
 2506SOL     OW 9795   1.353   2.776   0.709  0.3657 -0.3329 -0.1441
 2506SOL    HW2 9796   1.284   2.836   0.681  1.6025  0.3877 -1.8166
 2506SOL    HW3 9797   1.312   2.690   0.707 -0.7075  0.1627 -0.2707
 2506SOL    MW4 9798   1.339   2.773   0.705  0.2251  0.6296 -0.3747
 2507SOL     OW 9799   1.323   5.480   2.903  0.3647  0.5816 -0.6811
 2507SOL    HW2 9800   1.276   5.474   2.986 -2.8925  1.7553 -2.2505
 2507SOL    HW3 9801   1.317   5.572   2.879  1.5667  0.3392 -2.0534
 2507SOL    MW4 9802   1.316   5.491   2.911  0.1001 -0.3653  1.3979
 2508SOL     OW 9803   1.487   4.411   4.028 -0.1451 -0.1427  0.0450
 2508SOL    HW2 9804   1.524   4.333   3.987 -0.8412  0.0507 -0.9850
 2508SOL    HW3 9805   1.413   4.379   4.079  1.7049 -0.6222  2.6421
 2508SOL    MW4 9806   1.482   4.396   4.029 -0.3447 -0.3761  0.4024
 2509SOL     OW 9807   5.155   0.363   5.711  0.1500 -0.2213 -0.3163
 2509SOL    HW2 9808   5.249   0.357   5.697  0.3097  0.2005  0.5206
 2509SOL    HW3 9809   5.134   0.455   5.694  0.2965  0.2373  1.7270
 2509SOL    MW4 9810   5.165   0.374   5.707 -0.2394  0.3755 -0.1898
 2510SOL     OW 9811   2.792   2.912   4.226  0.0289 -0.0005 -0.6514
 2510SOL    HW2 9812   2.762   2.823   4.246  1.5285 -0.5394 -0.6299
 2510SOL    HW3 9813   2.731   2.969   4.273  0.3907 -1.0974  1.2915
 2510SOL    MW4 9814   2.780   2.908   4.235  0.0737  0.1039 -0.1433
 2511SOL     OW 9815   6.332   1.523   0.551 -0.0468  0.4256  0.5938
 2511SOL    HW2 9816   6.371   1.436   0.567 -0.4515 -0.1712 -1.3746
 2511SOL    HW3 9817   6.394   1.584   0.590  1.6388 -0.6350 -0.2707
 2511SOL    MW4 9818   6.345   1.519   0.558 -0.1904  0.1328  0.4759
 2512SOL     OW 9819   1.078   0.906   2.773 -0.6023  0.2487 -0.2808
 2512SOL    HW2 9820   1.109   0.935   2.858 -0.1763  2.7588 -1.1928
 2512SOL    HW3 9821   1.051   0.987   2.729 -1.0381 -0.9917 -2.4287
 2512SOL    MW4 9822   1.079   0.920   2.778  0.4310  0.4694  0.1523
 2513SOL     OW 9823   6.383   2.530   3.029 -0.0299 -0.0539  0.3279
 2513SOL    HW2 9824   6.288   2.518   3.028 -0.0035 -0.2651  0.3867
 2513SOL    HW3 9825   6.408   2.516   3.120  0.0665 -0.0593  0.3009
 2513SOL    MW4 9826   6.374   2.527   3.041 -0.9558 -0.1159  0.3078
 2514SOL     OW 9827   3.015   3.429   3.783 -0.5896  0.0128 -0.0727
 2514SOL    HW2 9828   2.977   3.509   3.749  0.6583  0.4133 -0.5879
 2514SOL    HW3 9829   3.032   3.447   3.876  0.0719  0.5007 -0.2847
 2514SOL    MW4 9830   3.013   3.442   3.791 -0.4382  0.0383  0.1208
 2515SOL     OW 9831   4.855   1.774   4.895 -0.6371 -0.3526 -0.3528
 2515SOL    HW2 9832   4.840   1.684   4.924  0.3522 -0.7261 -0.9439
 2515SOL    HW3 9833   4.859   1.769   4.800 -0.0909  0.2335 -0.3680
 2515SOL    MW4 9834   4.854   1.761   4.886  0.4068 -0.2068  0.0493
 2516SOL     OW 9835   2.292   0.089   2.234  0.2927  0.1813 -0.0392
 2516SOL    HW2 9836   2.353   0.069   2.305  0.5774 -0.9963 -0.5909
 2516SOL    HW3 9837   2.258   0.004   2.207 -2.1173  0.8454  0.6643
 2516SOL    MW4 9838   2.296   0.076   2.240 -0.3041  0.0494 -0.1834
 2517SOL     OW 9839   5.311   4.977   0.969  0.1524 -0.1060 -0.2904
 2517SOL    HW2 9840   5.313   5.070   0.990  0.5126 -0.1667 -0.0296
 2517SOL    HW3 9841   5.316   4.973   0.874 -1.7246  0.1867 -0.4437
 2517SOL    MW4 9842   5.312   4.989   0.960  0.4496 -0.5567 -0.1029
 2518SOL     OW 9843   0.566   3.584   5.796  0.1324  0.3996  0.5251
 2518SOL    HW2 9844   0.543   3.624   5.712  0.4512  0.8219  0.6394
 2518SOL    HW3 9845   0.532   3.494   5.789  0.4959  0.3094 -0.2067
 2518SOL    MW4 9846   0.558   3.577   5.784 -0.5268  0.1367 -0.3836
 2519SOL     OW 9847   1.965   5.930   1.347  0.6125 -0.3289 -0.0610
 2519SOL    HW2 9848   1.957   5.893   1.435  0.8480 -3.9050 -1.3841
 2519SOL    HW3 9849   1.898   5.885   1.296  0.4688  1.6765 -1.7697
 2519SOL    MW4 9850   1.955   5.920   1.352 -0.1972  0.0136  0.4047
 2520SOL     OW 9851   2.406   2.524   2.482 -0.5096  0.3418 -0.3812
 2520SOL    HW2 9852   2.426   2.515   2.389 -0.3045  0.5654 -0.3586
 2520SOL    HW3 9853   2.311   2.536   2.485 -0.5008  0.4675 -0.5725
 2520SOL    MW4 9854   2.396   2.524   2.470  0.6078  0.0413  0.1138
 2521SOL     OW 9855   5.483   4.545   5.565 -0.3496 -0.3419  0.7180
 2521SOL    HW2 9856   5.451   4.469   5.613 -0.8247  0.3441  1.5102
 2521SOL    HW3 9857   5.480   4.617   5.628 -2.1332  0.8681 -0.6253
 2521SOL    MW4 9858   5.479   4.545   5.580 -0.0643  0.0894  0.0674
 2522SOL     OW 9859   0.691   4.130   1.373 -0.1757 -0.5950  0.3631
 2522SOL    HW2 9860   0.785   4.142   1.357 -0.4507  0.4164 -0.6633
 2522SOL    HW3 9861   0.667   4.056   1.318 -0.2098 -0.0760 -0.3279
 2522SOL    MW4 9862   0.701   4.122   1.364  0.0031 -0.1651 -0.3237
 2523SOL     OW 9863   0.862   3.903   3.218 -0.2431  0.4379  0.5953
 2523SOL    HW2 9864   0.766   3.911   3.211 -0.2656  0.0456  0.4015
 2523SOL    HW3 9865   0.886   3.965   3.286 -0.7226  0.0349  1.1445
 2523SOL    MW4 9866   0.852   3.912   3.226 -0.4108 -0.0245  0.0406
 2524SOL     OW 9867   4.649   4.896   5.015  0.0043 -0.2106 -0.1403
 2524SOL    HW2 9868   4.711   4.826   5.033  0.9984  0.3451 -1.2614
 2524SOL    HW3 9869   4.670   4.965   5.078 -1.0092 -0.8919  0.9991
 2524SOL    MW4 9870   4.660   4.896   5.026 -0.1504  0.9415  0.5735
 2525SOL     OW 9871   5.661   0.893   1.054  0.4374 -0.0915  0.4805
 2525SOL    HW2 9872   5.701   0.937   1.129  2.3474 -2.5093  1.0503
 2525SOL    HW3 9873   5.609   0.823   1.093  0.4519 -0.6113 -0.4048
 2525SOL    MW4 9874   5.659   0.889   1.069  0.2369  0.2754  0.4463
 2526SOL     OW 9875   3.326   5.180   3.779  0.2607  0.0451  0.0146
 2526SOL    HW2 9876   3.339   5.168   3.873 -2.6630  0.3918  0.5679
 2526SOL    HW3 9877   3.266   5.110   3.754 -1.3103  1.6150 -0.9071
 2526SOL    MW4 9878   3.320   5.169   3.788 -0.1106 -0.4459 -0.0720
 2527SOL     OW 9879   5.234   4.982   2.204  0.2541  0.1740 -0.3652
 2527SOL    HW2 9880   5.144   5.007   2.184 -0.6115 -2.7575 -0.6801
 2527SOL    HW3 9881   5.287   5.027   2.139 -0.9713  1.8410 -0.2627
 2527SOL    MW4 9882   5.229   4.991   2.193 -0.1209 -0.2354  0.4201
 2528SOL     OW 9883   2.980   4.513   5.189 -0.0508 -0.3857  0.1043
 2528SOL    HW2 9884   3.053   4.470   5.234  1.2494 -0.6498 -2.1022
 2528SOL    HW3 9885   2.964   4.458   5.112 -0.5319  1.3403 -1.0787
 2528SOL    MW4 9886   2.987   4.500   5.185 -0.3614  0.3540  0.5296
 2529SOL     OW 9887   0.440   3.029   0.053 -0.0479 -0.5958  0.8033
 2529SOL    HW2 9888   0.417   2.939   0.031 -0.0061 -0.4892  0.3092
 2529SOL    HW3 9889   0.511   3.051  -0.007 -0.8513  0.1639  0.0926
 2529SOL    MW4 9890   0.446   3.020   0.042  0.3478  0.2503 -0.4388
 2530SOL     OW 9891   1.418   1.608   6.390 -0.3482 -0.4353  0.3662
 2530SOL    HW2 9892   1.459   1.630   6.306 -1.2659 -0.4967 -0.1050
 2530SOL    HW3 9893   1.333   1.651   6.387 -0.0564  0.3062  1.6412
 2530SOL    MW4 9894   1.412   1.617   6.378  0.3667  0.3373 -0.2221
 2531SOL     OW 9895   2.495   0.160   1.511 -0.5353  0.4853 -0.0254
 2531SOL    HW2 9896   2.549   0.170   1.433 -0.8355  0.3551 -0.2553
 2531SOL    HW3 9897   2.557   0.148   1.582 -0.2744 -0.7717 -0.4411
 2531SOL    MW4 9898   2.510   0.160   1.510  0.2536 -0.4826  0.5102
 2532SOL     OW 9899   1.571   1.852   1.112  0.8580 -0.0011  0.4408
 2532SOL    HW2 9900   1.657   1.852   1.154  0.1265 -0.9843  2.0544
 2532SOL    HW3 9901   1.518   1.795   1.168 -0.6494  0.0095 -0.9244
 2532SOL    MW4 9902   1.576   1.844   1.125 -0.4411 -0.1388  0.1099
 2533SOL     OW 9903   0.785   0.823   6.124 -0.4157  0.4966  0.1935
 2533SOL    HW2 9904   0.836   0.800   6.047 -0.8358  0.7693 -0.1704
 2533SOL    HW3 9905   0.803   0.752   6.187  0.5408  0.6873  0.1416
 2533SOL    MW4 9906   0.794   0.810   6.122  0.1156 -0.6453  0.1207
 2534SOL     OW 9907   1.487   4.699   0.726  0.0668 -0.3665 -0.1345
 2534SOL    HW2 9908   1.573   4.730   0.697  0.1622  1.0544  1.4697
 2534SOL    HW3 9909   1.424   4.759   0.685  0.0469  0.1767  0.6564
 2534SOL    MW4 9910   1.490   4.711   0.717 -0.1967  0.9540 -0.6158
 2535SOL     OW 9911   5.478   3.695   3.856  0.2759 -0.5870 -0.0582
 2535SOL    HW2 9912   5.559   3.713   3.905  0.6378 -0.1033 -0.8149
 2535SOL    HW3 9913   5.478   3.761   3.786 -0.9415 -0.3690  0.1308
 2535SOL    MW4 9914   5.489   3.706   3.853 -0.3568 -0.9545 -0.2793
 2536SOL     OW 9915   0.779   3.917   3.748  0.3790 -0.0992  0.1112
 2536SOL    HW2 9916   0.694   3.913   3.793 -0.0464 -1.5270 -0.7379
 2536SOL    HW3 9917   0.843   3.929   3.817 -0.5698  2.1744  0.6874
 2536SOL    MW4 9918   0.776   3.918   3.763 -0.1714  0.2637  0.5043
 2537SOL     OW 9919   0.467   5.969   0.162  0.4000 -0.7824  0.8954
 2537SOL    HW2 9920   0.382   5.991   0.123  1.7445  1.7445 -0.8532
 2537SOL    HW3 9921   0.460   5.876   0.184 -2.0686 -1.1857 -1.1840
 2537SOL    MW4 9922   0.455   5.960   0.160 -0.2494 -0.0051 -0.2452
 2538SOL     OW 9923   2.022   6.093   3.191  0.7077 -0.5521  0.2277
 2538SOL    HW2 9924   2.014   5.998   3.197  0.6387 -0.5917 -0.4580
 2538SOL    HW3 9925   1.935   6.123   3.165  0.6080 -0.2533  0.8659
 2538SOL    MW4 9926   2.010   6.085   3.189 -0.3989  0.3808 -0.1345
 2539SOL     OW 9927   0.891   1.724   0.844  0.5546 -0.1261 -0.4968
 2539SOL    HW2 9928   0.885   1.737   0.938 -1.5869 -0.6603 -0.5003
 2539SOL    HW3 9929   0.941   1.643   0.834  0.5074 -0.2473  0.1935
 2539SOL    MW4 9930   0.897   1.715   0.855  0.4598  0.2747  0.4309
 2540SOL     OW 9931   0.394   3.315   1.947 -0.1559 -0.3878 -0.5538
 2540SOL    HW2 9932   0.351   3.340   1.865 -3.4601  1.7140  1.6007
 2540SOL    HW3 9933   0.402   3.397   1.996  1.3421 -1.6274  1.4568
 2540SOL    MW4 9934   0.390   3.329   1.942 -0.4067  0.3897  0.1210
 2541SOL     OW 9935   4.089   1.718   5.328 -0.3369  0.0536  0.5389
 2541SOL    HW2 9936   4.004   1.705   5.285 -0.0719  2.0221 -0.7517
 2541SOL    HW3 9937   4.104   1.812   5.321  1.2429 -0.0303  2.1809
 2541SOL    MW4 9938   4.080   1.729   5.321  0.5868 -0.6319  0.5020
 2542SOL     OW 9939   2.934   1.353   5.133  0.3014 -0.6141  0.4020
 2542SOL    HW2 9940   2.854   1.378   5.086  1.0109 -1.6331 -1.4835
 2542SOL    HW3 9941   2.920   1.261   5.156  0.8727 -0.7687  0.1499
 2542SOL    MW4 9942   2.921   1.344   5.130  0.0360 -0.1380 -0.4500
 2543SOL     OW 9943   4.890   1.592   0.321  0.1136  0.3732 -0.4514
 2543SOL    HW2 9944   4.947   1.640   0.261  1.6881 -0.7051  0.1130
 2543SOL    HW3 9945   4.840   1.533   0.264  0.4077  0.5133 -0.8604
 2543SOL    MW4 9946   4.891   1.591   0.306 -0.1206 -0.3980  0.0515
 2544SOL     OW 9947   0.235   1.791   6.014  0.2379 -0.1571 -0.8924
 2544SOL    HW2 9948   0.149   1.768   6.048  0.4710 -0.8923 -0.7846
 2544SOL    HW3 9949   0.217   1.856   5.945 -0.1043  3.3606  2.1890
 2544SOL    MW4 9950   0.222   1.797   6.009 -0.5179 -0.2393  0.1370
 2545SOL     OW 9951   2.668   4.273   5.673 -0.5349 -0.3568 -0.4428
 2545SOL    HW2 9952   2.601   4.260   5.740  1.3100 -1.0492  1.3617
 2545SOL    HW3 9953   2.670   4.190   5.625 -0.5631 -0.5450 -0.1220
 2545SOL    MW4 9954   2.659   4.260   5.675  0.1076  0.0994  0.2254
 2546SOL     OW 9955   5.754   0.143   0.956  0.0766 -0.2906 -0.0106
 2546SOL    HW2 9956   5.747   0.237   0.940 -1.9442 -0.3958 -0.0580
 2546SOL    HW3 9957   5.721   0.132   1.045 -2.0929 -1.1568 -0.8486
 2546SOL    MW4 9958   5.748   0.154   0.966  0.8092 -0.2082 -0.2009
 2547SOL     OW 9959   3.046   0.839   5.521 -0.3318  0.5349  0.1583
 2547SOL    HW2 9960   3.134   0.826   5.486 -0.3930  0.7552 -0.0818
 2547SOL    HW3 9961   3.026   0.930   5.501 -1.3768 -0.0245 -1.5148
 2547SOL    MW4 9962   3.055   0.849   5.514 -0.4288 -0.4298  0.0654
 2548SOL     OW 9963   0.182   3.001   0.887  0.7878 -0.8174  0.2447
 2548SOL    HW2 9964   0.150   3.045   0.809 -0.3002 -0.2024  1.0104
 2548SOL    HW3 9965   0.225   3.070   0.938  1.0718 -1.1162  0.4204
 2548SOL    MW4 9966   0.184   3.016   0.884 -0.0689  0.6322 -0.1872
 2549SOL     OW 9967   4.861   0.230   3.414 -0.0084 -1.0009 -0.2478
 2549SOL    HW2 9968   4.773   0.248   3.446 -0.0936  0.8675 -1.4014
 2549SOL    HW3 9969   4.862   0.262   3.324  1.8984 -0.7984 -0.2067
 2549SOL    MW4 9970   4.850   0.236   3.407  0.1484  0.5712  0.7956
 2550SOL     OW 9971   5.907   2.839   5.362 -0.0659  0.4368  0.0955
 2550SOL    HW2 9972   5.892   2.929   5.391  0.0105 -0.0087  1.5756
 2550SOL    HW3 9973   5.835   2.821   5.301  0.2819  1.7016 -0.7296
 2550SOL    MW4 9974   5.896   2.848   5.358  0.4279 -0.1742 -0.0153
 2551SOL     OW 9975   3.295   4.674   5.874  0.0492  0.6199  0.0453
 2551SOL    HW2 9976   3.279   4.758   5.831  0.3463  0.4940 -0.3087
 2551SOL    HW3 9977   3.383   4.682   5.911 -0.6370  1.1793  1.6880
 2551SOL    MW4 9978   3.304   4.686   5.873  0.6771 -0.5628 -0.5449
 2552SOL     OW 9979   1.382   4.226   5.363 -0.0924  0.2112  0.2490
 2552SOL    HW2 9980   1.314   4.162   5.385 -1.3047  0.9354 -1.1953
 2552SOL    HW3 9981   1.405   4.206   5.272  0.7526  0.7536  0.3334
 2552SOL    MW4 9982   1.376   4.215   5.354 -0.2051 -0.1170  0.2379
 2553SOL     OW 9983   3.592   6.192   5.190 -0.0189  0.4788  0.0099
 2553SOL    HW2 9984   3.682   6.194   5.222 -0.4213  1.5030  1.1688
 2553SOL    HW3 9985   3.542   6.238   5.258 -1.3367  0.3403 -0.8411
 2553SOL    MW4 9986   3.598   6.199   5.204 -0.8221  0.4189  1.0901
 2554SOL     OW 9987   5.156   0.187   6.208 -0.1613  0.3064  0.5226
 2554SOL    HW2 9988   5.187   0.122   6.144 -1.3930  0.9660 -0.8320
 2554SOL    HW3 9989   5.158   0.270   6.160 -3.5684  0.4490  0.3489
 2554SOL    MW4 9990   5.160   0.189   6.193 -0.4336 -0.6085 -0.8170
 2555SOL     OW 9991   2.184   0.722   1.767 -0.0950 -0.0131 -0.0754
 2555SOL    HW2 9992   2.096   0.755   1.783  0.0096  0.0438  0.4155
 2555SOL    HW3 9993   2.239   0.770   1.829  0.0942 -0.9265  0.4869
 2555SOL    MW4 9994   2.180   0.732   1.777  0.5059  0.6603 -0.6124
 2556SOL     OW 9995   3.839   0.448   5.706 -0.1234  0.1522 -0.2556
 2556SOL    HW2 9996   3.853   0.363   5.750  2.1470 -0.3708 -1.7922
 2556SOL    HW3 9997   3.868   0.433   5.616  0.0739  2.5013 -0.6426
 2556SOL    MW4 9998   3.845   0.435   5.700  0.3559  0.0131 -0.2925
 2557SOL     OW 9999   3.219   3.631   1.485  0.0716  0.1482 -0.1262
 2557SOL    HW210000   3.247   3.587   1.404 -1.4995  0.8473 -1.1078
 2557SOL    HW310001   3.126   3.648   1.471  0.6252  4.0537  0.0569
 2557SOL    MW410002   3.210   3.627   1.472 -0.2690 -0.2847 -0.2967
 2558SOL     OW10003   1.201   1.456   4.115  0.4226 -0.2074 -0.2647
 2558SOL    HW210004   1.184   1.550   4.117  1.7478  0.1156 -1.6348
 2558SOL    HW310005   1.292   1.447   4.145 -0.3267 -1.3061  1.9093
 2558SOL    MW410006   1.211   1.467   4.119 -0.3359  0.0426  0.2990
 2559SOL     OW10007   5.105   2.524   3.917 -0.0641  0.1516  0.8772
 2559SOL    HW210008   5.100   2.486   3.829  1.9953 -0.6518  1.0772
 2559SOL    HW310009   5.089   2.451   3.976  0.9450  0.1997  1.2143
 2559SOL    MW410010   5.102   2.510   3.913 -0.3581  0.0723  0.0430
 2560SOL     OW10011   1.227   2.080   4.757 -0.1716 -0.2514 -0.8145
 2560SOL    HW210012   1.260   2.028   4.831 -1.4112 -0.2517 -0.2410
 2560SOL    HW310013   1.133   2.089   4.773 -0.1038  1.7154 -1.1731
 2560SOL    MW410014   1.219   2.075   4.769 -0.4040  0.5990 -0.1000
 2561SOL     OW10015   1.962   5.547   5.309 -0.1058 -0.0011  0.1981
 2561SOL    HW210016   2.023   5.474   5.299 -1.3839 -1.0513 -0.3344
 2561SOL    HW310017   1.915   5.551   5.226 -0.6145  0.9117  0.5074
 2561SOL    MW410018   1.964   5.538   5.297 -0.9990 -0.1396 -0.7332
 2562SOL     OW10019   3.286   5.356   6.136  0.4107 -0.0284  0.3535
 2562SOL    HW210020   3.325   5.352   6.223  1.2094  0.4222  0.0232
 2562SOL    HW310021   3.332   5.289   6.086 -0.8549 -1.1114  0.5717
 2562SOL    MW410022   3.297   5.346   6.141  0.3021  0.1188  0.1285
 2563SOL     OW10023   5.813   4.592   6.332 -0.0600 -0.6058 -0.6216
 2563SOL    HW210024   5.901   4.606   6.367 -0.0297 -1.0656 -0.4999
 2563SOL    HW310025   5.823   4.602   6.238 -0.7638  3.9228 -0.4049
 2563SOL    MW410026   5.826   4.595   6.324  0.0865 -0.0826 -0.1983
 2564SOL     OW10027   5.274   5.703   3.780 -0.2711 -0.4351  0.0913
 2564SOL    HW210028   5.207   5.636   3.761 -2.7189  0.5640  4.0264
 2564SOL    HW310029   5.225   5.784   3.787  2.1840  1.2952 -1.3526
 2564SOL    MW410030   5.258   5.705   3.779 -0.2264 -0.0117 -0.0391
 2565SOL     OW10031   1.224   5.940   1.323  0.0872 -0.0666 -0.5543
 2565SOL    HW210032   1.306   5.904   1.289  0.7905 -0.5847  1.5815
 2565SOL    HW310033   1.246   5.972   1.410 -1.5619  1.5497 -0.6758
 2565SOL    MW410034   1.238   5.940   1.330  0.9438 -0.4099  0.4334
 2566SOL     OW10035   6.169   0.279   1.306 -0.3722  0.3241 -0.4325
 2566SOL    HW210036   6.223   0.206   1.277 -0.3700  0.3158 -0.4071
 2566SOL    HW310037   6.196   0.352   1.250  0.3494  0.5728  0.2143
 2566SOL    MW410038   6.180   0.279   1.295 -0.3015 -0.3144  0.4074
 2567SOL     OW10039   2.749   1.656   2.837 -0.0535  0.0795 -0.5788
 2567SOL    HW210040   2.738   1.580   2.780  2.2283 -1.3861  0.8001
 2567SOL    HW310041   2.829   1.698   2.807  0.7797 -0.2927  1.0180
 2567SOL    MW410042   2.758   1.651   2.826 -0.3506  0.2678 -0.4964
 2568SOL     OW10043   5.658   6.025   0.829  0.8070 -0.2325 -0.2975
 2568SOL    HW210044   5.634   5.949   0.776 -0.4764 -0.4455  0.5420
 2568SOL    HW310045   5.681   5.988   0.915 -0.2867  0.3313  0.2633
 2568SOL    MW410046   5.658   6.010   0.834 -0.6290 -0.0008  0.3800
 2569SOL     OW10047   6.143   1.087   5.108 -0.8307  0.1201 -0.1769
 2569SOL    HW210048   6.169   1.106   5.018  1.0774  0.7379  0.4662
 2569SOL    HW310049   6.204   1.018   5.136 -2.0965 -0.8308  0.3222
 2569SOL    MW410050   6.155   1.080   5.099 -0.3067  0.3245 -0.0373
 2570SOL     OW10051   5.197   0.748   4.224 -0.4305 -0.3008 -0.0186
 2570SOL    HW210052   5.148   0.669   4.198 -0.0756 -0.6642  0.3876
 2570SOL    HW310053   5.161   0.818   4.170 -2.9324 -0.1135  1.7106
 2570SOL    MW410054   5.185   0.747   4.214 -0.4463  0.3435  0.0612
 2571SOL     OW10055   1.726   5.850   3.225 -0.3974  0.0061  0.0572
 2571SOL    HW210056   1.772   5.873   3.306 -0.3764  0.2305 -0.0174
 2571SOL    HW310057   1.725   5.931   3.174  0.8425 -0.4685 -0.7798
 2571SOL    MW410058   1.732   5.863   3.229 -0.2096  0.4297  0.2573
 2572SOL     OW10059   4.304   3.887   0.261 -0.2259 -0.5566 -0.1857
 2572SOL    HW210060   4.233   3.879   0.325 -0.9497  0.6165 -0.8057
 2572SOL    HW310061   4.292   3.812   0.202  0.6218 -1.8146  1.1699
 2572SOL    MW410062   4.293   3.876   0.261 -0.0592  0.0173 -0.1328
 2573SOL     OW10063   0.839   0.400   4.548 -0.2824  0.5084 -0.4420
 2573SOL    HW210064   0.769   0.384   4.612 -0.2833 -0.4282 -0.6551
 2573SOL    HW310065   0.849   0.495   4.546 -0.2641  0.5521  0.9623
 2573SOL    MW410066   0.831   0.410   4.556 -0.2839 -0.2812 -0.4528
 2574SOL     OW10067   2.644   1.433   1.156 -0.0671  0.3894 -0.2371
 2574SOL    HW210068   2.557   1.398   1.140  1.2387 -4.9655  1.9168
 2574SOL    HW310069   2.672   1.470   1.073 -3.7713  0.9299 -1.3827
 2574SOL    MW410070   2.636   1.433   1.143  0.1692 -0.2016  0.5202
 2575SOL     OW10071   1.669   0.060   4.519 -0.4227  0.0912  0.3113
 2575SOL    HW210072   1.635   0.147   4.497  0.2443  0.1597 -0.4864
 2575SOL    HW310073   1.742   0.047   4.458 -0.5126 -1.0254  0.4289
 2575SOL    MW410074   1.674   0.070   4.508 -0.0179 -0.0356  0.0153
 2576SOL     OW10075   0.033   2.628   0.897  0.4744 -0.4780 -0.1579
 2576SOL    HW210076   0.021   2.663   0.809 -0.6948 -0.8977 -0.1790
 2576SOL    HW310077   0.116   2.580   0.893  0.3159 -0.6935 -1.1029
 2576SOL    MW410078   0.042   2.626   0.885  0.7970  0.0162  0.3026
 2577SOL     OW10079   1.317   2.884   0.139 -0.4320  0.1110  0.2798
 2577SOL    HW210080   1.232   2.926   0.127 -0.6310 -0.1406  0.8220
 2577SOL    HW310081   1.306   2.825   0.213  0.0481 -0.3761 -0.0228
 2577SOL    MW410082   1.304   2.882   0.147 -0.0849 -0.5966  0.1078
 2578SOL     OW10083   3.595   1.340   5.911 -0.3213 -0.3224  0.5136
 2578SOL    HW210084   3.676   1.363   5.956 -0.5368 -0.3189  0.9006
 2578SOL    HW310085   3.582   1.247   5.931  0.3445 -0.7056 -0.7285
 2578SOL    MW410086   3.604   1.331   5.919 -0.0322 -0.4227  0.1649
 2579SOL     OW10087   4.093   3.738   0.425 -0.0551  0.2259  0.2342
 2579SOL    HW210088   4.031   3.694   0.366  0.6844 -0.4240 -0.0724
 2579SOL    HW310089   4.064   3.714   0.513 -0.3928  0.1438  0.1020
 2579SOL    MW410090   4.081   3.729   0.429  0.1112  0.5092  0.5047
 2580SOL     OW10091   1.740   4.039   6.424 -0.2383 -0.1624 -0.0469
 2580SOL    HW210092   1.796   4.092   6.367 -0.6095 -2.6330 -3.0119
 2580SOL    HW310093   1.799   3.975   6.464 -0.4825 -1.1373 -1.1589
 2580SOL    MW410094   1.755   4.037   6.422  0.4894 -0.4544  0.1250
 2581SOL     OW10095   1.049   2.669   5.767  0.0752 -0.2747  0.6175
 2581SOL    HW210096   1.115   2.612   5.729  0.6465  0.0132  1.1651
 2581SOL    HW310097   1.074   2.757   5.738 -0.6051 -0.2566  0.0555
 2581SOL    MW410098   1.061   2.673   5.758 -0.3737 -0.2593  1.0309
 2582SOL     OW10099   5.702   4.574   2.368 -0.3013  0.3248  0.4891
 2582SOL    HW210100   5.660   4.550   2.286 -2.7812  2.7846  0.8997
 2582SOL    HW310101   5.632   4.610   2.422  0.9062 -2.4112  4.3339
 2582SOL    MW410102   5.687   4.576   2.365 -0.0216  0.1299  0.2657
 2583SOL     OW10103   4.844   2.572   5.053  0.4286 -0.0405  0.4734
 2583SOL    HW210104   4.827   2.547   5.144 -0.0131  0.6416  0.5866
 2583SOL    HW310105   4.777   2.637   5.033  0.5883 -0.1082 -0.3105
 2583SOL    MW410106   4.833   2.577   5.062  0.0540 -0.6453  0.1929
 2584SOL     OW10107   1.255   4.147   4.587 -0.0718 -0.1377  0.3156
 2584SOL    HW210108   1.347   4.142   4.558  1.5406  2.1875  4.2674
 2584SOL    HW310109   1.228   4.236   4.567 -1.1868 -0.5064  0.0984
 2584SOL    MW410110   1.264   4.158   4.580 -0.5098 -0.0104 -0.0797
 2585SOL     OW10111   6.146   3.555   2.785  0.4752  0.6872  0.3243
 2585SOL    HW210112   6.139   3.500   2.863  1.0990 -0.3134 -0.3039
 2585SOL    HW310113   6.237   3.547   2.758  0.4539  1.6463 -0.0729
 2585SOL    MW410114   6.157   3.547   2.792 -0.0987  0.3846  0.0187
 2586SOL     OW10115   1.844   0.233   3.002 -0.5511 -0.2276  0.1326
 2586SOL    HW210116   1.877   0.167   3.063  0.3108 -0.3565 -0.4549
 2586SOL    HW310117   1.859   0.194   2.915 -1.4961  0.0704 -0.1742
 2586SOL    MW410118   1.850   0.219   2.998  0.2578 -0.5092  0.1713
 2587SOL     OW10119   4.109   1.366   4.356  0.0662  0.3499 -0.3654
 2587SOL    HW210120   4.121   1.447   4.404 -0.7142 -0.7598  1.8309
 2587SOL    HW310121   4.155   1.380   4.273  1.2953  2.4159  0.5941
 2587SOL    MW410122   4.116   1.379   4.351  0.2086 -0.0976 -0.1366
 2588SOL     OW10123   4.901   4.703   1.855 -0.4826  0.0206  0.3400
 2588SOL    HW210124   4.811   4.721   1.883 -1.7434 -3.6847 -0.7107
 2588SOL    HW310125   4.946   4.679   1.935 -0.3593  1.8528  0.8686
 2588SOL    MW410126   4.895   4.702   1.869  0.3386 -0.4241 -0.4428
 2589SOL     OW10127   5.161   1.228   6.132  0.9916  0.4659  0.0250
 2589SOL    HW210128   5.186   1.317   6.158  2.5659 -0.1045  0.5650
 2589SOL    HW310129   5.111   1.240   6.051  0.2572  1.9095  0.6467
 2589SOL    MW410130   5.158   1.241   6.125 -0.1402 -0.1250 -0.3412
 2590SOL     OW10131   6.300   2.397   5.904 -0.6429 -0.4005 -0.5303
 2590SOL    HW210132   6.345   2.342   5.839  1.4097 -0.5475  0.9105
 2590SOL    HW310133   6.320   2.487   5.877  1.7706 -0.4625  0.8233
 2590SOL    MW410134   6.309   2.401   5.892  0.1547 -0.3903  0.3265
 2591SOL     OW10135   0.515   0.121   4.317  0.2577  0.0935  0.5675
 2591SOL    HW210136   0.514   0.031   4.285  2.1740  0.1074  0.3496
 2591SOL    HW310137   0.599   0.130   4.363  0.5626  2.0478 -0.2639
 2591SOL    MW410138   0.526   0.110   4.319  0.3839 -0.2638 -0.2689
 2592SOL     OW10139   1.991   3.003   3.967 -0.4896 -0.0114  0.1429
 2592SOL    HW210140   2.009   2.997   3.874  2.6851 -2.1004  0.7288
 2592SOL    HW310141   2.072   3.036   4.006 -1.6262  0.5375  2.2153
 2592SOL    MW410142   2.004   3.006   3.960  0.1764  0.0953  0.0572
 2593SOL     OW10143   0.439   6.285   4.294  0.0789  0.7201 -0.1881
 2593SOL    HW210144   0.452   6.197   4.331 -0.9211  0.6045 -0.0786
 2593SOL    HW310145   0.467   6.276   4.203 -1.6403 -0.2124 -0.6728
 2593SOL    MW410146   0.444   6.272   4.287 -0.8936 -0.1962  0.3739
 2594SOL     OW10147   2.000   3.081   5.566 -0.3880  0.1168 -0.2993
 2594SOL    HW210148   2.022   2.999   5.522 -2.0382 -1.2808  1.3020
 2594SOL    HW310149   2.073   3.098   5.625 -0.3412 -0.5797 -0.1502
 2594SOL    MW410150   2.012   3.073   5.568 -0.1198 -0.0612  0.6589
 2595SOL     OW10151   0.357   5.307   6.405  0.0884 -0.0019  0.2186
 2595SOL    HW210152   0.308   5.383   6.438 -0.4646  0.5779 -1.7984
 2595SOL    HW310153   0.291   5.237   6.400 -0.7885  0.8794 -2.8534
 2595SOL    MW410154   0.342   5.308   6.409 -0.1403  0.0720  0.6129
 2596SOL     OW10155   2.980   5.816   5.897  0.3155 -0.1882 -0.6619
 2596SOL    HW210156   2.957   5.895   5.849  0.3210 -0.0393 -0.4208
 2596SOL    HW310157   3.000   5.846   5.985 -1.6882 -0.6852  0.0300
 2596SOL    MW410158   2.980   5.830   5.902 -0.4272  0.4673 -0.2996
 2597SOL     OW10159   1.096   5.372   4.763 -1.0084  0.1337  0.2670
 2597SOL    HW210160   1.046   5.420   4.830 -2.1835  1.6941 -1.5962
 2597SOL    HW310161   1.038   5.301   4.737 -0.1083 -1.1329  1.5907
 2597SOL    MW410162   1.081   5.369   4.769  0.2233 -0.0065  0.1165
 2598SOL     OW10163   1.693   0.226   6.035 -0.9821  0.6510  0.4435
 2598SOL    HW210164   1.734   0.141   6.051 -2.5982 -0.5794 -1.4855
 2598SOL    HW310165   1.672   0.258   6.123 -1.4951 -1.5729  1.2181
 2598SOL    MW410166   1.695   0.219   6.049  0.0181 -0.0847 -0.7251
 2599SOL     OW10167   0.214   4.937   3.822  0.5145  0.1044 -0.2043
 2599SOL    HW210168   0.193   5.004   3.757 -0.4094 -1.0445 -1.1147
 2599SOL    HW310169   0.176   4.856   3.788  0.6048 -0.6721  1.4286
 2599SOL    MW410170   0.206   4.935   3.809  0.2390 -0.2640  0.2140
 2600SOL     OW10171   1.130   4.930   2.286 -0.1180 -0.2713  0.0221
 2600SOL    HW210172   1.116   4.971   2.371  0.1038 -0.1338 -0.0081
 2600SOL    HW310173   1.187   4.990   2.239 -0.7329 -0.0395 -0.4486
 2600SOL    MW410174   1.136   4.943   2.291  0.4525 -0.0196 -0.4105
 2601SOL     OW10175   5.599   1.457   1.614 -0.0168 -0.2867  0.6316
 2601SOL    HW210176   5.680   1.435   1.568 -0.6131 -1.2045  0.0058
 2601SOL    HW310177   5.545   1.378   1.609 -3.6410  1.9398 -4.5537
 2601SOL    MW410178   5.603   1.444   1.608 -0.0072  0.6290 -0.0915
 2602SOL     OW10179   2.477   4.841   1.576 -0.1095 -0.0798  0.1413
 2602SOL    HW210180   2.508   4.812   1.491 -0.7560  0.5495 -0.3259
 2602SOL    HW310181   2.552   4.885   1.617  0.4370 -1.0999  0.2457
 2602SOL    MW410182   2.491   4.843   1.570 -0.0946  0.2835 -0.2200
 2603SOL     OW10183   2.323   0.970   1.063  0.7294 -0.4471  0.0337
 2603SOL    HW210184   2.392   0.969   1.130 -0.0634  1.6861  0.9668
 2603SOL    HW310185   2.241   0.967   1.113  0.1172  1.0351 -0.8261
 2603SOL    MW410186   2.321   0.970   1.079  0.4621 -0.5793  0.1575
 2604SOL     OW10187   1.180   0.037   4.997 -0.2392 -0.6427  0.0402
 2604SOL    HW210188   1.269   0.045   5.032 -0.6768 -3.6117  2.1769
 2604SOL    HW310189   1.139   0.121   5.016  1.4661  0.0397  0.9392
 2604SOL    MW410190   1.187   0.049   5.004  0.3857 -0.4426  0.3184
 2605SOL     OW10191   1.825   1.166   0.258  0.0940 -0.3201  0.2933
 2605SOL    HW210192   1.778   1.155   0.341 -0.9499  2.6412  0.1883
 2605SOL    HW310193   1.763   1.207   0.199  2.0460  1.5003 -0.6350
 2605SOL    MW410194   1.811   1.170   0.261  0.8240 -0.1552  0.7191
 2606SOL     OW10195   0.464   3.672   1.522 -0.3978 -0.7888  0.6423
 2606SOL    HW210196   0.457   3.703   1.612  2.4088 -0.6603  0.8842
 2606SOL    HW310197   0.452   3.751   1.469 -1.9900 -0.8557  0.8524
 2606SOL    MW410198   0.461   3.687   1.527 -0.0561 -0.2282 -0.1534
 2607SOL     OW10199   3.137   5.070   0.402  0.1222  0.2025 -0.0217
 2607SOL    HW210200   3.163   5.158   0.432 -0.0265 -0.1336  1.1341
 2607SOL    HW310201   3.042   5.068   0.413  0.0038  0.2151 -0.9552
 2607SOL    MW410202   3.128   5.082   0.407  0.3747 -0.3474 -0.3621
 2608SOL     OW10203   2.417   4.167   0.282  0.7515  0.0427 -0.6039
 2608SOL    HW210204   2.334   4.158   0.329  1.4394 -2.0395  0.3329
 2608SOL    HW310205   2.447   4.255   0.304 -0.4773  0.2820  0.2476
 2608SOL    MW410206   2.410   4.178   0.291 -0.5837 -0.0980  0.1402
 2609SOL     OW10207   0.165   0.170   3.197  0.1214  0.3130 -0.8208
 2609SOL    HW210208   0.235   0.106   3.212 -0.3132  0.1939  0.9571
 2609SOL    HW310209   0.203   0.232   3.135  1.6466 -0.0300 -0.2941
 2609SOL    MW410210   0.179   0.170   3.191 -0.8717 -0.3974  0.6542
 2610SOL     OW10211   2.129   2.086   1.791  0.0727 -0.3491  0.5165
 2610SOL    HW210212   2.102   2.177   1.796  0.3756 -0.2485  0.3526
 2610SOL    HW310213   2.224   2.089   1.799  0.2405 -0.5166 -1.0652
 2610SOL    MW410214   2.138   2.098   1.793 -0.1779 -0.4078 -0.1388
 2611SOL     OW10215   3.768   5.340   3.807  0.2471  0.3378 -0.4842
 2611SOL    HW210216   3.729   5.381   3.731 -3.7046 -0.6994  0.7289
 2611SOL    HW310217   3.774   5.247   3.784  1.7058  0.4008 -0.4593
 2611SOL    MW410218   3.763   5.333   3.794 -0.3795 -0.3286 -0.3423
 2612SOL     OW10219   2.126   0.238   1.899  0.4515  0.0304 -0.8980
 2612SOL    HW210220   2.156   0.321   1.861  1.0525 -0.6062 -1.8238
 2612SOL    HW310221   2.113   0.180   1.824  0.0362 -0.7247 -0.2543
 2612SOL    MW410222   2.128   0.242   1.884 -0.0939  0.5682 -0.4415
 2613SOL     OW10223   3.269   2.804   4.633 -0.0848 -0.1999 -0.2467
 2613SOL    HW210224   3.322   2.841   4.563  0.3804 -0.1700  0.1175
 2613SOL    HW310225   3.205   2.749   4.588  0.2062 -0.1794 -0.6935
 2613SOL    MW410226   3.267   2.801   4.618 -0.3944  0.0852 -0.3954
 2614SOL     OW10227   0.583   2.530   5.777  0.2510  0.2062  0.6871
 2614SOL    HW210228   0.524   2.467   5.818 -1.8634  1.8684  0.3921
 2614SOL    HW310229   0.654   2.542   5.840  1.6904 -3.6207  0.0510
 2614SOL    MW410230   0.585   2.523   5.790 -0.2869  0.0055 -0.0853
 2615SOL     OW10231   0.707   6.122   2.578  0.1750 -0.2793 -0.4811
 2615SOL    HW210232   0.739   6.164   2.658 -3.1259  0.7799  0.4393
 2615SOL    HW310233   0.713   6.191   2.511 -2.0359  0.7138  0.2305
 2615SOL    MW410234   0.712   6.137   2.580 -0.0646  0.0208  0.1721
 2616SOL     OW10235   3.625   1.106   5.294 -0.4405 -0.2708  0.0397
 2616SOL    HW210236   3.573   1.103   5.375  1.6549  0.2749  1.4882
 2616SOL    HW310237   3.586   1.178   5.244 -2.0790 -0.9246  0.3200
 2616SOL    MW410238   3.613   1.115   5.298 -0.3969 -0.0419  0.3489
 2617SOL     OW10239   5.786   0.215   2.285 -0.3638  0.3229  0.2948
 2617SOL    HW210240   5.875   0.191   2.259 -1.0085 -1.0266 -0.7873
 2617SOL    HW310241   5.763   0.289   2.229 -0.5793 -0.5400 -0.7997
 2617SOL    MW410242   5.795   0.221   2.274  0.0757 -0.0035  0.4121
 2618SOL     OW10243   4.974   5.980   3.285 -0.7182 -0.0152  0.1204
 2618SOL    HW210244   4.902   5.927   3.319 -1.4025  0.5907 -0.3610
 2618SOL    HW310245   4.971   6.061   3.336 -0.0618 -0.1793  0.4341
 2618SOL    MW410246   4.964   5.984   3.296  0.5148  0.2000  0.1271
 2619SOL     OW10247   3.382   4.228   2.235 -0.4544 -0.1784 -0.3188
 2619SOL    HW210248   3.375   4.301   2.296  2.0296  2.2895 -2.6684
 2619SOL    HW310249   3.301   4.232   2.183  0.1985  1.9457 -1.3159
 2619SOL    MW410250   3.370   4.238   2.236 -0.0551  0.1688 -0.2148
 2620SOL     OW10251   3.979   2.157   0.984  0.0061  0.0729  0.1163
 2620SOL    HW210252   3.917   2.106   1.035  0.9252 -1.6082 -0.3753
 2620SOL    HW310253   3.938   2.166   0.898 -0.7039  1.2882  0.5521
 2620SOL    MW410254   3.965   2.152   0.979  0.1410 -0.0822 -0.3871
 2621SOL     OW10255   5.182   3.153   1.055 -0.0810  0.1053 -0.4749
 2621SOL    HW210256   5.182   3.202   0.973 -0.4305 -0.7614 -1.0061
 2621SOL    HW310257   5.271   3.119   1.063  0.2877  1.1538  0.1147
 2621SOL    MW410258   5.194   3.155   1.045 -0.0906  0.5701  0.1100
 2622SOL     OW10259   5.384   2.776   2.505  0.5953  0.1254  0.0467
 2622SOL    HW210260   5.306   2.761   2.453  0.5947  1.0386 -0.2252
 2622SOL    HW310261   5.392   2.871   2.511  0.8558  0.0505  1.3190
 2622SOL    MW410262   5.375   2.786   2.499 -0.0091 -0.1215 -0.5100
 2623SOL     OW10263   6.290   0.507   3.613  0.1057  0.3391 -0.1403
 2623SOL    HW210264   6.305   0.600   3.623  0.2766  0.5164 -1.7646
 2623SOL    HW310265   6.375   0.466   3.631  0.8003  0.7604 -2.1309
 2623SOL    MW410266   6.303   0.514   3.616  0.4826 -0.1009  0.2411
 2624SOL     OW10267   6.201   4.465   3.849  0.6337  0.5613 -0.3490
 2624SOL    HW210268   6.272   4.509   3.897  0.9624  0.7135 -0.9590
 2624SOL    HW310269   6.162   4.534   3.795 -1.7302  1.1160  1.8880
 2624SOL    MW410270   6.205   4.480   3.848  0.2628 -0.1735 -0.6813
 2625SOL     OW10271   2.427   0.657   6.415  0.2943  0.2985  0.4748
 2625SOL    HW210272   2.334   0.635   6.418 -0.0139  1.5946  3.3399
 2625SOL    HW310273   2.471   0.573   6.399 -1.3101 -0.4586 -0.1275
 2625SOL    MW410274   2.421   0.643   6.413 -0.2974  0.2472  0.2318
 2626SOL     OW10275   2.249   4.757   4.367  0.3826  0.3941  0.5148
 2626SOL    HW210276   2.293   4.840   4.387  1.1619  0.3260 -0.8126
 2626SOL    HW310277   2.168   4.783   4.324  0.1972  0.4726  0.9048
 2626SOL    MW410278   2.244   4.771   4.364 -0.4527  0.2259 -0.3182
 2627SOL     OW10279   6.226   4.413   5.892 -0.3560  0.1825 -0.1779
 2627SOL    HW210280   6.268   4.453   5.816 -0.8054  0.3152 -0.3552
 2627SOL    HW310281   6.241   4.476   5.963 -0.6697  0.4570 -0.3530
 2627SOL    MW410282   6.234   4.426   5.891 -0.1172 -0.1085 -0.0752
 2628SOL     OW10283   3.550   5.095   5.646  0.2538 -0.1001  0.0614
 2628SOL    HW210284   3.627   5.086   5.590 -1.2431  0.2082 -2.1664
 2628SOL    HW310285   3.561   5.028   5.713  1.9155 -0.8047 -0.8660
 2628SOL    MW410286   3.562   5.085   5.647 -0.4485  0.2585 -0.7787
 2629SOL     OW10287   5.698   5.935   4.410 -0.0069  0.4461  0.2698
 2629SOL    HW210288   5.705   5.851   4.364 -0.5477 -0.4104  1.6968
 2629SOL    HW310289   5.787   5.969   4.411  0.0069  0.5677 -1.4984
 2629SOL    MW410290   5.711   5.928   4.404 -0.2960  0.6364  0.1782
 2630SOL     OW10291   2.255   2.998   5.093 -0.1660  0.0434 -0.1510
 2630SOL    HW210292   2.313   2.953   5.154 -0.5311 -1.2707 -0.7362
 2630SOL    HW310293   2.313   3.054   5.042  0.6585 -1.4515 -0.9117
 2630SOL    MW410294   2.270   3.000   5.094 -0.3530  0.4377 -0.3419
 2631SOL     OW10295   3.616   1.592   1.954  0.7966  0.2895 -0.5939
 2631SOL    HW210296   3.681   1.628   2.014 -0.0464  0.6922  0.0999
 2631SOL    HW310297   3.591   1.508   1.994  0.2434  0.5513 -0.3846
 2631SOL    MW410298   3.621   1.585   1.967 -0.1611 -0.2363 -0.2302
 2632SOL     OW10299   5.613   3.230   3.687  0.7220  0.0798 -0.1186
 2632SOL    HW210300   5.658   3.150   3.715 -1.4153 -1.4567 -0.7845
 2632SOL    HW310301   5.617   3.228   3.591 -2.4816 -1.3520 -0.3780
 2632SOL    MW410302   5.619   3.219   3.678 -0.2890 -0.3232 -0.4215
 2633SOL     OW10303   1.954   3.252   5.333  0.1087 -0.6554  1.1042
 2633SOL    HW210304   1.965   3.197   5.410  0.9571 -0.6870  0.9660
 2633SOL    HW310305   2.036   3.242   5.284 -1.7070 -3.5438 -1.7317
 2633SOL    MW410306   1.966   3.244   5.336 -0.3792 -0.0030  0.2161
 2634SOL     OW10307   2.565   2.067   4.819 -0.5891  0.5103  0.0315
 2634SOL    HW210308   2.537   1.994   4.876 -2.6481  0.8310 -0.5042
 2634SOL    HW310309   2.553   2.145   4.873  0.4436  0.5716  0.1874
 2634SOL    MW410310   2.560   2.068   4.834 -0.2747 -0.0527  0.3336
 2635SOL     OW10311   1.645   6.272   1.301  0.1116  0.4174 -0.4291
 2635SOL    HW210312   1.690   6.325   1.234  1.1344  1.7412  1.2272
 2635SOL    HW310313   1.694   6.289   1.381 -1.1287 -1.0813  0.6957
 2635SOL    MW410314   1.658   6.281   1.303  0.0689  0.0692  0.5883
 2636SOL     OW10315   4.449   2.261   3.624  0.1053  0.1018  0.3079
 2636SOL    HW210316   4.467   2.350   3.654  0.4393 -0.4960  2.0009
 2636SOL    HW310317   4.363   2.240   3.662 -0.4877  0.0741 -1.0028
 2636SOL    MW410318   4.440   2.270   3.633  0.0764 -0.0999 -0.6852
 2637SOL     OW10319   3.861   2.199   1.482  0.1385 -0.3963 -0.2575
 2637SOL    HW210320   3.914   2.271   1.449  0.3879 -0.2668  0.4250
 2637SOL    HW310321   3.907   2.120   1.453  1.2752 -0.2984  1.2002
 2637SOL    MW410322   3.874   2.198   1.473  0.2555  0.2253 -0.5294
 2638SOL     OW10323   4.394   5.118   1.135 -0.2502  1.2138  0.4560
 2638SOL    HW210324   4.407   5.024   1.146 -0.5225  1.2585  1.2180
 2638SOL    HW310325   4.389   5.131   1.041  3.6677  0.9623  0.0468
 2638SOL    MW410326   4.395   5.107   1.124  0.3389 -0.9111  0.3743
 2639SOL     OW10327   2.808   4.323   1.265  0.3236 -0.2612  0.3616
 2639SOL    HW210328   2.854   4.301   1.345  0.3222 -1.5583  0.0167
 2639SOL    HW310329   2.801   4.241   1.216 -0.5798  0.2948 -0.5060
 2639SOL    MW410330   2.813   4.310   1.269 -0.2008 -0.1459 -0.2029
 2640SOL     OW10331   5.577   0.371   1.693 -0.2864  0.6019  0.1681
 2640SOL    HW210332   5.654   0.425   1.677 -0.0986  0.1230 -0.6130
 2640SOL    HW310333   5.604   0.283   1.668 -0.8571  0.3001  0.5977
 2640SOL    MW410334   5.591   0.366   1.688  0.7647 -0.0370  0.0351
 2641SOL     OW10335   3.158   3.066   4.638  0.1098  0.0525  0.4047
 2641SOL    HW210336   3.115   3.091   4.555  1.4597  0.6336 -0.1471
 2641SOL    HW310337   3.197   2.981   4.619  1.3156  0.6590  0.0831
 2641SOL    MW410338   3.157   3.058   4.624  0.2025 -0.4783 -0.5264
 2642SOL     OW10339   4.430   6.376   1.853  0.1840 -0.0123  0.1414
 2642SOL    HW210340   4.349   6.340   1.817 -2.3983  1.7299  3.6209
 2642SOL    HW310341   4.469   6.424   1.780 -2.2416 -0.4085 -1.5452
 2642SOL    MW410342   4.424   6.378   1.838 -0.2602 -0.0071  0.2214
 2643SOL     OW10343   4.345   5.238   3.978  0.2309  0.4350  0.4752
 2643SOL    HW210344   4.251   5.250   3.964  0.6210  1.5773 -1.4806
 2643SOL    HW310345   4.366   5.297   4.050 -0.3454  1.1655  0.0605
 2643SOL    MW410346   4.335   5.247   3.986  0.4452 -0.1792 -0.2592
 2644SOL     OW10347   0.462   4.827   2.626 -0.2771  0.1980  0.2019
 2644SOL    HW210348   0.555   4.828   2.648 -0.1855  0.3106 -0.1826
 2644SOL    HW310349   0.417   4.841   2.710  0.0233 -0.7062  0.5260
 2644SOL    MW410350   0.468   4.829   2.640 -0.8505  0.0548 -0.5222
 2645SOL     OW10351   2.898   2.802   2.995  0.5587 -0.2026  0.1828
 2645SOL    HW210352   2.840   2.730   2.971  0.2209 -0.2472  1.0992
 2645SOL    HW310353   2.947   2.821   2.915  0.3707 -1.1833 -0.1791
 2645SOL    MW410354   2.897   2.795   2.982 -0.4036  0.4762  0.2337
 2646SOL     OW10355   3.336   0.841   5.514  0.1554 -0.4132  0.6476
 2646SOL    HW210356   3.310   0.773   5.576 -0.4142 -0.4132  0.4179
 2646SOL    HW310357   3.427   0.821   5.493 -0.4817 -2.1376 -0.7211
 2646SOL    MW410358   3.344   0.830   5.519  0.0816  0.3708  0.4395
 2647SOL     OW10359   1.541   0.774   0.698  0.5809 -0.2378 -0.1683
 2647SOL    HW210360   1.590   0.697   0.670 -1.2352 -0.9220 -1.7612
 2647SOL    HW310361   1.500   0.747   0.780 -1.1793 -1.6312 -1.3863
 2647SOL    MW410362   1.542   0.760   0.705  0.2620  0.1964 -0.4967
 2648SOL     OW10363   6.392   6.321   0.532  0.3618 -0.0247  0.2360
 2648SOL    HW210364   6.348   6.332   0.616 -0.7814  0.3596 -0.3971
 2648SOL    HW310365   6.451   6.396   0.526 -0.3490  0.5455  0.2230
 2648SOL    MW410366   6.394   6.332   0.542  0.4521  0.0658 -0.2420
 2649SOL     OW10367   2.407   4.750   0.359  0.5303  0.4964 -0.3128
 2649SOL    HW210368   2.375   4.839   0.342  0.4075  0.1148 -2.3721
 2649SOL    HW310369   2.415   4.711   0.272 -0.1618 -1.7912  0.5919
 2649SOL    MW410370   2.404   4.757   0.345 -0.0297 -0.0131  0.0809
 2650SOL     OW10371   5.902   5.684   1.722  0.0661 -0.0072 -0.1087
 2650SOL    HW210372   5.978   5.737   1.697  0.7733 -0.1057  1.6747
 2650SOL    HW310373   5.844   5.746   1.767 -1.0952  0.1348 -1.7336
 2650SOL    MW410374   5.905   5.699   1.725  0.0881 -0.0812  0.1304
 2651SOL     OW10375   4.360   0.615   1.231  0.0717 -0.3172 -0.1162
 2651SOL    HW210376   4.369   0.581   1.142 -0.6686 -0.4327 -0.1525
 2651SOL    HW310377   4.434   0.674   1.241  0.2154 -0.3736 -0.7785
 2651SOL    MW410378   4.371   0.618   1.220 -0.0896  0.6604  0.5148
 2652SOL     OW10379   1.657   0.311   5.666  0.4263 -0.3845  0.3951
 2652SOL    HW210380   1.582   0.276   5.714  1.1294 -1.8896  0.4830
 2652SOL    HW310381   1.659   0.404   5.687 -0.3683 -0.6644  1.7993
 2652SOL    MW410382   1.648   0.318   5.675  0.1891 -0.5685 -0.2468
 2653SOL     OW10383   3.867   2.699   2.913  0.5430 -0.5129 -0.4704
 2653SOL    HW210384   3.791   2.649   2.885  0.0105  0.3733 -0.6668
 2653SOL    HW310385   3.928   2.694   2.839 -0.7823  1.6709 -1.8460
 2653SOL    MW410386   3.865   2.692   2.899  0.2391  0.5736  0.5459
 2654SOL     OW10387   4.608   2.801   2.824  0.4232 -0.1969 -0.1933
 2654SOL    HW210388   4.541   2.790   2.892 -0.8368  0.4959 -1.2630
 2654SOL    HW310389   4.673   2.733   2.843 -0.7390 -1.1009  0.7298
 2654SOL    MW410390   4.608   2.790   2.835  0.0482  0.3439 -0.3382
 2655SOL     OW10391   2.847   0.732   1.670  0.2165 -0.5301 -0.3458
 2655SOL    HW210392   2.853   0.651   1.720  0.4771 -0.8404 -0.8736
 2655SOL    HW310393   2.843   0.801   1.736  0.3955 -0.9441  0.1018
 2655SOL    MW410394   2.847   0.731   1.685 -0.7253 -0.6744  0.1449
 2656SOL     OW10395   4.711   1.112   5.166 -0.9638  0.2030 -0.3676
 2656SOL    HW210396   4.697   1.191   5.113  1.5984  0.7635 -0.3830
 2656SOL    HW310397   4.662   1.043   5.121 -2.3322  1.5439 -0.9925
 2656SOL    MW410398   4.703   1.113   5.153  0.4356 -0.3030 -0.6309
 2657SOL     OW10399   1.742   4.748   0.622  0.2434 -0.4721 -0.2891
 2657SOL    HW210400   1.766   4.754   0.530  0.8769 -0.5492 -0.1321
 2657SOL    HW310401   1.822   4.720   0.666  0.4801  1.4003  0.5433
 2657SOL    MW410402   1.756   4.745   0.616  1.1789  0.1768  0.4461
 2658SOL     OW10403   0.321   4.794   6.373 -0.0907  0.0522  0.1380
 2658SOL    HW210404   0.387   4.734   6.409  0.1149  1.0792  1.5994
 2658SOL    HW310405   0.371   4.867   6.338 -0.3896  1.0647  1.6774
 2658SOL    MW410406   0.336   4.796   6.373  0.3631  0.0455  0.3784
 2659SOL     OW10407   3.349   3.041   4.260 -0.0279 -0.1131 -0.1006
 2659SOL    HW210408   3.377   2.968   4.315 -0.9145  0.3501  1.0094
 2659SOL    HW310409   3.400   3.031   4.179  0.2747 -1.6251  0.2384
 2659SOL    MW410410   3.359   3.030   4.257 -0.1378  0.4578  0.0654
 2660SOL     OW10411   0.917   1.943   0.216 -0.3035  0.3437 -0.5141
 2660SOL    HW210412   1.009   1.957   0.241 -0.4046  1.2792 -0.6127
 2660SOL    HW310413   0.867   1.993   0.281 -0.6737  0.8495 -1.1749
 2660SOL    MW410414   0.923   1.952   0.228  0.2766 -0.0179 -0.0052
 2661SOL     OW10415   3.299   5.660   4.157 -0.0448  0.3114 -0.1173
 2661SOL    HW210416   3.360   5.709   4.211  1.5431 -1.2248 -0.4087
 2661SOL    HW310417   3.268   5.723   4.092  1.3900  1.1027 -0.0739
 2661SOL    MW410418   3.303   5.675   4.156  0.4563  0.0020 -0.1882
 2662SOL     OW10419   1.955   4.144   4.056  0.5074  0.3423  0.3535
 2662SOL    HW210420   1.943   4.236   4.031  1.4893  0.4554  0.2673
 2662SOL    HW310421   2.050   4.131   4.056  0.3668 -0.7598  0.0757
 2662SOL    MW410422   1.966   4.155   4.053 -0.5941 -0.2395  0.5484
 2663SOL     OW10423   5.116   1.716   5.883 -0.4993 -0.2498 -0.6861
 2663SOL    HW210424   5.119   1.663   5.804  0.8864  0.0801 -0.8763
 2663SOL    HW310425   5.152   1.801   5.858  0.6126 -0.3535  0.4361
 2663SOL    MW410426   5.121   1.720   5.870  0.3334  0.4059  0.3452
 2664SOL     OW10427   5.204   5.267   3.912 -0.0013 -0.1931  0.2389
 2664SOL    HW210428   5.124   5.216   3.897 -0.9934  0.7616  1.9701
 2664SOL    HW310429   5.184   5.353   3.875  0.0836  0.1479  0.9724
 2664SOL    MW410430   5.191   5.272   3.905 -0.4773  0.8169 -0.0725
 2665SOL     OW10431   2.964   4.353   0.337  0.3072 -0.3197 -0.0331
 2665SOL    HW210432   2.985   4.440   0.370  0.9510  0.6661 -2.7876
 2665SOL    HW310433   2.874   4.361   0.304 -0.1259 -1.1196  0.8897
 2665SOL    MW410434   2.955   4.365   0.337  0.2708 -0.1158  0.5287
 2666SOL     OW10435   6.266   3.787   2.556 -0.1719  0.1156 -0.0389
 2666SOL    HW210436   6.268   3.694   2.577 -0.0348  0.0347 -0.3982
 2666SOL    HW310437   6.199   3.824   2.613 -2.1215 -0.6581 -1.6823
 2666SOL    MW410438   6.258   3.780   2.566 -0.4966 -0.7517 -0.0563
 2667SOL     OW10439   2.501   0.422   4.854 -0.0351 -0.3558  0.1200
 2667SOL    HW210440   2.419   0.439   4.901  0.1122  2.5002 -0.4859
 2667SOL    HW310441   2.561   0.388   4.920 -0.6155  1.0836  1.4214
 2667SOL    MW410442   2.498   0.419   4.869  0.4491 -0.3290 -0.0758
 2668SOL     OW10443   1.422   0.280   4.150  0.0483  0.2962  0.1856
 2668SOL    HW210444   1.440   0.305   4.059 -0.4190 -0.8732 -0.2513
 2668SOL    HW310445   1.500   0.233   4.178  0.0058  0.2515  0.2287
 2668SOL    MW410446   1.435   0.277   4.142 -0.1753  0.0677 -0.0276
 2669SOL     OW10447   0.607   2.942   5.168 -0.1797  1.1489  0.2989
 2669SOL    HW210448   0.600   3.037   5.179  0.5040  1.2816 -0.3573
 2669SOL    HW310449   0.626   2.930   5.075 -1.4418  0.2998  0.1180
 2669SOL    MW410450   0.608   2.953   5.157  0.0462 -0.1740 -0.0247
 2670SOL     OW10451   6.137   6.239   1.682 -0.3341 -0.3725 -0.1131
 2670SOL    HW210452   6.162   6.277   1.597  0.1132 -1.5948 -0.5446
 2670SOL    HW310453   6.203   6.172   1.698 -0.7559 -0.5449  0.9353
 2670SOL    MW410454   6.149   6.235   1.673  0.3204  0.2603 -0.0864
 2671SOL     OW10455   0.653   1.179   4.659  0.0149  0.1608  0.2645
 2671SOL    HW210456   0.672   1.096   4.702  2.2459  1.1122  1.2859
 2671SOL    HW310457   0.638   1.241   4.730  0.9261  1.1428 -0.3527
 2671SOL    MW410458   0.654   1.176   4.674  0.4653 -0.3410 -0.3615
 2672SOL     OW10459   2.717   1.906   0.670 -0.1485 -0.0224  0.3832
 2672SOL    HW210460   2.785   1.860   0.622 -0.8716 -0.1227 -0.5687
 2672SOL    HW310461   2.763   1.975   0.717  0.7579 -0.8339  0.7167
 2672SOL    MW410462   2.732   1.909   0.670  0.1527 -0.2134 -0.0371
 2673SOL     OW10463   0.807   3.927   5.426  0.1758 -0.6126 -0.2208
 2673SOL    HW210464   0.870   3.857   5.409  0.5299 -0.6463  1.1064
 2673SOL    HW310465   0.857   4.008   5.418  0.2657 -0.6140  0.3129
 2673SOL    MW410466   0.822   3.928   5.423  0.5472  0.8270 -0.1617
 2674SOL     OW10467   1.799   3.969   0.375  0.1451  0.5639 -0.3706
 2674SOL    HW210468   1.774   4.058   0.352  0.9528  0.5885 -1.1844
 2674SOL    HW310469   1.750   3.913   0.315 -1.8966  0.3068  1.4094
 2674SOL    MW410470   1.789   3.973   0.364 -0.1054  0.4524 -0.7000
 2675SOL     OW10471   5.175   3.981   4.561 -0.5354 -0.3535 -0.0944
 2675SOL    HW210472   5.099   3.983   4.619  0.1624  1.0547  0.8316
 2675SOL    HW310473   5.187   4.072   4.534 -0.4431 -0.8815 -1.9657
 2675SOL    MW410474   5.167   3.994   4.565  0.0521  0.9589  0.0301
 2676SOL     OW10475   5.708   1.995   1.715 -0.5675  0.1665 -0.2494
 2676SOL    HW210476   5.696   2.059   1.785  0.2859 -0.1227  0.1782
 2676SOL    HW310477   5.619   1.971   1.689 -0.9021  1.2452 -0.1675
 2676SOL    MW410478   5.695   2.000   1.721  0.1498 -0.2679  0.5948
 2677SOL     OW10479   3.208   5.072   2.387 -0.4810 -0.7222 -0.2601
 2677SOL    HW210480   3.138   5.132   2.361  0.5107  0.6432  0.0955
 2677SOL    HW310481   3.282   5.129   2.409  0.9209 -2.1332 -1.0826
 2677SOL    MW410482   3.209   5.088   2.387 -0.3336 -0.0183  0.3898
 2678SOL     OW10483   0.470   6.213   1.032 -0.3949 -0.5781 -0.1322
 2678SOL    HW210484   0.560   6.224   1.002 -0.5408 -1.1421 -0.8047
 2678SOL    HW310485   0.417   6.255   0.963 -0.6034  0.8762  0.8665
 2678SOL    MW410486   0.475   6.220   1.019 -0.0032 -0.3365  0.4616
 2679SOL     OW10487   4.441   1.839   4.196  0.2122 -0.1225 -0.1205
 2679SOL    HW210488   4.375   1.831   4.265 -0.0461  0.3176 -0.3138
 2679SOL    HW310489   4.463   1.932   4.195  1.0093 -0.2948  0.0984
 2679SOL    MW410490   4.436   1.850   4.205  0.2362 -0.8175 -0.3542
 2680SOL     OW10491   2.778   4.201   3.814 -0.6550 -0.1620 -0.0427
 2680SOL    HW210492   2.724   4.158   3.881 -0.1905  1.8426  1.7478
 2680SOL    HW310493   2.840   4.254   3.864  0.1781  0.9050 -2.0785
 2680SOL    MW410494   2.779   4.203   3.830 -0.0955  0.0616  0.1261
 2681SOL     OW10495   0.822   0.894   5.566 -0.7429  0.2021  0.1337
 2681SOL    HW210496   0.858   0.806   5.570 -1.8339 -0.2537  0.4594
 2681SOL    HW310497   0.749   0.892   5.628 -1.0975  1.1860 -0.2386
 2681SOL    MW410498   0.817   0.882   5.575  0.2309 -0.0950 -0.1456
 2682SOL     OW10499   5.750   5.811   3.279  0.5919  0.8300  0.2853
 2682SOL    HW210500   5.733   5.775   3.192 -0.3126 -0.9434  1.1430
 2682SOL    HW310501   5.829   5.865   3.268  0.2367  1.0038 -1.7042
 2682SOL    MW410502   5.758   5.814   3.266 -0.2169  0.2704  0.4988
 2683SOL     OW10503   4.674   4.511   5.603  0.0627  0.0188  0.3866
 2683SOL    HW210504   4.643   4.508   5.512 -1.8782  3.1250  0.8119
 2683SOL    HW310505   4.652   4.425   5.639 -1.5697 -0.3524 -1.3640
 2683SOL    MW410506   4.667   4.500   5.596  0.0702 -0.7378 -0.1633
 2684SOL     OW10507   2.120   4.246   5.343  0.2067  0.0882 -0.3583
 2684SOL    HW210508   2.201   4.262   5.294  1.1146 -0.9293  0.7587
 2684SOL    HW310509   2.140   4.274   5.432 -0.2315 -1.3563  0.2207
 2684SOL    MW410510   2.133   4.252   5.348 -0.5169 -0.0436  0.5128
 2685SOL     OW10511   1.304   2.072   5.259  0.7016  0.1062 -0.2414
 2685SOL    HW210512   1.246   2.139   5.223  0.6395 -0.0703 -0.4709
 2685SOL    HW310513   1.330   2.106   5.345 -1.0749 -0.5532  0.6203
 2685SOL    MW410514   1.299   2.085   5.266 -0.0122  0.4194  0.2182
 2686SOL     OW10515   0.032   0.398   4.510 -0.0458 -0.2592  0.9082
 2686SOL    HW210516   0.044   0.488   4.540 -1.2157  0.8143 -1.6251
 2686SOL    HW310517   0.010   0.349   4.589 -2.4154  2.2719  1.9588
 2686SOL    MW410518   0.031   0.403   4.524 -0.0499 -0.4705  0.2850
 2687SOL     OW10519   4.367   5.131   5.248  0.5061  0.1133  0.5159
 2687SOL    HW210520   4.406   5.134   5.160  1.9687 -0.1922  1.1204
 2687SOL    HW310521   4.276   5.158   5.235  1.5128  3.4015 -0.6175
 2687SOL    MW410522   4.360   5.135   5.234 -0.0134 -0.1990 -0.4843
 2688SOL     OW10523   0.747   5.229   4.548  0.0988 -0.4348 -0.3397
 2688SOL    HW210524   0.715   5.285   4.619 -0.1971 -1.7959  0.6403
 2688SOL    HW310525   0.830   5.194   4.581 -1.6854 -3.8548  0.9275
 2688SOL    MW410526   0.754   5.232   4.562 -0.6126 -0.3653  0.7458
 2689SOL     OW10527   4.880   1.283   0.681 -0.3288 -0.0615  0.0241
 2689SOL    HW210528   4.894   1.372   0.647  2.4649 -0.1259  0.7778
 2689SOL    HW310529   4.847   1.234   0.606 -0.1588  1.2106 -0.9188
 2689SOL    MW410530   4.878   1.288   0.667 -0.1727  0.2128 -0.1148
 2690SOL     OW10531   4.191   4.026   1.189 -0.4105  0.2133 -0.5327
 2690SOL    HW210532   4.258   4.003   1.254 -0.9946  0.1721  0.0640
 2690SOL    HW310533   4.240   4.067   1.117  0.0932  1.6948  0.6074
 2690SOL    MW410534   4.207   4.028   1.188  0.8219  0.3523  0.3489
 2691SOL     OW10535   0.765   2.205   2.861  0.0617 -0.2644  0.4493
 2691SOL    HW210536   0.782   2.177   2.951 -1.1823 -2.2801  0.1192
 2691SOL    HW310537   0.709   2.136   2.824 -0.6339  1.2130 -1.4377
 2691SOL    MW410538   0.760   2.192   2.868 -0.6072  0.3749 -0.1018
 2692SOL     OW10539   3.814   0.021   6.231 -0.5407  0.2314 -0.1936
 2692SOL    HW210540   3.730   0.061   6.251 -1.3391 -0.1872 -2.4740
 2692SOL    HW310541   3.820  -0.054   6.292 -0.9806  1.2486  1.1469
 2692SOL    MW410542   3.804   0.016   6.242 -0.1080 -0.1545 -0.3429
 2693SOL     OW10543   4.599   3.522   3.664  0.4150  0.3201  0.1823
 2693SOL    HW210544   4.659   3.574   3.611  0.0135  1.0115  0.3895
 2693SOL    HW310545   4.655   3.474   3.725  0.7625  0.9508  0.3707
 2693SOL    MW410546   4.614   3.523   3.665  0.6910 -0.6145  0.3535
 2694SOL     OW10547   2.740   5.278   0.624 -0.2949  0.3068 -0.2931
 2694SOL    HW210548   2.756   5.242   0.536 -3.1414 -0.5301 -0.5639
 2694SOL    HW310549   2.780   5.365   0.622 -1.7457  1.0138 -3.0570
 2694SOL    MW410550   2.747   5.284   0.612  0.3327 -0.0578 -0.0559
 2695SOL     OW10551   5.642   2.879   3.187  0.0297 -0.4045  0.1967
 2695SOL    HW210552   5.726   2.918   3.212 -0.1561 -0.2507  0.5932
 2695SOL    HW310553   5.576   2.937   3.225 -0.2535 -0.9752  0.5949
 2695SOL    MW410554   5.644   2.892   3.195 -0.1226 -0.0573 -0.5749
 2696SOL     OW10555   2.998   4.143   4.669 -0.1343 -0.6464 -0.0226
 2696SOL    HW210556   3.041   4.194   4.738 -1.3471 -1.1600  1.1901
 2696SOL    HW310557   3.032   4.055   4.680  0.4215 -0.5296 -0.7625
 2696SOL    MW410558   3.008   4.138   4.680 -0.1485  0.4079  0.0419
 2697SOL     OW10559   2.224   0.472   1.786 -0.1922 -0.3630  0.3207
 2697SOL    HW210560   2.273   0.452   1.706 -1.1121  0.0876 -0.3694
 2697SOL    HW310561   2.199   0.564   1.776 -0.6865 -0.4301  0.9194
 2697SOL    MW410562   2.227   0.481   1.774  0.0899 -0.4057  0.1952
 2698SOL     OW10563   1.261   4.599   4.782  0.7029 -0.0772  0.3294
 2698SOL    HW210564   1.270   4.680   4.731  3.4168 -0.3133  0.3074
 2698SOL    HW310565   1.237   4.533   4.717 -1.9246  0.6943  0.4048
 2698SOL    MW410566   1.259   4.601   4.767  0.2254 -0.2156 -0.4214
 2699SOL     OW10567   0.836   2.555   5.907 -0.0255 -0.1054  0.4663
 2699SOL    HW210568   0.902   2.607   5.860 -0.4554 -0.2678 -0.3271
 2699SOL    HW310569   0.854   2.572   5.999  1.5196 -0.6186  0.2937
 2699SOL    MW410570   0.847   2.564   5.913  0.6762  0.2951  0.0790
 2700SOL     OW10571   0.586   5.465   3.787  0.6364 -0.5050 -0.4757
 2700SOL    HW210572   0.576   5.476   3.882  0.1523 -0.6949 -0.5041
 2700SOL    HW310573   0.559   5.549   3.750 -0.6498 -0.9138 -0.5326
 2700SOL    MW410574   0.581   5.478   3.795 -0.2896  0.1511 -0.1140
 2701SOL     OW10575   2.237   0.248   0.914 -0.5444 -0.1890  0.3805
 2701SOL    HW210576   2.273   0.229   0.828  0.7992 -0.3295  0.9525
 2701SOL    HW310577   2.159   0.193   0.920  0.6729 -2.0213  0.1716
 2701SOL    MW410578   2.231   0.238   0.904 -0.2063  0.3632  0.1477
 2702SOL     OW10579   3.056   4.472   3.720 -0.6941  0.1288 -0.0940
 2702SOL    HW210580   2.975   4.496   3.674 -1.3676 -0.1759  0.9061
 2702SOL    HW310581   3.077   4.384   3.687  0.1495  0.8325 -1.5555
 2702SOL    MW410582   3.048   4.463   3.709  0.0339  0.7436 -0.2618
 2703SOL     OW10583   0.575   1.436   2.592 -0.5786  0.9782 -0.8267
 2703SOL    HW210584   0.486   1.400   2.596  0.5686 -2.0050 -0.1413
 2703SOL    HW310585   0.613   1.397   2.514  1.1609 -0.4742  0.6665
 2703SOL    MW410586   0.568   1.426   2.582 -0.1400  0.0282  0.4152
 2704SOL     OW10587   2.038   2.024   3.523  0.1061 -0.0239 -0.5292
 2704SOL    HW210588   2.132   2.040   3.513  0.4564 -1.5426  0.0227
 2704SOL    HW310589   2.024   2.028   3.618 -0.3071 -0.1958 -0.5832
 2704SOL    MW410590   2.048   2.026   3.535 -0.1278  0.0559  0.4852
 2705SOL     OW10591   0.137   1.132   0.874  0.4006  0.4108  0.1868
 2705SOL    HW210592   0.054   1.172   0.847  0.0391 -0.2335  0.3102
 2705SOL    HW310593   0.117   1.090   0.957 -0.1722 -2.8326 -1.4119
 2705SOL    MW410594   0.123   1.131   0.881 -0.1984  0.1902 -0.6667
 2706SOL     OW10595   5.740   6.228   1.180 -0.4633  0.2594 -0.7196
 2706SOL    HW210596   5.698   6.249   1.096 -0.6584  1.4808 -0.3390
 2706SOL    HW310597   5.677   6.169   1.223 -1.8120  1.9918 -0.1975
 2706SOL    MW410598   5.726   6.223   1.175  0.3985 -0.0734  0.0252
 2707SOL     OW10599   4.988   4.208   4.109 -0.3827 -0.2494 -0.5670
 2707SOL    HW210600   4.942   4.277   4.061  0.8437  0.1859 -1.1783
 2707SOL    HW310601   5.078   4.214   4.077  0.0852 -1.1057  0.5382
 2707SOL    MW410602   4.994   4.218   4.098  0.0908 -0.3474  0.1425
 2708SOL     OW10603   4.824   5.095   1.717  0.6580  0.0040  0.1513
 2708SOL    HW210604   4.794   5.041   1.790 -0.4477 -0.3743 -0.5588
 2708SOL    HW310605   4.799   5.184   1.742 -0.2923 -0.1999 -0.0272
 2708SOL    MW410606   4.817   5.100   1.730  0.3818  0.6148 -0.2204
 2709SOL     OW10607   2.485   5.594   3.487  0.1047  0.1748 -0.3415
 2709SOL    HW210608   2.539   5.557   3.417 -0.2627 -0.6092 -0.2243
 2709SOL    HW310609   2.399   5.605   3.447 -0.3358 -1.0795  0.1995
 2709SOL    MW410610   2.481   5.590   3.472 -0.0155 -0.3541  0.1013
 2710SOL     OW10611   0.214   1.086   2.179  0.2563  0.4244  0.2675
 2710SOL    HW210612   0.229   0.992   2.193  0.0830  0.1720 -1.0630
 2710SOL    HW310613   0.200   1.093   2.085 -0.5191  1.6871  0.4635
 2710SOL    MW410614   0.214   1.074   2.169 -0.1099  0.3049 -0.7523
 2711SOL     OW10615   4.588   0.491   2.201  0.0537  0.0061  0.5925
 2711SOL    HW210616   4.521   0.552   2.230 -0.3083 -0.3677  0.5505
 2711SOL    HW310617   4.620   0.527   2.118  2.5691  2.2250  2.3812
 2711SOL    MW410618   4.584   0.504   2.194  0.7746 -0.1459 -0.5437
 2712SOL     OW10619   0.502   3.926   6.326  0.1985  0.6090  1.0676
 2712SOL    HW210620   0.570   3.871   6.287 -0.4631  0.3581  0.2459
 2712SOL    HW310621   0.472   3.877   6.403  0.7375  0.5913  1.2721
 2712SOL    MW410622   0.507   3.913   6.331 -0.1689  0.0754 -0.2466
 2713SOL     OW10623   1.880   5.652   3.114 -0.3501  0.3808 -0.0512
 2713SOL    HW210624   1.817   5.714   3.151 -3.9584 -1.7377 -2.0699
 2713SOL    HW310625   1.888   5.584   3.180  1.5327  1.5868  1.0450
 2713SOL    MW410626   1.872   5.651   3.127  0.3410 -0.2759 -0.1519
 2714SOL     OW10627   5.963   3.861   3.634 -0.3425  0.2451 -0.1843
 2714SOL    HW210628   5.879   3.885   3.673 -1.7100 -0.0965 -2.6891
 2714SOL    HW310629   5.962   3.765   3.635  1.0877  0.2108  1.8018
 2714SOL    MW410630   5.951   3.851   3.639 -0.6074  0.6130  0.4748
 2715SOL     OW10631   0.652   0.583   5.209 -0.1785  0.0160  0.1987
 2715SOL    HW210632   0.700   0.662   5.235 -0.0649  0.1227 -0.3376
 2715SOL    HW310633   0.586   0.572   5.277  1.6889 -1.1260  1.9869
 2715SOL    MW410634   0.650   0.592   5.222  0.0551 -0.4156 -0.0823
 2716SOL     OW10635   2.402   0.696   0.273 -0.0913 -0.0824  0.2006
 2716SOL    HW210636   2.372   0.704   0.183 -1.3086  1.4292  0.6963
 2716SOL    HW310637   2.333   0.737   0.325  0.1440 -1.7240  1.9173
 2716SOL    MW410638   2.389   0.702   0.268  0.5869  0.1073 -0.2380
 2717SOL     OW10639   2.489   3.593   0.619 -0.4649  0.3117 -0.3432
 2717SOL    HW210640   2.532   3.645   0.687 -0.3026  0.2744 -0.4181
 2717SOL    HW310641   2.558   3.537   0.583 -0.2020  1.3429 -1.5205
 2717SOL    MW410642   2.504   3.593   0.623 -0.2318  0.0834 -0.4345
 2718SOL     OW10643   1.571   6.331   3.588  0.2789 -0.1681  0.6175
 2718SOL    HW210644   1.578   6.352   3.681 -1.0964  1.7221  0.3626
 2718SOL    HW310645   1.637   6.385   3.545 -1.6149  1.9720  0.1973
 2718SOL    MW410646   1.580   6.341   3.594  0.5616  0.0241 -0.0938
 2719SOL     OW10647   0.689   2.044   2.285 -0.4320 -0.6099  0.0332
 2719SOL    HW210648   0.759   2.042   2.220 -1.7118 -1.8609 -1.3630
 2719SOL    HW310649   0.720   2.106   2.351  0.5153  1.4445 -2.2107
 2719SOL    MW410650   0.702   2.052   2.285 -0.2682  0.0230  0.1949
 2720SOL     OW10651   5.019   5.070   3.904  0.2844 -0.4586 -0.0875
 2720SOL    HW210652   5.059   4.986   3.928  0.4339 -0.0115  1.3176
 2720SOL    HW310653   4.964   5.049   3.829  0.6493 -1.7321 -0.0294
 2720SOL    MW410654   5.017   5.056   3.898  0.1646  0.1239 -0.1267
 2721SOL     OW10655   0.078   5.096   0.254  0.8938  0.1874  0.1170
 2721SOL    HW210656   0.011   5.066   0.192  0.0658 -0.1005  1.1315
 2721SOL    HW310657   0.074   5.192   0.249  0.9456  0.1698 -0.3776
 2721SOL    MW410658   0.069   5.105   0.245 -0.4144  0.4489  0.4556
 2722SOL     OW10659   0.535   2.833   5.404  0.2440 -0.1788 -0.2511
 2722SOL    HW210660   0.579   2.874   5.329 -0.2211 -3.0678 -2.2654
 2722SOL    HW310661   0.444   2.861   5.398  0.6461  1.5484  0.7949
 2722SOL    MW410662   0.529   2.842   5.394 -0.2406 -0.2861  0.3196
 2723SOL     OW10663   6.260   2.095   5.521 -0.8789  0.0459  0.1865
 2723SOL    HW210664   6.295   2.007   5.533  2.2041  0.5966 -3.0003
 2723SOL    HW310665   6.301   2.147   5.591 -2.1290 -0.8521  1.6273
 2723SOL    MW410666   6.270   2.090   5.532 -0.2217 -0.4169  0.5204
 2724SOL     OW10667   2.089   0.694   3.319  0.2011  0.2569  0.7335
 2724SOL    HW210668   2.126   0.613   3.283 -0.9067  0.4054 -0.8180
 2724SOL    HW310669   2.154   0.761   3.298  0.6736 -0.0588  1.1668
 2724SOL    MW410670   2.103   0.692   3.311 -0.2581 -0.3159 -0.2790
 2725SOL     OW10671   4.571   5.849   0.840 -0.0964  0.4470  0.2415
 2725SOL    HW210672   4.577   5.754   0.851 -1.0911  0.3342 -0.1124
 2725SOL    HW310673   4.477   5.867   0.838  0.0792  1.4954  0.7288
 2725SOL    MW410674   4.559   5.838   0.841  0.4156  0.0077  0.5463
 2726SOL     OW10675   1.528   4.386   0.768 -0.0161  0.1410 -0.7330
 2726SOL    HW210676   1.447   4.337   0.782  0.4915 -0.2364  1.0686
 2726SOL    HW310677   1.506   4.476   0.792  0.1328  0.0013 -0.0504
 2726SOL    MW410678   1.514   4.391   0.773 -0.4679 -0.5063  0.3714
 2727SOL     OW10679   2.159   0.259   5.188  0.3042 -0.2913 -0.1916
 2727SOL    HW210680   2.165   0.180   5.242 -0.1454 -0.3298 -0.2008
 2727SOL    HW310681   2.066   0.281   5.185  0.4755  0.5512  0.2572
 2727SOL    MW410682   2.148   0.252   5.195  0.2928 -0.2399 -0.1849
 2728SOL     OW10683   5.934   3.533   2.216  0.0460 -0.2300  0.1821
 2728SOL    HW210684   5.940   3.602   2.150  0.6278 -1.4263 -1.0625
 2728SOL    HW310685   5.937   3.580   2.299 -0.0053  1.2740 -0.6244
 2728SOL    MW410686   5.935   3.549   2.218  0.2188 -0.6068  0.2983
 2729SOL     OW10687   0.315   2.647   2.058 -0.3131 -0.1197  0.0858
 2729SOL    HW210688   0.301   2.644   1.963 -0.3993  1.4669  0.0126
 2729SOL    HW310689   0.316   2.556   2.085  0.7442 -0.6584 -1.5860
 2729SOL    MW410690   0.313   2.635   2.049 -0.4696 -0.1824  0.6656
 2730SOL     OW10691   4.321   5.466   1.395 -0.1217  0.8012  0.2091
 2730SOL    HW210692   4.253   5.506   1.449  0.3235  0.2684  1.1878
 2730SOL    HW310693   4.280   5.386   1.361 -0.1264  0.7001  0.4503
 2730SOL    MW410694   4.306   5.460   1.397  0.3054 -0.1235  0.0650
 2731SOL     OW10695   0.366   3.437   2.992  0.4291 -0.0551 -0.0105
 2731SOL    HW210696   0.385   3.531   2.994 -0.9162  0.2353  0.8203
 2731SOL    HW310697   0.354   3.417   2.899 -0.8596  0.9764 -0.1023
 2731SOL    MW410698   0.367   3.447   2.980  0.1877 -0.5281 -0.2632
 2732SOL     OW10699   4.655   5.466   2.914 -0.5028  0.7320  0.3925
 2732SOL    HW210700   4.729   5.424   2.956 -0.2641 -0.2186 -0.9227
 2732SOL    HW310701   4.694   5.526   2.851 -0.8434  0.7784  0.2234
 2732SOL    MW410702   4.670   5.468   2.911 -0.4860  0.1790 -0.2009
 2733SOL     OW10703   4.905   5.542   5.030 -0.3641 -0.1584 -0.0225
 2733SOL    HW210704   4.944   5.629   5.037 -0.7080  0.0214 -0.3201
 2733SOL    HW310705   4.964   5.494   4.971 -0.3080 -0.0474 -0.0571
 2733SOL    MW410706   4.918   5.547   5.023  0.0131  0.0574 -0.1814
 2734SOL     OW10707   2.955   1.502   3.926 -0.4126 -0.3442  1.1259
 2734SOL    HW210708   3.044   1.526   3.900 -0.3495 -0.9725  0.7293
 2734SOL    HW310709   2.966   1.417   3.971 -0.7688 -0.2508  1.3873
 2734SOL    MW410710   2.968   1.494   3.928  0.6671 -0.1534 -0.0789
 2735SOL     OW10711   4.438   1.477   6.204 -0.1936  0.4097 -0.0264
 2735SOL    HW210712   4.517   1.529   6.191 -0.5623  0.8614 -0.5240
 2735SOL    HW310713   4.380   1.532   6.257 -0.3344  0.2597 -0.0223
 2735SOL    MW410714   4.440   1.491   6.209 -0.1560 -0.1430 -0.0490
 2736SOL     OW10715   4.861   4.903   5.625 -0.1241  0.4744  0.3161
 2736SOL    HW210716   4.881   4.932   5.536 -0.4672 -0.9754 -0.2514
 2736SOL    HW310717   4.876   4.981   5.679  1.0633  1.1024 -0.8672
 2736SOL    MW410718   4.866   4.917   5.620 -0.1934 -0.4989  0.2555
 2737SOL     OW10719   3.979   0.033   1.337 -0.4722  0.0104 -0.7542
 2737SOL    HW210720   3.950  -0.052   1.371  0.3381 -0.8171 -2.0586
 2737SOL    HW310721   3.898   0.078   1.312 -0.8857 -0.5060 -0.3589
 2737SOL    MW410722   3.965   0.028   1.338 -0.3158  0.7506 -0.7742
 2738SOL     OW10723   1.465   5.763   2.634  0.7819  0.0738  0.2937
 2738SOL    HW210724   1.397   5.699   2.613  1.3357 -0.2694 -0.4873
 2738SOL    HW310725   1.416   5.841   2.661  0.1047 -0.8354  1.8382
 2738SOL    MW410726   1.450   5.765   2.635 -0.2958 -0.0356 -0.0819
 2739SOL     OW10727   2.465   3.050   2.223  0.1017  0.1060 -0.3232
 2739SOL    HW210728   2.482   3.112   2.152  2.0556  0.6507  0.5446
 2739SOL    HW310729   2.405   3.096   2.281  1.8072  1.4012  0.4908
 2739SOL    MW410730   2.459   3.064   2.221  0.5007  0.0222  0.3869
 2740SOL     OW10731   1.127   4.806   5.557  0.6769 -0.2487 -0.2604
 2740SOL    HW210732   1.060   4.814   5.625 -0.7833 -1.6837 -1.4378
 2740SOL    HW310733   1.204   4.773   5.603 -0.8732 -3.1483  0.4566
 2740SOL    MW410734   1.128   4.803   5.572 -0.0789  0.3026  0.2936
 2741SOL     OW10735   2.738   0.320   5.904 -0.1066  0.2686 -0.6321
 2741SOL    HW210736   2.685   0.380   5.956 -0.5787 -0.0888 -0.6912
 2741SOL    HW310737   2.820   0.313   5.952  0.0262  1.1106 -0.7263
 2741SOL    MW410738   2.742   0.327   5.917 -0.2357  0.5389 -0.0224
 2742SOL     OW10739   4.833   0.330   4.587  0.3140 -0.1955  0.0118
 2742SOL    HW210740   4.919   0.372   4.591  0.5878 -0.8650  2.0441
 2742SOL    HW310741   4.801   0.351   4.499  2.8513 -0.5378 -1.0991
 2742SOL    MW410742   4.840   0.339   4.576  0.5259  0.0261  0.0870
 2743SOL     OW10743   1.751   5.263   6.023  0.3300  0.3720  0.4920
 2743SOL    HW210744   1.660   5.270   6.051  0.1339 -0.6881  0.1495
 2743SOL    HW310745   1.761   5.332   5.958 -0.7330 -0.6151 -0.7598
 2743SOL    MW410746   1.740   5.273   6.018 -0.0525  0.8496  0.2490
 2744SOL     OW10747   1.115   6.099   5.564  0.0358 -0.1048  0.0368
 2744SOL    HW210748   1.199   6.121   5.523  1.1318 -0.8566  1.7947
 2744SOL    HW310749   1.101   6.170   5.627 -0.7152  0.0621 -0.3117
 2744SOL    MW410750   1.124   6.111   5.567 -0.8220 -0.4275  0.2903
 2745SOL     OW10751   2.163   3.684   2.562  0.0264  0.3648  0.3270
 2745SOL    HW210752   2.249   3.723   2.546  0.5434 -0.8046  0.1065
 2745SOL    HW310753   2.182   3.604   2.612 -0.8260 -0.4337 -0.5738
 2745SOL    MW410754   2.177   3.678   2.566 -0.1796  0.0080 -0.0054
 2746SOL     OW10755   3.896   3.398   4.571  0.3800  0.1956 -0.2972
 2746SOL    HW210756   3.922   3.395   4.663 -0.6659  0.8040  0.0356
 2746SOL    HW310757   3.978   3.390   4.522  1.0530  0.7961  0.6955
 2746SOL    MW410758   3.911   3.397   4.576 -0.5431  0.0689  0.4519
 2747SOL     OW10759   2.514   4.126   5.861 -0.4637 -0.3349 -0.1186
 2747SOL    HW210760   2.508   4.092   5.951  1.1387  0.6038  0.3780
 2747SOL    HW310761   2.582   4.071   5.820  1.1101  1.2528  0.2539
 2747SOL    MW410762   2.522   4.114   5.868 -0.0650 -0.5998 -0.1080
 2748SOL     OW10763   3.901   5.326   4.852  0.4081  0.2077 -0.1215
 2748SOL    HW210764   3.869   5.415   4.834 -0.0090  0.1879  0.4815
 2748SOL    HW310765   3.843   5.294   4.921  1.8365  0.2318  1.1552
 2748SOL    MW410766   3.889   5.334   4.859  0.2415  0.4921 -0.5763
 2749SOL     OW10767   5.015   1.591   2.032 -0.4188 -0.2267 -0.1268
 2749SOL    HW210768   4.987   1.677   2.064  0.4090 -1.1340  3.5637
 2749SOL    HW310769   4.937   1.536   2.037 -0.1979 -0.4697  0.8743
 2749SOL    MW410770   5.001   1.595   2.037  0.4388  0.2849 -0.1592
 2750SOL     OW10771   2.236   2.259   1.396 -0.0659  0.0384  0.3152
 2750SOL    HW210772   2.222   2.176   1.350  1.1351  0.1548 -0.2882
 2750SOL    HW310773   2.149   2.299   1.399 -0.3983 -0.5600 -0.7089
 2750SOL    MW410774   2.223   2.253   1.390 -0.4463  0.0516 -0.1716
 2751SOL     OW10775   4.840   1.389   3.136 -0.1528 -0.0560 -0.3484
 2751SOL    HW210776   4.801   1.399   3.049 -0.8176  1.1337  0.0526
 2751SOL    HW310777   4.789   1.449   3.191  1.1968  0.2954  0.5476
 2751SOL    MW410778   4.828   1.398   3.132 -0.3190  0.0352 -0.0886
 2752SOL     OW10779   0.629   1.238   5.799  0.6968  0.1188 -0.0077
 2752SOL    HW210780   0.639   1.309   5.862  1.2821  0.6702 -0.7185
 2752SOL    HW310781   0.605   1.281   5.717  1.5612 -0.4544 -0.5737
 2752SOL    MW410782   0.627   1.253   5.796 -0.3395 -0.4565 -0.5949
 2753SOL     OW10783   4.778   3.065   1.705  0.1726 -0.1098 -0.0011
 2753SOL    HW210784   4.872   3.074   1.721  0.7544 -2.5074 -1.4225
 2753SOL    HW310785   4.759   3.129   1.637  0.8974  0.0809 -0.0330
 2753SOL    MW410786   4.788   3.075   1.698 -0.2740 -0.0617  0.2629
 2754SOL     OW10787   2.838   1.900   1.668 -0.4584  0.0400  0.1560
 2754SOL    HW210788   2.844   1.819   1.719 -0.1248 -1.2456 -1.8226
 2754SOL    HW310789   2.779   1.879   1.596 -1.6531  2.0863  0.4473
 2754SOL    MW410790   2.831   1.887   1.665 -0.0126  0.4296  0.0689
 2755SOL     OW10791   3.862   6.422   0.106 -0.6010 -0.2514 -0.8119
 2755SOL    HW210792   3.798   6.360   0.140  1.1764 -1.0291  1.3085
 2755SOL    HW310793   3.811   6.502   0.091 -2.0940 -0.8448  0.7447
 2755SOL    MW410794   3.847   6.425   0.108 -0.3917 -0.6327  0.4017
 2756SOL     OW10795   3.021   0.444   5.250  0.3859  0.2747  0.3331
 2756SOL    HW210796   2.948   0.415   5.194 -0.3404  0.2573  1.2584
 2756SOL    HW310797   2.993   0.531   5.281  1.1602  0.6440  0.0140
 2756SOL    MW410798   3.008   0.452   5.246 -0.7397  0.9697 -0.0410
 2757SOL     OW10799   6.058   0.778   2.644 -0.1137 -0.1700 -0.7558
 2757SOL    HW210800   5.982   0.827   2.676  0.6189  0.0688  0.6841
 2757SOL    HW310801   6.064   0.702   2.702  2.0728  1.0031  0.6620
 2757SOL    MW410802   6.049   0.774   2.656  0.1743  0.0279 -0.1472
 2758SOL     OW10803   0.662   3.868   5.668 -0.0911 -0.7053 -0.6758
 2758SOL    HW210804   0.743   3.886   5.621  0.0076 -0.6926 -0.5008
 2758SOL    HW310805   0.690   3.846   5.757 -0.3443  0.4764 -0.2851
 2758SOL    MW410806   0.676   3.867   5.673 -0.3065 -0.2055 -0.2877
 2759SOL     OW10807   6.010   3.473   0.178 -0.4971 -0.1632 -0.2792
 2759SOL    HW210808   6.058   3.541   0.130  1.8441 -1.5588 -0.0808
 2759SOL    HW310809   5.937   3.450   0.121  1.4704 -0.8707 -2.6935
 2759SOL    MW410810   6.007   3.479   0.164  0.1672 -0.2091  0.2937
 2760SOL     OW10811   5.549   5.709   6.033 -0.2687 -0.3754 -0.0819
 2760SOL    HW210812   5.553   5.653   6.110 -1.6261  2.1075  1.9503
 2760SOL    HW310813   5.636   5.703   5.994  0.3689 -1.9377  1.4760
 2760SOL    MW410814   5.561   5.701   6.038 -0.0708 -0.2420  0.2641
 2761SOL     OW10815   3.057   0.125   5.676  0.0349  0.1016 -0.1921
 2761SOL    HW210816   3.035   0.174   5.597  0.0119  1.5308  0.6647
 2761SOL    HW310817   2.972   0.105   5.716  0.0577  2.4638  1.2409
 2761SOL    MW410818   3.042   0.129   5.671 -0.0796  0.3051 -0.2004
 2762SOL     OW10819   5.353   5.593   5.821  0.0426 -0.4094 -0.1797
 2762SOL    HW210820   5.407   5.516   5.803 -0.7777 -0.8846 -0.6928
 2762SOL    HW310821   5.399   5.638   5.892 -0.5418 -2.5168  1.6793
 2762SOL    MW410822   5.366   5.589   5.828 -0.1225  0.3316 -0.4227
 2763SOL     OW10823   4.821   0.362   5.163 -0.8136  0.0815 -0.3707
 2763SOL    HW210824   4.852   0.389   5.250 -0.9120 -0.5149 -0.1502
 2763SOL    HW310825   4.901   0.345   5.114 -0.7055  1.7673 -0.8499
 2763SOL    MW410826   4.836   0.363   5.168 -0.0050 -0.3152 -0.0492
 2764SOL     OW10827   2.013   4.483   2.823 -0.0139  0.2760 -0.0980
 2764SOL    HW210828   1.989   4.467   2.732 -1.8234  0.7257  0.2713
 2764SOL    HW310829   1.971   4.413   2.872  0.4756  0.3655  0.4553
 2764SOL    MW410830   2.005   4.472   2.817  0.5187 -0.2514 -0.0952
 2765SOL     OW10831   6.383   1.207   2.933 -0.2831 -0.2284  0.6842
 2765SOL    HW210832   6.343   1.293   2.943 -0.5195 -0.4630  2.0997
 2765SOL    HW310833   6.431   1.194   3.015  1.2756 -0.6900 -0.2609
 2765SOL    MW410834   6.384   1.216   2.945  0.0351  0.1857  0.1330
 2766SOL     OW10835   1.814   3.943   1.047 -0.5098  0.3430 -0.1867
 2766SOL    HW210836   1.727   3.965   1.080  0.1806  1.7044  0.8336
 2766SOL    HW310837   1.866   3.928   1.126 -0.0582 -1.6407 -0.7955
 2766SOL    MW410838   1.809   3.944   1.062  0.0019 -0.2423  0.4787
 2767SOL     OW10839   4.959   0.716   2.749 -0.0488 -0.4968 -0.4792
 2767SOL    HW210840   4.951   0.624   2.722  1.0022 -0.2754 -1.6066
 2767SOL    HW310841   4.893   0.761   2.697 -0.1716 -0.5261 -0.3497
 2767SOL    MW410842   4.949   0.710   2.738  0.3004  0.0688  0.5366
 2768SOL     OW10843   2.578   5.556   4.518  0.2631 -0.4737  0.3607
 2768SOL    HW210844   2.622   5.498   4.581 -0.1686  0.6127  1.6930
 2768SOL    HW310845   2.648   5.611   4.483  0.7233 -1.8877 -1.1012
 2768SOL    MW410846   2.593   5.555   4.521 -0.9769 -0.1209  0.3666
 2769SOL     OW10847   1.502   4.499   6.086 -0.0222 -0.0903 -0.3286
 2769SOL    HW210848   1.512   4.594   6.087 -0.7756 -0.0012 -1.0259
 2769SOL    HW310849   1.443   4.481   6.014 -1.6856 -0.9160  1.1636
 2769SOL    MW410850   1.496   4.509   6.077 -0.5497  0.2738  0.1063
 2770SOL     OW10851   0.231   4.044   1.356 -0.5326  0.1680 -0.0698
 2770SOL    HW210852   0.191   3.958   1.345  0.7701 -0.4470 -0.2950
 2770SOL    HW310853   0.304   4.028   1.416 -1.1798  1.4261  1.1101
 2770SOL    MW410854   0.236   4.031   1.362  0.9437 -0.6848  0.0932
 2771SOL     OW10855   4.458   1.766   6.359  0.3803 -0.1490 -0.1291
 2771SOL    HW210856   4.385   1.774   6.299 -0.8875 -0.8635  1.2344
 2771SOL    HW310857   4.536   1.768   6.304 -0.6505  0.6999 -1.6143
 2771SOL    MW410858   4.459   1.767   6.344 -0.1419  0.4752  0.2615
 2772SOL     OW10859   3.425   3.865   3.956  0.3817  0.0380  0.4977
 2772SOL    HW210860   3.339   3.825   3.959  0.7803 -0.9349 -0.4919
 2772SOL    HW310861   3.447   3.868   3.863  1.2430  0.6500  0.7089
 2772SOL    MW410862   3.417   3.860   3.944  0.7168 -0.7658 -0.2402
 2773SOL     OW10863   6.223   1.934   0.636 -0.0369  0.0575 -0.1606
 2773SOL    HW210864   6.268   1.907   0.716 -1.1040 -1.0244  0.1034
 2773SOL    HW310865   6.218   2.030   0.642  1.0130  0.0811  0.4408
 2773SOL    MW410866   6.228   1.943   0.647  0.6315 -0.5288 -0.5257
 2774SOL     OW10867   0.016   2.927   5.624  0.2396 -0.4923 -0.4955
 2774SOL    HW210868  -0.053   2.910   5.560  0.4663 -0.1735 -0.8259
 2774SOL    HW310869   0.008   3.020   5.644 -0.2778 -0.7319  0.4697
 2774SOL    MW410870   0.006   2.937   5.618  0.3602  0.2334  0.1504
 2775SOL     OW10871   4.966   1.513   6.245 -0.1236  0.5912  0.2535
 2775SOL    HW210872   4.928   1.461   6.174 -0.9413  2.5043 -0.7703
 2775SOL    HW310873   4.898   1.514   6.313 -0.4070  0.9389 -0.0341
 2775SOL    MW410874   4.952   1.506   6.245  0.6396  0.4649 -0.0533
 2776SOL     OW10875   1.636   0.516   0.667 -0.5956 -0.1882  0.3529
 2776SOL    HW210876   1.626   0.463   0.746 -1.3312 -0.2855  0.2069
 2776SOL    HW310877   1.584   0.470   0.601 -0.9932  0.5486  0.1395
 2776SOL    MW410878   1.628   0.503   0.669 -0.2790  0.1482 -0.1691
 2777SOL     OW10879   3.039   4.709   0.616  0.3102 -0.4702  0.5785
 2777SOL    HW210880   2.997   4.765   0.682  2.0892  0.1884  1.1979
 2777SOL    HW310881   3.099   4.654   0.666  1.8616  0.1879 -0.4788
 2777SOL    MW410882   3.041   4.709   0.631 -0.0344  0.4778  0.0525
 2778SOL     OW10883   3.987   5.181   1.166  0.1183 -0.5649 -0.2954
 2778SOL    HW210884   3.997   5.147   1.077  0.5284  0.6885 -0.7411
 2778SOL    HW310885   3.894   5.203   1.172 -0.3215 -2.3464  0.2453
 2778SOL    MW410886   3.976   5.179   1.155 -0.2766  0.5368 -0.1335
 2779SOL     OW10887   2.284   0.099   2.746 -0.1038 -0.7173 -0.1361
 2779SOL    HW210888   2.309   0.162   2.813 -0.1102  0.1058 -0.8854
 2779SOL    HW310889   2.227   0.148   2.687 -0.0822 -1.4129 -0.7535
 2779SOL    MW410890   2.280   0.114   2.747  0.2337 -0.0176 -0.0444
 2780SOL     OW10891   1.077   3.108   6.227  0.5005  0.0904 -0.0097
 2780SOL    HW210892   1.058   3.048   6.299  1.0703 -0.0158  0.0600
 2780SOL    HW310893   1.050   3.061   6.149  1.0703 -0.3165  0.0330
 2780SOL    MW410894   1.071   3.094   6.226 -0.1798  0.1743  0.2084
 2781SOL     OW10895   4.614   4.705   3.556  0.5932 -0.9966  0.2346
 2781SOL    HW210896   4.526   4.687   3.522  0.6496 -0.6969 -0.0788
 2781SOL    HW310897   4.615   4.663   3.642  0.0028 -0.6389  0.4222
 2781SOL    MW410898   4.602   4.697   3.563  0.2588 -0.1278 -0.2334
 2782SOL     OW10899   2.666   5.049   0.788  0.0733 -1.0564 -0.3296
 2782SOL    HW210900   2.689   5.117   0.725  1.1538 -1.3793 -0.3003
 2782SOL    HW310901   2.590   5.005   0.749 -1.0213  0.5031 -0.0775
 2782SOL    MW410902   2.659   5.052   0.775  0.0138  0.0162 -0.1952
 2783SOL     OW10903   4.033   6.115   5.103  0.0045 -0.3047  0.3850
 2783SOL    HW210904   4.122   6.124   5.136 -0.9546  1.4498  2.7338
 2783SOL    HW310905   3.980   6.101   5.181 -1.8600 -0.7851 -0.9136
 2783SOL    MW410906   4.038   6.114   5.117 -0.4894  0.2421 -0.4337
 2784SOL     OW10907   1.253   2.231   3.270 -0.2559  0.0481  0.1095
 2784SOL    HW210908   1.236   2.264   3.182  0.0590  0.0584  0.0496
 2784SOL    HW310909   1.336   2.182   3.262  1.0561  2.0193  0.8691
 2784SOL    MW410910   1.262   2.229   3.258 -0.1338  0.3636 -0.2367
 2785SOL     OW10911   3.936   3.658   3.159  0.1486  0.2530 -0.0839
 2785SOL    HW210912   3.881   3.672   3.236 -1.0720  0.0072 -0.8767
 2785SOL    HW310913   3.970   3.745   3.137 -1.0297  0.6489 -0.3766
 2785SOL    MW410914   3.933   3.672   3.167 -0.4920  0.0983  0.2190
 2786SOL     OW10915   2.179   4.414   1.921  0.5170 -0.1558  0.2481
 2786SOL    HW210916   2.271   4.390   1.913  0.3153 -0.5665 -1.0506
 2786SOL    HW310917   2.171   4.498   1.876  0.1741 -0.3551 -0.0713
 2786SOL    MW410918   2.190   4.422   1.914 -0.4144  0.2845  0.2119
 2787SOL     OW10919   3.116   3.618   0.251  0.0491 -0.3179  0.1535
 2787SOL    HW210920   3.172   3.544   0.228 -0.7885 -1.1167  0.6035
 2787SOL    HW310921   3.029   3.580   0.258 -0.3232  0.6385  0.8308
 2787SOL    MW410922   3.112   3.603   0.249  0.0109  0.0134  0.1556
 2788SOL     OW10923   3.400   0.993   0.993  0.0165 -0.4938 -0.0790
 2788SOL    HW210924   3.396   1.086   1.014  1.0264 -0.9584  2.5800
 2788SOL    HW310925   3.349   0.951   1.062 -0.5378 -1.9381 -1.3037
 2788SOL    MW410926   3.393   1.000   1.005 -0.5415  0.1325 -0.0886
 2789SOL     OW10927   3.093   1.904   1.527 -0.4620  0.2740 -0.7404
 2789SOL    HW210928   3.014   1.905   1.580 -0.1578 -0.1233 -0.2732
 2789SOL    HW310929   3.155   1.959   1.576 -0.5143  0.7519 -1.2062
 2789SOL    MW410930   3.091   1.912   1.541 -0.2098  0.1147 -0.2763
 2790SOL     OW10931   3.308   3.826   0.809 -0.3756 -0.4333  0.5590
 2790SOL    HW210932   3.360   3.895   0.768 -1.2662  0.6060  1.1323
 2790SOL    HW310933   3.230   3.871   0.841 -1.2000 -1.7984  0.5317
 2790SOL    MW410934   3.305   3.841   0.808 -0.5230  0.0732 -0.2387
 2791SOL     OW10935   3.464   2.826   4.417 -0.3147  0.0982  1.2679
 2791SOL    HW210936   3.525   2.827   4.491  1.5469 -2.6083 -0.0639
 2791SOL    HW310937   3.416   2.743   4.427  1.8895 -1.7784 -1.7947
 2791SOL    MW410938   3.466   2.815   4.429  0.0226  0.3843  0.0133
 2792SOL     OW10939   2.488   1.881   4.981  0.3562 -0.9976 -0.0926
 2792SOL    HW210940   2.413   1.826   4.956  1.0810 -2.4018  0.6635
 2792SOL    HW310941   2.463   1.918   5.066  0.4049 -1.2522  0.0338
 2792SOL    MW410942   2.475   1.878   4.989  0.2056 -0.4381  0.1135
 2793SOL     OW10943   2.330   5.142   5.114 -0.0463  0.1388  0.4202
 2793SOL    HW210944   2.412   5.190   5.104  0.0834  0.1990  1.5824
 2793SOL    HW310945   2.316   5.100   5.029  0.9306  0.5269  0.0516
 2793SOL    MW410946   2.339   5.143   5.102  0.4944 -0.2928  0.4643
 2794SOL     OW10947   5.847   5.014   0.175 -0.2546 -0.2903 -0.4236
 2794SOL    HW210948   5.753   5.017   0.193 -0.1997 -0.1671 -0.1466
 2794SOL    HW310949   5.854   5.014   0.080 -0.6345 -2.9585 -0.5353
 2794SOL    MW410950   5.836   5.014   0.165  0.5086 -0.0429 -0.1565
 2795SOL     OW10951   4.471   1.442   3.674 -0.1534  0.1150  0.7026
 2795SOL    HW210952   4.550   1.416   3.626 -0.7864 -0.4674 -0.0461
 2795SOL    HW310953   4.500   1.449   3.765  0.3538 -2.0270  0.7564
 2795SOL    MW410954   4.485   1.440   3.679  0.1683 -0.2317  0.4580
 2796SOL     OW10955   0.545   3.541   0.092  0.4945 -0.4297 -0.0108
 2796SOL    HW210956   0.608   3.614   0.098 -0.9879  1.0366 -1.3392
 2796SOL    HW310957   0.465   3.575   0.132  0.0206 -1.6645  0.1329
 2796SOL    MW410958   0.543   3.555   0.098 -0.1265  0.0552 -0.0808
 2797SOL     OW10959   0.675   1.403   1.411  0.9629  0.3086 -0.7216
 2797SOL    HW210960   0.589   1.441   1.396  0.9041  1.0431  1.2446
 2797SOL    HW310961   0.735   1.477   1.410  1.0358  0.3538  1.6985
 2797SOL    MW410962   0.672   1.418   1.409  0.2123  0.2117 -0.2077
 2798SOL     OW10963   5.305   2.368   4.609  0.1606  0.5290  0.1323
 2798SOL    HW210964   5.301   2.273   4.614  1.3765  0.4246 -0.5841
 2798SOL    HW310965   5.363   2.394   4.680 -2.3921  1.0050  2.1926
 2798SOL    MW410966   5.312   2.359   4.619  0.3985 -0.2645  0.0051
 2799SOL     OW10967   0.021   3.960   4.899  0.4590  0.3439  0.2286
 2799SOL    HW210968   0.006   4.043   4.946  1.2093 -0.0475  1.1977
 2799SOL    HW310969  -0.035   3.897   4.944  0.1443  0.2527 -0.2910
 2799SOL    MW410970   0.012   3.963   4.911  0.0603 -0.3626 -0.2082
 2800SOL     OW10971   2.508   4.395   0.403  0.2522 -0.0306 -0.1996
 2800SOL    HW210972   2.445   4.451   0.357  0.1343  0.7247  0.8431
 2800SOL    HW310973   2.515   4.433   0.491  1.7757 -0.4022 -0.1224
 2800SOL    MW410974   2.501   4.407   0.409  0.0705 -0.0814 -0.2867
 2801SOL     OW10975   2.129   2.416   2.068  0.5406  0.2898 -0.1236
 2801SOL    HW210976   2.045   2.457   2.086 -0.7856 -2.1808 -0.2780
 2801SOL    HW310977   2.146   2.360   2.144  0.3829 -1.7262 -1.4940
 2801SOL    MW410978   2.120   2.414   2.081  0.0028  0.1573  0.3818
 2802SOL     OW10979   5.761   2.774   2.930 -0.3584  0.0923 -0.3261
 2802SOL    HW210980   5.723   2.783   2.842 -1.8339 -0.4413  0.2133
 2802SOL    HW310981   5.708   2.833   2.984  0.2760  0.1118  0.2739
 2802SOL    MW410982   5.749   2.783   2.925  0.2244 -0.5063  0.3593
 2803SOL     OW10983   5.537   5.360   5.791 -0.3854  0.1908 -0.0488
 2803SOL    HW210984   5.515   5.272   5.759 -1.1329  0.9899 -1.9038
 2803SOL    HW310985   5.631   5.369   5.775  0.5044 -1.4386  3.3324
 2803SOL    MW410986   5.547   5.350   5.785  0.3640 -0.1879  0.2068
 2804SOL     OW10987   2.369   0.235   4.692 -0.1506 -0.7752 -0.1120
 2804SOL    HW210988   2.456   0.210   4.660 -0.0334  0.7463 -1.0624
 2804SOL    HW310989   2.386   0.303   4.757 -0.6426 -0.0683 -0.7130
 2804SOL    MW410990   2.383   0.241   4.696 -0.9743  0.1523 -0.2375
 2805SOL     OW10991   5.669   1.982   0.574  0.1213 -0.0941 -0.0176
 2805SOL    HW210992   5.596   2.025   0.620 -0.3393 -0.3377 -0.5112
 2805SOL    HW310993   5.635   1.896   0.550  1.0994 -0.8396  1.1328
 2805SOL    MW410994   5.655   1.976   0.577  0.4041 -0.6736 -0.0136
 2806SOL     OW10995   1.794   0.269   3.932  0.1104 -0.4210 -0.7262
 2806SOL    HW210996   1.746   0.305   3.857 -0.6968 -0.9724 -0.4861
 2806SOL    HW310997   1.850   0.341   3.961  0.2331 -0.1175 -1.6924
 2806SOL    MW410998   1.795   0.283   3.926 -0.2594 -0.3868  0.0865
 2807SOL     OW10999   4.071   6.251   2.630 -0.1491 -0.2426  0.8413
 2807SOL    HW211000   3.990   6.213   2.664 -0.1160 -1.0887  0.0138
 2807SOL    HW311001   4.105   6.303   2.703 -1.1685 -0.2791  1.3700
 2807SOL    MW411002   4.064   6.253   2.644  0.3100 -0.2290  0.4274
 2808SOL     OW11003   4.769   1.859   0.046  0.3052 -0.5179 -0.0688
 2808SOL    HW211004   4.859   1.832   0.063  0.5294 -0.7372 -1.5171
 2808SOL    HW311005   4.756   1.844  -0.047 -1.7587 -2.0017  0.3975
 2808SOL    MW411006   4.779   1.854   0.036  0.1833  0.2082  0.2490
 2809SOL     OW11007   5.705   0.599   3.019 -0.1060  0.0582 -0.5088
 2809SOL    HW211008   5.713   0.612   2.924  1.2700  0.8348 -0.2999
 2809SOL    HW311009   5.617   0.630   3.039 -0.7022 -0.7927 -1.6241
 2809SOL    MW411010   5.694   0.605   3.009 -0.0674  0.1561 -0.2077
 2810SOL     OW11011   5.517   4.485   4.560 -0.2638 -0.0372  0.0212
 2810SOL    HW211012   5.523   4.391   4.542 -1.4102 -0.7966  2.9754
 2810SOL    HW311013   5.573   4.498   4.637  0.6586  1.9457 -0.9083
 2810SOL    MW411014   5.525   4.474   4.568 -0.3029  0.2479  0.4853
 2811SOL     OW11015   0.955   3.278   3.440 -0.3721 -0.1143 -0.0707
 2811SOL    HW211016   1.013   3.296   3.513 -0.5941  1.9755 -0.3650
 2811SOL    HW311017   0.920   3.190   3.459  2.2848 -1.1589  0.4384
 2811SOL    MW411018   0.958   3.269   3.453  0.1796  0.2749  0.4786
 2812SOL     OW11019   4.491   1.850   4.666  0.3527  0.5953  0.9118
 2812SOL    HW211020   4.435   1.928   4.665 -1.4410 -0.6294  0.7833
 2812SOL    HW311021   4.541   1.855   4.585 -0.5749  1.0614  0.3495
 2812SOL    MW411022   4.490   1.861   4.655  0.5437  0.1290  0.2150
 2813SOL     OW11023   3.372   0.991   2.882 -0.0005  0.3131 -0.4113
 2813SOL    HW211024   3.458   0.955   2.861 -0.3511 -1.1588  0.5040
 2813SOL    HW311025   3.333   0.926   2.942 -1.7080  0.9847 -0.7443
 2813SOL    MW411026   3.379   0.977   2.887  0.7203 -0.2065  0.2014
 2814SOL     OW11027   1.796   0.909   0.662  0.4261 -0.0145  0.2759
 2814SOL    HW211028   1.709   0.882   0.691 -0.3613  0.4304 -1.5072
 2814SOL    HW311029   1.830   0.963   0.733 -1.1236  0.4978  0.6614
 2814SOL    MW411030   1.789   0.913   0.675  0.3719  0.6908 -1.1058
 2815SOL     OW11031   4.450   3.320   3.541  0.4540 -0.1084  0.7673
 2815SOL    HW211032   4.503   3.399   3.555  1.7017 -0.6312 -0.8034
 2815SOL    HW311033   4.437   3.284   3.629  1.9769  0.5143  1.2750
 2815SOL    MW411034   4.456   3.326   3.555  0.2054 -0.4804  0.0334
 2816SOL     OW11035   4.986   0.498   0.049 -0.2848 -0.0588  0.4212
 2816SOL    HW211036   5.051   0.461   0.110 -0.4271 -0.6786  0.2030
 2816SOL    HW311037   4.903   0.461   0.078 -0.4109 -0.0197  0.1119
 2816SOL    MW411038   4.984   0.488   0.061 -0.1805 -0.4128 -0.2669
 2817SOL     OW11039   1.736   4.551   2.456  0.1388  0.7240  0.1973
 2817SOL    HW211040   1.820   4.510   2.473 -0.2732 -0.0612  0.3819
 2817SOL    HW311041   1.679   4.521   2.527 -0.6330  0.2178 -0.5992
 2817SOL    MW411042   1.739   4.542   2.468 -0.4890  0.6536 -0.3703
 2818SOL     OW11043   4.603   0.583   1.930  0.0814  0.7819  0.4347
 2818SOL    HW211044   4.572   0.511   1.874  0.0236  0.7890  0.4573
 2818SOL    HW311045   4.565   0.662   1.891  0.4732  0.8424  0.1767
 2818SOL    MW411046   4.594   0.584   1.918  0.1330 -0.2285  0.4009
 2819SOL     OW11047   2.004   5.530   1.840  0.0090 -0.4017 -0.6858
 2819SOL    HW211048   1.993   5.528   1.745  1.4523 -1.2917 -0.8671
 2819SOL    HW311049   2.090   5.569   1.853 -0.2112 -0.2107  0.2789
 2819SOL    MW411050   2.014   5.535   1.829 -0.2752 -0.8138 -0.1845
 2820SOL     OW11051   0.283   0.169   4.932 -0.5420  0.6317  0.7375
 2820SOL    HW211052   0.367   0.207   4.958  0.3209 -0.1839 -0.7009
 2820SOL    HW311053   0.260   0.215   4.852 -0.9376  0.1393  0.5659
 2820SOL    MW411054   0.291   0.180   4.925  0.2518 -0.6382 -0.1920
 2821SOL     OW11055   4.326   2.499   5.719  0.0446 -0.3794  0.4058
 2821SOL    HW211056   4.366   2.531   5.800 -1.2510  0.0435  0.9085
 2821SOL    HW311057   4.282   2.418   5.745  1.0031 -1.1522 -0.2681
 2821SOL    MW411058   4.326   2.492   5.733  0.5784 -0.4125  0.3344
 2822SOL     OW11059   5.663   5.785   5.674  0.1154 -0.3864 -0.2331
 2822SOL    HW211060   5.589   5.751   5.624  1.4978 -1.9647 -1.3473
 2822SOL    HW311061   5.667   5.878   5.652 -1.8490 -0.1433  0.3181
 2822SOL    MW411062   5.654   5.793   5.664  0.1490  0.4627 -0.2911
 2823SOL     OW11063   5.748   6.042   5.993 -0.6785 -0.1781  0.1718
 2823SOL    HW211064   5.661   6.014   5.964 -0.0105 -0.5857 -1.5592
 2823SOL    HW311065   5.736   6.133   6.020 -1.6245 -0.2002 -0.1335
 2823SOL    MW411066   5.735   6.051   5.992 -0.6166  0.2705  0.1143
 2824SOL     OW11067   5.285   1.291   3.573 -0.6396  0.3466  0.5046
 2824SOL    HW211068   5.275   1.273   3.667 -0.9565  2.0711  0.8250
 2824SOL    HW311069   5.244   1.376   3.560  0.5850  0.7568 -0.9577
 2824SOL    MW411070   5.278   1.300   3.584  0.3605 -0.4165  0.1402
 2825SOL     OW11071   4.904   4.735   5.001 -0.1256 -0.6845  0.7227
 2825SOL    HW211072   4.945   4.798   5.059 -0.4711  0.1600  0.0650
 2825SOL    HW311073   4.915   4.771   4.913  1.7620 -2.6941  0.0533
 2825SOL    MW411074   4.911   4.748   4.997 -0.0391  0.1284  0.1554
 2826SOL     OW11075   6.155   0.782   5.797  0.5946 -0.0446 -0.0853
 2826SOL    HW211076   6.092   0.763   5.727 -0.3493 -1.2513  1.0415
 2826SOL    HW311077   6.230   0.726   5.777  0.3682 -0.3131 -0.1850
 2826SOL    MW411078   6.157   0.772   5.785  0.3748  0.3502 -0.1637
 2827SOL     OW11079   5.939   4.232   4.715 -0.1384 -0.5949 -0.0388
 2827SOL    HW211080   5.884   4.221   4.792  0.2174 -1.6772  0.0717
 2827SOL    HW311081   6.028   4.231   4.748  0.0946 -2.6040 -0.5804
 2827SOL    MW411082   5.943   4.231   4.729 -0.4811  0.0292  0.1807
 2828SOL     OW11083   4.482   1.325   1.296 -0.3348  0.2260 -0.1605
 2828SOL    HW211084   4.423   1.357   1.228 -0.3583 -0.3791 -0.4304
 2828SOL    HW311085   4.447   1.361   1.378  1.0679  3.0092 -0.6517
 2828SOL    MW411086   4.470   1.334   1.298  0.1154  0.6180  0.0070
 2829SOL     OW11087   5.160   2.633   6.335 -0.2810  0.3486 -0.1955
 2829SOL    HW211088   5.174   2.618   6.428  0.2904  0.4765 -0.2525
 2829SOL    HW311089   5.164   2.546   6.296 -1.9100  0.1357  0.0534
 2829SOL    MW411090   5.163   2.619   6.342 -0.2447 -0.1659 -0.7009
 2830SOL     OW11091   5.030   2.384   4.919 -0.1696  0.2098 -0.4707
 2830SOL    HW211092   5.040   2.418   4.830 -0.3160 -1.2689 -1.0691
 2830SOL    HW311093   4.970   2.446   4.961 -0.4016  0.7252 -1.5203
 2830SOL    MW411094   5.023   2.397   4.913  0.0336  0.1786  0.5439
 2831SOL     OW11095   4.581   5.093   4.378 -0.5048 -0.1206  1.2113
 2831SOL    HW211096   4.521   5.093   4.452 -0.0147 -1.9191  1.6644
 2831SOL    HW311097   4.658   5.140   4.409 -0.7513  0.1446  1.4302
 2831SOL    MW411098   4.583   5.099   4.392  0.0326  0.4581  0.3961
 2832SOL     OW11099   6.242   5.257   5.996  0.7300 -0.6244  0.3160
 2832SOL    HW211100   6.294   5.287   5.921 -2.2875  0.8551 -1.3412
 2832SOL    HW311101   6.197   5.179   5.965 -0.9237  0.2741  0.3367
 2832SOL    MW411102   6.243   5.251   5.982  0.3750  0.1671  0.6379
 2833SOL     OW11103   4.632   2.746   5.024  0.2266  0.1327  0.9665
 2833SOL    HW211104   4.638   2.840   5.009 -0.3933  0.3041  1.7201
 2833SOL    HW311105   4.556   2.718   4.972  1.9473 -0.4604 -1.4227
 2833SOL    MW411106   4.623   2.755   5.015 -0.5140  0.2209  0.0951
 2834SOL     OW11107   3.736   6.059   2.979 -0.0503  0.0725  0.9587
 2834SOL    HW211108   3.693   5.980   3.011 -0.7502 -0.7302 -1.7324
 2834SOL    HW311109   3.665   6.113   2.945  0.6887  0.3899 -0.1404
 2834SOL    MW411110   3.721   6.055   2.979  0.2703  0.3784 -0.3155
 2835SOL     OW11111   1.442   0.483   3.270 -0.0633  0.3786 -0.2271
 2835SOL    HW211112   1.536   0.498   3.261 -0.4509  2.1616 -2.1524
 2835SOL    HW311113   1.409   0.566   3.305 -0.7569 -0.8396  2.1761
 2835SOL    MW411114   1.450   0.496   3.274  0.5490 -0.1706 -0.1726
 2836SOL     OW11115   1.175   4.850   3.075 -0.2760 -0.3611  0.2007
 2836SOL    HW211116   1.095   4.823   3.120 -1.4032 -0.6657 -1.8378
 2836SOL    HW311117   1.194   4.937   3.108 -1.0364 -0.5787  1.2476
 2836SOL    MW411118   1.167   4.858   3.085  0.0257  0.9370 -0.0874
 2837SOL     OW11119   6.267   3.890   3.171  0.2287  0.0775 -0.1036
 2837SOL    HW211120   6.208   3.853   3.105  1.1620 -0.4519 -0.6575
 2837SOL    HW311121   6.352   3.894   3.129  0.2909  2.4637  0.1071
 2837SOL    MW411122   6.271   3.885   3.157  0.4435  0.4565  0.1294
 2838SOL     OW11123   4.512   5.525   0.440  0.1804 -0.0791  0.2004
 2838SOL    HW211124   4.562   5.604   0.420  0.9670 -0.8088 -0.8372
 2838SOL    HW311125   4.564   5.478   0.505  3.3044 -2.9373 -3.8164
 2838SOL    MW411126   4.525   5.529   0.446 -0.2660 -0.0086  0.0710
 2839SOL     OW11127   6.174   2.178   3.064  0.5138 -0.2396 -0.1103
 2839SOL    HW211128   6.210   2.186   3.152 -2.0709  0.4924  0.9522
 2839SOL    HW311129   6.082   2.204   3.072 -0.2682 -1.7915 -2.6917
 2839SOL    MW411130   6.167   2.182   3.077  0.1863  1.2210  0.2995
 2840SOL     OW11131   3.315   3.397   6.175 -0.5949 -0.2576 -0.7136
 2840SOL    HW211132   3.246   3.455   6.207  0.5462 -0.1658  1.8720
 2840SOL    HW311133   3.269   3.317   6.149 -2.1847  1.5898 -4.2747
 2840SOL    MW411134   3.300   3.394   6.176 -0.1136 -0.0264 -0.0573
 2841SOL     OW11135   4.165   5.584   4.588  0.2694  0.2498 -0.1135
 2841SOL    HW211136   4.108   5.510   4.569 -1.0079  0.6853  1.7405
 2841SOL    HW311137   4.174   5.630   4.505 -0.0230 -1.2173 -0.9936
 2841SOL    MW411138   4.159   5.581   4.575  0.3398  0.7077 -0.0124
 2842SOL     OW11139   1.972   5.469   1.301 -0.4469  0.3409 -0.9314
 2842SOL    HW211140   2.057   5.484   1.259 -1.5733  1.1622 -3.0366
 2842SOL    HW311141   1.982   5.384   1.345  2.0181  1.2495  0.4748
 2842SOL    MW411142   1.985   5.460   1.301  0.2263  0.0473  0.0318
 2843SOL     OW11143   0.986   1.136   4.912 -0.8338  0.1656  0.1306
 2843SOL    HW211144   1.035   1.089   4.980 -0.8711 -0.0208  0.0287
 2843SOL    HW311145   0.992   1.079   4.835  1.1639  1.4072 -0.7020
 2843SOL    MW411146   0.993   1.122   4.911 -0.1071 -0.1829  0.4175
 2844SOL     OW11147   1.167   4.052   4.820 -0.5456  0.2618  0.1762
 2844SOL    HW211148   1.223   4.084   4.749 -0.5060  0.3763  0.2590
 2844SOL    HW311149   1.120   4.130   4.850  1.2331  0.7413  1.9296
 2844SOL    MW411150   1.168   4.067   4.815  0.3471  0.7117  0.3321
 2845SOL     OW11151   4.422   2.487   5.310  0.1705  0.4806 -0.5056
 2845SOL    HW211152   4.468   2.438   5.243 -2.3049 -0.9273 -1.3168
 2845SOL    HW311153   4.391   2.566   5.265  0.6143  0.7541 -0.3344
 2845SOL    MW411154   4.424   2.491   5.295 -0.1022 -0.4771  0.7596
 2846SOL     OW11155   3.915   2.684   5.797 -0.2145  0.1751 -0.4407
 2846SOL    HW211156   3.848   2.657   5.735 -1.1342  0.5810  0.3483
 2846SOL    HW311157   3.934   2.605   5.848 -0.1003  0.0586 -0.6662
 2846SOL    MW411158   3.909   2.670   5.796  0.9431 -0.2574 -0.0628
 2847SOL     OW11159   1.825   1.918   0.907  0.5658  0.4025 -0.8738
 2847SOL    HW211160   1.849   1.993   0.853  1.8273  0.4529 -0.2901
 2847SOL    HW311161   1.735   1.897   0.882  0.0593  2.3162 -0.8029
 2847SOL    MW411162   1.817   1.925   0.897  0.2500 -0.7533  0.0859
 2848SOL     OW11163   3.946   0.623   0.360  0.1990  0.0140  0.0979
 2848SOL    HW211164   3.851   0.633   0.371 -0.0446  1.8815 -2.6444
 2848SOL    HW311165   3.977   0.711   0.339  2.4024 -0.7504 -0.1174
 2848SOL    MW411166   3.938   0.636   0.359  0.5888 -0.1628  0.0563
 2849SOL     OW11167   2.932   3.787   2.855 -0.5926  0.3138  0.1176
 2849SOL    HW211168   2.916   3.809   2.763 -2.5622 -0.2877  0.2730
 2849SOL    HW311169   2.940   3.692   2.855  1.7794  0.4483  0.2937
 2849SOL    MW411170   2.931   3.777   2.843 -0.5891 -0.3681  0.0379
 2850SOL     OW11171   0.240   3.607   1.825  0.4478  0.3314 -0.1568
 2850SOL    HW211172   0.212   3.696   1.845 -0.7692 -0.0002 -0.2618
 2850SOL    HW311173   0.267   3.570   1.909 -0.1497  0.4418  0.0927
 2850SOL    MW411174   0.240   3.614   1.839  0.0975  0.0976 -0.3163
 2851SOL     OW11175   0.754   0.498   0.695  0.8569 -0.1497 -0.2108
 2851SOL    HW211176   0.763   0.429   0.629 -0.3179 -0.7044  0.1746
 2851SOL    HW311177   0.710   0.454   0.768  0.9300  0.7909  0.4021
 2851SOL    MW411178   0.749   0.483   0.696  0.0623 -0.2161 -0.3790
 2852SOL     OW11179   2.966   3.871   5.998 -0.3866 -0.7186  0.2408
 2852SOL    HW211180   3.041   3.876   5.939 -0.6551 -3.2897 -0.4651
 2852SOL    HW311181   3.003   3.873   6.085  0.4261 -0.9072 -0.0929
 2852SOL    MW411182   2.981   3.872   6.001 -0.2004 -0.3512  0.0076
 2853SOL     OW11183   3.952   4.376   5.181 -0.4935  0.3733  0.0900
 2853SOL    HW211184   3.974   4.441   5.114  0.0544  0.2893  0.1882
 2853SOL    HW311185   4.025   4.379   5.242  0.1624 -1.2526 -0.5783
 2853SOL    MW411186   3.964   4.385   5.180  0.1759  0.1340 -0.5167
 2854SOL     OW11187   3.264   4.598   6.233 -0.5367  0.0350 -0.1594
 2854SOL    HW211188   3.211   4.660   6.183  0.7378 -0.2872 -2.0006
 2854SOL    HW311189   3.254   4.515   6.187  0.0385 -0.4602  0.5913
 2854SOL    MW411190   3.256   4.595   6.220 -0.2514  0.1256  0.5206
 2855SOL     OW11191   5.232   3.092   0.098 -0.2914  0.3286  0.3377
 2855SOL    HW211192   5.150   3.049   0.123 -1.0095  1.9716  1.0273
 2855SOL    HW311193   5.268   3.125   0.181  1.5451 -1.0849  0.1637
 2855SOL    MW411194   5.226   3.091   0.112 -0.5221  0.2789  0.1805
 2856SOL     OW11195   4.174   3.291   2.414  0.2177 -0.1049  0.4477
 2856SOL    HW211196   4.157   3.303   2.507 -0.6644  2.0452  0.0825
 2856SOL    HW311197   4.096   3.246   2.381  0.2437 -0.2977  0.6509
 2856SOL    MW411198   4.161   3.287   2.422 -0.2216 -0.2956 -0.3145
 2857SOL     OW11199   4.037   0.316   2.798  0.2399  0.7031  0.4150
 2857SOL    HW211200   3.964   0.350   2.746 -0.8252 -1.9890  0.0097
 2857SOL    HW311201   4.114   0.331   2.743 -0.4026  0.9664 -0.4352
 2857SOL    MW411202   4.038   0.323   2.784 -0.3769 -0.4106 -0.2020
 2858SOL     OW11203   5.870   3.582   0.385 -0.0099 -0.3919  0.2510
 2858SOL    HW211204   5.920   3.559   0.307 -0.7310  1.1548 -0.7210
 2858SOL    HW311205   5.929   3.638   0.436  1.1738 -2.9177  1.8487
 2858SOL    MW411206   5.884   3.586   0.382 -0.0045  0.0096  0.4688
 2859SOL     OW11207   0.553   0.258   5.005  0.5803  0.1552 -0.3973
 2859SOL    HW211208   0.561   0.267   5.100  4.0538  1.1906 -0.6382
 2859SOL    HW311209   0.614   0.189   4.982  0.9756  0.9740 -1.9916
 2859SOL    MW411210   0.562   0.250   5.014 -0.1247  0.5635  0.3465
 2860SOL     OW11211   5.409   2.772   0.039  0.0272  0.0110 -0.3087
 2860SOL    HW211212   5.324   2.770  -0.006  0.6623  1.5693 -1.7090
 2860SOL    HW311213   5.466   2.720  -0.017  0.3223  0.1206 -0.1092
 2860SOL    MW411214   5.405   2.765   0.025 -0.6912  0.1382  0.3549
 2861SOL     OW11215   6.012   4.435   4.079 -0.2380 -0.1758 -0.0994
 2861SOL    HW211216   6.049   4.429   3.991 -0.5456 -2.2676 -0.1555
 2861SOL    HW311217   5.946   4.504   4.074  0.6700  0.6406 -1.1367
 2861SOL    MW411218   6.008   4.443   4.067 -1.0503 -0.1156  0.0116
 2862SOL     OW11219   5.634   2.798   4.612  0.0720 -0.5287  0.0237
 2862SOL    HW211220   5.574   2.764   4.545  0.8755 -2.9953  0.4739
 2862SOL    HW311221   5.618   2.743   4.688  0.4846  1.0528  1.2963
 2862SOL    MW411222   5.624   2.786   4.613  0.4674  0.0477 -0.4927
 2863SOL     OW11223   5.808   5.664   4.542 -0.6037  0.6456 -0.0286
 2863SOL    HW211224   5.807   5.654   4.447  1.2691 -0.8983  0.0448
 2863SOL    HW311225   5.843   5.581   4.575  0.1785  1.6696  1.9074
 2863SOL    MW411226   5.813   5.652   4.534 -0.2179 -0.2094 -0.1041
 2864SOL     OW11227   3.645   5.987   2.644 -0.5622  0.4713 -0.5858
 2864SOL    HW211228   3.610   5.983   2.555 -0.0517 -2.3611 -0.7647
 2864SOL    HW311229   3.580   5.942   2.697 -0.2242  0.9440  0.2487
 2864SOL    MW411230   3.632   5.980   2.639 -0.5054  0.2594 -0.3208
 2865SOL     OW11231   6.296   1.523   0.060 -0.4451 -0.5814  0.2432
 2865SOL    HW211232   6.271   1.550  -0.029 -0.0767 -0.3049  0.2221
 2865SOL    HW311233   6.390   1.505   0.054  0.6365  3.5787  1.5290
 2865SOL    MW411234   6.305   1.524   0.047 -0.3659 -0.3101 -0.4924
 2866SOL     OW11235   0.144   5.869   0.559  0.1906  0.1533  0.1034
 2866SOL    HW211236   0.221   5.924   0.547 -0.8510  1.4906 -0.7470
 2866SOL    HW311237   0.142   5.813   0.481  0.7424 -0.4897  0.5334
 2866SOL    MW411238   0.154   5.869   0.547  0.3254 -0.4841 -0.1295
 2867SOL     OW11239   5.751   3.536   5.200 -0.0162  0.3679  0.2976
 2867SOL    HW211240   5.733   3.625   5.168  1.0982 -0.1494 -1.9030
 2867SOL    HW311241   5.665   3.498   5.214 -0.5697  0.8203 -1.6362
 2867SOL    MW411242   5.737   3.543   5.198  0.1449 -0.2123 -0.1563
 2868SOL     OW11243   4.411   1.513   2.304  0.1593 -0.2759  0.6358
 2868SOL    HW211244   4.391   1.596   2.261  0.2407  1.0064  2.9099
 2868SOL    HW311245   4.327   1.483   2.339  0.0691 -1.3608 -0.4404
 2868SOL    MW411246   4.397   1.520   2.303  0.0647 -0.2514 -0.0973
 2869SOL     OW11247   0.458   1.339   3.537  0.0834  0.2896  0.0341
 2869SOL    HW211248   0.548   1.355   3.564  0.0997  0.8072 -0.3118
 2869SOL    HW311249   0.426   1.273   3.598  0.8952 -0.3726 -0.2326
 2869SOL    MW411250   0.466   1.332   3.549 -0.7936  0.1984  0.4078
 2870SOL     OW11251   4.890   0.110   1.729 -0.2992  0.0452 -0.0188
 2870SOL    HW211252   4.812   0.056   1.729 -1.9175  2.1510 -2.9682
 2870SOL    HW311253   4.904   0.134   1.638  1.7379  2.5670  0.8125
 2870SOL    MW411254   4.882   0.106   1.717 -0.0941  0.3337  0.1903
 2871SOL     OW11255   2.629   5.785   3.600  0.4568 -0.0137  0.0318
 2871SOL    HW211256   2.716   5.745   3.600  0.9975  1.0898  0.8646
 2871SOL    HW311257   2.571   5.718   3.564  1.4736 -1.1710  0.4871
 2871SOL    MW411258   2.633   5.771   3.596 -0.0773 -0.0160 -0.7780
 2872SOL     OW11259   2.815   4.031   2.982 -0.0545 -0.5905 -0.6517
 2872SOL    HW211260   2.788   4.082   2.906  1.0701  0.9624 -0.0697
 2872SOL    HW311261   2.865   3.959   2.946  1.9646  1.0741 -1.3997
 2872SOL    MW411262   2.818   4.029   2.967  0.1375 -0.5087 -0.2821
 2873SOL     OW11263   3.515   6.422   0.594  0.8131 -0.3855 -0.0290
 2873SOL    HW211264   3.552   6.478   0.526  2.2697  1.2600  1.9859
 2873SOL    HW311265   3.457   6.362   0.547  0.0950  2.0358 -2.4597
 2873SOL    MW411266   3.512   6.421   0.579  0.8106 -0.3551 -0.0999
 2874SOL     OW11267   1.683   0.565   3.489 -0.3712  0.1875 -0.2179
 2874SOL    HW211268   1.735   0.526   3.419 -0.1535  0.0493  0.0171
 2874SOL    HW311269   1.744   0.624   3.534 -0.6665  0.7121 -0.5012
 2874SOL    MW411270   1.698   0.568   3.486 -0.0309  0.0102 -0.6817
 2875SOL     OW11271   4.105   2.807   0.173 -0.1724  0.3275 -0.1138
 2875SOL    HW211272   4.071   2.806   0.262 -0.7431  3.7459 -0.1905
 2875SOL    HW311273   4.033   2.773   0.119 -1.2302  1.6974  0.3887
 2875SOL    MW411274   4.091   2.802   0.177 -0.2525  0.5627 -0.1039
 2876SOL     OW11275   5.443   3.978   4.034 -0.0159 -0.6712 -0.3346
 2876SOL    HW211276   5.428   3.967   4.128  0.0384  1.5435 -0.0272
 2876SOL    HW311277   5.534   4.007   4.026 -0.8894  2.3014 -0.7171
 2876SOL    MW411278   5.453   3.980   4.045  0.1024 -0.1445 -0.0821
 2877SOL     OW11279   1.448   1.443   2.432  0.7284 -0.0671 -0.7975
 2877SOL    HW211280   1.404   1.491   2.362  1.8191  2.8026  0.3086
 2877SOL    HW311281   1.540   1.440   2.404  1.2392  1.4083  0.5477
 2877SOL    MW411282   1.455   1.449   2.419 -0.1652  0.2923  0.0739
 2878SOL     OW11283   2.685   1.445   0.877  0.0585  0.0849 -0.2911
 2878SOL    HW211284   2.699   1.540   0.881  0.8115  0.0679 -1.8666
 2878SOL    HW311285   2.770   1.409   0.853 -0.5987 -0.8383 -1.3252
 2878SOL    MW411286   2.698   1.453   0.875  0.1605  0.2459  0.0553
 2879SOL     OW11287   5.034   0.222   1.249 -0.1177 -0.1539 -0.1491
 2879SOL    HW211288   5.105   0.159   1.260 -1.2724 -1.5995 -0.6012
 2879SOL    HW311289   4.994   0.198   1.166 -0.1067  1.7267 -0.7430
 2879SOL    MW411290   5.038   0.211   1.239  0.5094 -0.0897  0.1700
 2880SOL     OW11291   5.231   1.975   5.822  0.1097  0.5200  0.9514
 2880SOL    HW211292   5.301   2.002   5.881 -0.4985  0.1262  1.8818
 2880SOL    HW311293   5.152   2.016   5.858 -0.5829 -1.2114  1.5203
 2880SOL    MW411294   5.230   1.984   5.835  0.2138  0.3113  0.1695
 2881SOL     OW11295   5.424   3.337   2.629 -0.2876  0.3827 -0.3346
 2881SOL    HW211296   5.511   3.364   2.601 -0.4101  1.1554  0.0065
 2881SOL    HW311297   5.422   3.242   2.615 -0.0424  0.6147 -2.0700
 2881SOL    MW411298   5.435   3.328   2.624 -0.1037  0.3702 -0.9674
 2882SOL     OW11299   1.500   0.772   6.247  0.0055 -0.2420  0.4900
 2882SOL    HW211300   1.463   0.761   6.334 -1.0209 -0.6151  0.0194
 2882SOL    HW311301   1.521   0.865   6.241 -1.2512  0.0658  0.6176
 2882SOL    MW411302   1.498   0.783   6.258 -0.1938  0.4068 -0.1996
 2883SOL     OW11303   2.827   0.916   1.886  0.1808  0.0331 -0.1378
 2883SOL    HW211304   2.888   0.892   1.955  0.2312 -0.4565 -0.3538
 2883SOL    HW311305   2.769   0.981   1.927  1.5918  1.4475 -0.2855
 2883SOL    MW411306   2.827   0.921   1.901 -0.0840  0.8655 -0.1150
 2884SOL     OW11307   1.579   5.355   3.962  0.8877  0.4675 -0.1289
 2884SOL    HW211308   1.502   5.377   4.014  1.8825  0.1907  1.5609
 2884SOL    HW311309   1.634   5.434   3.965  0.8090  0.5634 -1.0584
 2884SOL    MW411310   1.576   5.368   3.969 -0.1128 -0.2099 -0.4019
 2885SOL     OW11311   0.081   0.909   3.241  0.5515 -0.2669 -0.2818
 2885SOL    HW211312   0.071   0.819   3.273  1.2109 -0.3037 -0.1579
 2885SOL    HW311313   0.175   0.927   3.249  0.3665  0.5842  0.0872
 2885SOL    MW411314   0.092   0.899   3.246  0.1000  0.5891 -0.1960
 2886SOL     OW11315   1.778   2.261   4.276 -0.1776  0.0928  0.0169
 2886SOL    HW211316   1.761   2.323   4.347 -2.9354 -1.3997  0.8027
 2886SOL    HW311317   1.766   2.175   4.317  0.2140 -0.8721 -1.8185
 2886SOL    MW411318   1.775   2.258   4.291 -0.0351  0.2278  0.5646
 2887SOL     OW11319   3.544   0.348   3.988  0.0901  0.4533  0.4845
 2887SOL    HW211320   3.624   0.367   4.037  0.2844 -0.9919  0.7650
 2887SOL    HW311321   3.553   0.257   3.960  0.1075  1.2417 -2.4969
 2887SOL    MW411322   3.555   0.339   3.991 -0.1919  0.2817 -0.2783
 2888SOL     OW11323   1.227   2.046   4.466  0.0099  0.7039  0.3169
 2888SOL    HW211324   1.240   2.047   4.561  1.0282 -0.5037  0.2228
 2888SOL    HW311325   1.315   2.055   4.430 -0.4949  2.5719 -0.5645
 2888SOL    MW411326   1.241   2.047   4.474  0.3146 -0.2242 -0.4074
 2889SOL     OW11327   0.011   1.260   6.087 -0.2016 -0.2853 -0.0168
 2889SOL    HW211328  -0.058   1.222   6.141 -1.0691 -2.1859 -2.2760
 2889SOL    HW311329   0.017   1.202   6.011 -0.4114  3.1792 -2.9617
 2889SOL    MW411330   0.003   1.247   6.084 -0.3240 -0.0700  0.0492
 2890SOL     OW11331   0.476   6.052   4.852  0.4497  0.7327  0.7420
 2890SOL    HW211332   0.425   6.026   4.775 -0.0638 -0.4420  1.4393
 2890SOL    HW311333   0.565   6.065   4.819  0.2406  0.2205 -0.0559
 2890SOL    MW411334   0.481   6.050   4.838 -0.0908  0.3189  0.7331
 2891SOL     OW11335   3.672   0.724   3.111  0.5911  0.5540 -0.1748
 2891SOL    HW211336   3.710   0.784   3.047  1.8217  1.2220  1.1309
 2891SOL    HW311337   3.604   0.677   3.062  0.8609  1.6812 -1.7141
 2891SOL    MW411338   3.668   0.726   3.096 -0.7736 -0.7308  0.7704
 2892SOL     OW11339   3.466   1.780   4.976  0.0727  0.3208 -0.3872
 2892SOL    HW211340   3.472   1.786   4.881 -1.3520  1.4747 -0.4521
 2892SOL    HW311341   3.550   1.813   5.009  0.9917 -1.1009 -1.2345
 2892SOL    MW411342   3.478   1.785   4.968 -0.0999  0.3111 -0.1383
 2893SOL     OW11343   2.847   1.163   3.317  0.2949  0.2327  0.3959
 2893SOL    HW211344   2.841   1.243   3.369 -0.0439 -1.2655  2.7919
 2893SOL    HW311345   2.927   1.120   3.347 -1.6822 -2.3895  2.4379
 2893SOL    MW411346   2.857   1.168   3.328 -0.1929  0.3856 -0.6459
 2894SOL     OW11347   2.438   1.117   3.264 -0.8144 -0.3942  0.1533
 2894SOL    HW211348   2.470   1.145   3.351  0.5129 -0.6531 -0.2281
 2894SOL    HW311349   2.496   1.046   3.239 -0.7635  0.1083 -1.2413
 2894SOL    MW411350   2.450   1.112   3.272 -0.0172  0.6143 -0.3487
 2895SOL     OW11351   4.296   3.697   5.178 -0.3639 -1.0497  0.2433
 2895SOL    HW211352   4.301   3.647   5.096  0.3580  0.6053 -0.7725
 2895SOL    HW311353   4.203   3.715   5.189 -0.2940  0.9540 -1.7056
 2895SOL    MW411354   4.284   3.693   5.169  0.1537  0.0027  0.5657
 2896SOL     OW11355   1.986   0.180   6.269 -0.7753  0.0782 -0.4361
 2896SOL    HW211356   1.933   0.177   6.349 -2.4341  0.0962 -1.4828
 2896SOL    HW311357   2.044   0.104   6.276  0.7196  1.2961  1.7778
 2896SOL    MW411358   1.987   0.169   6.280 -0.4075  0.5913 -0.3746
 2897SOL     OW11359   1.945   3.790   1.255  1.3200 -0.1841  0.6517
 2897SOL    HW211360   1.899   3.804   1.338 -0.3897  2.4868 -0.6023
 2897SOL    HW311361   1.892   3.726   1.208  0.7595  0.3347  0.5692
 2897SOL    MW411362   1.932   3.784   1.259 -0.3139 -0.2061  0.6693
 2898SOL     OW11363   4.151   5.227   3.620 -0.3720 -0.5620  0.2654
 2898SOL    HW211364   4.111   5.157   3.569 -0.8399  0.6675 -1.1412
 2898SOL    HW311365   4.082   5.256   3.679 -0.2731 -1.0757  0.6377
 2898SOL    MW411366   4.136   5.222   3.621  0.0515 -0.0326 -0.2011
 2899SOL     OW11367   6.403   2.489   3.289 -0.0625 -0.1606  0.4466
 2899SOL    HW211368   6.478   2.486   3.348  0.1592  0.1696  0.1902
 2899SOL    HW311369   6.345   2.554   3.327  1.1552  1.8440 -0.9091
 2899SOL    MW411370   6.405   2.497   3.302  0.5180 -0.1158  0.2423
 2900SOL     OW11371   0.037   2.700   1.263 -0.1289  0.3115 -0.3923
 2900SOL    HW211372   0.063   2.766   1.198 -1.7516  1.5776  0.1903
 2900SOL    HW311373   0.028   2.619   1.212 -2.6062  1.5271 -2.1106
 2900SOL    MW411374   0.039   2.698   1.247  0.2760  0.3634  0.5227
 2901SOL     OW11375   2.857   0.421   0.440 -0.1045 -0.7639 -0.0213
 2901SOL    HW211376   2.769   0.397   0.469  0.1458 -1.1531  0.4298
 2901SOL    HW311377   2.912   0.411   0.518  0.4174 -0.9681 -0.4086
 2901SOL    MW411378   2.853   0.416   0.454 -0.2651 -0.2653 -0.0801
 2902SOL     OW11379   0.862   5.584   4.800  0.8117 -0.0745 -0.2558
 2902SOL    HW211380   0.852   5.612   4.891 -0.4477 -1.2962  0.0045
 2902SOL    HW311381   0.877   5.666   4.752 -1.4757  0.9624  0.6467
 2902SOL    MW411382   0.863   5.599   4.806  0.0677 -0.4153  0.1901
 2903SOL     OW11383   1.463   2.706   1.964  0.3862 -0.1470  0.3176
 2903SOL    HW211384   1.481   2.639   1.899 -0.4579 -0.1371  0.0696
 2903SOL    HW311385   1.431   2.781   1.914  0.9136  0.2965  0.6318
 2903SOL    MW411386   1.461   2.707   1.949  0.0685 -0.4350  0.2496
 2904SOL     OW11387   3.056   6.360   4.177 -0.0996 -0.5328 -0.2525
 2904SOL    HW211388   3.086   6.270   4.163 -1.5654 -0.9041 -1.2583
 2904SOL    HW311389   3.126   6.415   4.142  1.2771 -1.2282  1.2928
 2904SOL    MW411390   3.069   6.355   4.171  0.2582 -0.6362  0.2501
 2905SOL     OW11391   3.533   3.775   0.528  0.0469  0.0029 -0.0375
 2905SOL    HW211392   3.567   3.848   0.579  0.8356 -0.4198  0.0580
 2905SOL    HW311393   3.450   3.807   0.493  0.4565  0.9980 -0.1387
 2905SOL    MW411394   3.526   3.789   0.530  0.1570  0.1311 -0.1381
 2906SOL     OW11395   0.671   4.651   1.656 -0.0372 -0.8461  0.0901
 2906SOL    HW211396   0.736   4.645   1.585  0.4735 -2.2277  0.6318
 2906SOL    HW311397   0.651   4.744   1.663  0.3574 -0.6178 -1.4637
 2906SOL    MW411398   0.677   4.662   1.647  0.0683  0.2317  0.2441
 2907SOL     OW11399   1.077   1.438   5.108  0.3972  0.3435  0.0328
 2907SOL    HW211400   1.008   1.477   5.163  1.1184  0.9621  0.5174
 2907SOL    HW311401   1.033   1.417   5.026 -0.6818 -0.5036  0.8027
 2907SOL    MW411402   1.062   1.441   5.105 -0.0318  0.1179  0.2715
 2908SOL     OW11403   0.468   5.761   4.201 -0.2591 -0.0229  0.7382
 2908SOL    HW211404   0.517   5.793   4.125 -1.7094 -0.1087 -0.2769
 2908SOL    HW311405   0.472   5.834   4.263 -0.8338  0.9211 -0.2852
 2908SOL    MW411406   0.475   5.775   4.199  0.0442  0.6950  0.4662
 2909SOL     OW11407   4.903   1.560   0.596  0.3519 -0.5429  0.6469
 2909SOL    HW211408   4.991   1.594   0.617 -0.8156  1.9974  1.8502
 2909SOL    HW311409   4.893   1.579   0.502  0.2754  1.3218  0.9853
 2909SOL    MW411410   4.914   1.567   0.586 -0.6195  0.2222  0.2238
 2910SOL     OW11411   2.308   1.224   2.153 -0.2329 -0.5588 -0.3773
 2910SOL    HW211412   2.342   1.252   2.068 -2.2242  1.4966 -0.5799
 2910SOL    HW311413   2.304   1.305   2.205  1.5366 -1.8431  1.9645
 2910SOL    MW411414   2.312   1.238   2.149  0.0809 -0.2007 -0.6261
 2911SOL     OW11415   5.836   4.506   4.922 -0.0063  0.5599  0.4558
 2911SOL    HW211416   5.794   4.528   4.839  0.7841 -1.6375 -0.6004
 2911SOL    HW311417   5.905   4.572   4.932  0.3195  0.4675 -0.9942
 2911SOL    MW411418   5.840   4.518   4.912 -0.5999 -0.2815 -0.0963
 2912SOL     OW11419   5.702   3.629   1.908 -0.3356 -0.0423  0.5544
 2912SOL    HW211420   5.752   3.681   1.845 -1.4345 -0.5609 -0.7998
 2912SOL    HW311421   5.739   3.541   1.900 -0.4660 -0.1054  0.6476
 2912SOL    MW411422   5.714   3.624   1.899  0.1868  0.1153  0.6772
 2913SOL     OW11423   2.041   1.551   1.644 -1.1850 -0.3562  0.3754
 2913SOL    HW211424   2.058   1.643   1.664  0.7615 -0.5953  0.0769
 2913SOL    HW311425   1.946   1.543   1.643 -1.4070  1.7586 -0.0753
 2913SOL    MW411426   2.031   1.562   1.646  0.5812  0.2803  0.9451
 2914SOL     OW11427   0.210   3.608   5.664  0.3286  0.2716  0.4090
 2914SOL    HW211428   0.233   3.666   5.592 -1.2012  1.0164  0.4983
 2914SOL    HW311429   0.115   3.612   5.670  0.3493 -0.5421  1.8375
 2914SOL    MW411430   0.201   3.616   5.655 -0.0406 -0.4951  0.1755
 2915SOL     OW11431   1.682   0.494   5.945  0.6633  0.0210  0.0520
 2915SOL    HW211432   1.689   0.399   5.951  1.0901 -0.1023 -1.9567
 2915SOL    HW311433   1.591   0.510   5.922  0.5450  0.1233  0.5772
 2915SOL    MW411434   1.671   0.484   5.943  0.0172 -0.2604  0.0483
 2916SOL     OW11435   3.553   2.490   3.504  0.0408 -0.2107  0.6711
 2916SOL    HW211436   3.466   2.529   3.494  0.1575 -0.4168 -1.4159
 2916SOL    HW311437   3.536   2.400   3.532 -0.3183  0.3048  2.2246
 2916SOL    MW411438   3.540   2.483   3.507 -0.1446 -0.4547  0.0732
 2917SOL     OW11439   3.381   2.976   2.601 -0.6065  0.4027  0.7681
 2917SOL    HW211440   3.336   3.010   2.523  0.4251 -2.5990 -1.3211
 2917SOL    HW311441   3.359   2.883   2.602  0.4786  0.0966  3.3988
 2917SOL    MW411442   3.372   2.968   2.591  0.1981 -0.9441  0.1685
 2918SOL     OW11443   1.107   3.187   0.515  0.0550  0.0804 -0.0380
 2918SOL    HW211444   1.059   3.215   0.593  0.0024 -2.6064  0.9876
 2918SOL    HW311445   1.198   3.211   0.533 -0.0922  0.3128  0.4191
 2918SOL    MW411446   1.113   3.194   0.528 -0.6325 -0.2758  0.0139
 2919SOL     OW11447   4.019   0.403   1.859 -0.3845  0.3080  0.8296
 2919SOL    HW211448   4.013   0.314   1.825 -1.3511  1.0626 -1.1472
 2919SOL    HW311449   4.109   0.411   1.891  0.0342 -1.0299  0.0548
 2919SOL    MW411450   4.030   0.393   1.859  0.0827  0.1176 -0.0329
 2920SOL     OW11451   0.330   3.193   1.048  0.1669  0.2979 -0.2762
 2920SOL    HW211452   0.274   3.162   1.119 -0.2242  2.0933  0.2595
 2920SOL    HW311453   0.284   3.271   1.015  1.1278  0.3789 -1.4656
 2920SOL    MW411454   0.316   3.199   1.053  0.1619 -0.5868 -0.0828
 2921SOL     OW11455   1.485   6.153   1.981 -0.7148 -0.6558 -0.1276
 2921SOL    HW211456   1.506   6.232   2.031 -0.2658 -1.7956  1.5925
 2921SOL    HW311457   1.565   6.132   1.933 -1.0415  0.2661 -1.1069
 2921SOL    MW411458   1.498   6.161   1.981  0.2568  0.1837 -0.6749
 2922SOL     OW11459   1.073   4.310   4.922  0.1421 -0.1835  0.0367
 2922SOL    HW211460   1.028   4.304   5.007  0.0305 -0.3057 -0.0296
 2922SOL    HW311461   1.011   4.356   4.865  0.1027 -0.3454 -0.0526
 2922SOL    MW411462   1.059   4.315   4.926  0.1322  0.2401 -0.5475
 2923SOL     OW11463   4.743   0.639   6.118 -0.5268 -0.2624 -0.1711
 2923SOL    HW211464   4.767   0.730   6.136 -1.0317  0.5224 -3.0167
 2923SOL    HW311465   4.650   0.643   6.095 -0.7861 -1.6650  0.5089
 2923SOL    MW411466   4.734   0.651   6.118  0.5420 -0.2362  0.3241
 2924SOL     OW11467   3.918   4.650   1.733  0.5461 -0.3038  0.0574
 2924SOL    HW211468   3.924   4.593   1.656 -1.9044  0.8167 -1.0962
 2924SOL    HW311469   3.945   4.736   1.701  0.4768 -0.0307  0.7232
 2924SOL    MW411470   3.922   4.654   1.718  0.3708 -0.3728 -0.0971
 2925SOL     OW11471   4.346   6.106   4.742  0.2334 -0.0238  0.1618
 2925SOL    HW211472   4.441   6.119   4.747  0.5324 -2.0016  0.6913
 2925SOL    HW311473   4.312   6.190   4.713  2.3456  0.1545 -2.1475
 2925SOL    MW411474   4.354   6.119   4.739 -0.7407 -0.0971 -0.3682
 2926SOL     OW11475   1.027   3.656   2.350 -0.8420  0.1167  0.2029
 2926SOL    HW211476   0.983   3.660   2.435  1.1527 -3.1932  1.6284
 2926SOL    HW311477   1.117   3.682   2.369  0.3602 -3.3244 -0.0898
 2926SOL    MW411478   1.033   3.660   2.364 -0.7083  0.3968 -0.5463
 2927SOL     OW11479   0.954   6.295   3.923 -0.6780  0.5098  0.1361
 2927SOL    HW211480   1.019   6.343   3.872 -0.4093 -0.1366 -0.1336
 2927SOL    HW311481   0.879   6.354   3.927  1.5100  3.5722  4.6630
 2927SOL    MW411482   0.953   6.309   3.917 -0.5395 -0.1213  0.1163
 2928SOL     OW11483   2.917   4.252   1.760  0.6344 -0.2796 -0.6969
 2928SOL    HW211484   2.974   4.329   1.763  0.2830 -0.0022 -1.0593
 2928SOL    HW311485   2.913   4.229   1.667  0.7667 -0.7589 -0.5862
 2928SOL    MW411486   2.924   4.259   1.748 -0.0300 -0.1503  0.6245
 2929SOL     OW11487   5.024   1.959   0.875  0.1783 -0.4224 -0.1981
 2929SOL    HW211488   4.942   2.009   0.868  0.5003 -0.0217 -1.3527
 2929SOL    HW311489   4.998   1.877   0.916 -0.8543 -0.4027 -0.7751
 2929SOL    MW411490   5.010   1.955   0.879  0.3136 -0.4349  0.3903
 2930SOL     OW11491   4.876   1.135   3.238  0.3560 -0.1046  0.1674
 2930SOL    HW211492   4.829   1.083   3.173 -0.1452 -0.1334  0.5431
 2930SOL    HW311493   4.855   1.226   3.216 -2.0990 -0.1451  1.8907
 2930SOL    MW411494   4.867   1.140   3.227  0.6244  0.1745 -0.5971
 2931SOL     OW11495   4.664   1.776   4.460  0.2692  0.6965  0.3554
 2931SOL    HW211496   4.754   1.794   4.489  0.7078  0.1406 -0.6154
 2931SOL    HW311497   4.672   1.700   4.403 -0.6974  1.1721 -0.4457
 2931SOL    MW411498   4.677   1.769   4.456 -0.4489  0.0453  0.2895
 2932SOL     OW11499   1.460   1.485   5.993 -0.3283 -0.0447 -0.2424
 2932SOL    HW211500   1.435   1.419   6.058 -0.3104 -2.3676 -2.4627
 2932SOL    HW311501   1.481   1.563   6.046 -1.6446 -1.3419  2.4121
 2932SOL    MW411502   1.460   1.487   6.009  0.2354  0.2844  0.4610
 2933SOL     OW11503   4.651   4.129   1.078  0.4537  0.0322  0.0314
 2933SOL    HW211504   4.705   4.207   1.091  0.6139  0.0088 -0.4830
 2933SOL    HW311505   4.642   4.121   0.983  0.8643 -0.8634  0.0568
 2933SOL    MW411506   4.657   4.138   1.067  0.1117  0.5244 -0.4547
 2934SOL     OW11507   1.018   4.562   2.516  0.3713 -0.0811 -0.0011
 2934SOL    HW211508   1.007   4.591   2.425 -0.1002 -0.3496 -0.0341
 2934SOL    HW311509   1.048   4.471   2.509 -0.6991 -0.4570  0.1084
 2934SOL    MW411510   1.021   4.554   2.503 -0.2192  0.1933 -0.4864
 2935SOL     OW11511   1.337   0.080   0.807  0.4204  0.1964  0.6235
 2935SOL    HW211512   1.291   0.151   0.762  0.6872 -0.6566 -1.0661
 2935SOL    HW311513   1.360   0.018   0.738  0.7402 -1.2530  1.9589
 2935SOL    MW411514   1.334   0.081   0.792  0.6988  0.1427  0.6199
 2936SOL     OW11515   1.479   1.557   5.704  0.2289  0.0239 -0.8555
 2936SOL    HW211516   1.468   1.525   5.793 -1.8539 -0.5308 -1.2737
 2936SOL    HW311517   1.487   1.478   5.651 -2.1584  0.1749 -1.5505
 2936SOL    MW411518   1.479   1.542   5.709  0.3956  1.0071 -0.4659
 2937SOL     OW11519   5.843   3.375   6.426  0.2714  0.5941 -0.3109
 2937SOL    HW211520   5.848   3.405   6.335  0.0004  2.0153  0.1168
 2937SOL    HW311521   5.752   3.347   6.437  0.5604 -0.5945 -0.7521
 2937SOL    MW411522   5.831   3.375   6.416 -0.3075 -0.5917 -0.6967
 2938SOL     OW11523   2.842   2.109   0.803  0.0746 -0.2244 -0.5303
 2938SOL    HW211524   2.836   2.145   0.714 -0.2718  1.6105  0.1909
 2938SOL    HW311525   2.869   2.184   0.857  0.5931 -1.3857  0.8685
 2938SOL    MW411526   2.845   2.124   0.798 -0.3144  0.2134 -0.0678
 2939SOL     OW11527   4.882   0.398   1.504  0.1381 -0.8138  0.1589
 2939SOL    HW211528   4.894   0.492   1.518 -0.9345 -0.9298  2.2441
 2939SOL    HW311529   4.970   0.361   1.513  0.6680  0.0289 -1.2936
 2939SOL    MW411530   4.895   0.406   1.507  0.1881  0.1562  0.3122
 2940SOL     OW11531   0.490   3.737   1.787 -0.2262 -0.5178 -0.7459
 2940SOL    HW211532   0.404   3.701   1.811  0.0222 -1.1453 -0.7575
 2940SOL    HW311533   0.545   3.659   1.776  0.5296 -0.0934 -0.0338
 2940SOL    MW411534   0.486   3.722   1.789  0.0927 -0.6978 -0.3744
 2941SOL     OW11535   2.082   1.837   2.021 -0.1554 -0.2149 -0.0214
 2941SOL    HW211536   2.114   1.894   1.951  0.0553 -0.3483 -0.0373
 2941SOL    HW311537   2.091   1.889   2.101 -2.1114  0.6116 -0.2967
 2941SOL    MW411538   2.088   1.851   2.023  0.7315  0.2517 -0.0706
 2942SOL     OW11539   0.682   2.846   4.212 -0.0190 -0.4306  0.0542
 2942SOL    HW211540   0.764   2.820   4.253 -0.3678 -1.6547 -0.0055
 2942SOL    HW311541   0.624   2.772   4.224 -0.5281 -0.3375 -1.5654
 2942SOL    MW411542   0.685   2.833   4.219 -0.1364  0.0837  0.2917
 2943SOL     OW11543   4.916   2.735   3.540  0.3429  0.3615  0.2050
 2943SOL    HW211544   4.888   2.657   3.588 -1.0523  1.3607  1.0752
 2943SOL    HW311545   4.953   2.701   3.459  0.9350 -1.2640  1.1045
 2943SOL    MW411546   4.917   2.720   3.536  0.3105 -0.3052 -0.4105
 2944SOL     OW11547   2.762   4.854   4.185  0.5385 -0.6327 -0.2797
 2944SOL    HW211548   2.751   4.763   4.158 -2.8177  0.5123 -3.6187
 2944SOL    HW311549   2.848   4.879   4.152  0.6926 -2.0701 -1.0362
 2944SOL    MW411550   2.772   4.845   4.177  0.2499 -0.4308  0.1634
 2945SOL     OW11551   6.165   6.025   5.336  0.1357  0.1071 -0.3239
 2945SOL    HW211552   6.222   5.948   5.326  1.3979  1.0593 -0.6392
 2945SOL    HW311553   6.158   6.038   5.430  0.1346 -0.2387 -0.2751
 2945SOL    MW411554   6.172   6.016   5.347 -0.2999 -0.2252  0.1234
 2946SOL     OW11555   3.723   0.870   0.242  0.4128 -0.3975  0.3461
 2946SOL    HW211556   3.754   0.943   0.296 -0.2613 -0.0731  0.3131
 2946SOL    HW311557   3.796   0.849   0.185 -0.0046  1.6032 -1.0667
 2946SOL    MW411558   3.737   0.877   0.242  0.2385  0.2869  0.0142
 2947SOL     OW11559   1.511   2.748   5.267  0.3890 -0.5251 -0.3691
 2947SOL    HW211560   1.429   2.738   5.316 -1.0081 -0.2726 -2.4895
 2947SOL    HW311561   1.527   2.662   5.229 -0.0317 -0.1003 -1.5707
 2947SOL    MW411562   1.502   2.736   5.268 -0.1426  0.3025 -0.0156
 2948SOL     OW11563   3.589   5.502   0.118 -0.3155 -0.3324  0.0498
 2948SOL    HW211564   3.562   5.440   0.185 -1.2590 -0.5661 -0.5279
 2948SOL    HW311565   3.662   5.460   0.074 -0.5830 -0.7795  0.0336
 2948SOL    MW411566   3.595   5.489   0.121 -0.2900  0.3296 -0.1863
 2949SOL     OW11567   6.152   4.115   2.579 -0.7754 -0.0098 -0.1197
 2949SOL    HW211568   6.221   4.089   2.518 -1.8893 -2.1993 -0.5645
 2949SOL    HW311569   6.189   4.097   2.666 -0.1089  0.7150 -0.2350
 2949SOL    MW411570   6.166   4.109   2.583 -0.2457 -0.0335  0.3852
 2950SOL     OW11571   2.320   5.950   3.290 -0.1814 -0.3765  0.2357
 2950SOL    HW211572   2.242   5.909   3.251 -0.5169 -1.5265  1.9836
 2950SOL    HW311573   2.394   5.901   3.254 -0.4432 -0.9788  0.5079
 2950SOL    MW411574   2.319   5.938   3.280  0.0885  0.5747  0.6572
 2951SOL     OW11575   2.648   1.535   6.015 -0.4241  0.0667  0.4527
 2951SOL    HW211576   2.735   1.540   6.055 -0.3457  1.3923  0.1523
 2951SOL    HW311577   2.655   1.589   5.936 -1.7004  0.7249  0.7671
 2951SOL    MW411578   2.660   1.543   6.010 -0.3085 -0.5008 -0.2093
 2952SOL     OW11579   6.163   4.246   1.441 -0.4051  0.1244 -0.1997
 2952SOL    HW211580   6.154   4.286   1.527 -2.0163  0.4573 -0.4963
 2952SOL    HW311581   6.222   4.305   1.393  0.9161 -0.3338  0.8011
 2952SOL    MW411582   6.170   4.259   1.446  0.3430  0.0756 -0.7415
 2953SOL     OW11583   2.468   0.464   0.912  0.8994 -0.3308  0.2052
 2953SOL    HW211584   2.425   0.382   0.939  0.1017 -0.1074 -0.3523
 2953SOL    HW311585   2.539   0.435   0.854  0.3244 -0.6181 -0.3743
 2953SOL    MW411586   2.471   0.449   0.908 -0.0309  0.1219  0.3162
 2954SOL     OW11587   2.715   2.990   1.266 -0.1939 -0.5996 -0.0724
 2954SOL    HW211588   2.641   2.929   1.273 -0.4297 -0.2417  0.8033
 2954SOL    HW311589   2.730   3.019   1.356  0.3629  0.1102 -0.3832
 2954SOL    MW411590   2.707   2.985   1.279 -0.3700 -0.0537  0.0754
 2955SOL     OW11591   4.510   4.520   4.758 -0.3602  0.1250  0.3122
 2955SOL    HW211592   4.468   4.472   4.687 -0.8130  1.0922 -0.0753
 2955SOL    HW311593   4.567   4.584   4.715 -0.6515  0.7298  0.8093
 2955SOL    MW411594   4.512   4.522   4.743 -1.0161 -0.1129  1.1381
 2956SOL     OW11595   2.119   3.513   5.504  0.5249  0.1123  0.0871
 2956SOL    HW211596   2.122   3.592   5.559 -0.9054  0.6464 -0.5528
 2956SOL    HW311597   2.027   3.486   5.506  0.6922 -0.5956 -1.0081
 2956SOL    MW411598   2.107   3.520   5.511 -0.1914 -0.4208 -0.1153
 2957SOL     OW11599   0.951   4.178   2.217  0.1701 -0.4364  0.1985
 2957SOL    HW211600   0.949   4.274   2.219 -0.8710 -0.4223  2.7702
 2957SOL    HW311601   0.902   4.155   2.138  1.3425  1.1118 -1.0586
 2957SOL    MW411602   0.944   4.188   2.207 -0.1893 -0.3569  0.5815
 2958SOL     OW11603   6.347   1.664   5.097  0.3861 -0.4448  0.4052
 2958SOL    HW211604   6.311   1.712   5.172  1.8430  1.2985  0.0653
 2958SOL    HW311605   6.272   1.614   5.063 -0.9487  0.7250  1.4746
 2958SOL    MW411606   6.332   1.664   5.102  0.2896 -0.1646 -0.3347
 2959SOL     OW11607   0.163   1.784   5.055  0.6516 -0.7465 -0.3578
 2959SOL    HW211608   0.172   1.843   5.130  1.0179 -0.9602 -0.2304
 2959SOL    HW311609   0.076   1.746   5.064 -0.4317  1.2676 -1.5374
 2959SOL    MW411610   0.153   1.787   5.066  0.0516  0.3049  0.0150
 2960SOL     OW11611   4.556   2.563   6.287 -0.0980  0.7944 -0.4195
 2960SOL    HW211612   4.651   2.573   6.278  0.1746 -0.9100  0.2382
 2960SOL    HW311613   4.527   2.644   6.328  1.2513  0.8588  0.4482
 2960SOL    MW411614   4.565   2.575   6.291  0.6948  0.0551  0.2949
 2961SOL     OW11615   3.966   5.404   0.906 -0.1352  0.4274 -0.0089
 2961SOL    HW211616   3.926   5.353   0.836 -1.1880  0.5321  0.5040
 2961SOL    HW311617   3.902   5.402   0.977  0.3947  1.3326  0.5078
 2961SOL    MW411618   3.952   5.397   0.906  0.2342  0.0254  0.2118
 2962SOL     OW11619   2.202   0.289   1.181  0.5254 -0.0325 -0.3380
 2962SOL    HW211620   2.256   0.317   1.108  0.7968  0.6807  0.1282
 2962SOL    HW311621   2.191   0.367   1.235 -0.7465 -0.2272 -0.2819
 2962SOL    MW411622   2.208   0.303   1.178 -0.3036  0.3402 -0.0475
 2963SOL     OW11623   0.207   2.242   3.061  0.4832  0.1683 -0.0020
 2963SOL    HW211624   0.139   2.188   3.022 -0.4493  1.8225 -0.7657
 2963SOL    HW311625   0.270   2.256   2.991  0.9325 -0.2410  0.3118
 2963SOL    MW411626   0.207   2.237   3.047  0.5673 -0.3790  0.2661
 2964SOL     OW11627   3.459   5.355   3.112 -0.3316  0.1099  0.1166
 2964SOL    HW211628   3.541   5.327   3.152 -1.0310 -1.6290  0.4428
 2964SOL    HW311629   3.470   5.336   3.019 -0.0834  0.6019  0.0453
 2964SOL    MW411630   3.471   5.349   3.105 -0.0012  0.6085 -0.0234
 2965SOL     OW11631   0.447   0.370   5.835 -0.6422  0.1089  0.1269
 2965SOL    HW211632   0.375   0.311   5.810 -0.3750  0.2995 -1.1428
 2965SOL    HW311633   0.445   0.439   5.769  0.8673 -0.0143 -0.0666
 2965SOL    MW411634   0.437   0.371   5.823  0.7655 -0.0924 -0.0298
 2966SOL     OW11635   1.147   3.147   4.582  0.1110  0.5447  0.1173
 2966SOL    HW211636   1.192   3.082   4.528 -0.1850  0.1501  0.3445
 2966SOL    HW311637   1.083   3.097   4.631 -0.7586  1.1369 -0.3867
 2966SOL    MW411638   1.145   3.132   4.581  0.3766  0.7307 -0.3068
 2967SOL     OW11639   5.805   4.106   1.170  0.1593 -0.0433 -0.3423
 2967SOL    HW211640   5.863   4.074   1.239  0.2063  2.3681  0.8700
 2967SOL    HW311641   5.862   4.114   1.093  0.3727 -1.7347 -0.3925
 2967SOL    MW411642   5.820   4.103   1.169  0.7693 -0.2321  0.1712
 2968SOL     OW11643   1.539   1.194   2.711  0.1926 -0.5345  0.1358
 2968SOL    HW211644   1.489   1.197   2.629  0.6142 -0.3581 -0.1200
 2968SOL    HW311645   1.474   1.173   2.778 -0.2954  0.0392 -0.1390
 2968SOL    MW411646   1.524   1.192   2.709 -0.2036 -0.6215  0.0294
 2969SOL     OW11647   1.669   3.623   2.476  0.4652  0.4571  0.3580
 2969SOL    HW211648   1.687   3.615   2.570  2.2171  1.7823  0.1812
 2969SOL    HW311649   1.752   3.651   2.438  0.2251 -1.5017 -1.8360
 2969SOL    MW411650   1.683   3.626   2.483  0.5206  0.1009 -0.2589
 2970SOL     OW11651   4.700   6.166   0.500  0.3064 -0.0349  0.0099
 2970SOL    HW211652   4.750   6.157   0.419 -1.1280 -2.0709 -0.7373
 2970SOL    HW311653   4.748   6.231   0.551  2.3377 -0.1304 -1.6551
 2970SOL    MW411654   4.713   6.173   0.496  0.2824  0.4449 -0.0342
 2971SOL     OW11655   1.565   5.555   6.247 -0.8203 -0.3464  0.2393
 2971SOL    HW211656   1.545   5.551   6.154  0.3382 -1.7550  0.0081
 2971SOL    HW311657   1.511   5.486   6.286  0.2908 -1.2485  0.2469
 2971SOL    MW411658   1.555   5.545   6.240 -0.3726 -0.8247 -0.0256
 2972SOL     OW11659   1.805   4.884   3.811 -0.4325 -0.0536  0.3777
 2972SOL    HW211660   1.843   4.822   3.874 -2.1864 -1.6214 -0.0340
 2972SOL    HW311661   1.721   4.845   3.787 -0.4779  1.2530 -1.8122
 2972SOL    MW411662   1.799   4.870   3.816  0.1662  0.0004  0.1723
 2973SOL     OW11663   1.318   2.402   2.463 -0.1153  0.9649 -0.0683
 2973SOL    HW211664   1.359   2.348   2.395 -1.0072 -0.5064  0.5095
 2973SOL    HW311665   1.277   2.474   2.415  0.1205  0.5089 -0.9845
 2973SOL    MW411666   1.318   2.405   2.448 -0.6092  0.4545  0.6514
 2974SOL     OW11667   4.782   4.133   2.291  0.3218 -0.0371  0.7971
 2974SOL    HW211668   4.725   4.182   2.351  0.7269 -0.8654  1.8939
 2974SOL    HW311669   4.818   4.199   2.233 -1.0434  0.6308  0.6752
 2974SOL    MW411670   4.779   4.148   2.292 -0.0458 -0.1005  0.0306
 2975SOL     OW11671   4.020   2.504   0.761 -0.7473 -0.3619  0.0419
 2975SOL    HW211672   4.017   2.591   0.722 -2.1131 -0.7625 -0.7952
 2975SOL    HW311673   3.953   2.506   0.829 -0.8791 -0.7996 -0.0727
 2975SOL    MW411674   4.011   2.516   0.765  0.2685 -0.1044  0.0843
 2976SOL     OW11675   1.113   5.586   6.035  0.2753 -0.2610  0.6961
 2976SOL    HW211676   1.110   5.505   6.086 -0.3944 -1.3475 -0.9913
 2976SOL    HW311677   1.186   5.574   5.974 -1.3174 -0.6893 -1.2256
 2976SOL    MW411678   1.122   5.574   6.034  0.1028 -0.0519  0.1089
 2977SOL     OW11679   4.764   3.657   3.213 -0.3012  0.0073 -0.4371
 2977SOL    HW211680   4.696   3.724   3.220 -0.7999 -0.4910 -0.4394
 2977SOL    HW311681   4.794   3.662   3.122 -0.3784  0.1902 -0.4517
 2977SOL    MW411682   4.759   3.666   3.202 -0.9609  0.2911  0.0122
 2978SOL     OW11683   5.801   4.009   0.321  0.2197  0.2864  0.2724
 2978SOL    HW211684   5.833   4.031   0.409  2.1130 -0.4845 -0.1830
 2978SOL    HW311685   5.745   3.933   0.335 -0.5208  0.9424  0.9552
 2978SOL    MW411686   5.798   4.002   0.335 -0.1202  0.5441  0.4755
 2979SOL     OW11687   0.034   2.524   1.635  0.5821  0.2386 -0.4313
 2979SOL    HW211688  -0.014   2.607   1.632  0.2001 -0.0085 -2.2331
 2979SOL    HW311689   0.071   2.514   1.547 -0.1547 -1.9285 -0.5641
 2979SOL    MW411690   0.032   2.534   1.623  0.1362 -0.7748 -0.2471
 2980SOL     OW11691   0.983   5.176   2.949 -0.5247  0.1100 -0.2391
 2980SOL    HW211692   0.906   5.208   2.996  0.5872  0.9101  1.0787
 2980SOL    HW311693   1.057   5.195   3.006  0.6129 -1.2240 -1.1944
 2980SOL    MW411694   0.982   5.183   2.962  0.4981  0.4678 -0.0505
 2981SOL     OW11695   2.859   0.337   4.091 -0.4185  0.4693 -0.4204
 2981SOL    HW211696   2.919   0.284   4.144  0.9907  0.3279 -2.0839
 2981SOL    HW311697   2.780   0.284   4.086  0.6751 -1.1691 -1.3703
 2981SOL    MW411698   2.857   0.323   4.097  0.3307 -0.2576 -0.8007
 2982SOL     OW11699   5.677   1.516   2.688  0.0272  0.5904  0.6628
 2982SOL    HW211700   5.756   1.462   2.689 -0.3375  0.0502  0.7735
 2982SOL    HW311701   5.664   1.538   2.596  0.0223  0.2514  0.5810
 2982SOL    MW411702   5.686   1.512   2.676  0.2577 -0.3045 -0.1417
 2983SOL     OW11703   3.391   3.662   5.967  0.3239 -0.3992  0.1861
 2983SOL    HW211704   3.484   3.679   5.955  0.3010  0.7073  1.3374
 2983SOL    HW311705   3.383   3.567   5.964  1.8376 -0.6550  2.2669
 2983SOL    MW411706   3.402   3.652   5.965  0.2768  0.2447  0.5496
 2984SOL     OW11707   3.103   3.317   2.653 -0.0018 -0.6946  0.1817
 2984SOL    HW211708   3.068   3.243   2.603  0.6740  0.0719 -1.4962
 2984SOL    HW311709   3.027   3.374   2.667 -0.4189 -1.4321  1.0218
 2984SOL    MW411710   3.088   3.315   2.648  0.1092 -0.1516  0.2463
 2985SOL     OW11711   1.585   4.724   5.115  0.0704  0.4474 -0.2223
 2985SOL    HW211712   1.556   4.683   5.033  2.2276 -0.1036 -0.7925
 2985SOL    HW311713   1.677   4.744   5.100  0.3323  1.0140  1.8368
 2985SOL    MW411714   1.593   4.721   5.102 -0.3629 -0.2344 -0.7173
 2986SOL     OW11715   5.390   6.429   1.824  0.1710 -0.0103  0.0324
 2986SOL    HW211716   5.357   6.471   1.903 -0.7358 -1.3843  0.4128
 2986SOL    HW311717   5.318   6.436   1.761 -0.5845 -2.1903  0.5607
 2986SOL    MW411718   5.376   6.435   1.826 -0.2648 -0.3916  0.0176
 2987SOL     OW11719   5.401   3.457   2.898  0.2743 -0.4902  0.3784
 2987SOL    HW211720   5.380   3.374   2.941 -2.9402 -0.1776 -0.4092
 2987SOL    HW311721   5.372   3.446   2.808  0.8297  1.1272 -0.0244
 2987SOL    MW411722   5.395   3.445   2.892 -0.0532  0.0088 -0.1069
 2988SOL     OW11723   1.343   2.146   5.524 -0.1049  0.2723  0.8830
 2988SOL    HW211724   1.268   2.142   5.584 -0.6620 -0.0146  0.1878
 2988SOL    HW311725   1.420   2.149   5.582 -0.5985 -0.4853  1.6154
 2988SOL    MW411726   1.343   2.146   5.540  0.3383 -0.5393 -0.5468
 2989SOL     OW11727   4.436   2.637   1.741 -0.3839 -0.0059  0.2325
 2989SOL    HW211728   4.489   2.670   1.669 -1.4063 -0.3217 -0.6941
 2989SOL    HW311729   4.498   2.624   1.813  0.2906  2.7799  0.2772
 2989SOL    MW411730   4.451   2.640   1.741  0.2863 -0.0615  0.2115
 2990SOL     OW11731   6.315   4.924   4.347  0.0289  0.5373 -0.0125
 2990SOL    HW211732   6.244   4.872   4.385  0.0281 -1.0235 -1.9668
 2990SOL    HW311733   6.278   4.957   4.265  1.6908 -0.7986 -1.3598
 2990SOL    MW411734   6.300   4.922   4.341  0.2825  0.5163  0.3728
 2991SOL     OW11735   0.999   4.773   5.813  0.4137 -0.1564  0.0272
 2991SOL    HW211736   0.925   4.833   5.816  0.7238  0.2106  0.9566
 2991SOL    HW311737   0.960   4.687   5.799 -0.2375 -0.0259  0.9304
 2991SOL    MW411738   0.984   4.769   5.812 -0.6418  0.3893  0.1175
 2992SOL     OW11739   6.302   5.876   3.981 -0.0077 -0.2777  0.2838
 2992SOL    HW211740   6.386   5.875   3.935  0.3416  0.8953  0.8393
 2992SOL    HW311741   6.322   5.840   4.068 -0.0278  0.1522  0.4718
 2992SOL    MW411742   6.316   5.871   3.986 -0.0451  0.6168 -0.5647
 2993SOL     OW11743   0.070   4.903   2.874 -0.5162  0.2719  0.0723
 2993SOL    HW211744   0.001   4.897   2.808 -0.8509 -0.0526  0.4496
 2993SOL    HW311745   0.054   4.830   2.934  0.5539 -0.2177 -0.2068
 2993SOL    MW411746   0.059   4.893   2.874  0.1759  0.6404  0.0678
 2994SOL     OW11747   2.135   5.461   3.974 -0.5032  0.2320 -0.9831
 2994SOL    HW211748   2.087   5.448   4.056 -0.5355  0.0765 -1.0259
 2994SOL    HW311749   2.217   5.503   4.000 -1.0815  1.4288 -1.0067
 2994SOL    MW411750   2.139   5.465   3.988 -0.7433 -0.3080 -0.1226
 2995SOL     OW11751   6.056   4.191   6.349 -0.2729 -0.6498 -0.1306
 2995SOL    HW211752   6.092   4.192   6.260  0.1928 -0.4833  0.0567
 2995SOL    HW311753   5.978   4.246   6.344  1.6233  2.3071  0.3277
 2995SOL    MW411754   6.051   4.199   6.337  0.3924 -0.2268 -0.7691
 2996SOL     OW11755   4.147   0.637   6.005 -0.3876 -0.1700 -0.5276
 2996SOL    HW211756   4.151   0.729   6.032  0.6889 -0.9780  2.4929
 2996SOL    HW311757   4.203   0.632   5.927  0.9008  1.4827  0.2201
 2996SOL    MW411758   4.155   0.648   5.998 -0.0118  0.3922 -0.7925
 2997SOL     OW11759   2.943   6.043   5.657 -0.3980  0.3642 -0.0277
 2997SOL    HW211760   2.961   6.132   5.688 -0.8329 -0.0017  1.3380
 2997SOL    HW311761   2.921   6.054   5.564 -0.0919  1.6307  0.0289
 2997SOL    MW411762   2.943   6.056   5.649 -0.0201  0.7045  0.3950
 2998SOL     OW11763   4.678   0.601   5.783 -0.2410 -0.1917 -0.0387
 2998SOL    HW211764   4.708   0.625   5.871 -0.3678 -0.4361  0.0728
 2998SOL    HW311765   4.629   0.677   5.753 -0.8014 -0.3764  0.3894
 2998SOL    MW411766   4.675   0.614   5.791  0.3669 -0.0331  0.4275
 2999SOL     OW11767   2.207   2.456   5.739 -0.2743 -0.6945  0.0941
 2999SOL    HW211768   2.152   2.526   5.701 -0.0864 -0.7840 -0.3517
 2999SOL    HW311769   2.144   2.397   5.780 -0.4216 -0.1549  0.6668
 2999SOL    MW411770   2.191   2.458   5.739 -0.2099  0.4376  0.4249
 3000SOL     OW11771   4.702   6.368   2.129  0.2474  0.0209 -0.1581
 3000SOL    HW211772   4.747   6.380   2.213  1.4238  0.2464 -0.8089
 3000SOL    HW311773   4.682   6.456   2.100 -0.6361 -0.0779  0.1208
 3000SOL    MW411774   4.705   6.381   2.136 -0.3242  0.0032 -0.0495
 3001SOL     OW11775   4.549   2.464   0.200  0.0428 -0.0481 -0.0914
 3001SOL    HW211776   4.547   2.425   0.287 -0.5982 -0.2836 -0.2080
 3001SOL    HW311777   4.487   2.537   0.205  1.8874  1.5714  0.3965
 3001SOL    MW411778   4.540   2.469   0.212  0.1644 -0.6525 -0.1559
 3002SOL     OW11779   6.015   0.809   0.480 -0.2951  0.2162 -0.1541
 3002SOL    HW211780   5.944   0.811   0.544 -0.6561 -0.8930 -0.4923
 3002SOL    HW311781   6.045   0.718   0.481 -0.4729  0.1118 -1.7295
 3002SOL    MW411782   6.010   0.797   0.488  0.4178 -0.4963 -0.0405
 3003SOL     OW11783   0.606   5.842   3.941  0.2121 -0.0519  0.8862
 3003SOL    HW211784   0.686   5.820   3.990  1.1388 -1.0856 -0.9774
 3003SOL    HW311785   0.624   5.927   3.902  1.3863 -1.2405 -1.3405
 3003SOL    MW411786   0.619   5.850   3.942 -0.3721  0.5818 -0.3961
 3004SOL     OW11787   3.854   5.913   4.953 -0.5044  0.2287  0.6340
 3004SOL    HW211788   3.926   5.959   4.997  0.7903 -1.7292  0.6816
 3004SOL    HW311789   3.781   5.917   5.015  0.8820 -1.3657  2.4767
 3004SOL    MW411790   3.854   5.920   4.967  0.5275  0.1230 -0.1166
 3005SOL     OW11791   0.370   6.141   5.509  0.6896  0.0570 -0.0429
 3005SOL    HW211792   0.409   6.055   5.521  0.9731  0.1879 -0.0351
 3005SOL    HW311793   0.388   6.187   5.590  1.7008  0.5833 -0.5548
 3005SOL    MW411794   0.377   6.136   5.521  0.2797 -0.1114 -0.2602
 3006SOL     OW11795   2.897   1.234   6.106 -0.2909  0.2588 -0.7178
 3006SOL    HW211796   2.901   1.157   6.049  0.2796 -0.9829  0.9144
 3006SOL    HW311797   2.920   1.307   6.049  3.1995 -1.2593 -1.5349
 3006SOL    MW411798   2.901   1.234   6.091 -0.3094  0.2031 -0.6188
 3007SOL     OW11799   2.574   1.281   5.956 -0.4313  0.1981  0.1154
 3007SOL    HW211800   2.612   1.355   6.004  0.2904 -0.1214  0.0549
 3007SOL    HW311801   2.555   1.216   6.024  2.1909 -0.9530 -0.1350
 3007SOL    MW411802   2.576   1.282   5.971  0.4962  0.2030  0.4353
 3008SOL     OW11803   5.910   4.904   2.185 -0.2604 -0.6522  0.2359
 3008SOL    HW211804   5.904   4.999   2.193  1.3343 -0.5654  0.7610
 3008SOL    HW311805   5.836   4.880   2.129 -0.5411  0.9155 -0.1126
 3008SOL    MW411806   5.899   4.913   2.179  0.4378 -0.2204 -0.7587
 3009SOL     OW11807   0.821   0.292   3.805 -0.0049 -0.6579  0.3221
 3009SOL    HW211808   0.768   0.308   3.727 -0.5576  1.7618  1.0942
 3009SOL    HW311809   0.778   0.344   3.873  1.1253 -1.7850  1.9774
 3009SOL    MW411810   0.808   0.301   3.804 -0.0925  0.4624  0.2318
 3010SOL     OW11811   1.261   6.278   4.181 -0.0435  0.0308  0.4234
 3010SOL    HW211812   1.264   6.332   4.102 -0.1482  0.2104  0.5408
 3010SOL    HW311813   1.327   6.316   4.239  1.3195 -1.1804 -0.2495
 3010SOL    MW411814   1.270   6.290   4.178 -0.3670 -0.1968 -0.5466
 3011SOL     OW11815   4.959   5.012   2.115 -0.5009  0.7074 -0.1263
 3011SOL    HW211816   4.927   5.061   2.190 -0.5965  0.5286 -0.0505
 3011SOL    HW311817   4.949   4.920   2.140 -0.1564  0.6495 -0.1958
 3011SOL    MW411818   4.954   5.006   2.128 -0.5258 -0.1101 -0.2207
 3012SOL     OW11819   4.313   4.137   5.663  0.3471  0.6371 -0.2128
 3012SOL    HW211820   4.399   4.174   5.643  1.0217 -1.3977 -1.3436
 3012SOL    HW311821   4.297   4.073   5.593 -2.4766  1.5204 -0.5108
 3012SOL    MW411822   4.322   4.133   5.651  0.9090  0.0761 -0.6080
 3013SOL     OW11823   3.223   4.755   4.040 -0.0338 -0.6182  0.1743
 3013SOL    HW211824   3.147   4.795   4.081  1.1477  2.6071 -0.4764
 3013SOL    HW311825   3.187   4.695   3.975 -2.1991  2.2972 -1.5682
 3013SOL    MW411826   3.208   4.753   4.037 -0.2946 -0.0623  0.4943
 3014SOL     OW11827   3.767   4.488   3.063  0.3269 -0.2570 -0.1060
 3014SOL    HW211828   3.829   4.426   3.025  2.9427  2.7139 -1.1581
 3014SOL    HW311829   3.726   4.530   2.988 -0.5774  0.0659  0.5534
 3014SOL    MW411830   3.770   4.485   3.048  0.1574  0.4831  0.5264
 3015SOL     OW11831   5.662   0.553   3.827  0.5340 -0.5283  0.5537
 3015SOL    HW211832   5.724   0.492   3.787  0.9951 -0.8219  1.6655
 3015SOL    HW311833   5.628   0.506   3.903  0.1920  0.2571  0.9003
 3015SOL    MW411834   5.666   0.539   3.832 -0.0124 -0.3204 -0.2624
 3016SOL     OW11835   0.404   4.653   1.448  0.1492  0.0058  0.4155
 3016SOL    HW211836   0.480   4.620   1.497 -0.6739 -1.3149  0.8665
 3016SOL    HW311837   0.353   4.701   1.514  0.4632  0.6831  0.1699
 3016SOL    MW411838   0.408   4.655   1.463  0.3944  0.4946  0.3757
 3017SOL     OW11839   3.245   3.197   0.371  0.2663 -0.2385  0.2703
 3017SOL    HW211840   3.236   3.288   0.342  0.7228  0.2767  1.6471
 3017SOL    HW311841   3.329   3.168   0.335  0.3069  0.0188  0.1559
 3017SOL    MW411842   3.255   3.205   0.362  0.0726  0.3377 -0.3787
 3018SOL     OW11843   4.003   0.115   1.840  0.1094  0.0747 -0.6566
 3018SOL    HW211844   3.916   0.078   1.824  0.3103 -3.4017  4.0602
 3018SOL    HW311845   4.063   0.054   1.798  0.4083  1.1764 -1.9009
 3018SOL    MW411846   3.999   0.102   1.832  0.9199  0.3849 -0.1852
 3019SOL     OW11847   1.755   1.534   1.565  0.1295 -0.4452  0.0389
 3019SOL    HW211848   1.717   1.541   1.477 -0.5718  1.0353  0.4307
 3019SOL    HW311849   1.679   1.520   1.622 -0.0929  3.2116  0.9144
 3019SOL    MW411850   1.740   1.533   1.561 -0.3452 -0.2228  0.0485
 3020SOL     OW11851   4.816   2.624   2.826  0.4527 -0.8483  0.0768
 3020SOL    HW211852   4.865   2.630   2.908 -1.6048 -1.0081  1.4090
 3020SOL    HW311853   4.786   2.533   2.823 -1.8523 -0.1780  0.6765
 3020SOL    MW411854   4.818   2.613   2.837  0.6758 -0.3324  0.1827
 3021SOL     OW11855   0.494   5.664   1.199  0.5379 -0.1350  0.4606
 3021SOL    HW211856   0.584   5.685   1.175  0.0267 -0.4591 -2.0200
 3021SOL    HW311857   0.498   5.573   1.231  0.7995 -1.0501 -1.9949
 3021SOL    MW411858   0.506   5.655   1.200  0.0753  0.6337  0.4744
 3022SOL     OW11859   3.053   1.265   1.056  0.1892  0.3153 -0.5469
 3022SOL    HW211860   3.097   1.349   1.071  1.7096 -0.4231 -0.6055
 3022SOL    HW311861   3.022   1.271   0.966 -0.8875  1.2954 -0.1324
 3022SOL    MW411862   3.055   1.277   1.046  0.2394 -0.3406 -0.0497
 3023SOL     OW11863   0.922   5.505   5.850 -0.4416 -0.0673  0.5998
 3023SOL    HW211864   0.969   5.536   5.927 -2.3796 -0.4710  2.0067
 3023SOL    HW311865   0.852   5.569   5.837 -0.9947 -0.7688  0.0464
 3023SOL    MW411866   0.919   5.517   5.858 -0.0760 -0.1229  0.0267
 3024SOL     OW11867   2.893   3.904   5.368 -0.1210 -0.1469 -0.1028
 3024SOL    HW211868   2.912   3.899   5.274  0.0810 -0.8294 -0.0325
 3024SOL    HW311869   2.977   3.884   5.409 -0.5118 -1.1786  0.2200
 3024SOL    MW411870   2.907   3.901   5.361  0.3085 -0.2336 -0.4026
 3025SOL     OW11871   3.297   5.367   4.215 -0.2122  0.3548  0.2321
 3025SOL    HW211872   3.351   5.437   4.177 -0.5870 -0.5707 -2.1936
 3025SOL    HW311873   3.315   5.291   4.160  0.4199 -1.6332  2.9684
 3025SOL    MW411874   3.306   5.367   4.203 -0.3069 -0.2045 -0.3543
 3026SOL     OW11875   1.440   4.600   0.425  0.2921  0.3733 -0.1141
 3026SOL    HW211876   1.477   4.684   0.397 -0.7792  0.8619 -0.1007
 3026SOL    HW311877   1.490   4.577   0.503 -1.0896  2.3073  1.4441
 3026SOL    MW411878   1.452   4.608   0.431 -0.0366 -0.7716  0.8923
 3027SOL     OW11879   5.646   0.635   2.459 -0.3009 -0.1853 -0.0629
 3027SOL    HW211880   5.729   0.644   2.412 -0.8689  1.2080 -0.8580
 3027SOL    HW311881   5.600   0.565   2.414  0.1340 -0.4588 -0.0835
 3027SOL    MW411882   5.651   0.627   2.447  0.1265  0.7236  0.5484
 3028SOL     OW11883   2.523   5.656   2.493  0.0238  0.3297  0.0911
 3028SOL    HW211884   2.460   5.726   2.475 -1.3181 -0.9349 -0.3832
 3028SOL    HW311885   2.576   5.650   2.413 -0.3011  0.3741 -0.1308
 3028SOL    MW411886   2.522   5.664   2.480 -0.8333  0.2813 -0.1321
 3029SOL     OW11887   2.682   2.271   1.814  0.1057  0.3945  0.3011
 3029SOL    HW211888   2.638   2.275   1.729  0.5827  1.2970  0.0907
 3029SOL    HW311889   2.770   2.239   1.793  0.4139  1.1848  0.3767
 3029SOL    MW411890   2.688   2.267   1.800 -0.0036 -0.2693  0.2493
 3030SOL     OW11891   1.805   2.710   5.594 -0.5398 -0.4326 -0.0145
 3030SOL    HW211892   1.786   2.631   5.544  0.3957 -0.2394 -0.6878
 3030SOL    HW311893   1.725   2.725   5.646 -1.4591 -0.7523 -1.2865
 3030SOL    MW411894   1.792   2.702   5.594 -0.1833  0.1210  0.3444
 3031SOL     OW11895   5.114   3.056   3.120  0.5165  0.2351 -0.2921
 3031SOL    HW211896   5.065   3.005   3.056 -2.5271  1.3590  0.9467
 3031SOL    HW311897   5.130   2.995   3.192  2.0899 -0.4473 -1.1605
 3031SOL    MW411898   5.110   3.041   3.121  0.0618  0.0696 -0.1865
 3032SOL     OW11899   0.131   6.393   1.607  0.0844  0.6008  0.1696
 3032SOL    HW211900   0.074   6.432   1.540 -1.4316 -2.8199 -0.7261
 3032SOL    HW311901   0.210   6.368   1.559 -0.8940 -1.6047 -0.4297
 3032SOL    MW411902   0.134   6.395   1.592 -0.2294 -0.2351  0.3081
 3033SOL     OW11903   3.734   5.740   2.928 -0.1962  0.0777 -0.1456
 3033SOL    HW211904   3.712   5.650   2.905  1.4909  0.1075 -2.1650
 3033SOL    HW311905   3.734   5.787   2.845  0.5936  1.5731  0.6474
 3033SOL    MW411906   3.731   5.734   2.914 -0.3801 -0.4263  0.1010
 3034SOL     OW11907   4.513   1.200   4.708 -0.1507 -0.1078  0.1855
 3034SOL    HW211908   4.441   1.156   4.755 -0.1654 -1.1901 -0.8032
 3034SOL    HW311909   4.580   1.132   4.700  0.2012  0.3239 -0.5777
 3034SOL    MW411910   4.512   1.185   4.713  0.0362  0.1515  0.2595
 3035SOL     OW11911   3.521   1.919   0.513 -0.0162  0.5394 -0.1414
 3035SOL    HW211912   3.583   1.924   0.440 -0.3258 -0.4746 -0.4849
 3035SOL    HW311913   3.452   1.982   0.490 -0.0866  0.2622 -0.6948
 3035SOL    MW411914   3.520   1.928   0.501 -0.3048 -0.4428  0.0329
 3036SOL     OW11915   4.073   0.305   2.467 -0.1706 -0.3367  0.2853
 3036SOL    HW211916   4.137   0.291   2.536 -0.3934 -0.5235  0.4572
 3036SOL    HW311917   4.023   0.223   2.463 -1.2313  0.2415  1.0294
 3036SOL    MW411918   4.075   0.292   2.475 -0.2472 -0.0418  0.0187
 3037SOL     OW11919   2.513   6.213   2.329 -0.2034 -0.2913 -0.1239
 3037SOL    HW211920   2.443   6.150   2.315  0.1369 -0.8863  0.7711
 3037SOL    HW311921   2.523   6.258   2.244  0.5449 -2.4663 -1.2631
 3037SOL    MW411922   2.505   6.211   2.316 -0.2851 -0.0530 -0.3846
 3038SOL     OW11923   0.100   6.066   5.479 -0.1342  0.3602 -0.6771
 3038SOL    HW211924   0.189   6.072   5.513 -0.2934 -1.6994  0.2245
 3038SOL    HW311925   0.111   6.047   5.385  0.3717  0.2868 -0.6029
 3038SOL    MW411926   0.113   6.064   5.471 -0.0645 -0.2382  0.4078
 3039SOL     OW11927   5.329   2.065   4.411  0.0269  0.3777 -0.5672
 3039SOL    HW211928   5.409   2.119   4.410  0.1880  0.1358 -0.7377
 3039SOL    HW311929   5.359   1.979   4.441 -0.4838  0.7854  1.2533
 3039SOL    MW411930   5.344   2.061   4.415  0.3408  0.3626  0.0047
 3040SOL     OW11931   4.150   4.904   4.303  0.3696  0.0876 -0.4151
 3040SOL    HW211932   4.120   4.878   4.215  0.8906 -0.8115 -0.3356
 3040SOL    HW311933   4.201   4.984   4.288  0.9362 -0.3773 -1.0045
 3040SOL    MW411934   4.153   4.911   4.289 -0.3664 -0.1215  0.0003
 3041SOL     OW11935   5.075   2.720   2.447 -0.0758  0.0283  0.3942
 3041SOL    HW211936   5.060   2.802   2.400 -0.6227  0.5962  1.5296
 3041SOL    HW311937   4.988   2.693   2.476 -0.0571 -1.5286 -0.8706
 3041SOL    MW411938   5.062   2.727   2.444  0.4767  0.1451  0.3245
 3042SOL     OW11939   4.350   1.730   2.951  0.3853 -0.1694 -0.0796
 3042SOL    HW211940   4.261   1.761   2.935  1.0037  1.0991 -1.3246
 3042SOL    HW311941   4.371   1.677   2.874  1.2570  0.9332 -0.6468
 3042SOL    MW411942   4.341   1.727   2.939 -0.0838 -0.1855  0.4343
 3043SOL     OW11943   3.089   2.772   0.476 -0.5538 -0.3419 -0.0675
 3043SOL    HW211944   3.029   2.714   0.523 -2.4286  0.0757 -1.7691
 3043SOL    HW311945   3.170   2.770   0.527 -1.8985 -1.1877  2.1824
 3043SOL    MW411946   3.092   2.764   0.489  0.7115  0.6417  0.2444
 3044SOL     OW11947   0.321   1.310   5.933  0.1967  0.1368  0.1834
 3044SOL    HW211948   0.306   1.217   5.949 -1.1436  0.2405 -0.3555
 3044SOL    HW311949   0.340   1.347   6.019  2.3073 -0.8662  0.2173
 3044SOL    MW411950   0.322   1.303   5.946  0.3109  0.4145  0.5782
 3045SOL     OW11951   4.903   0.100   6.128 -0.0048  0.1819  0.1828
 3045SOL    HW211952   4.834   0.152   6.169 -1.3919 -0.6712 -0.9758
 3045SOL    HW311953   4.984   0.140   6.158 -0.9905  1.2736  1.5234
 3045SOL    MW411954   4.904   0.112   6.137  0.1166 -0.2529 -0.2316
 3046SOL     OW11955   3.997   0.723   1.137 -0.9430  0.1941 -0.5242
 3046SOL    HW211956   3.924   0.784   1.145 -0.7213  0.2850  1.1349
 3046SOL    HW311957   3.985   0.661   1.209  0.7109  0.3415 -0.0817
 3046SOL    MW411958   3.986   0.723   1.148 -0.3230 -0.6099  0.3279
 3047SOL     OW11959   0.757   0.281   0.516 -0.4861 -0.5786 -0.2748
 3047SOL    HW211960   0.663   0.274   0.531 -0.5936  0.1571 -0.5732
 3047SOL    HW311961   0.767   0.272   0.422 -0.5296  1.8856 -0.5680
 3047SOL    MW411962   0.746   0.279   0.506 -0.2869 -0.1795  0.0045
 3048SOL     OW11963   1.283   2.270   2.110  0.3979 -0.0025 -0.2932
 3048SOL    HW211964   1.303   2.242   2.020 -0.1037  1.4637 -0.8856
 3048SOL    HW311965   1.369   2.283   2.150  0.6513  0.9921 -1.1151
 3048SOL    MW411966   1.297   2.268   2.103 -0.1190 -0.0388  0.5980
 3049SOL     OW11967   4.852   3.882   0.060 -0.0309 -0.4574 -0.7084
 3049SOL    HW211968   4.852   3.894   0.155  0.2227  0.3860 -0.8065
 3049SOL    HW311969   4.943   3.894   0.034 -0.4049  1.4302 -1.2878
 3049SOL    MW411970   4.864   3.885   0.069  0.3301 -0.4104  0.6170
 3050SOL     OW11971   0.917   4.151   0.168 -0.1660  0.9513 -0.7330
 3050SOL    HW211972   0.911   4.202   0.087  0.4568  0.6754 -0.9647
 3050SOL    HW311973   1.009   4.125   0.172 -0.7274 -1.3760 -1.3689
 3050SOL    MW411974   0.929   4.155   0.158  0.4512  0.2660 -0.4480
 3051SOL     OW11975   1.546   4.993   5.089  0.5173  0.3231  0.6919
 3051SOL    HW211976   1.552   4.898   5.104  0.6795  0.2917  0.4267
 3051SOL    HW311977   1.636   5.024   5.091  0.4506  0.5044  0.9712
 3051SOL    MW411978   1.559   4.984   5.091  0.1324  0.2923  0.4025
 3052SOL     OW11979   5.986   5.276   2.727 -0.3500  0.8116  0.7427
 3052SOL    HW211980   5.908   5.321   2.695  0.0529  1.0483  0.0799
 3052SOL    HW311981   5.995   5.200   2.670  0.3431  1.2062  0.3187
 3052SOL    MW411982   5.977   5.272   2.715  0.4193  0.5411 -0.3667
 3053SOL     OW11983   3.145   0.440   3.655 -0.3086  0.4191  0.1820
 3053SOL    HW211984   3.075   0.473   3.599 -1.0320 -0.3196  0.6343
 3053SOL    HW311985   3.161   0.351   3.623  0.8966  0.8059 -0.3492
 3053SOL    MW411986   3.138   0.433   3.643 -0.3713  0.0887  0.2512
 3054SOL     OW11987   3.242   2.333   0.646 -0.0780 -0.1552  0.2977
 3054SOL    HW211988   3.212   2.249   0.680  0.3693 -0.2236  0.5313
 3054SOL    HW311989   3.224   2.395   0.717  1.8123 -0.4725  1.1164
 3054SOL    MW411990   3.236   2.330   0.660  0.0972  0.1148 -0.0975
 3055SOL     OW11991   3.649   4.888   5.819  0.0511 -0.1578  0.5403
 3055SOL    HW211992   3.661   4.794   5.809  0.6545  0.0813 -1.3337
 3055SOL    HW311993   3.738   4.924   5.814 -0.2115  0.5530  0.7784
 3055SOL    MW411994   3.663   4.881   5.817 -0.4716 -0.2894 -0.0924
 3056SOL     OW11995   1.772   5.074   4.079 -0.0656  0.0421 -0.0082
 3056SOL    HW211996   1.770   5.169   4.084  0.4019  0.2091 -2.0658
 3056SOL    HW311997   1.863   5.053   4.057 -0.6743 -0.6513 -2.1317
 3056SOL    MW411998   1.784   5.084   4.076  0.0501 -0.6367  0.0162
 3057SOL     OW11999   2.926   0.411   2.724  0.1300 -0.1740  0.2444
 3057SOL    HW212000   2.891   0.495   2.696 -1.4064 -0.8119  0.1508
 3057SOL    HW312001   2.881   0.391   2.805  0.5017 -0.9029  0.2834
 3057SOL    MW412002   2.916   0.419   2.731  0.4707  0.0864 -0.6936
 3058SOL     OW12003   0.420   2.263   1.796 -0.1449  0.1972 -0.0008
 3058SOL    HW212004   0.372   2.339   1.827  1.6405  1.4569 -0.1538
 3058SOL    HW312005   0.461   2.292   1.714 -0.3074 -1.2921 -0.6451
 3058SOL    MW412006   0.419   2.277   1.789  0.7313  0.1193  0.7754
 3059SOL     OW12007   4.451   3.710   1.428 -0.7247  0.6716  0.4545
 3059SOL    HW212008   4.510   3.679   1.360 -1.0590 -1.2127  0.9660
 3059SOL    HW312009   4.482   3.667   1.508 -1.1677  1.7791  1.2497
 3059SOL    MW412010   4.463   3.701   1.430 -0.1016 -0.2027 -0.1135
 3060SOL     OW12011   0.328   0.641   6.145  0.1836  0.5117  0.3636
 3060SOL    HW212012   0.317   0.693   6.225  1.1184 -0.6141  1.2623
 3060SOL    HW312013   0.242   0.602   6.130  0.8368 -2.4761  3.1934
 3060SOL    MW412014   0.315   0.643   6.154 -0.1685 -0.7429  0.7719
 3061SOL     OW12015   2.134   2.841   5.407 -0.5757 -0.1611  0.0187
 3061SOL    HW212016   2.090   2.769   5.451 -1.0238  1.3359  2.2201
 3061SOL    HW312017   2.227   2.830   5.430 -0.0790 -1.8315 -2.4355
 3061SOL    MW412018   2.141   2.830   5.416  0.5082 -0.8883 -0.1054
 3062SOL     OW12019   2.969   5.233   6.382  0.3300  0.0650  0.3175
 3062SOL    HW212020   3.033   5.162   6.374 -0.1493 -0.2940 -0.4595
 3062SOL    HW312021   2.888   5.195   6.349  0.0950  1.0181 -0.2087
 3062SOL    MW412022   2.967   5.219   6.377 -0.1841 -0.7957 -0.1955
 3063SOL     OW12023   2.250   2.115   0.478  0.0898  0.1931  0.5098
 3063SOL    HW212024   2.327   2.059   0.476 -0.2499 -0.2805 -1.1919
 3063SOL    HW312025   2.273   2.185   0.539  1.4823 -0.4674  0.7859
 3063SOL    MW412026   2.263   2.117   0.486  0.2979  0.8235  0.5219
 3064SOL     OW12027   0.725   6.199   3.637  0.3147  0.0273 -0.8298
 3064SOL    HW212028   0.694   6.287   3.616 -0.2956 -0.0199 -0.1463
 3064SOL    HW312029   0.819   6.210   3.654 -0.3985  1.3837  3.5234
 3064SOL    MW412030   0.733   6.212   3.636 -0.0080 -0.1888  0.0834
 3065SOL     OW12031   3.251   0.437   5.120 -0.1883 -0.0330  0.3233
 3065SOL    HW212032   3.298   0.366   5.163 -0.6822  0.0722  1.0561
 3065SOL    HW312033   3.171   0.447   5.171 -1.6559 -1.0740 -1.6423
 3065SOL    MW412034   3.247   0.429   5.132  0.5463  0.4180  0.0271
 3066SOL     OW12035   2.487   0.035   2.435  0.3386  0.0972 -0.0718
 3066SOL    HW212036   2.581   0.047   2.448  0.4230  2.3295 -2.0398
 3066SOL    HW312037   2.479  -0.053   2.398  1.4563 -0.6698  1.3968
 3066SOL    MW412038   2.499   0.025   2.431  0.0677  0.0291  0.0749
 3067SOL     OW12039   0.075   1.747   3.833  0.8234 -0.2692  0.3204
 3067SOL    HW212040  -0.001   1.695   3.856  0.5983 -0.0581  0.0591
 3067SOL    HW312041   0.137   1.684   3.795  0.2792 -0.2409 -0.6398
 3067SOL    MW412042   0.073   1.732   3.831 -0.0813 -0.4298  0.7636
 3068SOL     OW12043   2.510   5.424   6.310 -0.2060 -0.0130 -0.4090
 3068SOL    HW212044   2.588   5.479   6.314 -1.4193  1.7656 -0.1680
 3068SOL    HW312045   2.523   5.370   6.231  1.5147 -0.2140 -0.0381
 3068SOL    MW412046   2.522   5.424   6.300 -0.0282  0.1629  0.6243
 3069SOL     OW12047   2.550   4.998   4.099  0.1453  0.5866 -0.4977
 3069SOL    HW212048   2.517   4.948   4.025  0.9171  0.9756 -1.1215
 3069SOL    HW312049   2.630   4.952   4.126 -1.6397 -1.3305  2.0686
 3069SOL    MW412050   2.556   4.985   4.093 -0.2982 -0.1494 -0.0459
 3070SOL     OW12051   0.036   5.993   2.069  0.4302  0.1960 -0.2548
 3070SOL    HW212052  -0.038   6.055   2.069 -0.1408 -0.4734  0.2477
 3070SOL    HW312053   0.097   6.029   2.134  0.0386  0.1622  0.1343
 3070SOL    MW412054   0.034   6.006   2.078 -0.3166  0.0708  0.1807
 3071SOL     OW12055   2.970   0.563   1.482 -0.0024  0.5181  0.6003
 3071SOL    HW212056   2.969   0.572   1.387  1.0347 -0.1550  0.5201
 3071SOL    HW312057   2.938   0.648   1.514  2.8125  2.0395 -0.2763
 3071SOL    MW412058   2.965   0.576   1.473 -0.2089 -0.7429 -0.0347
 3072SOL     OW12059   5.553   2.917   4.914  0.4070 -0.4952 -0.7480
 3072SOL    HW212060   5.603   2.981   4.964  0.0325 -0.4307 -0.4523
 3072SOL    HW312061   5.522   2.966   4.837  0.1457 -0.3256 -0.5363
 3072SOL    MW412062   5.555   2.932   4.910  0.2003  0.5340 -0.0120
 3073SOL     OW12063   4.052   5.681   3.449  0.1027  0.0852 -0.2642
 3073SOL    HW212064   4.124   5.700   3.389  2.7544 -0.1108  2.5875
 3073SOL    HW312065   4.063   5.589   3.471 -0.3413  0.3087  0.9829
 3073SOL    MW412066   4.063   5.672   3.444  0.3021  0.1222  0.2211
 3074SOL     OW12067   4.333   5.923   4.543 -0.3304  0.0932  0.2565
 3074SOL    HW212068   4.351   5.978   4.467  0.0008 -0.2385  0.0952
 3074SOL    HW312069   4.344   5.981   4.618 -0.0520  0.2637  0.0825
 3074SOL    MW412070   4.337   5.938   4.543 -0.2606 -0.8620  0.6118
 3075SOL     OW12071   0.654   4.198   5.192  0.0449  0.1538 -0.1254
 3075SOL    HW212072   0.749   4.213   5.195  0.2674 -1.0055 -0.7470
 3075SOL    HW312073   0.645   4.104   5.177 -1.2057  0.3351 -0.6521
 3075SOL    MW412074   0.666   4.187   5.190  0.1561 -0.4106 -0.2946
 3076SOL     OW12075   3.248   6.112   6.329 -0.0628  0.2362  0.0865
 3076SOL    HW212076   3.186   6.080   6.263 -0.1057  1.7358 -0.6319
 3076SOL    HW312077   3.197   6.117   6.410 -0.7040  0.7762 -0.3400
 3076SOL    MW412078   3.233   6.108   6.331 -0.4303  0.0531  0.3645
 3077SOL     OW12079   5.470   3.320   1.276 -0.4924 -0.1037  0.2155
 3077SOL    HW212080   5.418   3.266   1.336 -2.2536  1.6059  0.3500
 3077SOL    HW312081   5.432   3.408   1.285  0.5167  0.6054 -1.9148
 3077SOL    MW412082   5.458   3.324   1.285  0.2331  0.0591  0.1628
 3078SOL     OW12083   4.218   6.028   0.189  0.4094  0.3057  0.3478
 3078SOL    HW212084   4.302   5.985   0.205 -0.8210 -2.1400  0.6731
 3078SOL    HW312085   4.230   6.074   0.106  1.8742 -0.5685  0.0463
 3078SOL    MW412086   4.231   6.028   0.180 -0.6341  0.0705 -0.1781
 3079SOL     OW12087   0.946   1.643   0.466  0.2318  0.3041  0.0965
 3079SOL    HW212088   0.867   1.663   0.518  0.5496 -0.1233  0.7617
 3079SOL    HW312089   0.977   1.560   0.502  1.0868  0.5614 -0.0368
 3079SOL    MW412090   0.940   1.635   0.478 -0.0747 -0.0537  0.1168
 3080SOL     OW12091   1.965   3.849   0.626 -0.1905 -0.5001  0.3487
 3080SOL    HW212092   1.891   3.813   0.577  0.5652 -0.0429 -1.1737
 3080SOL    HW312093   2.043   3.820   0.579  0.4865  2.2645 -0.4657
 3080SOL    MW412094   1.965   3.841   0.613  0.4935 -0.1868  0.1412
 3081SOL     OW12095   1.889   1.836   4.875 -0.3886 -0.6081 -0.0933
 3081SOL    HW212096   1.968   1.874   4.915 -0.3638 -1.3733  0.6127
 3081SOL    HW312097   1.824   1.906   4.881 -0.4212 -0.7175  1.4279
 3081SOL    MW412098   1.891   1.850   4.881  0.3540  0.4919  0.4548
 3082SOL     OW12099   6.301   2.315   3.840  0.7155 -0.2550  0.5896
 3082SOL    HW212100   6.340   2.372   3.907  1.5046 -1.2431  0.9937
 3082SOL    HW312101   6.347   2.232   3.850  0.3240 -0.6448 -0.7023
 3082SOL    MW412102   6.312   2.312   3.850 -0.4215  0.2265  0.3255
 3083SOL     OW12103   1.560   2.755   5.673 -0.8728 -0.7503  0.7256
 3083SOL    HW212104   1.530   2.677   5.720  1.5979 -1.5609  1.0916
 3083SOL    HW312105   1.606   2.806   5.739  1.2413 -1.1102 -0.3935
 3083SOL    MW412106   1.562   2.752   5.688  0.1952 -0.5873  0.5308
 3084SOL     OW12107   4.442   6.251   0.466  0.2859 -0.2592  0.0371
 3084SOL    HW212108   4.536   6.236   0.458  0.1010 -1.2773 -0.3853
 3084SOL    HW312109   4.408   6.169   0.501 -0.4647  0.0649  0.0817
 3084SOL    MW412110   4.450   6.238   0.470 -0.1948 -0.9499  0.2085
 3085SOL     OW12111   3.752   3.197   1.041 -0.1192 -0.4016 -0.4249
 3085SOL    HW212112   3.667   3.242   1.042 -0.1229 -0.3563  1.2561
 3085SOL    HW312113   3.764   3.170   0.950 -1.0912  1.1665 -1.0669
 3085SOL    MW412114   3.742   3.199   1.029  0.2787 -0.1430  0.5747
 3086SOL     OW12115   4.890   4.041   2.785  0.2152  0.2213  0.0862
 3086SOL    HW212116   4.979   4.041   2.819 -0.4328 -1.0271  1.8901
 3086SOL    HW312117   4.880   3.955   2.744 -0.1989  0.2988  0.0214
 3086SOL    MW412118   4.900   4.030   2.784  0.5816  0.2662 -0.1374
 3087SOL     OW12119   0.384   4.966   4.852 -0.1662 -0.0405  0.0071
 3087SOL    HW212120   0.299   5.008   4.862 -0.6206 -0.8700 -0.3063
 3087SOL    HW312121   0.443   5.018   4.907 -0.8794  0.5112  0.2606
 3087SOL    MW412122   0.381   4.978   4.861 -0.3569  0.2554  0.9403
 3088SOL     OW12123   0.628   1.481   0.180  0.2737  0.1238  0.2884
 3088SOL    HW212124   0.587   1.488   0.266 -0.6379  1.0166 -0.2046
 3088SOL    HW312125   0.688   1.555   0.175 -1.6719  1.7602 -0.8469
 3088SOL    MW412126   0.630   1.492   0.190  0.2584 -0.0418  1.0130
 3089SOL     OW12127   3.555   3.340   0.410 -0.2139  0.1706 -0.3700
 3089SOL    HW212128   3.572   3.260   0.361 -0.8179 -0.1868 -0.0051
 3089SOL    HW312129   3.582   3.411   0.351 -1.9929 -0.1850 -1.7082
 3089SOL    MW412130   3.561   3.339   0.395 -0.1067  0.2865 -0.2049
 3090SOL     OW12131   4.107   3.321   5.353  0.4232  0.3410 -0.3971
 3090SOL    HW212132   4.062   3.376   5.416 -0.8535 -2.9541  1.7843
 3090SOL    HW312133   4.198   3.320   5.382 -0.1266 -1.0224  1.4043
 3090SOL    MW412134   4.113   3.328   5.365 -0.1679  1.4285 -0.1118
 3091SOL     OW12135   4.402   5.836   3.645  0.1241  0.4098  0.5384
 3091SOL    HW212136   4.448   5.767   3.596 -1.0977  1.7282 -2.7520
 3091SOL    HW312137   4.458   5.913   3.636 -0.4033  0.8234  0.7238
 3091SOL    MW412138   4.416   5.837   3.637 -0.0079  0.2312  0.1887
 3092SOL     OW12139   5.048   1.459   3.871  1.0025 -0.2829 -0.0421
 3092SOL    HW212140   5.066   1.493   3.958 -0.5836  0.8959 -0.1253
 3092SOL    HW312141   4.986   1.387   3.885  0.4192  0.1790 -0.2085
 3092SOL    MW412142   5.042   1.454   3.884 -0.0933  0.5535 -0.4343
 3093SOL     OW12143   5.411   1.276   1.736  0.0796  0.1870  0.0952
 3093SOL    HW212144   5.342   1.214   1.715 -1.1355  1.6736 -0.4956
 3093SOL    HW312145   5.403   1.291   1.830 -0.1309  0.0441  0.0991
 3093SOL    MW412146   5.401   1.270   1.746  0.1831 -0.1856  0.0513
 3094SOL     OW12147   5.257   1.405   4.378 -0.1555  0.1137 -0.3184
 3094SOL    HW212148   5.302   1.471   4.325  3.0793 -0.6092  1.3315
 3094SOL    HW312149   5.196   1.456   4.432  2.2848  1.8678  0.9430
 3094SOL    MW412150   5.255   1.421   4.378 -0.3379  0.0604  0.4005
 3095SOL     OW12151   5.458   2.396   4.857  0.3570 -0.6798 -0.9087
 3095SOL    HW212152   5.389   2.406   4.923  1.8859  0.2901  0.6305
 3095SOL    HW312153   5.498   2.483   4.851  0.7518 -0.9405 -2.6125
 3095SOL    MW412154   5.454   2.409   4.865 -0.0663 -0.0565  0.0077
 3096SOL     OW12155   1.035   2.047   2.024  0.3948 -0.4618  0.1666
 3096SOL    HW212156   1.040   2.053   2.119  1.6560  0.4205  0.0660
 3096SOL    HW312157   1.123   2.024   1.996 -0.4281 -2.8474 -0.6889
 3096SOL    MW412158   1.047   2.045   2.033 -0.7035  0.2831  0.1351
 3097SOL     OW12159   1.872   6.172   5.895  0.4033 -0.0852 -0.2645
 3097SOL    HW212160   1.807   6.102   5.882 -1.3848  1.7548 -1.9787
 3097SOL    HW312161   1.897   6.198   5.806  0.7264  1.6899  0.3079
 3097SOL    MW412162   1.866   6.166   5.881  0.5215 -0.2966 -0.3542
 3098SOL     OW12163   1.188   5.781   1.926  0.3454 -0.0386 -0.2087
 3098SOL    HW212164   1.246   5.851   1.956 -1.1534  0.9847  0.4093
 3098SOL    HW312165   1.216   5.704   1.975  2.5093 -0.1298 -1.4436
 3098SOL    MW412166   1.200   5.780   1.936 -0.1975  0.1297  0.0976
 3099SOL     OW12167   5.450   3.053   3.301 -0.2933  0.5066 -0.2562
 3099SOL    HW212168   5.494   3.041   3.385 -0.2602 -0.6668 -0.4338
 3099SOL    HW312169   5.359   3.029   3.317 -0.8378  2.5560  0.0108
 3099SOL    MW412170   5.444   3.049   3.314  0.0986  0.1641  0.5566
 3100SOL     OW12171   5.455   6.112   0.152 -0.4294 -0.2815  0.3286
 3100SOL    HW212172   5.478   6.203   0.131  0.3887 -0.4483  0.4807
 3100SOL    HW312173   5.484   6.100   0.242 -1.6285 -0.3387  0.7225
 3100SOL    MW412174   5.462   6.123   0.161 -0.2594  0.1814  0.0531
 3101SOL     OW12175   4.312   6.381   4.696 -0.1057  0.5229 -0.1676
 3101SOL    HW212176   4.318   6.410   4.605  1.1325  0.9298  0.0289
 3101SOL    HW312177   4.229   6.416   4.727 -1.0649 -0.5142 -1.4363
 3101SOL    MW412178   4.302   6.390   4.688  0.3165  0.4936 -0.8672
 3102SOL     OW12179   4.885   6.267   6.053  0.1511 -0.6525  0.0211
 3102SOL    HW212180   4.800   6.237   6.020  0.4569 -1.1227 -0.3406
 3102SOL    HW312181   4.871   6.359   6.074 -0.2414 -0.5224 -0.7674
 3102SOL    MW412182   4.872   6.275   6.051  0.5839 -0.2063 -0.1106
 3103SOL     OW12183   0.420   5.713   0.216  0.0112  0.6892  0.2884
 3103SOL    HW212184   0.496   5.702   0.273 -0.4093 -1.0288  0.5818
 3103SOL    HW312185   0.349   5.735   0.275  0.6086  4.7104 -0.1844
 3103SOL    MW412186   0.421   5.715   0.231 -0.1628  0.9132 -0.8366
 3104SOL     OW12187   5.653   0.152   1.216 -0.4575 -0.2936 -0.2619
 3104SOL    HW212188   5.581   0.205   1.182  0.3199  0.4253 -0.8352
 3104SOL    HW312189   5.611   0.084   1.269 -1.5141  0.4340 -0.1564
 3104SOL    MW412190   5.638   0.150   1.219  0.1462  0.1194 -0.1951
 3105SOL     OW12191   0.061   0.125   3.818 -0.2986 -0.1478 -0.1580
 3105SOL    HW212192   0.081   0.196   3.758  1.4404  0.2724  0.8658
 3105SOL    HW312193   0.115   0.052   3.788 -0.1873 -0.2520  0.2858
 3105SOL    MW412194   0.071   0.124   3.806 -0.2927  0.0724  0.0477
 3106SOL     OW12195   1.225   3.416   2.687  0.2352 -0.2790 -0.4338
 3106SOL    HW212196   1.292   3.374   2.633  0.0784 -1.8030  0.5057
 3106SOL    HW312197   1.153   3.433   2.626  0.8831 -0.0026 -1.1391
 3106SOL    MW412198   1.225   3.413   2.672  0.1755  0.4371  0.7272
 3107SOL     OW12199   5.856   1.940   4.158 -0.1762  0.1765  0.1378
 3107SOL    HW212200   5.934   1.992   4.176 -0.0634 -0.1341  0.5483
 3107SOL    HW312201   5.783   2.001   4.170 -0.0474  0.2199  0.7089
 3107SOL    MW412202   5.856   1.955   4.162 -0.0533  0.4776 -0.5300
 3108SOL     OW12203   0.499   3.710   4.242 -0.0658  0.2408 -0.1792
 3108SOL    HW212204   0.584   3.720   4.200 -0.2811  0.4683 -0.5738
 3108SOL    HW312205   0.468   3.624   4.214  0.2902 -0.1000  0.4482
 3108SOL    MW412206   0.506   3.700   4.233 -0.2142  0.2873 -0.3437
 3109SOL     OW12207   0.947   5.989   1.316 -0.3406 -0.0197  0.6469
 3109SOL    HW212208   1.041   5.970   1.311 -0.3409 -0.1565  1.0564
 3109SOL    HW312209   0.936   6.068   1.264 -0.3169 -1.0337 -0.9468
 3109SOL    MW412210   0.958   5.997   1.309  0.0482 -0.1761 -0.0636
 3110SOL     OW12211   4.968   1.854   1.630  0.6037 -0.8138 -0.0427
 3110SOL    HW212212   5.039   1.862   1.567  2.1879  1.7184  1.8338
 3110SOL    HW312213   5.005   1.805   1.703 -1.1080 -3.4739 -0.8252
 3110SOL    MW412214   4.982   1.849   1.632 -0.2001  0.2275  0.2251
 3111SOL     OW12215   0.459   4.804   3.720  0.0370  0.0698  0.2744
 3111SOL    HW212216   0.533   4.819   3.778  0.4889  1.9161 -0.7131
 3111SOL    HW312217   0.387   4.854   3.759  0.2756  1.1128 -0.5732
 3111SOL    MW412218   0.459   4.812   3.733 -0.0612  0.7638  0.0547
 3112SOL     OW12219   1.499   5.541   1.992 -0.0609  0.1054  0.2841
 3112SOL    HW212220   1.441   5.602   2.037  1.6027  2.3675 -0.4637
 3112SOL    HW312221   1.587   5.564   2.022  0.9098  0.2170 -2.3632
 3112SOL    MW412222   1.503   5.552   2.002 -0.0475 -0.1825  0.0901
 3113SOL     OW12223   5.603   3.023   5.401  0.1169  0.2174 -0.8670
 3113SOL    HW212224   5.542   3.017   5.327  0.2231  0.6941 -0.9990
 3113SOL    HW312225   5.589   2.943   5.451 -0.7622  0.4151 -0.7847
 3113SOL    MW412226   5.593   3.012   5.398 -0.0117 -0.8355 -0.5788
 3114SOL     OW12227   4.883   3.526   6.024 -0.2063 -0.1991  0.7747
 3114SOL    HW212228   4.903   3.491   6.111  2.1723  0.0906  0.4350
 3114SOL    HW312229   4.906   3.454   5.964  0.5956  0.4304  0.2967
 3114SOL    MW412230   4.889   3.512   6.027  1.0629  0.0031  0.3412
 3115SOL     OW12231   0.334   4.494   0.973  0.0313 -0.5828 -0.0710
 3115SOL    HW212232   0.288   4.519   1.053  1.2831 -1.1520  0.8639
 3115SOL    HW312233   0.399   4.430   1.002  1.6160  0.4005 -1.2576
 3115SOL    MW412234   0.337   4.489   0.987 -0.1751  0.3906 -0.6244
 3116SOL     OW12235   3.000   5.245   1.336  0.1694  0.0599  0.2984
 3116SOL    HW212236   3.017   5.175   1.399 -2.3818 -0.6179  0.3601
 3116SOL    HW312237   3.077   5.301   1.341  1.5708 -1.8504  1.4610
 3116SOL    MW412238   3.012   5.243   1.345 -0.5176 -0.6306  0.4224
 3117SOL     OW12239   3.508   0.150   4.266 -0.2858  0.0329 -0.3182
 3117SOL    HW212240   3.453   0.152   4.188 -1.7243  0.4645  0.6691
 3117SOL    HW312241   3.458   0.198   4.332  0.0005 -1.9367  1.4255
 3117SOL    MW412242   3.494   0.157   4.264  0.2980 -0.0610  0.6804
 3118SOL     OW12243   3.600   6.355   0.229 -0.8243  0.2919  0.2016
 3118SOL    HW212244   3.601   6.439   0.276 -0.4213 -0.1030  0.8984
 3118SOL    HW312245   3.510   6.349   0.195 -0.5260  1.5944 -0.9459
 3118SOL    MW412246   3.588   6.365   0.231 -0.0455 -0.2415 -0.2587
 3119SOL     OW12247   5.104   4.262   4.991 -0.0154 -0.1995 -0.3188
 3119SOL    HW212248   5.082   4.337   4.936  0.9704 -0.7458 -1.4936
 3119SOL    HW312249   5.176   4.218   4.945 -1.3788 -2.6026 -0.3392
 3119SOL    MW412250   5.111   4.266   4.978 -0.5625 -0.1954  0.5385
 3120SOL     OW12251   1.938   5.568   1.581  0.3305  0.0086 -0.2037
 3120SOL    HW212252   1.854   5.522   1.579  0.5149 -0.4851  1.5078
 3120SOL    HW312253   1.988   5.528   1.510 -0.7056 -0.0047 -0.9598
 3120SOL    MW412254   1.933   5.557   1.571 -0.0594 -0.6394 -0.1116
 3121SOL     OW12255   2.048   2.346   1.800 -0.3490  0.0117 -0.2598
 3121SOL    HW212256   2.076   2.372   1.888 -0.5941  0.4519 -0.3114
 3121SOL    HW312257   2.102   2.398   1.741  0.9610 -1.4592 -0.3991
 3121SOL    MW412258   2.059   2.356   1.804 -0.3767  0.7254  0.3453
 3122SOL     OW12259   0.485   6.297   0.268  0.1523  0.6521  0.4486
 3122SOL    HW212260   0.560   6.240   0.287 -0.3004 -0.6979 -1.5013
 3122SOL    HW312261   0.525   6.380   0.242  1.1043 -0.4445 -1.8479
 3122SOL    MW412262   0.500   6.301   0.267  0.0635  0.1519 -0.2428
 3123SOL     OW12263   4.425   4.685   1.383  0.3582  0.1465  0.5795
 3123SOL    HW212264   4.510   4.683   1.427 -0.2221 -0.5180  1.6891
 3123SOL    HW312265   4.361   4.664   1.451 -0.4039 -3.2042 -0.9905
 3123SOL    MW412266   4.428   4.682   1.398  0.2388 -0.3030 -0.2223
 3124SOL     OW12267   4.555   0.291   5.143  0.0129 -0.1250  0.1548
 3124SOL    HW212268   4.649   0.310   5.148  0.1512 -0.8969  0.5083
 3124SOL    HW312269   4.534   0.300   5.050  0.2703  0.7897  0.1696
 3124SOL    MW412270   4.565   0.295   5.131 -0.3612 -0.1792 -0.3619
 3125SOL     OW12271   3.052   0.477   2.058 -0.0866 -0.0474  0.0214
 3125SOL    HW212272   3.073   0.488   2.151 -0.9571 -2.2675  0.5580
 3125SOL    HW312273   2.989   0.546   2.039 -1.2891 -0.6385  1.6163
 3125SOL    MW412274   3.047   0.487   2.068 -0.7565 -0.4415  0.1926
 3126SOL     OW12275   5.915   6.369   4.447  0.3474  0.1222 -0.2808
 3126SOL    HW212276   5.869   6.343   4.526 -0.4118 -1.5300 -1.2106
 3126SOL    HW312277   5.853   6.424   4.399 -0.1512 -0.9047 -0.8493
 3126SOL    MW412278   5.901   6.373   4.451  0.9022  0.1828 -0.3352
 3127SOL     OW12279   3.821   5.051   3.350  0.6258 -0.1455 -0.0032
 3127SOL    HW212280   3.873   5.069   3.272 -0.7902 -1.5583 -1.3520
 3127SOL    HW312281   3.756   4.987   3.321 -1.1455  0.6965  1.8855
 3127SOL    MW412282   3.820   5.045   3.336  0.3760  0.0992  0.2155
 3128SOL     OW12283   0.740   5.677   0.014  0.4525 -0.0352 -0.0243
 3128SOL    HW212284   0.763   5.653  -0.076 -0.7119 -1.7010  0.0910
 3128SOL    HW312285   0.656   5.722   0.006  1.2391  1.5466  0.0791
 3128SOL    MW412286   0.732   5.680   0.001 -0.6162  0.1164  0.2949
 3129SOL     OW12287   0.862   1.248   1.699  0.1662  0.0144  0.9154
 3129SOL    HW212288   0.787   1.305   1.716 -0.7548 -1.3724  1.7049
 3129SOL    HW312289   0.824   1.160   1.690  1.3047 -0.3183 -2.0517
 3129SOL    MW412290   0.847   1.244   1.700 -0.3223  0.1273  0.6729
 3130SOL     OW12291   0.228   2.569   4.068  0.1832  0.1996 -0.4246
 3130SOL    HW212292   0.256   2.520   4.146 -1.3655 -2.3772 -1.3476
 3130SOL    HW312293   0.212   2.658   4.101  0.4488 -0.5676  2.0259
 3130SOL    MW412294   0.229   2.574   4.083 -0.3221  0.0023 -0.0425
 3131SOL     OW12295   0.430   5.860   2.632 -0.5440  0.4065  0.5384
 3131SOL    HW212296   0.456   5.871   2.723  0.6229 -1.4735  0.4785
 3131SOL    HW312297   0.357   5.797   2.635 -0.2453  0.0353  0.1589
 3131SOL    MW412298   0.424   5.853   2.644 -0.2000 -0.5882 -0.1310
 3132SOL     OW12299   3.894   3.624   0.255  0.7641  0.4274  0.3976
 3132SOL    HW212300   3.801   3.628   0.277  0.7188  0.6620  0.1665
 3132SOL    HW312301   3.896   3.623   0.159  1.0036  0.5633  0.4001
 3132SOL    MW412302   3.882   3.625   0.245 -0.0105 -0.0693  0.1820
 3133SOL     OW12303   0.805   0.317   0.235  0.6075  0.3799  0.0754
 3133SOL    HW212304   0.833   0.303   0.144  1.2412 -0.1803  0.3457
 3133SOL    HW312305   0.735   0.382   0.229 -0.5629 -0.9300 -0.9809
 3133SOL    MW412306   0.800   0.324   0.222  0.0827  0.2841 -0.0506
 3134SOL     OW12307   0.442   1.036   5.884 -0.1426  0.1943 -0.0107
 3134SOL    HW212308   0.481   1.119   5.856  1.0177 -0.0442  0.8356
 3134SOL    HW312309   0.482   1.018   5.969  1.0248 -2.1696 -0.9913
 3134SOL    MW412310   0.452   1.045   5.892 -0.0654 -0.3154 -0.2821
 3135SOL     OW12311   6.095   0.469   0.851 -0.1202  0.0141  0.5811
 3135SOL    HW212312   6.030   0.437   0.788  0.1299 -1.7418  1.1344
 3135SOL    HW312313   6.161   0.514   0.798 -1.5903  1.5487 -0.0204
 3135SOL    MW412314   6.095   0.470   0.836  0.3261  0.4929  0.1505
 3136SOL     OW12315   2.482   3.990   4.873  0.0355 -0.0826  0.0920
 3136SOL    HW212316   2.516   4.035   4.950  1.9749  0.3082 -0.9446
 3136SOL    HW312317   2.399   4.034   4.855  1.7005  3.0344 -0.7306
 3136SOL    MW412318   2.475   4.002   4.881 -0.9084 -0.0786 -0.1227
 3137SOL     OW12319   5.922   1.468   3.803  0.3720  0.0992 -0.2977
 3137SOL    HW212320   6.001   1.421   3.828  1.2952  0.7869 -1.8243
 3137SOL    HW312321   5.851   1.404   3.817  1.0709 -0.2919  1.7612
 3137SOL    MW412322   5.923   1.453   3.808 -0.8193 -0.1771  0.5241
 3138SOL     OW12323   2.916   4.173   5.971 -0.5110  0.2673  0.6154
 3138SOL    HW212324   2.939   4.166   5.878  1.0594  1.1275  0.8987
 3138SOL    HW312325   2.880   4.087   5.993  0.4360 -0.4471 -0.4562
 3138SOL    MW412326   2.914   4.161   5.962 -0.2712 -0.4551  1.3291
 3139SOL     OW12327   1.864   5.848   2.236 -0.4327  0.3506 -0.2549
 3139SOL    HW212328   1.883   5.887   2.321 -0.9050 -0.5572  0.2908
 3139SOL    HW312329   1.779   5.884   2.212 -0.6368  0.0554  0.0112
 3139SOL    MW412330   1.855   5.858   2.244  0.0473  0.1258 -0.2829
 3140SOL     OW12331   1.445   4.082   4.156  0.1945 -0.4833 -0.2929
 3140SOL    HW212332   1.536   4.111   4.154  0.9352 -2.3393  1.5650
 3140SOL    HW312333   1.439   4.015   4.088  0.7070 -1.4702  0.5991
 3140SOL    MW412334   1.456   4.077   4.147 -0.3297  0.4040  0.2404
 3141SOL     OW12335   1.358   3.151   6.253  0.1283 -0.6818 -0.1824
 3141SOL    HW212336   1.268   3.138   6.222 -1.4573  0.8285  3.2385
 3141SOL    HW312337   1.381   3.067   6.294 -1.2035 -0.1095  1.9441
 3141SOL    MW412338   1.349   3.138   6.254  0.5090 -0.6876  0.0341
 3142SOL     OW12339   2.552   4.570   1.073 -0.7435 -0.2433  0.4823
 3142SOL    HW212340   2.508   4.486   1.083  2.5855 -2.0889  1.1924
 3142SOL    HW312341   2.551   4.608   1.161 -0.5342 -0.4691  0.5809
 3142SOL    MW412342   2.546   4.564   1.086  0.1230  0.2468 -0.1254
 3143SOL     OW12343   2.496   2.910   4.782  0.1143  0.0676 -0.2935
 3143SOL    HW212344   2.488   2.993   4.829 -1.3941 -0.4123  0.3746
 3143SOL    HW312345   2.577   2.872   4.815  0.4830  0.9613 -0.1158
 3143SOL    MW412346   2.505   2.916   4.793  0.5102  0.2381  0.6143
 3144SOL     OW12347   0.823   0.811   2.864  0.0059  0.0511 -0.3382
 3144SOL    HW212348   0.915   0.828   2.844  0.2823 -0.1824  0.6725
 3144SOL    HW312349   0.823   0.787   2.956 -1.1720  0.9163 -0.0841
 3144SOL    MW412350   0.835   0.810   2.873  0.4600  0.1896  0.5975
 3145SOL     OW12351   1.508   3.481   4.027 -0.3132  0.3077  0.4557
 3145SOL    HW212352   1.491   3.410   4.090 -0.1265  1.2268  1.5655
 3145SOL    HW312353   1.584   3.527   4.063  0.0684  0.5980 -0.6864
 3145SOL    MW412354   1.516   3.477   4.040  0.6193  0.6807  0.1411
 3146SOL     OW12355   5.033   4.907   4.370 -0.4315 -0.1720 -0.6884
 3146SOL    HW212356   5.033   4.975   4.437 -0.7540 -1.8044  1.0532
 3146SOL    HW312357   4.955   4.925   4.317 -1.6002 -0.2379  0.9232
 3146SOL    MW412358   5.023   4.918   4.372 -0.0606 -0.7085 -0.7052
 3147SOL     OW12359   2.176   4.601   4.595  0.3459 -0.6991 -0.0369
 3147SOL    HW212360   2.195   4.662   4.524  0.4054 -1.0691 -0.3376
 3147SOL    HW312361   2.212   4.518   4.566 -0.2364 -1.0136  0.1262
 3147SOL    MW412362   2.183   4.598   4.582  0.2837 -0.4585  0.0570
 3148SOL     OW12363   2.217   2.826   2.841  0.1829  0.0510  0.1107
 3148SOL    HW212364   2.287   2.862   2.787 -0.4746  0.4879 -0.4583
 3148SOL    HW312365   2.223   2.875   2.923  0.8844 -0.2904  0.2699
 3148SOL    MW412366   2.227   2.837   2.845 -0.0467 -0.0903 -0.1795
 3149SOL     OW12367   3.820   3.781   4.764 -0.3015  0.3418 -0.3646
 3149SOL    HW212368   3.804   3.768   4.671 -2.6365 -0.6919  0.1050
 3149SOL    HW312369   3.774   3.708   4.807 -0.7683  1.7373  1.6724
 3149SOL    MW412370   3.812   3.770   4.757 -0.1167  0.0166  0.3143
 3150SOL     OW12371   5.087   0.786   5.400  0.0110  0.6299 -0.0820
 3150SOL    HW212372   5.050   0.734   5.330  0.0071  0.4285  0.0684
 3150SOL    HW312373   5.138   0.855   5.356  0.7488 -0.0298 -0.2846
 3150SOL    MW412374   5.089   0.788   5.385  0.3026 -0.0468 -0.0474
 3151SOL     OW12375   6.207   1.560   2.654 -0.2906  0.0599 -0.2595
 3151SOL    HW212376   6.131   1.511   2.624 -0.8069  0.7707 -0.1326
 3151SOL    HW312377   6.172   1.645   2.681  0.5902  0.5171 -0.5059
 3151SOL    MW412378   6.192   1.565   2.654 -0.0639  0.3361 -0.0442
 3152SOL     OW12379   5.079   6.145   2.251  0.1462 -0.2829 -0.0133
 3152SOL    HW212380   5.151   6.145   2.189  0.2040  0.1961  0.0487
 3152SOL    HW312381   5.116   6.184   2.331 -0.3087  0.4469 -0.1475
 3152SOL    MW412382   5.093   6.150   2.254 -0.3855 -0.5800  0.2283
 3153SOL     OW12383   1.484   4.470   5.417  0.0235  0.1899 -0.6190
 3153SOL    HW212384   1.444   4.383   5.411 -1.2280  0.5128  1.8521
 3153SOL    HW312385   1.428   4.526   5.362 -0.3263 -0.1956 -0.6585
 3153SOL    MW412386   1.471   4.466   5.409  0.2751  0.2568  0.3287
 3154SOL     OW12387   0.652   4.217   4.897 -0.2212  0.1771  0.2067
 3154SOL    HW212388   0.691   4.131   4.880 -1.0935 -0.5724  1.7880
 3154SOL    HW312389   0.656   4.226   4.992 -0.6613  1.6601  0.1054
 3154SOL    MW412390   0.658   4.207   4.907 -0.4684 -0.1203 -0.6257
 3155SOL     OW12391   1.205   0.265   1.700  0.1770 -0.3007 -0.3071
 3155SOL    HW212392   1.162   0.311   1.627 -0.4729 -0.8748 -0.2866
 3155SOL    HW312393   1.135   0.246   1.762  0.2920 -2.0069 -0.6594
 3155SOL    MW412394   1.190   0.269   1.698 -0.1556 -0.6047 -0.0166
 3156SOL     OW12395   0.076   1.825   3.556 -0.1840  0.2974  0.5606
 3156SOL    HW212396   0.060   1.822   3.651 -0.2517 -0.1998  0.5360
 3156SOL    HW312397   0.017   1.759   3.519 -0.5730  0.8972  0.1088
 3156SOL    MW412398   0.066   1.816   3.564  0.3516 -0.9345  0.1666
 3157SOL     OW12399   3.734   1.777   3.005 -0.0312 -0.0624  0.0970
 3157SOL    HW212400   3.800   1.819   3.060 -1.7701  0.0140  2.2621
 3157SOL    HW312401   3.724   1.689   3.043 -0.6211 -0.3541 -0.7043
 3157SOL    MW412402   3.742   1.771   3.017  0.4739  0.2342 -0.4478
 3158SOL     OW12403   6.388   2.648   2.752 -0.0700 -0.3176 -0.5411
 3158SOL    HW212404   6.343   2.595   2.687  0.7876 -1.1577 -0.4721
 3158SOL    HW312405   6.354   2.617   2.836  0.0990 -0.4410 -0.5186
 3158SOL    MW412406   6.378   2.637   2.754  0.2965 -0.1711  0.0609
 3159SOL     OW12407   2.527   2.216   2.216  0.0365  0.5105 -0.4123
 3159SOL    HW212408   2.549   2.178   2.132  0.4640  0.5323 -0.3089
 3159SOL    HW312409   2.436   2.246   2.206  0.1245  0.6113 -0.8933
 3159SOL    MW412410   2.518   2.215   2.204  0.1802 -0.1733 -0.2085
 3160SOL     OW12411   3.405   5.773   4.565  0.0797  0.7043  0.4472
 3160SOL    HW212412   3.457   5.807   4.492  0.9655 -0.5690  0.4519
 3160SOL    HW312413   3.320   5.815   4.555  0.8045  2.0966 -0.1337
 3160SOL    MW412414   3.401   5.783   4.554  0.1333  0.2585  0.0669
 3161SOL     OW12415   5.880   5.491   4.042  0.1410 -0.0723 -0.0188
 3161SOL    HW212416   5.807   5.499   3.981  0.6827 -0.9002 -0.7962
 3161SOL    HW312417   5.908   5.400   4.034  0.5741 -0.0462  1.0639
 3161SOL    MW412418   5.874   5.480   4.033  0.2380 -0.2071 -0.0011
 3162SOL     OW12419   0.925   1.194   4.549 -0.4055 -0.3032 -0.4642
 3162SOL    HW212420   0.883   1.137   4.483 -0.8950 -1.9360  1.1677
 3162SOL    HW312421   0.856   1.256   4.573 -0.4163 -0.0787 -1.0569
 3162SOL    MW412422   0.910   1.195   4.543  0.1857 -0.1582 -0.5109
 3163SOL     OW12423   4.394   0.525   5.200 -0.1259  0.0063 -0.2059
 3163SOL    HW212424   4.449   0.447   5.205  0.0117  0.1132 -0.0331
 3163SOL    HW312425   4.305   0.491   5.199 -0.0925 -0.1285  0.6136
 3163SOL    MW412426   4.390   0.510   5.201 -0.0698 -0.1384  0.1109
 3164SOL     OW12427   4.269   2.734   1.075 -0.2732  0.0650 -0.6712
 3164SOL    HW212428   4.360   2.710   1.093 -0.0220  1.3655 -0.0497
 3164SOL    HW312429   4.232   2.658   1.031  1.0671 -0.5581 -0.7731
 3164SOL    MW412430   4.276   2.721   1.072 -0.1432 -0.4374 -0.1076
 3165SOL     OW12431   4.299   2.042   4.487 -0.0423  0.1275  0.3599
 3165SOL    HW212432   4.341   2.082   4.563  2.0318  3.5497 -2.2727
 3165SOL    HW312433   4.219   2.093   4.474 -0.9382 -1.1210  0.7352
 3165SOL    MW412434   4.294   2.054   4.496  0.0531  0.5923 -0.1338
 3166SOL     OW12435   3.921   3.749   0.668 -0.2669 -0.2716 -0.5882
 3166SOL    HW212436   3.925   3.845   0.668  1.2943 -0.3039 -0.0670
 3166SOL    HW312437   3.972   3.724   0.745 -2.8475 -1.4824  0.8505
 3166SOL    MW412438   3.928   3.759   0.678 -0.0649 -0.4789  0.1312
 3167SOL     OW12439   4.959   4.315   5.717 -0.0664 -0.1587 -0.9326
 3167SOL    HW212440   5.041   4.272   5.744  0.0938  0.1403 -0.9329
 3167SOL    HW312441   4.971   4.332   5.624  0.0853  0.3522 -0.8218
 3167SOL    MW412442   4.972   4.311   5.709 -0.3787  0.2014  0.3338
 3168SOL     OW12443   5.954   3.873   5.646 -0.4580  0.2373 -0.3584
 3168SOL    HW212444   5.864   3.841   5.644 -0.1074 -0.7779 -0.4916
 3168SOL    HW312445   5.982   3.871   5.554  0.4039 -1.5858 -0.1026
 3168SOL    MW412446   5.946   3.869   5.633 -0.1903 -0.5777  0.5913
 3169SOL     OW12447   1.792   5.696   1.252  0.3623 -0.0393  0.1252
 3169SOL    HW212448   1.770   5.665   1.164 -0.8158 -1.1350  0.7678
 3169SOL    HW312449   1.836   5.621   1.294 -1.4254 -0.4891  1.3066
 3169SOL    MW412450   1.795   5.682   1.246  0.5398 -0.1326 -0.4835
 3170SOL     OW12451   0.493   2.056   2.859 -0.5888  0.0326 -0.1872
 3170SOL    HW212452   0.470   2.046   2.767 -0.4050  0.8130 -0.3261
 3170SOL    HW312453   0.428   2.005   2.906 -2.0960  1.4960 -0.6132
 3170SOL    MW412454   0.482   2.048   2.853 -0.8448  0.1462  0.1304
 3171SOL     OW12455   3.443   6.070   0.246 -0.0635 -0.3524 -0.3195
 3171SOL    HW212456   3.431   5.979   0.218 -0.7918 -0.6204  0.8128
 3171SOL    HW312457   3.357   6.111   0.234 -0.3712 -0.4528  1.3716
 3171SOL    MW412458   3.430   6.064   0.241  0.2616 -0.5179 -0.3730
 3172SOL     OW12459   4.892   0.060   1.453  0.5733  0.0355  0.3348
 3172SOL    HW212460   4.797   0.057   1.441 -0.0731  1.5180  3.9039
 3172SOL    HW312461   4.922   0.121   1.386 -1.1036  0.2076 -0.3136
 3172SOL    MW412462   4.883   0.068   1.443  0.2351 -0.2969 -0.3763
 3173SOL     OW12463   6.265   3.526   3.761 -0.8356  0.0957  0.0730
 3173SOL    HW212464   6.313   3.585   3.702 -2.1367 -0.1422 -1.2800
 3173SOL    HW312465   6.175   3.529   3.729 -1.4759 -0.4568  1.7647
 3173SOL    MW412466   6.260   3.534   3.749  0.0688  0.1048 -0.3256
 3174SOL     OW12467   4.019   4.122   4.336 -0.2167  0.0299  0.2791
 3174SOL    HW212468   4.112   4.141   4.348 -0.5041  1.4984  0.4427
 3174SOL    HW312469   4.015   4.070   4.256  0.7699 -0.2944  0.4318
 3174SOL    MW412470   4.031   4.118   4.327 -0.2342  0.9172 -0.6389
 3175SOL     OW12471   0.743   5.127   0.991  0.5311 -0.1528 -0.1353
 3175SOL    HW212472   0.801   5.174   0.932  0.9019  2.0151  1.8408
 3175SOL    HW312473   0.657   5.131   0.948  0.1261  3.9999  0.6577
 3175SOL    MW412474   0.739   5.134   0.977  0.2916 -0.4982  0.1914
 3176SOL     OW12475   4.573   1.697   1.262  0.2209  0.7757  0.0091
 3176SOL    HW212476   4.667   1.714   1.264 -0.0756  3.2398 -1.8755
 3176SOL    HW312477   4.555   1.671   1.172 -1.1234  2.4169 -0.2575
 3176SOL    MW412478   4.583   1.696   1.251 -0.3749  0.2358  0.7320
 3177SOL     OW12479   1.000   1.491   5.919  0.6584 -0.3313 -0.8140
 3177SOL    HW212480   0.999   1.399   5.944  1.4282 -0.2831 -0.5778
 3177SOL    HW312481   0.925   1.530   5.965 -0.1886 -0.9961 -1.5850
 3177SOL    MW412482   0.990   1.484   5.928 -0.0449 -0.3118  0.1607
 3178SOL     OW12483   3.229   1.293   3.171  0.2076 -0.2025  0.0128
 3178SOL    HW212484   3.288   1.354   3.126  0.7816 -0.2917  0.6268
 3178SOL    HW312485   3.181   1.347   3.233 -0.6260 -0.0696 -0.7344
 3178SOL    MW412486   3.230   1.308   3.173 -0.2742  0.1178  0.7039
 3179SOL     OW12487   6.405   2.012   1.614  0.4845 -0.0397 -0.5292
 3179SOL    HW212488   6.499   2.001   1.630  0.4252 -0.8957 -0.6825
 3179SOL    HW312489   6.399   2.077   1.545  0.9428  0.4075 -0.1511
 3179SOL    MW412490   6.416   2.019   1.607 -0.6011 -0.3024 -0.2806
 3180SOL     OW12491   0.456   3.400   1.452  0.4788  0.1119 -0.1774
 3180SOL    HW212492   0.465   3.492   1.479 -2.2288 -0.0418  1.7290
 3180SOL    HW312493   0.519   3.353   1.507 -1.1214  0.4544  2.1155
 3180SOL    MW412494   0.465   3.406   1.463 -0.5426  0.2676 -0.2448
 3181SOL     OW12495   5.566   2.205   4.425 -0.0207  0.2779 -0.2704
 3181SOL    HW212496   5.569   2.188   4.520  0.1222 -3.1951 -0.7700
 3181SOL    HW312497   5.656   2.193   4.396  0.0607  1.9785 -0.8215
 3181SOL    MW412498   5.579   2.201   4.434  0.0920 -0.3269 -0.2886
 3182SOL     OW12499   4.634   5.758   6.110 -0.0022 -0.1070  0.0822
 3182SOL    HW212500   4.636   5.759   6.015 -0.2681 -0.1658  0.0765
 3182SOL    HW312501   4.620   5.849   6.135 -3.6540 -0.5065 -0.0220
 3182SOL    MW412502   4.633   5.770   6.101  0.1309 -0.3754  0.1611
 3183SOL     OW12503   4.359   5.168   0.189  0.5714 -0.2641  0.0955
 3183SOL    HW212504   4.437   5.208   0.150  1.5495 -1.2796  0.9510
 3183SOL    HW312505   4.301   5.152   0.115  1.0121  0.8273 -0.5167
 3183SOL    MW412506   4.362   5.171   0.174  0.0697  0.0218 -0.2292
 3184SOL     OW12507   1.860   0.878   4.419 -0.3073 -0.0892  0.2514
 3184SOL    HW212508   1.822   0.823   4.488 -0.7749 -0.7009 -0.4735
 3184SOL    HW312509   1.918   0.938   4.465 -0.5765 -0.5171  1.1723
 3184SOL    MW412510   1.862   0.879   4.434 -0.4621 -0.0683 -0.4522
 3185SOL     OW12511   5.821   2.229   2.729  0.0284 -0.1973  0.1555
 3185SOL    HW212512   5.783   2.253   2.645  1.9464  1.1645 -0.3922
 3185SOL    HW312513   5.750   2.240   2.792 -1.7938 -2.3589 -1.3463
 3185SOL    MW412514   5.807   2.234   2.727 -0.0477  0.1130  0.5100
 3186SOL     OW12515   5.580   2.989   1.986  0.4197 -0.6884 -0.6087
 3186SOL    HW212516   5.584   3.077   2.025 -1.2373 -0.1413 -1.5833
 3186SOL    HW312517   5.656   2.986   1.928  0.5830  0.0390 -0.4541
 3186SOL    MW412518   5.591   3.000   1.984  0.4168 -0.4878 -0.2516
 3187SOL     OW12519   0.454   1.779   6.184  0.0365  0.2401  0.0384
 3187SOL    HW212520   0.387   1.806   6.122  1.5108  1.0662 -1.2753
 3187SOL    HW312521   0.413   1.788   6.270 -1.0871  2.0837 -0.6403
 3187SOL    MW412522   0.440   1.784   6.187  0.2406 -0.3050 -0.0976
 3188SOL     OW12523   6.187   3.312   0.331 -0.4448 -0.9900 -1.0255
 3188SOL    HW212524   6.109   3.356   0.298  0.0200 -0.5816 -1.5909
 3188SOL    HW312525   6.256   3.338   0.271  0.5968  0.3799  0.6976
 3188SOL    MW412526   6.185   3.321   0.318  0.0587 -0.1739  0.9401
 3189SOL     OW12527   0.054   3.869   5.236  0.3099  0.3221  0.2448
 3189SOL    HW212528   0.098   3.950   5.259  1.1042  1.0398 -3.1911
 3189SOL    HW312529   0.124   3.803   5.236  0.1465  0.1440  0.6469
 3189SOL    MW412530   0.069   3.871   5.239  0.3317 -0.3789 -0.0635
 3190SOL     OW12531   2.255   2.139   1.110  0.2013  0.8039 -0.7227
 3190SOL    HW212532   2.186   2.088   1.068 -0.4121  0.6871  0.3836
 3190SOL    HW312533   2.234   2.230   1.088  0.2119  0.7059 -1.1364
 3190SOL    MW412534   2.243   2.144   1.102 -0.7318 -0.3946  0.5436
 3191SOL     OW12535   1.151   1.992   3.377 -0.3088 -0.3076  0.2001
 3191SOL    HW212536   1.107   2.007   3.461  0.3871  0.0856  0.5046
 3191SOL    HW312537   1.177   2.080   3.348  1.0534 -0.5923  0.4731
 3191SOL    MW412538   1.149   2.006   3.384  0.0045  0.2539  0.5597
 3192SOL     OW12539   0.934   4.031   3.506 -0.0427  0.1788 -0.0741
 3192SOL    HW212540   0.968   4.120   3.505 -1.6339  0.9012 -3.2259
 3192SOL    HW312541   0.868   4.031   3.575  1.0744  0.9226  1.0314
 3192SOL    MW412542   0.930   4.043   3.515 -0.0147  0.2747 -0.0451
 3193SOL     OW12543   1.737   2.916   6.321 -0.1570  0.0312 -0.3275
 3193SOL    HW212544   1.713   2.917   6.229 -0.2014 -1.5848 -0.3574
 3193SOL    HW312545   1.760   2.825   6.340  0.1792  0.3842  1.1788
 3193SOL    MW412546   1.737   2.904   6.312  0.2690 -0.3342 -0.2014
 3194SOL     OW12547   2.016   0.898   1.504 -0.3232  0.4287  0.3652
 3194SOL    HW212548   2.064   0.916   1.584 -0.8637 -0.8260  1.0103
 3194SOL    HW312549   2.012   0.802   1.500 -0.0836  0.4529 -1.3039
 3194SOL    MW412550   2.022   0.888   1.514 -0.1304  0.3533  0.5810
 3195SOL     OW12551   3.132   5.627   3.328 -0.2551  0.2162  0.3043
 3195SOL    HW212552   3.198   5.584   3.273  0.3307  0.3032  0.9349
 3195SOL    HW312553   3.072   5.667   3.265  0.5135  0.4796 -0.2796
 3195SOL    MW412554   3.132   5.626   3.312  0.1236  0.3257  0.2196
 3196SOL     OW12555   0.373   2.232   0.160  0.2231  0.3683  0.0538
 3196SOL    HW212556   0.343   2.321   0.176 -3.5508 -0.4059 -1.6201
 3196SOL    HW312557   0.417   2.236   0.075  0.8316  0.7244  0.3759
 3196SOL    MW412558   0.375   2.244   0.151  0.0520 -0.2311 -0.0997
 3197SOL     OW12559   2.504   5.304   3.999  0.5774  0.8860  0.5514
 3197SOL    HW212560   2.578   5.251   3.969 -1.8635 -1.4609 -1.9516
 3197SOL    HW312561   2.503   5.378   3.939 -1.3579 -1.2540 -2.3539
 3197SOL    MW412562   2.514   5.306   3.987 -0.1334 -0.2584 -0.2284
 3198SOL     OW12563   0.770   0.818   4.052  0.2453 -0.1116  0.1514
 3198SOL    HW212564   0.844   0.878   4.065  0.1647 -0.2394  1.2966
 3198SOL    HW312565   0.791   0.743   4.107 -0.2119 -0.6492 -0.3904
 3198SOL    MW412566   0.783   0.816   4.061 -0.2777 -0.3668 -0.4897
 3199SOL     OW12567   0.659   1.400   1.826  0.2533 -0.1582  0.2726
 3199SOL    HW212568   0.645   1.477   1.771  1.1210  0.2348  0.5977
 3199SOL    HW312569   0.698   1.434   1.907  1.2091 -0.9964  0.1803
 3199SOL    MW412570   0.662   1.415   1.829  0.2157 -0.0538  0.4598
 3200SOL     OW12571   5.030   3.362   5.835  0.0766  0.0742  0.1837
 3200SOL    HW212572   4.987   3.311   5.767 -1.6606 -1.0445  2.0054
 3200SOL    HW312573   5.088   3.421   5.788 -0.8257 -0.8403 -2.2222
 3200SOL    MW412574   5.032   3.363   5.820 -0.1423 -0.9730  0.7335
 3201SOL     OW12575   5.540   0.029   6.027  0.3416 -0.2242 -0.0709
 3201SOL    HW212576   5.523   0.009   5.935  0.5186 -1.5410  0.1580
 3201SOL    HW312577   5.588   0.112   6.026 -2.1975  1.3392 -0.9854
 3201SOL    MW412578   5.544   0.037   6.015  0.7524 -0.2024  0.8294
 3202SOL     OW12579   2.303   5.890   4.036  0.5989 -0.2790  0.7629
 3202SOL    HW212580   2.275   5.886   4.127 -1.9099  0.3559  0.1034
 3202SOL    HW312581   2.264   5.814   3.994 -0.4642  0.7904 -0.2814
 3202SOL    MW412582   2.295   5.880   4.042 -0.0432  0.6634 -0.4530
 3203SOL     OW12583   6.341   1.118   5.394  0.1760  0.6867  0.1612
 3203SOL    HW212584   6.302   1.067   5.465 -0.2554 -0.2098 -0.6807
 3203SOL    HW312585   6.280   1.190   5.380  0.1449  0.7359  0.5531
 3203SOL    MW412586   6.328   1.121   5.401  0.0865  0.1181  0.6093
 3204SOL     OW12587   1.566   3.232   3.435 -0.4526 -0.2195 -0.2374
 3204SOL    HW212588   1.593   3.180   3.511 -1.5892  0.0089  0.3576
 3204SOL    HW312589   1.489   3.186   3.401 -1.4350  0.9842  0.2567
 3204SOL    MW412590   1.559   3.219   3.441 -0.2551  0.2465  0.6795
 3205SOL     OW12591   4.726   2.071   6.154 -0.4241  0.0855  0.2806
 3205SOL    HW212592   4.692   2.107   6.236 -0.3255  0.6226  0.0914
 3205SOL    HW312593   4.715   1.976   6.163 -1.6564  0.2247  0.3534
 3205SOL    MW412594   4.720   2.063   6.166  0.4636 -0.0419  0.0350
 3206SOL     OW12595   2.139   5.796   0.747  0.3952 -0.7037 -0.1092
 3206SOL    HW212596   2.145   5.839   0.662 -1.5657 -1.3649 -0.6411
 3206SOL    HW312597   2.111   5.865   0.807  0.9381 -0.4293 -0.1661
 3206SOL    MW412598   2.136   5.811   0.744  0.2741 -0.1447 -0.0301
 3207SOL     OW12599   1.497   3.202   2.943 -0.1902  0.1710  0.4939
 3207SOL    HW212600   1.469   3.147   2.870 -0.8474  0.7667  0.2838
 3207SOL    HW312601   1.540   3.276   2.902 -0.3262  0.3769  0.7225
 3207SOL    MW412602   1.499   3.204   2.928  0.2337  0.0913 -0.0906
 3208SOL     OW12603   4.100   0.696   0.666  0.1374  0.4105  0.0742
 3208SOL    HW212604   4.158   0.658   0.601 -1.9987  1.0840 -2.4300
 3208SOL    HW312605   4.132   0.663   0.750  3.3502 -0.1187 -1.2179
 3208SOL    MW412606   4.112   0.687   0.669 -0.2270 -1.0306  0.1421
 3209SOL     OW12607   6.182   2.776   3.779  0.4160 -0.6967 -0.0692
 3209SOL    HW212608   6.208   2.779   3.872 -0.3928 -1.0587  0.1727
 3209SOL    HW312609   6.145   2.689   3.767 -2.1108  0.2908 -0.0048
 3209SOL    MW412610   6.181   2.765   3.790  0.3102  0.2637  0.1718
 3210SOL     OW12611   1.105   3.819   1.844 -0.9537  0.2885 -0.1146
 3210SOL    HW212612   1.136   3.902   1.809  0.2205 -0.1886 -0.2734
 3210SOL    HW312613   1.165   3.800   1.916 -1.4715 -0.2196  0.1918
 3210SOL    MW412614   1.117   3.827   1.849 -0.0238  0.4588  0.0264
 3211SOL     OW12615   6.366   5.416   3.524 -0.3410 -0.1220  0.7871
 3211SOL    HW212616   6.284   5.462   3.543 -0.4345  0.4487 -0.7922
 3211SOL    HW312617   6.371   5.417   3.428  1.0689 -0.9436  0.8358
 3211SOL    MW412618   6.356   5.422   3.514 -0.3526  0.6906  0.1244
 3212SOL     OW12619   1.324   0.221   6.142  0.2154 -0.3632  0.0800
 3212SOL    HW212620   1.405   0.269   6.163  1.0136 -1.6289  0.0104
 3212SOL    HW312621   1.354   0.132   6.123 -0.9000 -0.2291 -2.6530
 3212SOL    MW412622   1.339   0.216   6.142 -0.9001  0.0683  0.2582
 3213SOL     OW12623   3.102   5.716   5.595 -0.0842  0.0733  0.1213
 3213SOL    HW212624   3.138   5.724   5.506  0.9526 -1.2981  0.3929
 3213SOL    HW312625   3.129   5.797   5.639 -1.1378  1.0628 -0.9551
 3213SOL    MW412626   3.110   5.728   5.589  0.8712  0.5003  0.6312
 3214SOL     OW12627   4.889   0.281   4.023  0.0223  0.7530 -0.0374
 3214SOL    HW212628   4.830   0.271   4.098 -1.3806  0.1170 -1.1828
 3214SOL    HW312629   4.845   0.343   3.966 -0.7254 -1.4604 -1.9929
 3214SOL    MW412630   4.876   0.288   4.026 -0.2734 -0.0852 -0.1702
 3215SOL     OW12631   0.130   1.961   5.280 -0.6446 -0.2728 -0.1065
 3215SOL    HW212632   0.036   1.981   5.275 -0.6656 -0.6041 -1.2728
 3215SOL    HW312633   0.135   1.883   5.336 -0.8283  1.0728  1.9194
 3215SOL    MW412634   0.118   1.953   5.287  0.3228  0.3390  0.3618
 3216SOL     OW12635   4.363   5.719   6.038  0.2295  0.4840 -0.8691
 3216SOL    HW212636   4.435   5.738   6.098  0.8914 -2.3044 -0.6430
 3216SOL    HW312637   4.393   5.643   5.988 -2.5296 -0.7772 -0.7842
 3216SOL    MW412638   4.376   5.711   6.039 -0.0793  0.4944 -0.0097
 3217SOL     OW12639   5.927   1.086   0.023  0.3809 -0.1629  0.4564
 3217SOL    HW212640   5.979   1.021   0.071  1.6006 -0.2607 -0.9194
 3217SOL    HW312641   5.941   1.063  -0.069  1.5126  2.4991 -0.1278
 3217SOL    MW412642   5.936   1.074   0.017 -0.5052 -0.1503  0.0794
 3218SOL     OW12643   3.903   0.129   3.563  0.5247  0.6859  0.8745
 3218SOL    HW212644   3.816   0.149   3.528  0.9534  1.6927  0.3372
 3218SOL    HW312645   3.886   0.076   3.641 -0.5127 -0.2728  0.0207
 3218SOL    MW412646   3.889   0.125   3.569  0.0860 -0.0980  0.1475
 3219SOL     OW12647   2.276   5.804   2.466 -0.5777  0.1825  0.6436
 3219SOL    HW212648   2.230   5.759   2.396 -2.3694 -0.2057  1.9900
 3219SOL    HW312649   2.281   5.895   2.437 -1.7156  0.1194  0.1994
 3219SOL    MW412650   2.271   5.810   2.453  0.5652 -0.2107 -0.3165
 3220SOL     OW12651   1.512   6.367   0.333 -0.3900 -0.1515 -0.1074
 3220SOL    HW212652   1.506   6.281   0.293 -0.1544 -0.1272 -0.1995
 3220SOL    HW312653   1.568   6.354   0.410 -0.4943 -0.1155 -0.0255
 3220SOL    MW412654   1.519   6.354   0.338 -0.1329 -0.1842 -0.3361
 3221SOL     OW12655   2.008   3.888   6.391  0.2438  0.1875  0.2588
 3221SOL    HW212656   1.992   3.978   6.361 -0.9322 -0.0048  0.2611
 3221SOL    HW312657   2.064   3.899   6.468  1.2562  0.8243 -0.5363
 3221SOL    MW412658   2.014   3.902   6.398  0.2385  0.4122 -0.1473
 3222SOL     OW12659   0.976   0.812   5.110 -0.0696  0.4020 -0.0464
 3222SOL    HW212660   1.010   0.749   5.174 -0.2485 -0.8929 -1.1834
 3222SOL    HW312661   1.049   0.872   5.095  0.1769  0.3626  0.9125
 3222SOL    MW412662   0.990   0.812   5.116  0.1047 -0.3110 -0.0484
 3223SOL     OW12663   3.163   0.866   2.656  0.0260  0.1394 -0.2901
 3223SOL    HW212664   3.254   0.850   2.681 -0.2076 -0.0150  0.4636
 3223SOL    HW312665   3.167   0.944   2.600  0.3353  1.8215  1.9429
 3223SOL    MW412666   3.175   0.874   2.652 -0.1763  0.1885 -0.2682
 3224SOL     OW12667   6.311   4.420   1.251  0.4482  0.1326 -0.6190
 3224SOL    HW212668   6.327   4.471   1.171 -0.5791  1.8625  0.2280
 3224SOL    HW312669   6.361   4.340   1.238  0.2659  0.3238 -3.0340
 3224SOL    MW412670   6.320   4.416   1.239  0.5974  0.0062  0.1615
 3225SOL     OW12671   0.579   3.691   0.652 -0.3573  0.2284  0.1071
 3225SOL    HW212672   0.529   3.682   0.571 -0.3962  2.2396 -0.1485
 3225SOL    HW312673   0.513   3.713   0.718 -0.0156  1.2599  0.1129
 3225SOL    MW412674   0.563   3.693   0.650  0.0418  0.6418 -0.0813
 3226SOL     OW12675   6.046   4.149   3.143  0.0679  0.5826  0.2499
 3226SOL    HW212676   6.046   4.092   3.220 -0.8535  2.4763  1.7259
 3226SOL    HW312677   6.138   4.152   3.116  0.5269  0.4307  1.6942
 3226SOL    MW412678   6.058   4.142   3.149  0.5189 -0.0308  0.5774
 3227SOL     OW12679   4.088   4.244   1.392  0.3541  0.1110  0.0520
 3227SOL    HW212680   4.108   4.215   1.480  0.0404 -1.5135 -0.3765
 3227SOL    HW312681   4.138   4.186   1.335  1.2175  1.6653 -0.8516
 3227SOL    MW412682   4.097   4.232   1.396 -0.2364 -0.2698  0.5965
 3228SOL     OW12683   1.273   5.245   0.344  0.6090  0.0400 -0.2402
 3228SOL    HW212684   1.281   5.254   0.439 -2.0166  0.3097  0.0381
 3228SOL    HW312685   1.234   5.328   0.316  0.7603 -0.2851 -1.4745
 3228SOL    MW412686   1.269   5.257   0.352  0.1376  0.0951  0.7537
 3229SOL     OW12687   5.659   0.466   0.493 -0.1740  0.1911  0.4163
 3229SOL    HW212688   5.586   0.425   0.540 -0.2670  1.2628  1.2581
 3229SOL    HW312689   5.621   0.546   0.456  0.8788  1.5982  2.1970
 3229SOL    MW412690   5.644   0.471   0.495  0.5096 -0.2465  0.6902
 3230SOL     OW12691   0.193   0.636   1.435  0.0928  0.5392  0.1551
 3230SOL    HW212692   0.227   0.719   1.468 -0.4658  0.7448  0.2262
 3230SOL    HW312693   0.269   0.593   1.394  0.8398  0.2235  1.7824
 3230SOL    MW412694   0.208   0.641   1.434 -0.2766  0.2358 -0.6815
 3231SOL     OW12695   1.463   3.031   1.073 -0.2140 -0.6811  0.4211
 3231SOL    HW212696   1.422   3.116   1.057  0.2511 -0.4154  0.6232
 3231SOL    HW312697   1.412   2.993   1.145 -0.3252 -0.5060  0.4347
 3231SOL    MW412698   1.451   3.037   1.080  0.1879  0.3431 -0.3118
 3232SOL     OW12699   1.849   1.858   4.201  0.1226  0.1679 -0.3142
 3232SOL    HW212700   1.928   1.906   4.177  0.2656 -0.5611 -1.3895
 3232SOL    HW312701   1.879   1.767   4.209 -0.2965  0.1295  0.8800
 3232SOL    MW412702   1.864   1.852   4.199  0.5016  0.5416  0.2179
 3233SOL     OW12703   6.002   0.843   4.074  0.1116 -0.5119  0.4932
 3233SOL    HW212704   5.934   0.910   4.070  1.1117  0.4976 -0.9390
 3233SOL    HW312705   5.966   0.768   4.028  0.5839  0.6783 -1.9766
 3233SOL    MW412706   5.989   0.842   4.067 -0.1674  0.6931  0.3706
 3234SOL     OW12707   5.734   4.439   5.782  0.2886  0.2713 -0.2090
 3234SOL    HW212708   5.824   4.472   5.788  0.8140 -1.1231 -0.2505
 3234SOL    HW312709   5.727   4.405   5.693 -0.5425  1.0773 -0.4621
 3234SOL    MW412710   5.745   4.439   5.771  0.4177  0.1790  0.1311
 3235SOL     OW12711   1.800   3.180   2.277  0.3671  0.4427 -0.2908
 3235SOL    HW212712   1.764   3.262   2.243  0.2684  0.9471  0.9814
 3235SOL    HW312713   1.724   3.131   2.307  0.4049 -0.2328 -1.2498
 3235SOL    MW412714   1.786   3.184   2.276 -0.3267  0.1909  0.2167
 3236SOL     OW12715   1.452   2.503   5.114  0.1921 -0.1628  0.1102
 3236SOL    HW212716   1.467   2.442   5.186 -0.1696 -0.3275  0.0490
 3236SOL    HW312717   1.514   2.476   5.047 -0.8678 -1.3438 -0.4533
 3236SOL    MW412718   1.462   2.491   5.115 -0.0899 -0.4551 -0.2785
 3237SOL     OW12719   2.544   0.663   1.726  0.3622 -0.0387  0.0446
 3237SOL    HW212720   2.560   0.575   1.758 -0.3416 -0.5323 -0.9191
 3237SOL    HW312721   2.632   0.699   1.710  0.6605 -1.4964 -1.9864
 3237SOL    MW412722   2.558   0.656   1.728 -0.4722  0.4920  0.2174
 3238SOL     OW12723   1.553   4.080   4.824 -0.1583 -0.0924 -0.4992
 3238SOL    HW212724   1.504   4.008   4.785 -0.9349  0.7756 -1.2037
 3238SOL    HW312725   1.509   4.097   4.908  0.0884 -0.4993 -0.2883
 3238SOL    MW412726   1.540   4.073   4.830 -0.1246  0.1851  0.4610
 3239SOL     OW12727   2.823   0.504   4.367  0.1294  0.3690  0.0469
 3239SOL    HW212728   2.870   0.470   4.291  1.6604 -0.8200  1.4363
 3239SOL    HW312729   2.833   0.599   4.362  1.0121  0.2455 -0.7386
 3239SOL    MW412730   2.830   0.512   4.356  0.0879 -0.4345  0.0240
 3240SOL     OW12731   5.990   6.315   3.203 -0.1233  0.3010  0.3584
 3240SOL    HW212732   5.959   6.403   3.182 -2.3096 -0.0338  1.8574
 3240SOL    HW312733   6.050   6.327   3.276 -1.6918  0.4647  1.6702
 3240SOL    MW412734   5.994   6.328   3.210  0.2170 -0.1491 -0.2482
 3241SOL     OW12735   4.425   2.995   3.911  0.4814 -0.2175 -0.0566
 3241SOL    HW212736   4.395   2.977   4.000 -0.3757  1.1994 -0.0332
 3241SOL    HW312737   4.435   3.090   3.908 -1.5704  0.0135 -2.0964
 3241SOL    MW412738   4.423   3.005   3.922 -0.0134 -0.6311 -0.0726
 3242SOL     OW12739   2.416   5.280   3.615  0.3215 -0.3029  0.0923
 3242SOL    HW212740   2.457   5.195   3.630 -0.5368 -0.7111  0.1642
 3242SOL    HW312741   2.453   5.310   3.532 -0.6660 -1.5484 -0.8295
 3242SOL    MW412742   2.426   5.273   3.606 -0.1320  0.3481 -0.2661
 3243SOL     OW12743   4.873   2.336   6.256 -0.0645 -0.0615 -0.3359
 3243SOL    HW212744   4.850   2.344   6.164 -0.7362  0.1863 -0.1501
 3243SOL    HW312745   4.873   2.426   6.289  1.1523 -0.0441 -0.3109
 3243SOL    MW412746   4.870   2.349   6.248  0.5525  0.8190 -0.7834
 3244SOL     OW12747   5.496   6.412   0.010  0.3818 -0.6914  0.0639
 3244SOL    HW212748   5.506   6.455   0.095 -1.4497 -2.2754  1.1532
 3244SOL    HW312749   5.479   6.484  -0.051 -2.2864  0.2539  1.7683
 3244SOL    MW412750   5.495   6.428   0.013 -0.4019  0.1886 -0.5038
 3245SOL     OW12751   1.589   0.671   4.273  0.4740  0.5571  0.0049
 3245SOL    HW212752   1.530   0.698   4.202 -0.6976  1.3326  1.2154
 3245SOL    HW312753   1.534   0.674   4.351  1.6837 -0.4552  0.9358
 3245SOL    MW412754   1.574   0.675   4.274  0.4191 -0.2682  0.0255
 3246SOL     OW12755   0.358   5.880   3.601 -0.5151 -0.2152 -0.0468
 3246SOL    HW212756   0.286   5.894   3.540  0.4806 -1.3244 -1.5360
 3246SOL    HW312757   0.437   5.903   3.552  0.2168  0.3757  1.3387
 3246SOL    MW412758   0.359   5.885   3.587 -0.3091  0.2191  0.5973
 3247SOL     OW12759   2.913   5.795   0.725  0.6406  0.9818  0.4596
 3247SOL    HW212760   2.894   5.719   0.669 -0.1287  1.5727 -0.0951
 3247SOL    HW312761   2.979   5.763   0.786  1.2292  0.2060 -0.5477
 3247SOL    MW412762   2.919   5.780   0.726 -0.1142 -0.0676  0.2425
 3248SOL     OW12763   3.171   1.146   2.086  0.4121  0.0064 -0.1414
 3248SOL    HW212764   3.225   1.099   2.022 -0.3830 -0.1301 -0.7204
 3248SOL    HW312765   3.223   1.145   2.166  0.8803 -0.9009 -0.4473
 3248SOL    MW412766   3.185   1.140   2.088  0.4181 -0.1285 -0.5350
 3249SOL     OW12767   4.275   4.640   4.875  0.4066  0.7341  0.2906
 3249SOL    HW212768   4.355   4.597   4.846 -0.3282 -3.3376  3.3876
 3249SOL    HW312769   4.301   4.689   4.952  0.2248  0.9997  0.1837
 3249SOL    MW412770   4.289   4.641   4.881  0.0409 -0.5129  0.2140
 3250SOL     OW12771   3.790   4.050   4.478 -0.1024 -0.1680  0.5958
 3250SOL    HW212772   3.825   4.048   4.567  1.9713  0.5906 -0.1327
 3250SOL    HW312773   3.867   4.064   4.423 -1.3340 -0.6261 -1.3277
 3250SOL    MW412774   3.805   4.052   4.483 -0.0634  0.0374  0.3660
 3251SOL     OW12775   6.331   1.868   2.952 -0.4465 -0.1686 -0.2030
 3251SOL    HW212776   6.271   1.835   2.885 -1.2300 -1.1357  0.9224
 3251SOL    HW312777   6.384   1.934   2.907 -1.4515 -0.2489 -1.5709
 3251SOL    MW412778   6.330   1.873   2.938  0.4592 -0.5360 -0.1301
 3252SOL     OW12779   4.880   4.700   3.427  0.0354 -0.7179 -0.2464
 3252SOL    HW212780   4.907   4.789   3.404 -1.8482 -0.1092 -0.2500
 3252SOL    HW312781   4.797   4.711   3.472  0.3760 -2.4120  0.8709
 3252SOL    MW412782   4.873   4.713   3.430 -0.1281  0.4570 -0.2043
 3253SOL     OW12783   4.845   3.754   5.177 -0.1668 -0.4461 -0.2749
 3253SOL    HW212784   4.908   3.703   5.228 -0.0908 -1.5501 -1.4175
 3253SOL    HW312785   4.897   3.792   5.106 -0.3010  0.9249  0.3375
 3253SOL    MW412786   4.860   3.752   5.174 -0.1101  0.1772  0.4546
 3254SOL     OW12787   3.790   4.723   4.103  0.0986 -0.2047  0.7456
 3254SOL    HW212788   3.772   4.794   4.041 -0.1770 -2.3269 -1.7915
 3254SOL    HW312789   3.886   4.718   4.106  0.1424  0.6929  1.5369
 3254SOL    MW412790   3.800   4.732   4.095 -0.4025 -0.4671  0.4590
 3255SOL     OW12791   5.375   6.115   2.781  0.8594 -0.2841 -0.2162
 3255SOL    HW212792   5.363   6.053   2.852  0.4297  1.0830  0.9416
 3255SOL    HW312793   5.289   6.155   2.768  1.1686  0.2204 -0.7979
 3255SOL    MW412794   5.362   6.112   2.788  0.2224  0.1396 -0.1297
 3256SOL     OW12795   6.335   3.194   2.939 -0.3592 -0.3445  0.0224
 3256SOL    HW212796   6.324   3.125   3.004 -0.0099 -0.2779  0.1558
 3256SOL    HW312797   6.423   3.179   2.904 -0.2391  0.1034  0.1312
 3256SOL    MW412798   6.345   3.183   2.943 -0.0093  0.1909 -0.5096
 3257SOL     OW12799   3.287   3.561   1.741  0.1101  0.6532  0.4246
 3257SOL    HW212800   3.250   3.631   1.796 -2.0008 -0.2030  0.2003
 3257SOL    HW312801   3.250   3.577   1.654 -0.4380 -0.7210  0.3765
 3257SOL    MW412802   3.277   3.572   1.737 -0.0835  0.3736 -0.1468
 3258SOL     OW12803   1.683   3.138   0.639 -0.1235  0.0615  0.2403
 3258SOL    HW212804   1.676   3.134   0.734  0.0881 -0.4730  0.2381
 3258SOL    HW312805   1.687   3.231   0.619 -1.2791  0.2119  0.6643
 3258SOL    MW412806   1.683   3.150   0.649  0.0325 -0.3465 -0.1345
 3259SOL     OW12807   2.709   4.293   3.564  0.6446  0.2031 -0.2321
 3259SOL    HW212808   2.712   4.273   3.658 -0.5837  0.5813 -0.1004
 3259SOL    HW312809   2.620   4.269   3.537  1.2600 -0.7592 -1.5090
 3259SOL    MW412810   2.698   4.287   3.573 -0.0013  0.2198  0.5299
 3260SOL     OW12811   5.118   0.905   1.231  0.3891 -0.2110  0.1480
 3260SOL    HW212812   5.168   0.910   1.150 -0.0283  1.1034 -0.0583
 3260SOL    HW312813   5.027   0.916   1.204  0.1834 -0.4406  0.7286
 3260SOL    MW412814   5.113   0.907   1.217 -0.1157  0.2266 -0.2439
 3261SOL     OW12815   5.365   4.984   2.987 -0.2116  0.0581  0.0875
 3261SOL    HW212816   5.416   4.916   3.031 -0.5574 -0.6951 -0.6472
 3261SOL    HW312817   5.430   5.041   2.947  0.0645 -0.5421 -0.3273
 3261SOL    MW412818   5.380   4.982   2.988  0.3962 -0.0292  0.4281
 3262SOL     OW12819   4.461   6.215   2.181 -0.0274 -0.3313  0.1364
 3262SOL    HW212820   4.525   6.283   2.160  0.8198 -0.7711  1.2050
 3262SOL    HW312821   4.476   6.147   2.115  1.2439 -0.8216  0.8924
 3262SOL    MW412822   4.471   6.215   2.169 -0.7507 -0.6338 -0.3199
 3263SOL     OW12823   1.309   3.303   4.363 -0.0154 -0.0219 -0.6181
 3263SOL    HW212824   1.395   3.343   4.374 -0.0353 -0.3611  1.0306
 3263SOL    HW312825   1.293   3.306   4.268  0.3376  3.0320 -0.6752
 3263SOL    MW412826   1.318   3.309   4.352 -0.3519 -0.3762 -0.0954
 3264SOL     OW12827   4.836   0.165   2.771 -0.1953 -0.0544  0.2278
 3264SOL    HW212828   4.870   0.188   2.685  0.3130  2.4056  1.0125
 3264SOL    HW312829   4.906   0.191   2.832 -0.7645 -1.2344  1.4216
 3264SOL    MW412830   4.850   0.172   2.768 -0.0996  0.2565 -0.1356
 3265SOL     OW12831   2.921   0.044   3.743 -0.6384 -0.2194  0.1114
 3265SOL    HW212832   2.919  -0.014   3.819  0.0944  0.7487  0.8852
 3265SOL    HW312833   2.891   0.129   3.776  0.6700  0.4781 -0.4128
 3265SOL    MW412834   2.917   0.048   3.757  0.1660 -0.0336  0.0382
 3266SOL     OW12835   5.392   3.514   3.676  0.3264  0.1101  0.2176
 3266SOL    HW212836   5.465   3.503   3.615 -0.1666 -0.4113 -0.2869
 3266SOL    HW312837   5.429   3.564   3.749  1.0160  0.4278 -0.3407
 3266SOL    MW412838   5.406   3.519   3.677 -0.3783  0.3125 -0.3614
 3267SOL     OW12839   0.125   5.603   3.608 -0.5034  0.0824 -0.3226
 3267SOL    HW212840   0.063   5.536   3.579  1.1555 -0.8784 -1.9034
 3267SOL    HW312841   0.199   5.554   3.643  0.3875  1.0828 -0.7189
 3267SOL    MW412842   0.126   5.588   3.609 -0.1737 -0.0444  0.2574
 3268SOL     OW12843   6.146   3.809   4.523 -0.5530  0.2224  0.1816
 3268SOL    HW212844   6.217   3.872   4.532 -1.4784  1.5293 -1.2704
 3268SOL    HW312845   6.071   3.850   4.566 -0.7890 -0.5733  0.5529
 3268SOL    MW412846   6.146   3.822   4.530 -0.1183 -0.5413  0.0927
 3269SOL     OW12847   0.602   0.920   3.773  0.0577  0.4147  0.8864
 3269SOL    HW212848   0.681   0.973   3.784 -0.0946  0.4423  2.0354
 3269SOL    HW312849   0.617   0.843   3.829 -0.3525 -0.0300  0.3991
 3269SOL    MW412850   0.615   0.917   3.782  0.0423  0.1355 -0.3367
 3270SOL     OW12851   1.165   1.210   1.289 -0.4841  0.0723  0.9360
 3270SOL    HW212852   1.136   1.252   1.208  1.3978  0.7706  0.5577
 3270SOL    HW312853   1.244   1.258   1.314  2.7216 -3.9751 -0.2856
 3270SOL    MW412854   1.172   1.222   1.282  0.7708 -0.7429 -0.3531
 3271SOL     OW12855   5.933   1.159   5.498 -0.8142  0.1029 -0.2610
 3271SOL    HW212856   5.855   1.159   5.554 -0.8993  1.7213 -0.3452
 3271SOL    HW312857   6.005   1.138   5.557 -1.4316 -3.1519 -0.4725
 3271SOL    MW412858   5.932   1.156   5.513 -0.4755 -0.2921  0.3291
 3272SOL     OW12859   5.841   1.368   1.532  0.3377  0.1039 -1.0705
 3272SOL    HW212860   5.847   1.322   1.616 -0.8968 -0.8051 -1.4469
 3272SOL    HW312861   5.907   1.437   1.537 -0.7289  1.0619  1.2608
 3272SOL    MW412862   5.850   1.371   1.544  0.0371 -0.1014  0.0252
 3273SOL     OW12863   1.027   4.239   4.396 -0.4467  0.2508  0.3606
 3273SOL    HW212864   1.037   4.298   4.470 -1.1511  0.0309  0.6423
 3273SOL    HW312865   1.062   4.155   4.426  2.2184  0.9254 -0.6345
 3273SOL    MW412866   1.033   4.236   4.409 -0.2233  0.0305 -0.0598
 3274SOL     OW12867   0.822   4.654   3.101 -0.7586 -0.2308 -0.3222
 3274SOL    HW212868   0.733   4.664   3.069 -0.0282  1.4535 -2.0764
 3274SOL    HW312869   0.872   4.624   3.025  0.7405  2.1642 -0.3920
 3274SOL    MW412870   0.817   4.652   3.087 -0.1076 -0.3975 -0.3109
 3275SOL     OW12871   5.152   5.457   3.726 -0.1956  0.5176 -0.3714
 3275SOL    HW212872   5.137   5.374   3.681 -0.7806 -1.3440  2.9849
 3275SOL    HW312873   5.064   5.486   3.752  0.1794  1.0838  0.2844
 3275SOL    MW412874   5.138   5.450   3.723 -0.1911 -0.4072  0.4198
 3276SOL     OW12875   2.063   1.236   4.154  0.1944 -0.5119  0.5452
 3276SOL    HW212876   2.128   1.191   4.101  1.3226  1.6849 -0.0622
 3276SOL    HW312877   2.089   1.219   4.245  1.3839 -0.0218  0.3133
 3276SOL    MW412878   2.075   1.228   4.159  0.1569  0.2067  0.2547
 3277SOL     OW12879   1.812   2.696   1.788 -0.1097 -0.4423  0.1945
 3277SOL    HW212880   1.751   2.769   1.791 -0.6223 -0.7546 -1.5448
 3277SOL    HW312881   1.897   2.736   1.772 -0.2106 -0.1572  0.3669
 3277SOL    MW412882   1.815   2.711   1.786 -0.0458 -0.5837 -0.4656
 3278SOL     OW12883   5.623   2.218   6.315 -0.1897  0.5485  0.0888
 3278SOL    HW212884   5.667   2.284   6.369 -0.3926  0.7298  0.0331
 3278SOL    HW312885   5.640   2.136   6.360 -1.2902  0.8169  1.0587
 3278SOL    MW412886   5.631   2.216   6.328 -0.3084  0.2620  0.7718
 3279SOL     OW12887   0.918   4.653   0.268  0.2951  0.5305  0.2815
 3279SOL    HW212888   0.954   4.712   0.335  0.7850  0.5449  0.0140
 3279SOL    HW312889   0.992   4.638   0.208  0.6321 -1.5043  1.1120
 3279SOL    MW412890   0.933   4.659   0.269  0.0956  0.1746 -0.1544
 3280SOL     OW12891   0.576   1.823   0.438  0.7431  0.1622  0.1896
 3280SOL    HW212892   0.612   1.760   0.500  1.0048  0.9892  0.9023
 3280SOL    HW312893   0.634   1.899   0.444  1.3384 -0.0873 -1.7950
 3280SOL    MW412894   0.588   1.825   0.447  0.1646 -0.2781 -0.6666
 3281SOL     OW12895   1.081   5.311   3.934 -0.0244  0.7032  0.4510
 3281SOL    HW212896   1.053   5.243   3.872  0.8910  0.8220 -0.1201
 3281SOL    HW312897   1.027   5.387   3.911 -1.0146  0.2018  1.0580
 3281SOL    MW412898   1.070   5.312   3.923 -0.1173  0.3317  0.3754
 3282SOL     OW12899   1.094   2.329   3.046 -0.1358 -0.3618  0.2979
 3282SOL    HW212900   1.085   2.338   2.951 -1.2909 -0.9862  0.3305
 3282SOL    HW312901   1.029   2.389   3.083 -0.5589 -1.0309  0.6626
 3282SOL    MW412902   1.084   2.338   3.038 -0.2247  0.0678 -0.3036
 3283SOL     OW12903   1.055   4.642   4.426 -0.1447 -0.1213 -0.0975
 3283SOL    HW212904   0.987   4.701   4.458  1.6382  2.7978 -1.2968
 3283SOL    HW312905   1.023   4.615   4.339 -1.2270 -1.4787  0.6840
 3283SOL    MW412906   1.042   4.646   4.419  0.2418  0.3526 -0.0557
 3284SOL     OW12907   1.080   4.506   6.286 -0.4793  0.5616  0.1604
 3284SOL    HW212908   1.030   4.538   6.362  1.0086  1.6062  0.7496
 3284SOL    HW312909   1.169   4.494   6.319 -0.8110 -4.1005 -0.1040
 3284SOL    MW412910   1.085   4.509   6.300 -0.0446  0.0552  0.1597
 3285SOL     OW12911   1.717   1.194   5.740  0.1455  0.2696  0.3613
 3285SOL    HW212912   1.746   1.103   5.727  0.2680  0.6178 -2.4510
 3285SOL    HW312913   1.623   1.192   5.723  0.0961  0.6305  0.5861
 3285SOL    MW412914   1.708   1.182   5.736  0.1760 -0.0553  0.1827
 3286SOL     OW12915   1.198   3.055   5.366 -0.2983 -0.7358  0.2392
 3286SOL    HW212916   1.240   3.019   5.444 -2.2314 -0.8084  1.2889
 3286SOL    HW312917   1.168   3.142   5.392  2.1878  0.7945 -1.5599
 3286SOL    MW412918   1.200   3.062   5.380  0.1990  0.7419 -0.3892
 3287SOL     OW12919   0.689   0.160   5.665  0.1014  0.6283  0.7243
 3287SOL    HW212920   0.741   0.162   5.745 -0.0185  0.5541  0.8055
 3287SOL    HW312921   0.729   0.226   5.609  0.9860 -0.2133  0.3446
 3287SOL    MW412922   0.701   0.169   5.668  0.2029  0.3800 -0.1989
 3288SOL     OW12923   4.227   2.211   3.387  0.3575  0.2840 -0.3096
 3288SOL    HW212924   4.298   2.146   3.384 -0.0440 -0.1338 -1.1265
 3288SOL    HW312925   4.272   2.295   3.388  0.8992  0.0167  1.1588
 3288SOL    MW412926   4.243   2.213   3.387  0.5709  0.0891 -0.2476
 3289SOL     OW12927   4.800   1.237   1.845  0.3951  0.3303  0.3196
 3289SOL    HW212928   4.875   1.287   1.878  1.3987  0.3655 -1.8167
 3289SOL    HW312929   4.804   1.249   1.750 -2.1630  0.0695  0.1027
 3289SOL    MW412930   4.810   1.245   1.837  0.0122 -0.0075  0.1889
 3290SOL     OW12931   2.437   1.470   0.115 -0.6316 -0.4468 -0.3763
 3290SOL    HW212932   2.423   1.544   0.056 -1.6595 -0.7112 -0.4722
 3290SOL    HW312933   2.416   1.505   0.202  0.4810 -0.1758 -0.1968
 3290SOL    MW412934   2.433   1.485   0.119 -0.2160 -0.1967  0.4885
 3291SOL     OW12935   2.962   3.231   0.582  0.1457  0.3878  0.2320
 3291SOL    HW212936   2.880   3.218   0.534 -0.4356  1.1874  0.9660
 3291SOL    HW312937   2.941   3.300   0.645  0.6156 -1.1847  2.2081
 3291SOL    MW412938   2.948   3.239   0.584  0.7703  0.2764 -0.3423
 3292SOL     OW12939   4.201   3.708   2.507  0.2402  0.2607 -0.1512
 3292SOL    HW212940   4.130   3.673   2.454 -1.4438 -0.3189  2.3133
 3292SOL    HW312941   4.181   3.679   2.596  1.9963  2.5485  1.1019
 3292SOL    MW412942   4.189   3.700   2.512 -0.3507 -0.0252  0.1241
 3293SOL     OW12943   2.068   2.802   1.747 -0.3614  0.7545 -0.0856
 3293SOL    HW212944   2.061   2.874   1.685 -1.2869 -0.1891 -1.1285
 3293SOL    HW312945   2.147   2.755   1.719 -0.3409  0.7771 -0.0651
 3293SOL    MW412946   2.077   2.805   1.735 -0.6933  0.3504  0.2712
 3294SOL     OW12947   5.784   1.618   0.652 -0.6112  0.1967  0.2456
 3294SOL    HW212948   5.805   1.561   0.579  0.6591 -0.2832  0.9676
 3294SOL    HW312949   5.869   1.647   0.686 -1.1999  1.4879  0.7043
 3294SOL    MW412950   5.798   1.615   0.647 -0.3064 -0.2598 -0.0867
 3295SOL     OW12951   4.807   4.005   3.342 -0.0091 -0.9936 -0.6695
 3295SOL    HW212952   4.778   3.999   3.251  0.1570 -1.0341 -0.7204
 3295SOL    HW312953   4.739   4.057   3.386  0.9206  0.8458 -1.2734
 3295SOL    MW412954   4.794   4.011   3.336 -0.1569 -0.4198  0.3832
 3296SOL     OW12955   2.452   4.287   3.428  0.2985  0.3088 -0.4235
 3296SOL    HW212956   2.407   4.368   3.403  0.7577  1.0383  1.0252
 3296SOL    HW312957   2.399   4.252   3.500  0.3220 -0.4786 -0.7881
 3296SOL    MW412958   2.439   4.293   3.434 -0.1506  0.3128 -0.1142
 3297SOL     OW12959   3.329   0.221   1.970 -0.5485  0.3354 -0.4117
 3297SOL    HW212960   3.320   0.315   1.952  1.9367  0.7983  0.3568
 3297SOL    HW312961   3.262   0.203   2.036 -0.7841  1.6565 -0.2623
 3297SOL    MW412962   3.319   0.231   1.976 -0.0027  0.5123  0.6814
 3298SOL     OW12963   2.936   4.075   3.251 -0.3339 -0.0455  0.6129
 3298SOL    HW212964   2.910   4.055   3.161  0.2946 -1.6120  0.7508
 3298SOL    HW312965   2.904   4.164   3.265 -1.1702 -0.0638 -0.8798
 3298SOL    MW412966   2.928   4.084   3.241 -0.1650  0.3970 -0.1881
 3299SOL     OW12967   3.868   1.590   3.334 -0.1950  0.1291  0.3203
 3299SOL    HW212968   3.935   1.615   3.270 -0.4113  0.4997  0.2338
 3299SOL    HW312969   3.793   1.647   3.313 -1.2160 -1.5069 -0.7764
 3299SOL    MW412970   3.867   1.601   3.322  1.0363 -0.1058  0.0525
 3300SOL     OW12971   5.396   5.791   4.700  0.2187  0.3818 -0.4272
 3300SOL    HW212972   5.418   5.714   4.649 -1.5795 -0.1059 -0.5058
 3300SOL    HW312973   5.441   5.778   4.784  1.1337 -0.0103 -0.9691
 3300SOL    MW412974   5.405   5.779   4.705  0.7441  0.1278 -0.1409
 3301SOL     OW12975   1.400   2.244   0.979 -0.3905 -0.4656  0.0299
 3301SOL    HW212976   1.325   2.295   0.948  0.0260 -0.1033 -0.3936
 3301SOL    HW312977   1.477   2.297   0.957 -0.0319 -0.5774  0.9519
 3301SOL    MW412978   1.400   2.258   0.972 -0.4399 -0.2764  0.3867
 3302SOL     OW12979   3.317   4.326   1.356 -0.1289 -0.2475  0.0390
 3302SOL    HW212980   3.402   4.333   1.314  0.3645  0.6082  1.1315
 3302SOL    HW312981   3.257   4.373   1.298  0.5012  0.7362  0.1647
 3302SOL    MW412982   3.320   4.333   1.343  0.2656  0.2112  0.1671
 3303SOL     OW12983   6.095   3.957   1.679 -0.7043 -0.7896  0.5041
 3303SOL    HW212984   6.182   3.976   1.642 -1.8250 -0.6553 -2.3320
 3303SOL    HW312985   6.100   3.989   1.769  1.1298  2.4193 -0.5672
 3303SOL    MW412986   6.107   3.964   1.686  0.0536  0.2897  0.0448
 3304SOL     OW12987   3.801   1.578   1.053 -0.0482 -0.4850  0.1018
 3304SOL    HW212988   3.707   1.561   1.061 -0.0481 -1.3591 -1.4940
 3304SOL    HW312989   3.821   1.633   1.128 -1.4855 -1.7289  1.4753
 3304SOL    MW412990   3.791   1.583   1.064 -0.1380  0.6803  0.1785
 3305SOL     OW12991   4.326   3.349   2.806  1.1132 -0.0431 -0.0529
 3305SOL    HW212992   4.405   3.381   2.762  2.0141 -2.6342 -0.5137
 3305SOL    HW312993   4.352   3.264   2.842 -1.3648 -0.8224  0.0818
 3305SOL    MW412994   4.340   3.342   2.805  0.1116  1.0362 -0.4098
 3306SOL     OW12995   5.475   2.073   1.402 -0.5351  0.2799  0.1241
 3306SOL    HW212996   5.393   2.119   1.382 -1.1675 -0.0561  1.8161
 3306SOL    HW312997   5.542   2.141   1.403 -1.1231  0.8498  0.6389
 3306SOL    MW412998   5.473   2.088   1.399 -0.0523 -0.4100  0.3090
 3307SOL     OW12999   0.328   0.600   4.445  0.2498 -0.0591  0.1502
 3307SOL    HW213000   0.260   0.581   4.380  1.4419  2.5212 -2.0768
 3307SOL    HW313001   0.408   0.604   4.393  1.3118  1.8341  1.8536
 3307SOL    MW413002   0.329   0.598   4.429  0.4237 -0.3733  0.3922
 3308SOL     OW13003   2.765   3.790   3.989  0.1030  0.3255  0.0518
 3308SOL    HW213004   2.700   3.779   4.059 -1.0259 -3.6926 -1.3634
 3308SOL    HW313005   2.847   3.807   4.035 -0.6372 -1.8557  2.4215
 3308SOL    MW413006   2.767   3.791   4.004  0.4054  0.0105 -0.1677
 3309SOL     OW13007   1.612   6.101   4.858  0.6906  0.4212 -0.4046
 3309SOL    HW213008   1.546   6.091   4.789 -0.8174 -2.2784  1.2360
 3309SOL    HW313009   1.581   6.174   4.911 -0.3514 -0.0150 -0.3848
 3309SOL    MW413010   1.599   6.109   4.856  0.0604 -0.6102  0.0896
 3310SOL     OW13011   0.433   3.773   4.511  0.2481  0.3346  0.1825
 3310SOL    HW213012   0.460   3.726   4.432 -0.5596 -3.1927  1.8488
 3310SOL    HW313013   0.346   3.808   4.489  0.2378 -0.1809 -0.6465
 3310SOL    MW413014   0.425   3.772   4.498 -0.1118 -0.6013 -0.0724
 3311SOL     OW13015   2.425   3.393   4.932  0.1456 -0.3942  0.4528
 3311SOL    HW213016   2.483   3.433   4.868  0.9893 -0.5680  1.0933
 3311SOL    HW313017   2.454   3.427   5.016 -1.5399  0.5635  0.6972
 3311SOL    MW413018   2.437   3.403   4.934 -0.0032  0.2266  0.1450
 3312SOL     OW13019   5.873   3.541   3.055 -0.1092  0.3174  0.2586
 3312SOL    HW213020   5.794   3.594   3.044  0.6517  1.4779  0.1653
 3312SOL    HW313021   5.918   3.579   3.131  1.5359  1.2689 -1.1117
 3312SOL    MW413022   5.869   3.553   3.063 -0.3177  0.5625  0.0651
 3313SOL     OW13023   2.923   6.290   1.017  0.1433  0.2726  0.3105
 3313SOL    HW213024   2.968   6.299   0.933 -0.5624  0.2254 -0.0855
 3313SOL    HW313025   2.933   6.198   1.041 -0.2022  0.1411 -0.0452
 3313SOL    MW413026   2.930   6.279   1.009 -0.3092 -0.1662 -0.3030
 3314SOL     OW13027   5.625   5.735   2.114 -0.1384  0.4673 -0.1112
 3314SOL    HW213028   5.692   5.719   2.180 -0.5727 -0.1929  0.1880
 3314SOL    HW313029   5.606   5.829   2.121  0.8305  0.6873 -0.2912
 3314SOL    MW413030   5.631   5.745   2.124  0.2537  0.5744  0.6492
 3315SOL     OW13031   6.135   2.188   4.410  0.3390  0.2417 -0.1849
 3315SOL    HW213032   6.050   2.223   4.435  0.2027 -0.0691 -0.2126
 3315SOL    HW313033   6.144   2.108   4.461  1.4934  1.2796  1.3647
 3315SOL    MW413034   6.125   2.182   4.420 -0.6238 -0.2759 -0.0897
 3316SOL     OW13035   0.609   2.660   0.455 -0.0505  0.0094 -0.1750
 3316SOL    HW213036   0.578   2.721   0.388 -0.5065  0.8342  0.7494
 3316SOL    HW313037   0.543   2.664   0.524  0.3693 -0.8663  0.3007
 3316SOL    MW413038   0.596   2.669   0.455 -0.3540 -0.6129  0.3233
 3317SOL     OW13039   1.602   1.501   4.799  0.3306 -0.4107  0.6359
 3317SOL    HW213040   1.676   1.542   4.843  2.2340 -1.0823 -1.7178
 3317SOL    HW313041   1.583   1.558   4.724 -2.2497  0.2653  1.6897
 3317SOL    MW413042   1.609   1.514   4.795 -0.2632 -0.5319 -0.1093
 3318SOL     OW13043   2.470   4.993   3.369 -0.1114 -0.4022 -0.0525
 3318SOL    HW213044   2.384   5.034   3.362  0.4256  0.7471 -0.1297
 3318SOL    HW313045   2.471   4.927   3.299 -1.2515 -1.0824  0.5353
 3318SOL    MW413046   2.459   4.990   3.359 -0.1414 -0.5139  0.1324
 3319SOL     OW13047   3.906   3.189   2.794  0.2379  0.4077 -0.4371
 3319SOL    HW213048   3.880   3.152   2.879 -0.9284  0.4437 -0.7541
 3319SOL    HW313049   3.824   3.221   2.756  0.8879  1.2505 -1.1726
 3319SOL    MW413050   3.892   3.188   2.800  0.1376  0.0498  0.3218
 3320SOL     OW13051   0.122   3.605   4.097  0.1644  0.3354  0.2946
 3320SOL    HW213052   0.027   3.593   4.101  0.0106  1.5549  0.9973
 3320SOL    HW313053   0.155   3.525   4.056 -1.3027  0.5999 -1.5154
 3320SOL    MW413054   0.114   3.593   4.092  0.3527  0.4809  0.0139
 3321SOL     OW13055   3.731   1.088   0.399 -0.3829  0.0168 -0.0365
 3321SOL    HW213056   3.637   1.083   0.380 -0.2019 -3.0881 -0.5736
 3321SOL    HW313057   3.760   1.168   0.355 -2.8031  1.3329  0.5488
 3321SOL    MW413058   3.722   1.098   0.391 -0.3567 -0.9296  0.2030
 3322SOL     OW13059   0.868   1.831   2.175  0.1716 -0.3782 -0.3326
 3322SOL    HW213060   0.797   1.783   2.132  0.3818 -2.0259  1.0528
 3322SOL    HW313061   0.857   1.811   2.268 -0.1408  2.8926  0.4288
 3322SOL    MW413062   0.857   1.822   2.181 -0.0787 -0.7392  0.1619
 3323SOL     OW13063   1.510   4.899   3.475 -0.0463  0.4296 -0.9489
 3323SOL    HW213064   1.520   4.849   3.556  2.8148 -0.0238 -1.4625
 3323SOL    HW313065   1.465   4.839   3.415 -0.3845  0.0360 -0.3168
 3323SOL    MW413066   1.505   4.885   3.478  0.2520  0.6838 -0.1106
 3324SOL     OW13067   5.812   1.034   0.611  0.6253 -0.2835 -0.3009
 3324SOL    HW213068   5.746   1.080   0.663  0.9151 -0.7682  0.5179
 3324SOL    HW313069   5.892   1.085   0.625  0.6919 -0.3867 -0.3088
 3324SOL    MW413070   5.814   1.047   0.620  0.4730  0.1890 -0.0550
 3325SOL     OW13071   1.892   0.014   5.106 -0.1016 -0.3442 -0.1195
 3325SOL    HW213072   1.879   0.004   5.200  0.7987  0.3157  0.0874
 3325SOL    HW313073   1.904  -0.075   5.074  0.0230 -0.5447  0.4662
 3325SOL    MW413074   1.892   0.001   5.114  0.6033  0.7039  0.3196
 3326SOL     OW13075   4.598   4.198   5.663  0.1449 -0.7236  0.0551
 3326SOL    HW213076   4.662   4.144   5.618 -0.5506 -2.5228  1.1400
 3326SOL    HW313077   4.636   4.215   5.749 -0.5495 -1.2840  0.4837
 3326SOL    MW413078   4.611   4.193   5.669 -0.1029  0.0575  0.0162
 3327SOL     OW13079   1.914   1.093   4.602 -0.0393  0.3521 -0.8433
 3327SOL    HW213080   1.821   1.082   4.581 -0.2911  1.0203 -0.0943
 3327SOL    HW313081   1.919   1.089   4.697  0.6395  0.8326 -0.8495
 3327SOL    MW413082   1.903   1.091   4.612 -0.4115 -0.1645 -0.2260
 3328SOL     OW13083   3.930   2.660   0.003  0.5576 -0.2918 -0.3325
 3328SOL    HW213084   3.942   2.729  -0.062  0.0940  0.1372  0.0270
 3328SOL    HW313085   4.003   2.599  -0.012  0.1111 -0.5356 -1.6592
 3328SOL    MW413086   3.941   2.661  -0.007 -0.0268 -0.3219 -0.6719
 3329SOL     OW13087   3.126   0.675   0.240  0.4982 -0.4346 -0.3404
 3329SOL    HW213088   3.053   0.725   0.276  1.8592  2.1520 -0.9054
 3329SOL    HW313089   3.197   0.689   0.302  0.8489 -1.9693 -0.3738
 3329SOL    MW413090   3.125   0.684   0.253  0.5303 -0.8031  0.1987
 3330SOL     OW13091   4.175   0.923   6.333 -0.5216 -0.1555  0.0690
 3330SOL    HW213092   4.264   0.916   6.367 -0.9999  2.6842  2.3035
 3330SOL    HW313093   4.121   0.884   6.402 -1.1958  1.4585  0.5039
 3330SOL    MW413094   4.180   0.917   6.347  0.1216  0.2156  0.6881
 3331SOL     OW13095   3.141   1.448   3.391  0.2395  0.2069 -0.0094
 3331SOL    HW213096   3.071   1.471   3.453 -0.1358 -0.2700 -0.2556
 3331SOL    HW313097   3.220   1.446   3.445 -0.2620 -1.4175  0.7285
 3331SOL    MW413098   3.142   1.451   3.407  0.5608  0.2120  0.1707
 3332SOL     OW13099   3.093   2.537   4.314  0.1160 -0.2596  0.0605
 3332SOL    HW213100   3.076   2.632   4.317 -1.0855 -0.4433 -0.2401
 3332SOL    HW313101   3.153   2.526   4.241 -0.6813  0.1634 -0.6811
 3332SOL    MW413102   3.098   2.548   4.305 -0.1142  0.6345 -0.0354
 3333SOL     OW13103   6.073   0.626   6.017 -0.1082 -0.4368  0.6462
 3333SOL    HW213104   5.993   0.670   6.047 -1.4140 -1.3381 -1.3312
 3333SOL    HW313105   6.089   0.663   5.930  0.0500 -2.1895 -0.1029
 3333SOL    MW413106   6.064   0.637   6.010 -0.1523  0.3607 -0.3419
 3334SOL     OW13107   1.277   0.183   4.622 -0.1108 -0.8411  0.2506
 3334SOL    HW213108   1.243   0.106   4.576  0.3458 -0.2912 -1.0822
 3334SOL    HW313109   1.349   0.148   4.675 -2.3460 -1.9364  2.7825
 3334SOL    MW413110   1.282   0.168   4.623 -0.0533 -0.5439 -0.3440
 3335SOL     OW13111   3.018   5.660   1.245  0.3045 -0.0711  0.0459
 3335SOL    HW213112   2.965   5.717   1.301  0.4984 -0.6055  0.7936
 3335SOL    HW313113   2.975   5.575   1.249  0.4906 -0.1872 -0.3792
 3335SOL    MW413114   3.006   5.656   1.253 -0.6899 -0.3721 -0.0607
 3336SOL     OW13115   5.530   6.345   0.478 -0.3726  0.3088 -0.3150
 3336SOL    HW213116   5.442   6.355   0.513 -0.5696 -0.5488 -0.5434
 3336SOL    HW313117   5.584   6.406   0.530 -0.6743 -0.8341  1.4106
 3336SOL    MW413118   5.526   6.355   0.489  0.2929 -0.3285 -0.1523
 3337SOL     OW13119   4.373   5.112   0.496  0.6802 -0.5920  0.0687
 3337SOL    HW213120   4.369   5.152   0.410 -1.0904 -1.1893 -0.1704
 3337SOL    HW313121   4.381   5.018   0.478 -1.9255 -0.9558  0.4452
 3337SOL    MW413122   4.374   5.105   0.482 -0.5801 -0.4663  0.5028
 3338SOL     OW13123   1.593   2.024   2.412  0.1680 -0.4743  0.2551
 3338SOL    HW213124   1.607   1.933   2.387  0.6932  0.0238 -1.3289
 3338SOL    HW313125   1.600   2.023   2.508  1.4932 -1.8823  0.1912
 3338SOL    MW413126   1.596   2.012   2.422  0.2290  0.7747  0.3564
 3339SOL     OW13127   0.596   2.647   2.147 -0.1291  0.1611 -0.8057
 3339SOL    HW213128   0.648   2.567   2.146  0.8116  0.7540 -0.7344
 3339SOL    HW313129   0.515   2.624   2.101  0.1775 -0.7915 -0.8818
 3339SOL    MW413130   0.592   2.633   2.141  0.0521 -0.5220  0.1903
 3340SOL     OW13131   5.868   1.091   4.404 -0.0147  0.2119  0.1693
 3340SOL    HW213132   5.808   1.164   4.388 -0.9785 -0.8101 -1.0402
 3340SOL    HW313133   5.823   1.014   4.368  1.2748 -0.8764  0.7925
 3340SOL    MW413134   5.854   1.090   4.397 -0.0576  0.4872 -0.0148
 3341SOL     OW13135   0.112   1.685   0.671 -0.7793 -0.0991  0.0640
 3341SOL    HW213136   0.134   1.759   0.727  0.0288 -0.9641  0.9349
 3341SOL    HW313137   0.194   1.636   0.662 -1.7378 -2.0722  1.3441
 3341SOL    MW413138   0.126   1.688   0.677  0.0211  0.3216  0.0284
 3342SOL     OW13139   4.032   5.460   3.849  0.0057  0.6084  0.0835
 3342SOL    HW213140   4.011   5.553   3.847 -0.6053  0.5076  1.2390
 3342SOL    HW313141   3.947   5.416   3.857  0.3513 -0.0038  0.4570
 3342SOL    MW413142   4.018   5.467   3.850 -0.3728 -0.4359  0.2008
 3343SOL     OW13143   5.263   5.595   5.294 -0.4491  0.3663 -0.0024
 3343SOL    HW213144   5.336   5.598   5.357 -0.8259  1.4213  0.4007
 3343SOL    HW313145   5.248   5.687   5.270 -2.9710  0.4069  1.4714
 3343SOL    MW413146   5.271   5.608   5.299  0.0686 -0.0209 -0.1389
 3344SOL     OW13147   2.004   1.205   2.740  0.3809  0.7026  0.5055
 3344SOL    HW213148   1.920   1.193   2.784 -0.4739 -0.4893 -1.3310
 3344SOL    HW313149   2.051   1.268   2.795 -1.1299  0.3233  2.3351
 3344SOL    MW413150   1.999   1.212   2.753  0.2092  0.2095 -0.0071
 3345SOL     OW13151   1.653   4.660   6.377 -0.7058  0.3875  0.7746
 3345SOL    HW213152   1.557   4.656   6.373 -0.6832  0.6132 -0.3949
 3345SOL    HW313153   1.676   4.599   6.447 -1.6354 -0.9137  0.0128
 3345SOL    MW413154   1.643   4.651   6.386  0.3344 -0.2188 -0.0144
 3346SOL     OW13155   5.857   2.005   3.069 -0.2467 -0.2991 -0.2780
 3346SOL    HW213156   5.831   2.096   3.054  1.0924 -0.1394 -1.8404
 3346SOL    HW313157   5.869   1.999   3.164  0.6912  1.4649 -0.2452
 3346SOL    MW413158   5.855   2.016   3.079  0.1609 -0.0705  0.2068
 3347SOL     OW13159   5.068   3.462   4.804  0.3500  0.1306 -0.0151
 3347SOL    HW213160   5.031   3.476   4.716 -1.2123 -2.3278  0.1346
 3347SOL    HW313161   4.991   3.449   4.860  1.3039 -2.9009  0.7763
 3347SOL    MW413162   5.053   3.462   4.800 -0.1667  0.0807 -0.3083
 3348SOL     OW13163   2.801   0.489   5.675  0.1240 -0.0815 -0.1636
 3348SOL    HW213164   2.797   0.444   5.591 -0.0256  0.2945 -0.3591
 3348SOL    HW313165   2.787   0.420   5.740  0.5931 -0.4320 -0.4274
 3348SOL    MW413166   2.799   0.474   5.672 -0.1128  0.1420 -0.0964
 3349SOL     OW13167   2.327   2.506   1.888  0.0335 -0.1184  0.1843
 3349SOL    HW213168   2.322   2.450   1.810 -0.3704 -0.1167  0.2046
 3349SOL    HW313169   2.264   2.468   1.949  1.1845 -0.8032  0.9738
 3349SOL    MW413170   2.318   2.494   1.885  0.3604  0.3532  0.0808
 3350SOL     OW13171   5.078   0.277   2.893 -0.4798 -0.3175  0.2009
 3350SOL    HW213172   5.062   0.345   2.827 -0.0581 -0.7405 -0.3548
 3350SOL    HW313173   5.147   0.312   2.948 -0.5330 -0.1336  0.1518
 3350SOL    MW413174   5.085   0.290   2.891 -0.6796  0.4816 -1.0996
 3351SOL     OW13175   0.885   0.092   4.725  0.0389  0.4724  0.4292
 3351SOL    HW213176   0.928   0.176   4.735 -2.1516  1.8931 -1.0917
 3351SOL    HW313177   0.820   0.089   4.796  0.6583 -0.3382  0.9813
 3351SOL    MW413178   0.882   0.103   4.736 -0.0281 -0.3459 -0.0983
 3352SOL     OW13179   2.108   4.689   0.307 -0.3816 -0.0049 -0.4983
 3352SOL    HW213180   2.089   4.754   0.239  2.2313  0.6456 -0.7155
 3352SOL    HW313181   2.116   4.741   0.388 -0.4111 -0.3640 -0.2649
 3352SOL    MW413182   2.106   4.705   0.309 -0.1162  0.0832 -0.2404
 3353SOL     OW13183   4.502   5.442   3.817 -0.2406  0.3720 -0.1321
 3353SOL    HW213184   4.446   5.371   3.849 -1.0945  0.4132 -1.4215
 3353SOL    HW313185   4.581   5.437   3.870 -1.0259 -0.3958  1.0122
 3353SOL    MW413186   4.505   5.432   3.828  0.0698  0.2588 -0.1269
 3354SOL     OW13187   3.688   5.777   1.132  0.7182  0.0025  0.5648
 3354SOL    HW213188   3.641   5.827   1.066  1.6688  0.8796  0.5311
 3354SOL    HW313189   3.620   5.729   1.179 -0.7206  3.7517  2.7438
 3354SOL    MW413190   3.673   5.777   1.130  0.1342  0.1994 -0.2146
 3355SOL     OW13191   0.494   0.284   6.383  0.5738  0.1714 -0.1142
 3355SOL    HW213192   0.482   0.325   6.297  1.8452 -0.3616 -0.5743
 3355SOL    HW313193   0.411   0.239   6.400  0.7879 -0.9318 -1.7592
 3355SOL    MW413194   0.482   0.283   6.374  0.2473  0.4243  0.2110
 3356SOL     OW13195   0.413   4.001   4.231 -0.0011 -0.4381  0.1558
 3356SOL    HW213196   0.444   3.913   4.254 -0.2905 -0.7780 -0.6876
 3356SOL    HW313197   0.319   3.990   4.217  0.3064 -0.5427 -2.2931
 3356SOL    MW413198   0.405   3.988   4.232 -0.0037 -0.0396  0.0278
 3357SOL     OW13199   2.982   0.601   1.200 -0.5180 -0.2474  0.5834
 3357SOL    HW213200   2.903   0.651   1.181  0.0579  0.8124  0.8905
 3357SOL    HW313201   3.018   0.580   1.114 -1.0435 -0.6111  0.4446
 3357SOL    MW413202   2.976   0.605   1.186  0.3648  0.0194  0.5275
 3358SOL     OW13203   4.306   0.773   0.257 -0.2655 -0.4897  0.2227
 3358SOL    HW213204   4.280   0.714   0.187 -0.6728 -1.1075  0.8761
 3358SOL    HW313205   4.224   0.797   0.300 -0.1547  0.9526 -0.3340
 3358SOL    MW413206   4.292   0.768   0.254 -0.1565  0.0093  0.3029
 3359SOL     OW13207   2.680   3.941   3.596 -0.3741  0.1581 -0.0576
 3359SOL    HW213208   2.772   3.965   3.607 -0.0944  0.0843 -1.9451
 3359SOL    HW313209   2.682   3.851   3.564 -1.0891  0.1989 -0.2421
 3359SOL    MW413210   2.692   3.933   3.593 -0.0593  0.1880 -0.2503
 3360SOL     OW13211   6.332   4.035   1.554 -0.3951 -0.3106 -0.2643
 3360SOL    HW213212   6.305   4.109   1.500  0.7745  0.9007  0.7450
 3360SOL    HW313213   6.417   4.060   1.589  0.0037 -2.1109  0.1868
 3360SOL    MW413214   6.339   4.048   1.552 -0.5371 -0.2053 -0.2904
 3361SOL     OW13215   1.069   1.983   3.678 -1.0945 -0.0110 -0.6370
 3361SOL    HW213216   1.002   1.930   3.635 -0.8339 -1.0606  0.2253
 3361SOL    HW313217   1.093   1.934   3.757  1.0958  0.0457 -1.2001
 3361SOL    MW413218   1.063   1.970   3.683  0.0781  1.0177 -0.0264
 3362SOL     OW13219   1.463   5.922   5.188 -0.0499  0.0057  0.2673
 3362SOL    HW213220   1.535   5.931   5.125 -0.2618 -0.5444 -0.0610
 3362SOL    HW313221   1.389   5.893   5.136 -0.6204  0.9009  0.5455
 3362SOL    MW413222   1.463   5.920   5.173  0.0185 -0.1191  0.5185
 3363SOL     OW13223   5.563   2.863   3.864  0.0408 -0.1108 -0.2483
 3363SOL    HW213224   5.517   2.809   3.799 -0.8026 -0.9280  0.9900
 3363SOL    HW313225   5.514   2.850   3.945 -0.1940  2.5290  0.1191
 3363SOL    MW413226   5.550   2.854   3.866  0.1288  0.3683  0.3002
 3364SOL     OW13227   4.949   4.609   5.660  0.2123 -0.4178 -0.1624
 3364SOL    HW213228   4.960   4.530   5.713  0.7184 -0.2376  0.0077
 3364SOL    HW313229   4.857   4.608   5.633 -0.5629  0.3742  2.1784
 3364SOL    MW413230   4.938   4.599   5.663  0.4142  0.0584 -0.6001
 3365SOL     OW13231   6.167   2.357   4.731  0.2390  0.2652 -0.4428
 3365SOL    HW213232   6.126   2.292   4.789  1.2309  0.3152  0.3335
 3365SOL    HW313233   6.220   2.411   4.789 -1.1980  2.3250 -0.9432
 3365SOL    MW413234   6.168   2.355   4.746  0.4205 -0.2465 -0.2713
 3366SOL     OW13235   4.646   3.269   1.218  0.3102 -0.0831  0.1266
 3366SOL    HW213236   4.650   3.246   1.311 -1.6067 -0.7570  0.0936
 3366SOL    HW313237   4.734   3.251   1.184  1.3043  0.9815  1.9539
 3366SOL    MW413238   4.658   3.264   1.226 -0.2189 -0.3532  0.6012
 3367SOL     OW13239   0.287   3.018   4.701 -0.0770  0.1666  1.0216
 3367SOL    HW213240   0.350   2.960   4.658  1.2557  1.8732  0.6037
 3367SOL    HW313241   0.246   3.066   4.629 -0.7887  0.1439  1.4021
 3367SOL    MW413242   0.290   3.016   4.686  0.0098  0.3887 -0.2745
 3368SOL     OW13243   2.386   4.238   5.201 -0.1447  0.2882  0.4891
 3368SOL    HW213244   2.338   4.288   5.134  0.3612 -0.2358 -0.2767
 3368SOL    HW313245   2.463   4.291   5.220  1.1558 -0.8325 -1.3900
 3368SOL    MW413246   2.390   4.252   5.195  0.2316 -0.1728  0.3035
 3369SOL     OW13247   0.596   3.114   1.026 -0.0691 -0.0445 -0.5682
 3369SOL    HW213248   0.505   3.140   1.040 -0.1945 -0.5656 -0.3867
 3369SOL    HW313249   0.615   3.054   1.098  0.8590  1.1314  0.2012
 3369SOL    MW413250   0.587   3.109   1.037  0.4412 -0.0265 -0.6787
 3370SOL     OW13251   5.634   2.989   2.411  0.8005 -0.3442 -0.1583
 3370SOL    HW213252   5.725   2.981   2.438  0.9700  0.0603 -0.6066
 3370SOL    HW313253   5.623   2.924   2.341  0.5623 -0.8594  0.3456
 3370SOL    MW413254   5.644   2.979   2.405  0.3588 -0.4909 -0.0265
 3371SOL     OW13255   3.831   1.361   5.245  0.4283  0.0016  0.5243
 3371SOL    HW213256   3.749   1.326   5.210  0.2403  0.5518  0.4038
 3371SOL    HW313257   3.899   1.330   5.185  0.0581  1.3395 -0.6295
 3371SOL    MW413258   3.829   1.352   5.232 -0.4929  0.5382 -0.1427
 3372SOL     OW13259   2.273   1.825   2.925  0.1439  0.6328 -0.0954
 3372SOL    HW213260   2.360   1.800   2.896 -0.2178 -1.1920  0.2896
 3372SOL    HW313261   2.221   1.828   2.844  0.3595  0.9344 -0.2285
 3372SOL    MW413262   2.278   1.822   2.910 -0.1633  0.1849 -0.4032
 3373SOL     OW13263   5.642   4.231   0.330  0.9855 -0.1906  0.1213
 3373SOL    HW213264   5.709   4.293   0.360  1.5552 -0.2381 -1.0116
 3373SOL    HW313265   5.688   4.148   0.321  0.5686 -0.4321  0.1788
 3373SOL    MW413266   5.657   4.229   0.333 -0.2207 -0.5129  0.2312
 3374SOL     OW13267   1.109   1.111   1.556  0.2907 -0.2927 -0.0659
 3374SOL    HW213268   1.130   1.156   1.474  1.1803  0.7345  0.7034
 3374SOL    HW313269   1.030   1.156   1.588 -0.1614 -0.8106 -0.4264
 3374SOL    MW413270   1.101   1.123   1.549  0.0230  0.0762 -0.2999
 3375SOL     OW13271   1.200   4.808   1.937 -0.2037  0.2301  0.3816
 3375SOL    HW213272   1.145   4.764   2.002  1.9015 -0.9099  1.4791
 3375SOL    HW313273   1.290   4.787   1.963  0.7465  0.6792 -2.2761
 3375SOL    MW413274   1.205   4.800   1.949 -0.1451  0.1803 -0.7733
 3376SOL     OW13275   1.830   4.884   1.396  0.5832  0.4918  0.5576
 3376SOL    HW213276   1.922   4.907   1.381  0.7965 -0.3691  0.4855
 3376SOL    HW313277   1.814   4.810   1.337 -0.0584  0.4130  0.8226
 3376SOL    MW413278   1.840   4.878   1.386  0.0880  0.2779  0.3851
 3377SOL     OW13279   6.011   5.249   4.906 -0.1985  0.1230 -0.0335
 3377SOL    HW213280   6.093   5.279   4.866  1.1930 -0.7265  2.0080
 3377SOL    HW313281   6.032   5.163   4.942 -1.2628  0.8729  2.5961
 3377SOL    MW413282   6.025   5.242   4.905  0.7625 -0.2554  0.7320
 3378SOL     OW13283   6.011   4.423   3.160 -0.0385 -0.2444 -0.6405
 3378SOL    HW213284   6.048   4.336   3.147 -2.4283 -1.1772 -1.7085
 3378SOL    HW313285   5.953   4.414   3.235 -1.3733  0.0030 -1.5938
 3378SOL    MW413286   6.008   4.410   3.168 -0.4418 -0.9540  1.1756
 3379SOL     OW13287   3.887   1.812   1.641  0.2013  0.3577  0.1449
 3379SOL    HW213288   3.802   1.784   1.605 -0.0183 -1.2624  1.7279
 3379SOL    HW313289   3.942   1.828   1.565 -1.2060  0.3747 -0.9092
 3379SOL    MW413290   3.883   1.810   1.626  0.4829 -1.1960 -0.1530
 3380SOL     OW13291   0.064   5.289   1.793 -0.3642  0.0575  0.2852
 3380SOL    HW213292   0.008   5.264   1.867  0.8907 -2.4793  0.4667
 3380SOL    HW313293   0.129   5.220   1.787  0.9998  1.3958 -1.7801
 3380SOL    MW413294   0.065   5.277   1.802 -0.0653 -0.0005 -0.0714
 3381SOL     OW13295   5.685   0.861   1.918  0.4375  0.6854 -0.0797
 3381SOL    HW213296   5.757   0.906   1.873  0.5198  1.0539  0.4200
 3381SOL    HW313297   5.658   0.921   1.988 -0.7774  0.8447 -0.6463
 3381SOL    MW413298   5.691   0.875   1.921  1.0522  0.3333 -0.1063
 3382SOL     OW13299   3.300   2.591   3.430  0.0016 -0.7986 -0.2086
 3382SOL    HW213300   3.324   2.680   3.456 -0.0624 -0.5373 -1.0107
 3382SOL    HW313301   3.249   2.557   3.504  2.5777 -1.3041  1.4833
 3382SOL    MW413302   3.297   2.598   3.443  0.0853 -0.1752 -0.0448
 3383SOL     OW13303   2.229   1.939   0.792  0.0449 -0.3530 -0.2711
 3383SOL    HW213304   2.151   1.993   0.802 -1.9894 -3.3561  2.0453
 3383SOL    HW313305   2.301   2.001   0.784 -2.1426  2.6602  1.4606
 3383SOL    MW413306   2.228   1.954   0.792  0.3975  0.0599  0.7028
 3384SOL     OW13307   1.069   2.043   2.927 -0.3089 -0.6122  0.6530
 3384SOL    HW213308   1.139   2.077   2.871 -1.4695 -0.1499 -0.5662
 3384SOL    HW313309   1.038   2.120   2.975 -0.5267 -0.6459  0.5690
 3384SOL    MW413310   1.074   2.058   2.926  0.0689 -0.0307  0.1133
 3385SOL     OW13311   0.685   2.951   5.963 -0.1142 -0.2606 -0.0268
 3385SOL    HW213312   0.624   3.024   5.952 -0.4389 -0.5190  0.0578
 3385SOL    HW313313   0.662   2.889   5.893 -0.4368 -0.6950  0.4614
 3385SOL    MW413314   0.674   2.952   5.952  0.1215 -0.1147  0.6783
 3386SOL     OW13315   4.082   3.999   5.767  0.0310  0.3729 -0.0164
 3386SOL    HW213316   4.122   4.080   5.736 -1.2748  1.3114  0.6399
 3386SOL    HW313317   4.088   4.004   5.862 -1.7645  0.6531  0.1196
 3386SOL    MW413318   4.088   4.011   5.775  0.0983  0.1876  0.1117
 3387SOL     OW13319   1.945   4.920   2.050  0.4211 -0.9194  0.2864
 3387SOL    HW213320   1.950   4.959   1.962 -0.0054 -1.0461  0.2062
 3387SOL    HW313321   1.865   4.956   2.087 -0.9812 -3.1054 -0.4615
 3387SOL    MW413322   1.935   4.930   2.043 -0.0653 -0.6578  0.1058
 3388SOL     OW13323   3.056   3.151   4.377  0.3141  0.1637  0.0416
 3388SOL    HW213324   3.007   3.118   4.301  0.8859 -0.1566 -0.1944
 3388SOL    HW313325   3.062   3.245   4.363 -1.1379  0.3677  0.6041
 3388SOL    MW413326   3.050   3.159   4.365 -0.2794 -0.2232 -0.4130
 3389SOL     OW13327   0.943   1.787   4.170 -0.3045  0.6426  0.4554
 3389SOL    HW213328   0.877   1.834   4.117 -0.6131 -1.3190 -1.0208
 3389SOL    HW313329   0.894   1.716   4.211  0.7693 -0.5679 -0.2919
 3389SOL    MW413330   0.928   1.784   4.168  0.8510 -0.4299 -0.3508
 3390SOL     OW13331   0.976   4.179   1.339 -0.2647 -0.4784  0.0475
 3390SOL    HW213332   1.010   4.238   1.406  1.3484 -0.7210 -0.5182
 3390SOL    HW313333   0.997   4.091   1.372 -0.0283 -0.6186 -0.4597
 3390SOL    MW413334   0.983   4.175   1.352 -0.3698  0.1651 -0.0793
 3391SOL     OW13335   3.127   5.026   3.702 -0.4174  0.4402  0.5519
 3391SOL    HW213336   3.073   5.104   3.692 -1.3924 -0.1154  1.3345
 3391SOL    HW313337   3.136   4.990   3.614 -1.4426  0.4665  0.4331
 3391SOL    MW413338   3.121   5.031   3.689 -0.2134 -0.7124 -0.0760
 3392SOL     OW13339   5.944   6.039   3.245 -0.0296 -0.1549 -0.0440
 3392SOL    HW213340   5.964   6.123   3.204  1.5297  0.0296  1.0112
 3392SOL    HW313341   5.986   5.974   3.190  1.1248  0.0018  0.6329
 3392SOL    MW413342   5.952   6.042   3.232 -0.2739  0.1590 -0.7728
 3393SOL     OW13343   2.438   1.285   2.600 -0.3028  0.0849 -0.2550
 3393SOL    HW213344   2.449   1.274   2.506 -0.7028  0.0277 -0.2986
 3393SOL    HW313345   2.367   1.225   2.624  1.7015 -2.1038  0.6007
 3393SOL    MW413346   2.430   1.276   2.591  0.0009 -0.1295  0.4275
 3394SOL     OW13347   0.986   4.293   3.105 -0.3054  0.2835  0.2761
 3394SOL    HW213348   0.894   4.281   3.084  0.1986 -2.2674 -0.8487
 3394SOL    HW313349   1.026   4.324   3.024 -0.1838  1.8412  0.8865
 3394SOL    MW413350   0.979   4.296   3.092  0.1233 -0.4769 -0.0957
 3395SOL     OW13351   0.040   5.382   0.255 -0.1158 -0.7576 -0.2549
 3395SOL    HW213352  -0.019   5.374   0.179  0.0361 -1.8473 -0.2730
 3395SOL    HW313353  -0.014   5.423   0.322 -0.5403 -0.6470 -0.6513
 3395SOL    MW413354   0.025   5.386   0.254  0.3565 -0.3084  0.4339
 3396SOL     OW13355   1.811   1.798   0.054 -0.0214  0.1986  0.1194
 3396SOL    HW213356   1.728   1.797   0.100 -0.1331 -2.5622  0.0480
 3396SOL    HW313357   1.877   1.793   0.123  0.0015  0.2428  0.1010
 3396SOL    MW413358   1.809   1.797   0.069  0.3935  0.0348 -0.5751
 3397SOL     OW13359   1.939   3.463   0.666 -0.3829  0.0844  0.2277
 3397SOL    HW213360   1.923   3.531   0.600 -0.5514 -0.0087  0.1731
 3397SOL    HW313361   2.030   3.478   0.693 -0.1519 -0.1856 -0.3812
 3397SOL    MW413362   1.949   3.474   0.661 -0.4669  0.2594 -0.2114
 3398SOL     OW13363   1.321   2.883   5.571  0.3178  0.5693  0.4639
 3398SOL    HW213364   1.298   2.816   5.507  0.6003  1.2137 -0.3216
 3398SOL    HW313365   1.399   2.848   5.615 -0.4589 -0.3264  1.1726
 3398SOL    MW413366   1.328   2.869   5.569  0.5617 -0.0776  0.2919
 3399SOL     OW13367   5.181   3.096   4.559 -0.6538 -0.4799 -0.0221
 3399SOL    HW213368   5.234   3.167   4.520 -0.3427 -0.5915  0.1946
 3399SOL    HW313369   5.187   3.112   4.653 -0.3098 -0.9853  0.0452
 3399SOL    MW413370   5.189   3.108   4.566  0.4614  0.3490  0.2058
 3400SOL     OW13371   2.143   1.628   2.478  0.2520  0.4155 -0.5792
 3400SOL    HW213372   2.186   1.587   2.402  1.0126  0.0223  0.0445
 3400SOL    HW313373   2.093   1.557   2.517 -0.6643  0.7743 -1.0648
 3400SOL    MW413374   2.142   1.613   2.473 -0.2212 -0.7422  0.2835
 3401SOL     OW13375   4.274   2.045   3.917  0.0920  0.3395 -0.5314
 3401SOL    HW213376   4.252   2.060   3.825  0.8099 -0.2783 -0.8150
 3401SOL    HW313377   4.268   1.950   3.928  1.7215  0.2233 -0.4130
 3401SOL    MW413378   4.270   2.035   3.906  0.3358  0.1221 -0.2079
 3402SOL     OW13379   3.436   2.030   1.212  0.2200  0.3821  0.3970
 3402SOL    HW213380   3.366   1.968   1.235  1.4363 -0.2262  2.7054
 3402SOL    HW313381   3.459   2.072   1.294  2.6213  0.5078 -0.2574
 3402SOL    MW413382   3.430   2.027   1.226  0.1806 -0.1260 -0.1852
 3403SOL     OW13383   1.868   4.197   2.426  0.2145  0.1558  0.2415
 3403SOL    HW213384   1.790   4.216   2.478  0.3364 -0.7713  0.7880
 3403SOL    HW313385   1.838   4.199   2.335 -0.0138  1.7352  0.3266
 3403SOL    MW413386   1.854   4.200   2.421  0.0263 -0.2706  0.3145
 3404SOL     OW13387   2.752   2.855   4.906 -0.4443 -0.1591  0.0498
 3404SOL    HW213388   2.801   2.783   4.866 -1.3529 -0.3396 -0.7903
 3404SOL    HW313389   2.784   2.934   4.863 -0.6127 -0.2405 -0.2306
 3404SOL    MW413390   2.762   2.856   4.895  0.6462  0.0879  0.0073
 3405SOL     OW13391   4.204   6.379   6.088 -0.6372 -0.2219  0.2035
 3405SOL    HW213392   4.116   6.372   6.050 -0.9773 -0.5266  1.0219
 3405SOL    HW313393   4.189   6.405   6.179  0.0246 -1.6331  0.7561
 3405SOL    MW413394   4.191   6.381   6.095 -0.1456  0.1081 -0.1398
 3406SOL     OW13395   4.048   5.765   0.072 -0.0531 -0.0103 -0.2251
 3406SOL    HW213396   3.994   5.841   0.094 -0.3716 -0.8982  2.3436
 3406SOL    HW313397   3.989   5.707   0.024 -0.1178  0.8554 -1.2271
 3406SOL    MW413398   4.033   5.767   0.069 -0.4697  0.1475 -0.6087
 3407SOL     OW13399   6.196   6.273   1.386  0.2324 -0.1990 -0.8100
 3407SOL    HW213400   6.118   6.296   1.337  0.0003  1.5827  0.3166
 3407SOL    HW313401   6.244   6.355   1.397  1.9022 -1.1219 -0.8379
 3407SOL    MW413402   6.192   6.287   1.381  0.1809 -0.0923 -0.9852
 3408SOL     OW13403   1.747   1.435   3.921  0.3848 -0.5501  0.4235
 3408SOL    HW213404   1.723   1.521   3.888  1.2728  0.1427  1.5096
 3408SOL    HW313405   1.681   1.376   3.885 -0.1176  0.5472 -0.5017
 3408SOL    MW413406   1.736   1.439   3.912  0.7363  0.3033  0.1991
 3409SOL     OW13407   2.787   5.699   0.397 -0.1588 -0.1842 -0.0140
 3409SOL    HW213408   2.728   5.775   0.396 -2.8296 -2.0867 -0.4835
 3409SOL    HW313409   2.809   5.685   0.304  1.7483  0.9364  0.2166
 3409SOL    MW413410   2.782   5.707   0.384 -0.3167  0.0496 -0.1629
 3410SOL     OW13411   4.618   6.253   0.171 -0.3869  0.5223  0.0539
 3410SOL    HW213412   4.523   6.268   0.169 -0.4489  0.1588 -1.7385
 3410SOL    HW313413   4.633   6.189   0.101  1.4057  2.0705 -1.0906
 3410SOL    MW413414   4.607   6.247   0.161 -0.1958  0.1928 -0.6826
 3411SOL     OW13415   0.999   4.753   5.312  0.2600  0.1817 -0.3259
 3411SOL    HW213416   1.062   4.771   5.382  1.8281  1.8502 -2.0436
 3411SOL    HW313417   0.916   4.788   5.345  0.9212  0.7703  0.7769
 3411SOL    MW413418   0.996   4.760   5.326 -0.5072  0.4647  0.3405
 3412SOL     OW13419   0.626   3.113   3.333  0.0357  0.2412  0.0130
 3412SOL    HW213420   0.547   3.148   3.375  0.9370  0.5288  1.5764
 3412SOL    HW313421   0.678   3.079   3.406  3.1014  3.4531 -0.3782
 3412SOL    MW413422   0.623   3.113   3.348  0.1345 -0.0372 -0.7392
 3413SOL     OW13423   3.225   5.690   5.859 -0.5179 -0.0206  0.0689
 3413SOL    HW213424   3.147   5.735   5.890 -1.7177  0.0017 -2.6454
 3413SOL    HW313425   3.192   5.622   5.801  1.4412  0.1079 -1.3252
 3413SOL    MW413426   3.211   5.687   5.855  0.3071 -0.2263  0.0929
 3414SOL     OW13427   5.920   2.476   3.563 -0.6038  0.0546 -0.0827
 3414SOL    HW213428   6.005   2.467   3.607 -0.3064 -3.2503 -1.0462
 3414SOL    HW313429   5.858   2.434   3.623 -0.8730 -0.8933 -1.0009
 3414SOL    MW413430   5.923   2.469   3.577 -0.2024 -0.3408 -0.0298
 3415SOL     OW13431   1.149   3.930   1.063  0.0238 -0.0313  0.5703
 3415SOL    HW213432   1.058   3.952   1.040 -0.2468 -0.3148  1.3407
 3415SOL    HW313433   1.172   3.995   1.130  0.2868 -0.1566  0.6003
 3415SOL    MW413434   1.140   3.942   1.069 -0.0920 -0.0780 -0.6863
 3416SOL     OW13435   2.051   5.432   4.251  0.1604 -0.0475  0.4633
 3416SOL    HW213436   2.050   5.455   4.344 -0.0232  0.0127  0.4472
 3416SOL    HW313437   1.960   5.411   4.230  0.2560 -0.3809  0.3743
 3416SOL    MW413438   2.039   5.432   4.260 -0.0302 -0.2422 -0.3983
 3417SOL     OW13439   4.717   4.579   0.557  0.8026  0.1750  0.4460
 3417SOL    HW213440   4.792   4.520   0.555 -1.1027 -2.4121  0.7296
 3417SOL    HW313441   4.665   4.554   0.481 -0.5435  0.8166  1.1253
 3417SOL    MW413442   4.720   4.568   0.547 -0.7437  0.7430 -0.0588
 3418SOL     OW13443   1.450   2.657   4.170  0.0493  0.4929 -0.1778
 3418SOL    HW213444   1.486   2.714   4.103 -0.5615  1.5102  0.3403
 3418SOL    HW313445   1.488   2.690   4.252 -0.1686  0.0431  0.1079
 3418SOL    MW413446   1.460   2.669   4.172  0.0750  0.8274  0.3068
 3419SOL     OW13447   0.958   2.714   3.098  0.0050  0.6942 -0.5931
 3419SOL    HW213448   1.003   2.778   3.153 -0.1462  0.6166 -0.3782
 3419SOL    HW313449   0.866   2.736   3.106 -0.1728 -0.4138  0.5964
 3419SOL    MW413450   0.952   2.725   3.106  0.0853 -0.4278 -0.4355
 3420SOL     OW13451   0.316   0.644   0.778  0.1453  0.2816 -0.1725
 3420SOL    HW213452   0.254   0.593   0.725  0.4451  0.8883 -1.1374
 3420SOL    HW313453   0.300   0.735   0.753  1.7758  0.4203 -0.8618
 3420SOL    MW413454   0.306   0.649   0.768  0.2558 -0.2668  0.2273
 3421SOL     OW13455   4.846   3.797   2.660  0.0199  0.1927 -0.2769
 3421SOL    HW213456   4.865   3.838   2.576 -0.5398 -0.0167 -0.5052
 3421SOL    HW313457   4.751   3.791   2.664  0.0792 -0.7975 -0.1093
 3421SOL    MW413458   4.836   3.801   2.650 -0.1424  0.0796 -0.7282
 3422SOL     OW13459   0.577   5.653   2.458  0.1649 -0.1039 -0.2989
 3422SOL    HW213460   0.511   5.694   2.514  0.8167 -0.0173  0.4250
 3422SOL    HW313461   0.529   5.586   2.409 -0.2453 -0.8954  1.1162
 3422SOL    MW413462   0.562   5.650   2.459 -0.2299  0.4094 -0.3562
 3423SOL     OW13463   0.823   5.011   6.089  0.7599  0.0709  0.3591
 3423SOL    HW213464   0.821   4.958   6.009  1.7366 -1.4939  1.3144
 3423SOL    HW313465   0.773   5.089   6.067  0.2216 -0.7315 -1.4864
 3423SOL    MW413466   0.816   5.014   6.075 -0.0573 -0.5890  0.3254
 3424SOL     OW13467   3.293   1.706   3.045  0.2263 -0.0215 -0.7458
 3424SOL    HW213468   3.222   1.769   3.052  1.1388  1.3383 -2.7960
 3424SOL    HW313469   3.261   1.640   2.983 -0.1332 -0.7951  0.2199
 3424SOL    MW413470   3.280   1.705   3.038  0.0518 -0.5095  0.0794
 3425SOL     OW13471   1.302   5.849   4.826  0.1986  0.2590 -0.0386
 3425SOL    HW213472   1.363   5.783   4.795  0.7196  0.7628 -0.1063
 3425SOL    HW313473   1.239   5.860   4.754  0.4729  0.2859 -0.2739
 3425SOL    MW413474   1.301   5.842   4.813  0.3733  0.1088  0.1270
 3426SOL     OW13475   0.335   4.095   6.166  0.2580  0.2246  0.5354
 3426SOL    HW213476   0.245   4.064   6.172  0.0234  0.9198  0.7277
 3426SOL    HW313477   0.387   4.025   6.206 -0.1157 -0.4980 -0.2258
 3426SOL    MW413478   0.330   4.082   6.172 -0.7645  0.4328 -0.4267
 3427SOL     OW13479   2.540   5.234   0.965 -0.2516 -0.3038 -0.3087
 3427SOL    HW213480   2.619   5.288   0.954  0.3908 -0.8089  1.5099
 3427SOL    HW313481   2.560   5.153   0.918 -0.9340  0.6897 -2.4340
 3427SOL    MW413482   2.553   5.230   0.957 -0.6404 -0.1107  0.0096
 3428SOL     OW13483   4.036   0.882   0.371 -0.5090 -0.4156  0.1583
 3428SOL    HW213484   4.053   0.940   0.297 -0.6355 -0.9430 -0.2911
 3428SOL    HW313485   3.969   0.928   0.423 -1.2751 -0.5669 -0.6747
 3428SOL    MW413486   4.029   0.896   0.368 -0.1178  1.0183 -0.7653
 3429SOL     OW13487   0.776   1.489   4.620  0.3571 -0.0392  0.5691
 3429SOL    HW213488   0.779   1.441   4.703 -1.3850 -0.1923  0.5635
 3429SOL    HW313489   0.684   1.489   4.595  0.9817 -1.0774 -2.0206
 3429SOL    MW413490   0.764   1.483   4.628  0.4014 -0.2427 -0.3918
 3430SOL     OW13491   3.812   2.349   4.707 -0.1760  0.0505  0.0666
 3430SOL    HW213492   3.807   2.291   4.631 -1.4429  0.9712 -0.5914
 3430SOL    HW313493   3.734   2.328   4.758 -2.5600  3.3817 -1.8907
 3430SOL    MW413494   3.801   2.338   4.704  0.2164  0.6350 -0.0553
 3431SOL     OW13495   5.330   0.394   3.007 -0.0154  0.5193 -0.3994
 3431SOL    HW213496   5.408   0.339   3.001  0.2361  0.8592 -0.2351
 3431SOL    HW313497   5.333   0.430   3.096 -0.9713 -0.3811  0.0263
 3431SOL    MW413498   5.340   0.391   3.018  0.1715 -0.5299 -0.0975
 3432SOL     OW13499   5.037   5.771   2.394  0.2811 -0.0416 -0.3032
 3432SOL    HW213500   4.956   5.761   2.344  1.4132 -0.9681 -2.0835
 3432SOL    HW313501   5.086   5.691   2.377  0.6448 -0.5426  2.6233
 3432SOL    MW413502   5.033   5.759   2.385  0.4529 -0.1669  0.0306
 3433SOL     OW13503   1.013   0.185   1.909 -0.4195 -0.1103  0.5087
 3433SOL    HW213504   1.011   0.093   1.882 -0.4522 -0.6448  2.2290
 3433SOL    HW313505   0.922   0.215   1.899 -0.4924 -0.3805  0.3533
 3433SOL    MW413506   1.000   0.177   1.904 -0.6437  0.4740 -0.0363
 3434SOL     OW13507   3.098   3.276   5.614 -0.0679  0.0455  0.2820
 3434SOL    HW213508   3.016   3.232   5.592 -0.2159  0.7827 -0.7623
 3434SOL    HW313509   3.150   3.271   5.534  1.0944 -0.7837  1.0637
 3434SOL    MW413510   3.094   3.270   5.601 -0.4815 -0.0435  0.2497
 3435SOL     OW13511   6.411   5.649   6.065  0.0941  0.6860  0.3282
 3435SOL    HW213512   6.332   5.677   6.111  0.6316  2.6547  0.1274
 3435SOL    HW313513   6.478   5.642   6.133  0.4849  2.0221  0.1066
 3435SOL    MW413514   6.409   5.652   6.080 -0.2027  0.1137 -0.6322
 3436SOL     OW13515   3.503   2.339   4.376  0.0019  0.3092  0.0110
 3436SOL    HW213516   3.552   2.383   4.306 -1.0642 -1.1589 -1.7674
 3436SOL    HW313517   3.431   2.296   4.330 -1.0186 -0.3284  2.1198
 3436SOL    MW413518   3.500   2.339   4.361 -0.6887  0.8897 -0.1627
 3437SOL     OW13519   2.379   5.954   5.661 -0.0592  0.4488 -0.3031
 3437SOL    HW213520   2.364   6.024   5.598  2.6614  1.3008 -0.1499
 3437SOL    HW313521   2.474   5.946   5.665 -0.1975 -0.9823  2.1868
 3437SOL    MW413522   2.390   5.962   5.653 -0.0470  0.1565 -0.0745
 3438SOL     OW13523   4.627   0.463   3.210 -0.0918 -0.0725  0.4512
 3438SOL    HW213524   4.620   0.446   3.116 -0.8734  1.7531  0.1264
 3438SOL    HW313525   4.549   0.515   3.230  0.2624 -0.1112  2.0335
 3438SOL    MW413526   4.615   0.468   3.200  0.1531  0.3864 -0.6075
 3439SOL     OW13527   3.133   5.334   1.018  0.1808 -0.5311  0.0011
 3439SOL    HW213528   3.106   5.353   0.928 -4.7093  0.9036  1.4294
 3439SOL    HW313529   3.107   5.243   1.031 -0.3595 -0.3453  0.2689
 3439SOL    MW413530   3.126   5.325   1.008  0.7210 -0.4808 -0.3464
 3440SOL     OW13531   2.237   5.455   2.183 -0.0372  0.5716 -0.5268
 3440SOL    HW213532   2.185   5.396   2.128  0.1068 -0.2777  0.2365
 3440SOL    HW313533   2.176   5.525   2.207 -0.0102  1.1620 -2.0440
 3440SOL    MW413534   2.222   5.457   2.179  0.1254  0.6497 -0.0115
 3441SOL     OW13535   1.771   0.047   1.939  0.0722 -0.1956 -0.2138
 3441SOL    HW213536   1.704   0.022   2.003 -1.0836 -0.1228 -1.3537
 3441SOL    HW313537   1.854   0.035   1.986 -0.6833 -1.1184  0.9663
 3441SOL    MW413538   1.773   0.042   1.954 -0.0323 -0.1494 -0.3249
 3442SOL     OW13539   4.691   5.382   5.094 -0.1508  0.2821  0.0989
 3442SOL    HW213540   4.765   5.431   5.057 -0.2919 -0.4050 -1.1173
 3442SOL    HW313541   4.628   5.450   5.119  0.5713  0.8353  0.4716
 3442SOL    MW413542   4.693   5.398   5.093 -0.4627 -0.0438  0.1797
 3443SOL     OW13543   4.815   2.001   1.369 -0.2974 -0.1654 -1.0304
 3443SOL    HW213544   4.745   2.044   1.320 -1.0125 -0.3783 -0.2292
 3443SOL    HW313545   4.781   1.994   1.459  1.4502  1.3238 -0.1724
 3443SOL    MW413546   4.801   2.006   1.375  0.3004  0.0198 -0.1398
 3444SOL     OW13547   2.185   4.219   0.946 -0.0086  0.1098  0.9496
 3444SOL    HW213548   2.212   4.238   0.856  1.0390 -0.5077  1.1085
 3444SOL    HW313549   2.267   4.200   0.992 -0.6440 -0.9736  1.6907
 3444SOL    MW413550   2.199   4.219   0.940  0.2244  0.0083 -0.0799
 3445SOL     OW13551   2.859   2.438   3.738  0.4930 -0.3083  0.0658
 3445SOL    HW213552   2.811   2.446   3.656 -2.0321  2.1720  1.5883
 3445SOL    HW313553   2.901   2.523   3.750  1.0835 -0.7287  1.2108
 3445SOL    MW413554   2.859   2.450   3.729  0.5194 -0.2930 -0.4188
 3446SOL     OW13555   6.024   1.078   3.288 -0.5789  0.2128 -0.2094
 3446SOL    HW213556   6.083   1.086   3.363 -0.4510 -0.4807 -0.2258
 3446SOL    HW313557   6.076   1.031   3.222 -0.5286  1.2395 -0.9125
 3446SOL    MW413558   6.039   1.073   3.289 -0.7218 -0.0496 -0.5215
 3447SOL     OW13559   3.231   1.514   4.872  0.5418 -0.0282 -0.1487
 3447SOL    HW213560   3.186   1.546   4.950  1.2490 -0.4341  0.4331
 3447SOL    HW313561   3.236   1.590   4.814  0.4487  0.4007  0.4006
 3447SOL    MW413562   3.226   1.529   4.875  0.3157 -0.1471  0.0279
 3448SOL     OW13563   3.503   1.060   5.907 -0.5850  0.5994 -0.3110
 3448SOL    HW213564   3.521   0.972   5.876  0.1424  0.4565  0.4793
 3448SOL    HW313565   3.409   1.060   5.926 -0.5606 -0.0542 -0.1811
 3448SOL    MW413566   3.493   1.049   5.906 -0.2225 -0.2066 -0.3547
 3449SOL     OW13567   3.066   4.500   2.566 -0.5479  0.3369  0.4915
 3449SOL    HW213568   3.038   4.460   2.648 -1.2847 -0.0991  0.0449
 3449SOL    HW313569   3.088   4.590   2.590 -0.5794  0.1650  1.1971
 3449SOL    MW413570   3.065   4.506   2.580 -0.0947  0.1559  0.0551
 3450SOL     OW13571   1.625   2.250   1.785 -0.3321 -0.0901 -0.2912
 3450SOL    HW213572   1.638   2.156   1.794 -1.5701 -0.6718 -3.2537
 3450SOL    HW313573   1.534   2.259   1.757 -1.7517  2.4371  4.0782
 3450SOL    MW413574   1.615   2.239   1.783 -0.0054  0.9546 -0.5047
 3451SOL     OW13575   1.096   2.223   4.255  0.4078 -0.3196 -0.2634
 3451SOL    HW213576   1.134   2.310   4.262 -1.8813  0.6723  1.2922
 3451SOL    HW313577   1.127   2.177   4.333  0.1479 -0.2433 -0.1129
 3451SOL    MW413578   1.105   2.229   4.266  0.7100  0.0682 -0.0856
 3452SOL     OW13579   2.069   0.983   3.720 -0.0395 -0.5742 -0.6776
 3452SOL    HW213580   2.055   0.971   3.626  0.5072 -2.3533 -0.5661
 3452SOL    HW313581   2.018   1.060   3.743 -1.7539 -1.2432 -2.0661
 3452SOL    MW413582   2.061   0.992   3.711  0.1893 -0.3721  0.5124
 3453SOL     OW13583   3.112   5.119   0.767 -0.3990  0.3350 -0.1498
 3453SOL    HW213584   3.192   5.101   0.717 -0.1775  1.9894 -0.4718
 3453SOL    HW313585   3.059   5.039   0.759  0.1100  0.1452 -2.1302
 3453SOL    MW413586   3.115   5.106   0.759 -0.3739 -0.1627  0.8048
 3454SOL     OW13587   4.890   3.221   0.792 -0.2898  0.3889  0.1955
 3454SOL    HW213588   4.977   3.256   0.811 -0.1788  0.3942 -0.2997
 3454SOL    HW313589   4.889   3.134   0.832  0.0117  0.3156  0.0459
 3454SOL    MW413590   4.901   3.214   0.800  0.6878  0.9955 -0.2258
 3455SOL     OW13591   5.482   4.861   1.154  0.4892 -0.3499  0.2887
 3455SOL    HW213592   5.462   4.769   1.169 -0.8165 -0.0658  0.3575
 3455SOL    HW313593   5.417   4.890   1.090  1.9776  0.0973 -1.0865
 3455SOL    MW413594   5.471   4.853   1.147 -0.2377 -0.1219 -0.3319
 3456SOL     OW13595   5.836   0.061   1.823 -0.3889  0.5438  0.0416
 3456SOL    HW213596   5.846   0.042   1.730 -0.6721 -1.0928  0.3127
 3456SOL    HW313597   5.925   0.059   1.857 -0.4966 -1.7965  0.2962
 3456SOL    MW413598   5.849   0.059   1.815 -0.3646  0.3663 -0.3306
 3457SOL     OW13599   3.846   4.636   2.495 -0.9015 -0.4244  0.1584
 3457SOL    HW213600   3.808   4.624   2.408 -1.8854  0.6755  0.4153
 3457SOL    HW313601   3.893   4.719   2.490 -3.8593  1.5361  1.5604
 3457SOL    MW413602   3.847   4.646   2.483  0.3881 -0.2421 -0.2594
 3458SOL     OW13603   0.616   5.515   5.167 -0.0946 -0.2607 -0.0430
 3458SOL    HW213604   0.569   5.509   5.084  4.0446  0.8592 -2.7869
 3458SOL    HW313605   0.573   5.451   5.224 -3.2000 -1.0487 -2.9406
 3458SOL    MW413606   0.604   5.506   5.164 -0.1845 -0.0512  0.1778
 3459SOL     OW13607   1.556   1.010   4.920 -0.0011  0.4636 -0.5081
 3459SOL    HW213608   1.617   1.026   4.993  0.6798 -1.3769 -0.6371
 3459SOL    HW313609   1.527   1.098   4.895  1.4977  1.3039  0.4923
 3459SOL    MW413610   1.561   1.024   4.926  0.4428 -0.1772  0.0239
 3460SOL     OW13611   4.111   2.506   5.302 -0.3150 -0.2928 -0.3823
 3460SOL    HW213612   4.196   2.538   5.271 -0.5888 -0.6782 -1.5567
 3460SOL    HW313613   4.108   2.532   5.394  0.0592  1.8245 -0.9288
 3460SOL    MW413614   4.122   2.513   5.310 -0.3115 -0.1448  0.1063
 3461SOL     OW13615   4.188   2.639   4.376 -0.0539 -0.3531  0.4572
 3461SOL    HW213616   4.117   2.678   4.325 -1.7035 -3.9910 -0.3491
 3461SOL    HW313617   4.154   2.633   4.465  0.3681  0.3366  0.6759
 3461SOL    MW413618   4.174   2.643   4.381  0.0256  0.4371 -0.0568
 3462SOL     OW13619   5.998   0.771   5.395  0.0573 -0.7483  0.3715
 3462SOL    HW213620   5.967   0.853   5.358 -0.1713 -0.3284  1.4644
 3462SOL    HW313621   6.059   0.736   5.329  1.0238  0.8454  0.3820
 3462SOL    MW413622   6.002   0.777   5.382 -0.4592 -0.3998 -0.4155
 3463SOL     OW13623   3.485   1.231   1.095 -0.1523  0.0063 -0.3028
 3463SOL    HW213624   3.575   1.197   1.095 -0.2605 -0.3267 -1.6450
 3463SOL    HW313625   3.484   1.295   1.024 -0.2941  1.9869  1.3997
 3463SOL    MW413626   3.497   1.235   1.086  0.2282 -0.5175 -0.2833
 3464SOL     OW13627   3.460   4.804   0.182  0.9436  0.6080 -0.1613
 3464SOL    HW213628   3.470   4.773   0.272  0.4293  0.4337 -0.1604
 3464SOL    HW313629   3.406   4.738   0.140  1.1150  0.7308 -0.5774
 3464SOL    MW413630   3.454   4.791   0.189 -0.1315  0.0616  0.4409
 3465SOL     OW13631   3.195   2.533   0.849  0.4722  0.7775 -0.3168
 3465SOL    HW213632   3.101   2.553   0.848  0.1529 -0.6240 -1.1765
 3465SOL    HW313633   3.218   2.530   0.942 -0.5355  0.3020 -0.0648
 3465SOL    MW413634   3.185   2.536   0.861  0.0345 -0.0532  0.1217
 3466SOL     OW13635   5.888   1.432   5.667  0.2109 -0.8169  0.6067
 3466SOL    HW213636   5.850   1.345   5.659  2.6592 -1.7597 -3.3399
 3466SOL    HW313637   5.850   1.481   5.594  2.4759 -0.1621 -0.1991
 3466SOL    MW413638   5.878   1.427   5.656 -0.3182  0.0124  0.3489
 3467SOL     OW13639   0.747   4.820   0.886 -0.2576  0.0588 -0.0617
 3467SOL    HW213640   0.679   4.753   0.891 -0.0363 -0.4081 -2.2055
 3467SOL    HW313641   0.723   4.883   0.954 -1.3225 -1.4089  1.0051
 3467SOL    MW413642   0.735   4.819   0.895  0.1089  0.1823 -0.3535
 3468SOL     OW13643   5.552   1.601   3.112 -0.4277 -0.2096  0.1332
 3468SOL    HW213644   5.636   1.567   3.142 -0.8750 -1.1259  0.3892
 3468SOL    HW313645   5.489   1.571   3.178 -1.0705 -0.1950 -0.4605
 3468SOL    MW413646   5.555   1.593   3.125 -0.0070 -0.2919 -0.0181
 3469SOL     OW13647   5.737   3.112   2.812  0.3114  0.3796  0.2531
 3469SOL    HW213648   5.823   3.078   2.838  0.0328  0.1685  0.8885
 3469SOL    HW313649   5.746   3.207   2.819  0.6509  0.3848 -0.1784
 3469SOL    MW413650   5.750   3.120   2.816 -0.2253  0.1935  0.2662
 3470SOL     OW13651   3.922   0.404   4.442  0.3026 -0.1496  0.0954
 3470SOL    HW213652   3.883   0.331   4.394  1.9405 -0.4442 -0.8619
 3470SOL    HW313653   3.990   0.364   4.496  0.1599  0.4899  0.7738
 3470SOL    MW413654   3.926   0.389   4.443  0.2935  0.1994 -0.3386
 3471SOL     OW13655   3.809   1.327   3.404 -0.2121  0.3174  0.0889
 3471SOL    HW213656   3.715   1.315   3.388  0.0818 -0.9323 -0.8880
 3471SOL    HW313657   3.837   1.391   3.340 -0.2049 -0.1206 -0.3527
 3471SOL    MW413658   3.800   1.334   3.394 -0.2057 -0.0630 -0.1452
 3472SOL     OW13659   5.576   5.282   0.010 -0.6379  0.4200 -0.2617
 3472SOL    HW213660   5.503   5.334   0.045 -0.9090  0.0108 -0.2122
 3472SOL    HW313661   5.581   5.206   0.068  1.0999  1.3858  0.9586
 3472SOL    MW413662   5.567   5.279   0.023  0.0991 -0.3093  0.4390
 3473SOL     OW13663   0.052   0.902   1.684  0.3767 -0.0850  0.2221
 3473SOL    HW213664   0.129   0.904   1.627 -0.3707  0.7285 -0.8117
 3473SOL    HW313665   0.057   0.818   1.729  1.3563 -0.4572 -0.5485
 3473SOL    MW413666   0.063   0.891   1.682  0.1519 -0.1029 -0.1829
 3474SOL     OW13667   5.640   4.807   6.257  0.1568  0.4458 -0.0378
 3474SOL    HW213668   5.568   4.813   6.320 -0.1922 -0.8888 -0.2681
 3474SOL    HW313669   5.678   4.720   6.273 -0.1337 -0.0518 -1.8479
 3474SOL    MW413670   5.635   4.796   6.268 -0.1936  0.2250  0.2089
 3475SOL     OW13671   1.734   1.796   5.429 -0.4145 -0.1290  0.0399
 3475SOL    HW213672   1.770   1.720   5.476 -1.8606 -0.6825  0.2911
 3475SOL    HW313673   1.708   1.856   5.499 -1.8458 -0.6192 -0.0393
 3475SOL    MW413674   1.736   1.794   5.444 -0.4330  0.3244 -0.2447
 3476SOL     OW13675   2.898   4.856   2.699  0.4047 -0.0108 -0.1444
 3476SOL    HW213676   2.833   4.824   2.636 -1.0876  0.8454  0.9144
 3476SOL    HW313677   2.919   4.945   2.670  1.2501 -0.3236 -0.5539
 3476SOL    MW413678   2.892   4.863   2.687 -0.1103 -0.4193 -0.7939
 3477SOL     OW13679   3.009   1.497   4.415  0.1849  0.5311 -0.3629
 3477SOL    HW213680   2.970   1.510   4.501  0.2689  0.3357 -0.2955
 3477SOL    HW313681   2.937   1.511   4.354 -0.2686 -0.9203 -0.1946
 3477SOL    MW413682   2.994   1.501   4.418  0.4208  0.1227 -0.1812
 3478SOL     OW13683   5.005   0.450   2.683  0.2218 -0.0164  0.6931
 3478SOL    HW213684   4.968   0.392   2.617  1.7812 -0.1520 -0.1199
 3478SOL    HW313685   5.096   0.463   2.655 -0.0853  2.9582  0.7521
 3478SOL    MW413686   5.012   0.444   2.671  0.0395  0.3645 -0.1573
 3479SOL     OW13687   1.445   2.885   6.317 -0.1732 -0.6596 -0.5061
 3479SOL    HW213688   1.533   2.916   6.342 -0.0932  0.4367 -1.9932
 3479SOL    HW313689   1.401   2.869   6.400  0.7210  0.8765  0.3112
 3479SOL    MW413690   1.451   2.887   6.332 -0.1189  0.2091  0.2080
 3480SOL     OW13691   3.926   6.197   2.021 -0.1408  0.1683  0.6070
 3480SOL    HW213692   3.922   6.188   1.926 -1.1310 -0.0713  0.6596
 3480SOL    HW313693   4.015   6.170   2.044 -0.5191 -1.8672 -0.0550
 3480SOL    MW413694   3.938   6.192   2.011 -0.2450  0.1144  0.0746
 3481SOL     OW13695   6.016   2.151   4.881  0.2113  0.5967  0.0238
 3481SOL    HW213696   5.947   2.108   4.831 -0.2410  0.9627  0.3279
 3481SOL    HW313697   6.076   2.080   4.904 -0.5999  0.0808  0.6338
 3481SOL    MW413698   6.015   2.136   4.878  0.3236 -0.4967 -0.2372
 3482SOL     OW13699   5.790   1.938   5.065 -0.6732  0.6577  0.0687
 3482SOL    HW213700   5.875   1.899   5.041 -1.6241 -1.3960 -0.2108
 3482SOL    HW313701   5.796   1.954   5.159 -0.5834 -1.2546  0.4303
 3482SOL    MW413702   5.802   1.935   5.074 -0.0810 -0.6083  0.2592
 3483SOL     OW13703   5.745   1.998   0.053  0.4391 -0.4370  0.6115
 3483SOL    HW213704   5.685   2.042   0.113 -0.5742  1.0201 -1.3646
 3483SOL    HW313705   5.705   1.912   0.036 -0.6260  0.1525  0.0572
 3483SOL    MW413706   5.732   1.992   0.058 -0.0971 -0.4805  0.2242
 3484SOL     OW13707   6.219   0.118   0.598  0.6863 -0.1641 -0.0030
 3484SOL    HW213708   6.183   0.030   0.595 -0.8055  0.4480 -0.6554
 3484SOL    HW313709   6.263   0.130   0.514 -0.9902  0.4590 -0.8248
 3484SOL    MW413710   6.220   0.108   0.587 -0.2453  0.4093 -0.3362
 3485SOL     OW13711   2.323   2.019   3.551 -0.7923  0.1419 -0.1520
 3485SOL    HW213712   2.369   2.073   3.487  0.2477 -0.1830  0.3011
 3485SOL    HW313713   2.348   2.056   3.636 -0.9238 -0.3968  0.1257
 3485SOL    MW413714   2.332   2.031   3.554 -0.0226 -0.1927  0.3373
 3486SOL     OW13715   4.472   3.896   5.800  0.2136 -0.5625 -0.2246
 3486SOL    HW213716   4.554   3.918   5.842 -0.6339  0.2387  1.0716
 3486SOL    HW313717   4.430   3.981   5.782 -1.0539 -0.9618  0.6651
 3486SOL    MW413718   4.477   3.910   5.803 -0.4514  0.0404  0.0760
 3487SOL     OW13719   6.306   0.292   4.028 -0.4355  0.1192  0.0689
 3487SOL    HW213720   6.308   0.385   4.005  0.1808  0.1852  0.3797
 3487SOL    HW313721   6.305   0.291   4.124  1.8694 -0.2091  0.1364
 3487SOL    MW413722   6.306   0.304   4.037  0.1471  0.4981  0.4837
 3488SOL     OW13723   2.871   3.865   2.578 -0.0273  0.1826  0.0548
 3488SOL    HW213724   2.902   3.954   2.594 -1.2521  1.0504 -1.9678
 3488SOL    HW313725   2.946   3.819   2.540  0.4094  0.5648  0.4480
 3488SOL    MW413726   2.885   3.871   2.575  0.4014 -0.4439 -0.0802
 3489SOL     OW13727   1.515   0.929   1.138 -0.0727 -0.3999  0.0824
 3489SOL    HW213728   1.450   0.922   1.068  0.8117 -1.6091 -0.6604
 3489SOL    HW313729   1.504   0.848   1.189 -0.0035 -0.0159  0.7263
 3489SOL    MW413730   1.505   0.917   1.136  0.0465  0.2606 -0.2104
 3490SOL     OW13731   5.964   1.331   4.239 -0.2261  0.7332 -1.3943
 3490SOL    HW213732   5.904   1.288   4.177  0.6436  0.5577 -2.1520
 3490SOL    HW313733   5.908   1.364   4.308 -0.9733 -1.5522 -0.8033
 3490SOL    MW413734   5.949   1.330   4.240  0.1534 -0.8374 -0.0736
 3491SOL     OW13735   2.265   2.287   2.831 -0.0311 -0.2332 -0.5279
 3491SOL    HW213736   2.272   2.231   2.908  1.1199  0.3491 -0.1808
 3491SOL    HW313737   2.351   2.329   2.824 -0.2907  0.1367 -1.8136
 3491SOL    MW413738   2.278   2.286   2.840 -0.2317 -0.1373  0.5142
 3492SOL     OW13739   3.903   4.734   0.079  0.0655  0.5757  0.7451
 3492SOL    HW213740   3.829   4.680   0.053 -1.3560  1.8592  1.9437
 3492SOL    HW313741   3.932   4.698   0.163  0.8515  0.0683  0.2754
 3492SOL    MW413742   3.897   4.722   0.086 -0.1864 -0.2740 -0.0652
 3493SOL     OW13743   3.231   2.037   1.729 -0.5384  0.1184 -1.1117
 3493SOL    HW213744   3.161   2.100   1.745  1.4266  1.7555  1.9647
 3493SOL    HW313745   3.311   2.089   1.734  1.0545 -2.2015 -1.1859
 3493SOL    MW413746   3.232   2.053   1.732 -0.2320 -0.4315 -0.1418
 3494SOL     OW13747   6.394   0.516   1.365  0.4131  0.1346  0.4920
 3494SOL    HW213748   6.450   0.583   1.403  0.0859  2.0174 -2.0828
 3494SOL    HW313749   6.305   0.547   1.381  0.2649  0.7024 -1.2343
 3494SOL    MW413750   6.389   0.529   1.372  0.2090  0.0547 -0.1855
 3495SOL     OW13751   3.741   2.187   4.487  0.0625 -0.4015 -0.1102
 3495SOL    HW213752   3.796   2.172   4.409 -2.4046 -0.9145 -1.8560
 3495SOL    HW313753   3.658   2.217   4.452 -0.4195  1.6145  2.5205
 3495SOL    MW413754   3.737   2.189   4.472  0.0030  0.3147 -0.2507
 3496SOL     OW13755   0.185   6.341   3.706 -0.2223 -0.3939 -0.0219
 3496SOL    HW213756   0.221   6.253   3.717  0.7752  0.2849  3.4527
 3496SOL    HW313757   0.094   6.328   3.679 -0.3625 -2.5497  1.3049
 3496SOL    MW413758   0.178   6.328   3.704  0.0017  0.5034  0.4133
 3497SOL     OW13759   4.357   1.031   2.663  0.3101 -0.3773  0.2792
 3497SOL    HW213760   4.382   1.088   2.591  0.8377 -1.4973 -0.4512
 3497SOL    HW313761   4.334   0.948   2.621 -1.7754 -0.3146  1.1869
 3497SOL    MW413762   4.357   1.027   2.648 -0.6245 -0.2137  0.0101
 3498SOL     OW13763   1.129   0.323   2.808  0.1556 -0.0556 -0.2265
 3498SOL    HW213764   1.175   0.350   2.729  0.4790  0.0070 -0.0194
 3498SOL    HW313765   1.176   0.245   2.838  0.1987  0.0733  0.0484
 3498SOL    MW413766   1.141   0.316   2.802 -0.2879 -0.5407  0.2538
 3499SOL     OW13767   0.721   4.996   5.106 -0.6740 -0.1220 -0.3023
 3499SOL    HW213768   0.677   4.924   5.152 -1.0055 -0.6653 -1.4358
 3499SOL    HW313769   0.649   5.044   5.064 -0.5323  1.3098  0.9848
 3499SOL    MW413770   0.705   4.993   5.106  0.0777 -0.9986 -0.1380
 3500SOL     OW13771   1.350   1.699   3.780 -0.6638 -0.3583  0.1354
 3500SOL    HW213772   1.274   1.709   3.838 -0.2570  0.6862  0.5090
 3500SOL    HW313773   1.313   1.684   3.693 -1.3780  2.1814 -0.0780
 3500SOL    MW413774   1.335   1.698   3.776  0.2864 -0.2842 -0.0631
 3501SOL     OW13775   4.254   4.377   0.288  0.0774  0.6610 -0.2225
 3501SOL    HW213776   4.203   4.403   0.211 -0.0411 -1.0558 -0.7878
 3501SOL    HW313777   4.297   4.295   0.261 -0.5329 -0.3821  1.7487
 3501SOL    MW413778   4.253   4.369   0.274  0.2970  0.2781  0.5569
 3502SOL     OW13779   1.781   1.906   2.171 -0.5697  0.3218  0.4878
 3502SOL    HW213780   1.823   1.845   2.232 -1.2857  1.0886  1.7960
 3502SOL    HW313781   1.853   1.939   2.117 -0.1162 -1.3563  0.0138
 3502SOL    MW413782   1.796   1.903   2.172  0.1240  0.4958 -0.9234
 3503SOL     OW13783   4.965   2.244   3.161  0.5115 -0.1633  0.4636
 3503SOL    HW213784   4.999   2.302   3.228 -2.0655 -0.5785  2.2995
 3503SOL    HW313785   4.938   2.165   3.209  0.4373 -1.3096 -1.3698
 3503SOL    MW413786   4.966   2.241   3.176 -0.1973  0.1398 -0.3743
 3504SOL     OW13787   2.974   5.818   1.946 -0.0442  0.6383  0.0620
 3504SOL    HW213788   3.046   5.762   1.975  0.3105  0.6145 -0.8312
 3504SOL    HW313789   2.895   5.770   1.969  0.2610 -0.4078 -1.0147
 3504SOL    MW413790   2.973   5.804   1.953  0.3914 -0.7964  0.3366
 3505SOL     OW13791   1.707   5.566   1.032 -0.1571 -0.0064  0.2691
 3505SOL    HW213792   1.793   5.569   0.990  0.7966  0.6638  2.1434
 3505SOL    HW313793   1.693   5.474   1.053  0.7086  0.0110  1.0302
 3505SOL    MW413794   1.716   5.554   1.030  0.2864  0.2818 -0.1056
 3506SOL     OW13795   6.417   6.185   1.267 -0.1446  0.4690  0.2827
 3506SOL    HW213796   6.452   6.121   1.328 -0.6692 -0.3320 -0.2410
 3506SOL    HW313797   6.346   6.227   1.315 -0.2810  0.1392  0.3705
 3506SOL    MW413798   6.412   6.182   1.281  0.4040 -0.1579  0.2235
 3507SOL     OW13799   4.133   5.143   5.877  0.1943  0.2636 -0.1643
 3507SOL    HW213800   4.179   5.164   5.958  0.0062 -0.6018  0.1717
 3507SOL    HW313801   4.192   5.083   5.831 -0.0299  0.1771 -0.3374
 3507SOL    MW413802   4.147   5.138   5.882 -0.2014  0.1182 -0.2659
 3508SOL     OW13803   0.802   2.163   5.062 -0.1238 -0.3054  0.2684
 3508SOL    HW213804   0.804   2.238   5.122 -1.3601  0.8163 -1.0190
 3508SOL    HW313805   0.875   2.108   5.091  0.4100  1.0531  1.6868
 3508SOL    MW413806   0.812   2.166   5.074  0.4990 -0.5493 -0.3239
 3509SOL     OW13807   5.450   0.792   1.811 -0.3072 -0.5036 -0.4278
 3509SOL    HW213808   5.538   0.806   1.844 -0.4193 -0.1744 -0.2603
 3509SOL    HW313809   5.434   0.867   1.753 -0.6423 -0.3164 -0.1007
 3509SOL    MW413810   5.459   0.804   1.808 -0.7719  0.2462 -0.5176
 3510SOL     OW13811   4.453   2.728   0.410  0.3318  0.6113  0.3078
 3510SOL    HW213812   4.423   2.708   0.321 -1.4229  2.6165  0.3623
 3510SOL    HW313813   4.547   2.741   0.402  0.6759 -1.9266 -0.6817
 3510SOL    MW413814   4.461   2.727   0.397  0.3065 -0.0292 -0.0528
 3511SOL     OW13815   0.952   2.882   2.250  0.2343 -0.0783 -0.3924
 3511SOL    HW213816   0.963   2.788   2.236  0.4059 -0.0773 -0.2634
 3511SOL    HW313817   1.030   2.922   2.213 -0.5899  0.1623 -1.9740
 3511SOL    MW413818   0.964   2.875   2.243 -0.3252  0.0019  0.1207
 3512SOL     OW13819   4.612   0.152   3.481  0.5195  0.5299 -0.7452
 3512SOL    HW213820   4.520   0.125   3.489  1.2748 -2.4607 -0.8717
 3512SOL    HW313821   4.653   0.121   3.562  1.3321  2.4776 -0.3557
 3512SOL    MW413822   4.605   0.144   3.493  0.7495 -0.0016 -0.0865
 3513SOL     OW13823   1.275   5.809   4.332  0.1644  0.0910 -0.5341
 3513SOL    HW213824   1.307   5.719   4.327  0.7934  0.3031 -0.3464
 3513SOL    HW313825   1.280   5.842   4.242  0.3012  0.0636 -0.5364
 3513SOL    MW413826   1.280   5.802   4.320 -0.3803  0.4311  0.3309
 3514SOL     OW13827   4.828   3.957   0.573 -0.5530 -0.2388 -0.4609
 3514SOL    HW213828   4.755   3.929   0.518 -2.2462 -1.4613  2.2133
 3514SOL    HW313829   4.831   3.893   0.643  1.9280  0.8512  0.5330
 3514SOL    MW413830   4.819   3.945   0.575  0.4271  0.3979  0.1476
 3515SOL     OW13831   3.431   3.148   3.496  0.0274  0.5339  0.2011
 3515SOL    HW213832   3.493   3.184   3.560 -0.0399  0.2297  0.4381
 3515SOL    HW313833   3.371   3.220   3.478 -1.7707 -0.2109  2.7055
 3515SOL    MW413834   3.432   3.162   3.502 -0.8832  0.1362 -0.3341
 3516SOL     OW13835   4.049   0.133   3.312  0.0286  0.3338 -0.1436
 3516SOL    HW213836   4.030   0.051   3.268 -0.5577  0.1972  0.3393
 3516SOL    HW313837   4.015   0.121   3.401  1.1794  0.6013  0.3491
 3516SOL    MW413838   4.042   0.121   3.318 -0.5630  0.0093 -0.0711
 3517SOL     OW13839   3.154   5.831   3.996 -0.1707  0.0358  0.2082
 3517SOL    HW213840   3.238   5.874   3.984  0.3977 -0.4979  1.9438
 3517SOL    HW313841   3.091   5.889   3.953  1.1374  0.0692 -1.7733
 3517SOL    MW413842   3.156   5.844   3.989  0.2826  0.5743 -0.1763
 3518SOL     OW13843   3.015   1.676   5.033 -0.2807  0.3208 -0.3761
 3518SOL    HW213844   3.029   1.757   4.983 -1.5574  0.2887 -0.8192
 3518SOL    HW313845   2.955   1.625   4.979 -0.4646 -0.3924  0.4829
 3518SOL    MW413846   3.009   1.680   5.019  0.1103  0.1939 -0.1754
 3519SOL     OW13847   1.097   3.401   2.449 -0.4783  0.3246  0.1807
 3519SOL    HW213848   1.018   3.360   2.482 -0.0508  0.7973  1.9046
 3519SOL    HW313849   1.069   3.489   2.424 -0.9860 -0.3175 -1.6426
 3519SOL    MW413850   1.083   3.408   2.450 -0.0522  0.1629  0.7222
 3520SOL     OW13851   3.534   3.809   2.602  0.3741 -0.1336  0.2015
 3520SOL    HW213852   3.478   3.732   2.601 -1.6930  1.2841  0.5099
 3520SOL    HW313853   3.572   3.810   2.690  0.0179 -0.5256  0.3620
 3520SOL    MW413854   3.531   3.799   2.614  0.1210 -0.2795 -0.2040
 3521SOL     OW13855   0.004   4.936   4.034  0.2030  0.0828 -0.0850
 3521SOL    HW213856   0.061   4.928   4.111 -0.0028 -1.0184 -0.0362
 3521SOL    HW313857   0.054   4.896   3.963 -0.9015 -1.9159  0.1852
 3521SOL    MW413858   0.018   4.930   4.035  0.7100 -0.3903 -0.4107
 3522SOL     OW13859   3.691   1.490   2.689  0.0395 -0.3463  0.0680
 3522SOL    HW213860   3.601   1.486   2.657  0.1955  0.0448 -0.4279
 3522SOL    HW313861   3.701   1.578   2.724  0.6588  0.1304 -1.2132
 3522SOL    MW413862   3.681   1.501   2.689 -0.1823  0.3423  0.1632
 3523SOL     OW13863   2.100   2.006   2.252 -0.0036 -0.0177 -0.7250
 3523SOL    HW213864   2.156   1.963   2.317  0.7526 -2.2291 -2.6408
 3523SOL    HW313865   2.023   2.035   2.300  1.8924  1.3895  1.6788
 3523SOL    MW413866   2.098   2.004   2.267 -0.0480  0.0971 -0.2439
 3524SOL     OW13867   1.807   1.588   0.861 -0.0827  0.7199 -0.2489
 3524SOL    HW213868   1.839   1.678   0.862 -0.0754  0.7340  1.6174
 3524SOL    HW313869   1.878   1.538   0.822  0.6820  1.2713  0.4029
 3524SOL    MW413870   1.820   1.594   0.856  0.3259  0.1310 -0.0594
 3525SOL     OW13871   3.420   5.111   3.504  0.3008 -0.0435  0.0563
 3525SOL    HW213872   3.411   5.154   3.589  1.0671  0.1635  0.0455
 3525SOL    HW313873   3.490   5.160   3.461 -1.6412  1.4324 -1.6658
 3525SOL    MW413874   3.428   5.123   3.510 -0.5100  0.1253 -0.0867
 3526SOL     OW13875   0.068   6.382   1.919 -0.1976  0.3454 -0.2005
 3526SOL    HW213876  -0.004   6.318   1.924  0.9080 -0.9886 -0.6953
 3526SOL    HW313877   0.095   6.379   1.827  1.8018 -0.7015  0.3795
 3526SOL    MW413878   0.062   6.373   1.907  0.0657 -0.3672  0.4093
 3527SOL     OW13879   1.133   6.354   1.364 -0.3642  0.7304 -0.2714
 3527SOL    HW213880   1.131   6.288   1.295 -1.5693  0.7112 -0.2317
 3527SOL    HW313881   1.219   6.395   1.355 -0.5955  0.9068 -1.9492
 3527SOL    MW413882   1.144   6.351   1.353 -0.3453 -0.2753 -0.0490
 3528SOL     OW13883   3.557   1.458   0.713  0.3136 -0.1107  0.2857
 3528SOL    HW213884   3.493   1.460   0.783 -0.8125 -0.9523 -0.6721
 3528SOL    HW313885   3.574   1.365   0.698 -1.4271 -0.1393 -2.2093
 3528SOL    MW413886   3.551   1.446   0.720  0.1949  0.4703  0.1896
 3529SOL     OW13887   0.001   4.684   4.246 -0.3482  0.3214 -0.3755
 3529SOL    HW213888   0.033   4.634   4.321 -2.1471 -0.4823 -0.0786
 3529SOL    HW313889  -0.029   4.766   4.283  0.0803  0.5107 -0.4433
 3529SOL    MW413890   0.001   4.688   4.261 -0.3067  0.4632 -0.7728
 3530SOL     OW13891   0.126   4.124   1.672  0.9739 -0.8320  0.4164
 3530SOL    HW213892   0.149   4.195   1.611  0.9169 -1.4181 -0.2967
 3530SOL    HW313893   0.057   4.162   1.727  0.1102 -0.6832 -0.7145
 3530SOL    MW413894   0.120   4.139   1.671 -0.0519  0.6325  0.2798
 3531SOL     OW13895   0.404   3.751   5.150  0.3468 -0.0261 -0.0590
 3531SOL    HW213896   0.443   3.839   5.150 -1.2916  0.7611 -0.6079
 3531SOL    HW313897   0.353   3.747   5.231 -0.3243 -0.0905 -0.4718
 3531SOL    MW413898   0.402   3.762   5.160 -0.0425 -0.2422 -0.2521
 3532SOL     OW13899   5.452   4.079   2.561  0.2126 -0.1110 -0.2622
 3532SOL    HW213900   5.533   4.063   2.512 -0.3808 -1.3523 -0.8863
 3532SOL    HW313901   5.387   4.097   2.494 -0.0152  1.0467  0.2471
 3532SOL    MW413902   5.454   4.080   2.546  0.3512  0.0201  0.3810
 3533SOL     OW13903   2.082   4.627   1.419 -0.0711 -0.0410 -0.5633
 3533SOL    HW213904   2.093   4.655   1.509 -0.1124  0.8941 -0.8321
 3533SOL    HW313905   2.158   4.663   1.373  0.6412 -1.6044 -0.6754
 3533SOL    MW413906   2.093   4.636   1.425  0.1033  0.1068 -0.4020
 3534SOL     OW13907   2.307   1.101   5.111 -0.3288 -0.2023 -0.2133
 3534SOL    HW213908   2.230   1.092   5.168  0.0933  0.3991  0.4699
 3534SOL    HW313909   2.371   1.146   5.166 -0.0095  0.6522 -1.2626
 3534SOL    MW413910   2.305   1.106   5.126  0.5005 -0.2129  0.2156
 3535SOL     OW13911   0.248   5.396   2.796  0.2599 -0.3710 -0.3223
 3535SOL    HW213912   0.342   5.401   2.813  0.1818  1.2752 -0.2264
 3535SOL    HW313913   0.231   5.303   2.783  1.9425 -0.6753 -0.5918
 3535SOL    MW413914   0.258   5.385   2.797 -0.5285  0.1742  0.1954
 3536SOL     OW13915   0.023   6.081   0.851  0.4393  0.2479  0.3060
 3536SOL    HW213916   0.091   6.075   0.783 -0.1641 -0.8368 -0.2339
 3536SOL    HW313917  -0.045   6.137   0.813 -0.7297 -1.7930 -0.7831
 3536SOL    MW413918   0.023   6.087   0.837 -0.5169  0.5006  0.3610
 3537SOL     OW13919   4.532   5.131   4.746 -0.4390  0.3886 -0.4693
 3537SOL    HW213920   4.505   5.152   4.836  2.1847  0.6097  0.3549
 3537SOL    HW313921   4.499   5.204   4.694 -0.9731  0.8668  0.5006
 3537SOL    MW413922   4.524   5.143   4.751  0.1205  0.5845  0.1210
 3538SOL     OW13923   4.000   0.989   5.386  0.5016 -0.1416  0.2116
 3538SOL    HW213924   4.013   0.895   5.375  0.8369 -0.0393 -0.3227
 3538SOL    HW313925   3.936   1.012   5.319 -0.1871 -0.1219  0.8664
 3538SOL    MW413926   3.993   0.980   5.375 -0.3014 -0.4891 -0.0202
 3539SOL     OW13927   3.150   1.453   0.242 -0.2288 -0.1171  0.0492
 3539SOL    HW213928   3.165   1.540   0.207 -2.9974  0.1294 -0.7504
 3539SOL    HW313929   3.217   1.442   0.309 -1.5430  3.9004  2.3981
 3539SOL    MW413930   3.161   1.463   0.246 -0.3626  0.1453  0.6535
 3540SOL     OW13931   5.586   2.111   3.447  0.0711  0.1877  0.2303
 3540SOL    HW213932   5.656   2.125   3.509  0.4086 -1.7558  0.3361
 3540SOL    HW313933   5.515   2.072   3.498  0.0615 -0.6994 -0.4369
 3540SOL    MW413934   5.586   2.108   3.462 -0.3120  0.5080  0.5558
 3541SOL     OW13935   0.408   3.708   2.930 -0.3912  0.6679  0.4024
 3541SOL    HW213936   0.433   3.717   3.022  1.3565 -3.3370  0.5134
 3541SOL    HW313937   0.490   3.720   2.882 -0.8620  0.5317 -0.4511
 3541SOL    MW413938   0.422   3.711   2.936 -0.1555 -0.0844  0.1643
 3542SOL     OW13939   1.042   4.302   0.535 -0.0584 -0.0809 -0.3152
 3542SOL    HW213940   1.088   4.371   0.582 -0.7407 -0.5130  1.0217
 3542SOL    HW313941   1.066   4.316   0.443  0.8464  1.1240  0.0779
 3542SOL    MW413942   1.052   4.313   0.529  1.0745 -0.3125  0.3714
 3543SOL     OW13943   5.102   5.929   2.924  0.1221  0.0489 -0.0253
 3543SOL    HW213944   5.113   5.897   2.834  2.0535  0.1786  0.1240
 3543SOL    HW313945   5.073   5.852   2.973  1.1410 -0.5812 -0.3701
 3543SOL    MW413946   5.100   5.915   2.918  0.1193  0.5421  0.0048
 3544SOL     OW13947   2.314   2.420   5.060  0.1045 -0.3995  0.5269
 3544SOL    HW213948   2.268   2.449   4.981  2.3044 -0.4547 -0.8710
 3544SOL    HW313949   2.341   2.502   5.102 -1.0724 -0.3700  1.2714
 3544SOL    MW413950   2.312   2.435   5.055  0.3977  0.5990  0.0732
 3545SOL     OW13951   3.627   6.359   3.336 -0.5184 -0.3504 -0.7540
 3545SOL    HW213952   3.682   6.295   3.292 -0.4910 -0.5357 -0.4546
 3545SOL    HW313953   3.685   6.434   3.350 -0.1055 -0.8391  0.2615
 3545SOL    MW413954   3.642   6.361   3.332  0.6447 -0.7334  0.1205
 3546SOL     OW13955   4.653   3.538   1.305  0.3623  0.5269 -0.2722
 3546SOL    HW213956   4.649   3.444   1.287 -0.0085  0.8829 -2.3888
 3546SOL    HW313957   4.736   3.550   1.351  0.9749 -0.6957 -1.0023
 3546SOL    MW413958   4.663   3.527   1.309 -0.0150 -0.2563  0.2057
 3547SOL     OW13959   1.538   2.991   3.146  0.2365  0.0778  0.4771
 3547SOL    HW213960   1.522   3.029   3.060  1.6397 -0.4575 -0.0538
 3547SOL    HW313961   1.504   2.902   3.140 -0.5370  0.3406  0.8111
 3547SOL    MW413962   1.531   2.985   3.134  0.6925  0.0407 -0.3047
 3548SOL     OW13963   4.117   5.241   5.198  0.0218  0.6993  0.6037
 3548SOL    HW213964   4.034   5.235   5.245 -0.4448 -0.1514 -0.3047
 3548SOL    HW313965   4.117   5.330   5.162 -0.8063  0.4910  0.0588
 3548SOL    MW413966   4.106   5.252   5.200  0.2958 -0.3005  0.0043
 3549SOL     OW13967   2.172   6.199   4.632 -0.0222  0.1017  0.0171
 3549SOL    HW213968   2.124   6.263   4.579  1.1050  1.5254  0.6555
 3549SOL    HW313969   2.132   6.204   4.719 -1.7054 -2.0529 -0.5302
 3549SOL    MW413970   2.160   6.208   4.637 -0.0667 -0.4381  0.3843
 3550SOL     OW13971   4.659   3.133   6.053  0.5129 -0.1870  0.5903
 3550SOL    HW213972   4.697   3.048   6.073 -0.4236 -0.6009  0.6315
 3550SOL    HW313973   4.652   3.135   5.957  1.6658  0.3540  0.4931
 3550SOL    MW413974   4.663   3.122   6.043 -0.2019  0.0694  0.2297
 3551SOL     OW13975   4.000   3.727   4.366  0.1030  0.0772  0.4509
 3551SOL    HW213976   3.920   3.709   4.415  0.2979 -1.8805  0.1503
 3551SOL    HW313977   4.051   3.786   4.422 -1.4461  1.2215  0.7126
 3551SOL    MW413978   3.996   3.732   4.380  0.2309 -0.0251  0.3414
 3552SOL     OW13979   3.153   4.984   6.094  0.3394 -0.1383 -0.6830
 3552SOL    HW213980   3.167   4.991   6.188 -0.7141  1.5366 -0.6015
 3552SOL    HW313981   3.150   4.890   6.076  2.3954 -0.5136  0.6367
 3552SOL    MW413982   3.155   4.973   6.104 -0.0096  0.1050 -0.7861
 3553SOL     OW13983   2.727   3.280   4.047 -0.4478  0.1731 -0.0563
 3553SOL    HW213984   2.665   3.222   4.003 -1.8945  2.5069 -1.2769
 3553SOL    HW313985   2.684   3.304   4.129 -0.0452 -0.1012  0.2423
 3553SOL    MW413986   2.713   3.275   4.052 -0.5120 -0.0302 -0.4362
 3554SOL     OW13987   6.253   0.170   3.390 -0.2397 -0.3210  0.2244
 3554SOL    HW213988   6.234   0.146   3.481 -3.5988 -0.9347 -0.4778
 3554SOL    HW313989   6.270   0.087   3.347 -0.6107 -0.2503 -0.0626
 3554SOL    MW413990   6.253   0.156   3.397  0.2648  0.7464  0.3513
 3555SOL     OW13991   1.290   3.646   4.022  0.2650  0.4847  0.6720
 3555SOL    HW213992   1.368   3.590   4.015  0.3480  0.4753  1.4927
 3555SOL    HW313993   1.286   3.668   4.116 -0.3350  1.0379  0.5185
 3555SOL    MW413994   1.300   3.641   4.034  0.0634  0.2248  0.1167
 3556SOL     OW13995   1.983   1.616   1.374 -0.1676 -0.2105 -0.0209
 3556SOL    HW213996   2.000   1.583   1.462 -0.0002 -0.3620 -0.1089
 3556SOL    HW313997   2.068   1.644   1.342 -0.0393 -1.1083 -0.5189
 3556SOL    MW413998   1.996   1.615   1.381  0.6900  0.4711  0.0673
 3557SOL     OW13999   5.508   3.517   3.421 -0.3201 -0.3241 -0.4052
 3557SOL    HW214000   5.517   3.464   3.341  0.8456 -0.0210 -0.4996
 3557SOL    HW314001   5.420   3.555   3.415 -1.6782 -3.1177  0.2375
 3557SOL    MW414002   5.498   3.515   3.409 -0.3177  0.0227 -0.3993
 3558SOL     OW14003   4.546   3.614   2.945 -0.1067 -0.0800 -0.5874
 3558SOL    HW214004   4.583   3.681   3.002  1.3063 -1.2441 -0.0627
 3558SOL    HW314005   4.623   3.566   2.912 -0.9386 -0.0581 -2.7173
 3558SOL    MW414006   4.561   3.616   2.948  0.6289  0.1059  0.2417
 3559SOL     OW14007   5.065   3.260   1.618 -0.2385 -0.2365  0.0718
 3559SOL    HW214008   5.090   3.339   1.666  0.0845 -1.5067  2.1300
 3559SOL    HW314009   5.062   3.191   1.685 -1.6384 -1.7486 -1.4447
 3559SOL    MW414010   5.068   3.261   1.633  0.3773  0.0202 -0.1712
 3560SOL     OW14011   3.414   2.237   3.498  0.7438 -0.0501  0.6269
 3560SOL    HW214012   3.452   2.177   3.562  0.1199  1.2170  2.2625
 3560SOL    HW314013   3.449   2.208   3.414  2.4312 -1.1445  1.6442
 3560SOL    MW414014   3.424   2.225   3.495  0.3750 -0.0653 -0.0961
 3561SOL     OW14015   3.734   0.822   1.233 -0.1286  0.0479 -0.2449
 3561SOL    HW214016   3.734   0.763   1.308 -0.3850 -0.4244 -0.6125
 3561SOL    HW314017   3.668   0.786   1.174  0.3765  0.1644 -0.8911
 3561SOL    MW414018   3.725   0.810   1.235  0.6421  0.3373 -0.4825
 3562SOL     OW14019   3.379   0.038   3.247 -0.1184  0.2221 -0.1930
 3562SOL    HW214020   3.361  -0.043   3.200  0.4100  0.4269 -0.7577
 3562SOL    HW314021   3.474   0.036   3.263 -0.3346 -0.0029  1.1655
 3562SOL    MW414022   3.390   0.027   3.243 -0.5069  0.2297 -0.8036
 3563SOL     OW14023   4.849   0.696   3.903  0.6420  0.1850 -0.1187
 3563SOL    HW214024   4.775   0.639   3.923  1.2663 -1.0054 -1.0711
 3563SOL    HW314025   4.880   0.726   3.989 -0.6698  0.3911  0.3087
 3563SOL    MW414026   4.844   0.693   3.917 -0.0472  0.2049  0.0304
 3564SOL     OW14027   2.992   1.196   2.788 -0.5930  0.3289  0.2069
 3564SOL    HW214028   2.972   1.168   2.878  1.9924 -1.3915  0.3688
 3564SOL    HW314029   2.959   1.285   2.783 -1.5397  0.2050  2.6131
 3564SOL    MW414030   2.985   1.204   2.799 -0.9397 -0.1991  0.0546
 3565SOL     OW14031   5.380   2.096   2.029  0.0146 -0.6176  0.0630
 3565SOL    HW214032   5.321   2.067   1.959 -0.9618  1.4231 -0.0428
 3565SOL    HW314033   5.453   2.137   1.984 -0.5529  0.5829  0.1800
 3565SOL    MW414034   5.382   2.098   2.014  0.2616  0.1230  0.4860
 3566SOL     OW14035   3.667   0.690   0.434 -0.4619  0.2343 -0.5011
 3566SOL    HW214036   3.679   0.759   0.369  1.9249  0.1986 -0.1786
 3566SOL    HW314037   3.716   0.720   0.510 -3.0911  0.2235  1.3397
 3566SOL    MW414038   3.675   0.703   0.436 -0.0091 -0.0568 -0.0202
 3567SOL     OW14039   1.592   4.763   4.538  0.4510  0.1489 -0.8554
 3567SOL    HW214040   1.593   4.795   4.628 -0.1294 -0.2396 -0.7049
 3567SOL    HW314041   1.549   4.832   4.488  2.0002  0.9991 -1.1037
 3567SOL    MW414042   1.587   4.776   4.544 -0.5631 -0.1396 -0.2424
 3568SOL     OW14043   0.533   5.451   2.245 -0.4651 -0.0020 -0.8239
 3568SOL    HW214044   0.447   5.426   2.211 -0.4599  1.7596 -2.3318
 3568SOL    HW314045   0.574   5.498   2.172  1.2931  0.2612  0.2792
 3568SOL    MW414046   0.527   5.454   2.231 -0.5736  0.2150 -0.6906
 3569SOL     OW14047   4.579   5.467   1.491 -0.1201  0.9602  0.4476
 3569SOL    HW214048   4.619   5.402   1.434  0.2680  0.6725  1.0341
 3569SOL    HW314049   4.486   5.464   1.471 -0.2436 -0.4466  1.1106
 3569SOL    MW414050   4.572   5.458   1.481  0.3200  0.3117  0.4521
 3570SOL     OW14051   5.357   4.019   1.409  0.1217 -0.5927 -0.7422
 3570SOL    HW214052   5.308   4.068   1.344  0.0626 -0.4563 -0.5955
 3570SOL    HW314053   5.411   4.084   1.454  0.3951 -0.7325 -0.8623
 3570SOL    MW414054   5.358   4.034   1.407  0.2416 -0.5173  0.0440
 3571SOL     OW14055   0.092   6.160   4.088 -0.2587  0.5225  0.3518
 3571SOL    HW214056   0.011   6.123   4.052 -0.0238 -0.3013  0.6685
 3571SOL    HW314057   0.155   6.153   4.017 -0.7713  2.3228 -0.3411
 3571SOL    MW414058   0.090   6.155   4.074  0.1584  0.1546  0.1903
 3572SOL     OW14059   0.934   5.953   2.526  0.2156  0.4513  0.3299
 3572SOL    HW214060   0.865   6.011   2.558  0.8858  1.0034  0.7829
 3572SOL    HW314061   0.890   5.898   2.461 -0.4733  1.3054  0.0634
 3572SOL    MW414062   0.919   5.953   2.522 -0.5863  0.7236 -0.3451
 3573SOL     OW14063   2.153   6.338   1.133 -0.6218 -0.2751  0.4088
 3573SOL    HW214064   2.200   6.255   1.137  0.7162  0.5024  1.4871
 3573SOL    HW314065   2.210   6.401   1.177 -2.1492  0.9670  0.7266
 3573SOL    MW414066   2.167   6.335   1.139  0.0356  0.2943 -0.2893
 3574SOL     OW14067   1.762   2.306   4.753 -0.3025 -0.3161  0.0480
 3574SOL    HW214068   1.677   2.301   4.709 -0.7387 -1.5649  0.9603
 3574SOL    HW314069   1.745   2.357   4.832  0.2380  1.0063 -0.6551
 3574SOL    MW414070   1.749   2.312   4.757 -0.5206 -0.0218 -0.8920
 3575SOL     OW14071   5.104   5.338   1.122  0.5758 -0.0996 -0.3689
 3575SOL    HW214072   5.113   5.352   1.216 -0.0805 -0.0232 -0.3140
 3575SOL    HW314073   5.187   5.299   1.096  0.4282 -0.9850  0.4084
 3575SOL    MW414074   5.116   5.334   1.131 -0.8973 -0.1339 -0.4130
 3576SOL     OW14075   6.298   0.523   0.269  0.1216  0.1987  0.1149
 3576SOL    HW214076   6.370   0.461   0.278 -0.6812 -0.5125  2.3076
 3576SOL    HW314077   6.341   0.609   0.260  1.2245 -0.4854 -1.5528
 3576SOL    MW414078   6.313   0.526   0.269 -0.4874  0.4046  0.0732
 3577SOL     OW14079   1.782   5.572   5.087 -0.0810 -0.1173  0.3372
 3577SOL    HW214080   1.729   5.493   5.095 -0.6629  0.3783  1.7485
 3577SOL    HW314081   1.737   5.636   5.142 -1.3109  2.1508 -3.0154
 3577SOL    MW414082   1.770   5.570   5.095 -0.2761 -0.0811  0.0875
 3578SOL     OW14083   0.901   4.025   4.546  0.4447  1.0195  0.3136
 3578SOL    HW214084   0.864   3.997   4.462 -2.0887  0.6638  1.4547
 3578SOL    HW314085   0.866   4.113   4.559 -0.0303  0.6791  1.4268
 3578SOL    MW414086   0.891   4.033   4.536 -0.1728  0.2113  0.4840
 3579SOL     OW14087   5.274   1.281   3.840  0.1587 -0.1809  0.1135
 3579SOL    HW214088   5.327   1.353   3.874 -0.3186  0.0666  0.3340
 3579SOL    HW314089   5.184   1.311   3.849 -0.0644 -0.9744  0.5856
 3579SOL    MW414090   5.269   1.294   3.846 -0.3768  0.0083  0.5692
 3580SOL     OW14091   1.067   2.105   6.137  0.1613 -0.1742  0.1271
 3580SOL    HW214092   1.019   2.070   6.062  0.8000 -0.4645 -0.1591
 3580SOL    HW314093   1.006   2.099   6.210 -0.3597 -0.1906 -0.3053
 3580SOL    MW414094   1.053   2.099   6.137  0.2707  0.2963  0.0147
 3581SOL     OW14095   4.661   1.800   2.894  0.1664 -0.0606 -0.0051
 3581SOL    HW214096   4.736   1.791   2.952  0.5360 -0.3267 -0.5184
 3581SOL    HW314097   4.585   1.791   2.952  0.5139  1.0980  0.6521
 3581SOL    MW414098   4.661   1.798   2.909  0.0896  0.3815  0.3654
 3582SOL     OW14099   5.545   4.385   1.691 -0.0669 -0.0439 -0.4218
 3582SOL    HW214100   5.578   4.425   1.772  1.2934  0.9577 -1.4294
 3582SOL    HW314101   5.560   4.451   1.624  0.9551 -1.6969 -1.9150
 3582SOL    MW414102   5.552   4.399   1.693  0.3761  0.7729 -0.0216
 3583SOL     OW14103   4.812   3.253   2.274 -0.5729  0.0630 -0.2036
 3583SOL    HW214104   4.885   3.312   2.294 -0.2298 -0.1029 -0.9406
 3583SOL    HW314105   4.779   3.225   2.360  0.2277  0.1346  0.1289
 3583SOL    MW414106   4.817   3.257   2.288  0.1878  0.4576 -0.5497
 3584SOL     OW14107   1.739   6.104   3.038 -0.2308 -0.6434 -0.5660
 3584SOL    HW214108   1.663   6.046   3.031  0.7588 -2.0637  0.0230
 3584SOL    HW314109   1.705   6.183   3.080 -1.7598 -0.4831 -1.9935
 3584SOL    MW414110   1.724   6.106   3.043  0.3572  0.3027 -0.7598
 3585SOL     OW14111   1.249   2.774   1.503 -0.1463  0.1789 -0.1062
 3585SOL    HW214112   1.155   2.763   1.490 -0.0787 -0.2349 -0.2640
 3585SOL    HW314113   1.260   2.868   1.518 -0.5696  0.2483 -0.2046
 3585SOL    MW414114   1.238   2.785   1.503  0.9087 -0.3423  0.2315
 3586SOL     OW14115   2.657   2.791   0.713  0.1855 -0.7354  0.1114
 3586SOL    HW214116   2.668   2.802   0.808 -0.2458 -1.7696  0.2989
 3586SOL    HW314117   2.565   2.770   0.702 -0.3518  1.8225 -0.8136
 3586SOL    MW414118   2.647   2.790   0.724  0.4728 -0.6501 -0.1945
 3587SOL     OW14119   2.409   0.528   4.613  0.8469  0.1904 -0.3039
 3587SOL    HW214120   2.458   0.511   4.532  0.5919 -0.5573 -0.3069
 3587SOL    HW314121   2.472   0.512   4.683  2.1113  3.9766 -0.3138
 3587SOL    MW414122   2.424   0.524   4.611 -0.1579 -0.3672 -0.0175
 3588SOL     OW14123   1.367   4.673   5.617  0.1003 -0.4354 -0.4115
 3588SOL    HW214124   1.401   4.584   5.612  1.4621  0.0716 -0.7341
 3588SOL    HW314125   1.422   4.723   5.555  0.2342  0.8735  0.7211
 3588SOL    MW414126   1.379   4.668   5.608 -0.3503  0.2003  0.0846
 3589SOL     OW14127   1.685   1.609   0.431 -0.7457  0.0686  0.1383
 3589SOL    HW214128   1.765   1.646   0.467 -1.7034  0.8687  1.5549
 3589SOL    HW314129   1.676   1.523   0.473 -0.5336 -0.1130 -0.1822
 3589SOL    MW414130   1.694   1.602   0.441 -0.3955 -0.0216 -0.1135
 3590SOL     OW14131   5.434   2.720   1.698 -0.0860  0.3582  0.0131
 3590SOL    HW214132   5.525   2.749   1.706 -0.0473 -0.2451  2.2998
 3590SOL    HW314133   5.440   2.628   1.671  0.0133  0.1194  0.8341
 3590SOL    MW414134   5.446   2.712   1.695 -0.1090 -0.2482  0.2026
 3591SOL     OW14135   6.293   1.791   0.110  0.5947 -0.3835 -0.5152
 3591SOL    HW214136   6.287   1.695   0.103  1.2355 -0.5777  1.1128
 3591SOL    HW314137   6.248   1.811   0.192 -1.5641  0.9979 -1.9397
 3591SOL    MW414138   6.286   1.781   0.120 -0.2452 -0.1487  0.4190
 3592SOL     OW14139   1.720   0.535   2.938 -0.1791 -0.4331 -0.2554
 3592SOL    HW214140   1.722   0.509   3.031  0.3949  1.9009  0.4546
 3592SOL    HW314141   1.650   0.599   2.933  0.3918  0.1388 -1.2327
 3592SOL    MW414142   1.711   0.540   2.950  0.1775 -0.0560 -0.5296
 3593SOL     OW14143   2.496   4.395   1.361 -0.1607  0.4183 -0.1183
 3593SOL    HW214144   2.531   4.334   1.426 -1.1740 -0.3598 -0.2792
 3593SOL    HW314145   2.404   4.404   1.383 -0.0362  1.9612 -0.0697
 3593SOL    MW414146   2.489   4.388   1.372 -0.0016 -0.0588 -0.5387
 3594SOL     OW14147   1.458   0.339   3.868  0.7977 -0.2437 -0.1652
 3594SOL    HW214148   1.412   0.402   3.813 -0.8126 -0.2842  1.0769
 3594SOL    HW314149   1.456   0.258   3.816 -0.3120 -0.1751 -0.2657
 3594SOL    MW414150   1.452   0.336   3.854  0.2317  0.0076  0.0237
 3595SOL     OW14151   4.240   4.676   3.775 -0.1604 -0.4730  0.3066
 3595SOL    HW214152   4.249   4.591   3.818  1.7677  0.0490  1.0371
 3595SOL    HW314153   4.313   4.728   3.809 -0.2354  0.8897 -1.4665
 3595SOL    MW414154   4.251   4.672   3.785  0.0814 -0.4040 -0.2053
 3596SOL     OW14155   2.224   5.074   1.621  0.4560 -0.2805  0.1481
 3596SOL    HW214156   2.212   5.160   1.660  1.4285 -0.4812  0.9328
 3596SOL    HW314157   2.254   5.018   1.693 -0.0728 -1.2588 -0.3623
 3596SOL    MW414158   2.226   5.078   1.635 -0.3883  0.2560 -0.2295
 3597SOL     OW14159   6.363   1.990   1.136 -0.1734  0.0315  0.0851
 3597SOL    HW214160   6.281   2.018   1.097 -0.1490  0.6265  0.4449
 3597SOL    HW314161   6.428   2.001   1.067 -0.5422 -1.3926 -0.5237
 3597SOL    MW414162   6.361   1.995   1.122  0.3117 -0.1990 -0.0473
 3598SOL     OW14163   5.831   3.890   1.423  0.1003  0.3015 -0.1917
 3598SOL    HW214164   5.857   3.976   1.454  1.4076 -0.1308 -0.0024
 3598SOL    HW314165   5.910   3.856   1.379 -1.0510  0.0740 -2.1806
 3598SOL    MW414166   5.845   3.897   1.421  0.5953 -0.2771  0.4801
 3599SOL     OW14167   1.829   4.307   6.068 -0.2530  0.5375  0.0877
 3599SOL    HW214168   1.836   4.389   6.116  0.9312  0.5498 -0.0836
 3599SOL    HW314169   1.776   4.328   5.991  0.2409  1.2019 -0.0762
 3599SOL    MW414170   1.823   4.320   6.064  0.4122 -0.1577  0.6141
 3600SOL     OW14171   2.257   1.393   3.477  0.4273  0.1355  0.4418
 3600SOL    HW214172   2.255   1.321   3.540  1.5434 -0.2482  0.0547
 3600SOL    HW314173   2.344   1.389   3.438  0.3484  1.4212  0.0836
 3600SOL    MW414174   2.268   1.383   3.480 -0.0775  0.4008  0.1299
 3601SOL     OW14175   2.479   1.061   6.139 -0.2776 -0.2608 -0.1915
 3601SOL    HW214176   2.456   1.046   6.231  1.9907 -2.8864  0.0854
 3601SOL    HW314177   2.523   0.981   6.112  2.3617  1.7784 -2.5219
 3601SOL    MW414178   2.482   1.049   6.148 -0.2372 -0.5621  0.7228
 3602SOL     OW14179   6.043   4.045   5.053  0.1446  0.0708 -0.1305
 3602SOL    HW214180   6.120   4.076   5.101  0.4666 -0.4402 -0.3045
 3602SOL    HW314181   5.982   4.118   5.055 -0.6076 -0.5203  2.6663
 3602SOL    MW414182   6.045   4.059   5.060  0.0968 -0.1318  0.2002
 3603SOL     OW14183   6.036   2.522   1.239 -0.3906  0.2919  0.2016
 3603SOL    HW214184   6.033   2.430   1.267 -1.8803  0.3931  0.4283
 3603SOL    HW314185   6.098   2.522   1.165  0.2457 -0.7393  0.7097
 3603SOL    MW414186   6.044   2.510   1.233  0.2941  0.2563  0.0797
 3604SOL     OW14187   3.663   3.849   2.870 -0.4238  0.0549 -0.1267
 3604SOL    HW214188   3.633   3.800   2.946 -0.8182  1.2159  0.4876
 3604SOL    HW314189   3.666   3.940   2.899  1.4092  0.2866 -0.8825
 3604SOL    MW414190   3.659   3.854   2.884  0.4613  0.4685 -0.1915
 3605SOL     OW14191   4.441   5.762   5.674  0.2649  0.4100 -0.7613
 3605SOL    HW214192   4.387   5.696   5.633  1.1966 -0.4033 -0.7148
 3605SOL    HW314193   4.496   5.797   5.604  1.2713 -0.3938 -0.4053
 3605SOL    MW414194   4.441   5.758   5.660  0.0965  0.4258 -0.0787
 3606SOL     OW14195   1.164   2.481   4.338 -0.4043 -0.6268 -0.4827
 3606SOL    HW214196   1.203   2.484   4.425  1.4255 -1.2350 -1.2506
 3606SOL    HW314197   1.070   2.493   4.354 -0.1056 -0.6571  1.5556
 3606SOL    MW414198   1.157   2.483   4.351  0.3949  0.2976 -0.3089
 3607SOL     OW14199   2.534   5.754   3.137  0.0927 -0.0288  0.5329
 3607SOL    HW214200   2.547   5.663   3.161 -0.9614 -0.3966 -0.1919
 3607SOL    HW314201   2.459   5.752   3.077  0.2641  1.2702  0.2467
 3607SOL    MW414202   2.525   5.742   3.132  0.0712 -0.1283  0.1251
 3608SOL     OW14203   4.619   2.370   4.282  0.3902  0.2129  0.0064
 3608SOL    HW214204   4.669   2.352   4.203 -0.2524  0.0609 -0.3794
 3608SOL    HW314205   4.558   2.440   4.257  0.8395  0.8433  0.6478
 3608SOL    MW414206   4.617   2.377   4.268  0.1844  0.0333  0.1809
 3609SOL     OW14207   4.449   3.257   2.367 -0.0532 -0.4032 -0.7067
 3609SOL    HW214208   4.456   3.215   2.281 -1.1409  0.6442 -1.3535
 3609SOL    HW314209   4.355   3.277   2.375 -0.0030 -0.7082  0.8423
 3609SOL    MW414210   4.437   3.255   2.356  0.1452  0.0962 -0.1021
 3610SOL     OW14211   3.749   1.200   1.395  0.0133 -0.1759 -0.4095
 3610SOL    HW214212   3.654   1.215   1.403 -0.2785 -1.8094 -0.4906
 3610SOL    HW314213   3.787   1.287   1.407 -1.5243  0.6234 -0.9501
 3610SOL    MW414214   3.741   1.213   1.398 -0.0556  0.8126  0.1284
 3611SOL     OW14215   5.008   5.895   5.412 -0.3919 -0.6226  0.0799
 3611SOL    HW214216   4.960   5.977   5.398  0.1974 -0.3408 -0.3524
 3611SOL    HW314217   5.001   5.879   5.506  0.9104  0.8276  0.4573
 3611SOL    MW414218   5.001   5.904   5.422  0.1779  0.0318  0.2860
 3612SOL     OW14219   5.385   6.013   1.028  0.3033 -0.1224  0.0504
 3612SOL    HW214220   5.347   6.081   0.973  0.3471  0.0748  0.2653
 3612SOL    HW314221   5.425   6.060   1.101 -1.2999 -0.4982  1.2060
 3612SOL    MW414222   5.386   6.028   1.030  0.0352  0.2512 -0.5507
 3613SOL     OW14223   0.381   1.629   0.618 -0.0597  0.0630  0.1980
 3613SOL    HW214224   0.425   1.600   0.698 -1.3459 -1.5710  0.3745
 3613SOL    HW314225   0.420   1.576   0.549 -0.9245 -0.5908  0.1929
 3613SOL    MW414226   0.392   1.618   0.620  0.1628 -0.0847 -0.1551
 3614SOL     OW14227   5.764   3.060   0.970 -0.2280  0.2546 -0.3108
 3614SOL    HW214228   5.743   3.069   1.063  0.2165  2.0781 -0.3614
 3614SOL    HW314229   5.723   2.977   0.945 -0.3646 -0.2655  1.4966
 3614SOL    MW414230   5.756   3.050   0.979 -0.1311 -1.0726 -0.4617
 3615SOL     OW14231   4.559   1.787   3.356 -0.4454  0.1220  0.5178
 3615SOL    HW214232   4.508   1.866   3.344 -0.6337 -0.1678 -0.6540
 3615SOL    HW314233   4.634   1.814   3.409 -0.0248  1.2888 -0.6319
 3615SOL    MW414234   4.563   1.801   3.362 -0.3193  0.0267 -0.1050
 3616SOL     OW14235   1.758   0.510   1.501  0.3151 -0.1586 -0.2300
 3616SOL    HW214236   1.681   0.534   1.450  0.5450 -1.4076 -1.2339
 3616SOL    HW314237   1.830   0.559   1.461  0.5832 -1.5173 -1.5032
 3616SOL    MW414238   1.757   0.519   1.489  0.2871  0.3953 -0.1641
 3617SOL     OW14239   1.250   4.967   0.372  0.1584  0.8655  0.6849
 3617SOL    HW214240   1.251   5.061   0.353 -3.5587  1.1500  1.0925
 3617SOL    HW314241   1.233   4.926   0.287  2.1015  0.4562  0.4507
 3617SOL    MW414242   1.248   4.974   0.358 -0.1217 -0.2367 -0.3325
 3618SOL     OW14243   2.795   5.777   3.187  0.3563 -0.1852 -0.0274
 3618SOL    HW214244   2.802   5.827   3.268 -2.5236 -2.5012  1.8676
 3618SOL    HW314245   2.701   5.776   3.167  0.4518 -3.3071 -0.8463
 3618SOL    MW414246   2.783   5.783   3.195  0.1560 -0.0258 -0.0916
 3619SOL     OW14247   4.119   1.552   5.541  0.0933  0.1595 -0.1153
 3619SOL    HW214248   4.104   1.618   5.473  0.3204  1.7004  1.2687
 3619SOL    HW314249   4.034   1.511   5.554 -0.7222  2.0603  0.8567
 3619SOL    MW414250   4.106   1.556   5.533  0.0885 -0.7029  0.5015
 3620SOL     OW14251   3.011   4.767   6.413 -0.1789 -0.3367  0.1351
 3620SOL    HW214252   2.967   4.692   6.373  0.6267 -0.4531 -0.5708
 3620SOL    HW314253   3.027   4.740   6.504 -1.6991 -0.2145  0.4618
 3620SOL    MW414254   3.007   4.754   6.420 -0.0909  0.2842  0.2927
 3621SOL     OW14255   2.184   3.640   4.059  0.8563  0.7010  0.2927
 3621SOL    HW214256   2.262   3.591   4.085  0.5091 -0.4474 -0.7462
 3621SOL    HW314257   2.212   3.688   3.980  0.0952 -0.9972 -1.0605
 3621SOL    MW414258   2.198   3.640   4.052 -0.1554 -0.6378  0.0530
 3622SOL     OW14259   6.102   3.208   0.004 -0.2929  0.0962  0.3172
 3622SOL    HW214260   6.051   3.145   0.054 -1.9068 -0.5649 -2.0293
 3622SOL    HW314261   6.069   3.293   0.031  0.0043 -0.1539  1.5161
 3622SOL    MW414262   6.091   3.211   0.014  0.3756  0.3280  0.1307
 3623SOL     OW14263   2.555   1.631   4.133  0.0703  0.3951 -0.4316
 3623SOL    HW214264   2.501   1.707   4.156  1.4775  1.1136  0.6447
 3623SOL    HW314265   2.543   1.621   4.039 -3.2189 -0.5237 -0.0239
 3623SOL    MW414266   2.546   1.640   4.124  0.1476 -0.4364 -0.5255
 3624SOL     OW14267   3.669   5.886   5.178 -0.5484  0.3757 -0.3840
 3624SOL    HW214268   3.625   5.971   5.179 -0.8935  0.2059  0.8575
 3624SOL    HW314269   3.607   5.826   5.137 -0.0731  0.8263 -1.7942
 3624SOL    MW414270   3.655   5.889   5.173 -0.3563 -0.3338 -0.2030
 3625SOL     OW14271   5.050   1.335   1.927  0.2871 -0.3493 -0.4926
 3625SOL    HW214272   5.065   1.372   1.840 -1.1501  0.8387 -0.2780
 3625SOL    HW314273   5.123   1.368   1.980  2.2304 -2.5997 -1.6066
 3625SOL    MW414274   5.062   1.344   1.923 -0.5457  0.4070 -0.6372
 3626SOL     OW14275   2.616   0.211   1.006 -0.2702 -0.2608  0.1579
 3626SOL    HW214276   2.584   0.293   1.045 -0.3162  0.0079 -0.4293
 3626SOL    HW314277   2.668   0.240   0.930 -2.3043 -0.8219 -1.5568
 3626SOL    MW414278   2.619   0.226   1.001 -0.2687 -0.4825  0.0655
 3627SOL     OW14279   0.661   0.512   1.656  0.0052  0.5013  0.1661
 3627SOL    HW214280   0.721   0.470   1.594  0.5766 -0.3290  1.2611
 3627SOL    HW314281   0.604   0.442   1.686 -0.3368  0.9193  0.5160
 3627SOL    MW414282   0.662   0.497   1.651  0.0188 -0.5176 -0.5433
 3628SOL     OW14283   3.225   1.081   1.420 -0.4474  0.2352 -0.2221
 3628SOL    HW214284   3.202   1.062   1.329  2.5132 -1.1933 -0.8039
 3628SOL    HW314285   3.266   1.001   1.451 -1.1452  0.7972  2.3372
 3628SOL    MW414286   3.228   1.068   1.412 -0.9344 -0.3424  0.6173
 3629SOL     OW14287   4.774   6.187   4.337  0.2713  0.3361  0.6187
 3629SOL    HW214288   4.722   6.152   4.409  0.9034 -3.1083 -0.3767
 3629SOL    HW314289   4.864   6.190   4.371  0.2685  0.7488  0.5972
 3629SOL    MW414290   4.779   6.183   4.351 -0.4430 -0.6706 -0.4311
 3630SOL     OW14291   5.655   3.754   0.359 -0.2769 -0.5452  0.1674
 3630SOL    HW214292   5.732   3.704   0.386  0.7393  1.2025  0.7002
 3630SOL    HW314293   5.609   3.774   0.440 -0.5258 -0.3661 -0.0139
 3630SOL    MW414294   5.659   3.750   0.373  0.5627  0.5163  0.1503
 3631SOL     OW14295   2.683   2.389   3.983  0.0543  0.1704 -0.0935
 3631SOL    HW214296   2.597   2.432   3.980 -0.1952 -0.3424 -0.3297
 3631SOL    HW314297   2.721   2.407   3.897 -0.0681 -0.1237 -0.2075
 3631SOL    MW414298   2.677   2.397   3.971 -0.4502 -0.7097 -0.0002
 3632SOL     OW14299   3.023   1.070   0.078  0.2559  0.0353 -0.0351
 3632SOL    HW214300   3.063   0.985   0.097 -0.6299 -0.6301 -1.0014
 3632SOL    HW314301   2.960   1.051   0.008  0.3886  1.5849 -0.6079
 3632SOL    MW414302   3.020   1.056   0.071  0.4506 -0.6460  0.0018
 3633SOL     OW14303   4.633   1.392   2.466  0.2554 -0.5040  0.1816
 3633SOL    HW214304   4.711   1.447   2.460 -0.1533  0.2781  1.6321
 3633SOL    HW314305   4.575   1.426   2.398  0.1740  0.6207  0.7816
 3633SOL    MW414306   4.636   1.404   2.456  0.5987 -0.2734  0.4165
 3634SOL     OW14307   1.804   1.772   6.205 -0.0459  0.2536  0.6305
 3634SOL    HW214308   1.802   1.784   6.300  0.4739  1.2619  0.5373
 3634SOL    HW314309   1.856   1.847   6.174  0.6136 -0.5976 -0.3593
 3634SOL    MW414310   1.811   1.784   6.214 -0.2088 -0.1790  0.3051
 3635SOL     OW14311   1.976   1.990   6.133 -0.6018 -0.7281 -0.2341
 3635SOL    HW214312   1.926   2.032   6.063  0.1749 -1.7944 -1.4853
 3635SOL    HW314313   1.945   2.032   6.213 -1.1261  0.9226 -1.2520
 3635SOL    MW414314   1.965   2.001   6.134  0.2108  1.0476  0.4190
 3636SOL     OW14315   0.089   0.501   6.081  0.2007  0.1884  0.2794
 3636SOL    HW214316   0.060   0.416   6.112 -0.0132 -0.4164 -1.4711
 3636SOL    HW314317   0.012   0.540   6.040  0.5227  0.8318  0.2676
 3636SOL    MW414318   0.075   0.495   6.079 -0.2104  0.3465  0.3744
 3637SOL     OW14319   4.604   6.131   5.568 -0.3796 -0.2024  0.3792
 3637SOL    HW214320   4.663   6.200   5.597  0.2702 -0.8065  0.5196
 3637SOL    HW314321   4.633   6.053   5.616 -0.3004 -0.8603 -0.7227
 3637SOL    MW414322   4.615   6.130   5.578  0.2447 -0.7243 -0.1473
 3638SOL     OW14323   5.094   1.055   0.612  0.1704 -0.5828 -0.1779
 3638SOL    HW214324   5.018   1.111   0.619 -0.7335 -1.8159  0.2334
 3638SOL    HW314325   5.069   0.987   0.549  1.5292 -0.0922 -1.3064
 3638SOL    MW414326   5.081   1.053   0.604  0.5680  0.2744 -0.5040
 3639SOL     OW14327   2.929   4.512   6.321  0.4116  0.2689 -0.2425
 3639SOL    HW214328   2.951   4.440   6.380 -1.3997 -1.2001 -1.2462
 3639SOL    HW314329   2.903   4.469   6.239 -0.2903  2.0973 -1.0405
 3639SOL    MW414330   2.929   4.497   6.318 -0.2959 -0.2133  0.9263
 3640SOL     OW14331   3.235   0.838   3.785 -0.4714 -0.1646 -0.1134
 3640SOL    HW214332   3.328   0.846   3.760 -0.4636 -0.7867 -0.3249
 3640SOL    HW314333   3.219   0.911   3.844  0.1574 -0.0468 -0.0806
 3640SOL    MW414334   3.245   0.848   3.790  0.0475  0.5800  0.6561
 3641SOL     OW14335   2.699   4.581   1.500  0.0474 -0.3056  0.5507
 3641SOL    HW214336   2.773   4.590   1.439  0.8087 -1.6335  1.2258
 3641SOL    HW314337   2.682   4.487   1.503 -1.6017 -0.0314  0.5294
 3641SOL    MW414338   2.707   4.570   1.493 -0.2158  0.0438  0.0866
 3642SOL     OW14339   0.176   4.156   0.344 -0.3275  0.5818 -0.4932
 3642SOL    HW214340   0.114   4.127   0.411  0.2630 -0.3318 -0.3233
 3642SOL    HW314341   0.230   4.221   0.387  0.4250 -0.4206  0.1125
 3642SOL    MW414342   0.175   4.161   0.358  0.5926  0.4100 -0.0935
 3643SOL     OW14343   5.711   6.271   3.265 -0.2924  0.5753 -0.3763
 3643SOL    HW214344   5.798   6.247   3.232 -0.3082  0.7073 -0.5165
 3643SOL    HW314345   5.679   6.336   3.203 -0.3129  0.8442 -0.0871
 3643SOL    MW414346   5.719   6.276   3.253 -0.2641 -0.4985  0.4172
 3644SOL     OW14347   4.643   5.409   3.592 -0.5531  0.1425  0.1968
 3644SOL    HW214348   4.722   5.446   3.632  0.9600 -1.4009 -1.2168
 3644SOL    HW314349   4.585   5.391   3.666  0.8061  0.4171  1.3820
 3644SOL    MW414350   4.646   5.412   3.607  0.2598  0.1683  0.2884
 3645SOL     OW14351   5.638   5.398   6.074  0.1311 -0.4239 -0.2236
 3645SOL    HW214352   5.670   5.316   6.112  0.7774 -0.0319  0.0835
 3645SOL    HW314353   5.593   5.371   5.994  0.7467 -1.0357 -0.3687
 3645SOL    MW414354   5.636   5.383   6.068  0.0237 -0.5425 -0.4769
 3646SOL     OW14355   2.489   1.219   4.230  0.3723 -0.2253 -0.2181
 3646SOL    HW214356   2.458   1.147   4.286  1.9496 -3.5513 -3.1998
 3646SOL    HW314357   2.579   1.233   4.258 -0.2894  1.6056  1.1662
 3646SOL    MW414358   2.497   1.211   4.242  0.4189 -0.6139 -0.3910
 3647SOL     OW14359   4.786   3.219   4.658  0.0091  0.6114 -0.4777
 3647SOL    HW214360   4.741   3.135   4.669  0.2170  0.5133 -0.3514
 3647SOL    HW314361   4.760   3.249   4.572  0.1423  0.2848 -0.6343
 3647SOL    MW414362   4.777   3.212   4.648  0.2867 -0.0554 -0.0418
 3648SOL     OW14363   5.056   0.082   2.424 -0.3385  0.1851  0.0405
 3648SOL    HW214364   5.135   0.056   2.471 -0.0075  0.5776 -0.2935
 3648SOL    HW314365   5.070   0.051   2.334  0.1723  1.6893 -0.4347
 3648SOL    MW414366   5.068   0.074   2.418 -0.5213 -0.1065  0.4475
 3649SOL     OW14367   0.846   1.945   2.751 -0.1336 -0.1475 -0.1780
 3649SOL    HW214368   0.852   1.851   2.739  2.4894  0.1226 -1.5425
 3649SOL    HW314369   0.926   1.968   2.799 -1.5131  1.2398  1.6348
 3649SOL    MW414370   0.857   1.936   2.756 -0.0914 -0.0175 -0.1902
 3650SOL     OW14371   4.278   4.781   6.081  0.2266  0.2217  0.2435
 3650SOL    HW214372   4.339   4.839   6.127  0.4412  0.2309 -0.0475
 3650SOL    HW314373   4.191   4.810   6.109  0.3364  0.6057  0.1988
 3650SOL    MW414374   4.275   4.793   6.091  0.5349 -0.0596 -0.1319
 3651SOL     OW14375   4.957   1.183   3.883 -0.2562  1.0618 -0.2812
 3651SOL    HW214376   4.878   1.199   3.935 -0.3068  1.5586 -0.5086
 3651SOL    HW314377   4.998   1.107   3.925  0.2910  2.1240  1.1753
 3651SOL    MW414378   4.952   1.175   3.896  0.1967 -0.2878  0.1343
 3652SOL     OW14379   2.284   1.808   1.016  0.6314 -0.0383 -0.5428
 3652SOL    HW214380   2.205   1.754   1.009  1.7502 -1.6705 -1.3251
 3652SOL    HW314381   2.285   1.859   0.935 -0.2406  0.9535  0.0365
 3652SOL    MW414382   2.273   1.808   1.004  0.2942  0.5817 -0.0654
 3653SOL     OW14383   1.426   1.026   5.928  1.0641 -1.1894  0.2729
 3653SOL    HW214384   1.350   0.968   5.928  1.2345 -1.4166  0.5898
 3653SOL    HW314385   1.438   1.050   5.837  0.2101 -0.6226  0.2884
 3653SOL    MW414386   1.417   1.021   5.916  0.3384 -0.5663 -0.1268
 3654SOL     OW14387   0.080   1.384   2.026 -0.6214 -0.3366  0.3370
 3654SOL    HW214388   0.006   1.444   2.019 -0.9304 -0.7471 -0.0661
 3654SOL    HW314389   0.112   1.375   1.936  1.1195  1.2762  0.7346
 3654SOL    MW414390   0.074   1.390   2.013  0.3403  0.0070  0.6667
 3655SOL     OW14391   5.425   0.208   5.741 -0.4217 -0.1206  0.0394
 3655SOL    HW214392   5.462   0.268   5.805  0.5220  0.0124 -0.6084
 3655SOL    HW314393   5.500   0.170   5.696 -0.9957 -1.7367  0.3679
 3655SOL    MW414394   5.439   0.211   5.743 -0.0101  0.7393 -0.0370
 3656SOL     OW14395   1.077   0.259   0.404 -0.3606 -0.4585 -0.0483
 3656SOL    HW214396   1.164   0.249   0.366  0.6590 -2.7600  2.5447
 3656SOL    HW314397   1.019   0.213   0.344  0.7477 -1.6949 -0.2153
 3656SOL    MW414398   1.081   0.252   0.391 -0.0848 -0.2145  0.0654
 3657SOL     OW14399   5.917   2.976   2.478  0.3596  0.5725  0.1573
 3657SOL    HW214400   5.947   2.980   2.387 -0.7832  2.0428 -0.2023
 3657SOL    HW314401   5.940   2.888   2.508 -2.2497 -1.2485 -2.6460
 3657SOL    MW414402   5.924   2.965   2.470  0.6572 -0.8370 -0.1834
 3658SOL     OW14403   0.495   1.890   3.980  0.4297 -0.6353  0.0850
 3658SOL    HW214404   0.548   1.966   4.002 -2.2464  0.8196  2.0753
 3658SOL    HW314405   0.544   1.815   4.016  1.1724  0.6038  1.7765
 3658SOL    MW414406   0.509   1.890   3.988 -0.0180 -0.2210  0.0000
 3659SOL     OW14407   4.646   5.332   6.167 -0.0253  0.6381  0.3374
 3659SOL    HW214408   4.721   5.282   6.200 -1.1732 -0.0093  2.1636
 3659SOL    HW314409   4.647   5.413   6.218  0.5462  1.5463 -1.0538
 3659SOL    MW414410   4.656   5.336   6.178  0.1648 -0.3295  0.1649
 3660SOL     OW14411   1.144   5.643   0.045  0.3541 -0.2017 -0.2592
 3660SOL    HW214412   1.137   5.680  -0.043  1.3930 -0.4661 -0.4725
 3660SOL    HW314413   1.105   5.556   0.038  0.1608 -0.1057 -0.3815
 3660SOL    MW414414   1.138   5.636   0.032 -0.1309 -0.0145  0.1305
 3661SOL     OW14415   3.363   2.274   1.454 -0.1171 -0.3281 -0.0798
 3661SOL    HW214416   3.283   2.233   1.421 -1.3608  1.4166  0.6293
 3661SOL    HW314417   3.418   2.285   1.377 -1.5798  0.6319 -1.0351
 3661SOL    MW414418   3.359   2.270   1.440 -0.0108 -0.2983  0.2386
 3662SOL     OW14419   4.645   3.177   5.504 -0.7539  0.1398 -0.6419
 3662SOL    HW214420   4.636   3.254   5.449  2.4267 -0.2893 -1.9618
 3662SOL    HW314421   4.648   3.104   5.441 -1.2881 -0.8309  0.4264
 3662SOL    MW414422   4.644   3.177   5.488 -0.3067  0.3148  0.9741
 3663SOL     OW14423   1.309   2.049   2.349  0.4349  0.0033 -0.0218
 3663SOL    HW214424   1.262   1.966   2.343  0.7409 -0.0851 -1.6019
 3663SOL    HW314425   1.400   2.024   2.363  0.4213  0.0908  0.2183
 3663SOL    MW414426   1.315   2.035   2.350 -0.0705  0.0506  0.2064
 3664SOL     OW14427   5.044   1.848   2.954 -0.0084  0.0665  0.1047
 3664SOL    HW214428   4.975   1.835   3.019 -0.4325  0.6259 -0.2227
 3664SOL    HW314429   5.071   1.759   2.930  0.4224 -0.1406  1.3186
 3664SOL    MW414430   5.038   1.835   2.959  0.1271 -0.3159  0.1501
 3665SOL     OW14431   3.235   4.116   1.554 -0.1626 -0.4436 -0.2185
 3665SOL    HW214432   3.275   4.168   1.484 -1.1036 -1.6883 -1.7577
 3665SOL    HW314433   3.289   4.037   1.559  0.9723  0.3905  1.7702
 3665SOL    MW414434   3.247   4.112   1.546 -0.1483 -0.8881 -0.2238
 3666SOL     OW14435   0.420   4.297   3.710 -0.2870 -0.6396 -0.2954
 3666SOL    HW214436   0.332   4.306   3.748  0.1189  0.0767  0.5021
 3666SOL    HW314437   0.425   4.368   3.646 -0.4376 -0.9516 -0.6608
 3666SOL    MW414438   0.409   4.308   3.706 -0.3708 -0.0264 -0.1297
 3667SOL     OW14439   5.334   1.051   3.993  0.0459  0.2322 -0.2568
 3667SOL    HW214440   5.327   1.130   3.939  1.1721  0.6008  0.1191
 3667SOL    HW314441   5.405   1.070   4.054  0.6202 -1.2438 -0.4420
 3667SOL    MW414442   5.342   1.064   3.993 -0.2903  0.0656 -0.2211
 3668SOL     OW14443   4.572   3.837   4.905  0.3843  0.0435 -0.3724
 3668SOL    HW214444   4.599   3.789   4.984  0.3770  2.1206  0.9692
 3668SOL    HW314445   4.480   3.815   4.895 -0.3766  1.8625  1.8954
 3668SOL    MW414446   4.564   3.828   4.914  0.6422 -0.1646  0.4473
 3669SOL     OW14447   0.152   5.705   0.339  0.1184 -0.3122  0.5663
 3669SOL    HW214448   0.088   5.753   0.287  1.0018  2.3927  1.8024
 3669SOL    HW314449   0.100   5.654   0.401 -0.8342 -0.8316 -0.5978
 3669SOL    MW414450   0.137   5.704   0.340  0.0852  0.5905 -0.0677
 3670SOL     OW14451   4.326   3.990   3.216 -0.5437 -0.9526  0.2212
 3670SOL    HW214452   4.326   4.066   3.274 -3.6058  0.2016 -1.0688
 3670SOL    HW314453   4.274   3.924   3.262  0.4787 -1.5922  0.4942
 3670SOL    MW414454   4.319   3.992   3.230  0.5117  0.2943 -0.4277
 3671SOL     OW14455   3.821   2.099   6.140 -0.1057  0.0730  0.2984
 3671SOL    HW214456   3.820   2.032   6.072  1.9176 -0.0587  0.3459
 3671SOL    HW314457   3.793   2.053   6.220  1.0021 -0.6969  0.2763
 3671SOL    MW414458   3.817   2.084   6.142 -0.2050  0.3054  0.0699
 3672SOL     OW14459   6.415   4.563   0.959  0.3691 -0.1121 -0.3531
 3672SOL    HW214460   6.464   4.616   1.022 -0.8434  0.7629 -0.1146
 3672SOL    HW314461   6.417   4.614   0.878  0.2116 -0.2693 -0.4572
 3672SOL    MW414462   6.422   4.577   0.957  0.8048 -0.3270  0.0916
 3673SOL     OW14463   6.325   5.526   5.275 -0.6080  0.0429  0.3685
 3673SOL    HW214464   6.257   5.592   5.291  0.2365  0.7946  1.0311
 3673SOL    HW314465   6.404   5.565   5.312  0.5545 -0.0820 -1.8443
 3673SOL    MW414466   6.326   5.540   5.282  0.2326 -0.0489 -0.1117
 3674SOL     OW14467   5.947   0.726   4.932 -0.3601 -0.4250  0.5246
 3674SOL    HW214468   6.039   0.702   4.943  0.0565  0.2075 -1.3021
 3674SOL    HW314469   5.910   0.655   4.879 -0.8142 -0.4375  0.8525
 3674SOL    MW414470   5.954   0.713   4.927  0.4578 -0.1897 -0.4848
 3675SOL     OW14471   2.140   2.825   3.288 -0.3224  0.0864 -0.3003
 3675SOL    HW214472   2.076   2.854   3.353 -0.8091 -0.1704 -0.6619
 3675SOL    HW314473   2.185   2.905   3.262 -0.5732  0.2867 -0.1291
 3675SOL    MW414474   2.138   2.839   3.293  0.0881 -0.2427 -0.1056
 3676SOL     OW14475   6.370   2.155   0.317 -0.1584 -0.3175  0.4124
 3676SOL    HW214476   6.300   2.134   0.255  0.4155  3.1771 -1.7366
 3676SOL    HW314477   6.446   2.106   0.287 -0.1036  0.7358 -1.2560
 3676SOL    MW414478   6.371   2.146   0.305 -0.0604 -0.2435 -0.4955
 3677SOL     OW14479   3.224   1.395   4.257  0.7590 -0.1429  0.6574
 3677SOL    HW214480   3.222   1.305   4.224  1.2460 -0.0495  0.3550
 3677SOL    HW314481   3.139   1.407   4.299  0.3036 -0.4274 -0.1575
 3677SOL    MW414482   3.212   1.385   4.258  0.2158 -0.1867  0.0109
 3678SOL     OW14483   4.604   2.110   5.739  0.3576 -0.0742  0.2420
 3678SOL    HW214484   4.613   2.027   5.691 -0.9397 -0.5230  0.7403
 3678SOL    HW314485   4.550   2.165   5.683  1.8403  0.7577 -0.4416
 3678SOL    MW414486   4.598   2.106   5.725 -0.0247  1.0433 -0.6328
 3679SOL     OW14487   5.466   4.481   6.404  0.0034 -0.2518 -0.0046
 3679SOL    HW214488   5.491   4.396   6.440  0.4680  0.2065  0.7774
 3679SOL    HW314489   5.506   4.545   6.463  0.5328  0.5261 -1.1700
 3679SOL    MW414490   5.474   4.478   6.417 -0.4335  0.1271  0.2800
 3680SOL     OW14491   3.764   2.961   3.687  0.3329  0.3780 -0.4312
 3680SOL    HW214492   3.738   2.889   3.745  0.6152  0.0285 -0.7322
 3680SOL    HW314493   3.838   2.926   3.637  0.6523  0.9726 -0.3868
 3680SOL    MW414494   3.770   2.947   3.688  0.2728 -0.3729  0.4117
 3681SOL     OW14495   5.293   0.148   1.049  0.3122 -0.0096 -0.1678
 3681SOL    HW214496   5.342   0.220   1.089  0.3094  0.2729 -0.6632
 3681SOL    HW314497   5.232   0.191   0.989  0.4647 -0.4346 -0.6325
 3681SOL    MW414498   5.291   0.164   1.046 -0.3593 -0.4317 -0.1658
 3682SOL     OW14499   5.219   2.774   3.909 -0.0157 -0.1747  0.1538
 3682SOL    HW214500   5.163   2.697   3.923 -0.9376  0.2784 -0.8819
 3682SOL    HW314501   5.213   2.791   3.815  0.2064  1.1284  0.3597
 3682SOL    MW414502   5.211   2.766   3.899  0.1756 -0.6679  0.3948
 3683SOL     OW14503   1.605   2.032   3.525 -0.1877 -0.5822 -0.1243
 3683SOL    HW214504   1.597   1.993   3.438  1.3601 -3.4655  0.9094
 3683SOL    HW314505   1.550   1.978   3.581  0.5012 -0.0886  1.0691
 3683SOL    MW414506   1.596   2.020   3.521 -0.3076  0.1511 -0.0603
 3684SOL     OW14507   2.514   2.342   6.306 -0.4919 -0.0234 -0.7176
 3684SOL    HW214508   2.517   2.270   6.369  1.9827 -0.2377 -0.9902
 3684SOL    HW314509   2.604   2.376   6.303 -0.8636  0.9771 -2.9990
 3684SOL    MW414510   2.526   2.337   6.314  0.1598  0.1920 -0.4696
 3685SOL     OW14511   2.393   2.100   1.811 -0.0360  1.0452  0.3900
 3685SOL    HW214512   2.436   2.066   1.732 -1.0328  1.1994 -0.2352
 3685SOL    HW314513   2.450   2.072   1.882  0.4398  0.1518 -0.3126
 3685SOL    MW414514   2.407   2.092   1.810  0.1262 -0.0384 -0.1164
 3686SOL     OW14515   3.501   0.220   1.192  0.1264 -0.0341 -0.0896
 3686SOL    HW214516   3.428   0.220   1.253  0.9758 -0.8217  0.9522
 3686SOL    HW314517   3.459   0.220   1.105 -1.1127 -1.4015  0.4725
 3686SOL    MW414518   3.486   0.220   1.188 -0.6888  0.1016 -0.1639
 3687SOL     OW14519   3.461   2.780   3.615  0.5443  0.1461 -0.2329
 3687SOL    HW214520   3.428   2.852   3.669 -0.7533  0.4581 -1.3783
 3687SOL    HW314521   3.462   2.704   3.673 -3.3649 -0.1639 -0.3374
 3687SOL    MW414522   3.457   2.779   3.630 -0.1042  0.3177  0.0718
 3688SOL     OW14523   2.303   5.020   0.336  0.2323  0.0168 -0.3485
 3688SOL    HW214524   2.356   5.097   0.359  0.1740 -0.0634  0.0622
 3688SOL    HW314525   2.241   5.011   0.409 -0.4374  0.1902 -0.8877
 3688SOL    MW414526   2.302   5.029   0.349 -0.5123  0.3222 -0.6703
 3689SOL     OW14527   2.799   3.824   1.152  0.0643 -0.1464  0.0727
 3689SOL    HW214528   2.852   3.757   1.194  2.6579  1.9585  0.4802
 3689SOL    HW314529   2.827   3.823   1.061 -2.0481 -1.5102 -0.6097
 3689SOL    MW414530   2.810   3.815   1.146 -0.3449 -0.2121 -0.1466
 3690SOL     OW14531   5.626   5.438   2.962 -0.3142 -0.2634 -0.2066
 3690SOL    HW214532   5.720   5.424   2.969 -0.5723 -2.0686  0.3727
 3690SOL    HW314533   5.615   5.533   2.960  1.3961  0.0492  1.7471
 3690SOL    MW414534   5.637   5.449   2.963 -0.5420  0.2968  0.7981
 3691SOL     OW14535   3.050   0.028   1.666 -0.4654 -0.4408  0.1312
 3691SOL    HW214536   3.031   0.025   1.572 -0.6179 -1.0226  0.1760
 3691SOL    HW314537   3.131   0.078   1.673  0.0305 -1.1666 -0.3926
 3691SOL    MW414538   3.058   0.034   1.655 -0.3671  0.2424  0.4743
 3692SOL     OW14539   4.059   4.721   4.075  0.0311  0.2377  0.1480
 3692SOL    HW214540   4.060   4.777   3.997  0.1064  1.4855  1.0145
 3692SOL    HW314541   4.139   4.668   4.068  2.1340  3.0054  1.1836
 3692SOL    MW414542   4.070   4.721   4.064  0.4497 -0.5420  0.0942
 3693SOL     OW14543   3.385   2.267   1.745 -0.2113  0.5568 -0.5025
 3693SOL    HW214544   3.331   2.338   1.778 -0.2876  1.5978 -2.6890
 3693SOL    HW314545   3.373   2.270   1.650 -0.2556 -2.4382 -0.6782
 3693SOL    MW414546   3.376   2.277   1.736  0.0405  0.4711 -0.0216
 3694SOL     OW14547   3.953   4.480   1.519 -0.6558 -0.2927 -0.1996
 3694SOL    HW214548   3.940   4.392   1.553  1.4508 -0.9308 -0.9067
 3694SOL    HW314549   3.952   4.470   1.424  1.6106  0.0444 -0.3176
 3694SOL    MW414550   3.951   4.467   1.511 -0.2592  0.0866 -0.5167
 3695SOL     OW14551   1.258   5.710   1.643 -0.0119  0.4018  0.1657
 3695SOL    HW214552   1.282   5.797   1.611  1.1906 -0.0494 -0.2387
 3695SOL    HW314553   1.203   5.727   1.720 -0.1729  1.5096 -0.1757
 3695SOL    MW414554   1.254   5.724   1.649  0.7347 -0.1213 -0.2719
 3696SOL     OW14555   0.179   2.862   3.865 -0.8105 -0.1578  0.1547
 3696SOL    HW214556   0.089   2.894   3.873 -0.8135 -0.1198 -0.0219
 3696SOL    HW314557   0.233   2.935   3.896 -0.8586 -0.3420  0.6734
 3696SOL    MW414558   0.174   2.876   3.870  0.1186  0.5203 -0.1317
 3697SOL     OW14559   5.360   1.673   2.016 -0.6552  0.0054  0.0055
 3697SOL    HW214560   5.372   1.698   2.108 -0.2134  2.1420 -0.5782
 3697SOL    HW314561   5.278   1.716   1.990  0.4341  1.4344 -1.2089
 3697SOL    MW414562   5.351   1.682   2.025 -0.6166  0.0196  0.2687
 3698SOL     OW14563   2.885   0.104   4.512 -0.2037 -0.5527  0.6903
 3698SOL    HW214564   2.914   0.034   4.454 -1.9817 -0.3508 -0.5361
 3698SOL    HW314565   2.789   0.096   4.513 -0.3007  0.2990  2.5418
 3698SOL    MW414566   2.876   0.094   4.505  0.2972  0.6844 -1.0863
 3699SOL     OW14567   0.019   5.802   5.534 -0.1596 -0.0897 -0.2046
 3699SOL    HW214568   0.079   5.806   5.609 -0.8383 -0.8874  0.3938
 3699SOL    HW314569   0.020   5.891   5.499  1.5966 -0.1528 -0.3976
 3699SOL    MW414570   0.027   5.814   5.540 -0.2656 -0.0751 -0.1059
 3700SOL     OW14571   4.401   2.609   2.132 -0.2426 -0.5797  0.2550
 3700SOL    HW214572   4.469   2.647   2.188  1.2498 -1.4985 -0.8304
 3700SOL    HW314573   4.366   2.536   2.182 -0.4119 -0.1140  0.8193
 3700SOL    MW414574   4.406   2.605   2.146 -0.1924 -0.2252  0.4655
 3701SOL     OW14575   2.996   3.607   5.075  0.0936  0.3461 -0.8046
 3701SOL    HW214576   3.047   3.576   5.150 -1.5928 -0.2694  0.1243
 3701SOL    HW314577   3.040   3.569   4.999  2.5678  1.9546 -0.3137
 3701SOL    MW414578   3.009   3.598   5.075  0.6793 -0.2854  0.5219
 3702SOL     OW14579   2.046   5.910   2.753 -0.3294  0.4347  0.7396
 3702SOL    HW214580   2.140   5.895   2.749 -0.5327 -0.7982 -1.0211
 3702SOL    HW314581   2.010   5.830   2.792 -0.9932 -1.9064 -3.8737
 3702SOL    MW414582   2.053   5.897   2.757 -0.2429 -0.2825 -0.1063
 3703SOL     OW14583   0.513   2.877   0.311 -0.1950 -0.0171  0.2227
 3703SOL    HW214584   0.573   2.890   0.238 -0.9586  0.1254 -0.3926
 3703SOL    HW314585   0.426   2.876   0.271 -0.5488 -1.3039  0.9611
 3703SOL    MW414586   0.510   2.879   0.296 -0.3168  0.0949  0.1210
 3704SOL     OW14587   0.683   6.274   4.538 -0.6485 -0.0026 -0.9833
 3704SOL    HW214588   0.714   6.363   4.524 -0.7582  0.6831  2.2341
 3704SOL    HW314589   0.707   6.227   4.459  2.6183  2.0345 -1.3720
 3704SOL    MW414590   0.690   6.280   4.526  0.2750  0.4112  0.7420
 3705SOL     OW14591   4.441   2.974   0.563  0.0175 -0.1008 -0.0508
 3705SOL    HW214592   4.354   2.994   0.596 -1.1657 -0.5307 -2.7354
 3705SOL    HW314593   4.431   2.893   0.514  1.6499  0.4870 -1.4785
 3705SOL    MW414594   4.428   2.966   0.561  0.4171 -0.0056 -0.1746
 3706SOL     OW14595   3.408   5.919   3.977  0.0448 -0.4226  0.1644
 3706SOL    HW214596   3.440   6.000   4.015  1.3112 -0.3814 -0.8913
 3706SOL    HW314597   3.466   5.851   4.013 -0.1932 -0.6831  0.0607
 3706SOL    MW414598   3.420   5.921   3.987  0.0461  0.3198 -0.4021
 3707SOL     OW14599   3.161   5.638   2.127 -0.0690 -0.1754 -0.0634
 3707SOL    HW214600   3.124   5.653   2.214 -0.7240 -1.0201 -0.1807
 3707SOL    HW314601   3.252   5.666   2.134  0.5893 -2.4464  1.5836
 3707SOL    MW414602   3.168   5.644   2.139  0.2751 -0.1289 -0.2860
 3708SOL     OW14603   2.151   3.727   5.681 -0.2167 -0.3654  0.4749
 3708SOL    HW214604   2.119   3.796   5.622 -0.4241 -0.2601  0.7103
 3708SOL    HW314605   2.243   3.748   5.694 -0.1920 -0.3346  0.2621
 3708SOL    MW414606   2.159   3.739   5.675  0.2113 -0.1516 -0.0022
 3709SOL     OW14607   4.631   6.198   5.908  0.6475 -0.6702  0.4743
 3709SOL    HW214608   4.537   6.210   5.891  0.7446 -2.0574 -1.3963
 3709SOL    HW314609   4.674   6.237   5.833  1.7045  1.1570  1.9501
 3709SOL    MW414610   4.624   6.205   5.896 -0.1346 -0.2753 -0.5498
 3710SOL     OW14611   5.262   0.476   3.314  0.5621 -0.1392 -0.0064
 3710SOL    HW214612   5.207   0.430   3.377  0.8615  0.2526  0.5495
 3710SOL    HW314613   5.274   0.563   3.352  0.5250  0.1959 -0.7345
 3710SOL    MW414614   5.256   0.482   3.327  0.4020  0.3882 -0.4641
 3711SOL     OW14615   4.417   1.200   6.276 -0.3364  0.7247  0.0028
 3711SOL    HW214616   4.398   1.285   6.237  0.6677  1.3787  0.8841
 3711SOL    HW314617   4.363   1.196   6.354  0.8738  1.3352  0.9133
 3711SOL    MW414618   4.408   1.211   6.281 -0.1535  0.1523 -0.3229
 3712SOL     OW14619   1.906   4.527   3.246 -0.0587 -0.5066  0.6408
 3712SOL    HW214620   1.988   4.547   3.200 -0.4835  0.0206  0.0969
 3712SOL    HW314621   1.928   4.533   3.339  0.3801  0.1880  0.4962
 3712SOL    MW414622   1.920   4.530   3.252  0.0314  0.3903  0.0797
 3713SOL     OW14623   4.399   0.335   0.167 -0.4344  0.2105  0.0569
 3713SOL    HW214624   4.314   0.307   0.133  0.0004  0.4699 -1.2911
 3713SOL    HW314625   4.405   0.427   0.144  0.0334  0.3045  0.5356
 3713SOL    MW414626   4.389   0.343   0.160 -0.0752  0.0794 -0.0397
 3714SOL     OW14627   0.874   3.229   0.952  0.4031 -0.4726  0.3411
 3714SOL    HW214628   0.889   3.320   0.979  0.3540 -0.6276  0.8983
 3714SOL    HW314629   0.801   3.200   1.005 -1.3405 -0.0287 -1.6818
 3714SOL    MW414630   0.867   3.238   0.962 -0.1505 -0.2271  0.6155
 3715SOL     OW14631   3.618   5.602   6.198  0.4326 -0.5159  0.6258
 3715SOL    HW214632   3.653   5.594   6.110  0.6070  0.3698  0.5964
 3715SOL    HW314633   3.536   5.650   6.187  0.2104 -0.8297  0.8975
 3715SOL    MW414634   3.612   5.608   6.185 -0.2094  0.7623 -0.2980
 3716SOL     OW14635   0.222   4.235   3.222  0.5248  0.1251  0.3535
 3716SOL    HW214636   0.213   4.160   3.280  2.0493  0.2567  0.8022
 3716SOL    HW314637   0.182   4.307   3.270 -2.0774 -0.5576 -0.5849
 3716SOL    MW414638   0.215   4.235   3.236 -0.0172 -0.7585  0.3325
 3717SOL     OW14639   5.465   6.357   4.881  0.4525 -0.6852 -0.4405
 3717SOL    HW214640   5.551   6.394   4.901 -0.3049  0.9796 -0.1087
 3717SOL    HW314641   5.454   6.287   4.945 -0.0386  1.6358  2.2382
 3717SOL    MW414642   5.475   6.353   4.892  0.5077  0.9090 -0.0179
 3718SOL     OW14643   3.690   3.967   4.929  0.0973 -0.3709 -0.4790
 3718SOL    HW214644   3.737   3.900   4.879  2.9382  0.3483  0.9922
 3718SOL    HW314645   3.649   3.918   5.001  0.8809 -0.7251 -0.2629
 3718SOL    MW414646   3.691   3.951   4.932 -0.2696  0.0188 -0.1238
 3719SOL     OW14647   2.559   0.782   4.234 -0.6458 -0.3208 -0.1796
 3719SOL    HW214648   2.518   0.850   4.287 -0.5313 -1.0497  0.8858
 3719SOL    HW314649   2.628   0.746   4.290 -0.2625 -0.8633 -0.9688
 3719SOL    MW414650   2.563   0.786   4.248  0.0628 -0.2861  0.8532
 3720SOL     OW14651   2.948   5.501   5.699 -0.5270  0.1866 -0.0323
 3720SOL    HW214652   2.880   5.540   5.756  1.1429  0.7894  1.6616
 3720SOL    HW314653   3.007   5.574   5.680 -0.3709 -0.3122 -1.5660
 3720SOL    MW414654   2.947   5.516   5.704  0.2037 -0.1419  0.6947
 3721SOL     OW14655   2.501   3.439   3.292 -0.1365  0.4471  0.2450
 3721SOL    HW214656   2.588   3.443   3.252  0.1984 -1.2098  0.7485
 3721SOL    HW314657   2.516   3.455   3.385 -0.3822  0.2066  0.3265
 3721SOL    MW414658   2.515   3.442   3.299 -0.6310  0.0791 -0.4061
 3722SOL     OW14659   4.829   5.323   1.398  0.2114  0.1815  0.8674
 3722SOL    HW214660   4.770   5.247   1.397 -0.6977  0.8548  1.1954
 3722SOL    HW314661   4.893   5.302   1.466 -0.8196  0.2627  1.9080
 3722SOL    MW414662   4.829   5.310   1.407  0.6068  0.3354 -0.6494
 3723SOL     OW14663   4.955   2.934   4.164  0.3829 -0.1206  0.7250
 3723SOL    HW214664   5.038   2.971   4.133  1.4961 -0.3874  3.1402
 3723SOL    HW314665   4.928   2.991   4.236 -1.9075  0.3075 -0.3830
 3723SOL    MW414666   4.962   2.946   4.169 -0.2260 -0.3511 -0.0833
 3724SOL     OW14667   2.105   1.774   2.710 -0.0125 -0.3601 -0.6125
 3724SOL    HW214668   2.015   1.759   2.737 -0.7275  1.6341 -1.6655
 3724SOL    HW314669   2.121   1.709   2.641 -0.3969 -1.1732  0.0572
 3724SOL    MW414670   2.095   1.763   2.704  0.6355 -0.4793  0.4337
 3725SOL     OW14671   1.210   3.820   3.356 -0.1479 -0.2825 -0.7538
 3725SOL    HW214672   1.231   3.847   3.266 -0.2055 -0.1583 -0.7309
 3725SOL    HW314673   1.117   3.797   3.352 -0.8860  2.2747 -0.1541
 3725SOL    MW414674   1.200   3.821   3.343 -0.2039  0.4835 -0.0411
 3726SOL     OW14675   2.964   6.299   3.407 -0.6062  0.3993  0.1692
 3726SOL    HW214676   2.982   6.268   3.318 -1.7707 -0.1599  0.1019
 3726SOL    HW314677   2.990   6.226   3.463  0.5479  0.9212  0.3395
 3726SOL    MW414678   2.970   6.285   3.403  0.4770  0.0971  0.2511
 3727SOL     OW14679   5.334   5.283   4.173  0.3192  0.3778  0.4514
 3727SOL    HW214680   5.276   5.265   4.100 -0.0876 -0.1357  0.8973
 3727SOL    HW314681   5.276   5.297   4.248  0.7846 -1.4913  1.2053
 3727SOL    MW414682   5.319   5.283   4.173 -0.1691  0.4579 -0.6392
 3728SOL     OW14683   0.739   1.189   0.539 -0.1151 -0.4713 -0.7389
 3728SOL    HW214684   0.766   1.199   0.448  0.2021  1.1614 -0.5002
 3728SOL    HW314685   0.772   1.103   0.565  2.0002  0.0665 -1.4381
 3728SOL    MW414686   0.747   1.179   0.530 -0.2013  0.0200  0.1597
 3729SOL     OW14687   3.506   1.223   3.674  0.2916  0.1134 -0.0877
 3729SOL    HW214688   3.474   1.138   3.644 -0.6668  0.7171 -0.8386
 3729SOL    HW314689   3.599   1.209   3.692  0.0897 -1.1484  0.0502
 3729SOL    MW414690   3.514   1.210   3.672 -0.6801 -0.3539  0.2122
 3730SOL     OW14691   6.301   2.108   5.248  0.0875  0.3106  0.1061
 3730SOL    HW214692   6.291   2.110   5.344 -2.0507  0.4742 -0.0811
 3730SOL    HW314693   6.260   2.026   5.221  0.0070  0.6185 -0.7368
 3730SOL    MW414694   6.294   2.097   5.257 -0.2607  0.7418  0.1176
 3731SOL     OW14695   5.726   3.915   6.410  0.0123 -0.0906  0.0015
 3731SOL    HW214696   5.816   3.904   6.380  0.5462 -0.8692  1.7409
 3731SOL    HW314697   5.731   3.985   6.476 -0.7531  0.2226 -0.2567
 3731SOL    MW414698   5.738   3.923   6.415  0.2390 -0.4619  0.3464
 3732SOL     OW14699   3.636   3.091   2.589  0.0426  0.4398 -0.2530
 3732SOL    HW214700   3.692   3.056   2.520 -0.5184 -1.6682  0.2712
 3732SOL    HW314701   3.559   3.034   2.588 -0.3128  0.8233  1.6147
 3732SOL    MW414702   3.633   3.079   2.580  0.2234 -0.0939 -0.1192
 3733SOL     OW14703   1.529   4.624   2.276 -0.0595  0.3901  0.3045
 3733SOL    HW214704   1.620   4.614   2.304  0.4822  1.4626 -0.9298
 3733SOL    HW314705   1.528   4.707   2.228 -1.3814 -0.2785 -0.8960
 3733SOL    MW414706   1.541   4.633   2.273  0.3736 -0.2112 -0.3455
 3734SOL     OW14707   2.389   3.435   1.385  0.1191  0.3474 -0.2986
 3734SOL    HW214708   2.379   3.424   1.479 -0.1470  1.3594 -0.2021
 3734SOL    HW314709   2.482   3.419   1.368  0.5778  2.0567  0.4185
 3734SOL    MW414710   2.400   3.431   1.395 -0.1621  0.0031  0.3497
 3735SOL     OW14711   0.262   2.921   3.488  0.4795  0.1870 -0.6685
 3735SOL    HW214712   0.318   2.883   3.557 -1.5580 -1.3766  0.2216
 3735SOL    HW314713   0.275   2.864   3.413 -1.0004 -1.1558  0.0263
 3735SOL    MW414714   0.271   2.909   3.487 -0.6805 -0.4697  0.7333
 3736SOL     OW14715   0.772   4.071   2.415  0.0662  0.2596  0.0483
 3736SOL    HW214716   0.747   3.986   2.380 -1.9493  1.7219 -2.4618
 3736SOL    HW314717   0.833   4.107   2.351  1.2763  0.5657  1.3191
 3736SOL    MW414718   0.777   4.065   2.402 -0.1160 -0.3998  0.2699
 3737SOL     OW14719   3.721   0.256   2.095 -0.2525  0.0554 -0.0984
 3737SOL    HW214720   3.815   0.270   2.100 -0.0888 -0.3435 -1.4513
 3737SOL    HW314721   3.683   0.343   2.086  0.0457  0.1811 -0.1325
 3737SOL    MW414722   3.728   0.269   2.094  0.2092  0.2566 -0.0841
 3738SOL     OW14723   3.748   4.915   0.909  0.5980  0.6252  0.3390
 3738SOL    HW214724   3.679   4.906   0.974 -0.5781 -1.3865 -1.0687
 3738SOL    HW314725   3.812   4.847   0.933 -0.7669 -1.4751 -1.5563
 3738SOL    MW414726   3.748   4.905   0.921  0.0397  0.2872 -0.3195
 3739SOL     OW14727   5.990   3.590   3.648 -0.5298  0.1924  0.8412
 3739SOL    HW214728   5.986   3.546   3.563 -1.7566  1.4339  0.2294
 3739SOL    HW314729   5.917   3.554   3.697 -3.2526  3.2347 -0.5904
 3739SOL    MW414730   5.980   3.579   3.643  0.2740 -0.2443  0.0154
 3740SOL     OW14731   4.424   1.513   4.346  0.4508  0.2806  0.3341
 3740SOL    HW214732   4.338   1.556   4.339 -1.1177 -2.7868 -0.9718
 3740SOL    HW314733   4.404   1.423   4.371  3.1135 -1.0509 -1.8566
 3740SOL    MW414734   4.410   1.507   4.348 -0.1817 -0.2566  0.2668
 3741SOL     OW14735   4.340   3.333   3.291 -0.0496 -0.3020  0.3515
 3741SOL    HW214736   4.421   3.324   3.241 -0.1873  0.2615  0.0257
 3741SOL    HW314737   4.365   3.306   3.380  0.2029 -1.2641  0.0056
 3741SOL    MW414738   4.354   3.328   3.296 -0.5712 -0.0423 -0.0004
 3742SOL     OW14739   5.791   5.399   1.855 -0.2960  0.8479  0.4426
 3742SOL    HW214740   5.848   5.463   1.811  0.7604 -0.8134 -0.7519
 3742SOL    HW314741   5.848   5.357   1.919 -0.5065  0.0400  0.1123
 3742SOL    MW414742   5.806   5.402   1.857  0.9990  0.0492 -0.3120
 3743SOL     OW14743   5.723   0.294   4.698 -0.2809  0.7890  0.2141
 3743SOL    HW214744   5.704   0.284   4.605 -1.1271  0.4526  0.4086
 3743SOL    HW314745   5.643   0.332   4.735  0.0524  0.9453  0.7989
 3743SOL    MW414746   5.710   0.298   4.691  0.2512  0.5700 -0.6634
 3744SOL     OW14747   3.245   3.364   4.659  0.2577  0.3680 -0.2078
 3744SOL    HW214748   3.188   3.309   4.606 -0.7486  0.4855  0.7154
 3744SOL    HW314749   3.326   3.314   4.668  0.3574  0.2336 -1.6124
 3744SOL    MW414750   3.248   3.350   4.653 -0.5010 -0.1217 -0.2730
 3745SOL     OW14751   3.338   1.393   0.454 -0.3073  0.1886  0.2986
 3745SOL    HW214752   3.372   1.481   0.468 -1.2194  1.2105 -2.9472
 3745SOL    HW314753   3.363   1.345   0.533  1.4140  2.9585  1.6170
 3745SOL    MW414754   3.346   1.398   0.466 -0.1397 -0.1051  0.0102
 3746SOL     OW14755   4.023   3.525   2.324  0.2211  0.0124  0.4965
 3746SOL    HW214756   4.073   3.455   2.367  0.9850  1.0843  1.4265
 3746SOL    HW314757   3.934   3.490   2.318  0.5605 -1.0005  1.0317
 3746SOL    MW414758   4.018   3.511   2.329 -0.5251  0.5305 -0.2179
 3747SOL     OW14759   4.783   6.415   4.769 -0.1570 -0.0079 -0.3103
 3747SOL    HW214760   4.721   6.487   4.763  0.9282  0.9484 -0.5113
 3747SOL    HW314761   4.786   6.394   4.863 -2.1923 -1.3918 -0.5051
 3747SOL    MW414762   4.775   6.422   4.781  0.1561  0.3388  0.1107
 3748SOL     OW14763   3.354   6.223   0.510 -0.1153 -0.0278  0.0437
 3748SOL    HW214764   3.408   6.160   0.461  1.3185 -0.1245  1.6486
 3748SOL    HW314765   3.332   6.178   0.591 -0.2915  1.0264  0.6015
 3748SOL    MW414766   3.359   6.209   0.514  0.3718 -0.0507 -0.7529
 3749SOL     OW14767   1.615   1.812   2.748 -0.1767 -0.2829  0.6723
 3749SOL    HW214768   1.581   1.723   2.736  1.2981 -0.6664 -1.2283
 3749SOL    HW314769   1.705   1.800   2.776  1.0450  0.4259 -2.4588
 3749SOL    MW414770   1.622   1.799   2.750 -0.7925  0.8342  0.1043
 3750SOL     OW14771   1.841   3.486   5.431  0.3105  0.5586  0.4211
 3750SOL    HW214772   1.753   3.505   5.398  0.9145  2.0414 -0.4256
 3750SOL    HW314773   1.867   3.407   5.385  0.1430  1.1787 -0.7716
 3750SOL    MW414774   1.833   3.478   5.421 -0.3716 -0.1625  0.1178
 3751SOL     OW14775   4.401   4.155   0.234 -0.6271  0.0115  0.6002
 3751SOL    HW214776   4.358   4.070   0.244  0.5619 -0.6391  0.3529
 3751SOL    HW314777   4.396   4.173   0.140 -0.0122 -0.2584  0.5138
 3751SOL    MW414778   4.394   4.146   0.223 -0.4048  0.2414 -0.4859
 3752SOL     OW14779   5.535   1.650   5.367 -0.4703 -0.4745 -0.0284
 3752SOL    HW214780   5.503   1.609   5.286  0.8300 -0.8369 -0.3867
 3752SOL    HW314781   5.508   1.589   5.436 -1.6155 -0.1476 -0.1781
 3752SOL    MW414782   5.527   1.636   5.365 -0.2142  0.2369 -0.3772
 3753SOL     OW14783   4.296   3.289   4.109  0.4797 -0.2182 -0.3439
 3753SOL    HW214784   4.237   3.349   4.063  0.3749 -0.4028 -0.4551
 3753SOL    HW314785   4.371   3.342   4.133  0.0978  0.1156  0.1387
 3753SOL    MW414786   4.298   3.304   4.106  0.0989  0.0808  0.4981
 3754SOL     OW14787   0.843   2.683   4.796 -0.4579 -0.1204 -0.0725
 3754SOL    HW214788   0.867   2.672   4.889 -0.3406 -1.3654 -0.2310
 3754SOL    HW314789   0.856   2.596   4.758 -0.0754  0.4817 -1.3655
 3754SOL    MW414790   0.848   2.670   4.804  0.0225 -0.3239  0.1537
 3755SOL     OW14791   2.867   0.983   4.141 -0.2457 -0.1409  0.5428
 3755SOL    HW214792   2.931   0.911   4.145  1.6202  1.4378  0.5502
 3755SOL    HW314793   2.799   0.951   4.083  0.8576 -1.6765  0.0306
 3755SOL    MW414794   2.867   0.969   4.134  0.0968  0.0402 -0.1068
 3756SOL     OW14795   0.071   5.970   1.420 -0.0203 -0.0837 -0.1277
 3756SOL    HW214796  -0.004   5.910   1.416  0.0219 -0.1288 -0.2384
 3756SOL    HW314797   0.147   5.915   1.401 -0.0140  0.0648 -0.5340
 3756SOL    MW414798   0.071   5.955   1.417 -0.1487  0.3287  0.6618
 3757SOL     OW14799   5.649   6.304   4.132  0.4352 -0.3417 -0.1171
 3757SOL    HW214800   5.567   6.309   4.182  0.5300 -1.1077  0.1366
 3757SOL    HW314801   5.631   6.353   4.052 -0.3888 -0.7745 -0.2119
 3757SOL    MW414802   5.636   6.311   4.128  0.2869  0.0861  0.4213
 3758SOL     OW14803   5.151   1.907   3.931  0.0127 -0.1761 -0.1755
 3758SOL    HW214804   5.193   1.945   4.008  2.8032 -1.4845 -0.9081
 3758SOL    HW314805   5.070   1.868   3.965  0.2735  0.8253  1.7363
 3758SOL    MW414806   5.145   1.907   3.946 -0.3482 -0.2706 -0.7103
 3759SOL     OW14807   2.553   2.125   1.083 -0.0143 -0.1729  0.2377
 3759SOL    HW214808   2.551   2.129   0.988 -0.4636  0.7461  0.2821
 3759SOL    HW314809   2.462   2.136   1.110 -0.0601 -1.5981  0.7457
 3759SOL    MW414810   2.541   2.127   1.074  0.1151 -0.2623  0.0388
 3760SOL     OW14811   1.706   4.524   5.606 -0.3636  0.2423 -0.0593
 3760SOL    HW214812   1.744   4.444   5.568 -0.6772  0.2360 -0.3603
 3760SOL    HW314813   1.628   4.541   5.554 -1.6818 -0.6380  1.5548
 3760SOL    MW414814   1.701   4.516   5.594 -0.4552 -0.0503 -0.1489
 3761SOL     OW14815   4.160   5.006   4.631  0.0944 -0.2360  0.1055
 3761SOL    HW214816   4.164   5.035   4.540  0.1100 -1.0968 -0.1776
 3761SOL    HW314817   4.165   5.087   4.682  1.9979  0.1608 -0.6095
 3761SOL    MW414818   4.161   5.021   4.625 -0.0457 -0.1004 -0.9233
 3762SOL     OW14819   3.978   2.863   3.348  0.3522  0.0821 -0.2239
 3762SOL    HW214820   3.915   2.923   3.307  1.5523  0.0242 -2.3082
 3762SOL    HW314821   3.975   2.784   3.294  1.7189 -0.1637  0.0087
 3762SOL    MW414822   3.969   2.861   3.335  0.0004 -0.1134  0.3256
 3763SOL     OW14823   3.775   6.090   1.173  0.2385  0.4374 -0.1510
 3763SOL    HW214824   3.840   6.024   1.151  0.1469 -0.2217  1.4418
 3763SOL    HW314825   3.794   6.163   1.114  1.1390 -0.5061 -1.0682
 3763SOL    MW414826   3.786   6.091   1.163  0.0431  0.4369 -0.0841
 3764SOL     OW14827   5.198   5.040   3.209  0.0854  0.1426  0.6015
 3764SOL    HW214828   5.253   5.024   3.131  0.4359  1.9474  0.4179
 3764SOL    HW314829   5.175   5.133   3.202 -0.4885  0.1500  2.2843
 3764SOL    MW414830   5.202   5.050   3.198  0.0200 -0.1306 -0.1960
 3765SOL     OW14831   2.442   4.305   1.083  0.6065  0.0479  0.7532
 3765SOL    HW214832   2.512   4.275   1.026 -0.1305 -0.3746  0.0438
 3765SOL    HW314833   2.450   4.251   1.162 -1.5056 -3.1806 -1.0014
 3765SOL    MW414834   2.452   4.294   1.086  0.0880  0.2288 -0.4534
 3766SOL     OW14835   2.105   3.628   1.507  0.1893 -0.7066  0.0234
 3766SOL    HW214836   2.146   3.636   1.593  1.0013  0.3485 -0.4474
 3766SOL    HW314837   2.013   3.652   1.521  0.4592  0.0666  0.4793
 3766SOL    MW414838   2.098   3.632   1.520 -0.2258 -0.5101  0.0049
 3767SOL     OW14839   6.359   3.056   0.043 -0.1866 -0.0090  0.0434
 3767SOL    HW214840   6.288   3.121   0.041  2.1385  2.6716 -1.2701
 3767SOL    HW314841   6.439   3.107   0.037  1.8788 -2.9984  0.0239
 3767SOL    MW414842   6.360   3.071   0.042 -0.3719 -0.1955  0.0608
 3768SOL     OW14843   1.435   1.228   5.718  0.2186  0.4487  0.1585
 3768SOL    HW214844   1.397   1.267   5.639  1.0924  2.8670  0.8452
 3768SOL    HW314845   1.370   1.246   5.787  0.8987  1.3419  0.6006
 3768SOL    MW414846   1.421   1.236   5.717  0.1882 -0.3884  0.0691
 3769SOL     OW14847   5.541   1.377   3.527  0.0249  0.1652  0.1810
 3769SOL    HW214848   5.459   1.342   3.561  0.9214 -0.4176  1.9005
 3769SOL    HW314849   5.574   1.308   3.469 -0.5813  0.3145 -0.3549
 3769SOL    MW414850   5.535   1.363   3.524  0.6373 -0.0885  0.3018
 3770SOL     OW14851   2.388   4.760   4.735 -0.2018 -0.4772  0.1441
 3770SOL    HW214852   2.471   4.719   4.757  0.0195 -0.3372 -0.4186
 3770SOL    HW314853   2.345   4.698   4.676 -0.1300 -0.1849 -0.2242
 3770SOL    MW414854   2.393   4.746   4.730 -0.5228 -0.1340  0.3977
 3771SOL     OW14855   4.877   1.742   1.292 -0.1126 -0.7652  0.3544
 3771SOL    HW214856   4.861   1.828   1.329  1.7871 -0.0323 -0.3988
 3771SOL    HW314857   4.908   1.759   1.203 -2.2437 -2.3613 -0.7926
 3771SOL    MW414858   4.879   1.755   1.285  0.1485 -0.8674 -0.9875
 3772SOL     OW14859   1.646   2.659   4.749 -0.1978  0.0820 -0.3693
 3772SOL    HW214860   1.724   2.689   4.702 -0.0552 -0.0483 -0.2222
 3772SOL    HW314861   1.602   2.739   4.776  1.5756  0.2980  2.3321
 3772SOL    MW414862   1.651   2.673   4.747 -0.4532 -0.5236  0.0104
 3773SOL     OW14863   3.985   6.396   3.091 -0.4871  0.1621  0.1934
 3773SOL    HW214864   3.896   6.394   3.056 -0.1428 -1.5148 -0.6652
 3773SOL    HW314865   4.041   6.404   3.015  0.1877 -1.4687  0.4736
 3773SOL    MW414866   3.980   6.397   3.077 -0.0012  0.4831 -0.0481
 3774SOL     OW14867   1.472   5.186   0.116 -0.1716 -0.2511 -0.1277
 3774SOL    HW214868   1.418   5.211   0.190 -0.1612 -0.0719 -0.1803
 3774SOL    HW314869   1.560   5.218   0.138 -0.4207  0.9679 -0.7895
 3774SOL    MW414870   1.477   5.194   0.129 -0.3492 -0.1183  0.4163
 3775SOL     OW14871   3.050   3.821   4.147 -0.0185 -0.5915  0.2061
 3775SOL    HW214872   3.124   3.787   4.197  1.4074 -0.1934 -1.5035
 3775SOL    HW314873   3.025   3.901   4.192  0.8086 -0.5759  0.6635
 3775SOL    MW414874   3.057   3.827   4.159  0.4580  0.2398 -0.1280
 3776SOL     OW14875   4.749   2.925   6.431 -0.0328 -0.4668 -0.2817
 3776SOL    HW214876   4.657   2.921   6.406  0.1433  1.5808 -1.4867
 3776SOL    HW314877   4.757   3.010   6.476  1.0910 -1.0531  0.6895
 3776SOL    MW414878   4.738   2.936   6.434 -0.0840 -0.1092  0.0392
 3777SOL     OW14879   3.943   4.239   1.704 -0.2178  0.1734  0.3048
 3777SOL    HW214880   3.943   4.252   1.799 -0.5539  0.5945  0.2514
 3777SOL    HW314881   4.027   4.197   1.685 -0.6420 -1.0185  0.9370
 3777SOL    MW414882   3.954   4.235   1.714 -0.2767  0.1116  0.0368
 3778SOL     OW14883   3.439   1.356   4.463  0.4609  0.3663 -0.3613
 3778SOL    HW214884   3.364   1.359   4.403 -0.9147  0.8057  1.2989
 3778SOL    HW314885   3.404   1.313   4.542  1.6300  1.6547  0.9002
 3778SOL    MW414886   3.424   1.350   4.466  0.2231 -0.1592 -0.6465
 3779SOL     OW14887   3.341   0.269   4.452 -0.2309  0.6160  0.5358
 3779SOL    HW214888   3.380   0.287   4.538  2.0205  0.7461 -0.4434
 3779SOL    HW314889   3.315   0.177   4.456 -1.2746  0.9303  1.7276
 3779SOL    MW414890   3.343   0.260   4.464 -0.5263 -0.7513  0.6151
 3780SOL     OW14891   4.907   2.282   1.454  0.0875 -0.0294 -0.1246
 3780SOL    HW214892   4.997   2.313   1.452 -0.8464  2.9762  0.4225
 3780SOL    HW314893   4.900   2.236   1.538  0.9380  0.1889  0.0755
 3780SOL    MW414894   4.918   2.280   1.465 -0.6609  0.5983 -0.1367
 3781SOL     OW14895   5.336   4.578   1.853 -0.5208 -0.4334 -0.2155
 3781SOL    HW214896   5.251   4.564   1.894 -0.9080 -0.2218 -0.9228
 3781SOL    HW314897   5.399   4.574   1.925 -1.1665 -0.2124  0.3702
 3781SOL    MW414898   5.334   4.576   1.868  0.5573 -0.3458 -0.1945
 3782SOL     OW14899   0.168   0.864   5.612 -0.2276  0.1639  0.0049
 3782SOL    HW214900   0.106   0.799   5.579 -0.9500  1.4583 -1.2646
 3782SOL    HW314901   0.127   0.899   5.691 -1.0093  0.8313 -0.6870
 3782SOL    MW414902   0.155   0.860   5.618 -0.2898 -0.3525 -0.0395
 3783SOL     OW14903   3.562   4.898   6.099  0.5717 -0.0639 -0.2165
 3783SOL    HW214904   3.530   4.988   6.105 -0.1035 -0.3733  1.6233
 3783SOL    HW314905   3.614   4.896   6.019  1.4352  2.2317  0.2074
 3783SOL    MW414906   3.565   4.910   6.090 -0.0018  0.6599  0.2770
 3784SOL     OW14907   0.580   1.464   5.484  0.3274  0.2389 -0.0057
 3784SOL    HW214908   0.525   1.386   5.489 -0.1072  0.5972  1.1006
 3784SOL    HW314909   0.569   1.495   5.394  0.9677 -1.2803 -0.6576
 3784SOL    MW414910   0.571   1.458   5.473  0.2355 -0.5949 -0.1837
 3785SOL     OW14911   3.402   2.972   5.304  0.3940 -0.2065 -0.0924
 3785SOL    HW214912   3.426   2.913   5.376  0.3056 -0.1095  0.0165
 3785SOL    HW314913   3.485   2.994   5.263  0.3783 -0.8756 -0.5013
 3785SOL    MW414914   3.416   2.967   5.308 -0.4221 -0.3418  0.1952
 3786SOL     OW14915   5.509   4.007   5.467  0.0164  0.1738 -0.1876
 3786SOL    HW214916   5.598   3.992   5.435 -0.1644 -0.4817 -0.4013
 3786SOL    HW314917   5.491   3.931   5.523 -0.4218  0.2825 -0.1779
 3786SOL    MW414918   5.519   3.995   5.470 -0.2305 -0.0193 -0.2905
 3787SOL     OW14919   5.252   4.606   0.576 -0.5117  0.2547  0.1687
 3787SOL    HW214920   5.245   4.701   0.585 -0.5503  0.0885  2.5909
 3787SOL    HW314921   5.225   4.572   0.661 -1.1420 -1.9839 -0.8364
 3787SOL    MW414922   5.247   4.614   0.588  0.1280 -0.2978  0.1943
 3788SOL     OW14923   3.907   3.715   3.583  0.8978 -0.5375 -0.0714
 3788SOL    HW214924   3.861   3.676   3.657  0.9969 -0.0675  0.2482
 3788SOL    HW314925   3.944   3.797   3.618  0.0645  0.2167 -0.9014
 3788SOL    MW414926   3.906   3.721   3.597 -0.7417 -0.4177  0.6311
 3789SOL     OW14927   0.901   1.015   3.182  0.9955 -1.0353  0.1768
 3789SOL    HW214928   0.825   1.072   3.190  1.3644 -0.3914 -0.7186
 3789SOL    HW314929   0.923   0.991   3.273  1.7943  1.5650  0.7635
 3789SOL    MW414930   0.894   1.019   3.195 -0.2945  0.4742 -0.1506
 3790SOL     OW14931   5.767   6.318   6.087  0.2412 -0.1973 -0.2283
 3790SOL    HW214932   5.677   6.351   6.087  0.3123  0.0240 -0.8691
 3790SOL    HW314933   5.821   6.398   6.087  0.4256 -0.3199 -0.7073
 3790SOL    MW414934   5.762   6.333   6.087 -0.5815 -0.3027  0.1797
 3791SOL     OW14935   4.664   5.677   2.566 -0.7444 -0.0304  0.3434
 3791SOL    HW214936   4.750   5.670   2.607 -1.0375  0.2716  1.0236
 3791SOL    HW314937   4.646   5.771   2.563 -0.1984  0.0414 -1.6247
 3791SOL    MW414938   4.673   5.689   2.571  0.2445  0.2037 -0.9321
 3792SOL     OW14939   4.902   0.915   5.869  0.8592 -0.2502  0.1189
 3792SOL    HW214940   4.936   1.001   5.845  0.2525  0.8430  2.7843
 3792SOL    HW314941   4.980   0.859   5.875  1.2089 -0.1026 -2.1599
 3792SOL    MW414942   4.917   0.919   5.867 -0.2532  0.2490  0.3631
 3793SOL     OW14943   6.171   4.737   3.671 -0.5925 -0.2025  0.0360
 3793SOL    HW214944   6.209   4.785   3.745 -0.4780 -0.5199  0.1855
 3793SOL    HW314945   6.246   4.704   3.623 -0.6752 -0.4814  0.0997
 3793SOL    MW414946   6.186   4.739   3.675  0.0969 -0.1619  0.0702
 3794SOL     OW14947   3.106   1.914   3.110 -0.3519  0.3727  0.2545
 3794SOL    HW214948   3.054   1.992   3.129 -0.8703 -0.2297  1.4288
 3794SOL    HW314949   3.183   1.922   3.168  0.5366  0.9076 -0.9582
 3794SOL    MW414950   3.110   1.925   3.120 -0.0519  0.3974  0.2524
 3795SOL     OW14951   4.164   2.404   4.986 -0.1256  0.3906  0.0518
 3795SOL    HW214952   4.070   2.395   5.000 -0.0489  0.6020  0.7381
 3795SOL    HW314953   4.204   2.360   5.061  0.2949  2.0719  0.8704
 3795SOL    MW414954   4.157   2.397   4.997  0.3504  0.5393  0.2659
 3796SOL     OW14955   5.431   1.196   1.241 -0.3006  0.4164 -0.2561
 3796SOL    HW214956   5.392   1.230   1.160 -1.2019 -4.4014 -2.1480
 3796SOL    HW314957   5.356   1.164   1.292  0.5727 -0.8130  0.2852
 3796SOL    MW414958   5.416   1.197   1.237  0.2408 -0.2246 -0.3716
 3797SOL     OW14959   5.422   0.729   1.541  0.0227 -0.2005  0.2390
 3797SOL    HW214960   5.337   0.700   1.510 -0.5469  0.3046  1.2835
 3797SOL    HW314961   5.414   0.730   1.637  0.5021  1.8459  0.3080
 3797SOL    MW414962   5.410   0.725   1.550 -0.6922 -0.3292 -0.0559
 3798SOL     OW14963   6.404   5.529   1.670  0.3578 -0.1121  0.0135
 3798SOL    HW214964   6.456   5.556   1.595  1.0724 -2.1180 -0.2728
 3798SOL    HW314965   6.452   5.455   1.707 -2.1830 -1.9899 -0.1975
 3798SOL    MW414966   6.417   5.523   1.665 -0.1866  0.4086 -0.4294
 3799SOL     OW14967   0.857   2.985   0.257  0.2426  0.5012 -0.2124
 3799SOL    HW214968   0.844   2.936   0.338 -0.9274 -1.1242 -1.3033
 3799SOL    HW314969   0.814   3.069   0.272  1.2435  0.7718  1.2980
 3799SOL    MW414970   0.849   2.990   0.269 -0.3374 -0.4352 -1.0596
 3800SOL     OW14971   6.418   1.268   1.378 -0.0144 -0.2068 -0.4700
 3800SOL    HW214972   6.329   1.249   1.405 -0.0254 -0.8856 -0.9679
 3800SOL    HW314973   6.411   1.292   1.285  0.1953  0.7491 -0.2533
 3800SOL    MW414974   6.406   1.269   1.369  0.0043  0.5521  0.2287
 3801SOL     OW14975   5.108   5.877   4.336 -0.0131  0.2409 -0.4556
 3801SOL    HW214976   5.131   5.966   4.363  0.7941 -0.1876  0.2897
 3801SOL    HW314977   5.041   5.849   4.398 -2.2443  1.2648 -2.2630
 3801SOL    MW414978   5.102   5.885   4.348  0.5171 -0.7155 -0.3138
 3802SOL     OW14979   5.522   2.813   2.200 -0.0712  0.0204  0.0871
 3802SOL    HW214980   5.502   2.865   2.122 -0.5069 -0.3730 -0.0649
 3802SOL    HW314981   5.443   2.761   2.216 -0.3327  0.7302  1.2969
 3802SOL    MW414982   5.509   2.813   2.192 -0.6323  0.4212  0.3326
 3803SOL     OW14983   0.614   2.208   3.240 -0.9048 -0.5992 -0.1686
 3803SOL    HW214984   0.605   2.234   3.332  1.6705 -2.5808  0.7888
 3803SOL    HW314985   0.628   2.291   3.193  3.6618  0.3561  2.2023
 3803SOL    MW414986   0.615   2.223   3.246 -0.1396  0.5178  0.0537
 3804SOL     OW14987   2.875   5.592   3.850 -0.1031 -0.7815 -0.2928
 3804SOL    HW214988   2.900   5.682   3.831 -0.0409 -0.9161 -0.8839
 3804SOL    HW314989   2.957   5.550   3.875 -0.2003 -0.5798  0.3714
 3804SOL    MW414990   2.889   5.598   3.851 -0.1440 -0.2576 -0.1318
 3805SOL     OW14991   2.109   3.167   4.640  0.5570  0.1337  0.3595
 3805SOL    HW214992   2.015   3.183   4.629  0.4578 -0.2995  0.5602
 3805SOL    HW314993   2.134   3.219   4.716  0.5981  0.6930 -0.0330
 3805SOL    MW414994   2.100   3.176   4.648  0.2870 -0.0333  0.0103
 3806SOL     OW14995   1.162   4.584   0.141 -0.1665 -0.5903 -0.1670
 3806SOL    HW214996   1.193   4.674   0.132 -1.0851  0.1584  3.0313
 3806SOL    HW314997   1.242   4.531   0.146  0.4491  0.3752  0.4823
 3806SOL    MW414998   1.177   4.589   0.140 -0.1093  0.4233 -0.3560
 3807SOL     OW14999   1.942   0.310   3.307 -0.2950  0.4880 -0.5954
 3807SOL    HW215000   2.016   0.298   3.248  0.9587  0.1566  0.9530
 3807SOL    HW315001   1.978   0.360   3.381 -1.1491 -1.1067  0.9883
 3807SOL    MW415002   1.956   0.315   3.309 -0.1922 -0.0581 -0.4293
 3808SOL     OW15003   3.552   2.345   4.841  0.0732  0.4874  0.1618
 3808SOL    HW215004   3.521   2.436   4.845  0.4672  0.6865 -0.9063
 3808SOL    HW315005   3.570   2.322   4.932  0.7411  1.7617  0.3856
 3808SOL    MW415006   3.551   2.354   4.853 -0.2227 -0.5659 -0.0439
 3809SOL     OW15007   0.393   6.262   3.465  0.3877 -0.3431  0.3940
 3809SOL    HW215008   0.314   6.285   3.514  0.1006  0.0647 -0.2437
 3809SOL    HW315009   0.384   6.169   3.448  0.6653 -0.5720  1.4147
 3809SOL    MW415010   0.381   6.253   3.470  0.0922  0.2181  0.0814
 3810SOL     OW15011   5.272   3.506   6.191  0.2504  1.0211  0.0413
 3810SOL    HW215012   5.192   3.453   6.189  0.9158  0.0109 -1.9590
 3810SOL    HW315013   5.321   3.479   6.113  3.0598  0.8674  1.7300
 3810SOL    MW415014   5.268   3.496   6.181 -0.4444  0.3371 -0.4108
 3811SOL     OW15015   1.303   3.909   3.092 -0.2390 -0.1531 -0.0097
 3811SOL    HW215016   1.261   3.993   3.112 -0.2837 -0.0581 -0.4955
 3811SOL    HW315017   1.329   3.916   3.000  1.8703  0.2367  0.5560
 3811SOL    MW415018   1.301   3.921   3.083 -0.1249  0.2272 -0.2432
 3812SOL     OW15019   6.139   1.513   4.973  0.4870  0.4919 -0.5394
 3812SOL    HW215020   6.219   1.487   4.927 -0.6407  1.4601 -3.2399
 3812SOL    HW315021   6.070   1.460   4.934 -0.5056  1.1113  0.3174
 3812SOL    MW415022   6.140   1.503   4.962  0.3852  0.1355 -0.0457
 3813SOL     OW15023   5.060   5.363   2.664  0.1446  0.2681 -0.9857
 3813SOL    HW215024   5.081   5.294   2.727  0.7446  0.9509 -0.4131
 3813SOL    HW315025   5.146   5.397   2.636 -0.1338  1.5421 -0.3763
 3813SOL    MW415026   5.074   5.358   2.669  0.2614  0.1951 -0.3087
 3814SOL     OW15027   2.162   1.398   3.206  0.0781 -0.7451 -0.5368
 3814SOL    HW215028   2.183   1.486   3.176  1.1155 -0.6627  0.3881
 3814SOL    HW315029   2.177   1.400   3.300 -1.5119 -1.4615 -0.2320
 3814SOL    MW415030   2.166   1.409   3.214 -0.0398  0.3748 -0.6882
 3815SOL     OW15031   0.071   0.174   2.517  0.2933  0.9487 -0.9312
 3815SOL    HW215032   0.035   0.206   2.435  1.2819 -0.4812 -1.9674
 3815SOL    HW315033   0.166   0.179   2.506  0.4823  2.4055  0.8395
 3815SOL    MW415034   0.079   0.179   2.505 -0.4552  0.2724 -0.5850
 3816SOL     OW15035   4.393   5.334   3.020 -0.2857  0.3523 -0.5689
 3816SOL    HW215036   4.473   5.281   3.026 -0.8763 -0.4586  0.5272
 3816SOL    HW315037   4.424   5.424   3.027  0.5026  0.0255  0.4847
 3816SOL    MW415038   4.408   5.339   3.022 -0.2530 -0.1913 -0.2317
 3817SOL     OW15039   0.282   1.129   4.976  0.1649 -0.0993 -0.4074
 3817SOL    HW215040   0.302   1.099   4.888  1.8932  2.4603 -0.9963
 3817SOL    HW315041   0.366   1.133   5.020 -0.2454  1.5839  0.3158
 3817SOL    MW415042   0.295   1.126   4.970 -0.3737 -0.1806  0.5548
 3818SOL     OW15043   0.228   2.637   6.237 -0.8995 -0.0074  0.6452
 3818SOL    HW215044   0.191   2.646   6.325 -0.7070  1.5087  0.5899
 3818SOL    HW315045   0.204   2.548   6.210  1.0440 -1.4233  3.1400
 3818SOL    MW415046   0.220   2.627   6.245  0.2017  0.5515 -0.0295
 3819SOL     OW15047   2.976   5.766   4.203 -0.4010  0.0635 -0.4148
 3819SOL    HW215048   3.050   5.775   4.143 -0.8968  0.5589 -0.9683
 3819SOL    HW315049   2.905   5.732   4.148 -0.5158 -0.6765  0.1712
 3819SOL    MW415050   2.976   5.763   4.187  0.2330  0.0132 -0.1951
 3820SOL     OW15051   5.761   0.101   4.277 -0.4305 -0.4702 -0.1826
 3820SOL    HW215052   5.803   0.143   4.202 -0.9722 -2.0214 -1.4427
 3820SOL    HW315053   5.729   0.017   4.242 -0.8742 -1.1698  1.7551
 3820SOL    MW415054   5.762   0.095   4.262 -0.3851 -0.0458 -0.0652
 3821SOL     OW15055   1.170   5.013   6.188 -0.0460 -0.1408  0.2130
 3821SOL    HW215056   1.085   4.972   6.173  0.0076 -0.0944 -0.2329
 3821SOL    HW315057   1.228   4.941   6.211 -0.4449 -0.0485  1.6116
 3821SOL    MW415058   1.167   4.998   6.189  0.1640 -0.8463 -0.1780
 3822SOL     OW15059   1.723   4.223   5.067  0.1651 -0.4644 -0.1382
 3822SOL    HW215060   1.781   4.249   4.996 -0.9078  1.1118 -0.4885
 3822SOL    HW315061   1.714   4.301   5.122 -0.4482 -1.1115  0.7181
 3822SOL    MW415062   1.729   4.237   5.065 -0.4369 -0.1899 -0.4046
 3823SOL     OW15063   2.925   1.976   0.173 -0.2645  0.2534 -0.0262
 3823SOL    HW215064   2.877   1.906   0.129  1.3434 -1.0859  0.2522
 3823SOL    HW315065   2.897   2.056   0.130 -0.4953 -0.7876 -1.8848
 3823SOL    MW415066   2.915   1.977   0.162 -0.0116 -0.7270 -0.0919
 3824SOL     OW15067   5.549   4.658   0.860 -0.6801  0.5563  0.1196
 3824SOL    HW215068   5.496   4.600   0.915 -1.8237  1.8386  0.4110
 3824SOL    HW315069   5.628   4.675   0.912 -1.4572  1.2342  1.1104
 3824SOL    MW415070   5.553   4.652   0.874 -0.0264  0.8526  0.6986
 3825SOL     OW15071   6.420   3.626   4.759 -0.6948 -0.1505  0.2747
 3825SOL    HW215072   6.443   3.706   4.805 -0.5062 -0.3893  0.6029
 3825SOL    HW315073   6.500   3.599   4.715 -1.0331  0.4074 -0.7104
 3825SOL    MW415074   6.434   3.633   4.759 -0.2347 -0.1756  0.0354
 3826SOL     OW15075   2.878   3.838   0.054 -0.0642 -0.0860  0.3891
 3826SOL    HW215076   2.859   3.932   0.053 -0.3110 -0.1136 -1.3988
 3826SOL    HW315077   2.950   3.828   0.116 -0.4466  1.1852  1.0737
 3826SOL    MW415078   2.885   3.849   0.062 -0.0972  0.3241  0.0912
 3827SOL     OW15079   2.471   3.529   4.091  0.4704 -0.5149 -0.5210
 3827SOL    HW215080   2.518   3.506   4.012  0.1768  0.7793 -1.1089
 3827SOL    HW315081   2.527   3.500   4.163  1.3281 -0.5595 -1.2023
 3827SOL    MW415082   2.484   3.522   4.090 -0.0463  0.6305 -0.4600
 3828SOL     OW15083   3.243   4.407   5.323  0.2042 -0.0978  0.4465
 3828SOL    HW215084   3.193   4.330   5.351 -1.3817 -0.3927 -2.8064
 3828SOL    HW315085   3.318   4.371   5.276 -1.2988  0.2106 -2.3470
 3828SOL    MW415086   3.246   4.392   5.321  0.3053 -0.4172  0.7324
 3829SOL     OW15087   4.335   0.668   5.804 -0.3019  0.0969  0.8142
 3829SOL    HW215088   4.294   0.738   5.752  0.3284  0.5563  0.9278
 3829SOL    HW315089   4.396   0.713   5.862 -1.0540 -0.4073  2.0324
 3829SOL    MW415090   4.337   0.683   5.805  0.2317 -0.3559 -0.0618
 3830SOL     OW15091   0.320   5.396   3.315 -0.2297 -0.1658  0.0484
 3830SOL    HW215092   0.373   5.333   3.364 -2.6735 -1.2704  1.4306
 3830SOL    HW315093   0.332   5.479   3.362 -0.5980 -0.6615  1.0464
 3830SOL    MW415094   0.329   5.399   3.327  0.1664 -0.3655 -0.4772
 3831SOL     OW15095   1.478   6.222   5.620  0.0896  0.2097 -0.4907
 3831SOL    HW215096   1.486   6.316   5.635 -1.2807  0.2491  0.1623
 3831SOL    HW315097   1.549   6.184   5.672 -1.2485  0.7266  1.8935
 3831SOL    MW415098   1.488   6.229   5.629 -0.3118  0.1362  0.3139
 3832SOL     OW15099   6.258   0.746   1.839  0.5255 -1.1437 -0.2468
 3832SOL    HW215100   6.301   0.806   1.900  1.5813 -1.5825 -0.5397
 3832SOL    HW315101   6.180   0.715   1.886 -0.1112  0.5312 -0.1415
 3832SOL    MW415102   6.253   0.750   1.853 -0.2676 -0.0431  0.1130
 3833SOL     OW15103   3.795   3.388   4.154  0.1916 -0.0403  0.2730
 3833SOL    HW215104   3.878   3.430   4.133  1.3271 -1.7227  1.1813
 3833SOL    HW315105   3.814   3.335   4.232 -1.4123 -1.3824 -0.1963
 3833SOL    MW415106   3.809   3.387   4.162 -0.4250 -0.0227 -0.5061
 3834SOL     OW15107   0.219   0.983   1.909  0.0037  0.0649 -0.0798
 3834SOL    HW215108   0.312   0.962   1.899 -0.1538 -0.7805  0.1101
 3834SOL    HW315109   0.184   0.985   1.820  0.2729  0.7678 -0.1772
 3834SOL    MW415110   0.226   0.981   1.896 -0.0816 -0.0530 -0.7009
 3835SOL     OW15111   1.797   5.338   4.165 -0.2621  0.6031 -0.1404
 3835SOL    HW215112   1.788   5.420   4.116 -1.3650 -0.4120 -1.7166
 3835SOL    HW315113   1.734   5.346   4.236 -0.1725  1.2143 -0.1218
 3835SOL    MW415114   1.788   5.350   4.168 -0.3320 -0.0383 -0.0446
 3836SOL     OW15115   0.601   4.853   4.690 -0.0596  0.5364 -0.1321
 3836SOL    HW215116   0.678   4.900   4.722 -0.5251  0.7951  0.6386
 3836SOL    HW315117   0.529   4.885   4.745 -0.3947 -1.0347  0.3882
 3836SOL    MW415118   0.602   4.863   4.702  0.1249  0.1282  0.0013
 3837SOL     OW15119   2.075   1.989   4.096  0.4619  0.3374 -0.7655
 3837SOL    HW215120   2.130   1.968   4.021 -0.1855  0.9012 -1.4109
 3837SOL    HW315121   2.135   2.028   4.160  1.1044 -0.5937 -0.7800
 3837SOL    MW415122   2.090   1.991   4.095  0.0966 -0.3326  0.1566
 3838SOL     OW15123   4.185   4.355   5.336  0.4618 -0.0162  0.2413
 3838SOL    HW215124   4.253   4.404   5.381 -0.0664  1.2580 -0.2840
 3838SOL    HW315125   4.231   4.299   5.274  1.0883 -0.3546  0.9989
 3838SOL    MW415126   4.200   4.354   5.334 -0.4456 -0.4123 -0.5494
 3839SOL     OW15127   1.300   6.215   5.942 -0.1375 -0.1086  0.3629
 3839SOL    HW215128   1.249   6.177   6.013  0.3052 -0.1402  0.6685
 3839SOL    HW315129   1.235   6.257   5.885 -0.3839  1.1488  1.5312
 3839SOL    MW415130   1.285   6.216   5.943 -0.1440  0.3733 -0.4386
 3840SOL     OW15131   0.665   3.469   2.210 -0.3994  0.1461  0.0025
 3840SOL    HW215132   0.589   3.437   2.162 -1.4418 -0.1310  1.7664
 3840SOL    HW315133   0.654   3.434   2.298  1.4924  0.5691  0.4486
 3840SOL    MW415134   0.654   3.460   2.215 -0.0195 -0.4400 -0.4143
 3841SOL     OW15135   5.804   3.694   1.077  0.2353 -0.1993 -0.5879
 3841SOL    HW215136   5.770   3.683   1.166  0.3410 -1.2858 -0.6725
 3841SOL    HW315137   5.802   3.606   1.039 -3.2314  0.6820 -2.9426
 3841SOL    MW415138   5.799   3.681   1.084  0.0891 -0.1543 -0.3016
 3842SOL     OW15139   5.207   3.754   3.979  0.2177 -0.0551 -0.2355
 3842SOL    HW215140   5.287   3.769   3.929  0.5627  0.5316  0.4645
 3842SOL    HW315141   5.225   3.677   4.032 -0.9797 -2.1504 -2.6505
 3842SOL    MW415142   5.220   3.746   3.979 -0.4998  0.3008  0.3394
 3843SOL     OW15143   0.349   3.877   3.705  0.0618 -0.1112 -0.5393
 3843SOL    HW215144   0.287   3.807   3.727 -1.9014  1.7690  0.2237
 3843SOL    HW315145   0.420   3.865   3.768 -0.9878 -0.5141  0.6196
 3843SOL    MW415146   0.350   3.866   3.716  0.0248  0.2672  0.6712
 3844SOL     OW15147   4.773   4.947   2.857 -0.0167 -0.1704  0.0524
 3844SOL    HW215148   4.708   4.884   2.884  0.8400 -0.3492  1.8198
 3844SOL    HW315149   4.826   4.901   2.791 -2.4775  0.4660 -2.5845
 3844SOL    MW415150   4.772   4.933   2.852 -0.4306 -0.1622  0.3541
 3845SOL     OW15151   1.019   4.830   0.464 -0.1664  0.3527 -0.1045
 3845SOL    HW215152   0.936   4.863   0.498  0.3157 -0.1384  1.6532
 3845SOL    HW315153   1.078   4.906   0.466 -0.2365  0.4085 -0.1697
 3845SOL    MW415154   1.016   4.844   0.469 -0.6115  0.2344  0.2933
 3846SOL     OW15155   0.975   2.981   4.729  0.3456  0.8418  0.3123
 3846SOL    HW215156   1.015   2.898   4.754 -0.7278  0.3631  0.5008
 3846SOL    HW315157   0.888   2.957   4.699  0.8065  1.6372 -1.8617
 3846SOL    MW415158   0.969   2.967   4.728 -0.0343  0.0918 -0.3725
 3847SOL     OW15159   4.942   2.139   4.859 -0.2146 -0.1122 -0.1949
 3847SOL    HW215160   4.964   2.112   4.948  2.8549  0.3352 -0.7132
 3847SOL    HW315161   4.969   2.231   4.855 -1.5174  0.2496 -1.2460
 3847SOL    MW415162   4.948   2.148   4.870  0.1548  0.3974  0.2635
 3848SOL     OW15163   6.406   2.137   4.359  0.1275  0.8953  0.1528
 3848SOL    HW215164   6.418   2.202   4.429  0.3627  0.4444  0.5367
 3848SOL    HW315165   6.311   2.133   4.347 -0.0589 -0.3467  1.7365
 3848SOL    MW415166   6.395   2.145   4.367 -0.1683 -0.5601 -0.1294
 3849SOL     OW15167   3.706   5.370   1.038  0.3171 -0.1903  0.6312
 3849SOL    HW215168   3.643   5.334   0.976 -0.4298  3.0252 -0.6745
 3849SOL    HW315169   3.656   5.386   1.117 -0.0997  0.6384  0.2151
 3849SOL    MW415170   3.691   5.367   1.040 -0.2225  0.2030  0.1475
 3850SOL     OW15171   3.243   6.192   2.063  0.1349 -0.1527  0.0536
 3850SOL    HW215172   3.257   6.272   2.114 -0.0874 -0.6347  0.9008
 3850SOL    HW315173   3.182   6.218   1.994 -0.6767  0.2123  0.8783
 3850SOL    MW415174   3.237   6.206   2.061 -0.0737 -0.2498  0.5579
 3851SOL     OW15175   2.402   1.842   5.925  0.3163 -0.3625 -0.0130
 3851SOL    HW215176   2.321   1.876   5.887  0.3565 -0.0062  0.2161
 3851SOL    HW315177   2.421   1.901   5.998  1.2693  0.1067 -0.6191
 3851SOL    MW415178   2.394   1.855   5.929  0.1728  0.1161  0.0239
 3852SOL     OW15179   2.550   3.674   1.151 -0.3851 -0.4507 -0.2938
 3852SOL    HW215180   2.629   3.726   1.165 -1.0677  0.3764  0.6713
 3852SOL    HW315181   2.503   3.679   1.235 -1.1020 -1.5556 -0.6049
 3852SOL    MW415182   2.554   3.681   1.164  0.3827 -0.2901 -0.3626
 3853SOL     OW15183   1.812   1.590   4.992 -0.1879 -0.2363 -0.5304
 3853SOL    HW215184   1.856   1.670   4.963  0.6281 -1.0860 -1.7396
 3853SOL    HW315185   1.875   1.520   4.973 -1.2012 -1.2561 -0.2410
 3853SOL    MW415186   1.826   1.591   4.986 -0.2713 -0.1970 -0.1801
 3854SOL     OW15187   5.806   2.124   3.638 -0.4468  0.3408 -0.0852
 3854SOL    HW215188   5.900   2.126   3.624 -0.5847 -0.2577 -1.2104
 3854SOL    HW315189   5.786   2.032   3.656 -0.6965  0.6195  1.1630
 3854SOL    MW415190   5.815   2.112   3.639 -0.7701 -0.3415  0.4797
 3855SOL     OW15191   4.064   2.817   3.892 -0.2315 -0.3598  0.2199
 3855SOL    HW215192   4.041   2.891   3.949  0.4132 -0.0535  0.0885
 3855SOL    HW315193   3.986   2.804   3.838  0.3530  1.5681 -1.1963
 3855SOL    MW415194   4.051   2.825   3.892 -0.0533 -0.0916  0.4931
 3856SOL     OW15195   1.689   3.410   2.189  0.1900  0.2149  0.1780
 3856SOL    HW215196   1.608   3.433   2.235  0.5052  0.4294  0.6359
 3856SOL    HW315197   1.668   3.422   2.097 -0.9161 -1.6267  0.1295
 3856SOL    MW415198   1.675   3.415   2.183 -0.5511 -0.3905  0.0620
 3857SOL     OW15199   6.409   2.941   3.563  0.2667 -0.0656 -0.1525
 3857SOL    HW215200   6.503   2.941   3.545  0.1439  0.2742 -0.8304
 3857SOL    HW315201   6.402   2.970   3.654  0.8112  0.0098 -0.1311
 3857SOL    MW415202   6.420   2.945   3.573  0.3966  0.2121  0.2889
 3858SOL     OW15203   3.905   2.158   2.037 -0.0259  0.5073  0.2492
 3858SOL    HW215204   3.920   2.251   2.055 -1.9052  1.4669 -2.4902
 3858SOL    HW315205   3.900   2.153   1.942 -0.6357 -2.3180  0.3495
 3858SOL    MW415206   3.906   2.170   2.027 -0.0130  0.0640 -0.9588
 3859SOL     OW15207   2.682   2.849   0.099 -0.2625  0.0197  0.1434
 3859SOL    HW215208   2.661   2.796   0.022 -0.5369  0.9410 -0.4314
 3859SOL    HW315209   2.731   2.923   0.064  0.0424  0.1997  0.9249
 3859SOL    MW415210   2.686   2.851   0.084  0.4724 -0.1906  0.2832
 3860SOL     OW15211   3.634   4.631   0.835  0.9368 -0.0100  0.3266
 3860SOL    HW215212   3.617   4.690   0.909 -2.2451 -1.3503  0.8392
 3860SOL    HW315213   3.584   4.669   0.762  0.4228 -1.0202  0.1319
 3860SOL    MW415214   3.625   4.644   0.835  0.1609  0.2775  0.0019
 3861SOL     OW15215   3.920   1.379   2.473 -0.0387 -0.0270  0.3936
 3861SOL    HW215216   3.911   1.462   2.520  2.8441 -0.8032  2.6556
 3861SOL    HW315217   3.836   1.336   2.485 -0.3962  1.0793  2.3992
 3861SOL    MW415218   3.908   1.384   2.481  0.3986 -0.6477 -0.0734
 3862SOL     OW15219   0.254   5.321   2.418  0.0291 -0.3082 -0.5828
 3862SOL    HW215220   0.290   5.286   2.500 -2.1422 -0.6246  0.3115
 3862SOL    HW315221   0.235   5.244   2.365  0.8882 -0.1278 -1.1738
 3862SOL    MW415222   0.257   5.307   2.422  0.0486 -0.1931 -0.2439
 3863SOL     OW15223   0.279   2.001   4.797  0.2670  0.0923  0.4097
 3863SOL    HW215224   0.277   2.039   4.885 -0.1795 -1.6337  1.1928
 3863SOL    HW315225   0.195   1.955   4.789  1.4466 -2.1251  0.2080
 3863SOL    MW415226   0.267   2.000   4.807 -0.3775 -0.3899  0.2867
 3864SOL     OW15227   0.712   2.644   3.867 -0.6891  0.1079  0.6610
 3864SOL    HW215228   0.778   2.625   3.801 -2.5379 -1.0008 -0.9797
 3864SOL    HW315229   0.729   2.734   3.893  3.2815 -0.9899  2.5889
 3864SOL    MW415230   0.723   2.653   3.862  0.4216  0.3596 -0.3819
 3865SOL     OW15231   4.168   1.331   4.766  0.6689 -0.1323  0.3384
 3865SOL    HW215232   4.086   1.350   4.812  0.4575 -0.1516 -0.0307
 3865SOL    HW315233   4.227   1.403   4.792  0.0909  0.6734 -0.5050
 3865SOL    MW415234   4.165   1.343   4.776  0.3562  0.1100 -0.9153
 3866SOL     OW15235   5.840   3.596   0.706  0.0690  0.0729 -0.4203
 3866SOL    HW215236   5.756   3.616   0.748 -0.2854 -2.9499  0.5839
 3866SOL    HW315237   5.816   3.550   0.625  0.6814 -0.9747 -0.0356
 3866SOL    MW415238   5.825   3.592   0.701 -0.1711 -0.0896 -0.0881
 3867SOL     OW15239   6.424   5.876   2.680  0.3636  0.0526 -0.4851
 3867SOL    HW215240   6.374   5.794   2.681 -0.8143  0.7448 -1.0238
 3867SOL    HW315241   6.474   5.872   2.598  0.4405 -0.2030 -0.4270
 3867SOL    MW415242   6.424   5.864   2.669  0.0671  0.4415  0.0670
 3868SOL     OW15243   2.395   0.426   5.811 -0.3850  0.0791  0.2292
 3868SOL    HW215244   2.322   0.394   5.759 -0.8788  1.8911 -0.2776
 3868SOL    HW315245   2.457   0.461   5.747  0.9034 -1.2996  0.6605
 3868SOL    MW415246   2.394   0.427   5.796 -0.4403 -0.0421  0.0420
 3869SOL     OW15247   0.472   1.868   0.946 -0.3260 -0.1962  0.1552
 3869SOL    HW215248   0.522   1.912   0.877 -1.3666  1.4893  0.4421
 3869SOL    HW315249   0.490   1.775   0.932  3.7155  0.3042  0.8914
 3869SOL    MW415250   0.481   1.861   0.935 -0.3891  0.4583  0.3789
 3870SOL     OW15251   0.667   5.919   5.058 -0.1809 -0.1483 -0.0121
 3870SOL    HW215252   0.616   5.947   4.983 -0.6074 -1.0173 -0.0615
 3870SOL    HW315253   0.700   6.000   5.097 -1.6247  0.4378  0.0397
 3870SOL    MW415254   0.665   5.933   5.053  0.2764  0.5637  0.8621
 3871SOL     OW15255   4.407   2.388   0.756 -0.7842 -0.2662 -0.0506
 3871SOL    HW215256   4.325   2.438   0.752 -1.1341 -0.8109  0.1452
 3871SOL    HW315257   4.404   2.343   0.841 -0.2001 -0.1529  0.0338
 3871SOL    MW415258   4.395   2.388   0.767 -0.3010  0.1291  0.1830
 3872SOL     OW15259   1.395   1.380   5.465 -0.0915  0.0406 -1.0094
 3872SOL    HW215260   1.437   1.340   5.389 -1.2154 -0.4137 -1.4153
 3872SOL    HW315261   1.302   1.359   5.455 -0.1694 -0.7585  0.9300
 3872SOL    MW415262   1.388   1.372   5.453 -0.4562 -0.0086  0.4130
 3873SOL     OW15263   6.247   4.211   3.771  0.6533  0.8543  0.5400
 3873SOL    HW215264   6.230   4.301   3.799  0.8186  1.0338  0.0685
 3873SOL    HW315265   6.234   4.212   3.676  3.0716  0.9636  0.1470
 3873SOL    MW415266   6.243   4.223   3.762  0.2758  0.2450  0.0446
 3874SOL     OW15267   5.150   2.877   3.643  0.2364  0.4162  0.5563
 3874SOL    HW215268   5.072   2.827   3.620 -0.4799  2.5485 -2.3443
 3874SOL    HW315269   5.118   2.946   3.700  0.5959 -0.3858  1.7607
 3874SOL    MW415270   5.135   2.880   3.647 -0.3645 -0.1251  0.3133
 3875SOL     OW15271   1.814   3.879   4.162 -0.0644  0.2049 -0.5938
 3875SOL    HW215272   1.812   3.975   4.165  3.2697  0.4394 -1.5733
 3875SOL    HW315273   1.905   3.857   4.183 -0.8137 -2.7992 -0.0899
 3875SOL    MW415274   1.826   3.889   4.165  0.5957  1.0584 -0.0761
 3876SOL     OW15275   6.167   4.893   2.074  0.0274 -0.3645  0.7567
 3876SOL    HW215276   6.164   4.871   1.981 -0.1026  1.1879  0.3733
 3876SOL    HW315277   6.075   4.907   2.098  0.2007  1.3604  0.5522
 3876SOL    MW415278   6.154   4.892   2.065  0.1496  0.1632 -0.6431
 3877SOL     OW15279   0.048   4.339   4.130 -0.0423 -0.2175  0.0847
 3877SOL    HW215280  -0.011   4.348   4.205 -0.4939 -0.4280 -0.2371
 3877SOL    HW315281   0.016   4.262   4.083 -0.7052  0.7391 -1.1281
 3877SOL    MW415282   0.036   4.330   4.133  0.0953 -0.4079 -0.7358
 3878SOL     OW15283   5.519   6.228   3.676  0.4084  0.0577 -0.3759
 3878SOL    HW215284   5.610   6.227   3.647  0.2512 -1.1166 -0.8999
 3878SOL    HW315285   5.503   6.139   3.709 -0.3085  0.4874  0.4846
 3878SOL    MW415286   5.529   6.216   3.677 -0.1028  0.3128  0.3200
 3879SOL     OW15287   3.364   3.535   5.649  0.0976  0.4758  0.3118
 3879SOL    HW215288   3.270   3.556   5.643 -0.1180 -0.6239 -0.6327
 3879SOL    HW315289   3.387   3.504   5.561  1.6118  1.6699  0.2557
 3879SOL    MW415290   3.354   3.534   5.637  0.0641 -0.3240  0.3234
 3880SOL     OW15291   1.298   3.377   4.960  0.3651  0.4024  0.4144
 3880SOL    HW215292   1.342   3.335   5.033  2.0893  0.4222 -0.5753
 3880SOL    HW315293   1.297   3.470   4.983  0.1037  0.3041  0.8061
 3880SOL    MW415294   1.303   3.384   4.973 -0.1849 -0.7292 -0.1786
 3881SOL     OW15295   3.879   3.558   2.907 -0.2417  0.0273 -0.4579
 3881SOL    HW215296   3.873   3.601   2.992 -1.7983 -2.0328  0.5577
 3881SOL    HW315297   3.944   3.489   2.918 -0.1689 -0.0074 -1.0446
 3881SOL    MW415298   3.887   3.555   2.919  0.4043 -0.3471  0.0780
 3882SOL     OW15299   2.531   0.469   3.750 -0.1234 -0.3088  0.4552
 3882SOL    HW215300   2.437   0.479   3.738 -0.2123  1.2558  2.0827
 3882SOL    HW315301   2.542   0.377   3.774 -1.6760  0.1436  3.3614
 3882SOL    MW415302   2.520   0.458   3.751  0.5551 -0.4092 -0.0171
 3883SOL     OW15303   1.402   1.447   0.495 -0.3790 -0.4022 -0.5052
 3883SOL    HW215304   1.478   1.403   0.533 -0.3139 -1.2402 -1.5611
 3883SOL    HW315305   1.429   1.469   0.406 -1.4579 -0.9885 -0.9987
 3883SOL    MW415306   1.415   1.444   0.488 -0.5114  0.3199  0.1643
 3884SOL     OW15307   0.412   4.901   0.917  0.0171  0.4964 -0.0624
 3884SOL    HW215308   0.453   4.880   1.001 -0.3647 -1.3011 -0.2764
 3884SOL    HW315309   0.412   4.996   0.913  2.2823  0.5924  0.8541
 3884SOL    MW415310   0.417   4.911   0.928 -0.0128  0.5844  0.3389
 3885SOL     OW15311   2.658   2.616   0.437 -0.1831  0.0271  0.6884
 3885SOL    HW215312   2.638   2.706   0.411  1.0922  0.2859  0.5364
 3885SOL    HW315313   2.653   2.566   0.356 -1.7686 -0.2420  0.9055
 3885SOL    MW415314   2.654   2.621   0.423  0.2704 -0.0417  0.5416
 3886SOL     OW15315   4.629   0.079   1.344 -0.6253  0.8361  0.5359
 3886SOL    HW215316   4.657   0.020   1.274  0.4965  0.6562  1.1216
 3886SOL    HW315317   4.534   0.067   1.348 -0.6121  0.2919 -0.4432
 3886SOL    MW415318   4.620   0.069   1.335 -0.6212  0.2318  0.2158
 3887SOL     OW15319   5.326   3.203   0.344 -0.8770 -0.3732  0.0164
 3887SOL    HW215320   5.402   3.147   0.360 -0.8214 -1.3327 -3.0343
 3887SOL    HW315321   5.261   3.172   0.406 -0.6213 -3.4814 -1.0878
 3887SOL    MW415322   5.328   3.191   0.354  0.4213 -0.2344  0.3870
 3888SOL     OW15323   4.312   4.130   3.854  0.0037 -0.3902 -0.1294
 3888SOL    HW215324   4.313   4.050   3.803  0.5557  1.1830 -2.7417
 3888SOL    HW315325   4.399   4.167   3.843 -0.0980  0.3888  1.3885
 3888SOL    MW415326   4.324   4.124   3.846  0.4955  0.2390 -0.6436
 3889SOL     OW15327   2.725   3.659   4.975  0.0333 -0.3889  0.3192
 3889SOL    HW215328   2.662   3.665   5.047  0.7853  0.2744  0.9335
 3889SOL    HW315329   2.805   3.624   5.015  0.1422 -1.0164 -0.4112
 3889SOL    MW415330   2.727   3.655   4.990  0.1031 -0.1772  0.1538
 3890SOL     OW15331   2.293   4.562   2.903  0.1359 -0.2685  0.4390
 3890SOL    HW215332   2.209   4.601   2.928  0.4855 -0.1413  1.4651
 3890SOL    HW315333   2.302   4.583   2.810 -0.7420  0.1313  0.4310
 3890SOL    MW415334   2.283   4.570   2.894  0.7677 -0.1918 -0.2741
 3891SOL     OW15335   5.563   1.076   3.475 -0.6581 -0.5197 -0.1864
 3891SOL    HW215336   5.602   0.994   3.445 -1.6876 -0.5785 -1.4302
 3891SOL    HW315337   5.554   1.065   3.570 -0.7386 -1.8343 -0.3304
 3891SOL    MW415338   5.567   1.064   3.484  0.0446  0.2803 -0.1868
 3892SOL     OW15339   3.101   4.509   1.634  0.0934  0.1882  0.3543
 3892SOL    HW215340   3.192   4.491   1.609 -0.0229  0.0005  0.0659
 3892SOL    HW315341   3.100   4.603   1.654  0.3532  0.1889  0.3695
 3892SOL    MW415342   3.113   4.519   1.633 -0.4897  0.9367  0.0693
 3893SOL     OW15343   6.154   0.617   3.400  0.5539 -0.5055  0.1765
 3893SOL    HW215344   6.212   0.575   3.464  1.3456 -0.6675 -0.6231
 3893SOL    HW315345   6.075   0.562   3.400  0.9044 -1.0264  0.3648
 3893SOL    MW415346   6.151   0.604   3.409  0.2224  0.1013  0.5788
 3894SOL     OW15347   2.799   3.202   2.962 -0.2622 -0.0902 -0.1039
 3894SOL    HW215348   2.849   3.139   3.015  1.6462  0.0896 -1.5960
 3894SOL    HW315349   2.805   3.169   2.873 -2.3979  0.2624 -0.4265
 3894SOL    MW415350   2.806   3.189   2.957 -0.1157 -0.1044 -0.3012
 3895SOL     OW15351   1.608   4.951   6.140  0.0071  0.0140  0.6899
 3895SOL    HW215352   1.589   4.899   6.062 -1.0223  0.4098  0.6640
 3895SOL    HW315353   1.567   5.036   6.122  0.0145  0.2037  1.5400
 3895SOL    MW415354   1.600   4.956   6.127  0.2144 -0.2696 -0.1719
 3896SOL     OW15355   5.335   4.657   2.958 -0.0213  0.9583  0.1275
 3896SOL    HW215356   5.308   4.582   2.904  0.9801  0.2155  0.6248
 3896SOL    HW315357   5.257   4.712   2.964 -0.4205  0.5847 -1.2828
 3896SOL    MW415358   5.321   4.654   2.951  0.0691  0.5037 -0.1101
 3897SOL     OW15359   2.164   4.608   6.185 -0.3388  0.2578  0.1912
 3897SOL    HW215360   2.242   4.554   6.173 -1.6438 -1.6494 -0.2813
 3897SOL    HW315361   2.160   4.662   6.106 -0.3612 -0.8327 -0.5800
 3897SOL    MW415362   2.174   4.608   6.173  0.5291 -0.2718  0.1302
 3898SOL     OW15363   6.225   4.795   5.859 -0.2987 -0.2732 -0.9443
 3898SOL    HW215364   6.316   4.814   5.835 -0.6689  1.9125 -0.8166
 3898SOL    HW315365   6.183   4.770   5.777  0.1283 -0.0595 -1.2344
 3898SOL    MW415366   6.231   4.794   5.845 -0.6302  0.7763  0.3944
 3899SOL     OW15367   4.442   6.161   2.447  0.0781 -0.0350 -0.4296
 3899SOL    HW215368   4.468   6.167   2.355 -1.1198 -1.9233 -0.9563
 3899SOL    HW315369   4.349   6.135   2.444  0.3184 -1.2996  1.2763
 3899SOL    MW415370   4.433   6.158   2.434 -0.5673 -0.0189 -0.3175
 3900SOL     OW15371   2.093   0.959   5.981  0.5867 -0.5253  0.7217
 3900SOL    HW215372   2.000   0.941   5.989  0.1692  0.7288 -0.8186
 3900SOL    HW315373   2.108   1.037   6.035  1.1912 -1.8440  2.5635
 3900SOL    MW415374   2.083   0.967   5.989 -0.0648  0.6044 -0.2877
 3901SOL     OW15375   0.531   5.491   4.059 -0.1755  0.2558 -0.1213
 3901SOL    HW215376   0.574   5.555   4.116  1.5331 -1.1616  0.2566
 3901SOL    HW315377   0.491   5.428   4.118 -0.6035  0.1590 -0.5043
 3901SOL    MW415378   0.531   5.491   4.074  0.2906  0.0384  0.0098
 3902SOL     OW15379   0.658   4.621   5.159 -0.0601  0.1016  0.1138
 3902SOL    HW215380   0.670   4.639   5.065  0.6960  0.1765  0.2250
 3902SOL    HW315381   0.599   4.545   5.161  0.0361  0.0061 -0.4207
 3902SOL    MW415382   0.652   4.614   5.147 -0.0857  0.1911 -0.5929
 3903SOL     OW15383   1.445   3.423   1.408  0.1760  0.0408 -0.2184
 3903SOL    HW215384   1.478   3.371   1.481 -2.3756  0.3200  1.2411
 3903SOL    HW315385   1.479   3.511   1.424 -0.4233  0.1155  0.7148
 3903SOL    MW415386   1.454   3.428   1.419  0.0399 -0.5034 -0.2279
 3904SOL     OW15387   3.904   2.922   1.040  0.4452  0.2872  0.4718
 3904SOL    HW215388   3.851   2.970   0.977 -0.6590 -2.2625 -0.6285
 3904SOL    HW315389   3.890   2.968   1.123 -1.3228  1.2703 -0.3277
 3904SOL    MW415390   3.895   2.935   1.043  0.2023  0.0281  0.2545
 3905SOL     OW15391   1.709   3.723   3.260 -0.0297  0.1958 -0.4088
 3905SOL    HW215392   1.643   3.792   3.271 -1.2785 -0.9787 -0.2636
 3905SOL    HW315393   1.679   3.652   3.317  1.5060 -0.2916 -0.1527
 3905SOL    MW415394   1.696   3.722   3.269 -0.1279  0.2080  0.3246
 3906SOL     OW15395   0.466   0.947   5.211 -0.2959 -0.4394  0.0418
 3906SOL    HW215396   0.550   0.902   5.219  0.1873  0.4300 -0.0031
 3906SOL    HW315397   0.489   1.037   5.189 -1.2464 -0.2073 -0.0549
 3906SOL    MW415398   0.480   0.953   5.209  0.1469 -0.4073 -0.4032
 3907SOL     OW15399   0.828   3.581   5.784 -0.7157 -0.1683  0.1599
 3907SOL    HW215400   0.734   3.567   5.797 -0.4574 -0.9945  1.3992
 3907SOL    HW315401   0.869   3.526   5.851  0.6132  1.3891  0.6901
 3907SOL    MW415402   0.821   3.572   5.795 -0.4347 -0.4862  0.4241
 3908SOL     OW15403   5.897   2.700   5.602  0.0692  0.3066 -0.2740
 3908SOL    HW215404   5.913   2.771   5.664  0.2026  1.4632 -1.5878
 3908SOL    HW315405   5.897   2.743   5.516  2.2183 -1.5655 -1.3117
 3908SOL    MW415406   5.899   2.715   5.599 -0.2797 -0.6211  0.3658
 3909SOL     OW15407   5.138   0.357   0.252 -0.5398 -0.0997  0.4055
 3909SOL    HW215408   5.226   0.321   0.254 -0.6956 -0.5247 -0.1787
 3909SOL    HW315409   5.087   0.298   0.308 -0.3031  0.5808  1.3600
 3909SOL    MW415410   5.143   0.344   0.260 -0.0096 -0.3225 -0.2580
 3910SOL     OW15411   1.885   1.357   3.160 -0.1219 -0.3729 -0.0550
 3910SOL    HW215412   1.860   1.410   3.236 -0.9808  0.4849 -0.9127
 3910SOL    HW315413   1.980   1.355   3.163 -0.0196  1.7581 -0.3204
 3910SOL    MW415414   1.894   1.364   3.171 -0.1598 -0.2118  0.1003
 3911SOL     OW15415   1.951   4.135   5.814 -0.2186  0.9071  0.0930
 3911SOL    HW215416   1.866   4.111   5.776  0.2708 -0.0317 -0.4333
 3911SOL    HW315417   1.929   4.183   5.894 -1.2552  1.6029 -0.5879
 3911SOL    MW415418   1.937   4.138   5.820 -0.4950  0.0102 -0.3662
 3912SOL     OW15419   3.859   5.701   3.845 -0.2936 -0.0196 -0.2327
 3912SOL    HW215420   3.813   5.717   3.762  0.9458  0.4863 -0.8403
 3912SOL    HW315421   3.791   5.666   3.903 -1.1959 -0.3565 -1.4437
 3912SOL    MW415422   3.844   5.698   3.842 -0.7958  0.3073 -0.0986
 3913SOL     OW15423   2.506   3.590   6.349  0.0474 -0.6362  0.1157
 3913SOL    HW215424   2.482   3.509   6.395  0.3383 -0.5288  0.4611
 3913SOL    HW315425   2.434   3.650   6.367 -0.5117 -1.0458 -0.7296
 3913SOL    MW415426   2.494   3.587   6.357 -0.1405  0.8042 -0.4799
 3914SOL     OW15427   3.587   0.080   6.004 -0.4794  0.5641  0.4562
 3914SOL    HW215428   3.602   0.174   5.992  1.1300  0.1754 -0.8404
 3914SOL    HW315429   3.605   0.065   6.097  0.1721  1.3760  0.4723
 3914SOL    MW415430   3.591   0.091   6.015 -0.2131 -0.2880  0.4205
 3915SOL     OW15431   1.579   4.118   2.829 -0.0749  0.0097  0.2252
 3915SOL    HW215432   1.578   4.179   2.903 -0.7312  0.1466  0.1062
 3915SOL    HW315433   1.665   4.076   2.834  0.4234  1.0058  0.2562
 3915SOL    MW415434   1.591   4.121   2.839 -0.3258  0.0980  0.1480
 3916SOL     OW15435   2.574   0.455   5.182 -0.3186  0.0356  0.4473
 3916SOL    HW215436   2.555   0.365   5.156 -1.0071  0.5070 -0.7166
 3916SOL    HW315437   2.638   0.486   5.118  0.4894  0.1602  1.2808
 3916SOL    MW415438   2.580   0.447   5.170 -0.3599 -0.4459  0.3684
 3917SOL     OW15439   5.778   5.034   3.704 -0.1201 -0.0276  0.5526
 3917SOL    HW215440   5.831   4.988   3.768 -1.1552  0.2989  1.7000
 3917SOL    HW315441   5.688   5.007   3.723 -0.3390 -1.7067 -2.2642
 3917SOL    MW415442   5.773   5.025   3.715  0.1983  0.2240  0.2562
 3918SOL     OW15443   0.896   5.028   1.677 -0.0656 -0.2568  0.1962
 3918SOL    HW215444   0.964   4.960   1.683 -1.8177 -2.0346  1.3251
 3918SOL    HW315445   0.903   5.075   1.760 -0.8108 -1.0966  0.7557
 3918SOL    MW415446   0.906   5.025   1.689  0.7089 -0.5284  0.2837
 3919SOL     OW15447   0.748   3.263   5.627  0.0326  0.8118 -0.4751
 3919SOL    HW215448   0.671   3.232   5.580 -0.1204  2.4050 -1.3441
 3919SOL    HW315449   0.790   3.324   5.566  1.8798  0.1469  0.0603
 3919SOL    MW415450   0.743   3.267   5.613 -0.3172  0.2161 -0.9060
 3920SOL     OW15451   1.993   0.620   5.234 -0.1522 -0.2832  0.4237
 3920SOL    HW215452   1.926   0.618   5.303 -1.5127 -1.4007 -0.8545
 3920SOL    HW315453   2.069   0.576   5.273 -0.9723 -1.0854  1.1525
 3920SOL    MW415454   1.994   0.614   5.248 -0.0347  0.5908 -0.1913
 3921SOL     OW15455   3.350   5.427   0.705 -0.4918  0.1464 -0.0485
 3921SOL    HW215456   3.336   5.381   0.622 -0.3295 -1.2780  0.6915
 3921SOL    HW315457   3.271   5.409   0.756 -0.3585  0.5678  0.3159
 3921SOL    MW415458   3.337   5.418   0.701 -0.2102 -0.0221 -0.6685
 3922SOL     OW15459   2.657   3.504   1.660  0.3340  0.1359 -0.2397
 3922SOL    HW215460   2.715   3.436   1.696  0.3970  0.3687  0.1081
 3922SOL    HW315461   2.576   3.495   1.709  0.6165  0.8306  0.3741
 3922SOL    MW415462   2.654   3.494   1.671  0.4763  0.8180 -0.3666
 3923SOL     OW15463   3.943   3.741   5.755  0.4256  0.2595 -0.4267
 3923SOL    HW215464   4.000   3.817   5.742  0.9160 -0.4278 -2.6783
 3923SOL    HW315465   3.995   3.666   5.727 -1.0966 -0.5495 -1.2279
 3923SOL    MW415466   3.957   3.742   5.750 -0.4560 -0.5054 -0.4463
 3924SOL     OW15467   5.546   0.381   5.912 -0.1924 -0.3419 -0.1515
 3924SOL    HW215468   5.574   0.344   5.995 -1.5108 -1.7586 -0.2869
 3924SOL    HW315469   5.626   0.390   5.861  0.3584 -1.6429  0.4443
 3924SOL    MW415470   5.560   0.377   5.916  0.2994  0.5348  0.2155
 3925SOL     OW15471   0.111   5.296   1.226  0.5419  0.0924  0.0540
 3925SOL    HW215472   0.048   5.276   1.157 -0.5327 -0.4808  1.1703
 3925SOL    HW315473   0.075   5.255   1.305  1.8766  0.4901  0.9110
 3925SOL    MW415474   0.098   5.288   1.227 -0.4191  0.8299  0.5126
 3926SOL     OW15475   6.163   2.557   4.534  0.4767 -0.4964  0.3972
 3926SOL    HW215476   6.173   2.630   4.594 -0.4164  0.8698 -1.0276
 3926SOL    HW315477   6.167   2.479   4.589 -0.0889  0.6789  2.1817
 3926SOL    MW415478   6.164   2.557   4.549 -0.5127  0.2904  0.5249
 3927SOL     OW15479   1.190   4.252   0.972  0.7869  0.0638 -0.0271
 3927SOL    HW215480   1.197   4.241   1.067  0.9706  1.7174  0.1738
 3927SOL    HW315481   1.178   4.346   0.959 -2.7087 -0.4313 -1.4693
 3927SOL    MW415482   1.190   4.263   0.983 -0.1157 -0.0954 -0.0912
 3928SOL     OW15483   0.504   2.630   1.563  0.3184  0.2423 -0.2660
 3928SOL    HW215484   0.443   2.610   1.634 -0.2529  0.9219 -0.5493
 3928SOL    HW315485   0.448   2.644   1.486  0.6104  2.8528 -0.1132
 3928SOL    MW415486   0.489   2.630   1.562  0.0485 -0.1538  0.2112
 3929SOL     OW15487   0.997   5.958   2.882 -0.2246  0.0359  0.0547
 3929SOL    HW215488   1.007   5.901   2.806  0.8043  0.6481 -0.2853
 3929SOL    HW315489   0.920   6.011   2.862 -1.4506 -1.4691  0.5572
 3929SOL    MW415490   0.988   5.957   2.870 -0.0028  0.5147 -0.2720
 3930SOL     OW15491   1.974   3.996   3.418 -0.1465  0.3718  0.0185
 3930SOL    HW215492   2.026   3.996   3.338  1.2722 -0.4191  0.9140
 3930SOL    HW315493   1.885   4.016   3.388  0.3587  0.1534 -1.7361
 3930SOL    MW415494   1.969   3.999   3.403  0.2525 -0.6347 -0.7934
 3931SOL     OW15495   3.740   5.911   4.055  0.3671  0.0851  0.0287
 3931SOL    HW215496   3.823   5.890   4.098  1.2720  0.8378 -1.2624
 3931SOL    HW315497   3.699   5.826   4.038  1.0595 -0.3159  0.3328
 3931SOL    MW415498   3.745   5.897   4.058  0.4986 -0.0326 -0.6572
 3932SOL     OW15499   4.258   5.100   5.572 -0.7323  0.1473  0.1350
 3932SOL    HW215500   4.183   5.061   5.528 -1.4230  0.2905  1.1389
 3932SOL    HW315501   4.319   5.028   5.585  0.2625  0.4065 -2.5089
 3932SOL    MW415502   4.256   5.086   5.568 -0.0918 -0.0130 -0.0977
 3933SOL     OW15503   4.340   5.359   4.231  0.2866  1.2833 -0.1174
 3933SOL    HW215504   4.407   5.423   4.255  0.5761  1.8702 -2.2616
 3933SOL    HW315505   4.265   5.413   4.205 -0.2214  0.6799  0.0682
 3933SOL    MW415506   4.339   5.375   4.231 -0.1362  0.0082 -0.0965
 3934SOL     OW15507   2.019   0.374   0.318 -0.2419 -0.4883  0.3097
 3934SOL    HW215508   2.052   0.362   0.407  1.7070 -0.9892 -0.4099
 3934SOL    HW315509   2.046   0.463   0.294 -2.2774  0.2950  0.7791
 3934SOL    MW415510   2.027   0.384   0.326 -1.2042  0.2242 -0.2583
 3935SOL     OW15511   2.375   5.578   4.082 -0.2368 -0.3573  0.0413
 3935SOL    HW215512   2.379   5.552   4.174 -0.1067 -0.4881 -0.0011
 3935SOL    HW315513   2.416   5.665   4.080 -0.5853 -0.1901  0.1674
 3935SOL    MW415514   2.381   5.586   4.094  0.3616 -0.0427  0.3995
 3936SOL     OW15515   4.973   3.450   4.273  0.1420 -0.3586 -0.5687
 3936SOL    HW215516   4.971   3.543   4.250  0.7283 -0.4868 -1.1496
 3936SOL    HW315517   5.045   3.442   4.336 -0.4458 -0.2811  0.1246
 3936SOL    MW415518   4.982   3.461   4.279 -0.1623  0.1213 -0.3387
 3937SOL     OW15519   4.348   6.195   5.902  0.3214 -0.2875 -0.1193
 3937SOL    HW215520   4.326   6.102   5.904  1.1798 -0.4892  0.1367
 3937SOL    HW315521   4.285   6.236   5.961  0.7341 -0.8819  0.7485
 3937SOL    MW415522   4.336   6.188   5.910 -0.1353 -0.0255  0.3089
 3938SOL     OW15523   6.020   2.935   0.994  0.2848 -0.1840  0.0013
 3938SOL    HW215524   6.031   2.882   0.915  0.1003 -0.3834  0.1086
 3938SOL    HW315525   5.930   2.967   0.989  0.3086 -0.1056  0.0736
 3938SOL    MW415526   6.010   2.932   0.983 -0.0201 -0.1218  0.4244
 3939SOL     OW15527   3.458   3.403   5.887 -0.0868 -0.6594  0.1460
 3939SOL    HW215528   3.390   3.337   5.879 -0.6283 -0.0226 -0.5931
 3939SOL    HW315529   3.460   3.448   5.802 -0.1049  0.6248  0.7914
 3939SOL    MW415530   3.449   3.400   5.875  0.7142 -0.0874 -0.2455
 3940SOL     OW15531   1.096   5.062   3.823 -0.1210 -0.2661 -0.7254
 3940SOL    HW215532   1.042   4.994   3.783 -1.0270  0.7483 -1.2878
 3940SOL    HW315533   1.186   5.032   3.809 -0.5045 -1.4904 -0.6853
 3940SOL    MW415534   1.101   5.049   3.816  0.4667  0.1261 -0.1390
 3941SOL     OW15535   6.173   5.728   6.210 -0.4106 -0.3329 -0.1271
 3941SOL    HW215536   6.095   5.754   6.161  0.3137  0.4264 -0.9068
 3941SOL    HW315537   6.229   5.805   6.208  0.3674 -0.8696  0.4287
 3941SOL    MW415538   6.170   5.742   6.204 -0.7379 -0.1001 -0.4041
 3942SOL     OW15539   2.327   1.166   3.656  0.0434 -0.3093 -0.0267
 3942SOL    HW215540   2.390   1.098   3.631  0.5438  0.0020  0.3680
 3942SOL    HW315541   2.285   1.132   3.735  1.7135  0.6666  1.3664
 3942SOL    MW415542   2.330   1.153   3.663  0.2497 -0.4476 -0.2082
 3943SOL     OW15543   0.431   6.142   2.594 -0.6096  0.1789  0.3799
 3943SOL    HW215544   0.527   6.146   2.598 -0.6684  0.8566  1.4513
 3943SOL    HW315545   0.410   6.049   2.604 -0.0144 -0.3407 -2.2101
 3943SOL    MW415546   0.441   6.130   2.596 -0.8567  0.1138  0.5805
 3944SOL     OW15547   5.332   5.951   4.081 -0.1290 -0.2783  0.2509
 3944SOL    HW215548   5.255   5.951   4.024  0.7618  0.6495 -1.0060
 3944SOL    HW315549   5.386   5.879   4.048  0.6446  0.6111 -0.4668
 3944SOL    MW415550   5.329   5.942   4.069 -0.6616 -0.2342 -0.0709
 3945SOL     OW15551   3.232   4.517   2.091 -0.1663 -0.0531 -0.2420
 3945SOL    HW215552   3.169   4.550   2.155 -2.7590  1.0494 -3.0805
 3945SOL    HW315553   3.230   4.422   2.102 -0.2026  0.1347  1.5564
 3945SOL    MW415554   3.223   4.508   2.101  0.4481  0.1826  0.7878
 3946SOL     OW15555   4.256   4.618   2.605 -0.4295  0.5130 -0.2478
 3946SOL    HW215556   4.176   4.596   2.654  0.1470  0.1115  0.5371
 3946SOL    HW315557   4.262   4.551   2.537  0.0965 -0.4590  0.7140
 3946SOL    MW415558   4.246   4.606   2.602 -0.0379  0.1320  0.6948
 3947SOL     OW15559   2.097   1.627   0.071 -0.0742  0.3060  0.1381
 3947SOL    HW215560   2.051   1.547   0.047  0.9228 -0.2623  0.0995
 3947SOL    HW315561   2.121   1.667  -0.013  0.5313 -0.0076  0.1547
 3947SOL    MW415562   2.094   1.622   0.057 -0.0084 -0.1579 -0.0658
 3948SOL     OW15563   2.281   3.788   4.848  0.1930 -0.2205  0.0363
 3948SOL    HW215564   2.210   3.800   4.912  0.4329 -1.6454  0.5906
 3948SOL    HW315565   2.352   3.842   4.882 -0.1526  0.1419  0.2046
 3948SOL    MW415566   2.281   3.797   4.861 -0.3901 -0.0394  0.3480
 3949SOL     OW15567   4.134   5.860   3.979 -0.1212  0.4143  0.1485
 3949SOL    HW215568   4.162   5.921   3.910 -0.3021 -1.5831 -1.7877
 3949SOL    HW315569   4.076   5.798   3.935 -0.1089 -1.0621  2.0659
 3949SOL    MW415570   4.130   5.860   3.964  0.1221  0.5172  0.7645
 3950SOL     OW15571   1.977   4.756   2.803 -1.1663 -0.1765  0.5697
 3950SOL    HW215572   1.984   4.662   2.816  1.7483 -0.4593 -1.9743
 3950SOL    HW315573   1.929   4.766   2.721 -0.2381  0.4800  0.0963
 3950SOL    MW415574   1.972   4.745   2.794  0.2362 -0.0285  0.4324
 3951SOL     OW15575   1.923   4.398   0.456 -0.0802  0.0413 -0.3641
 3951SOL    HW215576   1.904   4.305   0.469 -1.6796  0.4622  0.5948
 3951SOL    HW315577   1.997   4.416   0.514 -0.6344 -0.3517  0.4863
 3951SOL    MW415578   1.930   4.388   0.465 -0.2242  0.4908  0.4098
 3952SOL     OW15579   4.212   5.216   1.315  0.3267  0.4082  0.1326
 3952SOL    HW215580   4.136   5.207   1.258 -0.5523  2.5528  0.8608
 3952SOL    HW315581   4.284   5.175   1.267 -1.1587 -1.2467 -0.7777
 3952SOL    MW415582   4.212   5.209   1.301  0.1914  0.1906  0.0281
 3953SOL     OW15583   3.839   2.667   4.961  0.3077 -0.1399 -0.7388
 3953SOL    HW215584   3.917   2.722   4.973  1.8891 -2.5787  1.2525
 3953SOL    HW315585   3.848   2.599   5.028 -3.5427 -0.6018 -0.4763
 3953SOL    MW415586   3.851   2.666   4.972 -0.1396 -0.1155  0.3107
 3954SOL     OW15587   4.943   5.846   4.566 -0.2295 -0.7254  0.3609
 3954SOL    HW215588   5.004   5.892   4.623  1.5611  1.0395 -2.6679
 3954SOL    HW315589   4.862   5.897   4.570  0.4638  0.4339  0.0053
 3954SOL    MW415590   4.940   5.859   4.574  0.2412  0.3555 -0.5006
 3955SOL     OW15591   3.058   2.401   0.181 -0.0956  0.0093 -0.6505
 3955SOL    HW215592   3.144   2.432   0.153 -0.3499  1.0353 -0.3619
 3955SOL    HW315593   3.055   2.421   0.275 -0.8509  0.4914 -0.7669
 3955SOL    MW415594   3.069   2.408   0.190 -0.1348  0.2529 -0.1549
 3956SOL     OW15595   3.713   1.224   1.745 -0.3978  0.9010 -0.3157
 3956SOL    HW215596   3.628   1.207   1.784 -0.4618 -0.2231 -0.8959
 3956SOL    HW315597   3.770   1.245   1.819 -0.2124 -2.3262  0.6172
 3956SOL    MW415598   3.710   1.224   1.760 -0.0108 -0.3489  0.0727
 3957SOL     OW15599   2.262   6.127   3.573  0.2475 -0.1807  0.2489
 3957SOL    HW215600   2.226   6.085   3.651  0.7317 -0.3893  0.3592
 3957SOL    HW315601   2.185   6.150   3.520 -0.0112 -1.5448  0.0021
 3957SOL    MW415602   2.247   6.125   3.576 -0.3980  0.6920  0.3943
 3958SOL     OW15603   0.555   1.860   5.028  0.2907  0.4406 -0.2330
 3958SOL    HW215604   0.500   1.825   5.098 -0.7262 -1.3263 -1.8147
 3958SOL    HW315605   0.642   1.865   5.066 -0.6872  2.3561  2.0363
 3958SOL    MW415606   0.559   1.856   5.042  0.3843 -0.3588 -0.1565
 3959SOL     OW15607   0.787   0.127   3.144 -0.0008 -0.0362  0.1410
 3959SOL    HW215608   0.845   0.068   3.192  0.3780 -1.3944 -1.8510
 3959SOL    HW315609   0.847   0.184   3.094 -0.3748  1.5721  1.4574
 3959SOL    MW415610   0.803   0.127   3.143 -0.3843  0.1299 -0.5230
 3960SOL     OW15611   2.617   3.048   4.388  0.5954  0.2316  0.0722
 3960SOL    HW215612   2.530   3.014   4.412  0.5457 -0.0708 -0.5314
 3960SOL    HW315613   2.612   3.141   4.409  0.7793 -0.1258  1.8838
 3960SOL    MW415614   2.605   3.056   4.394 -0.1503 -0.5980  0.2320
 3961SOL     OW15615   1.007   1.238   6.053  0.1269  0.1266  0.2885
 3961SOL    HW215616   0.987   1.180   6.126  1.1030 -0.1630  0.3399
 3961SOL    HW315617   1.102   1.233   6.043  0.0634  0.5267 -0.7001
 3961SOL    MW415618   1.017   1.230   6.061  0.0713 -0.2136  0.4234
 3962SOL     OW15619   4.059   2.895   5.211  0.1050 -0.2576 -0.0388
 3962SOL    HW215620   4.009   2.823   5.249  1.2702 -0.4159  1.2645
 3962SOL    HW315621   4.151   2.870   5.223  0.5278  0.4679 -1.4923
 3962SOL    MW415622   4.065   2.882   5.217 -0.4592  0.1524  0.4410
 3963SOL     OW15623   2.192   1.101   4.731 -0.3021  0.5756  0.5904
 3963SOL    HW215624   2.182   1.196   4.737  0.0833  0.7701 -1.2052
 3963SOL    HW315625   2.286   1.086   4.744 -0.1522  0.5863 -0.4278
 3963SOL    MW415626   2.203   1.111   4.734 -0.9747  0.0811 -0.1809
 3964SOL     OW15627   5.014   2.935   5.393 -0.0409 -0.1906  0.2818
 3964SOL    HW215628   4.998   2.883   5.315  0.7935  0.2318 -0.1895
 3964SOL    HW315629   4.934   2.986   5.405  0.2550  0.6351 -1.0265
 3964SOL    MW415630   5.001   2.935   5.384 -0.1878 -0.1430 -0.8795
 3965SOL     OW15631   4.242   4.162   4.810  0.1062 -0.1253  0.2769
 3965SOL    HW215632   4.283   4.222   4.748  0.8263 -0.9037 -0.0137
 3965SOL    HW315633   4.267   4.194   4.896  0.9845 -0.3474  0.1090
 3965SOL    MW415634   4.251   4.174   4.813 -0.3598  0.1968 -0.0654
 3966SOL     OW15635   4.256   1.352   3.505 -0.5417 -0.3369  0.2782
 3966SOL    HW215636   4.237   1.266   3.543  2.3707 -2.4300 -2.5287
 3966SOL    HW315637   4.316   1.392   3.568  0.2547 -1.5856  0.3585
 3966SOL    MW415638   4.262   1.346   3.519 -0.3613  0.5881  0.2418
 3967SOL     OW15639   3.198   0.240   3.212  0.6720 -0.0559 -0.4349
 3967SOL    HW215640   3.244   0.156   3.212  1.0479  0.1371 -1.1313
 3967SOL    HW315641   3.161   0.247   3.124 -1.5377 -0.6341  0.3942
 3967SOL    MW415642   3.200   0.230   3.200  0.2973  0.1798  0.6885
 3968SOL     OW15643   0.206   4.949   1.444  0.2921  0.2635 -0.0110
 3968SOL    HW215644   0.151   4.880   1.482  0.0868 -0.0960 -0.9293
 3968SOL    HW315645   0.144   5.019   1.420 -0.1999 -1.0663 -3.1760
 3968SOL    MW415646   0.190   4.949   1.446  0.0874  0.4099 -0.5292
 3969SOL     OW15647   2.741   3.451   5.863  0.3896 -0.1681 -0.2331
 3969SOL    HW215648   2.693   3.455   5.946  2.0710 -2.7240  1.0036
 3969SOL    HW315649   2.824   3.496   5.882  0.7407 -0.6731 -0.5663
 3969SOL    MW415650   2.746   3.458   5.877  0.3848  0.4827  0.1170
 3970SOL     OW15651   2.023   5.494   6.237 -0.3365  0.1366  0.0023
 3970SOL    HW215652   2.095   5.475   6.297  0.0515 -1.3083 -0.8709
 3970SOL    HW315653   2.002   5.409   6.197 -1.3641  0.8449 -1.0323
 3970SOL    MW415654   2.030   5.480   6.240 -0.0757  0.5600 -0.4111
 3971SOL     OW15655   1.679   6.264   0.556 -0.1111  0.1169  0.5029
 3971SOL    HW215656   1.729   6.346   0.561 -0.9430  0.5764  1.6911
 3971SOL    HW315657   1.741   6.197   0.585  0.4420  0.3866 -0.0431
 3971SOL    MW415658   1.694   6.266   0.561  0.0500 -0.0240 -0.0989
 3972SOL     OW15659   2.251   1.512   2.248  0.5982 -0.0514 -0.5914
 3972SOL    HW215660   2.317   1.568   2.208 -0.7801  1.9729 -0.2124
 3972SOL    HW315661   2.178   1.513   2.187 -1.2771  2.5422  1.4531
 3972SOL    MW415662   2.250   1.520   2.235 -0.1651  0.2780 -0.6601
 3973SOL     OW15663   2.612   0.119   3.239 -0.4151 -0.4974 -0.0808
 3973SOL    HW215664   2.665   0.057   3.289  1.0791  0.8808  0.1154
 3973SOL    HW315665   2.534   0.132   3.292 -1.1039 -2.6953 -0.4555
 3973SOL    MW415666   2.609   0.113   3.252 -1.3272  0.2963  0.2528
 3974SOL     OW15667   4.248   2.236   1.037  0.2008  0.7050  0.0688
 3974SOL    HW215668   4.157   2.213   1.019  0.2232  0.6185  0.0679
 3974SOL    HW315669   4.254   2.239   1.133  0.1714  0.8124  0.0667
 3974SOL    MW415670   4.237   2.233   1.047  0.4191  0.3365  0.1377
 3975SOL     OW15671   0.383   1.781   5.737  0.3581  0.1703 -0.7049
 3975SOL    HW215672   0.415   1.860   5.779 -0.7560  1.1827 -1.6911
 3975SOL    HW315673   0.458   1.721   5.737  1.1473  1.1397  0.2459
 3975SOL    MW415674   0.397   1.783   5.742 -0.7032 -0.1013  0.2344
 3976SOL     OW15675   0.527   3.676   5.537  0.9394 -0.2559  0.0822
 3976SOL    HW215676   0.560   3.658   5.449  0.6702 -0.2330 -0.0257
 3976SOL    HW315677   0.568   3.759   5.562 -0.1595  0.5345 -0.6371
 3976SOL    MW415678   0.537   3.685   5.528 -0.0164  0.3354 -0.0981
 3977SOL     OW15679   1.029   1.687   5.343 -0.6861  0.0951 -0.4567
 3977SOL    HW215680   1.006   1.728   5.426 -1.0332  1.5812 -1.2367
 3977SOL    HW315681   1.124   1.675   5.348 -0.5431  1.1574 -0.2352
 3977SOL    MW415682   1.039   1.691   5.354 -0.3244  0.2888 -0.2089
 3978SOL     OW15683   5.190   2.782   1.097  0.7521  0.5622  0.0451
 3978SOL    HW215684   5.197   2.719   1.169  0.7472  1.4160  0.8178
 3978SOL    HW315685   5.267   2.765   1.043  1.7936  1.1173  1.2782
 3978SOL    MW415686   5.201   2.771   1.100 -0.0037  0.0581 -0.5160
 3979SOL     OW15687   1.761   1.192   2.882  0.2751 -0.1500 -0.0697
 3979SOL    HW215688   1.746   1.168   2.974  2.9435 -0.9415  0.2211
 3979SOL    HW315689   1.673   1.190   2.843 -1.2105  1.8244  2.7643
 3979SOL    MW415690   1.747   1.189   2.889  0.2332  0.1818  0.0034
 3980SOL     OW15691   0.424   1.634   3.109  0.0784  0.3817  0.2158
 3980SOL    HW215692   0.427   1.589   3.024 -2.1152  2.1423 -0.8926
 3980SOL    HW315693   0.353   1.592   3.156  1.7487 -1.0763  1.5837
 3980SOL    MW415694   0.415   1.623   3.104  0.1065  0.1432 -0.5990
 3981SOL     OW15695   0.965   5.375   6.172  0.3493 -0.5701 -0.7308
 3981SOL    HW215696   0.877   5.338   6.185  0.0892  0.1403 -0.3818
 3981SOL    HW315697   1.011   5.310   6.120 -0.9891 -0.1291 -2.5841
 3981SOL    MW415698   0.959   5.362   6.167  0.3642  0.2338  0.1371
 3982SOL     OW15699   0.430   1.682   2.289 -0.6131  0.1664 -0.3500
 3982SOL    HW215700   0.452   1.589   2.289  1.9502  0.6558  1.5528
 3982SOL    HW315701   0.459   1.715   2.204 -1.1518 -0.6847 -0.8656
 3982SOL    MW415702   0.437   1.674   2.278 -0.1655  0.0498  0.0045
 3983SOL     OW15703   3.378   1.979   2.052  0.4618  0.1227 -0.3848
 3983SOL    HW215704   3.434   1.953   1.978 -0.1440 -1.4389 -0.3180
 3983SOL    HW315705   3.349   1.897   2.091 -0.6027  0.9194  0.5694
 3983SOL    MW415706   3.382   1.965   2.047 -0.2443 -0.5949 -0.1731
 3984SOL     OW15707   3.078   2.342   4.758 -0.8491  0.4543  0.5987
 3984SOL    HW215708   3.124   2.355   4.841  2.3716 -0.5957 -0.8472
 3984SOL    HW315709   3.109   2.257   4.726 -1.5288  1.0608 -1.9155
 3984SOL    MW415710   3.088   2.332   4.765  0.7174 -0.1285 -0.2930
 3985SOL     OW15711   4.452   5.358   5.635 -0.1785 -0.1811  0.2353
 3985SOL    HW215712   4.428   5.265   5.644  0.6893 -0.4723 -0.2818
 3985SOL    HW315713   4.443   5.375   5.541  0.7627 -0.0668  0.1591
 3985SOL    MW415714   4.448   5.348   5.624 -0.2516  0.2210  0.4735
 3986SOL     OW15715   3.568   5.329   5.832 -0.1314  0.2288  0.3244
 3986SOL    HW215716   3.582   5.257   5.770 -1.2627 -0.2682  0.6361
 3986SOL    HW315717   3.480   5.361   5.812 -1.4183 -1.3116  3.0282
 3986SOL    MW415718   3.558   5.324   5.821  0.5729 -0.0536  0.3037
 3987SOL     OW15719   5.313   1.735   6.298  0.2470 -0.4549 -0.1663
 3987SOL    HW215720   5.295   1.767   6.387  0.2989 -0.9157  0.0114
 3987SOL    HW315721   5.237   1.765   6.247  0.4252  0.1879 -0.0656
 3987SOL    MW415722   5.300   1.743   6.303 -0.0153 -0.6632 -0.3311
 3988SOL     OW15723   3.905   0.081   5.291 -0.2423 -0.3224  0.5135
 3988SOL    HW215724   3.918  -0.006   5.254 -0.1647  0.3425 -1.1078
 3988SOL    HW315725   3.993   0.119   5.295 -0.2541 -0.3653  1.3786
 3988SOL    MW415726   3.918   0.074   5.287 -0.8455 -0.5406  0.3674
 3989SOL     OW15727   2.579   0.365   1.823 -0.6080 -0.4062  0.1523
 3989SOL    HW215728   2.573   0.301   1.752 -1.6695  0.4037 -0.5115
 3989SOL    HW315729   2.569   0.312   1.902  0.7793 -1.3449 -0.2582
 3989SOL    MW415730   2.577   0.350   1.824  0.5474 -0.6071  0.0978
 3990SOL     OW15731   5.536   0.733   5.085  0.3616 -0.2215 -0.3857
 3990SOL    HW215732   5.608   0.684   5.125 -0.5706 -0.3010  1.2643
 3990SOL    HW315733   5.541   0.711   4.992  2.9432  0.3862 -0.4581
 3990SOL    MW415734   5.546   0.724   5.078  0.3249  0.2634  0.3162
 3991SOL     OW15735   0.353   2.652   1.316  0.3493  0.1992  0.2867
 3991SOL    HW215736   0.294   2.590   1.273 -0.1506 -0.1145  1.3794
 3991SOL    HW315737   0.406   2.688   1.245 -0.3785 -0.3648 -0.5677
 3991SOL    MW415738   0.352   2.648   1.301  0.0389 -0.4075 -0.0285
 3992SOL     OW15739   3.204   0.099   6.337  0.1091 -0.4170  0.1631
 3992SOL    HW215740   3.225   0.055   6.255 -0.0529  0.3615 -0.3061
 3992SOL    HW315741   3.156   0.034   6.388  0.1336 -0.8740 -0.3990
 3992SOL    MW415742   3.200   0.085   6.333  0.0330  0.1608 -0.0218
 3993SOL     OW15743   2.277   1.600   5.921  0.6696  0.2821  0.0534
 3993SOL    HW215744   2.329   1.680   5.933  0.0870  0.8012 -0.8006
 3993SOL    HW315745   2.293   1.575   5.830 -0.6530  0.5071 -0.2575
 3993SOL    MW415746   2.286   1.607   5.910  0.0128  0.2184  0.1883
 3994SOL     OW15747   1.581   6.094   6.113 -0.5918  0.2863 -0.2246
 3994SOL    HW215748   1.543   6.006   6.107  0.5957 -0.2711  0.1502
 3994SOL    HW315749   1.584   6.125   6.022  0.8102 -0.8702 -0.5984
 3994SOL    MW415750   1.576   6.087   6.100  0.3417  0.3307  0.4699
 3995SOL     OW15751   5.235   4.714   2.293  0.0351  0.7982 -0.9082
 3995SOL    HW215752   5.261   4.800   2.260 -1.5307  1.0586 -1.5440
 3995SOL    HW315753   5.180   4.732   2.369 -0.1931  0.3589 -0.9629
 3995SOL    MW415754   5.231   4.727   2.299  0.3402  0.1390 -0.5885
 3996SOL     OW15755   4.999   5.098   4.577  0.1166  0.6679  0.3176
 3996SOL    HW215756   4.905   5.117   4.581  0.0118  0.0081  1.3620
 3996SOL    HW315757   5.033   5.130   4.660  0.4855 -0.7492  0.7413
 3996SOL    MW415758   4.991   5.105   4.588  0.3964 -0.5190  0.0606
 3997SOL     OW15759   5.215   0.316   5.973  0.1433 -0.4248  0.1153
 3997SOL    HW215760   5.281   0.264   5.926  1.8404  1.5232  0.1776
 3997SOL    HW315761   5.178   0.374   5.907  2.1113  1.9131  0.9154
 3997SOL    MW415762   5.219   0.317   5.958  0.3672  0.3933 -0.5092
 3998SOL     OW15763   1.682   4.091   3.639 -0.4395 -0.1870  0.2614
 3998SOL    HW215764   1.706   4.099   3.547 -0.7353  0.2028  0.2176
 3998SOL    HW315765   1.764   4.067   3.683 -0.4676 -1.2236 -0.2137
 3998SOL    MW415766   1.696   4.089   3.633  0.4865  0.2743 -0.8758
 3999SOL     OW15767   0.468   2.257   1.278  0.1234 -0.0658 -0.2627
 3999SOL    HW215768   0.410   2.318   1.233  0.5850  0.7798  0.2517
 3999SOL    HW315769   0.556   2.287   1.254  0.4154  0.9728  1.8557
 3999SOL    MW415770   0.472   2.269   1.269  0.1497  0.2527 -0.3692
 4000SOL     OW15771   2.422   5.435   4.885 -0.0046 -0.1309  0.2283
 4000SOL    HW215772   2.401   5.354   4.837  0.1842  0.5721 -1.0935
 4000SOL    HW315773   2.336   5.472   4.907 -0.1227  0.0371 -0.4684
 4000SOL    MW415774   2.408   5.429   4.881  0.1962 -0.0647 -0.3750
 4001SOL     OW15775   6.367   2.666   3.549  0.2118  0.0250 -0.4560
 4001SOL    HW215776   6.370   2.761   3.554  0.7585  0.1535 -2.3232
 4001SOL    HW315777   6.446   2.637   3.595 -0.0642  0.4377  0.2987
 4001SOL    MW415778   6.378   2.674   3.556  0.5036  0.0397 -0.1585
 4002SOL     OW15779   5.830   0.358   5.255 -0.4517  0.2535  0.4704
 4002SOL    HW215780   5.807   0.451   5.254 -2.0904 -0.1273 -0.0368
 4002SOL    HW315781   5.747   0.313   5.274  0.5367 -1.0591  1.9919
 4002SOL    MW415782   5.816   0.364   5.258  0.1572  0.0714 -0.0509
 4003SOL     OW15783   5.019   4.792   0.834 -0.0338  0.0788  0.1798
 4003SOL    HW215784   5.025   4.820   0.926 -0.6417  0.8837 -0.0151
 4003SOL    HW315785   4.932   4.818   0.807 -0.8946 -2.5599  0.1337
 4003SOL    MW415786   5.009   4.799   0.843  1.0048 -0.8193 -1.0084
 4004SOL     OW15787   1.552   5.314   1.016  0.5080 -0.4184  0.3544
 4004SOL    HW215788   1.494   5.376   1.059 -0.4723 -1.4565  0.5856
 4004SOL    HW315789   1.592   5.264   1.088 -0.3153 -1.4341  0.1401
 4004SOL    MW415790   1.550   5.315   1.031  0.4328  0.2774  0.2205
 4005SOL     OW15791   2.219   2.333   0.656  0.0185 -0.0238 -0.6554
 4005SOL    HW215792   2.211   2.390   0.580  0.9910 -0.9115 -1.4624
 4005SOL    HW315793   2.294   2.368   0.705  0.6856 -0.6410 -1.2094
 4005SOL    MW415794   2.228   2.345   0.653  0.7523 -0.5830 -0.3666
 4006SOL     OW15795   4.519   4.083   4.768 -0.1002 -0.1872 -0.3543
 4006SOL    HW215796   4.545   4.011   4.825 -1.2523  0.0681  0.5288
 4006SOL    HW315797   4.425   4.093   4.784 -0.3256  0.3043 -1.8363
 4006SOL    MW415798   4.510   4.075   4.777  0.7027 -0.5095  0.0783
 4007SOL     OW15799   5.025   5.756   0.197 -0.6714  0.4565  0.0881
 4007SOL    HW215800   4.948   5.736   0.144 -1.9515  1.7732  1.3540
 4007SOL    HW315801   5.066   5.831   0.153  0.1365 -0.4617 -0.7809
 4007SOL    MW415802   5.020   5.763   0.184  0.0926  0.1268 -0.2385
 4008SOL     OW15803   3.148   5.604   2.942  0.4157  0.0890  0.3706
 4008SOL    HW215804   3.070   5.659   2.944  0.7807  0.8617 -2.3709
 4008SOL    HW315805   3.214   5.652   2.992 -0.3379  0.2550  1.2315
 4008SOL    MW415806   3.147   5.618   2.949 -0.0191 -0.1878 -0.3630
 4009SOL     OW15807   4.764   1.497   1.454  0.9509  0.3675 -0.2972
 4009SOL    HW215808   4.678   1.500   1.412 -0.2241  3.0067  1.9879
 4009SOL    HW315809   4.819   1.556   1.402 -0.1324  2.6095  0.9642
 4009SOL    MW415810   4.760   1.505   1.441 -0.1286  0.5939  0.6427
 4010SOL     OW15811   2.497   2.816   5.961  0.4974 -0.6248 -0.5844
 4010SOL    HW215812   2.477   2.727   5.932  1.1290 -0.5649 -1.2522
 4010SOL    HW315813   2.478   2.870   5.884  0.7612 -0.2696 -0.3987
 4010SOL    MW415814   2.492   2.811   5.947  0.3262  0.1650 -0.3328
 4011SOL     OW15815   2.855   2.738   4.527  0.3913  0.7996  0.2251
 4011SOL    HW215816   2.822   2.814   4.574 -3.0188 -1.0933  1.2226
 4011SOL    HW315817   2.880   2.676   4.595 -2.1907 -0.9956 -0.2856
 4011SOL    MW415818   2.854   2.740   4.542  0.0279 -0.4807 -0.1631
 4012SOL     OW15819   0.925   1.397   4.857 -0.1230 -0.0004 -0.4196
 4012SOL    HW215820   1.004   1.416   4.807 -0.5498  0.3066 -0.9873
 4012SOL    HW315821   0.928   1.302   4.872  0.3066 -0.0019 -0.5040
 4012SOL    MW415822   0.936   1.387   4.852  0.9227 -0.4730 -0.1784
 4013SOL     OW15823   1.154   5.189   4.292 -0.9329 -0.1782 -0.2912
 4013SOL    HW215824   1.105   5.139   4.227 -1.1051  0.4579 -0.6559
 4013SOL    HW315825   1.246   5.179   4.266 -1.1309  2.5580 -2.4977
 4013SOL    MW415826   1.160   5.181   4.280 -0.4327 -0.1781 -0.6905
 4014SOL     OW15827   0.340   1.775   3.420  0.0753  0.3213 -0.3641
 4014SOL    HW215828   0.276   1.811   3.482  0.0972  0.5323 -0.4604
 4014SOL    HW315829   0.329   1.681   3.425  0.2142  0.3262  0.1129
 4014SOL    MW415830   0.330   1.768   3.429 -0.0619  0.0317  0.3836
 4015SOL     OW15831   5.492   1.370   6.300  0.0670  0.4214  0.2155
 4015SOL    HW215832   5.548   1.361   6.223 -0.3503 -0.9247  0.0482
 4015SOL    HW315833   5.407   1.397   6.265  0.1776  0.9293  0.3252
 4015SOL    MW415834   5.488   1.372   6.285  0.2278 -0.3973  0.0535
 4016SOL     OW15835   1.955   4.134   6.270  0.1504  0.1982 -0.1333
 4016SOL    HW215836   2.009   4.199   6.314  0.6425  0.8807 -1.6622
 4016SOL    HW315837   1.913   4.182   6.199 -2.1676 -0.4214  0.7419
 4016SOL    MW415838   1.957   4.149   6.266 -0.0808 -0.0878 -0.2429
 4017SOL     OW15839   0.577   6.444   2.757  0.2476 -0.3076 -0.1459
 4017SOL    HW215840   0.557   6.395   2.837 -1.4108  1.3915  0.5636
 4017SOL    HW315841   0.667   6.474   2.770  0.3536 -0.9217  0.6154
 4017SOL    MW415842   0.586   6.442   2.769  0.4509  0.0800  0.2794
 4018SOL     OW15843   2.209   6.398   1.478 -0.5762  0.6434  0.3017
 4018SOL    HW215844   2.140   6.341   1.443  0.5765  0.9839 -2.8060
 4018SOL    HW315845   2.162   6.472   1.516 -1.9391  0.1359 -0.3194
 4018SOL    MW415846   2.194   6.400   1.479 -0.1512  0.4564  0.1062
 4019SOL     OW15847   3.115   4.797   4.396 -0.2981 -0.4772  0.5930
 4019SOL    HW215848   3.076   4.864   4.340 -0.3033  0.3797  1.5920
 4019SOL    HW315849   3.178   4.844   4.450  0.5205 -1.4745  0.5445
 4019SOL    MW415850   3.118   4.812   4.395  0.1571 -0.1764  0.0145
 4020SOL     OW15851   0.884   2.615   2.660 -0.1928 -0.8933 -0.3749
 4020SOL    HW215852   0.824   2.661   2.718  1.6532 -2.0522  2.7089
 4020SOL    HW315853   0.828   2.553   2.612 -1.7787 -0.0137  0.2675
 4020SOL    MW415854   0.868   2.613   2.661  0.2440 -0.1777  0.4062
 4021SOL     OW15855   3.065   0.770   4.170  0.1065  0.1961  0.2331
 4021SOL    HW215856   3.000   0.723   4.117 -0.4279  1.1090  0.0418
 4021SOL    HW315857   3.060   0.730   4.256 -0.9323  0.4309  0.2946
 4021SOL    MW415858   3.056   0.759   4.174 -0.1450  0.2920  0.0448
 4022SOL     OW15859   6.074   0.320   2.029  0.4046  0.0889  0.5341
 4022SOL    HW215860   6.160   0.305   1.991  0.8679  0.6045  1.3661
 4022SOL    HW315861   6.036   0.232   2.039  0.2233 -0.0701 -1.1663
 4022SOL    MW415862   6.080   0.306   2.025  0.3785 -0.2223 -0.1524
 4023SOL     OW15863   6.170   0.494   1.132 -0.0646 -0.2950  0.6448
 4023SOL    HW215864   6.117   0.570   1.159  1.0549  0.0101  2.1112
 4023SOL    HW315865   6.142   0.477   1.042 -1.0070  1.2845  0.5863
 4023SOL    MW415866   6.159   0.502   1.124  0.0814 -0.1397 -0.1048
 4024SOL     OW15867   1.267   1.267   4.990  0.0407 -0.2005 -0.5763
 4024SOL    HW215868   1.256   1.316   4.908  1.1173  0.3099 -0.4257
 4024SOL    HW315869   1.217   1.317   5.054  0.2969  0.1312 -0.6364
 4024SOL    MW415870   1.259   1.280   4.987 -0.4594 -0.3516  0.0019
 4025SOL     OW15871   5.756   0.266   2.554  0.1196 -0.2044 -0.2429
 4025SOL    HW215872   5.761   0.249   2.460 -1.1293 -1.4570 -0.1213
 4025SOL    HW315873   5.823   0.332   2.570 -0.0099  0.4380 -2.0931
 4025SOL    MW415874   5.766   0.272   2.544  0.1904  0.1752  0.3798
 4026SOL     OW15875   3.003   1.218   0.293  0.7591  0.0310 -0.2141
 4026SOL    HW215876   3.033   1.171   0.215  2.0081 -1.1059  0.8692
 4026SOL    HW315877   3.038   1.306   0.283  1.3784 -0.2555 -0.7136
 4026SOL    MW415878   3.012   1.223   0.282 -0.2583 -0.3871  0.4500
 4027SOL     OW15879   1.655   6.260   5.272 -0.0828 -0.5940 -0.2792
 4027SOL    HW215880   1.670   6.350   5.301 -0.8544 -0.6954  0.4862
 4027SOL    HW315881   1.568   6.261   5.233 -1.6965 -1.6889  2.9551
 4027SOL    MW415882   1.646   6.272   5.271  0.1111  0.6354  0.6996
 4028SOL     OW15883   2.471   3.669   2.654 -0.3470  0.2579 -0.1941
 4028SOL    HW215884   2.530   3.712   2.715 -1.4192  1.7377 -0.1611
 4028SOL    HW315885   2.413   3.616   2.709  0.6932 -0.9462 -0.2047
 4028SOL    MW415886   2.471   3.668   2.669 -0.1538 -0.1296 -0.1561
 4029SOL     OW15887   4.241   0.671   1.769 -0.3800  0.6255 -0.5739
 4029SOL    HW215888   4.171   0.722   1.807  1.7275  1.7226  2.1433
 4029SOL    HW315889   4.266   0.608   1.837  1.1157  0.1221 -1.5170
 4029SOL    MW415890   4.235   0.669   1.783  0.2167 -0.1630  0.1156
 4030SOL     OW15891   4.839   0.924   6.145 -0.3056  0.5221 -0.3763
 4030SOL    HW215892   4.779   0.998   6.160 -1.1673 -0.0500 -0.9176
 4030SOL    HW315893   4.847   0.919   6.050 -1.2909 -0.8721 -0.4167
 4030SOL    MW415894   4.832   0.933   6.134 -0.4210 -0.0358  0.5079
 4031SOL     OW15895   3.757   5.280   3.072 -0.0110 -0.6397  0.3754
 4031SOL    HW215896   3.804   5.331   3.138 -1.3218 -0.1404  0.9603
 4031SOL    HW315897   3.742   5.341   3.001  0.3010 -0.8230  0.1505
 4031SOL    MW415898   3.761   5.295   3.072  0.3542 -0.0808  0.2447
 4032SOL     OW15899   5.537   4.956   3.424  0.3950  0.0543  0.2614
 4032SOL    HW215900   5.500   5.027   3.477 -1.9854 -1.6074  0.9721
 4032SOL    HW315901   5.608   4.921   3.478  1.7428  1.9627 -0.1915
 4032SOL    MW415902   5.541   4.961   3.438  0.0896 -0.2842 -0.1848
 4033SOL     OW15903   5.010   3.577   6.429 -0.4014 -0.4187 -0.6564
 4033SOL    HW215904   4.923   3.600   6.461  0.3630  1.5284  0.1233
 4033SOL    HW315905   5.070   3.620   6.489  1.0952  0.0172 -2.4026
 4033SOL    MW415906   5.006   3.586   6.441 -0.1163  0.0476 -0.3117
 4034SOL     OW15907   3.287   3.489   4.029  0.3471 -0.6250 -0.4043
 4034SOL    HW215908   3.366   3.487   4.083  0.8554 -0.6788 -1.1456
 4034SOL    HW315909   3.299   3.418   3.966 -0.1396 -0.4156 -0.7364
 4034SOL    MW415910   3.299   3.480   4.028 -0.2878  0.1130  0.5881
 4035SOL     OW15911   3.373   4.818   3.516 -0.1424  0.2212 -0.1881
 4035SOL    HW215912   3.455   4.790   3.557  0.3636 -0.2003 -1.4318
 4035SOL    HW315913   3.381   4.913   3.510 -0.1119  0.2608  0.4502
 4035SOL    MW415914   3.385   4.827   3.521  0.3767 -0.0687  0.3349
 4036SOL     OW15915   5.628   2.600   3.271  0.0101 -0.2527 -0.4435
 4036SOL    HW215916   5.672   2.557   3.198  1.2117 -0.4391  0.3580
 4036SOL    HW315917   5.616   2.691   3.242 -0.6326 -0.6154 -1.3320
 4036SOL    MW415918   5.632   2.607   3.257 -0.2200 -0.2783 -0.7161
 4037SOL     OW15919   3.458   1.112   0.339  0.5841  0.1868  0.8163
 4037SOL    HW215920   3.425   1.199   0.319  1.7419  0.4569  0.0101
 4037SOL    HW315921   3.397   1.078   0.405 -1.3645  0.6054 -0.6553
 4037SOL    MW415922   3.446   1.119   0.345 -0.4426  0.2904  0.1542
 4038SOL     OW15923   3.204   5.830   0.405  0.0651  1.0059 -0.0382
 4038SOL    HW215924   3.240   5.811   0.318  0.8063  0.7698  0.3128
 4038SOL    HW315925   3.189   5.744   0.444  1.4373  1.0937  0.7481
 4038SOL    MW415926   3.207   5.816   0.399 -0.3278 -0.3954  0.4572
 4039SOL     OW15927   3.776   2.213   2.322  0.2799  0.0348 -0.0388
 4039SOL    HW215928   3.744   2.302   2.310  1.3524  0.4064 -0.3225
 4039SOL    HW315929   3.811   2.188   2.236 -0.3438 -0.8135 -0.0680
 4039SOL    MW415930   3.777   2.221   2.309 -0.2704  0.1610 -0.3071
 4040SOL     OW15931   1.776   4.290   5.455 -0.2045  0.3982 -0.5529
 4040SOL    HW215932   1.773   4.202   5.417  0.7074 -0.0862  0.4388
 4040SOL    HW315933   1.867   4.301   5.483 -0.3569  1.5766 -0.4576
 4040SOL    MW415934   1.788   4.280   5.454 -0.7222 -0.4289 -0.0699
 4041SOL     OW15935   2.521   4.646   4.312 -0.3160  0.2751 -0.4015
 4041SOL    HW215936   2.572   4.715   4.354 -1.3156  3.1133 -3.3522
 4041SOL    HW315937   2.432   4.658   4.345 -0.1234 -1.1732  0.7498
 4041SOL    MW415938   2.516   4.657   4.322 -0.0544 -0.2702 -0.0109
 4042SOL     OW15939   0.294   2.564   2.448 -0.2262  0.7743  0.1485
 4042SOL    HW215940   0.325   2.479   2.482  0.6372  1.0345  0.0233
 4042SOL    HW315941   0.287   2.619   2.526 -1.4698  0.3963  0.3272
 4042SOL    MW415942   0.297   2.560   2.463  0.4061  0.2005  0.1949
 4043SOL     OW15943   4.126   1.580   4.533  0.7534 -0.1918  0.2836
 4043SOL    HW215944   4.196   1.573   4.598 -0.9250  0.2390  2.2216
 4043SOL    HW315945   4.154   1.652   4.476  0.8797  1.5716  2.4141
 4043SOL    MW415946   4.139   1.589   4.534  0.2476  0.5300 -0.5818
 4044SOL     OW15947   6.302   1.272   2.615 -0.4900 -0.7442  0.5492
 4044SOL    HW215948   6.246   1.268   2.538 -1.2999 -0.0903  1.0745
 4044SOL    HW315949   6.367   1.339   2.595  0.7303 -2.1708 -0.4393
 4044SOL    MW415950   6.303   1.281   2.603 -0.2094  0.2560  0.1214
 4045SOL     OW15951   0.231   6.433   4.489 -0.5260  0.4210 -0.0525
 4045SOL    HW215952   0.261   6.379   4.416 -0.0463 -1.1861  1.2637
 4045SOL    HW315953   0.311   6.460   4.534 -0.7422  2.4392 -0.7507
 4045SOL    MW415954   0.245   6.429   4.485 -0.1568  0.7052  0.1736
 4046SOL     OW15955   4.911   4.511   2.301 -0.0685 -0.8024  0.0577
 4046SOL    HW215956   4.849   4.497   2.373  0.5845  0.7915  0.9715
 4046SOL    HW315957   4.985   4.455   2.323  0.5998  0.5049  1.2502
 4046SOL    MW415958   4.912   4.502   2.313  0.5618 -0.4361 -0.6553
 4047SOL     OW15959   6.179   3.290   4.085 -0.1295 -0.2985 -0.3037
 4047SOL    HW215960   6.150   3.280   3.994 -0.7212 -0.0792 -0.1456
 4047SOL    HW315961   6.146   3.212   4.129 -0.0917 -0.2660 -0.2184
 4047SOL    MW415962   6.171   3.279   4.079 -0.7864  0.0591 -0.1674
 4048SOL     OW15963   2.079   5.424   4.541 -0.2999 -0.6464  0.2064
 4048SOL    HW215964   2.138   5.488   4.581  0.1666 -0.4359 -0.7644
 4048SOL    HW315965   2.137   5.352   4.515 -0.4716 -0.5033 -0.6196
 4048SOL    MW415966   2.095   5.423   4.543 -0.5593 -0.6795  0.3840
 4049SOL     OW15967   6.358   2.488   4.908  0.3566  0.3203 -0.6085
 4049SOL    HW215968   6.387   2.579   4.907 -1.1033  0.8151 -0.7559
 4049SOL    HW315969   6.318   2.476   4.994  1.6597 -0.5773 -0.1068
 4049SOL    MW415970   6.357   2.498   4.919  0.2513 -0.5584 -0.2242
 4050SOL     OW15971   0.827   4.624   0.007 -0.1737 -0.5317  0.0667
 4050SOL    HW215972   0.823   4.665   0.094  0.9361  0.8426 -0.4969
 4050SOL    HW315973   0.785   4.539   0.019  0.1081 -0.4446  1.9992
 4050SOL    MW415974   0.821   4.618   0.020  0.1655 -0.1909  0.0006
 4051SOL     OW15975   4.130   0.840   5.688  0.1551  0.0711 -0.6813
 4051SOL    HW215976   4.053   0.831   5.744 -0.2090  1.8760 -0.8422
 4051SOL    HW315977   4.108   0.792   5.609 -0.7737  0.4911 -0.6847
 4051SOL    MW415978   4.117   0.833   5.685  0.8800 -0.1877  0.0869
 4052SOL     OW15979   5.924   4.634   3.557 -0.4696 -0.0333  0.0148
 4052SOL    HW215980   6.000   4.676   3.597  0.0995  0.9249 -1.9461
 4052SOL    HW315981   5.881   4.589   3.629  0.8218  1.0835  1.5563
 4052SOL    MW415982   5.929   4.633   3.571  0.1867  0.4763  0.0699
 4053SOL     OW15983   2.519   4.372   4.875 -0.6669  0.4074  0.6433
 4053SOL    HW215984   2.429   4.400   4.888 -0.5478  0.1676  2.1086
 4053SOL    HW315985   2.549   4.346   4.962  0.1679 -1.4294 -0.1435
 4053SOL    MW415986   2.511   4.372   4.888  0.0330 -0.5097  0.5536
 4054SOL     OW15987   3.210   6.157   0.730  0.9456 -0.1421 -0.3301
 4054SOL    HW215988   3.159   6.233   0.757  1.5445  0.5196 -1.0251
 4054SOL    HW315989   3.150   6.104   0.678  0.7140  0.1767 -0.3845
 4054SOL    MW415990   3.196   6.160   0.727  0.1322  0.2695 -0.3179
 4055SOL     OW15991   4.358   4.324   2.121 -0.4378  0.1197 -0.1042
 4055SOL    HW215992   4.312   4.241   2.138 -1.1636  0.4249 -0.5473
 4055SOL    HW315993   4.367   4.364   2.207 -0.7248 -0.0973  0.0315
 4055SOL    MW415994   4.353   4.318   2.135 -0.2349 -0.1971  0.1004
 4056SOL     OW15995   2.932   5.764   2.944  0.0411  0.1373  0.2225
 4056SOL    HW215996   2.865   5.772   3.012 -0.7849 -0.8330 -0.4638
 4056SOL    HW315997   2.919   5.841   2.888 -2.5425 -1.5119 -1.6541
 4056SOL    MW415998   2.922   5.775   2.945  0.3363 -0.4622 -0.4380
 4057SOL     OW15999   1.594   1.734   2.417  0.4270 -0.0252  0.1495
 4057SOL    HW216000   1.564   1.696   2.499 -1.7542 -0.3731 -0.7379
 4057SOL    HW316001   1.547   1.686   2.349  2.1726  0.2346 -1.3481
 4057SOL    MW416002   1.584   1.723   2.418 -0.4285 -0.1507  1.1242
 4058SOL     OW16003   3.176   4.891   5.350 -0.1991  0.4316  0.2604
 4058SOL    HW216004   3.084   4.876   5.372  0.7248 -1.4683  3.6368
 4058SOL    HW316005   3.206   4.809   5.312  0.0516  1.2197 -1.3300
 4058SOL    MW416006   3.168   4.878   5.348 -0.1523 -0.9693  0.0373
 4059SOL     OW16007   1.383   3.033   2.751 -0.5111  0.0060 -0.2530
 4059SOL    HW216008   1.287   3.035   2.758 -0.5079  0.2024 -0.2534
 4059SOL    HW316009   1.409   2.958   2.804 -0.3385  2.5724  3.6987
 4059SOL    MW416010   1.374   3.023   2.759  0.6622 -0.5790 -0.2143
 4060SOL     OW16011   3.115   1.980   0.386  0.7668  0.0356 -0.4690
 4060SOL    HW216012   3.141   1.890   0.407 -0.4585  0.2714  2.4819
 4060SOL    HW316013   3.042   1.970   0.325  0.8920 -0.9380 -0.4782
 4060SOL    MW416014   3.109   1.966   0.381  0.0836 -0.6307  0.2270
 4061SOL     OW16015   0.171   5.226   0.674  0.2789 -0.7682 -0.2098
 4061SOL    HW216016   0.131   5.145   0.705  0.1496 -0.8420 -0.5616
 4061SOL    HW316017   0.155   5.226   0.580  0.4114 -0.4073 -0.2345
 4061SOL    MW416018   0.164   5.215   0.666 -0.0022  0.4803  0.0272
 4062SOL     OW16019   2.070   5.994   2.138  0.1791 -0.0342  0.2626
 4062SOL    HW216020   2.103   5.972   2.050  0.3268 -0.2991  0.3828
 4062SOL    HW316021   2.008   5.925   2.158 -1.6063  1.2489 -0.5730
 4062SOL    MW416022   2.066   5.982   2.129  0.6066  0.4386 -0.1315
 4063SOL     OW16023   2.557   1.404   1.544 -0.3947 -0.4865 -0.3996
 4063SOL    HW216024   2.541   1.449   1.627  0.3017 -0.3491 -0.3414
 4063SOL    HW316025   2.469   1.395   1.506 -0.4588  2.7221 -1.3512
 4063SOL    MW416026   2.543   1.409   1.550 -0.1164  0.0925 -0.1391
 4064SOL     OW16027   5.388   3.355   3.974 -0.1908  0.1942 -0.2633
 4064SOL    HW216028   5.479   3.383   3.985  0.2359 -1.3687  0.4880
 4064SOL    HW316029   5.381   3.330   3.882  0.2996 -0.2199 -0.1868
 4064SOL    MW416030   5.399   3.356   3.963  0.1859  0.1614  0.0446
 4065SOL     OW16031   2.576   5.845   1.396 -0.2717 -0.1919  0.1422
 4065SOL    HW216032   2.558   5.854   1.302 -2.2020 -0.3230  0.4560
 4065SOL    HW316033   2.538   5.924   1.434 -0.0880 -0.4598  0.8822
 4065SOL    MW416034   2.568   5.857   1.388  0.7240  0.6339  0.0989
 4066SOL     OW16035   0.716   3.969   1.686 -0.1765  0.3713 -0.3814
 4066SOL    HW216036   0.741   3.900   1.747 -1.2708  0.5258  0.2660
 4066SOL    HW316037   0.775   4.042   1.705  0.3988 -0.0630 -0.4660
 4066SOL    MW416038   0.727   3.969   1.696  0.0162 -0.1860  1.0601
 4067SOL     OW16039   2.426   1.094   1.690  0.1536 -0.0086 -0.3694
 4067SOL    HW216040   2.508   1.116   1.647 -0.4013  1.2158 -0.8232
 4067SOL    HW316041   2.359   1.105   1.623 -0.7064  1.7815  0.7037
 4067SOL    MW416042   2.428   1.098   1.676  0.6020 -0.6471  0.0203
 4068SOL     OW16043   3.600   3.866   1.349  0.8238 -0.1761  0.4686
 4068SOL    HW216044   3.656   3.926   1.301  0.2249 -0.8536 -1.1611
 4068SOL    HW316045   3.658   3.793   1.373  1.3113  0.5428  1.5268
 4068SOL    MW416046   3.615   3.864   1.346 -0.2160  0.5669 -0.4245
 4069SOL     OW16047   6.159   1.523   3.656  0.2381  0.4103  0.1624
 4069SOL    HW216048   6.141   1.617   3.659  1.0090  0.5450  1.4607
 4069SOL    HW316049   6.081   1.485   3.616 -0.5676  1.5003  0.6290
 4069SOL    MW416050   6.147   1.530   3.651 -0.8826  0.5146  0.1430
 4070SOL     OW16051   2.061   1.243   6.057 -0.3342  0.6494 -0.2986
 4070SOL    HW216052   2.134   1.303   6.044  0.1964  0.2811  0.8550
 4070SOL    HW316053   1.988   1.300   6.082 -0.5075  1.0328 -1.6188
 4070SOL    MW416054   2.061   1.259   6.059 -0.0741  0.4507  0.0742
 4071SOL     OW16055   1.457   3.459   2.359  0.0083  0.3045  0.2243
 4071SOL    HW216056   1.422   3.389   2.415 -0.8597  0.7193  0.2259
 4071SOL    HW316057   1.513   3.511   2.417  0.5236 -0.2828  0.2633
 4071SOL    MW416058   1.460   3.457   2.374  0.2310 -0.0402 -0.3801
 4072SOL     OW16059   5.621   0.264   6.145 -0.5191  0.0019 -0.1033
 4072SOL    HW216060   5.544   0.234   6.194 -0.0869 -0.4648  0.3117
 4072SOL    HW316061   5.691   0.266   6.211  0.2698 -1.4208 -0.8463
 4072SOL    MW416062   5.620   0.260   6.160 -0.5084 -0.0416 -0.0299
 4073SOL     OW16063   3.113   4.304   3.100 -1.1727 -0.7567 -0.0771
 4073SOL    HW216064   3.152   4.219   3.122 -0.0030 -0.0933  0.5162
 4073SOL    HW316065   3.135   4.360   3.174  0.2835  0.7436 -1.5710
 4073SOL    MW416066   3.121   4.300   3.112 -0.0496  0.0572  0.0620
 4074SOL     OW16067   0.350   2.436   4.333  0.4888  0.2137  0.3920
 4074SOL    HW216068   0.404   2.515   4.336  1.2009 -0.2787  2.8428
 4074SOL    HW316069   0.412   2.366   4.314  0.7596 -0.3077  2.8745
 4074SOL    MW416070   0.366   2.437   4.331  0.2251 -0.1958  0.2148
 4075SOL     OW16071   4.055   5.721   6.113 -0.6649 -0.1648 -0.1779
 4075SOL    HW216072   4.137   5.740   6.158  0.7273  1.2162 -3.0275
 4075SOL    HW316073   4.081   5.672   6.035 -1.8422  3.5388 -3.2398
 4075SOL    MW416074   4.069   5.717   6.109 -0.4426 -0.1921  0.4452
 4076SOL     OW16075   1.355   0.249   5.752  0.4661 -0.4469 -0.2913
 4076SOL    HW216076   1.368   0.162   5.792 -0.7059 -0.4058  0.2163
 4076SOL    HW316077   1.267   0.275   5.779 -0.4784 -0.4808 -3.0618
 4076SOL    MW416078   1.345   0.241   5.761 -0.0287  0.1167 -0.2238
 4077SOL     OW16079   4.654   5.174   0.088  0.2542 -0.7833 -0.0107
 4077SOL    HW216080   4.722   5.207   0.147  0.6733  1.2434 -1.5137
 4077SOL    HW316081   4.701   5.155   0.007 -0.8034 -0.3598 -0.7354
 4077SOL    MW416082   4.670   5.176   0.085  0.4060 -0.3551  0.4057
 4078SOL     OW16083   2.847   5.803   5.522 -0.2064  0.4373 -0.5170
 4078SOL    HW216084   2.847   5.763   5.435 -0.4688 -0.1406 -0.2580
 4078SOL    HW316085   2.933   5.780   5.558 -0.4309 -0.0819 -0.2928
 4078SOL    MW416086   2.859   5.795   5.515  0.2555  0.3452  0.0790
 4079SOL     OW16087   6.082   4.759   1.025 -0.3509 -0.3459  0.1691
 4079SOL    HW216088   6.057   4.691   1.088  0.2873 -1.1984 -0.4645
 4079SOL    HW316089   6.105   4.710   0.946 -0.6303  0.6697 -0.5566
 4079SOL    MW416090   6.082   4.743   1.023 -0.1774  0.5736  0.3544
 4080SOL     OW16091   0.543   0.705   0.080  0.1176 -0.2373  0.1094
 4080SOL    HW216092   0.498   0.731   0.000  0.0555 -0.2099  0.1541
 4080SOL    HW316093   0.493   0.745   0.151  0.5204  0.2505  0.1294
 4080SOL    MW416094   0.531   0.714   0.079  0.6507  0.0719  0.3487
 4081SOL     OW16095   2.640   0.894   0.006  0.0594  0.0431  0.1455
 4081SOL    HW216096   2.553   0.858  -0.010  0.2396 -0.4528  0.2722
 4081SOL    HW316097   2.646   0.901   0.102  0.8922 -1.7923  0.2643
 4081SOL    MW416098   2.630   0.890   0.017  0.4859 -0.0256 -0.3201
 4082SOL     OW16099   2.807   5.694   0.111  0.3509 -0.1594  0.3242
 4082SOL    HW216100   2.889   5.657   0.143  0.4581 -1.8467 -1.7115
 4082SOL    HW316101   2.804   5.781   0.150  2.1249 -0.7796  2.0150
 4082SOL    MW416102   2.817   5.701   0.120 -0.5164  0.6538  0.7622
 4083SOL     OW16103   2.634   5.204   3.392 -0.3157 -0.4203  0.3173
 4083SOL    HW216104   2.646   5.224   3.299  0.8096 -1.3670  0.2308
 4083SOL    HW316105   2.577   5.128   3.392 -0.6785 -0.1490  0.4257
 4083SOL    MW416106   2.628   5.197   3.380  0.1922  0.0408 -0.4901
 4084SOL     OW16107   6.364   4.756   5.478  0.4782  0.3595  0.0735
 4084SOL    HW216108   6.320   4.831   5.438  2.4638  2.2806  1.2875
 4084SOL    HW316109   6.445   4.746   5.427  0.1203 -1.1588 -0.2364
 4084SOL    MW416110   6.369   4.765   5.466  0.6236 -0.0987 -0.0772
 4085SOL     OW16111   3.454   3.557   0.731  0.7268  0.1954 -0.0318
 4085SOL    HW216112   3.425   3.528   0.645  0.9213 -1.1043  0.3143
 4085SOL    HW316113   3.398   3.632   0.752 -1.5754 -1.4695  0.1009
 4085SOL    MW416114   3.443   3.563   0.722  0.1416  0.2126  0.2068
 4086SOL     OW16115   5.904   5.493   2.964 -0.2741 -0.3868 -0.0205
 4086SOL    HW216116   5.994   5.505   2.932  0.3097 -0.1937  1.6201
 4086SOL    HW316117   5.912   5.488   3.059 -2.1202  0.6308  0.2467
 4086SOL    MW416118   5.917   5.494   2.972  0.2262 -0.0085  0.1507
 4087SOL     OW16119   5.932   4.913   3.901  0.2943 -0.2579  0.0482
 4087SOL    HW216120   5.897   4.967   3.972 -0.0493 -0.6217  0.1618
 4087SOL    HW316121   6.019   4.948   3.885 -0.2584  0.9273 -0.5108
 4087SOL    MW416122   5.939   4.925   3.908 -0.3182 -0.4184 -0.0825
 4088SOL     OW16123   2.941   4.885   2.961 -0.3185  0.1333 -0.6675
 4088SOL    HW216124   2.910   4.881   2.870 -1.3453  0.3965 -0.3403
 4088SOL    HW316125   3.003   4.812   2.968  0.0624  0.3456 -1.6812
 4088SOL    MW416126   2.945   4.874   2.950  0.8325  0.0125 -0.0585
 4089SOL     OW16127   0.932   2.888   3.298  0.4079 -0.4599 -0.5403
 4089SOL    HW216128   0.857   2.841   3.335 -1.0763  0.8281 -1.7827
 4089SOL    HW316129   0.982   2.917   3.374 -2.5745  2.1923  0.5947
 4089SOL    MW416130   0.929   2.885   3.313 -0.5755 -0.3776 -0.6342
 4090SOL     OW16131   0.469   0.390   6.119  0.0852 -0.1541  0.2313
 4090SOL    HW216132   0.474   0.371   6.025 -0.8605  2.2697 -0.3715
 4090SOL    HW316133   0.428   0.476   6.125  0.1916 -0.1870  2.8907
 4090SOL    MW416134   0.464   0.399   6.108  0.4510  0.1705  0.1314
 4091SOL     OW16135   6.347   3.502   4.459 -0.0299 -0.1162 -0.4280
 4091SOL    HW216136   6.361   3.568   4.527 -2.0204  1.0653 -1.0954
 4091SOL    HW316137   6.431   3.499   4.412  0.3965  1.2519  0.1928
 4091SOL    MW416138   6.360   3.510   4.462  0.1454 -0.0769  0.2882
 4092SOL     OW16139   4.231   4.210   1.643  0.3271  0.5040  0.3278
 4092SOL    HW216140   4.309   4.157   1.629  0.7604  1.3958 -0.7444
 4092SOL    HW316141   4.255   4.271   1.713  0.0291 -0.2783  1.1342
 4092SOL    MW416142   4.244   4.211   1.651  0.1050 -0.1225 -0.2299
 4093SOL     OW16143   1.629   5.890   0.596  0.0388 -0.4545  0.2432
 4093SOL    HW216144   1.703   5.836   0.625  0.9980  0.5238 -0.2878
 4093SOL    HW316145   1.554   5.831   0.600  0.9063 -1.6025  0.4335
 4093SOL    MW416146   1.629   5.875   0.600 -0.3290  0.6275 -0.1559
 4094SOL     OW16147   0.253   4.495   0.185  0.1305  0.5939  0.3221
 4094SOL    HW216148   0.283   4.431   0.250 -0.7889 -0.6791 -0.4344
 4094SOL    HW316149   0.200   4.557   0.234 -0.8548 -0.5610  0.7602
 4094SOL    MW416150   0.250   4.494   0.200  0.1421  0.6173  0.7401
 4095SOL     OW16151   6.028   3.905   5.364  0.3651 -0.3643 -0.6194
 4095SOL    HW216152   6.050   3.825   5.316 -0.2820  0.5236 -2.5149
 4095SOL    HW316153   5.937   3.922   5.343  0.3443  0.6079  0.1684
 4095SOL    MW416154   6.019   3.897   5.355 -0.8439 -0.2975 -0.5490
 4096SOL     OW16155   2.965   3.956   5.691 -0.7354  0.0601 -0.8013
 4096SOL    HW216156   3.052   3.917   5.679 -0.6993  0.2485 -1.1677
 4096SOL    HW316157   2.980   4.050   5.689 -0.9498  0.0928 -0.8650
 4096SOL    MW416158   2.978   3.963   5.689 -0.3338  0.4586 -0.1751
 4097SOL     OW16159   0.560   3.220   5.207  0.2147  0.1174  0.2806
 4097SOL    HW216160   0.640   3.211   5.259 -0.0397 -0.1740  0.6298
 4097SOL    HW316161   0.502   3.274   5.261  0.4741  1.0152 -0.3282
 4097SOL    MW416162   0.562   3.226   5.221 -0.0260 -0.1890 -0.5005
 4098SOL     OW16163   5.154   4.275   6.424  0.2269  0.2674  0.2689
 4098SOL    HW216164   5.125   4.183   6.419 -1.3921  0.7760 -0.3671
 4098SOL    HW316165   5.206   4.288   6.345 -2.0738  0.6791 -1.2712
 4098SOL    MW416166   5.157   4.264   6.413  0.0318 -0.2218  0.2573
 4099SOL     OW16167   2.764   1.288   1.907 -0.7665 -0.9546  0.0316
 4099SOL    HW216168   2.857   1.285   1.884 -0.8807 -2.7111 -0.3806
 4099SOL    HW316169   2.756   1.230   1.983 -1.4943 -0.6872  0.1693
 4099SOL    MW416170   2.775   1.280   1.914 -0.3305  0.2162 -0.4614
 4100SOL     OW16171   2.603   2.651   1.004  0.1496  0.2288 -0.0617
 4100SOL    HW216172   2.586   2.701   1.084  1.6562  1.2537 -0.3454
 4100SOL    HW316173   2.524   2.598   0.992 -1.8451  3.0260 -0.1526
 4100SOL    MW416174   2.590   2.650   1.013  0.0107 -0.6149 -0.2637
 4101SOL     OW16175   3.395   0.941   5.039 -0.0197 -0.0364 -0.4403
 4101SOL    HW216176   3.377   0.864   5.092 -1.8181 -0.3126 -1.3640
 4101SOL    HW316177   3.445   0.908   4.964  0.6642 -0.0076 -0.0009
 4101SOL    MW416178   3.399   0.927   5.036 -0.1747 -0.0474  0.6945
 4102SOL     OW16179   4.059   4.087   2.925  0.1289  0.1590  0.2639
 4102SOL    HW216180   4.135   4.031   2.915 -1.0754 -1.2985 -1.2814
 4102SOL    HW316181   3.997   4.056   2.859 -0.6242  3.3074 -0.6777
 4102SOL    MW416182   4.060   4.076   2.915 -0.0569 -0.3106  0.2643
 4103SOL     OW16183   1.696   2.447   4.987  0.0214 -0.2507  0.1824
 4103SOL    HW216184   1.745   2.444   5.069 -1.8463  1.4114  1.4435
 4103SOL    HW316185   1.700   2.539   4.960  1.6178 -0.9396 -2.3322
 4103SOL    MW416186   1.703   2.459   4.994 -0.1633 -0.0861  0.3643
 4104SOL     OW16187   6.122   3.796   2.929 -0.3679 -0.1457 -0.3648
 4104SOL    HW216188   6.129   3.715   2.879 -0.5362 -2.0754  2.4869
 4104SOL    HW316189   6.034   3.828   2.911 -0.0330 -0.1206 -2.1261
 4104SOL    MW416190   6.111   3.789   2.920  0.1676  0.1095  0.0686
 4105SOL     OW16191   0.724   4.197   2.654 -0.1610 -0.6116 -0.1901
 4105SOL    HW216192   0.633   4.223   2.665  0.1165 -0.4359  2.1673
 4105SOL    HW316193   0.721   4.125   2.591 -2.1259 -1.5907  0.9232
 4105SOL    MW416194   0.712   4.191   2.647 -0.3150 -0.3524 -0.5714
 4106SOL     OW16195   3.586   4.621   2.907  0.7950 -0.0181  0.4144
 4106SOL    HW216196   3.517   4.647   2.968 -1.6990  0.4399 -2.3609
 4106SOL    HW316197   3.640   4.699   2.897 -0.5813  0.8979 -0.1930
 4106SOL    MW416198   3.584   4.634   2.914 -0.2338  0.0679 -0.0859
 4107SOL     OW16199   1.677   1.073   0.475  0.7962 -0.1722  0.0151
 4107SOL    HW216200   1.723   1.031   0.548  0.9655 -1.5795 -0.8585
 4107SOL    HW316201   1.588   1.038   0.481  0.2952  1.1485  0.6248
 4107SOL    MW416202   1.671   1.063   0.486  0.0471 -0.1720  0.2279
 4108SOL     OW16203   4.019   1.759   6.069  0.0698 -0.2263  0.1657
 4108SOL    HW216204   3.935   1.802   6.058  0.0508 -0.0594  0.8967
 4108SOL    HW316205   4.067   1.778   5.988 -0.6574 -0.4907 -0.3378
 4108SOL    MW416206   4.015   1.767   6.057  0.2404 -0.3859  0.1036
 4109SOL     OW16207   5.537   4.478   3.037  0.1864 -0.4407  0.0188
 4109SOL    HW216208   5.615   4.515   3.078  0.6175 -2.2534  0.9434
 4109SOL    HW316209   5.469   4.544   3.052  0.7243 -0.2942  2.2519
 4109SOL    MW416210   5.538   4.492   3.045 -0.2243 -0.0118  0.5958
 4110SOL     OW16211   0.721   4.848   2.678  0.2109  0.2861 -0.5602
 4110SOL    HW216212   0.770   4.771   2.652 -1.2042 -0.5251 -0.9234
 4110SOL    HW316213   0.752   4.868   2.766 -2.5956 -3.5294  1.5501
 4110SOL    MW416214   0.731   4.841   2.686 -0.2866 -0.1304 -0.0224
 4111SOL     OW16215   3.934   3.938   5.379 -0.1075  0.4726 -0.0682
 4111SOL    HW216216   3.898   3.998   5.444 -1.8731  0.0158 -0.5689
 4111SOL    HW316217   3.935   3.988   5.297 -0.4767  0.1959 -0.2451
 4111SOL    MW416218   3.930   3.952   5.377 -0.3053  0.1555  0.0327
 4112SOL     OW16219   0.146   5.577   3.932 -0.1956 -0.2565  0.8818
 4112SOL    HW216220   0.152   5.562   4.026  0.0778 -0.7090  0.7979
 4112SOL    HW316221   0.209   5.647   3.915 -0.4956  0.0683  1.0809
 4112SOL    MW416222   0.155   5.584   3.942  0.9980 -1.0421 -0.0225
 4113SOL     OW16223   4.021   1.136   2.359 -0.1747 -0.0071  0.2281
 4113SOL    HW216224   4.101   1.175   2.323  1.4254 -0.9471  2.4593
 4113SOL    HW316225   3.974   1.210   2.397 -0.3246  0.5410 -0.9771
 4113SOL    MW416226   4.025   1.151   2.360  0.0372  0.7637  0.1971
 4114SOL     OW16227   3.510   6.421   1.998  0.2761 -0.3173  0.5318
 4114SOL    HW216228   3.485   6.381   1.915 -0.3821  0.5647  0.2994
 4114SOL    HW316229   3.475   6.510   1.994  1.5538  0.2392  1.1164
 4114SOL    MW416230   3.502   6.427   1.987 -0.2476  0.1444  0.7719
 4115SOL     OW16231   3.661   5.183   6.350 -0.4301  0.7381 -0.0705
 4115SOL    HW216232   3.680   5.098   6.391 -0.5650  0.3331 -0.8223
 4115SOL    HW316233   3.740   5.234   6.363  0.0017  0.1706 -0.4116
 4115SOL    MW416234   3.674   5.178   6.358  0.5821 -0.2187  0.0536
 4116SOL     OW16235   2.839   0.768   3.570 -0.1772 -0.2444 -0.0459
 4116SOL    HW216236   2.800   0.777   3.657  1.1221 -0.6035  0.6052
 4116SOL    HW316237   2.776   0.809   3.511 -1.1323 -0.0834  1.0497
 4116SOL    MW416238   2.826   0.775   3.574 -0.0052  0.0892 -0.3189
 4117SOL     OW16239   2.756   3.088   2.634 -0.4387 -0.1447  0.3794
 4117SOL    HW216240   2.715   3.016   2.681  1.6909 -0.7746  1.4229
 4117SOL    HW316241   2.840   3.052   2.605 -0.6233  1.0090 -1.7881
 4117SOL    MW416242   2.762   3.074   2.636 -0.5596  0.1608 -0.2896
 4118SOL     OW16243   2.778   0.221   6.422  0.2243 -0.0431  0.0648
 4118SOL    HW216244   2.809   0.158   6.487 -2.8207 -0.4540  1.2858
 4118SOL    HW316245   2.804   0.183   6.338  1.5050 -1.1005  0.8845
 4118SOL    MW416246   2.786   0.208   6.420 -0.1285 -0.2044  0.2315
 4119SOL     OW16247   3.613   5.268   3.373  0.4183 -0.3937  0.1329
 4119SOL    HW216248   3.644   5.339   3.430  1.1497 -0.1624 -0.5409
 4119SOL    HW316249   3.690   5.213   3.359 -0.6601 -2.8893  2.7999
 4119SOL    MW416250   3.627   5.270   3.379  0.2739  0.1258 -0.0483
 4120SOL     OW16251   2.702   4.401   0.214  0.0325  0.3947 -0.8300
 4120SOL    HW216252   2.708   4.496   0.222  2.8298  0.3880 -1.7118
 4120SOL    HW316253   2.637   4.375   0.279  0.4845  2.7401  0.6772
 4120SOL    MW416254   2.694   4.410   0.223 -0.0923  0.1578  0.0810
 4121SOL     OW16255   0.701   6.300   5.812  0.3003  0.3423  0.4474
 4121SOL    HW216256   0.620   6.293   5.863 -1.2375 -0.9883 -1.9629
 4121SOL    HW316257   0.682   6.368   5.747  0.1160 -1.5573 -1.6313
 4121SOL    MW416258   0.688   6.308   5.810  0.2966 -0.2167 -0.4583
 4122SOL     OW16259   3.088   2.722   1.454 -0.2315  0.4683  0.8736
 4122SOL    HW216260   3.006   2.756   1.489  0.1432  0.7142  1.5247
 4122SOL    HW316261   3.141   2.799   1.438 -0.0816  0.3013  0.5629
 4122SOL    MW416262   3.084   2.736   1.456 -0.1766  0.2526  0.4453
 4123SOL     OW16263   6.020   3.471   2.535 -0.0119 -0.0404 -0.3408
 4123SOL    HW216264   5.983   3.383   2.541  0.3508 -0.1475  0.5119
 4123SOL    HW316265   6.067   3.482   2.617  0.7244  0.6023 -0.8404
 4123SOL    MW416266   6.021   3.461   2.547  0.0400  0.0443 -0.4586
 4124SOL     OW16267   5.239   2.362   0.523  0.0906  0.4921 -0.1553
 4124SOL    HW216268   5.171   2.396   0.465  0.3641 -1.2025 -1.5463
 4124SOL    HW316269   5.212   2.390   0.610 -2.6819 -0.4910 -0.5802
 4124SOL    MW416270   5.227   2.370   0.527 -0.1159 -0.1389  0.0933
 4125SOL     OW16271   3.321   1.052   3.541  0.4252  0.0956  0.6379
 4125SOL    HW216272   3.322   1.031   3.447 -0.9729 -1.3922  0.9023
 4125SOL    HW316273   3.237   1.095   3.555 -0.5619 -2.0006  1.5974
 4125SOL    MW416274   3.310   1.055   3.530  0.6126 -0.5699  0.4281
 4126SOL     OW16275   2.236   0.905   5.418  0.2168  0.9085 -0.0698
 4126SOL    HW216276   2.174   0.962   5.463 -2.9985 -1.6785 -0.8948
 4126SOL    HW316277   2.239   0.826   5.471  0.1380 -0.3113 -1.7949
 4126SOL    MW416278   2.229   0.902   5.431 -0.1798  0.3666  0.0950
 4127SOL     OW16279   4.282   5.160   0.864  0.1328 -0.2396 -0.6840
 4127SOL    HW216280   4.309   5.085   0.812 -0.0581 -0.2654 -0.7488
 4127SOL    HW316281   4.186   5.157   0.862  0.1227 -0.4132 -0.0787
 4127SOL    MW416282   4.273   5.150   0.857  0.2780  0.7023  0.4131
 4128SOL     OW16283   1.528   2.586   6.192 -0.6819  0.2659 -0.2480
 4128SOL    HW216284   1.497   2.647   6.125  1.6580 -2.1081 -3.8291
 4128SOL    HW316285   1.594   2.635   6.241 -0.0388  1.1433 -1.9282
 4128SOL    MW416286   1.533   2.600   6.190  0.6058 -0.2804 -0.4943
 4129SOL     OW16287   3.179   5.731   2.390  0.1682  0.1365 -0.4755
 4129SOL    HW216288   3.089   5.732   2.424  0.2375  0.8317 -0.2917
 4129SOL    HW316289   3.208   5.641   2.400 -0.5207 -0.0980 -0.5574
 4129SOL    MW416290   3.171   5.720   2.395 -0.6759 -0.7459  0.0945
 4130SOL     OW16291   4.251   0.578   0.012 -0.1844  0.3886 -0.4449
 4130SOL    HW216292   4.162   0.580  -0.024  0.3741  3.0493 -2.0379
 4130SOL    HW316293   4.307   0.565  -0.065  0.8538 -2.5852  0.6873
 4130SOL    MW416294   4.246   0.577  -0.003 -0.0982  0.4371 -0.4830
 4131SOL     OW16295   0.554   0.633   2.960  0.3061  0.2308  0.3865
 4131SOL    HW216296   0.629   0.591   2.918 -0.6867 -0.9924 -0.2346
 4131SOL    HW316297   0.553   0.598   3.049 -0.4810 -1.0737 -0.1098
 4131SOL    MW416298   0.564   0.623   2.966  0.3485  0.3147 -0.2196
 4132SOL     OW16299   6.046   0.264   2.838  0.7527 -0.2117  0.2540
 4132SOL    HW216300   5.979   0.206   2.802 -0.0399  0.8171  0.0460
 4132SOL    HW316301   6.069   0.323   2.766 -1.9341  2.8652  1.6691
 4132SOL    MW416302   6.040   0.264   2.824 -0.1564 -0.8231  0.3617
 4133SOL     OW16303   0.522   4.758   3.441 -0.3910 -0.1501 -0.0406
 4133SOL    HW216304   0.524   4.783   3.533  0.2513  1.1473 -0.3808
 4133SOL    HW316305   0.506   4.840   3.394 -0.9080 -0.8230 -1.0804
 4133SOL    MW416306   0.520   4.772   3.447 -0.1688  0.5334  0.1100
 4134SOL     OW16307   2.029   4.954   5.252 -0.5968 -0.4660  0.3708
 4134SOL    HW216308   2.082   4.893   5.201 -1.2891 -0.6055 -0.2054
 4134SOL    HW316309   2.092   5.008   5.299  0.0417 -1.3702  0.5928
 4134SOL    MW416310   2.044   4.953   5.252  0.1673  0.5701 -0.4717
 4135SOL     OW16311   4.771   5.711   5.288 -0.4168 -0.5381 -0.2352
 4135SOL    HW216312   4.796   5.633   5.337 -0.3564 -0.8719 -0.7910
 4135SOL    HW316313   4.833   5.778   5.317  0.8403 -1.2217 -1.2203
 4135SOL    MW416314   4.783   5.710   5.299 -0.3715  0.0805  0.7623
 4136SOL     OW16315   3.791   5.046   5.499 -0.4360  0.4564 -0.0889
 4136SOL    HW216316   3.814   5.120   5.444 -0.4147  0.7461  0.3069
 4136SOL    HW316317   3.875   5.010   5.528 -0.4530  0.5222  0.0435
 4136SOL    MW416318   3.805   5.051   5.496  0.3590  0.1853 -0.0444
 4137SOL     OW16319   0.396   0.513   1.288 -0.4483  0.0903  0.1063
 4137SOL    HW216320   0.376   0.425   1.319  0.2298  0.7201  2.4973
 4137SOL    HW316321   0.487   0.527   1.311  0.0039  0.7932 -1.9068
 4137SOL    MW416322   0.405   0.503   1.295 -0.2760  0.5046 -0.0328
 4138SOL     OW16323   2.275   0.039   4.897 -0.4824  0.2077 -0.0362
 4138SOL    HW216324   2.331   0.081   4.830 -1.0136 -0.4756 -0.9341
 4138SOL    HW316325   2.194   0.088   4.895 -1.7908 -1.8121 -2.3589
 4138SOL    MW416326   2.272   0.051   4.888  0.2492 -0.0204  0.0182
 4139SOL     OW16327   2.266   2.475   3.140 -0.5717  0.7064  0.3656
 4139SOL    HW216328   2.331   2.408   3.120  1.1575  2.6194 -0.7681
 4139SOL    HW316329   2.183   2.428   3.140  0.4479 -1.2720 -1.3637
 4139SOL    MW416330   2.264   2.460   3.137 -0.2314  0.0144 -0.0031
 4140SOL     OW16331   2.599   3.422   1.005  0.4412  0.2160 -0.2178
 4140SOL    HW216332   2.613   3.368   1.082  3.2265 -0.5578 -1.1525
 4140SOL    HW316333   2.589   3.511   1.039 -1.1482 -0.4220  1.1324
 4140SOL    MW416334   2.599   3.427   1.019 -0.7526 -0.1909 -0.1790
 4141SOL     OW16335   3.951   6.442   5.998  0.6412 -0.0635 -0.5417
 4141SOL    HW216336   3.945   6.366   5.940 -0.0934  0.5590 -1.3100
 4141SOL    HW316337   3.892   6.422   6.070  1.2756 -0.6831 -0.1812
 4141SOL    MW416338   3.943   6.429   6.000 -0.5473  0.2426  0.5607
 4142SOL     OW16339   2.152   1.377   4.764 -0.0199  0.7738  0.3415
 4142SOL    HW216340   2.113   1.434   4.698  2.5548  0.2460 -1.8459
 4142SOL    HW316341   2.243   1.406   4.769  0.4986 -0.9230  1.7330
 4142SOL    MW416342   2.159   1.388   4.756  0.0846 -0.5071  0.4481
 4143SOL     OW16343   0.678   2.756   2.800  0.0229 -0.5876  0.4999
 4143SOL    HW216344   0.602   2.713   2.841  0.4049 -1.0774  0.6990
 4143SOL    HW316345   0.693   2.834   2.853 -0.0887 -0.7030  0.7011
 4143SOL    MW416346   0.670   2.761   2.812 -0.4132 -0.0669  0.5188
 4144SOL     OW16347   4.978   0.967   2.564  0.1722 -0.1209 -0.3761
 4144SOL    HW216348   4.906   0.919   2.525  1.6348 -1.4649 -1.5377
 4144SOL    HW316349   4.954   0.978   2.656 -0.6129 -2.2928 -0.2907
 4144SOL    MW416350   4.965   0.962   2.571  0.0218 -0.3627  0.4279
 4145SOL     OW16351   1.298   5.324   2.697  0.0865 -0.3677 -0.6201
 4145SOL    HW216352   1.303   5.381   2.774  0.4746 -1.9855  0.6354
 4145SOL    HW316353   1.204   5.306   2.688 -0.0576  0.5952 -1.1449
 4145SOL    MW416354   1.286   5.329   2.706  0.1936 -0.0416  0.8738
 4146SOL     OW16355   3.945   3.114   2.330  0.4997 -0.0133  0.1407
 4146SOL    HW216356   4.025   3.087   2.283  1.9793  1.7061  1.5055
 4146SOL    HW316357   3.927   3.041   2.390  1.1340 -0.3671 -0.0811
 4146SOL    MW416358   3.953   3.101   2.332  0.2818 -0.0814 -0.3190
 4147SOL     OW16359   5.528   1.791   5.047 -0.0373 -0.2661 -0.0860
 4147SOL    HW216360   5.480   1.844   5.111 -0.1581 -1.3192  0.7208
 4147SOL    HW316361   5.620   1.811   5.064  0.0669 -2.0592  1.8734
 4147SOL    MW416362   5.534   1.801   5.058  0.5656  0.0660 -0.4150
 4148SOL     OW16363   5.641   3.349   0.625 -0.1626  0.1683 -0.2389
 4148SOL    HW216364   5.559   3.399   0.624 -0.5780 -0.5065 -1.3856
 4148SOL    HW316365   5.663   3.336   0.533 -0.0853 -1.7857  0.0196
 4148SOL    MW416366   5.633   3.354   0.613 -0.5202 -0.3217 -0.3695
 4149SOL     OW16367   4.076   0.902   2.535  0.3139  0.0805 -0.6652
 4149SOL    HW216368   3.992   0.864   2.507  0.1058  0.2847 -0.3288
 4149SOL    HW316369   4.078   0.987   2.492  0.2891  0.1295 -0.5686
 4149SOL    MW416370   4.065   0.908   2.525 -0.0306  0.5358  0.5551
 4150SOL     OW16371   2.753   4.554   0.545  0.0254 -0.3766  0.2437
 4150SOL    HW216372   2.823   4.587   0.601 -0.2646 -0.8389  0.8836
 4150SOL    HW316373   2.757   4.459   0.553 -0.4609 -0.4229  0.0268
 4150SOL    MW416374   2.762   4.546   0.553 -0.9401 -0.5920 -0.4154
 4151SOL     OW16375   4.035   4.899   1.253 -0.2761  0.1930  0.1407
 4151SOL    HW216376   4.096   4.921   1.324  1.2959 -1.0445 -0.7395
 4151SOL    HW316377   4.000   4.984   1.224  0.5821  0.8967  1.0777
 4151SOL    MW416378   4.039   4.913   1.258 -0.3170 -0.3967 -0.0367
 4152SOL     OW16379   4.982   5.671   5.684  0.1971  0.2795 -0.1023
 4152SOL    HW216380   4.953   5.612   5.615 -0.1537  0.5024 -0.1447
 4152SOL    HW316381   4.902   5.712   5.716  0.2007 -0.6842  1.2490
 4152SOL    MW416382   4.968   5.668   5.680 -0.8728  0.2185  0.2635
 4153SOL     OW16383   2.841   1.282   3.652 -0.2714 -0.0783 -0.4282
 4153SOL    HW216384   2.877   1.245   3.733 -1.8709 -0.3296  0.2226
 4153SOL    HW316385   2.747   1.288   3.669 -0.7323 -0.6549 -2.4957
 4153SOL    MW416386   2.833   1.278   3.665  0.2221  0.1736  0.2720
 4154SOL     OW16387   4.993   5.823   0.686 -0.8575 -0.1122  0.2606
 4154SOL    HW216388   5.032   5.838   0.772  0.6167 -0.9661 -0.2201
 4154SOL    HW316389   4.921   5.887   0.681 -0.9038  0.0359  2.0503
 4154SOL    MW416390   4.989   5.833   0.697 -0.4873  0.0155  0.1574
 4155SOL     OW16391   5.670   2.251   3.223  0.9404  0.0307 -0.3047
 4155SOL    HW216392   5.629   2.197   3.291  0.6435  0.2738 -0.2932
 4155SOL    HW316393   5.758   2.269   3.258  2.0160 -2.5787 -1.4269
 4155SOL    MW416394   5.676   2.246   3.237 -0.2793 -0.4273  0.2188
 4156SOL     OW16395   0.670   0.319   3.547 -0.7838  0.4964 -0.4059
 4156SOL    HW216396   0.655   0.411   3.571 -0.5319  0.2859  0.6008
 4156SOL    HW316397   0.761   0.317   3.519 -1.0265  0.7079 -1.2362
 4156SOL    MW416398   0.680   0.331   3.547  0.0011  0.2145  0.0450
 4157SOL     OW16399   1.480   3.859   0.176  0.5974 -0.0715 -0.1222
 4157SOL    HW216400   1.396   3.818   0.159  1.6693 -1.5095 -2.5867
 4157SOL    HW316401   1.470   3.904   0.260 -1.9809 -1.7904  0.5730
 4157SOL    MW416402   1.468   3.860   0.185 -0.0358  0.0822  0.4126
 4158SOL     OW16403   5.670   6.406   2.226  0.5865 -0.5874 -0.0925
 4158SOL    HW216404   5.686   6.385   2.134  0.2377  0.5787 -0.4226
 4158SOL    HW316405   5.720   6.486   2.242  1.0903 -1.0666  0.8963
 4158SOL    MW416406   5.679   6.414   2.216  0.2226  0.2719  0.1813
 4159SOL     OW16407   0.392   4.521   3.525  0.6063  0.0375 -0.2498
 4159SOL    HW216408   0.420   4.603   3.486  0.0691  0.1522 -0.4041
 4159SOL    HW316409   0.347   4.546   3.605 -0.1277 -0.0541 -0.6215
 4159SOL    MW416410   0.390   4.535   3.530 -0.0936 -0.2442  0.6850
 4160SOL     OW16411   0.127   2.203   1.030 -0.6315  0.1673 -0.4233
 4160SOL    HW216412   0.156   2.115   1.009  1.3652  1.0733 -1.7584
 4160SOL    HW316413   0.053   2.219   0.972 -0.2124 -0.2136 -1.0743
 4160SOL    MW416414   0.121   2.194   1.020 -0.3804  0.5473 -0.0239
 4161SOL     OW16415   1.304   3.708   4.299  0.1540  0.2090 -0.1742
 4161SOL    HW216416   1.232   3.770   4.287 -0.4586 -0.2032  1.1884
 4161SOL    HW316417   1.382   3.762   4.308  0.1204  0.6509 -2.1047
 4161SOL    MW416418   1.305   3.723   4.299 -0.4294  0.0931 -0.6940
 4162SOL     OW16419   2.999   2.574   2.715  0.3878 -0.3017  0.1017
 4162SOL    HW216420   2.924   2.568   2.774  0.4576  0.8946  0.3348
 4162SOL    HW316421   3.032   2.484   2.708 -0.9196 -0.8081  0.1747
 4162SOL    MW416422   2.994   2.561   2.722  0.5482  0.2938 -0.1991
 4163SOL     OW16423   2.818   5.553   0.613 -0.1362 -0.7287  0.6187
 4163SOL    HW216424   2.799   5.584   0.524 -0.7971 -2.3385  0.1665
 4163SOL    HW316425   2.750   5.593   0.667 -0.1310 -0.2774  0.3019
 4163SOL    MW416426   2.806   5.562   0.608 -0.0228  0.2782  0.1641
 4164SOL     OW16427   5.479   1.103   6.414  0.0707  0.2395 -0.2157
 4164SOL    HW216428   5.400   1.089   6.466 -0.0495  1.7823  0.0630
 4164SOL    HW316429   5.463   1.185   6.368  1.8298  1.0390  0.5156
 4164SOL    MW416430   5.466   1.112   6.415 -0.5199  0.3093  0.0501
 4165SOL     OW16431   3.351   2.853   3.152  0.3333  0.2010  0.7483
 4165SOL    HW216432   3.382   2.885   3.237  0.6439  0.9994  0.3518
 4165SOL    HW316433   3.408   2.896   3.088  1.7148 -2.2325  0.2030
 4165SOL    MW416434   3.363   2.863   3.155  0.7034 -0.0417  0.4138
 4166SOL     OW16435   0.065   0.384   0.403  0.0318 -0.2454 -0.1569
 4166SOL    HW216436   0.145   0.379   0.351 -1.0456  0.6119 -2.0155
 4166SOL    HW316437   0.087   0.443   0.475  1.1449 -0.2010 -0.5136
 4166SOL    MW416438   0.078   0.391   0.406 -0.2582  0.3018  0.0381
 4167SOL     OW16439   1.707   2.079   5.563  0.0950 -0.3446 -0.3715
 4167SOL    HW216440   1.671   2.152   5.613  0.2256  0.4775 -1.4549
 4167SOL    HW316441   1.663   2.083   5.479  0.5876 -1.1165 -0.6775
 4167SOL    MW416442   1.697   2.089   5.559 -0.3212  0.1775  0.1978
 4168SOL     OW16443   1.008   3.919   2.967 -0.6947 -0.5830 -0.6803
 4168SOL    HW216444   1.050   3.833   2.967 -0.4389 -0.4797  0.3891
 4168SOL    HW316445   0.978   3.931   3.058  0.1851  0.8809 -0.5422
 4168SOL    MW416446   1.010   3.909   2.979 -0.1956  0.0071 -0.0547
 4169SOL     OW16447   5.763   1.567   5.896 -0.5303 -0.4185  0.3197
 4169SOL    HW216448   5.681   1.587   5.851 -1.3852  0.3994  2.1782
 4169SOL    HW316449   5.813   1.517   5.831 -1.0243  2.0355 -2.1289
 4169SOL    MW416450   5.759   1.563   5.881 -0.0651 -0.1382 -0.3625
 4170SOL     OW16451   4.388   5.827   1.536  0.0772 -0.2672 -0.3027
 4170SOL    HW216452   4.472   5.873   1.538 -0.5042  0.8955 -1.6033
 4170SOL    HW316453   4.389   5.779   1.453  0.0148 -1.3932  0.3184
 4170SOL    MW416454   4.399   5.827   1.526  0.0391  0.6852 -0.1066
 4171SOL     OW16455   4.135   5.304   0.480  0.0351 -0.2855  0.3026
 4171SOL    HW216456   4.184   5.382   0.503 -0.9536  0.0455  1.3521
 4171SOL    HW316457   4.185   5.232   0.518  0.0683 -0.0142  0.7731
 4171SOL    MW416458   4.148   5.305   0.488  0.5045 -0.2816  0.4369
 4172SOL     OW16459   0.539   2.000   3.563  0.3873 -0.0778  0.5947
 4172SOL    HW216460   0.579   1.941   3.500 -0.2858  0.2205 -0.1256
 4172SOL    HW316461   0.472   1.947   3.606 -1.4216  0.5801 -1.2700
 4172SOL    MW416462   0.535   1.985   3.561 -0.1463 -0.4524 -0.1529
 4173SOL     OW16463   0.947   4.699   4.153 -0.0641  0.2299  0.3479
 4173SOL    HW216464   0.965   4.617   4.108 -0.8140  0.2932 -0.0705
 4173SOL    HW316465   1.018   4.758   4.124 -0.1711  0.0734 -0.2359
 4173SOL    MW416466   0.959   4.696   4.143  0.4487  0.6210  0.1112
 4174SOL     OW16467   0.121   1.644   5.728 -0.5068 -0.4578  0.2281
 4174SOL    HW216468   0.126   1.548   5.735  1.3012 -0.5568 -1.4470
 4174SOL    HW316469   0.208   1.674   5.753 -1.1601  0.8124  1.0613
 4174SOL    MW416470   0.133   1.635   5.732 -0.1817 -0.6985  0.2587
 4175SOL     OW16471   4.056   3.233   0.866 -0.4753 -0.2545  0.3988
 4175SOL    HW216472   4.116   3.294   0.823  0.4966 -1.5602 -0.1671
 4175SOL    HW316473   4.106   3.200   0.941  0.0070 -2.2108 -0.7241
 4175SOL    MW416474   4.071   3.237   0.870  0.0226 -0.1517 -0.1029
 4176SOL     OW16475   4.039   3.940   2.199 -0.0141  0.1846  0.0726
 4176SOL    HW216476   4.049   3.850   2.228  1.2421  0.7879  1.7035
 4176SOL    HW316477   3.946   3.959   2.207 -0.1752 -0.7341  0.4302
 4176SOL    MW416478   4.028   3.931   2.204 -0.1264  0.6831  0.0144
 4177SOL     OW16479   5.866   4.188   1.489  0.5549 -0.2035  0.1091
 4177SOL    HW216480   5.774   4.170   1.470  0.4187 -0.0414  0.6101
 4177SOL    HW316481   5.879   4.278   1.460  0.4450 -0.0844  0.4269
 4177SOL    MW416482   5.856   4.197   1.482 -0.1744 -0.4231  0.2905
 4178SOL     OW16483   2.255   1.677   1.302 -0.0733  0.2847 -0.3153
 4178SOL    HW216484   2.257   1.764   1.342 -1.9597  0.7159 -1.0587
 4178SOL    HW316485   2.275   1.693   1.210 -0.7381 -0.0184 -0.5176
 4178SOL    MW416486   2.258   1.690   1.295 -0.3078  0.1830  0.2892
 4179SOL     OW16487   2.857   1.454   1.543  0.1203 -1.0134 -0.0192
 4179SOL    HW216488   2.894   1.366   1.530 -1.6718 -1.7616 -0.2420
 4179SOL    HW316489   2.763   1.442   1.540 -0.1822  0.8613  0.4901
 4179SOL    MW416490   2.850   1.441   1.541 -0.0560  0.5631 -0.1312
 4180SOL     OW16491   2.984   1.433   5.929 -0.3821 -0.5911  0.6985
 4180SOL    HW216492   2.967   1.519   5.890 -1.6286 -0.7185  0.9234
 4180SOL    HW316493   2.946   1.371   5.867  3.2883 -1.2880 -1.1436
 4180SOL    MW416494   2.977   1.436   5.916 -0.2637 -0.5728  0.6346
 4181SOL     OW16495   2.727   2.450   0.836 -0.6978  0.1374  0.0526
 4181SOL    HW216496   2.781   2.473   0.761  1.1717  0.6416  1.4769
 4181SOL    HW316497   2.685   2.532   0.861  0.8883  0.6556  1.1977
 4181SOL    MW416498   2.729   2.464   0.829  0.0921 -0.4665 -0.0062
 4182SOL     OW16499   0.700   4.645   4.875 -0.4075 -0.0694 -0.0411
 4182SOL    HW216500   0.622   4.599   4.846 -1.7017  0.6927  1.9636
 4182SOL    HW316501   0.690   4.733   4.840 -1.9271  0.8253  2.3134
 4182SOL    MW416502   0.688   4.651   4.867  0.1686  0.5056 -0.3376
 4183SOL     OW16503   4.267   5.627   5.536 -0.2251 -0.3927  0.1827
 4183SOL    HW216504   4.195   5.687   5.558  2.6290  3.1271  0.9713
 4183SOL    HW316505   4.253   5.607   5.443 -1.9103  0.6364  0.1679
 4183SOL    MW416506   4.256   5.633   5.527  0.3294  0.3717  0.2191
 4184SOL     OW16507   2.648   0.121   4.850  0.1015  0.1366  0.0840
 4184SOL    HW216508   2.699   0.054   4.895 -1.0610  0.0122  1.2784
 4184SOL    HW316509   2.706   0.197   4.847  0.3435  0.0523  1.5635
 4184SOL    MW416510   2.663   0.122   4.856  0.0109 -0.4127 -0.2400
 4185SOL     OW16511   1.740   2.435   2.676  0.2211  0.2104 -0.1726
 4185SOL    HW216512   1.661   2.385   2.695 -0.8625  1.4350 -1.1772
 4185SOL    HW316513   1.726   2.468   2.586  2.5887 -0.8357 -0.9955
 4185SOL    MW416514   1.727   2.433   2.666  0.5592  0.1898 -0.2540
 4186SOL     OW16515   3.473   3.000   4.874 -0.1818 -0.0327  0.2746
 4186SOL    HW216516   3.561   2.968   4.893 -0.6168 -3.5056 -2.5776
 4186SOL    HW316517   3.482   3.045   4.790 -0.5933  3.2198  1.7929
 4186SOL    MW416518   3.486   3.002   4.866  0.1102  0.1712 -0.3361
 4187SOL     OW16519   4.842   5.240   0.284  0.3115 -0.0248  0.1800
 4187SOL    HW216520   4.882   5.311   0.234 -1.5294  0.4654 -0.6889
 4187SOL    HW316521   4.806   5.283   0.361  0.0769 -0.1708  0.1535
 4187SOL    MW416522   4.843   5.255   0.287 -0.1589 -0.1739  0.3530
 4188SOL     OW16523   3.913   2.119   0.427  0.7132 -0.5175  0.1104
 4188SOL    HW216524   3.990   2.062   0.424  0.1893 -1.2824  0.7503
 4188SOL    HW316525   3.923   2.167   0.510  0.1324 -1.1697  0.5695
 4188SOL    MW416526   3.925   2.118   0.438  0.4660  0.5564  0.2266
 4189SOL     OW16527   3.184   0.377   6.412  0.3355  0.2624  0.1067
 4189SOL    HW216528   3.137   0.370   6.495 -0.4211  1.4298 -0.1961
 4189SOL    HW316529   3.186   0.288   6.378  2.1369 -0.5479  2.1365
 4189SOL    MW416530   3.178   0.364   6.418 -0.0901  0.0800 -0.0878
 4190SOL     OW16531   5.934   1.122   2.660 -0.0094  0.2292 -0.2501
 4190SOL    HW216532   5.869   1.069   2.706  0.1245 -1.5232 -1.9582
 4190SOL    HW316533   6.016   1.105   2.705 -0.0992 -0.4638 -0.3475
 4190SOL    MW416534   5.936   1.113   2.672  0.4475  0.0323 -0.1252
 4191SOL     OW16535   3.572   3.653   1.656  0.2385  0.0497 -1.0910
 4191SOL    HW216536   3.479   3.645   1.679  0.7607 -0.7065  0.9029
 4191SOL    HW316537   3.611   3.702   1.728  1.4518  0.1635 -1.7929
 4191SOL    MW416538   3.565   3.659   1.668  0.1368  0.4354  0.3369
 4192SOL     OW16539   3.120   1.675   0.086  0.6183  0.2062 -0.1332
 4192SOL    HW216540   3.156   1.763   0.070 -2.4643  1.4446 -1.1134
 4192SOL    HW316541   3.101   1.641  -0.002 -1.7214  0.2293  0.3128
 4192SOL    MW416542   3.122   1.682   0.072  0.2796  0.7355 -0.1372
 4193SOL     OW16543   0.587   2.360   1.582 -0.3738  0.5183  0.6261
 4193SOL    HW216544   0.565   2.290   1.520 -0.3200 -0.0347  1.2226
 4193SOL    HW316545   0.566   2.441   1.535 -0.5958  0.0987 -0.0101
 4193SOL    MW416546   0.581   2.361   1.567  0.7739 -0.2806 -0.1416
 4194SOL     OW16547   6.168   3.390   3.017 -0.4971 -0.1050 -0.6607
 4194SOL    HW216548   6.093   3.347   3.060  0.8383 -1.0789  0.8064
 4194SOL    HW316549   6.230   3.319   3.002  1.5583  1.1826  1.2903
 4194SOL    MW416550   6.166   3.375   3.021  0.1813  0.2762 -0.5640
 4195SOL     OW16551   1.778   0.731   5.447  0.2755  0.5346  0.5773
 4195SOL    HW216552   1.734   0.816   5.435  0.2659  0.3775 -0.5848
 4195SOL    HW316553   1.713   0.667   5.418  0.4497  0.1544  1.0243
 4195SOL    MW416554   1.763   0.734   5.442 -0.2529  0.1141  0.1826
 4196SOL     OW16555   4.605   0.603   4.106 -0.4138  0.1073 -0.0597
 4196SOL    HW216556   4.546   0.549   4.054 -0.5563  0.6502 -0.4711
 4196SOL    HW316557   4.559   0.686   4.117 -0.2093  0.1375  0.5930
 4196SOL    MW416558   4.591   0.607   4.100 -0.5118 -0.2242  0.1046
 4197SOL     OW16559   6.246   4.129   5.211 -0.9365  0.0810  0.1405
 4197SOL    HW216560   6.316   4.155   5.152 -2.0611  1.5367 -0.6504
 4197SOL    HW316561   6.283   4.060   5.266  0.6342 -0.1817 -1.2006
 4197SOL    MW416562   6.260   4.124   5.210  0.1238  0.2865  0.2294
 4198SOL     OW16563   6.230   1.924   3.215 -0.1412  0.7392 -0.2054
 4198SOL    HW216564   6.237   1.942   3.121  0.2585 -1.0590 -0.5656
 4198SOL    HW316565   6.317   1.942   3.249  0.8396 -2.1088 -0.9216
 4198SOL    MW416566   6.242   1.929   3.207  0.0810 -0.5192  0.6603
 4199SOL     OW16567   1.097   4.335   0.282  0.4647  0.0656  0.4017
 4199SOL    HW216568   1.022   4.298   0.237  0.5089  0.5978 -0.1110
 4199SOL    HW316569   1.090   4.429   0.269  1.0337  0.1468  0.6385
 4199SOL    MW416570   1.087   4.342   0.274 -0.0385  0.2253  0.1640
 4200SOL     OW16571   0.259   2.502   0.812 -0.4999 -0.3617 -0.2310
 4200SOL    HW216572   0.309   2.545   0.743 -1.6011 -0.5302 -1.1685
 4200SOL    HW316573   0.272   2.408   0.796 -1.5791 -0.4228 -0.8763
 4200SOL    MW416574   0.268   2.495   0.801  0.3534  0.5978  0.1859
 4201SOL     OW16575   3.635   4.010   0.233 -0.0001  0.2067 -0.2543
 4201SOL    HW216576   3.580   3.943   0.192  0.5754  0.0946 -0.8661
 4201SOL    HW316577   3.640   4.081   0.169  1.0606 -0.0505 -0.4906
 4201SOL    MW416578   3.629   4.010   0.219  0.0494 -0.3144 -0.6275
 4202SOL     OW16579   6.186   0.356   6.264 -0.7916 -0.2768  0.1628
 4202SOL    HW216580   6.224   0.269   6.249  0.2918  0.2561 -0.3003
 4202SOL    HW316581   6.116   0.362   6.199 -1.6024 -1.2115  0.9186
 4202SOL    MW416582   6.182   0.345   6.253  0.3158 -0.2731  0.0133
 4203SOL     OW16583   5.494   1.871   4.145  0.3665 -0.6438  0.1436
 4203SOL    HW216584   5.533   1.944   4.191 -0.9915 -0.3780  0.9418
 4203SOL    HW316585   5.486   1.901   4.054 -0.1302  0.1849  0.4516
 4203SOL    MW416586   5.498   1.884   4.139 -0.1219 -0.3313 -0.0438
 4204SOL     OW16587   1.974   0.526   5.928  0.2596  0.4108 -0.0165
 4204SOL    HW216588   1.882   0.548   5.911 -0.1589 -0.1368  1.3902
 4204SOL    HW316589   2.024   0.588   5.874 -0.9273  0.9589 -0.5203
 4204SOL    MW416590   1.969   0.537   5.919 -0.5210 -0.3470 -0.0909
 4205SOL     OW16591   2.613   5.984   2.869 -0.0038 -0.8628  0.1262
 4205SOL    HW216592   2.654   5.997   2.955  0.5391 -0.3615 -0.2013
 4205SOL    HW316593   2.525   5.951   2.889  1.1951 -3.9754  0.8350
 4205SOL    MW416594   2.607   5.981   2.883 -0.3510 -0.0493  0.3140
 4206SOL     OW16595   1.518   5.683   3.255 -0.6191  0.0078  0.1871
 4206SOL    HW216596   1.558   5.769   3.246 -0.8802  0.0816 -0.3594
 4206SOL    HW316597   1.535   5.640   3.170  0.9142 -1.0964  0.9926
 4206SOL    MW416598   1.526   5.688   3.243  0.3008 -0.5165 -0.1162
 4207SOL     OW16599   6.369   3.970   4.620 -0.3247  0.2432  0.2276
 4207SOL    HW216600   6.408   3.965   4.707 -0.8538  0.8765  0.5122
 4207SOL    HW316601   6.360   4.064   4.603  1.9991  0.2387 -1.5448
 4207SOL    MW416602   6.373   3.982   4.629 -0.7350 -0.5801  0.4344
 4208SOL     OW16603   5.652   1.594   2.440 -0.3709 -0.1872  0.1202
 4208SOL    HW216604   5.689   1.682   2.434 -0.6051 -0.0933  0.0200
 4208SOL    HW316605   5.663   1.556   2.353  0.0781 -0.4014  0.2672
 4208SOL    MW416606   5.658   1.600   2.428 -0.0271 -0.0765  0.0062
 4209SOL     OW16607   0.797   2.433   4.036  0.8306 -0.3290  0.2530
 4209SOL    HW216608   0.748   2.510   4.005  1.0614  0.6168  2.1015
 4209SOL    HW316609   0.737   2.360   4.023  0.4649  0.1859 -1.2110
 4209SOL    MW416610   0.783   2.434   4.030  0.4020 -0.0535 -0.0435
 4210SOL     OW16611   0.398   3.643   6.252  0.1717  0.6592  0.0767
 4210SOL    HW216612   0.404   3.616   6.344  0.6592  0.4810 -0.0072
 4210SOL    HW316613   0.314   3.689   6.247  0.8088  1.9843  0.9545
 4210SOL    MW416614   0.387   3.645   6.264  0.5567 -0.1131  0.4085
 4211SOL     OW16615   6.148   2.686   1.870  0.3039  0.1187  0.2166
 4211SOL    HW216616   6.101   2.760   1.831  0.1062 -0.8145 -1.4004
 4211SOL    HW316617   6.084   2.615   1.872  1.0344 -0.5642 -0.0806
 4211SOL    MW416618   6.133   2.686   1.865 -0.2209  0.2073 -0.4705
 4212SOL     OW16619   3.492   4.858   1.716 -0.2439  0.4392 -0.0459
 4212SOL    HW216620   3.543   4.821   1.788  2.0161  0.9606 -1.2698
 4212SOL    HW316621   3.421   4.795   1.701  1.4788 -1.6785  0.1635
 4212SOL    MW416622   3.490   4.844   1.723  0.5298 -0.2154  0.4383
 4213SOL     OW16623   3.678   4.224   0.572  0.2577 -0.2612  0.2851
 4213SOL    HW216624   3.733   4.229   0.494 -0.3729  1.6356 -0.0992
 4213SOL    HW316625   3.728   4.268   0.640  0.0605 -0.3451  0.4861
 4213SOL    MW416626   3.692   4.230   0.571  0.5670  0.0541  0.1191
 4214SOL     OW16627   5.579   2.627   6.296  0.6232 -0.2721 -0.3266
 4214SOL    HW216628   5.530   2.674   6.229  0.2769 -2.1307 -1.4629
 4214SOL    HW316629   5.660   2.677   6.306 -0.0596  0.9840 -0.8918
 4214SOL    MW416630   5.583   2.640   6.288 -0.7733  0.1797 -0.4364
 4215SOL     OW16631   5.049   1.911   0.589  0.7021  0.5031 -0.0179
 4215SOL    HW216632   5.049   1.917   0.685  0.7712 -0.3992  0.0446
 4215SOL    HW316633   5.119   1.969   0.561  1.9020 -0.6215  0.5841
 4215SOL    MW416634   5.058   1.919   0.598 -0.5866 -0.4857  0.0379
 4216SOL     OW16635   5.143   5.840   1.208 -0.2918  0.2147  0.5235
 4216SOL    HW216636   5.168   5.762   1.258 -1.1892  0.2289  1.0227
 4216SOL    HW316637   5.052   5.855   1.232 -0.4437  0.8108 -0.3756
 4216SOL    MW416638   5.134   5.831   1.218  0.0959 -0.4122 -0.0118
 4217SOL     OW16639   0.162   6.000   5.222 -0.1627 -0.1192  0.2651
 4217SOL    HW216640   0.157   6.072   5.160  0.2869  0.7019  1.1581
 4217SOL    HW316641   0.253   5.969   5.215 -0.2983 -0.4598  0.0284
 4217SOL    MW416642   0.174   6.005   5.213 -0.5460  0.2215 -0.0958
 4218SOL     OW16643   3.609   6.364   4.969  0.4772  0.8361  0.2828
 4218SOL    HW216644   3.596   6.308   5.045  3.1198  0.7024  0.7120
 4218SOL    HW316645   3.668   6.314   4.912 -0.0304  1.6835 -1.0254
 4218SOL    MW416646   3.615   6.350   4.972  0.0208  0.1412 -0.3042
 4219SOL     OW16647   5.612   1.816   4.757  0.0829 -0.0951 -0.5133
 4219SOL    HW216648   5.543   1.815   4.823  0.8741 -0.1594  0.3355
 4219SOL    HW316649   5.569   1.790   4.676 -0.9481  0.1857 -0.0632
 4219SOL    MW416650   5.597   1.813   4.755 -0.3435  0.2167  0.1362
 4220SOL     OW16651   2.935   4.346   3.408 -0.6904 -0.3642 -0.4648
 4220SOL    HW216652   2.854   4.316   3.448 -2.2710 -0.2088 -3.2832
 4220SOL    HW316653   3.004   4.302   3.458 -2.4692 -0.8249  1.7614
 4220SOL    MW416654   2.934   4.336   3.420  0.2601 -0.2463 -0.1992
 4221SOL     OW16655   3.614   5.630   1.682  0.2523 -0.0272 -0.3056
 4221SOL    HW216656   3.534   5.578   1.672  0.6205 -1.0824  1.8717
 4221SOL    HW316657   3.591   5.715   1.644 -0.7138 -1.3516 -2.9581
 4221SOL    MW416658   3.600   5.635   1.675 -0.0766  0.1824 -0.4106
 4222SOL     OW16659   2.748   5.087   5.755 -0.0465  0.4653 -0.2665
 4222SOL    HW216660   2.667   5.090   5.806  0.4344 -0.5712  0.6017
 4222SOL    HW316661   2.817   5.075   5.820  0.5502 -1.2717 -1.1526
 4222SOL    MW416662   2.747   5.085   5.770  0.2671 -0.2467 -0.6780
 4223SOL     OW16663   2.839   4.966   3.368  0.4665 -0.6817 -0.3955
 4223SOL    HW216664   2.804   4.924   3.290 -0.5328 -1.9266  0.6766
 4223SOL    HW316665   2.808   5.056   3.363 -1.4860 -1.3056 -0.3650
 4223SOL    MW416666   2.831   4.972   3.357 -0.6979  0.4357  0.3876
 4224SOL     OW16667   3.021   2.484   3.057  0.5529  0.1706  0.1384
 4224SOL    HW216668   3.034   2.395   3.023 -0.5145  1.0132 -2.7694
 4224SOL    HW316669   3.110   2.516   3.075  1.0245 -1.1136  0.1817
 4224SOL    MW416670   3.035   2.476   3.055  0.4098  0.4527 -0.5729
 4225SOL     OW16671   5.292   2.656   1.946 -0.0474 -0.7966  0.0161
 4225SOL    HW216672   5.295   2.562   1.926  3.3937 -0.9287  0.5203
 4225SOL    HW316673   5.374   2.690   1.912 -0.4788  1.7562  1.2739
 4225SOL    MW416674   5.303   2.648   1.939 -0.2197  0.1576 -0.6335
 4226SOL     OW16675   4.943   3.885   2.378 -0.0310 -0.5866 -0.5284
 4226SOL    HW216676   4.879   3.948   2.345 -0.1235 -0.4828 -0.1633
 4226SOL    HW316677   4.952   3.820   2.309  0.8597  0.3983 -1.3606
 4226SOL    MW416678   4.935   3.885   2.365 -0.1806 -0.3598  0.6808
 4227SOL     OW16679   5.125   0.304   3.846  0.2543 -0.1869 -0.7653
 4227SOL    HW216680   5.109   0.383   3.794  0.5990  1.8178  1.9812
 4227SOL    HW316681   5.059   0.306   3.915  1.1228 -1.6110  0.1567
 4227SOL    MW416682   5.114   0.315   3.848 -0.1524  0.3190  0.6444
 4228SOL     OW16683   5.506   1.643   0.233 -0.0421  0.0673 -0.5083
 4228SOL    HW216684   5.537   1.669   0.320  0.0218  1.3482 -0.8912
 4228SOL    HW316685   5.551   1.560   0.215 -0.2110 -0.3203  0.7478
 4228SOL    MW416686   5.516   1.635   0.243 -0.6480 -0.1486 -0.5163
 4229SOL     OW16687   5.260   4.992   2.646 -0.8087  0.4693 -0.2673
 4229SOL    HW216688   5.208   5.061   2.684  1.4513  1.3067  1.5529
 4229SOL    HW316689   5.197   4.924   2.623 -2.9201  2.4363 -0.6550
 4229SOL    MW416690   5.245   4.992   2.648  0.6301  0.3327  0.0395
 4230SOL     OW16691   1.155   5.246   3.449 -0.0769 -0.2955  0.5142
 4230SOL    HW216692   1.160   5.329   3.497  0.0126 -0.0632  0.1091
 4230SOL    HW316693   1.225   5.193   3.486 -0.8652 -0.6377  1.5951
 4230SOL    MW416694   1.165   5.250   3.460  0.0041 -0.1282  0.2634
 4231SOL     OW16695   3.904   1.658   4.684  0.1796  0.2119  0.2388
 4231SOL    HW216696   3.984   1.623   4.644 -0.8615 -0.4969 -1.3478
 4231SOL    HW316697   3.896   1.613   4.767  0.2769 -1.4064 -0.5877
 4231SOL    MW416698   3.913   1.648   4.689 -0.1154  0.1254  0.0468
 4232SOL     OW16699   1.022   6.196   2.178 -0.3685  0.0092 -0.0657
 4232SOL    HW216700   0.946   6.189   2.119 -1.3365  2.0822  0.8397
 4232SOL    HW316701   1.060   6.282   2.157 -0.9536  0.9856  2.4922
 4232SOL    MW416702   1.017   6.207   2.167  0.0674  0.2888 -1.0717
 4233SOL     OW16703   3.962   1.956   2.709  0.2258  0.6755  0.0393
 4233SOL    HW216704   3.931   1.894   2.774 -0.9230  1.8946  0.6924
 4233SOL    HW316705   3.918   1.931   2.628 -1.5297  1.5681  0.6586
 4233SOL    MW416706   3.952   1.945   2.707  0.8469  0.9995  0.2739
 4234SOL     OW16707   1.000   3.455   5.947  0.3205 -0.1470 -0.8656
 4234SOL    HW216708   1.001   3.500   6.031 -0.4256 -0.9900 -0.3955
 4234SOL    HW316709   1.078   3.487   5.902  0.7974  0.2110  0.1878
 4234SOL    MW416710   1.010   3.465   5.952  0.2043  0.2766 -0.6561
 4235SOL     OW16711   5.027   4.704   5.402 -0.0493 -0.6815 -0.1388
 4235SOL    HW216712   5.007   4.692   5.495  0.3128 -3.2225 -0.3237
 4235SOL    HW316713   5.106   4.653   5.388  1.0104  1.2205 -1.4953
 4235SOL    MW416714   5.035   4.696   5.412 -0.8348 -0.4560 -0.0168
 4236SOL     OW16715   2.404   3.730   1.392 -0.0562 -0.2045  0.0159
 4236SOL    HW216716   2.491   3.754   1.422  1.0984  0.3049 -3.3260
 4236SOL    HW316717   2.396   3.637   1.413  0.8163 -0.0066  1.3171
 4236SOL    MW416718   2.414   3.721   1.398 -0.2204  0.9314  0.5821
 4237SOL     OW16719   0.773   3.310   1.215  0.1046  0.1375  0.1438
 4237SOL    HW216720   0.834   3.383   1.220 -0.1132  0.2626  1.0808
 4237SOL    HW316721   0.688   3.351   1.197  0.0081  0.1065  0.5196
 4237SOL    MW416722   0.770   3.325   1.213 -0.1080 -0.8358 -0.3277
 4238SOL     OW16723   1.380   3.214   2.477  0.2524  0.0834 -0.4175
 4238SOL    HW216724   1.323   3.185   2.405  1.0795  0.4920 -1.2703
 4238SOL    HW316725   1.458   3.159   2.468  0.4335  0.2605  0.0694
 4238SOL    MW416726   1.383   3.203   2.466 -0.1721  0.1125  0.0101
 4239SOL     OW16727   3.340   1.422   3.586  0.0567 -0.1076 -0.0688
 4239SOL    HW216728   3.386   1.472   3.653  1.4987 -1.5464  0.0720
 4239SOL    HW316729   3.395   1.346   3.570 -2.3842 -2.0744  0.2324
 4239SOL    MW416730   3.353   1.418   3.593 -0.3605 -0.4499  0.0247
 4240SOL     OW16731   4.954   5.154   2.358  0.0997 -0.4923 -0.2782
 4240SOL    HW216732   4.883   5.167   2.421  0.6160 -0.1657  0.2405
 4240SOL    HW316733   5.033   5.179   2.405  0.4409  0.2142 -1.1937
 4240SOL    MW416734   4.955   5.159   2.372 -0.2223  0.6730 -0.1247
 4241SOL     OW16735   2.693   6.167   4.670  0.3462 -0.3475 -0.0405
 4241SOL    HW216736   2.630   6.207   4.610  1.8817 -0.0125 -1.5029
 4241SOL    HW316737   2.717   6.084   4.628  0.6056 -0.6639  0.7024
 4241SOL    MW416738   2.688   6.161   4.657 -0.2993 -0.4140  0.3239
 4242SOL     OW16739   1.217   4.550   3.635  0.6108  0.3288 -0.7302
 4242SOL    HW216740   1.170   4.627   3.604  1.3066  0.6703 -0.9518
 4242SOL    HW316741   1.257   4.577   3.718 -0.9321 -0.4630  0.3188
 4242SOL    MW416742   1.216   4.563   3.642 -0.3123 -0.2117  0.1790
 4243SOL     OW16743   3.188   1.770   4.101 -0.0276  0.1670 -0.1846
 4243SOL    HW216744   3.179   1.759   4.196 -0.2369 -1.5461 -0.3619
 4243SOL    HW316745   3.120   1.834   4.078  0.0785  0.6646  0.8195
 4243SOL    MW416746   3.178   1.777   4.110  0.4103  0.1697  0.3894
 4244SOL     OW16747   2.176   1.711   6.235 -0.1579 -0.2689  0.0863
 4244SOL    HW216748   2.163   1.797   6.196 -0.5975  0.2322  1.2979
 4244SOL    HW316749   2.266   1.687   6.211 -0.0061  0.5526 -0.2060
 4244SOL    MW416750   2.186   1.719   6.227  0.1703  0.3196  0.5662
 4245SOL     OW16751   5.065   0.214   5.382 -0.3909  0.5821 -0.0332
 4245SOL    HW216752   5.139   0.273   5.394  1.4130 -1.3792 -0.9953
 4245SOL    HW316753   5.067   0.158   5.460 -0.9529  0.5798 -0.0159
 4245SOL    MW416754   5.075   0.214   5.394 -0.5810 -0.2742  0.2640
 4246SOL     OW16755   2.208   0.451   6.377 -0.0136  0.3081  0.0011
 4246SOL    HW216756   2.115   0.472   6.391 -0.8168 -3.4727  1.6178
 4246SOL    HW316757   2.214   0.431   6.284 -0.8248  0.5128 -0.1075
 4246SOL    MW416758   2.197   0.451   6.367  0.5147  0.1467 -0.5223
 4247SOL     OW16759   5.557   4.773   4.910  0.1677  0.0598  0.1151
 4247SOL    HW216760   5.602   4.727   4.981  1.0701 -1.4340 -1.3437
 4247SOL    HW316761   5.467   4.740   4.913  0.1830  0.0482  0.5742
 4247SOL    MW416762   5.551   4.763   4.920  0.0471 -0.1691 -1.1590
 4248SOL     OW16763   2.000   3.017   2.390  0.0315  0.3268  0.1240
 4248SOL    HW216764   2.014   3.041   2.482  0.3388  0.6009  0.0075
 4248SOL    HW316765   1.937   3.081   2.358  0.9992  1.1230 -0.2402
 4248SOL    MW416766   1.993   3.029   2.398 -0.2592 -0.2536  0.1148
 4249SOL     OW16767   3.785   3.347   2.278  0.4083  0.1122 -0.1242
 4249SOL    HW216768   3.713   3.350   2.341  0.3886  0.0169 -0.1420
 4249SOL    HW316769   3.817   3.257   2.282 -0.7758 -0.4207 -1.5721
 4249SOL    MW416770   3.780   3.335   2.287  0.0915 -0.1388  0.4485
 4250SOL     OW16771   6.384   2.509   4.048  0.0132 -0.3614  0.2838
 4250SOL    HW216772   6.390   2.440   4.114  0.7670 -1.0745 -0.5045
 4250SOL    HW316773   6.472   2.547   4.045 -0.0630 -0.2166 -0.1918
 4250SOL    MW416774   6.397   2.505   4.056  0.2265 -0.4155 -0.4451
 4251SOL     OW16775   3.927   0.567   5.089  0.3797  0.6857 -0.3547
 4251SOL    HW216776   3.843   0.612   5.098 -0.3599 -0.8826  1.2352
 4251SOL    HW316777   3.910   0.499   5.023  1.1461  1.8852 -1.8483
 4251SOL    MW416778   3.913   0.564   5.081 -0.1989  0.0676  0.2815
 4252SOL     OW16779   5.368   1.707   3.339  0.3848  0.6583  0.7554
 4252SOL    HW216780   5.386   1.616   3.313  1.5198  1.2231 -0.5399
 4252SOL    HW316781   5.450   1.753   3.324 -0.0699  1.8470  1.7489
 4252SOL    MW416782   5.381   1.701   3.333 -0.1428 -0.3247 -0.6292
 4253SOL     OW16783   1.950   1.100   6.427  0.3450  0.0218 -0.0834
 4253SOL    HW216784   1.921   1.110   6.517  0.0155 -1.7465  0.0523
 4253SOL    HW316785   2.039   1.064   6.434 -0.0154 -0.9880 -0.4169
 4253SOL    MW416786   1.958   1.096   6.440 -0.5962 -0.2938 -0.1277
 4254SOL     OW16787   5.877   1.724   6.366 -0.0659 -0.1851  0.1180
 4254SOL    HW216788   5.923   1.769   6.295 -1.1382 -1.2849 -1.3473
 4254SOL    HW316789   5.785   1.728   6.340 -0.5778  0.0601  1.8737
 4254SOL    MW416790   5.871   1.731   6.353  0.4389  0.0231  0.0350
 4255SOL     OW16791   1.937   2.851   3.065 -0.3511 -0.4576  0.3936
 4255SOL    HW216792   1.909   2.903   3.141 -0.9345 -0.4471  0.1779
 4255SOL    HW316793   1.982   2.776   3.103 -0.2785 -0.2419  0.7404
 4255SOL    MW416794   1.939   2.848   3.080  0.3399 -0.7239 -0.0610
 4256SOL     OW16795   1.213   2.548   0.695 -0.5368  0.0032 -0.4445
 4256SOL    HW216796   1.119   2.566   0.707 -1.0129 -1.6853 -1.4160
 4256SOL    HW316797   1.217   2.491   0.618  1.3972  0.8874 -1.0532
 4256SOL    MW416798   1.201   2.543   0.686  0.1297  0.3789  0.1685
 4257SOL     OW16799   5.278   2.606   5.499 -0.2340  0.1197  0.1190
 4257SOL    HW216800   5.234   2.679   5.543 -1.0886 -1.0368  1.2669
 4257SOL    HW316801   5.233   2.528   5.532  0.0478 -0.8919 -1.7743
 4257SOL    MW416802   5.266   2.605   5.509  0.0421 -0.1881  0.1721
 4258SOL     OW16803   0.634   1.918   0.059 -0.0059  0.6594  0.1726
 4258SOL    HW216804   0.683   1.853   0.110  0.0946  0.0227 -0.7243
 4258SOL    HW316805   0.546   1.881   0.051 -0.0874  0.8741  0.0813
 4258SOL    MW416806   0.629   1.905   0.065  0.0862  0.3081  0.1666
 4259SOL     OW16807   4.394   5.595   2.708 -0.3149 -0.0277 -0.3099
 4259SOL    HW216808   4.351   5.553   2.633  0.8486 -0.9281 -0.5002
 4259SOL    HW316809   4.487   5.590   2.687  0.0173 -0.1594  1.1292
 4259SOL    MW416810   4.400   5.589   2.695  0.3095 -0.0874 -0.0880
 4260SOL     OW16811   0.239   4.123   0.067  0.1539  0.6080 -0.1638
 4260SOL    HW216812   0.206   4.140   0.155  1.1636 -0.0938  0.3720
 4260SOL    HW316813   0.242   4.209   0.026 -1.8851  0.7498 -0.0978
 4260SOL    MW416814   0.235   4.137   0.073 -0.4511 -0.5503  0.4993
 4261SOL     OW16815   4.153   5.403   6.353 -0.3663  0.0987  0.1070
 4261SOL    HW216816   4.182   5.320   6.391 -0.9920  0.4389  1.3773
 4261SOL    HW316817   4.227   5.462   6.364  0.3909 -0.4784 -1.5489
 4261SOL    MW416818   4.166   5.400   6.359 -0.4027  0.6322 -0.3738
 4262SOL     OW16819   1.416   4.024   1.957 -0.2957 -0.1005 -0.6000
 4262SOL    HW216820   1.354   4.074   2.011  1.6923  1.3537  0.5028
 4262SOL    HW316821   1.418   3.938   1.997 -0.8191  0.1622  0.0169
 4262SOL    MW416822   1.408   4.020   1.970 -0.1997  0.5522  0.2749
 4263SOL     OW16823   1.057   5.863   5.798 -0.1190 -1.0287 -0.2037
 4263SOL    HW216824   1.053   5.843   5.705  4.0008  1.5819 -1.2476
 4263SOL    HW316825   1.150   5.853   5.820 -0.2352  2.1824  2.5235
 4263SOL    MW416826   1.069   5.859   5.789  0.7291  0.1650 -0.1560
 4264SOL     OW16827   5.385   3.800   4.925  0.7153 -0.2149 -0.0384
 4264SOL    HW216828   5.405   3.709   4.904  1.2136  0.1369 -1.2239
 4264SOL    HW316829   5.382   3.844   4.839 -1.1243  0.5750  0.3830
 4264SOL    MW416830   5.387   3.794   4.911  0.4180 -0.2945  0.1860
 4265SOL     OW16831   2.568   1.240   0.098  0.0304 -0.0385  0.0287
 4265SOL    HW216832   2.629   1.264   0.028 -0.3495 -0.5555 -0.4882
 4265SOL    HW316833   2.502   1.309   0.095  0.6705  0.6240  0.7100
 4265SOL    MW416834   2.568   1.252   0.088  0.0044  0.2359  0.2582
 4266SOL     OW16835   6.012   1.746   0.737 -0.4529  0.1568 -0.0434
 4266SOL    HW216836   6.085   1.783   0.687 -0.8048  0.4151 -0.3717
 4266SOL    HW316837   6.051   1.718   0.820  0.5246 -2.0341 -1.1736
 4266SOL    MW416838   6.027   1.747   0.742 -0.1510  0.0731  0.5644
 4267SOL     OW16839   4.383   1.635   2.621 -0.3942 -0.6009 -0.1002
 4267SOL    HW216840   4.420   1.613   2.536  0.1171  0.0627 -0.0619
 4267SOL    HW316841   4.295   1.598   2.619 -1.0286  0.8483 -1.5981
 4267SOL    MW416842   4.376   1.628   2.609  0.0178 -0.6144  0.3136
 4268SOL     OW16843   0.111   1.692   0.293 -0.0087 -0.0625  0.5993
 4268SOL    HW216844   0.112   1.768   0.235  0.7241  0.3748  1.1769
 4268SOL    HW316845   0.036   1.707   0.350 -0.2487 -0.0973  0.2980
 4268SOL    MW416846   0.101   1.704   0.293 -0.4138  0.0148  0.1232
 4269SOL     OW16847   2.661   2.075   3.651 -0.4548  0.1922  0.0359
 4269SOL    HW216848   2.731   2.010   3.658  1.2199  1.6764 -1.7929
 4269SOL    HW316849   2.635   2.092   3.742  1.3255 -0.6419  0.7376
 4269SOL    MW416850   2.667   2.068   3.664  0.6272 -0.4274  0.1980
 4270SOL     OW16851   2.887   6.229   3.956  0.3680 -0.4818  0.4203
 4270SOL    HW216852   2.820   6.208   3.891  0.5586  1.2872 -0.4344
 4270SOL    HW316853   2.839   6.257   4.033  0.0786  0.7482 -0.1796
 4270SOL    MW416854   2.872   6.230   3.958  0.6704 -0.1227 -0.9556
 4271SOL     OW16855   3.615   4.446   4.293 -0.1163  0.1527 -0.3685
 4271SOL    HW216856   3.591   4.375   4.351 -0.2990  0.2687 -0.3006
 4271SOL    HW316857   3.689   4.489   4.336 -0.4080  0.3886 -0.1019
 4271SOL    MW416858   3.622   4.443   4.306  0.2973 -0.1013  0.4562
 4272SOL     OW16859   3.349   3.874   1.484  0.6078  0.2767  0.4226
 4272SOL    HW216860   3.425   3.860   1.427 -0.6584  2.4720 -2.0310
 4272SOL    HW316861   3.303   3.790   1.485  1.1266 -0.0560 -1.1550
 4272SOL    MW416862   3.353   3.861   1.477 -0.3902 -0.9118  0.1630
 4273SOL     OW16863   1.352   5.442   3.754  0.4291 -0.0841 -0.8587
 4273SOL    HW216864   1.426   5.386   3.729 -0.2938 -1.0203 -0.9722
 4273SOL    HW316865   1.315   5.400   3.831 -0.0915  0.2750 -0.9074
 4273SOL    MW416866   1.357   5.429   3.761  0.0427  0.2218 -0.1342
 4274SOL     OW16867   1.437   2.345   2.971  0.0927  0.7438 -0.4472
 4274SOL    HW216868   1.456   2.315   2.882  0.0657  0.8301 -0.4826
 4274SOL    HW316869   1.379   2.420   2.958 -0.2558  0.4970 -0.3421
 4274SOL    MW416870   1.431   2.351   2.957 -0.1336 -0.3700  0.1383
 4275SOL     OW16871   0.372   3.956   5.935  0.3524 -0.3903  0.0592
 4275SOL    HW216872   0.343   4.022   5.999 -0.1146  1.0741 -1.5818
 4275SOL    HW316873   0.425   3.895   5.986  2.0430  2.0450  1.4408
 4275SOL    MW416874   0.375   3.957   5.951 -0.2698 -0.1354 -0.0154
 4276SOL     OW16875   3.120   0.282   5.447  0.4732  0.1165  0.3234
 4276SOL    HW216876   3.082   0.346   5.387 -0.5365  0.4589  1.2837
 4276SOL    HW316877   3.198   0.325   5.482  0.9981 -0.0393 -0.6330
 4276SOL    MW416878   3.125   0.296   5.444 -0.0876  0.3345  0.0021
 4277SOL     OW16879   0.697   1.650   0.645 -0.4156  0.1277 -0.3376
 4277SOL    HW216880   0.754   1.662   0.720 -0.0579 -1.0020 -0.4109
 4277SOL    HW316881   0.643   1.574   0.667 -1.9989  1.2166 -0.2193
 4277SOL    MW416882   0.697   1.642   0.658  0.0437 -0.3005 -0.4353
 4278SOL     OW16883   2.637   5.681   2.245  0.2552 -0.4289  0.6587
 4278SOL    HW216884   2.678   5.642   2.168  0.0007 -1.1733  0.8940
 4278SOL    HW316885   2.689   5.760   2.262 -0.1227  0.1238 -0.6841
 4278SOL    MW416886   2.649   5.686   2.237 -0.0413 -0.2454 -0.2868
 4279SOL     OW16887   2.935   1.975   3.434 -0.1208 -0.0629  0.0444
 4279SOL    HW216888   2.929   1.884   3.407  2.1704  0.2284 -1.7225
 4279SOL    HW316889   2.895   1.977   3.521 -1.5464 -2.4267 -0.4861
 4279SOL    MW416890   2.929   1.963   3.442  0.0277 -0.0196  0.5503
 4280SOL     OW16891   0.472   0.996   3.074 -0.2064  0.2408 -0.4383
 4280SOL    HW216892   0.510   0.911   3.097 -0.8054 -0.0538 -0.5093
 4280SOL    HW316893   0.483   1.002   2.979  0.5139  0.5871 -0.3416
 4280SOL    MW416894   0.479   0.986   3.065  0.0188  0.3588  0.0137
 4281SOL     OW16895   1.374   5.918   2.084 -0.5459 -0.0315  0.0541
 4281SOL    HW216896   1.448   5.877   2.129 -0.7447  0.2876  0.6775
 4281SOL    HW316897   1.390   6.012   2.093 -0.7393  0.0381 -0.2997
 4281SOL    MW416898   1.386   5.925   2.091  0.1339 -0.2610  0.0182
 4282SOL     OW16899   1.447   0.147   2.491 -0.0763 -0.1051 -0.0928
 4282SOL    HW216900   1.486   0.168   2.407  0.5267 -0.7813  0.0115
 4282SOL    HW316901   1.464   0.224   2.545  0.9721 -0.3197 -0.1000
 4282SOL    MW416902   1.454   0.160   2.487 -0.1601  0.3970 -0.2411
 4283SOL     OW16903   4.223   3.911   0.764 -0.2222  0.0222 -0.2769
 4283SOL    HW216904   4.234   3.873   0.852 -1.9324  0.2478  0.0755
 4283SOL    HW316905   4.312   3.920   0.731  0.4702 -0.0781  1.4289
 4283SOL    MW416906   4.236   3.907   0.772  0.4157  0.0531  0.2041
 4284SOL     OW16907   1.955   1.288   3.778 -0.0754  0.3661  0.2626
 4284SOL    HW216908   1.894   1.355   3.809  0.1289  0.3674  0.6649
 4284SOL    HW316909   1.930   1.274   3.687 -0.0786  1.0382  0.1525
 4284SOL    MW416910   1.943   1.295   3.770  0.1724  0.1301 -0.1312
 4285SOL     OW16911   1.302   5.533   0.386 -0.1958 -0.3065 -0.1975
 4285SOL    HW216912   1.320   5.585   0.308 -0.3453  0.5394  0.3182
 4285SOL    HW316913   1.208   5.543   0.401  0.3237  2.6054  2.1502
 4285SOL    MW416914   1.292   5.541   0.378 -0.5036 -0.2108  0.5837
 4286SOL     OW16915   3.054   0.346   4.529  0.0178 -0.1189 -0.3348
 4286SOL    HW216916   2.984   0.403   4.495 -0.6075 -0.5643  0.1742
 4286SOL    HW316917   3.008   0.268   4.559  0.8147 -0.6946 -0.5773
 4286SOL    MW416918   3.038   0.343   4.528 -0.1946 -0.0462 -0.0791
 4287SOL     OW16919   3.272   0.952   0.512 -0.2901 -0.0973  0.5045
 4287SOL    HW216920   3.332   0.937   0.585  0.4038 -0.6898 -0.1630
 4287SOL    HW316921   3.296   0.885   0.447 -2.0948 -0.7553  0.4630
 4287SOL    MW416922   3.283   0.941   0.513 -0.5053  0.0582  0.2026
 4288SOL     OW16923   2.186   5.542   4.969 -0.1123  0.5252  0.3752
 4288SOL    HW216924   2.156   5.482   5.037 -0.7325 -1.1512 -1.2638
 4288SOL    HW316925   2.107   5.565   4.921  0.3789  1.2140 -0.1218
 4288SOL    MW416926   2.172   5.537   4.971  0.4954  0.2680 -0.1292
 4289SOL     OW16927   3.691   4.137   2.873 -0.3335 -0.0843 -0.1030
 4289SOL    HW216928   3.768   4.179   2.911 -0.5818  1.2615 -1.0081
 4289SOL    HW316929   3.677   4.184   2.790 -2.0267 -0.3978 -0.0236
 4289SOL    MW416930   3.699   4.149   2.867 -0.3210  0.1011  0.5615
 4290SOL     OW16931   0.325   2.194   4.074  0.6320  0.0775  0.0674
 4290SOL    HW216932   0.303   2.153   3.990 -1.6066  0.7976  0.2488
 4290SOL    HW316933   0.327   2.122   4.136 -0.6878 -0.1198 -0.0906
 4290SOL    MW416934   0.322   2.179   4.071 -0.5655 -0.2732 -0.3771
 4291SOL     OW16935   2.069   2.901   0.493  0.1814 -0.5379 -0.4721
 4291SOL    HW216936   2.047   2.955   0.569  2.3030 -2.0220  1.3271
 4291SOL    HW316937   1.988   2.853   0.473 -0.8218  0.9317 -0.1307
 4291SOL    MW416938   2.055   2.902   0.501  0.0156 -0.5553 -0.5237
 4292SOL     OW16939   5.010   3.473   2.373  0.0598  0.2412  0.2527
 4292SOL    HW216940   5.100   3.439   2.377 -0.6897 -1.7421  1.5257
 4292SOL    HW316941   4.998   3.517   2.458 -0.0374  0.9656 -0.1237
 4292SOL    MW416942   5.020   3.475   2.385 -0.2148  0.6130  0.1303
 4293SOL     OW16943   0.951   4.980   0.130  0.0031  0.1442  0.1597
 4293SOL    HW216944   0.875   4.994   0.073 -0.8215  1.8943  1.5689
 4293SOL    HW316945   0.914   4.950   0.212  0.9288  0.1528  0.5885
 4293SOL    MW416946   0.936   4.978   0.133  0.0331 -0.2161 -0.1944
 4294SOL     OW16947   1.049   6.338   1.837 -0.0545  0.2817  0.6908
 4294SOL    HW216948   1.135   6.299   1.850 -0.4936 -0.2723  2.1008
 4294SOL    HW316949   1.034   6.332   1.743  1.1524 -0.2324  0.5114
 4294SOL    MW416950   1.058   6.332   1.826 -0.5598 -0.2052  0.0668
 4295SOL     OW16951   1.903   4.625   0.958  0.0554  0.8304  0.2567
 4295SOL    HW216952   1.879   4.690   1.024 -0.1056 -0.5840  1.6652
 4295SOL    HW316953   1.833   4.560   0.962  0.7255  0.0492 -0.3840
 4295SOL    MW416954   1.891   4.625   0.968  0.2636  0.1028  0.3679
 4296SOL     OW16955   2.818   3.739   3.232  0.9111 -0.5226  0.3711
 4296SOL    HW216956   2.771   3.774   3.157  1.1848 -1.0923 -0.0723
 4296SOL    HW316957   2.906   3.776   3.225  0.1307  1.9667  2.1625
 4296SOL    MW416958   2.823   3.749   3.222 -0.0414  0.1848 -0.2758
 4297SOL     OW16959   5.167   0.800   4.683  0.9575 -0.2961  0.1604
 4297SOL    HW216960   5.221   0.868   4.724  0.1647  0.8910 -0.6919
 4297SOL    HW316961   5.212   0.781   4.600  0.4997  0.1438 -0.1975
 4297SOL    MW416962   5.180   0.807   4.677 -0.5672  0.1744 -0.3413
 4298SOL     OW16963   5.481   1.936   2.513 -0.2272  0.3189  0.2552
 4298SOL    HW216964   5.558   1.976   2.553 -0.0401 -0.2704  0.4931
 4298SOL    HW316965   5.482   1.845   2.544 -0.9188  0.2612  0.1152
 4298SOL    MW416966   5.492   1.929   2.522 -0.5002  0.2451 -0.2238
 4299SOL     OW16967   2.246   4.729   5.435  0.2282 -0.2904  0.0296
 4299SOL    HW216968   2.275   4.653   5.486 -0.5411 -0.7606 -0.2251
 4299SOL    HW316969   2.261   4.804   5.493  1.8295 -0.5105 -0.0374
 4299SOL    MW416970   2.252   4.729   5.449  0.2845 -0.3754  0.0376
 4300SOL     OW16971   3.730   2.523   1.642 -0.0403  0.6741  0.3558
 4300SOL    HW216972   3.815   2.532   1.686 -0.3913  2.2881  0.7583
 4300SOL    HW316973   3.752   2.518   1.549  0.4952  1.4632  0.4254
 4300SOL    MW416974   3.744   2.524   1.635  0.3138 -0.2258  0.1728
 4301SOL     OW16975   4.620   5.414   2.443 -0.0149  0.7003  0.9361
 4301SOL    HW216976   4.631   5.500   2.484 -4.5540  2.1446 -0.2537
 4301SOL    HW316977   4.533   5.385   2.472 -0.8348 -0.9911 -2.6615
 4301SOL    MW416978   4.610   5.422   2.452 -0.0716  0.0386  0.4444
 4302SOL     OW16979   3.978   2.888   6.273  0.0772  0.0568 -0.5662
 4302SOL    HW216980   3.952   2.975   6.303  0.1165  0.0802 -0.6014
 4302SOL    HW316981   3.931   2.876   6.191 -1.0445 -0.5117  0.1260
 4302SOL    MW416982   3.968   2.898   6.267  0.4019 -0.2244 -0.6322
 4303SOL     OW16983   2.403   5.388   5.318  0.2181 -0.0222 -0.8702
 4303SOL    HW216984   2.448   5.356   5.396  1.0919 -0.1236 -1.4078
 4303SOL    HW316985   2.473   5.408   5.256 -0.3628  1.6276 -1.0435
 4303SOL    MW416986   2.418   5.387   5.320 -0.5814 -0.0126  0.4269
 4304SOL     OW16987   5.387   2.386   2.715 -0.6108 -0.0334  0.3745
 4304SOL    HW216988   5.301   2.429   2.714 -1.1242 -0.9429  1.7622
 4304SOL    HW316989   5.368   2.295   2.694  0.1221 -0.1111  0.0209
 4304SOL    MW416990   5.373   2.380   2.712  0.1069  0.2658  0.3330
 4305SOL     OW16991   2.803   1.077   4.730 -0.6332  0.1021  0.0371
 4305SOL    HW216992   2.838   1.152   4.778 -0.9245 -0.1810  0.7039
 4305SOL    HW316993   2.739   1.115   4.669  0.2771  0.5450 -0.6772
 4305SOL    MW416994   2.799   1.092   4.728 -0.2424  0.3647 -0.0913
 4306SOL     OW16995   3.190   3.090   3.260 -0.3964 -0.0543 -0.3931
 4306SOL    HW216996   3.095   3.089   3.250 -0.3147 -2.2202 -1.4884
 4306SOL    HW316997   3.223   3.063   3.174  1.1572 -0.9081  0.4337
 4306SOL    MW416998   3.182   3.086   3.247 -0.3583 -0.4881  1.2390
 4307SOL     OW16999   1.583   6.255   3.854  0.6166 -0.2335  0.4816
 4307SOL    HW217000   1.528   6.177   3.855 -1.2365  0.9917  2.1816
 4307SOL    HW317001   1.655   6.235   3.914 -0.2195 -0.4350  1.4465
 4307SOL    MW417002   1.585   6.242   3.862 -0.3921  0.6780 -0.0947
 4308SOL     OW17003   2.526   2.150   0.085  0.2980 -0.2895  0.2465
 4308SOL    HW217004   2.566   2.077   0.037 -0.8781 -1.6432  1.2448
 4308SOL    HW317005   2.446   2.114   0.121 -0.6141  1.6783  0.3272
 4308SOL    MW417006   2.521   2.136   0.083 -0.2243 -0.1978 -0.3783
 4309SOL     OW17007   1.091   6.330   4.777  0.4337 -0.2929  0.1604
 4309SOL    HW217008   1.016   6.389   4.768 -2.0190 -3.0280  1.1455
 4309SOL    HW317009   1.140   6.364   4.851  1.3968  2.6313 -1.6424
 4309SOL    MW417010   1.088   6.342   4.785 -0.2030 -0.8213  0.4729
 4310SOL     OW17011   1.479   1.158   1.603 -0.0862 -0.6269 -0.2962
 4310SOL    HW217012   1.464   1.123   1.691 -1.1462 -0.0971 -0.2497
 4310SOL    HW317013   1.572   1.182   1.602 -0.4608  1.0962  1.3328
 4310SOL    MW417014   1.490   1.156   1.615 -0.0232 -0.2558  0.0482
 4311SOL     OW17015   4.866   5.544   3.665 -0.7867 -0.4205 -0.0651
 4311SOL    HW217016   4.900   5.574   3.580  0.1085 -1.2719 -0.0321
 4311SOL    HW317017   4.840   5.624   3.710 -1.1844  0.0576 -1.0955
 4311SOL    MW417018   4.867   5.558   3.660 -0.1988 -0.3649  0.4324
 4312SOL     OW17019   5.162   2.403   1.477 -0.7783 -0.3975  0.4093
 4312SOL    HW217020   5.220   2.405   1.553  1.0949  0.5485 -0.9688
 4312SOL    HW317021   5.192   2.475   1.421 -2.0825 -1.0548 -1.2516
 4312SOL    MW417022   5.174   2.413   1.480  0.1579  0.3664  0.1294
 4313SOL     OW17023   6.118   5.665   5.821  0.0784  0.1324 -0.1373
 4313SOL    HW217024   6.074   5.586   5.851 -0.0712 -0.5455 -2.0366
 4313SOL    HW317025   6.062   5.700   5.753 -0.3070  2.4130  1.2183
 4313SOL    MW417026   6.105   5.659   5.816  0.8789 -0.0552 -0.5669
 4314SOL     OW17027   3.645   1.676   4.063 -1.2087 -0.7498 -0.0301
 4314SOL    HW217028   3.583   1.743   4.035  0.7539  1.6960  1.1226
 4314SOL    HW317029   3.589   1.606   4.099 -3.3267  0.8971  0.1067
 4314SOL    MW417030   3.629   1.676   4.064  0.1670  0.2074 -0.1477
 4315SOL     OW17031   0.250   3.492   6.038  0.1172  0.2604 -0.1101
 4315SOL    HW217032   0.260   3.431   5.965 -1.2063 -1.2722  0.9077
 4315SOL    HW317033   0.256   3.578   5.998  0.3048 -0.5288 -1.8919
 4315SOL    MW417034   0.252   3.495   6.023 -0.3449  0.2733  0.5362
 4316SOL     OW17035   0.947   5.020   5.520 -0.8707  0.2638  0.7678
 4316SOL    HW217036   0.932   5.061   5.434 -1.3729  0.2305  0.8364
 4316SOL    HW317037   1.042   5.012   5.526 -0.6950  2.2568  1.1497
 4316SOL    MW417038   0.958   5.024   5.509 -0.4308 -0.3668 -0.6526
 4317SOL     OW17039   1.401   1.969   3.796 -0.4587  0.3109 -0.4626
 4317SOL    HW217040   1.381   1.876   3.793  0.6422  0.0830 -1.3955
 4317SOL    HW317041   1.317   2.013   3.782 -0.8710 -0.5442 -0.6855
 4317SOL    MW417042   1.388   1.963   3.794  0.0730 -0.0468  0.4172
 4318SOL     OW17043   0.800   4.935   1.204  0.1825 -0.4570 -0.2479
 4318SOL    HW217044   0.765   4.985   1.278  0.7781 -0.7283  0.2332
 4318SOL    HW317045   0.791   4.993   1.129  0.0508  0.0288  0.1364
 4318SOL    MW417046   0.794   4.949   1.204  0.3502 -0.3034 -0.5871
 4319SOL     OW17047   5.103   0.412   5.001  0.3846 -1.2840  0.2363
 4319SOL    HW217048   5.118   0.462   4.921  0.3731 -1.1157  0.3402
 4319SOL    HW317049   5.141   0.465   5.070 -3.5565  0.8530  1.0321
 4319SOL    MW417050   5.110   0.426   4.999 -0.3756 -0.3728 -0.3285
 4320SOL     OW17051   5.131   1.516   0.946 -0.0274  0.0492  0.5347
 4320SOL    HW217052   5.118   1.422   0.937  0.2455 -0.0325  0.9489
 4320SOL    HW317053   5.122   1.550   0.857  1.2431 -0.5532  0.1417
 4320SOL    MW417054   5.128   1.508   0.933  0.4868 -0.1928  0.1995
 4321SOL     OW17055   1.526   3.262   5.561  0.0780  0.1045 -0.2607
 4321SOL    HW217056   1.579   3.187   5.535  2.0022  0.9638  0.9165
 4321SOL    HW317057   1.517   3.314   5.482 -1.2643 -1.3014 -1.0872
 4321SOL    MW417058   1.532   3.259   5.547 -0.1226 -0.4920  0.7777
 4322SOL     OW17059   4.472   2.376   4.529 -0.0404 -0.6910 -1.0696
 4322SOL    HW217060   4.485   2.293   4.574  1.0836 -0.7573 -1.5029
 4322SOL    HW317061   4.512   2.364   4.443  3.0730  1.2771 -0.0676
 4322SOL    MW417062   4.479   2.363   4.524  0.1326  0.0910  0.0446
 4323SOL     OW17063   3.514   2.683   5.069 -0.7509  0.5116  0.0562
 4323SOL    HW217064   3.533   2.664   4.977  1.4012 -0.0212  0.5556
 4323SOL    HW317065   3.439   2.743   5.067 -2.0437 -1.0776 -1.9397
 4323SOL    MW417066   3.506   2.689   5.057 -0.5272 -0.5687  0.0845
 4324SOL     OW17067   4.573   3.074   2.760  0.6485 -0.2421 -0.2731
 4324SOL    HW217068   4.559   3.108   2.849  1.6942 -1.6810  0.4939
 4324SOL    HW317069   4.604   2.985   2.774  1.4290 -0.2900 -2.0950
 4324SOL    MW417070   4.575   3.067   2.774  0.5468 -0.4746 -0.1011
 4325SOL     OW17071   3.178   0.168   3.663 -0.0823  0.2321 -0.0755
 4325SOL    HW217072   3.144   0.210   3.742  0.1566  2.6403 -1.1685
 4325SOL    HW317073   3.100   0.129   3.622 -0.7233  1.4344 -0.0569
 4325SOL    MW417074   3.163   0.169   3.668 -0.6873  0.1140 -0.1487
 4326SOL     OW17075   6.403   3.963   2.004 -0.6700 -0.1339 -0.0624
 4326SOL    HW217076   6.345   3.893   1.974 -2.1673  0.7186  0.7678
 4326SOL    HW317077   6.395   4.032   1.939  0.4764 -0.5242 -0.6518
 4326SOL    MW417078   6.395   3.963   1.992 -0.3110 -0.4324  0.7122
 4327SOL     OW17079   0.656   3.189   2.736 -0.0238  0.1175 -0.5776
 4327SOL    HW217080   0.666   3.108   2.786 -0.3095  0.3241 -0.1802
 4327SOL    HW317081   0.733   3.191   2.679  1.4494  0.8810  1.2997
 4327SOL    MW417082   0.668   3.178   2.735 -0.1014 -0.3736  0.2760
 4328SOL     OW17083   5.291   4.375   5.201 -0.1437  0.1871 -0.7029
 4328SOL    HW217084   5.298   4.294   5.251 -1.3608  0.9909  0.8354
 4328SOL    HW317085   5.238   4.351   5.124  0.7549 -0.7819 -1.0449
 4328SOL    MW417086   5.285   4.361   5.197 -0.0703 -0.7130  0.3884
 4329SOL     OW17087   1.229   0.391   2.525 -0.3978 -0.3423 -0.0284
 4329SOL    HW217088   1.242   0.304   2.486 -2.6264 -1.4773  1.5264
 4329SOL    HW317089   1.141   0.416   2.497 -0.5420  0.5209  1.1648
 4329SOL    MW417090   1.219   0.383   2.516  0.3296 -0.0100  0.0921
 4330SOL     OW17091   2.433   3.928   5.461  0.2445  0.6421 -0.2555
 4330SOL    HW217092   2.395   3.863   5.401  0.6665 -2.3210  2.4483
 4330SOL    HW317093   2.358   3.979   5.491 -0.5015 -0.2144 -0.6081
 4330SOL    MW417094   2.418   3.926   5.457  0.5102 -0.4771 -0.3839
 4331SOL     OW17095   5.020   3.602   2.611 -0.2534  0.2250  0.0332
 4331SOL    HW217096   5.050   3.585   2.701 -1.6462  1.7013  0.8308
 4331SOL    HW317097   4.942   3.655   2.622 -0.4125  0.4924 -2.0853
 4331SOL    MW417098   5.014   3.607   2.624  0.1797 -0.3516  0.0389
 4332SOL     OW17099   0.652   4.432   3.990  0.6073 -0.1098  0.7212
 4332SOL    HW217100   0.672   4.513   4.039  1.5724  0.5239 -0.6672
 4332SOL    HW317101   0.736   4.386   3.986  0.4234 -0.3926  0.1069
 4332SOL    MW417102   0.666   4.437   3.996 -0.6306  0.3239  0.3375
 4333SOL     OW17103   2.135   5.375   5.926  0.7215  0.2365 -0.4652
 4333SOL    HW217104   2.077   5.357   5.852 -1.3652  0.5223  1.0156
 4333SOL    HW317105   2.160   5.467   5.915 -0.4646  0.5950 -0.2637
 4333SOL    MW417106   2.131   5.385   5.915 -0.6563 -0.1766 -0.2288
 4334SOL     OW17107   3.084   1.017   1.179 -0.3340  0.2570  0.0862
 4334SOL    HW217108   3.087   1.099   1.129 -1.9867  0.8797  0.9409
 4334SOL    HW317109   2.991   1.005   1.201 -0.1509 -1.9064 -0.0861
 4334SOL    MW417110   3.072   1.026   1.176 -0.0158 -0.1302  0.0663
 4335SOL     OW17111   1.010   2.451   4.975  0.1043 -0.4640  0.0856
 4335SOL    HW217112   0.942   2.496   5.025 -0.5336  0.1294 -1.2502
 4335SOL    HW317113   1.082   2.513   4.971 -0.0406 -0.3086 -0.1493
 4335SOL    MW417114   1.010   2.465   4.981 -0.2360 -0.2003  0.4132
 4336SOL     OW17115   5.439   3.216   4.439 -0.1454  0.0480  0.0539
 4336SOL    HW217116   5.490   3.296   4.439 -0.8734  0.5179  0.6563
 4336SOL    HW317117   5.424   3.197   4.346 -2.6962  2.3893 -0.1116
 4336SOL    MW417118   5.444   3.224   4.427 -0.4214 -0.5208 -0.1650
 4337SOL     OW17119   6.346   1.141   1.763  0.4598  0.2323 -0.1289
 4337SOL    HW217120   6.376   1.055   1.732 -1.2079 -0.9074  1.2011
 4337SOL    HW317121   6.354   1.136   1.858  0.7776  1.7648 -0.0573
 4337SOL    MW417122   6.351   1.129   1.771  0.0654 -0.1891 -0.4217
 4338SOL     OW17123   3.383   5.797   0.181  0.1947  0.0726 -0.2034
 4338SOL    HW217124   3.464   5.802   0.129  1.2185 -2.6135  0.9398
 4338SOL    HW317125   3.314   5.788   0.116  0.9034  1.3488 -1.1850
 4338SOL    MW417126   3.385   5.796   0.165  0.0453  0.1698  0.6948
 4339SOL     OW17127   6.374   4.119   4.012 -0.1209 -0.2959 -0.6424
 4339SOL    HW217128   6.308   4.108   3.944  2.0310  0.5211 -3.0129
 4339SOL    HW317129   6.452   4.075   3.978  1.3814  1.1179  0.7809
 4339SOL    MW417130   6.376   4.112   3.999 -0.4604 -0.1865  0.3995
 4340SOL     OW17131   5.067   0.491   4.154  0.1520 -0.4728 -0.5944
 4340SOL    HW217132   5.142   0.450   4.196  0.2045 -0.0859 -0.3059
 4340SOL    HW317133   5.015   0.418   4.121  0.3879 -0.7589 -0.3357
 4340SOL    MW417134   5.070   0.476   4.155 -0.4290 -0.4764  0.3051
 4341SOL     OW17135   3.964   1.991   4.663  0.3911  0.4516 -0.0791
 4341SOL    HW217136   3.971   1.895   4.664  0.8526  0.3692 -2.8764
 4341SOL    HW317137   3.889   2.010   4.719  0.0572 -1.5870  0.2565
 4341SOL    MW417138   3.955   1.981   4.670  0.2417  0.0579  0.2315
 4342SOL     OW17139   4.797   4.384   3.376  0.2730 -0.4176  0.0731
 4342SOL    HW217140   4.736   4.311   3.388  0.5512 -0.5363  0.7798
 4342SOL    HW317141   4.742   4.456   3.345 -0.4601 -0.1666  1.8330
 4342SOL    MW417142   4.781   4.384   3.373 -0.7343 -0.5024 -0.0785
 4343SOL     OW17143   4.041   1.532   3.571 -0.3949 -0.2564 -0.1560
 4343SOL    HW217144   4.110   1.474   3.539  0.6195  0.0410  1.3753
 4343SOL    HW317145   3.988   1.551   3.494  1.5750 -0.0284 -1.5565
 4343SOL    MW417146   4.043   1.527   3.557  0.2074  0.0328 -0.4756
 4344SOL     OW17147   5.705   6.135   1.742  0.0221  0.5009 -0.0416
 4344SOL    HW217148   5.769   6.126   1.671 -0.2192 -1.2264 -0.0870
 4344SOL    HW317149   5.629   6.086   1.710 -0.2637  0.1161  1.2086
 4344SOL    MW417150   5.704   6.127   1.728  0.3871 -0.0572 -0.0711
 4345SOL     OW17151   2.855   5.896   1.328  0.2147 -0.5658 -0.5336
 4345SOL    HW217152   2.908   5.939   1.395 -1.0876 -2.0540  1.5841
 4345SOL    HW317153   2.766   5.895   1.364 -0.4184 -2.0438 -1.9695
 4345SOL    MW417154   2.850   5.902   1.341  0.2307 -0.1485  0.1568
 4346SOL     OW17155   4.402   3.982   1.365  0.3391 -0.1419 -0.2574
 4346SOL    HW217156   4.406   3.892   1.397 -0.9953  0.1406  0.8157
 4346SOL    HW317157   4.493   4.009   1.356  0.7814 -1.8629 -1.4630
 4346SOL    MW417158   4.415   3.974   1.368  0.9556 -0.2743 -0.6847
 4347SOL     OW17159   1.121   1.327   2.672 -0.0290 -0.8413 -0.2423
 4347SOL    HW217160   1.071   1.246   2.667 -1.3709  0.0101 -2.0540
 4347SOL    HW317161   1.067   1.386   2.725  0.5314 -0.8586  0.3574
 4347SOL    MW417162   1.107   1.324   2.678 -0.2066 -0.0729  0.0785
 4348SOL     OW17163   4.787   5.042   4.824 -0.0110 -0.3994  0.3216
 4348SOL    HW217164   4.714   5.087   4.780  1.5535  1.2475 -0.7501
 4348SOL    HW317165   4.746   4.998   4.899 -2.3077 -0.7497 -1.0380
 4348SOL    MW417166   4.772   5.042   4.828 -0.1523  0.3773  0.1224
 4349SOL     OW17167   1.854   0.341   4.442 -0.4175  0.2829 -0.0509
 4349SOL    HW217168   1.856   0.422   4.392 -0.4994 -0.1977 -0.8392
 4349SOL    HW317169   1.918   0.355   4.512 -0.2372  0.9242 -0.3365
 4349SOL    MW417170   1.863   0.354   4.445 -0.2272  0.2454  0.2064
 4350SOL     OW17171   4.827   6.315   5.088 -0.0665 -0.0234  0.0873
 4350SOL    HW217172   4.886   6.390   5.098  2.4803 -1.9008  0.2475
 4350SOL    HW317173   4.758   6.330   5.152  1.0592  1.5717  1.0170
 4350SOL    MW417174   4.826   6.327   5.098  0.6283  0.0507 -0.4545
 4351SOL     OW17175   5.794   1.178   4.077 -0.4947 -0.2387  0.2672
 4351SOL    HW217176   5.768   1.199   3.987 -1.3561  0.5600  0.6932
 4351SOL    HW317177   5.728   1.114   4.106  1.0611 -2.2658 -0.3965
 4351SOL    MW417178   5.782   1.172   4.069  0.0202  0.3739 -0.7823
 4352SOL     OW17179   5.780   5.059   1.594  0.5280 -0.0032  0.3389
 4352SOL    HW217180   5.809   5.033   1.507 -1.1965 -0.2177 -0.2062
 4352SOL    HW317181   5.723   4.988   1.622 -0.4490  0.9497  0.8368
 4352SOL    MW417182   5.777   5.046   1.586  0.2559 -0.2134 -0.4924
 4353SOL     OW17183   0.672   5.450   1.027 -0.3240 -0.1636  0.2188
 4353SOL    HW217184   0.584   5.456   0.990 -1.3025  1.3764  2.5610
 4353SOL    HW317185   0.671   5.371   1.081 -0.0861 -0.4393 -0.1775
 4353SOL    MW417186   0.660   5.440   1.029 -0.1639 -0.1475  0.2540
 4354SOL     OW17187   1.694   1.846   4.616  0.0022  0.8613 -0.0615
 4354SOL    HW217188   1.615   1.795   4.634 -0.2169  0.4074 -2.1359
 4354SOL    HW317189   1.763   1.781   4.602  0.3530  1.2147 -0.0124
 4354SOL    MW417190   1.693   1.831   4.617  0.1853  0.3481 -0.2955
 4355SOL     OW17191   1.146   0.653   6.245 -0.1445 -1.0113 -0.0680
 4355SOL    HW217192   1.051   0.650   6.250 -0.0619 -1.5108  3.8384
 4355SOL    HW317193   1.168   0.745   6.259 -0.0491 -1.1268  0.5750
 4355SOL    MW417194   1.137   0.665   6.247  0.1750  0.1572  0.0048
 4356SOL     OW17195   5.836   6.442   3.466  0.2367  0.0953 -0.3690
 4356SOL    HW217196   5.840   6.372   3.531 -0.7383  0.6282  0.2842
 4356SOL    HW317197   5.809   6.399   3.385 -1.5952 -0.1200  0.3205
 4356SOL    MW417198   5.833   6.427   3.464  0.0516  0.5522  0.1770
 4357SOL     OW17199   1.322   0.609   4.653  0.1160 -0.2595  0.2293
 4357SOL    HW217200   1.236   0.650   4.659  0.0239 -0.4472  0.1741
 4357SOL    HW317201   1.329   0.556   4.732 -0.2871 -1.1527 -0.3246
 4357SOL    MW417202   1.312   0.608   4.664 -0.1174  0.0799 -0.3433
 4358SOL     OW17203   5.175   6.112   3.134 -0.0102  0.6531  0.3742
 4358SOL    HW217204   5.128   6.072   3.208  1.3998 -0.2176  0.8457
 4358SOL    HW317205   5.164   6.049   3.063 -1.6625  1.6544 -0.3218
 4358SOL    MW417206   5.167   6.098   3.135  0.1671  0.1244  0.0541
 4359SOL     OW17207   4.543   5.704   4.460 -0.7537  0.3952 -0.1645
 4359SOL    HW217208   4.519   5.671   4.546  0.9614  0.7859  0.4909
 4359SOL    HW317209   4.582   5.790   4.477  0.5744  0.0363 -1.2030
 4359SOL    MW417210   4.545   5.711   4.473 -0.1901  0.2803 -0.2112
 4360SOL     OW17211   1.537   1.241   3.814  0.5958  0.2039 -1.1141
 4360SOL    HW217212   1.506   1.151   3.827  0.2848  0.5724  1.0941
 4360SOL    HW317213   1.548   1.249   3.719 -1.3931 -1.4848 -1.5614
 4360SOL    MW417214   1.535   1.230   3.803 -0.2617  0.0510  0.0647
 4361SOL     OW17215   0.052   4.686   0.317  0.2490  0.6019  0.4355
 4361SOL    HW217216   0.094   4.771   0.336 -0.7787  1.5861 -1.4041
 4361SOL    HW317217  -0.030   4.689   0.366  0.3895  0.5162  0.6740
 4361SOL    MW417218   0.047   4.698   0.326  0.0881 -0.3611 -0.1295
 4362SOL     OW17219   0.413   3.452   5.303 -0.1291 -0.1998 -0.1800
 4362SOL    HW217220   0.491   3.496   5.269  0.9043 -2.4328 -0.8570
 4362SOL    HW317221   0.366   3.423   5.226 -2.0343  1.6294  0.2020
 4362SOL    MW417222   0.417   3.454   5.288 -0.0769 -0.0084 -0.5871
 4363SOL     OW17223   3.217   2.308   3.898 -0.0815 -0.2515 -0.0114
 4363SOL    HW217224   3.285   2.240   3.905  0.4519  0.2519 -0.1878
 4363SOL    HW317225   3.246   2.363   3.825  1.0835  1.9000  1.9421
 4363SOL    MW417226   3.230   2.307   3.889 -0.1258 -0.5108 -0.3429
 4364SOL     OW17227   0.667   5.725   0.351  0.3436  0.2577 -0.2027
 4364SOL    HW217228   0.753   5.733   0.310 -0.1085  2.6186 -0.8313
 4364SOL    HW317229   0.667   5.637   0.389  3.7198  0.7424  1.3543
 4364SOL    MW417230   0.679   5.714   0.351 -0.0713 -0.0549  0.3829
 4365SOL     OW17231   1.913   2.732   4.014 -0.2844  0.1085 -0.1458
 4365SOL    HW217232   1.967   2.709   4.090 -1.9012  0.2449  1.0932
 4365SOL    HW317233   1.947   2.817   3.986 -0.4682  0.6709  1.2404
 4365SOL    MW417234   1.925   2.740   4.021 -0.0895  0.0606  0.2377
 4366SOL     OW17235   1.029   3.823   4.697  0.5445 -0.0344 -0.0670
 4366SOL    HW217236   0.981   3.874   4.633 -1.3477  0.8338  1.9192
 4366SOL    HW317237   1.065   3.887   4.758  0.1624 -0.9018  1.1257
 4366SOL    MW417238   1.027   3.838   4.696 -0.1829  0.2758  0.4164
 4367SOL     OW17239   2.795   3.077   1.512 -0.2822  0.4150 -0.4105
 4367SOL    HW217240   2.851   3.142   1.470 -0.7825 -0.3709 -2.4283
 4367SOL    HW317241   2.852   3.002   1.529 -0.6861 -0.5663 -2.8858
 4367SOL    MW417242   2.810   3.076   1.509 -0.6283  0.8529  0.0866
 4368SOL     OW17243   3.673   6.390   1.547 -0.3405  0.1311 -0.0560
 4368SOL    HW217244   3.582   6.360   1.540 -0.5101  0.6067  0.0387
 4368SOL    HW317245   3.723   6.329   1.492 -0.9613  0.9134 -1.5426
 4368SOL    MW417246   3.668   6.378   1.539 -0.0603  0.2913  0.0504
 4369SOL     OW17247   0.690   3.819   2.389 -0.0707 -0.7316 -0.5431
 4369SOL    HW217248   0.744   3.763   2.445  0.9878 -1.6111 -2.3222
 4369SOL    HW317249   0.649   3.757   2.328 -1.2433  0.1726 -0.6938
 4369SOL    MW417250   0.692   3.803   2.388  0.2632  0.1033  0.0690
 4370SOL     OW17251   1.852   2.454   1.630  0.3189  0.5242  0.3512
 4370SOL    HW217252   1.873   2.388   1.696 -2.7056 -1.9572 -0.9471
 4370SOL    HW317253   1.813   2.526   1.681 -2.3468 -1.5088  1.3741
 4370SOL    MW417254   1.850   2.455   1.646 -0.5949 -0.4674  0.2252
 4371SOL     OW17255   2.398   1.295   1.882  0.2747 -0.5202  0.7868
 4371SOL    HW217256   2.426   1.228   1.820 -1.3189  0.0239 -0.6100
 4371SOL    HW317257   2.452   1.371   1.861 -1.1180  0.0735 -0.9072
 4371SOL    MW417258   2.409   1.296   1.871  0.3701  0.1824 -0.5677
 4372SOL     OW17259   4.796   2.969   1.186 -0.0972 -0.1023  0.3470
 4372SOL    HW217260   4.846   3.018   1.252 -0.1368  1.5279 -0.7755
 4372SOL    HW317261   4.841   2.988   1.104 -0.9906 -0.8114 -0.3206
 4372SOL    MW417262   4.809   2.978   1.184 -0.1655 -0.3880  0.1902
 4373SOL     OW17263   2.205   0.956   3.245  0.3343 -0.0282  0.4451
 4373SOL    HW217264   2.157   1.002   3.176 -0.7577  1.3052  1.9983
 4373SOL    HW317265   2.296   0.982   3.233  0.3039 -0.5485 -1.0153
 4373SOL    MW417266   2.211   0.966   3.235 -0.9129 -0.2092 -0.4448
 4374SOL     OW17267   4.319   4.777   1.802  0.5352 -0.1546 -0.3801
 4374SOL    HW217268   4.281   4.740   1.882  0.2920 -0.9395 -0.8418
 4374SOL    HW317269   4.410   4.796   1.825  0.8311 -1.5915 -0.2697
 4374SOL    MW417270   4.326   4.774   1.816  0.1376 -0.4701  0.1524
 4375SOL     OW17271   4.679   1.304   3.517  0.5579 -0.1635 -0.2101
 4375SOL    HW217272   4.774   1.297   3.512  0.4640 -1.3841 -0.6470
 4375SOL    HW317273   4.655   1.362   3.445  0.8981 -0.6057 -0.6843
 4375SOL    MW417274   4.688   1.311   3.507 -0.1031  0.0795  0.0193
 4376SOL     OW17275   3.472   2.710   2.818 -0.9395  0.5620 -0.0111
 4376SOL    HW217276   3.528   2.632   2.819 -1.6276  0.0146 -1.3044
 4376SOL    HW317277   3.410   2.694   2.746 -0.2711  2.8681 -1.2127
 4376SOL    MW417278   3.472   2.698   2.808 -0.5805 -0.5586  0.6172
 4377SOL     OW17279   5.913   5.150   4.674 -0.2192  0.2675  0.3734
 4377SOL    HW217280   5.951   5.063   4.679  0.8943  0.6008 -1.2866
 4377SOL    HW317281   5.934   5.191   4.758 -0.6000 -0.9650  1.1002
 4377SOL    MW417282   5.921   5.144   4.686  0.1929 -0.1654  0.1939
 4378SOL     OW17283   4.354   4.622   5.707 -0.4894 -0.0147  0.3643
 4378SOL    HW217284   4.389   4.575   5.632 -1.7601 -0.8826  0.2932
 4378SOL    HW317285   4.408   4.594   5.781  0.4039  0.4140 -0.1145
 4378SOL    MW417286   4.366   4.612   5.707  0.0676  0.2081  0.1664
 4379SOL     OW17287   1.423   0.513   5.849  0.0860 -0.0697 -0.6203
 4379SOL    HW217288   1.367   0.533   5.924  2.0881  0.1243  0.9193
 4379SOL    HW317289   1.395   0.425   5.821 -1.7605  0.5067 -0.7252
 4379SOL    MW417290   1.412   0.504   5.855  0.2357 -0.1436  0.0701
 4380SOL     OW17291   3.864   2.971   1.303 -0.0140 -0.0155 -0.3571
 4380SOL    HW217292   3.944   2.927   1.330 -0.7607  0.3428  2.7864
 4380SOL    HW317293   3.794   2.910   1.324 -0.6908  0.2144 -1.8056
 4380SOL    MW417294   3.865   2.957   1.309 -0.8000  0.0223  0.4413
 4381SOL     OW17295   0.027   4.748   0.761 -0.1221 -0.5148  0.0065
 4381SOL    HW217296   0.015   4.842   0.769 -1.8328 -0.7139  0.0973
 4381SOL    HW317297   0.121   4.737   0.750  0.1834  1.1417  0.6967
 4381SOL    MW417298   0.038   4.759   0.760  0.3049  0.0864 -0.2255
 4382SOL     OW17299   6.022   1.813   1.036  0.6279 -0.3718 -0.2338
 4382SOL    HW217300   5.939   1.766   1.044 -0.5502  1.7424  0.6129
 4382SOL    HW317301   6.076   1.778   1.106  0.2880 -1.4022 -0.4652
 4382SOL    MW417302   6.018   1.802   1.046  0.0876 -0.4312  0.4645
 4383SOL     OW17303   3.122   5.578   0.499 -0.0307 -0.0239 -0.5116
 4383SOL    HW217304   3.099   5.545   0.586  1.2626  0.1302 -0.0790
 4383SOL    HW317305   3.042   5.568   0.447 -1.6001  2.0728  1.3079
 4383SOL    MW417306   3.109   5.572   0.504 -0.1078  0.0358  0.8775
 4384SOL     OW17307   2.809   3.051   6.360  0.3403  0.0314 -0.3359
 4384SOL    HW217308   2.895   3.039   6.400  0.7253  2.9514 -0.0623
 4384SOL    HW317309   2.826   3.103   6.282 -1.1249  0.1958 -0.5815
 4384SOL    MW417310   2.822   3.056   6.355 -0.0385 -0.0864 -0.1536
 4385SOL     OW17311   2.145   1.977   4.910  0.2932  0.5385 -0.0574
 4385SOL    HW217312   2.180   1.890   4.929  0.5174  0.6940  0.2531
 4385SOL    HW317313   2.171   2.029   4.986 -0.1270  0.7916 -0.0885
 4385SOL    MW417314   2.153   1.972   4.923  0.1426 -0.1053 -0.3229
 4386SOL     OW17315   4.406   2.875   5.970 -0.0427 -0.0698 -0.1524
 4386SOL    HW217316   4.395   2.920   6.054 -1.1199  0.6623 -0.6527
 4386SOL    HW317317   4.325   2.824   5.959  0.7259 -1.3538 -0.0688
 4386SOL    MW417318   4.394   2.874   5.979 -0.0556 -0.7618  0.3456
 4387SOL     OW17319   1.024   4.358   1.552 -0.1493  0.0417 -0.4229
 4387SOL    HW217320   0.973   4.431   1.516 -1.1222  0.6394  1.9449
 4387SOL    HW317321   1.104   4.399   1.584 -1.1179  0.3605  1.8048
 4387SOL    MW417322   1.028   4.373   1.551  0.7101 -0.3559 -0.1011
 4388SOL     OW17323   1.465   1.932   2.955 -0.0417  0.2861 -0.1686
 4388SOL    HW217324   1.417   2.010   2.927 -0.0245  0.0752 -0.8012
 4388SOL    HW317325   1.500   1.895   2.874 -0.9495 -0.9797 -0.0088
 4388SOL    MW417326   1.463   1.938   2.941 -0.0543  0.8359  0.1244
 4389SOL     OW17327   6.134   3.715   1.582  0.2854 -0.4328 -0.1865
 4389SOL    HW217328   6.090   3.657   1.643  1.0052 -0.1210  0.6405
 4389SOL    HW317329   6.106   3.803   1.608  1.4270 -0.2270  0.3867
 4389SOL    MW417330   6.124   3.719   1.593  0.1230 -0.8049  0.5714
 4390SOL     OW17331   2.872   6.057   5.376 -0.0888  0.1343 -0.2612
 4390SOL    HW217332   2.843   5.970   5.404 -0.4184  0.6339  1.0404
 4390SOL    HW317333   2.962   6.044   5.347 -0.2173 -0.6880 -0.3123
 4390SOL    MW417334   2.880   6.044   5.376  0.1454  0.1564 -0.3601
 4391SOL     OW17335   2.232   5.119   5.365  0.3268 -0.3843 -0.1345
 4391SOL    HW217336   2.275   5.144   5.283 -1.6700 -0.2434 -1.2142
 4391SOL    HW317337   2.246   5.193   5.423  1.4053 -0.2946 -0.4945
 4391SOL    MW417338   2.240   5.132   5.362  0.2506 -0.0925  0.1467
 4392SOL     OW17339   2.654   0.823   6.092  0.3599 -0.7832  0.2040
 4392SOL    HW217340   2.657   0.834   5.997  1.4259  0.4426  0.3517
 4392SOL    HW317341   2.612   0.738   6.105  0.1331 -0.9393 -1.3553
 4392SOL    MW417342   2.649   0.813   6.081  0.5902  0.0830 -0.3857
 4393SOL     OW17343   0.462   1.990   1.219 -0.3343  0.6967  0.0478
 4393SOL    HW217344   0.462   1.955   1.130 -0.6607  1.4493 -0.2575
 4393SOL    HW317345   0.476   2.084   1.208 -0.2939  0.7842  0.7942
 4393SOL    MW417346   0.464   1.998   1.206  0.5691 -0.1877 -0.3428
 4394SOL     OW17347   2.583   0.792   3.376  0.4343  0.0007 -0.9156
 4394SOL    HW217348   2.546   0.780   3.289  2.2093 -0.9528 -1.6002
 4394SOL    HW317349   2.574   0.706   3.418 -0.2384  0.4034 -0.2248
 4394SOL    MW417350   2.577   0.779   3.370 -0.0711 -0.1184 -0.2151
 4395SOL     OW17351   1.094   5.007   4.485  0.3122 -0.3678  0.7900
 4395SOL    HW217352   1.113   5.075   4.420 -0.7430  0.1117  0.9557
 4395SOL    HW317353   1.180   4.978   4.516  0.8462 -0.5521 -0.7530
 4395SOL    MW417354   1.108   5.012   4.480 -0.1492  0.0092 -0.3562
 4396SOL     OW17355   6.106   0.915   1.659  0.2037  0.9486  0.1299
 4396SOL    HW217356   6.161   0.874   1.726  1.2589  1.4555 -0.4074
 4396SOL    HW317357   6.024   0.936   1.705  0.5589  0.4527  1.0150
 4396SOL    MW417358   6.102   0.912   1.674  0.5350 -0.4406  0.1650
 4397SOL     OW17359   2.676   6.025   0.944  0.0669  0.2886 -0.2105
 4397SOL    HW217360   2.768   6.031   0.970 -0.2739  0.5446  0.9671
 4397SOL    HW317361   2.630   6.083   1.004 -1.0444 -0.8786  0.0989
 4397SOL    MW417362   2.682   6.034   0.955 -0.0719  0.1932  0.1888
 4398SOL     OW17363   6.015   3.775   2.077  0.2925  0.2793  0.5797
 4398SOL    HW217364   6.006   3.844   2.011  1.8032 -0.1675 -0.1386
 4398SOL    HW317365   6.037   3.821   2.158 -1.4574  0.8235  0.7837
 4398SOL    MW417366   6.017   3.790   2.079 -0.1001 -0.2901 -0.5112
 4399SOL     OW17367   5.221   4.158   0.699 -0.5346 -0.4200 -0.3729
 4399SOL    HW217368   5.263   4.151   0.785 -0.3726 -2.1623 -0.5742
 4399SOL    HW317369   5.294   4.166   0.637 -0.6404  0.4167 -0.4030
 4399SOL    MW417370   5.236   4.158   0.702  0.1994  0.1197  0.8009
 4400SOL     OW17371   1.967   0.636   1.393  0.0615  0.1153  0.0561
 4400SOL    HW217372   1.898   0.674   1.340  0.8228  3.4827  1.2071
 4400SOL    HW317373   2.040   0.621   1.332 -0.2677  0.5160 -0.4324
 4400SOL    MW417374   1.968   0.639   1.378 -0.2985  0.4798  0.3675
 4401SOL     OW17375   2.426   2.475   0.824 -0.5676 -0.2333 -0.2514
 4401SOL    HW217376   2.498   2.438   0.774  0.7707  0.6980  0.9017
 4401SOL    HW317377   2.400   2.553   0.775 -1.5465 -1.1221 -1.2195
 4401SOL    MW417378   2.432   2.480   0.811 -0.2771 -0.0439 -0.0859
 4402SOL     OW17379   6.013   0.296   0.532  0.2232  0.4345 -0.3161
 4402SOL    HW217380   6.081   0.232   0.549 -0.0493  0.5095  1.2157
 4402SOL    HW317381   5.934   0.244   0.516  0.0996  0.3663  0.4747
 4402SOL    MW417382   6.011   0.281   0.532  0.5573  0.2785 -0.0351
 4403SOL     OW17383   1.929   0.453   1.995 -0.1824 -0.1258  0.2676
 4403SOL    HW217384   1.998   0.505   2.036 -1.6534  1.1163  1.2716
 4403SOL    HW317385   1.975   0.378   1.958  1.7051  0.6733  0.8513
 4403SOL    MW417386   1.944   0.450   1.995  0.5832 -0.4882  0.0553
 4404SOL     OW17387   2.340   6.139   5.253 -0.4107  0.2307  0.5342
 4404SOL    HW217388   2.368   6.048   5.238 -0.2750  0.5718 -1.4891
 4404SOL    HW317389   2.331   6.176   5.166 -0.4686  2.1883  1.3302
 4404SOL    MW417390   2.343   6.132   5.240 -0.3119  0.1321  0.6700
 4405SOL     OW17391   2.020   5.034   0.838 -0.1118  0.2011 -0.4435
 4405SOL    HW217392   1.928   5.020   0.813 -0.2346 -0.3524  0.2722
 4405SOL    HW317393   2.016   5.103   0.904 -0.0113  0.1832 -0.4196
 4405SOL    MW417394   2.007   5.041   0.843 -0.4885 -0.3703  0.2998
 4406SOL     OW17395   2.609   5.456   5.113 -0.2390  0.0561  0.2030
 4406SOL    HW217396   2.551   5.441   5.039 -0.1625 -1.0611  0.3547
 4406SOL    HW317397   2.639   5.546   5.102 -0.7438  0.1179 -0.7548
 4406SOL    MW417398   2.605   5.466   5.102 -0.0262  0.1405 -0.4621
 4407SOL     OW17399   5.211   3.392   4.439  0.5375  0.2856 -0.4107
 4407SOL    HW217400   5.199   3.437   4.523  1.8306  2.0423 -1.1237
 4407SOL    HW317401   5.300   3.357   4.443  0.0182 -1.1236 -0.4133
 4407SOL    MW417402   5.221   3.393   4.451  0.3525 -0.0697 -0.0252
 4408SOL     OW17403   6.303   5.627   2.697 -0.0308  0.0166  0.5645
 4408SOL    HW217404   6.286   5.599   2.787 -0.7018  0.9124  0.7293
 4408SOL    HW317405   6.217   5.623   2.655 -0.2104  1.9859  0.6562
 4408SOL    MW417406   6.289   5.623   2.704 -0.1632 -0.1614 -0.1255
 4409SOL     OW17407   3.784   2.231   3.205 -0.3851 -0.6460 -0.6853
 4409SOL    HW217408   3.728   2.156   3.224  0.0124 -1.0496 -1.0574
 4409SOL    HW317409   3.732   2.308   3.229  0.1491 -1.0777  2.2246
 4409SOL    MW417410   3.770   2.231   3.210  0.4383  0.0778  0.1069
 4410SOL     OW17411   6.188   4.546   5.358  0.6336  0.1008 -0.2706
 4410SOL    HW217412   6.154   4.496   5.284 -0.3792  1.9781 -1.1459
 4410SOL    HW317413   6.283   4.533   5.354  0.4731 -0.9836 -0.9975
 4410SOL    MW417414   6.196   4.538   5.348 -0.0263  0.6021  0.0877
 4411SOL     OW17415   5.640   4.547   2.785 -0.6560 -0.4460  0.1084
 4411SOL    HW217416   5.617   4.638   2.768  0.3779  0.2156  1.9188
 4411SOL    HW317417   5.591   4.524   2.864 -1.7595 -1.8501 -0.9455
 4411SOL    MW417418   5.631   4.556   2.793  0.0918 -0.0016  0.4722
 4412SOL     OW17419   2.361   3.434   0.230 -0.2787  0.3314  0.1645
 4412SOL    HW217420   2.440   3.404   0.185 -1.7873 -1.5438 -1.4506
 4412SOL    HW317421   2.369   3.398   0.318  0.2864 -0.5887 -0.2435
 4412SOL    MW417422   2.373   3.425   0.236 -0.5625  0.0979 -0.2668
 4413SOL     OW17423   4.297   4.055   2.255 -0.2245 -0.7350 -0.0469
 4413SOL    HW217424   4.207   4.024   2.246 -0.1688 -0.4437 -2.1786
 4413SOL    HW317425   4.350   3.979   2.234 -0.0359 -0.2869 -1.2753
 4413SOL    MW417426   4.292   4.041   2.251 -0.5137  0.2525 -0.4303
 4414SOL     OW17427   1.443   0.386   4.821 -0.6080 -0.1101  0.2541
 4414SOL    HW217428   1.493   0.413   4.898  1.2946 -0.5946 -0.7427
 4414SOL    HW317429   1.476   0.298   4.801  0.2885  0.6828 -2.1290
 4414SOL    MW417430   1.454   0.378   4.828 -0.5357 -0.2840 -0.1050
 4415SOL     OW17431   4.719   2.821   1.855 -0.7341 -0.1720  0.7080
 4415SOL    HW217432   4.628   2.851   1.852 -0.5579  0.3735  0.8111
 4415SOL    HW317433   4.763   2.873   1.788 -0.5702 -0.7023  0.3915
 4415SOL    MW417434   4.713   2.832   1.846  0.2197 -0.4131 -0.2392
 4416SOL     OW17435   5.549   3.009   0.398 -0.6636  0.5081  0.1449
 4416SOL    HW217436   5.518   2.926   0.363  0.4729 -0.1269  0.5886
 4416SOL    HW317437   5.570   2.990   0.489  0.8054  0.9426 -0.0772
 4416SOL    MW417438   5.548   2.996   0.405  0.1818  0.6089 -0.0546
 4417SOL     OW17439   2.069   2.929   1.270  0.6426  0.2429 -0.0305
 4417SOL    HW217440   2.014   3.002   1.242  1.1210  0.2401 -1.0453
 4417SOL    HW317441   2.152   2.971   1.295  0.0883  0.2830  1.8139
 4417SOL    MW417442   2.073   2.944   1.269  0.1954 -0.6065 -0.3734
 4418SOL     OW17443   5.238   1.985   1.804  0.2428  0.2650 -1.1280
 4418SOL    HW217444   5.317   1.973   1.751  1.6283  1.1190  0.6012
 4418SOL    HW317445   5.211   1.897   1.828  0.3541 -0.0630 -2.1557
 4418SOL    MW417446   5.245   1.972   1.800 -0.1567 -0.2087 -0.5484
 4419SOL     OW17447   4.753   1.004   3.049  0.3234  0.2963  0.0855
 4419SOL    HW217448   4.807   1.035   2.976 -2.0225 -0.7169 -2.2426
 4419SOL    HW317449   4.718   0.920   3.019 -2.5712  0.9184  1.3184
 4419SOL    MW417450   4.755   0.997   3.035 -0.0284 -0.5807 -0.3141
 4420SOL     OW17451   0.989   0.884   0.265  0.2424 -0.3326 -0.4442
 4420SOL    HW217452   1.082   0.902   0.256  0.0519 -0.0746 -2.3759
 4420SOL    HW317453   0.946   0.956   0.218 -0.8893 -0.9291 -0.3639
 4420SOL    MW417454   0.995   0.896   0.258  0.5044 -0.1045 -0.1774
 4421SOL     OW17455   5.426   1.740   1.420  0.2558 -0.1993 -0.4861
 4421SOL    HW217456   5.512   1.781   1.419  0.4179 -0.4996  0.3576
 4421SOL    HW317457   5.443   1.647   1.433 -0.2207 -0.1216  0.8496
 4421SOL    MW417458   5.439   1.733   1.421  0.3673  0.3301  0.2346
 4422SOL     OW17459   6.360   3.649   5.671  0.3022  0.1968 -0.3257
 4422SOL    HW217460   6.344   3.714   5.740  0.0071  0.5132 -0.6828
 4422SOL    HW317461   6.278   3.647   5.622  0.4404 -0.1823 -0.5403
 4422SOL    MW417462   6.347   3.657   5.674 -0.7967  0.2066 -0.4487
 4423SOL     OW17463   4.202   5.249   3.200  0.0505  0.4118 -0.1410
 4423SOL    HW217464   4.294   5.258   3.173  0.0360  1.2640  0.0539
 4423SOL    HW317465   4.161   5.330   3.169  0.0826  1.5627  2.5985
 4423SOL    MW417466   4.209   5.261   3.192 -0.3934  0.4189  0.9993
 4424SOL     OW17467   5.482   5.654   1.260  0.6436  0.1233 -0.0875
 4424SOL    HW217468   5.463   5.688   1.172  0.0817 -1.6828 -0.7105
 4424SOL    HW317469   5.397   5.625   1.293  1.2090 -1.4462  0.0411
 4424SOL    MW417470   5.468   5.655   1.253 -0.4102 -0.5138 -0.6019
 4425SOL     OW17471   1.905   5.830   5.738  0.0364  0.5833 -1.1950
 4425SOL    HW217472   1.904   5.800   5.647 -0.4578 -0.3373 -0.9044
 4425SOL    HW317473   1.851   5.908   5.739 -1.3256 -0.3183 -1.4167
 4425SOL    MW417474   1.898   5.836   5.726 -0.3143 -0.5357 -0.1288
 4426SOL     OW17475   5.981   0.073   0.325 -0.1211  0.5906  0.0065
 4426SOL    HW217476   6.052   0.071   0.261 -0.4729 -0.3471 -0.3722
 4426SOL    HW317477   5.945   0.162   0.317  0.1550  0.6432 -0.7489
 4426SOL    MW417478   5.985   0.085   0.315  0.2231 -0.2506 -0.3342
 4427SOL     OW17479   3.277   4.577   4.369 -0.6780 -0.2662  0.3599
 4427SOL    HW217480   3.272   4.524   4.448  1.1126  1.0549  1.4460
 4427SOL    HW317481   3.208   4.643   4.379  0.6632  0.9989  1.7649
 4427SOL    MW417482   3.267   4.579   4.380  0.5708 -0.3133  0.3128
 4428SOL     OW17483   2.012   6.159   3.471  0.4441  0.6743 -0.3277
 4428SOL    HW217484   1.961   6.082   3.498  1.1082  0.2527 -0.2318
 4428SOL    HW317485   2.034   6.142   3.379  2.2713 -0.2369  0.2279
 4428SOL    MW417486   2.008   6.146   3.463  0.4195 -0.1233 -0.2707
 4429SOL     OW17487   6.400   0.715   4.185  0.0860  0.0822  0.9085
 4429SOL    HW217488   6.433   0.790   4.236  1.6685  0.5530 -0.6664
 4429SOL    HW317489   6.461   0.644   4.204 -0.7544 -0.4862  1.5329
 4429SOL    MW417490   6.413   0.716   4.194 -0.0456 -0.2798 -0.4064
 4430SOL     OW17491   5.384   3.475   5.926 -0.6228 -0.6386 -0.0022
 4430SOL    HW217492   5.319   3.519   5.872 -0.6447 -1.9866 -1.1239
 4430SOL    HW317493   5.379   3.383   5.900  0.5229 -1.0536  1.1317
 4430SOL    MW417494   5.375   3.469   5.916 -0.0306  0.1992 -0.3192
 4431SOL     OW17495   6.354   3.015   4.659  0.9106  0.1283  0.5355
 4431SOL    HW217496   6.439   3.037   4.622  0.5097 -1.9097 -1.9600
 4431SOL    HW317497   6.291   3.049   4.595 -0.0201 -0.2968  1.2009
 4431SOL    MW417498   6.357   3.022   4.645  0.5807 -0.5983 -0.2325
 4432SOL     OW17499   1.285   4.303   4.196 -0.0859 -0.0095  0.1640
 4432SOL    HW217500   1.276   4.304   4.291  1.9452  1.5845  0.4006
 4432SOL    HW317501   1.335   4.223   4.178 -0.2925 -0.2046  0.4377
 4432SOL    MW417502   1.290   4.293   4.206  0.5586 -0.2905 -0.4098
 4433SOL     OW17503   6.390   3.259   4.839  0.2191  0.2319 -0.1167
 4433SOL    HW217504   6.470   3.293   4.797  0.0623  0.8831  0.1085
 4433SOL    HW317505   6.355   3.197   4.776 -0.7128  2.1364 -1.5468
 4433SOL    MW417506   6.396   3.255   4.825 -0.4371 -0.0538 -0.0040
 4434SOL     OW17507   0.029   1.386   2.322  0.6805  0.1176 -0.0600
 4434SOL    HW217508   0.083   1.311   2.346  2.0949  1.0155 -0.3491
 4434SOL    HW317509   0.071   1.422   2.244 -0.5993  0.5802 -0.5637
 4434SOL    MW417510   0.041   1.381   2.315 -0.0612  0.1317  0.3402
 4435SOL     OW17511   5.839   0.445   0.740  0.2026 -0.2662  0.1492
 4435SOL    HW217512   5.807   0.425   0.652 -0.0712  2.0861 -0.3303
 4435SOL    HW317513   5.762   0.432   0.796  0.4913 -2.2157  0.1595
 4435SOL    MW417514   5.824   0.440   0.736 -0.1367 -0.2453  0.3559
 4436SOL     OW17515   5.144   3.459   3.793 -0.3266  0.3055 -0.3538
 4436SOL    HW217516   5.214   3.524   3.795 -0.6867  0.6957 -0.2908
 4436SOL    HW317517   5.120   3.451   3.700  0.1333 -0.1943 -0.4357
 4436SOL    MW417518   5.150   3.467   3.781 -0.1417  0.7079 -0.2646
 4437SOL     OW17519   4.482   3.644   5.392  0.0633  0.6326  0.3395
 4437SOL    HW217520   4.448   3.680   5.475  0.3895  2.1813 -0.1565
 4437SOL    HW317521   4.407   3.646   5.333 -0.8864 -2.8877  1.2193
 4437SOL    MW417522   4.467   3.649   5.395  0.1367  0.0136  0.9596
 4438SOL     OW17523   0.550   0.814   2.109  0.2952  0.0345 -0.1773
 4438SOL    HW217524   0.602   0.738   2.132  0.7524  0.5551  0.5660
 4438SOL    HW317525   0.539   0.809   2.014 -0.2726 -1.3149 -0.0523
 4438SOL    MW417526   0.556   0.804   2.099  0.1545 -0.0300 -0.0902
 4439SOL     OW17527   3.027   5.451   6.169  0.1538 -0.3625  0.1525
 4439SOL    HW217528   3.123   5.453   6.171  0.4849 -0.5573 -4.8094
 4439SOL    HW317529   3.004   5.386   6.236  3.3886 -0.1739  1.6511
 4439SOL    MW417530   3.037   5.443   6.178 -0.6154  0.3658 -0.1347
 4440SOL     OW17531   5.011   4.352   2.933 -0.7707 -0.4090  0.0557
 4440SOL    HW217532   4.995   4.320   3.022 -1.9876  0.5097  0.1922
 4440SOL    HW317533   4.943   4.418   2.918  0.1457  0.3239 -1.1171
 4440SOL    MW417534   5.000   4.356   2.943 -0.5539  0.5371  0.7139
 4441SOL     OW17535   3.722   1.592   0.350  0.5728 -0.0403  0.6695
 4441SOL    HW217536   3.635   1.563   0.323  0.9142 -2.0428  1.5377
 4441SOL    HW317537   3.728   1.682   0.319 -2.1908  0.5105  1.4948
 4441SOL    MW417538   3.712   1.600   0.342 -0.1518 -0.3611 -0.0421
 4442SOL     OW17539   0.723   1.672   2.763 -0.1462  0.4961  0.5537
 4442SOL    HW217540   0.693   1.618   2.837  0.1850  0.1078  0.4100
 4442SOL    HW317541   0.676   1.638   2.688  0.5835 -0.0725  0.3384
 4442SOL    MW417542   0.713   1.660   2.763  0.3011 -0.0327  0.6707
 4443SOL     OW17543   0.096   0.215   2.015 -0.2659 -0.1905 -0.3063
 4443SOL    HW217544   0.079   0.133   1.969  1.0499 -0.4228 -0.4191
 4443SOL    HW317545   0.044   0.280   1.969 -0.4880 -0.7772 -0.8894
 4443SOL    MW417546   0.087   0.213   2.003  0.4107 -0.0509  0.0241
 4444SOL     OW17547   4.034   0.680   2.231 -0.4556  0.2549  0.1036
 4444SOL    HW217548   4.117   0.719   2.204  0.5253 -0.4745  1.9045
 4444SOL    HW317549   3.986   0.667   2.149  1.3321  0.3744 -1.0174
 4444SOL    MW417550   4.038   0.684   2.217 -0.4745 -0.0677  0.3068
 4445SOL     OW17551   3.896   5.674   2.334 -0.2759 -0.0375 -0.5121
 4445SOL    HW217552   3.908   5.767   2.318 -0.4629  0.1693  0.4483
 4445SOL    HW317553   3.921   5.663   2.426 -0.9351 -0.8031 -0.4201
 4445SOL    MW417554   3.901   5.685   2.344  0.1051  0.3444 -0.5365
 4446SOL     OW17555   0.087   4.962   2.433  0.7725  0.2547  0.2560
 4446SOL    HW217556   0.002   4.964   2.390  0.6268 -0.0766  0.5245
 4446SOL    HW317557   0.119   4.873   2.419  1.2243  0.4700 -0.1276
 4446SOL    MW417558   0.080   4.951   2.425  0.3219  0.0180  0.0909
 4447SOL     OW17559   1.124   3.654   2.938 -0.6156  0.3307  0.2925
 4447SOL    HW217560   1.104   3.580   2.880  0.4247 -0.6039  1.0834
 4447SOL    HW317561   1.208   3.631   2.977 -1.0486  1.1841  1.7864
 4447SOL    MW417562   1.132   3.641   2.935  0.4022 -0.3930  0.3623
 4448SOL     OW17563   4.670   4.206   0.325 -0.2216  0.5007  0.8852
 4448SOL    HW217564   4.669   4.302   0.333 -2.2377  0.5425  0.7053
 4448SOL    HW317565   4.581   4.184   0.298 -0.1790 -1.5376  2.2175
 4448SOL    MW417566   4.658   4.216   0.322  0.1991  0.3126  0.1462
 4449SOL     OW17567   1.252   1.302   3.560  0.6358 -0.2969  0.9542
 4449SOL    HW217568   1.222   1.277   3.648 -0.4336 -1.9460  0.1667
 4449SOL    HW317569   1.265   1.218   3.515  1.1739  0.5248 -0.4741
 4449SOL    MW417570   1.250   1.288   3.566  0.1749 -0.7580 -0.0408
 4450SOL     OW17571   0.768   5.299   5.028 -0.1748 -0.3782 -0.1108
 4450SOL    HW217572   0.825   5.228   5.056 -0.4446 -0.7976 -0.6107
 4450SOL    HW317573   0.755   5.352   5.106  2.6790  0.9865 -0.4228
 4450SOL    MW417574   0.774   5.297   5.042  0.6259 -0.0869  0.5492
 4451SOL     OW17575   1.790   5.515   6.416  0.1905 -0.0327 -0.5927
 4451SOL    HW217576   1.855   5.529   6.347 -0.3630 -0.8951 -1.3114
 4451SOL    HW317577   1.708   5.546   6.378  0.3884  2.5755  0.8912
 4451SOL    MW417578   1.788   5.521   6.402  0.1485 -0.4191 -0.3393
 4452SOL     OW17579   3.624   3.274   0.743  0.3813 -0.0524 -0.0971
 4452SOL    HW217580   3.647   3.348   0.687  4.3440  0.7990  2.2276
 4452SOL    HW317581   3.609   3.313   0.829  0.4722 -1.7680  0.7422
 4452SOL    MW417582   3.625   3.289   0.747  0.0545  0.1114  0.4864
 4453SOL     OW17583   0.473   2.371   4.864 -0.3915  0.1426 -0.3688
 4453SOL    HW217584   0.380   2.377   4.887 -0.3605  0.3646 -0.2988
 4453SOL    HW317585   0.488   2.278   4.849 -0.3263 -0.0667  0.8887
 4453SOL    MW417586   0.463   2.359   4.865  0.1047  0.4862  0.6078
 4454SOL     OW17587   3.685   6.239   4.627  0.0546  0.7148  0.1989
 4454SOL    HW217588   3.738   6.256   4.550 -0.4235  1.3814  0.0060
 4454SOL    HW317589   3.620   6.174   4.599  0.8750 -0.2603  0.4920
 4454SOL    MW417590   3.683   6.233   4.613 -0.2550  0.2947 -0.2116
 4455SOL     OW17591   1.972   3.610   3.319 -0.2608 -0.3691  0.1243
 4455SOL    HW217592   2.017   3.663   3.385  0.6834  0.2485 -0.9930
 4455SOL    HW317593   1.897   3.663   3.293  0.0589 -0.0688 -0.1877
 4455SOL    MW417594   1.968   3.624   3.325 -0.1788 -0.0459  0.0345
 4456SOL     OW17595   6.148   4.939   3.043 -0.0844  0.0872 -0.8118
 4456SOL    HW217596   6.172   5.011   2.984  0.3837  1.8333  1.4024
 4456SOL    HW317597   6.084   4.978   3.102 -1.3662 -1.9291 -0.7936
 4456SOL    MW417598   6.143   4.954   3.043 -0.4153 -0.6986 -0.3968
 4457SOL     OW17599   1.923   2.167   5.250  0.0646  0.1818  0.3229
 4457SOL    HW217600   1.947   2.074   5.242 -1.3179 -0.1956  0.3158
 4457SOL    HW317601   1.962   2.195   5.333  0.9675 -0.2375  0.0579
 4457SOL    MW417602   1.931   2.158   5.260 -0.0284 -0.8695 -0.6859
 4458SOL     OW17603   6.354   5.147   1.038  0.5844  0.2488 -0.8628
 4458SOL    HW217604   6.271   5.189   1.018  0.1491 -0.6292 -0.9402
 4458SOL    HW317605   6.336   5.093   1.116  1.0603  0.0033 -0.9156
 4458SOL    MW417606   6.341   5.145   1.046  0.3176  0.1746 -0.4379
 4459SOL     OW17607   5.563   2.165   0.230  0.0813 -0.7393  0.5849
 4459SOL    HW217608   5.636   2.155   0.291  0.5474 -0.6210  0.0594
 4459SOL    HW317609   5.539   2.257   0.237 -0.0732 -0.7974  0.8211
 4459SOL    MW417610   5.570   2.176   0.239 -0.0379  0.1698  0.1922
 4460SOL     OW17611   3.210   0.265   5.902  0.1004  0.2030  0.3221
 4460SOL    HW217612   3.183   0.215   5.825  0.7106 -2.4075  1.6685
 4460SOL    HW317613   3.300   0.291   5.882  0.5280 -1.1191  0.3833
 4460SOL    MW417614   3.219   0.262   5.889 -0.5566  0.2441 -0.2795
 4461SOL     OW17615   2.297   4.826   2.466  0.4782 -0.0279  0.4588
 4461SOL    HW217616   2.230   4.801   2.402  0.6204  0.6323  0.0354
 4461SOL    HW317617   2.356   4.883   2.417 -0.3530  1.9308  1.5674
 4461SOL    MW417618   2.296   4.830   2.451  0.5917  0.2424 -0.3718
 4462SOL     OW17619   0.032   1.871   4.820  0.1470  0.6205 -0.6622
 4462SOL    HW217620   0.068   1.853   4.907  1.0101  0.9185 -0.9549
 4462SOL    HW317621   0.059   1.797   4.766 -0.8720  0.1455 -0.5584
 4462SOL    MW417622   0.040   1.859   4.825  0.2357 -0.1371 -0.2654
 4463SOL     OW17623   0.130   1.406   6.425 -0.0893 -0.1470  0.0740
 4463SOL    HW217624   0.134   1.427   6.331 -0.4340  0.2932  0.1544
 4463SOL    HW317625   0.216   1.434   6.458 -0.1444  0.1504 -0.0246
 4463SOL    MW417626   0.142   1.413   6.417 -0.4136 -0.2667  0.3146
 4464SOL     OW17627   1.116   1.253   5.334  0.5374 -0.6205 -0.6091
 4464SOL    HW217628   1.123   1.302   5.252  0.5669  1.3265  0.5058
 4464SOL    HW317629   1.041   1.292   5.379  1.1859 -0.9036  0.7648
 4464SOL    MW417630   1.107   1.264   5.329  0.1212 -0.1943  0.0277
 4465SOL     OW17631   4.954   2.974   0.953  0.1794 -0.2833  1.1621
 4465SOL    HW217632   4.922   2.900   0.901 -1.3582 -1.5605  3.7080
 4465SOL    HW317633   5.037   2.944   0.989  0.6797  0.1549  0.3980
 4465SOL    MW417634   4.961   2.960   0.951  0.1994  0.2116 -0.1206
 4466SOL     OW17635   5.395   1.039   0.442  0.0967 -0.1579  0.3135
 4466SOL    HW217636   5.491   1.046   0.440  0.1221 -0.3624  0.7887
 4466SOL    HW317637   5.371   1.064   0.531 -0.6088  3.6652 -0.7982
 4466SOL    MW417638   5.405   1.043   0.453  0.3653  0.0668  0.1487
 4467SOL     OW17639   0.059   0.888   0.551 -0.3619  0.9304 -0.1876
 4467SOL    HW217640   0.145   0.930   0.554  1.1381 -1.9038  0.0623
 4467SOL    HW317641   0.026   0.895   0.640 -0.2644  1.7588 -0.2069
 4467SOL    MW417642   0.066   0.894   0.563 -0.0883  0.0199  0.3914
 4468SOL     OW17643   3.809   2.466   4.260 -0.6006 -0.2174 -0.0953
 4468SOL    HW217644   3.842   2.377   4.272 -1.2638 -0.3592  0.7841
 4468SOL    HW317645   3.870   2.521   4.310 -0.7359 -0.2915  0.1539
 4468SOL    MW417646   3.822   2.462   4.268  0.0998 -0.7907  0.6616
 4469SOL     OW17647   2.584   5.529   0.206 -0.4124  0.0317  0.1035
 4469SOL    HW217648   2.661   5.578   0.177 -0.6885  1.0203  0.9904
 4469SOL    HW317649   2.512   5.591   0.200 -0.7479 -0.2003  1.3960
 4469SOL    MW417650   2.585   5.544   0.201 -0.4129  0.3075  0.0639
 4470SOL     OW17651   2.491   2.411   2.727 -0.3108  0.7903  0.1615
 4470SOL    HW217652   2.455   2.482   2.781  0.5063  0.7407  0.7743
 4470SOL    HW317653   2.462   2.433   2.638 -1.2690  1.1240  0.5359
 4470SOL    MW417654   2.482   2.423   2.723 -0.1616  0.3099  0.0662
 4471SOL     OW17655   5.319   2.393   1.901  0.0532  0.7494 -0.1239
 4471SOL    HW217656   5.236   2.350   1.920 -0.5147  2.4016  1.4285
 4471SOL    HW317657   5.365   2.394   1.984  0.4301  2.2762 -0.3285
 4471SOL    MW417658   5.314   2.387   1.914 -0.1521 -0.0700 -0.0214
 4472SOL     OW17659   6.422   3.022   2.458  0.1504  0.4827 -0.4199
 4472SOL    HW217660   6.437   2.971   2.379  1.4992  0.8531 -0.4152
 4472SOL    HW317661   6.365   2.967   2.512  1.0518 -0.7316 -0.6859
 4472SOL    MW417662   6.416   3.008   2.455  0.5172  0.2264  0.3738
 4473SOL     OW17663   0.118   3.233   0.672 -0.2616 -0.0894 -0.2336
 4473SOL    HW217664   0.168   3.314   0.666 -0.2709 -0.1464 -1.2218
 4473SOL    HW317665   0.081   3.220   0.585 -3.4503  0.8698  0.8064
 4473SOL    MW417666   0.119   3.242   0.660  0.8138 -0.1045  0.4025
 4474SOL     OW17667   4.542   0.831   3.962  0.0770 -0.2073  0.5525
 4474SOL    HW217668   4.460   0.828   3.911  0.1702  3.5479 -0.0743
 4474SOL    HW317669   4.611   0.825   3.895  0.3369 -1.5552  0.9146
 4474SOL    MW417670   4.540   0.830   3.946 -0.2038  0.2333  0.1810
 4475SOL     OW17671   1.856   0.646   0.534 -0.1308 -0.0726 -0.1762
 4475SOL    HW217672   1.854   0.738   0.558 -0.7642  0.6092 -2.5410
 4475SOL    HW317673   1.783   0.607   0.583 -2.0443  1.4419 -1.6400
 4475SOL    MW417674   1.846   0.653   0.543 -0.1939  0.3023  0.4678
 4476SOL     OW17675   0.577   4.287   5.510  0.8556  0.3119  0.9612
 4476SOL    HW217676   0.658   4.267   5.557  0.6790  0.5831  1.3878
 4476SOL    HW317677   0.515   4.312   5.579  0.5662  0.6224  0.5917
 4476SOL    MW417678   0.580   4.287   5.526 -0.1718  0.4689  0.2567
 4477SOL     OW17679   6.193   4.263   4.817  0.6323  0.2456 -0.0882
 4477SOL    HW217680   6.174   4.357   4.811 -0.5907  0.0968  0.8711
 4477SOL    HW317681   6.245   4.243   4.739 -3.4877  0.7095 -3.3271
 4477SOL    MW417682   6.197   4.273   4.806 -0.1203  0.8887  0.6371
 4478SOL     OW17683   3.683   1.885   5.093  0.3009 -0.1022  0.0469
 4478SOL    HW217684   3.685   1.905   5.187  0.7603  1.0444 -0.2004
 4478SOL    HW317685   3.772   1.901   5.063  0.6909 -2.4419 -0.2101
 4478SOL    MW417686   3.695   1.890   5.102  0.6283  0.3334 -0.0184
 4479SOL     OW17687   3.025   2.616   5.122  0.1698 -0.6098  0.1835
 4479SOL    HW217688   3.100   2.557   5.126  1.5431  0.9854 -0.7242
 4479SOL    HW317689   3.037   2.665   5.041 -1.0144  0.7725  0.7977
 4479SOL    MW417690   3.037   2.615   5.112  0.6460  0.2790  0.2875
 4480SOL     OW17691   0.946   5.771   0.246  0.1208  0.3521 -0.2109
 4480SOL    HW217692   1.003   5.819   0.306 -0.2208 -0.9252  1.1895
 4480SOL    HW317693   1.006   5.719   0.193  0.4069  1.2989 -0.8607
 4480SOL    MW417694   0.962   5.771   0.247  0.0169  0.3709  0.2375
 4481SOL     OW17695   0.127   2.298   2.604 -0.5001 -0.6360  0.4666
 4481SOL    HW217696   0.188   2.287   2.678 -1.1400  0.0460  1.1060
 4481SOL    HW317697   0.167   2.248   2.533 -0.4208 -2.2306  1.5890
 4481SOL    MW417698   0.141   2.290   2.604  0.0254 -0.5630  0.3513
 4482SOL     OW17699   2.344   0.621   6.005 -0.2864  0.0483 -0.4114
 4482SOL    HW217700   2.321   0.547   5.949 -1.0623 -3.5970  4.1690
 4482SOL    HW317701   2.262   0.646   6.048  0.6981  0.7586  1.1545
 4482SOL    MW417702   2.330   0.615   6.003 -0.1403 -0.0408 -0.5588
 4483SOL     OW17703   0.555   1.174   5.037  0.0208 -0.4180 -0.2866
 4483SOL    HW217704   0.608   1.109   4.990  0.7095 -1.5014  1.8485
 4483SOL    HW317705   0.562   1.253   4.984  2.3557 -1.0150 -0.9928
 4483SOL    MW417706   0.563   1.176   5.024  0.2673  0.1734 -0.2825
 4484SOL     OW17707   6.146   1.346   5.201  0.0267  0.1659 -0.1525
 4484SOL    HW217708   6.151   1.255   5.171 -1.5663  0.3551 -1.0905
 4484SOL    HW317709   6.150   1.398   5.121  0.3528  0.9043  0.3353
 4484SOL    MW417710   6.147   1.341   5.187 -0.0662  0.3847 -0.2518
 4485SOL     OW17711   1.228   4.856   4.693  0.3629 -0.4733  0.2177
 4485SOL    HW217712   1.258   4.918   4.759  0.6630 -0.0930 -0.2597
 4485SOL    HW317713   1.138   4.837   4.716  0.3889 -0.1505  0.5944
 4485SOL    MW417714   1.220   4.862   4.704 -0.2719  0.0264 -0.2253
 4486SOL     OW17715   4.283   6.084   3.407  0.1791 -0.3011 -0.6406
 4486SOL    HW217716   4.287   5.988   3.415  0.8554 -0.3622 -1.5327
 4486SOL    HW317717   4.366   6.108   3.367 -0.7899  0.4630 -2.2635
 4486SOL    MW417718   4.294   6.074   3.403 -0.4975  0.3657  0.0238
 4487SOL     OW17719   5.747   3.245   3.429 -0.0210 -0.0404  0.2799
 4487SOL    HW217720   5.691   3.254   3.352  0.0943  0.0191  0.2024
 4487SOL    HW317721   5.783   3.333   3.443  1.4485 -0.4632 -0.7371
 4487SOL    MW417722   5.744   3.258   3.421  0.3240  0.1189 -0.1537
 4488SOL     OW17723   4.106   4.059   1.957 -0.0238  0.5898 -0.2478
 4488SOL    HW217724   4.201   4.048   1.953 -0.2030 -1.0626 -0.7870
 4488SOL    HW317725   4.080   4.020   2.041 -0.4211 -1.1318 -1.1084
 4488SOL    MW417726   4.115   4.052   1.967 -0.0332 -0.3837 -0.6569
 4489SOL     OW17727   5.696   3.982   4.619  0.3922  0.0841 -0.2418
 4489SOL    HW217728   5.695   4.019   4.707  0.1104 -0.7420  0.1122
 4489SOL    HW317729   5.787   3.953   4.607  0.2391 -0.5636  0.1118
 4489SOL    MW417730   5.708   3.983   4.629  0.3198 -0.3000 -0.7557
 4490SOL     OW17731   1.074   0.600   5.318 -0.2968  0.3424 -0.6495
 4490SOL    HW217732   1.088   0.664   5.388  2.3293 -0.7514 -0.0545
 4490SOL    HW317733   1.151   0.610   5.262 -1.4337 -0.1165 -2.3615
 4490SOL    MW417734   1.086   0.610   5.320 -0.5628 -0.2195 -0.1428
 4491SOL     OW17735   4.182   2.591   6.162 -0.7160 -0.2352  0.1542
 4491SOL    HW217736   4.270   2.554   6.161  0.0649  1.4267  1.3286
 4491SOL    HW317737   4.142   2.556   6.242 -0.8147 -0.3335  0.0620
 4491SOL    MW417738   4.189   2.582   6.173 -0.1370 -0.3765  0.6069
 4492SOL     OW17739   4.954   2.921   2.936  0.1339 -0.2082 -0.3609
 4492SOL    HW217740   4.939   2.835   2.976 -0.2064  0.4292  0.9049
 4492SOL    HW317741   5.024   2.905   2.872  0.9415 -1.1759  0.7236
 4492SOL    MW417742   4.961   2.908   2.933 -0.4245 -0.0463 -0.7003
 4493SOL     OW17743   1.503   5.356   1.358  0.1781  0.0501 -0.1610
 4493SOL    HW217744   1.471   5.279   1.311 -1.7358  0.8794 -0.3179
 4493SOL    HW317745   1.474   5.430   1.305 -1.9036  1.0148  2.1324
 4493SOL    MW417746   1.495   5.355   1.345  0.3693  0.0189  0.1055
 4494SOL     OW17747   3.189   0.180   0.345 -0.0792  0.3197 -0.4683
 4494SOL    HW217748   3.243   0.217   0.414 -0.0780 -0.2506 -0.1591
 4494SOL    HW317749   3.146   0.255   0.305  0.2422  0.6899 -0.1227
 4494SOL    MW417750   3.190   0.195   0.349 -0.8139  0.0754 -0.0368
 4495SOL     OW17751   1.842   0.884   6.062 -0.1816  0.1488  0.6734
 4495SOL    HW217752   1.827   0.815   6.126  0.4511  1.5329  2.3967
 4495SOL    HW317753   1.815   0.964   6.106  0.3417  1.1714 -0.7773
 4495SOL    MW417754   1.836   0.885   6.076  0.0057  0.5232  0.4496
 4496SOL     OW17755   4.219   5.315   6.091  0.0669 -0.2829 -0.2967
 4496SOL    HW217756   4.214   5.378   6.019 -1.1843 -2.2465 -2.0675
 4496SOL    HW317757   4.206   5.367   6.170 -4.6114  1.3701 -1.7969
 4496SOL    MW417758   4.217   5.330   6.092  0.4691  0.1308 -0.0271
 4497SOL     OW17759   4.173   6.438   4.454  0.1186 -0.3272  0.2201
 4497SOL    HW217760   4.163   6.344   4.469  0.1168 -0.3586  0.0291
 4497SOL    HW317761   4.199   6.444   4.362  0.2958 -0.1512  0.2828
 4497SOL    MW417762   4.175   6.426   4.444  0.0985 -0.3676 -0.1823
 4498SOL     OW17763   1.685   5.631   0.247  0.0487 -0.0115  0.4791
 4498SOL    HW217764   1.716   5.617   0.158 -0.2787 -0.9355  0.5004
 4498SOL    HW317765   1.667   5.725   0.252 -1.8732 -0.2332 -1.0654
 4498SOL    MW417766   1.687   5.641   0.236 -0.0580 -0.4717  0.1333
 4499SOL     OW17767   1.760   6.345   0.983  0.3409  0.0230  0.5828
 4499SOL    HW217768   1.802   6.399   1.050  1.8306  0.3796 -0.5829
 4499SOL    HW317769   1.667   6.366   0.990  0.8874  3.1512 -0.1516
 4499SOL    MW417770   1.753   6.355   0.993 -0.1434  0.5220 -0.8241
 4500SOL     OW17771   6.241   5.912   3.629 -0.4001  0.1115 -0.1424
 4500SOL    HW217772   6.269   5.938   3.541 -0.5257 -0.0510 -0.2294
 4500SOL    HW317773   6.219   5.995   3.673  0.0193  0.2241 -0.1408
 4500SOL    MW417774   6.242   5.926   3.623  0.3924 -0.1566 -0.0816
 4501SOL     OW17775   2.678   1.186   1.653  0.0354  0.3944 -0.0873
 4501SOL    HW217776   2.703   1.213   1.741 -1.4007  0.4076  0.3393
 4501SOL    HW317777   2.646   1.265   1.610  0.6189  0.3671 -0.5909
 4501SOL    MW417778   2.677   1.200   1.659 -0.2781  0.0727  0.1392
 4502SOL     OW17779   3.257   0.749   3.031 -0.1538  0.1393  0.0438
 4502SOL    HW217780   3.163   0.747   3.014 -0.2558 -0.1564  0.6312
 4502SOL    HW317781   3.267   0.707   3.116  0.5503 -0.2278 -0.2112
 4502SOL    MW417782   3.246   0.743   3.040  0.6062 -0.4929  0.0811
 4503SOL     OW17783   2.908   5.071   5.984 -0.2704 -0.0696  0.0648
 4503SOL    HW217784   2.921   5.166   5.978 -0.0705 -0.1778 -1.3900
 4503SOL    HW317785   2.991   5.038   6.019 -0.6380  0.3576  1.3979
 4503SOL    MW417786   2.921   5.080   5.988  0.0013  0.1261  0.4948
 4504SOL     OW17787   0.221   4.229   4.600  0.2429 -0.0935  0.3224
 4504SOL    HW217788   0.248   4.274   4.520  0.4074 -1.3848 -0.3745
 4504SOL    HW317789   0.297   4.234   4.657  1.1422 -1.5690 -0.6901
 4504SOL    MW417790   0.234   4.236   4.597  0.4722 -0.1539  0.1159
 4505SOL     OW17791   6.145   1.437   3.284 -0.4912  0.3060  0.1650
 4505SOL    HW217792   6.082   1.441   3.357  1.4566 -0.7961  2.0347
 4505SOL    HW317793   6.146   1.526   3.249 -1.9063  0.7480  1.1347
 4505SOL    MW417794   6.137   1.449   3.289 -0.4095 -0.3082 -0.4043
 4506SOL     OW17795   5.315   6.129   4.295 -1.0127 -0.4129 -0.0168
 4506SOL    HW217796   5.386   6.081   4.338  1.5736  2.5069 -0.6012
 4506SOL    HW317797   5.301   6.081   4.213 -1.2800 -2.2403  1.0438
 4506SOL    MW417798   5.323   6.116   4.290 -0.5318  0.0777 -0.2356
 4507SOL     OW17799   4.634   3.586   5.083 -0.4893 -0.4391 -0.0708
 4507SOL    HW217800   4.683   3.530   5.023 -2.0766 -1.4435 -0.4649
 4507SOL    HW317801   4.702   3.638   5.127  0.7730 -0.2195 -2.1398
 4507SOL    MW417802   4.650   3.585   5.081  0.4302 -0.0434 -0.1111
 4508SOL     OW17803   6.332   1.313   5.801  0.3330 -0.0282 -0.2736
 4508SOL    HW217804   6.313   1.357   5.884  2.0733 -3.6210  2.2924
 4508SOL    HW317805   6.418   1.346   5.776  1.0155 -0.8543  0.8833
 4508SOL    MW417806   6.341   1.323   5.809 -0.2322  0.0370 -0.5433
 4509SOL     OW17807   5.578   2.830   5.615 -0.1460  0.9543  0.2004
 4509SOL    HW217808   5.486   2.853   5.624 -0.4185 -0.8097  3.0056
 4509SOL    HW317809   5.616   2.849   5.701  1.6776 -0.0355 -0.3341
 4509SOL    MW417810   5.571   2.836   5.628 -0.8538 -0.6962  0.8594
 4510SOL     OW17811   4.443   3.273   5.184 -0.2778 -0.5233  0.2862
 4510SOL    HW217812   4.421   3.340   5.120  0.2917 -0.4872  0.1203
 4510SOL    HW317813   4.425   3.315   5.269  2.3365  0.7637  0.3130
 4510SOL    MW417814   4.438   3.288   5.187  0.1643  0.1218  0.0813
 4511SOL     OW17815   0.917   5.556   2.158  0.0459 -0.0177  0.0399
 4511SOL    HW217816   0.926   5.487   2.092  0.4004 -0.2876  0.3583
 4511SOL    HW317817   0.923   5.509   2.242 -0.1943  0.3420  0.2619
 4511SOL    MW417818   0.919   5.540   2.160 -0.4662 -0.3177 -0.2911
 4512SOL     OW17819   0.616   1.426   3.204  0.0865 -0.4195 -0.3448
 4512SOL    HW217820   0.632   1.434   3.298 -1.6361 -1.1367  0.0524
 4512SOL    HW317821   0.547   1.491   3.186  0.8350  0.1596 -1.2599
 4512SOL    MW417822   0.609   1.436   3.214  0.7593 -0.3696 -0.3755
 4513SOL     OW17823   3.685   5.907   3.381 -0.4026  0.2637  0.3717
 4513SOL    HW217824   3.728   5.841   3.327 -0.8844  0.8344 -0.7434
 4513SOL    HW317825   3.716   5.990   3.345 -1.3455  0.6564  0.4624
 4513SOL    MW417826   3.695   5.909   3.369 -0.5641 -0.0322 -0.0218
 4514SOL     OW17827   5.813   1.848   3.595 -0.6825 -0.1864 -0.3654
 4514SOL    HW217828   5.844   1.860   3.505 -0.8886  0.7477 -0.3241
 4514SOL    HW317829   5.741   1.785   3.587  0.5238 -1.6145 -0.5884
 4514SOL    MW417830   5.807   1.841   3.582 -0.1071 -0.0879  0.2842
 4515SOL     OW17831   6.111   0.983   0.957  0.3814  0.1122  0.0622
 4515SOL    HW217832   6.031   0.932   0.940  0.5076  0.0929 -0.4882
 4515SOL    HW317833   6.130   0.967   1.050 -0.9921  1.1547  0.5549
 4515SOL    MW417834   6.103   0.974   0.967 -0.2428 -0.0988 -0.4711
 4516SOL     OW17835   3.811   4.609   2.217  0.5378  0.0395  0.6149
 4516SOL    HW217836   3.722   4.633   2.191  0.2950  0.2924  1.6367
 4516SOL    HW317837   3.855   4.587   2.135 -0.7036 -0.8757  0.1676
 4516SOL    MW417838   3.805   4.609   2.203  0.6040 -0.3622 -0.4719
 4517SOL     OW17839   5.132   4.750   2.568 -0.5573 -0.0155  0.0684
 4517SOL    HW217840   5.164   4.664   2.595  1.3935  0.6783  0.1251
 4517SOL    HW317841   5.039   4.750   2.591 -0.5512 -2.0379  0.2022
 4517SOL    MW417842   5.124   4.739   2.575  0.1330 -0.8663  0.0296
 4518SOL     OW17843   3.679   4.266   1.648  0.3094  0.1788 -0.2724
 4518SOL    HW217844   3.764   4.245   1.686 -0.0169  0.0034  0.3635
 4518SOL    HW317845   3.666   4.198   1.581 -0.1825 -0.9545  0.9268
 4518SOL    MW417846   3.689   4.254   1.644 -0.0912  0.4215 -0.1084
 4519SOL     OW17847   2.829   4.511   1.023 -0.7121 -0.2849  0.2692
 4519SOL    HW217848   2.736   4.533   1.024 -0.6681 -0.0849  1.1990
 4519SOL    HW317849   2.844   4.465   1.105  0.4415  1.6519  1.2097
 4519SOL    MW417850   2.819   4.508   1.034 -0.2466 -0.0229 -0.1314
 4520SOL     OW17851   5.023   3.077   1.817  0.1512 -0.4539 -0.3709
 4520SOL    HW217852   5.057   2.988   1.806  0.0863 -0.3305 -1.7718
 4520SOL    HW317853   5.044   3.100   1.907  0.1625 -1.8934  0.0188
 4520SOL    MW417854   5.030   3.068   1.827 -0.5034 -0.4501 -0.0463
 4521SOL     OW17855   0.630   1.817   3.372  0.0640 -0.1491 -0.0515
 4521SOL    HW217856   0.706   1.818   3.313  0.0368 -0.8570 -0.1113
 4521SOL    HW317857   0.640   1.737   3.422 -0.3246  0.0664  0.3725
 4521SOL    MW417858   0.642   1.807   3.371 -0.8222 -0.3538  0.7007
 4522SOL     OW17859   2.210   5.833   3.585  0.4491 -0.2091  0.5739
 4522SOL    HW217860   2.208   5.762   3.520  0.0304  0.4817 -0.1918
 4522SOL    HW317861   2.236   5.910   3.534 -3.5059  1.1962  0.3815
 4522SOL    MW417862   2.213   5.834   3.569 -0.0552  0.0499  0.2708
 4523SOL     OW17863   0.085   4.085   6.030 -0.4161  0.0951  0.1197
 4523SOL    HW217864   0.061   4.156   6.090  0.6640  0.5277  0.0728
 4523SOL    HW317865   0.078   4.124   5.943  0.0445  0.1081  0.0867
 4523SOL    MW417866   0.081   4.099   6.027 -0.3010 -0.3998 -0.0492
 4524SOL     OW17867   5.394   3.483   2.385 -0.1586  0.3722 -0.2465
 4524SOL    HW217868   5.390   3.415   2.453  1.2002 -0.9376 -1.4123
 4524SOL    HW317869   5.322   3.542   2.407 -2.4869 -2.2932 -0.1026
 4524SOL    MW417870   5.384   3.481   2.397 -0.3428 -0.7444 -0.2315
 4525SOL     OW17871   1.626   6.130   2.654 -0.5913 -0.0968 -0.0364
 4525SOL    HW217872   1.629   6.225   2.641 -0.4275 -0.2633 -1.3235
 4525SOL    HW317873   1.708   6.110   2.699 -1.1942  0.5151  1.3881
 4525SOL    MW417874   1.638   6.140   2.658 -0.1139 -0.0253 -0.9021
 4526SOL     OW17875   4.741   4.233   4.697 -0.6688  0.1247  0.1655
 4526SOL    HW217876   4.814   4.174   4.713  0.1754  0.8312 -0.8985
 4526SOL    HW317877   4.664   4.186   4.727  0.2944 -0.3436  2.0339
 4526SOL    MW417878   4.741   4.219   4.703  0.3956 -0.7084 -0.4073
 4527SOL     OW17879   4.688   0.218   2.343 -0.2854  0.8526  0.4924
 4527SOL    HW217880   4.665   0.128   2.364 -0.3633  0.4369 -1.2677
 4527SOL    HW317881   4.607   0.268   2.357 -0.4365  0.5287  0.7777
 4527SOL    MW417882   4.674   0.213   2.348 -0.1713  1.0798  0.0591
 4528SOL     OW17883   2.422   0.879   2.375 -0.3444  0.0168  0.0389
 4528SOL    HW217884   2.447   0.801   2.423  0.9539 -0.6050 -1.5615
 4528SOL    HW317885   2.327   0.883   2.383 -0.2452 -0.5604  1.8428
 4528SOL    MW417886   2.413   0.870   2.382  0.1323  0.2826  0.6390
 4529SOL     OW17887   0.044   5.145   6.125 -0.4452 -0.3380 -0.0539
 4529SOL    HW217888  -0.037   5.194   6.109  0.7453  1.3248 -1.2669
 4529SOL    HW317889   0.108   5.184   6.066  1.2541 -1.6478  0.8396
 4529SOL    MW417890   0.042   5.156   6.115 -0.2543 -0.1226 -0.5532
 4530SOL     OW17891   0.023   2.587   2.335  0.2131 -0.0970  0.1308
 4530SOL    HW217892   0.114   2.582   2.361 -0.0648 -0.9345  0.9727
 4530SOL    HW317893   0.013   2.519   2.268  0.6052  1.1729 -1.2902
 4530SOL    MW417894   0.033   2.577   2.329 -0.4825  0.1314 -0.2721
 4531SOL     OW17895   4.516   1.671   0.980 -0.6139  0.5930 -0.0764
 4531SOL    HW217896   4.585   1.668   0.914  0.8714 -2.1959  1.3891
 4531SOL    HW317897   4.437   1.697   0.931  0.9618  1.4715 -2.3128
 4531SOL    MW417898   4.514   1.674   0.965  0.6185 -0.5087 -0.2625
 4532SOL     OW17899   5.457   5.006   4.452  0.7585  0.2112  0.0932
 4532SOL    HW217900   5.400   4.957   4.394 -0.0957  0.7276  0.4757
 4532SOL    HW317901   5.532   4.948   4.468 -0.3230 -1.0537  0.7308
 4532SOL    MW417902   5.459   4.992   4.447 -0.5154  1.0038 -0.0670
 4533SOL     OW17903   1.003   6.051   4.785  0.5382  0.3561 -0.0294
 4533SOL    HW217904   1.054   6.128   4.762 -0.1953  0.4705 -1.3492
 4533SOL    HW317905   1.029   5.985   4.721 -0.2461  0.1134 -0.1068
 4533SOL    MW417906   1.013   6.052   4.773  0.1424 -0.5386 -0.2805
 4534SOL     OW17907   1.491   4.198   5.654 -0.3598  0.4418 -0.1295
 4534SOL    HW217908   1.438   4.196   5.574 -0.3578 -1.7585 -0.1463
 4534SOL    HW317909   1.433   4.164   5.722  0.3245  0.1730  0.3340
 4534SOL    MW417910   1.476   4.193   5.652 -0.1605  0.6797 -0.3399
 4535SOL     OW17911   5.017   4.320   3.209 -0.8619 -0.3265 -0.3598
 4535SOL    HW217912   5.089   4.379   3.193  0.3429 -1.4259  0.7535
 4535SOL    HW317913   4.959   4.367   3.269 -1.0983  0.5635 -1.2723
 4535SOL    MW417914   5.019   4.334   3.215 -0.3111 -0.1572  0.6157
 4536SOL     OW17915   0.996   4.293   2.628  0.6103 -0.1278  0.8685
 4536SOL    HW217916   0.900   4.291   2.631  0.4618  1.9014 -0.3580
 4536SOL    HW317917   1.021   4.353   2.698  0.8154  0.9313 -0.0771
 4536SOL    MW417918   0.987   4.301   2.638 -0.1910 -1.0416  0.6215
 4537SOL     OW17919   1.608   6.105   1.106  0.0816  0.3949 -0.4372
 4537SOL    HW217920   1.682   6.060   1.064 -0.0315 -1.1365  0.9086
 4537SOL    HW317921   1.648   6.151   1.181 -0.2572 -0.1677  0.0988
 4537SOL    MW417922   1.623   6.105   1.111  0.0415 -0.1530  0.2486
 4538SOL     OW17923   5.121   2.809   1.777  0.2760 -0.4349  0.0425
 4538SOL    HW217924   5.198   2.764   1.812 -0.5667 -1.9763 -0.0086
 4538SOL    HW317925   5.108   2.770   1.690 -2.1203 -2.1994  1.0891
 4538SOL    MW417926   5.129   2.798   1.770 -0.4249 -0.0149  0.4874
 4539SOL     OW17927   3.196   2.601   2.338  0.2840 -0.6829  0.2095
 4539SOL    HW217928   3.148   2.545   2.277  0.8820 -1.6364  0.6005
 4539SOL    HW317929   3.128   2.652   2.383 -0.1948 -0.3956 -0.8283
 4539SOL    MW417930   3.181   2.601   2.336 -0.2030 -0.3327 -0.1236
 4540SOL     OW17931   3.272   3.330   0.862 -0.6299  0.0532  0.1392
 4540SOL    HW217932   3.297   3.280   0.784  0.0877 -0.5770  0.7563
 4540SOL    HW317933   3.335   3.402   0.865  2.7228 -2.6100  2.7878
 4540SOL    MW417934   3.283   3.333   0.852  0.1802  0.2432 -0.2718
 4541SOL     OW17935   2.201   2.872   6.282  0.7540  0.4249 -0.0214
 4541SOL    HW217936   2.169   2.961   6.294 -0.1484 -0.0278  1.1772
 4541SOL    HW317937   2.185   2.829   6.366  1.2693 -0.8453 -0.5391
 4541SOL    MW417938   2.195   2.878   6.295  0.4736 -0.0726  0.0777
 4542SOL     OW17939   0.176   3.871   4.164 -0.5894  0.0314 -1.0108
 4542SOL    HW217940   0.144   3.785   4.138 -2.1892  0.4347 -0.4714
 4542SOL    HW317941   0.149   3.879   4.256  0.9892  0.4535 -0.5580
 4542SOL    MW417942   0.168   3.861   4.173  0.0917  0.4026 -0.2089
 4543SOL     OW17943   3.553   5.919   6.073  0.0288  0.0301 -0.1657
 4543SOL    HW217944   3.598   5.940   6.155 -0.5709  1.1160 -0.1003
 4543SOL    HW317945   3.604   5.847   6.035  1.6758  1.0448  0.0329
 4543SOL    MW417946   3.566   5.912   6.079  0.2607  0.3933  0.4586
 4544SOL     OW17947   1.740   5.594   4.031  0.1920  0.6450  0.6066
 4544SOL    HW217948   1.791   5.668   3.999 -0.3545  0.3368 -1.0624
 4544SOL    HW317949   1.670   5.633   4.082  0.4115  1.2245  0.4681
 4544SOL    MW417950   1.738   5.609   4.034 -0.6735  0.2328  0.3506
 4545SOL     OW17951   4.054   5.270   1.784  0.4764 -0.5267 -0.5053
 4545SOL    HW217952   4.145   5.241   1.771  0.6093 -0.2110 -0.3063
 4545SOL    HW317953   4.062   5.363   1.805 -0.0054 -0.1406 -1.9780
 4545SOL    MW417954   4.067   5.279   1.785 -0.7465 -0.0617 -0.4193
 4546SOL     OW17955   2.426   5.154   1.439 -0.2466 -0.4300 -0.0152
 4546SOL    HW217956   2.370   5.152   1.362 -1.2829  0.1560  0.7076
 4546SOL    HW317957   2.373   5.116   1.509  0.6557 -0.8945  0.4333
 4546SOL    MW417958   2.412   5.149   1.438 -0.3616 -0.3281  0.3360
 4547SOL     OW17959   2.884   1.934   3.716  0.0907  0.2652 -0.5796
 4547SOL    HW217960   2.836   1.882   3.780  1.1954  1.1937  1.0610
 4547SOL    HW317961   2.910   2.013   3.763  1.9210  0.4798 -1.8429
 4547SOL    MW417962   2.881   1.938   3.731 -0.5790  0.1297 -0.1701
 4548SOL     OW17963   3.835   4.976   6.213  0.0399  0.0333 -0.4491
 4548SOL    HW217964   3.870   5.065   6.210  0.5524 -0.1005  0.8489
 4548SOL    HW317965   3.744   4.985   6.185  0.2910  0.8371 -1.0459
 4548SOL    MW417966   3.828   4.989   6.209 -0.4216 -0.0311  0.1817
 4549SOL     OW17967   4.319   2.193   2.481 -0.1376  0.3112  0.0137
 4549SOL    HW217968   4.300   2.255   2.552 -0.8619 -0.1643  0.2388
 4549SOL    HW317969   4.396   2.230   2.438  0.9976  0.0446  1.7093
 4549SOL    MW417970   4.327   2.206   2.485 -0.0075 -0.0878 -0.3434
 4550SOL     OW17971   3.035   6.002   0.599 -0.0418 -0.0124  0.0419
 4550SOL    HW217972   3.076   5.958   0.525 -1.0752 -1.2018  0.1515
 4550SOL    HW317973   2.979   5.936   0.639  0.7668  0.4712  2.1362
 4550SOL    MW417974   3.033   5.987   0.595  0.1085  0.1886  0.0009
 4551SOL     OW17975   1.679   4.967   1.711 -0.0229 -0.1956  0.7517
 4551SOL    HW217976   1.624   4.966   1.633  0.7587  1.1960  0.1255
 4551SOL    HW317977   1.694   5.061   1.728 -0.0621 -0.4729  2.4935
 4551SOL    MW417978   1.674   4.979   1.703  0.0404  0.1158  0.0832
 4552SOL     OW17979   4.476   6.098   1.915 -0.2289  0.1109  0.2333
 4552SOL    HW217980   4.409   6.036   1.884  0.4855 -0.2858 -0.5507
 4552SOL    HW317981   4.466   6.174   1.857  0.5944 -0.3194 -0.4915
 4552SOL    MW417982   4.466   6.100   1.903 -0.2921  0.0251  0.9072
 4553SOL     OW17983   5.970   2.976   0.196  0.1460 -0.4440 -0.2429
 4553SOL    HW217984   5.926   3.022   0.267  0.0256 -0.7006 -0.1493
 4553SOL    HW317985   6.026   2.912   0.239  1.1730  0.3740 -0.3481
 4553SOL    MW417986   5.971   2.973   0.211  0.3478 -0.3430  0.1357
 4554SOL     OW17987   2.918   3.803   4.663 -0.1585 -0.0638  0.3018
 4554SOL    HW217988   2.889   3.853   4.740 -1.4802  1.6378 -1.2117
 4554SOL    HW317989   3.013   3.793   4.675 -0.4451 -0.6189  2.5365
 4554SOL    MW417990   2.927   3.808   4.675 -0.1907  0.3715  0.5147
 4555SOL     OW17991   3.699   0.173   5.105  0.1393 -0.0157  0.4095
 4555SOL    HW217992   3.755   0.139   5.175 -0.8029 -1.6652  0.4274
 4555SOL    HW317993   3.681   0.096   5.050 -1.2811  0.6764 -0.1384
 4555SOL    MW417994   3.704   0.158   5.107  0.0697  0.2232 -0.0386
 4556SOL     OW17995   4.080   3.681   2.768 -0.0635  0.3090 -0.8445
 4556SOL    HW217996   4.011   3.651   2.827 -1.0267  1.2120 -1.4766
 4556SOL    HW317997   4.161   3.667   2.817 -0.6571 -1.0300 -0.1968
 4556SOL    MW417998   4.082   3.675   2.782  0.4627 -0.3783 -0.0231
 4557SOL     OW17999   3.491   0.152   2.759  0.3920  0.0206  0.4214
 4557SOL    HW218000   3.586   0.142   2.754  0.4061  0.4260 -0.2497
 4557SOL    HW318001   3.476   0.187   2.847  0.8270 -0.3590  0.6559
 4557SOL    MW418002   3.502   0.155   2.770  0.0233 -0.1346  0.1144
 4558SOL     OW18003   3.804   5.428   5.979 -0.1825  0.1286  0.1332
 4558SOL    HW218004   3.746   5.372   5.927  0.3747 -0.5296  0.2013
 4558SOL    HW318005   3.844   5.368   6.042  2.0756  0.1417 -1.1754
 4558SOL    MW418006   3.802   5.412   5.980  0.1733 -0.4261  0.6444
 4559SOL     OW18007   5.330   0.251   2.328  0.0008  0.0803  0.1418
 4559SOL    HW218008   5.382   0.222   2.252 -0.5533 -0.0157 -0.2060
 4559SOL    HW318009   5.331   0.176   2.387  2.3333  0.9137  1.2805
 4559SOL    MW418010   5.337   0.237   2.326 -1.0822 -0.3040  0.7953
 4560SOL     OW18011   0.224   5.779   3.004 -0.2350 -0.6440 -0.2266
 4560SOL    HW218012   0.240   5.731   2.922 -0.5130 -0.3361 -0.4643
 4560SOL    HW318013   0.190   5.864   2.976 -0.7383 -0.6911  0.2224
 4560SOL    MW418014   0.222   5.784   2.989  0.1869  1.1521 -0.6590
 4561SOL     OW18015   4.506   5.096   3.393 -0.7278 -0.2038 -0.2925
 4561SOL    HW218016   4.549   5.086   3.479 -0.9559 -0.0758 -0.1627
 4561SOL    HW318017   4.536   5.181   3.361 -1.9171  0.4977  0.3944
 4561SOL    MW418018   4.516   5.106   3.400 -0.3449  0.0942 -0.3634
 4562SOL     OW18019   5.946   4.531   1.772 -0.0619  0.4209 -0.0781
 4562SOL    HW218020   5.921   4.441   1.752  0.5440  0.3343 -0.4793
 4562SOL    HW318021   5.910   4.582   1.700 -0.5922  0.5325  0.2623
 4562SOL    MW418022   5.938   4.526   1.760  0.5660  0.1340  0.2198
 4563SOL     OW18023   5.666   1.612   3.589 -0.0156 -0.0022  0.0204
 4563SOL    HW218024   5.671   1.619   3.685 -1.4022  1.2533  0.0384
 4563SOL    HW318025   5.621   1.530   3.574 -0.8354  0.3458  0.5003
 4563SOL    MW418026   5.661   1.602   3.600  0.0215  0.1974  0.4997
 4564SOL     OW18027   3.941   2.230   3.452  0.2867 -0.1598  0.3213
 4564SOL    HW218028   3.894   2.230   3.369 -0.2734  0.2548  0.6322
 4564SOL    HW318029   4.033   2.240   3.428  0.1275 -0.0338 -0.2440
 4564SOL    MW418030   3.947   2.231   3.438  0.9047 -0.2021  0.1026
 4565SOL     OW18031   2.598   2.935   3.852  0.1328 -0.4433  0.0404
 4565SOL    HW218032   2.645   3.001   3.802 -1.4107  1.0990  0.5189
 4565SOL    HW318033   2.666   2.888   3.900  1.3684  0.0220 -1.1785
 4565SOL    MW418034   2.613   2.938   3.851  0.4359 -0.1394 -0.0078
 4566SOL     OW18035   3.641   5.077   0.700 -0.1942  0.6929  0.2295
 4566SOL    HW218036   3.599   5.137   0.763 -0.4087  1.2035 -0.3937
 4566SOL    HW318037   3.663   5.000   0.753 -1.1497  0.7571  0.7583
 4566SOL    MW418038   3.638   5.075   0.716  0.0896 -0.2940 -0.3413
 4567SOL     OW18039   2.127   1.306   1.815  0.0232  0.0140  0.9632
 4567SOL    HW218040   2.096   1.390   1.783  1.5782  0.5174  0.6727
 4567SOL    HW318041   2.212   1.326   1.856  1.2773 -1.6538 -0.6665
 4567SOL    MW418042   2.134   1.320   1.816 -0.0945  0.0722 -0.0574
 4568SOL     OW18043   0.617   4.724   6.251  0.3912  0.3008 -0.5035
 4568SOL    HW218044   0.567   4.774   6.316  0.8797 -0.9192  0.8967
 4568SOL    HW318045   0.705   4.717   6.290  0.0637 -2.4978 -0.0666
 4568SOL    MW418046   0.622   4.730   6.265 -0.7088  0.2729  0.2377
 4569SOL     OW18047   0.133   2.795   1.526  0.8897 -0.3790  0.4159
 4569SOL    HW218048   0.206   2.856   1.515 -0.2104  0.9000 -0.1738
 4569SOL    HW318049   0.109   2.771   1.436  0.6334 -0.8415  0.6068
 4569SOL    MW418050   0.139   2.800   1.513  0.1442  0.2428  0.1836
 4570SOL     OW18051   4.465   3.603   2.499 -0.2951  0.1488 -0.5531
 4570SOL    HW218052   4.519   3.646   2.565  1.6782 -0.3340 -1.7643
 4570SOL    HW318053   4.380   3.648   2.504  0.1790  0.9470  1.4044
 4570SOL    MW418054   4.461   3.614   2.509  0.0348 -0.2765 -0.2511
 4571SOL     OW18055   4.989   5.034   5.390  0.2855 -0.5417  0.5283
 4571SOL    HW218056   5.007   5.122   5.359  0.8902 -0.4908  0.9930
 4571SOL    HW318057   5.061   5.015   5.451 -0.4716 -0.8961  1.3393
 4571SOL    MW418058   5.001   5.043   5.394 -0.6195 -0.1975  0.5149
 4572SOL     OW18059   1.642   0.455   4.643  0.0257  0.4862  0.2987
 4572SOL    HW218060   1.564   0.431   4.693 -0.2036 -0.8960 -0.6777
 4572SOL    HW318061   1.715   0.417   4.693  0.2615  2.6479  1.7778
 4572SOL    MW418062   1.641   0.447   4.656  0.8183 -0.0899  0.0835
 4573SOL     OW18063   0.448   2.698   4.302  0.0184 -0.3429  0.5540
 4573SOL    HW218064   0.366   2.718   4.258  0.5407 -0.9323 -0.7498
 4573SOL    HW318065   0.455   2.764   4.371 -1.5663 -0.3321  0.7399
 4573SOL    MW418066   0.438   2.710   4.305  0.2138 -0.2859 -0.1621
 4574SOL     OW18067   2.418   1.539   2.727 -0.1741  0.0188  0.6558
 4574SOL    HW218068   2.403   1.453   2.689 -0.0686 -0.1262  0.9353
 4574SOL    HW318069   2.466   1.587   2.659  2.5634 -1.1508  1.5878
 4574SOL    MW418070   2.423   1.534   2.713  0.4751 -0.0486 -0.0221
 4575SOL     OW18071   4.251   2.253   5.232 -0.0174 -0.1770 -0.5911
 4575SOL    HW218072   4.225   2.332   5.279 -0.8311 -0.9549  0.3033
 4575SOL    HW318073   4.346   2.256   5.231 -0.0446  1.0928 -1.0642
 4575SOL    MW418074   4.260   2.264   5.238  0.1640 -0.0598 -0.2186
 4576SOL     OW18075   1.911   2.025   3.775 -0.6099  0.3320  0.8146
 4576SOL    HW218076   1.834   2.038   3.830 -1.6629 -0.7602 -0.3256
 4576SOL    HW318077   1.916   1.930   3.763  0.0214  0.4871 -0.3284
 4576SOL    MW418078   1.901   2.014   3.780  0.0675 -0.2618 -0.1684
 4577SOL     OW18079   0.568   4.130   4.425  0.1857  0.1176 -0.2761
 4577SOL    HW218080   0.507   4.084   4.367  0.0832  0.3953 -0.3874
 4577SOL    HW318081   0.550   4.093   4.512 -1.1404  1.1919 -0.0535
 4577SOL    MW418082   0.557   4.119   4.429  0.1723 -0.4992  0.3627
 4578SOL     OW18083   3.004   4.928   4.070  0.0099  0.1552  0.3172
 4578SOL    HW218084   2.992   4.904   3.979  0.8236 -1.1246  0.5187
 4578SOL    HW318085   3.037   5.018   4.067  0.2971  0.0281 -0.6500
 4578SOL    MW418086   3.007   4.937   4.058  0.3123 -0.4521  0.1427
 4579SOL     OW18087   1.678   5.296   5.154  0.1834 -0.2043 -0.1478
 4579SOL    HW218088   1.752   5.243   5.126  0.8840  0.8096 -0.2846
 4579SOL    HW318089   1.707   5.335   5.237 -1.1743 -1.7597  1.1271
 4579SOL    MW418090   1.692   5.295   5.161 -0.0722 -0.9598 -0.1469
 4580SOL     OW18091   1.130   5.408   1.132 -0.3922 -0.3311 -0.3686
 4580SOL    HW218092   1.091   5.488   1.167  2.1894  0.0588  1.9695
 4580SOL    HW318093   1.071   5.338   1.160 -2.8728  0.6565 -2.7445
 4580SOL    MW418094   1.117   5.409   1.140  0.1961  0.2010 -0.0426
 4581SOL     OW18095   4.071   4.807   3.208 -0.2640  0.2229 -0.0390
 4581SOL    HW218096   4.118   4.812   3.291 -1.9681 -0.1584  0.9779
 4581SOL    HW318097   4.040   4.896   3.192 -1.8938 -0.1501  0.9262
 4581SOL    MW418098   4.073   4.819   3.217 -0.6190  0.1806 -0.2168
 4582SOL     OW18099   3.716   1.766   2.719  0.1980  0.3593  0.3286
 4582SOL    HW218100   3.663   1.837   2.682  2.9327  2.0331 -0.6683
 4582SOL    HW318101   3.711   1.779   2.814 -0.6372  0.8673  0.2219
 4582SOL    MW418102   3.708   1.777   2.727  0.1903  0.1601 -0.0068
 4583SOL     OW18103   5.529   1.104   4.985 -0.1709 -0.4459 -0.2129
 4583SOL    HW218104   5.493   1.069   5.067 -1.8374  0.2443 -0.6172
 4583SOL    HW318105   5.613   1.059   4.976  0.8294  0.6047  2.6622
 4583SOL    MW418106   5.535   1.093   4.995 -0.0048 -0.4016 -0.2651
 4584SOL     OW18107   5.080   1.508   2.305  0.5350  0.3270  0.3422
 4584SOL    HW218108   5.160   1.560   2.311  1.4970 -0.9304 -0.9391
 4584SOL    HW318109   5.061   1.503   2.211 -1.7924  1.6288  0.6491
 4584SOL    MW418110   5.088   1.514   2.293  0.1103  0.5468 -0.1232
 4585SOL     OW18111   5.104   5.109   0.782 -0.2542 -0.6436 -0.1345
 4585SOL    HW218112   5.120   5.068   0.697  0.6706 -0.8868  0.1373
 4585SOL    HW318113   5.079   5.037   0.840 -1.2474 -0.4254 -0.2822
 4585SOL    MW418114   5.103   5.094   0.779 -0.5035  0.0257 -0.6257
 4586SOL     OW18115   2.688   2.104   4.428 -0.7615  0.5665 -0.0659
 4586SOL    HW218116   2.658   2.178   4.375  0.6446  0.8864 -0.4508
 4586SOL    HW318117   2.706   2.142   4.514 -1.7974  0.2965  0.2856
 4586SOL    MW418118   2.686   2.119   4.432 -0.1460  0.2496 -0.0789
 4587SOL     OW18119   5.842   4.047   0.584  0.0207 -0.2598  0.0471
 4587SOL    HW218120   5.905   4.118   0.602  0.0506 -0.3495  0.3010
 4587SOL    HW318121   5.881   3.970   0.625 -0.2876 -0.3031  0.2630
 4587SOL    MW418122   5.856   4.046   0.592 -0.2556  0.1025 -0.0986
 4588SOL     OW18123   3.318   0.497   1.935 -0.1881 -0.4602  0.6205
 4588SOL    HW218124   3.398   0.513   1.986  0.1069  0.0857  0.0022
 4588SOL    HW318125   3.248   0.531   1.991  0.2231  1.0128  0.2878
 4588SOL    MW418126   3.319   0.504   1.949  0.2272  0.2459  0.5003
 4589SOL     OW18127   1.977   5.861   6.027  0.1942  0.4479  0.3574
 4589SOL    HW218128   1.961   5.857   5.932  1.8847  2.7643 -0.1059
 4589SOL    HW318129   2.028   5.783   6.046  0.4525  0.3129 -0.8078
 4589SOL    MW418130   1.982   5.850   6.017  0.0330  0.7785 -0.0975
 4590SOL     OW18131   5.284   1.622   1.136  0.3922  0.0673 -0.2527
 4590SOL    HW218132   5.225   1.595   1.066 -3.0399  0.2139  2.3164
 4590SOL    HW318133   5.275   1.717   1.140 -0.6143 -0.0552  1.2296
 4590SOL    MW418134   5.275   1.631   1.127  0.0932 -0.2050 -0.1337
 4591SOL     OW18135   4.258   2.276   1.323  0.7048 -0.6869 -0.2358
 4591SOL    HW218136   4.274   2.337   1.395 -1.4036 -0.6847  0.3198
 4591SOL    HW318137   4.255   2.190   1.365 -1.5652 -0.5899 -0.0369
 4591SOL    MW418138   4.259   2.273   1.338 -0.2119 -0.1930  0.0621
 4592SOL     OW18139   2.060   4.890   6.262 -0.1684 -0.4084 -0.4768
 4592SOL    HW218140   2.003   4.886   6.186 -0.6686 -0.6955 -0.0920
 4592SOL    HW318141   2.003   4.920   6.333  0.2352 -0.3808 -0.1618
 4592SOL    MW418142   2.045   4.893   6.261  0.2702  0.0551 -0.1764
 4593SOL     OW18143   1.210   4.746   2.625 -0.0434  0.0647  0.3450
 4593SOL    HW218144   1.141   4.691   2.590  0.4031 -0.1353 -0.2321
 4593SOL    HW318145   1.187   4.835   2.596  1.5130 -0.3455 -2.5121
 4593SOL    MW418146   1.198   4.751   2.617 -0.5474  0.0918 -0.8454
 4594SOL     OW18147   2.063   0.437   0.619 -0.4014 -0.1423 -0.5137
 4594SOL    HW218148   2.027   0.350   0.634 -0.7966  0.1189  0.0872
 4594SOL    HW318149   1.986   0.491   0.597 -0.1160 -0.0190 -1.2494
 4594SOL    MW418150   2.048   0.433   0.618  0.1983 -0.3033 -0.0990
 4595SOL     OW18151   5.100   4.318   2.406 -0.1517  0.3477 -0.6914
 4595SOL    HW218152   5.159   4.243   2.400  0.4004  0.6807  0.3463
 4595SOL    HW318153   5.041   4.297   2.477  0.1924  1.0158 -0.1996
 4595SOL    MW418154   5.100   4.305   2.414  0.3216 -0.5664  0.7616
 4596SOL     OW18155   4.780   2.346   5.589 -0.1299  0.1845 -0.3001
 4596SOL    HW218156   4.691   2.374   5.567 -0.5113 -1.5255 -1.1263
 4596SOL    HW318157   4.796   2.381   5.676 -1.1454  1.5231 -0.6193
 4596SOL    MW418158   4.770   2.354   5.597  0.0462  0.3694  0.3141
 4597SOL     OW18159   1.608   2.783   4.003  0.0495 -0.2390  0.1786
 4597SOL    HW218160   1.696   2.747   4.011 -0.2476 -0.6941  1.6230
 4597SOL    HW318161   1.595   2.794   3.908  1.9342  0.5857 -0.0267
 4597SOL    MW418162   1.618   2.780   3.991  0.0587 -0.5333  0.1077
 4598SOL     OW18163   1.332   0.516   3.669 -0.5977 -0.0590  0.4655
 4598SOL    HW218164   1.339   0.464   3.589 -2.7535  0.6584 -0.2641
 4598SOL    HW318165   1.243   0.499   3.701 -0.3438  0.9447  1.8030
 4598SOL    MW418166   1.321   0.507   3.663  0.4726 -0.1445  0.8377
 4599SOL     OW18167   5.350   3.231   3.044  0.3368  0.3746 -0.7514
 4599SOL    HW218168   5.408   3.162   3.012 -0.9326 -0.5522 -1.1571
 4599SOL    HW318169   5.277   3.184   3.084 -0.0232  1.5088 -0.0168
 4599SOL    MW418170   5.348   3.216   3.045 -0.3340 -0.4280  0.2174
 4600SOL     OW18171   1.409   2.671   2.606 -0.0629  0.5178 -0.3163
 4600SOL    HW218172   1.392   2.603   2.542 -0.2623  0.4143 -0.1554
 4600SOL    HW318173   1.362   2.748   2.572  0.7923  0.8026 -0.8942
 4600SOL    MW418174   1.401   2.672   2.593 -0.1000 -0.1868 -0.3018
 4601SOL     OW18175   2.253   4.335   4.985 -0.0586  0.0149 -0.0313
 4601SOL    HW218176   2.246   4.262   4.924  0.2122  1.5259 -1.9747
 4601SOL    HW318177   2.170   4.382   4.975 -0.1199  0.1387  0.9881
 4601SOL    MW418178   2.241   4.332   4.975 -0.0505 -0.1421 -0.0710
 4602SOL     OW18179   5.134   3.464   3.123 -0.6993 -0.4086  0.0251
 4602SOL    HW218180   5.155   3.548   3.162 -1.7956 -0.1875  0.1448
 4602SOL    HW318181   5.218   3.433   3.087  0.0951 -0.0896  1.5026
 4602SOL    MW418182   5.148   3.471   3.123 -0.3748 -0.3213 -0.2126
 4603SOL     OW18183   1.405   4.198   0.284  0.5002 -0.1042 -0.1046
 4603SOL    HW218184   1.345   4.209   0.357  0.0349 -0.0989 -0.4803
 4603SOL    HW318185   1.492   4.196   0.324  0.3941  1.5813  0.3030
 4603SOL    MW418186   1.408   4.199   0.299 -0.0860  0.3115  0.7007
 4604SOL     OW18187   3.520   3.418   3.696  0.0777  0.3384 -0.2881
 4604SOL    HW218188   3.455   3.488   3.704  0.4511  0.7294 -0.6248
 4604SOL    HW318189   3.604   3.463   3.705  0.2840 -0.3487  1.5322
 4604SOL    MW418190   3.523   3.433   3.698 -0.4697  0.0566  0.3302
 4605SOL     OW18191   4.016   3.368   6.301 -0.1636 -0.0003  0.1896
 4605SOL    HW218192   3.983   3.283   6.330 -0.3177 -0.9683 -2.4776
 4605SOL    HW318193   4.030   3.356   6.207  0.0881  2.8754 -0.2035
 4605SOL    MW418194   4.014   3.355   6.292 -0.2874  0.1996 -0.1966
 4606SOL     OW18195   5.646   5.530   3.905 -0.1099  0.2383  0.3065
 4606SOL    HW218196   5.582   5.458   3.909 -0.4908  0.6039  1.1183
 4606SOL    HW318197   5.594   5.609   3.922  0.0580  0.8874 -1.8681
 4606SOL    MW418198   5.630   5.531   3.907 -0.1537  0.0616  0.4369
 4607SOL     OW18199   0.570   4.898   0.133 -0.1772 -0.2353 -0.0840
 4607SOL    HW218200   0.633   4.912   0.203  0.2697 -1.5403 -0.2120
 4607SOL    HW318201   0.489   4.940   0.164 -0.3908 -1.9052  1.8056
 4607SOL    MW418202   0.567   4.906   0.146  0.2318 -0.3878  0.4802
 4608SOL     OW18203   3.992   3.637   1.926  0.4986 -0.3808  0.2742
 4608SOL    HW218204   3.897   3.632   1.935  0.5109 -2.4108 -0.2668
 4608SOL    HW318205   4.007   3.712   1.869 -0.6993  0.4706  1.0266
 4608SOL    MW418206   3.982   3.646   1.920  0.0557  0.7074  0.1962
 4609SOL     OW18207   5.923   2.349   0.448  0.6214  0.0076 -0.0728
 4609SOL    HW218208   5.967   2.374   0.367 -0.6954 -1.4512 -1.2870
 4609SOL    HW318209   5.981   2.284   0.488  0.4683 -0.5440 -0.7296
 4609SOL    MW418210   5.936   2.344   0.443 -0.0952  0.5355 -0.0858
 4610SOL     OW18211   2.368   2.899   4.531 -0.6407 -0.3293  0.3038
 4610SOL    HW218212   2.276   2.888   4.555 -0.1341  0.4545  2.9837
 4610SOL    HW318213   2.414   2.903   4.615  1.4946  2.1385 -0.8413
 4610SOL    MW418214   2.362   2.898   4.545 -0.2608  0.0581 -0.2498
 4611SOL     OW18215   0.812   5.138   1.442 -0.2680  0.0461 -0.8504
 4611SOL    HW218216   0.870   5.113   1.513 -0.9764 -0.4085 -0.4184
 4611SOL    HW318217   0.853   5.215   1.402 -1.0162  1.7869  1.5228
 4611SOL    MW418218   0.825   5.145   1.446  0.1060 -0.0396 -0.4819
 4612SOL     OW18219   1.215   3.783   0.140  0.4781 -0.0948  0.4889
 4612SOL    HW218220   1.193   3.876   0.139  0.6548 -0.0187  1.8422
 4612SOL    HW318221   1.190   3.753   0.227 -0.5863 -1.5895 -0.2768
 4612SOL    MW418222   1.209   3.792   0.151  0.4240 -1.1269 -0.0959
 4613SOL     OW18223   1.208   6.355   4.532  0.1927 -0.0510  0.6524
 4613SOL    HW218224   1.131   6.380   4.481  0.8763  1.4985  0.3259
 4613SOL    HW318225   1.173   6.331   4.618 -0.8976 -1.9971 -0.2588
 4613SOL    MW418226   1.193   6.355   4.537  0.4544 -0.1151  0.0826
 4614SOL     OW18227   2.639   3.535   2.865  0.2610  0.2621 -0.2759
 4614SOL    HW218228   2.667   3.493   2.947  0.2006 -1.1909 -0.9657
 4614SOL    HW318229   2.567   3.480   2.834  0.1109  0.9445 -1.1852
 4614SOL    MW418230   2.633   3.522   2.872  0.5026 -0.0806  0.2130
 4615SOL     OW18231   5.312   5.646   2.892 -0.1190  0.3866  0.5403
 4615SOL    HW218232   5.352   5.680   2.812 -0.1048 -1.6960 -0.4049
 4615SOL    HW318233   5.348   5.700   2.962  1.4976  0.9338 -0.6486
 4615SOL    MW418234   5.322   5.658   2.891 -0.3324 -0.0018  0.2805
 4616SOL     OW18235   0.641   1.132   1.417 -0.0370 -0.1381  0.2562
 4616SOL    HW218236   0.660   1.108   1.327 -0.8781 -0.8993  0.2577
 4616SOL    HW318237   0.646   1.228   1.419 -0.8940 -0.0548 -0.8182
 4616SOL    MW418238   0.644   1.142   1.406 -0.0463 -0.0839 -0.3508
 4617SOL     OW18239   0.335   0.112   3.607  0.6034  0.2802 -0.0127
 4617SOL    HW218240   0.309   0.026   3.642 -0.7860  0.2503 -1.0078
 4617SOL    HW318241   0.350   0.166   3.684 -1.0219 -0.1723  0.6779
 4617SOL    MW418242   0.333   0.108   3.622 -0.3732  0.4850  0.4052
 4618SOL     OW18243   5.689   4.285   3.884 -0.2851  0.7148  0.0251
 4618SOL    HW218244   5.729   4.227   3.948 -1.6659 -0.4774 -0.1430
 4618SOL    HW318245   5.685   4.234   3.803 -0.8685  1.2894 -0.3285
 4618SOL    MW418246   5.693   4.271   3.882 -0.1590  0.0652 -0.2856
 4619SOL     OW18247   6.401   4.208   4.998  0.0678  0.4495 -0.2132
 4619SOL    HW218248   6.437   4.297   4.999 -0.6163  0.7443 -1.0242
 4619SOL    HW318249   6.322   4.214   4.943 -1.0138 -0.2689  1.2073
 4619SOL    MW418250   6.395   4.221   4.991 -0.3816  0.2946 -0.1255
 4620SOL     OW18251   2.683   2.556   1.359  0.0754 -0.0382 -0.0003
 4620SOL    HW218252   2.623   2.481   1.354 -0.8539  0.6766  0.1370
 4620SOL    HW318253   2.705   2.563   1.452  1.2299 -0.9366 -0.1809
 4620SOL    MW418254   2.678   2.547   1.371  0.2825  0.1146 -0.3207
 4621SOL     OW18255   5.829   0.167   6.332  0.2254  0.1573 -0.4792
 4621SOL    HW218256   5.917   0.142   6.307  0.3685  0.4049 -0.2328
 4621SOL    HW318257   5.797   0.095   6.385  0.2778  0.0648 -0.5742
 4621SOL    MW418258   5.836   0.154   6.336 -0.4949 -0.6423  0.0724
 4622SOL     OW18259   0.028   4.257   5.787 -0.1189  0.1722 -0.2714
 4622SOL    HW218260  -0.060   4.219   5.790  0.6734 -1.8689 -0.6881
 4622SOL    HW318261   0.080   4.192   5.740  1.6100  1.3431 -0.0714
 4622SOL    MW418262   0.023   4.243   5.781 -0.3083 -0.6011  0.0910
 4623SOL     OW18263   0.652   4.162   6.285 -0.0224  0.1815  0.3004
 4623SOL    HW218264   0.603   4.089   6.321  0.3223 -0.4753 -0.5382
 4623SOL    HW318265   0.650   4.229   6.354  0.0198 -0.7675  1.2397
 4623SOL    MW418266   0.646   4.162   6.299 -0.0708  0.1397 -0.2158
 4624SOL     OW18267   6.244   1.459   4.287  0.3429 -0.4879 -0.6244
 4624SOL    HW218268   6.264   1.420   4.202  2.6059  1.5933 -1.1814
 4624SOL    HW318269   6.230   1.385   4.345  1.6077 -2.0340 -2.1929
 4624SOL    MW418270   6.245   1.444   4.283  0.1438  0.1370 -0.9329
 4625SOL     OW18271   0.716   0.438   2.812 -0.3303  0.0174 -0.1701
 4625SOL    HW218272   0.727   0.417   2.719  1.0100  0.3171 -0.0952
 4625SOL    HW318273   0.650   0.376   2.842  0.3809 -1.1872 -0.9643
 4625SOL    MW418274   0.709   0.427   2.803  0.1800  0.1562  0.3326
 4626SOL     OW18275   5.604   0.675   2.735 -0.3080 -0.4142 -0.0262
 4626SOL    HW218276   5.517   0.638   2.747 -1.3584  1.8067 -0.2619
 4626SOL    HW318277   5.634   0.640   2.651 -1.1388 -0.8681 -0.1433
 4626SOL    MW418278   5.596   0.665   2.726 -0.3253 -0.0744 -0.1719
 4627SOL     OW18279   1.882   0.088   4.321  0.2354  0.3495 -0.3819
 4627SOL    HW218280   1.951   0.084   4.256  2.3997  1.6333  1.6751
 4627SOL    HW318281   1.885   0.178   4.353 -3.3198  0.8735 -1.0627
 4627SOL    MW418282   1.891   0.100   4.317 -0.2766 -0.3010  0.5644
 4628SOL     OW18283   2.528   1.867   2.810 -0.1065  0.0806 -0.3134
 4628SOL    HW218284   2.565   1.786   2.844 -0.6517  0.0554  0.2501
 4628SOL    HW318285   2.534   1.929   2.883 -1.1169  0.0819 -0.2043
 4628SOL    MW418286   2.533   1.864   2.825  0.1287 -0.1493 -0.3787
 4629SOL     OW18287   4.591   5.114   0.685  0.3541 -0.0071 -0.7232
 4629SOL    HW218288   4.543   5.155   0.613 -0.4546 -0.4938 -0.4617
 4629SOL    HW318289   4.558   5.025   0.689  0.2766  0.0518  0.3546
 4629SOL    MW418290   4.581   5.108   0.676 -0.0360 -0.1818  0.2411
 4630SOL     OW18291   5.559   1.053   4.156  0.5309  0.1123  0.7496
 4630SOL    HW218292   5.536   1.047   4.249 -0.4600 -0.2243  0.4917
 4630SOL    HW318293   5.567   0.962   4.128 -0.7035  0.1705  0.1483
 4630SOL    MW418294   5.557   1.040   4.165  0.1732 -0.3737 -0.2340
 4631SOL     OW18295   4.817   4.040   5.576 -0.0323 -0.6179 -0.1832
 4631SOL    HW218296   4.756   3.971   5.550 -0.8646  0.3526 -0.8497
 4631SOL    HW318297   4.903   3.997   5.577 -0.6104 -1.7893 -0.0415
 4631SOL    MW418298   4.821   4.025   5.573 -0.4309  0.2006  0.1477
 4632SOL     OW18299   5.705   0.254   5.631  0.3340 -0.0918 -0.0448
 4632SOL    HW218300   5.729   0.164   5.652 -0.2998 -0.0319  0.9995
 4632SOL    HW318301   5.751   0.307   5.695  0.0218  0.2632 -0.1116
 4632SOL    MW418302   5.714   0.249   5.642  0.0749 -0.4750  0.2257
 4633SOL     OW18303   3.472   0.569   2.974 -0.0950 -0.2902  0.1078
 4633SOL    HW218304   3.386   0.610   2.967 -0.8281 -1.8839 -0.7567
 4633SOL    HW318305   3.495   0.544   2.885  0.9422 -0.5228  0.4165
 4633SOL    MW418306   3.464   0.571   2.962  0.2000  0.1520 -1.0651
 4634SOL     OW18307   0.993   1.382   5.602  0.7122  0.4013  0.0928
 4634SOL    HW218308   0.957   1.463   5.638  0.4501  0.3527 -0.0533
 4634SOL    HW318309   0.918   1.324   5.594  0.7032  0.5169 -0.8116
 4634SOL    MW418310   0.979   1.385   5.605 -0.2997  0.3774 -0.4518
 4635SOL     OW18311   3.107   4.453   1.197 -0.2663  0.2284  0.2881
 4635SOL    HW218312   3.155   4.521   1.149 -0.6998  0.5832  0.3436
 4635SOL    HW318313   3.043   4.502   1.249 -0.9544 -0.2608 -0.0850
 4635SOL    MW418314   3.105   4.469   1.198  0.5481  0.2531  0.6009
 4636SOL     OW18315   0.235   3.836   3.288 -0.1070  0.1287 -0.0513
 4636SOL    HW218316   0.317   3.788   3.274 -0.3302  0.1782 -1.7730
 4636SOL    HW318317   0.258   3.907   3.348  0.9143 -0.3462  0.1356
 4636SOL    MW418318   0.249   3.839   3.294 -0.1967  0.4074  0.5535
 4637SOL     OW18319   4.376   3.279   1.419  0.1502 -0.3457 -0.1249
 4637SOL    HW218320   4.285   3.257   1.436 -0.0860  0.8476  0.2571
 4637SOL    HW318321   4.373   3.333   1.340  0.3772  0.7472  0.6028
 4637SOL    MW418322   4.364   3.283   1.411  0.1020 -0.2836  0.3630
 4638SOL     OW18323   1.041   4.424   4.084 -0.1488  0.1759 -0.1904
 4638SOL    HW218324   1.134   4.406   4.098  0.0200  0.7237 -0.5489
 4638SOL    HW318325   0.996   4.345   4.115  0.4482 -0.1855 -0.2234
 4638SOL    MW418326   1.048   4.411   4.090 -0.4921  0.0112 -0.4474
 4639SOL     OW18327   5.420   0.743   1.193 -1.0231 -0.0947 -0.8998
 4639SOL    HW218328   5.415   0.777   1.282  0.9441 -0.2327 -0.7127
 4639SOL    HW318329   5.389   0.816   1.138 -2.3269 -0.0413 -0.1399
 4639SOL    MW418330   5.415   0.757   1.197  0.2063  0.4547  0.0550
 4640SOL     OW18331   4.921   5.593   4.658  0.1878 -0.1753  0.0310
 4640SOL    HW218332   4.999   5.569   4.708 -1.2691 -0.3510  2.4090
 4640SOL    HW318333   4.928   5.688   4.647 -0.2223  0.1789  2.1860
 4640SOL    MW418334   4.932   5.602   4.663  0.4894  0.5640 -0.4623
 4641SOL     OW18335   2.581   5.898   4.106 -0.0085 -0.0022  0.0339
 4641SOL    HW218336   2.628   5.924   4.026 -0.3171 -1.4005 -0.6386
 4641SOL    HW318337   2.489   5.895   4.080 -0.3072  1.0337  0.8867
 4641SOL    MW418338   2.575   5.901   4.092 -0.5895 -0.3856 -0.1964
 4642SOL     OW18339   6.217   5.334   0.091 -0.2022 -0.0515 -0.1752
 4642SOL    HW218340   6.189   5.300   0.006 -1.3993  0.0392  0.1655
 4642SOL    HW318341   6.162   5.289   0.154  1.4905 -1.0260  0.6827
 4642SOL    MW418342   6.206   5.324   0.088  0.3725  0.0017 -0.5764
 4643SOL     OW18343   0.579   0.976   0.251  0.5409  0.1145  0.1169
 4643SOL    HW218344   0.591   0.901   0.308  0.8682  0.3591  0.3764
 4643SOL    HW318345   0.487   0.972   0.224  0.3317  0.1039  0.8173
 4643SOL    MW418346   0.568   0.966   0.255 -0.5176  0.1399  0.4218
 4644SOL     OW18347   4.173   6.301   3.565 -0.0316 -0.5872 -0.2593
 4644SOL    HW218348   4.212   6.233   3.509 -0.1890 -0.2876 -0.7422
 4644SOL    HW318349   4.079   6.283   3.560 -0.1455  0.1394 -1.0389
 4644SOL    MW418350   4.166   6.290   3.557  0.5193 -0.3361  0.0010
 4645SOL     OW18351   3.942   4.746   5.721 -0.3543  0.4557  0.4900
 4645SOL    HW218352   3.929   4.787   5.806 -0.0163 -0.4012  0.9652
 4645SOL    HW318353   3.867   4.686   5.712  0.2844 -0.4038  0.7702
 4645SOL    MW418354   3.930   4.743   5.731  0.4291  0.3024 -0.2304
 4646SOL     OW18355   6.368   6.329   4.906  0.3440 -0.4177 -0.4183
 4646SOL    HW218356   6.381   6.407   4.961 -0.9599 -0.3134 -0.2299
 4646SOL    HW318357   6.379   6.361   4.817 -0.8845  0.1657 -0.3824
 4646SOL    MW418358   6.371   6.344   4.902 -0.0227 -0.1720 -0.0385
 4647SOL     OW18359   4.187   1.779   1.455 -0.0794  0.3071  0.5634
 4647SOL    HW218360   4.269   1.766   1.502 -0.3920 -1.2247  0.7287
 4647SOL    HW318361   4.186   1.709   1.389 -1.2603  0.2971  0.5839
 4647SOL    MW418362   4.198   1.768   1.452 -0.3177 -0.2188  0.1389
 4648SOL     OW18363   2.484   1.535   5.243  0.0870  0.5875  0.4786
 4648SOL    HW218364   2.533   1.574   5.171  0.7529 -1.2980 -0.1245
 4648SOL    HW318365   2.404   1.501   5.202  0.6043 -0.7513  0.5458
 4648SOL    MW418366   2.480   1.536   5.228  0.2830 -0.2354  0.1272
 4649SOL     OW18367   0.210   1.057   1.374  0.3243 -0.1796  0.3246
 4649SOL    HW218368   0.193   1.016   1.290 -0.0969 -1.3278  0.9409
 4649SOL    HW318369   0.147   1.130   1.379 -1.0976 -1.3731  0.4995
 4649SOL    MW418370   0.199   1.061   1.364 -0.4832  0.0453 -0.3182
 4650SOL     OW18371   3.387   1.438   0.921 -0.1517 -0.1120  0.0225
 4650SOL    HW218372   3.435   1.482   0.992  2.1897 -2.2051 -0.1146
 4650SOL    HW318373   3.326   1.504   0.888  1.5921  2.2541  1.2684
 4650SOL    MW418374   3.385   1.452   0.926  0.2727 -0.2722  0.6100
 4651SOL     OW18375   0.654   3.902   5.172  0.1307 -0.0437  1.1156
 4651SOL    HW218376   0.732   3.896   5.118  1.1445  1.2269  2.3547
 4651SOL    HW318377   0.687   3.905   5.262 -1.4012 -0.4649  1.7274
 4651SOL    MW418378   0.668   3.902   5.177  0.0922  0.5141  0.4750
 4652SOL     OW18379   2.175   0.061   5.414 -0.1611  0.7598  0.8601
 4652SOL    HW218380   2.263   0.061   5.376 -0.6821 -0.2794 -0.4351
 4652SOL    HW318381   2.174   0.136   5.474  1.7306  0.5396  1.2247
 4652SOL    MW418382   2.186   0.071   5.417  0.8140  0.1280  0.2373
 4653SOL     OW18383   5.285   2.227   1.290 -1.1127 -0.1444  0.0230
 4653SOL    HW218384   5.210   2.173   1.265 -2.7688  2.7938 -2.0108
 4653SOL    HW318385   5.249   2.291   1.351 -0.2640  1.1917 -0.8265
 4653SOL    MW418386   5.270   2.229   1.295  0.5765  0.0166  0.1349
 4654SOL     OW18387   3.300   6.312   1.141 -0.4180 -0.5608 -0.0557
 4654SOL    HW218388   3.253   6.379   1.092 -1.3508 -1.3719 -0.3097
 4654SOL    HW318389   3.390   6.343   1.145 -0.9341  0.9496  0.2922
 4654SOL    MW418390   3.306   6.325   1.135 -0.8791  0.2964 -0.2086
 4655SOL     OW18391   2.668   4.422   3.249 -0.0991 -0.5136  0.0090
 4655SOL    HW218392   2.601   4.460   3.193 -1.2188 -0.0076  1.6217
 4655SOL    HW318393   2.623   4.353   3.298  0.5449 -0.1710  1.1165
 4655SOL    MW418394   2.653   4.418   3.248  0.3412  0.3855 -0.6580
 4656SOL     OW18395   1.577   2.748   0.536 -0.0532 -0.5418  0.7094
 4656SOL    HW218396   1.495   2.762   0.583 -0.4222  1.5936 -0.4525
 4656SOL    HW318397   1.644   2.787   0.592 -0.1998  0.0453  0.4827
 4656SOL    MW418398   1.575   2.755   0.550  0.4587  0.5658 -0.0385
 4657SOL     OW18399   4.039   5.891   3.171 -1.2677  0.0718 -0.5589
 4657SOL    HW218400   4.057   5.918   3.081  2.0741  0.0873 -0.0441
 4657SOL    HW318401   4.027   5.974   3.218  0.9780  0.3821 -0.3921
 4657SOL    MW418402   4.040   5.906   3.166 -0.3989 -0.2081 -0.2939
 4658SOL     OW18403   6.117   5.612   1.346 -0.3981  0.0620  0.1178
 4658SOL    HW218404   6.152   5.588   1.260 -1.4575  0.5697 -0.4755
 4658SOL    HW318405   6.105   5.529   1.392  0.6429 -0.1821 -0.0285
 4658SOL    MW418406   6.120   5.598   1.341 -0.2251  0.3146  0.3199
 4659SOL     OW18407   5.032   6.215   1.734  0.3026  0.2555 -0.0707
 4659SOL    HW218408   4.953   6.246   1.777  0.1530  0.2767 -0.3612
 4659SOL    HW318409   5.036   6.122   1.755  0.0888  0.2112 -0.2332
 4659SOL    MW418410   5.022   6.207   1.742  0.9624  0.2395  0.1068
 4660SOL     OW18411   2.977   0.303   6.057  0.3130 -0.0831  0.0144
 4660SOL    HW218412   2.989   0.377   6.118  1.3682  0.2586 -0.5917
 4660SOL    HW318413   3.065   0.278   6.032 -0.0826 -0.7925 -0.7057
 4660SOL    MW418414   2.990   0.310   6.062  0.1711 -0.1247 -0.5402
 4661SOL     OW18415   6.142   3.725   4.214  0.2160  0.0754  0.3505
 4661SOL    HW218416   6.205   3.666   4.173  0.1703  1.4488 -1.8661
 4661SOL    HW318417   6.190   3.807   4.227 -0.5467  0.5202  0.4623
 4661SOL    MW418418   6.157   3.728   4.210  0.0864  0.6987 -0.2210
 4662SOL     OW18419   5.534   4.463   6.126 -0.1265  0.1417  0.5731
 4662SOL    HW218420   5.539   4.548   6.081 -0.5322 -0.2046 -0.1411
 4662SOL    HW318421   5.508   4.485   6.216 -1.0636  0.7245  0.1764
 4662SOL    MW418422   5.531   4.477   6.132 -0.2984  0.0318 -0.4415
 4663SOL     OW18423   4.525   4.745   5.348  0.1147 -0.3075  0.4296
 4663SOL    HW218424   4.550   4.835   5.371 -0.0105 -0.3330  0.6658
 4663SOL    HW318425   4.588   4.720   5.280 -0.3626  0.2495 -0.2319
 4663SOL    MW418426   4.537   4.754   5.342 -0.3187 -0.6578  0.6281
 4664SOL     OW18427   2.058   3.792   1.980  0.5518 -0.3054  0.0597
 4664SOL    HW218428   2.148   3.772   2.004  0.4175  0.1888  1.0316
 4664SOL    HW318429   2.004   3.749   2.046  0.1900  1.4046  0.9583
 4664SOL    MW418430   2.063   3.784   1.992  0.3213  0.1153 -0.1268
 4665SOL     OW18431   2.108   5.794   3.188  0.0453  0.6723  0.1124
 4665SOL    HW218432   2.163   5.774   3.111  0.0831 -0.2926  0.3722
 4665SOL    HW318433   2.038   5.730   3.184  0.0681  0.5889  0.9071
 4665SOL    MW418434   2.106   5.783   3.177 -0.5619  0.0362  0.3019
 4666SOL     OW18435   3.168   2.974   1.352 -0.1657  0.2395  0.1205
 4666SOL    HW218436   3.198   3.047   1.407 -0.7300  0.1609  0.5412
 4666SOL    HW318437   3.241   2.958   1.292  1.2950 -0.9428  2.0725
 4666SOL    MW418438   3.182   2.982   1.351 -0.3536  0.5943 -0.2841
 4667SOL     OW18439   2.899   1.538   3.516  0.0868 -0.4967 -0.5037
 4667SOL    HW218440   2.824   1.596   3.509  0.9092  0.5691 -0.8560
 4667SOL    HW318441   2.872   1.471   3.578 -0.1609  1.4642  1.6593
 4667SOL    MW418442   2.886   1.537   3.523 -0.3004  0.5477  0.0681
 4668SOL     OW18443   0.561   3.386   0.736 -0.5952  0.0944  0.8288
 4668SOL    HW218444   0.558   3.291   0.725  2.7921 -0.4323  2.8206
 4668SOL    HW318445   0.607   3.418   0.659 -1.7693  0.1751  0.1393
 4668SOL    MW418446   0.567   3.377   0.724 -0.0400 -0.3554  0.2221
 4669SOL     OW18447   5.327   2.131   2.975  0.8215 -0.3756 -0.0513
 4669SOL    HW218448   5.290   2.066   3.035 -0.2219  0.0120 -0.2430
 4669SOL    HW318449   5.364   2.198   3.033 -1.8563  0.9559  0.2756
 4669SOL    MW418450   5.327   2.131   2.991  0.4198  0.0874  0.3629
 4670SOL     OW18451   0.257   2.093   3.828 -0.1217 -0.0950 -0.4343
 4670SOL    HW218452   0.224   2.158   3.765  1.9577  1.2369 -0.2384
 4670SOL    HW318453   0.283   2.018   3.775 -0.6073  0.0527 -0.8875
 4670SOL    MW418454   0.256   2.092   3.813 -0.2536  0.1218  0.2603
 4671SOL     OW18455   5.954   1.860   1.658 -0.2872 -0.0561 -0.1334
 4671SOL    HW218456   5.874   1.897   1.696  0.6007  0.1799  1.6362
 4671SOL    HW318457   6.023   1.887   1.719  1.5882  2.0106 -2.9359
 4671SOL    MW418458   5.953   1.869   1.671  0.5533  0.3678  0.8552
 4672SOL     OW18459   3.095   1.104   2.502  0.3113 -0.1751 -0.1849
 4672SOL    HW218460   3.070   1.143   2.586 -0.7113  0.6757 -0.8545
 4672SOL    HW318461   3.020   1.123   2.445  1.2757 -0.1581 -1.4654
 4672SOL    MW418462   3.082   1.112   2.506 -0.3946 -0.0579  0.4195
 4673SOL     OW18463   6.141   0.088   4.307 -0.0962  0.5197 -0.0004
 4673SOL    HW218464   6.059   0.061   4.349  0.1197  0.9451  0.7078
 4673SOL    HW318465   6.204   0.019   4.331  0.1662  1.0423  0.8525
 4673SOL    MW418466   6.139   0.075   4.316 -0.5700 -0.3012 -0.5581
 4674SOL     OW18467   1.294   3.702   2.380 -0.6374  0.1789  0.2857
 4674SOL    HW218468   1.309   3.708   2.474  1.1135 -1.7638  0.1966
 4674SOL    HW318469   1.330   3.617   2.355  0.5138  1.3468 -2.4337
 4674SOL    MW418470   1.301   3.691   2.389 -0.8433 -0.1862 -0.2112
 4675SOL     OW18471   5.707   0.706   2.196  0.1083  0.1348  0.3320
 4675SOL    HW218472   5.648   0.777   2.221  0.4639  0.4523  0.2769
 4675SOL    HW318473   5.649   0.636   2.167 -0.2328  1.4822 -2.6327
 4675SOL    MW418474   5.692   0.706   2.196 -0.3495 -0.3320 -0.1712
 4676SOL     OW18475   1.085   0.599   2.882  0.4125 -0.0087  0.7731
 4676SOL    HW218476   1.105   0.509   2.855 -0.4916  0.5158 -1.9626
 4676SOL    HW318477   1.147   0.653   2.835  0.7588  0.8676  2.1764
 4676SOL    MW418478   1.096   0.594   2.872 -0.3257 -0.6024 -0.4913
 4677SOL     OW18479   3.521   0.858   3.297 -0.0350 -0.0669 -0.1150
 4677SOL    HW218480   3.572   0.905   3.363 -0.0421  1.3040 -1.0559
 4677SOL    HW318481   3.583   0.840   3.226 -0.6835  1.0912 -1.0085
 4677SOL    MW418482   3.536   0.862   3.296  0.3515  0.6232  0.2481
 4678SOL     OW18483   3.100   1.803   1.896  0.1877 -0.1063  0.0140
 4678SOL    HW218484   3.138   1.882   1.857  0.1312 -0.5668 -1.0166
 4678SOL    HW318485   3.153   1.731   1.861 -0.3062 -0.5871  0.2364
 4678SOL    MW418486   3.112   1.804   1.886  0.2399  0.3125  0.1130
 4679SOL     OW18487   4.260   3.571   4.299 -0.4197 -0.0108 -0.0763
 4679SOL    HW218488   4.286   3.593   4.210 -1.0600 -1.1386 -0.5584
 4679SOL    HW318489   4.176   3.615   4.311 -0.0755  0.5965  0.1844
 4679SOL    MW418490   4.252   3.580   4.289 -0.2346 -0.5665 -0.0143
 4680SOL     OW18491   0.135   1.705   1.165  0.3935  0.0976 -0.2472
 4680SOL    HW218492   0.160   1.624   1.121  1.4808  0.2582  0.0593
 4680SOL    HW318493   0.128   1.680   1.257 -0.3361  0.1201 -0.2879
 4680SOL    MW418494   0.137   1.691   1.171 -0.0228  0.2274  0.1094
 4681SOL     OW18495   0.743   3.958   4.789 -0.0139  0.2038 -0.0651
 4681SOL    HW218496   0.795   3.984   4.713  1.2914 -3.0477 -0.4472
 4681SOL    HW318497   0.653   3.951   4.756  0.6938 -2.3235 -1.7860
 4681SOL    MW418498   0.738   3.960   4.775  0.1203  0.0251  0.1251
 4682SOL     OW18499   4.589   6.193   1.527 -0.2103 -0.0027 -0.0494
 4682SOL    HW218500   4.608   6.115   1.580 -1.1965  0.1223  0.5157
 4682SOL    HW318501   4.528   6.162   1.460 -1.4079  0.4716  0.7902
 4682SOL    MW418502   4.583   6.178   1.525  0.5543 -0.1847 -0.0452
 4683SOL     OW18503   3.383   1.498   5.878 -0.3071 -0.7012 -0.3920
 4683SOL    HW218504   3.386   1.561   5.807  1.4457 -0.1701  0.0907
 4683SOL    HW318505   3.469   1.456   5.876 -0.8174 -1.8265  0.3892
 4683SOL    MW418506   3.395   1.501   5.869  0.1283  0.2499  0.3353
 4684SOL     OW18507   5.084   0.932   4.001 -0.0829  0.4080  0.4975
 4684SOL    HW218508   5.159   0.981   4.033 -0.3317  1.7190 -0.8215
 4684SOL    HW318509   5.120   0.875   3.932 -0.3370  1.3386 -0.4238
 4684SOL    MW418510   5.099   0.931   3.996  0.0852 -0.0503 -0.0313
 4685SOL     OW18511   1.245   1.281   2.103 -0.3298 -0.3108 -0.0616
 4685SOL    HW218512   1.252   1.189   2.127 -0.1192 -0.5016 -0.8508
 4685SOL    HW318513   1.170   1.286   2.045  0.3349 -0.1817 -0.9344
 4685SOL    MW418514   1.236   1.270   2.099 -0.2203 -0.0343 -0.0324
 4686SOL     OW18515   1.675   0.532   1.986  0.3255  0.2636 -0.4966
 4686SOL    HW218516   1.768   0.516   1.970  0.0066 -0.8378 -1.3951
 4686SOL    HW318517   1.630   0.461   1.940 -0.9875  1.0312 -0.4552
 4686SOL    MW418518   1.681   0.520   1.978 -0.0630 -0.4459  0.0133
 4687SOL     OW18519   6.013   2.067   5.668  0.0423  0.0607  0.0068
 4687SOL    HW218520   6.083   2.093   5.608 -1.1880  1.0230 -1.0722
 4687SOL    HW318521   5.943   2.130   5.653 -0.7130 -0.2852  1.7515
 4687SOL    MW418522   6.013   2.079   5.658 -0.3700 -0.1718  0.1459
 4688SOL     OW18523   1.847   4.207   4.471 -0.5465  0.0018  0.2147
 4688SOL    HW218524   1.764   4.163   4.488 -1.0132  0.9371  0.4356
 4688SOL    HW318525   1.914   4.147   4.505 -1.2395  0.0618  1.7607
 4688SOL    MW418526   1.845   4.193   4.478  0.0826 -0.0317 -0.1113
 4689SOL     OW18527   3.941   0.027   2.500 -0.1636  0.1100  0.1542
 4689SOL    HW218528   3.917  -0.007   2.414 -0.3263 -0.2513  0.3414
 4689SOL    HW318529   3.969  -0.050   2.550  0.5369  0.3978  0.2233
 4689SOL    MW418530   3.942   0.012   2.496  0.1200  0.1403 -0.4586
 4690SOL     OW18531   4.975   0.024   0.785  0.0990  0.4275  1.2911
 4690SOL    HW218532   4.961   0.037   0.878  0.5740 -1.5866  1.6954
 4690SOL    HW318533   4.911  -0.042   0.759 -0.0424  0.9689  0.1725
 4690SOL    MW418534   4.965   0.017   0.794 -0.0072 -0.1107 -0.5089
 4691SOL     OW18535   3.649   3.656   6.267  0.0122  0.4858  0.1835
 4691SOL    HW218536   3.740   3.658   6.295 -0.3428 -0.2739  1.4720
 4691SOL    HW318537   3.630   3.746   6.239  1.3340  0.4919 -0.7904
 4691SOL    MW418538   3.659   3.668   6.267 -0.5028  0.7448  0.2134
 4692SOL     OW18539   1.257   3.682   3.735  0.2664  0.2927  0.0306
 4692SOL    HW218540   1.217   3.769   3.734 -1.3160 -0.3678 -1.8493
 4692SOL    HW318541   1.270   3.662   3.828 -1.0494  1.7862  0.5779
 4692SOL    MW418542   1.253   3.691   3.747 -0.2514 -0.0845 -0.3571
 4693SOL     OW18543   4.985   0.840   0.454 -0.1619 -0.7393  0.2093
 4693SOL    HW218544   5.026   0.756   0.431 -0.5190 -0.8576 -0.0258
 4693SOL    HW318545   4.995   0.893   0.375  0.6348 -0.3238  0.5766
 4693SOL    MW418546   4.992   0.836   0.440  0.0542 -0.1839  0.1274
 4694SOL     OW18547   2.385   0.232   0.680 -0.1421  0.3780  0.0580
 4694SOL    HW218548   2.339   0.282   0.613  0.8510 -0.4162 -1.2564
 4694SOL    HW318549   2.384   0.141   0.648  1.1828  0.1386  0.6335
 4694SOL    MW418550   2.379   0.226   0.667  0.2954 -0.2010  0.0286
 4695SOL     OW18551   2.704   2.153   5.966  0.4844 -0.8944  0.6282
 4695SOL    HW218552   2.626   2.164   5.912 -0.3279 -3.0421  1.2691
 4695SOL    HW318553   2.746   2.240   5.966 -1.7866  0.2739  0.1554
 4695SOL    MW418554   2.699   2.166   5.959  0.0067 -0.2932 -0.1725
 4696SOL     OW18555   3.095   6.267   5.720  0.0475 -0.5092  0.2552
 4696SOL    HW218556   3.136   6.262   5.807  1.4687 -1.1471 -0.4086
 4696SOL    HW318557   3.075   6.360   5.709  0.9310 -0.2350  0.7977
 4696SOL    MW418558   3.098   6.279   5.730 -0.4647  0.1713 -0.5646
 4697SOL     OW18559   6.155   1.041   2.839 -0.2242 -0.0331  0.3912
 4697SOL    HW218560   6.228   1.102   2.844 -0.3564  0.3269 -1.5313
 4697SOL    HW318561   6.192   0.963   2.797 -0.7237 -0.1905  0.2404
 4697SOL    MW418562   6.170   1.039   2.834 -0.1974 -0.1937 -0.0644
 4698SOL     OW18563   1.566   2.654   2.226  0.2097  0.1667 -0.1161
 4698SOL    HW218564   1.503   2.714   2.265 -1.9774 -1.2205 -1.3279
 4698SOL    HW318565   1.537   2.644   2.136  3.1639  0.6952 -1.2426
 4698SOL    MW418566   1.554   2.661   2.220  0.1269 -0.4320 -0.1457
 4699SOL     OW18567   4.968   5.314   6.083 -0.3013 -0.2140  0.6602
 4699SOL    HW218568   5.007   5.376   6.022  1.3607 -0.0458  1.8265
 4699SOL    HW318569   4.950   5.236   6.031 -0.8127  0.6159 -0.4541
 4699SOL    MW418570   4.970   5.312   6.068 -0.2549  0.1856 -0.0231
 4700SOL     OW18571   3.607   1.114   4.290 -0.7284 -0.2816 -0.2323
 4700SOL    HW218572   3.599   1.083   4.200 -1.6018 -2.2536  0.4761
 4700SOL    HW318573   3.668   1.052   4.331 -2.4757 -1.1404  1.2150
 4700SOL    MW418574   3.614   1.102   4.284 -0.3468  0.0710  0.0889
 4701SOL     OW18575   5.764   1.938   3.886  0.1285 -0.5445  0.0568
 4701SOL    HW218576   5.785   1.848   3.863  0.8435 -0.4887  0.4577
 4701SOL    HW318577   5.810   1.953   3.968 -1.2746 -0.3067  0.8151
 4701SOL    MW418578   5.773   1.928   3.893  0.0373  0.5827  0.0636
 4702SOL     OW18579   4.869   0.896   1.113  0.1731 -0.5195  0.0922
 4702SOL    HW218580   4.846   0.812   1.154  0.4140  0.1602  1.6877
 4702SOL    HW318581   4.793   0.951   1.129  0.7534  0.1194  0.6911
 4702SOL    MW418582   4.856   0.892   1.120 -0.2241 -0.2883 -0.1067
 4703SOL     OW18583   5.804   4.372   0.894 -0.1178 -0.7614  0.2243
 4703SOL    HW218584   5.873   4.340   0.953 -1.1275 -0.6742  1.5069
 4703SOL    HW318585   5.763   4.292   0.860  0.0851 -0.8149  0.1028
 4703SOL    MW418586   5.808   4.357   0.898  0.4866  0.5301  0.0506
 4704SOL     OW18587   3.163   5.904   4.876  0.3477 -0.1175 -1.0228
 4704SOL    HW218588   3.157   5.809   4.867 -2.4034  0.1535 -3.3573
 4704SOL    HW318589   3.126   5.923   4.962  0.1110 -1.0722 -0.9038
 4704SOL    MW418590   3.157   5.894   4.886 -0.0298 -0.1405  0.1480
 4705SOL     OW18591   0.838   1.950   1.830 -0.2172  0.0704 -0.1366
 4705SOL    HW218592   0.891   1.957   1.910  0.3104 -1.0659 -0.3698
 4705SOL    HW318593   0.761   2.002   1.849 -0.0639 -0.1059  1.0979
 4705SOL    MW418594   0.835   1.957   1.843  0.7493  0.3778 -0.0821
 4706SOL     OW18595   0.815   6.256   1.244  0.2383  0.2014 -0.3788
 4706SOL    HW218596   0.728   6.235   1.278  0.7649 -2.6281 -0.5807
 4706SOL    HW318597   0.803   6.262   1.149  0.7835 -4.2783 -0.9435
 4706SOL    MW418598   0.802   6.254   1.236  0.1139  0.3676  0.0487
 4707SOL     OW18599   5.100   0.441   4.473  0.2835  0.0285 -0.7047
 4707SOL    HW218600   5.138   0.480   4.551  0.7953  0.3510 -1.1100
 4707SOL    HW318601   5.042   0.509   4.438  0.6971  0.2009 -1.0649
 4707SOL    MW418602   5.097   0.456   4.479 -0.1825 -0.3730 -0.5278
 4708SOL     OW18603   2.514   4.908   2.823  0.3604 -0.2764  0.0448
 4708SOL    HW218604   2.490   4.888   2.914  0.0960 -0.8894 -0.1560
 4708SOL    HW318605   2.535   4.823   2.785  0.8392  0.0220 -0.3664
 4708SOL    MW418606   2.514   4.894   2.830 -0.3160  0.6031 -0.3246
 4709SOL     OW18607   0.822   5.981   3.281  0.6945 -0.2353 -0.5927
 4709SOL    HW218608   0.864   5.900   3.311  2.0116  0.5578 -0.1657
 4709SOL    HW318609   0.750   5.995   3.342  1.0872 -0.5625 -0.0474
 4709SOL    MW418610   0.818   5.972   3.293  0.4305  0.3710 -0.1724
 4710SOL     OW18611   4.959   3.271   3.183 -0.5775 -0.2074 -0.8074
 4710SOL    HW218612   5.013   3.194   3.167  0.0968 -0.3896  1.9321
 4710SOL    HW318613   5.018   3.345   3.169  0.6066 -0.4127  2.4364
 4710SOL    MW418614   4.974   3.271   3.179  0.3946  0.0841 -0.1712
 4711SOL     OW18615   5.925   1.195   1.332 -0.1712 -0.2537  0.2982
 4711SOL    HW218616   5.948   1.234   1.248  2.7365 -0.6124  0.8279
 4711SOL    HW318617   5.917   1.270   1.391  0.8227 -0.1476  0.3199
 4711SOL    MW418618   5.927   1.210   1.329 -1.0106  0.0393  0.6387
 4712SOL     OW18619   0.725   3.998   0.301  0.2096 -0.2239 -0.0462
 4712SOL    HW218620   0.803   4.047   0.274 -0.2744 -0.2545 -1.6079
 4712SOL    HW318621   0.756   3.939   0.370  1.8117 -0.9545 -1.3302
 4712SOL    MW418622   0.739   3.997   0.307  0.3547  0.6749  0.0978
 4713SOL     OW18623   5.811   1.176   4.808  0.1183  0.0118 -0.4912
 4713SOL    HW218624   5.820   1.099   4.865 -0.4004  0.0299 -0.3827
 4713SOL    HW318625   5.725   1.166   4.768  0.2798  0.2575 -0.8956
 4713SOL    MW418626   5.801   1.165   4.810 -0.7323  0.0639 -0.0969
 4714SOL     OW18627   2.954   3.785   0.912  0.1504 -0.4932 -0.2331
 4714SOL    HW218628   3.011   3.861   0.897  0.4015 -0.4627  0.8204
 4714SOL    HW318629   3.003   3.711   0.877  0.3697 -0.3157 -0.3006
 4714SOL    MW418630   2.968   3.785   0.905 -0.2911 -0.2015  0.3337
 4715SOL     OW18631   5.426   0.342   1.236 -0.1679  0.2869  0.2113
 4715SOL    HW218632   5.391   0.349   1.325 -0.1424 -0.3683  0.2756
 4715SOL    HW318633   5.493   0.410   1.231 -0.5556  0.6951  0.5089
 4715SOL    MW418634   5.431   0.352   1.247  0.2245 -0.2164 -0.1944
 4716SOL     OW18635   3.116   0.757   3.536 -0.0443  0.1267 -0.1296
 4716SOL    HW218636   3.170   0.791   3.607  1.1547 -0.6671 -0.6153
 4716SOL    HW318637   3.027   0.757   3.570  0.1781  1.9030  0.5457
 4716SOL    MW418638   3.111   0.762   3.550 -0.1058  0.0470 -0.5963
 4717SOL     OW18639   6.432   0.678   5.477 -0.0335 -0.0039 -0.4514
 4717SOL    HW218640   6.366   0.740   5.508 -0.0180 -0.4523  0.5276
 4717SOL    HW318641   6.386   0.594   5.470  0.4991 -0.4115  0.6273
 4717SOL    MW418642   6.418   0.675   5.480 -0.1402 -0.2373  0.0667
 4718SOL     OW18643   2.201   4.954   5.636 -0.7270 -0.1349 -0.2250
 4718SOL    HW218644   2.112   4.957   5.672  0.0895 -1.5760  2.1724
 4718SOL    HW318645   2.237   5.041   5.653 -1.4301  0.2183 -0.5234
 4718SOL    MW418646   2.194   4.966   5.643  0.4832 -0.4198 -0.2989
 4719SOL     OW18647   5.688   4.898   5.812 -0.5924  0.0018 -0.2670
 4719SOL    HW218648   5.668   4.806   5.828  0.3097 -0.2456 -0.5078
 4719SOL    HW318649   5.725   4.930   5.894 -2.0262  0.4908  0.2167
 4719SOL    MW418650   5.690   4.890   5.825 -0.0012 -0.6068  0.0922
 4720SOL     OW18651   5.627   4.255   5.566  0.1821  0.9093 -0.1254
 4720SOL    HW218652   5.575   4.177   5.545  0.2606  0.6699  0.5566
 4720SOL    HW318653   5.698   4.223   5.621  0.8836  1.2844 -0.7891
 4720SOL    MW418654   5.629   4.241   5.571  0.0582 -0.6005  0.3679
 4721SOL     OW18655   0.305   3.364   1.681  0.1115 -0.4339 -0.3838
 4721SOL    HW218656   0.298   3.455   1.710  1.2570 -0.5659  0.3846
 4721SOL    HW318657   0.362   3.367   1.604 -0.2309 -0.4557 -0.6412
 4721SOL    MW418658   0.312   3.376   1.674  0.6273  0.0834  0.9614
 4722SOL     OW18659   4.481   1.065   3.717  0.3180 -0.1219 -0.0143
 4722SOL    HW218660   4.489   1.148   3.765 -1.1928  0.5897 -0.8909
 4722SOL    HW318661   4.567   1.024   3.725  0.7018  0.8916  1.5790
 4722SOL    MW418662   4.493   1.071   3.724 -0.1987 -0.7479 -0.6260
 4723SOL     OW18663   3.055   5.517   4.359  0.1848  0.1070 -0.0690
 4723SOL    HW218664   3.058   5.565   4.276 -0.5285  0.1961 -0.0519
 4723SOL    HW318665   3.141   5.477   4.367  0.8997  1.5984  0.0368
 4723SOL    MW418666   3.066   5.518   4.349  0.0474  0.4049 -0.3862
 4724SOL     OW18667   0.478   4.541   4.778 -0.1878  0.7234  0.3432
 4724SOL    HW218668   0.431   4.461   4.801  0.0534  0.8335  1.2311
 4724SOL    HW318669   0.527   4.518   4.698  0.7513 -0.3659  1.1990
 4724SOL    MW418670   0.478   4.527   4.770  0.0460 -0.1090  0.5546
 4725SOL     OW18671   3.125   2.958   4.143  0.3029 -0.0455 -0.1779
 4725SOL    HW218672   3.069   3.033   4.122  0.7752  0.0404 -1.1821
 4725SOL    HW318673   3.198   2.996   4.192  0.5320  0.1523 -0.6686
 4725SOL    MW418674   3.127   2.973   4.147 -0.5440 -0.2480  0.1554
 4726SOL     OW18675   0.123   1.672   2.274  0.3262  0.4175 -0.0837
 4726SOL    HW218676   0.215   1.654   2.289  0.4057  1.0888  0.2933
 4726SOL    HW318677   0.097   1.729   2.347 -0.6062 -0.4552  0.2952
 4726SOL    MW418678   0.132   1.677   2.286 -0.6581  0.0532  0.2352
 4727SOL     OW18679   5.614   4.234   3.171 -0.2898  0.1972  0.1320
 4727SOL    HW218680   5.668   4.213   3.095 -1.2305 -0.8388 -0.2715
 4727SOL    HW318681   5.566   4.313   3.145 -2.2947 -1.3769 -1.2943
 4727SOL    MW418682   5.615   4.242   3.157  0.1723 -0.1600 -0.0986
 4728SOL     OW18683   2.261   2.307   5.493  0.1465  0.0631  0.4110
 4728SOL    HW218684   2.238   2.356   5.572  2.0997  0.0654  1.0195
 4728SOL    HW318685   2.332   2.357   5.453  0.5354 -0.9978 -0.2737
 4728SOL    MW418686   2.267   2.320   5.498 -0.0646 -0.5145  0.1604
 4729SOL     OW18687   2.162   1.566   1.990  0.7159  0.2188  0.0529
 4729SOL    HW218688   2.255   1.571   1.969  0.4870 -0.5304 -1.2983
 4729SOL    HW318689   2.125   1.648   1.958  0.4814 -0.6452 -2.0764
 4729SOL    MW418690   2.169   1.577   1.983  0.0144  0.5158  0.0655
 4730SOL     OW18691   3.884   2.207   4.256 -0.1956 -0.3152  0.0113
 4730SOL    HW218692   3.907   2.185   4.165 -1.4799 -0.1694 -0.3700
 4730SOL    HW318693   3.968   2.210   4.302  0.4044 -1.2865 -0.9721
 4730SOL    MW418694   3.899   2.204   4.250 -0.0138  0.3257  0.1743
 4731SOL     OW18695   0.200   3.315   4.731  0.1988 -0.1116  0.1820
 4731SOL    HW218696   0.256   3.258   4.783 -0.3499 -0.1010  0.7920
 4731SOL    HW318697   0.252   3.395   4.719  0.4759 -0.2595  0.3770
 4731SOL    MW418698   0.215   3.318   4.736  0.0620  0.1265 -0.0676
 4732SOL     OW18699   1.929   5.251   0.311  0.0614 -0.0123 -0.1929
 4732SOL    HW218700   1.863   5.274   0.246 -0.1634  0.0372  0.0515
 4732SOL    HW318701   2.001   5.214   0.260 -1.0796 -2.2405 -0.2865
 4732SOL    MW418702   1.930   5.249   0.296  0.2569 -0.2018  0.4195
 4733SOL     OW18703   4.742   2.731   3.981 -0.2195 -0.4423  0.6747
 4733SOL    HW218704   4.822   2.718   4.031 -0.5389  1.6886  1.8514
 4733SOL    HW318705   4.686   2.658   4.007  0.7173 -1.0289  1.1079
 4733SOL    MW418706   4.745   2.720   3.991  0.7890  0.0204  0.0096
 4734SOL     OW18707   3.803   2.425   6.426  0.2018 -0.8030 -0.1832
 4734SOL    HW218708   3.835   2.515   6.436  0.1518 -0.7589 -0.4297
 4734SOL    HW318709   3.874   2.370   6.460  0.9212 -0.7555 -1.5715
 4734SOL    MW418710   3.816   2.430   6.432  0.0795 -0.1143  0.7259
 4735SOL     OW18711   4.207   2.145   3.664 -0.2958 -0.2480 -0.4256
 4735SOL    HW218712   4.158   2.222   3.692 -2.7399 -1.5622 -0.7262
 4735SOL    HW318713   4.214   2.154   3.569 -0.4343 -0.3166 -0.4423
 4735SOL    MW418714   4.201   2.156   3.655  0.3662 -0.5271 -0.0470
 4736SOL     OW18715   3.891   5.618   6.325 -0.8748  0.0920 -0.4511
 4736SOL    HW218716   3.936   5.640   6.243 -0.6327 -0.7755 -0.5621
 4736SOL    HW318717   3.798   5.621   6.303 -0.8939  1.5998 -0.2999
 4736SOL    MW418718   3.885   5.621   6.311 -0.2745 -0.0847 -0.3066
 4737SOL     OW18719   4.005   6.209   0.503  0.1483  0.0796 -0.8378
 4737SOL    HW218720   4.035   6.276   0.441  0.4413 -0.4686 -1.2965
 4737SOL    HW318721   3.920   6.181   0.468 -0.3861  0.8117 -0.1721
 4737SOL    MW418722   3.997   6.214   0.490 -0.2064  0.0267 -0.2019
 4738SOL     OW18723   5.420   4.055   1.850  0.7047  0.3885  0.2727
 4738SOL    HW218724   5.397   4.112   1.777 -1.0401 -2.5543 -1.7284
 4738SOL    HW318725   5.400   4.106   1.928  0.6462  2.9514 -1.3188
 4738SOL    MW418726   5.414   4.069   1.851 -0.3831 -0.1710 -0.3459
 4739SOL     OW18727   4.256   3.805   1.029  0.0731 -0.5671 -0.3356
 4739SOL    HW218728   4.223   3.857   1.103  1.4375  0.9574 -0.7578
 4739SOL    HW318729   4.346   3.782   1.053 -0.5582 -3.0553 -0.0382
 4739SOL    MW418730   4.263   3.809   1.042  0.5252  0.0461  0.0685
 4740SOL     OW18731   0.680   5.504   2.698 -1.1773  0.0260  0.1800
 4740SOL    HW218732   0.776   5.500   2.701 -1.1967 -0.2583  0.4946
 4740SOL    HW318733   0.661   5.567   2.629 -0.7560  0.7541  0.7087
 4740SOL    MW418734   0.691   5.512   2.689  0.1853  0.7280 -1.3356
 4741SOL     OW18735   1.362   3.980   3.500  0.1479  0.3000  0.0050
 4741SOL    HW218736   1.388   3.915   3.566 -1.1256 -0.3031 -0.0631
 4741SOL    HW318737   1.295   3.936   3.449  0.8730  0.8807 -1.5059
 4741SOL    MW418738   1.357   3.965   3.502 -0.4144 -0.6328  0.2627
 4742SOL     OW18739   0.750   0.383   6.142  0.2546 -0.5669 -0.9675
 4742SOL    HW218740   0.763   0.332   6.062 -1.0377 -0.9473 -0.9656
 4742SOL    HW318741   0.655   0.395   6.147  0.2990 -0.6767  0.5935
 4742SOL    MW418742   0.739   0.378   6.132  0.1626  0.0275  0.0287
 4743SOL     OW18743   5.030   2.176   3.453  0.3853  0.4528 -0.2649
 4743SOL    HW218744   4.967   2.117   3.412  0.2926  0.6422 -0.3935
 4743SOL    HW318745   5.112   2.160   3.406  1.4596 -2.5188  2.2520
 4743SOL    MW418746   5.033   2.166   3.442 -0.4492 -0.1649 -0.4699
 4744SOL     OW18747   5.321   0.943   1.004 -0.1026 -0.0780 -0.2502
 4744SOL    HW218748   5.267   0.916   0.930  0.2925 -1.8267  0.0692
 4744SOL    HW318749   5.339   1.036   0.988 -1.9342  0.1611 -1.1354
 4744SOL    MW418750   5.316   0.952   0.992 -0.4785  0.6197  0.3293
 4745SOL     OW18751   1.543   1.477   3.112 -0.2347 -0.3661  0.0300
 4745SOL    HW218752   1.476   1.545   3.126  1.8554  1.5690  1.5445
 4745SOL    HW318753   1.587   1.504   3.031  0.5134  0.0532  0.5645
 4745SOL    MW418754   1.540   1.490   3.103  0.1871  0.2563  0.2833
 4746SOL     OW18755   0.712   3.472   3.424  0.1910 -0.5959  0.2419
 4746SOL    HW218756   0.787   3.432   3.380  0.1897 -0.7788  0.4062
 4746SOL    HW318757   0.749   3.544   3.475  0.2146 -0.4901  0.0751
 4746SOL    MW418758   0.727   3.476   3.425 -0.3433  0.1127 -0.2890
 4747SOL     OW18759   3.049   4.719   6.046 -0.4040 -0.1039 -0.3050
 4747SOL    HW218760   2.968   4.704   5.996  0.3252 -0.4005 -1.4233
 4747SOL    HW318761   3.118   4.681   5.992  0.5201  0.3302  0.5436
 4747SOL    MW418762   3.047   4.712   6.032  0.3743  0.4156  0.1046
 4748SOL     OW18763   6.002   1.434   2.373  0.4186  0.5252 -0.2183
 4748SOL    HW218764   6.025   1.510   2.319  2.0085  0.6630  0.5826
 4748SOL    HW318765   6.063   1.366   2.345 -1.5879 -0.8170 -1.5702
 4748SOL    MW418766   6.013   1.435   2.362  0.1118 -0.3909  0.0259
 4749SOL     OW18767   3.693   3.362   3.015 -0.0822  0.0005 -0.2355
 4749SOL    HW218768   3.724   3.367   3.105  1.7637 -0.2433 -0.8193
 4749SOL    HW318769   3.740   3.432   2.969 -1.2300  0.3281 -0.9606
 4749SOL    MW418770   3.703   3.372   3.020 -0.1260  0.1555 -0.1815
 4750SOL     OW18771   2.608   2.657   6.290  0.3833 -1.0693  0.1391
 4750SOL    HW218772   2.533   2.710   6.264  0.1216 -1.5446 -0.0818
 4750SOL    HW318773   2.684   2.701   6.251  0.1826 -0.7886  0.0640
 4750SOL    MW418774   2.608   2.670   6.282 -0.0942 -0.2861  0.3500
 4751SOL     OW18775   4.515   0.107   3.201 -0.9120  0.7539  0.7821
 4751SOL    HW218776   4.487   0.194   3.173  3.2318  2.1756  0.2325
 4751SOL    HW318777   4.544   0.118   3.291  2.1675  0.8221 -0.0910
 4751SOL    MW418778   4.515   0.120   3.209 -0.3715 -0.2827 -0.1471
 4752SOL     OW18779   3.261   5.967   2.279  0.3929 -0.1817  0.5354
 4752SOL    HW218780   3.317   5.943   2.205  0.7796  1.2406  0.3433
 4752SOL    HW318781   3.244   5.884   2.324  2.1968 -0.7404  0.2769
 4752SOL    MW418782   3.266   5.953   2.276  0.6267 -0.1088 -0.0822
 4753SOL     OW18783   6.371   0.791   3.555  0.6531 -0.4334  0.5258
 4753SOL    HW218784   6.382   0.766   3.463  0.9081 -1.8592  0.9172
 4753SOL    HW318785   6.347   0.883   3.552  2.6522  0.1067 -0.8868
 4753SOL    MW418786   6.369   0.800   3.542 -0.1663  0.2328 -0.4027
 4754SOL     OW18787   0.229   1.830   4.061  0.3928 -0.1535  0.3813
 4754SOL    HW218788   0.302   1.879   4.022 -0.5184 -0.6990 -2.2000
 4754SOL    HW318789   0.178   1.800   3.986 -2.2205 -0.2491  2.0765
 4754SOL    MW418790   0.232   1.833   4.046 -0.1238 -0.0876  0.3025
 4755SOL     OW18791   1.464   4.893   2.256  0.3395 -0.5436 -0.0503
 4755SOL    HW218792   1.459   4.947   2.334  0.2618 -0.4387 -0.1271
 4755SOL    HW318793   1.419   4.944   2.188  1.5762 -0.0275 -0.5122
 4755SOL    MW418794   1.457   4.906   2.257  0.1032  0.9099  0.0956
 4756SOL     OW18795   0.476   4.152   1.840  0.1598  0.3712  0.5454
 4756SOL    HW218796   0.537   4.224   1.826 -0.3469  1.1625  2.1145
 4756SOL    HW318797   0.445   4.129   1.753  1.3797  1.1124 -0.1131
 4756SOL    MW418798   0.480   4.158   1.827 -0.2061 -0.6141  0.0956
 4757SOL     OW18799   3.683   2.747   1.043  0.1384 -0.4983  0.0219
 4757SOL    HW218800   3.706   2.676   0.983  0.3761 -0.1799 -0.2655
 4757SOL    HW318801   3.767   2.782   1.072  0.0244 -0.7221  0.6304
 4757SOL    MW418802   3.697   2.742   1.039  0.4536  0.4418  0.4728
 4758SOL     OW18803   0.434   2.556   3.587 -0.0372  0.6831 -0.6865
 4758SOL    HW218804   0.455   2.649   3.582  1.6556  0.5199  1.7689
 4758SOL    HW318805   0.443   2.534   3.679  1.1253 -2.2573 -1.4032
 4758SOL    MW418806   0.438   2.565   3.598 -0.0468 -0.1971  0.4123
 4759SOL     OW18807   5.512   4.260   2.285 -0.0869  0.2296 -0.2186
 4759SOL    HW218808   5.551   4.249   2.372 -1.0907 -1.3610  0.0697
 4759SOL    HW318809   5.474   4.348   2.287  0.0125  0.2692  0.9099
 4759SOL    MW418810   5.512   4.270   2.297  0.4163  0.4346  0.5737
 4760SOL     OW18811   2.424   1.489   4.793  0.1234  0.0757  0.5316
 4760SOL    HW218812   2.443   1.486   4.700  0.3663  1.2618  0.5209
 4760SOL    HW318813   2.493   1.437   4.834  1.1024  1.0479  0.1770
 4760SOL    MW418814   2.435   1.482   4.786  0.2985 -0.4568 -0.3998
 4761SOL     OW18815   0.987   2.989   1.788 -0.2597 -0.0549 -0.1312
 4761SOL    HW218816   0.987   2.894   1.781 -0.0077 -0.0344 -0.3922
 4761SOL    HW318817   0.913   3.008   1.847  0.6729 -0.5070  1.2364
 4761SOL    MW418818   0.977   2.979   1.795 -0.2809 -0.1877  0.3885
 4762SOL     OW18819   5.977   5.269   1.308 -0.3524 -0.4949  0.3628
 4762SOL    HW218820   6.002   5.309   1.391  0.3438 -1.2697  0.5503
 4762SOL    HW318821   5.895   5.311   1.284  0.0975  0.6644  0.7862
 4762SOL    MW418822   5.970   5.280   1.315  0.5116 -0.2551  0.1635
 4763SOL     OW18823   6.206   1.597   6.238  0.5571  0.6322 -0.1662
 4763SOL    HW218824   6.244   1.585   6.151 -2.0099 -0.5461 -1.1901
 4763SOL    HW318825   6.166   1.684   6.235  0.9862  0.8441  0.0747
 4763SOL    MW418826   6.206   1.607   6.226  0.0833 -0.3348  0.2691
 4764SOL     OW18827   4.423   1.216   3.246  0.0496 -0.0599  0.1287
 4764SOL    HW218828   4.359   1.283   3.267  0.3081 -0.0013  0.7433
 4764SOL    HW318829   4.432   1.165   3.326  2.3861  1.2628  0.8006
 4764SOL    MW418830   4.416   1.218   3.259  0.1575 -0.1801  0.4649
 4765SOL     OW18831   5.044   4.202   6.032 -0.0066  0.3693 -0.4065
 4765SOL    HW218832   5.001   4.282   6.002  0.7857  0.1829 -2.1589
 4765SOL    HW318833   5.083   4.165   5.953  0.0762 -1.4887  0.4524
 4765SOL    MW418834   5.043   4.208   6.017 -0.4981 -0.0788 -0.3228
 4766SOL     OW18835   4.823   4.663   1.450  0.3367 -0.4503  0.3555
 4766SOL    HW218836   4.896   4.697   1.501 -0.8386  0.4761  1.4574
 4766SOL    HW318837   4.827   4.711   1.367  1.4071 -0.9598  0.0866
 4766SOL    MW418838   4.833   4.674   1.446  0.5574 -0.0300  0.0977
 4767SOL     OW18839   5.327   0.356   4.263  0.4800  0.6774 -0.4370
 4767SOL    HW218840   5.293   0.376   4.350  1.9228 -0.2828  0.3764
 4767SOL    HW318841   5.290   0.271   4.241 -0.2018  1.0915 -0.9709
 4767SOL    MW418842   5.317   0.348   4.271  0.3750 -0.0505  0.4804
 4768SOL     OW18843   6.191   3.662   3.334 -0.0400 -0.0365  0.6805
 4768SOL    HW218844   6.253   3.674   3.406  0.0150  1.9290  0.3602
 4768SOL    HW318845   6.237   3.693   3.256 -1.2778  1.2095  0.3942
 4768SOL    MW418846   6.205   3.668   3.333 -0.0798 -0.1798  1.1337
 4769SOL     OW18847   1.487   0.685   2.956 -0.3523  0.1002  0.0303
 4769SOL    HW218848   1.516   0.765   2.999 -1.5397 -1.0810  3.2966
 4769SOL    HW318849   1.420   0.714   2.894 -0.0901  1.7173  0.4541
 4769SOL    MW418850   1.482   0.699   2.953 -0.3996  0.3969 -0.3871
 4770SOL     OW18851   4.771   4.810   0.708  0.6470 -0.1340 -0.0919
 4770SOL    HW218852   4.798   4.882   0.651 -0.9969 -0.6656 -1.6445
 4770SOL    HW318853   4.790   4.731   0.657 -2.6740 -0.5741 -0.8932
 4770SOL    MW418854   4.777   4.809   0.694  0.4420  0.4263 -0.0506
 4771SOL     OW18855   5.381   0.426   1.500  0.5264 -0.5883 -0.1976
 4771SOL    HW218856   5.454   0.394   1.554 -0.2451 -0.0380  1.2058
 4771SOL    HW318857   5.400   0.519   1.487  0.0015 -0.4059  0.3085
 4771SOL    MW418858   5.393   0.434   1.505  0.2827 -0.2289  0.4852
 4772SOL     OW18859   4.917   0.435   5.401  0.0029 -0.2641 -0.1112
 4772SOL    HW218860   4.850   0.422   5.468  0.9107  0.4149  0.9425
 4772SOL    HW318861   4.974   0.358   5.409 -0.6676 -0.9032 -1.0884
 4772SOL    MW418862   4.916   0.423   5.411  0.3294  0.2229  0.0814
 4773SOL     OW18863   2.061   1.126   2.231  0.4464  0.4117  0.4495
 4773SOL    HW218864   2.014   1.184   2.171  0.8255 -1.2431 -1.5959
 4773SOL    HW318865   2.153   1.145   2.215  0.5722 -0.6646 -0.1957
 4773SOL    MW418866   2.067   1.136   2.221 -0.3808 -0.1910  0.4933
 4774SOL     OW18867   6.068   0.392   3.787 -0.0699 -0.1766 -0.0480
 4774SOL    HW218868   6.113   0.368   3.868  1.5519  1.0343 -0.5212
 4774SOL    HW318869   6.136   0.436   3.735 -1.9057  2.0377 -0.6974
 4774SOL    MW418870   6.083   0.395   3.791 -0.5294  0.1215  0.6910
 4775SOL     OW18871   5.311   3.772   1.515  0.0315 -0.1456 -0.4479
 4775SOL    HW218872   5.325   3.866   1.500 -1.5461  0.0105 -1.1520
 4775SOL    HW318873   5.339   3.758   1.606 -0.4324  1.1723 -0.0751
 4775SOL    MW418874   5.317   3.782   1.525  0.3317  0.0422 -0.3077
 4776SOL     OW18875   5.694   2.210   0.896  0.0331 -0.2254  0.3157
 4776SOL    HW218876   5.701   2.262   0.816 -1.3420 -2.1995 -1.1963
 4776SOL    HW318877   5.744   2.131   0.877 -2.2408 -1.7880  0.3586
 4776SOL    MW418878   5.701   2.207   0.883  0.2640 -0.2338 -0.0622
 4777SOL     OW18879   3.949   0.848   0.067 -0.6992  0.0288  0.6140
 4777SOL    HW218880   3.901   0.918   0.023 -0.3491 -0.1061  0.0043
 4777SOL    HW318881   3.934   0.771   0.012 -0.0506 -0.0861  0.5898
 4777SOL    MW418882   3.941   0.847   0.054 -0.4328 -0.3344  0.3438
 4778SOL     OW18883   1.329   5.933   5.844  0.0213 -0.1114 -0.1845
 4778SOL    HW218884   1.397   5.926   5.777  0.8106  0.6883  0.5113
 4778SOL    HW318885   1.315   6.027   5.854  0.0218 -0.2120  0.8792
 4778SOL    MW418886   1.336   5.944   5.836 -0.2704  0.5543  0.5098
 4779SOL     OW18887   2.573   0.594   2.965  0.1264  0.2940  0.3184
 4779SOL    HW218888   2.630   0.656   2.918  0.5134  0.8284  1.4638
 4779SOL    HW318889   2.509   0.567   2.899  0.5990  1.0876 -0.4999
 4779SOL    MW418890   2.572   0.599   2.950 -0.0477 -0.2736 -0.5612
 4780SOL     OW18891   3.697   4.868   4.987 -0.8051  0.4599 -0.0843
 4780SOL    HW218892   3.776   4.896   5.033  0.1588 -0.7292 -0.9414
 4780SOL    HW318893   3.640   4.833   5.055 -0.2371  0.5486  0.4435
 4780SOL    MW418894   3.700   4.867   5.002 -0.5316  0.1471  0.2038
 4781SOL     OW18895   5.615   0.478   5.483 -0.5465  0.1814 -0.1449
 4781SOL    HW218896   5.608   0.389   5.516  1.2140 -0.7656 -2.0565
 4781SOL    HW318897   5.551   0.528   5.534 -1.8897 -2.2266  0.7082
 4781SOL    MW418898   5.606   0.473   5.494  0.6238  0.1334 -0.3997
 4782SOL     OW18899   2.411   1.679   0.376  0.3016  0.3343  0.1763
 4782SOL    HW218900   2.443   1.769   0.387  0.2369  0.2768  0.8825
 4782SOL    HW318901   2.483   1.625   0.407  0.4275  0.1300 -0.4604
 4782SOL    MW418902   2.425   1.684   0.382 -0.0432 -0.0537  0.4078
 4783SOL     OW18903   0.220   2.693   5.222  0.0598 -0.0310 -0.0018
 4783SOL    HW218904   0.248   2.618   5.274  1.3442  0.9038  0.7322
 4783SOL    HW318905   0.135   2.669   5.187  0.8481 -2.1941 -0.5684
 4783SOL    MW418906   0.213   2.680   5.224  0.1878  0.5529  0.0961
 4784SOL     OW18907   5.261   3.525   1.357  0.3924 -0.5182 -0.1929
 4784SOL    HW218908   5.187   3.474   1.391 -1.2856 -0.7625 -3.7198
 4784SOL    HW318909   5.268   3.599   1.416 -0.9551 -1.8304  1.7426
 4784SOL    MW418910   5.252   3.528   1.369  0.9100 -0.2015 -0.7277
 4785SOL     OW18911   5.884   0.075   2.727  0.2300 -0.0995 -0.3837
 4785SOL    HW218912   5.815   0.038   2.781  2.3725 -2.4237  1.0336
 4785SOL    HW318913   5.839   0.126   2.660 -2.7143 -0.3191  1.2890
 4785SOL    MW418914   5.869   0.077   2.725  0.0776  0.2629 -0.1213
 4786SOL     OW18915   6.114   3.678   5.233 -0.1927 -0.0199 -0.1721
 4786SOL    HW218916   6.094   3.586   5.218  0.1018 -0.3865  1.4742
 4786SOL    HW318917   6.175   3.702   5.163 -0.5120 -0.9848 -0.7865
 4786SOL    MW418918   6.120   3.669   5.222  0.1307  0.0339 -0.3937
 4787SOL     OW18919   5.524   2.395   0.487 -0.4808  0.4278 -0.6226
 4787SOL    HW218920   5.520   2.490   0.502 -0.5347  0.1945  0.9649
 4787SOL    HW318921   5.433   2.367   0.490 -0.3771  0.1533  0.2262
 4787SOL    MW418922   5.511   2.404   0.489 -0.0510 -0.3155 -0.4350
 4788SOL     OW18923   5.052   1.368   2.611  0.3558 -0.4089 -0.1707
 4788SOL    HW218924   4.962   1.366   2.643 -0.3651 -0.0125 -2.0772
 4788SOL    HW318925   5.060   1.451   2.564  2.2165  0.3029  1.2603
 4788SOL    MW418926   5.042   1.378   2.609  0.0327 -0.1818 -0.5423
 4789SOL     OW18927   3.795   5.176   1.887  0.6461 -0.5743 -0.0270
 4789SOL    HW218928   3.881   5.197   1.851 -0.2534 -0.1597 -2.0617
 4789SOL    HW318929   3.734   5.186   1.814 -1.4371  1.0431  1.7437
 4789SOL    MW418930   3.798   5.180   1.873 -0.1466  0.4648  0.2380
 4790SOL     OW18931   5.959   4.832   4.696  0.1855  0.4153  0.2287
 4790SOL    HW218932   5.876   4.786   4.705  0.9051 -0.7231  1.6572
 4790SOL    HW318933   6.007   4.809   4.776  1.4145  1.9832 -0.0205
 4790SOL    MW418934   5.955   4.823   4.708  0.0005  0.1836  0.0292
 4791SOL     OW18935   4.752   2.611   3.255  0.2942  0.5911 -0.3080
 4791SOL    HW218936   4.723   2.663   3.330  0.9172 -0.1743  0.4926
 4791SOL    HW318937   4.673   2.567   3.224  0.1634  0.2917  0.4238
 4791SOL    MW418938   4.738   2.612   3.261  0.1927  0.8777 -0.3057
 4792SOL     OW18939   0.484   5.316   0.310  0.1405 -0.2094 -0.1898
 4792SOL    HW218940   0.500   5.340   0.219  1.5685 -1.3596 -0.2882
 4792SOL    HW318941   0.502   5.396   0.360 -0.3932  0.3547 -0.8899
 4792SOL    MW418942   0.489   5.330   0.305  0.0927 -0.0607  0.1155
 4793SOL     OW18943   5.533   0.244   4.420 -0.3510 -0.2853  0.4762
 4793SOL    HW218944   5.476   0.282   4.353  3.5473  2.3380 -1.7523
 4793SOL    HW318945   5.597   0.192   4.371  0.8569 -0.8256  2.4890
 4793SOL    MW418946   5.534   0.242   4.405 -0.6607 -0.3883  0.0346
 4794SOL     OW18947   2.172   3.083   3.735 -0.1746 -0.0457  0.6026
 4794SOL    HW218948   2.134   3.098   3.649 -0.7465  1.1700  1.0464
 4794SOL    HW318949   2.251   3.137   3.736  0.8539 -1.5027  0.1814
 4794SOL    MW418950   2.177   3.092   3.724 -0.3914 -0.8797  0.4998
 4795SOL     OW18951   5.229   3.124   5.374  0.0697 -0.1286  0.0825
 4795SOL    HW218952   5.188   3.205   5.347  2.7465  1.6583  0.9891
 4795SOL    HW318953   5.159   3.059   5.370 -2.2950  2.2759 -0.2405
 4795SOL    MW418954   5.214   3.126   5.370  0.4725 -0.5688  0.0402
 4796SOL     OW18955   2.810   3.481   6.253  0.3206 -0.7007  0.2361
 4796SOL    HW218956   2.809   3.470   6.348 -0.6881 -0.8081  0.2188
 4796SOL    HW318957   2.801   3.392   6.218  0.0691 -0.6027  0.0484
 4796SOL    MW418958   2.809   3.468   6.261 -0.1438  0.7053 -0.4151
 4797SOL     OW18959   0.209   5.410   4.910 -0.4399  0.0043  0.0771
 4797SOL    HW218960   0.247   5.347   4.849 -0.0177  1.0745 -0.8208
 4797SOL    HW318961   0.179   5.482   4.853 -0.3788  0.8655  1.0971
 4797SOL    MW418962   0.210   5.411   4.894  0.2271 -0.1778  0.3405
 4798SOL     OW18963   5.953   3.807   4.933  0.3130  0.2097  0.6974
 4798SOL    HW218964   5.993   3.874   4.989  1.2633 -1.2122  1.7911
 4798SOL    HW318965   6.026   3.756   4.900 -0.4782 -1.9837  2.1166
 4798SOL    MW418966   5.968   3.809   4.936 -0.2028  0.4245  0.1790
 4799SOL     OW18967   4.768   4.234   5.902  0.0005  0.5883 -0.1184
 4799SOL    HW218968   4.762   4.139   5.904  0.6376  0.5515  0.7466
 4799SOL    HW318969   4.835   4.253   5.836  0.4340  0.3943  0.2587
 4799SOL    MW418970   4.776   4.224   5.893  0.4669  0.1588  0.3552
 4800SOL     OW18971   1.871   5.885   4.745  0.1057 -0.1896 -0.1854
 4800SOL    HW218972   1.850   5.978   4.749  0.1185 -0.0654 -2.1397
 4800SOL    HW318973   1.958   5.882   4.704 -0.0891 -1.0819 -0.5388
 4800SOL    MW418974   1.880   5.897   4.740  0.0767 -0.0656 -0.0670
 4801SOL     OW18975   3.016   4.618   2.253 -0.0711 -0.4004 -0.3129
 4801SOL    HW218976   3.070   4.696   2.269  2.1551 -1.8089 -0.6549
 4801SOL    HW318977   2.993   4.624   2.160  2.8022 -1.6677 -1.2119
 4801SOL    MW418978   3.020   4.629   2.243  0.4762 -0.0953  0.1690
 4802SOL     OW18979   1.628   5.080   5.809 -0.1374 -0.4117 -0.4360
 4802SOL    HW218980   1.690   5.120   5.871  0.1453 -0.5936 -0.5973
 4802SOL    HW318981   1.634   4.986   5.827 -1.7510 -0.3091  0.8261
 4802SOL    MW418982   1.637   5.073   5.820 -0.3580 -0.1629 -0.0233
 4803SOL     OW18983   2.412   5.028   2.294 -0.4474  0.2602 -0.0921
 4803SOL    HW218984   2.353   5.070   2.231 -1.4715  1.8320  1.8096
 4803SOL    HW318985   2.402   5.079   2.374  1.6944 -0.9464  1.0315
 4803SOL    MW418986   2.403   5.040   2.296 -0.1467 -0.3585 -0.4049
 4804SOL     OW18987   4.750   4.768   6.155 -0.9325 -0.0728  0.0970
 4804SOL    HW218988   4.811   4.733   6.220 -0.4557 -0.1690 -0.3888
 4804SOL    HW318989   4.723   4.692   6.104  0.4728  0.2866 -1.2634
 4804SOL    MW418990   4.755   4.753   6.157 -0.5451 -0.5985  0.1145
 4805SOL     OW18991   1.728   2.329   2.047  0.6745 -0.5098  0.7319
 4805SOL    HW218992   1.684   2.331   1.962 -0.4110 -1.1295  1.2554
 4805SOL    HW318993   1.790   2.402   2.044  0.3243 -0.2457 -0.4152
 4805SOL    MW418994   1.731   2.339   2.035 -0.1398 -0.3379  0.1137
 4806SOL     OW18995   3.221   6.220   2.386  0.1000  0.0493  0.2841
 4806SOL    HW218996   3.269   6.272   2.322  0.3465 -1.7898 -1.1150
 4806SOL    HW318997   3.246   6.129   2.367 -1.5296 -0.7254  1.5704
 4806SOL    MW418998   3.231   6.215   2.375 -0.0111 -0.4183 -0.5598
 4807SOL     OW18999   3.328   5.333   5.203 -0.3819 -0.1039  0.7490
 4807SOL    HW219000   3.282   5.251   5.183  2.3107 -1.0631 -2.3896
 4807SOL    HW319001   3.277   5.400   5.158 -0.8000 -0.5374  0.5643
 4807SOL    MW419002   3.315   5.331   5.195 -0.1797 -0.5678 -0.0009
 4808SOL     OW19003   6.213   5.000   5.432  1.3372  0.2092  0.1113
 4808SOL    HW219004   6.126   4.989   5.471  2.7899 -2.1282  3.1670
 4808SOL    HW319005   6.200   4.981   5.339 -1.4293  0.1979  0.4166
 4808SOL    MW419006   6.200   4.996   5.425 -0.5030  0.3244 -0.0978
 4809SOL     OW19007   6.284   2.785   0.067 -0.6654  0.3724  0.1962
 4809SOL    HW219008   6.320   2.870   0.043  1.1405  0.0131  1.3865
 4809SOL    HW319009   6.218   2.766   0.001  1.0694  1.2990 -1.9099
 4809SOL    MW419010   6.280   2.794   0.055  0.4917 -0.1848 -0.2266
 4810SOL     OW19011   6.042   1.769   3.960 -0.2736  0.1757 -0.2139
 4810SOL    HW219012   5.983   1.747   4.033  0.7497  1.3649  1.0097
 4810SOL    HW319013   6.114   1.817   4.000  1.4500 -1.0137 -1.7051
 4810SOL    MW419014   6.044   1.772   3.975 -0.1923  0.4356 -0.2716
 4811SOL     OW19015   1.894   4.550   4.549  0.0212  0.5733  0.0598
 4811SOL    HW219016   1.849   4.634   4.556  0.0737  0.5026  1.8736
 4811SOL    HW319017   1.985   4.570   4.572 -0.0427 -0.0138  0.8999
 4811SOL    MW419018   1.900   4.564   4.553 -0.9155  0.4033  0.1363
 4812SOL     OW19019   4.534   2.646   2.406  0.6411 -0.0072 -0.4304
 4812SOL    HW219020   4.508   2.629   2.497 -1.6984  2.7010 -0.4407
 4812SOL    HW319021   4.542   2.559   2.367 -0.9733 -1.2260  1.7060
 4812SOL    MW419022   4.531   2.633   2.413  0.0442  0.2776 -0.5678
 4813SOL     OW19023   1.426   4.968   4.428  0.6036  0.2178  0.0081
 4813SOL    HW219024   1.409   5.040   4.489  1.2842 -0.4669  1.0363
 4813SOL    HW319025   1.422   5.008   4.341 -0.3194  1.2256  0.4942
 4813SOL    MW419026   1.423   4.983   4.424 -1.1003  0.3726 -0.5432
 4814SOL     OW19027   3.564   0.428   0.382  0.3010  0.2957 -0.4685
 4814SOL    HW219028   3.603   0.510   0.412  0.3081 -0.0378  0.4670
 4814SOL    HW319029   3.516   0.452   0.303  0.7400  1.0988 -0.5009
 4814SOL    MW419030   3.562   0.442   0.376 -0.3715 -0.6170  0.3877
 4815SOL     OW19031   5.727   5.857   1.856 -0.7668  0.2305  0.0956
 4815SOL    HW219032   5.764   5.816   1.934  1.7496 -0.2230 -1.2481
 4815SOL    HW319033   5.759   5.947   1.857  0.3571 -0.1203 -0.9937
 4815SOL    MW419034   5.736   5.863   1.866 -0.2374 -0.0479 -0.0777
 4816SOL     OW19035   5.831   1.721   2.792 -0.4427 -0.2315 -0.6666
 4816SOL    HW219036   5.773   1.733   2.867  1.0817 -2.3227  0.9370
 4816SOL    HW319037   5.790   1.650   2.742 -0.5721  0.0183 -0.9189
 4816SOL    MW419038   5.818   1.713   2.795 -0.1937 -0.1192 -0.0111
 4817SOL     OW19039   2.730   0.483   0.136  0.5155  0.5748 -0.7968
 4817SOL    HW219040   2.712   0.458   0.227 -0.1015  0.9406 -0.8168
 4817SOL    HW319041   2.747   0.400   0.092 -0.5777  0.2558 -0.6528
 4817SOL    MW419042   2.730   0.469   0.142 -0.4863  0.3136 -0.2655
 4818SOL     OW19043   2.013   4.882   4.248  0.4233  0.5681 -0.3361
 4818SOL    HW219044   2.043   4.964   4.209 -0.5677  0.0750 -2.2655
 4818SOL    HW319045   1.918   4.894   4.260  0.4559  0.1160  0.4698
 4818SOL    MW419046   2.004   4.895   4.245 -0.0285  0.2220 -0.8522
 4819SOL     OW19047   1.911   0.938   5.705 -1.0447 -0.1255  0.4846
 4819SOL    HW219048   1.984   0.876   5.704 -0.6409  0.3460  0.5929
 4819SOL    HW319049   1.836   0.885   5.732 -0.5186 -0.3750  1.5129
 4819SOL    MW419050   1.911   0.923   5.709 -0.1380 -0.4752 -0.3413
 4820SOL     OW19051   3.819   1.304   2.935 -0.3534  0.2923 -0.1383
 4820SOL    HW219052   3.773   1.387   2.950 -1.6509 -0.3282 -0.5079
 4820SOL    HW319053   3.783   1.244   3.000  1.4438  0.3052  0.9159
 4820SOL    MW419054   3.808   1.307   2.945 -0.2380  0.3573 -0.8757
 4821SOL     OW19055   5.549   1.744   1.097 -0.2239 -0.8535 -0.1415
 4821SOL    HW219056   5.499   1.677   1.142 -0.4816  0.2740  1.3339
 4821SOL    HW319057   5.483   1.799   1.055 -0.0630 -0.9957 -0.5841
 4821SOL    MW419058   5.534   1.743   1.097 -0.5122  0.1492 -0.0597
 4822SOL     OW19059   4.967   3.348   0.376  0.7102 -0.0550  0.2520
 4822SOL    HW219060   4.896   3.407   0.352 -2.0109 -2.7802  0.8889
 4822SOL    HW319061   5.008   3.323   0.293  0.6280  1.2025 -0.1776
 4822SOL    MW419062   4.963   3.352   0.362 -0.3480 -0.2206  0.6393
 4823SOL     OW19063   1.521   4.624   1.651 -0.3471 -0.4867  0.1197
 4823SOL    HW219064   1.612   4.602   1.634  0.4490  1.7818  1.1198
 4823SOL    HW319065   1.490   4.663   1.569  0.0262  0.0333  0.2204
 4823SOL    MW419066   1.529   4.626   1.638  0.2918 -0.5039 -0.2864
 4824SOL     OW19067   1.715   5.246   1.772  0.2743  0.1822  0.4242
 4824SOL    HW219068   1.704   5.271   1.863  0.8314  0.1023  0.5137
 4824SOL    HW319069   1.687   5.322   1.722  1.7143  0.9103  0.6878
 4824SOL    MW419070   1.709   5.259   1.777  0.2863  0.1209 -0.1363
 4825SOL     OW19071   2.309   5.545   4.651  0.5325  0.1326  0.1509
 4825SOL    HW219072   2.377   5.555   4.584  1.4550 -0.9844  0.8979
 4825SOL    HW319073   2.347   5.488   4.717 -0.4947  0.8917  1.4676
 4825SOL    MW419074   2.323   5.539   4.651  0.2384 -0.5675  0.0350
 4826SOL     OW19075   1.653   1.320   0.085  0.2303  0.5791 -0.3797
 4826SOL    HW219076   1.732   1.369   0.061  0.4964  0.8482  0.9379
 4826SOL    HW319077   1.601   1.383   0.136  0.5926 -0.4566  1.3662
 4826SOL    MW419078   1.657   1.335   0.089  0.3483  0.1186  0.5835
 4827SOL     OW19079   5.681   3.377   0.325  0.2682 -0.2517  0.4782
 4827SOL    HW219080   5.718   3.462   0.347 -0.6843  0.0056  1.1600
 4827SOL    HW319081   5.752   3.315   0.341  0.7004  0.3225  0.8282
 4827SOL    MW419082   5.695   3.380   0.330 -0.3828 -0.0584 -0.1570
 4828SOL     OW19083   1.136   1.860   3.156  0.0619  0.1573  0.5576
 4828SOL    HW219084   1.149   1.910   3.237  0.3231  1.4630 -0.2508
 4828SOL    HW319085   1.136   1.927   3.087  1.6325 -1.0568 -0.7062
 4828SOL    MW419086   1.138   1.875   3.157  0.3852  0.7533 -0.2877
 4829SOL     OW19087   1.896   2.742   0.331  0.3376 -0.0096  0.7644
 4829SOL    HW219088   1.810   2.724   0.294  0.2063 -0.7827  1.4042
 4829SOL    HW319089   1.945   2.784   0.261 -0.1504 -0.7233 -0.0183
 4829SOL    MW419090   1.891   2.746   0.317  0.1835 -0.2036  0.3776
 4830SOL     OW19091   6.365   0.558   2.290  0.5529 -0.2769 -0.0634
 4830SOL    HW219092   6.306   0.629   2.315  2.7894  0.5372  3.7202
 4830SOL    HW319093   6.398   0.583   2.204 -0.4066  2.1180  0.1926
 4830SOL    MW419094   6.362   0.571   2.282  1.0819 -0.3094  0.0148
 4831SOL     OW19095   4.638   5.943   1.609  0.6895 -0.0065 -0.4063
 4831SOL    HW219096   4.655   5.931   1.703  0.0031  0.2330 -0.2401
 4831SOL    HW319097   4.679   5.868   1.567  1.3368  0.0875  0.0498
 4831SOL    MW419098   4.645   5.932   1.616 -0.4032  0.2373 -0.1441
 4832SOL     OW19099   2.389   2.176   4.486  0.1965 -0.2747 -0.1530
 4832SOL    HW219100   2.313   2.158   4.542 -0.2142 -0.2117 -0.6850
 4832SOL    HW319101   2.448   2.102   4.503 -0.6660 -1.1602 -0.9005
 4832SOL    MW419102   2.387   2.164   4.496 -0.7367 -0.3813 -0.5024
 4833SOL     OW19103   1.008   3.029   5.153 -0.6934  0.3602 -0.5865
 4833SOL    HW219104   1.023   3.093   5.084 -2.7180  1.2651 -0.2615
 4833SOL    HW319105   1.077   3.046   5.217 -1.6442  2.8380 -0.1268
 4833SOL    MW419106   1.019   3.040   5.153  0.2477  0.2137  0.0483
 4834SOL     OW19107   3.075   1.712   3.674 -0.0925  0.2230 -0.5509
 4834SOL    HW219108   2.989   1.746   3.699 -0.7919 -2.9055  1.9706
 4834SOL    HW319109   3.055   1.649   3.604  0.1730 -0.2591 -0.1944
 4834SOL    MW419110   3.061   1.708   3.668 -0.2199 -0.4976 -0.0370
 4835SOL     OW19111   0.696   5.255   6.191  0.3159 -0.5644 -0.4481
 4835SOL    HW219112   0.702   5.182   6.253  0.2895 -1.4714 -1.4980
 4835SOL    HW319113   0.603   5.277   6.188  0.4142  0.0485  0.4510
 4835SOL    MW419114   0.685   5.248   6.199  0.8486  0.1465 -0.2360
 4836SOL     OW19115   1.385   5.507   5.340  0.1794 -1.0535  0.7817
 4836SOL    HW219116   1.313   5.531   5.282  0.7352  1.5126  1.0009
 4836SOL    HW319117   1.406   5.417   5.318 -0.6919 -0.6801 -1.8557
 4836SOL    MW419118   1.379   5.498   5.330 -0.1144 -0.4652 -0.0636
 4837SOL     OW19119   4.517   1.444   3.973  0.0846 -0.0825  0.3755
 4837SOL    HW219120   4.587   1.382   3.996 -1.1192 -1.8127 -0.3634
 4837SOL    HW319121   4.546   1.527   4.011  2.5692 -0.6824  0.0302
 4837SOL    MW419122   4.530   1.447   3.981 -0.0205  0.1749  0.9111
 4838SOL     OW19123   0.557   4.495   2.367 -0.4861  0.4043  0.6583
 4838SOL    HW219124   0.632   4.525   2.418 -0.4631  2.0490 -0.2704
 4838SOL    HW319125   0.481   4.518   2.420 -0.3917 -0.9131  1.4213
 4838SOL    MW419126   0.557   4.502   2.381  0.6923  0.2340 -0.1015
 4839SOL     OW19127   1.131   2.861   0.559  0.2120  0.4235 -0.5756
 4839SOL    HW219128   1.048   2.828   0.595  0.6041  0.5055  0.4552
 4839SOL    HW319129   1.112   2.951   0.533  0.3533  1.0110  1.1846
 4839SOL    MW419130   1.118   2.868   0.560 -0.6756 -0.0467 -0.5667
 4840SOL     OW19131   3.052   0.336   1.771 -0.6398  0.1731  0.3447
 4840SOL    HW219132   3.115   0.377   1.711 -0.2979  0.4746  0.9040
 4840SOL    HW319133   3.072   0.375   1.856 -0.4629 -0.9948  0.8473
 4840SOL    MW419134   3.063   0.347   1.774 -0.3125  0.1921 -0.3119
 4841SOL     OW19135   4.300   4.227   5.096  0.4762 -0.2167 -0.0188
 4841SOL    HW219136   4.308   4.139   5.133  0.8664 -1.3327 -2.5937
 4841SOL    HW319137   4.390   4.259   5.091  0.2472  0.9696  2.1801
 4841SOL    MW419138   4.313   4.220   5.101  0.3550  0.6764  0.7867
 4842SOL     OW19139   5.514   1.503   4.688 -0.1129 -0.2751 -0.3748
 4842SOL    HW219140   5.474   1.417   4.678  1.9067 -1.1440 -1.4601
 4842SOL    HW319141   5.596   1.487   4.734 -0.1596  1.2201  0.2910
 4842SOL    MW419142   5.519   1.490   4.692 -0.1119  0.3656 -0.2562
 4843SOL     OW19143   0.672   5.600   1.778  0.8602  0.3763  0.2847
 4843SOL    HW219144   0.692   5.634   1.865  0.8005  1.2651 -0.0360
 4843SOL    HW319145   0.577   5.590   1.777  1.0923 -3.6455  1.7357
 4843SOL    MW419146   0.662   5.603   1.789 -0.0938  0.0704 -0.4197
 4844SOL     OW19147   5.796   3.025   3.829 -0.2399  0.4438  0.3723
 4844SOL    HW219148   5.722   2.970   3.855 -0.8748  0.9799 -0.2684
 4844SOL    HW319149   5.851   2.967   3.776 -1.5257  0.7263 -1.3356
 4844SOL    MW419150   5.793   3.010   3.826 -0.6757  0.1373  0.7081
 4845SOL     OW19151   6.165   3.835   0.821  0.1429 -0.1023  0.0766
 4845SOL    HW219152   6.248   3.788   0.818  0.2193 -0.0769  1.2861
 4845SOL    HW319153   6.189   3.926   0.804  0.3474 -0.1145  0.2946
 4845SOL    MW419154   6.179   3.841   0.819 -0.1936  0.1446  0.6260
 4846SOL     OW19155   6.062   4.072   1.254  0.3594  0.2233  0.1835
 4846SOL    HW219156   6.091   3.984   1.279  0.7033  0.1572 -0.4396
 4846SOL    HW319157   6.106   4.130   1.316  3.1748  0.2658 -1.7124
 4846SOL    MW419158   6.071   4.068   1.266 -0.0678  0.4654 -0.2892
 4847SOL     OW19159   3.804   2.828   1.745 -0.0927 -0.2714 -0.7462
 4847SOL    HW219160   3.871   2.862   1.804 -2.6882  0.4807  2.0213
 4847SOL    HW319161   3.786   2.900   1.685 -0.0283  0.3513 -0.0279
 4847SOL    MW419162   3.811   2.842   1.745 -0.3273 -0.3725  0.2085
 4848SOL     OW19163   4.727   3.172   1.967 -0.9446  0.0196  0.2548
 4848SOL    HW219164   4.762   3.260   1.951  1.1194 -0.7620  0.1955
 4848SOL    HW319165   4.744   3.125   1.886  0.7049 -1.2370  1.2749
 4848SOL    MW419166   4.734   3.178   1.954 -0.7578  0.2466  0.0862
 4849SOL     OW19167   1.244   2.447   5.376 -0.5311  0.0572 -0.4122
 4849SOL    HW219168   1.331   2.414   5.399 -1.2480 -0.4304  1.9401
 4849SOL    HW319169   1.220   2.399   5.297  1.4520  0.4713 -1.3310
 4849SOL    MW419170   1.253   2.436   5.369  0.1807 -0.7325 -0.0134
 4850SOL     OW19171   5.398   2.798   1.420  0.2673 -0.1057 -0.2405
 4850SOL    HW219172   5.322   2.854   1.406 -0.6984 -1.6565 -1.5343
 4850SOL    HW319173   5.396   2.779   1.514  1.0264  2.4829  0.3906
 4850SOL    MW419174   5.388   2.803   1.430 -0.1095 -0.4018  0.5375
 4851SOL     OW19175   1.589   2.611   1.381 -0.0417  0.1217 -0.7973
 4851SOL    HW219176   1.666   2.641   1.333 -0.2078 -1.1096 -1.8751
 4851SOL    HW319177   1.609   2.522   1.408 -0.2662  0.5110  0.8056
 4851SOL    MW419178   1.602   2.603   1.378  0.0995 -0.2296  0.5770
 4852SOL     OW19179   3.344   0.803   4.088  0.0333 -0.0128  0.6018
 4852SOL    HW219180   3.251   0.782   4.084  0.5146 -2.1376 -0.7849
 4852SOL    HW319181   3.387   0.735   4.037  2.4182  0.6529  1.5640
 4852SOL    MW419182   3.337   0.791   4.081 -0.1546 -0.2807 -0.0611
 4853SOL     OW19183   5.663   0.506   4.422  0.6414  0.2694  0.4892
 4853SOL    HW219184   5.731   0.515   4.355  0.5411 -1.4269  0.1061
 4853SOL    HW319185   5.634   0.415   4.414 -1.3855  0.8160  0.9188
 4853SOL    MW419186   5.668   0.495   4.412 -0.5817  0.1712  0.0397
 4854SOL     OW19187   3.113   3.205   6.131 -0.2396 -0.5303  0.2748
 4854SOL    HW219188   3.155   3.226   6.048  1.0392  0.6602  1.1825
 4854SOL    HW319189   3.095   3.111   6.125 -0.2338 -0.4575 -1.3544
 4854SOL    MW419190   3.116   3.195   6.120  0.7268 -0.6407 -0.0960
 4855SOL     OW19191   2.996   1.059   1.738 -0.0660  0.1290 -0.0251
 4855SOL    HW219192   2.915   1.015   1.767  0.3751 -0.6201  0.1096
 4855SOL    HW319193   2.976   1.093   1.651 -0.0367 -1.4635 -0.6809
 4855SOL    MW419194   2.983   1.058   1.731 -0.1889 -0.4461 -0.7597
 4856SOL     OW19195   4.805   3.283   6.205 -0.0801 -0.7167  0.2871
 4856SOL    HW219196   4.792   3.245   6.292 -1.7329  0.7232  0.7121
 4856SOL    HW319197   4.752   3.229   6.147  0.9725 -1.6377  0.1319
 4856SOL    MW419198   4.796   3.271   6.209  0.1446 -0.2855  0.3097
 4857SOL     OW19199   0.853   0.714   4.868 -0.1531  0.7025  0.1621
 4857SOL    HW219200   0.884   0.741   4.954 -0.7424  0.8114  0.3447
 4857SOL    HW319201   0.778   0.657   4.886  1.5654 -1.8376 -0.1592
 4857SOL    MW419202   0.847   0.710   4.881 -0.4511 -0.3764  0.5731
 4858SOL     OW19203   0.707   4.537   2.092  0.1039  0.3243  0.0497
 4858SOL    HW219204   0.701   4.632   2.077 -0.6842  0.3456  0.4224
 4858SOL    HW319205   0.652   4.522   2.169  0.6716 -0.3639  0.3287
 4858SOL    MW419206   0.699   4.548   2.100  0.3685 -0.7279 -0.2525
 4859SOL     OW19207   1.543   2.119   1.486  0.2354 -0.3990  0.4701
 4859SOL    HW219208   1.535   2.116   1.391 -1.1935  0.7381  0.5284
 4859SOL    HW319209   1.595   2.041   1.508  1.4533 -0.1566 -1.3020
 4859SOL    MW419210   1.549   2.108   1.477 -0.0064 -0.5316  0.1409
 4860SOL     OW19211   0.060   3.231   3.249  0.3815 -0.2080  0.2396
 4860SOL    HW219212   0.001   3.158   3.269  0.3288 -0.1196  0.4081
 4860SOL    HW319213   0.003   3.300   3.217  0.5191 -0.5166 -0.6810
 4860SOL    MW419214   0.045   3.230   3.248  0.1597  0.1642 -0.2851
 4861SOL     OW19215   1.982   1.970   1.402  0.0771 -0.0944  0.2677
 4861SOL    HW219216   1.952   1.905   1.339  0.1224  0.2561 -0.1199
 4861SOL    HW319217   1.921   2.043   1.393 -0.3142 -0.3086  1.1091
 4861SOL    MW419218   1.970   1.971   1.393  0.1776  0.4886  0.0497
 4862SOL     OW19219   3.878   1.915   3.766 -0.4906  0.2409  0.1767
 4862SOL    HW219220   3.905   1.829   3.797  0.4246  0.9746  1.5388
 4862SOL    HW319221   3.824   1.950   3.837  1.1779  1.7395  0.7779
 4862SOL    MW419222   3.874   1.909   3.780 -0.3446  0.0959  0.2001
 4863SOL     OW19223   0.849   0.672   4.495  0.4889 -0.0065 -0.3336
 4863SOL    HW219224   0.876   0.682   4.404 -0.0468 -0.9156 -0.6056
 4863SOL    HW319225   0.929   0.690   4.545  0.4927  1.7224 -0.9052
 4863SOL    MW419226   0.863   0.676   4.490 -0.1730 -0.0763  0.2146
 4864SOL     OW19227   4.479   3.000   1.867  0.4629  0.0475  0.6116
 4864SOL    HW219228   4.401   3.002   1.812  0.4924 -0.1084  0.5628
 4864SOL    HW319229   4.527   3.080   1.844  0.1325  0.3378  0.9170
 4864SOL    MW419230   4.475   3.011   1.857 -0.1089 -0.4866  0.2832
 4865SOL     OW19231   5.616   0.782   4.106  0.6624  0.4072  0.0850
 4865SOL    HW219232   5.673   0.794   4.182  2.0871 -1.3969 -0.6253
 4865SOL    HW319233   5.573   0.698   4.121  1.2456 -0.1526 -1.2501
 4865SOL    MW419234   5.618   0.772   4.118 -0.4923 -0.2372  0.2950
 4866SOL     OW19235   0.577   2.026   4.598  0.4331  0.8807  0.6864
 4866SOL    HW219236   0.538   2.020   4.685 -0.8567  1.1767  0.1512
 4866SOL    HW319237   0.503   2.042   4.540  0.5438 -3.6557 -1.0839
 4866SOL    MW419238   0.562   2.027   4.602 -0.5211  0.0063  0.0863
 4867SOL     OW19239   1.934   1.394   0.021 -0.0847  0.5725 -0.2686
 4867SOL    HW219240   1.957   1.305  -0.007  0.4957  0.8970 -0.8517
 4867SOL    HW319241   1.898   1.436  -0.057  1.1173  1.3407 -0.4407
 4867SOL    MW419242   1.933   1.388   0.007 -0.5009  0.2108  0.0101
 4868SOL     OW19243   3.639   0.168   0.405 -0.1250  0.1876  0.1542
 4868SOL    HW219244   3.609   0.257   0.388 -1.8585  0.0182  1.9841
 4868SOL    HW319245   3.732   0.178   0.426 -0.2234  1.5350  0.0672
 4868SOL    MW419246   3.648   0.181   0.406 -0.3378 -0.1776  0.3853
 4869SOL     OW19247   3.009   0.167   1.391 -0.1718  0.1082 -0.0004
 4869SOL    HW219248   2.965   0.125   1.317  0.2010 -0.3154  0.0102
 4869SOL    HW319249   2.939   0.208   1.441 -0.3913  0.6883 -0.7733
 4869SOL    MW419250   2.994   0.167   1.387 -0.0514 -0.2470 -0.0310
 4870SOL     OW19251   0.066   5.098   5.341 -0.1731  0.2624 -0.1459
 4870SOL    HW219252   0.125   5.167   5.374  0.5028 -0.4109  0.0851
 4870SOL    HW319253   0.007   5.081   5.414 -0.1224  0.3559 -0.0812
 4870SOL    MW419254   0.066   5.105   5.355  0.7632 -0.7182  0.1754
 4871SOL     OW19255   4.513   2.387   5.556  0.5539  0.5411 -0.2932
 4871SOL    HW219256   4.447   2.428   5.611  1.4431  3.1499 -0.9960
 4871SOL    HW319257   4.487   2.409   5.467 -0.2384 -2.6287 -0.9732
 4871SOL    MW419258   4.501   2.395   5.551  0.4617 -0.4126 -0.3941
 4872SOL     OW19259   2.486   4.677   0.100 -0.1481  0.2408  0.1416
 4872SOL    HW219260   2.568   4.720   0.073  0.0762  0.5972  1.3080
 4872SOL    HW319261   2.488   4.592   0.056  0.3618  0.6392 -0.6381
 4872SOL    MW419262   2.497   4.672   0.091  0.2330  0.1523  0.1810
 4873SOL     OW19263   4.808   2.105   2.330 -0.0787  0.3336 -0.3129
 4873SOL    HW219264   4.777   2.112   2.240  0.6240  0.7056 -0.5349
 4873SOL    HW319265   4.887   2.159   2.333  1.1868 -1.4402 -0.0644
 4873SOL    MW419266   4.815   2.113   2.319  0.5366 -0.4304  0.1051
 4874SOL     OW19267   0.835   4.950   0.667 -0.4519  0.1324 -0.3627
 4874SOL    HW219268   0.800   4.897   0.738 -0.2731  1.5454  0.8334
 4874SOL    HW319269   0.797   5.037   0.681  3.0108  1.6588  0.7358
 4874SOL    MW419270   0.825   4.954   0.678 -0.0083 -0.2147  0.3546
 4875SOL     OW19271   4.921   1.716   0.999  0.6879 -0.4609  0.2244
 4875SOL    HW219272   4.845   1.692   0.945  0.9509 -1.7496  0.4109
 4875SOL    HW319273   4.964   1.633   1.019  2.5455  0.2780 -0.4373
 4875SOL    MW419274   4.916   1.702   0.994 -0.1372 -0.3550 -0.3870
 4876SOL     OW19275   2.994   1.551   3.164 -0.6595  0.0360 -0.1652
 4876SOL    HW219276   2.901   1.530   3.177 -0.2250 -2.2001 -0.2811
 4876SOL    HW319277   3.033   1.539   3.250 -0.2672 -0.2644 -0.3839
 4876SOL    MW419278   2.987   1.547   3.177  0.0797 -0.6123  0.2136
 4877SOL     OW19279   6.188   6.095   3.844 -0.6201  0.0264 -0.0064
 4877SOL    HW219280   6.104   6.091   3.888 -0.2094  0.7486  0.8770
 4877SOL    HW319281   6.239   6.023   3.882 -0.6843 -0.1279 -0.2110
 4877SOL    MW419282   6.184   6.085   3.854  0.3444  0.1135  0.3467
 4878SOL     OW19283   0.340   1.496   4.896 -0.2537  0.2961  0.1661
 4878SOL    HW219284   0.368   1.583   4.925  0.3392  0.9360 -2.1101
 4878SOL    HW319285   0.305   1.510   4.808 -0.1601 -1.7835 -0.2545
 4878SOL    MW419286   0.339   1.509   4.888  0.0942 -0.1277  0.3912
 4879SOL     OW19287   2.813   1.500   4.171  0.2116 -0.0706 -0.0718
 4879SOL    HW219288   2.725   1.537   4.171 -0.3932 -1.4670 -0.0568
 4879SOL    HW319289   2.843   1.510   4.080 -1.2842 -2.5420 -0.9284
 4879SOL    MW419290   2.805   1.506   4.159  0.3031  0.5700 -0.1168
 4880SOL     OW19291   2.151   4.440   0.614  0.5242 -0.8172 -0.2815
 4880SOL    HW219292   2.131   4.466   0.704 -0.5745  0.7522 -0.9386
 4880SOL    HW319293   2.210   4.508   0.582 -2.0823  0.8583 -1.9078
 4880SOL    MW419294   2.157   4.452   0.621 -0.1247  0.1670  0.3504
 4881SOL     OW19295   4.268   1.170   5.989  0.6629 -0.3042  0.2733
 4881SOL    HW219296   4.363   1.164   5.979  0.7122  1.6635 -0.8686
 4881SOL    HW319297   4.235   1.185   5.901 -0.5632  0.4607  0.8309
 4881SOL    MW419298   4.276   1.171   5.976 -0.1463 -0.2115 -0.3520
 4882SOL     OW19299   5.154   3.910   4.223  0.0594  0.3782 -0.0092
 4882SOL    HW219300   5.079   3.856   4.249  0.4923 -0.4229 -0.3749
 4882SOL    HW319301   5.186   3.868   4.143  1.0951  0.5204  0.3199
 4882SOL    MW419302   5.148   3.898   4.216  0.0266  0.1929 -0.0021
 4883SOL     OW19303   2.181   3.658   0.246 -0.0454 -0.2661  0.4877
 4883SOL    HW219304   2.210   3.689   0.161 -3.0307 -1.1017 -1.0036
 4883SOL    HW319305   2.237   3.582   0.265 -0.5096 -1.2582 -1.7350
 4883SOL    MW419306   2.192   3.652   0.237 -0.0801 -0.2236 -0.2004
 4884SOL     OW19307   4.844   1.289   5.651 -0.4015 -0.6146  0.1949
 4884SOL    HW219308   4.841   1.234   5.573  1.8249 -1.0072  0.3451
 4884SOL    HW319309   4.843   1.378   5.617  1.5381 -0.7707 -0.3924
 4884SOL    MW419310   4.843   1.293   5.636  0.2454  0.0836 -0.3203
 4885SOL     OW19311   4.277   0.998   3.110 -0.1211 -0.0754  0.0539
 4885SOL    HW219312   4.331   1.061   3.157  0.3790 -0.0372 -0.5546
 4885SOL    HW319313   4.228   0.952   3.178 -0.9467  1.3750  0.4708
 4885SOL    MW419314   4.278   1.000   3.125 -0.0672 -0.4525  0.2881
 4886SOL     OW19315   4.396   4.847   2.609  0.3712  0.0065 -0.3910
 4886SOL    HW219316   4.387   4.877   2.699 -0.0427 -1.1038 -0.0472
 4886SOL    HW319317   4.351   4.762   2.607  1.0615 -0.3579 -1.4398
 4886SOL    MW419318   4.389   4.839   2.620 -0.1215  0.2552  0.0138
 4887SOL     OW19319   4.704   6.440   4.259  0.3720  0.1119  0.3642
 4887SOL    HW219320   4.788   6.481   4.279  0.6840 -0.7178  0.7991
 4887SOL    HW319321   4.720   6.346   4.267  0.2175 -0.2764 -2.6703
 4887SOL    MW419322   4.717   6.433   4.263 -0.0095  0.7540 -0.3445
 4888SOL     OW19323   4.202   3.040   3.403  0.3420 -0.2636  0.0368
 4888SOL    HW219324   4.234   3.001   3.484 -2.4261  0.3407  1.5393
 4888SOL    HW319325   4.138   2.978   3.370  0.3262  0.2140 -0.8539
 4888SOL    MW419326   4.198   3.027   3.409  0.7587 -0.2959 -0.0287
 4889SOL     OW19327   1.865   2.926   3.705 -0.4670  0.2469  0.0396
 4889SOL    HW219328   1.895   2.877   3.629  1.0168  0.6207  0.3437
 4889SOL    HW319329   1.788   2.879   3.736 -1.5907  0.5278 -2.1290
 4889SOL    MW419330   1.859   2.914   3.699  0.0138 -0.5910  0.2180
 4890SOL     OW19331   1.935   6.314   2.511 -0.1271  0.1366  0.0176
 4890SOL    HW219332   1.969   6.224   2.504 -2.0933 -0.7780  1.2612
 4890SOL    HW319333   1.884   6.314   2.592  0.1824  2.5457  0.2770
 4890SOL    MW419334   1.932   6.302   2.521  0.2095  0.0767  0.3825
 4891SOL     OW19335   3.782   0.368   4.902  0.4181  0.6095 -0.5648
 4891SOL    HW219336   3.724   0.438   4.873  0.0756  0.2308 -0.8144
 4891SOL    HW319337   3.733   0.324   4.971  0.9633  1.1058  0.1509
 4891SOL    MW419338   3.768   0.371   4.907  0.2551  0.6155  0.2025
 4892SOL     OW19339   0.938   2.183   3.799  0.4672 -0.4963  0.1818
 4892SOL    HW219340   0.843   2.181   3.784 -0.0340 -3.3223  2.7189
 4892SOL    HW319341   0.970   2.108   3.749  0.9534 -1.0033  1.2298
 4892SOL    MW419342   0.929   2.173   3.790  0.1888 -0.4055  0.3075
 4893SOL     OW19343   4.381   3.388   5.444  0.1292  0.0458 -0.1570
 4893SOL    HW219344   4.433   3.468   5.444  2.6755 -1.5114 -0.2679
 4893SOL    HW319345   4.356   3.374   5.535 -0.6202  1.1014 -0.1876
 4893SOL    MW419346   4.384   3.396   5.456  0.5283 -0.8783 -0.7156
 4894SOL     OW19347   3.003   6.418   2.335  0.0212  0.5680  0.8441
 4894SOL    HW219348   3.061   6.481   2.293  0.6608  0.8637  2.1123
 4894SOL    HW319349   3.062   6.353   2.374 -0.5811 -0.1407  0.6041
 4894SOL    MW419350   3.019   6.418   2.334 -0.1375 -0.4591  0.0455
 4895SOL     OW19351   4.469   3.677   4.480 -0.6087 -0.5889 -0.6104
 4895SOL    HW219352   4.456   3.630   4.562  0.0408 -0.7038 -0.5695
 4895SOL    HW319353   4.414   3.631   4.417 -0.6835 -0.8403 -0.3637
 4895SOL    MW419354   4.460   3.665   4.483 -0.6684  0.0009 -0.5531
 4896SOL     OW19355   2.203   3.760   0.513 -0.0854  0.4437 -0.4170
 4896SOL    HW219356   2.255   3.761   0.433  0.1445  0.8026 -0.2658
 4896SOL    HW319357   2.202   3.669   0.540  1.9504  0.6399  0.5361
 4896SOL    MW419358   2.210   3.748   0.506  0.4652 -0.0636  0.1424
 4897SOL     OW19359   2.430   0.919   2.774 -0.4515 -0.2235 -0.4171
 4897SOL    HW219360   2.483   0.972   2.834  2.3144 -0.2094 -2.6202
 4897SOL    HW319361   2.392   0.983   2.713 -1.3074 -0.4108 -0.0919
 4897SOL    MW419362   2.432   0.935   2.774 -0.4669  0.0688  0.5560
 4898SOL     OW19363   3.127   3.798   5.466 -0.3114 -0.6439 -0.3837
 4898SOL    HW219364   3.094   3.730   5.526  0.9450 -0.1509  0.9189
 4898SOL    HW319365   3.181   3.750   5.403  2.7312 -0.7212  2.0491
 4898SOL    MW419366   3.130   3.783   5.466  0.5689  0.2581  0.3222
 4899SOL     OW19367   4.241   1.243   0.662  0.1399  0.5604  0.3625
 4899SOL    HW219368   4.335   1.241   0.680  0.3984 -1.6344 -0.8456
 4899SOL    HW319369   4.221   1.156   0.627 -2.0750  1.4264 -0.7506
 4899SOL    MW419370   4.251   1.232   0.660  0.0990 -0.1717 -0.1429
 4900SOL     OW19371   2.029   0.107   2.361 -0.2504  0.1856 -0.0176
 4900SOL    HW219372   2.008   0.033   2.418  0.6928  0.5227  0.7958
 4900SOL    HW319373   2.114   0.085   2.323  0.3000  1.0698  0.6531
 4900SOL    MW419374   2.038   0.095   2.363 -0.4470  0.1033  0.3790
 4901SOL     OW19375   3.842   2.324   3.741 -0.3865  0.0219 -0.0840
 4901SOL    HW219376   3.859   2.290   3.653 -1.1975  0.2438 -0.3305
 4901SOL    HW319377   3.924   2.364   3.768  0.2376 -1.0879 -0.2615
 4901SOL    MW419378   3.855   2.325   3.733  0.0394 -0.4296  0.0281
 4902SOL     OW19379   2.812   3.986   2.263  0.0556 -0.1699  0.1855
 4902SOL    HW219380   2.742   3.986   2.328  0.1016 -0.0723  0.2354
 4902SOL    HW319381   2.833   3.894   2.250 -0.2355 -0.2105  0.0055
 4902SOL    MW419382   2.806   3.974   2.270 -0.1282 -0.2018  0.2287
 4903SOL     OW19383   2.949   6.231   5.075 -0.2644 -0.0827  0.5244
 4903SOL    HW219384   3.003   6.153   5.082 -0.8716 -0.3841  2.7700
 4903SOL    HW319385   2.995   6.297   5.126  1.2269  1.7463 -2.8681
 4903SOL    MW419386   2.962   6.230   5.083  0.3964 -0.8539 -0.5220
 4904SOL     OW19387   1.596   3.494   5.981  0.7111  0.6082  1.0984
 4904SOL    HW219388   1.573   3.556   5.912  0.2706 -0.3483  0.3631
 4904SOL    HW319389   1.545   3.522   6.057  0.8013  1.3574  0.8911
 4904SOL    MW419390   1.586   3.506   5.982  0.2090 -0.0154  0.5867
 4905SOL     OW19391   3.361   2.272   6.242 -0.5758 -0.3364  0.8788
 4905SOL    HW219392   3.456   2.286   6.233 -0.6593  1.6365  2.3975
 4905SOL    HW319393   3.328   2.276   6.153  0.4372  2.1961  0.5257
 4905SOL    MW419394   3.370   2.275   6.229  0.2224  0.2036  0.0175
 4906SOL     OW19395   4.244   0.673   2.801  0.4726  0.3625 -0.2282
 4906SOL    HW219396   4.305   0.673   2.874  1.5142  0.5993 -1.0740
 4906SOL    HW319397   4.179   0.740   2.824  0.0402 -0.4699  1.0552
 4906SOL    MW419398   4.243   0.682   2.814 -0.3769 -0.6340 -0.0713
 4907SOL     OW19399   3.170   5.412   2.732  0.4456 -0.2155  0.1902
 4907SOL    HW219400   3.101   5.366   2.684  0.3727  1.9439 -2.0031
 4907SOL    HW319401   3.125   5.462   2.800 -0.1171  0.5787 -0.7375
 4907SOL    MW419402   3.155   5.412   2.734 -0.0625  0.2986 -0.1797
 4908SOL     OW19403   4.494   3.394   0.866 -0.3964 -0.2497  0.1550
 4908SOL    HW219404   4.572   3.395   0.810 -1.6868 -0.1251 -1.7224
 4908SOL    HW319405   4.506   3.468   0.925 -0.4884  1.7890 -2.2144
 4908SOL    MW419406   4.506   3.404   0.866  0.0906 -0.0051 -0.1529
 4909SOL     OW19407   5.061   0.557   3.746 -0.2523 -0.1507 -0.0750
 4909SOL    HW219408   4.981   0.594   3.785 -0.1654 -1.3378  1.3399
 4909SOL    HW319409   5.114   0.633   3.724 -0.1608  0.6569  2.5464
 4909SOL    MW419410   5.057   0.572   3.749 -0.2748  0.4613  0.3049
 4910SOL     OW19411   1.995   3.779   2.778  0.0899  0.2694 -0.2073
 4910SOL    HW219412   2.038   3.755   2.696 -2.0082 -0.4438 -1.1898
 4910SOL    HW319413   1.929   3.710   2.792 -0.7303  1.2724  1.1791
 4910SOL    MW419414   1.992   3.767   2.769  0.6008  0.0465  0.3463
 4911SOL     OW19415   2.198   3.318   0.014  0.5316 -0.1166  0.1435
 4911SOL    HW219416   2.255   3.352   0.082 -0.4398  0.3785  0.7365
 4911SOL    HW319417   2.147   3.249   0.057 -0.0892  0.1978 -0.0730
 4911SOL    MW419418   2.199   3.313   0.029 -0.1340 -0.0735  0.7283
 4912SOL     OW19419   1.074   1.476   0.791  0.3677 -0.1057  0.6560
 4912SOL    HW219420   1.052   1.423   0.714  2.1906 -1.2742  0.8652
 4912SOL    HW319421   1.146   1.531   0.762  0.3756  0.1933  1.2364
 4912SOL    MW419422   1.080   1.476   0.777 -0.2013 -0.2356  0.9985
 4913SOL     OW19423   1.737   4.912   4.316  0.0696 -0.0586  0.3217
 4913SOL    HW219424   1.688   4.987   4.283  0.6294  0.6271  0.9904
 4913SOL    HW319425   1.684   4.835   4.293 -0.7871  0.5823  0.1227
 4913SOL    MW419426   1.724   4.912   4.309 -0.1298  0.1939  0.2256
 4914SOL     OW19427   2.881   1.156   2.333  0.1443 -0.1282  0.0647
 4914SOL    HW219428   2.848   1.238   2.371  0.0942 -0.3688  0.5430
 4914SOL    HW319429   2.814   1.091   2.355 -0.8226  0.0670 -2.0092
 4914SOL    MW419430   2.868   1.158   2.341 -0.0020  0.0206  0.6721
 4915SOL     OW19431   3.162   4.767   1.290  0.3044  0.0116 -0.4863
 4915SOL    HW219432   3.146   4.861   1.280 -0.1895  0.0022  0.1077
 4915SOL    HW319433   3.256   4.759   1.305  0.1815  0.5328  0.6499
 4915SOL    MW419434   3.172   4.778   1.291  0.3343  0.2182 -0.0166
 4916SOL     OW19435   4.151   5.961   1.549  0.3378 -0.3627 -0.1491
 4916SOL    HW219436   4.148   5.995   1.638 -0.0206  1.5881 -0.8480
 4916SOL    HW319437   4.227   5.904   1.547  0.5116 -0.2071  1.3341
 4916SOL    MW419438   4.161   5.958   1.560 -0.2178  0.5501 -0.2518
 4917SOL     OW19439   3.754   5.443   1.505 -0.3009 -0.1909 -0.4037
 4917SOL    HW219440   3.845   5.472   1.494  0.1394 -1.2580  0.2859
 4917SOL    HW319441   3.722   5.495   1.579  0.7669 -1.9640  1.4128
 4917SOL    MW419442   3.762   5.454   1.513 -0.3236  0.6012  0.0414
 4918SOL     OW19443   2.844   1.153   0.665  0.3778  0.8660 -0.2770
 4918SOL    HW219444   2.900   1.089   0.620  0.4008  0.4537  0.3227
 4918SOL    HW319445   2.781   1.100   0.713  0.1310  1.3106 -0.1061
 4918SOL    MW419446   2.843   1.138   0.665 -0.0962  0.6711 -0.3864
 4919SOL     OW19447   1.427   1.607   4.343  0.2988 -0.3832  0.4395
 4919SOL    HW219448   1.368   1.651   4.282 -0.3119 -0.2755  1.0959
 4919SOL    HW319449   1.465   1.535   4.293 -2.5177 -2.2391  0.7314
 4919SOL    MW419450   1.425   1.604   4.329 -0.1026  0.0689  0.0046
 4920SOL     OW19451   1.927   0.516   3.992 -0.1270 -0.2959 -0.1664
 4920SOL    HW219452   1.905   0.595   3.943 -1.8325 -0.9202 -0.4849
 4920SOL    HW319453   1.899   0.534   4.082  0.9061  0.0120  0.1053
 4920SOL    MW419454   1.920   0.529   3.998 -0.0861 -0.3579 -0.4432
 4921SOL     OW19455   4.688   4.739   5.780 -0.0380  0.3037  0.2633
 4921SOL    HW219456   4.754   4.793   5.737  0.7833 -0.4865  0.4731
 4921SOL    HW319457   4.660   4.678   5.712  0.9149 -0.6388  0.6795
 4921SOL    MW419458   4.693   4.738   5.765  0.5484 -0.4099 -0.1831
 4922SOL     OW19459   3.617   4.605   5.722  0.0019  0.1834 -0.9584
 4922SOL    HW219460   3.566   4.654   5.657 -0.8722 -0.5250 -0.8284
 4922SOL    HW319461   3.594   4.513   5.707  0.8033 -0.1082 -0.5063
 4922SOL    MW419462   3.607   4.599   5.712  0.2285 -0.2956  0.6590
 4923SOL     OW19463   4.563   1.242   3.009 -0.2358 -0.2695 -0.4918
 4923SOL    HW219464   4.604   1.160   2.980  1.9544  0.2815  0.7531
 4923SOL    HW319465   4.537   1.226   3.099  0.0136  0.3219 -0.3059
 4923SOL    MW419466   4.565   1.229   3.017  0.2221  0.4040 -0.4530
 4924SOL     OW19467   1.877   6.201   1.901 -0.1260  0.0244  0.3712
 4924SOL    HW219468   1.889   6.210   1.996 -2.5441  1.1002  0.6597
 4924SOL    HW319469   1.830   6.280   1.875  0.7611 -0.0961 -1.8204
 4924SOL    MW419470   1.872   6.213   1.910 -0.2369 -0.3702 -0.5716
 4925SOL     OW19471   5.609   1.861   3.301  0.4596  0.2286 -0.5755
 4925SOL    HW219472   5.705   1.859   3.303  0.4540 -0.1303 -0.3651
 4925SOL    HW319473   5.586   1.948   3.333  0.6968 -0.3271  1.2696
 4925SOL    MW419474   5.618   1.872   3.306  0.3119  0.9136 -0.2258
 4926SOL     OW19475   6.240   3.205   2.362  0.3506  0.1885  0.1422
 4926SOL    HW219476   6.211   3.220   2.452 -0.8768  2.9512 -0.5949
 4926SOL    HW319477   6.315   3.146   2.369 -0.6723 -0.9182  2.8138
 4926SOL    MW419478   6.246   3.199   2.374  0.0616  0.1919  0.1719
 4927SOL     OW19479   4.681   6.018   6.423 -0.3350 -0.6117  0.0350
 4927SOL    HW219480   4.629   6.049   6.348  0.2855  0.9045  0.1919
 4927SOL    HW319481   4.746   5.960   6.385  0.6891  1.0204 -0.7939
 4927SOL    MW419482   4.682   6.015   6.408  0.3089  0.0593 -0.5232
 4928SOL     OW19483   4.493   6.423   4.981 -0.2794 -0.1998  0.0067
 4928SOL    HW219484   4.447   6.454   4.903  0.9339 -0.1194 -0.7178
 4928SOL    HW319485   4.459   6.476   5.053  0.6019  1.7642 -0.9428
 4928SOL    MW419486   4.483   6.434   4.980 -0.1958  0.4958  0.0521
 4929SOL     OW19487   3.442   2.121   3.915  0.8264 -0.1376  0.1346
 4929SOL    HW219488   3.477   2.103   3.827  0.9419  0.2074  0.1089
 4929SOL    HW319489   3.495   2.194   3.947 -2.3697  3.2659 -1.4849
 4929SOL    MW419490   3.454   2.128   3.908 -0.3577 -0.3550  0.2985
 4930SOL     OW19491   4.233   1.145   2.869  0.0870  0.1902  0.8036
 4930SOL    HW219492   4.300   1.115   2.808 -0.6698 -0.4013  0.2391
 4930SOL    HW319493   4.250   1.097   2.950 -0.3347 -0.8264  0.3064
 4930SOL    MW419494   4.244   1.135   2.871  0.6831  0.2964 -0.7510
 4931SOL     OW19495   6.144   6.319   2.528  0.1577  0.4153  0.0559
 4931SOL    HW219496   6.135   6.324   2.623 -1.9243  0.0323 -0.0738
 4931SOL    HW319497   6.218   6.260   2.514  1.8718  2.1577  1.4010
 4931SOL    MW419498   6.153   6.312   2.539  0.0879  0.0275 -0.2426
 4932SOL     OW19499   3.320   3.228   2.250 -0.3297 -0.8267 -0.6321
 4932SOL    HW219500   3.305   3.223   2.156 -0.2426 -0.2029 -0.6869
 4932SOL    HW319501   3.294   3.318   2.273 -2.7568 -1.6820  0.3640
 4932SOL    MW419502   3.314   3.239   2.241 -0.3007  0.5877 -0.1128
 4933SOL     OW19503   2.337   2.066   5.612 -0.2857 -0.4838 -0.4867
 4933SOL    HW219504   2.294   2.137   5.564  0.4163 -0.2530 -0.7801
 4933SOL    HW319505   2.407   2.037   5.554  0.2424 -0.5593  0.1777
 4933SOL    MW419506   2.341   2.072   5.598 -0.0867  0.3003  0.3480
 4934SOL     OW19507   1.240   6.118   1.857  0.0092 -0.6008 -0.0325
 4934SOL    HW219508   1.322   6.155   1.887 -0.4181  0.6299 -0.3414
 4934SOL    HW319509   1.208   6.065   1.931  0.1089  0.5023  0.8165
 4934SOL    MW419510   1.246   6.116   1.870 -0.6650 -0.4840  0.3401
 4935SOL     OW19511   2.010   4.870   0.122 -0.0857 -0.3051 -0.1364
 4935SOL    HW219512   1.915   4.884   0.117  0.1141  0.9538 -1.2451
 4935SOL    HW319513   2.046   4.958   0.132  0.9238 -0.8954  2.0276
 4935SOL    MW419514   2.002   4.884   0.122 -0.0682 -0.1022 -0.1130
 4936SOL     OW19515   5.643   0.410   0.920  0.3028 -0.2195 -0.1452
 4936SOL    HW219516   5.676   0.452   1.000 -1.1585 -0.2247  0.4851
 4936SOL    HW319517   5.556   0.446   0.908 -0.4552 -2.0241 -0.3774
 4936SOL    MW419518   5.636   0.420   0.929 -0.1531  0.6854  0.3795
 4937SOL     OW19519   2.842   1.941   1.990 -0.3475  0.6115  0.5339
 4937SOL    HW219520   2.901   1.866   1.983 -2.4862 -1.0655 -0.5439
 4937SOL    HW319521   2.874   1.989   2.067  2.3518 -0.1846  0.0277
 4937SOL    MW419522   2.854   1.938   2.000  0.2476  0.3228  0.1786
 4938SOL     OW19523   0.538   0.672   5.969 -0.0124  0.2989 -0.0203
 4938SOL    HW219524   0.512   0.729   5.896 -0.5461  0.0320 -0.0419
 4938SOL    HW319525   0.467   0.680   6.032  1.3379  2.0435  1.3742
 4938SOL    MW419526   0.525   0.680   5.968 -0.2615  0.3468  0.4152
 4939SOL     OW19527   3.867   5.331   5.619  0.5194 -0.2064 -0.3785
 4939SOL    HW219528   3.827   5.415   5.598  2.8385  1.4885  1.4512
 4939SOL    HW319529   3.960   5.351   5.634  0.8063 -2.7158  2.0459
 4939SOL    MW419530   3.874   5.345   5.618 -0.1160  0.7253  0.3393
 4940SOL     OW19531   2.400   2.210   3.368  0.5053 -0.2508 -0.3286
 4940SOL    HW219532   2.349   2.188   3.291 -0.5274 -1.2540  0.6041
 4940SOL    HW319533   2.491   2.207   3.338  0.1061  0.0367 -1.6434
 4940SOL    MW419534   2.405   2.207   3.354  0.0921 -0.3111  0.1893
 4941SOL     OW19535   2.374   3.276   6.079 -0.1600 -0.1794 -0.2871
 4941SOL    HW219536   2.405   3.229   6.001 -0.4821 -1.1566  0.1524
 4941SOL    HW319537   2.346   3.361   6.046 -1.3464 -0.9657 -1.4486
 4941SOL    MW419538   2.374   3.281   6.064 -0.5296  0.2351  0.1883
 4942SOL     OW19539   5.407   0.587   4.116 -0.3279 -0.0083 -0.4388
 4942SOL    HW219540   5.397   0.503   4.159  1.0486  1.0361  2.1051
 4942SOL    HW319541   5.330   0.637   4.142 -0.5568 -0.0761 -0.9750
 4942SOL    MW419542   5.396   0.583   4.125  0.0254 -0.5226 -0.2688
 4943SOL     OW19543   1.547   1.813   0.842 -0.1145 -0.4477 -0.2297
 4943SOL    HW219544   1.510   1.898   0.818  2.7411  1.1498  0.5775
 4943SOL    HW319545   1.555   1.816   0.937 -0.9616 -2.1160 -0.0663
 4943SOL    MW419546   1.543   1.825   0.851  0.4566 -0.4490 -0.1276
 4944SOL     OW19547   0.551   2.568   5.348 -0.2601  0.3216  0.1912
 4944SOL    HW219548   0.531   2.659   5.371  0.1006  0.2890  0.6446
 4944SOL    HW319549   0.512   2.556   5.261 -3.1983 -0.0915  1.4437
 4944SOL    MW419550   0.543   2.578   5.340  0.0574 -0.4684 -0.1345
 4945SOL     OW19551   2.295   1.653   3.616  0.4833 -0.2208  0.1236
 4945SOL    HW219552   2.276   1.568   3.577  0.8466 -0.0798 -0.3787
 4945SOL    HW319553   2.306   1.712   3.541 -1.6821  0.7212  0.4781
 4945SOL    MW419554   2.294   1.649   3.601 -0.6229  0.0347 -0.4314
 4946SOL     OW19555   0.692   2.475   4.493 -0.4206  0.2735 -0.8075
 4946SOL    HW219556   0.627   2.445   4.429 -0.7722  2.7412 -1.6893
 4946SOL    HW319557   0.640   2.525   4.557 -0.0968 -2.1773  1.5627
 4946SOL    MW419558   0.676   2.477   4.493 -0.0485 -0.0431  0.1368
 4947SOL     OW19559   0.401   5.179   5.216 -0.5114 -0.3235  0.2293
 4947SOL    HW219560   0.323   5.236   5.211  0.0405  0.7138  2.3402
 4947SOL    HW319561   0.458   5.222   5.280  1.4129 -1.5626 -0.5582
 4947SOL    MW419562   0.398   5.192   5.223  0.1580  0.2720 -0.0735
 4948SOL     OW19563   6.147   2.848   0.758  0.3159 -0.6838 -0.1126
 4948SOL    HW219564   6.235   2.832   0.724  0.1330  0.7137 -1.3515
 4948SOL    HW319565   6.143   2.943   0.768 -0.4807 -0.8718  1.5992
 4948SOL    MW419566   6.158   2.858   0.755  0.7221 -0.1052 -0.3781
 4949SOL     OW19567   4.018   4.380   4.192  0.2737  0.2017 -0.6105
 4949SOL    HW219568   3.960   4.433   4.248  1.7778  1.3816 -0.1168
 4949SOL    HW319569   4.025   4.296   4.237 -2.7985 -0.8471 -1.8115
 4949SOL    MW419570   4.011   4.376   4.205  0.2043 -0.1506 -0.0878
 4950SOL     OW19571   2.297   0.275   3.064 -0.0578  0.4241  0.0490
 4950SOL    HW219572   2.337   0.189   3.079 -0.8720  0.0842  0.2848
 4950SOL    HW319573   2.304   0.320   3.148 -1.5833 -0.2325  0.5638
 4950SOL    MW419574   2.303   0.270   3.077 -0.1986  0.1972 -0.0470
 4951SOL     OW19575   5.394   6.021   5.288  0.5757 -0.0296 -0.1222
 4951SOL    HW219576   5.331   5.979   5.228  0.6859 -0.8252  0.2973
 4951SOL    HW319577   5.352   6.013   5.374  0.1582  1.6125 -0.1504
 4951SOL    MW419578   5.380   6.014   5.292  0.1180  0.0786 -0.0289
 4952SOL     OW19579   0.592   3.351   2.458 -0.4157  0.1568  0.2664
 4952SOL    HW219580   0.570   3.417   2.523 -1.6258 -0.2225  0.2716
 4952SOL    HW319581   0.533   3.278   2.478 -0.2662 -0.2614 -0.7829
 4952SOL    MW419582   0.582   3.350   2.469 -0.0717  0.7496  0.2905
 4953SOL     OW19583   5.047   1.750   3.305 -0.2098  0.1315  0.4288
 4953SOL    HW219584   5.063   1.676   3.246 -1.0457  0.8741 -0.7775
 4953SOL    HW319585   5.112   1.815   3.279  0.6951 -0.2353  1.6623
 4953SOL    MW419586   5.058   1.749   3.294  0.2750 -0.5560 -0.1438
 4954SOL     OW19587   4.443   5.647   1.000  0.2015  0.5623  0.3232
 4954SOL    HW219588   4.396   5.572   0.963  0.2745  1.5032 -1.8499
 4954SOL    HW319589   4.392   5.723   0.971  2.7342  1.5956 -1.7466
 4954SOL    MW419590   4.430   5.647   0.991  0.3685  0.1935 -0.5508
 4955SOL     OW19591   5.871   4.642   3.968 -0.4579 -0.3170 -0.0812
 4955SOL    HW219592   5.838   4.607   3.885 -0.9356  0.3368 -0.1787
 4955SOL    HW319593   5.907   4.728   3.945  1.3126 -0.9982  0.0331
 4955SOL    MW419594   5.872   4.649   3.954  1.1584  1.1715  0.0604
 4956SOL     OW19595   6.036   2.931   6.327  0.0787  0.1654 -0.3025
 4956SOL    HW219596   6.123   2.899   6.303  0.0838 -0.0834  0.0554
 4956SOL    HW319597   6.039   2.941   6.422  0.1945  1.5525 -0.4302
 4956SOL    MW419598   6.048   2.928   6.336  0.2529 -0.0475  0.0716
 4957SOL     OW19599   0.796   0.960   2.213  0.2874 -0.1763 -0.1274
 4957SOL    HW219600   0.718   0.937   2.162 -0.3120  0.7761  0.3362
 4957SOL    HW319601   0.821   1.046   2.179 -0.2690  0.5898  1.3325
 4957SOL    MW419602   0.789   0.969   2.202 -0.0083 -0.4979  0.0327
 4958SOL     OW19603   5.421   0.304   0.172  0.0241  0.2248  0.3840
 4958SOL    HW219604   5.486   0.375   0.159 -0.3589  0.6854  0.9595
 4958SOL    HW319605   5.468   0.238   0.222 -0.3287  1.1649  2.0461
 4958SOL    MW419606   5.436   0.305   0.177 -0.3013  0.7217  0.9294
 4959SOL     OW19607   0.127   1.486   6.171  0.2815  0.2052 -0.0510
 4959SOL    HW219608   0.072   1.562   6.154 -0.0313  0.0786  0.3623
 4959SOL    HW319609   0.082   1.413   6.129  0.9231  0.3502 -1.0216
 4959SOL    MW419610   0.114   1.486   6.163 -0.5428  0.5817 -0.4296
 4960SOL     OW19611   5.712   5.885   0.511  0.3494 -0.3907 -0.4050
 4960SOL    HW219612   5.648   5.956   0.510 -0.2017 -0.7646  1.9470
 4960SOL    HW319613   5.795   5.928   0.533  0.6450 -0.1123 -1.9614
 4960SOL    MW419614   5.715   5.900   0.514  0.0964  0.0273  0.6884
 4961SOL     OW19615   2.467   1.766   0.046 -0.2936 -0.1073 -0.1377
 4961SOL    HW219616   2.404   1.819   0.095  0.0409  0.1782 -0.0064
 4961SOL    HW319617   2.545   1.822   0.039  0.1551 -0.6721  0.2199
 4961SOL    MW419618   2.469   1.780   0.052 -0.5034  0.7143 -0.3883
 4962SOL     OW19619   4.233   1.802   4.378  0.3019  0.0193 -0.3059
 4962SOL    HW219620   4.254   1.880   4.429  1.6531 -0.1392 -0.5787
 4962SOL    HW319621   4.173   1.833   4.310  1.2118  0.9307 -0.7097
 4962SOL    MW419622   4.228   1.816   4.375  0.1632 -0.2338 -0.2603
 4963SOL     OW19623   3.663   1.820   3.608  0.2164 -0.0796 -0.3090
 4963SOL    HW219624   3.620   1.750   3.657 -0.7174 -0.1085 -1.1424
 4963SOL    HW319625   3.727   1.857   3.669 -0.2400 -0.7576  0.5900
 4963SOL    MW419626   3.666   1.816   3.623  0.5446  0.3030 -0.3276
 4964SOL     OW19627   1.451   6.318   4.408 -0.1727  0.1802 -0.4186
 4964SOL    HW219628   1.527   6.364   4.445 -0.0879  0.3846 -0.8371
 4964SOL    HW319629   1.380   6.339   4.468  0.2658 -0.6530  0.4140
 4964SOL    MW419630   1.452   6.327   4.421  0.4712 -0.0198  0.0708
 4965SOL     OW19631   1.858   6.223   4.017 -0.3940  0.4726  0.1144
 4965SOL    HW219632   1.953   6.222   4.033 -0.2902  2.3777 -0.0684
 4965SOL    HW319633   1.820   6.246   4.102 -0.8194 -1.4700  0.4842
 4965SOL    MW419634   1.866   6.226   4.030 -0.0118  0.3265  0.0144
 4966SOL     OW19635   5.994   1.658   1.895 -0.0771 -0.5637  0.0991
 4966SOL    HW219636   6.057   1.648   1.824 -0.6804  0.2240 -0.5555
 4966SOL    HW319637   5.917   1.610   1.865 -0.5596  0.3063 -0.0629
 4966SOL    MW419638   5.992   1.650   1.882  0.0016  0.6794 -0.4914
 4967SOL     OW19639   6.100   6.227   4.925 -0.0761 -0.7070  0.1309
 4967SOL    HW219640   6.068   6.196   4.840  1.7710  1.5351 -1.5306
 4967SOL    HW319641   6.194   6.243   4.911  0.6782 -1.7512  3.1219
 4967SOL    MW419642   6.108   6.225   4.912 -0.3258  0.1970 -0.3347
 4968SOL     OW19643   4.452   5.190   2.052 -0.3077  0.1811 -0.1563
 4968SOL    HW219644   4.391   5.205   2.124 -2.2942  0.7645 -1.8607
 4968SOL    HW319645   4.531   5.238   2.077 -0.3758 -0.8439  2.2608
 4968SOL    MW419646   4.455   5.199   2.065  0.0650 -0.3436  0.2283
 4969SOL     OW19647   2.239   4.414   3.911  0.4384 -0.7153 -0.0366
 4969SOL    HW219648   2.268   4.348   3.974 -1.4529  0.0165  1.7172
 4969SOL    HW319649   2.288   4.493   3.934  1.2674 -0.9503 -0.8890
 4969SOL    MW419650   2.250   4.416   3.922 -0.7412  0.3164 -0.0268
 4970SOL     OW19651   2.375   0.251   3.618 -0.2034 -0.0408  0.0031
 4970SOL    HW219652   2.437   0.216   3.682  0.9055  2.5682  0.4964
 4970SOL    HW319653   2.296   0.269   3.669  0.4094  1.2951  0.5337
 4970SOL    MW419654   2.373   0.249   3.633  0.0358  0.2781  0.1109
 4971SOL     OW19655   1.382   0.794   2.405 -0.2243  0.3205 -0.1060
 4971SOL    HW219656   1.386   0.862   2.338 -1.4341  1.3253  0.7928
 4971SOL    HW319657   1.297   0.752   2.392  0.1314 -0.4262 -0.0757
 4971SOL    MW419658   1.371   0.798   2.395  0.0012  0.4179 -0.5560
 4972SOL     OW19659   2.941   0.329   0.927 -0.6688  0.0458 -0.0535
 4972SOL    HW219660   2.882   0.404   0.918 -0.6649  0.0171 -0.3481
 4972SOL    HW319661   3.016   0.363   0.976 -0.4460  0.3695 -0.6068
 4972SOL    MW419662   2.943   0.344   0.932 -0.1735  0.6061 -0.4060
 4973SOL     OW19663   6.317   5.143   3.657  0.1258 -0.2768  0.3817
 4973SOL    HW219664   6.409   5.139   3.631  0.6198  1.9152  1.5281
 4973SOL    HW319665   6.278   5.209   3.600 -0.3478 -0.0383  0.9677
 4973SOL    MW419666   6.324   5.151   3.646  0.2344  0.2660 -0.1915
 4974SOL     OW19667   2.032   3.085   3.476  0.1802 -0.0745  0.1318
 4974SOL    HW219668   2.034   3.179   3.456 -2.5069  0.1541  0.4749
 4974SOL    HW319669   1.956   3.052   3.427 -0.5938 -1.4719  2.1273
 4974SOL    MW419670   2.022   3.093   3.467 -0.1590 -0.0629  0.6090
 4975SOL     OW19671   4.804   0.377   4.299 -0.0032 -0.0475 -0.0326
 4975SOL    HW219672   4.815   0.473   4.300 -1.3757  0.1169  0.5034
 4975SOL    HW319673   4.890   0.344   4.325  0.2961  1.0620  0.4650
 4975SOL    MW419674   4.817   0.386   4.303 -0.1953 -0.0008 -0.2502
 4976SOL     OW19675   2.563   3.542   4.745 -0.5570  0.0920  0.3444
 4976SOL    HW219676   2.588   3.634   4.748  1.7759 -0.4838  0.3392
 4976SOL    HW319677   2.487   3.540   4.687  0.5341  1.8109 -1.2614
 4976SOL    MW419678   2.556   3.554   4.737 -0.4073 -0.0535 -0.0082
 4977SOL     OW19679   4.263   2.839   6.216 -1.0284 -0.3380  0.2605
 4977SOL    HW219680   4.179   2.875   6.242 -1.4733  0.3336 -1.9443
 4977SOL    HW319681   4.245   2.748   6.194 -0.5741 -1.0271  2.4687
 4977SOL    MW419682   4.250   2.832   6.217 -0.3490  0.0138  0.4007
 4978SOL     OW19683   1.121   3.983   5.173  0.3551  0.0513 -0.2628
 4978SOL    HW219684   1.053   3.923   5.143  0.0591 -0.1524  0.7576
 4978SOL    HW319685   1.198   3.961   5.121  0.1505 -0.9912 -0.1457
 4978SOL    MW419686   1.122   3.972   5.162  0.7288 -0.1681 -0.1705
 4979SOL     OW19687   2.483   3.137   0.260  0.8804  0.6793 -0.4117
 4979SOL    HW219688   2.439   3.069   0.210 -1.1587  1.1287  0.6710
 4979SOL    HW319689   2.524   3.193   0.194  2.0218 -1.1556 -1.3387
 4979SOL    MW419690   2.483   3.136   0.245 -0.3990  0.0778 -0.4599
 4980SOL     OW19691   0.939   5.157   2.153  0.0066  0.4437  0.0837
 4980SOL    HW219692   0.983   5.101   2.089  0.2165 -0.6488  1.1610
 4980SOL    HW319693   0.846   5.131   2.148 -0.3481  1.8165 -1.2301
 4980SOL    MW419694   0.932   5.146   2.144  0.2317  0.0259  0.5784
 4981SOL     OW19695   1.021   5.237   2.675 -0.1766  0.1110  0.4557
 4981SOL    HW219696   0.983   5.220   2.762  0.6280 -0.2299  0.7497
 4981SOL    HW319697   1.040   5.151   2.639 -0.6845  0.2455 -0.1506
 4981SOL    MW419698   1.019   5.223   2.682  0.1706 -0.5913  0.0250
 4982SOL     OW19699   0.139   3.311   2.633  0.6036 -0.2749  0.2381
 4982SOL    HW219700   0.228   3.338   2.658  0.1925  2.5915 -0.9865
 4982SOL    HW319701   0.151   3.261   2.553  1.1587 -0.7559  0.6061
 4982SOL    MW419702   0.153   3.308   2.626  0.2636  0.5441  0.4393
 4983SOL     OW19703   0.499   6.079   2.322 -0.3355  0.4822 -0.0053
 4983SOL    HW219704   0.510   6.057   2.414 -0.3660 -1.0877 -0.3607
 4983SOL    HW319705   0.425   6.141   2.320 -0.1854  0.7034  1.0249
 4983SOL    MW419706   0.491   6.085   2.334  0.5402  0.2882  0.1773
 4984SOL     OW19707   3.662   0.364   2.539 -0.4268  0.2442  0.2247
 4984SOL    HW219708   3.699   0.298   2.598  1.9417  0.1728 -1.2158
 4984SOL    HW319709   3.634   0.313   2.462  0.7590  0.7809 -0.5940
 4984SOL    MW419710   3.663   0.348   2.536  0.2961  0.2635  0.2466
 4985SOL     OW19711   2.616   3.093   5.248  0.1526 -0.1983 -0.3242
 4985SOL    HW219712   2.692   3.148   5.232 -0.2640  0.8347  1.0514
 4985SOL    HW319713   2.560   3.146   5.305 -2.8802  0.2212 -3.3276
 4985SOL    MW419714   2.619   3.107   5.253  0.2217 -0.5226  0.2190
 4986SOL     OW19715   4.285   5.674   4.162  0.5279 -0.2503  0.4303
 4986SOL    HW219716   4.253   5.715   4.243  2.6440  1.4835  0.5039
 4986SOL    HW319717   4.273   5.742   4.095  2.3204 -0.1762  0.1313
 4986SOL    MW419718   4.279   5.689   4.164 -0.3605  0.2299 -0.0728
 4987SOL     OW19719   1.919   6.218   2.179 -0.4819  0.2083 -0.7888
 4987SOL    HW219720   1.943   6.125   2.180 -0.8042  0.0974  0.8918
 4987SOL    HW319721   1.841   6.223   2.236  1.5183  1.9279  2.0856
 4987SOL    MW419722   1.912   6.206   2.187 -0.0433 -0.0903  0.7685
 4988SOL     OW19723   2.086   3.848   4.225  0.3251 -0.2259 -0.0985
 4988SOL    HW219724   2.140   3.875   4.299 -0.3326  1.7248 -0.2615
 4988SOL    HW319725   2.138   3.781   4.180  1.5065 -0.1701  1.1256
 4988SOL    MW419726   2.100   3.843   4.229 -0.4830  0.0099  0.2870
 4989SOL     OW19727   4.009   5.371   4.494 -0.0794 -0.2291  0.2666
 4989SOL    HW219728   3.943   5.325   4.546  0.0510 -1.7673 -0.8667
 4989SOL    HW319729   3.961   5.443   4.453 -0.7369 -0.5102  0.5301
 4989SOL    MW419730   3.994   5.374   4.496  0.0792 -0.0468 -0.1174
 4990SOL     OW19731   3.733   6.014   2.157 -0.0150  0.0232 -0.1859
 4990SOL    HW219732   3.732   6.110   2.150 -1.7004  0.0168 -0.6353
 4990SOL    HW319733   3.705   5.997   2.247  0.7303 -0.0583  0.0369
 4990SOL    MW419734   3.729   6.025   2.168  0.0774 -0.6149 -0.0819
 4991SOL     OW19735   0.996   0.320   5.545 -0.3718 -0.5425 -0.3512
 4991SOL    HW219736   0.949   0.247   5.506 -0.4358 -0.6347 -0.1042
 4991SOL    HW319737   1.075   0.329   5.491  0.1845 -1.5066  0.2575
 4991SOL    MW419738   1.000   0.311   5.533  0.8458 -0.0516 -0.3332
 4992SOL     OW19739   2.370   5.497   4.339 -0.4457  0.5591 -0.0672
 4992SOL    HW219740   2.363   5.407   4.307  2.7365  0.8892 -2.1902
 4992SOL    HW319741   2.446   5.496   4.397 -1.0951  1.6855  0.8581
 4992SOL    MW419742   2.379   5.485   4.343 -0.4744  0.0079  0.5594
 4993SOL     OW19743   4.811   0.143   5.854 -0.7197  0.1933 -0.1003
 4993SOL    HW219744   4.878   0.142   5.923 -1.2214 -0.0352  0.3897
 4993SOL    HW319745   4.828   0.223   5.805  1.6026 -1.1318 -1.6508
 4993SOL    MW419746   4.822   0.153   5.856  0.2895 -0.0433 -0.3061
 4994SOL     OW19747   5.048   5.627   6.307  0.0869 -0.8164  0.4455
 4994SOL    HW219748   5.048   5.638   6.212  2.4929  1.4051  0.5904
 4994SOL    HW319749   5.060   5.533   6.320  0.0041 -1.1323 -1.4383
 4994SOL    MW419750   5.049   5.616   6.296  0.0795 -0.2380 -0.3676
 4995SOL     OW19751   5.251   4.776   3.284 -0.0889  0.2072 -0.0930
 4995SOL    HW219752   5.222   4.864   3.309 -0.9261 -0.4820  1.5061
 4995SOL    HW319753   5.340   4.789   3.250  0.2319  1.5559  1.1423
 4995SOL    MW419754   5.259   4.790   3.283  0.2070  0.1231 -0.3548
 4996SOL     OW19755   2.652   1.050   5.391 -0.5830  0.3688  0.1029
 4996SOL    HW219756   2.666   0.978   5.452 -1.1243 -1.0060 -1.3502
 4996SOL    HW319757   2.681   1.128   5.439 -1.1251 -0.6361  2.1385
 4996SOL    MW419758   2.658   1.051   5.405  0.2730  0.1258  0.0498
 4997SOL     OW19759   4.984   5.834   4.103 -0.1105  0.0364 -0.0101
 4997SOL    HW219760   5.043   5.834   4.178 -0.5627  0.0443  0.3452
 4997SOL    HW319761   4.948   5.746   4.100 -1.5985  0.5703  0.9835
 4997SOL    MW419762   4.987   5.823   4.112 -0.8129 -0.0314 -0.2184
 4998SOL     OW19763   3.455   4.780   5.529  0.1396  0.0855  0.2835
 4998SOL    HW219764   3.407   4.829   5.596  0.1193 -0.6960  0.8611
 4998SOL    HW319765   3.501   4.847   5.479 -0.0270  0.7096  0.9415
 4998SOL    MW419766   3.455   4.795   5.531  0.5206 -0.0388  0.6954
 4999SOL     OW19767   0.466   0.174   4.592 -0.1802 -0.2069  0.1934
 4999SOL    HW219768   0.485   0.150   4.501  0.4207 -0.1238  0.2924
 4999SOL    HW319769   0.490   0.097   4.643 -0.0684 -0.0867  0.3257
 4999SOL    MW419770   0.472   0.161   4.587  0.3111 -0.1413  0.1348
 5000SOL     OW19771   0.038   6.204   2.378  0.2142  0.4599  0.1139
 5000SOL    HW219772  -0.046   6.191   2.334  0.0314 -0.7869  0.7772
 5000SOL    HW319773   0.015   6.234   2.466  0.5810  3.0841 -0.6176
 5000SOL    MW419774   0.024   6.206   2.384  0.2688  0.0811 -0.4636
 5001SOL     OW19775   3.205   3.113   2.977  0.0912 -0.6580  0.4684
 5001SOL    HW219776   3.190   3.200   2.940 -1.8281 -1.5184 -0.9982
 5001SOL    HW319777   3.296   3.093   2.956  0.1749  0.4826 -0.3347
 5001SOL    MW419778   3.215   3.122   2.969 -0.2660  0.2659  0.2353
 5002SOL     OW19779   4.283   0.787   2.139  0.1181 -0.1154 -0.2957
 5002SOL    HW219780   4.292   0.876   2.173  0.5875 -0.2354 -0.0939
 5002SOL    HW319781   4.339   0.786   2.061  0.1833 -0.2618 -0.2468
 5002SOL    MW419782   4.292   0.799   2.133 -0.7811  0.4227  0.0304
 5003SOL     OW19783   0.412   6.233   5.077  0.1914  0.5079  0.0759
 5003SOL    HW219784   0.317   6.243   5.068 -0.1447 -1.0251  1.4629
 5003SOL    HW319785   0.435   6.164   5.015  0.5929  1.5627 -0.9837
 5003SOL    MW419786   0.403   6.225   5.068  0.0718  0.2761 -0.0519
 5004SOL     OW19787   0.758   4.595   2.555  0.0806 -0.4705 -0.0653
 5004SOL    HW219788   0.849   4.581   2.530 -0.4137 -1.2193 -1.5686
 5004SOL    HW319789   0.749   4.552   2.640  1.3744  0.5445  0.6234
 5004SOL    MW419790   0.768   4.588   2.563  0.6329 -1.4012  0.3414
 5005SOL     OW19791   5.182   4.814   4.722  0.0212 -0.3717 -0.0258
 5005SOL    HW219792   5.220   4.769   4.797  0.5612 -1.1848 -0.7807
 5005SOL    HW319793   5.223   4.900   4.722 -1.2551  0.2972  1.6139
 5005SOL    MW419794   5.192   4.820   4.732  0.0766 -0.5059  0.4801
 5006SOL     OW19795   1.340   4.619   3.865  0.4949  0.5177 -0.1602
 5006SOL    HW219796   1.405   4.564   3.908 -0.9445 -1.1467 -0.0019
 5006SOL    HW319797   1.312   4.681   3.932 -0.5884 -1.0388  0.9016
 5006SOL    MW419798   1.345   4.620   3.879 -0.0468 -0.2712  0.0247
 5007SOL     OW19799   4.720   4.703   0.170  0.3279  0.4752 -0.2657
 5007SOL    HW219800   4.715   4.744   0.256 -1.3442 -0.9998  0.4033
 5007SOL    HW319801   4.650   4.743   0.119 -0.0669 -0.1555 -0.2309
 5007SOL    MW419802   4.710   4.714   0.175 -0.0709 -0.3582  0.0228
 5008SOL     OW19803   5.237   2.518   4.205  0.2412 -0.5328 -0.1410
 5008SOL    HW219804   5.198   2.592   4.250  2.0245  0.9213 -0.8721
 5008SOL    HW319805   5.311   2.492   4.261  1.3468  0.1000 -1.2667
 5008SOL    MW419806   5.242   2.524   4.218  0.1597  0.0973 -0.1966
 5009SOL     OW19807   1.402   6.214   0.941 -0.2949 -0.3264  0.1175
 5009SOL    HW219808   1.317   6.169   0.945 -0.1868 -0.5545 -0.1904
 5009SOL    HW319809   1.449   6.182   1.018 -1.7424  2.3631  2.3389
 5009SOL    MW419810   1.397   6.204   0.952  0.1083 -0.0839  0.7769
 5010SOL     OW19811   1.665   5.695   2.802  0.3899  0.3807  0.2819
 5010SOL    HW219812   1.632   5.627   2.860 -1.0667  0.6160 -0.2433
 5010SOL    HW319813   1.595   5.709   2.738  0.4009  2.7832  0.7076
 5010SOL    MW419814   1.652   5.688   2.801 -0.3028 -0.3877  0.0876
 5011SOL     OW19815   0.197   0.985   1.104 -0.0239  0.3257 -0.4229
 5011SOL    HW219816   0.281   0.956   1.069 -0.8960 -1.3555 -1.2321
 5011SOL    HW319817   0.141   0.908   1.099 -1.6348  1.4119  0.0676
 5011SOL    MW419818   0.200   0.971   1.099 -0.0906  0.1708 -0.2716
 5012SOL     OW19819   1.035   2.650   3.749  0.9286 -0.4454 -0.8899
 5012SOL    HW219820   1.059   2.566   3.788  0.7062 -0.0599  0.0863
 5012SOL    HW319821   1.101   2.712   3.780 -0.0914  0.1779  0.0994
 5012SOL    MW419822   1.047   2.647   3.758  0.2690 -0.3711  0.5076
 5013SOL     OW19823   4.182   3.626   2.117 -0.0870  0.1703  0.6194
 5013SOL    HW219824   4.134   3.575   2.182  0.6394 -2.5300 -0.8009
 5013SOL    HW319825   4.118   3.644   2.048  0.6810 -3.4988 -1.3131
 5013SOL    MW419826   4.167   3.621   2.116  0.0132 -0.0474  0.7698
 5014SOL     OW19827   5.535   4.690   3.591 -0.4071  0.3152 -0.5097
 5014SOL    HW219828   5.447   4.697   3.628 -0.1373  0.0836  0.1871
 5014SOL    HW319829   5.521   4.648   3.506 -1.0097  0.6307 -0.5719
 5014SOL    MW419830   5.521   4.685   3.585 -0.0362 -0.0102  0.1200
 5015SOL     OW19831   0.372   6.272   1.999 -0.1038  0.0890 -0.3598
 5015SOL    HW219832   0.360   6.184   1.962 -2.3122  0.1418  0.0926
 5015SOL    HW319833   0.288   6.315   1.985 -0.0683  1.1029  2.0936
 5015SOL    MW419834   0.359   6.266   1.992 -0.1739  0.7603 -0.8123
 5016SOL     OW19835   5.866   2.131   2.371 -0.1959  0.2173  0.2358
 5016SOL    HW219836   5.805   2.192   2.413  0.5509  1.9108 -1.0691
 5016SOL    HW319837   5.934   2.186   2.334  1.0109 -1.4943 -0.1994
 5016SOL    MW419838   5.867   2.146   2.372  0.3278  0.2952 -0.2614
 5017SOL     OW19839   4.835   5.361   1.824  0.5134 -0.9703 -0.9181
 5017SOL    HW219840   4.878   5.442   1.853  1.2173 -1.2382 -1.1960
 5017SOL    HW319841   4.743   5.384   1.819  0.6942 -0.2059 -0.9053
 5017SOL    MW419842   4.829   5.375   1.827 -0.2190 -0.0870  0.9103
 5018SOL     OW19843   5.508   0.981   3.779  0.0350 -0.1719  0.1636
 5018SOL    HW219844   5.598   0.953   3.796 -0.3691 -0.7465  1.5514
 5018SOL    HW319845   5.472   0.996   3.867 -1.3770 -0.4561 -0.3541
 5018SOL    MW419846   5.515   0.979   3.793  0.2186  0.0786 -0.4900
 5019SOL     OW19847   4.721   2.724   0.421  0.5454  0.2482  0.3061
 5019SOL    HW219848   4.734   2.703   0.513 -0.8274 -0.5532  0.3519
 5019SOL    HW319849   4.757   2.812   0.411 -0.6647  1.0081  2.0017
 5019SOL    MW419850   4.727   2.733   0.432 -0.4670 -0.1110  0.1620
 5020SOL     OW19851   0.646   5.215   2.709 -0.0309 -0.0734 -0.0822
 5020SOL    HW219852   0.639   5.204   2.804  0.7384 -1.7533 -0.1919
 5020SOL    HW319853   0.667   5.308   2.698  1.8801 -0.2269  1.5468
 5020SOL    MW419854   0.648   5.226   2.720 -0.2709 -0.5725 -0.0425
 5021SOL     OW19855   3.962   4.572   1.991 -0.1061  0.0923 -0.0237
 5021SOL    HW219856   3.947   4.600   1.901  2.9871  0.6781 -0.4807
 5021SOL    HW319857   3.961   4.476   1.988 -0.3869  0.1124 -0.6047
 5021SOL    MW419858   3.960   4.563   1.979 -0.0795  0.4224 -0.1759
 5022SOL     OW19859   3.340   4.545   4.766  0.3524  0.3209  0.6803
 5022SOL    HW219860   3.372   4.597   4.840 -1.0140  1.1860  0.7041
 5022SOL    HW319861   3.246   4.563   4.764  0.2625 -0.2365 -0.8474
 5022SOL    MW419862   3.332   4.555   4.776  0.5292 -0.3296  0.5359
 5023SOL     OW19863   3.368   2.163   0.106 -0.0877 -0.6954  0.8044
 5023SOL    HW219864   3.359   2.224   0.033  0.3550 -0.3824  1.0098
 5023SOL    HW319865   3.347   2.215   0.183 -0.2942 -0.9594  0.9311
 5023SOL    MW419866   3.364   2.178   0.107  0.0154 -0.0842  0.3034
 5024SOL     OW19867   3.838   1.637   3.864 -0.1817  0.3797 -0.4821
 5024SOL    HW219868   3.818   1.557   3.814 -1.0917 -0.0912  0.6028
 5024SOL    HW319869   3.768   1.643   3.929  0.3368  1.6211 -0.0147
 5024SOL    MW419870   3.827   1.627   3.866  0.4226 -0.2710  0.0873
 5025SOL     OW19871   3.649   2.859   4.608  0.1573 -0.2741  0.1451
 5025SOL    HW219872   3.691   2.782   4.647 -0.1340  0.3381  1.7511
 5025SOL    HW319873   3.691   2.933   4.651 -0.3832  0.4367 -0.5239
 5025SOL    MW419874   3.660   2.858   4.619 -0.8814 -0.1115  0.1468
 5026SOL     OW19875   5.936   3.241   5.340  0.0909  0.0456  0.1110
 5026SOL    HW219876   5.968   3.303   5.276 -1.4598  1.4855  0.6478
 5026SOL    HW319877   6.015   3.199   5.374  1.0237  0.1156 -1.8244
 5026SOL    MW419878   5.950   3.244   5.336 -0.0885  0.5701 -0.1038
 5027SOL     OW19879   6.075   2.306   4.000  0.5573  0.4334 -0.0256
 5027SOL    HW219880   6.159   2.302   3.954  0.0073  1.9778 -1.2213
 5027SOL    HW319881   6.043   2.394   3.985 -2.1410 -0.6446 -1.1529
 5027SOL    MW419882   6.082   2.317   3.992 -0.0008 -0.0993  0.4673
 5028SOL     OW19883   2.627   0.165   4.081 -0.5091 -0.2716 -0.5161
 5028SOL    HW219884   2.575   0.173   4.161 -1.8092 -0.1739 -1.3360
 5028SOL    HW319885   2.683   0.089   4.096 -1.3417 -0.7633  0.1738
 5028SOL    MW419886   2.627   0.156   4.093  0.0552 -0.1681 -0.4660
 5029SOL     OW19887   4.413   5.491   5.899  0.4712 -0.2502 -0.1952
 5029SOL    HW219888   4.384   5.475   5.809 -0.0822  0.4336 -0.1437
 5029SOL    HW319889   4.502   5.456   5.902  1.0692  1.0894 -1.4257
 5029SOL    MW419890   4.421   5.484   5.888 -0.4818 -0.3210  0.4384
 5030SOL     OW19891   1.168   0.960   0.543 -0.5247 -0.4487 -0.0320
 5030SOL    HW219892   1.250   0.976   0.590 -0.2469  1.2658 -1.0553
 5030SOL    HW319893   1.194   0.945   0.453 -1.4021  1.5642 -0.6640
 5030SOL    MW419894   1.182   0.960   0.538 -0.2311 -0.0904 -0.2978
 5031SOL     OW19895   5.102   4.891   5.172 -0.5215  0.6669 -0.1236
 5031SOL    HW219896   5.090   4.909   5.266 -1.3925 -0.3022 -0.0314
 5031SOL    HW319897   5.184   4.842   5.168 -1.1039 -0.3649  0.2881
 5031SOL    MW419898   5.111   4.887   5.184  0.5175 -0.2539 -0.9272
 5032SOL     OW19899   0.333   3.088   0.573 -0.4400  0.2383 -0.1728
 5032SOL    HW219900   0.283   3.155   0.621 -1.6059  0.5393 -1.7293
 5032SOL    HW319901   0.378   3.136   0.504  0.1780 -0.3457 -0.1851
 5032SOL    MW419902   0.332   3.103   0.570  0.3023  0.1613 -0.1391
 5033SOL     OW19903   1.652   0.910   1.403 -0.1982 -0.2249  0.2982
 5033SOL    HW219904   1.729   0.966   1.387  0.6632 -1.2632  0.7118
 5033SOL    HW319905   1.655   0.846   1.332  0.9440 -1.9648  1.8201
 5033SOL    MW419906   1.663   0.909   1.391  0.1446  0.7759  0.7219
 5034SOL     OW19907   0.968   1.699   4.705  0.4536  0.3934 -0.6975
 5034SOL    HW219908   0.906   1.637   4.667  2.1625 -1.2680 -0.9518
 5034SOL    HW319909   0.914   1.769   4.741 -1.5253 -0.8354 -1.1456
 5034SOL    MW419910   0.953   1.700   4.705  0.6696  0.5965  0.1394
 5035SOL     OW19911   2.575   4.488   4.068 -0.4873  0.0152  0.5170
 5035SOL    HW219912   2.535   4.537   4.140  0.2143 -0.7693  1.4631
 5035SOL    HW319913   2.664   4.521   4.063 -0.0909 -0.9628  0.9836
 5035SOL    MW419914   2.581   4.499   4.077 -0.4157  0.5143  0.1569
 5036SOL     OW19915   4.331   1.971   1.670 -0.2146  0.4801  0.5214
 5036SOL    HW219916   4.354   1.950   1.580  0.4178  1.0970  0.5342
 5036SOL    HW319917   4.373   2.055   1.687  0.6506 -0.1649  1.7457
 5036SOL    MW419918   4.340   1.979   1.661 -0.0118  0.7557  0.0847
 5037SOL     OW19919   3.522   4.066   5.245  0.9576 -0.4966  0.1999
 5037SOL    HW219920   3.569   3.998   5.293  1.5672 -0.4676 -0.3369
 5037SOL    HW319921   3.433   4.033   5.236  0.3109  0.2588  2.8785
 5037SOL    MW419922   3.516   4.053   5.250 -0.9932  0.4127  0.7239
 5038SOL     OW19923   6.266   1.901   4.036  0.6554  0.3155 -0.2574
 5038SOL    HW219924   6.324   1.877   4.108  0.1458  0.0538  0.0710
 5038SOL    HW319925   6.201   1.959   4.075 -1.0686 -1.6877  0.0901
 5038SOL    MW419926   6.265   1.905   4.050 -0.1955 -0.8927 -0.1022
 5039SOL     OW19927   4.592   3.076   4.267 -0.0885 -0.0895 -0.0064
 5039SOL    HW219928   4.630   2.992   4.294 -2.5554 -1.2139  0.2035
 5039SOL    HW319929   4.629   3.092   4.180 -0.5340 -2.0724 -0.6158
 5039SOL    MW419930   4.602   3.067   4.259  0.2720  0.6054 -0.0752
 5040SOL     OW19931   0.928   5.241   0.805 -0.5997  0.2624 -0.3061
 5040SOL    HW219932   0.940   5.224   0.711 -1.5601  0.2444 -0.4285
 5040SOL    HW319933   1.012   5.278   0.832 -0.0431 -0.4195 -1.0079
 5040SOL    MW419934   0.941   5.243   0.796  0.1941 -0.2258  0.5135
 5041SOL     OW19935   2.612   1.997   5.553 -0.7834  0.1822  0.1479
 5041SOL    HW219936   2.565   1.914   5.546 -1.4132  0.4529  0.9616
 5041SOL    HW319937   2.613   2.016   5.647 -1.2539  1.4315 -0.0775
 5041SOL    MW419938   2.606   1.989   5.565 -0.4684 -0.9359  0.1989
 5042SOL     OW19939   2.553   0.532   3.480  0.1207 -0.1440 -0.4384
 5042SOL    HW219940   2.562   0.522   3.575 -0.6415  1.0023 -0.2173
 5042SOL    HW319941   2.613   0.467   3.443  0.6733 -0.3930  0.8264
 5042SOL    MW419942   2.562   0.522   3.488  0.0209 -0.2041 -0.6689
 5043SOL     OW19943   3.536   1.570   1.128 -0.7496  0.4201  0.5402
 5043SOL    HW219944   3.529   1.567   1.224 -0.3584  0.9831  0.5934
 5043SOL    HW319945   3.535   1.664   1.108  1.8856  0.4522  0.2125
 5043SOL    MW419946   3.535   1.582   1.138 -0.2061  0.1430 -0.2579
 5044SOL     OW19947   1.278   0.105   2.929  0.1604  0.0053 -0.3141
 5044SOL    HW219948   1.363   0.092   2.889  0.0020 -0.4302 -0.5096
 5044SOL    HW319949   1.281   0.054   3.010  0.0616 -0.0685 -0.3563
 5044SOL    MW419950   1.290   0.097   2.935 -0.0813 -0.0365  0.2181
 5045SOL     OW19951   1.454   5.317   3.255  0.2123 -0.1443 -0.2103
 5045SOL    HW219952   1.545   5.308   3.230  0.9236  1.2275  1.6485
 5045SOL    HW319953   1.454   5.306   3.350 -0.9458  3.4525  0.3622
 5045SOL    MW419954   1.466   5.314   3.264  0.1971  0.2966  0.1844
 5046SOL     OW19955   5.711   2.887   0.096 -0.4343  0.0447 -0.5225
 5046SOL    HW219956   5.664   2.967   0.070  0.3014  1.1863  1.4318
 5046SOL    HW319957   5.790   2.919   0.140 -0.7253 -1.7265  1.4384
 5046SOL    MW419958   5.715   2.902   0.098 -0.1594 -0.1289  0.4870
 5047SOL     OW19959   4.896   6.102   2.621  0.1313  0.2669 -0.5015
 5047SOL    HW219960   4.847   6.183   2.636  1.8427  1.2406  0.0024
 5047SOL    HW319961   4.985   6.131   2.601  0.7085 -1.4912 -0.6078
 5047SOL    MW419962   4.901   6.117   2.620  0.1567 -0.1824  0.5074
 5048SOL     OW19963   5.252   4.490   2.551  0.6343  0.3759 -0.3590
 5048SOL    HW219964   5.277   4.464   2.639 -0.4531 -0.9079 -0.4101
 5048SOL    HW319965   5.197   4.419   2.518  0.4411  1.1426 -1.8181
 5048SOL    MW419966   5.248   4.477   2.558  0.0015  0.5422  0.2714
 5049SOL     OW19967   2.656   1.675   3.510 -0.1673  0.2228  0.3206
 5049SOL    HW219968   2.648   1.753   3.454 -2.1295 -0.7760 -0.9063
 5049SOL    HW319969   2.597   1.611   3.470  0.8415 -1.6680  1.7182
 5049SOL    MW419970   2.647   1.677   3.497 -0.5751 -0.2019  0.0005
 5050SOL     OW19971   0.978   5.848   5.194  0.0744  0.5352 -0.0159
 5050SOL    HW219972   0.933   5.771   5.161 -0.0779 -0.9313  3.2611
 5050SOL    HW319973   1.069   5.838   5.164 -0.6505  1.1516 -2.7561
 5050SOL    MW419974   0.984   5.837   5.185 -0.4549  0.5179  0.3669
 5051SOL     OW19975   0.966   6.343   2.941 -0.1148 -0.3970  0.0283
 5051SOL    HW219976   1.037   6.329   2.878  1.3184  3.0467  0.6749
 5051SOL    HW319977   0.923   6.423   2.911 -1.3445 -0.3585  1.7532
 5051SOL    MW419978   0.970   6.351   2.929 -0.6511  0.4555 -0.1003
 5052SOL     OW19979   4.010   4.992   3.543  0.1533  0.1951 -0.8206
 5052SOL    HW219980   3.953   4.977   3.467 -1.2042 -2.7249  0.6244
 5052SOL    HW319981   3.951   5.019   3.613  0.7600 -1.0462  0.2203
 5052SOL    MW419982   3.995   4.994   3.542 -0.1409  0.0134 -0.0610
 5053SOL     OW19983   5.964   5.661   0.265  0.5054 -0.0336 -0.4046
 5053SOL    HW219984   5.869   5.671   0.258  0.3760  0.6157  1.5750
 5053SOL    HW319985   5.997   5.680   0.177 -1.1659 -0.0114 -1.0692
 5053SOL    MW419986   5.955   5.665   0.252 -0.3132 -0.4208  0.2098
 5054SOL     OW19987   0.468   0.425   1.966 -0.3046 -0.1185  0.0863
 5054SOL    HW219988   0.441   0.371   1.891  1.1028 -1.0148  0.1886
 5054SOL    HW319989   0.465   0.365   2.040  0.1463  0.2587  0.4109
 5054SOL    MW419990   0.464   0.410   1.966  0.0235  0.4546 -0.0124
 5055SOL     OW19991   0.327   0.685   0.265 -0.1535  0.1933 -0.0333
 5055SOL    HW219992   0.232   0.683   0.279 -0.2661  1.1987 -0.5222
 5055SOL    HW319993   0.365   0.652   0.346 -0.9088  0.4773  0.4458
 5055SOL    MW419994   0.319   0.681   0.277  0.3349 -0.1561  0.0847
 5056SOL     OW19995   2.873   0.330   2.457 -0.0425  0.1478 -0.0533
 5056SOL    HW219996   2.900   0.360   2.544  0.1665 -0.0501 -0.0504
 5056SOL    HW319997   2.824   0.249   2.474  0.1009  0.0447 -0.1293
 5056SOL    MW419998   2.870   0.323   2.471  0.4505  0.5249  0.1919
 5057SOL     OW19999   2.044   2.475   0.405  0.2772 -0.3917  0.3370
 5057SOL    HW220000   2.124   2.449   0.358  1.2394  0.6842  1.3187
 5057SOL    HW320001   2.023   2.562   0.369 -1.8205 -1.5758 -1.5614
 5057SOL    MW420002   2.052   2.483   0.394 -0.2078 -0.8140 -0.1625
 5058SOL     OW20003   6.110   4.529   2.159 -0.3287 -0.2736  0.0934
 5058SOL    HW220004   6.104   4.444   2.204  0.1700  0.3771  1.4603
 5058SOL    HW320005   6.053   4.586   2.210 -1.9649 -0.1388 -1.7876
 5058SOL    MW420006   6.102   4.525   2.172 -0.2976 -0.3284 -0.6782
 5059SOL     OW20007   5.287   2.666   2.245 -0.3148 -0.3859  0.5045
 5059SOL    HW220008   5.289   2.633   2.155  1.2873  0.4416  0.1842
 5059SOL    HW320009   5.246   2.752   2.237 -1.2657 -0.8108  0.7666
 5059SOL    MW420010   5.282   2.673   2.232 -0.0876  0.9783  0.1823
 5060SOL     OW20011   1.650   2.359   1.464  0.5653  0.4278 -0.2982
 5060SOL    HW220012   1.713   2.381   1.533 -1.8437  2.5258  1.4550
 5060SOL    HW320013   1.609   2.278   1.493  0.4119  0.6621  0.1563
 5060SOL    MW420014   1.653   2.352   1.477  0.4145  0.0661  0.0139
 5061SOL     OW20015   0.939   5.402   4.181 -0.0379 -0.4609 -0.9601
 5061SOL    HW220016   0.998   5.329   4.199 -1.0544 -1.1971 -0.4971
 5061SOL    HW320017   0.922   5.440   4.267 -0.1039 -0.1523 -1.1105
 5061SOL    MW420018   0.944   5.397   4.195  0.1474  0.1575  0.7444
 5062SOL     OW20019   1.849   5.067   5.071  0.0585 -0.2290 -0.0161
 5062SOL    HW220020   1.917   5.039   5.132  0.6197  1.9677  0.4456
 5062SOL    HW320021   1.896   5.090   4.991 -0.2541  0.2302 -0.0721
 5062SOL    MW420022   1.864   5.066   5.069  0.2192 -0.5207 -0.5818
 5063SOL     OW20023   4.120   5.553   3.061  0.1653  0.0361 -0.2908
 5063SOL    HW220024   4.090   5.551   2.970  0.5664 -2.0659 -0.4209
 5063SOL    HW320025   4.040   5.545   3.112  0.0278  0.1950 -0.4773
 5063SOL    MW420026   4.106   5.552   3.055 -0.2002 -0.1351 -0.1768
 5064SOL     OW20027   6.171   1.525   0.794  0.1646 -0.0738  0.3206
 5064SOL    HW220028   6.225   1.579   0.850 -1.1560  2.3841 -0.6492
 5064SOL    HW320029   6.220   1.518   0.712 -0.1888  0.7187  0.0311
 5064SOL    MW420030   6.185   1.531   0.790 -0.2971 -0.5350  0.7575
 5065SOL     OW20031   1.111   1.418   3.116 -0.5746 -0.2515 -0.0014
 5065SOL    HW220032   1.122   1.350   3.183 -0.2337 -0.2403 -0.0401
 5065SOL    HW320033   1.198   1.426   3.077 -0.4088  0.7772  0.5515
 5065SOL    MW420034   1.124   1.410   3.120  0.3789 -0.2732 -0.4577
 5066SOL     OW20035   2.302   3.601   6.061  0.4219 -0.4333  0.8687
 5066SOL    HW220036   2.395   3.619   6.075  0.5038 -0.9866  1.0573
 5066SOL    HW320037   2.296   3.574   5.970  0.2798  0.6187  0.5457
 5066SOL    MW420038   2.313   3.600   6.051  0.2833  0.1974  0.0941
 5067SOL     OW20039   5.744   2.653   3.920 -0.0790  0.3437 -0.5409
 5067SOL    HW220040   5.704   2.592   3.859 -0.8519 -0.2145  0.4918
 5067SOL    HW320041   5.703   2.737   3.901  1.0718  0.6083 -2.0436
 5067SOL    MW420042   5.733   2.656   3.910 -0.0599 -0.2846 -0.3134
 5068SOL     OW20043   5.553   3.185   5.618 -0.3958 -0.3116  0.1542
 5068SOL    HW220044   5.634   3.182   5.668  0.3140 -0.7652 -0.9918
 5068SOL    HW320045   5.568   3.127   5.544 -2.2790 -1.5559  0.6558
 5068SOL    MW420046   5.565   3.177   5.615 -0.4799  0.3243 -0.0448
 5069SOL     OW20047   2.035   0.034   4.597 -0.1421 -0.5359 -0.1816
 5069SOL    HW220048   2.093   0.069   4.530  0.1306  2.3310  1.4143
 5069SOL    HW320049   2.030   0.102   4.663 -4.7389 -0.9094  0.2019
 5069SOL    MW420050   2.042   0.047   4.597 -0.5666  0.2391  0.6077
 5070SOL     OW20051   2.621   0.581   2.095  0.1809  0.1730  1.0230
 5070SOL    HW220052   2.609   0.671   2.126  0.3882  1.0368 -1.2114
 5070SOL    HW320053   2.532   0.546   2.088  0.0625  0.3989  1.3742
 5070SOL    MW420054   2.608   0.589   2.098  0.1660  0.2665  0.3658
 5071SOL     OW20055   4.025   2.773   0.648  0.6083  0.0697  0.6432
 5071SOL    HW220056   4.060   2.850   0.693 -1.9596  1.9610 -0.3262
 5071SOL    HW320057   3.995   2.807   0.563 -0.4419 -2.0401  0.1063
 5071SOL    MW420058   4.025   2.788   0.642  0.1766 -0.4012 -0.1597
 5072SOL     OW20059   1.142   4.115   2.800  0.0056  0.2979 -0.4150
 5072SOL    HW220060   1.088   4.132   2.722 -0.1087  2.0063  0.0042
 5072SOL    HW320061   1.088   4.056   2.853 -0.9728  1.0461 -0.5381
 5072SOL    MW420062   1.128   4.109   2.797  0.2231  0.0186 -0.2278
 5073SOL     OW20063   4.033   4.582   5.021 -0.0728  0.0046  0.6045
 5073SOL    HW220064   3.964   4.586   4.954 -0.4859 -0.0487  1.0168
 5073SOL    HW320065   4.113   4.564   4.973 -0.4374 -0.4553  0.1657
 5073SOL    MW420066   4.034   4.580   5.006 -0.0144 -0.5843  0.4016
 5074SOL     OW20067   0.017   6.379   1.023 -0.2755  0.2346  0.1103
 5074SOL    HW220068   0.103   6.356   0.989 -0.3644  0.3226 -0.1728
 5074SOL    HW320069   0.018   6.347   1.114  0.2689  0.7800  0.2967
 5074SOL    MW420070   0.028   6.371   1.031  0.3097  0.3375  0.1203
 5075SOL     OW20071   3.097   4.167   1.132  0.0073 -0.1906  0.3953
 5075SOL    HW220072   3.098   4.261   1.148  0.4571 -0.1609  0.2250
 5075SOL    HW320073   3.025   4.134   1.185  0.2645  0.1615  0.9725
 5075SOL    MW420074   3.088   4.175   1.141 -0.2700  0.4044  0.4224
 5076SOL     OW20075   4.391   0.031   0.643  0.2624 -0.0119  0.2444
 5076SOL    HW220076   4.303   0.003   0.670 -0.5164  1.6798 -0.3628
 5076SOL    HW320077   4.417  -0.033   0.576 -0.2102 -0.9202  0.9090
 5076SOL    MW420078   4.383   0.019   0.637 -0.3339  0.1781  0.7486
 5077SOL     OW20079   2.742   2.629   2.513  0.2805  0.1395 -0.2062
 5077SOL    HW220080   2.766   2.578   2.591 -1.5689  1.9884  1.7335
 5077SOL    HW320081   2.725   2.564   2.446  2.0500 -1.5486  0.8701
 5077SOL    MW420082   2.743   2.614   2.515  0.3812 -0.2096 -0.4779
 5078SOL     OW20083   0.689   0.955   4.874  0.2380 -0.3438 -0.1710
 5078SOL    HW220084   0.748   0.879   4.869  0.0771 -0.3844 -3.5832
 5078SOL    HW320085   0.601   0.918   4.867  0.1266  0.0603 -1.0795
 5078SOL    MW420086   0.685   0.940   4.872  0.4273  0.2456  0.0673
 5079SOL     OW20087   1.077   6.330   6.359 -0.3754  0.1694 -0.0656
 5079SOL    HW220088   1.000   6.292   6.401  0.1243 -0.3391  0.4101
 5079SOL    HW320089   1.122   6.256   6.319 -0.2131  0.4839 -0.4762
 5079SOL    MW420090   1.073   6.315   6.359 -0.8529  0.1832 -0.0196
 5080SOL     OW20091   2.256   1.104   4.006  0.7972 -0.0933  0.1371
 5080SOL    HW220092   2.227   1.013   3.995  1.5221 -0.3591  0.3794
 5080SOL    HW320093   2.323   1.100   4.074  0.8964  0.6158  0.0864
 5080SOL    MW420094   2.261   1.091   4.013  0.2300  0.1593 -0.1525
 5081SOL     OW20095   0.185   2.410   1.858 -0.4171  0.4357 -0.6214
 5081SOL    HW220096   0.112   2.436   1.801 -1.4746 -0.9912  0.0277
 5081SOL    HW320097   0.146   2.405   1.945  0.8102  1.0179 -0.0259
 5081SOL    MW420098   0.170   2.413   1.862  0.2948 -0.5917  0.1157
 5082SOL     OW20099   0.674   0.502   1.279  0.3923 -0.5769  0.0522
 5082SOL    HW220100   0.712   0.440   1.341  3.3955  0.0608 -0.9551
 5082SOL    HW320101   0.655   0.449   1.201  0.1403 -0.7359  0.2216
 5082SOL    MW420102   0.677   0.486   1.277 -0.2988  0.0972  0.0698
 5083SOL     OW20103   2.246   5.811   4.749 -0.2818  0.6014  0.2575
 5083SOL    HW220104   2.339   5.828   4.736 -0.5609  0.8535 -1.8153
 5083SOL    HW320105   2.234   5.720   4.719 -0.8452  0.9179 -0.5305
 5083SOL    MW420106   2.257   5.801   4.743  0.4398  0.2577  0.1439
 5084SOL     OW20107   4.017   3.663   1.336 -0.1791  0.7279  0.0769
 5084SOL    HW220108   3.934   3.627   1.367  0.7015  0.5743  2.5477
 5084SOL    HW320109   4.037   3.614   1.256 -1.5065 -0.6248  0.5237
 5084SOL    MW420110   4.009   3.652   1.330  0.4221 -0.2724 -0.3423
 5085SOL     OW20111   3.035   1.304   1.817  0.2525 -0.8884 -0.8180
 5085SOL    HW220112   3.069   1.321   1.905 -1.5683 -2.1316  0.1808
 5085SOL    HW320113   3.050   1.211   1.803  0.7587 -0.6434 -1.9409
 5085SOL    MW420114   3.041   1.294   1.827  0.3706  0.1916  0.3751
 5086SOL     OW20115   3.229   3.782   1.940  0.6438  0.2135  0.2771
 5086SOL    HW220116   3.177   3.731   2.002 -0.5648  0.0850 -0.8184
 5086SOL    HW320117   3.165   3.830   1.887  1.5407 -0.8717 -1.9221
 5086SOL    MW420118   3.214   3.782   1.941  0.4024 -0.5813  0.6237
 5087SOL     OW20119   6.004   1.758   4.928  0.6140  0.3766  0.2180
 5087SOL    HW220120   6.055   1.679   4.943  0.4966  0.0069 -1.2070
 5087SOL    HW320121   5.933   1.730   4.869  0.6894  1.5724 -0.4779
 5087SOL    MW420122   6.001   1.744   4.922 -0.1711  0.3903 -0.2260
 5088SOL     OW20123   4.797   3.568   0.347 -0.2110  0.5703  0.3003
 5088SOL    HW220124   4.839   3.651   0.368 -0.3619  0.3030  1.7801
 5088SOL    HW320125   4.736   3.553   0.419  0.3497 -1.1636  0.4727
 5088SOL    MW420126   4.795   3.577   0.359  0.3582 -0.0675 -0.0314
 5089SOL     OW20127   1.565   2.296   0.087  0.4159  0.1222 -0.1461
 5089SOL    HW220128   1.613   2.278   0.007  1.4934  1.9981  0.0162
 5089SOL    HW320129   1.633   2.314   0.152 -0.4607  0.3810  0.7266
 5089SOL    MW420130   1.581   2.296   0.085  0.0520  0.7474  0.0080
 5090SOL     OW20131   0.943   2.591   0.233  0.1536  0.6236  0.2261
 5090SOL    HW220132   0.912   2.645   0.161 -0.5150 -1.1520 -0.8672
 5090SOL    HW320133   1.025   2.552   0.201  1.8655  2.6268  1.8320
 5090SOL    MW420134   0.950   2.593   0.219 -0.3956 -0.9369  0.2569
 5091SOL     OW20135   6.095   2.073   4.160 -0.7377  0.2016  0.8609
 5091SOL    HW220136   6.086   2.145   4.098 -0.5366 -0.7439 -0.2944
 5091SOL    HW320137   6.081   2.113   4.246 -0.7660  1.5793  0.2305
 5091SOL    MW420138   6.092   2.087   4.163 -0.2736 -0.0889  0.3048
 5092SOL     OW20139   5.434   3.009   5.186 -0.1183  0.3612 -0.7056
 5092SOL    HW220140   5.418   2.925   5.143 -0.2006 -0.1356  0.2624
 5092SOL    HW320141   5.347   3.039   5.212  0.1108 -0.4508  1.1085
 5092SOL    MW420142   5.420   3.002   5.184  0.8031  0.0812  0.4965
 5093SOL     OW20143   4.051   1.122   0.233  0.3901 -0.3611 -0.3272
 5093SOL    HW220144   4.051   1.201   0.288  1.6231 -1.1056  0.8149
 5093SOL    HW320145   4.115   1.141   0.164 -1.0096  0.4953 -1.4446
 5093SOL    MW420146   4.059   1.135   0.231 -0.7272 -0.3500  0.0926
 5094SOL     OW20147   0.187   3.736   5.913 -0.6433  0.6514 -0.1075
 5094SOL    HW220148   0.242   3.814   5.904 -0.6774  0.5518 -1.2826
 5094SOL    HW320149   0.193   3.692   5.829 -1.9548  0.2636 -0.0212
 5094SOL    MW420150   0.195   3.741   5.901  0.0477  0.3589 -0.0144
 5095SOL     OW20151   0.600   6.347   2.129  0.5375  0.1005 -0.0677
 5095SOL    HW220152   0.670   6.328   2.066  0.8729  0.4769  0.1875
 5095SOL    HW320153   0.522   6.306   2.091  0.8975 -0.3405 -0.3467
 5095SOL    MW420154   0.599   6.339   2.116  0.1037  0.4228 -0.6109
 5096SOL     OW20155   2.767   0.747   1.095  0.3392 -0.1226 -0.2120
 5096SOL    HW220156   2.674   0.770   1.089 -0.4048 -2.6583  0.4191
 5096SOL    HW320157   2.812   0.831   1.104 -1.8396  1.2006 -0.8998
 5096SOL    MW420158   2.760   0.761   1.096  0.4104 -0.1234 -0.2562
 5097SOL     OW20159   2.036   0.832   2.756  0.3036 -0.0230  0.5878
 5097SOL    HW220160   2.125   0.824   2.792  0.9896 -2.5072 -1.3591
 5097SOL    HW320161   2.048   0.877   2.672 -0.7197  1.9395  1.4055
 5097SOL    MW420162   2.049   0.837   2.749 -0.3808 -0.1878 -0.2575
 5098SOL     OW20163   4.082   0.904   2.826  0.3686  0.2717 -0.1537
 5098SOL    HW220164   4.124   0.987   2.848  0.2995  0.2077  0.2234
 5098SOL    HW320165   4.071   0.907   2.731  0.1141  0.8139 -0.1110
 5098SOL    MW420166   4.086   0.916   2.817  0.3187  0.2554  0.2475
 5099SOL     OW20167   1.543   3.931   5.934 -0.1510  0.1026  0.6784
 5099SOL    HW220168   1.452   3.960   5.932  0.1587  1.2030  1.5246
 5099SOL    HW320169   1.576   3.960   6.020  0.8850 -0.6005  0.5361
 5099SOL    MW420170   1.536   3.939   5.945 -0.1300 -0.1774 -0.3459
 5100SOL     OW20171   0.366   0.013   5.364  0.1859 -0.0260 -0.3236
 5100SOL    HW220172   0.420  -0.065   5.353  0.2259 -0.3114  1.6988
 5100SOL    HW320173   0.294   0.001   5.302  1.0969 -0.8256 -1.2617
 5100SOL    MW420174   0.364   0.001   5.354  0.2409 -0.6437 -0.2515
 5101SOL     OW20175   1.510   5.281   2.240 -0.0738  0.3618 -0.4795
 5101SOL    HW220176   1.582   5.294   2.179  1.2342 -2.7030  0.2341
 5101SOL    HW320177   1.551   5.271   2.326 -1.7633  3.1009  0.7961
 5101SOL    MW420178   1.525   5.281   2.244 -0.0731  0.1002 -0.2494
 5102SOL     OW20179   5.293   5.927   5.555 -0.1274 -0.0390  0.0828
 5102SOL    HW220180   5.271   5.896   5.643  2.7863  1.9261  1.6758
 5102SOL    HW320181   5.369   5.875   5.529 -0.5762 -0.1625 -1.0534
 5102SOL    MW420182   5.300   5.916   5.563 -0.4306 -0.0319 -0.5738
 5103SOL     OW20183   0.777   5.670   1.142  0.1411 -0.2930  0.4962
 5103SOL    HW220184   0.796   5.730   1.069 -2.0295 -1.0799 -0.8175
 5103SOL    HW320185   0.740   5.593   1.099 -0.8253 -0.9484  2.4409
 5103SOL    MW420186   0.775   5.668   1.126 -0.1287  0.1448 -0.3764
 5104SOL     OW20187   5.365   0.794   4.446 -0.0588  0.3033 -0.2324
 5104SOL    HW220188   5.395   0.711   4.483 -0.8442 -0.1752 -0.6525
 5104SOL    HW320189   5.303   0.769   4.377  0.9776  1.1889 -1.5339
 5104SOL    MW420190   5.361   0.780   4.442  0.1547 -0.1402 -0.1807
 5105SOL     OW20191   2.374   5.866   5.258  0.2361  0.2132 -0.5882
 5105SOL    HW220192   2.324   5.827   5.187  1.9473  0.3258 -1.9233
 5105SOL    HW320193   2.390   5.794   5.319  0.9255 -0.5107 -1.6082
 5105SOL    MW420194   2.370   5.852   5.257  0.2169 -0.2039  0.8014
 5106SOL     OW20195   1.495   0.772   4.527  0.0943  0.0274  0.9334
 5106SOL    HW220196   1.587   0.746   4.516 -0.5806 -1.6987 -1.2195
 5106SOL    HW320197   1.453   0.695   4.565 -1.3879 -1.2792 -2.9160
 5106SOL    MW420198   1.502   0.758   4.531 -0.2712 -0.1449  0.0179
 5107SOL     OW20199   1.563   3.420   4.398  0.3355 -0.0833  0.8027
 5107SOL    HW220200   1.626   3.379   4.339 -0.1054 -0.2657  0.4490
 5107SOL    HW320201   1.605   3.500   4.427  0.8095 -0.3052  0.7295
 5107SOL    MW420202   1.577   3.425   4.394  0.6878 -0.6210 -0.2903
 5108SOL     OW20203   5.108   2.448   5.859 -0.5215  0.1846 -0.0020
 5108SOL    HW220204   5.173   2.417   5.921  0.2113  0.4550 -0.6096
 5108SOL    HW320205   5.121   2.393   5.781  0.0527  1.2453 -0.6889
 5108SOL    MW420206   5.118   2.437   5.857 -0.3779  0.0174  0.4265
 5109SOL     OW20207   4.000   1.352   1.135 -0.1109  0.1910 -0.2077
 5109SOL    HW220208   3.924   1.409   1.129  0.2798  0.8622  0.8658
 5109SOL    HW320209   4.021   1.329   1.045 -1.0162  0.7505 -0.5706
 5109SOL    MW420210   3.992   1.356   1.122 -0.6477  0.4034 -0.3472
 5110SOL     OW20211   6.163   3.176   3.545  0.9212  0.3181 -0.5734
 5110SOL    HW220212   6.218   3.101   3.521 -1.5390 -0.7012 -3.8869
 5110SOL    HW320213   6.100   3.141   3.608  1.6266  0.4341  0.2029
 5110SOL    MW420214   6.162   3.162   3.550  0.0427 -0.0983  0.3704
 5111SOL     OW20215   2.085   6.142   1.723 -0.2113 -0.1248 -0.0352
 5111SOL    HW220216   2.000   6.166   1.760  0.0492  2.2125 -0.8291
 5111SOL    HW320217   2.144   6.212   1.749  0.8125 -0.2613 -1.8122
 5111SOL    MW420218   2.081   6.154   1.731 -0.0447 -0.1122  0.1084
 5112SOL     OW20219   6.335   0.891   5.210  0.2797 -0.3890  0.6005
 5112SOL    HW220220   6.422   0.890   5.170  0.5809  2.1031  1.0292
 5112SOL    HW320221   6.345   0.946   5.287 -1.8933  0.8142  0.1015
 5112SOL    MW420222   6.348   0.898   5.215 -0.1662 -0.2113 -0.0740
 5113SOL     OW20223   2.215   0.272   5.626 -0.0329  0.0185  0.4566
 5113SOL    HW220224   2.165   0.336   5.574  0.1759  0.5512  0.9002
 5113SOL    HW320225   2.153   0.240   5.691 -0.2055 -0.4191  0.0875
 5113SOL    MW420226   2.200   0.277   5.627 -0.2269 -0.2415  0.1808
 5114SOL     OW20227   5.622   1.748   0.459 -0.0677  0.5107  0.3338
 5114SOL    HW220228   5.669   1.705   0.531 -0.7080  0.9207  1.0174
 5114SOL    HW320229   5.691   1.779   0.401  0.4297 -0.7835  0.1954
 5114SOL    MW420230   5.637   1.747   0.461 -0.6444 -0.3582 -0.3151
 5115SOL     OW20231   4.625   0.575   2.687 -0.3080 -0.4842 -0.2877
 5115SOL    HW220232   4.654   0.577   2.595  0.6000  1.8945 -0.0372
 5115SOL    HW320233   4.593   0.486   2.700  1.0277 -1.3841 -2.4605
 5115SOL    MW420234   4.625   0.564   2.677 -0.1576  0.1426  0.0349
 5116SOL     OW20235   2.499   0.843   4.597  0.4759  0.1976  0.2326
 5116SOL    HW220236   2.505   0.848   4.693 -0.4205  0.1577  0.3025
 5116SOL    HW320237   2.443   0.767   4.581 -3.7372  3.0733 -0.1167
 5116SOL    MW420238   2.492   0.834   4.608  0.0967  0.0871  0.2125
 5117SOL     OW20239   1.747   3.304   5.007  0.2116  0.2587  0.5454
 5117SOL    HW220240   1.823   3.362   4.998  0.5452 -0.2959 -0.4934
 5117SOL    HW320241   1.704   3.308   4.921  0.3099 -1.1059  0.4098
 5117SOL    MW420242   1.751   3.312   4.994 -0.3610 -0.1657  0.1078
 5118SOL     OW20243   1.182   0.928   6.230  0.2134  0.1549 -0.7023
 5118SOL    HW220244   1.089   0.949   6.232  0.3249  0.6323  0.2796
 5118SOL    HW320245   1.225   1.012   6.217  0.5222 -0.0040 -0.7140
 5118SOL    MW420246   1.175   0.942   6.228 -0.4311 -0.1504  0.5836
 5119SOL     OW20247   0.253   3.475   0.999  0.0987 -0.0590  0.2326
 5119SOL    HW220248   0.258   3.521   1.082  1.3674 -0.1342  0.2188
 5119SOL    HW320249   0.159   3.466   0.981 -0.1743  1.3509  0.8666
 5119SOL    MW420250   0.241   3.480   1.007  0.2605 -0.2499 -0.2617
 5120SOL     OW20251   5.560   3.310   1.727  0.7824 -0.6746  0.3097
 5120SOL    HW220252   5.645   3.332   1.765  1.0353 -0.7829 -0.1882
 5120SOL    HW320253   5.578   3.238   1.667  0.0726 -1.8215  1.4197
 5120SOL    MW420254   5.574   3.304   1.724  0.1857 -0.0277 -0.1738
 5121SOL     OW20255   3.300   3.654   3.248 -0.4688  0.1994  0.4322
 5121SOL    HW220256   3.223   3.701   3.215 -0.8216 -0.5183  0.2097
 5121SOL    HW320257   3.375   3.707   3.220 -0.8581  0.6055  0.1552
 5121SOL    MW420258   3.300   3.667   3.240  0.2631 -0.0982 -0.7678
 5122SOL     OW20259   2.598   4.053   5.144 -0.2517 -0.3797  0.1171
 5122SOL    HW220260   2.526   4.103   5.184 -0.2724 -1.0369  0.9265
 5122SOL    HW320261   2.677   4.101   5.169 -0.0381 -1.9544  2.9680
 5122SOL    MW420262   2.599   4.066   5.153 -0.9211 -0.1562 -0.1114
 5123SOL     OW20263   5.943   0.863   4.676 -0.1232  0.2995 -0.5028
 5123SOL    HW220264   5.952   0.854   4.771 -0.0386  1.3676 -0.3967
 5123SOL    HW320265   5.983   0.948   4.656 -0.9178  0.4832 -1.3770
 5123SOL    MW420266   5.950   0.873   4.686  0.0810  0.3437 -0.0490
 5124SOL     OW20267   2.405   6.156   2.663 -0.4927  0.3339  0.0188
 5124SOL    HW220268   2.477   6.141   2.602 -0.5793  1.2370 -0.3291
 5124SOL    HW320269   2.345   6.214   2.615 -1.3843 -0.2920  0.3560
 5124SOL    MW420270   2.406   6.162   2.648  0.5800 -0.7313 -0.7031
 5125SOL     OW20271   1.580   2.713   4.424 -0.1158 -0.0994  0.0104
 5125SOL    HW220272   1.564   2.792   4.476 -0.0879 -1.3235  1.9757
 5125SOL    HW320273   1.670   2.721   4.395  0.9484 -0.7962  2.8486
 5125SOL    MW420274   1.589   2.724   4.427  0.1182 -0.2513  0.0568
 5126SOL     OW20275   1.308   3.464   0.451 -0.6743  0.4710 -0.4895
 5126SOL    HW220276   1.392   3.477   0.407  0.3093 -0.5551  0.9779
 5126SOL    HW320277   1.261   3.401   0.396  0.9894 -1.6655  0.4336
 5126SOL    MW420278   1.313   3.457   0.438  0.1431  0.1345 -0.2842
 5127SOL     OW20279   1.815   0.223   1.522  0.6131 -0.0609 -0.2318
 5127SOL    HW220280   1.820   0.316   1.500  0.8587 -0.2993 -1.2061
 5127SOL    HW320281   1.747   0.219   1.589 -1.5750  0.4783 -2.2705
 5127SOL    MW420282   1.806   0.235   1.528 -0.3941  0.4731 -0.1935
 5128SOL     OW20283   0.407   3.193   3.520 -0.8267 -0.4060  0.2666
 5128SOL    HW220284   0.348   3.268   3.513  0.1336  0.2969 -0.7121
 5128SOL    HW320285   0.349   3.117   3.518 -1.8822  0.3001  2.0555
 5128SOL    MW420286   0.392   3.193   3.519  0.4693 -0.2845 -0.2631
 5129SOL     OW20287   3.029   2.946   0.809  0.0365  0.6038  0.1719
 5129SOL    HW220288   3.117   2.929   0.774 -0.0955 -0.1302  0.1834
 5129SOL    HW320289   2.992   3.010   0.748  0.9601  1.7502  0.7738
 5129SOL    MW420290   3.036   2.952   0.796  0.2918  0.2010  0.1077
 5130SOL     OW20291   4.961   2.245   3.709 -0.1412  0.4824 -0.2189
 5130SOL    HW220292   4.989   2.193   3.634  2.2287  0.4882  0.6037
 5130SOL    HW320293   4.902   2.186   3.757 -1.3996  0.3570 -1.8201
 5130SOL    MW420294   4.957   2.230   3.706  0.3007  0.3977 -0.3260
 5131SOL     OW20295   2.694   4.822   4.449 -0.3965 -0.0110 -0.0812
 5131SOL    HW220296   2.756   4.759   4.486  0.0462  1.4029  1.7334
 5131SOL    HW320297   2.717   4.827   4.356  1.1377 -0.6960  0.2384
 5131SOL    MW420298   2.705   4.814   4.442 -0.5759 -0.3034  0.4059
 5132SOL     OW20299   3.611   3.896   6.098  0.0973 -0.3358 -0.0382
 5132SOL    HW220300   3.640   3.962   6.160  0.4867 -0.6210  0.0857
 5132SOL    HW320301   3.518   3.916   6.084 -0.1254 -0.5558  1.0101
 5132SOL    MW420302   3.602   3.907   6.104 -0.2062  0.1627 -0.1753
 5133SOL     OW20303   3.938   5.837   1.416 -0.1436 -0.5848 -0.1526
 5133SOL    HW220304   3.966   5.846   1.325  0.2554 -0.4027 -0.0131
 5133SOL    HW320305   4.011   5.871   1.467 -1.8192  2.9368  0.1443
 5133SOL    MW420306   3.951   5.842   1.411 -0.3066  0.3631  0.2976
 5134SOL     OW20307   3.035   5.260   2.284  0.0399 -0.0678 -0.2998
 5134SOL    HW220308   3.025   5.335   2.342 -4.1064 -0.7582  0.1957
 5134SOL    HW320309   3.083   5.294   2.209 -0.7588  2.8194  0.3814
 5134SOL    MW420310   3.040   5.274   2.282 -0.2090  0.2045 -0.5101
 5135SOL     OW20311   0.973   1.475   2.861  0.1891  0.1460  0.5648
 5135SOL    HW220312   1.035   1.480   2.933 -0.3449 -0.8447  1.1241
 5135SOL    HW320313   0.887   1.475   2.904 -0.1213 -1.1348  0.0065
 5135SOL    MW420314   0.970   1.476   2.876 -0.1621  0.5669 -0.4954
 5136SOL     OW20315   4.919   3.114   1.382 -0.1886  0.0941 -0.7932
 5136SOL    HW220316   4.941   3.185   1.322 -3.0926  1.2611 -0.6694
 5136SOL    HW320317   4.919   3.156   1.469 -1.1080 -0.2291 -0.6229
 5136SOL    MW420318   4.922   3.129   1.386  0.4660  0.1873  0.1199
 5137SOL     OW20319   2.342   0.064   1.897 -0.0495 -0.0038 -0.6125
 5137SOL    HW220320   2.339   0.000   1.968 -0.3642  1.7298  1.0185
 5137SOL    HW320321   2.266   0.121   1.913 -0.3779  0.1765 -2.6085
 5137SOL    MW420322   2.331   0.063   1.909 -0.4384 -0.1951 -0.4773
 5138SOL     OW20323   4.888   5.155   5.764 -0.2625 -0.0116  0.4945
 5138SOL    HW220324   4.973   5.198   5.761  0.1621 -0.7578  1.3663
 5138SOL    HW320325   4.835   5.202   5.699  1.0970 -0.1693 -0.7890
 5138SOL    MW420326   4.892   5.167   5.755  0.1667  0.0925 -0.3532
 5139SOL     OW20327   4.367   5.704   1.263  0.5038 -0.6518  0.7407
 5139SOL    HW220328   4.400   5.669   1.180 -0.8384 -0.5996  0.1566
 5139SOL    HW320329   4.345   5.627   1.315 -2.9116 -0.8553 -0.7307
 5139SOL    MW420330   4.368   5.690   1.259 -0.0110 -0.5911  0.5107
 5140SOL     OW20331   2.322   5.226   5.674  0.3741 -0.1304  0.1572
 5140SOL    HW220332   2.396   5.263   5.626  0.8040 -2.4268 -1.0790
 5140SOL    HW320333   2.249   5.286   5.656  1.6122  1.5916  0.5420
 5140SOL    MW420334   2.322   5.239   5.665  0.4138 -0.2226  0.5274
 5141SOL     OW20335   3.017   3.595   5.914  0.2708 -0.0639 -0.8443
 5141SOL    HW220336   2.999   3.685   5.940 -0.3859 -0.2159 -0.7496
 5141SOL    HW320337   3.049   3.553   5.994 -2.6983 -0.7934  0.0819
 5141SOL    MW420338   3.019   3.601   5.928  0.2169  0.5501 -0.1576
 5142SOL     OW20339   4.127   5.480   5.058 -0.2678  0.4783 -0.0906
 5142SOL    HW220340   4.063   5.524   5.003 -2.4464 -2.6044 -0.3335
 5142SOL    HW320341   4.202   5.465   5.001 -0.5523  1.5265 -0.7529
 5142SOL    MW420342   4.129   5.484   5.043  0.1917  0.6589  0.1530
 5143SOL     OW20343   2.842   2.236   0.091  0.6496 -0.3562  0.4691
 5143SOL    HW220344   2.925   2.283   0.095  1.5603 -1.8879  0.2089
 5143SOL    HW320345   2.808   2.255   0.004  1.2206 -0.5182  0.2067
 5143SOL    MW420346   2.848   2.245   0.080 -0.1051 -0.1713 -0.3975
 5144SOL     OW20347   1.766   1.011   1.847 -0.2319 -0.2384  0.1581
 5144SOL    HW220348   1.779   0.944   1.914  2.4140 -0.8308 -0.8046
 5144SOL    HW320349   1.855   1.032   1.816 -1.0073  3.1520 -0.1722
 5144SOL    MW420350   1.780   1.005   1.852  0.6184  0.0058  0.1347
 5145SOL     OW20351   5.011   4.716   3.812 -0.1575  0.1794 -0.0207
 5145SOL    HW220352   4.996   4.788   3.752 -2.0059 -0.0814  0.0795
 5145SOL    HW320353   5.019   4.639   3.756  1.0117  0.3171 -0.0748
 5145SOL    MW420354   5.010   4.715   3.797 -0.0104  0.0501  0.3731
 5146SOL     OW20355   3.377   2.826   1.166  0.0689  0.3529  0.1845
 5146SOL    HW220356   3.382   2.860   1.077  0.2074 -1.4050 -0.5290
 5146SOL    HW320357   3.343   2.737   1.156 -0.0166  0.1499  1.9029
 5146SOL    MW420358   3.373   2.818   1.153 -0.2838 -0.1815  0.0153
 5147SOL     OW20359   3.193   4.007   3.369 -0.1022 -0.0412 -0.1378
 5147SOL    HW220360   3.239   4.036   3.290  0.0875  1.3611  0.4556
 5147SOL    HW320361   3.108   4.050   3.364 -0.4043 -0.6240  0.0072
 5147SOL    MW420362   3.188   4.016   3.358  0.1023  0.4481  0.2691
 5148SOL     OW20363   1.549   1.807   0.162 -0.7759 -0.1118 -0.1582
 5148SOL    HW220364   1.492   1.793   0.086 -2.2796  0.3488  0.8422
 5148SOL    HW320365   1.519   1.890   0.199  1.0751  0.5432 -0.0090
 5148SOL    MW420366   1.537   1.816   0.157  0.5002 -0.2739 -0.0545
 5149SOL     OW20367   3.396   0.509   0.155 -0.0538 -0.0224  0.0758
 5149SOL    HW220368   3.447   0.560   0.093 -1.4646  1.7814  0.3186
 5149SOL    HW320369   3.316   0.486   0.107  0.6595 -2.3304 -0.1247
 5149SOL    MW420370   3.392   0.513   0.140 -0.4991  0.2814 -0.3990
 5150SOL     OW20371   2.340   3.801   1.989 -0.2781  0.4593 -0.5828
 5150SOL    HW220372   2.417   3.772   2.038 -0.4600 -0.5273 -0.8566
 5150SOL    HW320373   2.345   3.896   1.991 -0.3948  0.4764  1.5371
 5150SOL    MW420374   2.351   3.810   1.996 -0.0838  0.7440 -0.1850
 5151SOL     OW20375   4.922   4.160   0.757  0.2889 -0.1521 -0.2635
 5151SOL    HW220376   4.919   4.115   0.673  1.4595 -3.1450  1.1446
 5151SOL    HW320377   5.010   4.141   0.791 -0.7638 -0.6486  2.4268
 5151SOL    MW420378   4.933   4.152   0.751  0.1012 -0.4450  0.6263
 5152SOL     OW20379   5.163   6.232   0.625  0.4034 -0.1732 -0.2938
 5152SOL    HW220380   5.195   6.309   0.578 -1.4136  0.8024 -0.0663
 5152SOL    HW320381   5.144   6.265   0.713 -1.3400 -0.5978 -0.4795
 5152SOL    MW420382   5.164   6.246   0.631  0.1550 -0.0599  0.9362
 5153SOL     OW20383   1.857   0.918   2.979  0.6720  0.4674 -0.1258
 5153SOL    HW220384   1.898   0.882   2.901  0.2218 -1.6163  0.5408
 5153SOL    HW320385   1.864   0.849   3.045 -1.8375  0.8860  0.7008
 5153SOL    MW420386   1.863   0.904   2.978 -0.5590  0.4626  0.1321
 5154SOL     OW20387   2.964   1.695   5.842  0.0738 -0.3147 -0.3442
 5154SOL    HW220388   2.910   1.770   5.865 -0.3181 -0.3831 -1.0195
 5154SOL    HW320389   3.053   1.720   5.869  0.1230  0.8141 -1.5003
 5154SOL    MW420390   2.969   1.708   5.849 -0.0761  0.5121 -0.4615
 5155SOL     OW20391   1.536   1.482   0.846  0.1540 -0.7850  0.0265
 5155SOL    HW220392   1.481   1.550   0.807  0.8083  0.1328  0.6785
 5155SOL    HW320393   1.625   1.510   0.827  0.4505 -0.9921  1.0741
 5155SOL    MW420394   1.540   1.495   0.838  0.2598 -0.0778  0.2829
 5156SOL     OW20395   6.421   3.595   6.421 -0.2067  0.7377 -0.1048
 5156SOL    HW220396   6.471   3.625   6.345  1.3840 -2.7983 -0.6610
 5156SOL    HW320397   6.448   3.653   6.492  2.2606  0.9960 -1.1462
 5156SOL    MW420398   6.431   3.607   6.420 -0.0594 -0.1622  0.0188
 5157SOL     OW20399   5.462   1.915   1.652 -0.0374 -0.1342  0.2392
 5157SOL    HW220400   5.443   1.824   1.630  0.2864 -0.4588  1.2503
 5157SOL    HW320401   5.446   1.963   1.570 -2.1587 -0.7881  0.2062
 5157SOL    MW420402   5.458   1.909   1.638 -0.3644  0.1183 -0.0001
 5158SOL     OW20403   1.952   1.523   2.709  0.3417 -0.5870  0.7005
 5158SOL    HW220404   2.009   1.504   2.783  1.2227  0.1116  0.2272
 5158SOL    HW320405   1.868   1.545   2.748  0.1972 -2.2285  1.3772
 5158SOL    MW420406   1.948   1.524   2.724  0.5396  0.2736  0.4197
 5159SOL     OW20407   5.773   0.627   5.294 -0.5333 -0.2910 -0.0945
 5159SOL    HW220408   5.720   0.609   5.371 -0.0983 -0.4984  0.1569
 5159SOL    HW320409   5.852   0.669   5.328 -0.2762 -0.5147 -0.4117
 5159SOL    MW420410   5.777   0.630   5.308  0.1887  0.3579 -0.0797
 5160SOL     OW20411   0.412   2.850   0.820  0.4607  0.2339 -0.4276
 5160SOL    HW220412   0.329   2.883   0.852  1.3303  1.2159  0.8924
 5160SOL    HW320413   0.459   2.928   0.790  0.9139 -0.3095 -1.1665
 5160SOL    MW420414   0.407   2.864   0.820 -0.1291 -0.3920  0.1744
 5161SOL     OW20415   6.345   1.855   5.657  0.4692 -0.0994 -0.0777
 5161SOL    HW220416   6.251   1.855   5.676  0.7773 -1.3152  1.7862
 5161SOL    HW320417   6.372   1.765   5.673  2.1780  0.5179  0.7690
 5161SOL    MW420418   6.336   1.843   5.662 -0.3853  0.2894  0.3870
 5162SOL     OW20419   2.268   2.129   2.580 -0.1160 -0.2817  0.0023
 5162SOL    HW220420   2.278   2.198   2.647 -0.1545 -2.2963  2.2094
 5162SOL    HW320421   2.175   2.105   2.584 -0.6633  1.0608 -2.4576
 5162SOL    MW420422   2.257   2.135   2.590  0.7935 -0.0457  0.4413
 5163SOL     OW20423   0.963   1.931   4.441 -0.9512 -0.2670 -0.0963
 5163SOL    HW220424   0.956   1.903   4.350 -1.3602  1.9582 -0.8245
 5163SOL    HW320425   1.057   1.947   4.454 -1.1389  2.3486 -1.1964
 5163SOL    MW420426   0.975   1.929   4.430 -0.3703  0.0565 -0.4816
 5164SOL     OW20427   4.158   3.696   6.072 -0.6021  0.2727  0.1504
 5164SOL    HW220428   4.248   3.664   6.067 -0.7191 -0.3063  1.4024
 5164SOL    HW320429   4.105   3.628   6.032 -0.4464  0.9044 -1.1875
 5164SOL    MW420430   4.163   3.683   6.066 -0.1307  0.1538 -0.1428
 5165SOL     OW20431   2.512   4.820   5.341  0.0066  0.2247  0.0497
 5165SOL    HW220432   2.418   4.811   5.353  0.1509 -1.4276  0.1445
 5165SOL    HW320433   2.551   4.785   5.421  0.7067  1.3297  0.2144
 5165SOL    MW420434   2.505   4.814   5.353 -0.3908 -0.5212  0.0692
 5166SOL     OW20435   2.442   6.120   1.522 -0.1343 -0.8407 -0.1400
 5166SOL    HW220436   2.392   6.163   1.592 -0.8994 -0.2211 -1.0402
 5166SOL    HW320437   2.527   6.165   1.522 -0.5235 -0.0891 -0.3206
 5166SOL    MW420438   2.447   6.132   1.531 -0.1018 -0.8084 -0.2102
 5167SOL     OW20439   3.956   5.262   6.176 -0.3124 -0.1933 -1.4163
 5167SOL    HW220440   3.965   5.292   6.267 -1.2350  0.1612 -1.4285
 5167SOL    HW320441   4.039   5.285   6.135  0.0812 -0.2731 -0.6840
 5167SOL    MW420442   3.968   5.269   6.183  0.4144 -0.4550  0.3657
 5168SOL     OW20443   4.723   5.668   3.124  0.4591  0.0182  0.4482
 5168SOL    HW220444   4.695   5.598   3.066 -2.5416  0.9432  0.5924
 5168SOL    HW320445   4.658   5.737   3.113  0.9844  1.1467  3.2602
 5168SOL    MW420446   4.711   5.668   3.115 -0.5634  0.3345 -0.1011
 5169SOL     OW20447   0.111   0.768   3.799  0.1183 -0.0166  0.3793
 5169SOL    HW220448   0.054   0.746   3.725 -0.7720  1.8280  0.4428
 5169SOL    HW320449   0.054   0.818   3.859  1.7651  1.9267  0.4282
 5169SOL    MW420450   0.096   0.772   3.797  0.0219  0.2181  0.2004
 5170SOL     OW20451   4.786   2.322   5.992 -0.0137 -0.3355 -0.0042
 5170SOL    HW220452   4.722   2.266   5.949  1.1424 -1.5038 -0.2673
 5170SOL    HW320453   4.825   2.372   5.921 -0.5283  0.2850  0.1412
 5170SOL    MW420454   4.782   2.321   5.977 -0.2042  0.0723  0.5261
 5171SOL     OW20455   2.059   3.930   0.275  0.5679  0.8235 -0.4026
 5171SOL    HW220456   1.969   3.945   0.306  0.8604  1.3504  0.1966
 5171SOL    HW320457   2.065   3.835   0.266  0.3192  0.6849  0.7211
 5171SOL    MW420458   2.048   3.919   0.278 -0.3726 -0.0154  0.3592
 5172SOL     OW20459   0.567   2.323   3.483  0.0539 -0.0780  0.2397
 5172SOL    HW220460   0.517   2.401   3.508 -0.5725  0.0458 -1.2500
 5172SOL    HW320461   0.591   2.282   3.566 -0.2290  1.3014  1.0451
 5172SOL    MW420462   0.563   2.328   3.497  0.4080  0.0217  1.0584
 5173SOL     OW20463   1.262   0.607   0.456  0.8791  0.5012 -0.0389
 5173SOL    HW220464   1.294   0.692   0.424  1.7903  0.7786  1.5114
 5173SOL    HW320465   1.198   0.580   0.390  3.6467  0.2994 -2.9329
 5173SOL    MW420466   1.258   0.615   0.443 -0.3615 -0.0161 -0.0356
 5174SOL     OW20467   3.885   1.690   1.292 -0.4362 -1.2255  0.4031
 5174SOL    HW220468   3.851   1.617   1.344  0.6124 -1.3979  0.8737
 5174SOL    HW320469   3.877   1.766   1.349 -0.8861 -1.0828  0.1626
 5174SOL    MW420470   3.879   1.690   1.306  0.2351  0.3159 -0.0053
 5175SOL     OW20471   5.964   5.772   0.826  0.3301  0.5835  0.7595
 5175SOL    HW220472   5.878   5.786   0.865  0.1399  1.4447  0.0539
 5175SOL    HW320473   5.959   5.685   0.786 -0.4459  0.9281  0.1000
 5175SOL    MW420474   5.952   5.762   0.826  0.5954 -0.3942 -0.0536
 5176SOL     OW20475   4.637   0.390   2.940 -0.4223  0.1141 -0.2684
 5176SOL    HW220476   4.675   0.356   2.859  1.0069 -0.3735  0.5657
 5176SOL    HW320477   4.552   0.347   2.947 -0.4112 -0.0900 -1.3362
 5176SOL    MW420478   4.631   0.380   2.930 -0.3038  0.2940 -0.3088
 5177SOL     OW20479   2.816   0.980   1.259 -0.2408  0.3440  0.8149
 5177SOL    HW220480   2.791   1.068   1.231  0.1920  0.1535 -0.2086
 5177SOL    HW320481   2.766   0.966   1.339 -0.0245  1.6657  1.2103
 5177SOL    MW420482   2.806   0.990   1.266  0.3455 -0.0494 -0.5426
 5178SOL     OW20483   4.249   3.640   4.026  0.1662  0.0293 -0.0900
 5178SOL    HW220484   4.294   3.620   3.944 -0.6630 -0.8950 -0.3472
 5178SOL    HW320485   4.201   3.721   4.008 -0.9054 -0.7556 -0.9145
 5178SOL    MW420486   4.248   3.648   4.013 -0.1122 -0.5612 -0.0439
 5179SOL     OW20487   3.382   0.139   4.954 -0.3725  0.6506 -0.0081
 5179SOL    HW220488   3.293   0.109   4.971 -0.7039  1.4646 -0.2349
 5179SOL    HW320489   3.428   0.062   4.923 -0.9814  0.2060  0.1679
 5179SOL    MW420490   3.376   0.125   4.952 -0.0510 -0.3105 -0.4650
 5180SOL     OW20491   5.987   5.338   2.075 -0.1196  0.0054  0.3034
 5180SOL    HW220492   5.993   5.370   2.165  0.6441  0.7515 -0.0021
 5180SOL    HW320493   5.928   5.263   2.081 -0.6240  0.4553  1.3139
 5180SOL    MW420494   5.980   5.332   2.088  0.1478 -0.2299 -0.0904
 5181SOL     OW20495   6.262   5.767   1.537 -0.2664  0.1705  0.0658
 5181SOL    HW220496   6.214   5.732   1.462 -0.5873  0.2776  0.2242
 5181SOL    HW320497   6.309   5.691   1.572  1.7443  0.5213 -1.6252
 5181SOL    MW420498   6.262   5.752   1.531 -0.0762  0.4178  0.1481
 5182SOL     OW20499   5.286   1.062   0.197 -0.0592 -0.1692  0.0247
 5182SOL    HW220500   5.248   1.149   0.207  2.9980  1.6225 -2.4725
 5182SOL    HW320501   5.340   1.050   0.275 -0.1687  0.3142  0.1761
 5182SOL    MW420502   5.288   1.072   0.209  0.2002 -0.1074  0.1341
 5183SOL     OW20503   3.317   4.462   2.389 -0.0444 -0.1302 -0.8912
 5183SOL    HW220504   3.225   4.464   2.416  0.0640 -3.0826 -0.0065
 5183SOL    HW320505   3.360   4.526   2.447 -1.1491 -0.5211  0.4135
 5183SOL    MW420506   3.310   4.471   2.401 -0.1014  0.0495 -0.1953
 5184SOL     OW20507   5.735   1.372   6.129  0.2641 -0.5700 -0.3614
 5184SOL    HW220508   5.747   1.436   6.059 -0.2724  1.1588  1.0378
 5184SOL    HW320509   5.816   1.377   6.180 -0.7414  0.8798  1.1738
 5184SOL    MW420510   5.747   1.381   6.127 -0.8355  0.2517 -0.3187
 5185SOL     OW20511   4.565   5.946   5.056  0.1107  0.4696 -0.0401
 5185SOL    HW220512   4.533   5.919   5.143  2.0817  2.8304  1.5343
 5185SOL    HW320513   4.518   6.027   5.038 -2.5220 -1.4097 -2.7283
 5185SOL    MW420514   4.554   5.953   5.065  0.2367 -0.3086 -0.0302
 5186SOL     OW20515   3.970   5.994   6.095 -0.3754  0.8592  0.1495
 5186SOL    HW220516   3.988   5.900   6.096 -1.2630  0.6838  0.3341
 5186SOL    HW320517   3.927   6.011   6.178 -1.0024  1.2604 -0.2501
 5186SOL    MW420518   3.967   5.984   6.106 -0.1013  0.5460  0.0224
 5187SOL     OW20519   4.070   4.212   2.447  0.1162 -0.0389  0.1376
 5187SOL    HW220520   3.988   4.247   2.413  0.7624  0.1176 -1.3678
 5187SOL    HW320521   4.059   4.117   2.440  0.2321 -0.0113 -0.5503
 5187SOL    MW420522   4.058   4.204   2.441 -0.0227  0.0388 -0.0601
 5188SOL     OW20523   0.732   1.055   2.468 -0.0108 -0.5106 -0.4241
 5188SOL    HW220524   0.740   1.009   2.384  0.6549  0.7817 -1.0917
 5188SOL    HW320525   0.656   1.014   2.510 -0.4938 -1.0338 -1.7423
 5188SOL    MW420526   0.723   1.043   2.462  0.3918 -0.7287 -0.4600
 5189SOL     OW20527   3.268   2.788   0.681  0.1822  0.2391  0.0610
 5189SOL    HW220528   3.354   2.815   0.713  0.0863 -0.2069  0.7157
 5189SOL    HW320529   3.245   2.713   0.735 -0.6570  0.4010 -0.0568
 5189SOL    MW420530   3.276   2.782   0.693 -0.0156 -0.0491 -0.6183
 5190SOL     OW20531   1.526   4.967   4.027  0.0235  0.2935  0.4674
 5190SOL    HW220532   1.524   4.878   4.063 -1.8245 -0.5604 -1.4464
 5190SOL    HW320533   1.619   4.990   4.024  0.5046 -1.3099  1.6138
 5190SOL    MW420534   1.538   4.958   4.031  0.0134 -0.2934  0.0958
 5191SOL     OW20535   0.023   1.892   4.254  0.2841  0.8502  0.1899
 5191SOL    HW220536   0.110   1.883   4.213  0.1227 -0.5349  0.0844
 5191SOL    HW320537   0.029   1.973   4.305  1.1714  1.5320 -0.9365
 5191SOL    MW420538   0.036   1.901   4.255 -0.3495  0.0654 -0.1846
 5192SOL     OW20539   0.881   2.274   0.838 -0.1161  0.3969  0.5653
 5192SOL    HW220540   0.877   2.179   0.833  0.0560  0.4166  0.0621
 5192SOL    HW320541   0.791   2.303   0.821 -0.2099  0.3173  0.9200
 5192SOL    MW420542   0.868   2.266   0.835  0.5988 -0.0599 -0.0679
 5193SOL     OW20543   4.431   0.579   4.675  0.3459  0.3041  0.1276
 5193SOL    HW220544   4.448   0.530   4.595 -1.5891  0.9460 -0.7431
 5193SOL    HW320545   4.474   0.663   4.661  1.2421 -0.0903  0.4143
 5193SOL    MW420546   4.439   0.584   4.663  0.7086 -0.2412  0.1354
 5194SOL     OW20547   0.047   3.737   2.232  0.4894 -0.2517 -0.2944
 5194SOL    HW220548  -0.038   3.695   2.244 -0.0906  1.1054  0.5864
 5194SOL    HW320549   0.061   3.737   2.138 -0.0603 -1.2897 -0.3909
 5194SOL    MW420550   0.038   3.732   2.221  0.0570 -0.9615  0.4959
 5195SOL     OW20551   4.660   0.915   5.711  0.1765 -0.7858 -0.2009
 5195SOL    HW220552   4.725   0.926   5.780 -0.3401 -3.9969  0.9510
 5195SOL    HW320553   4.710   0.894   5.633  0.6351 -0.3172 -0.0354
 5195SOL    MW420554   4.675   0.914   5.710  0.6293  0.0509 -0.1148
 5196SOL     OW20555   6.208   5.361   4.535  0.0991 -0.0324 -0.1634
 5196SOL    HW220556   6.291   5.403   4.509 -0.1526  0.2516 -0.5171
 5196SOL    HW320557   6.156   5.361   4.455  0.3708 -1.7109 -0.3821
 5196SOL    MW420558   6.212   5.366   4.521 -0.2857 -0.2529  0.1867
 5197SOL     OW20559   2.242   5.195   3.947  0.6795  0.1089 -0.3309
 5197SOL    HW220560   2.330   5.203   3.982 -0.6009  0.6939  3.1359
 5197SOL    HW320561   2.211   5.285   3.939  0.5368 -0.0575 -2.1542
 5197SOL    MW420562   2.249   5.208   3.950  0.9012  0.4266  0.1808
 5198SOL     OW20563   4.430   2.048   6.391  0.0644  0.5843 -0.1058
 5198SOL    HW220564   4.522   2.059   6.414 -0.0593  0.5150  0.4506
 5198SOL    HW320565   4.412   1.955   6.405  1.2359 -0.7076 -5.2961
 5198SOL    MW420566   4.439   2.038   6.396  0.1983 -0.5388 -0.3098
 5199SOL     OW20567   1.437   5.317   5.762 -0.5982  0.4980  0.1828
 5199SOL    HW220568   1.478   5.377   5.700 -0.3615  0.8994  0.7233
 5199SOL    HW320569   1.479   5.233   5.744 -2.6060 -0.1286 -2.2204
 5199SOL    MW420570   1.448   5.314   5.752  0.6708 -0.7508 -0.2031
 5200SOL     OW20571   3.163   0.664   2.242  0.3361 -0.2256 -0.5561
 5200SOL    HW220572   3.120   0.731   2.188  0.2989 -0.6640 -1.0787
 5200SOL    HW320573   3.109   0.659   2.321  1.2858  1.5788  0.2906
 5200SOL    MW420574   3.150   0.672   2.245  0.3294  0.1905  0.5268
 5201SOL     OW20575   2.861   2.915   0.534  0.6639 -0.3974  0.0257
 5201SOL    HW220576   2.928   2.854   0.504 -1.6298 -2.7413 -0.7188
 5201SOL    HW320577   2.824   2.874   0.612 -0.0656  0.7348  0.3032
 5201SOL    MW420578   2.865   2.902   0.541  0.1244 -0.2379  0.3951
 5202SOL     OW20579   3.768   0.916   5.574  0.6600 -0.0989  0.6041
 5202SOL    HW220580   3.843   0.958   5.533  0.7847 -0.4520  0.4632
 5202SOL    HW320581   3.802   0.879   5.655  0.6829 -0.4135  0.4539
 5202SOL    MW420582   3.782   0.917   5.579  0.1395  0.5625  0.2584
 5203SOL     OW20583   3.568   6.380   1.204 -0.1934  0.6638 -0.1772
 5203SOL    HW220584   3.585   6.473   1.218  0.2371  0.4258  0.9331
 5203SOL    HW320585   3.555   6.344   1.291  0.7996 -0.5367 -0.4943
 5203SOL    MW420586   3.568   6.388   1.217  0.3663  0.2164 -0.2249
 5204SOL     OW20587   1.386   1.729   3.134 -0.3327  0.3660  0.2351
 5204SOL    HW220588   1.300   1.768   3.148 -0.8351 -0.1873 -1.2034
 5204SOL    HW320589   1.430   1.788   3.073 -0.3974 -0.3045 -0.4773
 5204SOL    MW420590   1.380   1.742   3.128  0.1855 -0.1789 -0.0274
 5205SOL     OW20591   2.694   4.243   4.159  0.0117  0.1430  0.0358
 5205SOL    HW220592   2.635   4.306   4.116 -0.4928 -0.3071  0.0549
 5205SOL    HW320593   2.738   4.294   4.226 -0.5437  0.4416  0.1832
 5205SOL    MW420594   2.692   4.258   4.162 -0.0665 -0.0540  0.0276
 5206SOL     OW20595   0.303   0.679   3.982  0.0135 -0.0091  0.2368
 5206SOL    HW220596   0.231   0.701   3.923  0.8708 -1.4071 -1.4342
 5206SOL    HW320597   0.285   0.589   4.009  0.8030 -0.1662  0.2648
 5206SOL    MW420598   0.291   0.670   3.978  0.2289 -0.6189 -0.1696
 5207SOL     OW20599   5.745   4.951   1.143 -0.0974  0.2077 -0.4043
 5207SOL    HW220600   5.726   5.016   1.075 -0.5199  1.7555  1.1210
 5207SOL    HW320601   5.659   4.917   1.169  0.2152 -2.7460 -2.7380
 5207SOL    MW420602   5.731   4.956   1.138 -0.5042 -0.4610 -0.4118
 5208SOL     OW20603   6.255   4.895   4.803 -0.2808  0.4349  0.6870
 5208SOL    HW220604   6.293   4.814   4.771 -0.0845  0.6970  0.2558
 5208SOL    HW320605   6.255   4.954   4.728 -0.8120  0.6974  0.8839
 5208SOL    MW420606   6.260   4.892   4.789  0.5509 -0.2741  0.3613
 5209SOL     OW20607   2.450   5.507   3.778 -0.3082 -0.6476  0.5137
 5209SOL    HW220608   2.485   5.555   3.703 -1.5055  0.8065  0.8348
 5209SOL    HW320609   2.419   5.424   3.742  1.1831 -0.9264 -0.1760
 5209SOL    MW420610   2.450   5.502   3.764  0.0211  0.0120 -0.2877
 5210SOL     OW20611   2.909   5.334   1.760 -0.1059 -0.2907 -0.1452
 5210SOL    HW220612   2.820   5.342   1.725  0.2698 -1.7515 -1.5366
 5210SOL    HW320613   2.905   5.260   1.821  0.4664 -1.3955 -1.4059
 5210SOL    MW420614   2.897   5.325   1.764 -0.3944  0.3622 -0.0338
 5211SOL     OW20615   5.346   3.894   0.051  0.0068  0.2713 -0.0919
 5211SOL    HW220616   5.416   3.829   0.051  0.7426  0.9987  1.7070
 5211SOL    HW320617   5.375   3.960  -0.013 -0.0015 -0.3952 -0.7907
 5211SOL    MW420618   5.359   3.894   0.042  0.2507  0.2150  0.7776
 5212SOL     OW20619   0.349   4.595   2.519  0.3545 -0.2623  0.0192
 5212SOL    HW220620   0.306   4.566   2.600 -1.4761  0.6755 -0.5708
 5212SOL    HW320621   0.387   4.680   2.541  0.7201 -0.4592  0.1578
 5212SOL    MW420622   0.348   4.602   2.533  0.3357 -0.2143  0.1733
 5213SOL     OW20623   0.920   4.889   2.881 -0.1295 -0.3302  0.5224
 5213SOL    HW220624   0.972   4.808   2.888  2.2000  1.0940  0.6056
 5213SOL    HW320625   0.972   4.955   2.926 -0.8713  1.7273 -1.4536
 5213SOL    MW420626   0.933   4.887   2.888  0.3042  0.3840 -0.1056
 5214SOL     OW20627   3.007   3.060   5.260  0.0687  0.3058  0.2757
 5214SOL    HW220628   3.092   3.092   5.291 -0.9553  2.0771  1.4545
 5214SOL    HW320629   2.974   3.131   5.204 -0.7891 -0.1973  0.1285
 5214SOL    MW420630   3.014   3.074   5.256  0.1723  0.2068  0.4333
 5215SOL     OW20631   5.621   5.165   2.366  0.7975 -0.3014  0.0611
 5215SOL    HW220632   5.572   5.196   2.291  1.0581 -0.1390 -0.0447
 5215SOL    HW320633   5.691   5.229   2.377  0.4689 -0.0444  0.7499
 5215SOL    MW420634   5.624   5.177   2.358  0.1255  0.1947  0.0689
 5216SOL     OW20635   2.861   4.123   6.413 -0.3902 -0.2584  0.2176
 5216SOL    HW220636   2.885   4.203   6.459 -0.3575  0.7435 -1.4363
 5216SOL    HW320637   2.767   4.131   6.398 -0.0974  0.4178 -1.5611
 5216SOL    MW420638   2.852   4.134   6.417 -0.4997  0.4149 -0.1512
 5217SOL     OW20639   1.527   5.731   4.149 -0.1128  0.0969  0.4331
 5217SOL    HW220640   1.550   5.689   4.232  1.8611  0.0453 -0.0805
 5217SOL    HW320641   1.553   5.822   4.162  1.1200 -0.1115 -0.4210
 5217SOL    MW420642   1.534   5.737   4.162  0.0983 -0.0335 -0.0193
 5218SOL     OW20643   4.406   3.104   0.112 -0.3861 -0.0366 -0.0715
 5218SOL    HW220644   4.310   3.110   0.112 -0.3071  2.2244  0.8471
 5218SOL    HW320645   4.430   3.102   0.204  0.4865  1.5010 -0.2210
 5218SOL    MW420646   4.396   3.105   0.124  0.3731 -0.0680 -0.3030
 5219SOL     OW20647   4.107   0.025   6.342 -0.1089 -0.0348 -0.6912
 5219SOL    HW220648   4.013   0.046   6.336  0.1384  0.7245 -2.7208
 5219SOL    HW320649   4.147   0.106   6.373 -0.0361 -0.0771 -0.6765
 5219SOL    MW420650   4.100   0.038   6.345 -0.7001 -0.1580 -0.1520
 5220SOL     OW20651   0.821   0.824   1.849  0.6082 -0.0161 -0.2723
 5220SOL    HW220652   0.760   0.763   1.891  0.5399 -0.1564 -0.5728
 5220SOL    HW320653   0.765   0.881   1.797  0.7814 -0.5312 -1.0342
 5220SOL    MW420654   0.805   0.823   1.848  0.0459  0.1819 -0.0191
 5221SOL     OW20655   0.594   5.241   1.212  0.0563 -0.6140  0.1533
 5221SOL    HW220656   0.661   5.182   1.180  1.1304  0.4577  0.3472
 5221SOL    HW320657   0.556   5.197   1.288  0.4217 -1.2967 -0.0537
 5221SOL    MW420658   0.598   5.228   1.218 -0.1938 -0.3423  0.6304
 5222SOL     OW20659   0.716   1.262   2.771 -0.0166  0.5078  0.1628
 5222SOL    HW220660   0.655   1.190   2.785 -1.5836  1.8282  0.5483
 5222SOL    HW320661   0.679   1.311   2.698  0.6496  1.2764  0.3190
 5222SOL    MW420662   0.703   1.259   2.764 -0.0390  0.9049 -0.3072
 5223SOL     OW20663   3.934   2.316   0.215 -0.6048  0.1133 -0.2359
 5223SOL    HW220664   3.893   2.257   0.278  0.5193 -0.4728 -0.0366
 5223SOL    HW320665   3.954   2.395   0.265 -0.3498 -0.0831 -0.0296
 5223SOL    MW420666   3.931   2.319   0.230  0.0218 -0.1008  0.0061
 5224SOL     OW20667   6.042   2.701   2.546  0.1247 -0.2201  0.3195
 5224SOL    HW220668   6.024   2.662   2.460 -2.8865  2.3636 -0.4232
 5224SOL    HW320669   6.015   2.634   2.609 -1.6422 -0.6891 -0.8391
 5224SOL    MW420670   6.036   2.687   2.543 -0.2704  0.1800 -0.2934
 5225SOL     OW20671   1.315   5.415   4.052 -0.5889 -0.1866  0.0016
 5225SOL    HW220672   1.239   5.359   4.036 -0.2893 -0.7532  0.5283
 5225SOL    HW320673   1.291   5.499   4.012 -0.7347 -0.8975 -1.5024
 5225SOL    MW420674   1.302   5.418   4.044  0.2128 -0.0250 -0.4471
 5226SOL     OW20675   1.543   2.266   2.252 -0.4200  0.2313 -0.3210
 5226SOL    HW220676   1.603   2.274   2.178 -1.5523  1.7453 -1.1184
 5226SOL    HW320677   1.569   2.184   2.295  3.0905  1.4408  0.2033
 5226SOL    MW420678   1.554   2.256   2.248  0.1970 -0.1045  0.6182
 5227SOL     OW20679   0.568   0.227   3.296  0.5419 -0.3150 -0.1267
 5227SOL    HW220680   0.605   0.279   3.366 -0.5296  2.2554 -1.3292
 5227SOL    HW320681   0.642   0.207   3.238  0.7462  1.3366 -0.4740
 5227SOL    MW420682   0.582   0.231   3.297  0.4259  0.3337  0.3343
 5228SOL     OW20683   4.957   1.182   6.336  0.1213  0.0624 -0.1988
 5228SOL    HW220684   4.872   1.159   6.299  0.1419  1.5594 -1.2430
 5228SOL    HW320685   5.016   1.186   6.261  0.8379  0.2651  0.3593
 5228SOL    MW420686   4.953   1.180   6.321 -0.0932  0.2794  0.0065
 5229SOL     OW20687   3.907   2.617   3.189  0.6559  0.5572  0.0326
 5229SOL    HW220688   3.817   2.596   3.212  0.1165  1.3888 -1.2054
 5229SOL    HW320689   3.902   2.651   3.100  2.1577  0.9153  0.0500
 5229SOL    MW420690   3.895   2.619   3.180 -0.2868  0.4657 -0.3751
 5230SOL     OW20691   4.720   1.702   0.781  0.1863 -0.2597  0.3477
 5230SOL    HW220692   4.753   1.630   0.727 -0.3517 -0.0631 -0.2539
 5230SOL    HW320693   4.698   1.771   0.719 -0.8485 -0.1924  0.7719
 5230SOL    MW420694   4.721   1.701   0.766  0.5474 -0.0878  0.4990
 5231SOL     OW20695   3.652   2.760   4.187 -0.2657 -0.5654 -0.4322
 5231SOL    HW220696   3.738   2.748   4.227 -0.1074  1.1689 -0.1506
 5231SOL    HW320697   3.592   2.772   4.261 -0.4723 -0.2493 -0.6451
 5231SOL    MW420698   3.656   2.760   4.202  0.3557 -0.2108 -0.1640
 5232SOL     OW20699   4.167   0.181   1.503  0.4668 -0.0937  0.1004
 5232SOL    HW220700   4.131   0.265   1.531  2.2897  0.0568  2.2420
 5232SOL    HW320701   4.096   0.141   1.452 -0.3020  2.8635 -1.3817
 5232SOL    MW420702   4.153   0.187   1.500  0.1910  0.2166 -0.4299
 5233SOL     OW20703   5.997   6.076   3.514 -0.5559  0.5758 -0.5495
 5233SOL    HW220704   5.990   6.036   3.428 -1.2032 -0.9722  0.1795
 5233SOL    HW320705   6.001   6.002   3.575 -1.6506  1.6069  0.8611
 5233SOL    MW420706   5.997   6.061   3.511  0.3392  0.3712 -0.0256
 5234SOL     OW20707   4.499   2.925   1.241 -0.1397  0.0239  0.7462
 5234SOL    HW220708   4.494   2.933   1.336 -0.1211 -2.5173  1.0443
 5234SOL    HW320709   4.586   2.958   1.218 -0.0169  0.3557  1.6547
 5234SOL    MW420710   4.510   2.930   1.250 -0.1142 -0.1567 -0.1220
 5235SOL     OW20711   6.120   3.204   6.154 -0.0641 -0.2018 -0.1349
 5235SOL    HW220712   6.102   3.196   6.248  2.1782  0.6772  0.4513
 5235SOL    HW320713   6.107   3.296   6.135 -1.2609 -0.5134 -0.9014
 5235SOL    MW420714   6.116   3.215   6.164 -0.7716 -0.0724  0.5168
 5236SOL     OW20715   0.858   4.216   0.771  0.0235  0.4721 -0.2549
 5236SOL    HW220716   0.808   4.296   0.787  2.3882  1.9123  0.4755
 5236SOL    HW320717   0.909   4.235   0.692 -0.8429 -1.1126 -1.2417
 5236SOL    MW420718   0.858   4.229   0.763 -0.3989 -0.0802  0.1540
 5237SOL     OW20719   1.302   2.354   4.773  0.5976 -0.5929 -0.4430
 5237SOL    HW220720   1.275   2.264   4.791  1.9295 -0.9113  0.0594
 5237SOL    HW320721   1.387   2.345   4.729  0.6806  0.4154 -0.5044
 5237SOL    MW420722   1.310   2.341   4.770  0.3747  0.8704  0.4974
 5238SOL     OW20723   1.843   2.551   0.802  0.0090  0.0497  0.0152
 5238SOL    HW220724   1.829   2.501   0.722  1.2534 -0.0979 -0.1391
 5238SOL    HW320725   1.855   2.641   0.773  0.7962 -0.0559 -0.0132
 5238SOL    MW420726   1.843   2.557   0.787 -0.7770 -0.5033 -0.1647
 5239SOL     OW20727   0.832   6.247   1.981 -0.2954 -0.4260 -0.1756
 5239SOL    HW220728   0.801   6.164   1.945  0.4195 -0.9832  0.4479
 5239SOL    HW320729   0.900   6.276   1.919 -3.0441  1.6800 -2.5203
 5239SOL    MW420730   0.837   6.240   1.968 -0.8875  0.2724 -0.1966
 5240SOL     OW20731   4.587   1.807   4.921 -0.0332  0.1777  0.1178
 5240SOL    HW220732   4.564   1.833   4.832  0.1860  0.8932  0.2582
 5240SOL    HW320733   4.682   1.795   4.919 -0.2188 -1.4558 -0.1410
 5240SOL    MW420734   4.597   1.809   4.909 -0.0112  0.3724 -0.2387
 5241SOL     OW20735   1.607   0.832   1.664  0.0136 -0.8320 -0.9603
 5241SOL    HW220736   1.600   0.873   1.578  2.0505 -1.9185 -1.6881
 5241SOL    HW320737   1.643   0.900   1.720  2.1470 -1.1468 -1.8609
 5241SOL    MW420738   1.611   0.846   1.660 -0.1052  0.1505  0.2798
 5242SOL     OW20739   3.930   4.090   0.406  0.2977  0.1498  0.0261
 5242SOL    HW220740   3.943   4.005   0.364  0.6975 -0.6347  1.6827
 5242SOL    HW320741   3.923   4.071   0.499  0.1335  1.9123  0.4162
 5242SOL    MW420742   3.931   4.076   0.413 -0.2728 -0.2014 -0.3254
 5243SOL     OW20743   4.273   1.250   0.071 -0.3961  0.7180  0.6949
 5243SOL    HW220744   4.325   1.279   0.146  0.4289  0.5348  0.2150
 5243SOL    HW320745   4.268   1.327   0.014  0.2821  0.4379  0.2421
 5243SOL    MW420746   4.279   1.264   0.074  0.2560  0.6029  0.0673
 5244SOL     OW20747   6.171   0.140   2.413  0.2914  0.0794 -0.0986
 5244SOL    HW220748   6.261   0.165   2.391  0.6527 -0.5512  0.6267
 5244SOL    HW320749   6.180   0.058   2.461 -0.6114  0.3968  0.6474
 5244SOL    MW420750   6.184   0.132   2.416  0.1886 -0.0483  0.3695
 5245SOL     OW20751   3.932   6.047   2.765 -0.3146 -0.5206  0.3267
 5245SOL    HW220752   4.011   6.036   2.818  1.3434  0.2409 -1.8650
 5245SOL    HW320753   3.861   6.053   2.830  1.3488 -1.4080  2.3610
 5245SOL    MW420754   3.933   6.046   2.781 -0.1253 -0.2946  0.3802
 5246SOL     OW20755   3.087   3.560   6.222 -0.1024 -0.3314  0.1167
 5246SOL    HW220756   3.071   3.653   6.238  2.2563  0.2328 -0.5329
 5246SOL    HW320757   3.004   3.518   6.245 -1.7727  2.0673 -1.0330
 5246SOL    MW420758   3.074   3.567   6.227 -0.0567  0.4491 -0.2751
 5247SOL     OW20759   3.809   3.537   5.160  0.3996 -0.3752 -0.2096
 5247SOL    HW220760   3.740   3.500   5.216 -1.2047  0.8864 -1.2332
 5247SOL    HW320761   3.877   3.471   5.158 -0.3166 -1.2522  1.6994
 5247SOL    MW420762   3.809   3.524   5.167  0.5623 -0.1388 -0.9239
 5248SOL     OW20763   5.335   0.282   4.662  0.0192  0.0206 -0.0014
 5248SOL    HW220764   5.242   0.282   4.683  0.1712 -0.4029  0.6761
 5248SOL    HW320765   5.379   0.312   4.741  0.4594  0.2348 -0.3198
 5248SOL    MW420766   5.329   0.286   4.675  0.0857  0.1142 -0.0349
 5249SOL     OW20767   1.813   2.116   5.925 -0.2618  0.1227  0.0749
 5249SOL    HW220768   1.786   2.208   5.937 -0.7086 -0.1879  1.6659
 5249SOL    HW320769   1.734   2.072   5.895 -0.0707  0.2149 -0.5968
 5249SOL    MW420770   1.799   2.123   5.922 -0.8181  0.5728 -0.0911
 5250SOL     OW20771   1.074   2.168   2.283  0.7106  0.1577  0.7020
 5250SOL    HW220772   1.163   2.192   2.258  0.7794  0.1902  0.9826
 5250SOL    HW320773   1.085   2.105   2.354  0.5116  0.1081  0.6890
 5250SOL    MW420774   1.087   2.163   2.289 -0.2902  0.2466  0.3344
 5251SOL     OW20775   4.318   1.676   3.662  0.0075  0.0352  0.2083
 5251SOL    HW220776   4.237   1.641   3.699 -0.4771  2.1838  1.3901
 5251SOL    HW320777   4.373   1.600   3.645 -1.6629 -1.3619  0.8475
 5251SOL    MW420778   4.314   1.661   3.665  0.1722 -0.4392  0.2365
 5252SOL     OW20779   0.480   2.829   4.543  0.6299 -0.0284  0.6634
 5252SOL    HW220780   0.571   2.858   4.557  1.3811 -2.6526  1.8615
 5252SOL    HW320781   0.470   2.755   4.603 -1.9814 -0.4975 -0.2684
 5252SOL    MW420782   0.491   2.823   4.553  0.5200  0.1556 -0.4984
 5253SOL     OW20783   1.988   4.171   1.289  0.1039  0.3219  0.0610
 5253SOL    HW220784   1.904   4.208   1.261  0.3206  1.6357  1.0855
 5253SOL    HW320785   1.978   4.156   1.383  0.4774 -1.0560 -0.0879
 5253SOL    MW420786   1.975   4.174   1.297 -0.0178  0.3280  0.3907
 5254SOL     OW20787   5.967   6.161   5.200 -0.2119  0.6521 -0.0187
 5254SOL    HW220788   6.007   6.089   5.248  0.5861  0.4812 -0.9255
 5254SOL    HW320789   6.010   6.161   5.115 -1.3274  1.2064 -0.6035
 5254SOL    MW420790   5.978   6.152   5.195  0.2288  0.0227  0.2033
 5255SOL     OW20791   1.195   5.621   2.142 -0.3776 -0.0156  0.5879
 5255SOL    HW220792   1.242   5.615   2.225 -1.2920  1.4952  1.2667
 5255SOL    HW320793   1.104   5.604   2.165 -0.5617 -0.1477 -0.2101
 5255SOL    MW420794   1.189   5.618   2.156  0.4402  0.2595  0.2558
 5256SOL     OW20795   5.210   1.678   4.691 -0.2127  0.3989  0.6741
 5256SOL    HW220796   5.207   1.619   4.767  1.8185  0.5446  0.9299
 5256SOL    HW320797   5.183   1.763   4.726  0.0354  0.3140  1.0798
 5256SOL    MW420798   5.206   1.681   4.706 -0.2702 -0.5957 -0.1650
 5257SOL     OW20799   3.471   5.940   1.758  0.4975 -0.1691  0.2496
 5257SOL    HW220800   3.385   5.981   1.756  0.4957 -0.1543  0.6270
 5257SOL    HW320801   3.503   5.954   1.847  0.4669 -1.0284  0.4126
 5257SOL    MW420802   3.464   5.947   1.769 -0.0047 -0.0146  0.5268
 5258SOL     OW20803   2.287   1.426   1.462 -0.0886  0.2712  0.3446
 5258SOL    HW220804   2.289   1.517   1.430 -0.1927  0.4780  0.9107
 5258SOL    HW320805   2.210   1.423   1.519  0.5555  0.1327  1.2178
 5258SOL    MW420806   2.277   1.438   1.465  0.7540 -0.1179  0.1866
 5259SOL     OW20807   1.242   3.332   0.045 -0.5286 -1.0186 -0.3163
 5259SOL    HW220808   1.240   3.262  -0.021 -1.3103 -0.6294 -0.7232
 5259SOL    HW320809   1.332   3.364   0.043  0.3927 -3.2309  1.2143
 5259SOL    MW420810   1.254   3.327   0.036  0.2601  0.3327  0.5098
 5260SOL     OW20811   2.989   1.966   0.980  0.0552 -0.1116 -0.0103
 5260SOL    HW220812   2.919   1.993   0.921  1.7037 -0.9930 -2.5201
 5260SOL    HW320813   2.975   1.872   0.991  2.0220 -0.7935 -2.4260
 5260SOL    MW420814   2.978   1.957   0.974  0.3560  0.2658 -0.4494
 5261SOL     OW20815   1.832   4.779   5.023  0.0781 -0.3227 -0.6325
 5261SOL    HW220816   1.832   4.873   5.007 -0.0820 -0.1470  0.3407
 5261SOL    HW320817   1.923   4.752   5.008  0.2750  0.1118 -0.2341
 5261SOL    MW420818   1.844   4.788   5.019  0.6557  0.5194  0.2599
 5262SOL     OW20819   2.569   3.204   5.855 -0.4017  0.0115 -0.4364
 5262SOL    HW220820   2.643   3.155   5.892 -1.0263  0.0860  0.9448
 5262SOL    HW320821   2.598   3.295   5.854 -0.4251  0.0234 -0.0163
 5262SOL    MW420822   2.583   3.209   5.860 -0.0536  0.0507  0.1522
 5263SOL     OW20823   1.802   2.704   1.234 -0.3004 -0.0775  0.0010
 5263SOL    HW220824   1.769   2.739   1.151 -1.0185 -2.7835 -0.9770
 5263SOL    HW320825   1.887   2.666   1.212 -0.6178 -1.0582  0.4036
 5263SOL    MW420826   1.809   2.704   1.220 -0.2893  0.3773 -0.1804
 5264SOL     OW20827   6.420   1.099   4.177 -0.1405 -0.2556  0.0395
 5264SOL    HW220828   6.441   1.180   4.224 -1.2938  0.3941 -0.5270
 5264SOL    HW320829   6.325   1.093   4.182 -0.0879 -1.4440 -0.1703
 5264SOL    MW420830   6.410   1.109   4.184  0.1434 -0.0199 -0.0274
 5265SOL     OW20831   5.932   3.265   3.097 -0.4990 -0.1169 -0.4826
 5265SOL    HW220832   5.938   3.221   3.012 -1.6477  0.4167 -0.8617
 5265SOL    HW320833   5.887   3.347   3.078 -0.3124  0.2414  0.5673
 5265SOL    MW420834   5.927   3.270   3.083 -0.5897 -0.2721  0.0729
 5266SOL     OW20835   0.381   5.411   6.144 -0.1394  0.0957 -0.2457
 5266SOL    HW220836   0.375   5.349   6.217  0.5796  0.2754 -0.0268
 5266SOL    HW320837   0.328   5.372   6.075  1.4743 -1.5311 -0.6419
 5266SOL    MW420838   0.373   5.398   6.145 -0.9123 -0.4483 -0.2684
 5267SOL     OW20839   2.476   0.724   1.100 -0.1076  0.2244 -0.6466
 5267SOL    HW220840   2.408   0.787   1.080 -1.1507 -0.6757 -0.0297
 5267SOL    HW320841   2.441   0.640   1.071  0.2665 -0.4176  0.6706
 5267SOL    MW420842   2.463   0.721   1.093  0.4956  0.6340  0.3014
 5268SOL     OW20843   3.770   3.075   3.025 -0.1404  0.0623  0.1980
 5268SOL    HW220844   3.692   3.022   3.007  0.8921 -2.0194  1.5148
 5268SOL    HW320845   3.736   3.164   3.034 -2.4129 -0.7990  0.9835
 5268SOL    MW420846   3.755   3.079   3.024 -0.2386 -0.2130  0.1127
 5269SOL     OW20847   2.622   3.422   2.152  0.6082 -0.0330  0.5754
 5269SOL    HW220848   2.621   3.397   2.244 -0.0754 -0.5985  0.4231
 5269SOL    HW320849   2.566   3.357   2.109 -0.7344  1.4027  0.0726
 5269SOL    MW420850   2.615   3.410   2.158  0.5504 -0.2028  0.1301
 5270SOL     OW20851   1.979   3.468   5.006 -0.1919  0.0948 -0.0091
 5270SOL    HW220852   2.004   3.475   5.099 -2.1655 -1.6796  0.7422
 5270SOL    HW320853   1.919   3.542   4.992  0.6836  0.8046 -0.1178
 5270SOL    MW420854   1.974   3.479   5.017  0.1369 -0.0608  0.0864
 5271SOL     OW20855   1.301   3.377   3.243  0.2400  0.1950 -0.0921
 5271SOL    HW220856   1.324   3.290   3.275 -0.4106  0.1150  0.1701
 5271SOL    HW320857   1.354   3.437   3.296  0.8213 -0.0381 -0.3936
 5271SOL    MW420858   1.311   3.373   3.254  0.2538 -0.1931 -0.6104
 5272SOL     OW20859   3.364   6.272   4.286 -0.2823 -0.6397 -0.3183
 5272SOL    HW220860   3.427   6.257   4.216 -0.6030 -0.2780 -0.6910
 5272SOL    HW320861   3.306   6.195   4.284  0.1843 -1.0071  0.0736
 5272SOL    MW420862   3.364   6.260   4.277 -0.8246 -0.2528 -0.2898
 5273SOL     OW20863   2.386   2.984   1.776 -0.4958  0.2189  0.6105
 5273SOL    HW220864   2.323   3.011   1.843 -1.1730 -1.5174  0.7271
 5273SOL    HW320865   2.438   2.916   1.818  0.6353  0.7428  0.0990
 5273SOL    MW420866   2.385   2.979   1.790 -0.2236  0.5610 -0.5585
 5274SOL     OW20867   2.525   1.474   4.535  0.1421 -0.1426 -0.3770
 5274SOL    HW220868   2.569   1.559   4.542 -1.8422  0.9083  0.0570
 5274SOL    HW320869   2.469   1.482   4.458 -1.4683 -0.3202  0.7194
 5274SOL    MW420870   2.524   1.486   4.526  0.2652 -0.1291 -0.1917
 5275SOL     OW20871   3.716   5.456   2.855  0.0897 -0.1034  0.1633
 5275SOL    HW220872   3.759   5.395   2.794  0.3634  1.5041 -1.3430
 5275SOL    HW320873   3.624   5.454   2.830  0.4988  2.1176 -1.8374
 5275SOL    MW420874   3.710   5.448   2.844 -0.0447  0.1591  0.4566
 5276SOL     OW20875   3.058   1.730   2.313  0.6540 -0.1138  0.0031
 5276SOL    HW220876   3.122   1.705   2.245 -0.6125 -0.1162 -1.2385
 5276SOL    HW320877   3.070   1.824   2.323  2.2687 -0.4075  1.3363
 5276SOL    MW420878   3.068   1.739   2.305 -0.2530  0.2608 -0.0212
 5277SOL     OW20879   0.733   0.856   0.835  0.0345  0.1339  0.0900
 5277SOL    HW220880   0.659   0.818   0.789 -0.8956  2.4490 -0.4450
 5277SOL    HW320881   0.784   0.900   0.767  1.0602 -0.0715  0.6881
 5277SOL    MW420882   0.730   0.857   0.820  0.1662  0.6257  0.1647
 5278SOL     OW20883   5.582   4.641   5.913 -0.3727  0.6392  0.4183
 5278SOL    HW220884   5.495   4.649   5.872 -1.1299  0.7937  1.9676
 5278SOL    HW320885   5.620   4.563   5.873 -1.6614 -0.0285  0.4330
 5278SOL    MW420886   5.575   4.632   5.902  0.0383 -0.4210 -0.0585
 5279SOL     OW20887   4.427   0.362   2.426  0.3865  0.0224 -0.2007
 5279SOL    HW220888   4.441   0.443   2.378  0.9492  1.1364  1.7397
 5279SOL    HW320889   4.372   0.309   2.369 -1.1478  2.3067 -0.9661
 5279SOL    MW420890   4.421   0.366   2.412 -0.5554 -0.4512 -1.1642
 5280SOL     OW20891   1.392   5.349   6.349 -0.0969 -0.1861  0.0548
 5280SOL    HW220892   1.298   5.343   6.369  0.0716  0.8561  1.2454
 5280SOL    HW320893   1.434   5.294   6.415  0.1823 -0.0622 -0.0182
 5280SOL    MW420894   1.385   5.341   6.360 -0.6779 -0.1580 -0.5540
 5281SOL     OW20895   0.589   3.082   4.350  0.0975  0.4382  0.1341
 5281SOL    HW220896   0.619   3.110   4.436 -0.0208 -0.3824  0.4528
 5281SOL    HW320897   0.643   3.005   4.329 -1.4212 -0.7772  0.5120
 5281SOL    MW420898   0.600   3.076   4.358  0.2282 -0.4776 -0.4704
 5282SOL     OW20899   5.011   5.600   1.757 -0.2153 -0.4874 -0.6704
 5282SOL    HW220900   5.010   5.654   1.836  3.8748 -1.6413  0.3818
 5282SOL    HW320901   5.042   5.659   1.688  1.2466 -0.6603 -0.1963
 5282SOL    MW420902   5.015   5.615   1.758 -0.2755  0.1236  0.2115
 5283SOL     OW20903   3.008   5.266   3.605  0.4899  0.2920  0.0331
 5283SOL    HW220904   3.067   5.323   3.655 -0.0280  0.7358  0.1476
 5283SOL    HW320905   2.922   5.309   3.612  0.2561 -0.0727 -0.5614
 5283SOL    MW420906   3.004   5.279   3.612 -0.5087 -0.6673  0.6547
 5284SOL     OW20907   4.667   1.071   1.178  0.4605  0.3797 -1.0201
 5284SOL    HW220908   4.585   1.093   1.133  0.4867 -0.7169 -1.6454
 5284SOL    HW320909   4.723   1.147   1.164 -0.8430  1.6848  0.4721
 5284SOL    MW420910   4.664   1.083   1.170  0.3931  0.2930  0.4379
 5285SOL     OW20911   1.580   0.262   2.254  0.0976 -0.3372  0.1407
 5285SOL    HW220912   1.668   0.299   2.267 -0.8581  2.3038 -0.2087
 5285SOL    HW320913   1.521   0.333   2.279 -2.0195 -2.4581  1.6400
 5285SOL    MW420914   1.584   0.276   2.259 -0.0478  0.4157  0.3358
 5286SOL     OW20915   4.111   5.961   0.434  0.5542 -0.2801  0.1666
 5286SOL    HW220916   4.068   6.046   0.445  0.3751 -0.3643  0.1129
 5286SOL    HW320917   4.126   5.954   0.340  3.3630  1.0716  0.3994
 5286SOL    MW420918   4.107   5.971   0.423 -0.4009  0.0041  0.1773
 5287SOL     OW20919   2.205   6.176   2.997  0.5079  0.0675  0.0481
 5287SOL    HW220920   2.158   6.252   2.962  1.8825  0.9686  0.1008
 5287SOL    HW320921   2.147   6.142   3.066 -0.3691  0.7372 -0.3412
 5287SOL    MW420922   2.191   6.182   3.002  0.1869 -0.6164 -0.0452
 5288SOL     OW20923   5.693   3.782   5.092 -0.0830 -0.1132  0.0034
 5288SOL    HW220924   5.619   3.772   5.032 -0.4166  0.2406  0.3483
 5288SOL    HW320925   5.770   3.781   5.035 -0.2121 -2.1517 -0.2200
 5288SOL    MW420926   5.694   3.781   5.076  0.2825 -0.2831  0.0416
 5289SOL     OW20927   1.546   4.801   5.890 -0.5117 -0.0670  0.2064
 5289SOL    HW220928   1.477   4.767   5.833 -0.0915  0.7774 -0.8268
 5289SOL    HW320929   1.621   4.744   5.873  0.2348  1.3799 -1.6268
 5289SOL    MW420930   1.547   4.789   5.880 -0.2727  0.4665 -0.0283
 5290SOL     OW20931   0.406   5.304   4.230 -0.4062 -0.0551  0.0900
 5290SOL    HW220932   0.408   5.244   4.155 -1.3883 -1.5152  1.1794
 5290SOL    HW320933   0.313   5.317   4.247 -0.1903  1.0896  0.4310
 5290SOL    MW420934   0.394   5.298   4.222 -0.3829 -0.0287  0.2918
 5291SOL     OW20935   6.227   5.566   1.098  0.0194 -0.2099  0.0547
 5291SOL    HW220936   6.320   5.573   1.119  0.1867 -0.9740 -0.4116
 5291SOL    HW320937   6.208   5.647   1.050  0.6257 -0.3950 -0.5091
 5291SOL    MW420938   6.236   5.578   1.094 -0.1531  0.6076 -0.5302
 5292SOL     OW20939   3.689   5.177   1.612  0.6496 -0.1342  0.1677
 5292SOL    HW220940   3.722   5.248   1.558  0.5244  0.7205  1.1734
 5292SOL    HW320941   3.707   5.097   1.562  0.4457  0.6251 -1.1553
 5292SOL    MW420942   3.696   5.175   1.599 -0.6530 -0.4789 -0.0597
 5293SOL     OW20943   2.563   5.908   6.089  0.3437 -0.4920  0.2036
 5293SOL    HW220944   2.486   5.852   6.072  0.9429 -0.6416 -2.4248
 5293SOL    HW320945   2.538   5.994   6.054  0.4043  0.2086  1.8273
 5293SOL    MW420946   2.549   5.912   6.082  0.3279 -0.4823  0.0519
 5294SOL     OW20947   1.230   1.679   4.767 -0.2809  0.2493  0.0660
 5294SOL    HW220948   1.257   1.683   4.858 -0.0459 -1.7249  0.1407
 5294SOL    HW320949   1.135   1.687   4.769 -0.4697 -1.6424  0.7218
 5294SOL    MW420950   1.221   1.680   4.779  0.6330 -0.1298  0.3434
 5295SOL     OW20951   6.376   0.924   4.875  0.0176 -0.2782  0.1758
 5295SOL    HW220952   6.464   0.904   4.907 -0.3933  0.7219  2.1220
 5295SOL    HW320953   6.327   0.842   4.886  0.9262 -1.1977 -2.0342
 5295SOL    MW420954   6.381   0.910   4.881  1.0427  0.0416 -0.0779
 5296SOL     OW20955   5.064   5.797   1.564 -0.3719  0.1527  0.0268
 5296SOL    HW220956   5.035   5.841   1.643 -0.4449 -0.3370  0.2771
 5296SOL    HW320957   4.993   5.810   1.501 -0.2277  0.7071 -0.0218
 5296SOL    MW420958   5.051   5.804   1.566 -0.1680 -0.1354 -0.1571
 5297SOL     OW20959   4.542   1.125   2.432 -0.3911 -0.2579 -0.1955
 5297SOL    HW220960   4.609   1.057   2.440  1.7151  1.4983 -1.7579
 5297SOL    HW320961   4.590   1.208   2.442 -2.3939  1.0751 -0.9768
 5297SOL    MW420962   4.557   1.127   2.434  0.0681  0.7948  0.0985
 5298SOL     OW20963   3.594   1.820   1.572  0.1807  0.2446 -0.0827
 5298SOL    HW220964   3.596   1.905   1.527  0.7424 -0.0946 -0.7145
 5298SOL    HW320965   3.548   1.762   1.511 -0.4676  0.1625  0.4778
 5298SOL    MW420966   3.589   1.824   1.558  0.3110 -0.2923  0.1333
 5299SOL     OW20967   3.431   0.087   3.556  0.1925 -0.3386 -0.2433
 5299SOL    HW220968   3.407  -0.001   3.527 -1.2863  0.0105 -0.1666
 5299SOL    HW320969   3.349   0.125   3.588  1.0212  0.6667  0.7879
 5299SOL    MW420970   3.417   0.080   3.557 -0.5632 -0.2451 -0.4493
 5300SOL     OW20971   6.254   3.601   2.274 -0.4510  0.0352 -0.2923
 5300SOL    HW220972   6.189   3.639   2.333 -1.9973 -1.2442 -1.0833
 5300SOL    HW320973   6.208   3.530   2.230  1.7155 -1.4670 -0.3330
 5300SOL    MW420974   6.240   3.596   2.276  0.0743 -1.0998 -0.2926
 5301SOL     OW20975   4.544   0.134   0.033  0.2923 -0.0565  0.1163
 5301SOL    HW220976   4.504   0.206   0.081  1.3676  1.1249 -0.7046
 5301SOL    HW320977   4.618   0.108   0.087  0.0112 -0.4441  0.3222
 5301SOL    MW420978   4.548   0.140   0.046  0.3302  0.1076 -0.0161
 5302SOL     OW20979   3.992   0.386   0.230  0.3564  0.0381  0.4858
 5302SOL    HW220980   3.970   0.475   0.258 -0.5876 -0.3823  1.1119
 5302SOL    HW320981   4.032   0.346   0.307  1.5260  0.1573 -0.0388
 5302SOL    MW420982   3.994   0.393   0.243 -0.4783 -0.1151  0.3497
 5303SOL     OW20983   6.333   1.673   0.951 -0.9096 -0.7737 -0.9070
 5303SOL    HW220984   6.392   1.671   1.026 -0.5658 -0.3050 -1.1543
 5303SOL    HW320985   6.358   1.752   0.903 -3.1439  0.6461  0.0964
 5303SOL    MW420986   6.344   1.683   0.954 -0.0125 -0.2032  0.0909
 5304SOL     OW20987   0.346   2.295   2.816 -0.3279 -0.0571  0.0064
 5304SOL    HW220988   0.378   2.332   2.733  0.6685 -0.5097  0.1823
 5304SOL    HW320989   0.403   2.220   2.833 -0.9027 -0.3254  0.8070
 5304SOL    MW420990   0.358   2.290   2.807 -0.4609  0.8202  0.0741
 5305SOL     OW20991   3.098   3.461   4.859  0.5462 -0.2724 -0.3201
 5305SOL    HW220992   3.011   3.475   4.821 -0.0009  1.2506  1.3948
 5305SOL    HW320993   3.149   3.425   4.786 -1.7416 -2.2048 -1.1159
 5305SOL    MW420994   3.093   3.458   4.844 -0.1458  0.3877 -0.4256
 5306SOL     OW20995   0.943   6.402   5.542  0.8274 -0.4980 -0.0962
 5306SOL    HW220996   0.913   6.321   5.502  0.9074 -0.7379  0.3254
 5306SOL    HW320997   0.885   6.469   5.506  0.6498 -0.7641 -0.3118
 5306SOL    MW420998   0.932   6.400   5.532  0.1462 -0.5729  0.5193
 5307SOL     OW20999   2.765   2.755   5.160  0.3662 -0.0270  0.6630
 5307SOL    HW221000   2.848   2.706   5.164  2.5385  3.3422  0.5560
 5307SOL    HW321001   2.767   2.800   5.076 -0.5493  1.7578  1.5378
 5307SOL    MW421002   2.776   2.754   5.150 -0.3411  0.1478 -0.8081
 5308SOL     OW21003   5.331   5.242   1.036 -0.2841  0.6961  0.1709
 5308SOL    HW221004   5.409   5.288   1.066  1.4424 -1.7974 -0.1730
 5308SOL    HW321005   5.312   5.279   0.950 -1.1285  3.1189  1.3245
 5308SOL    MW421006   5.338   5.253   1.028 -0.1018  0.1741  0.9265
 5309SOL     OW21007   1.779   3.683   4.984  0.1605 -0.1868 -0.4298
 5309SOL    HW221008   1.826   3.766   4.981 -0.2890  0.0396 -2.0433
 5309SOL    HW321009   1.731   3.679   4.901  2.1776 -3.2100 -1.6555
 5309SOL    MW421010   1.779   3.693   4.973  0.5112  0.5998 -0.4627
 5310SOL     OW21011   1.815   4.906   5.463  0.1749 -0.2434  0.0272
 5310SOL    HW221012   1.872   4.921   5.387 -0.0103 -0.5373 -0.1732
 5310SOL    HW321013   1.837   4.818   5.492 -1.9644 -1.4320 -1.6448
 5310SOL    MW421014   1.825   4.897   5.457  0.2472 -0.6484 -1.2431
 5311SOL     OW21015   2.199   2.166   4.674 -0.0594 -0.5402  0.0534
 5311SOL    HW221016   2.208   2.091   4.733 -2.4321 -0.8964  0.0628
 5311SOL    HW321017   2.106   2.167   4.651  0.6307  0.0380 -3.1175
 5311SOL    MW421018   2.188   2.156   4.679  0.2373 -0.7893 -0.1474
 5312SOL     OW21019   1.335   6.033   2.707  0.2090 -0.1747 -0.1149
 5312SOL    HW221020   1.301   6.028   2.797 -0.1111  0.9340 -0.1522
 5312SOL    HW321021   1.425   6.064   2.717  0.7353 -1.6328 -0.1040
 5312SOL    MW421022   1.342   6.036   2.720  0.5007  0.0582  0.1419
 5313SOL     OW21023   0.058   6.138   6.046  0.3115 -0.2183 -0.2162
 5313SOL    HW221024   0.107   6.058   6.062  0.3467 -0.4818 -1.5311
 5313SOL    HW321025  -0.034   6.111   6.050  0.3160 -0.2433 -0.2947
 5313SOL    MW421026   0.052   6.124   6.049  0.7239  0.4669 -0.2282
 5314SOL     OW21027   4.862   5.488   5.447 -0.2849  0.1365 -0.1473
 5314SOL    HW221028   4.925   5.445   5.390 -0.3607 -0.3612  0.1329
 5314SOL    HW321029   4.806   5.416   5.479  0.2589  0.2754  1.1917
 5314SOL    MW421030   4.863   5.473   5.444  0.0866 -0.3760  0.0142
 5315SOL     OW21031   0.993   5.031   4.096 -0.2772  0.4461 -0.0623
 5315SOL    HW221032   1.028   5.050   4.009 -1.3016 -1.8283 -1.0462
 5315SOL    HW321033   0.898   5.039   4.086 -0.3719  2.2093  1.4504
 5315SOL    MW421034   0.985   5.035   4.083  0.0864 -0.2333  0.6094
 5316SOL     OW21035   0.860   4.574   1.439  0.6752  0.2510 -0.0998
 5316SOL    HW221036   0.904   4.636   1.381  0.4175 -0.7013 -1.3598
 5316SOL    HW321037   0.789   4.538   1.386  0.6860 -0.9487  0.6695
 5316SOL    MW421038   0.857   4.578   1.425  0.0812  0.3831  0.3794
 5317SOL     OW21039   6.043   1.239   1.075  0.1145  0.3663 -0.5483
 5317SOL    HW221040   5.996   1.298   1.016 -0.1189 -0.7567 -1.5238
 5317SOL    HW321041   6.038   1.153   1.032  0.6903 -0.3118  0.6876
 5317SOL    MW421042   6.036   1.235   1.061 -0.2721  0.6201 -0.3933
 5318SOL     OW21043   6.136   4.910   1.770  0.1513  0.3362 -0.2612
 5318SOL    HW221044   6.209   4.932   1.713  2.0419 -1.3820  1.3547
 5318SOL    HW321045   6.079   4.855   1.716  0.1104  1.5170 -1.4680
 5318SOL    MW421046   6.138   4.906   1.755  0.1356  0.1262  0.4106
 5319SOL     OW21047   3.459   4.666   5.017  0.6198 -0.0968  0.1095
 5319SOL    HW221048   3.393   4.685   5.083 -0.6100 -1.3643 -0.7007
 5319SOL    HW321049   3.523   4.611   5.062 -0.4154 -1.2765  0.1694
 5319SOL    MW421050   3.459   4.661   5.031  0.1200 -0.1563  0.3380
 5320SOL     OW21051   2.018   4.489   2.170  0.6168  0.0926  0.2148
 5320SOL    HW221052   2.014   4.394   2.168 -0.0453  0.1150  0.3071
 5320SOL    HW321053   1.988   4.517   2.083  0.4166  0.2290  0.3272
 5320SOL    MW421054   2.013   4.480   2.158 -0.0415  0.5823 -0.4342
 5321SOL     OW21055   4.038   3.041   4.798  0.5827 -0.2211 -0.5058
 5321SOL    HW221056   4.053   2.961   4.849  0.1373 -0.3917 -0.6372
 5321SOL    HW321057   4.052   3.014   4.707  1.2246  0.0468 -0.4968
 5321SOL    MW421058   4.042   3.026   4.793 -0.2056  0.1342  0.1315
 5322SOL     OW21059   6.097   6.346   4.092  0.8045  0.1520  0.3536
 5322SOL    HW221060   6.113   6.395   4.172  0.7313 -0.5342  0.7966
 5322SOL    HW321061   6.137   6.399   4.023  1.6654  0.3100  0.9596
 5322SOL    MW421062   6.104   6.360   4.093  0.4833 -0.1722  0.3534
 5323SOL     OW21063   3.341   4.679   5.288  0.2671 -0.5263  0.5222
 5323SOL    HW221064   3.392   4.702   5.366  0.9042 -0.5982  0.1381
 5323SOL    HW321065   3.293   4.600   5.313  0.4327 -0.5251  0.8526
 5323SOL    MW421066   3.342   4.672   5.302  0.4198 -0.3345  0.3547
 5324SOL     OW21067   5.888   0.326   1.231  0.0547 -0.1543  0.2309
 5324SOL    HW221068   5.830   0.250   1.234  0.8943 -0.8462 -0.2803
 5324SOL    HW321069   5.973   0.289   1.206  0.2330  1.1073 -1.1214
 5324SOL    MW421070   5.892   0.311   1.228  0.7455 -0.5489  0.8448
 5325SOL     OW21071   3.826   2.506   0.955 -0.0741 -0.4661 -0.2794
 5325SOL    HW221072   3.886   2.516   1.029 -2.1422  0.9381  1.3539
 5325SOL    HW321073   3.777   2.425   0.975  1.0757 -1.5026 -1.5018
 5325SOL    MW421074   3.827   2.496   0.968 -0.0362  0.6220  0.5301
 5326SOL     OW21075   3.277   4.060   5.410  0.0565 -0.5660  0.2060
 5326SOL    HW221076   3.267   4.006   5.489 -1.4140  1.4231  1.4584
 5326SOL    HW321077   3.351   4.117   5.430  0.4095 -0.8225 -0.3487
 5326SOL    MW421078   3.286   4.060   5.423 -0.7439  0.1593  0.2636
 5327SOL     OW21079   2.065   5.129   4.170  0.0641 -0.7038  0.0601
 5327SOL    HW221080   2.139   5.151   4.114  1.5835  0.9500  2.5323
 5327SOL    HW321081   2.047   5.209   4.219 -4.0919 -0.6845 -1.0756
 5327SOL    MW421082   2.072   5.142   4.169  0.4237 -0.7523 -0.2854
 5328SOL     OW21083   2.163   3.378   4.816 -0.1315 -0.3871 -0.3300
 5328SOL    HW221084   2.096   3.409   4.877  1.5414  1.6946  0.5708
 5328SOL    HW321085   2.244   3.376   4.867  0.9469 -0.6227 -1.9562
 5328SOL    MW421086   2.165   3.382   4.831 -0.4277  0.0281 -0.1733
 5329SOL     OW21087   0.573   4.678   4.337  0.1441  0.0986 -0.0663
 5329SOL    HW221088   0.634   4.735   4.384  0.7893 -1.0167  0.4676
 5329SOL    HW321089   0.493   4.681   4.389  0.9587 -1.3958  1.3474
 5329SOL    MW421090   0.571   4.686   4.350  0.0335  0.4265 -0.6708
 5330SOL     OW21091   3.482   6.209   6.406  0.1063  0.5342  0.6983
 5330SOL    HW221092   3.481   6.164   6.490  2.6754  0.1189  0.5844
 5330SOL    HW321093   3.398   6.187   6.366 -0.9339  0.2717  2.8745
 5330SOL    MW421094   3.471   6.200   6.412 -0.0858 -0.4411  0.3931
 5331SOL     OW21095   0.590   1.505   5.200  0.2274  0.1030  0.1915
 5331SOL    HW221096   0.530   1.578   5.215  1.5184  1.0080  1.1615
 5331SOL    HW321097   0.675   1.546   5.185  0.9783 -1.1809  0.7099
 5331SOL    MW421098   0.593   1.520   5.200  0.1162  0.3853  0.4412
 5332SOL     OW21099   4.801   2.139   0.939 -0.6922  0.5826 -0.0560
 5332SOL    HW221100   4.837   2.218   0.898 -1.9936  0.8053 -0.8324
 5332SOL    HW321101   4.753   2.171   1.015 -0.2029  0.4043  0.3310
 5332SOL    MW421102   4.799   2.154   0.943 -0.3187 -0.2499 -0.2070
 5333SOL     OW21103   4.726   5.998   1.894 -0.3807 -0.1650 -0.1709
 5333SOL    HW221104   4.763   5.992   1.981  1.4805  1.6965 -0.7674
 5333SOL    HW321105   4.638   6.033   1.907  0.0562  0.5462  0.9197
 5333SOL    MW421106   4.719   6.001   1.907  0.0385 -0.4224 -0.1327
 5334SOL     OW21107   6.369   0.252   4.737  0.2537 -1.0570  0.0125
 5334SOL    HW221108   6.393   0.295   4.819  1.3641 -0.0509 -0.8096
 5334SOL    HW321109   6.283   0.287   4.715  1.1522  0.8739 -0.6691
 5334SOL    MW421110   6.361   0.262   4.745 -0.1307  0.3379  0.2844
 5335SOL     OW21111   0.705   2.705   0.825  0.2913 -0.1851  0.2868
 5335SOL    HW221112   0.665   2.636   0.878 -0.5213 -0.1884 -0.3054
 5335SOL    HW321113   0.751   2.760   0.888 -0.2801 -0.4413  0.9468
 5335SOL    MW421114   0.706   2.703   0.840  0.3165  0.3261 -0.1236
 5336SOL     OW21115   3.305   6.195   3.087  0.2153 -0.2590 -0.8657
 5336SOL    HW221116   3.306   6.137   3.163 -0.4903  0.1734 -0.5134
 5336SOL    HW321117   3.212   6.212   3.072  0.4138  0.8123 -0.9280
 5336SOL    MW421118   3.293   6.190   3.095 -0.6983  0.2271  0.0920
 5337SOL     OW21119   2.202   1.827   4.440 -0.1868  0.4337  0.1780
 5337SOL    HW221120   2.271   1.843   4.505  0.1599 -0.7200  0.1042
 5337SOL    HW321121   2.121   1.825   4.492  0.1562 -1.1637  0.7030
 5337SOL    MW421122   2.200   1.829   4.456 -0.3097 -1.0630 -0.6266
 5338SOL     OW21123   3.877   3.340   0.231  0.0734 -0.2851 -0.0982
 5338SOL    HW221124   3.900   3.305   0.317  1.9201  0.6983 -0.1584
 5338SOL    HW321125   3.903   3.432   0.234 -2.4335  0.5506 -0.7834
 5338SOL    MW421126   3.883   3.347   0.243  0.4624  0.0080 -0.1838
 5339SOL     OW21127   5.586   5.256   1.712 -0.2716  0.1440 -0.2245
 5339SOL    HW221128   5.653   5.299   1.764  0.1808  1.7305 -1.9967
 5339SOL    HW321129   5.630   5.181   1.673 -0.6962 -1.2350  1.8014
 5339SOL    MW421130   5.600   5.252   1.713 -0.4012  0.3431 -0.2981
 5340SOL     OW21131   1.535   2.503   0.437  0.1461 -0.6502  0.3549
 5340SOL    HW221132   1.527   2.516   0.342  3.9570 -0.3153 -0.0588
 5340SOL    HW321133   1.541   2.591   0.473 -0.2883 -0.8081  0.8327
 5340SOL    MW421134   1.535   2.517   0.429  0.0986 -0.8728  0.1664
 5341SOL     OW21135   2.645   6.136   4.255  0.6151  0.0727 -0.0273
 5341SOL    HW221136   2.571   6.195   4.270  0.1661 -0.5441  0.2167
 5341SOL    HW321137   2.608   6.062   4.208  1.5484  0.8806 -2.1632
 5341SOL    MW421138   2.631   6.134   4.251  0.4859 -0.6397 -0.3025
 5342SOL     OW21139   2.924   5.579   1.608 -0.3046 -0.0186 -0.2511
 5342SOL    HW221140   2.839   5.597   1.649 -0.0127 -0.1948  0.4489
 5342SOL    HW321141   2.950   5.494   1.644  0.8587  0.7148  0.6926
 5342SOL    MW421142   2.916   5.570   1.618  0.7597  0.1533  0.5734
 5343SOL     OW21143   2.314   4.688   0.985 -0.3503 -0.1363  0.6684
 5343SOL    HW221144   2.269   4.611   0.951 -0.3539 -0.0147  0.3968
 5343SOL    HW321145   2.405   4.660   0.996 -0.7172 -0.7514  2.3675
 5343SOL    MW421146   2.320   4.674   0.982  0.0569  0.2952  0.0791
 5344SOL     OW21147   1.810   5.209   3.536  0.6339 -0.3714 -0.3867
 5344SOL    HW221148   1.793   5.191   3.628  1.2279 -0.5471 -0.3076
 5344SOL    HW321149   1.879   5.275   3.537  1.8431 -1.5970 -0.7081
 5344SOL    MW421150   1.817   5.216   3.548  0.1243  0.4015 -0.1253
 5345SOL     OW21151   6.220   2.360   1.576 -0.2255 -0.3304 -0.4197
 5345SOL    HW221152   6.150   2.425   1.578  0.4572  0.4900 -1.7668
 5345SOL    HW321153   6.299   2.408   1.597 -0.1387 -1.4843  2.3222
 5345SOL    MW421154   6.221   2.375   1.579  0.5193 -0.0323 -0.3380
 5346SOL     OW21155   3.421   6.223   3.471  0.7402  0.2286  0.0870
 5346SOL    HW221156   3.367   6.167   3.416  0.7036  0.0704  0.2820
 5346SOL    HW321157   3.499   6.240   3.418  0.2948  0.8419 -0.3801
 5346SOL    MW421158   3.424   6.218   3.457  0.3007 -0.2579 -0.4847
 5347SOL     OW21159   6.428   0.882   2.036  0.3981 -0.2083  0.3751
 5347SOL    HW221160   6.514   0.910   2.007 -0.0253  0.3800 -0.3665
 5347SOL    HW321161   6.389   0.960   2.075  0.2341 -0.4939  0.7937
 5347SOL    MW421162   6.434   0.896   2.037 -0.1412 -0.4508  0.5292
 5348SOL     OW21163   0.140   1.709   5.429  0.2801 -0.3657 -0.5814
 5348SOL    HW221164   0.153   1.619   5.397 -1.0385 -0.1303 -1.8841
 5348SOL    HW321165   0.162   1.704   5.522  1.7088 -1.6878 -0.9303
 5348SOL    MW421166   0.145   1.696   5.437  0.0225 -0.2408 -0.2136
 5349SOL     OW21167   2.499   4.048   2.706  0.1160 -0.4933  1.0092
 5349SOL    HW221168   2.554   4.118   2.741 -0.9123  0.0408  1.6201
 5349SOL    HW321169   2.472   3.998   2.782  0.2019 -1.0910  0.6554
 5349SOL    MW421170   2.503   4.051   2.720 -0.0827  0.6647 -0.2494
 5350SOL     OW21171   0.744   5.378   3.316 -0.1478 -0.4908 -0.3989
 5350SOL    HW221172   0.730   5.473   3.310  0.7303 -0.2896  0.5341
 5350SOL    HW321173   0.673   5.348   3.373  0.4274 -0.1552  0.5245
 5350SOL    MW421174   0.732   5.387   3.323  0.0040 -0.1387 -0.0543
 5351SOL     OW21175   5.948   0.362   6.035  0.5614  0.1211  0.2868
 5351SOL    HW221176   5.887   0.401   6.098  1.4105  0.3921  0.9581
 5351SOL    HW321177   6.007   0.434   6.013 -0.3406  0.3288 -1.6349
 5351SOL    MW421178   5.948   0.377   6.040 -0.6897 -0.0320 -0.3264
 5352SOL     OW21179   5.173   0.424   1.863  0.2942 -0.1488  0.0522
 5352SOL    HW221180   5.101   0.486   1.872  0.9090  0.5717  0.1249
 5352SOL    HW321181   5.139   0.341   1.898  0.1632  0.6857  2.0394
 5352SOL    MW421182   5.159   0.421   1.869  0.7448  0.2385  0.5715
 5353SOL     OW21183   0.245   5.681   2.741  0.0997 -0.0678  0.0116
 5353SOL    HW221184   0.247   5.588   2.721 -1.5874 -0.5917  2.0092
 5353SOL    HW321185   0.154   5.707   2.724  0.1492  0.8205  1.0027
 5353SOL    MW421186   0.233   5.672   2.736  0.0031 -0.7019  0.6970
 5354SOL     OW21187   1.395   4.446   0.179 -0.1030  0.9635 -0.3755
 5354SOL    HW221188   1.403   4.506   0.254  1.6688  0.5355 -0.1820
 5354SOL    HW321189   1.385   4.359   0.219  1.8645  0.6079 -0.5909
 5354SOL    MW421190   1.395   4.442   0.194  0.1824  0.4385  0.6128
 5355SOL     OW21191   0.760   2.909   4.568  0.4693  0.1023  0.2823
 5355SOL    HW221192   0.807   2.829   4.545  0.7499  0.4200 -0.2855
 5355SOL    HW321193   0.799   2.976   4.511 -1.3462  0.1880 -0.9475
 5355SOL    MW421194   0.772   2.907   4.557  0.1012 -0.5900  0.3642
 5356SOL     OW21195   3.646   2.563   5.277  0.6563 -0.4326 -0.0416
 5356SOL    HW221196   3.601   2.606   5.205 -1.0330 -1.7143  0.1815
 5356SOL    HW321197   3.728   2.611   5.287 -0.8891  2.4129 -0.1007
 5356SOL    MW421198   3.651   2.575   5.269 -0.3681 -0.1283 -0.2746
 5357SOL     OW21199   3.465   0.702   4.320  0.9367 -0.3142  0.1360
 5357SOL    HW221200   3.440   0.729   4.231  0.8675  2.4439  0.9075
 5357SOL    HW321201   3.403   0.632   4.342 -0.7125  0.6683 -1.0917
 5357SOL    MW421202   3.453   0.696   4.311  0.7613  0.0602 -0.1325
 5358SOL     OW21203   2.641   1.200   4.532 -0.0643  0.0661  0.2815
 5358SOL    HW221204   2.694   1.207   4.452 -1.9285 -0.6511 -1.0705
 5358SOL    HW321205   2.608   1.289   4.546 -0.2528  0.0615 -0.1191
 5358SOL    MW421206   2.644   1.213   4.523  0.0403 -0.0804  0.2489
 5359SOL     OW21207   4.107   2.642   4.628 -0.0087 -0.0226 -0.2956
 5359SOL    HW221208   4.015   2.638   4.652 -0.0204  0.1864 -0.3101
 5359SOL    HW321209   4.145   2.562   4.665  0.1125  0.5969  0.9671
 5359SOL    MW421210   4.100   2.631   4.636  0.0301 -0.0516 -0.0682
 5360SOL     OW21211   4.218   4.635   1.999 -0.2254 -0.2173 -0.0454
 5360SOL    HW221212   4.123   4.633   1.992 -0.3955  0.2934  1.5737
 5360SOL    HW321213   4.248   4.559   1.949 -1.4182  0.0106 -1.1587
 5360SOL    MW421214   4.209   4.625   1.992  0.0129 -0.2851  0.4253
 5361SOL     OW21215   6.019   1.328   1.996  0.0652 -0.3348  0.1153
 5361SOL    HW221216   5.962   1.320   2.072 -2.0873  1.7167 -1.1741
 5361SOL    HW321217   6.082   1.397   2.021 -1.5095  1.3598 -0.3753
 5361SOL    MW421218   6.020   1.336   2.010  0.2053 -0.2609 -0.0673
 5362SOL     OW21219   5.536   3.050   4.666  0.0677 -0.0833 -0.0591
 5362SOL    HW221220   5.575   2.971   4.627  0.7219  0.7387 -1.1383
 5362SOL    HW321221   5.507   3.102   4.591 -0.9170  0.4401  0.6612
 5362SOL    MW421222   5.538   3.046   4.651 -0.1169 -0.3033 -0.3231
 5363SOL     OW21223   0.817   3.181   5.301 -0.3416 -0.2138 -0.0528
 5363SOL    HW221224   0.798   3.113   5.365 -0.1722  0.5922  0.8906
 5363SOL    HW321225   0.885   3.143   5.245 -0.9579 -1.1685 -0.1650
 5363SOL    MW421226   0.824   3.167   5.302 -0.3241 -0.1978  0.3763
 5364SOL     OW21227   6.404   0.924   0.092  0.0328  0.6142  0.7957
 5364SOL    HW221228   6.359   1.008   0.101  0.7134  1.4573 -2.3379
 5364SOL    HW321229   6.335   0.861   0.073 -0.1306  1.6098 -2.4539
 5364SOL    MW421230   6.389   0.927   0.091 -0.3416 -0.4910  0.0454
 5365SOL     OW21231   5.514   5.455   5.366  0.5714 -0.5244 -0.5604
 5365SOL    HW221232   5.595   5.460   5.316  0.5410 -2.0601 -0.8170
 5365SOL    HW321233   5.507   5.363   5.392 -0.6207 -0.2349  0.2487
 5365SOL    MW421234   5.523   5.443   5.363 -0.2645  0.6355 -0.6594
 5366SOL     OW21235   5.861   1.989   0.786  0.4223 -0.0831 -0.0061
 5366SOL    HW221236   5.817   1.993   0.702  0.3612  1.4782  0.0757
 5366SOL    HW321237   5.909   1.907   0.784 -1.0800 -0.9951 -0.7936
 5366SOL    MW421238   5.861   1.979   0.775  0.4739 -0.1500 -0.2051
 5367SOL     OW21239   0.142   5.653   4.761 -0.4723 -0.2052  0.4195
 5367SOL    HW221240   0.060   5.686   4.724 -0.6361  0.7181  1.5206
 5367SOL    HW321241   0.200   5.641   4.686 -0.8437  1.4215 -0.1766
 5367SOL    MW421242   0.139   5.656   4.747 -0.3295 -0.0365 -0.0835
 5368SOL     OW21243   0.862   1.196   2.079 -0.0290  0.7742 -0.0822
 5368SOL    HW221244   0.886   1.279   2.038  1.0834  0.5920  0.1528
 5368SOL    HW321245   0.772   1.180   2.051  0.4374  1.0215 -1.8418
 5368SOL    MW421246   0.854   1.205   2.070 -0.0946 -0.5969 -0.2342
 5369SOL     OW21247   6.286   5.224   1.974 -0.2934 -0.1385 -0.5125
 5369SOL    HW221248   6.233   5.283   1.920  0.3326 -0.7084 -1.7865
 5369SOL    HW321249   6.228   5.150   1.992 -0.4702  0.0039 -0.4849
 5369SOL    MW421250   6.271   5.222   1.969 -0.1567 -0.1183  0.2803
 5370SOL     OW21251   0.128   2.390   6.180 -0.0008  0.6122 -0.1209
 5370SOL    HW221252   0.138   2.299   6.208  0.8045  0.7978  0.2542
 5370SOL    HW321253   0.155   2.390   6.088  1.2673  0.6696  0.2205
 5370SOL    MW421254   0.133   2.378   6.171 -0.0035 -0.1489  0.4086
 5371SOL     OW21255   3.082   5.638   4.880  0.2626 -0.3414  0.7365
 5371SOL    HW221256   3.040   5.635   4.794 -1.1860 -0.6232  1.4283
 5371SOL    HW321257   3.030   5.579   4.935  1.8667 -1.0951  1.5269
 5371SOL    MW421258   3.070   5.630   4.876  0.0003 -0.2657 -0.2479
 5372SOL     OW21259   4.344   1.274   4.454 -0.1456  0.6156  0.0893
 5372SOL    HW221260   4.249   1.269   4.438 -0.2288  1.2065  0.3472
 5372SOL    HW321261   4.358   1.219   4.531 -0.1790  0.0191 -0.3265
 5372SOL    MW421262   4.333   1.266   4.462 -0.7405  0.3204  0.3924
 5373SOL     OW21263   3.674   6.377   4.186  0.1613 -0.1226  0.2917
 5373SOL    HW221264   3.620   6.455   4.196  2.0301  1.1426  0.9713
 5373SOL    HW321265   3.749   6.406   4.134  0.3108 -1.7881 -0.4969
 5373SOL    MW421266   3.676   6.391   4.180  0.1368 -0.1351  0.7698
 5374SOL     OW21267   0.609   5.599   5.757 -0.2613  0.4228 -0.2250
 5374SOL    HW221268   0.691   5.626   5.714  0.8894 -1.6052  0.5937
 5374SOL    HW321269   0.630   5.599   5.850 -0.9465 -0.9077 -0.0584
 5374SOL    MW421270   0.623   5.603   5.764 -0.1217 -0.2639 -0.6877
 5375SOL     OW21271   1.350   4.739   2.886 -0.1328  0.2205 -0.5096
 5375SOL    HW221272   1.285   4.715   2.820 -1.5318 -3.1530  1.8099
 5375SOL    HW321273   1.299   4.786   2.952  0.4948  0.4802 -0.2080
 5375SOL    MW421274   1.334   4.742   2.886  0.5671  0.2761  0.2216
 5376SOL     OW21275   5.181   2.347   5.582  0.0184  0.3799 -0.1317
 5376SOL    HW221276   5.259   2.291   5.587  1.8201  2.6631 -0.8140
 5376SOL    HW321277   5.119   2.297   5.530  0.6708 -1.8497  1.0920
 5376SOL    MW421278   5.183   2.333   5.576  0.3928  0.5238 -0.3016
 5377SOL     OW21279   2.396   2.458   4.607  0.3897 -0.4326 -0.6605
 5377SOL    HW221280   2.457   2.467   4.680 -0.9242 -1.6828  0.6820
 5377SOL    HW321281   2.405   2.367   4.579 -0.3303 -0.4400 -0.9059
 5377SOL    MW421282   2.405   2.447   4.613 -0.2792 -0.1532  0.5542
 5378SOL     OW21283   1.761   3.901   2.144 -0.1773 -0.2906  0.4456
 5378SOL    HW221284   1.683   3.856   2.174  0.3562 -0.4521  1.6487
 5378SOL    HW321285   1.728   3.980   2.101 -0.9783  0.0850  1.6986
 5378SOL    MW421286   1.747   3.906   2.142 -0.0251 -0.2503  0.3802
 5379SOL     OW21287   6.120   1.947   4.554 -0.4061  0.2732  0.2562
 5379SOL    HW221288   6.128   1.957   4.649  1.3122  1.4994  0.0337
 5379SOL    HW321289   6.173   1.870   4.533  1.6589  1.6704  0.0389
 5379SOL    MW421290   6.128   1.938   4.563  0.3892 -0.2284  0.2172
 5380SOL     OW21291   4.482   3.164   1.007 -0.2771 -0.3166  0.0959
 5380SOL    HW221292   4.499   3.242   0.954 -0.2820 -1.1760 -1.1978
 5380SOL    HW321293   4.522   3.184   1.092 -2.1273  1.9413  0.5120
 5380SOL    MW421294   4.490   3.177   1.011 -0.4908 -0.4897  0.2995
 5381SOL     OW21295   4.844   6.076   2.133  0.7286  0.1299  0.6154
 5381SOL    HW221296   4.935   6.079   2.160  0.9234  0.2640 -0.0286
 5381SOL    HW321297   4.807   6.160   2.158  1.0619  0.4822 -0.0505
 5381SOL    MW421298   4.851   6.087   2.140  0.2373  0.4026  0.5503
 5382SOL     OW21299   1.741   5.394   5.394  0.7119 -0.5581 -0.0316
 5382SOL    HW221300   1.813   5.452   5.370 -0.1910  0.2959 -0.7657
 5382SOL    HW321301   1.781   5.328   5.451  1.7536  0.8289  0.8930
 5382SOL    MW421302   1.756   5.393   5.398  0.0122  0.5691 -0.0633
 5383SOL     OW21303   3.760   5.591   0.352 -0.1786  0.1055 -0.3867
 5383SOL    HW221304   3.723   5.567   0.267 -0.1773 -2.6521  0.3080
 5383SOL    HW321305   3.749   5.686   0.356 -2.2502  0.0629 -2.4964
 5383SOL    MW421306   3.753   5.600   0.341  0.0147 -0.4258 -0.1224
 5384SOL     OW21307   1.868   4.394   3.963 -0.0119 -0.7765 -0.5483
 5384SOL    HW221308   1.922   4.439   3.897  0.5510 -1.6763 -0.7222
 5384SOL    HW321309   1.779   4.402   3.931  0.4453 -3.4131 -2.8531
 5384SOL    MW421310   1.864   4.401   3.950  0.5447  0.1177  0.2247
 5385SOL     OW21311   5.159   3.196   4.815 -0.0649 -0.0484 -0.0908
 5385SOL    HW221312   5.139   3.289   4.809 -0.7568 -0.0209  1.8642
 5385SOL    HW321313   5.219   3.189   4.889 -1.4679 -1.3229  0.9894
 5385SOL    MW421314   5.164   3.207   4.824 -0.1763 -0.0687 -0.6199
 5386SOL     OW21315   4.082   2.800   4.951 -0.0279  0.0602  0.5474
 5386SOL    HW221316   4.087   2.846   5.035  1.7221 -0.0605  0.5597
 5386SOL    HW321317   4.168   2.758   4.942 -0.0496  0.3429 -1.4572
 5386SOL    MW421318   4.094   2.801   4.961  0.0807  0.0722 -0.7333
 5387SOL     OW21319   3.558   6.136   4.072 -0.4161 -0.3654  0.1902
 5387SOL    HW221320   3.605   6.216   4.093 -1.5198 -0.3202  2.9097
 5387SOL    HW321321   3.623   6.066   4.080  0.0592  0.0452 -0.0659
 5387SOL    MW421322   3.573   6.137   4.076  0.3076 -0.4691  0.0145
 5388SOL     OW21323   5.559   4.027   1.100  0.6242  0.6742 -0.5631
 5388SOL    HW221324   5.538   3.954   1.157 -1.5019  2.8498  1.7237
 5388SOL    HW321325   5.646   4.055   1.126  1.0266 -0.3880 -0.7513
 5388SOL    MW421326   5.568   4.021   1.111 -0.4515  0.0211  0.3269
 5389SOL     OW21327   3.665   3.331   4.839 -0.0167 -0.1572  0.2235
 5389SOL    HW221328   3.639   3.422   4.856  0.0577  0.0583 -0.7811
 5389SOL    HW321329   3.671   3.291   4.926  0.6769  0.9957  0.7250
 5389SOL    MW421330   3.662   3.338   4.853 -0.0516  0.2121  0.2080
 5390SOL     OW21331   2.659   4.374   1.714  0.0408 -0.3343  0.2061
 5390SOL    HW221332   2.626   4.299   1.664 -0.9085 -0.3017  0.7579
 5390SOL    HW321333   2.742   4.344   1.751  0.1819 -0.7503 -0.4315
 5390SOL    MW421334   2.665   4.360   1.712  0.2063  0.9206  0.2237
 5391SOL     OW21335   3.888   0.823   1.629 -0.1821 -0.4124  0.1939
 5391SOL    HW221336   3.917   0.903   1.587 -2.3374  0.4838  0.2625
 5391SOL    HW321337   3.861   0.766   1.557 -0.7353 -0.1769  0.2047
 5391SOL    MW421338   3.888   0.826   1.614  0.2073  0.4870  0.0618
 5392SOL     OW21339   6.378   1.375   1.638  0.1398 -0.3843 -0.3351
 5392SOL    HW221340   6.419   1.364   1.553  2.2413 -1.9949  0.7916
 5392SOL    HW321341   6.353   1.287   1.665 -0.3285  0.0668  0.7931
 5392SOL    MW421342   6.380   1.362   1.631 -0.2246  0.2463 -0.2294
 5393SOL     OW21343   0.486   2.200   5.508  0.1035  0.0547 -0.2267
 5393SOL    HW221344   0.564   2.255   5.514  0.8967 -1.0409 -0.0915
 5393SOL    HW321345   0.428   2.232   5.578  1.9036 -1.3247  2.0576
 5393SOL    MW421346   0.489   2.211   5.518  0.4078 -0.1430  0.7523
 5394SOL     OW21347   5.389   3.530   4.913  0.1278  0.2450  0.1140
 5394SOL    HW221348   5.483   3.511   4.907  0.1605 -0.3761  1.8496
 5394SOL    HW321349   5.357   3.522   4.824  1.5518 -0.5283 -0.3586
 5394SOL    MW421350   5.397   3.526   4.901 -0.1607 -0.1825 -0.4109
 5395SOL     OW21351   0.635   0.345   4.716 -0.4370 -0.1569 -0.1277
 5395SOL    HW221352   0.559   0.298   4.680 -0.2032 -0.7549  0.1442
 5395SOL    HW321353   0.623   0.340   4.811 -0.2720  0.1103 -0.0917
 5395SOL    MW421354   0.623   0.338   4.724  0.1070 -0.0486  0.1281
 5396SOL     OW21355   0.541   1.617   1.645  0.2297  0.3171 -0.0528
 5396SOL    HW221356   0.589   1.648   1.568  0.2243  0.9058  0.1740
 5396SOL    HW321357   0.482   1.549   1.611  0.1583  0.6398 -0.5879
 5396SOL    MW421358   0.539   1.612   1.630  0.3416 -0.2110  0.0500
 5397SOL     OW21359   3.405   3.513   2.570  0.5466 -0.3752 -0.0692
 5397SOL    HW221360   3.346   3.495   2.496  0.2737 -0.1944  0.1001
 5397SOL    HW321361   3.486   3.468   2.548  0.8035  0.4737 -0.9336
 5397SOL    MW421362   3.408   3.505   2.557 -0.1333  0.3566 -0.3566
 5398SOL     OW21363   3.399   5.074   1.040  0.5926  0.2648  0.1770
 5398SOL    HW221364   3.304   5.066   1.028  0.7226 -0.6218 -0.3937
 5398SOL    HW321365   3.410   5.087   1.134 -0.1279  1.0805  0.1573
 5398SOL    MW421366   3.388   5.075   1.051  0.5285 -0.3909  0.5058
 5399SOL     OW21367   3.966   1.963   3.503 -0.2652  0.0263  0.2880
 5399SOL    HW221368   3.952   1.961   3.598 -0.4275  0.6555  0.2873
 5399SOL    HW321369   3.957   2.056   3.480 -0.5964 -0.1667 -0.3946
 5399SOL    MW421370   3.963   1.975   3.512 -0.2662 -0.2537 -0.2750
 5400SOL     OW21371   5.849   2.725   6.310 -0.5285 -0.2201  0.1735
 5400SOL    HW221372   5.909   2.663   6.269  0.2409 -0.7813  2.0413
 5400SOL    HW321373   5.898   2.807   6.314 -0.1185 -0.4944  1.0577
 5400SOL    MW421374   5.863   2.728   6.306 -0.0081  0.0222  0.3827
 5401SOL     OW21375   2.913   3.874   1.503 -0.2416 -0.3161 -0.4295
 5401SOL    HW221376   2.956   3.860   1.587 -1.0533 -1.1191 -0.1316
 5401SOL    HW321377   2.955   3.812   1.444 -0.8941 -1.0163 -0.1683
 5401SOL    MW421378   2.924   3.864   1.506  0.1258 -0.0375  0.5323
 5402SOL     OW21379   6.032   4.247   0.303 -0.1209 -0.4713  0.3189
 5402SOL    HW221380   5.964   4.306   0.268 -0.3170  0.0272  1.4903
 5402SOL    HW321381   6.057   4.193   0.228 -0.5882  0.4925 -0.5655
 5402SOL    MW421382   6.026   4.248   0.289 -0.2602 -0.2436  0.1962
 5403SOL     OW21383   1.718   4.861   0.116  0.4195 -0.1864  0.2989
 5403SOL    HW221384   1.646   4.885   0.175 -0.5877  1.0974 -1.3405
 5403SOL    HW321385   1.682   4.790   0.062  1.2620 -1.2188  1.0624
 5403SOL    MW421386   1.704   4.855   0.117 -0.0975 -0.2603 -0.2298
 5404SOL     OW21387   3.334   3.725   1.112 -0.4012 -0.2043 -0.7439
 5404SOL    HW221388   3.327   3.733   1.017 -0.0769  0.7421 -0.6950
 5404SOL    HW321389   3.319   3.813   1.145  0.6853 -0.2828  0.0113
 5404SOL    MW421390   3.331   3.737   1.104  0.0519 -0.2343 -0.2504
 5405SOL     OW21391   6.169   5.367   1.492 -0.1311 -0.0869  0.1654
 5405SOL    HW221392   6.144   5.357   1.584 -0.0482  0.6202  0.2734
 5405SOL    HW321393   6.257   5.328   1.487  0.1766  0.5291  0.5594
 5405SOL    MW421394   6.178   5.360   1.504  0.1992 -0.1498  0.2203
 5406SOL     OW21395   6.186   1.766   1.251 -0.3435 -0.1164 -0.1727
 5406SOL    HW221396   6.245   1.833   1.217  1.9701 -2.0634 -0.2764
 5406SOL    HW321397   6.115   1.815   1.292  0.2360  2.3419 -1.8816
 5406SOL    MW421398   6.185   1.781   1.252  0.1933 -0.3904  0.1705
 5407SOL     OW21399   0.655   0.858   4.545 -0.1398  0.6526  0.5581
 5407SOL    HW221400   0.592   0.820   4.607  0.4241  0.1637  0.8398
 5407SOL    HW321401   0.725   0.793   4.540  0.8424  1.6532  1.0272
 5407SOL    MW421402   0.656   0.844   4.552  0.4244 -0.5131 -0.4878
 5408SOL     OW21403   5.246   5.622   1.410 -0.5847  0.0490 -0.1361
 5408SOL    HW221404   5.210   5.534   1.413 -0.8660  0.1828  0.3869
 5408SOL    HW321405   5.194   5.672   1.473  1.1841  0.0006  1.4298
 5408SOL    MW421406   5.234   5.617   1.418 -0.0605  0.1991 -0.2333
 5409SOL     OW21407   1.058   5.050   1.928  0.0897  0.2509 -0.1835
 5409SOL    HW221408   1.096   4.963   1.936  0.4568  0.4626  0.4368
 5409SOL    HW321409   1.129   5.104   1.893 -0.1733  0.2810 -0.6834
 5409SOL    MW421410   1.072   5.046   1.924 -0.0270 -0.7426  0.5261
 5410SOL     OW21411   4.109   5.541   0.248 -0.2259 -0.1115 -0.0889
 5410SOL    HW221412   4.088   5.604   0.180  1.8640  0.1725 -0.5435
 5410SOL    HW321413   4.093   5.588   0.330  0.3157  0.6866 -0.4206
 5410SOL    MW421414   4.104   5.555   0.250 -0.1117  0.1544 -0.3609
 5411SOL     OW21415   6.019   5.436   5.111  0.3517 -0.8416  0.1631
 5411SOL    HW221416   5.930   5.429   5.146  0.1404 -0.1853 -0.2287
 5411SOL    HW321417   6.027   5.362   5.051  0.5301 -1.6616  1.1604
 5411SOL    MW421418   6.009   5.425   5.108  0.3410  0.4452  0.3579
 5412SOL     OW21419   5.452   0.960   5.218  0.1949 -0.1026 -0.2873
 5412SOL    HW221420   5.356   0.960   5.213  0.1633 -2.3507 -0.7444
 5412SOL    HW321421   5.478   0.878   5.177  2.2949  0.1045  0.5099
 5412SOL    MW421422   5.443   0.949   5.212  0.0529 -0.1659 -0.5927
 5413SOL     OW21423   6.051   3.945   0.211 -0.3022  0.0394  0.4617
 5413SOL    HW221424   5.966   3.968   0.249 -0.4369 -0.0174  0.1993
 5413SOL    HW321425   6.035   3.942   0.117  0.2662  1.2461  0.2964
 5413SOL    MW421426   6.038   3.948   0.204 -0.2101 -0.4148 -0.3409
 5414SOL     OW21427   1.840   1.512   2.165 -0.4985 -0.4222  0.2177
 5414SOL    HW221428   1.918   1.474   2.124 -0.7135 -1.2467  0.5538
 5414SOL    HW321429   1.872   1.590   2.210  0.3481 -1.3778  1.3230
 5414SOL    MW421430   1.854   1.517   2.165  0.2179  0.1287 -0.6116
 5415SOL     OW21431   2.870   3.150   5.492  0.2115 -0.1100  0.0358
 5415SOL    HW221432   2.900   3.084   5.429  2.4605 -0.8400  1.7405
 5415SOL    HW321433   2.786   3.115   5.524  0.3608 -1.0890 -0.5782
 5415SOL    MW421434   2.863   3.137   5.488  0.0103  0.0055 -0.3395
 5416SOL     OW21435   2.554   1.482   0.628  0.1003 -0.0184 -0.2594
 5416SOL    HW221436   2.578   1.473   0.720  0.7475  0.1388 -0.4063
 5416SOL    HW321437   2.633   1.458   0.580  0.2557  1.3844 -0.7419
 5416SOL    MW421438   2.568   1.478   0.633  0.0239  0.4769 -0.1706
 5417SOL     OW21439   6.166   0.676   5.206  0.3237  0.1290  0.0630
 5417SOL    HW221440   6.234   0.738   5.232 -0.8260  1.5688 -0.2313
 5417SOL    HW321441   6.209   0.591   5.207  2.6754  1.1835 -1.9557
 5417SOL    MW421442   6.181   0.673   5.210  0.5746 -0.3787  0.5307
 5418SOL     OW21443   2.404   3.905   2.947  0.1554  0.0247 -0.6525
 5418SOL    HW221444   2.319   3.874   2.977  0.6973  0.0399  1.0145
 5418SOL    HW321445   2.467   3.846   2.989  0.9817  0.2563 -1.5429
 5418SOL    MW421446   2.401   3.893   2.957  0.2828  0.4692 -0.0163
 5419SOL     OW21447   5.839   4.643   6.057 -0.7254  0.3230 -0.6623
 5419SOL    HW221448   5.837   4.738   6.046 -1.8555  0.4666  0.5679
 5419SOL    HW321449   5.853   4.609   5.969  0.6735  1.6440 -0.9930
 5419SOL    MW421450   5.840   4.651   6.044  0.6010  0.3269 -0.4362
 5420SOL     OW21451   6.115   2.531   3.025 -0.6277  0.4479  0.6980
 5420SOL    HW221452   6.121   2.534   3.121  0.2620 -0.9302  0.7232
 5420SOL    HW321453   6.046   2.467   3.007 -0.0316 -0.1489  0.4514
 5420SOL    MW421454   6.107   2.523   3.036 -0.0908  0.2413 -0.0584
 5421SOL     OW21455   1.346   3.931   5.023 -0.0255 -0.3146 -0.0113
 5421SOL    HW221456   1.384   4.016   5.046  0.9929 -0.6322 -0.4738
 5421SOL    HW321457   1.286   3.951   4.951 -0.7859  0.1922  0.7404
 5421SOL    MW421458   1.343   3.945   5.016  0.3839  0.1993 -0.1585
 5422SOL     OW21459   2.442   1.869   4.639  0.6600  0.3206  0.0956
 5422SOL    HW221460   2.472   1.926   4.709  1.4873 -2.2849  2.0454
 5422SOL    HW321461   2.521   1.824   4.609 -0.1004 -0.6295 -0.5584
 5422SOL    MW421462   2.456   1.870   4.644  0.0996 -0.3993  0.1141
 5423SOL     OW21463   5.927   3.697   3.256  0.0189 -0.6743 -0.3440
 5423SOL    HW221464   6.018   3.690   3.284 -0.0283  0.2231  0.0829
 5423SOL    HW321465   5.918   3.788   3.227 -1.1255 -0.2715  1.0963
 5423SOL    MW421466   5.938   3.708   3.256  0.0430 -0.7787 -0.0841
 5424SOL     OW21467   0.415   6.209   5.772 -0.5506  0.1916 -0.7197
 5424SOL    HW221468   0.421   6.303   5.755 -0.7995  0.1112 -1.2728
 5424SOL    HW321469   0.322   6.193   5.788 -0.4603  0.0952 -0.2656
 5424SOL    MW421470   0.403   6.219   5.772  0.1622 -0.2789  0.3058
 5425SOL     OW21471   0.947   2.083   6.396  0.0847  0.3852  0.0326
 5425SOL    HW221472   0.939   2.023   6.471 -0.2958  1.4564  0.8866
 5425SOL    HW321473   1.018   2.143   6.421  1.1835 -0.3237 -1.2701
 5425SOL    MW421474   0.955   2.083   6.410 -0.4939  0.2277  0.2099
 5426SOL     OW21475   3.991   5.935   2.263  0.3534 -0.1864 -0.8910
 5426SOL    HW221476   4.043   5.900   2.191  0.3809  2.0623 -2.0560
 5426SOL    HW321477   3.908   5.960   2.223  0.0867  0.4017 -0.0036
 5426SOL    MW421478   3.987   5.934   2.248  0.0304 -0.7644  0.0175
 5427SOL     OW21479   4.285   5.860   2.722 -0.3040 -0.0162 -0.7340
 5427SOL    HW221480   4.327   5.777   2.700 -2.4196 -1.5195  0.4649
 5427SOL    HW321481   4.262   5.899   2.638 -0.8810 -1.5816 -1.3385
 5427SOL    MW421482   4.287   5.854   2.708  0.5359  0.5087 -0.2094
 5428SOL     OW21483   3.355   3.281   3.857 -0.2432 -0.0612  0.0072
 5428SOL    HW221484   3.417   3.327   3.800 -0.5206  0.0149 -0.2369
 5428SOL    HW321485   3.277   3.269   3.803 -0.8908  0.9318  0.6817
 5428SOL    MW421486   3.353   3.286   3.842  0.0672 -0.4067  0.0186
 5429SOL     OW21487   2.765   6.341   2.701 -0.5005 -0.8195  0.4180
 5429SOL    HW221488   2.698   6.318   2.764  0.2199 -2.3140  0.6897
 5429SOL    HW321489   2.848   6.321   2.745  0.0415 -1.1333 -0.6855
 5429SOL    MW421490   2.767   6.335   2.715  0.1313  0.3092  0.1708
 5430SOL     OW21491   0.994   0.025   4.309 -0.0677 -0.6171 -0.5008
 5430SOL    HW221492   0.997  -0.061   4.265 -2.7001 -0.6250 -0.8608
 5430SOL    HW321493   0.959   0.084   4.242 -1.3294  0.0124  0.6791
 5430SOL    MW421494   0.990   0.021   4.294  0.1655 -0.1502 -0.0379
 5431SOL     OW21495   1.501   1.603   1.811  0.3177  0.4532  0.3195
 5431SOL    HW221496   1.585   1.606   1.855  0.8010 -1.0316 -0.4349
 5431SOL    HW321497   1.508   1.666   1.739  0.5327  0.8119  0.6543
 5431SOL    MW421498   1.513   1.612   1.807  0.0251 -0.0226 -0.3254
 5432SOL     OW21499   3.042   2.992   0.049  0.1708 -0.9030  0.2487
 5432SOL    HW221500   3.101   2.919   0.065 -0.2071 -1.4607 -0.7902
 5432SOL    HW321501   3.006   3.014   0.135  0.7732 -1.5123  0.6668
 5432SOL    MW421502   3.045   2.985   0.062 -0.3644  0.4344  0.3438
 5433SOL     OW21503   5.290   5.806   0.755  0.0738  0.3204  0.0528
 5433SOL    HW221504   5.361   5.771   0.809  0.6601 -0.0180 -0.9167
 5433SOL    HW321505   5.330   5.877   0.705 -0.5878  0.9685  0.4127
 5433SOL    MW421506   5.304   5.811   0.756  0.3771  0.7634  0.5433
 5434SOL     OW21507   0.910   0.640   4.220  0.3403 -0.3184  0.3519
 5434SOL    HW221508   1.003   0.637   4.242  0.2171 -0.2022  0.8897
 5434SOL    HW321509   0.875   0.556   4.248  0.6530 -1.1425 -1.5839
 5434SOL    MW421510   0.917   0.629   4.226  0.4009 -0.2888  0.0420
 5435SOL     OW21511   5.088   5.470   4.836  0.1759  0.4751 -0.4040
 5435SOL    HW221512   5.070   5.376   4.837 -0.0324  0.5055 -0.9501
 5435SOL    HW321513   5.152   5.484   4.906  0.9715 -0.2173 -0.9863
 5435SOL    MW421514   5.094   5.460   4.845  0.0177 -0.1220 -0.2884
 5436SOL     OW21515   1.649   0.332   0.875  0.2059 -0.1450  0.4844
 5436SOL    HW221516   1.599   0.251   0.888 -1.8168  0.7781 -0.9855
 5436SOL    HW321517   1.652   0.372   0.962  0.5374 -1.3967  1.0722
 5436SOL    MW421518   1.642   0.326   0.888 -0.2380 -0.0171 -0.0852
 5437SOL     OW21519   1.085   6.296   5.768 -0.2319  0.3464  0.1128
 5437SOL    HW221520   1.035   6.281   5.848 -0.2952 -1.4358 -0.2243
 5437SOL    HW321521   1.031   6.356   5.717 -2.6113 -2.2718 -0.6786
 5437SOL    MW421522   1.072   6.302   5.772 -0.2492 -0.0655  0.0382
 5438SOL     OW21523   1.498   2.814   2.882 -0.0394  0.2593  0.0533
 5438SOL    HW221524   1.440   2.738   2.890  0.5059  0.0235  2.2706
 5438SOL    HW321525   1.580   2.779   2.849  0.4289 -0.2732  1.7099
 5438SOL    MW421526   1.501   2.800   2.879  0.5226 -0.4226  0.4568
 5439SOL     OW21527   1.169   1.901   5.897  0.6378 -0.2491 -0.1803
 5439SOL    HW221528   1.082   1.864   5.910  0.1890  0.1385 -1.9114
 5439SOL    HW321529   1.225   1.826   5.878  0.6985 -0.4965  0.9102
 5439SOL    MW421530   1.165   1.886   5.896 -0.4345 -0.4941 -0.9153
 5440SOL     OW21531   4.167   0.359   4.138 -0.0404 -0.5427 -0.4225
 5440SOL    HW221532   4.186   0.445   4.102 -2.3451  0.1296 -0.1400
 5440SOL    HW321533   4.177   0.370   4.233 -0.2266 -0.6174 -0.3945
 5440SOL    MW421534   4.171   0.372   4.146 -0.1155  0.5046 -0.8056
 5441SOL     OW21535   6.149   6.068   1.101 -0.4522 -0.0833 -0.2971
 5441SOL    HW221536   6.231   6.096   1.143 -1.5365  0.8131  1.2929
 5441SOL    HW321537   6.175   5.996   1.044  1.4669  0.2578  0.0749
 5441SOL    MW421538   6.164   6.062   1.099  0.0528  0.1263  0.3259
 5442SOL     OW21539   3.899   0.496   2.555 -0.3082  0.6337  0.4527
 5442SOL    HW221540   3.815   0.460   2.524 -0.8141  0.3908  1.9999
 5442SOL    HW321541   3.964   0.433   2.524 -0.8252  0.1875  0.2362
 5442SOL    MW421542   3.896   0.483   2.546 -0.4616  0.2026  0.0100
 5443SOL     OW21543   3.540   1.348   2.057 -0.2630  0.2400  0.2158
 5443SOL    HW221544   3.513   1.341   2.148 -0.1102 -1.6144  0.1604
 5443SOL    HW321545   3.634   1.334   2.058 -0.1292  1.0751 -0.1465
 5443SOL    MW421546   3.548   1.345   2.069  0.0277 -0.4465 -0.2410
 5444SOL     OW21547   3.991   0.627   6.326  0.0717 -0.9027 -0.4513
 5444SOL    HW221548   4.013   0.622   6.233  0.3262 -0.5286 -0.4128
 5444SOL    HW321549   3.923   0.560   6.338 -0.9694 -0.0337 -1.2036
 5444SOL    MW421550   3.985   0.617   6.315 -0.1819 -0.7154 -0.1026
 5445SOL     OW21551   1.436   4.948   6.366 -0.1286  0.0069  0.3445
 5445SOL    HW221552   1.456   5.034   6.402 -1.9400  0.3591  0.6284
 5445SOL    HW321553   1.489   4.942   6.287  1.2749  0.6769  1.2072
 5445SOL    MW421554   1.446   4.959   6.360  0.2846  0.5219 -0.3923
 5446SOL     OW21555   2.720   4.641   5.216 -0.0030 -0.1252  0.0447
 5446SOL    HW221556   2.810   4.608   5.213 -0.3075 -0.9494 -1.5683
 5446SOL    HW321557   2.720   4.706   5.286  1.1096 -2.2093  2.1237
 5446SOL    MW421558   2.732   4.645   5.225 -0.1529 -0.2135  0.2995
 5447SOL     OW21559   0.922   2.438   4.689  0.3836 -0.1140 -0.1471
 5447SOL    HW221560   0.853   2.380   4.658  2.1419 -1.2887 -2.1836
 5447SOL    HW321561   0.958   2.393   4.766  0.0887 -0.4571 -0.2063
 5447SOL    MW421562   0.918   2.424   4.695  0.4487 -0.0022  0.1751
 5448SOL     OW21563   6.352   5.947   6.258 -0.0630  0.0035  0.5779
 5448SOL    HW221564   6.303   6.017   6.300  0.4193  0.6028  0.1568
 5448SOL    HW321565   6.442   5.958   6.289 -0.0366 -0.5989  0.7251
 5448SOL    MW421566   6.358   5.957   6.268 -0.7166 -0.2702 -0.2883
 5449SOL     OW21567   2.912   2.390   3.399 -0.1488 -0.1054 -0.4251
 5449SOL    HW221568   2.985   2.354   3.448 -0.2303 -0.0101 -0.2324
 5449SOL    HW321569   2.835   2.369   3.452 -0.1994  0.3316 -0.3216
 5449SOL    MW421570   2.911   2.382   3.413 -0.0835 -0.1636  0.3849
 5450SOL     OW21571   5.271   5.169   0.300  0.3054 -0.2991 -0.1119
 5450SOL    HW221572   5.335   5.220   0.350 -0.2304  1.5829 -1.2482
 5450SOL    HW321573   5.237   5.231   0.235 -1.5980 -1.6755 -0.4921
 5450SOL    MW421574   5.275   5.184   0.298 -0.4375 -0.1452  0.1536
 5451SOL     OW21575   2.445   2.007   1.563 -0.8189 -0.1657 -0.0708
 5451SOL    HW221576   2.499   1.943   1.517 -0.7893 -0.3801  0.2581
 5451SOL    HW321577   2.363   2.009   1.514 -0.4897  0.2080 -0.6090
 5451SOL    MW421578   2.442   1.999   1.551 -0.4602  0.8769 -0.2346
 5452SOL     OW21579   3.717   1.626   4.469 -0.0074  0.0832  0.1795
 5452SOL    HW221580   3.787   1.622   4.534  1.1120  0.0638 -1.0002
 5452SOL    HW321581   3.745   1.693   4.407 -0.2587 -1.0293 -1.1852
 5452SOL    MW421582   3.730   1.634   4.470 -0.1743  0.3063 -1.0716
 5453SOL     OW21583   1.418   3.039   3.691 -0.1687 -0.6719  0.5986
 5453SOL    HW221584   1.378   3.072   3.771 -0.9404  0.3819 -0.1958
 5453SOL    HW321585   1.503   3.082   3.687 -0.8613  0.7103 -0.0423
 5453SOL    MW421586   1.424   3.049   3.701  0.2563  0.2651  0.1521
 5454SOL     OW21587   1.907   0.689   3.580 -0.2905 -0.2473 -0.3713
 5454SOL    HW221588   1.887   0.704   3.672 -1.3839  0.1344 -0.6481
 5454SOL    HW321589   1.947   0.771   3.551  1.0145 -0.7302 -0.0077
 5454SOL    MW421590   1.910   0.702   3.588 -0.2692  0.6100  0.2174
 5455SOL     OW21591   2.154   6.259   0.315 -0.2330 -0.2343  0.2647
 5455SOL    HW221592   2.158   6.342   0.267  0.4658  0.1961  1.0423
 5455SOL    HW321593   2.072   6.219   0.286  0.2752 -0.1033 -1.4438
 5455SOL    MW421594   2.144   6.265   0.305 -0.4914 -0.4452  0.1347
 5456SOL     OW21595   2.822   5.114   0.405  0.4446  0.5004 -0.0785
 5456SOL    HW221596   2.769   5.035   0.397  0.4534  0.4779  0.0682
 5456SOL    HW321597   2.815   5.157   0.320  0.4898  0.3097 -0.1784
 5456SOL    MW421598   2.814   5.109   0.393  0.3522  0.2765  0.1351
 5457SOL     OW21599   0.326   3.708   0.162  0.8758  0.1712 -0.3170
 5457SOL    HW221600   0.351   3.798   0.185  0.8043  0.0763  0.1544
 5457SOL    HW321601   0.233   3.714   0.142  0.7558  0.1178  0.2073
 5457SOL    MW421602   0.317   3.721   0.162  0.1219  0.5268  0.2219
 5458SOL     OW21603   3.809   0.686   2.748  0.5298 -0.7813  0.3641
 5458SOL    HW221604   3.856   0.644   2.676  0.6211 -0.5448  0.2850
 5458SOL    HW321605   3.798   0.617   2.814  1.2090 -0.7789  0.4872
 5458SOL    MW421606   3.814   0.672   2.748  0.2203  0.2599 -0.1422
 5459SOL     OW21607   0.434   4.020   1.070  0.1848  0.2444  0.5086
 5459SOL    HW221608   0.494   3.972   1.012 -0.4802  0.4347 -0.3689
 5459SOL    HW321609   0.347   4.002   1.034 -0.3798 -0.6467  2.2118
 5459SOL    MW421610   0.430   4.012   1.057 -0.0568  0.0464 -0.2437
 5460SOL     OW21611   1.678   0.373   0.106 -0.0452  0.6364  0.0095
 5460SOL    HW221612   1.698   0.297   0.161  0.1169 -0.5749 -1.6513
 5460SOL    HW321613   1.702   0.449   0.160 -0.0610 -0.4742  1.6490
 5460SOL    MW421614   1.684   0.373   0.121 -0.2742 -0.3418  0.3904
 5461SOL     OW21615   5.105   1.172   2.954 -0.5271  0.4227  0.1690
 5461SOL    HW221616   5.160   1.095   2.946 -1.1032  0.0230  0.0374
 5461SOL    HW321617   5.150   1.240   2.904 -0.7792 -0.2404 -0.9872
 5461SOL    MW421618   5.118   1.171   2.946  0.0891  0.0540  0.1846
 5462SOL     OW21619   5.581   0.107   0.269  0.1862 -1.1273  0.1654
 5462SOL    HW221620   5.557   0.043   0.336 -0.4382  0.4354  1.5061
 5462SOL    HW321621   5.654   0.156   0.309 -0.3239 -0.0476 -0.1754
 5462SOL    MW421622   5.588   0.105   0.283 -0.6653 -0.1598  0.7229
 5463SOL     OW21623   4.373   3.647   3.783 -0.4573  0.2507  0.3238
 5463SOL    HW221624   4.452   3.601   3.754  0.1018  0.8754  0.8457
 5463SOL    HW321625   4.304   3.613   3.725  0.2854  0.0932 -0.4995
 5463SOL    MW421626   4.375   3.636   3.771  0.1371  0.4668  0.1637
 5464SOL     OW21627   5.022   2.944   4.830 -0.4497 -0.0709  0.1520
 5464SOL    HW221628   4.986   2.932   4.743  0.7325 -0.2119 -0.3279
 5464SOL    HW321629   5.076   3.023   4.823  1.3284 -1.2469  0.1976
 5464SOL    MW421630   5.024   2.953   4.818  0.8911  0.2875  0.6393
 5465SOL     OW21631   5.985   2.662   0.125 -0.3092 -0.4371  0.3385
 5465SOL    HW221632   6.001   2.568   0.124 -1.7917 -0.8271  3.0151
 5465SOL    HW321633   5.912   2.674   0.064 -2.2403 -1.6189  2.2617
 5465SOL    MW421634   5.977   2.652   0.117  0.0647 -0.0914 -0.0457
 5466SOL     OW21635   5.966   3.302   4.627 -0.6789  0.0677  0.3633
 5466SOL    HW221636   5.930   3.390   4.632  2.4149  1.4147  1.4253
 5466SOL    HW321637   6.045   3.311   4.573 -0.7423 -2.2516 -0.2321
 5466SOL    MW421638   5.972   3.315   4.620 -0.1135 -0.1302 -0.5165
 5467SOL     OW21639   2.117   2.525   3.451 -0.4820  0.7356 -0.1525
 5467SOL    HW221640   2.062   2.462   3.405 -0.7720 -1.0862  2.4370
 5467SOL    HW321641   2.129   2.487   3.538  1.7120  2.9443  0.6344
 5467SOL    MW421642   2.111   2.512   3.456 -0.5739  0.1607 -0.4249
 5468SOL     OW21643   0.889   6.165   5.396 -0.0662  0.5112  0.1440
 5468SOL    HW221644   0.961   6.132   5.450 -0.5856 -0.9093  0.0041
 5468SOL    HW321645   0.811   6.153   5.450 -0.4055  0.4297 -0.3561
 5468SOL    MW421646   0.888   6.159   5.410  0.1583  0.1825 -1.1199
 5469SOL     OW21647   0.160   1.365   5.068 -0.0014 -0.0545 -0.2146
 5469SOL    HW221648   0.200   1.287   5.028 -0.5918  0.4899 -1.9915
 5469SOL    HW321649   0.199   1.439   5.020 -1.1056  0.6114 -0.1213
 5469SOL    MW421650   0.170   1.365   5.056 -0.3671  0.1702  0.5112
 5470SOL     OW21651   3.992   4.539   2.744 -0.2279 -0.5281  0.2582
 5470SOL    HW221652   3.975   4.613   2.802 -0.6769 -1.4373  1.3281
 5470SOL    HW321653   3.937   4.556   2.667  0.8317  0.9917 -0.2034
 5470SOL    MW421654   3.982   4.551   2.741 -0.0614 -0.1200  0.6040
 5471SOL     OW21655   3.771   0.647   1.451  0.1542  0.7083 -0.3762
 5471SOL    HW221656   3.680   0.621   1.465  0.7570 -0.5982  1.5271
 5471SOL    HW321657   3.807   0.581   1.392 -0.0415  1.0845 -0.9282
 5471SOL    MW421658   3.764   0.635   1.445 -0.7365 -0.0980 -0.4496
 5472SOL     OW21659   2.302   4.084   1.955  0.0230  0.0771  0.2139
 5472SOL    HW221660   2.248   4.121   2.025  1.9472 -1.7123  2.8838
 5472SOL    HW321661   2.368   4.151   1.938 -0.7340  0.7161 -0.2892
 5472SOL    MW421662   2.304   4.098   1.962  0.1591 -0.0052 -0.4662
 5473SOL     OW21663   1.088   2.248   2.602  0.0279 -0.4051  0.0404
 5473SOL    HW221664   1.071   2.308   2.674 -0.2208 -0.5645  0.1161
 5473SOL    HW321665   1.155   2.291   2.549  0.5029 -0.4673  0.5868
 5473SOL    MW421666   1.095   2.261   2.604  0.2165  0.3074  0.0092
 5474SOL     OW21667   4.110   1.910   0.491 -0.2107  0.4103  0.8159
 5474SOL    HW221668   4.088   1.818   0.478  0.1823  0.3916  0.2247
 5474SOL    HW321669   4.192   1.909   0.540  0.2662  0.4215  0.0405
 5474SOL    MW421670   4.118   1.898   0.496 -0.1730 -0.4426  0.4366
 5475SOL     OW21671   3.773   2.012   1.123 -0.0917  0.2444 -0.0278
 5475SOL    HW221672   3.723   2.021   1.204 -1.3548 -0.3201 -0.7090
 5475SOL    HW321673   3.733   1.937   1.078  0.5289  0.5908 -1.2110
 5475SOL    MW421674   3.761   2.003   1.127 -0.1687 -0.2576  0.1671
 5476SOL     OW21675   0.586   0.752   1.569 -0.4566 -0.2045  0.2925
 5476SOL    HW221676   0.617   0.670   1.609 -2.1833 -0.2031  1.7314
 5476SOL    HW321677   0.661   0.782   1.516  0.1061 -2.8672 -0.5790
 5476SOL    MW421678   0.600   0.745   1.567  0.2230  0.2884  0.8281
 5477SOL     OW21679   5.664   0.886   6.285  0.2465  0.0442  0.8802
 5477SOL    HW221680   5.681   0.948   6.214  1.9925 -0.6627  0.6448
 5477SOL    HW321681   5.598   0.930   6.340  1.6412  2.2618  0.9061
 5477SOL    MW421682   5.657   0.900   6.283  0.5564  0.2832 -0.0555
 5478SOL     OW21683   4.665   4.174   4.082  0.3550  0.2504 -0.2197
 5478SOL    HW221684   4.751   4.158   4.042  0.6105  1.1130 -0.0478
 5478SOL    HW321685   4.677   4.150   4.174  0.1430 -0.5060 -0.3886
 5478SOL    MW421686   4.678   4.169   4.089  0.0217 -0.2324 -0.2563
 5479SOL     OW21687   4.301   3.861   4.837  0.1946 -0.0350 -0.3705
 5479SOL    HW221688   4.241   3.786   4.830 -0.4668  0.3760  0.6271
 5479SOL    HW321689   4.244   3.935   4.858  0.9871  0.4845  0.0064
 5479SOL    MW421690   4.285   3.861   4.839 -0.3209 -0.0217 -0.5412
 5480SOL     OW21691   5.419   1.803   4.547 -0.2823  0.1649  0.0988
 5480SOL    HW221692   5.452   1.751   4.474  1.8440  0.7822  0.5561
 5480SOL    HW321693   5.357   1.745   4.591 -0.4037 -0.7852 -1.2565
 5480SOL    MW421694   5.415   1.788   4.543  0.2360  0.0359 -0.1496
 5481SOL     OW21695   2.020   4.463   4.946 -0.3642  0.0230  0.0562
 5481SOL    HW221696   2.006   4.452   5.040 -2.0638 -1.0983 -0.2925
 5481SOL    HW321697   2.054   4.552   4.938 -0.2109  0.1589  1.7144
 5481SOL    MW421698   2.023   4.473   4.958  0.1585  0.3055 -0.4257
 5482SOL     OW21699   1.439   3.954   6.313  0.0690  0.4982 -0.1105
 5482SOL    HW221700   1.480   3.954   6.399  0.6644 -0.4717 -0.3815
 5482SOL    HW321701   1.484   4.024   6.265  1.2639 -0.3819 -0.3215
 5482SOL    MW421702   1.451   3.964   6.318  0.0034  0.0586  0.1191
 5483SOL     OW21703   2.509   1.948   0.478  0.8632 -0.2051  0.2067
 5483SOL    HW221704   2.558   2.003   0.417 -0.7891 -0.9765 -1.9460
 5483SOL    HW321705   2.576   1.909   0.534  2.5602  0.0152 -1.5642
 5483SOL    MW421706   2.524   1.950   0.477  0.1390  0.2471  0.6084
 5484SOL     OW21707   1.451   1.762   1.559 -0.1418 -0.5553 -0.8920
 5484SOL    HW221708   1.391   1.833   1.579 -0.1712 -0.8654  0.1986
 5484SOL    HW321709   1.537   1.804   1.555  0.0469 -0.6328  1.1928
 5484SOL    MW421710   1.455   1.777   1.561  0.3369  0.0132 -0.3059
 5485SOL     OW21711   4.787   3.678   1.988  0.2642  0.4446 -0.2038
 5485SOL    HW221712   4.713   3.735   2.004  0.8707  0.6929  2.0045
 5485SOL    HW321713   4.860   3.737   1.970  0.2123  0.2386 -1.1506
 5485SOL    MW421714   4.787   3.693   1.988 -0.8305 -0.2799  0.2389
 5486SOL     OW21715   0.589   0.587   3.597  0.5881 -0.0767 -0.3633
 5486SOL    HW221716   0.646   0.640   3.542  1.1488  0.0768  0.3569
 5486SOL    HW321717   0.509   0.577   3.545  0.5676  1.2515 -0.6314
 5486SOL    MW421718   0.586   0.593   3.583 -0.2169 -0.8046 -0.4102
 5487SOL     OW21719   4.293   0.067   2.275 -0.4252 -0.2613 -0.5444
 5487SOL    HW221720   4.230   0.010   2.230  1.2957 -1.1045 -1.9803
 5487SOL    HW321721   4.365   0.077   2.214  1.8508 -1.0950  1.8064
 5487SOL    MW421722   4.294   0.061   2.261  0.2338 -0.3533  0.1492
 5488SOL     OW21723   4.782   5.771   3.816 -0.7956 -0.5535 -0.2234
 5488SOL    HW221724   4.845   5.749   3.884 -1.1343  1.4992  0.8472
 5488SOL    HW321725   4.697   5.758   3.858 -1.0545 -1.1049 -0.9046
 5488SOL    MW421726   4.779   5.766   3.831  0.0558 -0.4341  0.1876
 5489SOL     OW21727   4.970   3.829   3.553  0.1625 -0.4440 -0.5118
 5489SOL    HW221728   5.012   3.825   3.467  0.4367 -0.7496 -0.3654
 5489SOL    HW321729   4.904   3.898   3.544  2.4364  1.9293  0.0179
 5489SOL    MW421730   4.967   3.838   3.540 -0.0705  0.9398  0.1306
 5490SOL     OW21731   5.341   4.120   5.283 -0.2716 -0.3241 -0.4544
 5490SOL    HW221732   5.258   4.073   5.288  0.7267 -2.3554 -1.7672
 5490SOL    HW321733   5.396   4.080   5.351  0.1320 -0.0780 -0.6304
 5490SOL    MW421734   5.337   4.109   5.292 -0.1446 -0.7892 -0.3584
 5491SOL     OW21735   2.655   4.437   6.376  0.0651  0.0762 -0.5868
 5491SOL    HW221736   2.738   4.459   6.334  0.5831 -0.2412  0.2507
 5491SOL    HW321737   2.677   4.429   6.469 -1.0472  0.7200 -0.2547
 5491SOL    MW421738   2.669   4.439   6.383 -0.2673 -0.9254  0.0383
 5492SOL     OW21739   1.680   4.608   1.956  0.5284 -0.4301 -0.4832
 5492SOL    HW221740   1.631   4.690   1.953 -0.2034 -0.8661 -0.6923
 5492SOL    HW321741   1.772   4.634   1.946  0.1825  0.2242 -2.1717
 5492SOL    MW421742   1.686   4.622   1.954 -0.7428 -0.1873 -0.3517
 5493SOL     OW21743   5.920   1.000   5.270 -0.3460 -0.1767  0.2013
 5493SOL    HW221744   5.989   1.028   5.209  0.2767 -0.6107  0.6920
 5493SOL    HW321745   5.935   1.052   5.348 -0.5321 -0.3298  0.3395
 5493SOL    MW421746   5.931   1.011   5.272 -0.2639 -0.0368  0.6172
 5494SOL     OW21747   2.606   3.224   0.787 -0.1073 -0.2546  0.9894
 5494SOL    HW221748   2.625   3.145   0.838 -2.6326 -0.3790  1.8770
 5494SOL    HW321749   2.640   3.296   0.841 -0.4134 -0.5610  1.6066
 5494SOL    MW421750   2.613   3.223   0.801  0.4617 -0.8622 -0.3760
 5495SOL     OW21751   4.977   5.828   5.008 -0.4082 -0.2877 -0.2025
 5495SOL    HW221752   4.910   5.895   5.022 -1.6526 -1.6262  0.4994
 5495SOL    HW321753   5.019   5.854   4.926  0.4486  2.3677  0.9622
 5495SOL    MW421754   4.974   5.841   4.999 -0.1245  0.3312  0.1529
 5496SOL     OW21755   5.015   3.259   2.662 -0.2708  0.6391  0.1910
 5496SOL    HW221756   5.037   3.330   2.723  0.0303  0.9917 -0.3164
 5496SOL    HW321757   5.062   3.183   2.695  1.1379  1.2016 -0.4618
 5496SOL    MW421758   5.024   3.259   2.675  0.2672 -0.1870  0.4844
 5497SOL     OW21759   5.552   1.419   2.893 -0.5648 -0.0318  0.1709
 5497SOL    HW221760   5.545   1.482   2.964 -0.6315  0.1269  0.0258
 5497SOL    HW321761   5.597   1.467   2.823 -0.3863 -0.2247  0.1507
 5497SOL    MW421762   5.557   1.433   2.893 -0.1693 -1.1442 -0.2639
 5498SOL     OW21763   0.526   3.401   3.238  0.4612 -0.2378 -0.3813
 5498SOL    HW221764   0.561   3.343   3.170  2.7855  0.9036 -0.2211
 5498SOL    HW321765   0.596   3.409   3.302 -0.9405  0.3440  1.1534
 5498SOL    MW421766   0.540   3.394   3.237 -0.3533  0.1506  0.2332
 5499SOL     OW21767   4.469   0.877   0.556  0.4899 -0.1473 -0.0360
 5499SOL    HW221768   4.537   0.911   0.614 -0.3832  0.4968  0.6416
 5499SOL    HW321769   4.387   0.901   0.599 -0.1784 -1.7114 -0.3658
 5499SOL    MW421770   4.467   0.885   0.569 -0.3129  0.0209 -0.1047
 5500SOL     OW21771   0.312   3.467   0.627  0.3110 -0.0478  0.3715
 5500SOL    HW221772   0.333   3.529   0.557 -0.2297  0.8120  0.9535
 5500SOL    HW321773   0.398   3.438   0.660  0.5671  0.2093 -0.0695
 5500SOL    MW421774   0.326   3.471   0.622 -0.2495  0.4438 -0.3071
 5501SOL     OW21775   5.959   3.020   6.042 -0.4763  0.1777  0.4938
 5501SOL    HW221776   5.985   2.932   6.070 -0.4599  0.1563  0.4130
 5501SOL    HW321777   6.012   3.079   6.094  2.4874  0.1418 -2.1945
 5501SOL    MW421778   5.969   3.016   6.053 -0.0038  0.1190 -0.0163
 5502SOL     OW21779   3.175   6.159   3.988  0.6450  0.5663 -0.3428
 5502SOL    HW221780   3.240   6.194   3.927 -1.2290  0.4666 -2.5344
 5502SOL    HW321781   3.092   6.197   3.959 -0.3501  0.5212  2.2041
 5502SOL    MW421782   3.172   6.169   3.976  0.0003 -0.0917 -0.6060
 5503SOL     OW21783   2.702   2.654   4.311 -0.0726  0.0439 -0.3368
 5503SOL    HW221784   2.752   2.671   4.390 -0.2079  3.6885 -0.8659
 5503SOL    HW321785   2.612   2.676   4.335 -0.9374 -2.9673 -0.4089
 5503SOL    MW421786   2.696   2.659   4.324  0.0947  0.4723 -0.1725
 5504SOL     OW21787   2.496   3.782   4.423 -0.1108  0.0920 -0.0399
 5504SOL    HW221788   2.455   3.696   4.436 -0.6172  0.5039  1.2767
 5504SOL    HW321789   2.549   3.796   4.501 -2.1570  2.1077  1.1210
 5504SOL    MW421790   2.497   3.772   4.435  0.0716 -0.1483  0.1289
 5505SOL     OW21791   4.488   0.639   3.606 -0.1833 -0.3083  0.4663
 5505SOL    HW221792   4.440   0.702   3.551  0.7806 -0.3256 -0.4406
 5505SOL    HW321793   4.538   0.586   3.543 -0.1878 -1.3152  1.2842
 5505SOL    MW421794   4.488   0.640   3.590 -0.1413  0.2893  0.1831
 5506SOL     OW21795   0.756   4.930   5.821 -0.2243  0.1124  0.3288
 5506SOL    HW221796   0.724   5.017   5.797 -1.8083 -0.9884 -1.9163
 5506SOL    HW321797   0.683   4.890   5.869  0.0228 -0.3897  0.2960
 5506SOL    MW421798   0.742   4.936   5.825 -0.4778  0.1041 -0.3315
 5507SOL     OW21799   1.297   6.394   0.541 -0.0880 -0.3017 -0.3763
 5507SOL    HW221800   1.348   6.428   0.467 -0.4923  0.9759 -0.0862
 5507SOL    HW321801   1.347   6.319   0.572  0.9365  0.1393 -0.9176
 5507SOL    MW421802   1.310   6.389   0.535 -0.4132 -0.0493 -0.2294
 5508SOL     OW21803   1.129   6.261   5.196  0.0688  0.2156 -0.3794
 5508SOL    HW221804   1.151   6.321   5.124  1.1242  0.2622 -0.0395
 5508SOL    HW321805   1.062   6.204   5.160 -1.1996  1.7798 -0.6298
 5508SOL    MW421806   1.123   6.262   5.182 -0.3069  0.3010  0.3116
 5509SOL     OW21807   0.861   5.938   0.014  0.0690 -0.0958 -0.4507
 5509SOL    HW221808   0.860   5.848   0.044  0.1859  0.0310 -0.0584
 5509SOL    HW321809   0.942   5.975   0.049 -0.2607  0.3223 -0.1052
 5509SOL    MW421810   0.872   5.931   0.022 -0.0996  0.0661  0.7792
 5510SOL     OW21811   3.750   0.843   3.940  0.1421  0.0389  0.5278
 5510SOL    HW221812   3.682   0.780   3.960 -1.6461  1.3661 -0.9796
 5510SOL    HW321813   3.832   0.795   3.950 -1.0580 -1.9415  1.2559
 5510SOL    MW421814   3.752   0.828   3.944 -0.8594 -0.1890 -0.4835
 5511SOL     OW21815   1.671   3.314   3.179 -0.0429 -0.4699 -0.3312
 5511SOL    HW221816   1.654   3.269   3.262 -0.2294  1.6295  0.8222
 5511SOL    HW321817   1.602   3.283   3.120 -0.5109 -1.2335  0.5861
 5511SOL    MW421818   1.660   3.304   3.182  0.1698  0.6585 -0.2061
 5512SOL     OW21819   5.974   6.093   4.043 -0.0694 -0.3401  0.2459
 5512SOL    HW221820   6.022   6.172   4.067  1.1452 -1.5274  2.0331
 5512SOL    HW321821   5.886   6.106   4.079  0.2934 -0.0234  1.0549
 5512SOL    MW421822   5.969   6.105   4.051 -0.4347  0.2849  0.0516
 5513SOL     OW21823   3.137   0.202   2.180 -0.1033  0.2821 -0.2835
 5513SOL    HW221824   3.048   0.202   2.144  0.4387  1.7933 -1.7191
 5513SOL    HW321825   3.139   0.277   2.239  0.5321  0.9680 -1.1514
 5513SOL    MW421826   3.125   0.212   2.183  0.2095 -0.7119  0.0498
 5514SOL     OW21827   4.502   3.759   0.680 -0.4894 -0.2551 -0.2039
 5514SOL    HW221828   4.499   3.822   0.609  1.5591 -1.3735 -1.3916
 5514SOL    HW321829   4.592   3.763   0.712 -0.9758 -0.8399  1.3254
 5514SOL    MW421830   4.514   3.768   0.675 -0.5931 -0.6728  0.3988
 5515SOL     OW21831   4.377   2.165   4.923 -0.5240  0.2037 -0.2076
 5515SOL    HW221832   4.286   2.147   4.901 -0.0756 -1.4425 -0.8403
 5515SOL    HW321833   4.406   2.088   4.971  0.5099  0.7756  0.1311
 5515SOL    MW421834   4.369   2.153   4.926 -0.3666  0.0108 -0.1765
 5516SOL     OW21835   2.445   5.591   0.481  0.4612  0.3005  0.0467
 5516SOL    HW221836   2.533   5.593   0.443 -0.2368 -0.2531 -1.6783
 5516SOL    HW321837   2.392   5.644   0.421 -0.8150 -1.1163 -0.1266
 5516SOL    MW421838   2.449   5.598   0.468 -0.0344  0.5055  0.0950
 5517SOL     OW21839   0.743   6.310   0.990  0.0535  0.7904 -0.3873
 5517SOL    HW221840   0.715   6.402   0.994 -0.3389  0.6612 -0.0440
 5517SOL    HW321841   0.826   6.312   0.942 -0.4362  1.2132 -1.2465
 5517SOL    MW421842   0.750   6.323   0.984 -0.0052 -0.2170  0.0437
 5518SOL     OW21843   5.205   1.129   2.515 -0.3393  0.4281 -0.0573
 5518SOL    HW221844   5.140   1.059   2.521  0.2291 -0.1382 -0.3708
 5518SOL    HW321845   5.157   1.209   2.534 -1.3866  0.1672 -1.4770
 5518SOL    MW421846   5.190   1.130   2.519  0.2054 -0.4249 -0.2858
 5519SOL     OW21847   4.688   0.611   5.345  0.5756  0.4301 -0.4414
 5519SOL    HW221848   4.693   0.608   5.249  0.2989  0.6601 -0.4641
 5519SOL    HW321849   4.605   0.655   5.363 -0.1782 -1.0538 -0.1028
 5519SOL    MW421850   4.677   0.616   5.335 -0.1997 -0.4687  0.2255
 5520SOL     OW21851   3.338   2.373   5.463 -0.5767  0.5109  0.0798
 5520SOL    HW221852   3.317   2.395   5.372  0.5333  0.2399 -0.2663
 5520SOL    HW321853   3.314   2.281   5.472  3.3442 -0.9066 -1.3796
 5520SOL    MW421854   3.332   2.364   5.452 -0.1033 -0.5529  0.0251
 5521SOL     OW21855   5.380   5.059   1.966  0.2698  0.2400 -0.6259
 5521SOL    HW221856   5.358   5.112   1.889  0.2710 -0.2105 -0.9416
 5521SOL    HW321857   5.385   4.969   1.932  0.7424  0.1020 -0.1917
 5521SOL    MW421858   5.378   5.054   1.951 -0.1244 -0.4024  0.3737
 5522SOL     OW21859   2.398   2.810   2.450 -0.5817  0.1468  0.2675
 5522SOL    HW221860   2.428   2.719   2.442  1.2852  0.7540 -0.0896
 5522SOL    HW321861   2.470   2.862   2.414 -2.3083  1.7028 -1.1412
 5522SOL    MW421862   2.411   2.805   2.444 -0.0226  0.6796 -0.2997
 5523SOL     OW21863   1.674   0.991   5.396  0.0303  0.2778 -0.8114
 5523SOL    HW221864   1.616   0.983   5.472  0.7895 -0.4115 -0.2895
 5523SOL    HW321865   1.734   1.061   5.420  0.5948 -0.2867 -0.5455
 5523SOL    MW421866   1.674   0.999   5.409  0.2023 -0.0013 -0.2288
 5524SOL     OW21867   3.629   6.291   2.205 -0.1269  0.1546 -0.4909
 5524SOL    HW221868   3.716   6.328   2.219  0.1767 -0.8177  0.3375
 5524SOL    HW321869   3.594   6.339   2.130  0.2648  2.0053  0.4771
 5524SOL    MW421870   3.636   6.302   2.197  0.5966  0.1439  0.0365
 5525SOL     OW21871   5.043   4.564   1.167 -0.5031 -0.6662  0.8222
 5525SOL    HW221872   5.081   4.496   1.111 -0.9826 -1.3626  1.3303
 5525SOL    HW321873   5.062   4.534   1.256  1.0943  0.9040  1.0488
 5525SOL    MW421874   5.051   4.551   1.172 -0.0190  0.2428 -0.1768
 5526SOL     OW21875   1.108   5.208   5.777  0.0422  0.5782 -0.0491
 5526SOL    HW221876   1.186   5.154   5.773  0.1378  0.6775  0.3987
 5526SOL    HW321877   1.120   5.273   5.708  0.4687  0.7376  0.1680
 5526SOL    MW421878   1.120   5.210   5.768  0.0658 -0.4653 -0.6853
 5527SOL     OW21879   4.213   3.101   4.267  0.1877  0.4696  0.2516
 5527SOL    HW221880   4.276   3.030   4.250 -1.1835 -0.5132 -1.0373
 5527SOL    HW321881   4.246   3.175   4.216 -0.0018 -0.2401 -0.9601
 5527SOL    MW421882   4.226   3.101   4.258 -0.1823  0.5653 -0.0986
 5528SOL     OW21883   4.515   5.724   2.259 -0.2415 -0.6615  0.0092
 5528SOL    HW221884   4.605   5.758   2.263 -0.6162  0.3318  0.4825
 5528SOL    HW321885   4.513   5.669   2.181  1.2983 -2.2564  1.0090
 5528SOL    MW421886   4.527   5.722   2.250  0.1749 -0.5819 -0.4747
 5529SOL     OW21887   5.421   2.431   1.161 -0.7153  0.0202  0.3846
 5529SOL    HW221888   5.517   2.431   1.171 -0.7178 -0.6508  0.4541
 5529SOL    HW321889   5.395   2.342   1.184 -1.2415 -0.1313 -0.7608
 5529SOL    MW421890   5.431   2.419   1.165 -0.4385  0.5321  0.0117
 5530SOL     OW21891   2.561   6.227   6.017 -0.3951  0.3705  0.4013
 5530SOL    HW221892   2.472   6.194   6.006 -0.6057  1.1431 -0.3194
 5530SOL    HW321893   2.550   6.320   6.037  0.2206  0.2510  1.3667
 5530SOL    MW421894   2.548   6.235   6.019 -0.4613 -0.0171  0.1375
 5531SOL     OW21895   1.090   3.884   5.985  0.5969  0.4990 -0.2133
 5531SOL    HW221896   1.142   3.820   6.032  0.1749  1.3706  1.5322
 5531SOL    HW321897   1.025   3.832   5.937  1.5761 -0.4596 -0.5340
 5531SOL    MW421898   1.088   3.869   5.985 -0.0765  0.1047 -0.3571
 5532SOL     OW21899   3.848   6.101   5.320  0.4258 -0.2409  0.2299
 5532SOL    HW221900   3.798   6.037   5.371  0.0988  0.2081  0.4825
 5532SOL    HW321901   3.921   6.126   5.376  0.6900 -0.5617  0.0370
 5532SOL    MW421902   3.851   6.096   5.334 -0.2443  0.1538  0.5297
 5533SOL     OW21903   2.028   5.301   2.001 -0.0301  0.3179 -0.2921
 5533SOL    HW221904   2.021   5.366   1.931 -0.0780  1.5233  0.8002
 5533SOL    HW321905   1.938   5.282   2.027  0.0215  0.8856  0.3328
 5533SOL    MW421906   2.015   5.307   1.995 -0.2626 -0.4878  0.1904
 5534SOL     OW21907   3.702   1.190   2.466 -0.2941 -0.2238 -0.6328
 5534SOL    HW221908   3.674   1.167   2.555  1.4298  1.0699  0.2974
 5534SOL    HW321909   3.630   1.242   2.430 -0.3433  0.5849  0.6022
 5534SOL    MW421910   3.688   1.194   2.473 -0.0180  0.5904 -0.2646
 5535SOL     OW21911   3.382   2.033   5.007 -0.3138  0.1579  0.0402
 5535SOL    HW221912   3.398   1.939   4.996  0.5897  0.3369 -0.2072
 5535SOL    HW321913   3.391   2.049   5.100  1.5198  0.3458 -0.1447
 5535SOL    MW421914   3.385   2.022   5.018  0.4834 -0.0096  0.1145
 5536SOL     OW21915   5.149   1.730   1.835  0.2013 -0.1140 -0.2651
 5536SOL    HW221916   5.106   1.669   1.895  0.7480 -0.5612 -0.3194
 5536SOL    HW321917   5.211   1.676   1.786 -0.6077  0.1469 -1.6217
 5536SOL    MW421918   5.152   1.715   1.837 -0.6426 -0.7958  0.1342
 5537SOL     OW21919   2.096   3.079   0.108  0.6639 -0.0741  0.6519
 5537SOL    HW221920   2.105   3.103   0.200 -1.5324 -2.6125  1.6467
 5537SOL    HW321921   2.007   3.108   0.085  0.3244 -1.4946  0.0714
 5537SOL    MW421922   2.085   3.086   0.117 -0.5746  0.1333  0.1619
 5538SOL     OW21923   6.408   5.547   0.511 -0.2869  0.3183 -0.3999
 5538SOL    HW221924   6.403   5.518   0.602 -0.8755 -0.7711 -0.7657
 5538SOL    HW321925   6.325   5.593   0.496 -0.0098  0.8638 -0.2654
 5538SOL    MW421926   6.397   5.549   0.521 -0.5178 -0.1623  0.2357
 5539SOL     OW21927   4.089   2.216   3.129 -0.1967  0.4200 -0.3157
 5539SOL    HW221928   4.144   2.184   3.200  1.5688  0.1305 -1.7553
 5539SOL    HW321929   4.098   2.311   3.132  0.2822  0.3814 -0.4597
 5539SOL    MW421930   4.097   2.224   3.139 -0.2148 -0.2069 -0.3799
 5540SOL     OW21931   2.865   4.415   4.343 -0.5001  0.2322 -0.0940
 5540SOL    HW221932   2.927   4.358   4.388 -2.4731 -1.9830 -0.0175
 5540SOL    HW321933   2.843   4.481   4.409  0.7328  0.2871  0.3035
 5540SOL    MW421934   2.871   4.417   4.358 -0.0827 -0.0992 -0.2862
 5541SOL     OW21935   4.676   2.953   3.839  0.1597  0.3744 -0.3365
 5541SOL    HW221936   4.589   2.964   3.876 -0.6564 -3.7337 -0.4901
 5541SOL    HW321937   4.716   2.885   3.893  2.9497  1.4454 -0.8834
 5541SOL    MW421938   4.670   2.945   3.851  0.4241 -0.0023  0.1351
 5542SOL     OW21939   2.128   1.596   0.356 -0.4246  0.4259  0.0001
 5542SOL    HW221940   2.221   1.610   0.376 -0.6907  0.0136  1.6777
 5542SOL    HW321941   2.122   1.609   0.261  1.3269  0.5378 -0.1353
 5542SOL    MW421942   2.140   1.600   0.346 -0.0513  0.0028  0.4136
 5543SOL     OW21943   5.354   4.808   5.174 -0.0045  0.0352 -0.5914
 5543SOL    HW221944   5.349   4.752   5.252 -1.2133  0.9193 -0.0207
 5543SOL    HW321945   5.437   4.855   5.185  2.2319 -3.1229 -2.1699
 5543SOL    MW421946   5.364   4.807   5.186 -0.4746 -0.6598 -0.3235
 5544SOL     OW21947   3.356   2.148   2.860  0.2660  0.4369 -0.3706
 5544SOL    HW221948   3.398   2.063   2.872  0.8253  0.7132 -0.3801
 5544SOL    HW321949   3.330   2.149   2.768 -1.6966 -0.6090  0.1177
 5544SOL    MW421950   3.358   2.137   2.849  0.1307 -0.1443 -0.0693
 5545SOL     OW21951   3.941   6.416   5.581  0.4403  0.6146  0.5212
 5545SOL    HW221952   3.892   6.438   5.660  0.2952  1.7977  0.1134
 5545SOL    HW321953   3.881   6.436   5.509  0.3559 -0.9947  0.1052
 5545SOL    MW421954   3.926   6.421   5.582 -0.0428 -0.3077  0.9698
 5546SOL     OW21955   1.592   1.275   3.536 -0.2013 -0.2662  0.2968
 5546SOL    HW221956   1.581   1.370   3.540  1.5855  0.0442 -1.0032
 5546SOL    HW321957   1.547   1.249   3.456 -0.8247 -0.5716  0.7314
 5546SOL    MW421958   1.585   1.284   3.526 -0.7575  0.3838 -0.8536
 5547SOL     OW21959   0.252   4.945   4.531 -0.7947 -0.4013  0.3483
 5547SOL    HW221960   0.316   5.017   4.535  0.7790 -1.8022  1.3012
 5547SOL    HW321961   0.205   4.960   4.449  2.0217 -0.3197 -1.3764
 5547SOL    MW421962   0.254   4.957   4.520 -0.0795  1.2596 -0.2715
 5548SOL     OW21963   0.392   1.681   5.265 -0.0705  0.0187 -0.5002
 5548SOL    HW221964   0.382   1.742   5.338 -0.6339 -2.0130  1.2220
 5548SOL    HW321965   0.304   1.669   5.231 -0.4748 -1.9328  1.0507
 5548SOL    MW421966   0.379   1.688   5.270 -0.0091  0.3227 -0.1196
 5549SOL     OW21967   0.755   3.941   4.332  0.3233  0.0071 -0.3210
 5549SOL    HW221968   0.692   4.002   4.369  0.9811  1.7547 -1.9045
 5549SOL    HW321969   0.732   3.856   4.369 -0.9975  1.1039  1.5148
 5549SOL    MW421970   0.744   3.938   4.341  0.2221 -0.7118 -0.4705
 5550SOL     OW21971   0.688   2.996   2.924  0.2531 -0.7964 -0.7441
 5550SOL    HW221972   0.617   2.996   2.988 -0.2913 -0.1568 -1.3306
 5550SOL    HW321973   0.761   3.040   2.968  0.2086 -1.2237 -0.2329
 5550SOL    MW421974   0.689   3.002   2.939 -0.0256  0.2657  0.3937
 5551SOL     OW21975   2.109   3.253   3.216  0.0085  0.6724 -0.2674
 5551SOL    HW221976   2.147   3.334   3.183  0.7719  0.3845 -0.1088
 5551SOL    HW321977   2.036   3.235   3.157  1.5939 -0.0627 -2.1304
 5551SOL    MW421978   2.104   3.261   3.203 -0.1573 -0.1095 -0.3641
 5552SOL     OW21979   1.174   2.349   0.519 -0.1393  0.1256 -0.0313
 5552SOL    HW221980   1.093   2.297   0.526  0.4193 -0.5119  2.9593
 5552SOL    HW321981   1.244   2.286   0.539  1.1489  0.7369 -2.2771
 5552SOL    MW421982   1.172   2.334   0.523 -0.6752  0.7284 -0.7162
 5553SOL     OW21983   5.179   1.854   1.391  0.1306  0.3614  0.0688
 5553SOL    HW221984   5.167   1.899   1.307  0.6870  0.8402  0.2374
 5553SOL    HW321985   5.270   1.825   1.389 -0.1921 -0.6868  0.0050
 5553SOL    MW421986   5.190   1.856   1.379  0.3567  0.1629 -0.3284
 5554SOL     OW21987   5.932   4.100   5.967 -0.1827  0.1279 -0.2191
 5554SOL    HW221988   6.016   4.129   6.003 -0.0474 -1.1425  0.5457
 5554SOL    HW321989   5.867   4.153   6.014  0.1448  0.6290 -0.3183
 5554SOL    MW421990   5.934   4.111   5.978 -0.2371  0.4179  0.5374
 5555SOL     OW21991   0.221   4.569   2.111  0.6108 -0.2253  0.4570
 5555SOL    HW221992   0.258   4.484   2.135 -1.1056 -1.0098  0.4765
 5555SOL    HW321993   0.178   4.600   2.191  1.6144  0.8938  0.5781
 5555SOL    MW421994   0.220   4.562   2.125  0.3283 -0.0486  0.3918
 5556SOL     OW21995   1.291   6.394   2.147 -0.1175 -0.1911  0.1233
 5556SOL    HW221996   1.285   6.436   2.061  1.5384 -2.0984 -1.0382
 5556SOL    HW321997   1.243   6.451   2.206  1.5251  3.0170 -1.3838
 5556SOL    MW421998   1.284   6.407   2.143 -0.3310 -0.3589 -0.3248
 5557SOL     OW21999   4.031   0.457   3.531  0.4627 -0.0600  0.7389
 5557SOL    HW222000   4.102   0.447   3.468  0.0728  0.4389  0.2031
 5557SOL    HW322001   4.003   0.368   3.552  1.7735 -0.3048  1.5891
 5557SOL    MW422002   4.036   0.444   3.526  0.3839  0.0604 -0.0443
 5558SOL     OW22003   3.225   5.711   6.398  0.7836 -0.5576  1.0481
 5558SOL    HW222004   3.261   5.697   6.311 -0.5749  0.0611  0.3525
 5558SOL    HW322005   3.185   5.626   6.422 -0.5569 -0.2002  0.2003
 5558SOL    MW422006   3.224   5.698   6.390  0.3225  0.2038  0.0636
 5559SOL     OW22007   2.115   5.644   5.733 -0.5234 -0.0703 -0.2544
 5559SOL    HW222008   2.175   5.682   5.796 -0.6327 -0.8755  0.3505
 5559SOL    HW322009   2.038   5.702   5.734  0.0008  0.6422 -0.6184
 5559SOL    MW422010   2.113   5.657   5.741 -0.0317  0.0046  0.2025
 5560SOL     OW22011   4.189   2.180   4.144  0.0064  0.4716  0.5725
 5560SOL    HW222012   4.200   2.125   4.066 -1.1578  0.2238  0.5689
 5560SOL    HW322013   4.278   2.192   4.177  0.7134  1.8087 -1.6246
 5560SOL    MW422014   4.202   2.174   4.138 -0.1322  0.1983 -0.1532
 5561SOL     OW22015   2.819   5.108   5.491 -0.0045 -0.4897 -0.7209
 5561SOL    HW222016   2.787   5.107   5.582 -0.8462  3.7406 -0.7333
 5561SOL    HW322017   2.913   5.124   5.499  0.1955 -1.6236 -0.6498
 5561SOL    MW422018   2.827   5.110   5.504  0.4532 -0.1976  0.5370
 5562SOL     OW22019   5.855   4.459   1.398 -0.4974  0.1184  0.0479
 5562SOL    HW222020   5.802   4.444   1.320 -1.3049 -1.3365  0.8274
 5562SOL    HW322021   5.808   4.528   1.446 -0.5621  0.2741 -0.2349
 5562SOL    MW422022   5.842   4.466   1.394 -0.0116 -0.6660  0.2594
 5563SOL     OW22023   2.869   3.730   0.531 -0.1923  0.3684 -0.1377
 5563SOL    HW222024   2.795   3.701   0.584  0.2222  0.1439  0.3270
 5563SOL    HW322025   2.861   3.826   0.529 -1.0624  0.2953 -0.9452
 5563SOL    MW422026   2.858   3.739   0.538  0.3531  0.2156  0.3994
 5564SOL     OW22027   5.224   5.331   1.381  0.4390  0.0659 -0.0855
 5564SOL    HW222028   5.190   5.296   1.464  0.3308 -1.3778 -0.7077
 5564SOL    HW322029   5.318   5.314   1.385  0.8164  2.0823  0.6940
 5564SOL    MW422030   5.232   5.324   1.393  0.0975  0.0201  0.0611
 5565SOL     OW22031   4.171   0.477   2.971 -0.1484  0.0984  0.1067
 5565SOL    HW222032   4.120   0.402   2.940 -0.9917  0.1373  1.3298
 5565SOL    HW322033   4.167   0.540   2.900  1.5493 -1.4187 -1.4352
 5565SOL    MW422034   4.164   0.475   2.958  0.3904 -0.5003 -0.1335
 5566SOL     OW22035   6.413   3.880   5.511 -0.1639 -0.5689  0.0286
 5566SOL    HW222036   6.425   3.864   5.418  1.9928  0.4324  0.0669
 5566SOL    HW322037   6.403   3.793   5.550 -1.5788 -0.9688 -1.1440
 5566SOL    MW422038   6.413   3.866   5.504  0.3338 -0.1800  0.4809
 5567SOL     OW22039   2.252   6.313   0.799 -0.1674  0.0211 -0.1662
 5567SOL    HW222040   2.296   6.235   0.764 -0.2719 -0.5596  0.9567
 5567SOL    HW322041   2.322   6.362   0.842 -0.1729  0.3642 -0.5422
 5567SOL    MW422042   2.267   6.309   0.800 -0.0924  0.2299  0.4975
 5568SOL     OW22043   4.348   3.723   5.623 -0.2425 -0.0599  0.2091
 5568SOL    HW222044   4.401   3.771   5.687 -2.1478 -0.9183  2.5962
 5568SOL    HW322045   4.306   3.791   5.571 -0.7663  0.8097  1.7095
 5568SOL    MW422046   4.350   3.739   5.624 -0.5235 -0.5287 -0.2584
 5569SOL     OW22047   1.824   0.101   5.680  0.4180  0.4569 -0.6405
 5569SOL    HW222048   1.894   0.132   5.738  0.1138  1.0284 -0.5699
 5569SOL    HW322049   1.770   0.179   5.664  0.0018  0.1029 -0.9828
 5569SOL    MW422050   1.826   0.115   5.686 -0.2272  0.2250 -0.1767
 5570SOL     OW22051   5.844   4.479   0.213  0.1879 -0.3943  0.0560
 5570SOL    HW222052   5.806   4.546   0.155  0.5592 -1.1150 -1.0416
 5570SOL    HW322053   5.918   4.523   0.255 -0.3181  0.2528  0.3008
 5570SOL    MW422054   5.849   4.494   0.211 -0.0500 -0.0200 -0.5910
 5571SOL     OW22055   4.267   5.534   0.579 -0.3879  0.0025 -0.2629
 5571SOL    HW222056   4.197   5.598   0.563 -1.1787 -0.0202  2.6276
 5571SOL    HW322057   4.326   5.545   0.504 -1.1414  3.2310 -0.5324
 5571SOL    MW422058   4.265   5.544   0.567 -0.2629 -0.1167 -0.4605
 5572SOL     OW22059   3.538   0.770   5.913 -0.2406  0.3785  0.5653
 5572SOL    HW222060   3.597   0.750   5.986  0.8895  0.2076 -0.3823
 5572SOL    HW322061   3.565   0.711   5.843  0.9277  2.8037 -1.1378
 5572SOL    MW422062   3.549   0.760   5.913  0.1205  0.4454  0.5002
 5573SOL     OW22063   1.428   6.387   6.093 -0.2054 -0.0026 -0.0852
 5573SOL    HW222064   1.370   6.325   6.049 -0.7832  0.1746  0.4066
 5573SOL    HW322065   1.497   6.405   6.030  0.0047 -1.1930 -0.2049
 5573SOL    MW422066   1.429   6.381   6.079  0.3916  0.6718  0.0969
 5574SOL     OW22067   2.287   2.749   4.179  0.2962 -0.0695  0.0193
 5574SOL    HW222068   2.314   2.751   4.087  0.0473 -0.3837 -0.0646
 5574SOL    HW322069   2.351   2.691   4.220  2.0259  2.1268  0.6010
 5574SOL    MW422070   2.299   2.741   4.172  0.3194 -0.3945 -0.2840
 5575SOL     OW22071   4.641   4.597   3.249 -0.1684  0.7791  0.0085
 5575SOL    HW222072   4.662   4.658   3.320 -1.0278  0.0035  0.9517
 5575SOL    HW322073   4.545   4.592   3.249 -0.1443  0.1805 -0.7024
 5575SOL    MW422074   4.631   4.605   3.258 -0.3660 -0.1444  0.5485
 5576SOL     OW22075   0.238   6.335   4.814 -0.3999  0.1382  0.6350
 5576SOL    HW222076   0.244   6.420   4.858  0.3121  0.4064  0.0376
 5576SOL    HW322077   0.231   6.272   4.885  0.2220  0.6102  1.1314
 5576SOL    MW422078   0.238   6.338   4.829  0.3848  0.5501  0.2819
 5577SOL     OW22079   0.013   6.250   0.028  0.1494  0.1392 -0.3016
 5577SOL    HW222080   0.083   6.186   0.025 -0.1262 -0.2036  0.3712
 5577SOL    HW322081   0.026   6.304  -0.050  1.4126  0.3574  0.0382
 5577SOL    MW422082   0.024   6.249   0.018  0.0770  0.8253  0.1058
 5578SOL     OW22083   3.101   2.812   4.382 -0.2078 -0.3419 -0.5579
 5578SOL    HW222084   3.082   2.854   4.298 -2.1646 -2.6356 -1.4008
 5578SOL    HW322085   3.017   2.812   4.428  1.1161  2.2091  2.1847
 5578SOL    MW422086   3.087   2.817   4.377  0.1767  0.0099  0.6133
 5579SOL     OW22087   5.037   6.148   4.438 -0.0391 -0.4855 -0.1841
 5579SOL    HW222088   5.103   6.178   4.376 -1.2586  2.8664 -0.0393
 5579SOL    HW322089   5.075   6.167   4.524 -1.0646  1.4414 -0.0999
 5579SOL    MW422090   5.051   6.154   4.441 -0.5975 -0.0480 -0.0017
 5580SOL     OW22091   3.055   3.599   2.100 -0.2222 -0.2310 -0.1201
 5580SOL    HW222092   3.102   3.553   2.170  1.0312  0.2437 -0.6360
 5580SOL    HW322093   2.991   3.652   2.147  1.0401  0.5906  0.7431
 5580SOL    MW422094   3.053   3.600   2.116 -0.5365 -0.5699  0.5228
 5581SOL     OW22095   0.512   4.892   1.167  0.3865 -0.1608  0.0754
 5581SOL    HW222096   0.486   4.923   1.253 -1.2014 -1.6657  0.2083
 5581SOL    HW322097   0.600   4.856   1.179  0.6628  0.7291  0.7664
 5581SOL    MW422098   0.520   4.891   1.180  0.2082  0.7652  0.1873
 5582SOL     OW22099   2.308   1.239   3.003 -0.3342 -0.0764  0.1307
 5582SOL    HW222100   2.233   1.182   3.017  0.6555 -1.4229  0.0940
 5582SOL    HW322101   2.340   1.259   3.091 -0.9395  0.8359  0.1678
 5582SOL    MW422102   2.302   1.234   3.016  0.0215  0.3374  0.2456
 5583SOL     OW22103   3.071   6.248   1.853  0.2252 -0.5465 -0.1560
 5583SOL    HW222104   3.013   6.178   1.822  1.0800 -1.6867  0.7181
 5583SOL    HW322105   3.075   6.310   1.780 -0.2155 -1.6205 -1.1206
 5583SOL    MW422106   3.064   6.247   1.840  0.1217 -0.1398  0.4250
 5584SOL     OW22107   6.128   5.979   2.662  0.4786 -0.5345  0.0972
 5584SOL    HW222108   6.218   5.962   2.690 -0.1197 -3.3994  0.5402
 5584SOL    HW322109   6.085   6.012   2.740  0.3766 -2.4231  0.8978
 5584SOL    MW422110   6.134   5.981   2.676  0.4588 -0.4922  0.6179
 5585SOL     OW22111   5.557   1.937   5.490  0.2990 -0.1156  0.3901
 5585SOL    HW222112   5.564   1.854   5.537  0.5768 -0.1892  0.2203
 5585SOL    HW322113   5.512   1.916   5.409  0.3948 -0.1055  0.3342
 5585SOL    MW422114   5.552   1.924   5.486 -0.0476 -0.2091 -0.1761
 5586SOL     OW22115   0.682   2.410   3.055 -0.2647 -0.3215  0.2077
 5586SOL    HW222116   0.684   2.364   2.971  0.4773  2.7011 -1.5699
 5586SOL    HW322117   0.774   2.413   3.082 -0.5911 -2.1230  1.7333
 5586SOL    MW422118   0.695   2.404   3.047  0.3620  0.3426  0.1296
 5587SOL     OW22119   4.651   1.725   2.222  0.0267 -0.3088 -0.7946
 5587SOL    HW222120   4.606   1.734   2.138  0.3190  0.8338 -0.8475
 5587SOL    HW322121   4.601   1.780   2.282  0.7196  0.1077 -0.5914
 5587SOL    MW422122   4.638   1.733   2.219  0.1368  0.0938  0.5460
 5588SOL     OW22123   1.630   3.377   3.812 -0.4846 -0.2383  0.2056
 5588SOL    HW222124   1.595   3.411   3.895  1.4891 -0.8259  1.3357
 5588SOL    HW322125   1.717   3.343   3.834 -0.2266 -1.1667 -1.9559
 5588SOL    MW422126   1.637   3.377   3.826  0.1098 -0.2213 -0.4280
 5589SOL     OW22127   0.015   1.206   3.747  0.6513  0.4437 -0.2508
 5589SOL    HW222128  -0.071   1.175   3.775  0.3931  0.4360 -1.0058
 5589SOL    HW322129   0.052   1.133   3.697  0.5865  0.8639 -0.9296
 5589SOL    MW422130   0.008   1.193   3.744 -0.0694 -0.0474  0.7412
 5590SOL     OW22131   1.759   5.010   3.341  0.1697  0.4233  0.7696
 5590SOL    HW222132   1.782   5.067   3.414 -1.8742  1.3270  0.7783
 5590SOL    HW322133   1.668   4.986   3.357 -0.6520  1.4105 -1.9174
 5590SOL    MW422134   1.750   5.015   3.352  0.0027 -0.7402  0.3029
 5591SOL     OW22135   4.779   3.148   2.568 -0.1540 -0.8181 -0.1712
 5591SOL    HW222136   4.741   3.095   2.638 -1.9289  1.8631  1.0691
 5591SOL    HW322137   4.853   3.192   2.610 -2.2463  2.1426  0.7485
 5591SOL    MW422138   4.784   3.147   2.583 -0.1767 -0.4166 -0.2543
 5592SOL     OW22139   5.833   5.039   2.519 -0.8062 -0.1679 -0.1825
 5592SOL    HW222140   5.751   5.053   2.473 -1.1824 -1.7962 -0.0600
 5592SOL    HW322141   5.809   4.991   2.598  0.2589 -0.7288 -0.1752
 5592SOL    MW422142   5.819   5.035   2.524 -0.0328 -0.1560  0.3750
 5593SOL     OW22143   4.153   5.415   3.410  0.3481 -0.4659 -0.0565
 5593SOL    HW222144   4.165   5.374   3.496  0.9361  0.4570  0.3143
 5593SOL    HW322145   4.169   5.344   3.348 -0.9652 -1.3736  0.5822
 5593SOL    MW422146   4.156   5.400   3.413  0.1385 -0.1880 -0.0075
 5594SOL     OW22147   3.458   2.110   4.678 -0.3556 -0.2976 -0.0252
 5594SOL    HW222148   3.500   2.049   4.740  2.7596  0.0576 -1.6025
 5594SOL    HW322149   3.477   2.197   4.713 -0.6983 -0.1338 -0.2391
 5594SOL    MW422150   3.466   2.113   4.691  0.2888 -0.0514  0.2314
 5595SOL     OW22151   0.676   4.693   4.085 -0.1749  0.5397 -0.1247
 5595SOL    HW222152   0.766   4.696   4.118  0.0828 -0.3027 -0.7370
 5595SOL    HW322153   0.623   4.670   4.162  0.4923 -2.0613 -0.3694
 5595SOL    MW422154   0.681   4.690   4.100  0.4439 -0.3486 -0.4176
 5596SOL     OW22155   1.277   1.953   1.932  0.2470  0.2741 -0.6312
 5596SOL    HW222156   1.347   1.957   1.997 -0.7446  0.7733  0.4333
 5596SOL    HW322157   1.262   1.859   1.918  1.2558  0.1634 -1.0253
 5596SOL    MW422158   1.284   1.941   1.939  0.6591  0.2870  0.3757
 5597SOL     OW22159   5.865   5.967   5.434  0.2686 -0.4235 -0.0540
 5597SOL    HW222160   5.854   5.897   5.371  0.3038  0.0201 -0.5567
 5597SOL    HW322161   5.786   6.020   5.425  0.5410 -0.0300 -0.1374
 5597SOL    MW422162   5.853   5.965   5.425 -0.6999  0.0401  0.2632
 5598SOL     OW22163   0.263   3.405   3.378  0.1805  0.7153 -0.3838
 5598SOL    HW222164   0.342   3.410   3.325 -0.3422  2.2084 -1.0704
 5598SOL    HW322165   0.207   3.342   3.331  0.5052  0.5191 -0.5124
 5598SOL    MW422166   0.266   3.397   3.365  0.0225 -0.1146 -0.0042
 5599SOL     OW22167   4.068   2.179   4.484 -0.5489  0.4274 -0.1507
 5599SOL    HW222168   4.009   2.118   4.528 -0.1798  0.1143 -0.0864
 5599SOL    HW322169   4.100   2.236   4.554  1.0229 -0.8576  0.2529
 5599SOL    MW422170   4.065   2.178   4.499  0.5445 -0.3255 -0.1372
 5600SOL     OW22171   0.890   4.894   3.695  0.0334 -0.0014 -0.1186
 5600SOL    HW222172   0.827   4.903   3.766  1.3159  0.8075  0.9728
 5600SOL    HW322173   0.864   4.960   3.631  1.2667  2.2660  1.5530
 5600SOL    MW422174   0.879   4.904   3.696 -0.4841  0.4449  0.4930
 5601SOL     OW22175   2.945   4.238   5.662  0.0700 -0.0447 -0.0962
 5601SOL    HW222176   2.995   4.310   5.702 -1.4193  0.5362  0.7816
 5601SOL    HW322177   2.854   4.266   5.668 -0.5268 -1.9046  0.0481
 5601SOL    MW422178   2.940   4.251   5.668 -0.0690 -0.1236 -0.0482
 5602SOL     OW22179   4.710   0.981   4.745  0.6119  0.3553 -0.0377
 5602SOL    HW222180   4.695   0.960   4.837 -0.5472  2.6003  0.3581
 5602SOL    HW322181   4.776   1.050   4.747  0.5628  0.4379 -0.8885
 5602SOL    MW422182   4.717   0.987   4.758 -0.3087 -0.5934  0.4089
 5603SOL     OW22183   3.110   5.139   5.220 -0.1206 -0.5906 -0.1256
 5603SOL    HW222184   3.131   5.047   5.239  0.8708 -0.5702 -1.0520
 5603SOL    HW322185   3.068   5.137   5.134  0.6030 -0.1063 -0.4981
 5603SOL    MW422186   3.107   5.126   5.211  0.0023 -0.6806  0.8833
 5604SOL     OW22187   1.819   2.989   3.286 -0.0986  0.3295 -0.2110
 5604SOL    HW222188   1.776   2.917   3.330 -1.4090  1.2662  0.1046
 5604SOL    HW322189   1.753   3.023   3.225  0.1615  1.8105  0.2933
 5604SOL    MW422190   1.804   2.984   3.283 -0.4884  0.7782  0.0541
 5605SOL     OW22191   2.155   1.425   3.935  0.0368  0.0739  0.2414
 5605SOL    HW222192   2.123   1.394   4.019  0.9487 -0.3123  0.4622
 5605SOL    HW322193   2.113   1.368   3.871  0.4676 -0.5922  0.5410
 5605SOL    MW422194   2.145   1.414   3.937 -0.1523  0.0693 -0.0816
 5606SOL     OW22195   0.388   1.297   1.156 -0.3195 -0.2146 -0.1901
 5606SOL    HW222196   0.363   1.209   1.184 -1.3426 -0.5448 -1.9417
 5606SOL    HW322197   0.326   1.318   1.086 -0.6557  2.2617  0.7396
 5606SOL    MW422198   0.376   1.288   1.150 -0.1475  0.0913  0.0773
 5607SOL     OW22199   1.226   1.045   5.511 -1.0619 -0.2037 -0.3928
 5607SOL    HW222200   1.196   1.077   5.596 -1.7596  0.9533 -1.0466
 5607SOL    HW322201   1.202   1.115   5.450  0.7934 -0.3239 -1.3178
 5607SOL    MW422202   1.219   1.059   5.514  0.1115 -0.5963  0.2793
 5608SOL     OW22203   0.726   4.485   2.809 -0.3682  0.5170 -0.2247
 5608SOL    HW222204   0.636   4.515   2.820 -1.0515 -0.8025 -1.7939
 5608SOL    HW322205   0.720   4.389   2.816  0.9131  0.4038 -0.3780
 5608SOL    MW422206   0.713   4.476   2.812 -0.3472 -0.3992  0.3429
 5609SOL     OW22207   2.347   4.357   1.630 -0.6229  0.3090 -0.2004
 5609SOL    HW222208   2.376   4.444   1.655  2.0498 -0.4677 -0.2619
 5609SOL    HW322209   2.298   4.370   1.548 -0.0880  1.7105 -0.3096
 5609SOL    MW422210   2.344   4.370   1.622  0.7015  0.1310  0.3860
 5610SOL     OW22211   2.621   1.702   5.809 -0.3463  0.1258  0.2016
 5610SOL    HW222212   2.545   1.747   5.844  0.4947  0.4091  1.7610
 5610SOL    HW322213   2.605   1.695   5.715 -1.3319  2.0371  0.2037
 5610SOL    MW422214   2.609   1.707   5.801 -0.2627 -0.9549  0.1354
 5611SOL     OW22215   2.782   5.966   0.128  0.3520 -0.0127 -0.3321
 5611SOL    HW222216   2.845   6.001   0.065 -0.1018  0.0848 -0.7348
 5611SOL    HW322217   2.775   6.034   0.196  0.2374  0.2322 -0.5897
 5611SOL    MW422218   2.789   5.980   0.129 -0.2317 -0.3243 -0.3018
 5612SOL     OW22219   4.765   6.001   4.139 -0.1957  0.2611  0.3754
 5612SOL    HW222220   4.835   5.937   4.144 -1.1665 -1.0039 -1.4812
 5612SOL    HW322221   4.770   6.047   4.223  1.4270 -1.2592  1.1825
 5612SOL    MW422222   4.775   5.999   4.151 -0.2386  0.3451 -0.4322
 5613SOL     OW22223   3.608   5.506   4.221 -0.3516  0.4268  0.0518
 5613SOL    HW222224   3.675   5.515   4.290  0.1516  1.7933 -0.5733
 5613SOL    HW322225   3.617   5.415   4.192  0.6883  0.3454  0.5397
 5613SOL    MW422226   3.618   5.495   4.227 -0.0355 -0.3040  0.1501
 5614SOL     OW22227   3.472   4.685   2.203  0.3349 -0.4019 -0.4791
 5614SOL    HW222228   3.433   4.602   2.177 -0.6423 -0.2731  0.4507
 5614SOL    HW322229   3.495   4.673   2.295 -0.6229  0.6063 -0.0774
 5614SOL    MW422230   3.470   4.673   2.212 -0.4351  0.7409  0.0784
 5615SOL     OW22231   2.547   1.834   1.058 -0.3209  0.0213 -0.4696
 5615SOL    HW222232   2.460   1.832   1.019  0.0516  0.0495 -1.3206
 5615SOL    HW322233   2.562   1.925   1.081 -0.6564 -0.0418  0.0216
 5615SOL    MW422234   2.537   1.846   1.056 -0.5482  0.0372  0.2103
 5616SOL     OW22235   0.979   1.356   0.536  0.1710  0.6852  0.1332
 5616SOL    HW222236   0.900   1.303   0.539  1.5108 -1.4340  0.4414
 5616SOL    HW322237   1.040   1.305   0.483  1.7496  1.6293  0.9507
 5616SOL    MW422238   0.977   1.343   0.529  0.1921 -0.5645  0.5795
 5617SOL     OW22239   0.931   1.114   0.950 -0.3948 -0.1286  0.2019
 5617SOL    HW222240   0.841   1.092   0.972 -1.3884  1.4749 -1.8119
 5617SOL    HW322241   0.944   1.202   0.986  1.1083 -1.1012  2.2018
 5617SOL    MW422242   0.921   1.123   0.957 -0.4768  0.0358  0.3700
 5618SOL     OW22243   2.160   4.147   1.724 -0.0793 -0.8171 -0.4243
 5618SOL    HW222244   2.199   4.119   1.807 -0.2659 -0.3738 -0.1800
 5618SOL    HW322245   2.201   4.232   1.707  0.1175 -1.0010 -0.9004
 5618SOL    MW422246   2.171   4.155   1.733  0.1879  0.0609 -0.5292
 5619SOL     OW22247   6.212   0.057   0.154  0.1135  0.1381  0.4161
 5619SOL    HW222248   6.307   0.049   0.163  0.3496  1.3830 -0.7173
 5619SOL    HW322249   6.195   0.038   0.062 -0.8762 -1.0564  0.8136
 5619SOL    MW422250   6.223   0.053   0.143 -0.2479  0.5092 -0.6033
 5620SOL     OW22251   5.801   4.967   0.638  0.5011 -0.4989  0.0989
 5620SOL    HW222252   5.876   4.977   0.697  0.1865 -1.8227  0.7514
 5620SOL    HW322253   5.836   4.918   0.564  0.7943  0.8119 -0.6808
 5620SOL    MW422254   5.816   4.962   0.636 -0.6529 -0.0822 -0.3340
 5621SOL     OW22255   3.502   1.137   3.098  0.4752  0.0922 -0.1027
 5621SOL    HW222256   3.476   1.087   3.021  0.2317  0.5055 -0.2952
 5621SOL    HW322257   3.593   1.111   3.115  1.4811  1.9299 -2.1419
 5621SOL    MW422258   3.511   1.127   3.090 -0.1367 -0.6668 -0.3065
 5622SOL     OW22259   4.300   2.744   5.264 -0.3766  0.0398 -0.1037
 5622SOL    HW222260   4.374   2.785   5.218  1.1116 -0.3115  1.8471
 5622SOL    HW322261   4.297   2.787   5.349 -1.0879 -1.4022  0.6431
 5622SOL    MW422262   4.309   2.755   5.269 -0.2009  0.0119  0.1687
 5623SOL     OW22263   4.154   2.753   3.001  0.1376 -0.3661 -0.2286
 5623SOL    HW222264   4.063   2.744   2.973 -0.6992 -1.1242  2.3600
 5623SOL    HW322265   4.168   2.847   3.010 -0.9153 -0.2762  0.6969
 5623SOL    MW422266   4.144   2.764   2.999  0.6312  0.5394 -0.6519
 5624SOL     OW22267   4.191   1.271   2.187 -0.3008  0.2063  0.2918
 5624SOL    HW222268   4.182   1.244   2.096 -0.4321  0.9044  0.0860
 5624SOL    HW322269   4.150   1.358   2.191  3.0681  2.0199  0.0717
 5624SOL    MW422270   4.185   1.279   2.176  0.4215  0.1177 -0.1558
 5625SOL     OW22271   4.360   4.744   4.416 -0.2692  0.4729  0.3921
 5625SOL    HW222272   4.414   4.790   4.480 -0.0312  0.9980 -0.1673
 5625SOL    HW322273   4.289   4.805   4.395  0.3903  0.8831 -0.8113
 5625SOL    MW422274   4.358   4.758   4.421 -0.1123  0.1043 -0.0456
 5626SOL     OW22275   5.661   3.541   5.902 -0.2077  0.0135  0.1478
 5626SOL    HW222276   5.567   3.525   5.892 -0.4332 -0.4893  2.4634
 5626SOL    HW322277   5.690   3.474   5.963  2.0213 -0.8176 -1.7097
 5626SOL    MW422278   5.652   3.530   5.909 -0.4385 -0.1640  0.1792
 5627SOL     OW22279   2.645   5.288   6.058  0.3303  0.2092 -0.3342
 5627SOL    HW222280   2.610   5.214   6.009  1.5179  0.2854 -1.3274
 5627SOL    HW322281   2.682   5.346   5.991  1.5179  0.5775  0.6120
 5627SOL    MW422282   2.645   5.286   6.043 -0.5021  0.0503 -0.2573
 5628SOL     OW22283   2.001   2.002   1.109  0.6017  0.1100 -0.3621
 5628SOL    HW222284   1.945   1.971   1.039  0.8276  0.4312 -0.6898
 5628SOL    HW322285   1.946   2.061   1.160  0.7514  0.7787 -0.9438
 5628SOL    MW422286   1.987   2.006   1.107 -0.0112 -0.6482  0.4643
 5629SOL     OW22287   4.801   4.954   4.229 -0.0626  0.6105  0.2648
 5629SOL    HW222288   4.721   4.965   4.281 -1.2132  0.3323 -1.3561
 5629SOL    HW322289   4.800   5.028   4.168  0.1831 -0.1380 -0.6636
 5629SOL    MW422290   4.790   4.965   4.228  0.0158  0.2282  0.5591
 5630SOL     OW22291   6.195   3.925   3.790  0.1401 -0.0490  0.4012
 5630SOL    HW222292   6.113   3.896   3.751  1.3309 -0.8010 -1.7165
 5630SOL    HW322293   6.205   4.016   3.760  1.8592 -1.1171 -2.7431
 5630SOL    MW422294   6.186   3.933   3.781 -0.2065 -0.1390  0.3992
 5631SOL     OW22295   3.976   6.065   1.769 -0.0183 -0.0804  0.2765
 5631SOL    HW222296   3.892   6.063   1.722  1.4984  0.2742 -2.6712
 5631SOL    HW322297   3.967   5.999   1.837 -2.3922 -0.6553 -0.4998
 5631SOL    MW422298   3.963   6.056   1.771 -0.1161  0.0485  0.5288
 5632SOL     OW22299   4.501   5.578   5.169  0.0608  0.9389  0.0268
 5632SOL    HW222300   4.455   5.612   5.092  0.9762  0.3348 -0.8156
 5632SOL    HW322301   4.556   5.651   5.197  0.4411  0.8602 -0.4911
 5632SOL    MW422302   4.502   5.592   5.163  0.0759 -0.4581 -0.4507
 5633SOL     OW22303   5.042   0.101   5.643 -0.0704  0.1809  0.2166
 5633SOL    HW222304   5.068   0.184   5.683 -0.0461 -1.0877  3.0245
 5633SOL    HW322305   5.066   0.035   5.707 -1.3527 -1.9130 -1.3524
 5633SOL    MW422306   5.049   0.103   5.656 -0.2845 -0.0134 -0.0840
 5634SOL     OW22307   6.416   2.989   5.027 -0.0650 -0.1545 -0.6208
 5634SOL    HW222308   6.434   2.903   4.990  0.7540  0.0675 -0.7692
 5634SOL    HW322309   6.485   3.045   4.990 -1.4846  0.9095 -1.7625
 5634SOL    MW422310   6.428   2.985   5.017 -0.0303 -0.4271  0.0475
 5635SOL     OW22311   3.616   1.764   4.725  0.2977 -0.1586  0.1983
 5635SOL    HW222312   3.571   1.775   4.641 -0.0961  0.7957  0.5267
 5635SOL    HW322313   3.705   1.737   4.701  0.9171  2.3425 -0.6615
 5635SOL    MW422314   3.622   1.762   4.710 -0.0069 -0.1617 -0.7081
 5636SOL     OW22315   4.258   2.595   0.566  0.2638  0.5067 -0.0320
 5636SOL    HW222316   4.320   2.642   0.510  0.3295  1.2685  0.6577
 5636SOL    HW322317   4.210   2.664   0.612 -1.1380 -0.0647 -0.5783
 5636SOL    MW422318   4.260   2.610   0.565 -0.5207  0.6960 -0.3348
 5637SOL     OW22319   2.676   6.145   2.539 -0.4829 -0.3246  0.0334
 5637SOL    HW222320   2.715   6.230   2.556  0.2918 -0.5232 -0.6701
 5637SOL    HW322321   2.628   6.156   2.458 -1.5956 -0.1871  0.6929
 5637SOL    MW422322   2.675   6.157   2.531  0.1035  0.3262  0.4728
 5638SOL     OW22323   3.097   2.355   1.934 -0.3699  0.1996 -0.2443
 5638SOL    HW222324   3.054   2.380   1.852 -0.4577 -0.3882 -0.3788
 5638SOL    HW322325   3.184   2.395   1.929  0.2649 -1.2174 -1.3917
 5638SOL    MW422326   3.103   2.364   1.923 -0.1368 -0.0594  0.4334
 5639SOL     OW22327   6.346   4.573   6.107 -0.0075  0.2185  0.3539
 5639SOL    HW222328   6.377   4.531   6.188  0.5378 -0.4088 -0.1642
 5639SOL    HW322329   6.280   4.635   6.136  0.9541  0.7917  1.3959
 5639SOL    MW422330   6.341   4.575   6.121 -0.0711 -0.0893  0.5645
 5640SOL     OW22331   2.082   4.904   0.511  0.2732 -0.3881  0.3328
 5640SOL    HW222332   2.011   4.969   0.511 -1.5677 -2.1081 -2.9636
 5640SOL    HW322333   2.069   4.854   0.592 -2.1161 -0.3824  0.0323
 5640SOL    MW422334   2.071   4.906   0.521 -0.1523  0.2777  0.1314
 5641SOL     OW22335   0.551   6.363   3.037 -0.1253 -0.2971 -0.6041
 5641SOL    HW222336   0.634   6.406   3.055 -0.9926  2.0352 -1.7897
 5641SOL    HW322337   0.491   6.398   3.102 -0.6604 -0.2901 -1.0917
 5641SOL    MW422338   0.554   6.373   3.048 -0.0013 -0.2703 -0.1888
 5642SOL     OW22339   4.649   0.704   1.199  0.2330 -0.5714  0.2804
 5642SOL    HW222340   4.726   0.647   1.204  1.7322  1.4529  1.5626
 5642SOL    HW322341   4.634   0.733   1.289 -0.8709  0.5553 -0.2322
 5642SOL    MW422342   4.657   0.700   1.212 -0.3481  0.3224 -0.1978
 5643SOL     OW22343   6.249   3.165   0.971  0.3170 -0.0284  0.2792
 5643SOL    HW222344   6.281   3.087   1.016  3.9586  0.4235 -1.2128
 5643SOL    HW322345   6.211   3.132   0.890  0.0254 -0.3259  0.5293
 5643SOL    MW422346   6.248   3.150   0.967 -0.7523  0.2485 -0.4253
 5644SOL     OW22347   1.661   3.725   5.372  0.1047  0.5127  0.1729
 5644SOL    HW222348   1.648   3.796   5.309  3.0075 -1.4329 -2.9364
 5644SOL    HW322349   1.743   3.746   5.415  1.0481 -0.8762 -0.8491
 5644SOL    MW422350   1.670   3.737   5.369  0.4321  0.2231  0.0568
 5645SOL     OW22351   2.579   5.511   3.234 -0.3586 -0.1916 -0.5932
 5645SOL    HW222352   2.673   5.493   3.235 -0.3125 -0.0864 -1.5978
 5645SOL    HW322353   2.538   5.425   3.229 -0.3596 -0.2889  0.8571
 5645SOL    MW422354   2.586   5.497   3.233 -0.4958 -0.5641 -0.4075
 5646SOL     OW22355   3.906   5.223   4.155  0.5092  0.4401  0.2200
 5646SOL    HW222356   3.915   5.161   4.228  2.0379  0.9233  0.4695
 5646SOL    HW322357   3.965   5.295   4.177 -0.5989  1.6101 -0.4782
 5646SOL    MW422358   3.915   5.224   4.168 -0.7210  0.4748 -0.1195
 5647SOL     OW22359   3.630   2.926   0.522 -0.1951  0.2172 -0.5453
 5647SOL    HW222360   3.647   2.832   0.520 -0.4073  0.1808 -0.8018
 5647SOL    HW322361   3.583   2.940   0.604  0.2795  0.1793 -0.2678
 5647SOL    MW422362   3.626   2.915   0.532  0.0434  0.0160 -0.1720
 5648SOL     OW22363   5.283   5.058   6.304 -0.5416  0.2694 -0.1763
 5648SOL    HW222364   5.198   5.074   6.344  0.6542  0.6255  2.4663
 5648SOL    HW322365   5.305   5.140   6.260 -0.5897  1.0031  1.1264
 5648SOL    MW422366   5.275   5.071   6.303  0.0510  0.5724  0.7205
 5649SOL     OW22367   2.558   3.446   5.176 -0.5516  0.1437 -0.6282
 5649SOL    HW222368   2.584   3.516   5.237 -0.8969 -0.6316  0.4408
 5649SOL    HW322369   2.637   3.394   5.165 -0.9042 -0.6682  0.4976
 5649SOL    MW422370   2.572   3.449   5.183 -0.5263  0.0782 -0.1810
 5650SOL     OW22371   2.901   5.119   1.952 -0.1031  0.0851 -0.1745
 5650SOL    HW222372   2.865   5.036   1.923  1.2599 -0.6114  0.0250
 5650SOL    HW322373   2.996   5.104   1.957  0.1462  1.5476  0.1818
 5650SOL    MW422374   2.909   5.106   1.949 -0.0238  0.7633 -0.1479
 5651SOL     OW22375   2.347   0.528   2.040  0.1632 -0.1122 -0.1845
 5651SOL    HW222376   2.382   0.447   2.076 -0.9734 -0.5998 -0.1583
 5651SOL    HW322377   2.304   0.501   1.958  0.1812  0.5356 -0.4118
 5651SOL    MW422378   2.346   0.514   2.034 -1.0759  0.2330 -0.1729
 5652SOL     OW22379   0.191   4.958   1.071 -0.7700  0.0576  0.1327
 5652SOL    HW222380   0.120   4.991   1.015 -0.9206 -0.7381 -0.1561
 5652SOL    HW322381   0.257   4.925   1.010  0.6539  2.3280  0.3406
 5652SOL    MW422382   0.190   4.958   1.055 -0.2159  0.3480  0.3174
 5653SOL     OW22383   3.251   0.348   2.728 -0.6226 -0.9689  0.5184
 5653SOL    HW222384   3.275   0.277   2.669 -1.3060  0.7382 -1.9664
 5653SOL    HW322385   3.170   0.384   2.691  0.6556  2.2736  0.5120
 5653SOL    MW422386   3.244   0.343   2.716 -0.7521  0.1722  0.5184
 5654SOL     OW22387   1.471   5.065   2.509  0.2131 -0.3454 -0.3134
 5654SOL    HW222388   1.377   5.079   2.495  0.5346  1.5842 -0.7822
 5654SOL    HW322389   1.510   5.151   2.498  1.8263 -0.7006  1.9586
 5654SOL    MW422390   1.463   5.078   2.505 -0.5928 -0.9787 -0.0444
 5655SOL     OW22391   0.824   1.177   5.513  0.0152 -0.5728 -0.0239
 5655SOL    HW222392   0.848   1.085   5.524  3.3183  0.0846 -0.7481
 5655SOL    HW322393   0.819   1.190   5.418 -0.3509  0.0323  0.0711
 5655SOL    MW422394   0.827   1.167   5.502  0.4318 -0.5302  0.7399
 5656SOL     OW22395   4.452   1.539   5.913  0.1661  0.0139 -0.1379
 5656SOL    HW222396   4.429   1.488   5.836  2.1354 -0.4821 -0.4519
 5656SOL    HW322397   4.446   1.476   5.986 -1.5343  0.4426  0.1403
 5656SOL    MW422398   4.448   1.524   5.913 -0.0898  0.1503  0.0063
 5657SOL     OW22399   5.592   2.655   4.849 -0.1012 -0.3696  0.7140
 5657SOL    HW222400   5.589   2.745   4.879 -0.5727 -1.1319  3.1932
 5657SOL    HW322401   5.679   2.623   4.873  0.5014 -0.3022 -1.1987
 5657SOL    MW422402   5.603   2.663   4.856  1.1858  0.5031  0.0598
 5658SOL     OW22403   4.332   6.020   0.600 -0.1714  0.1417  0.1508
 5658SOL    HW222404   4.251   6.000   0.554 -0.1336  0.3682 -0.0148
 5658SOL    HW322405   4.400   5.975   0.549 -0.3033 -0.9440  0.8863
 5658SOL    MW422406   4.331   6.011   0.588  0.3518 -0.1211 -0.3527
 5659SOL     OW22407   6.182   2.771   4.056 -0.0364  0.3470  0.2263
 5659SOL    HW222408   6.100   2.728   4.035 -0.1271  0.0520  1.1416
 5659SOL    HW322409   6.244   2.699   4.069  0.5908  0.5833 -1.2900
 5659SOL    MW422410   6.180   2.755   4.055 -0.0766 -0.0377 -0.0896
 5660SOL     OW22411   1.020   5.274   3.227 -0.3540  0.0089 -0.2048
 5660SOL    HW222412   1.076   5.280   3.304  0.4441  0.1391 -0.7816
 5660SOL    HW322413   0.948   5.334   3.245  0.3985  0.8735 -0.0187
 5660SOL    MW422414   1.018   5.283   3.239  0.8223 -0.1872 -0.0055
 5661SOL     OW22415   2.080   2.678   5.631  0.7900 -0.1945  0.5121
 5661SOL    HW222416   2.108   2.763   5.667 -1.4454  1.3349 -1.0821
 5661SOL    HW322417   1.985   2.687   5.620  0.7137 -2.3254 -1.2232
 5661SOL    MW422418   2.071   2.691   5.635  0.2352 -0.0357 -0.6641
 5662SOL     OW22419   4.246   1.070   1.649 -0.0584  0.0205 -0.3033
 5662SOL    HW222420   4.157   1.058   1.615  0.6343 -0.7593 -1.9580
 5662SOL    HW322421   4.292   0.990   1.624  1.0171  0.2472  0.8773
 5662SOL    MW422422   4.240   1.058   1.641 -0.2965  0.1299  0.5475
 5663SOL     OW22423   2.299   1.901   2.418  0.1133 -0.0802 -0.1314
 5663SOL    HW222424   2.285   1.950   2.500 -1.2399 -0.3174 -0.1960
 5663SOL    HW322425   2.303   1.810   2.445 -0.6028 -0.1814 -0.3433
 5663SOL    MW422426   2.297   1.896   2.433  0.2027  0.3008 -0.1927
 5664SOL     OW22427   2.333   6.059   0.318 -0.5781 -0.1274 -0.3483
 5664SOL    HW222428   2.258   6.118   0.316 -0.9207 -0.3923  1.9095
 5664SOL    HW322429   2.334   6.018   0.232 -3.7806 -0.9603 -0.1223
 5664SOL    MW422430   2.323   6.061   0.307  0.1230 -0.0909  0.0205
 5665SOL     OW22431   4.645   4.721   4.595  0.3768 -0.7095  0.6288
 5665SOL    HW222432   4.601   4.805   4.609  1.3444 -0.2006  0.7201
 5665SOL    HW322433   4.734   4.735   4.628  1.2229 -1.0611 -1.3144
 5665SOL    MW422434   4.651   4.734   4.601  0.2052  0.0889 -0.2791
 5666SOL     OW22435   1.269   4.779   5.884 -0.1806 -0.2076 -0.8005
 5666SOL    HW222436   1.180   4.764   5.852  0.7786 -2.1406 -2.8349
 5666SOL    HW322437   1.258   4.805   5.975 -2.8067 -0.5546 -0.9405
 5666SOL    MW422438   1.256   4.781   5.892 -0.3404  0.0947 -0.2164
 5667SOL     OW22439   0.724   0.040   3.902  0.5191  0.1272  0.2180
 5667SOL    HW222440   0.758   0.129   3.894  0.2094  0.1132 -1.5058
 5667SOL    HW322441   0.685   0.021   3.817  0.3020 -1.5549  0.6583
 5667SOL    MW422442   0.723   0.049   3.890 -0.0974 -0.1449  0.0227
 5668SOL     OW22443   0.192   6.209   0.630 -0.7780 -0.4464 -0.2174
 5668SOL    HW222444   0.105   6.223   0.594 -1.1692 -3.0881 -0.4896
 5668SOL    HW322445   0.238   6.156   0.565  0.1867 -1.1364  0.9611
 5668SOL    MW422446   0.187   6.204   0.617  0.1743  0.7507 -0.0980
 5669SOL     OW22447   3.108   1.296   4.621  0.2902 -0.1294  0.0504
 5669SOL    HW222448   3.077   1.312   4.710  0.5010 -0.6842  0.2280
 5669SOL    HW322449   3.078   1.372   4.571 -0.8309 -0.3615  0.3462
 5669SOL    MW422450   3.100   1.308   4.626 -0.2201 -0.1600 -0.1298
 5670SOL     OW22451   5.980   4.750   2.767  0.0481 -0.1842 -0.0667
 5670SOL    HW222452   5.905   4.808   2.753  0.4167  0.4908  0.7371
 5670SOL    HW322453   5.981   4.734   2.861 -0.3658 -1.9474 -0.3119
 5670SOL    MW422454   5.970   4.756   2.777  0.1280  0.0132 -0.2609
 5671SOL     OW22455   5.844   0.546   4.235  0.1971  0.5527  0.5603
 5671SOL    HW222456   5.860   0.554   4.141  0.1142 -0.4657  0.4490
 5671SOL    HW322457   5.930   0.560   4.276  0.9276 -2.0427  0.1322
 5671SOL    MW422458   5.858   0.549   4.228 -0.5412  0.5391  0.0034
 5672SOL     OW22459   5.763   3.646   3.478  0.1685  0.0862  0.0557
 5672SOL    HW222460   5.684   3.616   3.433  1.4458 -1.3644 -1.3459
 5672SOL    HW322461   5.816   3.686   3.409  0.1103  2.3479  1.2304
 5672SOL    MW422462   5.759   3.647   3.463  0.1563  0.9137 -0.0044
 5673SOL     OW22463   1.177   3.147   2.291 -0.6751 -0.3185  0.4398
 5673SOL    HW222464   1.119   3.213   2.330 -0.6231 -1.2057  2.1433
 5673SOL    HW322465   1.215   3.190   2.215  1.4576  2.6664  2.9731
 5673SOL    MW422466   1.174   3.161   2.286  0.0074  0.0363 -0.0821
 5674SOL     OW22467   3.749   1.056   3.756  0.0615 -0.0242  0.1455
 5674SOL    HW222468   3.756   0.977   3.810  0.0945 -0.3933 -0.3839
 5674SOL    HW322469   3.779   1.127   3.812 -0.5725 -0.2945  0.8408
 5674SOL    MW422470   3.754   1.055   3.770  0.8669  0.5616 -0.1732
 5675SOL     OW22471   3.985   3.461   6.016 -0.0779 -0.9374 -0.2837
 5675SOL    HW222472   4.035   3.433   5.939 -0.1013 -0.5659 -0.4348
 5675SOL    HW322473   3.894   3.458   5.989 -0.1294 -1.3751 -0.0836
 5675SOL    MW422474   3.980   3.457   6.003 -0.4044 -0.7747 -0.0990
 5676SOL     OW22475   6.067   1.680   3.151  0.2856 -0.5119 -0.3687
 5676SOL    HW222476   6.092   1.768   3.179  0.5134 -0.0871 -1.8370
 5676SOL    HW322477   6.024   1.692   3.066  0.2625 -1.8065 -0.5705
 5676SOL    MW422478   6.065   1.693   3.143 -0.3864 -0.6336  0.4441
 5677SOL     OW22479   2.768   1.261   4.281 -0.2171  0.5521 -0.3734
 5677SOL    HW222480   2.804   1.189   4.231 -0.4551  0.8973 -1.0600
 5677SOL    HW322481   2.797   1.340   4.235 -2.1846  0.8353 -1.2327
 5677SOL    MW422482   2.776   1.262   4.269  0.3870 -0.5043  0.4838
 5678SOL     OW22483   0.635   5.159   0.703  0.6316  0.0704 -0.0031
 5678SOL    HW222484   0.540   5.148   0.710  0.8059 -0.8606  1.1635
 5678SOL    HW322485   0.650   5.181   0.611 -0.8979  2.3660  0.2125
 5678SOL    MW422486   0.624   5.160   0.692  0.2947  0.7391 -0.1281
 5679SOL     OW22487   5.775   5.334   3.436  0.5190 -0.2509  0.4407
 5679SOL    HW222488   5.796   5.397   3.367  1.2535 -1.6145 -0.6364
 5679SOL    HW322489   5.744   5.257   3.389  1.7983 -1.5098  1.5915
 5679SOL    MW422490   5.773   5.332   3.421  0.0603 -0.3635  0.1977
 5680SOL     OW22491   6.201   5.046   0.511 -0.1535  0.1420  0.1815
 5680SOL    HW222492   6.193   5.003   0.426 -1.4008  1.2032 -0.2686
 5680SOL    HW322493   6.162   4.984   0.573 -2.0724  0.6073 -0.4793
 5680SOL    MW422494   6.195   5.032   0.508 -0.5175  0.0484  0.0106
 5681SOL     OW22495   3.443   6.252   1.434 -0.1079  0.1975 -0.7446
 5681SOL    HW222496   3.480   6.165   1.417 -0.2436  0.0823 -0.4598
 5681SOL    HW322497   3.350   6.243   1.416 -0.3640 -0.0907  0.5913
 5681SOL    MW422498   3.436   6.239   1.430  0.3225 -0.2240  0.2001
 5682SOL     OW22499   0.698   4.858   2.384 -0.8691  0.0764  0.1733
 5682SOL    HW222500   0.688   4.792   2.453  0.5390 -0.4148 -0.0671
 5682SOL    HW322501   0.712   4.940   2.431 -2.8140  0.2875  0.4785
 5682SOL    MW422502   0.698   4.860   2.400  0.5114  0.0352  0.3464
 5683SOL     OW22503   2.144   1.181   5.490 -0.2541 -0.3558 -0.2619
 5683SOL    HW222504   2.115   1.164   5.580 -1.2069  0.7752 -0.3344
 5683SOL    HW322505   2.239   1.182   5.496 -0.2884 -0.9186  0.6170
 5683SOL    MW422506   2.153   1.179   5.503  0.6144 -0.2173  0.2976
 5684SOL     OW22507   4.977   3.290   1.186 -0.6292  0.2941 -0.4887
 5684SOL    HW222508   5.000   3.382   1.176  2.7107  0.3113  4.1868
 5684SOL    HW322509   5.050   3.243   1.145 -0.1438 -0.0956  0.7849
 5684SOL    MW422510   4.990   3.296   1.179 -0.6485  0.1402  0.3931
 5685SOL     OW22511   4.522   0.037   6.063  0.2650 -0.3446 -0.1127
 5685SOL    HW222512   4.562   0.110   6.110 -0.7664 -0.8758  1.6832
 5685SOL    HW322513   4.431   0.036   6.093 -0.0372 -1.6612 -0.9901
 5685SOL    MW422514   4.515   0.047   6.073 -0.0615  0.2741 -0.6900
 5686SOL     OW22515   2.020   2.567   6.431 -0.3076 -0.3088 -0.3153
 5686SOL    HW222516   2.109   2.552   6.400  0.1405 -0.9791  1.1959
 5686SOL    HW322517   2.025   2.651   6.478 -0.5261 -0.2347 -0.4232
 5686SOL    MW422518   2.033   2.576   6.433 -0.0003  0.0589 -0.1710
 5687SOL     OW22519   4.058   4.930   0.618 -0.6415 -0.0030  0.3085
 5687SOL    HW222520   4.015   5.011   0.647 -1.3787  0.5666 -2.1066
 5687SOL    HW322521   4.069   4.941   0.524  2.2676 -1.3861  0.3782
 5687SOL    MW422522   4.054   4.942   0.610 -0.4408 -0.0368  1.3830
 5688SOL     OW22523   0.688   4.222   3.650 -0.3784  0.0829  0.1848
 5688SOL    HW222524   0.710   4.315   3.642 -0.1299 -0.0847 -1.5125
 5688SOL    HW322525   0.599   4.221   3.685 -0.8338  1.0163 -0.8775
 5688SOL    MW422526   0.679   4.234   3.653  0.4911 -0.3912 -0.6948
 5689SOL     OW22527   5.500   0.387   4.854 -0.0911  0.0131  0.4039
 5689SOL    HW222528   5.491   0.360   4.946 -0.9522 -0.6811  0.1352
 5689SOL    HW322529   5.498   0.482   4.857 -2.0262 -0.0022  0.9535
 5689SOL    MW422530   5.498   0.396   4.867 -0.3496  0.1298  0.1097
 5690SOL     OW22531   0.431   3.120   2.524 -0.0259  0.6261  0.1960
 5690SOL    HW222532   0.487   3.047   2.549 -1.8320 -0.6927  0.6022
 5690SOL    HW322533   0.342   3.084   2.525 -0.7648  2.1200 -2.2471
 5690SOL    MW422534   0.427   3.106   2.527  0.2068  0.1435  0.0177
 5691SOL     OW22535   2.490   0.460   4.095 -0.6773  0.1745  0.6636
 5691SOL    HW222536   2.407   0.506   4.080 -0.0050  1.0477 -0.6025
 5691SOL    HW322537   2.480   0.377   4.049 -0.6634  0.5036  0.0553
 5691SOL    MW422538   2.478   0.455   4.087 -0.0278 -0.6689  0.0200
 5692SOL     OW22539   5.844   4.248   5.021  0.6673 -0.4302 -0.1480
 5692SOL    HW222540   5.837   4.337   4.987 -0.8883 -0.1776  0.6956
 5692SOL    HW322541   5.784   4.247   5.096  1.9108 -1.7207  0.8815
 5692SOL    MW422542   5.835   4.260   5.026  0.1712  0.6695  0.5778
 5693SOL     OW22543   5.129   3.486   0.575  0.2471  0.7890 -0.0082
 5693SOL    HW222544   5.215   3.489   0.533  0.1029  0.9869 -0.2921
 5693SOL    HW322545   5.073   3.441   0.511 -0.3295  2.3937 -0.6745
 5693SOL    MW422546   5.133   3.480   0.561  0.2342 -0.2394 -0.8342
 5694SOL     OW22547   3.850   5.597   4.909  0.0939  0.4359 -0.0135
 5694SOL    HW222548   3.848   5.681   4.956 -1.5741  0.3524  0.1027
 5694SOL    HW322549   3.843   5.531   4.977  0.8521  0.2073 -0.1510
 5694SOL    MW422550   3.849   5.600   4.924  0.4519 -0.0504 -0.6903
 5695SOL     OW22551   3.237   0.993   1.851 -0.3052 -0.0364  0.5302
 5695SOL    HW222552   3.260   0.900   1.840 -0.1345 -0.1175  1.4615
 5695SOL    HW322553   3.161   1.006   1.794 -0.6278 -0.8751  0.7513
 5695SOL    MW422554   3.230   0.982   1.842  0.4336  0.1239 -0.0390
 5696SOL     OW22555   3.771   1.914   3.268  0.2813  0.6937 -0.4231
 5696SOL    HW222556   3.823   1.918   3.348  0.1112  3.4357 -0.3520
 5696SOL    HW322557   3.706   1.846   3.285  0.2650  1.1728  1.7816
 5696SOL    MW422558   3.769   1.905   3.281  0.1801  0.1813  0.3163
 5697SOL     OW22559   2.768   5.406   3.640 -0.2162 -0.0212 -0.1160
 5697SOL    HW222560   2.767   5.466   3.714 -0.0474 -2.2288  1.7957
 5697SOL    HW322561   2.675   5.390   3.621 -0.2815  1.5788 -1.3478
 5697SOL    MW422562   2.755   5.412   3.647  0.0532 -0.2723  0.4339
 5698SOL     OW22563   5.565   5.040   0.203  0.4189  0.0321 -0.2655
 5698SOL    HW222564   5.537   4.968   0.146  1.0855 -1.2730  0.9924
 5698SOL    HW322565   5.486   5.064   0.252  0.5211 -0.9336  0.4164
 5698SOL    MW422566   5.551   5.034   0.202 -0.6870  0.2961 -0.1869
 5699SOL     OW22567   0.798   3.807   5.920 -0.0339 -0.1268  0.2942
 5699SOL    HW222568   0.711   3.794   5.959 -0.9996  2.4017 -0.8150
 5699SOL    HW322569   0.806   3.736   5.856 -1.0010 -0.7421  0.8236
 5699SOL    MW422570   0.787   3.796   5.917 -0.3087  1.0090  0.0643
 5700SOL     OW22571   5.706   2.783   1.672 -0.4154  0.1831 -0.1590
 5700SOL    HW222572   5.764   2.851   1.707 -1.6013  1.3711 -0.4181
 5700SOL    HW322573   5.691   2.808   1.581 -0.6888 -0.5593 -0.3267
 5700SOL    MW422574   5.712   2.795   1.665 -0.4952  0.7943  0.1686
 5701SOL     OW22575   5.267   2.393   3.516  0.5847  0.3992 -0.0497
 5701SOL    HW222576   5.264   2.351   3.602 -0.2535  0.5165 -0.0041
 5701SOL    HW322577   5.347   2.444   3.517  1.8507 -1.4976 -0.2571
 5701SOL    MW422578   5.277   2.394   3.528 -0.0707 -0.0862 -0.1156
 5702SOL     OW22579   0.109   4.539   1.858  0.3140  0.2929  0.1904
 5702SOL    HW222580   0.032   4.562   1.909 -0.2353 -0.7673 -0.1376
 5702SOL    HW322581   0.180   4.535   1.922  0.1109  1.2796  0.4909
 5702SOL    MW422582   0.108   4.542   1.873 -0.0733  0.1569 -0.0894
 5703SOL     OW22583   2.944   1.549   4.695 -0.0674  0.6430  0.4566
 5703SOL    HW222584   2.887   1.508   4.759 -0.1658 -0.2123 -0.1600
 5703SOL    HW322585   2.938   1.643   4.713 -3.0989  0.7628 -0.7285
 5703SOL    MW422586   2.936   1.556   4.706 -0.2795 -0.3667  0.4997
 5704SOL     OW22587   0.892   4.011   0.953  0.7012 -0.3001 -0.4931
 5704SOL    HW222588   0.901   4.087   0.896 -0.4178 -0.4594 -0.9066
 5704SOL    HW322589   0.823   3.959   0.913  0.2088 -0.6546  0.7615
 5704SOL    MW422590   0.884   4.014   0.940 -0.0781  0.1243 -0.2805
 5705SOL     OW22591   5.006   2.952   0.135 -0.0062 -0.6059 -0.0268
 5705SOL    HW222592   4.938   2.925   0.073 -0.2208 -1.3390  0.5158
 5705SOL    HW322593   5.021   2.875   0.189  0.9849 -0.3253  0.1135
 5705SOL    MW422594   4.999   2.938   0.134  0.2249  0.1908  0.5672
 5706SOL     OW22595   5.255   2.408   5.065 -0.0908 -0.0256  0.2144
 5706SOL    HW222596   5.172   2.397   5.020 -0.9717  0.8470  1.5454
 5706SOL    HW322597   5.234   2.461   5.142  1.8080  0.8293  0.2227
 5706SOL    MW422598   5.241   2.414   5.069 -0.3714 -0.4201 -0.1593
 5707SOL     OW22599   0.071   4.310   0.941  0.4142  0.1231  0.2223
 5707SOL    HW222600   0.069   4.282   1.032  2.3551  0.5890  0.4513
 5707SOL    HW322601   0.047   4.403   0.943  0.3544  0.1075  0.2359
 5707SOL    MW422602   0.067   4.319   0.953 -0.5122 -0.2584 -0.8099
 5708SOL     OW22603   2.693   1.026   3.124  0.0778 -0.2472  0.0487
 5708SOL    HW222604   2.749   1.075   3.184  0.6486  0.0791 -0.7400
 5708SOL    HW322605   2.732   0.939   3.120  0.0904 -0.2427  0.0736
 5708SOL    MW422606   2.705   1.021   3.131 -0.3704  0.0904 -0.3705
 5709SOL     OW22607   2.619   3.298   1.252 -0.6178 -0.0636  0.0895
 5709SOL    HW222608   2.692   3.352   1.283  0.6285 -0.1375 -2.4766
 5709SOL    HW322609   2.653   3.209   1.252 -1.7596 -0.5453  1.6929
 5709SOL    MW422610   2.633   3.293   1.256  0.1051 -0.4512  0.0871
 5710SOL     OW22611   5.406   2.153   6.158 -0.3232 -0.1207 -0.2017
 5710SOL    HW222612   5.483   2.178   6.209  0.1588 -2.7407  0.4965
 5710SOL    HW322613   5.340   2.131   6.223  0.0565 -2.7981 -0.6317
 5710SOL    MW422614   5.407   2.153   6.173 -0.0837 -0.0513  0.2864
 5711SOL     OW22615   5.417   5.655   0.262 -0.4680 -0.0343 -0.1280
 5711SOL    HW222616   5.497   5.706   0.277  0.4052 -0.6389 -2.3020
 5711SOL    HW322617   5.375   5.652   0.347  0.3031  2.8135  0.4740
 5711SOL    MW422618   5.422   5.661   0.275 -0.1841  0.0018 -0.0007
 5712SOL     OW22619   5.591   5.639   0.592 -0.3160 -0.3766 -0.4957
 5712SOL    HW222620   5.646   5.717   0.592  2.1534 -2.0136  0.1390
 5712SOL    HW322621   5.606   5.599   0.678  0.9170 -3.0853 -1.8481
 5712SOL    MW422622   5.600   5.644   0.604 -0.1655  0.2926  0.2277
 5713SOL     OW22623   2.832   1.861   4.387 -0.0452 -0.3502  0.5517
 5713SOL    HW222624   2.773   1.937   4.382 -0.4704 -0.7829 -1.7960
 5713SOL    HW322625   2.878   1.861   4.304  0.6652 -2.1171  0.9186
 5713SOL    MW422626   2.830   1.871   4.376  0.4016  0.3012  0.5254
 5714SOL     OW22627   2.403   5.288   3.197  0.1466  0.4611 -0.8714
 5714SOL    HW222628   2.435   5.198   3.198 -1.8043 -0.2906 -0.8912
 5714SOL    HW322629   2.424   5.321   3.109  1.3780  0.2471 -0.6695
 5714SOL    MW422630   2.410   5.281   3.185  0.2986 -0.3280  0.2452
 5715SOL     OW22631   4.609   4.459   0.926  0.4233 -0.1662 -0.4301
 5715SOL    HW222632   4.614   4.437   0.833  1.4889 -0.5156 -0.3003
 5715SOL    HW322633   4.625   4.554   0.929 -0.8872  0.0765 -0.7013
 5715SOL    MW422634   4.612   4.469   0.914 -0.0464 -0.0425 -0.1195
 5716SOL     OW22635   3.625   4.904   1.482 -0.3403  0.1388 -0.2692
 5716SOL    HW222636   3.693   4.838   1.471 -0.5207 -0.4118  1.5556
 5716SOL    HW322637   3.585   4.883   1.567 -0.4767  2.4993  0.3226
 5716SOL    MW422638   3.628   4.893   1.492 -0.3617  0.1644  0.0332
 5717SOL     OW22639   2.042   2.245   4.352 -0.2610  0.1368  0.6529
 5717SOL    HW222640   2.003   2.195   4.423 -0.2327 -0.6023  0.1517
 5717SOL    HW322641   1.968   2.268   4.296 -0.1102 -0.4442  0.2099
 5717SOL    MW422642   2.027   2.242   4.354  0.4151 -0.2668 -0.1575
 5718SOL     OW22643   4.687   6.276   1.157  0.8615  0.0640  0.8796
 5718SOL    HW222644   4.602   6.254   1.119  0.2180 -0.1200  2.3534
 5718SOL    HW322645   4.751   6.232   1.100 -0.0758 -0.6421  0.3383
 5718SOL    MW422646   4.685   6.267   1.144  0.0263 -0.5347  0.0168
 5719SOL     OW22647   5.233   2.432   2.402  0.1197  0.1655 -0.1961
 5719SOL    HW222648   5.169   2.474   2.459 -2.4900 -1.2301 -1.8950
 5719SOL    HW322649   5.246   2.495   2.331  1.7209  0.9937  0.7770
 5719SOL    MW422650   5.226   2.446   2.400  0.1673 -0.0265  0.6230
 5720SOL     OW22651   3.970   4.029   0.711 -0.1963  0.6088 -0.3708
 5720SOL    HW222652   4.060   3.998   0.719 -0.2857  0.0877 -1.2118
 5720SOL    HW322653   3.945   4.055   0.800  0.6354  0.3496 -0.0545
 5720SOL    MW422654   3.979   4.028   0.724 -0.3305  0.0579  0.1138
 5721SOL     OW22655   5.103   2.818   6.120 -0.0266 -0.2970 -0.1566
 5721SOL    HW222656   5.113   2.750   6.186 -2.0111 -0.5005 -0.0063
 5721SOL    HW322657   5.140   2.896   6.160 -0.0669 -0.7065  0.7032
 5721SOL    MW422658   5.109   2.819   6.134  0.1839 -0.5591 -0.1336
 5722SOL     OW22659   4.689   2.698   5.997 -0.1284  0.0310  0.2573
 5722SOL    HW222660   4.615   2.756   5.978 -0.6618 -0.4754  0.7619
 5722SOL    HW322661   4.754   2.754   6.039 -0.0867  0.5484 -0.4788
 5722SOL    MW422662   4.688   2.713   6.000 -0.5674  0.2826 -0.0977
 5723SOL     OW22663   0.175   2.409   1.419 -0.3566  0.0165 -0.1190
 5723SOL    HW222664   0.215   2.322   1.424 -0.7223 -0.1005  1.3477
 5723SOL    HW322665   0.127   2.409   1.337  0.3377 -0.8600 -0.5394
 5723SOL    MW422666   0.174   2.398   1.409 -0.8088  0.3745  0.3803
 5724SOL     OW22667   2.702   3.723   0.779 -0.0937  0.0892 -0.0486
 5724SOL    HW222668   2.638   3.776   0.828 -0.1103 -1.5888  1.8650
 5724SOL    HW322669   2.787   3.758   0.806 -0.1192 -0.4434  0.7439
 5724SOL    MW422670   2.705   3.735   0.789  0.5204 -0.2841 -0.2666
 5725SOL     OW22671   3.772   4.776   4.390 -0.6629  0.2786 -0.2399
 5725SOL    HW222672   3.677   4.771   4.398 -0.7399 -0.8335 -1.4098
 5725SOL    HW322673   3.789   4.773   4.296  0.5402  0.2910 -0.0494
 5725SOL    MW422674   3.762   4.775   4.379 -0.4544  0.6397  0.5291
 5726SOL     OW22675   2.535   6.228   1.067  0.7452  0.4547  0.2682
 5726SOL    HW222676   2.578   6.275   1.138 -0.0471 -1.1375  1.8770
 5726SOL    HW322677   2.456   6.191   1.107 -0.5813  0.8559 -1.8590
 5726SOL    MW422678   2.531   6.229   1.082 -0.3953  0.6322 -0.1668
 5727SOL     OW22679   5.378   5.697   1.867  0.2260  0.7819  0.1026
 5727SOL    HW222680   5.454   5.660   1.913  0.2879  2.0153  1.0446
 5727SOL    HW322681   5.390   5.669   1.776  2.2958  1.6471  0.0461
 5727SOL    MW422682   5.390   5.688   1.861  0.0421  0.0127  0.4380
 5728SOL     OW22683   0.547   0.446   0.197 -0.0745  0.5911 -0.1700
 5728SOL    HW222684   0.533   0.413   0.109  1.0045  1.1362 -0.5673
 5728SOL    HW322685   0.562   0.540   0.186 -0.4983  0.7648  0.6541
 5728SOL    MW422686   0.547   0.454   0.184  0.2605 -0.2112  0.2576
 5729SOL     OW22687   4.800   6.058   5.345  0.2863  0.1040  0.2565
 5729SOL    HW222688   4.790   6.024   5.256 -1.2226  1.7043 -0.2323
 5729SOL    HW322689   4.726   6.021   5.393  1.9784 -2.0741  1.3510
 5729SOL    MW422690   4.789   6.049   5.340  0.2853  0.1165 -0.3281
 5730SOL     OW22691   4.182   3.551   3.221 -0.4651  0.2117  0.1535
 5730SOL    HW222692   4.261   3.500   3.239  0.3775  1.4241  0.0550
 5730SOL    HW322693   4.138   3.503   3.151  1.3428  0.6184 -1.3545
 5730SOL    MW422694   4.187   3.538   3.214  0.0037 -0.0804 -0.0897
 5731SOL     OW22695   3.375   3.989   5.676 -0.4454  0.0761  0.2651
 5731SOL    HW222696   3.416   4.075   5.661 -0.4293 -0.1000 -0.7606
 5731SOL    HW322697   3.447   3.927   5.670 -0.6959 -0.1466 -0.5828
 5731SOL    MW422698   3.390   3.992   5.674  0.3503  0.4510  0.4613
 5732SOL     OW22699   4.893   3.583   3.947 -1.0637 -0.3291 -0.7766
 5732SOL    HW222700   4.967   3.572   3.887 -1.0211  0.0999 -0.8111
 5732SOL    HW322701   4.853   3.497   3.952 -0.3037 -0.6698 -0.4151
 5732SOL    MW422702   4.897   3.570   3.940 -0.6933 -0.2062 -0.2106
 5733SOL     OW22703   5.048   3.316   5.240 -0.2124  0.1127 -0.4814
 5733SOL    HW222704   5.048   3.410   5.258  1.6280  0.6132 -2.6802
 5733SOL    HW322705   4.956   3.290   5.246 -0.6868  1.8786  0.7887
 5733SOL    MW422706   5.036   3.325   5.243  0.5099  0.8792  0.0213
 5734SOL     OW22707   6.070   5.680   5.244  0.3362 -0.0525  0.6044
 5734SOL    HW222708   6.076   5.595   5.200 -1.0018  0.0191  0.2600
 5734SOL    HW322709   6.052   5.742   5.173  1.7208  0.6099  0.7916
 5734SOL    MW422710   6.069   5.677   5.229  0.0234 -0.0349 -0.6083
 5735SOL     OW22711   5.500   0.605   3.591 -0.2956  0.4610 -0.2686
 5735SOL    HW222712   5.415   0.649   3.591  0.3422  1.7725  0.8261
 5735SOL    HW322713   5.530   0.610   3.682  0.9754  0.0694 -0.6371
 5735SOL    MW422714   5.493   0.612   3.603  0.5186 -0.3544 -0.1872
 5736SOL     OW22715   4.919   4.391   0.594  0.0637  0.1807 -0.0014
 5736SOL    HW222716   4.908   4.323   0.660  0.5415 -2.2730 -2.3067
 5736SOL    HW322717   4.939   4.344   0.514  5.1119  3.1111 -0.8955
 5736SOL    MW422718   4.921   4.376   0.592  0.4245 -0.0074 -0.3775
 5737SOL     OW22719   6.131   0.141   3.643  0.2458 -0.1286  0.2885
 5737SOL    HW222720   6.051   0.109   3.602 -0.5837  0.9098  1.0514
 5737SOL    HW322721   6.105   0.221   3.688  1.9016  0.7299 -0.1836
 5737SOL    MW422722   6.117   0.147   3.643 -0.4005  0.0749 -0.0506
 5738SOL     OW22723   5.235   1.046   5.667  0.0719 -0.3453  0.1665
 5738SOL    HW222724   5.207   0.991   5.594  0.7025 -0.5898  0.1100
 5738SOL    HW322725   5.308   0.999   5.707  0.5842  0.4152  0.1524
 5738SOL    MW422726   5.241   1.033   5.662  0.0635 -0.5267  0.0741
 5739SOL     OW22727   5.175   4.932   5.575  0.2539 -0.0245  0.1792
 5739SOL    HW222728   5.135   4.926   5.662  0.4994 -1.8265  0.2059
 5739SOL    HW322729   5.181   4.841   5.545  0.3010  0.5386 -1.6741
 5739SOL    MW422730   5.170   4.919   5.582 -0.0204  0.1037 -0.0990
 5740SOL     OW22731   4.116   3.639   4.743  0.4700  0.0694  0.3777
 5740SOL    HW222732   4.052   3.571   4.760  1.8646 -1.2445  0.6120
 5740SOL    HW322733   4.077   3.693   4.674 -1.0929 -0.3432  0.9106
 5740SOL    MW422734   4.103   3.637   4.736  0.0146 -0.0523  0.1854
 5741SOL     OW22735   4.191   0.169   5.110 -0.1997  0.6752 -0.1239
 5741SOL    HW222736   4.141   0.094   5.078  0.8781  0.8116 -2.4102
 5741SOL    HW322737   4.261   0.131   5.163 -1.1492  0.2860  0.8635
 5741SOL    MW422738   4.194   0.154   5.112 -0.0050 -0.4932  0.2898
 5742SOL     OW22739   2.223   6.343   5.706 -0.8105  0.0861  0.1963
 5742SOL    HW222740   2.129   6.337   5.690 -0.6622 -0.1649 -0.6243
 5742SOL    HW322741   2.264   6.303   5.629 -0.0586 -2.9593  2.0410
 5742SOL    MW422742   2.216   6.337   5.693 -0.2649  0.3810  0.1379
 5743SOL     OW22743   0.974   0.975   1.307  0.1162 -0.1387  0.1303
 5743SOL    HW222744   0.911   1.039   1.275 -0.8883 -0.3699  1.5520
 5743SOL    HW322745   1.044   1.027   1.345  1.4298  0.1448 -2.4751
 5743SOL    MW422746   0.975   0.990   1.308  0.6999 -0.4621  0.6725
 5744SOL     OW22747   4.573   2.506   3.999 -0.1519  0.3034 -0.0806
 5744SOL    HW222748   4.544   2.490   3.909  0.5304  0.1393 -0.2764
 5744SOL    HW322749   4.651   2.450   4.009  0.3680  1.0831  0.2799
 5744SOL    MW422750   4.580   2.496   3.988 -0.3599  0.8794 -0.3920
 5745SOL     OW22751   0.016   4.780   1.185 -0.2712 -0.0512 -0.6005
 5745SOL    HW222752   0.081   4.845   1.157 -0.1973 -0.3664 -1.1635
 5745SOL    HW322753  -0.066   4.829   1.189 -0.5433 -0.2709 -2.6428
 5745SOL    MW422754   0.014   4.795   1.182  0.3752  0.2463 -0.0737
 5746SOL     OW22755   4.024   1.457   6.149 -0.1021 -0.5276 -0.4033
 5746SOL    HW222756   4.078   1.494   6.079  3.4828 -1.6518  1.5710
 5746SOL    HW322757   3.976   1.532   6.184  1.4833  0.8897 -1.1363
 5746SOL    MW422758   4.025   1.472   6.144 -0.0634 -0.6762  0.0849
 5747SOL     OW22759   0.775   6.375   5.222  0.1729 -0.2338  0.4433
 5747SOL    HW222760   0.697   6.336   5.260  0.2015 -0.2152  0.5208
 5747SOL    HW322761   0.846   6.314   5.244  0.0209 -0.7558 -0.4708
 5747SOL    MW422762   0.774   6.362   5.230  0.0026  0.0645 -0.0821
 5748SOL     OW22763   0.845   2.053   1.072  0.9751  0.3333  0.0787
 5748SOL    HW222764   0.874   2.046   0.981 -1.5271  0.3021 -0.8149
 5748SOL    HW322765   0.845   1.962   1.104 -2.5474 -0.4104 -1.5269
 5748SOL    MW422766   0.849   2.040   1.064 -0.3519 -0.5147 -0.2081
 5749SOL     OW22767   4.616   2.823   3.390 -0.8479  0.4774 -0.2525
 5749SOL    HW222768   4.533   2.854   3.353 -2.5794 -1.2934  1.8887
 5749SOL    HW322769   4.596   2.800   3.480  2.5241  1.9364  1.0413
 5749SOL    MW422770   4.603   2.824   3.397 -0.1400  0.2649 -0.1162
 5750SOL     OW22771   4.321   0.121   1.066  0.4628  0.0269 -0.8679
 5750SOL    HW222772   4.323   0.032   1.101  0.1736  0.4170  0.1789
 5750SOL    HW322773   4.356   0.176   1.137 -2.6639  1.1786 -0.0635
 5750SOL    MW422774   4.326   0.117   1.080 -0.1662  0.0179  0.1377
 5751SOL     OW22775   0.346   1.192   2.840 -0.3634  0.2765 -0.4418
 5751SOL    HW222776   0.370   1.232   2.924  0.0195 -0.4103 -0.2129
 5751SOL    HW322777   0.321   1.265   2.785 -0.7299  0.7313  0.3095
 5751SOL    MW422778   0.346   1.207   2.844  0.2653  0.3625 -0.0694
 5752SOL     OW22779   6.141   5.284   6.262  0.1654 -0.6648  0.5247
 5752SOL    HW222780   6.069   5.345   6.247 -0.1134 -0.8148  1.2035
 5752SOL    HW322781   6.192   5.286   6.182  0.7392  1.2229  0.8976
 5752SOL    MW422782   6.138   5.292   6.250  0.3475 -0.4012  0.3884
 5753SOL     OW22783   0.231   2.412   5.265 -0.0251 -0.0381  0.0835
 5753SOL    HW222784   0.205   2.418   5.173 -0.6851 -1.2807  0.1657
 5753SOL    HW322785   0.316   2.369   5.263  1.8025  3.2384 -0.1268
 5753SOL    MW422786   0.239   2.407   5.252  0.1510 -0.0173  0.4147
 5754SOL     OW22787   5.651   5.454   0.398  0.4219 -0.4162  0.2869
 5754SOL    HW222788   5.642   5.522   0.331 -3.4562  1.0993  2.0480
 5754SOL    HW322789   5.639   5.501   0.481 -0.4628 -2.9906  1.7285
 5754SOL    MW422790   5.648   5.470   0.400 -0.2540  0.7883  0.2780
 5755SOL     OW22791   2.411   5.262   0.103 -0.3583  0.5211  0.1513
 5755SOL    HW222792   2.452   5.178   0.082  0.6259  0.6061  1.5891
 5755SOL    HW322793   2.434   5.319   0.030  0.9023  0.1645  0.2549
 5755SOL    MW422794   2.419   5.259   0.091 -0.0660  0.2116 -0.3780
 5756SOL     OW22795   5.588   4.184   1.468 -0.4243 -0.1470  0.4156
 5756SOL    HW222796   5.564   4.249   1.534 -1.5035  0.8034 -0.8343
 5756SOL    HW322797   5.549   4.218   1.387 -0.6755 -2.1558 -0.3626
 5756SOL    MW422798   5.579   4.197   1.466  0.0685  0.4709  0.1609
 5757SOL     OW22799   5.357   3.372   2.110  0.5011  0.5126  0.0879
 5757SOL    HW222800   5.361   3.384   2.205  0.7610  0.8687  0.0298
 5757SOL    HW322801   5.322   3.454   2.076  2.1651  1.0973 -0.2932
 5757SOL    MW422802   5.353   3.384   2.118  0.5918 -0.5677 -0.6404
 5758SOL     OW22803   6.419   1.711   6.064 -0.3075  0.7760  0.2154
 5758SOL    HW222804   6.359   1.781   6.089 -0.6527  0.3844  0.5175
 5758SOL    HW322805   6.374   1.665   5.993 -0.2724  0.6179  0.2943
 5758SOL    MW422806   6.405   1.714   6.058 -0.3356  0.0510  0.0967
 5759SOL     OW22807   1.681   1.333   0.554  0.2882 -0.0715  0.6287
 5759SOL    HW222808   1.758   1.350   0.610  1.1714 -1.7708  0.0134
 5759SOL    HW322809   1.694   1.244   0.523 -1.8854 -0.3423  0.3517
 5759SOL    MW422810   1.693   1.323   0.557  0.1627 -0.2982  0.6652
 5760SOL     OW22811   0.801   1.293   0.274 -0.2374  0.0593 -0.3704
 5760SOL    HW222812   0.883   1.301   0.226 -0.7293 -0.5636 -1.3462
 5760SOL    HW322813   0.745   1.361   0.238  0.3672  1.6146  1.4658
 5760SOL    MW422814   0.804   1.303   0.263  0.3947 -0.4725 -0.0927
 5761SOL     OW22815   5.512   2.122   4.695 -0.2647  0.6815  0.3880
 5761SOL    HW222816   5.508   2.029   4.672 -1.8614  0.8564 -0.2112
 5761SOL    HW322817   5.540   2.123   4.786 -0.4687 -0.4014  0.4789
 5761SOL    MW422818   5.515   2.110   4.704  0.0226  0.0298  0.5749
 5762SOL     OW22819   4.305   2.421   1.563 -0.1575  0.1532 -0.4626
 5762SOL    HW222820   4.273   2.436   1.651 -0.1408 -2.0372 -0.0205
 5762SOL    HW322821   4.364   2.494   1.545 -0.4758  0.8407  1.1759
 5762SOL    MW422822   4.308   2.433   1.572 -0.1272 -0.4414 -0.3928
 5763SOL     OW22823   4.155   1.550   3.854 -0.2156  0.5108  0.2888
 5763SOL    HW222824   4.061   1.567   3.845  0.2896  2.2539 -2.9395
 5763SOL    HW322825   4.185   1.616   3.917 -1.0959 -0.1034  1.4002
 5763SOL    MW422826   4.146   1.561   3.861 -0.2121 -0.4670  0.5754
 5764SOL     OW22827   1.100   2.307   0.017 -0.2196 -0.7385 -0.0077
 5764SOL    HW222828   1.172   2.248   0.037 -0.3397 -0.6412  0.7648
 5764SOL    HW322829   1.133   2.363  -0.053  0.8249 -0.0325  1.0132
 5764SOL    MW422830   1.114   2.306   0.011 -0.4884 -0.0362 -0.1197
 5765SOL     OW22831   4.591   2.510   3.685  0.2148 -0.0404  0.0586
 5765SOL    HW222832   4.565   2.601   3.675 -0.3906 -0.2898 -0.7992
 5765SOL    HW322833   4.677   2.505   3.643  1.0701  0.4793  1.6389
 5765SOL    MW422834   4.599   2.521   3.678 -0.0429 -0.1289  0.3166
 5766SOL     OW22835   1.121   2.387   6.125 -0.2977  0.6270 -0.0637
 5766SOL    HW222836   1.110   2.295   6.146  1.1480  0.2892 -0.7230
 5766SOL    HW322837   1.032   2.423   6.128 -0.7753 -0.5770  1.0682
 5766SOL    MW422838   1.107   2.380   6.128 -0.4000  0.1789 -0.0080
 5767SOL     OW22839   5.809   0.513   6.227  0.3620 -0.4071 -0.0662
 5767SOL    HW222840   5.847   0.504   6.315  1.5043 -2.0728 -0.6797
 5767SOL    HW322841   5.718   0.538   6.243  1.0358  1.3037  1.5252
 5767SOL    MW422842   5.802   0.515   6.241 -0.3378  0.1619 -0.6545
 5768SOL     OW22843   3.802   3.129   2.039 -0.2095  0.7548 -0.1286
 5768SOL    HW222844   3.840   3.055   2.086 -0.4391  2.9024  3.8164
 5768SOL    HW322845   3.870   3.154   1.976  1.1195 -0.9250  0.5476
 5768SOL    MW422846   3.816   3.122   2.037  0.3360  0.3480 -0.0295
 5769SOL     OW22847   0.035   5.502   4.492  0.2153 -0.0596 -0.3506
 5769SOL    HW222848   0.014   5.511   4.399  2.7813  1.2140 -0.8858
 5769SOL    HW322849  -0.005   5.580   4.532  2.9599  1.9545 -1.2388
 5769SOL    MW422850   0.027   5.514   4.485 -0.5763 -0.3094  0.0484
 5770SOL     OW22851   3.546   3.197   1.958  0.3227 -0.4540 -0.1426
 5770SOL    HW222852   3.541   3.244   1.875  0.1169 -2.1960 -1.1709
 5770SOL    HW322853   3.633   3.157   1.958  0.7003  0.3213  0.9544
 5770SOL    MW422854   3.556   3.198   1.947 -0.4910 -0.0578  0.4470
 5771SOL     OW22855   2.229   0.096   0.224  0.0234 -0.1542  0.2505
 5771SOL    HW222856   2.279   0.175   0.204  0.8626 -1.1451 -1.7447
 5771SOL    HW322857   2.143   0.112   0.184  0.1117 -0.1619  0.0587
 5771SOL    MW422858   2.224   0.109   0.216  0.5073  0.1476 -0.6575
 5772SOL     OW22859   4.104   0.709   5.440 -1.0894  0.5698  0.2524
 5772SOL    HW222860   4.074   0.619   5.454 -1.0516  0.5242  0.0464
 5772SOL    HW322861   4.185   0.700   5.390 -1.8933  0.7738 -1.1260
 5772SOL    MW422862   4.111   0.696   5.435 -0.2348 -0.4544  0.3422
 5773SOL     OW22863   0.462   4.288   2.763 -0.2797 -0.0285  0.0897
 5773SOL    HW222864   0.404   4.365   2.765 -1.2751 -0.7746  1.0616
 5773SOL    HW322865   0.448   4.246   2.848  0.3014 -1.2526 -0.4065
 5773SOL    MW422866   0.452   4.293   2.775  0.8873 -0.3133 -0.3520
 5774SOL     OW22867   4.133   6.275   1.180 -0.1644  0.0166 -0.2293
 5774SOL    HW222868   4.084   6.239   1.106 -1.2664  1.4581 -0.2509
 5774SOL    HW322869   4.085   6.354   1.205  0.3139 -0.2797  1.8797
 5774SOL    MW422870   4.121   6.281   1.174 -0.1616 -0.2498 -0.3886
 5775SOL     OW22871   0.532   1.629   4.558 -0.4294  0.5844  0.1579
 5775SOL    HW222872   0.603   1.688   4.532 -0.9638  1.2949  0.2565
 5775SOL    HW322873   0.494   1.671   4.635 -0.0289 -0.5589  0.9895
 5775SOL    MW422874   0.536   1.643   4.564 -0.1363  0.0560  0.7077
 5776SOL     OW22875   5.917   5.180   2.997 -0.0123  0.4160  0.9868
 5776SOL    HW222876   5.856   5.106   3.000  1.2695 -0.6796  1.6379
 5776SOL    HW322877   5.949   5.181   2.907  0.4669 -0.2855  1.1375
 5776SOL    MW422878   5.913   5.170   2.986  0.1284 -0.1803 -0.0080
 5777SOL     OW22879   0.702   6.092   0.197 -0.2344 -0.1215  0.5815
 5777SOL    HW222880   0.765   6.030   0.160 -0.3519  0.5345 -0.8023
 5777SOL    HW322881   0.617   6.048   0.187 -0.1415 -0.4501  1.2100
 5777SOL    MW422882   0.699   6.078   0.191  0.5868  0.3597 -0.0287
 5778SOL     OW22883   2.520   4.042   1.262  0.0496 -0.2692 -0.1829
 5778SOL    HW222884   2.584   4.025   1.193  1.8922  0.7472  1.1910
 5778SOL    HW322885   2.438   4.008   1.227  0.6441  1.1356 -3.2920
 5778SOL    MW422886   2.518   4.035   1.248  0.6501  0.1912  0.4598
 5779SOL     OW22887   5.487   5.102   5.727 -0.1985  0.0829 -0.2243
 5779SOL    HW222888   5.559   5.043   5.750 -0.3334  0.0887  0.2097
 5779SOL    HW322889   5.424   5.093   5.798  0.4889  1.9399  0.6914
 5779SOL    MW422890   5.489   5.093   5.739  0.2517  0.7032  0.4896
 5780SOL     OW22891   0.570   0.031   1.369  0.0254  0.0952 -0.0181
 5780SOL    HW222892   0.567  -0.060   1.343  0.8036  0.5859 -1.9729
 5780SOL    HW322893   0.663   0.048   1.388  0.0977  0.7795 -0.9153
 5780SOL    MW422894   0.582   0.022   1.368  0.0033  0.2249  0.5732
 5781SOL     OW22895   0.507   4.543   5.879  0.5271  0.1671  0.0523
 5781SOL    HW222896   0.431   4.508   5.926  0.2574 -0.4565 -0.8096
 5781SOL    HW322897   0.580   4.488   5.906  0.1662 -0.8859 -1.0524
 5781SOL    MW422898   0.506   4.531   5.889 -0.0342 -0.1659 -0.1675
 5782SOL     OW22899   0.357   0.539   3.469  0.3948  0.5307 -0.8475
 5782SOL    HW222900   0.335   0.448   3.448  0.9510  0.2896 -0.4374
 5782SOL    HW322901   0.288   0.591   3.428  0.0875 -0.0754 -1.1152
 5782SOL    MW422902   0.345   0.533   3.461 -0.1121 -0.1541  0.1760
 5783SOL     OW22903   4.133   2.109   4.842 -0.5914  0.5339  0.4163
 5783SOL    HW222904   4.081   2.061   4.778  0.4395  0.8006 -0.6650
 5783SOL    HW322905   4.084   2.102   4.923 -1.5615 -0.4579 -0.2278
 5783SOL    MW422906   4.120   2.102   4.844  0.0138 -0.1823  0.2773
 5784SOL     OW22907   3.865   5.381   0.521  0.2345 -0.4358  0.4507
 5784SOL    HW222908   3.829   5.445   0.459  0.5784 -1.2038 -0.5612
 5784SOL    HW322909   3.957   5.371   0.496  0.0018 -1.9011  0.0649
 5784SOL    MW422910   3.872   5.388   0.509  0.0050 -0.5275  0.0625
 5785SOL     OW22911   5.729   2.367   0.675  0.0546 -0.0933  0.5123
 5785SOL    HW222912   5.794   2.354   0.606  0.2440 -0.6291  0.7848
 5785SOL    HW322913   5.649   2.390   0.628  0.5775  1.1518  0.2050
 5785SOL    MW422914   5.727   2.368   0.660 -0.2160  0.3645  0.0298
 5786SOL     OW22915   6.021   0.071   1.026 -0.4048  0.4988 -0.2210
 5786SOL    HW222916   6.081   0.128   0.978  1.6104 -0.6083  0.8553
 5786SOL    HW322917   5.934   0.102   1.002  0.5650  4.1612  0.4611
 5786SOL    MW422918   6.017   0.082   1.016 -0.2566  0.1654 -0.6475
 5787SOL     OW22919   5.961   5.855   3.702  0.1901 -0.0100  0.0180
 5787SOL    HW222920   6.055   5.844   3.720 -0.0173 -0.0177  1.1642
 5787SOL    HW322921   5.933   5.770   3.670  0.1230 -0.7277  1.8580
 5787SOL    MW422922   5.970   5.843   3.700  0.0357  0.0184  0.4110
 5788SOL     OW22923   3.514   4.387   1.167 -0.4210 -0.4419  0.0463
 5788SOL    HW222924   3.582   4.450   1.142 -1.1518 -0.7507 -3.1686
 5788SOL    HW322925   3.557   4.302   1.159 -0.3503 -0.5281  1.1729
 5788SOL    MW422926   3.529   4.384   1.163  0.3318 -0.5530 -0.1501
 5789SOL     OW22927   5.393   2.447   1.640  0.5948  0.6768  0.1822
 5789SOL    HW222928   5.365   2.422   1.728 -1.6151 -2.3930 -1.2316
 5789SOL    HW322929   5.483   2.415   1.634 -0.1852 -1.7774  0.4771
 5789SOL    MW422930   5.401   2.440   1.651  0.2014 -0.3889 -0.2288
 5790SOL     OW22931   0.055   3.410   5.322 -0.3427  0.4573  0.4090
 5790SOL    HW222932   0.099   3.325   5.315 -0.4200  0.2378  2.1330
 5790SOL    HW322933  -0.011   3.397   5.391 -1.4874  1.4596 -0.4373
 5790SOL    MW422934   0.052   3.397   5.330  0.9014 -0.3898 -0.1793
 5791SOL     OW22935   1.301   0.724   2.754 -0.4338  0.7561 -0.1506
 5791SOL    HW222936   1.223   0.772   2.724 -0.6875  0.8621  0.6383
 5791SOL    HW322937   1.354   0.713   2.676 -1.4286  0.3311 -0.7894
 5791SOL    MW422938   1.298   0.729   2.740 -0.5181 -0.2435  0.0266
 5792SOL     OW22939   5.613   1.390   4.160 -0.3022 -0.2217 -0.9059
 5792SOL    HW222940   5.661   1.472   4.160  0.9508 -0.9279 -0.7681
 5792SOL    HW322941   5.678   1.324   4.134 -0.7206 -1.4510  0.9331
 5792SOL    MW422942   5.628   1.392   4.157 -0.2875  0.1185 -0.1640
 5793SOL     OW22943   5.086   2.453   0.772  0.0528 -0.1638 -0.6360
 5793SOL    HW222944   5.079   2.379   0.833  0.2443  1.5835  1.6581
 5793SOL    HW322945   4.995   2.476   0.752 -0.1992  1.3404  1.8253
 5793SOL    MW422946   5.073   2.447   0.777  0.6145 -0.4852  0.0096
 5794SOL     OW22947   4.806   6.390   3.317 -0.7977  0.1278  0.6551
 5794SOL    HW222948   4.850   6.338   3.385  0.6907  0.9789  0.3977
 5794SOL    HW322949   4.792   6.476   3.358 -0.9880  0.2780  0.2818
 5794SOL    MW422950   4.810   6.395   3.332 -0.1161 -0.2177 -0.1185
 5795SOL     OW22951   2.964   2.124   1.777  0.2005  0.3094  0.7577
 5795SOL    HW222952   2.965   2.120   1.873  1.5055 -0.4631  0.7395
 5795SOL    HW322953   2.912   2.049   1.751 -0.0609  0.4545  0.8550
 5795SOL    MW422954   2.957   2.114   1.787 -1.0262 -0.2252 -0.1497
 5796SOL     OW22955   3.736   4.345   3.299  0.4124  0.8751  0.6816
 5796SOL    HW222956   3.830   4.327   3.303  0.2071 -0.1511  1.3063
 5796SOL    HW322957   3.724   4.395   3.218  1.6760  2.2418  1.2841
 5796SOL    MW422958   3.747   4.349   3.289  0.2651  0.1504  0.0826
 5797SOL     OW22959   4.532   5.546   4.247  0.3613 -0.4564 -0.4167
 5797SOL    HW222960   4.538   5.584   4.335 -1.0161 -1.7336  0.2797
 5797SOL    HW322961   4.483   5.610   4.197  0.1049 -0.2584  0.0798
 5797SOL    MW422962   4.527   5.559   4.252 -0.0804 -0.2352  0.3221
 5798SOL     OW22963   0.177   2.335   3.696 -0.5987  0.1760 -0.3662
 5798SOL    HW222964   0.186   2.331   3.600 -0.3171  0.0949 -0.3379
 5798SOL    HW322965   0.085   2.354   3.710 -0.2405  2.4198 -0.6921
 5798SOL    MW422966   0.166   2.337   3.685  0.1980  0.2113 -0.6083
 5799SOL     OW22967   0.839   2.480   0.472  0.0259  0.5065  0.1872
 5799SOL    HW222968   0.869   2.517   0.389 -0.3426  1.6705  0.5544
 5799SOL    HW322969   0.756   2.526   0.490 -0.8144 -0.9926  0.3236
 5799SOL    MW422970   0.832   2.491   0.464 -0.2003 -0.6962  0.5256
 5800SOL     OW22971   3.238   4.005   5.142 -0.0011  0.0681 -0.4905
 5800SOL    HW222972   3.296   3.930   5.130  2.7919  2.2293 -1.5868
 5800SOL    HW322973   3.232   4.016   5.237  1.1089 -0.4444 -0.3488
 5800SOL    MW422974   3.245   3.997   5.153  0.2304  0.2403  0.9694
 5801SOL     OW22975   1.182   4.606   0.578 -0.1040 -0.5196 -0.0357
 5801SOL    HW222976   1.265   4.601   0.530 -0.3925  0.9876 -0.7418
 5801SOL    HW322977   1.138   4.683   0.542 -1.8156 -1.2813  0.3283
 5801SOL    MW422978   1.187   4.615   0.567  0.0419  0.3301  0.0884
 5802SOL     OW22979   1.212   3.394   1.267 -0.1082 -0.0022  0.0325
 5802SOL    HW222980   1.172   3.477   1.241  1.2729  0.4561 -0.7440
 5802SOL    HW322981   1.297   3.419   1.303  0.6590 -1.1114 -0.9300
 5802SOL    MW422982   1.218   3.409   1.268  0.1223 -0.2777  0.0598
 5803SOL     OW22983   0.367   1.294   0.863  0.5745 -0.0116  0.1254
 5803SOL    HW222984   0.412   1.265   0.784 -0.6441  0.5748 -0.8243
 5803SOL    HW322985   0.281   1.251   0.858 -0.3571  1.7666 -0.0551
 5803SOL    MW422986   0.361   1.284   0.852 -0.5970 -0.2772 -0.2143
 5804SOL     OW22987   5.755   1.836   5.737  0.0141 -0.0168  0.1777
 5804SOL    HW222988   5.828   1.775   5.722 -1.1841 -1.3351 -0.4249
 5804SOL    HW322989   5.677   1.782   5.729 -1.0892  1.6073 -0.3174
 5804SOL    MW422990   5.755   1.821   5.734  0.2636  0.3871  0.0145
 5805SOL     OW22991   2.794   0.674   6.361  0.0613 -0.0523 -0.7404
 5805SOL    HW222992   2.783   0.628   6.444  2.2538 -1.6841 -1.2528
 5805SOL    HW322993   2.733   0.747   6.365 -1.2618 -1.1835  1.4883
 5805SOL    MW422994   2.785   0.677   6.372  0.9213 -0.0934  0.8179
 5806SOL     OW22995   2.324   4.161   5.655 -0.1238  0.5579 -0.2531
 5806SOL    HW222996   2.390   4.153   5.723 -0.3434  0.0678 -0.0943
 5806SOL    HW322997   2.345   4.244   5.610 -0.7334  1.5388  1.2038
 5806SOL    MW422998   2.336   4.171   5.658  0.1779  0.5408 -0.1772
 5807SOL     OW22999   2.684   4.958   2.362  0.3775  0.0995  0.1962
 5807SOL    HW223000   2.594   4.975   2.336  0.3492 -1.8700 -1.1284
 5807SOL    HW323001   2.735   5.025   2.316 -0.2921  0.6436  0.2201
 5807SOL    MW423002   2.679   4.969   2.353 -0.1474 -0.0716  0.5160
 5808SOL     OW23003   6.143   2.128   0.147  0.1363 -0.1238  0.2345
 5808SOL    HW223004   6.109   2.087   0.068  3.5490 -1.5435 -0.6727
 5808SOL    HW323005   6.105   2.076   0.219  0.4239 -1.6786 -0.6977
 5808SOL    MW423006   6.133   2.116   0.146  0.4694 -0.1271 -0.4629
 5809SOL     OW23007   0.384   5.991   1.949 -0.5190 -0.0358 -0.2543
 5809SOL    HW223008   0.293   5.977   1.924 -0.7570 -0.1025  0.6119
 5809SOL    HW323009   0.385   5.977   2.044 -0.1161  2.4355  0.1797
 5809SOL    MW423010   0.372   5.987   1.958  0.4283  0.5564  0.2642
 5810SOL     OW23011   5.463   6.042   5.999  0.1868 -0.5618 -0.7852
 5810SOL    HW223012   5.473   5.990   6.080  3.7458 -2.0940 -2.0322
 5810SOL    HW323013   5.410   5.986   5.942  1.0009 -1.2810 -0.8597
 5810SOL    MW423014   5.457   6.027   6.002  0.3896 -0.7833 -0.0756
 5811SOL     OW23015   5.906   1.897   2.052  0.6637 -0.1586  0.0269
 5811SOL    HW223016   5.830   1.847   2.081 -1.7671  2.7902 -0.7817
 5811SOL    HW323017   5.958   1.835   2.002 -1.2795 -2.2463  0.4634
 5811SOL    MW423018   5.903   1.882   2.050 -0.3754  0.1667  0.5335
 5812SOL     OW23019   0.160   3.112   1.256  0.4641  0.3505 -0.7723
 5812SOL    HW223020   0.216   3.071   1.322 -2.0191  0.6762  1.7329
 5812SOL    HW323021   0.110   3.178   1.305 -1.1758  0.9367 -3.0988
 5812SOL    MW423022   0.161   3.115   1.271  0.1983  0.1216  0.6230
 5813SOL     OW23023   1.307   1.417   1.006  0.0062 -0.0518  0.2314
 5813SOL    HW223024   1.381   1.449   0.954 -0.5938 -1.4556 -1.5850
 5813SOL    HW323025   1.348   1.361   1.073  0.7366  1.2503  0.9173
 5813SOL    MW423026   1.322   1.414   1.008 -0.0777 -0.1087 -0.0438
 5814SOL     OW23027   0.211   1.950   1.347 -0.5249 -0.1113 -0.0166
 5814SOL    HW223028   0.275   1.966   1.278 -1.4632  0.7508 -0.7136
 5814SOL    HW323029   0.126   1.951   1.303 -1.2672  1.7825  1.3131
 5814SOL    MW423030   0.208   1.952   1.332  0.2341 -0.3688 -0.0141
 5815SOL     OW23031   0.610   3.342   3.667 -0.0910  0.0662  0.3054
 5815SOL    HW223032   0.532   3.303   3.628  1.0067  0.3047 -2.3214
 5815SOL    HW323033   0.635   3.411   3.606  1.4149  0.8923  1.7892
 5815SOL    MW423034   0.603   3.346   3.654 -0.1719 -0.1412 -0.3302
 5816SOL     OW23035   3.633   4.727   3.648 -0.0820  0.7877  0.3044
 5816SOL    HW223036   3.565   4.667   3.677  0.5833 -1.1831 -1.8552
 5816SOL    HW323037   3.699   4.671   3.609  3.8798  2.3650  3.9664
 5816SOL    MW423038   3.633   4.712   3.646 -0.2184  0.3325  0.0143
 5817SOL     OW23039   5.661   1.284   0.498 -0.2049 -0.7115  0.2469
 5817SOL    HW223040   5.714   1.316   0.425 -0.8898 -1.6705 -0.7073
 5817SOL    HW323041   5.571   1.288   0.466 -0.4202 -2.3039  0.5357
 5817SOL    MW423042   5.656   1.289   0.484  0.1566 -0.3757 -0.0378
 5818SOL     OW23043   2.191   4.366   1.405 -0.2585  0.0623  0.3107
 5818SOL    HW223044   2.137   4.445   1.405  0.2760  0.5224 -2.5723
 5818SOL    HW323045   2.142   4.304   1.351 -0.1324 -1.2328  1.6346
 5818SOL    MW423046   2.177   4.369   1.398  0.1755 -0.3362 -0.7665
 5819SOL     OW23047   4.195   6.064   2.476  0.0638  0.4693 -0.3504
 5819SOL    HW223048   4.145   5.989   2.442  2.3551 -0.6385 -1.4699
 5819SOL    HW323049   4.142   6.097   2.549 -0.6995 -2.6860  0.6556
 5819SOL    MW423050   4.181   6.059   2.481 -0.6021 -0.4700 -0.2506
 5820SOL     OW23051   4.879   0.790   4.599  0.1044  0.3020  0.0626
 5820SOL    HW223052   4.817   0.856   4.629 -0.2947  0.3837 -0.9130
 5820SOL    HW323053   4.965   0.831   4.610 -0.0687  0.5600  0.4940
 5820SOL    MW423054   4.882   0.804   4.604  0.8619  0.2799 -0.1124
 5821SOL     OW23055   0.573   1.634   1.153  0.4276  0.8514 -0.2508
 5821SOL    HW223056   0.518   1.599   1.224  1.4354 -0.0839  0.0843
 5821SOL    HW323057   0.614   1.558   1.114 -1.4382  1.1541 -3.0518
 5821SOL    MW423058   0.571   1.620   1.157  0.0618  0.4519  0.2979
 5822SOL     OW23059   2.769   2.220   1.251  0.1423 -0.4142  0.2630
 5822SOL    HW223060   2.699   2.190   1.193  2.4294  0.1523 -3.1029
 5822SOL    HW323061   2.835   2.150   1.245  2.2673  1.5787 -1.5001
 5822SOL    MW423062   2.769   2.207   1.242  0.3031  0.4118 -0.0859
 5823SOL     OW23063   2.591   1.654   1.291 -0.0921  0.3584  0.0033
 5823SOL    HW223064   2.554   1.719   1.231 -0.6081  0.8092  0.7799
 5823SOL    HW323065   2.596   1.573   1.240 -0.3884  0.7669 -0.6795
 5823SOL    MW423066   2.586   1.652   1.277 -0.1846  0.5295  0.0110
 5824SOL     OW23067   6.185   0.999   5.959 -0.0445 -0.4853 -0.1462
 5824SOL    HW223068   6.200   0.919   5.909  1.1459  0.2790 -1.0614
 5824SOL    HW323069   6.100   1.031   5.928 -0.3862 -1.2199  0.0115
 5824SOL    MW423070   6.175   0.993   5.948 -0.5678  0.4891  0.7789
 5825SOL     OW23071   1.681   6.266   2.340 -0.2381  0.6548  0.0951
 5825SOL    HW223072   1.717   6.306   2.419 -1.8163 -0.4580  1.4631
 5825SOL    HW323073   1.634   6.189   2.372  1.4449 -1.4955 -2.2592
 5825SOL    MW423074   1.679   6.261   2.355 -0.1240 -0.0973 -0.6126
 5826SOL     OW23075   1.995   1.627   5.208 -0.2787 -0.2935 -0.0194
 5826SOL    HW223076   1.982   1.717   5.238 -1.1660 -0.5766  0.4727
 5826SOL    HW323077   1.921   1.609   5.151  0.3482 -0.4375 -0.8019
 5826SOL    MW423078   1.984   1.636   5.205 -0.2758 -0.1193 -0.0540
 5827SOL     OW23079   1.633   5.470   4.579 -0.2286  0.5546  0.1408
 5827SOL    HW223080   1.599   5.536   4.640 -0.7195  0.7072 -0.2853
 5827SOL    HW323081   1.719   5.447   4.614 -1.2253 -0.7179  1.9360
 5827SOL    MW423082   1.640   5.476   4.592  0.1148  0.1322 -0.1525
 5828SOL     OW23083   1.814   5.044   6.360 -0.1854 -0.3399  0.3582
 5828SOL    HW223084   1.762   4.987   6.416 -2.6076 -0.0527 -1.4419
 5828SOL    HW323085   1.751   5.082   6.299  1.6889  2.5090  0.0141
 5828SOL    MW423086   1.799   5.041   6.359  0.3244  0.1866 -0.4889
 5829SOL     OW23087   0.106   3.177   4.509  0.4098  0.1252 -0.0807
 5829SOL    HW223088   0.090   3.230   4.430 -0.0092 -0.2292 -0.2420
 5829SOL    HW323089   0.103   3.240   4.581  4.1816  1.0475 -0.5581
 5829SOL    MW423090   0.103   3.192   4.508  0.2975  0.3346  0.2416
 5830SOL     OW23091   6.148   0.545   0.498 -0.4651  0.3632 -0.3401
 5830SOL    HW223092   6.195   0.544   0.414 -0.6460  1.4267 -0.4595
 5830SOL    HW323093   6.087   0.471   0.491 -1.2199  1.0680 -1.5788
 5830SOL    MW423094   6.146   0.535   0.486 -0.2591  0.1456  0.1207
 5831SOL     OW23095   0.567   2.972   1.581  0.5553  0.0441  0.2856
 5831SOL    HW223096   0.606   3.059   1.573  1.5649 -0.3917  0.3118
 5831SOL    HW323097   0.641   2.912   1.575 -0.3221 -0.9398 -2.2221
 5831SOL    MW423098   0.582   2.976   1.579  0.0274 -1.3841 -0.3125
 5832SOL     OW23099   3.362   5.150   4.059 -0.5435 -0.3982  0.1802
 5832SOL    HW223100   3.448   5.191   4.054 -1.0440  0.6230 -0.3562
 5832SOL    HW323101   3.380   5.058   4.078  0.5537  0.4060  3.7493
 5832SOL    MW423102   3.376   5.143   4.061 -0.1239 -0.1202  0.1640
 5833SOL     OW23103   1.644   3.253   0.886  0.3807  0.1077 -0.4671
 5833SOL    HW223104   1.681   3.341   0.878 -1.2798  0.7748 -1.3989
 5833SOL    HW323105   1.641   3.235   0.980  1.3271  0.7718 -0.3027
 5833SOL    MW423106   1.648   3.262   0.897  0.5909  0.0929  0.2284
 5834SOL     OW23107   5.453   2.415   2.139  0.0258  0.3511 -0.3398
 5834SOL    HW223108   5.543   2.445   2.148  1.1380 -2.1124 -2.1634
 5834SOL    HW323109   5.433   2.374   2.223  0.2686  1.6016  0.3584
 5834SOL    MW423110   5.462   2.413   2.151 -0.8376 -0.9644 -0.2206
 5835SOL     OW23111   0.472   5.524   4.922  0.0258 -0.3906 -0.2860
 5835SOL    HW223112   0.524   5.467   4.865  0.0975 -2.6314  1.8696
 5835SOL    HW323113   0.381   5.497   4.907 -0.4307  1.8988 -2.2956
 5835SOL    MW423114   0.467   5.513   4.912 -0.8525 -0.6077 -0.1783
 5836SOL     OW23115   0.852   3.560   1.331 -0.3172 -0.2966  0.1287
 5836SOL    HW223116   0.940   3.582   1.300 -0.5513 -1.6723 -1.6595
 5836SOL    HW323117   0.827   3.635   1.386  2.2165 -0.1898  1.2910
 5836SOL    MW423118   0.860   3.573   1.334  0.1279 -0.4557 -0.0330
 5837SOL     OW23119   1.130   5.822   5.504  0.3283  0.4620 -0.3310
 5837SOL    HW223120   1.133   5.814   5.408  1.5141 -0.0727 -0.2695
 5837SOL    HW323121   1.139   5.915   5.521 -1.0784  0.7008 -0.7558
 5837SOL    MW423122   1.132   5.833   5.493  0.0300  0.5267  0.2407
 5838SOL     OW23123   5.942   4.023   0.922  0.1704 -0.4568  0.0275
 5838SOL    HW223124   6.005   3.952   0.909  0.4420 -0.2816  0.3671
 5838SOL    HW323125   5.857   3.980   0.922  0.3431 -0.8080  0.3779
 5838SOL    MW423126   5.940   4.008   0.921 -0.1363  0.5207 -0.0095
 5839SOL     OW23127   6.261   4.064   1.045  0.3418  0.3621 -0.4510
 5839SOL    HW223128   6.182   4.062   1.100 -0.1590 -1.0642 -1.1696
 5839SOL    HW323129   6.304   3.980   1.062 -0.1107 -0.3742 -2.5683
 5839SOL    MW423130   6.256   4.053   1.055 -0.0349 -0.0086  0.0368
 5840SOL     OW23131   5.344   2.371   6.014 -0.6114  0.0480  0.4260
 5840SOL    HW223132   5.422   2.405   5.970 -0.8567  0.1667  0.0802
 5840SOL    HW323133   5.375   2.296   6.064 -0.2727  0.1079  0.3063
 5840SOL    MW423134   5.358   2.366   6.015 -0.1208  0.0170 -0.2710
 5841SOL     OW23135   1.588   5.650   4.842 -0.0648  0.2892  0.2027
 5841SOL    HW223136   1.644   5.709   4.893 -1.0525  1.3622  0.0864
 5841SOL    HW323137   1.558   5.585   4.905  2.1806 -0.9912  0.0323
 5841SOL    MW423138   1.591   5.649   4.857 -0.2390  0.5656 -0.0828
 5842SOL     OW23139   5.997   3.548   4.395  0.1053  0.2648  0.4027
 5842SOL    HW223140   6.027   3.614   4.333 -1.4087  0.8912  0.2845
 5842SOL    HW323141   6.065   3.544   4.462  1.1076  0.5673 -0.5654
 5842SOL    MW423142   6.010   3.556   4.396 -0.3900 -0.4517  0.7623
 5843SOL     OW23143   1.220   0.826   5.956  0.2863  0.1766  1.0684
 5843SOL    HW223144   1.129   0.834   5.926 -0.0609 -1.7090  1.5076
 5843SOL    HW323145   1.215   0.836   6.051  0.6756  0.9430  1.0157
 5843SOL    MW423146   1.207   0.828   5.965 -0.3304 -0.2932  0.1050
 5844SOL     OW23147   0.180   4.025   0.691 -0.1054  0.6717 -0.2208
 5844SOL    HW223148   0.098   4.039   0.642 -0.7488  1.8770  1.1240
 5844SOL    HW323149   0.236   3.976   0.630 -1.5769  0.3925 -1.4201
 5844SOL    MW423150   0.176   4.021   0.676 -0.1208  0.4660  0.1260
 5845SOL     OW23151   2.362   4.343   0.056  0.0905 -0.3999  0.8393
 5845SOL    HW223152   2.399   4.257   0.035  0.7893 -0.2521  1.4019
 5845SOL    HW323153   2.349   4.341   0.151  0.9590  0.4150  0.9970
 5845SOL    MW423154   2.365   4.331   0.066  0.3399  0.2005 -0.2276
 5846SOL     OW23155   6.408   0.395   4.976 -0.3791 -0.1873  0.7713
 5846SOL    HW223156   6.326   0.394   5.025 -0.7800 -1.2930  0.1173
 5846SOL    HW323157   6.460   0.326   5.017 -0.1723 -0.1674  0.5419
 5846SOL    MW423158   6.404   0.385   4.988 -0.0372 -0.0262  0.2035
 5847SOL     OW23159   5.718   4.483   4.334  0.2658 -0.1381 -0.1345
 5847SOL    HW223160   5.657   4.491   4.407  1.9838  0.4044  1.3284
 5847SOL    HW323161   5.795   4.439   4.371  1.0475 -0.1811 -1.7086
 5847SOL    MW423162   5.720   4.478   4.349  0.6290  0.2312 -0.0066
 5848SOL     OW23163   3.299   3.974   1.216  0.3064 -0.2899 -0.2687
 5848SOL    HW223164   3.236   4.044   1.196  0.2388 -0.8394 -2.1641
 5848SOL    HW323165   3.288   3.958   1.309 -2.2458 -0.2259 -0.4812
 5848SOL    MW423166   3.289   3.981   1.225 -0.0636 -0.0508  0.7981
 5849SOL     OW23167   1.388   1.983   4.112  0.2442 -0.2380 -0.7068
 5849SOL    HW223168   1.383   2.046   4.184 -0.9397 -1.2637  0.1236
 5849SOL    HW323169   1.346   2.028   4.038 -2.6860 -0.8090  0.4831
 5849SOL    MW423170   1.382   1.998   4.112 -0.3542  0.2500 -0.4002
 5850SOL     OW23171   5.923   1.443   0.892 -0.6295 -0.3300  0.0775
 5850SOL    HW223172   5.894   1.495   0.966  0.8227 -0.8944  1.0845
 5850SOL    HW323173   5.993   1.495   0.852 -0.5376 -0.6097 -0.1284
 5850SOL    MW423174   5.929   1.457   0.896  0.2178  0.2751 -0.2860
 5851SOL     OW23175   3.269   4.062   3.087  0.1429 -0.2599  0.1151
 5851SOL    HW223176   3.283   3.997   3.019  0.5878 -1.0373  0.9325
 5851SOL    HW323177   3.347   4.117   3.085  0.2147 -0.3628  0.0836
 5851SOL    MW423178   3.281   4.061   3.078 -0.3671  0.1412 -0.2375
 5852SOL     OW23179   5.495   1.578   0.734 -0.2236  0.2031 -0.3201
 5852SOL    HW223180   5.585   1.561   0.705  0.1004 -2.1425  1.7341
 5852SOL    HW323181   5.440   1.537   0.668  0.1908  1.1263 -1.2691
 5852SOL    MW423182   5.499   1.570   0.721  0.2272 -0.3268  0.4080
 5853SOL     OW23183   2.537   2.286   5.002 -0.5895  0.3890  0.5255
 5853SOL    HW223184   2.454   2.313   5.041 -1.0711 -2.3466  1.6217
 5853SOL    HW323185   2.602   2.344   5.041 -1.8326  1.8415  0.5116
 5853SOL    MW423186   2.535   2.297   5.012 -0.3163  0.1045  0.3574
 5854SOL     OW23187   2.863   3.363   1.817 -0.3779 -0.5863  0.3165
 5854SOL    HW223188   2.872   3.380   1.911 -2.3271 -0.7630  0.5708
 5854SOL    HW323189   2.952   3.343   1.788  0.3231 -0.1678  2.0418
 5854SOL    MW423190   2.876   3.363   1.825  0.0875  0.1006 -0.1199
 5855SOL     OW23191   0.402   0.021   3.244  0.0412  0.3028 -0.2033
 5855SOL    HW223192   0.409  -0.038   3.319  0.6586  0.3122 -0.2503
 5855SOL    HW323193   0.457   0.096   3.267 -0.1965  0.5512 -0.4366
 5855SOL    MW423194   0.410   0.023   3.257  0.5664 -0.2295 -0.9976
 5856SOL     OW23195   5.095   2.076   4.573 -0.6240 -0.2322 -0.2084
 5856SOL    HW223196   5.142   2.065   4.656 -0.5581  0.6815 -0.1218
 5856SOL    HW323197   5.163   2.067   4.506  0.1250  3.0831 -0.0361
 5856SOL    MW423198   5.110   2.073   4.576 -0.4706 -0.0751  0.1192
 5857SOL     OW23199   1.781   0.634   2.419  0.1039 -0.9179 -0.0044
 5857SOL    HW223200   1.723   0.640   2.343  0.7085  0.0702 -0.4038
 5857SOL    HW323201   1.723   0.650   2.494  0.4226  4.9969 -0.5922
 5857SOL    MW423202   1.765   0.637   2.419  0.3003 -0.6066  0.1819
 5858SOL     OW23203   0.535   3.121   5.520  0.1655  0.0182 -0.8383
 5858SOL    HW223204   0.462   3.059   5.519  0.6731 -0.6719  1.1469
 5858SOL    HW323205   0.611   3.068   5.545  0.9377  1.1431 -0.7121
 5858SOL    MW423206   0.536   3.106   5.523 -0.4250  0.6677 -0.1290
 5859SOL     OW23207   6.143   3.061   5.092 -0.1629 -0.1959 -0.2163
 5859SOL    HW223208   6.236   3.069   5.071 -0.1048 -1.1800 -0.3855
 5859SOL    HW323209   6.102   3.136   5.049  0.7458  1.1325  1.1587
 5859SOL    MW423210   6.150   3.072   5.083 -0.1014  0.2741  0.1777
 5860SOL     OW23211   0.680   5.692   3.525 -0.3498 -0.5731  0.2976
 5860SOL    HW223212   0.602   5.637   3.526 -1.0885  0.4341 -0.1878
 5860SOL    HW323213   0.737   5.653   3.591 -0.7301 -2.0663 -0.2247
 5860SOL    MW423214   0.677   5.680   3.534 -0.1218  0.4551  0.2082
 5861SOL     OW23215   0.120   3.893   3.032 -0.2220 -0.0315 -0.3307
 5861SOL    HW223216   0.129   3.807   2.991 -1.5374  0.4584 -1.7925
 5861SOL    HW323217   0.179   3.891   3.107  1.3669 -1.4522 -1.5465
 5861SOL    MW423218   0.129   3.881   3.036  0.2603  0.1360 -0.2173
 5862SOL     OW23219   1.043   4.296   3.559 -0.0152 -0.3741  0.1081
 5862SOL    HW223220   1.047   4.370   3.619  1.5259 -0.3238 -0.0307
 5862SOL    HW323221   1.025   4.335   3.474 -1.4661 -0.3833  0.3817
 5862SOL    MW423222   1.041   4.311   3.556  0.0977  0.0590  0.3966
 5863SOL     OW23223   3.611   4.523   2.654 -0.1776 -0.0509 -0.2711
 5863SOL    HW223224   3.588   4.562   2.739 -0.7702 -0.7797 -0.0936
 5863SOL    HW323225   3.697   4.560   2.635  0.0159  0.0501  0.7037
 5863SOL    MW423226   3.620   4.533   2.663 -0.1700  0.0003 -0.0615
 5864SOL     OW23227   5.842   0.248   4.055  0.7740  0.1092 -0.6947
 5864SOL    HW223228   5.747   0.256   4.049  0.5227 -0.7308  1.2763
 5864SOL    HW323229   5.874   0.338   4.060 -0.2645  0.4268  1.9573
 5864SOL    MW423230   5.834   0.261   4.055  0.0179  0.0518  0.8421
 5865SOL     OW23231   4.395   0.995   5.318  0.2136  0.3440  0.3430
 5865SOL    HW223232   4.411   0.901   5.316  1.5258  0.5333  0.6793
 5865SOL    HW323233   4.389   1.016   5.412  1.0549  0.7426  0.3199
 5865SOL    MW423234   4.396   0.985   5.330 -0.2871 -0.0719 -0.1042
 5866SOL     OW23235   5.144   5.940   3.886  0.0790  0.3614  0.4484
 5866SOL    HW223236   5.106   6.023   3.856  2.0178  0.7490 -1.1940
 5866SOL    HW323237   5.081   5.905   3.948 -2.8751  0.9819 -1.9958
 5866SOL    MW423238   5.131   5.946   3.890  0.0098 -0.3053  0.2433
 5867SOL     OW23239   6.292   5.855   4.964  0.6317  0.1486  0.2454
 5867SOL    HW223240   6.235   5.899   4.900  1.5640  1.4994  0.3206
 5867SOL    HW323241   6.381   5.874   4.935  1.1095 -2.2053 -0.0522
 5867SOL    MW423242   6.296   5.863   4.952  0.0403  0.6454 -0.2120
 5868SOL     OW23243   3.891   0.835   5.813 -0.1707  0.2394 -0.2869
 5868SOL    HW223244   3.866   0.747   5.841 -1.4221 -0.0083 -2.0351
 5868SOL    HW323245   3.883   0.888   5.892  1.1017 -1.2687  0.9297
 5868SOL    MW423246   3.887   0.830   5.827 -0.0456 -0.1618  0.0742
 5869SOL     OW23247   4.900   0.667   1.513  0.2093 -0.4336 -0.0670
 5869SOL    HW223248   4.902   0.710   1.599 -0.9113  0.3656 -0.4146
 5869SOL    HW323249   4.987   0.681   1.477  0.7485 -0.9218  1.0063
 5869SOL    MW423250   4.912   0.675   1.520  0.3779  0.1432  0.4572
 5870SOL     OW23251   4.029   4.330   3.269  0.3786 -0.0344 -0.5412
 5870SOL    HW223252   4.075   4.376   3.339 -2.7456 -0.6901  2.2004
 5870SOL    HW323253   4.056   4.238   3.279  1.8298  0.1999 -1.9290
 5870SOL    MW423254   4.039   4.324   3.280  0.1670 -0.1156 -0.5878
 5871SOL     OW23255   1.372   4.157   0.802 -0.5979  0.1136 -0.0807
 5871SOL    HW223256   1.300   4.184   0.858  1.1578 -0.5609  2.7173
 5871SOL    HW323257   1.373   4.061   0.808 -0.7278 -0.0218 -1.8032
 5871SOL    MW423258   1.363   4.148   0.810  0.3347  0.4763  0.0982
 5872SOL     OW23259   0.100   0.906   4.354 -0.5935  0.3603 -0.8233
 5872SOL    HW223260   0.078   0.940   4.441 -1.1204  0.2529 -0.9140
 5872SOL    HW323261   0.079   0.979   4.294  1.8245  1.2722 -0.6816
 5872SOL    MW423262   0.094   0.920   4.357  0.2885  0.3857 -0.5097
 5873SOL     OW23263   0.111   5.160   2.690 -0.3483 -0.2735  0.8558
 5873SOL    HW223264   0.152   5.128   2.609  2.1048  1.8703  1.0912
 5873SOL    HW323265   0.039   5.215   2.659 -0.7572 -1.1338  0.2368
 5873SOL    MW423266   0.107   5.163   2.675 -0.2647 -0.3567  0.2868
 5874SOL     OW23267   1.043   0.585   1.053 -0.0871  0.1649 -0.2528
 5874SOL    HW223268   1.058   0.493   1.031  1.9914  0.5227 -0.4729
 5874SOL    HW323269   1.064   0.633   0.973 -0.0422  0.9055  0.1964
 5874SOL    MW423270   1.048   0.579   1.040 -0.0217 -0.1749  0.5104
 5875SOL     OW23271   2.155   0.032   3.332  0.4821 -0.2632 -0.2387
 5875SOL    HW223272   2.226  -0.031   3.330  1.3817  0.7480 -1.3197
 5875SOL    HW323273   2.122   0.029   3.422  1.5063 -1.1476  0.1185
 5875SOL    MW423274   2.160   0.023   3.344  0.0420 -0.3188  0.2150
 5876SOL     OW23275   1.271   3.041   4.911 -0.0712  0.0749  0.2396
 5876SOL    HW223276   1.295   3.016   5.000 -0.3839  0.5902  0.4712
 5876SOL    HW323277   1.247   2.959   4.868 -2.4415  0.0896  1.3843
 5876SOL    MW423278   1.271   3.027   4.917 -0.0828 -0.0712  0.0985
 5877SOL     OW23279   1.815   6.151   4.445  0.2656 -0.0210  0.6478
 5877SOL    HW223280   1.816   6.056   4.442 -2.1799 -0.0684 -0.9258
 5877SOL    HW323281   1.841   6.173   4.535  1.2990 -2.1020  0.9054
 5877SOL    MW423282   1.819   6.142   4.456 -0.0440 -0.2280  0.0935
 5878SOL     OW23283   2.902   3.040   3.169  0.1163  0.1719 -0.4086
 5878SOL    HW223284   2.915   2.962   3.115 -1.1528  1.0572 -2.0993
 5878SOL    HW323285   2.843   3.011   3.238  1.3875 -0.8690  0.2879
 5878SOL    MW423286   2.896   3.026   3.171  0.0864 -0.0967  0.1583
 5879SOL     OW23287   0.117   0.130   0.537  0.0185 -0.3021 -0.1926
 5879SOL    HW223288   0.099   0.212   0.490 -0.2793 -0.5714 -0.5565
 5879SOL    HW323289   0.207   0.107   0.512  0.5952  0.5928  0.9455
 5879SOL    MW423290   0.127   0.138   0.528  0.6423  0.3152 -0.3087
 5880SOL     OW23291   1.163   4.742   5.061  0.0227 -0.1877  0.5419
 5880SOL    HW223292   1.085   4.757   5.114  0.9185  1.9852  1.3533
 5880SOL    HW323293   1.218   4.684   5.114  0.2031  0.6415  1.2733
 5880SOL    MW423294   1.160   4.736   5.075  0.2734 -0.3328 -0.1548
 5881SOL     OW23295   4.114   3.402   5.073 -0.4117  0.6702  0.3638
 5881SOL    HW223296   4.134   3.374   5.163  1.1556  1.0875  0.1861
 5881SOL    HW323297   4.188   3.369   5.021 -1.2455  0.5250 -0.7613
 5881SOL    MW423298   4.127   3.394   5.078  0.3227 -0.2308  0.0965
 5882SOL     OW23299   2.919   5.751   2.491  0.0338 -0.3777 -0.3322
 5882SOL    HW223300   2.867   5.742   2.571 -0.6007 -1.3654 -0.8363
 5882SOL    HW323301   2.876   5.823   2.444  0.1538 -0.0726  0.0186
 5882SOL    MW423302   2.906   5.759   2.496  0.8408 -0.1134 -0.4679
 5883SOL     OW23303   1.688   4.735   3.140  0.0863  0.2086 -0.8999
 5883SOL    HW223304   1.596   4.739   3.163  0.1693 -0.2600 -0.4536
 5883SOL    HW323305   1.691   4.678   3.063  0.1792 -1.3422  0.2076
 5883SOL    MW423306   1.676   4.728   3.133  0.0967  0.0649 -0.7028
 5884SOL     OW23307   6.342   1.988   6.084 -0.1388 -0.6229  0.1309
 5884SOL    HW223308   6.269   2.028   6.037 -0.7105  1.7287  2.7432
 5884SOL    HW323309   6.308   1.973   6.172  2.5448  0.9298  1.5656
 5884SOL    MW423310   6.328   1.991   6.090  0.0155 -0.1025  0.0331
 5885SOL     OW23311   2.038   0.447   3.528  0.4144  0.7310 -0.0678
 5885SOL    HW223312   2.124   0.484   3.513  0.3732  0.9468  0.2168
 5885SOL    HW323313   1.982   0.523   3.547  0.2607  0.5521  0.1973
 5885SOL    MW423314   2.042   0.462   3.528 -0.4255 -0.4317 -0.4451
 5886SOL     OW23315   5.735   0.856   3.823 -0.2109 -0.1090 -0.3111
 5886SOL    HW223316   5.774   0.783   3.775  0.1400  0.4080 -0.8239
 5886SOL    HW323317   5.680   0.814   3.889  2.0257 -0.9253  1.1671
 5886SOL    MW423318   5.733   0.841   3.825 -0.1163  0.1192  0.1859
 5887SOL     OW23319   6.421   5.224   1.476 -0.0708  0.0328  0.1265
 5887SOL    HW223320   6.451   5.259   1.560  0.8961 -0.9944  0.2251
 5887SOL    HW323321   6.379   5.141   1.498  0.5738 -0.4558 -0.4399
 5887SOL    MW423322   6.419   5.218   1.490  0.3145  0.3363  0.2760
 5888SOL     OW23323   4.432   6.273   3.183 -0.5130  0.3435 -0.5285
 5888SOL    HW223324   4.463   6.363   3.173  0.2874 -0.0947 -2.3094
 5888SOL    HW323325   4.489   6.235   3.250 -0.7470  1.0853  0.1170
 5888SOL    MW423326   4.443   6.280   3.191  0.1570  0.2188 -0.0929
 5889SOL     OW23327   5.852   1.272   1.781  0.2798 -0.6240  0.5447
 5889SOL    HW223328   5.902   1.287   1.861 -0.0182  0.5774  0.5355
 5889SOL    HW323329   5.767   1.314   1.798 -0.2204 -1.3994  0.0409
 5889SOL    MW423330   5.847   1.280   1.794  0.2224  0.1139 -0.2281
 5890SOL     OW23331   0.801   5.613   6.193  0.4309  0.5209  0.3065
 5890SOL    HW223332   0.848   5.533   6.167 -0.4143  0.3487 -0.7720
 5890SOL    HW323333   0.847   5.684   6.147  1.8902  0.8355  2.1554
 5890SOL    MW423334   0.813   5.612   6.183  0.4892 -0.1707 -0.4182
 5891SOL     OW23335   3.546   1.272   3.343 -0.4054  0.2943  0.1866
 5891SOL    HW223336   3.526   1.198   3.285  0.5084  1.5098 -1.8002
 5891SOL    HW323337   3.495   1.345   3.308 -0.4704  0.8858  1.4479
 5891SOL    MW423338   3.537   1.272   3.330 -0.6717  0.1533 -0.1631
 5892SOL     OW23339   6.195   4.869   0.283 -0.2059 -0.1091  0.2981
 5892SOL    HW223340   6.138   4.795   0.263  0.2602 -0.0864 -1.2755
 5892SOL    HW323341   6.257   4.872   0.209  0.3780  1.2588  0.8115
 5892SOL    MW423342   6.196   4.860   0.270  0.1749 -0.0664  0.3051
 5893SOL     OW23343   0.487   5.025   1.412  0.1710  0.6511  0.3749
 5893SOL    HW223344   0.536   4.992   1.488 -0.1414 -0.0147  0.2986
 5893SOL    HW323345   0.396   4.999   1.430 -0.1207  1.6848  0.4141
 5893SOL    MW423346   0.481   5.017   1.425 -0.0351  0.1479 -0.2874
 5894SOL     OW23347   0.555   4.422   4.521  0.5806  0.2370 -0.2511
 5894SOL    HW223348   0.559   4.493   4.457  0.5794  0.0683 -0.4400
 5894SOL    HW323349   0.543   4.343   4.469  0.0574  0.1533 -0.0145
 5894SOL    MW423350   0.554   4.421   4.506 -0.2251  0.0903  0.2106
 5895SOL     OW23351   0.737   0.487   5.877  0.1276 -0.8868 -0.0353
 5895SOL    HW223352   0.691   0.562   5.915  0.4848  0.6068 -2.3671
 5895SOL    HW323353   0.668   0.422   5.864 -0.4436 -0.4615  0.7362
 5895SOL    MW423354   0.721   0.488   5.881 -0.1475  0.2486  0.1277
 5896SOL     OW23355   1.402   5.139   3.868 -0.0841  0.1326 -0.2918
 5896SOL    HW223356   1.452   5.063   3.897 -0.5701 -0.7680 -1.6984
 5896SOL    HW323357   1.442   5.214   3.913  2.2488 -0.5975 -1.0244
 5896SOL    MW423358   1.414   5.139   3.878  0.5480  0.1510  0.0875
 5897SOL     OW23359   4.420   5.029   4.174 -0.1159 -0.3733 -0.0175
 5897SOL    HW223360   4.488   5.063   4.233 -1.1057  0.4970  0.6388
 5897SOL    HW323361   4.405   5.099   4.111  0.5640 -1.1043 -1.0243
 5897SOL    MW423362   4.427   5.042   4.174 -0.0857 -0.1994  0.1458
 5898SOL     OW23363   1.419   4.763   3.233  0.0481  0.9514  0.4963
 5898SOL    HW223364   1.360   4.687   3.235  1.1979  0.0208  0.2770
 5898SOL    HW323365   1.363   4.836   3.208 -0.9687  0.0579  0.0812
 5898SOL    MW423366   1.404   4.763   3.230  0.0938 -0.3077  0.0864
 5899SOL     OW23367   4.120   1.471   0.235  0.1505  0.0782  0.4935
 5899SOL    HW223368   4.085   1.543   0.287  1.0370  1.0120 -0.1590
 5899SOL    HW323369   4.078   1.480   0.149 -0.7159 -0.9815  0.7866
 5899SOL    MW423370   4.110   1.482   0.230  0.8242 -0.1051  0.0011
 5900SOL     OW23371   4.106   1.607   2.734 -0.4958  0.2441 -0.3923
 5900SOL    HW223372   4.120   1.672   2.802  1.4590  0.6670 -1.1305
 5900SOL    HW323373   4.106   1.523   2.780  0.2347  0.5589  0.2054
 5900SOL    MW423374   4.108   1.604   2.749  0.6546  0.0304 -0.2724
 5901SOL     OW23375   3.754   3.049   3.299 -0.8370 -0.3023  0.1865
 5901SOL    HW223376   3.769   3.053   3.204  0.2087 -3.1673  0.1379
 5901SOL    HW323377   3.675   2.997   3.308 -0.7179 -0.3673  0.8984
 5901SOL    MW423378   3.746   3.043   3.287  0.3292  0.4397  0.2003
 5902SOL     OW23379   6.262   3.746   1.937  0.1802  0.0881 -0.7169
 5902SOL    HW223380   6.171   3.740   1.967  0.0462 -0.3331 -1.1872
 5902SOL    HW323381   6.308   3.677   1.985  0.6283  1.3791  0.7882
 5902SOL    MW423382   6.256   3.736   1.947  0.0172 -0.4772  0.6201
 5903SOL     OW23383   2.918   1.203   3.936 -0.1532 -0.3170 -0.1481
 5903SOL    HW223384   2.993   1.156   3.971  1.2375  2.8893  1.5672
 5903SOL    HW323385   2.845   1.179   3.993  0.2756 -1.1344  0.0566
 5903SOL    MW423386   2.918   1.194   3.948  0.2408  0.9240 -0.1416
 5904SOL     OW23387   4.462   2.122   4.678  0.3236 -0.3512  0.4542
 5904SOL    HW223388   4.430   2.142   4.765  1.3327 -0.0596  0.7700
 5904SOL    HW323389   4.555   2.102   4.690  0.1212 -2.0035 -0.2978
 5904SOL    MW423390   4.470   2.122   4.691  0.5290 -0.5901  0.0394
 5905SOL     OW23391   2.846   0.748   3.092 -0.2750  0.0657  0.9932
 5905SOL    HW223392   2.867   0.780   3.180  1.6253 -0.2619  0.7005
 5905SOL    HW323393   2.914   0.784   3.036  0.5379 -2.3959  0.2395
 5905SOL    MW423394   2.858   0.757   3.097 -0.0101  0.1557  0.5162
 5906SOL     OW23395   5.064   2.067   2.595 -0.0413 -0.1232  0.3700
 5906SOL    HW223396   5.067   1.989   2.540  0.2746 -0.1692  0.4519
 5906SOL    HW323397   5.153   2.076   2.629  0.4557  1.4535 -1.2405
 5906SOL    MW423398   5.076   2.058   2.593 -0.1744  0.3404 -0.1284
 5907SOL     OW23399   6.275   4.000   2.813  0.3347 -0.3078  0.0249
 5907SOL    HW223400   6.351   3.952   2.781 -0.4434 -0.6442 -1.4104
 5907SOL    HW323401   6.228   3.937   2.867  0.6862 -0.3192  0.3260
 5907SOL    MW423402   6.279   3.986   2.816  0.3409  0.0516  0.3684
 5908SOL     OW23403   6.085   1.787   3.657  0.5264 -0.2261 -0.1845
 5908SOL    HW223404   5.992   1.780   3.635  0.6741 -0.3294 -0.8031
 5908SOL    HW323405   6.086   1.820   3.746 -0.1034  1.4663 -0.7540
 5908SOL    MW423406   6.072   1.790   3.666 -0.7506 -0.5504  0.3172
 5909SOL     OW23407   5.361   1.936   5.257  0.4982 -0.2003 -0.0063
 5909SOL    HW223408   5.287   1.903   5.207  0.2703 -3.5979  2.1973
 5909SOL    HW323409   5.349   2.030   5.259 -0.8254 -0.1085 -4.0273
 5909SOL    MW423410   5.350   1.944   5.251 -0.4185  0.3554  0.1804
 5910SOL     OW23411   0.280   0.067   6.041  0.2249  0.2215  0.3220
 5910SOL    HW223412   0.362   0.019   6.042  0.2347  0.2293 -0.0186
 5910SOL    HW323413   0.259   0.077   5.948  0.6767  1.6367  0.3462
 5910SOL    MW423414   0.288   0.062   6.029  0.1941 -0.1073  0.3076
 5911SOL     OW23415   1.077   0.899   1.059  0.7195 -0.3532  0.0810
 5911SOL    HW223416   1.038   0.968   1.005  0.3865 -0.5889  0.0159
 5911SOL    HW323417   1.062   0.928   1.149  0.4503 -0.4116  0.0555
 5911SOL    MW423418   1.070   0.912   1.064  0.2811  0.8358  0.4479
 5912SOL     OW23419   2.379   4.369   5.960 -0.0376 -0.3711  0.4990
 5912SOL    HW223420   2.382   4.391   6.053  0.6404 -0.2477  0.4560
 5912SOL    HW323421   2.439   4.295   5.951  2.2728  1.4571 -0.2972
 5912SOL    MW423422   2.388   4.362   5.971 -0.6009 -0.0640  0.1229
 5913SOL     OW23423   5.525   3.358   5.203  0.3656 -0.0338 -0.3033
 5913SOL    HW223424   5.490   3.366   5.292  1.0692  0.1524 -0.0360
 5913SOL    HW323425   5.448   3.340   5.149 -0.2298  0.9247  0.1865
 5913SOL    MW423426   5.510   3.357   5.208 -0.6266  0.3272 -0.3843
 5914SOL     OW23427   5.991   3.873   4.004 -0.1846  0.7807 -0.0972
 5914SOL    HW223428   6.026   3.834   4.084 -1.7674  0.8028  0.6365
 5914SOL    HW323429   6.068   3.886   3.948  0.7781 -0.4565  0.8827
 5914SOL    MW423430   6.006   3.870   4.007 -0.0891 -0.6982  0.8166
 5915SOL     OW23431   2.384   3.435   5.603  0.3093  0.5906 -0.0665
 5915SOL    HW223432   2.417   3.522   5.623 -0.5690  0.5851  1.5302
 5915SOL    HW323433   2.303   3.450   5.555 -0.1142  0.6671  0.6664
 5915SOL    MW423434   2.378   3.448   5.599  0.0507  0.0394 -0.1509
 5916SOL     OW23435   4.826   1.498   4.915 -0.2189  0.2472  0.0187
 5916SOL    HW223436   4.779   1.436   4.972  1.3801 -2.6660 -1.5682
 5916SOL    HW323437   4.771   1.505   4.837 -0.9050  1.7349  0.6164
 5916SOL    MW423438   4.813   1.490   4.912 -0.6737 -0.0004 -0.1433
 5917SOL     OW23439   4.075   2.566   5.578  0.0563 -0.3201 -0.7201
 5917SOL    HW223440   4.060   2.651   5.620  0.1672 -1.0249  0.8061
 5917SOL    HW323441   4.161   2.538   5.610  0.6023 -0.4557 -2.2188
 5917SOL    MW423442   4.084   2.574   5.587 -0.7621  0.5265  0.1691
 5918SOL     OW23443   0.399   4.766   5.608 -0.5102  0.0031  0.7060
 5918SOL    HW223444   0.493   4.753   5.594 -1.0405 -1.3027 -2.4171
 5918SOL    HW323445   0.384   4.735   5.697  1.9292 -0.2305  1.1134
 5918SOL    MW423446   0.409   4.760   5.618  0.1372 -0.6025  0.1195
 5919SOL     OW23447   1.381   3.657   2.677 -0.3625 -0.2159  0.9299
 5919SOL    HW223448   1.326   3.590   2.719  1.2962 -1.4260  1.2414
 5919SOL    HW323449   1.367   3.736   2.730 -1.7027 -0.5167  1.0576
 5919SOL    MW423450   1.372   3.659   2.690  0.2400  0.1914  0.2244
 5920SOL     OW23451   3.672   5.859   0.318  0.1134  1.0904 -0.5187
 5920SOL    HW223452   3.591   5.834   0.363 -0.0996  0.3691 -1.2749
 5920SOL    HW323453   3.727   5.896   0.387 -0.7340  1.2823  0.0670
 5920SOL    MW423454   3.669   5.860   0.333  0.0748  0.0653  0.1443
 5921SOL     OW23455   6.115   4.728   6.148 -0.4464  0.4422  0.3653
 5921SOL    HW223456   6.136   4.784   6.074  1.0016 -1.7921 -1.0602
 5921SOL    HW323457   6.035   4.683   6.122  0.1835 -0.5091 -0.0283
 5921SOL    MW423458   6.107   4.729   6.135  0.1655 -0.0943  0.0010
 5922SOL     OW23459   3.126   2.367   2.211 -0.4753 -0.3607 -0.1909
 5922SOL    HW223460   3.067   2.362   2.136 -0.5487 -2.0665 -0.0571
 5922SOL    HW323461   3.210   2.334   2.178 -0.1277  0.1897  0.1273
 5922SOL    MW423462   3.130   2.362   2.197 -0.0195 -0.7764 -0.3635
 5923SOL     OW23463   2.564   5.665   0.734 -0.1241  0.5767  0.6706
 5923SOL    HW223464   2.499   5.626   0.675  0.7284  1.2940 -0.7637
 5923SOL    HW323465   2.539   5.631   0.821 -0.1947 -2.1745 -0.3031
 5923SOL    MW423466   2.552   5.655   0.738 -0.5098 -0.4146 -0.4701
 5924SOL     OW23467   4.431   3.944   4.510  0.1425 -0.1653  0.1827
 5924SOL    HW223468   4.447   3.947   4.604  0.0035 -0.4569  0.2184
 5924SOL    HW323469   4.440   3.851   4.487 -0.5088 -0.2004  0.0345
 5924SOL    MW423470   4.434   3.932   4.519  0.2549 -0.2991 -0.6599
 5925SOL     OW23471   3.421   1.433   2.602 -0.1326  0.2091 -0.1663
 5925SOL    HW223472   3.354   1.374   2.637 -0.2208 -0.0745 -0.7945
 5925SOL    HW323473   3.388   1.521   2.623 -0.7267  0.0749 -0.4847
 5925SOL    MW423474   3.408   1.437   2.609  0.2375 -0.3140 -0.2544
 5926SOL     OW23475   2.854   4.122   0.760 -0.0506  0.3588  0.1836
 5926SOL    HW223476   2.933   4.082   0.797  0.5021 -0.0849 -1.3777
 5926SOL    HW323477   2.861   4.215   0.781 -0.2510  0.0050  1.9678
 5926SOL    MW423478   2.865   4.129   0.768  0.3626  0.3407 -0.1234
 5927SOL     OW23479   3.435   5.287   2.135  0.5347  0.0899 -0.5945
 5927SOL    HW223480   3.468   5.347   2.068  1.6464 -0.8904 -0.9534
 5927SOL    HW323481   3.452   5.200   2.100  0.7717 -0.4462  0.7937
 5927SOL    MW423482   3.442   5.284   2.121  0.1523 -0.0574  0.4595
 5928SOL     OW23483   1.228   1.184   0.820 -0.0590 -0.1873  0.0665
 5928SOL    HW223484   1.135   1.207   0.816  0.4889  2.1586 -2.7540
 5928SOL    HW323485   1.271   1.265   0.847  1.2415 -1.0057  0.5105
 5928SOL    MW423486   1.221   1.198   0.823 -0.2333  0.1995  0.6303
 5929SOL     OW23487   0.473   2.823   6.097  0.1646 -0.2134 -0.5630
 5929SOL    HW223488   0.542   2.870   6.050  1.5734 -1.8446 -0.2052
 5929SOL    HW323489   0.403   2.813   6.033  1.5292 -1.2535 -1.9524
 5929SOL    MW423490   0.473   2.828   6.083  0.0807  0.8036 -0.4135
 5930SOL     OW23491   4.763   3.736   0.743  0.5811  0.4532  0.2988
 5930SOL    HW223492   4.812   3.748   0.825  0.2907 -0.6027  0.6397
 5930SOL    HW323493   4.755   3.641   0.734 -0.5787  0.5972 -0.2542
 5930SOL    MW423494   4.769   3.725   0.753 -0.2629  0.8733  0.8832
 5931SOL     OW23495   6.414   3.397   0.960 -0.4281  0.3428 -0.2954
 5931SOL    HW223496   6.342   3.457   0.979  1.8897  3.4128 -0.3133
 5931SOL    HW323497   6.372   3.316   0.931 -3.8198  2.2532 -1.2134
 5931SOL    MW423498   6.399   3.394   0.959 -0.3889 -0.3900  0.1610
 5932SOL     OW23499   4.104   0.349   0.866  0.6687 -0.0570  0.1992
 5932SOL    HW223500   4.098   0.331   0.960  0.8664  1.2915  0.4865
 5932SOL    HW323501   4.187   0.308   0.839  0.4145 -0.7976  0.5148
 5932SOL    MW423502   4.114   0.341   0.874 -0.2104 -0.4975 -0.0938
 5933SOL     OW23503   4.786   5.824   2.276  0.5048  0.3202 -0.0418
 5933SOL    HW223504   4.773   5.917   2.292 -1.3833  0.3336 -1.3831
 5933SOL    HW323505   4.835   5.820   2.194  1.7405  0.1189  0.6808
 5933SOL    MW423506   4.791   5.836   2.267 -0.7908  0.0710 -0.1344
 5934SOL     OW23507   0.544   0.933   3.479  0.0858 -0.1582 -0.1720
 5934SOL    HW223508   0.602   1.009   3.472  0.3811 -0.4362 -0.8831
 5934SOL    HW323509   0.534   0.918   3.573  0.3663  0.4994 -0.0337
 5934SOL    MW423510   0.550   0.941   3.490  0.1127 -0.1480 -0.2244
 5935SOL     OW23511   4.356   2.002   0.972  0.0073  0.1326 -0.6541
 5935SOL    HW223512   4.419   2.014   0.901 -1.0121  1.6049 -1.3628
 5935SOL    HW323513   4.321   2.089   0.988 -1.5875 -0.5770 -0.0326
 5935SOL    MW423514   4.360   2.015   0.964  0.0579 -0.2415 -0.8965
 5936SOL     OW23515   5.164   4.551   1.637 -0.3761 -0.6696 -0.1495
 5936SOL    HW223516   5.130   4.637   1.611 -0.2210 -0.0729  1.5208
 5936SOL    HW323517   5.251   4.569   1.672 -0.3173 -1.5290  0.1648
 5936SOL    MW423518   5.171   4.565   1.638  0.0774  0.6087  0.4257
 5937SOL     OW23519   4.009   5.245   2.441  0.1561 -0.6814  0.6169
 5937SOL    HW223520   4.005   5.150   2.428  0.2372 -0.6507  0.3604
 5937SOL    HW323521   3.934   5.279   2.392  1.0872 -0.4707 -0.6970
 5937SOL    MW423522   3.999   5.237   2.433  1.0619 -0.3017  0.3226
 5938SOL     OW23523   4.701   0.726   3.036  0.1992  0.1684  0.6918
 5938SOL    HW223524   4.712   0.655   2.972 -0.7711  0.8059 -0.2102
 5938SOL    HW323525   4.607   0.732   3.049  0.2639  1.3222  0.7059
 5938SOL    MW423526   4.690   0.717   3.029  0.0476 -0.0339  0.4245
 5939SOL     OW23527   5.218   1.725   3.593 -0.2434 -0.0339  0.0683
 5939SOL    HW223528   5.271   1.726   3.513 -1.2091  0.1530 -0.5764
 5939SOL    HW323529   5.161   1.650   3.584  1.2499 -1.4729  1.6909
 5939SOL    MW423530   5.218   1.716   3.581  0.6086 -0.2387 -0.4307
 5940SOL     OW23531   3.815   4.208   2.359 -0.0637  0.4152 -0.1709
 5940SOL    HW223532   3.754   4.228   2.430  0.9631  1.0921  0.5448
 5940SOL    HW323533   3.857   4.126   2.385 -1.8034 -0.9669 -1.4617
 5940SOL    MW423534   3.812   4.200   2.372  0.7163  0.3197  0.8123
 5941SOL     OW23535   0.845   5.062   3.270 -0.0282 -0.0022 -0.5637
 5941SOL    HW223536   0.888   5.145   3.249 -0.2543 -0.1220 -1.5539
 5941SOL    HW323537   0.780   5.051   3.201  0.2422 -1.1831 -0.6482
 5941SOL    MW423538   0.842   5.072   3.258 -0.2352  0.7142  0.2981
 5942SOL     OW23539   0.157   2.227   5.480 -0.0127  0.2742  0.2095
 5942SOL    HW223540   0.149   2.148   5.427  1.0629 -0.7872  1.5602
 5942SOL    HW323541   0.169   2.297   5.416 -0.5231 -0.6921 -1.0024
 5942SOL    MW423542   0.157   2.226   5.464  0.0905 -0.1751  0.6243
 5943SOL     OW23543   5.529   0.753   0.728  0.5695 -0.1786  0.3886
 5943SOL    HW223544   5.486   0.717   0.805  2.2212 -1.8198  0.5943
 5943SOL    HW323545   5.516   0.848   0.736 -2.6492 -0.5078  0.5916
 5943SOL    MW423546   5.522   0.761   0.739  0.4676  0.7574  0.1714
 5944SOL     OW23547   4.759   1.425   0.897  0.4192  0.0238  0.1584
 5944SOL    HW223548   4.792   1.365   0.830 -1.3781 -0.1093 -0.6729
 5944SOL    HW323549   4.669   1.444   0.869 -0.7028 -0.7195  3.0005
 5944SOL    MW423550   4.752   1.419   0.884 -0.1852  0.2867 -0.2893
 5945SOL     OW23551   0.467   3.695   3.199  0.0556  0.0544  0.0711
 5945SOL    HW223552   0.511   3.611   3.211 -0.2846  0.1061  1.8356
 5945SOL    HW323553   0.537   3.760   3.207  0.0900  0.0159  0.0813
 5945SOL    MW423554   0.482   3.693   3.201  0.5007  0.3756 -0.3291
 5946SOL     OW23555   0.761   0.096   4.472  0.1657  0.6427 -0.1564
 5946SOL    HW223556   0.846   0.066   4.438 -0.3649 -0.4834 -0.5230
 5946SOL    HW323557   0.781   0.129   4.559  0.9449  0.1500 -0.1382
 5946SOL    MW423558   0.775   0.096   4.479 -0.0361  0.2770  0.3621
 5947SOL     OW23559   5.248   4.578   5.955 -0.3802  0.2309  0.4554
 5947SOL    HW223560   5.160   4.541   5.969 -1.9395  3.0211 -0.9492
 5947SOL    HW323561   5.251   4.654   6.013  0.2483  1.3647 -1.0046
 5947SOL    MW423562   5.236   4.583   5.964  0.2179 -0.3205 -0.5672
 5948SOL     OW23563   1.446   0.159   5.108  0.7067 -0.3563  0.4381
 5948SOL    HW223564   1.421   0.246   5.139  0.0003 -0.7443  0.9940
 5948SOL    HW323565   1.532   0.171   5.069  0.4330  0.6751  0.1271
 5948SOL    MW423566   1.454   0.172   5.107 -0.9191 -0.4034 -0.5570
 5949SOL     OW23567   1.443   1.007   0.612  0.6936 -0.3116 -0.1107
 5949SOL    HW223568   1.478   0.931   0.658  0.9333 -0.0558  0.1296
 5949SOL    HW323569   1.453   1.080   0.673  2.4608  0.3533 -1.1232
 5949SOL    MW423570   1.449   1.007   0.626  0.2353 -0.0339 -0.5524
 5950SOL     OW23571   2.110   5.950   4.571 -0.3122  0.3230  0.1525
 5950SOL    HW223572   2.132   6.040   4.593 -0.6919  0.4898 -0.1326
 5950SOL    HW323573   2.170   5.897   4.623  0.0676  0.7436  0.1527
 5950SOL    MW423574   2.121   5.955   4.581 -0.4684 -0.0389  0.4628
 5951SOL     OW23575   2.639   0.901   4.004  0.2944 -0.6828 -0.5307
 5951SOL    HW223576   2.664   0.838   3.936  0.3703 -1.7069  0.4080
 5951SOL    HW323577   2.632   0.848   4.083  3.2353  0.9413  0.9743
 5951SOL    MW423578   2.641   0.886   4.005  0.8817 -0.1572  0.6162
 5952SOL     OW23579   1.043   1.506   3.740  0.0684 -0.4243  0.5969
 5952SOL    HW223580   1.121   1.460   3.773 -1.5043 -2.8518  1.1751
 5952SOL    HW323581   0.979   1.437   3.724 -2.1730  1.5106  0.6120
 5952SOL    MW423582   1.045   1.491   3.742  0.4259 -0.0344 -0.2152
 5953SOL     OW23583   5.424   3.882   4.645 -0.5418 -0.1633  0.1726
 5953SOL    HW223584   5.368   3.938   4.592 -0.3414  0.0848  0.2228
 5953SOL    HW323585   5.513   3.908   4.622 -0.4310 -0.9140 -0.2991
 5953SOL    MW423586   5.428   3.893   4.635  0.4373 -0.3284 -0.1439
 5954SOL     OW23587   4.900   1.355   4.239 -0.2555 -0.2731 -0.5340
 5954SOL    HW223588   4.833   1.410   4.280 -0.7212 -0.7557 -0.6423
 5954SOL    HW323589   4.922   1.290   4.306 -0.5330 -0.6532 -0.8098
 5954SOL    MW423590   4.894   1.354   4.253  0.1632  0.5632 -0.1726
 5955SOL     OW23591   0.887   4.830   4.501 -0.3951  0.5419  0.4127
 5955SOL    HW223592   0.964   4.887   4.489 -0.1889  0.2019  0.0951
 5955SOL    HW323593   0.814   4.883   4.469  0.1831 -0.4749 -2.9780
 5955SOL    MW423594   0.888   4.845   4.495 -0.9158 -0.1177  0.4944
 5956SOL     OW23595   5.161   6.266   4.674  0.1732  0.3570  0.6983
 5956SOL    HW223596   5.243   6.313   4.656  1.6052 -2.0985  0.4365
 5956SOL    HW323597   5.164   6.248   4.768  0.1106 -0.0370  0.6260
 5956SOL    MW423598   5.172   6.270   4.684 -0.2724 -0.4119  0.2728
 5957SOL     OW23599   1.803   0.332   2.556 -0.1666  0.1032  0.0164
 5957SOL    HW223600   1.820   0.347   2.463  1.3303  1.5398  0.4747
 5957SOL    HW323601   1.838   0.409   2.600 -1.1568 -0.3786  1.7643
 5957SOL    MW423602   1.810   0.344   2.550 -0.2683  0.3949 -0.4717
 5958SOL     OW23603   1.820   2.890   1.450 -0.1028 -0.3740 -1.0447
 5958SOL    HW223604   1.906   2.932   1.447  0.9222 -2.2139  0.0531
 5958SOL    HW323605   1.823   2.826   1.378 -0.8770  0.0610 -1.4786
 5958SOL    MW423606   1.832   2.887   1.440  0.0448  0.2727 -0.3255
 5959SOL     OW23607   6.181   1.957   1.785  0.1059  0.4248  0.0050
 5959SOL    HW223608   6.156   2.048   1.769  0.1673  0.8652  2.1182
 5959SOL    HW323609   6.271   1.951   1.753  0.0359  1.0373 -0.3361
 5959SOL    MW423610   6.189   1.968   1.779  0.0312 -0.4105 -0.1239
 5960SOL     OW23611   5.663   0.883   5.659  0.7521 -0.3161 -0.1796
 5960SOL    HW223612   5.659   0.970   5.698 -2.0629 -0.3500 -0.1655
 5960SOL    HW323613   5.635   0.824   5.729  1.3983 -1.1047 -0.5642
 5960SOL    MW423614   5.659   0.886   5.673 -0.1812 -0.8445  0.3049
 5961SOL     OW23615   1.560   4.053   1.173  0.1549  0.3281  0.4618
 5961SOL    HW223616   1.475   4.093   1.157  0.2012  1.3122  2.4465
 5961SOL    HW323617   1.541   3.974   1.223  0.3294 -0.3437 -0.4869
 5961SOL    MW423618   1.546   4.048   1.177 -0.3818 -0.1857  0.3642
 5962SOL     OW23619   5.327   3.614   5.451 -0.4307  0.0596 -0.5517
 5962SOL    HW223620   5.381   3.655   5.518 -1.4029  0.4930 -0.0029
 5962SOL    HW323621   5.354   3.522   5.451 -0.1102  0.1487  0.1240
 5962SOL    MW423622   5.338   3.607   5.460 -0.2416  0.1567  0.3938
 5963SOL     OW23623   6.208   3.343   1.211  0.1820  0.0354 -0.2853
 5963SOL    HW223624   6.229   3.432   1.182  0.6699 -0.2315 -0.7582
 5963SOL    HW323625   6.209   3.290   1.131 -1.1694 -0.2080 -0.1637
 5963SOL    MW423626   6.211   3.348   1.197  0.1426 -0.3855  0.5205
 5964SOL     OW23627   2.128   5.131   0.165  0.0840  0.2901  0.4189
 5964SOL    HW223628   2.207   5.100   0.209 -0.9205 -1.1325  1.2951
 5964SOL    HW323629   2.151   5.133   0.072  0.0319 -4.0815  0.1090
 5964SOL    MW423630   2.142   5.127   0.158 -0.8093  0.2531 -0.3451
 5965SOL     OW23631   1.357   5.765   3.733  0.3224  0.3236 -0.5379
 5965SOL    HW223632   1.410   5.707   3.678 -1.2638 -2.1975  0.3905
 5965SOL    HW323633   1.289   5.798   3.673  1.3839  1.4981 -1.1331
 5965SOL    MW423634   1.355   5.761   3.718  0.4541  0.6366  0.2319
 5966SOL     OW23635   2.310   2.384   1.643  0.4290  0.0970  0.7402
 5966SOL    HW223636   2.285   2.343   1.560 -0.9617  1.1115  0.6427
 5966SOL    HW323637   2.406   2.376   1.645  0.3955 -0.9046 -0.4365
 5966SOL    MW423638   2.320   2.377   1.632 -0.1121 -0.1607 -0.3378
 5967SOL     OW23639   2.109   1.676   3.825 -0.4777 -0.0232 -0.6174
 5967SOL    HW223640   2.126   1.588   3.861 -1.6914 -0.3655 -0.8423
 5967SOL    HW323641   2.173   1.685   3.754 -0.1491 -0.6082 -0.4076
 5967SOL    MW423642   2.120   1.665   3.820  0.1511 -0.3862  0.7696
 5968SOL     OW23643   2.698   5.570   1.100 -0.4619 -0.5353  0.3131
 5968SOL    HW223644   2.712   5.544   1.191  1.2728 -0.2862  0.1550
 5968SOL    HW323645   2.773   5.534   1.052 -1.3317 -0.6580 -1.0293
 5968SOL    MW423646   2.710   5.562   1.105  0.4459 -0.3068 -0.3107
 5969SOL     OW23647   1.254   0.314   3.115 -0.0636  0.1582  0.2102
 5969SOL    HW223648   1.326   0.358   3.161  0.1711 -0.2974  0.2852
 5969SOL    HW323649   1.276   0.323   3.023  0.6317 -0.8622  0.2571
 5969SOL    MW423650   1.266   0.321   3.109 -0.2134 -0.0740 -0.5411
 5970SOL     OW23651   0.967   5.526   2.638 -0.4815 -0.4373 -0.3209
 5970SOL    HW223652   0.981   5.578   2.559 -0.4647  0.7429  0.4484
 5970SOL    HW323653   0.995   5.437   2.613 -1.4896 -0.3314 -1.9525
 5970SOL    MW423654   0.973   5.521   2.624  0.1196 -0.3064  0.4077
 5971SOL     OW23655   2.350   1.801   3.386  0.7676 -0.2646 -0.2678
 5971SOL    HW223656   2.436   1.808   3.345  0.2206  2.1888 -1.1536
 5971SOL    HW323657   2.349   1.872   3.451  0.9049 -2.8648  2.8181
 5971SOL    MW423658   2.362   1.812   3.389 -0.8486 -0.3573  0.3244
 5972SOL     OW23659   0.672   1.158   3.199 -0.4521 -0.1283  0.1054
 5972SOL    HW223660   0.610   1.109   3.145 -0.4711 -1.2976  1.1443
 5972SOL    HW323661   0.641   1.248   3.195 -2.3585 -0.7121  0.7446
 5972SOL    MW423662   0.660   1.163   3.191  0.0327  0.6185 -1.0423
 5973SOL     OW23663   2.007   1.216   5.220 -0.4371 -0.1613 -0.1866
 5973SOL    HW223664   1.933   1.156   5.214 -0.4410 -0.2497  0.7246
 5973SOL    HW323665   2.021   1.229   5.314  0.2275  0.4409 -0.3587
 5973SOL    MW423666   1.999   1.210   5.231 -0.3130 -0.0393  0.5590
 5974SOL     OW23667   4.555   2.536   1.472  0.0882 -0.7316 -0.1695
 5974SOL    HW223668   4.627   2.534   1.535 -2.2357 -0.6310  2.6685
 5974SOL    HW323669   4.534   2.444   1.455  0.0160 -0.7540  0.0454
 5974SOL    MW423670   4.562   2.524   1.478 -0.0092  0.2246 -0.0478
 5975SOL     OW23671   2.327   1.491   0.768 -0.2113 -0.3330 -0.0719
 5975SOL    HW223672   2.392   1.520   0.704 -1.1473  0.1931 -0.7957
 5975SOL    HW323673   2.258   1.557   0.765 -1.6227 -1.7668 -0.5845
 5975SOL    MW423674   2.327   1.503   0.759  0.4620 -0.3447 -0.0617
 5976SOL     OW23675   1.350   0.653   5.602  0.4601 -0.5515 -0.1487
 5976SOL    HW223676   1.348   0.606   5.686  0.3286 -0.7251 -0.2494
 5976SOL    HW323677   1.395   0.593   5.543 -0.4407 -0.8945 -0.4924
 5976SOL    MW423678   1.356   0.639   5.605  0.8481  0.1701 -0.2518
 5977SOL     OW23679   6.318   4.536   5.656 -0.1514 -0.2153 -0.3136
 5977SOL    HW223680   6.342   4.614   5.606  0.7365  0.2770  0.8396
 5977SOL    HW323681   6.343   4.463   5.599  0.7858  0.3313 -0.6248
 5977SOL    MW423682   6.324   4.536   5.642  0.2500  0.2737  0.3295
 5978SOL     OW23683   3.736   2.588   0.435  0.0391  0.5025  0.2565
 5978SOL    HW223684   3.752   2.519   0.499  0.9934  0.7075  0.2463
 5978SOL    HW323685   3.678   2.547   0.371 -2.6389  0.8773  2.2471
 5978SOL    MW423686   3.730   2.573   0.435 -0.2807  0.3261  0.1324
 5979SOL     OW23687   0.585   2.551   0.035  0.2015  0.1913 -0.4867
 5979SOL    HW223688   0.586   2.551  -0.060  1.4209 -1.3099 -0.5208
 5979SOL    HW323689   0.642   2.624   0.060  0.2178  0.3277 -0.9213
 5979SOL    MW423690   0.593   2.560   0.026  0.4393 -0.4957 -0.1348
 5980SOL     OW23691   0.526   5.250   3.456  0.2107 -1.0750 -0.4531
 5980SOL    HW223692   0.508   5.170   3.407  0.1159 -0.5800 -1.2402
 5980SOL    HW323693   0.527   5.222   3.548  0.4688 -2.0260 -0.7367
 5980SOL    MW423694   0.524   5.236   3.462  0.0883 -0.1020  0.4470
 5981SOL     OW23695   5.530   4.569   0.589 -0.1324  0.0006  0.1147
 5981SOL    HW223696   5.435   4.574   0.577  0.0122  0.6891 -0.8177
 5981SOL    HW323697   5.542   4.574   0.684 -0.9705  0.9037  0.1900
 5981SOL    MW423698   5.519   4.570   0.600 -0.2360 -0.1136  0.3470
 5982SOL     OW23699   4.988   4.801   1.611  0.3010 -0.3542 -0.4935
 5982SOL    HW223700   5.021   4.891   1.614  1.6827 -0.8465  0.2661
 5982SOL    HW323701   4.935   4.792   1.690  0.3966 -0.2836 -0.4207
 5982SOL    MW423702   4.986   4.812   1.622  0.0397 -0.5086 -0.9307
 5983SOL     OW23703   6.134   3.116   0.713 -0.2721 -0.1823 -0.1087
 5983SOL    HW223704   6.041   3.129   0.698 -0.1867  0.5458 -0.0462
 5983SOL    HW323705   6.167   3.080   0.630 -0.6215 -0.5548 -0.0891
 5983SOL    MW423706   6.126   3.113   0.700 -0.5651  0.3606 -0.8558
 5984SOL     OW23707   5.237   4.231   3.987 -0.2103 -0.0295 -0.0214
 5984SOL    HW223708   5.297   4.305   3.981  0.5447 -0.7579 -1.9093
 5984SOL    HW323709   5.291   4.157   4.013 -0.1740 -0.7638 -2.0526
 5984SOL    MW423710   5.252   4.231   3.990 -0.3312 -0.1850 -0.1282
 5985SOL     OW23711   6.163   1.382   4.018 -0.1845 -0.1188  0.4335
 5985SOL    HW223712   6.202   1.466   3.993  1.2354 -0.2662  1.9719
 5985SOL    HW323713   6.103   1.404   4.089 -1.1158 -0.2113 -0.3086
 5985SOL    MW423714   6.160   1.396   4.024  0.0953 -0.2888  0.0667
 5986SOL     OW23715   1.339   5.196   0.607  0.1244  0.6263  0.3930
 5986SOL    HW223716   1.320   5.123   0.667  2.0019 -0.2866 -0.0474
 5986SOL    HW323717   1.416   5.239   0.645  0.8815  0.4954 -0.9144
 5986SOL    MW423718   1.347   5.192   0.620  0.1380 -0.2610 -0.1625
 5987SOL     OW23719   2.207   0.484   3.950 -0.5030  0.1940  0.6098
 5987SOL    HW223720   2.181   0.442   3.867 -0.0465 -1.7063  1.3675
 5987SOL    HW323721   2.124   0.516   3.986 -1.2388 -1.8323  0.8885
 5987SOL    MW423722   2.192   0.483   3.944  0.7998 -0.0602  0.1611
 5988SOL     OW23723   4.844   4.297   4.390  0.3186  0.2482  0.3638
 5988SOL    HW223724   4.788   4.227   4.424 -0.6180 -0.3443 -2.1726
 5988SOL    HW323725   4.914   4.251   4.344 -0.7191  0.8931 -1.9852
 5988SOL    MW423726   4.846   4.282   4.389  0.3549 -0.7975  0.1599
 5989SOL     OW23727   5.431   6.213   3.166 -0.3856  0.1594 -0.3244
 5989SOL    HW223728   5.338   6.189   3.169 -0.8191  1.7795  1.1624
 5989SOL    HW323729   5.474   6.151   3.224 -0.3896 -1.0073 -1.5179
 5989SOL    MW423730   5.424   6.202   3.174 -0.2768  0.3809  0.0067
 5990SOL     OW23731   3.320   1.680   2.682  0.7068 -0.0391  0.3453
 5990SOL    HW223732   3.316   1.691   2.587  0.8344  0.6219  0.4096
 5990SOL    HW323733   3.394   1.733   2.710  1.4347 -1.2041  0.6940
 5990SOL    MW423734   3.329   1.688   2.673 -0.2977 -0.3948  0.3603
 5991SOL     OW23735   4.970   2.594   0.998 -0.4532 -0.3708 -0.0646
 5991SOL    HW223736   5.011   2.536   0.933  0.1210 -1.2479  1.0331
 5991SOL    HW323737   5.043   2.645   1.033 -0.9236  0.9020 -0.8575
 5991SOL    MW423738   4.985   2.593   0.994 -0.1902 -0.0313  0.1074
 5992SOL     OW23739   3.034   2.946   2.805 -0.5929  0.1941 -0.4788
 5992SOL    HW223740   3.111   2.933   2.860 -1.2744  1.2045  0.7688
 5992SOL    HW323741   3.063   3.004   2.735 -0.1011  0.1552 -0.3063
 5992SOL    MW423742   3.048   2.952   2.803 -0.3767  0.1496  0.2060
 5993SOL     OW23743   1.132   5.907   3.598 -0.5644 -0.1939 -0.2313
 5993SOL    HW223744   1.083   5.933   3.675  1.5408  1.0454  0.7785
 5993SOL    HW323745   1.180   5.986   3.572  1.7757 -1.5587 -0.3986
 5993SOL    MW423746   1.132   5.921   3.605  0.0166 -0.2094 -0.0022
 5994SOL     OW23747   6.407   2.739   0.657  0.2144  0.0852  0.6079
 5994SOL    HW223748   6.388   2.685   0.580 -1.3091  1.5225 -0.1008
 5994SOL    HW323749   6.477   2.797   0.629 -0.6903  0.9566  0.0934
 5994SOL    MW423750   6.413   2.740   0.643 -0.3160  0.0937 -0.3146
 5995SOL     OW23751   5.039   2.684   1.527 -0.4686  0.3465 -0.1732
 5995SOL    HW223752   4.960   2.703   1.476  0.5078  0.6423 -1.6374
 5995SOL    HW323753   5.054   2.590   1.514  0.1172  0.5415 -0.9427
 5995SOL    MW423754   5.030   2.674   1.519 -0.2064 -0.1739  0.3380
 5996SOL     OW23755   3.173   5.354   2.068 -0.0291 -0.0344  0.4952
 5996SOL    HW223756   3.177   5.450   2.074 -0.4568  0.2461 -2.2438
 5996SOL    HW323757   3.262   5.325   2.091  0.5497  1.1586 -0.1520
 5996SOL    MW423758   3.185   5.363   2.072 -0.3473 -0.1365  0.1665
 5997SOL     OW23759   6.356   4.942   0.068 -0.1474  0.3046  0.0432
 5997SOL    HW223760   6.277   4.963   0.019  0.4060 -1.5540 -1.7807
 5997SOL    HW323761   6.404   4.882   0.012  1.8655  0.2092  1.7416
 5997SOL    MW423762   6.352   4.937   0.054  0.0776 -0.1468  0.0158
 5998SOL     OW23763   1.829   3.170   4.588 -0.5021  0.1728 -0.2493
 5998SOL    HW223764   1.774   3.095   4.609  2.5465 -2.1097  0.2106
 5998SOL    HW323765   1.802   3.196   4.500  0.8252 -4.0450 -2.1491
 5998SOL    MW423766   1.818   3.164   4.579 -0.6770  0.0716 -0.3508
 5999SOL     OW23767   0.532   6.337   6.032  0.2435  0.0832  0.1263
 5999SOL    HW223768   0.580   6.380   6.103  0.0034  0.1752  0.2331
 5999SOL    HW323769   0.483   6.268   6.075 -1.1466  1.1344  0.2919
 5999SOL    MW423770   0.532   6.334   6.047  0.0691 -0.3199  0.3607
 6000SOL     OW23771   0.580   0.652   3.875  0.6098  0.0215 -0.5630
 6000SOL    HW223772   0.491   0.665   3.910  0.4947 -2.0339  0.0542
 6000SOL    HW323773   0.567   0.646   3.781  0.1190  0.0035 -0.5004
 6000SOL    MW423774   0.566   0.653   3.867  0.4371  0.0334  0.7558
 6001SOL     OW23775   0.769   3.927   1.201  0.4470 -0.3675  0.2818
 6001SOL    HW223776   0.834   3.923   1.271  1.5724 -2.9881 -0.7967
 6001SOL    HW323777   0.818   3.953   1.124 -0.6534  1.8061  0.2304
 6001SOL    MW423778   0.784   3.930   1.200  0.1432 -0.0765  0.1749
 6002SOL     OW23779   3.564   2.489   0.195 -0.6471 -1.3025  0.4394
 6002SOL    HW223780   3.577   2.415   0.254 -0.1533 -1.8082 -0.2897
 6002SOL    HW323781   3.620   2.471   0.120  1.0910  0.8411  1.1280
 6002SOL    MW423782   3.573   2.477   0.193 -0.0999  0.1174  0.1663
 6003SOL     OW23783   6.412   4.688   4.728 -0.3004 -0.5386 -0.5174
 6003SOL    HW223784   6.490   4.713   4.777 -0.3233 -0.2682 -0.6185
 6003SOL    HW323785   6.447   4.651   4.646 -0.2815 -0.1142 -0.7064
 6003SOL    MW423786   6.427   4.686   4.723  0.1675  0.4029  0.0780
 6004SOL     OW23787   1.839   4.050   2.856 -0.1276  0.2219 -0.8182
 6004SOL    HW223788   1.876   4.100   2.929  1.0773 -1.5053 -0.1652
 6004SOL    HW323789   1.907   3.985   2.835 -1.1346 -0.3639 -2.3891
 6004SOL    MW423790   1.853   4.048   2.863 -0.0906 -0.0427 -0.0424
 6005SOL     OW23791   0.070   4.381   0.581  0.1623  0.2191 -0.1842
 6005SOL    HW223792   0.017   4.363   0.659 -0.4086 -1.1970 -0.8675
 6005SOL    HW323793   0.155   4.340   0.599  0.8353  1.8393  0.5931
 6005SOL    MW423794   0.074   4.373   0.593 -0.2377 -0.8023  0.2192
 6006SOL     OW23795   6.129   3.573   5.479 -0.4288 -0.2589  0.6607
 6006SOL    HW223796   6.038   3.598   5.493  0.3880  2.4564  1.8935
 6006SOL    HW323797   6.147   3.597   5.388 -0.8862 -0.6730  0.4563
 6006SOL    MW423798   6.119   3.580   5.469 -0.1415  0.4599 -0.4091
 6007SOL     OW23799   1.803   5.151   1.156  0.1704  0.3716  0.1192
 6007SOL    HW223800   1.785   5.065   1.120 -0.5512  1.1535 -1.5035
 6007SOL    HW323801   1.876   5.185   1.104  1.8118  0.0059  2.0560
 6007SOL    MW423802   1.810   5.144   1.144  0.4744  0.0298  0.0642
 6008SOL     OW23803   2.912   6.254   0.587 -0.3147  0.7850  0.1020
 6008SOL    HW223804   2.992   6.302   0.565  1.0908 -0.5062  2.0685
 6008SOL    HW323805   2.937   6.161   0.577 -1.7663  0.3751  0.1385
 6008SOL    MW423806   2.926   6.248   0.582 -0.1968 -1.1658  0.1307
 6009SOL     OW23807   1.342   3.410   3.720 -0.8221 -0.2104 -0.2134
 6009SOL    HW223808   1.426   3.380   3.755 -1.3810 -1.5980 -0.0152
 6009SOL    HW323809   1.363   3.489   3.670  0.6848 -0.9236 -0.7263
 6009SOL    MW423810   1.356   3.417   3.718 -0.1037 -0.2709  0.0883
 6010SOL     OW23811   4.585   0.410   4.835  0.2252 -0.5519  0.0299
 6010SOL    HW223812   4.535   0.471   4.781  0.5905 -0.6848 -0.4676
 6010SOL    HW323813   4.674   0.446   4.837 -0.0894  0.2419  1.7523
 6010SOL    MW423814   4.590   0.423   4.828 -0.1798 -0.0479  0.0088
 6011SOL     OW23815   4.814   2.907   6.141  0.5871  0.3031 -0.2859
 6011SOL    HW223816   4.809   2.906   6.237  0.2056  2.2344 -0.2372
 6011SOL    HW323817   4.903   2.878   6.121  0.7288  0.0424  0.6461
 6011SOL    MW423818   4.825   2.903   6.151 -0.3612 -0.3109  0.4143
 6012SOL     OW23819   2.212   5.731   1.839 -0.1809 -0.1387  0.2614
 6012SOL    HW223820   2.281   5.715   1.903  0.1032 -0.2961 -0.0813
 6012SOL    HW323821   2.258   5.748   1.757 -0.5452 -2.1917 -0.4290
 6012SOL    MW423822   2.227   5.731   1.837 -0.0599 -0.1633  0.2783
 6013SOL     OW23823   0.280   5.850   1.267  0.0901  0.3043  0.4676
 6013SOL    HW223824   0.341   5.789   1.224 -0.2223  0.7130 -0.5693
 6013SOL    HW323825   0.252   5.909   1.198  0.0882  1.4061  1.3832
 6013SOL    MW423826   0.284   5.850   1.252  0.5878  0.1215 -0.1235
 6014SOL     OW23827   4.367   1.063   2.197 -0.0345 -0.6386 -0.6923
 6014SOL    HW223828   4.301   1.132   2.195 -2.0466 -2.4652 -1.8242
 6014SOL    HW323829   4.403   1.067   2.285 -3.1780 -0.8175  0.7445
 6014SOL    MW423830   4.363   1.073   2.208  0.4056 -0.1923 -0.6674
 6015SOL     OW23831   2.319   2.689   1.655 -0.1005 -0.3304 -0.3414
 6015SOL    HW223832   2.339   2.624   1.722 -1.2802  0.1234  0.4845
 6015SOL    HW323833   2.398   2.741   1.648 -0.5528  0.8990  2.2240
 6015SOL    MW423834   2.332   2.687   1.663 -0.4784  0.5885 -0.5991
 6016SOL     OW23835   3.822   3.965   1.542 -0.3944  0.4872 -0.0083
 6016SOL    HW223836   3.878   3.937   1.470  1.3511  0.9364  1.1190
 6016SOL    HW323837   3.871   3.942   1.621 -0.5791  3.2480  1.0198
 6016SOL    MW423838   3.836   3.958   1.543 -0.5449  0.0436 -0.1410
 6017SOL     OW23839   3.610   1.516   4.950 -0.6159  0.4098  0.3267
 6017SOL    HW223840   3.555   1.465   5.009 -0.8402 -1.3940 -1.3487
 6017SOL    HW323841   3.555   1.589   4.922 -1.5931 -0.4541 -0.0394
 6017SOL    MW423842   3.596   1.519   4.954  0.5983  0.3168 -0.2179
 6018SOL     OW23843   1.591   3.243   5.856 -0.0785  0.7892  0.1143
 6018SOL    HW223844   1.590   3.234   5.761 -0.4490 -1.7778  0.2798
 6018SOL    HW323845   1.611   3.335   5.872 -0.3223  1.3449 -2.4336
 6018SOL    MW423846   1.593   3.254   5.846 -0.2807  0.2976  0.2642
 6019SOL     OW23847   2.050   3.034   1.575 -0.0813 -0.2796 -0.2269
 6019SOL    HW223848   1.959   3.056   1.594  0.3895  0.4057  1.3960
 6019SOL    HW323849   2.101   3.107   1.610  1.1760 -1.2902  0.1528
 6019SOL    MW423850   2.045   3.047   1.582 -0.1366  0.1731  0.6595
 6020SOL     OW23851   2.012   2.038   2.616 -0.1755  0.7011  0.0733
 6020SOL    HW223852   2.039   1.951   2.645 -0.2406  0.4110 -0.7141
 6020SOL    HW323853   1.927   2.052   2.657  0.1601  0.7030  0.7862
 6020SOL    MW423854   2.005   2.028   2.625  0.8129 -0.2620  0.0866
 6021SOL     OW23855   2.647   3.771   2.988 -0.1818  0.4471 -0.0069
 6021SOL    HW223856   2.640   3.682   2.953 -2.6190  1.0432 -1.2334
 6021SOL    HW323857   2.715   3.812   2.934  2.3316 -1.0795  1.7574
 6021SOL    MW423858   2.655   3.765   2.976 -0.6143  0.6665 -0.2757
 6022SOL     OW23859   6.300   4.573   3.248 -0.0084  0.4317 -0.1173
 6022SOL    HW223860   6.302   4.634   3.175 -0.9476  1.7707  0.9195
 6022SOL    HW323861   6.208   4.550   3.257  0.1946 -0.2773  0.2078
 6022SOL    MW423862   6.288   4.578   3.240  0.7385 -0.0317 -0.1647
 6023SOL     OW23863   3.776   0.312   5.417 -0.4977 -0.5780  0.5593
 6023SOL    HW223864   3.786   0.227   5.373  0.7553  1.1372 -2.8642
 6023SOL    HW323865   3.865   0.344   5.427 -1.0044  1.1972 -0.1960
 6023SOL    MW423866   3.789   0.305   5.412 -0.3431 -0.4896  0.3234
 6024SOL     OW23867   1.125   2.992   3.477 -0.1680  0.5432  0.5947
 6024SOL    HW223868   1.148   2.900   3.464  0.5071  0.4302  2.3615
 6024SOL    HW323869   1.181   3.040   3.416  2.0923 -0.0010  2.1086
 6024SOL    MW423870   1.135   2.986   3.467 -0.0176  0.5313  0.4003
 6025SOL     OW23871   1.031   3.285   0.282 -0.3553 -0.1757 -0.2240
 6025SOL    HW223872   1.054   3.238   0.362 -0.2587 -0.3969 -0.3787
 6025SOL    HW323873   1.085   3.243   0.214  0.0193  0.4181 -0.2946
 6025SOL    MW423874   1.041   3.273   0.284 -0.1428 -0.1592 -0.2483
 6026SOL     OW23875   4.108   0.880   3.278 -0.2390 -0.2721  0.2891
 6026SOL    HW223876   4.041   0.948   3.281  0.2388  0.3548 -1.7177
 6026SOL    HW323877   4.064   0.805   3.238  0.2614  0.1813 -1.1452
 6026SOL    MW423878   4.093   0.879   3.273  0.4782 -0.0201  0.4829
 6027SOL     OW23879   5.083   0.532   4.742 -0.2885 -0.1125 -0.6774
 6027SOL    HW223880   5.103   0.622   4.718 -0.0768 -0.5267 -2.1181
 6027SOL    HW323881   4.991   0.535   4.768  0.2025  0.8456  1.1159
 6027SOL    MW423882   5.073   0.544   4.742  0.3425  0.3218 -0.1121
 6028SOL     OW23883   5.376   1.671   5.958 -0.6381 -0.3889  0.2578
 6028SOL    HW223884   5.282   1.685   5.953 -0.4357  1.3379  0.7006
 6028SOL    HW323885   5.413   1.758   5.973  1.0284 -1.0334  0.1400
 6028SOL    MW423886   5.368   1.684   5.959 -0.6195  0.3351  0.6740
 6029SOL     OW23887   2.174   5.125   6.312 -0.2025 -0.5487  0.4042
 6029SOL    HW223888   2.106   5.177   6.269  0.2248 -1.4378 -1.4576
 6029SOL    HW323889   2.167   5.039   6.271  1.0335 -1.0980  1.3059
 6029SOL    MW423890   2.164   5.121   6.301 -0.0005 -0.1684 -0.1626
 6030SOL     OW23891   0.233   1.124   0.496  0.2597  0.1921 -0.3098
 6030SOL    HW223892   0.223   1.140   0.403 -0.5130 -0.3502 -0.3329
 6030SOL    HW323893   0.160   1.171   0.536  0.0511 -0.3289 -0.0654
 6030SOL    MW423894   0.222   1.132   0.489  0.4429 -0.3513  0.1063
 6031SOL     OW23895   5.215   3.012   4.062  0.2218  0.1206 -0.2730
 6031SOL    HW223896   5.187   3.065   3.987 -2.3876  0.0749  0.5804
 6031SOL    HW323897   5.240   2.928   4.024 -1.0553  0.1002 -1.1320
 6031SOL    MW423898   5.215   3.008   4.047  0.1898 -0.2106 -0.3400
 6032SOL     OW23899   3.372   1.765   0.233 -0.6464 -0.0117 -0.5686
 6032SOL    HW223900   3.386   1.690   0.175 -2.7984  0.5283 -1.8931
 6032SOL    HW323901   3.301   1.738   0.291 -0.0654  0.2954  0.3063
 6032SOL    MW423902   3.364   1.751   0.233  0.3822 -0.0139  0.6301
 6033SOL     OW23903   1.937   1.544   6.156 -0.6590  0.2743  0.7869
 6033SOL    HW223904   2.024   1.565   6.189 -1.3448  2.2716  1.4765
 6033SOL    HW323905   1.893   1.629   6.149 -2.4293 -0.6469  0.0951
 6033SOL    MW423906   1.943   1.558   6.159 -0.3523 -0.0190  0.0107
 6034SOL     OW23907   5.524   2.535   5.160  0.5445 -1.2020  0.0784
 6034SOL    HW223908   5.533   2.482   5.239  1.7119 -2.2381 -0.7050
 6034SOL    HW323909   5.543   2.474   5.088  0.2511 -0.1104 -0.9540
 6034SOL    MW423910   5.527   2.520   5.161  0.1625 -0.1960  0.0658
 6035SOL     OW23911   4.742   0.400   0.118  0.2087  0.1508  0.6911
 6035SOL    HW223912   4.735   0.342   0.194 -0.8611 -1.5702 -0.6307
 6035SOL    HW323913   4.665   0.456   0.124 -0.1407 -0.3132  0.6326
 6035SOL    MW423914   4.731   0.399   0.129 -0.3254 -0.3344  0.1781
 6036SOL     OW23915   1.269   3.541   5.754  0.9168 -0.4783 -0.4232
 6036SOL    HW223916   1.275   3.447   5.740  0.9299 -0.8714  1.8262
 6036SOL    HW323917   1.359   3.570   5.765  0.9769 -0.0243 -1.8835
 6036SOL    MW423918   1.282   3.532   5.754 -0.3153  0.7957 -0.2880
 6037SOL     OW23919   4.529   1.884   0.212  0.4241 -0.2262 -0.2254
 6037SOL    HW223920   4.481   1.807   0.180  1.7617 -1.2732  0.1802
 6037SOL    HW323921   4.600   1.895   0.148 -0.5382  1.5755 -1.0753
 6037SOL    MW423922   4.532   1.875   0.199 -0.1281 -0.5005  0.3982
 6038SOL     OW23923   4.630   4.230   6.141  0.1579  0.5248  0.1984
 6038SOL    HW223924   4.549   4.249   6.093  1.2564  2.4033 -1.0736
 6038SOL    HW323925   4.696   4.221   6.072  1.1879 -0.1670  1.2437
 6038SOL    MW423926   4.628   4.231   6.125 -0.1428  0.1899  0.7159
 6039SOL     OW23927   5.491   4.492   3.347  0.7933  0.0112  0.0270
 6039SOL    HW223928   5.578   4.468   3.314  1.3669  1.8343  0.0758
 6039SOL    HW323929   5.471   4.425   3.412  0.8871 -2.0402 -1.9147
 6039SOL    MW423930   5.500   4.480   3.351 -0.2293  0.0033 -0.3700
 6040SOL     OW23931   1.071   0.403   3.807  0.4921 -0.9826  0.2160
 6040SOL    HW223932   1.056   0.489   3.847  2.9616 -1.5002  2.5380
 6040SOL    HW323933   0.983   0.370   3.788 -0.7378  0.5291  2.7321
 6040SOL    MW423934   1.057   0.410   3.810 -0.4844  0.0388 -0.0613
 6041SOL     OW23935   0.249   0.194   5.761  1.0057  0.3488 -0.1586
 6041SOL    HW223936   0.221   0.270   5.711  1.6779  0.3951 -0.4772
 6041SOL    HW323937   0.298   0.141   5.698 -1.0847 -1.3297 -0.4844
 6041SOL    MW423938   0.252   0.197   5.746 -0.2859  0.1602 -0.0700
 6042SOL     OW23939   0.566   3.983   2.907 -0.9799 -0.3226  0.5574
 6042SOL    HW223940   0.545   3.924   2.834  0.5768 -1.2668  0.8158
 6042SOL    HW323941   0.481   4.016   2.937 -1.5866  1.4144 -2.7034
 6042SOL    MW423942   0.552   3.980   2.901  0.3261 -0.2291 -0.0318
 6043SOL     OW23943   4.808   2.410   0.807 -0.3874 -0.2854 -0.4727
 6043SOL    HW223944   4.746   2.366   0.749 -1.2914  0.2923  0.0483
 6043SOL    HW323945   4.761   2.486   0.840  0.0416 -0.6960  1.1589
 6043SOL    MW423946   4.794   2.414   0.804 -0.0616  0.1032  0.0321
 6044SOL     OW23947   5.691   6.068   5.734 -0.4748  0.1738  0.0926
 6044SOL    HW223948   5.631   6.142   5.740 -0.4714  0.1183  0.9269
 6044SOL    HW323949   5.732   6.063   5.820 -1.0566 -1.2728  0.3221
 6044SOL    MW423950   5.689   6.077   5.746  0.0317 -0.8681 -0.7052
 6045SOL     OW23951   2.946   2.620   6.350 -0.1343  0.0203 -0.1974
 6045SOL    HW223952   3.031   2.583   6.329 -0.5671 -1.1245 -0.0211
 6045SOL    HW323953   2.944   2.622   6.446  0.8140  2.7832 -0.1604
 6045SOL    MW423954   2.957   2.615   6.360  0.1019 -0.0482 -0.9348
 6046SOL     OW23955   5.035   0.069   5.130 -0.0721  0.0470  0.1319
 6046SOL    HW223956   5.106   0.104   5.075 -1.5683  1.5556 -0.9197
 6046SOL    HW323957   5.042   0.118   5.211  1.3358 -1.2830  0.8770
 6046SOL    MW423958   5.046   0.080   5.133 -0.2410  0.4971 -0.1154
 6047SOL     OW23959   5.129   0.564   0.954  0.4510  0.2781  0.3240
 6047SOL    HW223960   5.035   0.575   0.944  0.2508 -0.4801  1.2766
 6047SOL    HW323961   5.143   0.552   1.047  1.5095  0.4372  0.2099
 6047SOL    MW423962   5.119   0.564   0.965  0.3875 -0.0369 -0.3094
 6048SOL     OW23963   5.033   5.311   1.597  0.0740 -0.3085 -0.4776
 6048SOL    HW223964   5.011   5.240   1.658 -3.4524  0.4951 -0.6013
 6048SOL    HW323965   5.006   5.391   1.643  1.5143  0.7552 -1.3917
 6048SOL    MW423966   5.027   5.312   1.611  0.1014  0.4935 -0.0316
 6049SOL     OW23967   3.164   2.903   5.633 -0.1122 -0.2333 -0.1046
 6049SOL    HW223968   3.239   2.881   5.579  0.3160  0.9736 -0.0225
 6049SOL    HW323969   3.201   2.924   5.719 -0.5010  0.5854 -0.1226
 6049SOL    MW423970   3.179   2.903   5.638  0.3259  0.4406  0.1519
 6050SOL     OW23971   3.841   2.528   3.979  0.1809 -0.1060 -0.2345
 6050SOL    HW223972   3.929   2.495   3.996  0.1881 -0.7432 -1.4351
 6050SOL    HW323973   3.799   2.530   4.065  1.7236  1.3097  0.5450
 6050SOL    MW423974   3.847   2.524   3.992 -0.1890 -0.9607  0.4429
 6051SOL     OW23975   5.400   4.172   0.912  0.4385  0.1317 -0.7755
 6051SOL    HW223976   5.368   4.127   0.990 -0.1714  1.8771  0.0344
 6051SOL    HW323977   5.486   4.134   0.896  0.3550 -0.6190  0.4347
 6051SOL    MW423978   5.407   4.161   0.920  0.1113  0.1191 -0.2353
 6052SOL     OW23979   1.654   1.801   5.707 -0.3669  0.2630 -0.0742
 6052SOL    HW223980   1.593   1.864   5.743  0.8654  0.9850  0.8214
 6052SOL    HW323981   1.607   1.717   5.710 -1.6908  0.9719 -0.4602
 6052SOL    MW423982   1.640   1.798   5.712 -0.6006  0.2456 -0.3642
 6053SOL     OW23983   2.398   5.126   4.273 -0.3604  0.1535 -0.2024
 6053SOL    HW223984   2.427   5.057   4.333  1.5029  0.7506 -0.3280
 6053SOL    HW323985   2.440   5.104   4.190 -0.4306  0.9678 -0.4649
 6053SOL    MW423986   2.408   5.114   4.270  0.6866  0.0741 -0.2249
 6054SOL     OW23987   3.483   1.926   3.026 -0.2480  0.3242  0.0471
 6054SOL    HW223988   3.576   1.907   3.037 -0.0868  2.0721  2.3696
 6054SOL    HW323989   3.440   1.841   3.038  1.0161 -0.5904 -1.4764
 6054SOL    MW423990   3.490   1.912   3.029 -0.1923  0.2110  0.6519
 6055SOL     OW23991   1.499   3.891   4.367 -0.4387  0.4697 -0.3929
 6055SOL    HW223992   1.569   3.827   4.354  0.3450  1.4551 -1.0936
 6055SOL    HW323993   1.496   3.941   4.286 -3.4013 -0.8884 -1.2645
 6055SOL    MW423994   1.508   3.889   4.355 -0.1297  0.1895 -0.6580
 6056SOL     OW23995   4.856   4.763   2.182  0.1590 -0.1233  0.6519
 6056SOL    HW223996   4.777   4.808   2.210 -0.2089 -0.6017  0.4018
 6056SOL    HW323997   4.863   4.688   2.240  1.0780  0.5416  1.4339
 6056SOL    MW423998   4.846   4.759   2.193 -0.4440  0.2564  0.1570
 6057SOL     OW23999   1.822   3.983   4.840  0.3610  0.8755 -0.0678
 6057SOL    HW224000   1.731   4.012   4.838  0.6422  1.8187  0.2564
 6057SOL    HW324001   1.873   4.064   4.842  1.1716  0.3825  2.0568
 6057SOL    MW424002   1.817   3.998   4.840 -0.3950 -0.2775 -0.0342
 6058SOL     OW24003   0.800   1.876   4.829 -0.3879 -0.4285 -0.9480
 6058SOL    HW224004   0.717   1.900   4.790 -0.6849 -0.1733 -0.1857
 6058SOL    HW324005   0.860   1.947   4.807 -0.8435  0.2520 -0.0305
 6058SOL    MW424006   0.797   1.888   4.821  0.1924 -0.5194 -0.0748
 6059SOL     OW24007   6.213   4.796   5.203 -0.8082 -0.3084 -0.3944
 6059SOL    HW224008   6.192   4.724   5.263 -1.8882 -0.2168 -0.6517
 6059SOL    HW324009   6.290   4.764   5.155 -0.9951 -1.1047 -0.1907
 6059SOL    MW424010   6.220   4.782   5.205  0.2284  0.0088  0.6106
 6060SOL     OW24011   0.724   6.331   0.457 -0.0414  0.7847 -0.0295
 6060SOL    HW224012   0.786   6.371   0.518  0.8464  1.3648 -1.2632
 6060SOL    HW324013   0.671   6.272   0.511  2.8404 -1.2262  0.8425
 6060SOL    MW424014   0.725   6.328   0.472  0.2289 -0.0142  0.2368
 6061SOL     OW24015   2.578   2.131   3.932 -0.6494  0.3979  0.0925
 6061SOL    HW224016   2.622   2.074   3.994  1.5837 -0.2650 -1.9151
 6061SOL    HW324017   2.605   2.220   3.957 -1.3278  0.3079  1.1729
 6061SOL    MW424018   2.588   2.136   3.943  0.4864 -0.2604 -0.2627
 6062SOL     OW24019   2.431   4.160   3.094 -0.4363  0.9218 -0.4117
 6062SOL    HW224020   2.484   4.132   3.168  0.3373  1.2518 -0.8388
 6062SOL    HW324021   2.420   4.080   3.041  0.8990  1.1670 -1.0939
 6062SOL    MW424022   2.436   4.145   3.096 -0.2272  0.0505  0.1112
 6063SOL     OW24023   5.284   1.491   6.143 -0.4268  0.0058  0.3361
 6063SOL    HW224024   5.258   1.550   6.214  1.4429  0.9346  0.3177
 6063SOL    HW324025   5.336   1.546   6.084 -0.1938 -1.2376 -0.6583
 6063SOL    MW424026   5.288   1.506   6.144  0.8204 -0.0113 -0.1837
 6064SOL     OW24027   2.778   1.488   4.910  0.1053  0.3205 -0.4979
 6064SOL    HW224028   2.732   1.567   4.939 -0.1416  0.7023 -1.8527
 6064SOL    HW324029   2.709   1.421   4.904  0.3241 -0.0352  0.7051
 6064SOL    MW424030   2.763   1.489   4.913  0.0009  0.6361 -0.1086
 6065SOL     OW24031   0.099   3.220   0.382  0.2920 -0.0602  0.0001
 6065SOL    HW224032   0.031   3.270   0.336 -1.2567 -1.3573  0.7680
 6065SOL    HW324033   0.181   3.249   0.343 -0.6175  2.1488 -0.4358
 6065SOL    MW424034   0.101   3.231   0.371 -0.1680  0.2582 -0.1383
 6066SOL     OW24035   2.214   5.523   1.229  0.3341 -0.2789  0.5718
 6066SOL    HW224036   2.235   5.454   1.166 -0.4357 -1.6912  1.7956
 6066SOL    HW324037   2.212   5.604   1.177 -0.7336 -1.4338 -1.2898
 6066SOL    MW424038   2.217   5.525   1.214 -0.0594  0.0584  0.2687
 6067SOL     OW24039   4.358   2.292   0.093  0.0975  0.0373 -0.0347
 6067SOL    HW224040   4.420   2.362   0.116 -0.9178  1.5496 -1.6933
 6067SOL    HW324041   4.410   2.212   0.097  1.4679  0.9391  1.2767
 6067SOL    MW424042   4.373   2.291   0.097 -0.3671  0.3818  0.1976
 6068SOL     OW24043   0.738   1.850   6.190 -0.0839 -0.5438  0.1393
 6068SOL    HW224044   0.647   1.838   6.163 -0.2725  0.2471  0.3848
 6068SOL    HW324045   0.735   1.922   6.253  0.8771  0.4643 -0.8972
 6068SOL    MW424046   0.726   1.858   6.195  0.9298  0.0705 -0.4800
 6069SOL     OW24047   1.810   1.231   5.474 -0.3436 -0.0227  0.6646
 6069SOL    HW224048   1.835   1.322   5.459 -2.0563  0.6584  1.6413
 6069SOL    HW324049   1.808   1.221   5.569  0.7428 -1.3798  0.5717
 6069SOL    MW424050   1.813   1.241   5.484 -0.1409 -0.2373  0.3060
 6070SOL     OW24051   3.719   2.919   4.973 -0.4177 -0.0702 -0.0330
 6070SOL    HW224052   3.790   2.953   4.918  0.0358 -1.5474 -0.4021
 6070SOL    HW324053   3.748   2.832   5.000 -1.3032  0.0172  1.3271
 6070SOL    MW424054   3.732   2.912   4.969  0.8484 -0.4862  0.1047
 6071SOL     OW24055   4.280   4.011   4.097 -0.2359  0.0982 -0.0714
 6071SOL    HW224056   4.287   4.079   4.031 -1.4422  0.3538  0.0455
 6071SOL    HW324057   4.368   3.976   4.104  0.9913  3.0828  1.3992
 6071SOL    MW424058   4.292   4.015   4.090  0.0414  0.1018 -0.3562
 6072SOL     OW24059   6.128   0.681   4.562 -0.2431  0.0875 -0.3114
 6072SOL    HW224060   6.102   0.649   4.475 -2.5161 -1.1118  0.7175
 6072SOL    HW324061   6.054   0.733   4.592  0.0606 -0.3567  1.3061
 6072SOL    MW424062   6.115   0.683   4.554 -0.5279  0.7013 -1.0286
 6073SOL     OW24063   2.733   4.850   0.075 -0.9300  0.7657  0.4465
 6073SOL    HW224064   2.815   4.822   0.035 -0.8322  0.8510  0.5857
 6073SOL    HW324065   2.747   4.839   0.169 -0.6000  2.0367  0.5599
 6073SOL    MW424066   2.746   4.845   0.082 -0.0794 -0.4828  0.1191
 6074SOL     OW24067   5.890   4.211   3.477  0.6448  0.2117  0.8455
 6074SOL    HW224068   5.813   4.190   3.530  0.6817 -0.5453  0.6022
 6074SOL    HW324069   5.913   4.129   3.434 -0.0050  1.0063 -1.1636
 6074SOL    MW424070   5.883   4.197   3.478 -0.4388 -0.0794  0.5450
 6075SOL     OW24071   1.678   4.104   1.829 -0.2041  0.4801  0.2373
 6075SOL    HW224072   1.749   4.113   1.893 -0.4299  0.7485  0.4479
 6075SOL    HW324073   1.600   4.089   1.882 -0.6557  2.1889  0.1134
 6075SOL    MW424074   1.677   4.103   1.844  0.2312  0.5784  0.6905
 6076SOL     OW24075   6.144   3.283   1.863 -0.0036 -0.3181 -0.3234
 6076SOL    HW224076   6.109   3.193   1.861  0.4407 -0.5016  0.0084
 6076SOL    HW324077   6.161   3.299   1.956 -1.0643  0.4970 -0.2501
 6076SOL    MW424078   6.141   3.273   1.875  0.1956  0.1462  0.4425
 6077SOL     OW24079   3.459   3.859   2.024  0.2173  0.0340  0.9732
 6077SOL    HW224080   3.374   3.830   1.991  1.4387 -1.1666 -1.4224
 6077SOL    HW324081   3.485   3.929   1.964  1.2578 -0.1697  1.1671
 6077SOL    MW424082   3.452   3.864   2.011 -0.1076 -0.1926 -0.7760
 6078SOL     OW24083   4.655   4.202   2.683 -0.2828 -0.1141 -0.5163
 6078SOL    HW224084   4.596   4.135   2.718 -0.3612  0.8904  1.4157
 6078SOL    HW324085   4.741   4.177   2.716 -0.1798  0.2855 -0.4801
 6078SOL    MW424086   4.659   4.189   2.692 -0.0696  0.4165 -0.2488
 6079SOL     OW24087   4.943   3.811   0.332  0.1855 -0.0460  0.5722
 6079SOL    HW224088   4.964   3.847   0.419  0.2978 -1.8787  1.3486
 6079SOL    HW324089   5.025   3.772   0.302  0.1926  0.7309 -0.4658
 6079SOL    MW424090   4.957   3.811   0.340 -0.1644  0.7584 -0.0860
 6080SOL     OW24091   4.774   2.528   1.193 -0.1233 -0.2396 -0.5446
 6080SOL    HW224092   4.829   2.572   1.129  0.3061  2.0206  1.2325
 6080SOL    HW324093   4.685   2.558   1.173 -0.3644 -1.5857 -1.6166
 6080SOL    MW424094   4.769   2.538   1.182 -0.1607  0.2336  0.1352
 6081SOL     OW24095   3.829   1.948   2.455  0.8257  0.2452 -0.0135
 6081SOL    HW224096   3.746   1.905   2.436  1.0518  0.0645 -0.6002
 6081SOL    HW324097   3.826   2.030   2.405  1.9710 -0.8317 -1.9523
 6081SOL    MW424098   3.818   1.953   2.446 -0.0419 -0.3761  0.0882
 6082SOL     OW24099   4.858   5.846   6.304 -0.1363 -0.1169 -0.2545
 6082SOL    HW224100   4.881   5.753   6.316 -0.6805  0.0958  3.5013
 6082SOL    HW324101   4.940   5.887   6.279  0.8218 -1.2197  0.9145
 6082SOL    MW424102   4.872   5.839   6.302  0.2305 -0.1271  0.2332
 6083SOL     OW24103   3.695   2.268   1.002  0.6021  0.2693 -0.1393
 6083SOL    HW224104   3.646   2.245   0.923 -0.6071  0.6623  0.4752
 6083SOL    HW324105   3.725   2.184   1.037 -1.5310 -0.2325  0.6574
 6083SOL    MW424106   3.692   2.254   0.996 -0.0498 -0.2553  0.1174
 6084SOL     OW24107   1.287   2.143   0.137  0.1514 -0.1519 -0.2721
 6084SOL    HW224108   1.376   2.178   0.140  0.0658  0.0069  0.5156
 6084SOL    HW324109   1.292   2.068   0.077  0.8304 -0.2151 -0.1383
 6084SOL    MW424110   1.299   2.138   0.129 -0.6920 -0.4727  0.1717
 6085SOL     OW24111   0.063   1.753   2.030 -0.6825 -0.2726 -1.0611
 6085SOL    HW224112   0.093   1.713   2.112 -1.1402 -1.4321 -1.4433
 6085SOL    HW324113   0.087   1.691   1.962 -1.3951  0.1094 -1.6842
 6085SOL    MW424114   0.070   1.740   2.032 -0.6047  0.2705  0.2866
 6086SOL     OW24115   6.066   4.353   5.189 -0.2159 -0.3643 -0.9523
 6086SOL    HW224116   6.118   4.273   5.198  1.1709  0.3721 -2.0229
 6086SOL    HW324117   5.998   4.330   5.126 -0.0903 -0.8291 -0.9257
 6086SOL    MW424118   6.064   4.340   5.182 -0.3171  0.4745  0.1890
 6087SOL     OW24119   0.761   0.308   2.534 -0.2131  0.1569 -0.3561
 6087SOL    HW224120   0.807   0.225   2.523 -0.5812 -0.3018  1.3241
 6087SOL    HW324121   0.708   0.316   2.455 -1.3360 -1.9850  0.0897
 6087SOL    MW424122   0.760   0.298   2.522 -0.8850  0.5367  0.2044
 6088SOL     OW24123   5.564   6.298   4.503 -0.5076  0.2872  0.1399
 6088SOL    HW224124   5.504   6.355   4.550  0.7420  0.9028  1.0473
 6088SOL    HW324125   5.537   6.209   4.528 -1.5853  0.5136 -0.1822
 6088SOL    MW424126   5.552   6.294   4.512  0.3192 -0.1238 -0.0153
 6089SOL     OW24127   0.615   4.391   3.214 -0.2556  0.0577 -0.1482
 6089SOL    HW224128   0.660   4.452   3.272  0.2178 -0.9107  0.5081
 6089SOL    HW324129   0.536   4.439   3.187  0.9173  1.6220 -0.9948
 6089SOL    MW424130   0.611   4.406   3.218  0.1762 -0.0738 -0.1114
 6090SOL     OW24131   5.952   3.934   4.664 -0.4187 -0.1304  0.0258
 6090SOL    HW224132   5.945   4.030   4.664 -3.5706 -0.2573 -0.2432
 6090SOL    HW324133   5.937   3.909   4.756 -0.2396 -0.3785 -0.0136
 6090SOL    MW424134   5.949   3.944   4.677  0.1090  0.6304 -0.1648
 6091SOL     OW24135   4.987   3.553   1.443 -0.2321  0.1963 -0.1412
 6091SOL    HW224136   5.001   3.646   1.460 -1.2570  0.1819  0.9643
 6091SOL    HW324137   4.927   3.525   1.512  2.3134 -1.9826  1.3433
 6091SOL    MW424138   4.981   3.562   1.454  0.0399  0.4453  0.5562
 6092SOL     OW24139   2.814   0.346   4.865  0.0149  0.2788  0.2775
 6092SOL    HW224140   2.908   0.332   4.863  0.2529  0.9599  2.9991
 6092SOL    HW324141   2.796   0.403   4.790  1.6367 -0.3198 -0.6168
 6092SOL    MW424142   2.824   0.351   4.854 -0.1896 -0.5665  0.2163
 6093SOL     OW24143   0.202   3.187   2.353 -0.0821 -0.2992 -0.2865
 6093SOL    HW224144   0.262   3.198   2.280 -0.9441  0.3713 -0.9149
 6093SOL    HW324145   0.135   3.255   2.340 -0.5163 -0.4791  0.8540
 6093SOL    MW424146   0.201   3.198   2.342  0.2704  0.2357 -0.5799
 6094SOL     OW24147   1.803   1.015   5.147  0.9519 -0.1321 -0.1297
 6094SOL    HW224148   1.876   0.957   5.166 -0.6069 -2.4253 -0.7344
 6094SOL    HW324149   1.749   1.012   5.227  0.3623 -0.3417 -0.5277
 6094SOL    MW424150   1.806   1.007   5.160  0.3315  0.1679  0.1524
 6095SOL     OW24151   3.970   1.661   0.839  0.2136  0.6842 -0.2955
 6095SOL    HW224152   3.901   1.647   0.904 -0.0608 -0.6850 -0.8367
 6095SOL    HW324153   3.929   1.640   0.756  1.9861 -3.4813 -0.4174
 6095SOL    MW424154   3.956   1.656   0.837 -0.2055  0.1618 -0.9517
 6096SOL     OW24155   2.380   0.035   0.458 -0.6863  0.0141  0.4273
 6096SOL    HW224156   2.295   0.044   0.417 -0.1587 -1.0924 -0.9951
 6096SOL    HW324157   2.442   0.071   0.395  0.1230 -1.4634  0.3220
 6096SOL    MW424158   2.377   0.041   0.445  0.1850 -0.6153  0.3802
 6097SOL     OW24159   5.022   5.209   4.836 -0.1702  0.7165 -0.4974
 6097SOL    HW224160   5.039   5.180   4.926 -0.8772 -0.1842 -0.6303
 6097SOL    HW324161   4.933   5.178   4.818  0.8283 -1.3384 -2.3472
 6097SOL    MW424162   5.013   5.201   4.845 -0.5114  0.4116 -0.6391
 6098SOL     OW24163   2.617   4.937   0.367 -0.2137 -0.4022  0.2268
 6098SOL    HW224164   2.550   5.002   0.386  1.6136  2.0384 -1.1704
 6098SOL    HW324165   2.570   4.853   0.370 -2.9903  1.0476  0.6829
 6098SOL    MW424166   2.602   4.934   0.370 -0.7494  0.1933  0.0717
 6099SOL     OW24167   4.997   5.828   2.673  0.0687 -0.2125 -0.1868
 6099SOL    HW224168   4.963   5.917   2.680  2.8066  0.8789  0.8245
 6099SOL    HW324169   5.014   5.817   2.580  0.4584  0.6685 -0.2373
 6099SOL    MW424170   4.995   5.839   2.662 -0.2780 -0.0285  0.1490
 6100SOL     OW24171   2.271   0.769   0.508 -0.4131 -0.2627  0.5105
 6100SOL    HW224172   2.199   0.754   0.446  0.5427 -0.0061 -0.6954
 6100SOL    HW324173   2.249   0.714   0.583 -1.9446 -0.0776  0.2456
 6100SOL    MW424174   2.259   0.760   0.510  0.0358  0.7375 -0.5865
 6101SOL     OW24175   4.623   3.991   5.202  0.8790 -0.3336  0.4068
 6101SOL    HW224176   4.693   3.925   5.204  2.3720  1.2080  2.4851
 6101SOL    HW324177   4.652   4.054   5.135  0.2600 -0.8811 -0.4043
 6101SOL    MW424178   4.636   3.990   5.193 -0.3711 -0.1884  0.1904
 6102SOL     OW24179   6.262   1.470   2.916 -0.6169  0.2829  0.0010
 6102SOL    HW224180   6.232   1.475   2.826  1.1339 -1.1519 -0.7140
 6102SOL    HW324181   6.182   1.462   2.968 -1.6471  1.2139 -1.3894
 6102SOL    MW424182   6.247   1.470   2.911  0.1632  0.1427  0.0500
 6103SOL     OW24183   0.060   0.039   4.163  0.9852  0.3005 -0.6451
 6103SOL    HW224184   0.024   0.096   4.095  1.8626  0.9218 -0.6080
 6103SOL    HW324185   0.049  -0.050   4.129 -1.3182  0.3805 -0.2719
 6103SOL    MW424186   0.053   0.035   4.150  0.8790  0.0969 -0.3594
 6104SOL     OW24187   4.138   4.526   3.073  0.3072 -0.1700 -0.5399
 6104SOL    HW224188   4.158   4.434   3.054  1.5328  0.1199 -0.7183
 6104SOL    HW324189   4.049   4.524   3.110  0.1694 -1.3773 -0.8917
 6104SOL    MW424190   4.129   4.514   3.075 -0.1822  0.2312 -0.0679
 6105SOL     OW24191   2.601   5.103   1.215 -0.3834  0.2621  0.1453
 6105SOL    HW224192   2.542   5.128   1.285  0.4536 -0.2516  1.0653
 6105SOL    HW324193   2.559   5.135   1.135 -0.9395  1.6370  0.9502
 6105SOL    MW424194   2.588   5.111   1.214  0.2375  0.3817 -0.1450
 6106SOL     OW24195   5.070   4.790   5.853 -0.2568  0.1076 -0.1330
 6106SOL    HW224196   5.016   4.740   5.792 -2.3491  0.4109  1.3372
 6106SOL    HW324197   5.111   4.723   5.909 -1.0250 -0.0645  0.2340
 6106SOL    MW424198   5.068   4.774   5.852  0.2285 -0.0590 -0.0653
 6107SOL     OW24199   0.385   3.636   0.434  0.6075  0.5376  0.1010
 6107SOL    HW224200   0.351   3.726   0.443 -0.4961  0.2899 -1.1696
 6107SOL    HW324201   0.357   3.610   0.346  0.2547 -1.3279  0.7329
 6107SOL    MW424202   0.377   3.645   0.423  0.2664  0.0361 -0.1385
 6108SOL     OW24203   4.488   0.967   6.107  0.4926 -0.2213  0.4646
 6108SOL    HW224204   4.516   1.027   6.038  0.2990 -1.0991 -0.4050
 6108SOL    HW324205   4.451   1.023   6.175  2.0154  0.7813  0.5140
 6108SOL    MW424206   4.487   0.982   6.107 -0.5823  0.6139  0.4373
 6109SOL     OW24207   3.345   0.982   0.124 -0.3502 -0.7658 -0.0616
 6109SOL    HW224208   3.413   0.949   0.065 -0.6937  0.1170 -0.9939
 6109SOL    HW324209   3.392   1.013   0.201 -0.0182 -3.4291  0.9039
 6109SOL    MW424210   3.360   0.982   0.126  0.0505  0.5675 -0.8177
 6110SOL     OW24211   0.631   2.852   4.903  0.2222  0.5654 -0.6002
 6110SOL    HW224212   0.707   2.804   4.869 -0.0248 -0.5789  0.3996
 6110SOL    HW324213   0.556   2.796   4.881 -0.0319  0.2614  0.9282
 6110SOL    MW424214   0.631   2.838   4.895  0.0534  0.4333 -1.1270
 6111SOL     OW24215   0.947   3.333   2.052 -0.1496  0.2539  0.5991
 6111SOL    HW224216   0.962   3.244   2.082  0.4013  0.3329  0.5693
 6111SOL    HW324217   0.852   3.345   2.058 -0.3954 -0.7830 -0.6502
 6111SOL    MW424218   0.936   3.323   2.057  0.3285  0.4237 -0.0904
 6112SOL     OW24219   2.251   3.774   5.253  0.0181 -0.1563  0.1884
 6112SOL    HW224220   2.218   3.685   5.242  1.2529 -0.5653 -0.5122
 6112SOL    HW324221   2.337   3.772   5.209 -0.2065  1.5436 -0.3814
 6112SOL    MW424222   2.258   3.762   5.246 -0.6159 -0.1116 -0.4771
 6113SOL     OW24223   6.029   1.553   1.476  0.2466 -0.2190 -0.1203
 6113SOL    HW224224   5.995   1.643   1.478 -0.2503 -0.3548 -1.4950
 6113SOL    HW324225   6.082   1.546   1.555 -3.4065 -0.1783  2.5903
 6113SOL    MW424226   6.031   1.564   1.487  0.1094 -0.4250 -0.3387
 6114SOL     OW24227   4.654   4.070   4.349  0.1929 -0.3103  0.0902
 6114SOL    HW224228   4.567   4.064   4.389 -0.1776 -0.0196 -0.6540
 6114SOL    HW324229   4.700   3.993   4.382 -1.1494 -1.8269 -1.3694
 6114SOL    MW424230   4.648   4.059   4.359  0.0332 -0.4245 -0.7764
 6115SOL     OW24231   4.332   6.099   3.863 -0.5732  0.2576  0.1074
 6115SOL    HW224232   4.384   6.085   3.784 -1.3612  0.4113 -0.4533
 6115SOL    HW324233   4.379   6.052   3.932  0.9242  1.3830 -0.1196
 6115SOL    MW424234   4.345   6.091   3.862 -0.7119 -0.0141 -0.1663
 6116SOL     OW24235   3.127   3.119   1.021 -0.5638  0.0137  0.4900
 6116SOL    HW224236   3.160   3.196   0.975 -1.1932  0.5831  0.9717
 6116SOL    HW324237   3.094   3.061   0.952  0.5238 -0.1424  0.0723
 6116SOL    MW424238   3.127   3.121   1.006 -0.4721 -0.3468 -0.1461
 6117SOL     OW24239   1.003   1.252   4.143  0.2887 -0.5805  0.3631
 6117SOL    HW224240   1.068   1.319   4.122 -0.7392  0.7841  1.3386
 6117SOL    HW324241   0.986   1.264   4.236  0.1239 -2.2660  0.5696
 6117SOL    MW424242   1.010   1.263   4.152 -1.0453 -0.0905 -0.0457
 6118SOL     OW24243   1.974   0.182   0.116  0.0006  0.0148 -0.2448
 6118SOL    HW224244   1.995   0.255   0.174 -3.3303  0.7254  0.2472
 6118SOL    HW324245   1.901   0.137   0.158  0.7226 -2.5190 -1.4816
 6118SOL    MW424246   1.968   0.186   0.129  0.2534  0.9776  0.5599
 6119SOL     OW24247   2.235   1.034   0.317  0.2412 -0.0189 -0.2531
 6119SOL    HW224248   2.186   1.114   0.338  0.4107  0.3389 -1.1826
 6119SOL    HW324249   2.325   1.054   0.341 -0.0016 -0.5806  1.1998
 6119SOL    MW424250   2.240   1.048   0.323 -0.5233  0.1537 -0.1742
 6120SOL     OW24251   4.349   0.269   4.367 -0.0169  0.0514 -0.9171
 6120SOL    HW224252   4.289   0.275   4.441 -1.3602 -1.8268 -1.7525
 6120SOL    HW324253   4.404   0.193   4.387  1.6468  1.3238 -0.5031
 6120SOL    MW424254   4.348   0.260   4.379  0.4159  0.3331  0.1421
 6121SOL     OW24255   2.929   5.902   3.800  0.1288 -0.4213 -0.9234
 6121SOL    HW224256   2.834   5.898   3.811 -0.0341  0.6774 -1.7829
 6121SOL    HW324257   2.944   5.983   3.752  1.5956 -0.0809  0.0620
 6121SOL    MW424258   2.918   5.912   3.795 -0.1836 -0.0853  0.1021
 6122SOL     OW24259   4.364   0.825   1.582 -0.1564  0.0767  0.0358
 6122SOL    HW224260   4.436   0.787   1.532 -0.4769  0.5316 -0.7927
 6122SOL    HW324261   4.341   0.758   1.646  1.1302 -0.0013  0.4448
 6122SOL    MW424262   4.371   0.811   1.584  0.0696  0.2640  0.0547
 6123SOL     OW24263   0.679   1.659   3.628 -0.2994  0.6506  0.1562
 6123SOL    HW224264   0.753   1.719   3.614 -0.5027  0.8018 -0.2980
 6123SOL    HW324265   0.699   1.616   3.711  0.4111  0.5261 -0.0674
 6123SOL    MW424266   0.692   1.661   3.637 -0.3063 -0.2407 -0.3336
 6124SOL     OW24267   5.240   5.009   1.589  0.2234 -0.5505 -0.1748
 6124SOL    HW224268   5.268   5.079   1.647 -0.0481 -1.4817  1.1130
 6124SOL    HW324269   5.304   5.011   1.517  0.4812  0.7006  0.0729
 6124SOL    MW424270   5.252   5.018   1.587 -0.0216 -0.2111 -0.1464
 6125SOL     OW24271   2.548   3.786   5.187  0.2763  0.1996 -0.2941
 6125SOL    HW224272   2.590   3.869   5.168 -0.2761  0.5265 -0.1064
 6125SOL    HW324273   2.593   3.754   5.266  0.6118  0.2296 -0.4720
 6125SOL    MW424274   2.560   3.793   5.195 -0.3507  0.3867  0.6164
 6126SOL     OW24275   1.296   3.424   6.139  0.2787  0.0787  0.1031
 6126SOL    HW224276   1.327   3.370   6.212  0.4246  0.1956  0.1268
 6126SOL    HW324277   1.276   3.360   6.070  0.8960  0.0291 -0.0291
 6126SOL    MW424278   1.297   3.408   6.139 -0.0899 -0.0143  0.1042
 6127SOL     OW24279   3.556   0.506   5.336 -0.3283  0.1187  0.2843
 6127SOL    HW224280   3.600   0.589   5.354  0.0208 -0.2050  0.9713
 6127SOL    HW324281   3.621   0.439   5.361 -0.8747 -0.3606  0.4423
 6127SOL    MW424282   3.571   0.508   5.342  0.5806  0.5904  0.1548
 6128SOL     OW24283   3.243   3.498   1.260  0.5682 -0.2864  0.0247
 6128SOL    HW224284   3.276   3.409   1.247 -1.1989 -0.8484 -0.9108
 6128SOL    HW324285   3.252   3.539   1.174 -0.2041 -0.1326  0.0097
 6128SOL    MW424286   3.249   3.492   1.247 -0.8363 -0.0593  0.4956
 6129SOL     OW24287   2.141   4.631   3.159  1.1707 -0.1004  0.0816
 6129SOL    HW224288   2.200   4.606   3.231 -0.6441 -0.2428  1.6116
 6129SOL    HW324289   2.100   4.713   3.189  0.9725  0.2626 -1.1572
 6129SOL    MW424290   2.143   4.638   3.173  0.0902  0.2615 -0.5805
 6130SOL     OW24291   6.260   2.468   2.580  0.5518 -0.7367  0.1978
 6130SOL    HW224292   6.345   2.444   2.543 -0.3559 -1.9902 -1.1651
 6130SOL    HW324293   6.219   2.523   2.512  0.3892  0.1117  0.9699
 6130SOL    MW424294   6.266   2.472   2.566  0.1387 -0.5577 -0.0642
 6131SOL     OW24295   3.111   1.666   5.582  0.1582  0.8449  0.2177
 6131SOL    HW224296   3.136   1.753   5.551 -0.4926  0.5258 -1.2915
 6131SOL    HW324297   3.060   1.682   5.661  0.2830  1.8141  0.1116
 6131SOL    MW424298   3.108   1.680   5.588  0.0332  0.2724  0.2453
 6132SOL     OW24299   0.872   1.518   2.310 -0.3372  0.0270 -0.1357
 6132SOL    HW224300   0.802   1.459   2.339 -0.0556 -1.8435 -2.8628
 6132SOL    HW324301   0.952   1.469   2.327  0.1215  0.8936  0.2396
 6132SOL    MW424302   0.873   1.504   2.316 -0.1287 -0.0288  0.3912
 6133SOL     OW24303   0.423   5.848   5.218  0.3697  0.0174 -0.4561
 6133SOL    HW224304   0.509   5.857   5.176 -0.2835  0.3950 -1.7638
 6133SOL    HW324305   0.373   5.793   5.158 -1.0366  1.6775 -0.8621
 6133SOL    MW424306   0.428   5.842   5.205 -0.2907  0.6232  0.2921
 6134SOL     OW24307   0.433   4.895   4.178 -0.5762 -0.2840 -0.1794
 6134SOL    HW224308   0.458   4.805   4.159  1.9498  0.2680  0.1726
 6134SOL    HW324309   0.366   4.887   4.247 -0.4819 -1.8789 -0.2316
 6134SOL    MW424310   0.427   4.882   4.185 -0.2696  0.1722  0.0251
 6135SOL     OW24311   5.867   3.551   4.711 -0.2177  0.3618  0.4584
 6135SOL    HW224312   5.947   3.577   4.756  0.5171  1.0828 -1.1625
 6135SOL    HW324313   5.810   3.518   4.780  1.7699 -0.9572  1.5528
 6135SOL    MW424314   5.870   3.550   4.726 -0.7465 -0.0732 -0.4991
 6136SOL     OW24315   0.901   4.479   4.769 -0.2134  0.2158 -0.3670
 6136SOL    HW224316   0.830   4.512   4.825 -0.8601  0.5733 -1.3785
 6136SOL    HW324317   0.862   4.407   4.720  0.3363 -0.0605 -0.4043
 6136SOL    MW424318   0.887   4.474   4.770 -0.4551  0.4821 -0.1073
 6137SOL     OW24319   1.166   4.310   1.869 -0.1824 -0.4968 -0.3463
 6137SOL    HW224320   1.105   4.377   1.900 -0.8514 -0.9947 -0.5672
 6137SOL    HW324321   1.247   4.358   1.851 -0.4526  0.1466  0.1015
 6137SOL    MW424322   1.168   4.325   1.871  0.7674 -0.3108  0.7699
 6138SOL     OW24323   4.492   2.540   2.684 -0.1038  0.6044  1.0556
 6138SOL    HW224324   4.527   2.613   2.735  1.4883 -1.1844  2.7049
 6138SOL    HW324325   4.558   2.471   2.693 -0.7639 -0.5299 -1.7745
 6138SOL    MW424326   4.505   2.541   2.692  0.3900  0.5346 -0.2373
 6139SOL     OW24327   2.324   6.140   5.870  0.7538  0.8648 -0.4289
 6139SOL    HW224328   2.291   6.206   5.809  2.3354  1.8867 -0.2214
 6139SOL    HW324329   2.344   6.064   5.816 -0.0569  0.9260 -0.8276
 6139SOL    MW424330   2.322   6.139   5.855  0.2549 -0.2461 -0.1550
 6140SOL     OW24331   5.877   3.249   2.505  0.2764 -0.0721  0.1824
 6140SOL    HW224332   5.785   3.274   2.513  0.5863  1.7337 -1.2936
 6140SOL    HW324333   5.878   3.155   2.523 -2.6068 -1.1925 -3.9884
 6140SOL    MW424334   5.865   3.240   2.509  0.2892  0.6925 -0.3859
 6141SOL     OW24335   5.324   3.277   1.834 -0.3341  0.3250  0.2377
 6141SOL    HW224336   5.324   3.307   1.925  0.8758 -1.2434  0.8077
 6141SOL    HW324337   5.412   3.299   1.802 -0.7175  0.7702 -0.5343
 6141SOL    MW424338   5.336   3.284   1.841  0.4979 -0.0935  0.5024
 6142SOL     OW24339   2.865   2.643   0.206 -0.2816 -0.5668 -0.7514
 6142SOL    HW224340   2.957   2.663   0.221 -0.4105 -1.3190  1.3227
 6142SOL    HW324341   2.822   2.729   0.209  0.2939 -0.2467 -1.3523
 6142SOL    MW424342   2.872   2.657   0.208  0.0125 -0.1952  0.0689
 6143SOL     OW24343   0.418   4.943   0.485 -0.0445  0.1035 -0.0321
 6143SOL    HW224344   0.329   4.910   0.494  0.0993  0.0122  1.1533
 6143SOL    HW324345   0.413   5.005   0.412 -1.2005  0.5327  0.3912
 6143SOL    MW424346   0.406   4.947   0.476 -0.2791  0.4798 -0.2725
 6144SOL     OW24347   1.127   5.356   6.416 -0.0392 -0.1929 -0.3027
 6144SOL    HW224348   1.065   5.353   6.344 -0.0545 -0.1627 -0.2910
 6144SOL    HW324349   1.080   5.319   6.490 -0.3720  0.6926 -0.0525
 6144SOL    MW424350   1.113   5.351   6.417 -0.4943 -0.2418  0.1001
 6145SOL     OW24351   2.716   1.949   2.644  0.2459  0.0065  0.5626
 6145SOL    HW224352   2.658   1.992   2.581 -1.6264  0.7642  2.6773
 6145SOL    HW324353   2.657   1.900   2.701  2.0624 -2.8881  0.1884
 6145SOL    MW424354   2.701   1.948   2.643 -0.6160 -0.6352 -0.4058
 6146SOL     OW24355   3.907   5.172   0.703  0.3472  0.1087  0.1025
 6146SOL    HW224356   3.817   5.142   0.709  0.8959 -2.2747 -2.0878
 6146SOL    HW324357   3.906   5.239   0.634 -0.0549  1.7816  1.6570
 6146SOL    MW424358   3.895   5.177   0.694 -0.0211 -0.0011  0.1667
 6147SOL     OW24359   1.261   4.743   6.190 -0.3119  0.1269  0.1988
 6147SOL    HW224360   1.326   4.712   6.253  1.2324  0.2137 -1.2631
 6147SOL    HW324361   1.191   4.679   6.193 -0.3436  0.2186  2.0835
 6147SOL    MW424362   1.260   4.731   6.198  0.2781 -0.3874 -0.4725
 6148SOL     OW24363   5.597   5.726   3.519  0.0134  0.2208 -0.5410
 6148SOL    HW224364   5.650   5.740   3.440  0.3603 -0.3713 -0.4220
 6148SOL    HW324365   5.539   5.654   3.496 -0.0318  0.1881 -0.3242
 6148SOL    MW424366   5.597   5.718   3.505  0.5396 -0.1862  0.5862
 6149SOL     OW24367   2.051   3.099   4.336  0.0450 -0.1631  0.2481
 6149SOL    HW224368   1.961   3.132   4.329  0.0609 -0.3419 -1.3291
 6149SOL    HW324369   2.052   3.046   4.415 -1.7310 -1.5922 -0.6257
 6149SOL    MW424370   2.039   3.097   4.345 -0.6336  0.5745  0.3137
 6150SOL     OW24371   0.134   1.408   5.340 -0.1582 -0.4837  0.1301
 6150SOL    HW224372   0.153   1.399   5.247 -2.4911 -1.5477 -0.3198
 6150SOL    HW324373   0.194   1.347   5.383  0.8400 -0.0843 -0.6635
 6150SOL    MW424374   0.144   1.399   5.333  0.1331 -0.4342 -0.3597
 6151SOL     OW24375   3.718   4.264   4.895  0.4187 -0.3319 -0.2669
 6151SOL    HW224376   3.750   4.315   4.821 -1.4663 -0.0333 -0.9146
 6151SOL    HW324377   3.759   4.178   4.883  0.7091 -0.0731 -1.2371
 6151SOL    MW424378   3.728   4.259   4.883 -0.1909 -0.0000 -0.2787
 6152SOL     OW24379   2.118   3.980   5.553  0.1597 -0.1176 -0.1886
 6152SOL    HW224380   2.157   4.055   5.599  0.4088 -1.0020  1.0899
 6152SOL    HW324381   2.048   4.019   5.500  1.8690  1.3329 -1.5152
 6152SOL    MW424382   2.114   3.995   5.552 -0.6306  0.1816  0.1897
 6153SOL     OW24383   5.381   3.062   2.514 -0.0978 -0.2180  0.0427
 6153SOL    HW224384   5.465   3.050   2.469  0.3610 -0.5231  0.9554
 6153SOL    HW324385   5.323   3.097   2.447  0.6754 -0.2932 -0.6854
 6153SOL    MW424386   5.384   3.065   2.499  0.3257  0.4391 -0.2605
 6154SOL     OW24387   5.482   5.698   4.953 -0.1023  0.6811 -0.2007
 6154SOL    HW224388   5.504   5.739   5.037  1.4119 -0.0030 -0.2266
 6154SOL    HW324389   5.416   5.632   4.974  0.3580  0.4300  0.4727
 6154SOL    MW424390   5.476   5.695   4.967 -0.6619 -0.1708  0.4673
 6155SOL     OW24391   2.938   1.696   2.609  1.0602  0.1770 -0.2678
 6155SOL    HW224392   2.991   1.713   2.531 -0.3933 -3.4745 -2.3218
 6155SOL    HW324393   2.849   1.722   2.583  0.8564  0.6909  0.9120
 6155SOL    MW424394   2.933   1.702   2.595  0.0979  0.3602  0.2751
 6156SOL     OW24395   2.272   3.566   2.237  0.3623  0.1741 -0.7694
 6156SOL    HW224396   2.361   3.551   2.271  0.3278  0.2979 -0.6256
 6156SOL    HW324397   2.255   3.658   2.254  0.2285  0.1655 -0.8546
 6156SOL    MW424398   2.282   3.576   2.244 -0.1036  0.0912  0.0568
 6157SOL     OW24399   5.194   1.247   3.215 -0.1195 -0.1788  0.4754
 6157SOL    HW224400   5.141   1.323   3.241 -1.4437 -1.7781  2.9272
 6157SOL    HW324401   5.170   1.231   3.124  0.6782  2.6336 -0.3205
 6157SOL    MW424402   5.184   1.255   3.206  0.1357 -0.0838 -0.3828
 6158SOL     OW24403   5.062   1.235   0.917 -0.2257 -0.0468 -0.2465
 6158SOL    HW224404   5.018   1.239   1.002  1.2555  2.6387  0.5043
 6158SOL    HW324405   4.990   1.243   0.853 -1.1650  0.3172  0.8147
 6158SOL    MW424406   5.046   1.237   0.920  0.3094  0.0187  0.3214
 6159SOL     OW24407   6.199   1.576   1.720 -0.4020  0.7639  0.0182
 6159SOL    HW224408   6.260   1.504   1.708 -1.0009  0.1101  0.7949
 6159SOL    HW324409   6.237   1.649   1.670  0.5426  0.1123 -0.2287
 6159SOL    MW424410   6.212   1.576   1.712 -0.2122  0.0385  0.3260
 6160SOL     OW24411   1.696   4.003   5.720  0.3375  0.6387  0.6060
 6160SOL    HW224412   1.645   3.971   5.794  0.7729  1.0636  1.0959
 6160SOL    HW324413   1.633   4.052   5.667  0.0156  0.2969  0.6639
 6160SOL    MW424414   1.681   4.005   5.723  0.1451  0.2407 -0.3126
 6161SOL     OW24415   0.531   4.248   0.820  0.5478  0.4397 -0.1341
 6161SOL    HW224416   0.530   4.265   0.914  1.9519 -0.8848  0.1567
 6161SOL    HW324417   0.443   4.274   0.790 -0.2433  0.0216  1.7037
 6161SOL    MW424418   0.519   4.253   0.828 -0.4432 -0.1993  0.4459
 6162SOL     OW24419   5.817   3.440   0.964 -0.2417 -0.5119  0.0875
 6162SOL    HW224420   5.895   3.438   0.908  0.2877  2.6961  0.5346
 6162SOL    HW324421   5.743   3.434   0.903  0.3447  1.0257 -0.8331
 6162SOL    MW424422   5.818   3.439   0.948  0.3294  0.2758  0.2668
 6163SOL     OW24423   2.811   5.471   1.341  0.5591  0.5476  0.4171
 6163SOL    HW224424   2.865   5.392   1.348  0.0628  0.1222 -0.3843
 6163SOL    HW324425   2.844   5.528   1.409 -0.0610 -0.9288  2.0370
 6163SOL    MW424426   2.823   5.468   1.351  0.0763 -0.5222  0.1093
 6164SOL     OW24427   1.912   0.332   1.154 -0.1831  0.1180  0.5267
 6164SOL    HW224428   1.916   0.405   1.092  1.2666 -0.2313  0.1750
 6164SOL    HW324429   2.002   0.321   1.184 -0.7911  0.0798  2.4942
 6164SOL    MW424430   1.924   0.340   1.150 -0.5378  0.4984  0.6333
 6165SOL     OW24431   2.216   6.432   5.993  0.4991  0.1295  0.5185
 6165SOL    HW224432   2.291   6.491   5.994  2.0535 -1.7155  1.4830
 6165SOL    HW324433   2.227   6.380   5.913  2.6956 -2.8588  2.5140
 6165SOL    MW424434   2.228   6.433   5.983 -0.0108 -0.2563  0.4334
 6166SOL     OW24435   3.963   5.883   1.140  0.1717  0.2386  0.4353
 6166SOL    HW224436   3.879   5.838   1.151  0.0495 -0.1002 -1.6640
 6166SOL    HW324437   4.014   5.827   1.083  1.4595  0.9624  0.8291
 6166SOL    MW424438   3.959   5.870   1.134 -0.5682  0.3724  0.4064
 6167SOL     OW24439   5.402   0.236   6.337 -0.8578  0.3930 -0.7540
 6167SOL    HW224440   5.400   0.236   6.433 -0.7704 -1.2750 -0.7217
 6167SOL    HW324441   5.318   0.197   6.312  0.2429 -1.7650 -1.2591
 6167SOL    MW424442   5.390   0.231   6.346  0.8384  0.1828 -0.1867
 6168SOL     OW24443   0.297   1.855   2.874  0.1472 -0.3208 -0.0038
 6168SOL    HW224444   0.326   1.765   2.865  1.3735  0.2118 -2.1623
 6168SOL    HW324445   0.217   1.860   2.822 -0.2196 -0.2640  0.5543
 6168SOL    MW424446   0.290   1.844   2.866 -0.3141 -0.4974  0.3108
 6169SOL     OW24447   3.957   1.405   0.028 -0.3990 -0.3292 -0.3067
 6169SOL    HW224448   3.918   1.356   0.100  0.3532 -0.5931 -0.0690
 6169SOL    HW324449   3.994   1.338  -0.029 -2.2209 -0.2159 -1.7131
 6169SOL    MW424450   3.957   1.390   0.030  0.3389 -0.2551  0.2845
 6170SOL     OW24451   3.217   3.864   5.872  0.0127  0.1980 -0.3493
 6170SOL    HW224452   3.267   3.901   5.799 -0.0210  1.0842  0.0614
 6170SOL    HW324453   3.271   3.790   5.902 -0.0163 -0.2290 -1.3119
 6170SOL    MW424454   3.231   3.859   5.867 -0.1240 -0.3894  0.2373
 6171SOL     OW24455   5.025   0.982   0.198 -0.1662 -0.0124  0.0453
 6171SOL    HW224456   5.117   1.005   0.184 -0.1435 -0.1862 -0.0857
 6171SOL    HW324457   5.010   0.907   0.141 -0.3489 -0.0775  0.1779
 6171SOL    MW424458   5.035   0.975   0.189  0.2719 -0.3650  0.5461
 6172SOL     OW24459   2.970   5.196   4.962 -0.1404  0.4204 -0.1217
 6172SOL    HW224460   2.895   5.139   4.974 -0.0636 -0.0781 -1.7274
 6172SOL    HW324461   3.011   5.165   4.881  0.2605  2.3510 -0.7044
 6172SOL    MW424462   2.966   5.185   4.953  0.1598  0.4732  0.2399
 6173SOL     OW24463   2.167   0.380   4.294 -0.1539  0.1708  0.1120
 6173SOL    HW224464   2.246   0.409   4.250 -0.3906 -0.7738 -0.9837
 6173SOL    HW324465   2.100   0.442   4.267  0.1584  0.8506  0.8773
 6173SOL    MW424466   2.168   0.392   4.285  0.2957 -0.3718  0.1479
 6174SOL     OW24467   2.702   1.561   2.008 -0.2104 -0.1404  0.0460
 6174SOL    HW224468   2.717   1.469   1.986 -0.0340 -0.2443  0.5673
 6174SOL    HW324469   2.723   1.566   2.102 -2.4959 -0.0901  0.6262
 6174SOL    MW424470   2.707   1.549   2.018 -0.2737 -0.2403  0.1883
 6175SOL     OW24471   3.291   2.859   3.944 -0.0365 -0.0939  0.3839
 6175SOL    HW224472   3.268   2.894   3.857  1.3076 -0.9679 -0.3510
 6175SOL    HW324473   3.233   2.905   4.004 -0.0681  1.5288 -0.8295
 6175SOL    MW424474   3.280   2.870   3.940 -0.4600 -0.4388  0.0357
 6176SOL     OW24475   0.095   1.189   3.180  0.5241 -0.3134  0.2816
 6176SOL    HW224476   0.095   1.103   3.221 -1.2863 -0.5719 -0.1913
 6176SOL    HW324477   0.054   1.246   3.245  0.6815 -0.0287  0.1339
 6176SOL    MW424478   0.090   1.185   3.194 -0.3191  0.2421 -0.0392
 6177SOL     OW24479   3.471   3.065   3.988 -0.4228 -0.1645 -0.1859
 6177SOL    HW224480   3.416   2.994   3.957 -2.5299  0.9425  0.8212
 6177SOL    HW324481   3.435   3.144   3.947  0.9851  0.5106 -0.1904
 6177SOL    MW424482   3.459   3.066   3.979 -0.0782 -0.4101 -0.2069
 6178SOL     OW24483   5.543   1.657   5.711  0.0561  0.1466 -0.0581
 6178SOL    HW224484   5.501   1.597   5.650 -0.3649  1.2116 -0.8583
 6178SOL    HW324485   5.485   1.658   5.788 -0.2513 -0.0043 -0.2859
 6178SOL    MW424486   5.530   1.649   5.713  0.0808  0.0242  0.5301
 6179SOL     OW24487   3.205   1.737   0.450 -0.1676 -0.6435 -0.5824
 6179SOL    HW224488   3.160   1.659   0.483 -1.1526  0.4939  0.9214
 6179SOL    HW324489   3.292   1.735   0.490 -0.6968 -0.2643  0.6485
 6179SOL    MW424490   3.210   1.727   0.460  0.5244 -0.4185  0.4431
 6180SOL     OW24491   4.202   0.286   5.752 -0.5602  0.0753  1.3065
 6180SOL    HW224492   4.242   0.208   5.711  0.1422  0.8849  0.3940
 6180SOL    HW324493   4.261   0.308   5.824 -0.9098 -0.3934  1.7405
 6180SOL    MW424494   4.215   0.278   5.756  0.5594  0.4469 -0.4896
 6181SOL     OW24495   3.722   0.312   1.599 -0.0577  0.2126  0.5980
 6181SOL    HW224496   3.710   0.389   1.655 -2.1025  0.0098  0.4898
 6181SOL    HW324497   3.729   0.239   1.660 -1.8377  0.0480  0.6425
 6181SOL    MW424498   3.722   0.313   1.614 -0.3344  0.0022  0.1888
 6182SOL     OW24499   5.836   0.046   1.545 -0.0749  1.0151 -0.1716
 6182SOL    HW224500   5.860   0.035   1.453 -0.2451  1.7842 -0.3144
 6182SOL    HW324501   5.741   0.059   1.544 -0.0868  0.9510  0.1157
 6182SOL    MW424502   5.827   0.046   1.533  0.5641 -0.1343 -0.0756
 6183SOL     OW24503   1.832   2.517   5.237 -0.2352 -0.4665 -0.3050
 6183SOL    HW224504   1.920   2.502   5.270  0.1953 -0.7215 -1.5253
 6183SOL    HW324505   1.828   2.611   5.219  0.1531 -0.6129 -1.2180
 6183SOL    MW424506   1.843   2.527   5.239 -0.2855 -0.6248 -0.1261
 6184SOL     OW24507   0.737   3.309   0.101 -0.2551  0.1215  0.2642
 6184SOL    HW224508   0.659   3.354   0.134  0.2591  2.7821 -1.7770
 6184SOL    HW324509   0.787   3.377   0.057  1.4011 -2.2255 -1.7803
 6184SOL    MW424510   0.733   3.324   0.100  0.7693 -0.4973 -0.1083
 6185SOL     OW24511   5.746   3.687   3.999 -0.3817  0.3362 -0.2796
 6185SOL    HW224512   5.830   3.728   3.981 -1.4394  1.9337 -1.8496
 6185SOL    HW324513   5.719   3.722   4.084 -1.2204  2.9362 -1.5402
 6185SOL    MW424514   5.753   3.697   4.008  0.2543 -0.3624 -0.4408
 6186SOL     OW24515   0.825   0.809   1.455 -0.0044 -0.1681 -0.0008
 6186SOL    HW224516   0.874   0.873   1.403 -2.0972  0.3243 -1.5026
 6186SOL    HW324517   0.861   0.724   1.428 -1.8079 -0.0485 -3.4063
 6186SOL    MW424518   0.836   0.806   1.444  0.1286  0.1088 -0.1151
 6187SOL     OW24519   0.168   2.033   0.226  0.2887 -0.1227  0.2320
 6187SOL    HW224520   0.226   1.985   0.287  0.1524  0.8458  1.1567
 6187SOL    HW324521   0.224   2.102   0.191  0.0431  0.0221  0.1310
 6187SOL    MW424522   0.183   2.036   0.230  0.1518 -0.2412 -0.1285
 6188SOL     OW24523   2.117   1.858   1.632  0.6150 -0.2954  0.5053
 6188SOL    HW224524   2.078   1.888   1.550  2.7507 -0.7166 -0.7498
 6188SOL    HW324525   2.094   1.925   1.696  1.5654  1.7986 -1.2030
 6188SOL    MW424526   2.109   1.871   1.630 -0.6122 -0.1434  0.3524
 6189SOL     OW24527   1.236   2.621   2.332  0.4074  0.7296 -0.4900
 6189SOL    HW224528   1.243   2.706   2.375  1.4023  0.1345  0.6035
 6189SOL    HW324529   1.143   2.611   2.312 -0.2085  0.8397  2.0101
 6189SOL    MW424530   1.225   2.631   2.335 -0.5344  0.5282 -0.4455
 6190SOL     OW24531   1.816   2.185   1.337 -0.4042 -0.4182  0.5801
 6190SOL    HW224532   1.775   2.262   1.376 -0.7166 -0.3946  0.2178
 6190SOL    HW324533   1.760   2.163   1.263  0.9233  0.3668 -0.7115
 6190SOL    MW424534   1.803   2.192   1.332 -0.0950 -0.5540  0.1683
 6191SOL     OW24535   4.805   1.362   4.548 -0.6176  0.0457  0.1389
 6191SOL    HW224536   4.750   1.313   4.488  0.5013  0.2647 -1.1018
 6191SOL    HW324537   4.744   1.415   4.599 -1.5243  1.1224 -1.9523
 6191SOL    MW424538   4.790   1.363   4.547 -0.2532 -0.5492  0.0335
 6192SOL     OW24539   5.088   3.045   5.697  0.3676 -0.0474 -0.2231
 6192SOL    HW224540   5.008   3.004   5.730  0.1187 -1.8369 -2.6818
 6192SOL    HW324541   5.057   3.119   5.644  0.5580  0.9651  1.0536
 6192SOL    MW424542   5.073   3.049   5.694 -0.8135  0.0477  0.2645
 6193SOL     OW24543   3.351   2.156   0.396  0.2145 -0.6308  0.4106
 6193SOL    HW224544   3.317   2.211   0.466  1.6104  0.0817  0.5726
 6193SOL    HW324545   3.279   2.097   0.374 -1.1232  0.8449  0.6480
 6193SOL    MW424546   3.337   2.155   0.403 -0.0837 -0.0964 -0.6319
 6194SOL     OW24547   3.459   3.203   4.685 -0.3325  0.8154 -0.1305
 6194SOL    HW224548   3.487   3.194   4.594  1.9898 -0.6905  0.6452
 6194SOL    HW324549   3.526   3.259   4.725 -1.0042  0.9865  0.7925
 6194SOL    MW424550   3.472   3.209   4.678  0.0509  0.4765 -0.0208
 6195SOL     OW24551   1.315   0.688   5.173  0.7717  0.1171  0.0536
 6195SOL    HW224552   1.358   0.748   5.234 -0.4204 -0.0363  1.0806
 6195SOL    HW324553   1.337   0.722   5.086 -0.2508  2.3774  0.5963
 6195SOL    MW424554   1.323   0.701   5.169 -0.1562 -0.6152 -0.2491
 6196SOL     OW24555   6.132   5.526   3.627  0.0494 -0.5188  0.3593
 6196SOL    HW224556   6.128   5.579   3.707  0.4364  1.6525 -0.9557
 6196SOL    HW324557   6.130   5.435   3.658  1.4332  0.2017  2.9110
 6196SOL    MW424558   6.131   5.521   3.642 -0.0046 -0.2362  0.0026
 6197SOL     OW24559   3.399   3.529   4.467  0.2917 -0.1216 -0.0495
 6197SOL    HW224560   3.334   3.471   4.508  0.9421 -1.8834 -1.3899
 6197SOL    HW324561   3.474   3.526   4.526 -0.2028  0.5598  0.6339
 6197SOL    MW424562   3.400   3.521   4.480 -0.3490 -0.3686  0.0794
 6198SOL     OW24563   1.297   1.237   6.077 -0.0346  0.0143  0.0279
 6198SOL    HW224564   1.334   1.256   6.164 -0.6535 -0.6686  0.4466
 6198SOL    HW324565   1.357   1.172   6.040  0.6742  0.8751 -0.3955
 6198SOL    MW424566   1.310   1.231   6.084  0.0686  0.4314  0.0900
 6199SOL     OW24567   1.143   5.503   4.530  0.0517  0.1434 -0.0544
 6199SOL    HW224568   1.058   5.534   4.498 -0.9971 -3.9324 -1.9438
 6199SOL    HW324569   1.129   5.487   4.623 -1.3195 -0.4384 -0.3321
 6199SOL    MW424570   1.130   5.505   4.538 -0.1401 -0.3886  0.4688
 6200SOL     OW24571   3.009   3.030   3.821 -0.2412 -0.0230  0.7730
 6200SOL    HW224572   3.092   3.005   3.780 -0.2491 -0.2182  0.8762
 6200SOL    HW324573   2.979   2.950   3.864 -1.0202 -0.2482 -0.1587
 6200SOL    MW424574   3.016   3.016   3.821 -0.1775 -0.1770 -0.2099
 6201SOL     OW24575   5.684   1.160   0.179  0.1158  0.2572 -0.7567
 6201SOL    HW224576   5.617   1.129   0.118  0.5096  0.6755 -1.4181
 6201SOL    HW324577   5.766   1.149   0.131  0.4920  0.0562 -0.0793
 6201SOL    MW424578   5.686   1.155   0.165 -0.2413 -0.5228  0.3961
 6202SOL     OW24579   4.381   4.579   2.868  0.2369 -0.0169  0.1574
 6202SOL    HW224580   4.343   4.581   2.780 -0.4223 -0.1662  0.4268
 6202SOL    HW324581   4.306   4.561   2.925  0.8261 -0.9535  0.6549
 6202SOL    MW424582   4.366   4.577   2.864  0.3132 -0.1961  0.2797
 6203SOL     OW24583   4.208   1.542   6.335 -0.0001 -0.0490  0.6637
 6203SOL    HW224584   4.179   1.633   6.341 -0.3434 -0.1908  1.1517
 6203SOL    HW324585   4.144   1.500   6.278 -1.1781 -0.5209  2.2733
 6203SOL    MW424586   4.196   1.549   6.328 -0.1514  0.0956 -0.2667
 6204SOL     OW24587   4.444   3.126   3.010  1.0035 -0.0353  0.7410
 6204SOL    HW224588   4.472   3.063   3.076  1.4022 -0.7507 -0.0903
 6204SOL    HW324589   4.482   3.209   3.039 -0.4518  0.0984  2.4543
 6204SOL    MW424590   4.453   3.129   3.023 -0.4738 -0.4973 -0.3036
 6205SOL     OW24591   4.897   5.330   0.802  0.1578 -0.4623 -0.0573
 6205SOL    HW224592   4.941   5.249   0.779 -1.4675 -1.0037 -1.5220
 6205SOL    HW324593   4.842   5.307   0.877 -0.3527 -0.7497 -0.5134
 6205SOL    MW424594   4.895   5.316   0.809 -0.4244 -0.2787  0.4956
 6206SOL     OW24595   4.876   6.306   2.351 -0.1173  0.1823 -0.1966
 6206SOL    HW224596   4.937   6.253   2.298 -0.6968  0.2578 -0.9599
 6206SOL    HW324597   4.932   6.359   2.407  0.5934  1.3296 -1.9166
 6206SOL    MW424598   4.891   6.306   2.351  0.4008  0.1439  0.2568
 6207SOL     OW24599   1.508   3.202   1.907  0.2513  0.3428 -0.1201
 6207SOL    HW224600   1.439   3.197   1.973 -0.1318 -1.7528 -0.6085
 6207SOL    HW324601   1.564   3.127   1.926  1.4357  1.0325 -0.7955
 6207SOL    MW424602   1.506   3.192   1.918 -0.2317  0.5113 -0.4202
 6208SOL     OW24603   4.488   4.642   2.261 -0.6553 -0.0265 -0.2854
 6208SOL    HW224604   4.427   4.577   2.296 -0.1768 -0.9975 -1.1869
 6208SOL    HW324605   4.434   4.701   2.209 -1.1119  0.3853  0.6373
 6208SOL    MW424606   4.473   4.641   2.258  0.7339 -0.1958 -0.4434
 6209SOL     OW24607   0.557   4.183   3.402 -0.1287 -0.1416 -0.3665
 6209SOL    HW224608   0.612   4.199   3.479 -0.5340 -0.7558  0.0504
 6209SOL    HW324609   0.573   4.259   3.346  3.1557 -1.4301 -1.4477
 6209SOL    MW424610   0.567   4.195   3.405  0.3199  0.2485  0.3817
 6210SOL     OW24611   0.834   2.176   4.309 -0.3754  0.3123 -0.4567
 6210SOL    HW224612   0.925   2.200   4.297 -0.2447 -0.2591 -0.6513
 6210SOL    HW324613   0.826   2.158   4.403 -0.4224  0.8705 -0.3474
 6210SOL    MW424614   0.845   2.177   4.320 -0.2766  0.4380 -0.0721
 6211SOL     OW24615   6.318   4.031   0.222  0.4055 -0.0652 -0.3490
 6211SOL    HW224616   6.230   3.995   0.225 -0.8470  2.7183 -0.6413
 6211SOL    HW324617   6.348   4.029   0.313  0.0241 -0.9608 -0.2372
 6211SOL    MW424618   6.310   4.026   0.234 -0.0435 -0.2630  0.3291
 6212SOL     OW24619   3.157   5.066   1.802 -0.0457  0.3154 -0.5926
 6212SOL    HW224620   3.204   5.146   1.778  0.6363  0.7060  1.7502
 6212SOL    HW324621   3.217   5.021   1.862 -0.5754 -1.7998 -1.5431
 6212SOL    MW424622   3.171   5.071   1.807 -0.0484  0.2632 -0.4151
 6213SOL     OW24623   1.282   4.988   4.955  0.2231 -0.0096 -0.0420
 6213SOL    HW224624   1.362   4.992   5.007  0.4627 -0.5450 -0.3566
 6213SOL    HW324625   1.244   4.902   4.976  0.8928 -0.7017 -1.5626
 6213SOL    MW424626   1.287   4.977   4.965 -0.1422 -0.7409  0.5533
 6214SOL     OW24627   4.015   3.883   1.752 -0.5347  0.0589 -0.5630
 6214SOL    HW224628   4.098   3.887   1.704 -0.1896 -0.8280 -0.0588
 6214SOL    HW324629   4.028   3.943   1.826 -0.6734  0.5929 -0.9622
 6214SOL    MW424630   4.027   3.892   1.756  0.2830  0.6329 -0.0784
 6215SOL     OW24631   2.630   6.410   5.546  0.0292 -0.2170  0.2940
 6215SOL    HW224632   2.660   6.369   5.465  2.4475  1.3681  0.2720
 6215SOL    HW324633   2.642   6.343   5.614  0.1346 -0.8110 -0.3057
 6215SOL    MW424634   2.636   6.396   5.544 -0.0438 -0.2364  0.4362
 6216SOL     OW24635   2.386   1.475   4.289 -0.4866  0.2989 -0.5896
 6216SOL    HW224636   2.452   1.524   4.238  2.1679 -1.4686  0.9086
 6216SOL    HW324637   2.398   1.384   4.262 -1.2249 -0.2590  0.8950
 6216SOL    MW424638   2.396   1.470   4.279 -0.1197  0.1967 -0.1821
 6217SOL     OW24639   6.039   2.381   5.966  0.4950 -0.2302  0.7294
 6217SOL    HW224640   5.994   2.433   5.900  1.0107  1.1261  1.3989
 6217SOL    HW324641   6.132   2.394   5.948  0.6727 -2.5158 -0.2708
 6217SOL    MW424642   6.045   2.390   5.955 -0.0154  0.3047  0.6056
 6218SOL     OW24643   1.067   0.600   3.545 -0.3469  0.6591  0.2371
 6218SOL    HW224644   1.143   0.605   3.488 -0.3185  0.5384  0.2630
 6218SOL    HW324645   1.072   0.678   3.599  0.4902  0.0017  1.1502
 6218SOL    MW424646   1.078   0.611   3.544  0.1228  0.6806 -0.0497
 6219SOL     OW24647   3.638   0.898   2.859 -0.4071  0.3798 -0.1367
 6219SOL    HW224648   3.696   0.824   2.840 -0.1232 -0.1861  2.5342
 6219SOL    HW324649   3.695   0.975   2.855  0.4407 -0.0902  1.6840
 6219SOL    MW424650   3.653   0.898   2.856  0.0910  0.1701  0.0260
 6220SOL     OW24651   3.130   4.006   0.903  0.3311  0.3612  0.4586
 6220SOL    HW224652   3.186   4.070   0.858 -0.8773 -0.1612 -2.0088
 6220SOL    HW324653   3.117   4.043   0.990  2.5529  1.6500  0.3393
 6220SOL    MW424654   3.136   4.019   0.908 -0.2801 -0.5443  0.4812
 6221SOL     OW24655   3.303   0.140   1.682 -0.2038  0.0775  0.0974
 6221SOL    HW224656   3.325   0.162   1.773  2.0864  1.1873 -0.6349
 6221SOL    HW324657   3.326   0.219   1.632 -1.2076 -0.5802 -1.4931
 6221SOL    MW424658   3.309   0.153   1.687 -0.3242 -0.3562 -0.3057
 6222SOL     OW24659   5.407   6.067   2.257  0.2359 -0.1000  0.0823
 6222SOL    HW224660   5.430   6.135   2.320  0.2760 -0.5594  0.5752
 6222SOL    HW324661   5.362   6.113   2.186  1.3160  0.5980 -0.1680
 6222SOL    MW424662   5.404   6.082   2.256 -0.1587 -0.7233  0.1064
 6223SOL     OW24663   1.699   0.868   0.160  1.4040  0.3172  0.7577
 6223SOL    HW224664   1.778   0.828   0.126  1.5100 -1.0165  2.4053
 6223SOL    HW324665   1.728   0.949   0.202  1.9070 -0.1293  1.2853
 6223SOL    MW424666   1.713   0.873   0.161 -0.0458 -0.1138 -0.3475
 6224SOL     OW24667   5.846   6.258   0.697 -0.1711 -0.2434  0.6206
 6224SOL    HW224668   5.908   6.248   0.768  0.5502 -0.9458 -0.0912
 6224SOL    HW324669   5.817   6.169   0.676  0.3172 -0.1543 -0.5456
 6224SOL    MW424670   5.850   6.245   0.703 -0.2120  0.3123  0.6361
 6225SOL     OW24671   5.638   5.820   6.418  0.3488 -0.3604 -0.1484
 6225SOL    HW224672   5.603   5.735   6.390  1.4325 -0.5202 -1.0855
 6225SOL    HW324673   5.562   5.878   6.420 -1.0649 -2.0537  3.6850
 6225SOL    MW424674   5.623   5.816   6.414  0.1347  0.3890 -0.3288
 6226SOL     OW24675   2.681   4.950   6.103 -0.2071  1.0834  0.0197
 6226SOL    HW224676   2.692   4.977   6.194  0.1226 -1.7177  0.9125
 6226SOL    HW324677   2.753   4.991   6.056  0.1320  1.8595  1.1875
 6226SOL    MW424678   2.692   4.959   6.109  0.8035  0.1587  0.3792
 6227SOL     OW24679   4.947   0.105   4.304 -0.3552  0.5403  0.3323
 6227SOL    HW224680   4.963   0.082   4.395  1.7654  0.8277  0.0908
 6227SOL    HW324681   5.032   0.096   4.262 -1.2271  0.6960 -1.5671
 6227SOL    MW424682   4.960   0.101   4.310  0.1601 -0.1646 -0.2166
 6228SOL     OW24683   3.462   4.631   0.418  0.1038 -0.4641  0.3163
 6228SOL    HW224684   3.474   4.548   0.464  0.6542  0.7643  2.5227
 6228SOL    HW324685   3.373   4.659   0.439  0.1175 -0.2222  0.0692
 6228SOL    MW424686   3.452   4.624   0.426  0.3090  0.2512 -0.1872
 6229SOL     OW24687   0.538   0.762   3.245 -0.3264 -0.0972  0.2589
 6229SOL    HW224688   0.455   0.719   3.228 -0.4694  0.6713 -1.1379
 6229SOL    HW324689   0.524   0.812   3.326 -1.2681  0.1417 -0.0488
 6229SOL    MW424690   0.525   0.763   3.254 -0.0051 -0.2765 -0.1868
 6230SOL     OW24691   5.285   5.627   4.361  0.0513  0.1265 -0.0386
 6230SOL    HW224692   5.260   5.712   4.395  2.3126  1.4025 -1.3270
 6230SOL    HW324693   5.371   5.610   4.399  1.1090  0.0186 -2.3121
 6230SOL    MW424694   5.293   5.636   4.371 -0.7229  0.1630 -0.4474
 6231SOL     OW24695   5.043   0.746   5.118  0.2538 -0.2770  0.0943
 6231SOL    HW224696   5.108   0.675   5.115 -1.1127 -1.5691 -1.5488
 6231SOL    HW324697   5.094   0.826   5.110  1.6493 -1.2695 -1.8787
 6231SOL    MW424698   5.058   0.747   5.116 -0.2084  0.2126  0.2834
 6232SOL     OW24699   3.752   0.257   0.094  0.2393 -0.2393  0.2831
 6232SOL    HW224700   3.828   0.296   0.138  0.8281  0.4403 -1.2619
 6232SOL    HW324701   3.749   0.301   0.009 -1.3217 -0.9554 -0.0641
 6232SOL    MW424702   3.761   0.268   0.089 -0.0259 -0.2464 -0.4489
 6233SOL     OW24703   6.153   3.667   0.053  0.1092  0.3157 -0.1434
 6233SOL    HW224704   6.111   3.743   0.013  1.5930  0.6251 -1.1715
 6233SOL    HW324705   6.238   3.660   0.010  0.7769 -0.8186  1.2558
 6233SOL    MW424706   6.158   3.676   0.042  0.0252 -0.3066  0.3584
 6234SOL     OW24707   3.852   5.275   2.656  0.0506 -0.6275  0.3566
 6234SOL    HW224708   3.917   5.265   2.587  0.1792 -1.6034  0.6026
 6234SOL    HW324709   3.775   5.228   2.624  0.5332 -2.1910  1.3946
 6234SOL    MW424710   3.850   5.268   2.643 -0.3293  0.4727 -0.2120
 6235SOL     OW24711   4.619   6.322   5.310 -0.2544  0.1483  0.0820
 6235SOL    HW224712   4.587   6.249   5.363 -1.3037  1.0617  0.7716
 6235SOL    HW324713   4.680   6.369   5.366  0.7081 -0.3864 -0.4909
 6235SOL    MW424714   4.623   6.319   5.324  0.4300  0.2185 -0.2512
 6236SOL     OW24715   4.394   3.545   4.710  0.4674  0.4076  0.5567
 6236SOL    HW224716   4.379   3.453   4.692  0.2837  0.4681  0.3971
 6236SOL    HW324717   4.307   3.585   4.703  0.6423  0.6960  0.0148
 6236SOL    MW424718   4.381   3.538   4.707  0.3517  0.0058  0.4144
 6237SOL     OW24719   2.503   1.188   0.629 -0.0567 -0.4774  0.3536
 6237SOL    HW224720   2.474   1.161   0.716 -0.1183 -0.1214  0.4438
 6237SOL    HW324721   2.525   1.281   0.638 -1.2437 -0.1035 -0.2827
 6237SOL    MW424722   2.502   1.197   0.642  0.2473  0.7808  0.4351
 6238SOL     OW24723   2.841   3.213   6.128  0.1734  0.1084  0.2835
 6238SOL    HW224724   2.804   3.152   6.065  0.5550 -0.0543  0.2185
 6238SOL    HW324725   2.933   3.222   6.103 -0.0151  1.1833 -0.0830
 6238SOL    MW424726   2.848   3.206   6.117 -0.0943  0.4476  0.3803
 6239SOL     OW24727   1.031   4.437   5.338 -0.3506  0.0258  0.0867
 6239SOL    HW224728   0.978   4.516   5.324  0.6274  0.6895  0.0390
 6239SOL    HW324729   1.044   4.434   5.433  1.1103  0.9451 -0.0593
 6239SOL    MW424730   1.025   4.447   5.348 -0.1479  0.6258  0.4373
 6240SOL     OW24731   0.184   3.349   4.026  0.1421 -0.4687  0.2868
 6240SOL    HW224732   0.176   3.331   3.932  1.0552  0.3836  0.0235
 6240SOL    HW324733   0.257   3.295   4.055  0.9924  0.5402  0.1111
 6240SOL    MW424734   0.193   3.340   4.017  0.2200  0.0057  0.1961
 6241SOL     OW24735   0.764   0.271   1.854  0.0416 -0.0158 -0.1377
 6241SOL    HW224736   0.738   0.194   1.803  0.1028 -0.0736 -0.0803
 6241SOL    HW324737   0.712   0.265   1.934 -1.9423  1.3812 -1.2256
 6241SOL    MW424738   0.753   0.260   1.858 -0.5650 -0.1733 -0.7379
 6242SOL     OW24739   0.548   6.254   5.316 -0.2154  0.0134  0.5616
 6242SOL    HW224740   0.487   6.223   5.249  1.5251 -0.0213 -1.0826
 6242SOL    HW324741   0.524   6.205   5.394 -3.4005  1.2399  0.5072
 6242SOL    MW424742   0.536   6.244   5.317 -0.0540  0.2194 -0.0950
 6243SOL     OW24743   6.297   5.380   4.259 -0.2325 -0.8051 -0.1864
 6243SOL    HW224744   6.303   5.439   4.184  0.7801 -1.2871 -0.4993
 6243SOL    HW324745   6.261   5.299   4.223 -1.3645 -0.4907  0.1907
 6243SOL    MW424746   6.293   5.377   4.244 -0.0149  0.3109  0.2885
 6244SOL     OW24747   2.087   0.172   1.620 -0.2309  0.3686 -0.4908
 6244SOL    HW224748   1.992   0.182   1.621 -0.1260  1.3719  0.9096
 6244SOL    HW324749   2.120   0.252   1.578  0.0484  0.7138  0.3579
 6244SOL    MW424750   2.079   0.184   1.614  0.1670 -0.2764  0.8507
 6245SOL     OW24751   4.896   0.288   2.133 -0.0903  0.2953 -0.0042
 6245SOL    HW224752   4.832   0.291   2.205 -0.7013  1.4019 -0.5638
 6245SOL    HW324753   4.973   0.333   2.168 -0.0933  0.1209  0.2283
 6245SOL    MW424754   4.898   0.295   2.147  0.5063  0.2431  0.6216
 6246SOL     OW24755   1.475   5.883   1.211  0.5526  0.3012 -0.1129
 6246SOL    HW224756   1.516   5.818   1.268  2.3031 -0.2348 -1.8747
 6246SOL    HW324757   1.537   5.956   1.209 -0.6977  1.4456  0.6407
 6246SOL    MW424758   1.488   5.884   1.219  0.1075  0.0331 -0.2848
 6247SOL     OW24759   5.535   5.214   3.555  0.2204  0.0693  0.0566
 6247SOL    HW224760   5.596   5.283   3.526  2.4257 -1.0992  1.6261
 6247SOL    HW324761   5.516   5.236   3.646  0.3377 -0.9412  0.3356
 6247SOL    MW424762   5.541   5.226   3.563 -0.0857 -0.6946 -0.5290
 6248SOL     OW24763   2.726   1.094   2.083 -0.2658 -0.2813 -0.3587
 6248SOL    HW224764   2.675   1.018   2.112  0.7537 -1.2994 -1.1400
 6248SOL    HW324765   2.780   1.116   2.159 -0.6368 -0.2608 -0.0948
 6248SOL    MW424766   2.727   1.087   2.097 -0.2402 -0.1689 -0.3660
 6249SOL     OW24767   3.146   5.007   6.376 -0.2594 -0.5617 -0.3520
 6249SOL    HW224768   3.114   4.919   6.395  0.6279 -0.7840  0.1830
 6249SOL    HW324769   3.213   5.023   6.443  1.9026 -0.7515 -2.3438
 6249SOL    MW424770   3.151   4.997   6.388 -0.4108  0.0888  0.2450
 6250SOL     OW24771   0.364   1.262   3.136  0.2071  0.5857  0.7765
 6250SOL    HW224772   0.275   1.267   3.172 -0.4548  0.4556 -0.7778
 6250SOL    HW324773   0.370   1.175   3.099 -0.1544  1.5804 -1.8515
 6250SOL    MW424774   0.353   1.252   3.136  0.6996 -0.3858 -0.3152
 6251SOL     OW24775   0.868   3.494   5.512 -0.2606 -0.4924  0.0021
 6251SOL    HW224776   0.907   3.571   5.470  0.9990 -0.1030  1.7776
 6251SOL    HW324777   0.849   3.523   5.601 -1.4769 -1.7219  0.1618
 6251SOL    MW424778   0.871   3.508   5.518 -0.4341 -0.0881  0.4933
 6252SOL     OW24779   3.173   1.428   5.271  0.5997 -0.2592 -0.1899
 6252SOL    HW224780   3.218   1.505   5.238 -1.0387  1.5925  1.6398
 6252SOL    HW324781   3.087   1.429   5.229  0.2737 -0.6273  0.4390
 6252SOL    MW424782   3.168   1.438   5.261  0.3101  0.1703 -0.3480
 6253SOL     OW24783   4.105   3.406   2.992  0.2795  0.1368 -0.2092
 6253SOL    HW224784   4.094   3.325   3.041 -1.3582 -1.2627 -2.6657
 6253SOL    HW324785   4.174   3.387   2.929  0.2118  0.8323 -0.5009
 6253SOL    MW424786   4.112   3.393   2.990 -0.6017 -0.1830  0.1296
 6254SOL     OW24787   3.591   0.486   6.122 -0.0960 -0.2322 -0.0564
 6254SOL    HW224788   3.649   0.552   6.083 -0.8051  1.0161  0.9059
 6254SOL    HW324789   3.553   0.530   6.198 -0.0407 -2.0035  1.0766
 6254SOL    MW424790   3.594   0.500   6.127 -0.1599 -0.3726 -0.0276
 6255SOL     OW24791   4.507   3.066   2.143  0.5231 -0.2868  0.1737
 6255SOL    HW224792   4.583   3.025   2.184  0.1092 -2.0652 -0.7063
 6255SOL    HW324793   4.532   3.075   2.051 -0.1798 -0.5268 -0.0433
 6255SOL    MW424794   4.520   3.062   2.136  0.2229 -0.0535  0.2297
 6256SOL     OW24795   0.422   0.910   5.476 -0.4550 -0.1976  0.8689
 6256SOL    HW224796   0.335   0.873   5.492 -0.8914  0.1378 -0.5684
 6256SOL    HW324797   0.422   0.931   5.383  1.1840 -0.1986  0.8487
 6256SOL    MW424798   0.410   0.908   5.466  0.2836 -0.2863  0.0496
 6257SOL     OW24799   0.155   2.995   2.893  0.0754  0.3485 -0.2946
 6257SOL    HW224800   0.221   3.040   2.946  0.5562  0.8123 -1.2569
 6257SOL    HW324801   0.104   2.945   2.956  0.0616  1.5793  0.7218
 6257SOL    MW424802   0.157   2.994   2.908  0.2706 -0.2345  0.4713
 6258SOL     OW24803   6.246   0.214   5.360 -0.3299  0.3288 -0.0221
 6258SOL    HW224804   6.177   0.151   5.339 -1.0029  0.0970  2.5304
 6258SOL    HW324805   6.318   0.161   5.393 -0.0161  0.7655  0.0083
 6258SOL    MW424806   6.246   0.199   5.361 -0.2665  0.3376  0.8827
 6259SOL     OW24807   1.678   0.967   4.202  0.4130 -0.8060 -0.1149
 6259SOL    HW224808   1.640   0.880   4.215  0.4169 -0.6806  0.7897
 6259SOL    HW324809   1.715   0.991   4.287 -1.1598  0.8204  0.1970
 6259SOL    MW424810   1.678   0.959   4.215 -0.4322  0.3750  0.0690
 6260SOL     OW24811   3.221   1.591   3.889 -0.8114  0.2167  0.0887
 6260SOL    HW224812   3.238   1.651   3.961  0.7038  1.1419 -0.9697
 6260SOL    HW324813   3.189   1.647   3.818 -1.1470 -0.4909 -0.3284
 6260SOL    MW424814   3.219   1.606   3.889  0.3025  0.1470 -0.5307
 6261SOL     OW24815   2.561   2.275   1.549 -0.6943 -0.3814 -0.6454
 6261SOL    HW224816   2.551   2.183   1.524  0.3013 -1.5683  2.7784
 6261SOL    HW324817   2.649   2.299   1.519  0.5110 -1.7782  1.5329
 6261SOL    MW424818   2.571   2.266   1.541  0.8778  0.0485  0.0696
 6262SOL     OW24819   1.936   3.719   2.371 -0.0027 -0.0438 -0.4658
 6262SOL    HW224820   2.015   3.703   2.424 -1.0217 -0.0460  1.1266
 6262SOL    HW324821   1.954   3.800   2.324  1.6768 -1.0219 -1.6106
 6262SOL    MW424822   1.949   3.728   2.372 -0.5819  0.5772 -0.1393
 6263SOL     OW24823   1.884   3.771   4.654 -0.0779  0.6679 -0.4141
 6263SOL    HW224824   1.962   3.718   4.673  0.4107  1.6701  0.4963
 6263SOL    HW324825   1.884   3.839   4.722 -1.2504  1.2271 -0.9426
 6263SOL    MW424826   1.894   3.773   4.666 -0.6937 -0.2126  0.5677
 6264SOL     OW24827   6.366   0.474   2.717 -0.6557  0.0932  0.0540
 6264SOL    HW224828   6.285   0.438   2.679 -1.5857  0.8447  1.2567
 6264SOL    HW324829   6.340   0.504   2.804  0.5007  2.0313 -0.2240
 6264SOL    MW424830   6.352   0.473   2.723 -0.5791 -0.3514 -0.1764
 6265SOL     OW24831   4.770   0.376   3.794 -0.0114  0.0090  0.4410
 6265SOL    HW224832   4.771   0.284   3.820  1.6396 -0.0814  0.1394
 6265SOL    HW324833   4.750   0.374   3.700 -2.7882  0.1665  0.9310
 6265SOL    MW424834   4.767   0.364   3.785  0.3707  0.2967 -1.1618
 6266SOL     OW24835   2.317   5.811   4.316  0.1734 -0.8117 -0.1425
 6266SOL    HW224836   2.283   5.723   4.328 -0.4838 -0.3543  1.6486
 6266SOL    HW324837   2.239   5.867   4.312  0.6109 -0.0813  1.0184
 6266SOL    MW424838   2.302   5.807   4.317  0.1156  0.3684  0.7761
 6267SOL     OW24839   0.163   1.175   0.204 -0.0580 -0.4487 -0.1729
 6267SOL    HW224840   0.199   1.088   0.190  0.3025 -0.1622 -1.0898
 6267SOL    HW324841   0.079   1.174   0.159  1.3559  0.6553 -3.0536
 6267SOL    MW424842   0.156   1.163   0.197  0.2137 -0.2056 -0.0001
 6268SOL     OW24843   4.376   0.248   0.837  0.7493  0.2540 -0.1345
 6268SOL    HW224844   4.365   0.192   0.914 -0.4805  0.9742  0.2563
 6268SOL    HW324845   4.395   0.187   0.765  1.4505 -0.4701  0.6417
 6268SOL    MW424846   4.377   0.232   0.838  0.8465  0.8368 -0.3109
 6269SOL     OW24847   1.474   1.621   2.185 -0.4898 -0.0507 -0.1150
 6269SOL    HW224848   1.382   1.597   2.191 -0.5331 -0.0104 -0.5799
 6269SOL    HW324849   1.517   1.542   2.152 -0.3955  0.0036 -0.1228
 6269SOL    MW424850   1.468   1.607   2.181 -0.1464 -0.5501 -0.5024
 6270SOL     OW24851   1.648   4.492   3.771 -0.1556  0.3226 -0.4503
 6270SOL    HW224852   1.570   4.439   3.749 -0.5021  1.2196 -1.4733
 6270SOL    HW324853   1.707   4.478   3.697 -0.2167  1.2677 -0.6932
 6270SOL    MW424854   1.645   4.483   3.758  0.2812  0.2126 -0.4286
 6271SOL     OW24855   3.653   5.451   4.636  0.0747 -0.3569  0.4494
 6271SOL    HW224856   3.672   5.358   4.627  1.4902 -0.1867  1.3389
 6271SOL    HW324857   3.565   5.461   4.601  1.5679 -1.2086 -4.1601
 6271SOL    MW424858   3.644   5.440   4.631 -0.0589 -0.2083  0.5336
 6272SOL     OW24859   1.676   4.459   5.215 -0.0428  0.0425  0.2376
 6272SOL    HW224860   1.634   4.537   5.178  1.3874  1.0921  0.7188
 6272SOL    HW324861   1.624   4.438   5.292 -0.4704  0.5080  0.0789
 6272SOL    MW424862   1.664   4.467   5.220 -0.1027  0.0285  0.2976
 6273SOL     OW24863   3.180   3.759   3.510  0.0437 -0.0086 -0.3215
 6273SOL    HW224864   3.202   3.703   3.435 -1.4867 -1.5584  0.3057
 6273SOL    HW324865   3.201   3.847   3.481  2.1327 -0.8347 -1.5259
 6273SOL    MW424866   3.185   3.763   3.496 -0.0541 -0.4502  0.1409
 6274SOL     OW24867   5.135   5.237   3.563  0.4795  0.5926  0.5100
 6274SOL    HW224868   5.176   5.157   3.597  0.0668  0.4501  0.6794
 6274SOL    HW324869   5.197   5.270   3.499 -1.1538 -2.2116 -2.8468
 6274SOL    MW424870   5.148   5.231   3.559 -0.3606  0.0589  0.2303
 6275SOL     OW24871   4.804   0.051   5.422 -0.5821  0.3316  0.2688
 6275SOL    HW224872   4.826   0.135   5.462 -1.4398  0.9614 -0.5563
 6275SOL    HW324873   4.886   0.001   5.426 -0.1434  1.0783  1.0438
 6275SOL    MW424874   4.818   0.056   5.428 -0.0297  0.7175  0.4487
 6276SOL     OW24875   2.776   0.017   0.177  0.4077  0.0053 -0.1875
 6276SOL    HW224876   2.787  -0.053   0.242  0.3797 -0.0206 -0.2103
 6276SOL    HW324877   2.706  -0.015   0.120  0.7983 -0.2152 -0.5501
 6276SOL    MW424878   2.768   0.003   0.178  0.9370 -0.0341 -0.3265
 6277SOL     OW24879   1.596   0.329   6.271  0.1436 -0.0535 -0.2444
 6277SOL    HW224880   1.527   0.395   6.264  0.2755  0.1596  0.4708
 6277SOL    HW324881   1.609   0.317   6.365  0.2580 -0.9563 -0.3698
 6277SOL    MW424882   1.589   0.336   6.282 -0.3104 -0.2768  0.3891
 6278SOL     OW24883   5.341   4.250   4.773  0.3523 -0.5750 -0.7958
 6278SOL    HW224884   5.385   4.334   4.790  1.6724 -1.4413  0.3058
 6278SOL    HW324885   5.360   4.197   4.850 -1.5632 -1.4722 -0.8844
 6278SOL    MW424886   5.349   4.254   4.785 -0.1912 -0.2335 -0.1367
 6279SOL     OW24887   1.920   5.416   3.251 -0.0959  0.7946 -0.2031
 6279SOL    HW224888   1.850   5.356   3.225  0.1553  0.6082 -0.4602
 6279SOL    HW324889   1.995   5.389   3.198  0.8584 -0.5070  1.7166
 6279SOL    MW424890   1.920   5.404   3.240  0.0640 -0.2082 -0.2848
 6280SOL     OW24891   2.583   2.833   2.995 -0.5920  0.0601 -0.0816
 6280SOL    HW224892   2.556   2.743   3.013 -0.4804 -0.4709 -2.3022
 6280SOL    HW324893   2.672   2.825   2.962 -0.8973  0.8773 -1.1550
 6280SOL    MW424894   2.591   2.820   2.993  0.1103 -0.1004 -0.4036
 6281SOL     OW24895   1.647   0.131   4.135  0.5245  0.5677  0.4968
 6281SOL    HW224896   1.708   0.119   4.208 -0.4584  0.8754  1.3907
 6281SOL    HW324897   1.693   0.190   4.075  1.8516 -0.6602  0.2387
 6281SOL    MW424898   1.661   0.137   4.136  0.4007 -0.2047 -0.0855
 6282SOL     OW24899   5.495   4.678   3.974 -0.2426 -0.0638 -0.3584
 6282SOL    HW224900   5.550   4.673   4.053 -0.4929  1.2792 -0.0746
 6282SOL    HW324901   5.411   4.711   4.005 -1.6965 -3.1869 -0.5940
 6282SOL    MW424902   5.491   4.681   3.988 -0.0476 -0.2901  0.0819
 6283SOL     OW24903   1.670   3.261   1.291 -0.2798 -0.3616 -0.4983
 6283SOL    HW224904   1.645   3.190   1.350 -0.5413  0.4835  0.4407
 6283SOL    HW324905   1.592   3.316   1.285  0.2519  0.4392 -0.3029
 6283SOL    MW424906   1.657   3.259   1.298 -0.0550  0.0782  0.2702
 6284SOL     OW24907   2.683   0.843   5.568  0.1829 -0.1510  0.3933
 6284SOL    HW224908   2.751   0.811   5.627 -0.8152 -2.2925  0.4792
 6284SOL    HW324909   2.633   0.765   5.544 -2.0854  1.2799  0.1157
 6284SOL    MW424910   2.685   0.828   5.572 -0.1160 -0.0948 -0.3502
 6285SOL     OW24911   2.361   5.936   0.081 -0.0554  0.0118 -0.7748
 6285SOL    HW224912   2.444   5.928   0.033  0.2454  1.5856 -0.5562
 6285SOL    HW324913   2.311   6.002   0.033  0.0779  1.3062  0.7845
 6285SOL    MW424914   2.365   5.944   0.068 -0.1587  0.3016 -0.5176
 6286SOL     OW24915   3.816   4.051   6.250  0.3456 -0.4429 -0.5667
 6286SOL    HW224916   3.869   4.103   6.310  0.8634 -0.5601 -0.9196
 6286SOL    HW324917   3.804   4.108   6.174 -2.4936  0.7597  0.6299
 6286SOL    MW424918   3.821   4.066   6.248  0.0605 -0.5372 -0.1770
 6287SOL     OW24919   5.502   5.195   2.870  0.2132 -0.7541  0.4446
 6287SOL    HW224920   5.533   5.271   2.920  1.1746  0.0448 -1.2885
 6287SOL    HW324921   5.515   5.220   2.778 -3.4174 -1.3203 -0.3557
 6287SOL    MW424922   5.508   5.209   2.864 -0.3435 -0.0684 -0.3179
 6288SOL     OW24923   4.035   0.644   3.160 -0.6985  0.1976  0.3072
 6288SOL    HW224924   4.095   0.586   3.112  0.0499 -0.4544  1.9538
 6288SOL    HW324925   3.961   0.588   3.183 -1.4701  0.7317 -0.8031
 6288SOL    MW424926   4.033   0.629   3.157 -0.0271 -0.2651  0.0622
 6289SOL     OW24927   1.187   1.324   6.345 -0.6208  0.2744  0.0809
 6289SOL    HW224928   1.152   1.374   6.271 -2.2493 -1.6641 -0.5426
 6289SOL    HW324929   1.124   1.339   6.416  1.0816  2.3598  1.2680
 6289SOL    MW424930   1.174   1.332   6.345  0.0322 -0.1171  0.3246
 6290SOL     OW24931   5.428   2.802   3.630 -0.1826  0.2985 -0.2275
 6290SOL    HW224932   5.436   2.722   3.579 -1.5869  1.6991 -2.8520
 6290SOL    HW324933   5.334   2.817   3.637  0.0181  0.8770  1.6784
 6290SOL    MW424934   5.417   2.794   3.624 -0.1141  0.1421 -0.6801
 6291SOL     OW24935   5.457   1.532   5.143  0.2037  0.2858  0.0395
 6291SOL    HW224936   5.472   1.609   5.089 -0.1463  0.0087 -0.4507
 6291SOL    HW324937   5.542   1.487   5.144 -0.2981 -0.8377 -2.0562
 6291SOL    MW424938   5.470   1.536   5.136  0.1209  0.3419 -0.2739
 6292SOL     OW24939   5.575   5.835   5.167  0.2573 -0.0478  0.3177
 6292SOL    HW224940   5.519   5.889   5.224 -0.0481  0.1871 -0.1963
 6292SOL    HW324941   5.656   5.825   5.216 -0.1946 -0.3077  1.0378
 6292SOL    MW424942   5.578   5.841   5.181 -0.1151  0.4524 -1.0095
 6293SOL     OW24943   5.788   5.211   5.423  0.9275  0.1273  0.0854
 6293SOL    HW224944   5.760   5.302   5.410  1.4117  0.4345  1.0657
 6293SOL    HW324945   5.874   5.206   5.382  0.8895  0.1106  0.0090
 6293SOL    MW424946   5.796   5.222   5.416  0.2722 -0.0099 -0.6527
 6294SOL     OW24947   0.293   4.342   6.288 -0.2869 -0.3548 -0.3202
 6294SOL    HW224948   0.324   4.257   6.256 -1.4001 -0.4700 -1.1503
 6294SOL    HW324949   0.364   4.402   6.267  0.7457 -1.1539  0.7567
 6294SOL    MW424950   0.306   4.338   6.281 -0.2572 -0.6982 -0.3010
 6295SOL     OW24951   0.216   6.218   0.283 -0.4289  0.0722 -0.7292
 6295SOL    HW224952   0.161   6.295   0.276  0.1544  0.8295  1.8995
 6295SOL    HW324953   0.306   6.252   0.280 -0.1521 -0.2360  1.7850
 6295SOL    MW424954   0.221   6.232   0.282  0.4455  0.3457 -0.3405
 6296SOL     OW24955   3.151   3.668   0.571  0.1609  0.2409  0.0917
 6296SOL    HW224956   3.185   3.601   0.512  0.3409 -1.0162  1.5690
 6296SOL    HW324957   3.063   3.686   0.539  0.1134 -0.7052 -0.3355
 6296SOL    MW424958   3.144   3.662   0.559  0.7760  0.3606 -0.2693
 6297SOL     OW24959   1.942   5.971   2.492  0.3740  0.0995 -0.2956
 6297SOL    HW224960   1.999   5.951   2.566  0.1277  2.3270  0.5724
 6297SOL    HW324961   1.857   5.932   2.515  0.5759 -0.0993  0.1131
 6297SOL    MW424962   1.938   5.963   2.505 -0.0380  1.0022 -0.7828
 6298SOL     OW24963   0.870   2.376   2.262 -0.2322 -0.1475 -0.0676
 6298SOL    HW224964   0.936   2.307   2.276  1.0269  0.5568 -2.1837
 6298SOL    HW324965   0.802   2.333   2.210 -0.0793 -0.1334 -0.2797
 6298SOL    MW424966   0.870   2.361   2.257 -0.2637 -0.1006 -0.2853
 6299SOL     OW24967   5.074   4.007   2.998 -0.3228 -0.0146  0.3536
 6299SOL    HW224968   5.170   4.017   2.999 -0.3674  0.4488  0.4726
 6299SOL    HW324969   5.049   4.012   3.091 -0.4786  0.0743  0.3070
 6299SOL    MW424970   5.083   4.009   3.011 -0.2356 -0.3342  0.0117
 6300SOL     OW24971   3.434   5.837   2.753 -0.5087 -0.1852 -0.1115
 6300SOL    HW224972   3.359   5.891   2.729 -1.1944 -1.2442 -0.3826
 6300SOL    HW324973   3.454   5.787   2.673 -0.4005 -0.9381  0.3792
 6300SOL    MW424974   3.427   5.838   2.739  0.2590 -0.2248  0.3394
 6301SOL     OW24975   4.542   5.139   5.879  0.1232  0.1293 -0.3254
 6301SOL    HW224976   4.624   5.100   5.909  1.4808  2.6642 -0.4071
 6301SOL    HW324977   4.495   5.161   5.959  1.2687  1.9647 -0.0861
 6301SOL    MW424978   4.547   5.137   5.894 -0.0096 -0.0510  0.8026
 6302SOL     OW24979   4.105   4.480   5.730 -0.3516 -0.7160  0.3124
 6302SOL    HW224980   4.051   4.557   5.714  0.7827 -0.1499 -1.0904
 6302SOL    HW324981   4.195   4.513   5.724  0.1524 -2.0529  0.2038
 6302SOL    MW424982   4.110   4.494   5.727  0.2088 -0.1284  0.7259
 6303SOL     OW24983   4.467   3.055   4.501 -0.1214  0.0889 -0.1787
 6303SOL    HW224984   4.505   3.056   4.413 -0.9357 -1.8693 -0.6202
 6303SOL    HW324985   4.537   3.020   4.556 -0.4246 -1.1797 -0.5557
 6303SOL    MW424986   4.481   3.050   4.496 -0.1685 -0.5499 -0.1107
 6304SOL     OW24987   0.830   1.331   3.689  0.2630  0.1698 -0.1442
 6304SOL    HW224988   0.744   1.353   3.726  0.3458 -0.3848  0.3929
 6304SOL    HW324989   0.811   1.313   3.597 -0.1292  0.4479 -0.1249
 6304SOL    MW424990   0.816   1.332   3.682 -0.1692  0.0687  0.2484
 6305SOL     OW24991   5.185   4.343   2.050 -0.4555  0.0445  0.2628
 6305SOL    HW224992   5.108   4.326   2.104  1.1390  2.8327  3.7965
 6305SOL    HW324993   5.236   4.262   2.056 -0.5401  0.0915  2.7426
 6305SOL    MW424994   5.181   4.330   2.058 -0.4019 -0.1872 -0.0558
 6306SOL     OW24995   5.965   0.751   2.239 -0.2242  0.3601 -0.0216
 6306SOL    HW224996   5.874   0.734   2.218 -0.0237 -0.0677 -0.5661
 6306SOL    HW324997   5.964   0.830   2.293 -1.0807 -0.5925  1.4364
 6306SOL    MW424998   5.953   0.759   2.244  0.2510 -0.5474 -0.7390
 6307SOL     OW24999   2.327   1.362   6.067  0.0786  0.1688  0.5679
 6307SOL    HW225000   2.327   1.457   6.058 -0.9199  0.0955 -0.3770
 6307SOL    HW325001   2.414   1.335   6.039 -0.2929  0.6451 -1.1193
 6307SOL    MW425002   2.338   1.371   6.062 -0.0275 -0.2362  0.1838
 6308SOL     OW25003   0.446   4.560   0.537  0.0011 -0.4191 -0.1348
 6308SOL    HW225004   0.390   4.597   0.606  1.0679  0.7545  0.1277
 6308SOL    HW325005   0.510   4.628   0.519  0.2136 -1.0123 -1.7646
 6308SOL    MW425006   0.447   4.573   0.544 -0.1092 -0.1801 -0.1616
 6309SOL     OW25007   3.129   0.668   0.910  0.0426 -0.2434 -0.6389
 6309SOL    HW225008   3.078   0.742   0.877 -1.5263 -1.7441 -1.7945
 6309SOL    HW325009   3.111   0.597   0.848  1.6399 -1.5582  0.3079
 6309SOL    MW425010   3.120   0.668   0.897 -0.6895 -0.1441  0.1436
 6310SOL     OW25011   0.044   3.895   3.717 -0.2019 -0.2857  0.2585
 6310SOL    HW225012  -0.047   3.896   3.748  0.3601 -0.8007  2.0362
 6310SOL    HW325013   0.087   3.962   3.769  0.8701 -1.4668  0.9558
 6310SOL    MW425014   0.038   3.904   3.728 -0.5556 -0.2158 -0.5038
 6311SOL     OW25015   0.960   5.785   3.383  0.1137  0.2914  0.0375
 6311SOL    HW225016   1.046   5.757   3.413 -0.3948 -0.0766  1.1929
 6311SOL    HW325017   0.902   5.770   3.457 -0.6522  2.0996 -0.1503
 6311SOL    MW425018   0.964   5.779   3.396  0.2075  0.6740 -0.5181
 6312SOL     OW25019   1.870   0.571   2.708  0.2117 -0.8860 -0.2989
 6312SOL    HW225020   1.918   0.652   2.728  1.8788 -1.6226 -1.1161
 6312SOL    HW325021   1.811   0.559   2.782  0.3577  0.7463  0.1323
 6312SOL    MW425022   1.868   0.580   2.720  0.2436 -0.0646 -0.0105
 6313SOL     OW25023   5.286   1.347   2.848 -0.0634  0.3457  0.1801
 6313SOL    HW225024   5.380   1.360   2.862  0.0181  1.3773 -1.0992
 6313SOL    HW325025   5.246   1.424   2.888 -0.2183  0.7344 -0.7076
 6313SOL    MW425026   5.293   1.359   2.855 -0.0227  0.0560  0.3631
 6314SOL     OW25027   0.621   0.430   0.953 -0.0567  0.3193 -0.0150
 6314SOL    HW225028   0.534   0.469   0.962  0.7214  2.1041  0.1466
 6314SOL    HW325029   0.682   0.499   0.980  1.4308 -0.8372 -0.2529
 6314SOL    MW425030   0.618   0.444   0.958  0.4590  0.4362 -0.0442
 6315SOL     OW25031   1.613   0.543   5.021  0.2639  0.7204 -0.5836
 6315SOL    HW225032   1.559   0.614   4.986 -0.7426 -0.1893 -0.9591
 6315SOL    HW325033   1.699   0.555   4.981 -0.8266 -0.2844 -3.5123
 6315SOL    MW425034   1.617   0.554   5.011  0.1940  0.6271 -0.1590
 6316SOL     OW25035   5.838   0.100   3.071 -0.4351 -0.4286 -0.0869
 6316SOL    HW225036   5.821   0.190   3.097 -0.8880 -0.0425 -1.6478
 6316SOL    HW325037   5.908   0.105   3.007  0.1865 -1.2920  0.4912
 6316SOL    MW425038   5.845   0.112   3.066 -0.0411 -0.0695 -0.0308
 6317SOL     OW25039   2.075   4.337   3.450 -0.3614  0.4644  0.2326
 6317SOL    HW225040   2.038   4.256   3.416 -3.7167  1.4069  1.2720
 6317SOL    HW325041   2.135   4.309   3.519 -0.3633 -1.1535 -0.3824
 6317SOL    MW425042   2.078   4.323   3.455 -0.3024  0.0923 -0.1841
 6318SOL     OW25043   3.951   1.989   3.059 -0.3685  0.0462  0.0935
 6318SOL    HW225044   3.976   2.082   3.060 -1.6896  0.4379 -0.6402
 6318SOL    HW325045   3.917   1.972   3.147 -0.6126  0.4082  0.0722
 6318SOL    MW425046   3.950   1.999   3.071 -0.1138  0.2478 -0.7034
 6319SOL     OW25047   1.857   4.874   6.074  0.0806 -0.6829  0.5848
 6319SOL    HW225048   1.785   4.919   6.118 -0.8582 -0.7188 -0.8593
 6319SOL    HW325049   1.852   4.783   6.105  0.2957 -0.4268  1.4166
 6319SOL    MW425050   1.847   4.868   6.084  0.0229 -0.3750  0.1322
 6320SOL     OW25051   0.609   2.834   5.732  0.2030 -0.0484  0.3379
 6320SOL    HW225052   0.532   2.782   5.755  0.0608  0.2585  0.5597
 6320SOL    HW325053   0.662   2.775   5.678  0.8437 -1.0078  1.9458
 6320SOL    MW425054   0.606   2.819   5.728 -0.0160  0.1502 -0.6447
 6321SOL     OW25055   3.984   4.457   1.234  0.4276  0.3799  0.2116
 6321SOL    HW225056   4.055   4.493   1.181 -0.7155  0.1776 -1.5065
 6321SOL    HW325057   4.024   4.382   1.279  1.0066 -0.5818 -1.7930
 6321SOL    MW425058   3.999   4.452   1.233  0.5217  0.7005 -0.3183
 6322SOL     OW25059   2.565   0.169   2.726 -0.2974 -0.6704 -0.4416
 6322SOL    HW225060   2.535   0.087   2.685  0.0677 -0.0171 -2.0859
 6322SOL    HW325061   2.617   0.140   2.802 -0.6477 -1.9394 -0.6634
 6322SOL    MW425062   2.568   0.154   2.731 -0.0249  0.0839 -0.0889
 6323SOL     OW25063   5.555   0.117   3.463  0.4752 -0.0723  0.4444
 6323SOL    HW225064   5.638   0.077   3.488 -0.1364 -0.1732  2.4819
 6323SOL    HW325065   5.569   0.211   3.471  0.3244 -0.0987  1.0121
 6323SOL    MW425066   5.568   0.124   3.467 -0.2084  0.0827 -0.2461
 6324SOL     OW25067   3.806   0.197   4.274 -0.0974  0.2402 -0.5277
 6324SOL    HW225068   3.711   0.190   4.283 -0.3629  2.8160 -0.5760
 6324SOL    HW325069   3.825   0.162   4.187 -1.0884  0.2514 -0.7596
 6324SOL    MW425070   3.796   0.192   4.264 -0.0071 -0.1966  0.1239
 6325SOL     OW25071   1.007   6.334   0.843  0.5239 -0.3151 -0.1176
 6325SOL    HW225072   1.061   6.403   0.882  0.8947 -0.9923  0.5963
 6325SOL    HW325073   0.949   6.381   0.783  0.8891  0.5957  0.2099
 6325SOL    MW425074   1.007   6.350   0.840 -0.0178 -0.0046  0.4197
 6326SOL     OW25075   3.331   4.621   3.104  0.5714  0.2426 -0.4147
 6326SOL    HW225076   3.303   4.568   3.178  0.5097  1.6219  0.5766
 6326SOL    HW325077   3.258   4.617   3.042  0.0695  0.1601  0.1790
 6326SOL    MW425078   3.318   4.614   3.105 -0.0473  0.5997 -0.5831
 6327SOL     OW25079   1.157   6.106   0.878  0.2449  0.0448 -0.0282
 6327SOL    HW225080   1.119   6.020   0.862  0.7922  0.0050 -1.2711
 6327SOL    HW325081   1.113   6.163   0.814  2.1129  0.0213 -1.4134
 6327SOL    MW425082   1.146   6.102   0.867 -0.3826 -0.7921  0.6220
 6328SOL     OW25083   3.271   0.278   1.369  0.2713  0.3202 -0.3037
 6328SOL    HW225084   3.192   0.225   1.376  1.5359 -1.9441 -1.8648
 6328SOL    HW325085   3.252   0.356   1.421 -2.3340 -0.8747  0.7310
 6328SOL    MW425086   3.258   0.281   1.377 -0.0561 -0.5516 -0.1754
 6329SOL     OW25087   5.658   2.303   2.491  0.5762 -0.1686  0.6237
 6329SOL    HW225088   5.581   2.253   2.461  0.1645  0.6885  0.2132
 6329SOL    HW325089   5.647   2.389   2.452  2.4845 -0.4269 -0.6377
 6329SOL    MW425090   5.646   2.307   2.482 -0.5126  0.5033 -0.3696
 6330SOL     OW25091   1.657   2.747   0.170  0.1841 -0.0157  0.3981
 6330SOL    HW225092   1.586   2.685   0.163  1.2491 -1.1279 -1.1423
 6330SOL    HW325093   1.615   2.830   0.195 -1.3690 -1.0784  1.4355
 6330SOL    MW425094   1.642   2.750   0.172 -0.3415  0.3263 -0.1972
 6331SOL     OW25095   2.925   4.686   4.560 -0.2604 -0.6698  0.0102
 6331SOL    HW225096   2.967   4.663   4.643 -0.7561  1.1246  0.8031
 6331SOL    HW325097   2.988   4.742   4.516 -1.0303  0.5380  0.3877
 6331SOL    MW425098   2.939   4.690   4.565  1.0429  0.1511 -0.2649
 6332SOL     OW25099   1.686   4.561   2.921 -0.0680 -0.1533 -0.1836
 6332SOL    HW225100   1.666   4.538   2.830 -0.4062 -1.4626  0.1859
 6332SOL    HW325101   1.660   4.483   2.970 -1.2727  1.0819  1.2031
 6332SOL    MW425102   1.680   4.547   2.915  0.1609  0.0993  0.2700
 6333SOL     OW25103   3.264   2.665   2.636 -0.2963  0.7835  0.2437
 6333SOL    HW225104   3.257   2.611   2.557  0.2229 -0.2607  0.8968
 6333SOL    HW325105   3.193   2.635   2.692 -1.0187  1.9147 -0.0360
 6333SOL    MW425106   3.254   2.654   2.633  0.1347 -0.0594 -0.1590
 6334SOL     OW25107   1.591   5.515   0.613 -0.5237  0.1419 -0.0541
 6334SOL    HW225108   1.684   5.536   0.608  0.4851 -3.3592  1.1923
 6334SOL    HW325109   1.569   5.484   0.525  0.1180 -1.0624  0.1886
 6334SOL    MW425110   1.601   5.514   0.601 -0.2505  0.5322 -0.6584
 6335SOL     OW25111   5.086   5.493   5.887  0.0976 -0.0474  0.3736
 6335SOL    HW225112   5.177   5.522   5.898 -0.4231  1.2837  1.4441
 6335SOL    HW325113   5.047   5.558   5.828  0.0179 -1.0493 -0.7072
 6335SOL    MW425114   5.093   5.506   5.881  0.1515 -0.3956 -0.0413
 6336SOL     OW25115   0.305   5.424   3.726 -0.0863  0.0676 -0.1245
 6336SOL    HW225116   0.250   5.465   3.793 -1.9670 -1.9831 -0.2869
 6336SOL    HW325117   0.387   5.404   3.771 -0.9874 -0.4569  1.3489
 6336SOL    MW425118   0.309   5.427   3.741 -0.0271 -0.9657  0.4002
 6337SOL     OW25119   1.792   2.808   2.155 -0.5528 -0.0204 -0.4429
 6337SOL    HW225120   1.721   2.749   2.181 -1.4236  1.6000  1.0357
 6337SOL    HW325121   1.852   2.808   2.229 -0.2781  0.5313 -0.6575
 6337SOL    MW425122   1.790   2.800   2.168  0.5881  0.5010 -0.6810
 6338SOL     OW25123   0.967   3.687   3.357 -0.0228  0.4734  0.1877
 6338SOL    HW225124   0.916   3.746   3.301 -2.0490 -0.4931  0.8917
 6338SOL    HW325125   0.978   3.608   3.305  0.0093  0.3710  0.3491
 6338SOL    MW425126   0.961   3.685   3.343 -0.2819 -0.2280 -0.2565
 6339SOL     OW25127   1.575   0.705   2.597 -0.6955 -0.5319  0.0357
 6339SOL    HW225128   1.519   0.732   2.525 -1.0014 -1.6962 -0.1748
 6339SOL    HW325129   1.614   0.787   2.629 -2.0142  0.2212 -0.2122
 6339SOL    MW425130   1.573   0.719   2.592 -0.3580 -0.2629  1.0607
 6340SOL     OW25131   5.035   3.155   2.090 -0.0230 -0.5172  0.8128
 6340SOL    HW225132   4.968   3.186   2.150 -0.1592  0.8748 -0.0064
 6340SOL    HW325133   5.116   3.154   2.141 -0.1519  0.5657  1.0561
 6340SOL    MW425134   5.037   3.159   2.104 -0.2568  0.1118 -0.1566
 6341SOL     OW25135   4.075   6.214   4.236 -0.4533 -0.7097 -0.3502
 6341SOL    HW225136   4.000   6.262   4.271 -0.0637 -0.6240  0.3832
 6341SOL    HW325137   4.139   6.283   4.215 -1.3752 -0.5589 -3.0837
 6341SOL    MW425138   4.074   6.230   4.238 -0.4451 -0.3020  0.2749
 6342SOL     OW25139   2.992   2.755   2.483 -0.5663 -0.4059 -0.6030
 6342SOL    HW225140   2.998   2.731   2.575  0.6895  0.6123 -0.3867
 6342SOL    HW325141   2.899   2.750   2.462 -0.7149 -2.0093  0.3300
 6342SOL    MW425142   2.980   2.751   2.492  0.1704 -0.0817  0.0870
 6343SOL     OW25143   1.736   5.154   3.804 -0.4023 -0.1432 -0.2319
 6343SOL    HW225144   1.767   5.067   3.828  0.2932 -0.2300 -1.3992
 6343SOL    HW325145   1.685   5.183   3.880  0.3118 -1.0951  0.6313
 6343SOL    MW425146   1.733   5.146   3.817 -0.4914 -0.1697 -0.1316
 6344SOL     OW25147   0.829   4.930   4.840  0.7711 -0.8640  0.1367
 6344SOL    HW225148   0.810   4.934   4.934 -0.6540 -1.9767 -0.0616
 6344SOL    HW325149   0.894   4.861   4.831 -0.0071 -1.6231  0.2081
 6344SOL    MW425150   0.835   4.922   4.851 -0.0483  0.2161 -0.1580
 6345SOL     OW25151   0.998   5.314   2.383  0.2280 -0.0776  0.4037
 6345SOL    HW225152   0.953   5.263   2.450  1.8030 -0.8455  0.9440
 6345SOL    HW325153   0.989   5.262   2.303 -0.1292 -0.0600  0.4341
 6345SOL    MW425154   0.991   5.301   2.381 -0.1998  0.4239  0.1175
 6346SOL     OW25155   0.297   1.547   3.724 -0.2501 -0.1522 -0.0251
 6346SOL    HW225156   0.376   1.499   3.699  1.7720  2.1437  1.5185
 6346SOL    HW325157   0.227   1.506   3.673  1.7663 -2.7892 -0.8999
 6346SOL    MW425158   0.298   1.535   3.714 -0.4156  0.9228 -0.1911
 6347SOL     OW25159   2.735   4.732   2.507 -0.1675  0.2805 -0.4211
 6347SOL    HW225160   2.712   4.808   2.453  2.2626  1.1030 -0.4085
 6347SOL    HW325161   2.790   4.679   2.450  1.5038  0.5951  0.8454
 6347SOL    MW425162   2.739   4.735   2.492  0.3450 -0.8326 -0.1575
 6348SOL     OW25163   4.232   6.222   6.392 -0.4170 -0.3549 -0.2100
 6348SOL    HW225164   4.323   6.248   6.379 -0.3614 -0.9709 -1.1362
 6348SOL    HW325165   4.183   6.303   6.386  0.3081  0.5992  3.7526
 6348SOL    MW425166   4.238   6.236   6.390  0.7925  0.6149 -0.0845
 6349SOL     OW25167   3.243   1.827   1.288 -0.0715 -0.5295 -0.0078
 6349SOL    HW225168   3.176   1.785   1.234 -0.5591  0.5434 -0.2631
 6349SOL    HW325169   3.199   1.849   1.370  0.3635 -1.1259  0.3929
 6349SOL    MW425170   3.229   1.825   1.292  0.2013 -0.1512 -0.4026
 6350SOL     OW25171   4.154   3.046   0.396 -0.1215 -0.0316 -0.6261
 6350SOL    HW225172   4.178   3.048   0.489  1.1830 -0.2835 -0.9445
 6350SOL    HW325173   4.064   3.013   0.396 -1.0845  2.2587  0.7137
 6350SOL    MW425174   4.145   3.042   0.408  0.1300 -0.4079  0.1342
 6351SOL     OW25175   5.605   5.497   0.817 -0.0248 -0.2106 -0.0532
 6351SOL    HW225176   5.524   5.450   0.798 -0.2597  0.9847 -2.4404
 6351SOL    HW325177   5.674   5.433   0.798 -0.3278 -1.3684  2.3975
 6351SOL    MW425178   5.604   5.483   0.812 -0.2973  0.2141 -0.3940
 6352SOL     OW25179   2.881   5.082   4.554 -0.4199 -0.1185 -0.4853
 6352SOL    HW225180   2.887   5.158   4.495 -1.8861 -0.3230 -0.9314
 6352SOL    HW325181   2.843   5.013   4.500 -1.3766 -0.4456  0.5799
 6352SOL    MW425182   2.877   5.083   4.539  0.0142 -0.1544  0.3227
 6353SOL     OW25183   2.592   3.824   4.674  0.0812 -0.4337 -0.3355
 6353SOL    HW225184   2.680   3.859   4.659 -0.4176  0.3979 -1.5754
 6353SOL    HW325185   2.553   3.884   4.738  0.3506 -0.7012  0.0832
 6353SOL    MW425186   2.599   3.837   4.680  0.6048 -0.1046 -0.0815
 6354SOL     OW25187   0.995   5.281   0.226  0.3817  0.0299  0.1587
 6354SOL    HW225188   0.942   5.206   0.198  0.3557 -0.4379  1.3733
 6354SOL    HW325189   0.933   5.354   0.226 -0.2073 -0.4310  1.1732
 6354SOL    MW425190   0.980   5.281   0.222 -0.4269  0.1939 -0.1469
 6355SOL     OW25191   2.268   3.870   6.122 -0.0408 -0.5665 -0.1091
 6355SOL    HW225192   2.193   3.912   6.080  0.5866  1.2151  0.4306
 6355SOL    HW325193   2.261   3.778   6.098 -0.8756  0.0051 -2.3526
 6355SOL    MW425194   2.257   3.863   6.113 -0.6444 -0.2153  0.8647
 6356SOL     OW25195   6.301   3.006   3.143 -0.2669 -0.0350  0.5829
 6356SOL    HW225196   6.222   2.981   3.190 -0.1491 -1.8571 -0.1034
 6356SOL    HW325197   6.362   2.935   3.159  2.3260  2.5353  3.3628
 6356SOL    MW425198   6.299   2.993   3.151 -0.2314 -0.0138 -0.3977
 6357SOL     OW25199   2.351   1.779   1.763 -0.3813 -0.3859 -0.4929
 6357SOL    HW225200   2.408   1.856   1.771 -0.5287 -0.5093  3.2555
 6357SOL    HW325201   2.298   1.797   1.686  1.6985  1.7890 -1.5591
 6357SOL    MW425202   2.352   1.792   1.754  0.4645 -0.4107 -0.3374
 6358SOL     OW25203   1.921   5.840   1.612 -0.0280 -0.3377  0.0763
 6358SOL    HW225204   1.936   5.745   1.605  2.4051 -0.0314  0.0170
 6358SOL    HW325205   1.939   5.861   1.703 -0.2394  0.0962  0.0191
 6358SOL    MW425206   1.926   5.830   1.623  0.3207 -1.1441  0.5287
 6359SOL     OW25207   5.822   0.761   0.237  0.5171  0.1068  0.6226
 6359SOL    HW225208   5.850   0.701   0.306  3.4412  1.7470  0.9922
 6359SOL    HW325209   5.783   0.835   0.283 -0.2078 -0.0853  0.3313
 6359SOL    MW425210   5.820   0.762   0.252  0.0986  0.7060  0.0569
 6360SOL     OW25211   3.328   5.194   4.554 -0.3809  0.3042  0.2796
 6360SOL    HW225212   3.402   5.187   4.616  0.5431 -0.2715 -0.8550
 6360SOL    HW325213   3.343   5.276   4.509 -0.7966  0.4927  0.4794
 6360SOL    MW425214   3.340   5.204   4.556  0.1878 -0.5936 -0.3282
 6361SOL     OW25215   5.462   5.165   5.406  0.2903 -0.4375 -0.4335
 6361SOL    HW225216   5.504   5.147   5.490 -0.5604 -0.8928 -0.0975
 6361SOL    HW325217   5.375   5.197   5.429 -0.5257 -2.0247 -1.1473
 6361SOL    MW425218   5.456   5.167   5.420  0.1418 -0.2597  0.1311
 6362SOL     OW25219   5.712   3.089   5.083 -0.4727 -0.1351  0.2686
 6362SOL    HW225220   5.721   3.153   5.013 -1.1282 -1.3091 -0.9460
 6362SOL    HW325221   5.692   3.141   5.161 -2.6410  1.0725 -0.9854
 6362SOL    MW425222   5.710   3.104   5.084 -0.3210 -0.1035 -0.8889
 6363SOL     OW25223   4.385   4.857   0.417  0.0806 -0.4387  0.2852
 6363SOL    HW225224   4.330   4.855   0.339  0.0140  0.9674  0.2655
 6363SOL    HW325225   4.475   4.851   0.384  0.0050 -1.5582  0.2382
 6363SOL    MW425226   4.390   4.856   0.403 -0.4067 -0.1096  0.2861
 6364SOL     OW25227   5.482   4.709   2.487  0.8712 -0.1836 -0.0966
 6364SOL    HW225228   5.414   4.642   2.492  0.9918 -0.4670 -1.6925
 6364SOL    HW325229   5.476   4.756   2.570  1.0062 -2.3499  1.2072
 6364SOL    MW425230   5.472   4.706   2.499 -0.3997  0.0791  0.1320
 6365SOL     OW25231   2.253   4.627   4.103  0.3764  0.6472 -0.2291
 6365SOL    HW225232   2.265   4.671   4.187 -0.5215 -0.7737  0.6879
 6365SOL    HW325233   2.188   4.681   4.058  1.6780  2.0466 -0.5276
 6365SOL    MW425234   2.246   4.640   4.108  0.4899  0.4155  0.1977
 6366SOL     OW25235   1.426   5.150   2.844 -0.3697 -0.0044 -0.6089
 6366SOL    HW225236   1.457   5.073   2.795  0.3840  0.3378 -0.6896
 6366SOL    HW325237   1.387   5.206   2.777  1.7119  1.0002 -1.0691
 6366SOL    MW425238   1.425   5.147   2.828 -0.2135  0.0508  0.3064
 6367SOL     OW25239   2.239   1.946   1.319 -0.6460 -0.1036 -0.5191
 6367SOL    HW225240   2.255   1.981   1.231  0.7605 -2.1748 -1.1614
 6367SOL    HW325241   2.146   1.965   1.335 -1.6303 -1.6814 -3.4741
 6367SOL    MW425242   2.228   1.953   1.309 -0.2186  0.1414 -1.0124
 6368SOL     OW25243   1.462   0.606   1.554 -0.1815 -0.0890 -0.0143
 6368SOL    HW225244   1.371   0.634   1.555  0.3874  2.0085  1.8946
 6368SOL    HW325245   1.509   0.677   1.598  2.2833 -1.3938 -0.3877
 6368SOL    MW425246   1.456   0.619   1.560 -0.0933 -0.1607 -0.5107
 6369SOL     OW25247   4.885   0.281   2.520 -0.1839  0.1182 -0.1401
 6369SOL    HW225248   4.950   0.219   2.487 -0.0129 -0.3063  0.9659
 6369SOL    HW325249   4.812   0.274   2.459  0.1005 -0.6796 -0.3960
 6369SOL    MW425250   4.884   0.272   2.508 -0.0433  0.4214 -0.2712
 6370SOL     OW25251   0.234   0.498   6.423  0.3630  0.0334 -0.1408
 6370SOL    HW225252   0.148   0.537   6.440 -0.0829 -1.0110  0.0775
 6370SOL    HW325253   0.284   0.515   6.503  1.2089  2.7465 -1.1459
 6370SOL    MW425254   0.229   0.505   6.436 -0.4057 -0.3740  0.5509
 6371SOL     OW25255   6.249   0.104   2.967  0.5036 -0.3008  0.0056
 6371SOL    HW225256   6.185   0.171   2.944  1.4799  0.2336 -1.2784
 6371SOL    HW325257   6.314   0.107   2.896  1.4544 -1.4633  0.7817
 6371SOL    MW425258   6.249   0.113   2.954 -0.1050 -0.3414  0.2748
 6372SOL     OW25259   4.798   5.667   4.352 -0.3060  0.1824 -0.0629
 6372SOL    HW225260   4.837   5.751   4.373 -0.3633  0.9337 -2.6561
 6372SOL    HW325261   4.723   5.660   4.411  0.1660  1.5511  0.7441
 6372SOL    MW425262   4.794   5.677   4.362  0.2446 -0.3195 -0.7451
 6373SOL     OW25263   4.545   5.414   1.763  0.2686  0.6845  0.0538
 6373SOL    HW225264   4.474   5.350   1.754 -1.3413  2.4768 -0.7714
 6373SOL    HW325265   4.572   5.433   1.674 -0.7857  2.6699  0.0950
 6373SOL    MW425266   4.539   5.408   1.750 -0.7375  0.0976  0.7991
 6374SOL     OW25267   4.298   4.155   4.366  0.3795 -0.1750 -0.8167
 6374SOL    HW225268   4.290   4.105   4.285  2.0310 -0.2111 -0.9921
 6374SOL    HW325269   4.339   4.093   4.427 -0.2997  0.0416 -0.1300
 6374SOL    MW425270   4.303   4.140   4.364 -0.5447 -0.1498  0.5285
 6375SOL     OW25271   3.001   3.860   1.784  0.2862 -0.1303  0.3315
 6375SOL    HW225272   2.939   3.793   1.815 -1.4495  0.9981 -0.5819
 6375SOL    HW325273   2.980   3.938   1.836  1.0095  0.2440  0.0711
 6375SOL    MW425274   2.990   3.861   1.795  0.4174 -0.2479  0.2710
 6376SOL     OW25275   2.486   2.298   3.065  0.4065  0.1651 -0.3620
 6376SOL    HW225276   2.550   2.343   3.121 -0.2067 -0.2286  0.6782
 6376SOL    HW325277   2.507   2.205   3.074  0.2779  0.0928 -0.7687
 6376SOL    MW425278   2.497   2.292   3.073 -0.1506  0.4420  0.0691
 6377SOL     OW25279   5.264   6.172   2.052  0.2774  0.6929  0.7601
 6377SOL    HW225280   5.226   6.257   2.074 -0.9240  0.3391  0.1332
 6377SOL    HW325281   5.300   6.183   1.964  1.1566  0.8638  1.1284
 6377SOL    MW425282   5.264   6.184   2.043 -0.4569 -0.5150  0.3282
 6378SOL     OW25283   1.700   2.698   3.743 -0.5445  0.1127 -0.1600
 6378SOL    HW225284   1.774   2.641   3.766 -0.3225  0.2321 -0.5816
 6378SOL    HW325285   1.659   2.655   3.668 -1.4756 -0.4555  0.6396
 6378SOL    MW425286   1.704   2.685   3.736  0.5073 -0.3423 -0.0252
 6379SOL     OW25287   1.405   3.249   4.722 -0.1436 -0.4512  0.3736
 6379SOL    HW225288   1.391   3.298   4.803  2.7331  0.2928  0.5477
 6379SOL    HW325289   1.351   3.171   4.731 -0.2203 -0.1897  2.8342
 6379SOL    MW425290   1.396   3.246   4.734  0.0447 -0.3931 -0.6550
 6380SOL     OW25291   2.874   2.917   2.175  0.0789  0.1757 -0.0161
 6380SOL    HW225292   2.898   2.992   2.230 -1.1065  0.8009 -0.3167
 6380SOL    HW325293   2.817   2.863   2.230 -0.8855  0.6604 -0.5042
 6380SOL    MW425294   2.870   2.920   2.189 -0.5218  0.3385  0.9724
 6381SOL     OW25295   2.676   2.939   2.385 -0.1187 -0.1199 -0.0685
 6381SOL    HW225296   2.674   3.012   2.447 -0.0878 -1.2535  1.3287
 6381SOL    HW325297   2.616   2.964   2.315 -1.0649  0.6974  1.0094
 6381SOL    MW425298   2.668   2.952   2.384  0.1737 -0.0119 -0.1283
 6382SOL     OW25299   4.738   1.698   1.662  0.5995  0.3069  0.0760
 6382SOL    HW225300   4.807   1.763   1.652  1.4410 -0.7433 -1.3588
 6382SOL    HW325301   4.760   1.630   1.598  0.7905 -2.2881  2.6567
 6382SOL    MW425302   4.750   1.698   1.652 -0.1658 -0.4279 -0.1520
 6383SOL     OW25303   1.437   2.064   0.761 -0.1962 -0.2599 -0.1263
 6383SOL    HW225304   1.416   2.120   0.687 -2.9886 -1.1181 -0.0972
 6383SOL    HW325305   1.410   2.113   0.839 -0.8317 -0.8365  0.0316
 6383SOL    MW425306   1.431   2.078   0.762 -0.2273 -1.0330 -0.2680
 6384SOL     OW25307   1.915   6.313   6.310 -0.3086  0.2628 -0.2385
 6384SOL    HW225308   1.892   6.227   6.276 -2.4558  1.4916 -2.1801
 6384SOL    HW325309   2.011   6.318   6.302 -0.3215 -1.2716 -1.7614
 6384SOL    MW425310   1.925   6.302   6.305 -0.0794 -0.3302 -0.2739
 6385SOL     OW25311   4.908   1.812   2.205 -0.1349  0.1494  0.0317
 6385SOL    HW225312   4.909   1.887   2.145 -0.9295  0.4398  0.3698
 6385SOL    HW325313   4.816   1.784   2.206  0.2042 -1.0338 -0.3323
 6385SOL    MW425314   4.896   1.819   2.197 -0.6814  0.0059  0.4369
 6386SOL     OW25315   4.953   0.582   1.942  0.1456 -0.8465  0.3309
 6386SOL    HW225316   4.897   0.512   1.910 -0.4616 -0.1495 -0.1430
 6386SOL    HW325317   4.917   0.605   2.028 -0.4982 -0.1917 -0.1033
 6386SOL    MW425318   4.941   0.576   1.949  0.7320  0.1634  0.4966
 6387SOL     OW25319   0.590   5.207   2.343  0.0909  0.0391 -0.2009
 6387SOL    HW225320   0.516   5.185   2.399 -1.2666 -0.8671 -2.2633
 6387SOL    HW325321   0.573   5.297   2.316 -0.0946 -0.0658 -0.4328
 6387SOL    MW425322   0.578   5.216   2.347 -0.1299 -0.5723 -0.4583
 6388SOL     OW25323   5.184   0.721   2.523  0.4680  0.1622  0.3168
 6388SOL    HW225324   5.144   0.728   2.610 -0.0916 -0.4482  0.1186
 6388SOL    HW325325   5.224   0.634   2.522  1.8685  0.7715  0.5222
 6388SOL    MW425326   5.184   0.710   2.534 -0.1044  0.5066 -0.1203
 6389SOL     OW25327   2.234   1.125   1.460  0.3362 -0.2356  0.6711
 6389SOL    HW225328   2.231   1.220   1.448  0.7399 -0.3599 -0.5368
 6389SOL    HW325329   2.181   1.090   1.388  0.9970 -0.9548  0.5187
 6389SOL    MW425330   2.227   1.133   1.449 -0.4346  0.2935  0.2540
 6390SOL     OW25331   4.781   1.335   2.683 -0.0074 -0.3551  0.0102
 6390SOL    HW225332   4.772   1.420   2.726  2.5639  0.9087 -1.7013
 6390SOL    HW325333   4.723   1.340   2.607 -0.4828 -0.4771  0.3609
 6390SOL    MW425334   4.772   1.347   2.678  0.1733 -0.7288  0.7920
 6391SOL     OW25335   1.299   1.358   1.751 -0.6342  0.1595  0.2628
 6391SOL    HW225336   1.353   1.397   1.819 -1.0454  0.2791  0.5292
 6391SOL    HW325337   1.356   1.295   1.707  0.2235  1.5091 -0.6037
 6391SOL    MW425338   1.314   1.355   1.754  0.2982 -0.0820 -0.1491
 6392SOL     OW25339   3.233   4.098   2.744  0.4889  0.1795 -0.3176
 6392SOL    HW225340   3.229   4.191   2.768 -1.1475  0.1454 -0.3248
 6392SOL    HW325341   3.281   4.097   2.661  0.6793  0.9998 -0.2267
 6392SOL    MW425342   3.239   4.110   2.736 -0.5662  0.2411 -0.7317
 6393SOL     OW25343   3.908   6.122   4.752 -0.1203  0.3213  0.2382
 6393SOL    HW225344   3.825   6.127   4.705 -0.5307  0.2174  0.9388
 6393SOL    HW325345   3.893   6.056   4.820 -0.0544  1.5540  1.5078
 6393SOL    MW425346   3.895   6.114   4.755  0.0427 -0.0390 -0.3193
 6394SOL     OW25347   0.853   0.738   0.095  0.9993 -0.0042  0.1552
 6394SOL    HW225348   0.774   0.737   0.149  0.6387 -0.0616 -0.3652
 6394SOL    HW325349   0.917   0.784   0.148  0.0711  1.7190 -0.1475
 6394SOL    MW425350   0.851   0.744   0.109  0.1029 -0.0915  0.1599
 6395SOL     OW25351   5.555   2.654   0.545 -0.2481 -0.3922  0.1062
 6395SOL    HW225352   5.482   2.672   0.605 -1.2081 -1.0725 -0.8277
 6395SOL    HW325353   5.520   2.676   0.458  0.0941 -2.3072 -0.5469
 6395SOL    MW425354   5.541   2.659   0.542 -0.0860 -0.3232 -0.5099
 6396SOL     OW25355   0.655   2.200   3.739  0.1819 -0.3689  0.3877
 6396SOL    HW225356   0.633   2.214   3.831  0.3295  0.1646  0.3423
 6396SOL    HW325357   0.613   2.116   3.717  1.5189 -1.3441  1.3938
 6396SOL    MW425358   0.647   2.190   3.748 -0.0476  0.4818 -0.7327
 6397SOL     OW25359   3.443   2.635   3.869  0.4408  0.1267 -0.5511
 6397SOL    HW225360   3.395   2.704   3.916 -0.9780  0.7151 -2.7307
 6397SOL    HW325361   3.532   2.669   3.863  0.7904 -0.1565  1.9884
 6397SOL    MW425362   3.448   2.649   3.874  0.0275 -0.3281  0.0665
 6398SOL     OW25363   5.944   5.810   4.073  0.5716 -0.3261 -0.2488
 6398SOL    HW225364   5.853   5.804   4.044  0.6884 -0.7461 -0.5269
 6398SOL    HW325365   5.958   5.904   4.086 -0.4298 -0.3891  1.5347
 6398SOL    MW425366   5.934   5.822   4.071  0.1363  0.0719  0.1826
 6399SOL     OW25367   1.269   0.697   3.368 -0.3305 -0.1397 -0.1865
 6399SOL    HW225368   1.351   0.744   3.356  0.0161 -0.6835  0.0276
 6399SOL    HW325369   1.231   0.693   3.280 -0.1188  0.0950 -0.2892
 6399SOL    MW425370   1.274   0.703   3.355 -0.0870 -0.7312 -0.2547
 6400SOL     OW25371   0.423   0.385   2.657 -0.2343  0.0375 -0.0830
 6400SOL    HW225372   0.367   0.374   2.580 -1.3748  0.3819  0.6647
 6400SOL    HW325373   0.482   0.457   2.634  0.2019 -0.6053 -1.0388
 6400SOL    MW425374   0.423   0.393   2.644 -0.2127 -0.4282 -0.0257
 6401SOL     OW25375   0.596   2.029   0.755  0.2235  0.5973 -0.0121
 6401SOL    HW225376   0.612   2.124   0.756  0.5356  0.5610 -1.1441
 6401SOL    HW325377   0.589   2.006   0.663 -4.1819  0.2005  0.2106
 6401SOL    MW425378   0.597   2.039   0.743  0.2172  0.3618  0.0684
 6402SOL     OW25379   2.075   2.786   2.287  0.2897  0.2108  0.4024
 6402SOL    HW225380   2.045   2.865   2.332 -0.4788  0.6365 -0.7773
 6402SOL    HW325381   2.117   2.734   2.354  0.8108  1.6210  1.2198
 6402SOL    MW425382   2.076   2.790   2.302  0.6888  0.4974  0.3526
 6403SOL     OW25383   3.018   0.521   6.244 -0.2088 -0.3618 -0.1868
 6403SOL    HW225384   3.069   0.468   6.304  1.0239  0.6725 -0.2659
 6403SOL    HW325385   2.947   0.557   6.298  0.4036 -0.1063  0.4727
 6403SOL    MW425386   3.016   0.519   6.259  0.0410 -0.2552  0.0408
 6404SOL     OW25387   4.383   4.773   5.095 -0.5905 -0.0746  0.1650
 6404SOL    HW225388   4.406   4.750   5.185  0.5311  0.3013 -0.0115
 6404SOL    HW325389   4.458   4.823   5.063 -0.9016 -0.3411 -1.0340
 6404SOL    MW425390   4.396   4.777   5.103 -0.0114  0.4384  0.0260
 6405SOL     OW25391   3.380   2.254   2.139 -0.1509 -0.2026  0.4872
 6405SOL    HW225392   3.449   2.251   2.074 -0.0641  0.6122  0.5337
 6405SOL    HW325393   3.338   2.167   2.134 -0.0413 -0.2067 -0.5239
 6405SOL    MW425394   3.383   2.242   2.130  0.0808  0.6880 -0.0735
 6406SOL     OW25395   0.176   4.137   2.736 -0.1225  0.1140 -0.1006
 6406SOL    HW225396   0.223   4.119   2.655 -1.9505 -0.0973 -1.1747
 6406SOL    HW325397   0.164   4.051   2.777  2.2983  0.3877  1.3316
 6406SOL    MW425398   0.180   4.123   2.731  0.2397  0.1008 -0.1040
 6407SOL     OW25399   2.927   3.369   1.105  0.1237  0.2926  0.3863
 6407SOL    HW225400   2.958   3.313   1.033 -0.3679  1.2703 -0.6149
 6407SOL    HW325401   2.853   3.417   1.068  1.6117  2.9422  0.5937
 6407SOL    MW425402   2.921   3.368   1.091 -0.4419  0.1486 -0.1703
 6408SOL     OW25403   4.448   4.322   3.182  0.1807  0.0900  0.2482
 6408SOL    HW225404   4.383   4.290   3.119 -1.3515  0.6387  1.4622
 6408SOL    HW325405   4.532   4.299   3.145 -0.7262 -0.8792 -1.2880
 6408SOL    MW425406   4.450   4.315   3.169  1.1351  0.3781 -0.3077
 6409SOL     OW25407   5.578   5.260   4.456 -0.1002 -0.4646  0.1168
 6409SOL    HW225408   5.564   5.302   4.371  0.9672  0.5190  0.4105
 6409SOL    HW325409   5.517   5.186   4.456  0.1888 -0.7469 -1.6843
 6409SOL    MW425410   5.568   5.256   4.444 -0.0752 -0.6678 -0.5076
 6410SOL     OW25411   2.188   0.891   0.052  0.1389 -0.0442  0.2079
 6410SOL    HW225412   2.263   0.928   0.005  1.0087 -2.3821 -0.3831
 6410SOL    HW325413   2.200   0.921   0.142  1.9865 -0.5795  0.1908
 6410SOL    MW425414   2.199   0.900   0.058 -0.4257 -0.1040  0.4629
 6411SOL     OW25415   1.824   2.096   0.198  0.1297 -0.1720 -0.0973
 6411SOL    HW225416   1.849   2.187   0.213 -0.4507 -0.0159 -0.0745
 6411SOL    HW325417   1.759   2.078   0.265  1.7565 -1.2584  1.2963
 6411SOL    MW425418   1.819   2.106   0.209 -0.1562 -0.2700  0.2573
 6412SOL     OW25419   5.493   4.255   1.237  0.1364  0.0829  0.1601
 6412SOL    HW225420   5.399   4.268   1.248  0.1085  1.5126 -1.3213
 6412SOL    HW325421   5.501   4.170   1.194 -0.4151 -0.3109  0.8072
 6412SOL    MW425422   5.481   4.246   1.233  0.0390 -0.0407 -0.0034
 6413SOL     OW25423   4.543   4.160   2.440 -0.0498  0.0576 -0.2077
 6413SOL    HW225424   4.577   4.168   2.529 -1.6446  0.6486  0.3835
 6413SOL    HW325425   4.487   4.237   2.428 -2.4780 -1.6410 -0.5052
 6413SOL    MW425426   4.540   4.171   2.450 -0.8042  0.0534 -0.0382
 6414SOL     OW25427   6.276   6.185   2.005 -0.1577 -0.2281 -0.2980
 6414SOL    HW225428   6.214   6.122   1.968  0.7467 -1.6359  0.5033
 6414SOL    HW325429   6.245   6.198   2.095  1.7271 -2.4458  0.7587
 6414SOL    MW425430   6.264   6.179   2.012 -0.0013 -0.0009  0.3550
 6415SOL     OW25431   3.236   6.068   1.717  0.1981  0.3512 -0.0844
 6415SOL    HW225432   3.181   6.026   1.651  0.3755 -0.7660  0.4515
 6415SOL    HW325433   3.177   6.128   1.763 -0.3704 -0.2140 -0.0636
 6415SOL    MW425434   3.221   6.070   1.715  0.0562 -0.2907 -0.1133
 6416SOL     OW25435   5.945   1.406   2.644  0.6754  0.0474  0.3367
 6416SOL    HW225436   5.956   1.415   2.549  0.8563  1.1662  0.4501
 6416SOL    HW325437   5.941   1.312   2.659 -0.3302 -0.1291 -0.8946
 6416SOL    MW425438   5.946   1.395   2.633 -0.4305  0.4216  0.8556
 6417SOL     OW25439   0.243   0.307   3.426 -0.1007 -0.4058 -0.0038
 6417SOL    HW225440   0.279   0.229   3.467  2.0957 -0.3569 -1.6709
 6417SOL    HW325441   0.194   0.275   3.351  1.7291 -0.2030 -1.3447
 6417SOL    MW425442   0.241   0.293   3.422 -0.3670 -0.1783 -0.1846
 6418SOL     OW25443   3.839   4.673   4.838 -0.3668  0.5450  0.0871
 6418SOL    HW225444   3.785   4.749   4.862 -2.2441 -0.8609  0.5271
 6418SOL    HW325445   3.898   4.706   4.771 -0.5977  2.5891  0.8188
 6418SOL    MW425446   3.840   4.688   4.832 -0.0390  1.0281  0.3218
 6419SOL     OW25447   5.493   5.067   4.120  0.2863  0.1541  0.2237
 6419SOL    HW225448   5.429   5.129   4.154 -0.6855 -1.3598  1.2940
 6419SOL    HW325449   5.451   4.982   4.129  0.7901 -0.5680 -2.9893
 6419SOL    MW425450   5.479   5.064   4.126 -0.4675  0.8024  0.6464
 6420SOL     OW25451   3.336   6.323   3.845 -0.0897  0.4539  0.6896
 6420SOL    HW225452   3.320   6.385   3.774 -1.0277 -2.0613 -1.4754
 6420SOL    HW325453   3.419   6.282   3.822  0.1401  0.3679  1.6560
 6420SOL    MW425454   3.345   6.326   3.832  0.1205 -0.0162  0.4126
 6421SOL     OW25455   2.989   5.323   5.936  0.1847 -0.6233  0.2497
 6421SOL    HW225456   2.987   5.383   5.861  0.4685 -0.3013  0.4948
 6421SOL    HW325457   3.010   5.379   6.011  0.7389 -1.0761  0.4374
 6421SOL    MW425458   2.992   5.338   5.936 -0.3094  0.1494 -0.1713
 6422SOL     OW25459   0.360   5.132   4.014  0.1133 -0.4556 -0.3325
 6422SOL    HW225460   0.400   5.056   4.056  2.7659  0.4987 -0.9020
 6422SOL    HW325461   0.284   5.097   3.967 -0.1284 -2.3026  1.3190
 6422SOL    MW425462   0.355   5.117   4.013  0.1567 -0.2715 -0.1266
 6423SOL     OW25463   5.114   0.603   0.398  0.9829 -0.1665 -0.7936
 6423SOL    HW225464   5.139   0.546   0.325 -0.4603  0.5713 -1.9136
 6423SOL    HW325465   5.197   0.622   0.443  1.9588 -0.3412 -2.4431
 6423SOL    MW425466   5.128   0.598   0.394 -0.3714  0.4665 -0.0930
 6424SOL     OW25467   3.218   4.916   4.990  0.1353  0.3921 -0.2055
 6424SOL    HW225468   3.182   4.984   4.933 -0.3220 -2.2818 -3.3618
 6424SOL    HW325469   3.144   4.860   5.011  0.9965 -0.6939  0.0277
 6424SOL    MW425470   3.204   4.918   4.986 -0.6777 -0.0038 -0.4708
 6425SOL     OW25471   1.832   2.198   3.430  0.1139  0.8239 -0.3153
 6425SOL    HW225472   1.895   2.131   3.456 -0.1583 -0.5693 -2.8805
 6425SOL    HW325473   1.747   2.154   3.435 -0.5155  2.1202  1.3203
 6425SOL    MW425474   1.829   2.183   3.434  0.8711  0.0457  0.1153
 6426SOL     OW25475   2.702   3.693   3.487  0.4721 -0.3168  0.4458
 6426SOL    HW225476   2.753   3.701   3.407  0.9977  1.7939  0.9287
 6426SOL    HW325477   2.755   3.637   3.544  0.5673 -0.9924 -0.2894
 6426SOL    MW425478   2.716   3.687   3.484 -0.1693 -0.0796  0.2836
 6427SOL     OW25479   4.015   3.006   4.081 -0.1844 -0.2765  0.3035
 6427SOL    HW225480   4.074   3.034   4.151  0.4049 -0.0939 -0.2573
 6427SOL    HW325481   3.938   3.063   4.090  0.8881  1.4139 -0.6667
 6427SOL    MW425482   4.012   3.017   4.091 -0.5141 -0.1935 -0.5060
 6428SOL     OW25483   2.782   5.404   5.501  0.2479  0.3585 -0.6047
 6428SOL    HW225484   2.831   5.434   5.578  0.6508  1.8380 -1.3817
 6428SOL    HW325485   2.832   5.330   5.468  0.2195 -0.1225  0.3886
 6428SOL    MW425486   2.795   5.399   5.507 -0.2868 -0.4519  0.1556
 6429SOL     OW25487   1.728   5.235   3.173  0.1255 -0.0518 -0.3847
 6429SOL    HW225488   1.741   5.147   3.210 -1.3104 -0.0690  0.1354
 6429SOL    HW325489   1.699   5.219   3.084  0.1988 -0.1007 -0.3997
 6429SOL    MW425490   1.726   5.221   3.166 -0.1666 -0.4535  0.4113
 6430SOL     OW25491   0.948   2.800   5.291 -0.2864  0.9013 -0.1436
 6430SOL    HW225492   0.901   2.831   5.369  2.7198  2.0890  1.3648
 6430SOL    HW325493   0.956   2.877   5.235 -0.9042  0.4672 -0.8531
 6430SOL    MW425494   0.943   2.814   5.294  0.0232  0.2494  0.3811
 6431SOL     OW25495   2.634   4.663   2.756  0.2807 -0.3404  0.4832
 6431SOL    HW225496   2.552   4.616   2.741 -0.2239  1.0378 -1.3669
 6431SOL    HW325497   2.659   4.696   2.670  1.9478  0.6467  1.2947
 6431SOL    MW425498   2.626   4.661   2.743  0.2199  0.0112  0.5743
 6432SOL     OW25499   6.341   6.021   3.386 -0.3022  0.2324 -0.4185
 6432SOL    HW225500   6.382   6.088   3.441  0.6882 -0.4528 -0.2831
 6432SOL    HW325501   6.328   6.063   3.302 -1.1059  1.0542  0.0997
 6432SOL    MW425502   6.345   6.035   3.383 -0.2094 -0.0441 -0.0124
 6433SOL     OW25503   3.093   4.245   4.429 -0.0577  0.1856  0.6813
 6433SOL    HW225504   3.075   4.209   4.515  0.9357 -0.0688  0.7848
 6433SOL    HW325505   3.166   4.306   4.442  0.3182 -0.0969 -0.0331
 6433SOL    MW425506   3.100   4.249   4.442  0.4172  0.5486 -0.0104
 6434SOL     OW25507   4.724   5.058   0.940 -0.0939  0.6676 -0.0704
 6434SOL    HW225508   4.713   5.136   0.995  2.6654  1.5311 -0.5910
 6434SOL    HW325509   4.669   5.074   0.864 -0.4931  1.5445  0.3875
 6434SOL    MW425510   4.716   5.071   0.937 -0.1344 -0.1228 -0.3107
 6435SOL     OW25511   3.143   2.018   2.327 -0.2635 -0.8242 -0.0105
 6435SOL    HW225512   3.198   2.070   2.385 -0.9421  0.1369 -0.2010
 6435SOL    HW325513   3.104   2.083   2.268 -1.4967 -1.4953  0.0455
 6435SOL    MW425514   3.145   2.034   2.327 -0.2239 -0.7319 -0.3035
 6436SOL     OW25515   0.073   3.619   3.338  0.3390  0.5027 -0.1898
 6436SOL    HW225516   0.143   3.554   3.344  1.3162  1.6464  1.7553
 6436SOL    HW325517   0.119   3.702   3.322 -0.4439  1.4042  1.8752
 6436SOL    MW425518   0.088   3.621   3.336 -0.1809 -0.0847 -0.7999
 6437SOL     OW25519   1.737   2.475   5.790 -0.0850 -0.1814  0.0762
 6437SOL    HW225520   1.749   2.479   5.696  1.8241  0.0499  0.2884
 6437SOL    HW325521   1.781   2.553   5.824 -2.0480  0.5566  1.0778
 6437SOL    MW425522   1.745   2.486   5.782 -0.5493 -0.5535  0.2153
 6438SOL     OW25523   2.645   0.326   0.725  0.1157  0.2353  0.4308
 6438SOL    HW225524   2.702   0.281   0.662  0.8664  0.3378  1.0111
 6438SOL    HW325525   2.559   0.288   0.711  0.9818 -2.5791  1.9060
 6438SOL    MW425526   2.641   0.315   0.715 -0.0876  0.1918 -0.3861
 6439SOL     OW25527   1.557   3.017   0.154 -0.1950  0.4912 -0.1925
 6439SOL    HW225528   1.463   2.997   0.151 -0.3553  1.3126 -2.1454
 6439SOL    HW325529   1.565   3.080   0.226 -0.8503 -0.7538  1.0268
 6439SOL    MW425530   1.546   3.023   0.163 -0.2011 -0.6528  0.1425
 6440SOL     OW25531   4.060   4.062   3.367  0.2752  0.3247 -0.2442
 6440SOL    HW225532   3.979   4.098   3.406  1.4661  2.2590  0.6081
 6440SOL    HW325533   4.099   4.010   3.437  0.9122  1.3137  0.1468
 6440SOL    MW425534   4.054   4.060   3.382  0.0150  0.2712 -0.5792
 6441SOL     OW25535   4.341   1.936   0.670  0.6084  0.4714  0.6947
 6441SOL    HW225536   4.325   1.867   0.735  0.7097  0.2920  0.5282
 6441SOL    HW325537   4.430   1.966   0.688  1.0660 -0.3790 -0.1073
 6441SOL    MW425538   4.351   1.931   0.681  0.8051 -0.2381  0.1424
 6442SOL     OW25539   5.855   5.525   5.517 -0.0879 -0.0636 -0.1059
 6442SOL    HW225540   5.929   5.465   5.510  0.2188 -0.0865  2.2655
 6442SOL    HW325541   5.893   5.605   5.555 -1.0440  0.3989 -0.0978
 6442SOL    MW425542   5.870   5.528   5.521 -0.3240 -0.4645  0.2325
 6443SOL     OW25543   1.520   3.682   5.778  0.4387  0.3059 -0.0946
 6443SOL    HW225544   1.604   3.645   5.751  0.4293 -0.3658  0.7665
 6443SOL    HW325545   1.544   3.759   5.831  0.4702  1.0188 -1.1075
 6443SOL    MW425546   1.534   3.688   5.781 -0.1369 -0.3923 -0.1425
 6444SOL     OW25547   0.750   2.229   4.618  0.3776  0.2725 -0.5296
 6444SOL    HW225548   0.699   2.292   4.567  2.1181  0.2856 -2.4050
 6444SOL    HW325549   0.696   2.150   4.619 -0.6291  0.9380 -0.5169
 6444SOL    MW425550   0.736   2.227   4.611 -0.7738  0.3979  0.0811
 6445SOL     OW25551   0.987   2.788   1.406  0.0664 -0.4364 -0.0725
 6445SOL    HW225552   0.973   2.734   1.328  2.7813 -2.4128  0.6627
 6445SOL    HW325553   0.904   2.785   1.453 -1.2395 -0.2153 -2.2140
 6445SOL    MW425554   0.974   2.781   1.402  0.2957 -0.1926 -0.3052
 6446SOL     OW25555   1.449   5.058   5.510 -0.0131 -0.1820 -0.1757
 6446SOL    HW225556   1.430   5.030   5.599  1.2318  0.3424  0.2806
 6446SOL    HW325557   1.485   4.980   5.468 -1.2522 -0.6236 -0.4486
 6446SOL    MW425558   1.451   5.044   5.516  0.1394 -0.0429 -0.0174
 6447SOL     OW25559   5.203   3.583   5.704 -0.3452 -0.2556 -0.3080
 6447SOL    HW225560   5.119   3.628   5.698 -1.4642 -2.1776 -0.1753
 6447SOL    HW325561   5.233   3.575   5.614 -1.3474 -1.3047 -0.5800
 6447SOL    MW425562   5.196   3.588   5.692  0.0835 -0.1268  0.0353
 6448SOL     OW25563   4.698   1.434   1.159  0.1585 -0.1503  0.1118
 6448SOL    HW225564   4.694   1.415   1.065 -0.2435 -0.0656  0.1075
 6448SOL    HW325565   4.623   1.388   1.195  0.8042 -0.8920  0.5240
 6448SOL    MW425566   4.687   1.426   1.151 -0.0437 -1.1352  0.0154
 6449SOL     OW25567   5.238   4.471   4.358  0.5689  0.1385  0.3155
 6449SOL    HW225568   5.206   4.548   4.405  0.2483  0.9638 -1.1836
 6449SOL    HW325569   5.217   4.397   4.415 -1.8601  0.8681  0.4695
 6449SOL    MW425570   5.231   4.471   4.371 -0.1050  0.0203  0.0560
 6450SOL     OW25571   0.137   4.545   4.462  0.0682 -0.4788  0.4590
 6450SOL    HW225572   0.221   4.586   4.478 -0.0493  0.0146 -0.1755
 6450SOL    HW325573   0.158   4.458   4.429  0.3173 -1.0705  2.0770
 6450SOL    MW425574   0.151   4.539   4.460 -0.1188 -0.6469  1.0439
 6451SOL     OW25575   3.907   4.395   6.275 -0.6447  0.3009 -0.1790
 6451SOL    HW225576   3.848   4.444   6.332  0.2621 -0.3791  1.3929
 6451SOL    HW325577   3.908   4.445   6.193 -2.9704  0.6133 -0.0792
 6451SOL    MW425578   3.899   4.408   6.271 -0.3982 -0.0892  0.5530
 6452SOL     OW25579   6.339   0.362   5.755  1.0351 -0.4357  0.3658
 6452SOL    HW225580   6.278   0.360   5.682  0.0864  3.9487  0.7550
 6452SOL    HW325581   6.300   0.304   5.821 -0.0544 -1.5190 -1.1729
 6452SOL    MW425582   6.326   0.354   5.754 -0.1474  0.0615  0.0340
 6453SOL     OW25583   5.970   5.513   0.741 -0.0282  0.2864 -0.3198
 6453SOL    HW225584   5.913   5.482   0.672 -0.4355  0.3034  0.0040
 6453SOL    HW325585   6.048   5.457   0.736  0.0089  0.3817 -0.8774
 6453SOL    MW425586   5.973   5.502   0.731 -0.0111 -0.2508 -0.1908
 6454SOL     OW25587   4.488   4.869   6.246  0.0336 -0.0584 -0.1123
 6454SOL    HW225588   4.490   4.959   6.213 -2.0576 -0.0080 -0.2791
 6454SOL    HW325589   4.568   4.829   6.213 -0.2612  0.9904 -2.3280
 6454SOL    MW425590   4.499   4.876   6.237  0.0071  0.3337  0.2155
 6455SOL     OW25591   5.863   3.546   5.484 -0.1265  0.2795 -0.4019
 6455SOL    HW225592   5.831   3.526   5.396  1.0763  0.5509 -0.9274
 6455SOL    HW325593   5.865   3.461   5.529 -2.8181  0.4124  0.1374
 6455SOL    MW425594   5.859   3.532   5.479 -0.6807  0.2755 -0.3494
 6456SOL     OW25595   0.059   0.129   5.072  0.2887  0.1068  0.1903
 6456SOL    HW225596   0.145   0.133   5.030  1.3365  2.1460  2.3096
 6456SOL    HW325597   0.072   0.069   5.146 -0.0892  0.4679  0.5497
 6456SOL    MW425598   0.072   0.121   5.076 -0.1961 -0.4236 -0.4419
 6457SOL     OW25599   0.955   2.106   4.789  0.0150 -0.1819 -0.0820
 6457SOL    HW225600   0.919   2.147   4.868 -0.0234  0.7980 -0.5939
 6457SOL    HW325601   0.918   2.156   4.717  0.6713 -0.5645 -0.6988
 6457SOL    MW425602   0.946   2.118   4.790  0.0393 -0.5898 -0.5193
 6458SOL     OW25603   2.630   6.163   6.347  0.5175  0.1843 -0.0034
 6458SOL    HW225604   2.648   6.138   6.256 -1.8099 -1.0225 -0.2191
 6458SOL    HW325605   2.552   6.113   6.370 -0.5392  2.4812  1.7974
 6458SOL    MW425606   2.622   6.153   6.338 -0.1240  0.8101 -0.0912
 6459SOL     OW25607   4.904   5.604   1.319 -0.5193  0.2694 -0.0211
 6459SOL    HW225608   4.906   5.518   1.361 -1.8144 -0.0155 -0.5123
 6459SOL    HW325609   4.836   5.597   1.253 -0.9125  1.7944  0.1856
 6459SOL    MW425610   4.896   5.592   1.316 -0.4391  0.0324 -0.4980
 6460SOL     OW25611   1.277   5.770   2.915  0.1642 -0.0336 -0.0293
 6460SOL    HW225612   1.216   5.766   2.988  0.3284  1.6252  0.2327
 6460SOL    HW325613   1.229   5.813   2.844  1.6363  3.6064  0.9576
 6460SOL    MW425614   1.263   5.775   2.915  0.3058 -0.5846  0.7829
 6461SOL     OW25615   1.177   2.780   4.784  0.6715  0.6065  0.2633
 6461SOL    HW225616   1.211   2.748   4.867  0.1984 -1.5702 -0.3163
 6461SOL    HW325617   1.169   2.702   4.730  0.8359  1.9464 -1.8029
 6461SOL    MW425618   1.180   2.766   4.788  0.0549  0.2998  0.0772
 6462SOL     OW25619   5.227   1.134   4.664  0.1332 -0.2445  0.7453
 6462SOL    HW225620   5.267   1.169   4.744  0.3683  0.5484  0.2868
 6462SOL    HW325621   5.135   1.160   4.670  0.2326  0.1457  0.5749
 6462SOL    MW425622   5.220   1.142   4.675  0.6597 -0.0797 -0.0107
 6463SOL     OW25623   3.521   3.371   1.015  0.0655  0.1798  1.2204
 6463SOL    HW225624   3.442   3.328   1.050  0.1390 -1.3644 -0.3609
 6463SOL    HW325625   3.528   3.452   1.065 -1.9001 -0.1615  2.1642
 6463SOL    MW425626   3.511   3.376   1.026 -0.0861  0.2527 -0.4700
 6464SOL     OW25627   2.226   3.517   0.661  0.0299 -0.1465  0.0330
 6464SOL    HW225628   2.243   3.431   0.624 -0.2992 -0.4480  0.5801
 6464SOL    HW325629   2.313   3.558   0.666  0.0051  0.2367 -1.8454
 6464SOL    MW425630   2.240   3.511   0.657 -0.4686 -0.0425 -0.2355
 6465SOL     OW25631   5.424   0.047   2.760 -0.0494 -0.6890 -0.2738
 6465SOL    HW225632   5.442   0.139   2.742 -1.2234 -0.4710 -0.4244
 6465SOL    HW325633   5.329   0.038   2.750  0.1402 -2.1139 -1.2105
 6465SOL    MW425634   5.413   0.058   2.756 -0.0513 -0.1036  0.2115
 6466SOL     OW25635   3.878   3.126   6.350 -0.1746 -0.0531 -0.0921
 6466SOL    HW225636   3.801   3.149   6.402 -0.0902  0.1036 -0.0347
 6466SOL    HW325637   3.848   3.133   6.259 -0.5731 -1.2070 -0.0648
 6466SOL    MW425638   3.864   3.130   6.345 -0.4213  0.2561 -0.1514
 6467SOL     OW25639   6.146   3.684   4.758  0.1266  0.4173  0.2159
 6467SOL    HW225640   6.146   3.734   4.677  1.3421 -0.1813 -0.1737
 6467SOL    HW325641   6.238   3.671   4.779 -0.1412 -1.3406  0.4835
 6467SOL    MW425642   6.158   3.689   4.750  0.4459  0.1837 -0.7410
 6468SOL     OW25643   3.675   3.646   0.934 -1.0282  0.3191 -0.1549
 6468SOL    HW225644   3.754   3.597   0.913  0.3681  2.2004  0.4700
 6468SOL    HW325645   3.623   3.642   0.854 -0.0957 -0.5386 -0.7455
 6468SOL    MW425646   3.678   3.639   0.921  0.1338  0.1237  0.7029
 6469SOL     OW25647   0.983   5.938   6.204  0.4685 -0.9356  0.1242
 6469SOL    HW225648   0.919   5.933   6.276 -0.2448  2.6129 -0.0823
 6469SOL    HW325649   0.934   5.976   6.131  2.0347 -1.1980 -1.1155
 6469SOL    MW425650   0.968   5.942   6.204  0.2976 -0.3626  0.0237
 6470SOL     OW25651   3.052   1.124   5.460 -0.1120  0.4217  0.2770
 6470SOL    HW225652   3.113   1.108   5.387 -0.2934 -0.8835  0.3942
 6470SOL    HW325653   3.073   1.213   5.488  1.8711 -0.0283  0.4175
 6470SOL    MW425654   3.063   1.134   5.454  0.7447  0.0238  0.5877
 6471SOL     OW25655   6.393   6.148   3.118 -0.4108  0.1481  0.3740
 6471SOL    HW225656   6.450   6.099   3.057 -0.0526  0.5550  0.3705
 6471SOL    HW325657   6.437   6.233   3.127 -0.4459  0.0797  1.2318
 6471SOL    MW425658   6.407   6.153   3.111  0.5346  0.2202  0.3576
 6472SOL     OW25659   1.831   1.507   5.417 -0.4111 -0.1274  0.3287
 6472SOL    HW225660   1.891   1.533   5.346 -1.0814  1.5464  0.3296
 6472SOL    HW325661   1.745   1.505   5.376 -0.8187  0.9342  1.1046
 6472SOL    MW425662   1.828   1.510   5.402 -0.0924 -0.1888  0.7444
 6473SOL     OW25663   5.329   1.009   1.655 -0.6288  0.3479  0.6717
 6473SOL    HW225664   5.258   1.032   1.715 -1.2920 -0.1597  0.1040
 6473SOL    HW325665   5.293   1.027   1.568  0.0560  0.3836  0.3966
 6473SOL    MW425666   5.315   1.014   1.652  0.2596  0.2404 -0.0452
 6474SOL     OW25667   6.071   5.120   2.363  0.2749 -0.4484 -0.4658
 6474SOL    HW225668   6.130   5.045   2.356  3.2323  1.0087  4.1805
 6474SOL    HW325669   5.999   5.089   2.419  0.4532 -0.3581 -0.1847
 6474SOL    MW425670   6.069   5.106   2.370 -0.1755  0.3790  0.1617
 6475SOL     OW25671   1.463   2.759   0.981 -0.2977 -0.0870 -0.0615
 6475SOL    HW225672   1.468   2.848   1.015 -0.4494 -0.2640  0.4349
 6475SOL    HW325673   1.444   2.770   0.888  2.2433  0.4637 -0.5973
 6475SOL    MW425674   1.461   2.772   0.973 -0.3179 -0.1599  0.0769
 6476SOL     OW25675   4.519   1.159   0.497  0.1504  0.2074 -0.7646
 6476SOL    HW225676   4.463   1.082   0.497  1.7186 -1.0002  0.7005
 6476SOL    HW325677   4.494   1.207   0.417 -1.2777 -1.4723 -1.3855
 6476SOL    MW425678   4.508   1.155   0.486  0.6923  0.1021  0.6190
 6477SOL     OW25679   3.170   0.970   4.585  0.3758 -0.2425 -0.0935
 6477SOL    HW225680   3.117   1.049   4.575  0.0358 -0.3895  0.4931
 6477SOL    HW325681   3.241   0.980   4.522  1.5368  1.5387  1.3913
 6477SOL    MW425682   3.173   0.981   4.575 -0.0934  0.1606 -0.6425
 6478SOL     OW25683   0.082   0.617   1.710 -0.3343  0.8704  0.1960
 6478SOL    HW225684   0.136   0.597   1.633  0.5680  0.7818  0.8283
 6478SOL    HW325685  -0.002   0.574   1.693  0.0697  0.3227 -0.4652
 6478SOL    MW425686   0.078   0.609   1.698  0.2317  0.2477 -0.2067
 6479SOL     OW25687   2.705   3.516   3.877 -0.3219  0.0201  0.4680
 6479SOL    HW225688   2.748   3.594   3.913 -0.0218  0.6228 -1.1276
 6479SOL    HW325689   2.736   3.444   3.933  0.8052  0.7930  0.8750
 6479SOL    MW425690   2.715   3.517   3.889 -0.3364 -0.1717  0.7163
 6480SOL     OW25691   3.330   5.509   2.484  0.1868  0.3226 -0.1326
 6480SOL    HW225692   3.348   5.419   2.454 -2.2238 -0.2665  0.0255
 6480SOL    HW325693   3.274   5.498   2.561 -1.2603  1.9760 -0.8931
 6480SOL    MW425694   3.325   5.495   2.491 -0.3736 -0.2544  0.1869
 6481SOL     OW25695   4.649   5.581   0.776 -0.1060  0.2256 -0.1151
 6481SOL    HW225696   4.584   5.518   0.809 -0.2535  0.1102 -0.6161
 6481SOL    HW325697   4.723   5.571   0.836 -0.8216  0.9006  0.9285
 6481SOL    MW425698   4.650   5.571   0.789  0.0946 -0.3893 -0.3940
 6482SOL     OW25699   4.544   4.492   0.357  0.1398  0.0086  0.4966
 6482SOL    HW225700   4.540   4.544   0.278  1.0804  0.0030  0.4367
 6482SOL    HW325701   4.453   4.469   0.375 -0.2177  1.1064  0.1618
 6482SOL    MW425702   4.531   4.495   0.349 -0.6013  0.2499  0.4099
 6483SOL     OW25703   4.219   0.357   3.337  0.4394  0.1999 -0.1140
 6483SOL    HW225704   4.263   0.303   3.402 -1.6861  0.8147  1.9853
 6483SOL    HW325705   4.153   0.300   3.298  0.0564  0.4939  0.0911
 6483SOL    MW425706   4.216   0.343   3.340 -0.0106 -0.3991 -0.1572
 6484SOL     OW25707   3.269   5.137   3.121  0.0145 -0.4946  0.2187
 6484SOL    HW225708   3.309   5.050   3.130 -0.0111 -0.5622 -0.2863
 6484SOL    HW325709   3.339   5.198   3.143  0.6191 -0.5893 -1.3178
 6484SOL    MW425710   3.283   5.133   3.126  0.0450 -0.5034  0.0050
 6485SOL     OW25711   1.388   5.184   4.584 -0.1370 -0.0358  0.2850
 6485SOL    HW225712   1.365   5.277   4.574  0.5720 -0.0562 -1.8758
 6485SOL    HW325713   1.469   5.185   4.635  0.4669  0.6285 -0.6441
 6485SOL    MW425714   1.395   5.197   4.590 -0.3482  0.0529  0.1101
 6486SOL     OW25715   6.213   3.275   4.522  0.4406  0.0034  0.2470
 6486SOL    HW225716   6.269   3.350   4.505  0.2136  0.2148  0.4403
 6486SOL    HW325717   6.255   3.203   4.474  1.6091 -0.1475  1.4543
 6486SOL    MW425718   6.226   3.275   4.513 -0.0161  0.4524 -0.0468
 6487SOL     OW25719   4.666   2.268   3.419 -0.1880  0.1862  0.4152
 6487SOL    HW225720   4.625   2.284   3.333  2.1219  0.1242 -0.7799
 6487SOL    HW325721   4.595   2.282   3.482 -2.6071 -2.1003 -1.5689
 6487SOL    MW425722   4.651   2.272   3.416  0.5017  0.2361  0.6180
 6488SOL     OW25723   4.183   0.148   5.485  0.5157 -0.1285 -0.0183
 6488SOL    HW225724   4.126   0.072   5.498 -2.7144  1.2007 -4.1485
 6488SOL    HW325725   4.259   0.114   5.437 -0.8657 -0.8790 -1.7814
 6488SOL    MW425726   4.186   0.133   5.481  0.4104  0.5323  0.1879
 6489SOL     OW25727   0.478   1.470   0.419 -0.3973  0.2218 -0.0445
 6489SOL    HW225728   0.401   1.450   0.366  0.9934 -1.4358 -1.6022
 6489SOL    HW325729   0.490   1.394   0.475 -0.3386  0.8152  0.7639
 6489SOL    MW425730   0.469   1.458   0.419  0.1725 -0.3983  0.2358
 6490SOL     OW25731   0.628   3.323   2.974  0.6762  0.7777  0.8154
 6490SOL    HW225732   0.638   3.288   2.885  1.7258  0.1350  1.1771
 6490SOL    HW325733   0.543   3.367   2.972  1.2403  1.9275 -0.8942
 6490SOL    MW425734   0.618   3.324   2.962  0.1092  0.7230 -0.4863
 6491SOL     OW25735   5.090   0.219   4.764  0.1152  0.4501 -0.0192
 6491SOL    HW225736   5.034   0.296   4.772 -0.4295  0.0073  0.5693
 6491SOL    HW325737   5.057   0.172   4.688 -2.3711 -1.3839  1.9878
 6491SOL    MW425738   5.078   0.223   4.755  0.6104 -0.6306  0.0556
 6492SOL     OW25739   2.419   2.865   5.552 -0.3215 -0.2154 -0.2880
 6492SOL    HW225740   2.354   2.871   5.622  0.5006  0.8383  0.4089
 6492SOL    HW325741   2.450   2.775   5.556 -0.1175 -0.1004  0.8643
 6492SOL    MW425742   2.415   2.854   5.561 -0.3451 -1.1285  0.8312
 6493SOL     OW25743   1.227   5.810   5.083 -0.0377 -0.2001 -0.0307
 6493SOL    HW225744   1.207   5.716   5.087  1.1560 -0.4530  0.8525
 6493SOL    HW325745   1.255   5.826   4.993 -1.0048 -0.5199 -0.3916
 6493SOL    MW425746   1.228   5.800   5.072 -0.5959  0.1299 -0.1956
 6494SOL     OW25747   3.604   0.533   1.734 -0.1635  0.3600  0.0093
 6494SOL    HW225748   3.579   0.511   1.824 -0.5395  0.6525 -0.0269
 6494SOL    HW325749   3.621   0.627   1.736  0.2833  0.2846 -0.1201
 6494SOL    MW425750   3.603   0.542   1.746  0.1672  0.0913 -0.2134
 6495SOL     OW25751   4.495   0.036   4.433  0.0827  0.5332  0.4011
 6495SOL    HW225752   4.537   0.048   4.518  1.3759  0.9532 -0.2707
 6495SOL    HW325753   4.567   0.037   4.370 -0.7492 -0.7313 -0.6304
 6495SOL    MW425754   4.510   0.038   4.436  0.1279 -0.0496 -0.2147
 6496SOL     OW25755   2.707   3.897   5.785 -0.1705 -0.1446 -0.5503
 6496SOL    HW225756   2.781   3.908   5.725 -0.7134  1.0234 -1.0406
 6496SOL    HW325757   2.738   3.834   5.850  1.2967  0.3921 -0.6871
 6496SOL    MW425758   2.721   3.890   5.786  0.2186 -0.6055 -0.1300
 6497SOL     OW25759   0.464   1.232   5.549 -0.0900  0.7914 -0.7448
 6497SOL    HW225760   0.524   1.171   5.505 -1.6807 -1.1201 -0.4213
 6497SOL    HW325761   0.382   1.183   5.556 -0.4306  1.6239  2.7687
 6497SOL    MW425762   0.461   1.217   5.544 -0.1614  0.0515 -0.0452
 6498SOL     OW25763   0.861   3.724   2.564  0.1532 -0.2738  0.4015
 6498SOL    HW225764   0.857   3.802   2.619 -0.9135  0.4134 -0.6032
 6498SOL    HW325765   0.895   3.656   2.621  1.4412  0.9985  1.2148
 6498SOL    MW425766   0.865   3.725   2.579  0.2586 -0.2639 -0.3198
 6499SOL     OW25767   5.654   5.792   2.519 -0.3519 -0.1698  0.3588
 6499SOL    HW225768   5.703   5.787   2.602  0.1042  1.1346  0.1920
 6499SOL    HW325769   5.679   5.877   2.482 -2.1988  0.2234 -0.0807
 6499SOL    MW425770   5.663   5.803   2.525 -0.2579  0.3298  0.1195
 6500SOL     OW25771   4.830   1.579   2.467 -0.4920 -0.5571 -0.3700
 6500SOL    HW225772   4.802   1.670   2.468  0.1877 -0.3358 -0.8265
 6500SOL    HW325773   4.914   1.580   2.422  1.2344 -0.9070  2.5877
 6500SOL    MW425774   4.837   1.591   2.461  0.1786 -0.2966 -0.5263
 6501SOL     OW25775   6.032   1.122   4.645  0.1698 -0.7044  0.2598
 6501SOL    HW225776   5.953   1.133   4.698  0.0931  0.7867 -0.1217
 6501SOL    HW325777   5.999   1.110   4.556  0.3197  2.8078 -0.4045
 6501SOL    MW425778   6.017   1.122   4.640 -0.2713  0.2296 -0.4262
 6502SOL     OW25779   0.392   4.282   4.823  0.2918  0.1801  0.1425
 6502SOL    HW225780   0.486   4.276   4.844  0.7313 -1.0587 -1.8519
 6502SOL    HW325781   0.348   4.262   4.905  1.8017 -0.1118  0.9242
 6502SOL    MW425782   0.399   4.278   4.836 -0.2955  0.3895 -0.2468
 6503SOL     OW25783   6.350   5.849   5.236  0.0149  0.0291 -0.5344
 6503SOL    HW225784   6.435   5.891   5.250 -0.2042  0.4135 -0.3439
 6503SOL    HW325785   6.308   5.901   5.167 -1.1413  1.4805  1.1568
 6503SOL    MW425786   6.356   5.861   5.229 -0.3545  0.1758  0.0614
 6504SOL     OW25787   3.259   0.771   1.135  0.1290 -0.5108 -0.0632
 6504SOL    HW225788   3.222   0.719   1.064  1.3863 -1.5219 -0.0050
 6504SOL    HW325789   3.184   0.792   1.191 -0.7910 -0.1191 -1.4097
 6504SOL    MW425790   3.244   0.767   1.133  0.2347  0.4231 -0.2617
 6505SOL     OW25791   3.790   0.388   6.291 -0.2204  0.1817 -0.0292
 6505SOL    HW225792   3.865   0.363   6.236 -0.1482  1.5412 -0.5882
 6505SOL    HW325793   3.728   0.427   6.230 -1.0466 -0.2031  0.5615
 6505SOL    MW425794   3.792   0.389   6.276 -0.1649  0.4010  0.5306
 6506SOL     OW25795   3.326   0.596   6.282  0.5276  0.3482 -0.6084
 6506SOL    HW225796   3.265   0.528   6.311 -0.1259  1.9738  2.2358
 6506SOL    HW325797   3.286   0.631   6.202 -1.1028 -0.1673 -0.0647
 6506SOL    MW425798   3.312   0.592   6.275  0.2788 -0.2380 -0.0325
 6507SOL     OW25799   1.806   3.167   0.053 -0.1515  0.5248 -0.1606
 6507SOL    HW225800   1.770   3.194   0.137  0.7942 -0.3728  0.5573
 6507SOL    HW325801   1.737   3.113   0.013 -0.3220  0.3486  0.3681
 6507SOL    MW425802   1.792   3.163   0.058  0.3380 -0.0094  0.2686
 6508SOL     OW25803   0.628   1.831   2.443  0.2594 -0.1521  0.0382
 6508SOL    HW225804   0.648   1.895   2.375  0.2424  1.2196  1.2816
 6508SOL    HW325805   0.560   1.775   2.404  0.7391  0.1500 -1.3019
 6508SOL    MW425806   0.622   1.832   2.429 -0.2327  0.1420 -0.9014
 6509SOL     OW25807   0.827   3.249   6.117  0.5815 -0.3890  0.2699
 6509SOL    HW225808   0.917   3.240   6.147  0.7378 -2.5932 -0.7015
 6509SOL    HW325809   0.774   3.212   6.189  0.4216  0.9307  0.8534
 6509SOL    MW425810   0.832   3.243   6.131  0.1778 -0.1480  0.2343
 6510SOL     OW25811   3.725   0.070   5.755  0.2227 -0.2954  0.2787
 6510SOL    HW225812   3.641   0.107   5.727  0.2320 -0.5403 -0.0764
 6510SOL    HW325813   3.729   0.090   5.849  0.2842  0.7075  0.0728
 6510SOL    MW425814   3.714   0.078   5.764  0.1838  0.4888 -0.1718
 6511SOL     OW25815   1.542   6.419   2.908 -0.4764 -0.0759 -0.0439
 6511SOL    HW225816   1.567   6.493   2.963 -0.2172  0.3255 -0.6909
 6511SOL    HW325817   1.522   6.349   2.970  0.9561 -0.0094  0.5364
 6511SOL    MW425818   1.542   6.419   2.924 -0.3685  0.9307  0.2743
 6512SOL     OW25819   2.064   0.889   5.185 -0.3223  0.3857 -0.4705
 6512SOL    HW225820   2.047   0.797   5.207  2.0351 -0.0113  0.0404
 6512SOL    HW325821   2.118   0.921   5.258 -0.0264  1.7925 -1.2682
 6512SOL    MW425822   2.069   0.881   5.197  0.0271 -0.4699  0.4687
 6513SOL     OW25823   1.394   6.191   5.117  0.0202 -0.0591  0.4456
 6513SOL    HW225824   1.327   6.219   5.179  1.4022  1.0660  1.5036
 6513SOL    HW325825   1.415   6.101   5.142  0.0183  0.1274  1.1211
 6513SOL    MW425826   1.388   6.183   5.128  0.3813  0.1537  0.4148
 6514SOL     OW25827   2.923   2.115   3.176  0.3417  0.3088  0.0295
 6514SOL    HW225828   2.935   2.089   3.267 -0.5978  0.9376  0.3434
 6514SOL    HW325829   2.961   2.203   3.172  0.8895  0.0636 -0.3326
 6514SOL    MW425830   2.930   2.123   3.188 -0.2142  0.2919  0.2831
 6515SOL     OW25831   1.943   1.973   3.048 -0.1164  0.1780 -0.3418
 6515SOL    HW225832   1.888   2.048   3.027 -1.6151 -0.5279  0.8459
 6515SOL    HW325833   1.899   1.930   3.121  2.1843 -0.2863  0.8718
 6515SOL    MW425834   1.930   1.977   3.055 -0.2493 -0.2803 -0.1217
 6516SOL     OW25835   0.177   5.347   5.206  0.0864 -0.0148 -0.4442
 6516SOL    HW225836   0.100   5.395   5.238  0.7372 -0.2463  1.6323
 6516SOL    HW325837   0.178   5.364   5.112 -0.6746  2.6707 -0.0542
 6516SOL    MW425838   0.167   5.356   5.198  0.1616 -0.1983 -0.4693
 6517SOL     OW25839   1.301   3.007   4.361  0.4075 -0.3190  0.5970
 6517SOL    HW225840   1.224   2.982   4.309  2.2743 -2.0967 -1.5122
 6517SOL    HW325841   1.290   3.101   4.375 -1.2023 -0.1362 -1.3123
 6517SOL    MW425842   1.289   3.016   4.356  0.3754 -0.0467 -0.0805
 6518SOL     OW25843   2.653   2.071   3.009 -0.2023  0.2814 -0.6864
 6518SOL    HW225844   2.682   2.116   2.929  2.5005 -0.8962 -0.4842
 6518SOL    HW325845   2.728   2.017   3.034 -1.0782  0.3480  2.4692
 6518SOL    MW425846   2.667   2.070   3.002  0.1266  0.4763 -0.1717
 6519SOL     OW25847   1.038   3.082   3.709 -0.7659  0.0299 -0.1025
 6519SOL    HW225848   1.083   3.049   3.631  1.2927 -0.6270  1.2729
 6519SOL    HW325849   1.086   3.162   3.732  1.3812 -1.8156  2.6407
 6519SOL    MW425850   1.050   3.088   3.702  0.4796 -0.1823  0.6363
 6520SOL     OW25851   1.543   0.251   1.965 -0.2532  0.3336  0.0853
 6520SOL    HW225852   1.552   0.243   2.060  0.4407 -1.7680 -0.0910
 6520SOL    HW325853   1.486   0.178   1.940  2.9750 -1.9380 -1.4641
 6520SOL    MW425854   1.537   0.240   1.974  0.2938  0.1939 -0.6658
 6521SOL     OW25855   3.721   0.745   4.396  0.0084  0.1704  0.0379
 6521SOL    HW225856   3.632   0.722   4.367 -0.6694  2.4769  0.0392
 6521SOL    HW325857   3.776   0.733   4.319 -0.4265 -0.6445 -0.1512
 6521SOL    MW425858   3.716   0.740   4.382  0.5324  0.1717 -0.6341
 6522SOL     OW25859   3.118   2.769   4.872  0.0181  0.4752 -0.5463
 6522SOL    HW225860   3.187   2.798   4.932  0.1593  0.3627 -0.6543
 6522SOL    HW325861   3.165   2.732   4.798 -0.1411 -1.4851  0.2854
 6522SOL    MW425862   3.134   2.768   4.870 -0.3364 -0.0436 -0.6056
 6523SOL     OW25863   1.954   3.468   4.150  0.7748  0.1363  0.2817
 6523SOL    HW225864   1.969   3.437   4.061 -0.8655  1.5797 -0.5528
 6523SOL    HW325865   2.030   3.523   4.169  2.0857 -1.6733  0.5601
 6523SOL    MW425866   1.966   3.471   4.141 -0.4518  0.7679  0.0190
 6524SOL     OW25867   1.316   2.244   1.773  0.1618  0.0311  0.5434
 6524SOL    HW225868   1.276   2.268   1.690 -0.7382  1.6816  1.4022
 6524SOL    HW325869   1.314   2.149   1.774  0.1566 -0.0194 -1.2941
 6524SOL    MW425870   1.310   2.235   1.763  0.1401  0.0288 -0.1105
 6525SOL     OW25871   2.513   2.096   0.782 -0.4792 -0.2049  0.1482
 6525SOL    HW225872   2.564   2.019   0.755 -2.3006 -1.4124 -0.0526
 6525SOL    HW325873   2.535   2.163   0.718  1.8208 -0.2319  0.8311
 6525SOL    MW425874   2.522   2.095   0.770  0.2199 -0.4446 -0.2590
 6526SOL     OW25875   3.732   3.713   1.965  0.1221 -0.4347 -0.5312
 6526SOL    HW225876   3.672   3.646   1.999  0.3212 -0.7799 -0.8452
 6526SOL    HW325877   3.716   3.790   2.020 -0.1358 -0.7285 -0.1875
 6526SOL    MW425878   3.722   3.714   1.977 -0.1508 -0.5192 -0.6848
 6527SOL     OW25879   6.027   3.414   3.419 -0.0247  0.1110  0.5155
 6527SOL    HW225880   6.092   3.465   3.371  1.1642 -2.1233 -0.3862
 6527SOL    HW325881   6.077   3.341   3.458 -1.5850 -0.2591  1.9678
 6527SOL    MW425882   6.042   3.411   3.418 -0.1269 -0.0904 -0.2130
 6528SOL     OW25883   0.386   0.041   0.499  0.2094  0.4090  0.5568
 6528SOL    HW225884   0.443  -0.019   0.547  1.8741  0.8992 -0.6938
 6528SOL    HW325885   0.396   0.015   0.407  2.9714  3.9683 -0.3836
 6528SOL    MW425886   0.395   0.030   0.493  0.4938  0.1297 -0.1313
 6529SOL     OW25887   1.200   4.148   2.093 -0.3668  0.2071 -0.1731
 6529SOL    HW225888   1.191   4.209   2.020 -1.5422 -0.9103 -1.0090
 6529SOL    HW325889   1.120   4.160   2.144  0.8352  1.6185  1.4970
 6529SOL    MW425890   1.188   4.157   2.090  0.0493 -0.0645 -0.4374
 6530SOL     OW25891   1.351   3.613   5.082  0.8549  0.1169  0.1987
 6530SOL    HW225892   1.350   3.708   5.076 -0.0648  0.1772  0.9587
 6530SOL    HW325893   1.443   3.589   5.083  1.1822  1.2046  2.3731
 6530SOL    MW425894   1.363   3.622   5.082  0.3495  0.5393 -0.7807
 6531SOL     OW25895   3.779   1.316   0.219  0.0214 -0.7600  0.1234
 6531SOL    HW225896   3.777   1.401   0.261  0.3295 -1.6955  2.1359
 6531SOL    HW325897   3.708   1.318   0.155 -0.1896  0.8555  0.3879
 6531SOL    MW425898   3.770   1.327   0.216  0.0109 -0.5745 -0.3739
 6532SOL     OW25899   3.758   3.906   2.199  0.7910 -0.4826 -0.2186
 6532SOL    HW225900   3.759   3.839   2.267  1.0994 -0.1253  0.1296
 6532SOL    HW325901   3.682   3.961   2.220  1.8878  0.6574  0.8466
 6532SOL    MW425902   3.748   3.904   2.210 -0.1409  0.2575 -0.0838
 6533SOL     OW25903   6.177   6.307   3.427  0.1661  0.1724 -0.8127
 6533SOL    HW225904   6.217   6.340   3.507 -1.5422  0.3588  0.0246
 6533SOL    HW325905   6.160   6.214   3.444  2.3207 -0.5140 -2.0608
 6533SOL    MW425906   6.180   6.299   3.439  0.1206 -0.1328 -0.0838
 6534SOL     OW25907   4.832   4.166   3.840  0.4354  0.1431  0.0429
 6534SOL    HW225908   4.902   4.114   3.878  1.0034  1.4785  0.9187
 6534SOL    HW325909   4.863   4.256   3.847 -0.7446  0.6524 -0.9081
 6534SOL    MW425910   4.845   4.171   3.846  0.3223 -0.0019  0.0211
 6535SOL     OW25911   3.726   3.094   4.087 -0.1734  0.2930  0.2469
 6535SOL    HW225912   3.706   3.176   4.133  0.6147  1.1977 -0.9797
 6535SOL    HW325913   3.640   3.064   4.056 -0.4231  0.8378  0.3876
 6535SOL    MW425914   3.712   3.101   4.089 -0.4329 -0.2103 -0.3297
 6536SOL     OW25915   3.335   6.410   2.219  0.7278  0.1493 -0.0283
 6536SOL    HW225916   3.320   6.501   2.243 -2.3695 -0.4155  0.5836
 6536SOL    HW325917   3.390   6.414   2.141 -0.0555  2.5666 -0.5244
 6536SOL    MW425918   3.340   6.423   2.212  0.0456 -0.2700 -0.1798
 6537SOL     OW25919   1.422   5.219   5.279  0.2445  0.4223 -0.1118
 6537SOL    HW225920   1.499   5.204   5.224  1.3815  1.2431  1.2030
 6537SOL    HW325921   1.445   5.179   5.363 -0.4602  1.3315  0.5243
 6537SOL    MW425922   1.435   5.212   5.283  0.2807  0.0930 -0.4720
 6538SOL     OW25923   0.564   0.702   0.662 -0.0282 -0.1085  0.8802
 6538SOL    HW225924   0.621   0.625   0.662  0.1221 -0.0137 -0.2236
 6538SOL    HW325925   0.480   0.669   0.694 -0.2917 -1.0130 -0.6422
 6538SOL    MW425926   0.560   0.687   0.666  0.3945 -0.2485  0.1385
 6539SOL     OW25927   5.767   4.965   3.005  0.1419 -0.2942 -0.0730
 6539SOL    HW225928   5.829   4.956   3.078  0.2740 -2.0426 -0.3696
 6539SOL    HW325929   5.681   4.966   3.047  0.2839  0.3855  0.2140
 6539SOL    MW425930   5.764   4.964   3.020  0.0453  0.0285 -0.3301
 6540SOL     OW25931   2.812   1.606   6.235 -0.6078  0.4560  0.2585
 6540SOL    HW225932   2.907   1.597   6.243 -0.8309 -2.3096  0.4762
 6540SOL    HW325933   2.789   1.675   6.298  1.1806  0.9191  0.4640
 6540SOL    MW425934   2.822   1.614   6.244  0.0911  0.3403  0.1824
 6541SOL     OW25935   1.560   4.751   3.734  0.9455 -0.1528  1.3033
 6541SOL    HW225936   1.480   4.736   3.784 -0.0823  0.8589  0.0406
 6541SOL    HW325937   1.610   4.670   3.743  0.7136 -0.0912  3.7279
 6541SOL    MW425938   1.556   4.739   3.742 -0.1789 -0.2787 -0.1091
 6542SOL     OW25939   3.157   4.656   3.512 -0.1211 -0.2828 -0.0540
 6542SOL    HW225940   3.222   4.721   3.536 -1.3231  0.7071  0.6776
 6542SOL    HW325941   3.141   4.606   3.592  0.9603 -1.6705 -0.6694
 6542SOL    MW425942   3.163   4.658   3.526 -0.3458  0.0423 -0.3151
 6543SOL     OW25943   1.494   2.259   2.700 -0.1703 -0.1238 -0.1269
 6543SOL    HW225944   1.427   2.190   2.703 -1.4128  1.0765  0.9029
 6543SOL    HW325945   1.488   2.293   2.611 -1.0273  0.0519 -0.0138
 6543SOL    MW425946   1.484   2.254   2.688  0.1736 -0.1315 -0.0772
 6544SOL     OW25947   1.167   4.082   6.299  0.0803  0.7443  0.8252
 6544SOL    HW225948   1.251   4.038   6.294 -0.8236 -0.9218 -0.8557
 6544SOL    HW325949   1.104   4.017   6.267 -1.5504  2.6997 -0.1245
 6544SOL    MW425950   1.169   4.067   6.294  0.7249 -0.3398  0.2213
 6545SOL     OW25951   2.312   0.374   1.509  0.0355 -0.2065  0.3238
 6545SOL    HW225952   2.331   0.426   1.431 -1.4854 -0.3644 -0.1896
 6545SOL    HW325953   2.392   0.324   1.525  1.5907  2.2722  0.8580
 6545SOL    MW425954   2.325   0.375   1.501 -0.0059  0.0738  0.0687
 6546SOL     OW25955   5.602   0.141   5.280  0.1336  0.4735  0.3940
 6546SOL    HW225956   5.637   0.077   5.218 -1.4873  0.6173 -0.7492
 6546SOL    HW325957   5.549   0.199   5.226  1.0688  2.4397  1.4909
 6546SOL    MW425958   5.599   0.140   5.264 -0.4995 -0.3153 -0.2574
 6547SOL     OW25959   5.055   2.073   1.209 -0.2594  0.0346 -0.1395
 6547SOL    HW225960   5.008   2.122   1.141  0.1403  0.7142  0.0556
 6547SOL    HW325961   4.987   2.044   1.270 -0.5615 -0.1183 -0.5497
 6547SOL    MW425962   5.040   2.076   1.208 -0.2592 -0.0444  0.0683
 6548SOL     OW25963   0.894   3.886   5.016  0.3647 -0.1806  0.3027
 6548SOL    HW225964   0.841   3.900   4.937  0.9176 -0.3201 -0.1021
 6548SOL    HW325965   0.905   3.791   5.021 -1.5466 -0.3644  1.8167
 6548SOL    MW425966   0.889   3.876   5.006 -0.8640  0.0689  0.3099
 6549SOL     OW25967   2.701   5.483   5.855 -0.4358  0.2876  0.3133
 6549SOL    HW225968   2.641   5.487   5.781 -1.0891 -1.0279  0.7315
 6549SOL    HW325969   2.697   5.571   5.894 -0.4545  0.8459 -0.8980
 6549SOL    MW425970   2.692   5.495   5.850  0.3198 -0.6749  0.1437
 6550SOL     OW25971   1.840   3.797   6.157 -0.6758  0.3069  0.1668
 6550SOL    HW225972   1.880   3.813   6.072  0.2916  1.0731  0.7493
 6550SOL    HW325973   1.903   3.830   6.221 -0.8228 -1.3324  1.2483
 6550SOL    MW425974   1.854   3.803   6.154 -0.2302 -0.2370  0.0250
 6551SOL     OW25975   1.776   2.804   5.279  0.4771  0.1124  0.4466
 6551SOL    HW225976   1.681   2.788   5.285  0.4009  0.6391  0.6154
 6551SOL    HW325977   1.783   2.897   5.260  0.9571  0.0174  0.1518
 6551SOL    MW425978   1.764   2.814   5.277 -0.2856 -0.3639 -0.2540
 6552SOL     OW25979   1.328   1.919   6.421  0.4855  0.3698 -0.1344
 6552SOL    HW225980   1.341   1.941   6.329 -0.2146  0.7627 -0.1451
 6552SOL    HW325981   1.247   1.868   6.422  0.9726 -0.4141  0.1577
 6552SOL    MW425982   1.319   1.915   6.409 -0.3387 -0.2006 -0.7343
 6553SOL     OW25983   1.156   2.756   6.008 -0.1021  0.5672  0.5495
 6553SOL    HW225984   1.153   2.711   5.924  0.9712  1.3063  0.0937
 6553SOL    HW325985   1.101   2.834   5.995 -0.0085  0.6345  0.5531
 6553SOL    MW425986   1.149   2.761   5.995 -0.4146  0.1082 -0.4439
 6554SOL     OW25987   2.204   3.929   1.498  0.0506 -0.1605 -0.5162
 6554SOL    HW225988   2.269   3.861   1.517 -1.3333 -1.3969 -0.0663
 6554SOL    HW325989   2.200   3.981   1.578 -0.0714 -0.5556 -0.2635
 6554SOL    MW425990   2.212   3.927   1.511 -0.0373  0.3447  0.3792
 6555SOL     OW25991   0.555   0.652   4.331 -0.6360 -0.2187  0.3490
 6555SOL    HW225992   0.516   0.721   4.278 -0.1086  0.2162  0.5246
 6555SOL    HW325993   0.586   0.696   4.410  1.8022 -0.2145 -0.5306
 6555SOL    MW425994   0.554   0.667   4.335 -0.4320  0.0669  0.1668
 6556SOL     OW25995   4.629   3.917   3.623  0.4006  0.1764 -0.0424
 6556SOL    HW225996   4.538   3.935   3.644  0.5089  1.6214 -0.6950
 6556SOL    HW325997   4.652   3.841   3.677 -1.1490 -0.1636  0.1815
 6556SOL    MW425998   4.620   3.909   3.633 -0.2060  0.1397  0.4532
 6557SOL     OW25999   0.237   3.106   4.950  0.4333 -0.1933 -0.3209
 6557SOL    HW226000   0.273   3.051   5.019  1.5151  1.5175  0.5481
 6557SOL    HW326001   0.261   3.061   4.869  2.6165 -0.2853  0.3182
 6557SOL    MW426002   0.245   3.093   4.948  0.1365 -0.1164  0.5137
 6558SOL     OW26003   2.163   1.293   0.657  0.1085 -0.3837 -0.0322
 6558SOL    HW226004   2.169   1.309   0.562  0.6945 -0.6879 -0.0531
 6558SOL    HW326005   2.220   1.359   0.696 -1.8498  1.1890  0.2781
 6558SOL    MW426006   2.172   1.304   0.649 -0.0485  0.7004  0.1507
 6559SOL     OW26007   5.507   6.280   5.809 -0.3132 -0.1140  0.6892
 6559SOL    HW226008   5.424   6.296   5.764  0.5569  2.4306 -0.1861
 6559SOL    HW326009   5.483   6.228   5.886 -2.6583  0.2716  0.2918
 6559SOL    MW426010   5.493   6.276   5.813 -0.1381  0.0751 -0.0497
 6560SOL     OW26011   0.606   4.558   1.263 -0.0358  0.4995 -0.1178
 6560SOL    HW226012   0.585   4.516   1.179 -0.0499  1.0717 -0.4007
 6560SOL    HW326013   0.538   4.624   1.275 -0.1308  0.3107  0.4278
 6560SOL    MW426014   0.594   4.561   1.254 -0.4419 -0.0831 -0.7815
 6561SOL     OW26015   1.974   3.743   0.904  0.4106  0.0947  0.2812
 6561SOL    HW226016   1.945   3.801   0.974  0.8555  0.2312  0.3561
 6561SOL    HW326017   1.955   3.791   0.823  2.7587  1.3510  0.3677
 6561SOL    MW426018   1.968   3.757   0.902  0.4243 -0.2295  0.2591
 6562SOL     OW26019   3.401   5.358   6.389  0.3286  0.0850  0.2251
 6562SOL    HW226020   3.460   5.288   6.363  1.2912  0.9056  0.1541
 6562SOL    HW326021   3.458   5.427   6.422 -0.6027  0.8037  0.3811
 6562SOL    MW426022   3.416   5.358   6.390 -0.3145  0.1762 -0.3997
 6563SOL     OW26023   1.317   3.721   2.009  0.2394  0.3328 -0.3358
 6563SOL    HW226024   1.373   3.747   2.082  1.0196 -0.3164 -0.6796
 6563SOL    HW326025   1.265   3.648   2.043  1.0010 -0.3424 -0.5652
 6563SOL    MW426026   1.318   3.715   2.023 -0.3736 -0.1608 -0.0658
 6564SOL     OW26027   4.217   0.049   4.178  0.1318  0.1140  0.1210
 6564SOL    HW226028   4.271   0.014   4.108 -0.6780 -0.7132 -0.1189
 6564SOL    HW326029   4.226   0.144   4.172  0.6801  0.0151 -0.6017
 6564SOL    MW426030   4.225   0.057   4.168  0.4254 -0.1213 -0.3063
 6565SOL     OW26031   3.341   5.627   6.131 -0.0099  0.1368 -0.8473
 6565SOL    HW226032   3.322   5.661   6.044  2.3409 -1.2388 -1.9975
 6565SOL    HW326033   3.321   5.533   6.125 -2.3223  0.4398  0.9508
 6565SOL    MW426034   3.336   5.619   6.119  0.5376  0.1331  0.3345
 6566SOL     OW26035   1.297   4.255   3.462  0.4501  0.4366  0.5688
 6566SOL    HW226036   1.310   4.166   3.494 -1.5033 -0.5266 -1.1396
 6566SOL    HW326037   1.209   4.279   3.493  0.2450  1.0845 -0.4735
 6566SOL    MW426038   1.287   4.246   3.471  0.4912  0.3953 -0.2778
 6567SOL     OW26039   0.442   1.998   1.544  0.1572  0.1280  0.1546
 6567SOL    HW226040   0.508   1.934   1.518 -1.4089 -1.0701 -1.1094
 6567SOL    HW326041   0.426   2.049   1.465  0.1173  0.9090  0.6611
 6567SOL    MW426042   0.449   1.996   1.530  0.3147 -0.1331 -0.1239
 6568SOL     OW26043   4.819   2.564   0.192 -0.2306  0.2011  0.0823
 6568SOL    HW226044   4.728   2.535   0.193 -0.2933  0.3553 -0.5319
 6568SOL    HW326045   4.821   2.643   0.245 -0.5928  0.5826 -0.4687
 6568SOL    MW426046   4.808   2.571   0.199  0.2126 -0.1295 -0.6072
 6569SOL     OW26047   2.859   2.145   4.971  0.0490  0.1260 -0.0097
 6569SOL    HW226048   2.778   2.124   4.924  0.3936 -0.1781 -0.4708
 6569SOL    HW326049   2.840   2.228   5.015 -1.0705 -0.7606  1.2337
 6569SOL    MW426050   2.846   2.153   4.971  0.2795  0.4774  0.1007
 6570SOL     OW26051   5.748   1.634   4.154 -0.4753 -0.1005 -0.1762
 6570SOL    HW226052   5.695   1.693   4.208  0.2659 -0.4131  0.9469
 6570SOL    HW326053   5.837   1.646   4.187 -0.3620 -2.1832  0.4440
 6570SOL    MW426054   5.753   1.643   4.166 -0.7681  0.3575 -0.2104
 6571SOL     OW26055   1.382   1.945   6.143 -0.1432  0.5576 -0.0891
 6571SOL    HW226056   1.434   2.025   6.150  0.6423  0.0410  0.2594
 6571SOL    HW326057   1.295   1.974   6.117  0.3684  1.4387 -0.8592
 6571SOL    MW426058   1.377   1.959   6.141  0.4288  0.1687  0.4691
 6572SOL     OW26059   0.410   5.606   3.501 -0.7584  0.3183  0.0709
 6572SOL    HW226060   0.386   5.692   3.536 -0.7322  0.2169  0.3321
 6572SOL    HW326061   0.378   5.543   3.566 -1.4096  0.0931 -0.4467
 6572SOL    MW426062   0.402   5.609   3.514  0.1467  0.2082  0.1365
 6573SOL     OW26063   0.218   5.537   0.077  0.1183  0.2711  0.1441
 6573SOL    HW226064   0.279   5.584   0.134 -0.7041 -1.3889  2.5261
 6573SOL    HW326065   0.146   5.512   0.135 -0.9077 -1.2947 -1.7078
 6573SOL    MW426066   0.216   5.540   0.092 -0.3810 -0.4574  0.1387
 6574SOL     OW26067   2.205   1.671   3.170  0.4943  0.2476 -0.2252
 6574SOL    HW226068   2.248   1.721   3.100 -1.4203  1.8591 -0.3331
 6574SOL    HW326069   2.238   1.711   3.250 -1.0075  1.7863 -0.3100
 6574SOL    MW426070   2.215   1.683   3.171 -0.0881  0.0231 -0.1504
 6575SOL     OW26071   0.403   0.260   1.366 -0.8970 -0.2207  0.5304
 6575SOL    HW226072   0.450   0.178   1.353  0.9178  1.1742 -3.6462
 6575SOL    HW326073   0.311   0.238   1.350 -0.5418 -1.5599  0.1982
 6575SOL    MW426074   0.397   0.246   1.362  0.6605  0.2665 -0.3626
 6576SOL     OW26075   1.199   0.710   1.259 -1.0148  0.5792  0.2886
 6576SOL    HW226076   1.158   0.750   1.181  0.1201  0.2296 -0.5037
 6576SOL    HW326077   1.222   0.785   1.314 -0.4348  0.9313 -0.4163
 6576SOL    MW426078   1.196   0.725   1.256  0.4787  0.5016 -0.3918
 6577SOL     OW26079   1.357   6.078   5.407  0.2690 -0.1802  0.0164
 6577SOL    HW226080   1.400   6.052   5.325 -0.1462  0.4385 -0.4150
 6577SOL    HW326081   1.428   6.084   5.471  0.9261  1.2597 -0.7857
 6577SOL    MW426082   1.372   6.076   5.404 -0.1197  0.4204  0.1940
 6578SOL     OW26083   2.539   1.455   3.419  0.7653  0.6594 -0.4099
 6578SOL    HW226084   2.568   1.384   3.476  0.4578  1.0799  0.2835
 6578SOL    HW326085   2.600   1.453   3.345  0.2514 -0.8438 -0.8143
 6578SOL    MW426086   2.551   1.446   3.417  0.9513  0.1931 -0.1378
 6579SOL     OW26087   1.390   0.708   4.068  0.5782 -0.2232 -0.6677
 6579SOL    HW226088   1.340   0.635   4.102  0.8413  0.6436  1.7679
 6579SOL    HW326089   1.411   0.683   3.978  1.1191 -3.3636  0.2180
 6579SOL    MW426090   1.386   0.695   4.061 -0.4557  0.0726  0.4472
 6580SOL     OW26091   3.652   3.818   5.338  0.6022 -0.2923 -0.0659
 6580SOL    HW226092   3.736   3.859   5.359 -0.2263  1.5768 -0.2142
 6580SOL    HW326093   3.615   3.793   5.422  1.1304 -0.8052  0.0233
 6580SOL    MW426094   3.658   3.820   5.352  0.3227 -0.1845 -0.2281
 6581SOL     OW26095   6.090   5.025   5.935 -0.0737  0.2719  0.2889
 6581SOL    HW226096   6.074   5.055   5.846 -0.4362 -0.0884  0.2291
 6581SOL    HW326097   6.146   4.949   5.925 -0.0826  0.2542  0.3706
 6581SOL    MW426098   6.095   5.019   5.922 -0.5769 -0.3494  0.0357
 6582SOL     OW26099   1.049   2.708   6.336  0.0065  0.2498  0.3843
 6582SOL    HW226100   1.069   2.725   6.244 -0.7256 -1.1798 -0.0607
 6582SOL    HW326101   1.131   2.675   6.372  0.3398  0.9633  0.3026
 6582SOL    MW426102   1.063   2.706   6.329 -0.0548  0.0501 -0.5455
 6583SOL     OW26103   4.793   5.908   1.008 -0.3767 -0.0621  0.1022
 6583SOL    HW226104   4.758   5.920   1.096 -1.1564 -0.2194 -0.1857
 6583SOL    HW326105   4.716   5.902   0.952  0.1164  0.3773 -0.6396
 6583SOL    MW426106   4.779   5.909   1.012  0.1968  0.5879  0.5140
 6584SOL     OW26107   0.277   4.674   0.733  0.0529  0.5816  0.7823
 6584SOL    HW226108   0.343   4.739   0.759  1.9457 -0.7916 -0.3754
 6584SOL    HW326109   0.286   4.604   0.797 -0.3063  0.3929  0.6263
 6584SOL    MW426110   0.287   4.674   0.745 -0.2334  0.1869  0.0617
 6585SOL     OW26111   4.731   4.997   1.967  0.0657  0.0678  0.3477
 6585SOL    HW226112   4.676   5.010   2.044  0.0183 -0.9922  0.5064
 6585SOL    HW326113   4.818   4.981   2.003  0.2981  0.7963  0.1280
 6585SOL    MW426114   4.735   4.997   1.982  0.0442  0.5464 -0.9075
 6586SOL     OW26115   3.342   5.629   1.007  0.5181  0.0186 -0.4652
 6586SOL    HW226116   3.393   5.673   0.939  2.4782 -2.5837 -0.7977
 6586SOL    HW326117   3.252   5.627   0.973  1.4302 -1.1577 -2.9869
 6586SOL    MW426118   3.337   5.635   0.994  0.4912 -0.2433 -0.4435
 6587SOL     OW26119   0.838   3.938   2.748  0.3935 -0.3564 -0.0032
 6587SOL    HW226120   0.901   3.922   2.819  0.1448  0.1563  0.3406
 6587SOL    HW326121   0.809   4.028   2.762 -0.7022 -0.7097  0.0692
 6587SOL    MW426122   0.842   3.948   2.759 -0.4978 -0.3141 -0.3457
 6588SOL     OW26123   6.410   2.045   3.831 -0.5325  0.0309 -0.7173
 6588SOL    HW226124   6.504   2.050   3.849 -0.6630  0.4943 -0.1219
 6588SOL    HW326125   6.373   2.000   3.907 -0.9756  1.2055 -0.2159
 6588SOL    MW426126   6.418   2.040   3.843 -0.0262 -0.7720  0.5879
 6589SOL     OW26127   0.866   5.813   4.057 -0.2873  0.2468 -0.7204
 6589SOL    HW226128   0.905   5.733   4.023 -1.9948 -0.3016 -1.5365
 6589SOL    HW326129   0.904   5.883   4.004 -0.0452 -0.2097 -1.1584
 6589SOL    MW426130   0.876   5.812   4.045 -0.1702 -0.2175 -0.7773
 6590SOL     OW26131   0.071   2.833   6.088 -0.0490  0.9671  0.3512
 6590SOL    HW226132   0.139   2.786   6.136  0.8727  1.2537 -0.6299
 6590SOL    HW326133  -0.011   2.801   6.125  0.5949  0.0796  1.0655
 6590SOL    MW426134   0.069   2.823   6.100 -0.0594 -0.2614 -0.4286
 6591SOL     OW26135   2.951   4.382   4.915 -0.1138 -0.2453 -0.0481
 6591SOL    HW226136   3.028   4.327   4.930 -0.3163 -0.5600 -0.1729
 6591SOL    HW326137   2.884   4.323   4.882  0.2230  0.3741 -1.9339
 6591SOL    MW426138   2.953   4.367   4.913  0.0951  0.0350 -0.1559
 6592SOL     OW26139   3.582   1.113   5.595  0.3166 -0.1074 -0.0232
 6592SOL    HW226140   3.638   1.037   5.604 -3.9810 -3.4206  2.6625
 6592SOL    HW326141   3.591   1.161   5.677 -0.9559 -0.9016  0.6091
 6592SOL    MW426142   3.590   1.109   5.607  0.3124 -0.6472  0.4048
 6593SOL     OW26143   6.286   3.358   5.514  0.1273 -0.0266 -0.0844
 6593SOL    HW226144   6.241   3.441   5.526 -0.7683 -0.7057  1.7063
 6593SOL    HW326145   6.218   3.299   5.480  0.1642 -0.5728  0.7751
 6593SOL    MW426146   6.271   3.361   5.511  0.4926 -0.0018 -0.2333
 6594SOL     OW26147   5.786   1.858   2.437  0.4246  0.4909 -0.1533
 6594SOL    HW226148   5.814   1.940   2.396  2.3535 -0.0025  0.1180
 6594SOL    HW326149   5.756   1.884   2.524 -0.0634  1.0324 -0.4712
 6594SOL    MW426150   5.786   1.873   2.443  0.2059 -0.9430  0.4986
 6595SOL     OW26151   0.929   3.308   3.996  0.3911 -0.2979 -0.2412
 6595SOL    HW226152   0.847   3.318   4.046  0.3602 -1.4517 -0.0108
 6595SOL    HW326153   0.924   3.375   3.928 -0.8137 -0.4106 -0.3002
 6595SOL    MW426154   0.917   3.318   3.994  0.4701 -0.5337  0.3685
 6596SOL     OW26155   5.838   3.855   1.710  0.0261 -0.2888  0.1123
 6596SOL    HW226156   5.817   3.832   1.620  0.2835 -0.5020  0.1069
 6596SOL    HW326157   5.925   3.895   1.706  0.5256 -1.3068  0.4030
 6596SOL    MW426158   5.847   3.857   1.698  0.2802 -0.8388  0.0129
 6597SOL     OW26159   3.812   4.313   0.305 -0.6242  0.0562  0.5113
 6597SOL    HW226160   3.761   4.288   0.228  0.5283 -1.2640  0.1504
 6597SOL    HW326161   3.864   4.236   0.326  0.4286  1.0085  1.5186
 6597SOL    MW426162   3.812   4.300   0.297 -0.0413  0.2197 -0.1809
 6598SOL     OW26163   1.132   4.098   2.435  0.0694 -0.0132 -0.0907
 6598SOL    HW226164   1.089   4.131   2.356  0.6783 -1.7227 -1.2050
 6598SOL    HW326165   1.073   4.120   2.506 -0.8328  0.9718 -1.1144
 6598SOL    MW426166   1.119   4.105   2.434 -0.4626 -0.0891  0.2190
 6599SOL     OW26167   0.307   1.938   0.710 -0.4456  0.0244 -0.5148
 6599SOL    HW226168   0.287   1.931   0.616 -0.1396 -1.1782 -0.5083
 6599SOL    HW326169   0.360   1.861   0.728  0.2002  0.6958  0.4822
 6599SOL    MW426170   0.311   1.927   0.700 -0.4166  0.5632  0.5571
 6600SOL     OW26171   5.817   6.257   3.680 -0.3811  0.6654 -0.3071
 6600SOL    HW226172   5.863   6.305   3.749 -0.0841  1.4874 -1.0583
 6600SOL    HW326173   5.885   6.201   3.642 -0.6012  0.0306  0.2086
 6600SOL    MW426174   5.832   6.256   3.684 -0.2408 -0.1052 -0.4945
 6601SOL     OW26175   6.364   0.871   0.794 -0.1757  0.1833  0.0952
 6601SOL    HW226176   6.396   0.815   0.865  0.2149  1.7352  1.1941
 6601SOL    HW326177   6.298   0.927   0.835  1.6446  2.6913 -0.1092
 6601SOL    MW426178   6.360   0.871   0.809  0.2066  0.0023  0.0945
 6602SOL     OW26179   3.142   0.588   4.913  0.1007  0.2951 -0.0707
 6602SOL    HW226180   3.170   0.545   4.994  0.3549  0.5184 -0.0392
 6602SOL    HW326181   3.220   0.635   4.882  0.1761 -0.2760 -0.7635
 6602SOL    MW426182   3.156   0.589   4.920 -0.1330  0.6289 -0.3107
 6603SOL     OW26183   0.626   2.281   0.276  0.2932 -0.4267  0.1980
 6603SOL    HW226184   0.544   2.262   0.232  1.4571 -0.6827 -2.0148
 6603SOL    HW326185   0.669   2.346   0.221  0.5679  1.6078  2.6038
 6603SOL    MW426186   0.621   2.287   0.263 -0.3329  0.1810 -0.0005
 6604SOL     OW26187   1.022   0.094   0.187  0.1399 -0.1567  0.1053
 6604SOL    HW226188   1.103   0.044   0.180  1.5461  1.8672  0.8694
 6604SOL    HW326189   1.031   0.163   0.120  0.2890  1.6357  1.8861
 6604SOL    MW426190   1.034   0.097   0.177 -0.2214  0.5213 -0.0770
 6605SOL     OW26191   0.011   2.975   5.328  0.3983  0.2700  0.5157
 6605SOL    HW226192   0.087   3.028   5.352 -0.3364  0.7955  1.7161
 6605SOL    HW326193   0.006   2.984   5.232 -0.1794  3.0704  0.7123
 6605SOL    MW426194   0.020   2.983   5.318 -0.1398 -0.0128  0.1641
 6606SOL     OW26195   2.863   2.827   3.979 -1.0282 -0.3856 -0.1480
 6606SOL    HW226196   2.859   2.878   4.060 -0.2166 -1.9911  0.9714
 6606SOL    HW326197   2.860   2.736   4.009 -0.6526 -1.0099 -1.9285
 6606SOL    MW426198   2.862   2.822   3.994  0.0130 -0.1962 -0.3475
 6607SOL     OW26199   3.583   5.385   5.302 -0.0411 -0.0501 -0.1037
 6607SOL    HW226200   3.631   5.313   5.260 -1.0141  0.4620 -2.2434
 6607SOL    HW326201   3.491   5.365   5.286 -0.3394  1.5093 -0.4828
 6607SOL    MW426202   3.577   5.373   5.294 -0.4089  0.2022  0.5300
 6608SOL     OW26203   4.977   6.272   5.375  0.1951 -0.0327 -0.0063
 6608SOL    HW226204   5.026   6.234   5.448 -0.8608  2.3046  2.0584
 6608SOL    HW326205   4.897   6.219   5.371  1.6668 -2.3346 -1.8366
 6608SOL    MW426206   4.973   6.260   5.384  0.4600 -0.3467  0.3072
 6609SOL     OW26207   0.206   3.151   6.430 -0.0714 -0.7010 -0.5436
 6609SOL    HW226208   0.297   3.120   6.429  0.0005 -0.5622  0.4284
 6609SOL    HW326209   0.190   3.181   6.340  0.6199 -1.3509 -0.8944
 6609SOL    MW426210   0.216   3.151   6.418 -0.1921 -0.1257 -0.0361
 6610SOL     OW26211   2.246   0.816   2.937 -0.7844 -0.0038 -0.0336
 6610SOL    HW226212   2.235   0.728   2.901  0.3790 -0.8404  1.5006
 6610SOL    HW326213   2.317   0.855   2.885 -0.8350 -0.2374 -0.2759
 6610SOL    MW426214   2.254   0.810   2.926 -0.2693  0.1941 -0.2891
 6611SOL     OW26215   5.405   2.750   0.944  0.4029 -0.0997 -0.0194
 6611SOL    HW226216   5.376   2.715   0.860  0.4161 -0.7953  0.2583
 6611SOL    HW326217   5.500   2.755   0.937  0.2739  3.5231 -1.4589
 6611SOL    MW426218   5.414   2.746   0.932  0.0619  0.1664  0.1589
 6612SOL     OW26219   2.977   1.209   1.488 -0.1761 -0.3273  0.3468
 6612SOL    HW226220   3.070   1.194   1.473 -0.3294 -2.3289  1.0538
 6612SOL    HW326221   2.937   1.196   1.402  0.2008  0.7370  0.0008
 6612SOL    MW426222   2.984   1.205   1.475 -0.3246 -0.4318  0.1368
 6613SOL     OW26223   2.973   4.022   3.732 -0.0094 -0.1480 -0.5515
 6613SOL    HW226224   2.948   3.931   3.749 -0.8656 -0.0327 -1.1036
 6613SOL    HW326225   2.902   4.074   3.769  1.4373  0.4340  1.5969
 6613SOL    MW426226   2.960   4.017   3.739 -0.0440  0.4311 -0.5269
 6614SOL     OW26227   4.877   2.594   6.347 -0.3446 -0.4506  0.0805
 6614SOL    HW226228   4.971   2.610   6.340 -0.5150  1.1742  1.0372
 6614SOL    HW326229   4.853   2.626   6.434 -1.6804 -1.4848  0.1304
 6614SOL    MW426230   4.886   2.600   6.357  0.3916 -0.6090 -0.2754
 6615SOL     OW26231   5.479   3.809   1.258 -0.0297  0.5719 -0.0515
 6615SOL    HW226232   5.544   3.752   1.299  0.3473  0.2121 -1.1023
 6615SOL    HW326233   5.425   3.841   1.330  0.5899 -0.0528  0.7026
 6615SOL    MW426234   5.481   3.806   1.273  0.3441 -0.0953 -0.0642
 6616SOL     OW26235   3.642   4.233   2.604 -0.4416 -0.1043  0.2013
 6616SOL    HW226236   3.627   4.328   2.611 -0.7826 -0.1119 -0.3611
 6616SOL    HW326237   3.554   4.196   2.590 -0.1902 -0.3873 -0.6977
 6616SOL    MW426238   3.628   4.241   2.603 -0.2927  0.4490  0.2492
 6617SOL     OW26239   1.480   3.829   4.673 -0.0467 -0.5197 -0.1548
 6617SOL    HW226240   1.484   3.839   4.578  0.1741 -2.5254 -0.3879
 6617SOL    HW326241   1.540   3.757   4.692 -2.9914 -2.8979  1.0179
 6617SOL    MW426242   1.488   3.821   4.663 -0.1250  0.3681  0.2053
 6618SOL     OW26243   3.038   3.432   4.356  0.4322  0.8882 -0.3515
 6618SOL    HW226244   2.951   3.465   4.378  0.4999  1.3822 -0.7991
 6618SOL    HW326245   3.062   3.479   4.275 -0.0797 -1.3077 -1.8757
 6618SOL    MW426246   3.030   3.443   4.348 -0.3131  0.3610 -0.1270
 6619SOL     OW26247   1.970   4.437   2.538 -0.0407 -0.4019 -0.1661
 6619SOL    HW226248   2.064   4.448   2.526 -0.7263  2.7560 -4.9394
 6619SOL    HW326249   1.947   4.362   2.483 -0.5292  0.0035 -0.5215
 6619SOL    MW426250   1.979   4.428   2.529  0.0733  0.6540 -0.3576
 6620SOL     OW26251   0.186   3.893   0.944  0.3887  0.0710 -0.1774
 6620SOL    HW226252   0.223   3.811   0.911  0.2502  0.7133 -2.0504
 6620SOL    HW326253   0.160   3.940   0.866 -0.0553  1.6762  0.8978
 6620SOL    MW426254   0.187   3.888   0.929  0.1287  0.1206  0.0010
 6621SOL     OW26255   6.007   0.985   2.426 -0.1404  0.4394  0.1237
 6621SOL    HW226256   5.982   1.029   2.507 -0.9254  0.3303 -0.0460
 6621SOL    HW326257   6.095   0.953   2.442 -0.1983  0.6271  0.8499
 6621SOL    MW426258   6.015   0.987   2.439  0.2859 -0.6824 -0.6788
 6622SOL     OW26259   3.796   1.381   3.696 -0.3932 -0.4673 -0.5399
 6622SOL    HW226260   3.890   1.364   3.706 -0.1600 -0.6918 -2.6762
 6622SOL    HW326261   3.783   1.388   3.602 -1.9250  3.0665 -0.2138
 6622SOL    MW426262   3.807   1.379   3.685 -0.5784 -0.3241 -0.1463
 6623SOL     OW26263   0.411   1.516   6.127 -0.6472  0.4322  0.1018
 6623SOL    HW226264   0.435   1.605   6.151 -1.0608  0.6931 -0.4238
 6623SOL    HW326265   0.316   1.513   6.136 -0.8241  0.5303 -1.3710
 6623SOL    MW426266   0.401   1.527   6.131 -0.0353  0.0973  0.0698
 6624SOL     OW26267   1.767   0.840   4.838  0.1533 -0.3209  0.3342
 6624SOL    HW226268   1.697   0.904   4.849 -0.3456 -0.2923 -2.4306
 6624SOL    HW326269   1.846   0.892   4.830 -0.0490 -0.1105 -0.3751
 6624SOL    MW426270   1.768   0.855   4.838  0.1371 -0.2320  0.2154
 6625SOL     OW26271   2.127   2.536   2.496 -0.0213  0.2323 -0.0306
 6625SOL    HW226272   2.056   2.500   2.443  0.3608 -0.7839  0.1266
 6625SOL    HW326273   2.082   2.589   2.563 -0.6870 -0.9018  0.4491
 6625SOL    MW426274   2.111   2.539   2.498 -0.3838 -0.3422 -0.4761
 6626SOL     OW26275   3.214   1.069   5.912  0.0635  0.3217 -0.1975
 6626SOL    HW226276   3.221   1.097   5.820 -0.6637  1.9782  0.2048
 6626SOL    HW326277   3.223   1.150   5.962  2.4100 -0.7653  1.3491
 6626SOL    MW426278   3.216   1.084   5.906 -0.0157  0.1310 -0.0913
 6627SOL     OW26279   5.293   1.924   3.170 -0.1801  0.3726 -0.5731
 6627SOL    HW226280   5.301   1.989   3.239 -0.5670  0.5524 -0.6912
 6627SOL    HW326281   5.317   1.841   3.211 -1.4438  0.3045  0.0869
 6627SOL    MW426282   5.297   1.921   3.184  0.3530 -0.0179 -0.8176
 6628SOL     OW26283   1.170   0.182   2.314  0.2729  0.3172  0.0725
 6628SOL    HW226284   1.147   0.107   2.369  0.4621  1.8450  2.3832
 6628SOL    HW326285   1.086   0.215   2.282  0.0923 -0.1357  0.0735
 6628SOL    MW426286   1.156   0.177   2.317 -0.6528  0.0031 -0.3727
 6629SOL     OW26287   6.183   1.106   1.470  0.1608  0.6371 -0.0223
 6629SOL    HW226288   6.097   1.122   1.430 -0.6566 -2.3391  0.2964
 6629SOL    HW326289   6.167   1.037   1.535  2.9478 -0.8463 -0.7319
 6629SOL    MW426290   6.169   1.099   1.473 -0.5094 -0.2420 -0.3347
 6630SOL     OW26291   4.128   2.909   0.873 -0.2860  0.4462 -0.6352
 6630SOL    HW226292   4.053   2.903   0.932  0.0601  0.3911 -0.1966
 6630SOL    HW326293   4.201   2.875   0.924  0.3062  1.7479 -0.5824
 6630SOL    MW426294   4.128   2.903   0.887  0.3147 -0.1817 -0.4335
 6631SOL     OW26295   4.035   3.294   3.532 -0.0933  0.0141 -0.1123
 6631SOL    HW226296   4.063   3.209   3.500  0.9325 -0.1895  1.2388
 6631SOL    HW326297   3.941   3.298   3.511  0.3719 -0.3432 -2.4771
 6631SOL    MW426298   4.026   3.284   3.525 -0.0183 -0.3431  0.7193
 6632SOL     OW26299   3.894   4.987   5.147 -0.0553  0.1899 -0.1312
 6632SOL    HW226300   3.918   4.920   5.211 -0.7853 -0.5233 -0.5840
 6632SOL    HW326301   3.967   4.989   5.085  1.7844  2.5190  1.9159
 6632SOL    MW426302   3.907   4.979   5.147 -0.4886 -0.6767  0.0891
 6633SOL     OW26303   5.336   2.740   5.116  0.4039 -0.6435 -0.1678
 6633SOL    HW226304   5.261   2.703   5.164 -0.2174 -0.6218 -1.0959
 6633SOL    HW326305   5.402   2.671   5.117 -0.4110 -1.4747 -1.1128
 6633SOL    MW426306   5.335   2.726   5.123  0.1377 -0.2466  0.2899
 6634SOL     OW26307   2.239   3.631   1.751 -0.0201  0.0419  0.2773
 6634SOL    HW226308   2.227   3.553   1.805  0.9854 -0.9657 -0.8910
 6634SOL    HW326309   2.276   3.696   1.811  0.9057 -0.9842  0.8682
 6634SOL    MW426310   2.243   3.629   1.766  0.5824 -0.1141 -0.5307
 6635SOL     OW26311   6.075   2.460   5.322 -0.1754  0.5088  0.0434
 6635SOL    HW226312   6.110   2.479   5.409 -0.2742  0.4000  0.1060
 6635SOL    HW326313   6.077   2.544   5.276 -0.3845  0.6209  0.2420
 6635SOL    MW426314   6.080   2.474   5.327 -0.4937  0.2573  0.2197
 6636SOL     OW26315   4.148   3.366   4.433  0.4149 -0.2307 -0.2450
 6636SOL    HW226316   4.139   3.311   4.355  0.9447 -0.1741 -0.3531
 6636SOL    HW326317   4.194   3.444   4.402  0.9836 -0.3800  0.1939
 6636SOL    MW426318   4.153   3.369   4.419  0.3012 -0.2773  0.0510
 6637SOL     OW26319   4.713   0.379   5.585 -0.1625  0.2968  0.0122
 6637SOL    HW226320   4.712   0.443   5.656 -1.2261 -0.3663  0.6322
 6637SOL    HW326321   4.655   0.416   5.518 -0.1649  0.3341  0.0353
 6637SOL    MW426322   4.705   0.392   5.585  0.4187 -0.4266  0.2054
 6638SOL     OW26323   4.711   0.615   2.428 -0.7284  0.2811  0.2817
 6638SOL    HW226324   4.663   0.578   2.355 -0.0470  1.0675 -0.5838
 6638SOL    HW326325   4.803   0.613   2.401 -0.4025  0.0856  1.3407
 6638SOL    MW426326   4.717   0.610   2.415 -0.2157  0.0421  0.2019
 6639SOL     OW26327   4.457   4.645   0.708  0.0969 -0.5311  0.5178
 6639SOL    HW226328   4.429   4.735   0.723  0.9746  0.2938 -2.2402
 6639SOL    HW326329   4.390   4.608   0.650  0.4357 -1.2240  0.5527
 6639SOL    MW426330   4.444   4.652   0.703  0.3065  0.3900 -0.2226
 6640SOL     OW26331   0.326   1.017   4.717 -0.5248  0.1437 -0.0098
 6640SOL    HW226332   0.357   0.926   4.719 -1.0421 -0.0363  1.9713
 6640SOL    HW326333   0.367   1.055   4.639  0.1686 -1.6214 -0.5459
 6640SOL    MW426334   0.336   1.010   4.707 -0.0008  0.6303 -0.3324
 6641SOL     OW26335   4.822   0.582   4.813 -0.4392  0.0827 -0.8341
 6641SOL    HW226336   4.837   0.640   4.739 -0.6442 -0.1348 -1.0484
 6641SOL    HW326337   4.794   0.640   4.884  0.5117  0.3795 -0.6964
 6641SOL    MW426338   4.820   0.597   4.813  0.2157 -0.8343  0.0707
 6642SOL     OW26339   5.419   1.429   3.284  0.3955 -0.2813 -0.5536
 6642SOL    HW226340   5.371   1.347   3.273  1.7466 -1.0713 -0.7284
 6642SOL    HW326341   5.460   1.421   3.371 -1.0179  1.0641  0.2895
 6642SOL    MW426342   5.418   1.417   3.294 -0.1362  0.0591  0.0998
 6643SOL     OW26343   2.670   2.826   2.709 -0.1545 -0.1205  0.2368
 6643SOL    HW226344   2.577   2.846   2.720 -0.3525 -1.6195  1.7458
 6643SOL    HW326345   2.677   2.796   2.618 -1.4201 -1.2146  0.4684
 6643SOL    MW426346   2.658   2.825   2.698  0.3648  0.4136 -0.1691
 6644SOL     OW26347   0.822   2.610   1.217 -0.4278  1.2278 -0.5545
 6644SOL    HW226348   0.879   2.541   1.252 -1.9610  0.4774  0.5561
 6644SOL    HW326349   0.853   2.622   1.127  0.8025  0.1123 -0.3225
 6644SOL    MW426350   0.834   2.602   1.210 -0.1854  0.0402  0.6096
 6645SOL     OW26351   5.996   4.547   5.816 -0.1777 -0.2375 -0.0668
 6645SOL    HW226352   6.070   4.489   5.835  0.3528  0.4230 -0.1039
 6645SOL    HW326353   6.036   4.628   5.786 -0.8693  0.7475  1.5793
 6645SOL    MW426354   6.011   4.550   5.814  0.0240  0.1464 -0.1225
 6646SOL     OW26355   1.409   0.431   0.137 -0.1619 -0.5395 -0.0420
 6646SOL    HW226356   1.505   0.434   0.131 -0.1352 -1.4570 -0.1398
 6646SOL    HW326357   1.391   0.366   0.204 -0.7042  0.8247  1.1906
 6646SOL    MW426358   1.420   0.423   0.145  0.4566 -0.2188 -0.3741
 6647SOL     OW26359   2.818   2.207   0.541  0.5951  0.9199 -0.4464
 6647SOL    HW226360   2.894   2.250   0.502  2.1181 -2.4426 -1.6141
 6647SOL    HW326361   2.781   2.156   0.469 -0.9799  0.1759  0.8388
 6647SOL    MW426362   2.823   2.206   0.526 -0.0212  0.3555 -0.1255
 6648SOL     OW26363   1.099   4.429   5.651 -0.0133  0.0858  0.0418
 6648SOL    HW226364   1.098   4.344   5.694  0.1666  0.4154  0.7064
 6648SOL    HW326365   1.170   4.477   5.694  1.2587 -0.1186 -1.7065
 6648SOL    MW426366   1.108   4.424   5.662 -0.3558  0.1185  0.5322
 6649SOL     OW26367   5.818   6.143   2.780  0.2878 -0.6441  0.2334
 6649SOL    HW226368   5.781   6.215   2.831  2.9781  1.6277 -0.7206
 6649SOL    HW326369   5.743   6.092   2.751 -2.1946  3.4706 -1.4461
 6649SOL    MW426370   5.803   6.146   2.783  0.5995 -0.4718  0.0488
 6650SOL     OW26371   2.331   0.762   1.436  0.0744  0.2472  0.0856
 6650SOL    HW226372   2.384   0.718   1.503  0.2233  0.2622 -0.0214
 6650SOL    HW326373   2.326   0.853   1.466 -0.2203  0.1590  0.2979
 6650SOL    MW426374   2.338   0.769   1.449  0.4413  0.6431  0.4212
 6651SOL     OW26375   0.771   2.431   1.820 -0.0735 -0.0887 -0.0508
 6651SOL    HW226376   0.849   2.376   1.824  0.2035  0.3893  1.8216
 6651SOL    HW326377   0.734   2.413   1.733 -0.1716 -3.4402  0.5489
 6651SOL    MW426378   0.777   2.422   1.809 -0.2941  0.1839 -0.6065
 6652SOL     OW26379   5.588   1.772   0.002  0.0370  0.0931  0.1271
 6652SOL    HW226380   5.518   1.784  -0.062  0.5452  0.4770 -0.3742
 6652SOL    HW326381   5.549   1.719   0.071 -0.1431 -1.5304 -1.1462
 6652SOL    MW426382   5.574   1.767   0.002 -0.0691  0.6571  0.7235
 6653SOL     OW26383   3.813   1.289   5.520  0.3857  0.3334 -0.8570
 6653SOL    HW226384   3.733   1.244   5.548  0.4668  0.7536  0.0839
 6653SOL    HW326385   3.800   1.305   5.427 -0.3700 -0.1292 -0.8435
 6653SOL    MW426386   3.801   1.285   5.512  0.7044  0.3774 -0.0095
 6654SOL     OW26387   0.494   5.560   2.906 -0.0117  0.3540 -0.0842
 6654SOL    HW226388   0.576   5.544   2.858  1.0627  1.6130  1.1987
 6654SOL    HW326389   0.494   5.655   2.920 -1.3537  0.2749  0.5558
 6654SOL    MW426390   0.505   5.571   2.902 -0.0618  0.1027  0.1271
 6655SOL     OW26391   2.237   4.387   2.557 -0.6041  0.5281 -0.2383
 6655SOL    HW226392   2.218   4.337   2.637  0.2676 -0.4557 -0.6295
 6655SOL    HW326393   2.276   4.323   2.498 -0.7034  1.3877 -1.2467
 6655SOL    MW426394   2.239   4.372   2.560  0.2921 -0.3015  0.7803
 6656SOL     OW26395   0.632   3.338   4.946  0.2648  0.1807  0.4394
 6656SOL    HW226396   0.601   3.317   5.034 -0.1738 -0.1688  0.2105
 6656SOL    HW326397   0.686   3.263   4.921 -0.0688  0.0130  0.2022
 6656SOL    MW426398   0.635   3.325   4.954  0.0841 -0.3020 -0.3236
 6657SOL     OW26399   6.008   5.197   3.767  0.0119 -0.3566 -0.7009
 6657SOL    HW226400   5.916   5.190   3.740  0.0921  1.5434 -1.6184
 6657SOL    HW326401   6.058   5.170   3.691  0.2214 -0.1855 -0.6254
 6657SOL    MW426402   6.002   5.192   3.754  0.2448 -0.3189 -0.8280
 6658SOL     OW26403   3.264   2.126   2.611  0.0359  1.4025 -0.1642
 6658SOL    HW226404   3.188   2.073   2.635  1.6934 -1.3165 -0.4484
 6658SOL    HW326405   3.228   2.213   2.592 -2.8535  0.4506  0.4212
 6658SOL    MW426406   3.249   2.131   2.612  0.2924  0.4047  0.5148
 6659SOL     OW26407   6.307   4.567   0.134 -0.0966  0.1702 -0.3560
 6659SOL    HW226408   6.352   4.637   0.182  1.2213 -0.6202 -0.3903
 6659SOL    HW326409   6.264   4.515   0.202  1.9535 -1.0788  0.0826
 6659SOL    MW426410   6.307   4.569   0.150 -0.6835  0.2619  0.3749
 6660SOL     OW26411   2.823   2.044   5.252 -0.8042 -0.0882  0.6617
 6660SOL    HW226412   2.737   2.068   5.287 -0.3416  0.5338  1.4181
 6660SOL    HW326413   2.821   2.075   5.162 -1.2491  0.2682  0.7870
 6660SOL    MW426414   2.812   2.052   5.245 -0.3404  0.4990  0.0738
 6661SOL     OW26415   4.842   2.440   3.559  0.2831 -0.2427  0.2938
 6661SOL    HW226416   4.869   2.376   3.625 -1.3363 -1.3836 -0.1021
 6661SOL    HW326417   4.780   2.393   3.504 -0.1995  1.3965 -0.6232
 6661SOL    MW426418   4.837   2.425   3.561  0.4157  0.1610  0.4479
 6662SOL     OW26419   5.233   1.085   1.394 -0.0606 -0.1501  0.4608
 6662SOL    HW226420   5.200   1.002   1.358  1.0941 -1.4702  2.2769
 6662SOL    HW326421   5.158   1.144   1.391 -0.8788 -1.1847 -1.0415
 6662SOL    MW426422   5.219   1.082   1.389  0.6255 -0.3407 -0.6346
 6663SOL     OW26423   3.165   1.061   3.926  0.1999  0.1015  0.1673
 6663SOL    HW226424   3.187   1.077   4.017  0.5070 -0.4098  0.1832
 6663SOL    HW326425   3.173   1.147   3.884  0.9784  0.1592  0.4286
 6663SOL    MW426426   3.169   1.075   3.932  0.0337 -0.3254  0.4840
 6664SOL     OW26427   0.538   4.342   1.091 -0.1663 -0.4501  0.2870
 6664SOL    HW226428   0.629   4.319   1.112 -0.2756 -1.2472 -0.0929
 6664SOL    HW326429   0.485   4.281   1.141 -0.4621 -0.9475 -0.5997
 6664SOL    MW426430   0.543   4.331   1.100 -0.0869  0.6472 -0.1319
 6665SOL     OW26431   1.510   2.918   4.826  0.2807 -0.5965 -0.3641
 6665SOL    HW226432   1.446   2.981   4.857 -1.2663 -2.3261  0.1499
 6665SOL    HW326433   1.586   2.930   4.882  0.3918  1.3862 -0.8789
 6665SOL    MW426434   1.512   2.928   4.837  0.0812 -0.3275 -0.4594
 6666SOL     OW26435   5.430   6.368   4.266  0.1380  0.3885  0.4790
 6666SOL    HW226436   5.457   6.381   4.357 -0.1361 -0.4755  0.6861
 6666SOL    HW326437   5.377   6.288   4.267 -1.0597  1.1315 -0.1950
 6666SOL    MW426438   5.426   6.359   4.278 -0.0453 -0.2202 -0.2525
 6667SOL     OW26439   6.103   3.479   6.107 -0.0342 -0.2468 -1.1623
 6667SOL    HW226440   6.184   3.528   6.121  0.5869 -1.5683  0.2335
 6667SOL    HW326441   6.034   3.545   6.111  0.6499  0.4702  2.0445
 6667SOL    MW426442   6.104   3.494   6.109  0.3545  0.3571 -0.1668
 6668SOL     OW26443   0.979   4.615   2.873 -0.1632  0.6220  0.0013
 6668SOL    HW226444   0.895   4.585   2.838 -0.7542  0.3556  1.5566
 6668SOL    HW326445   1.035   4.537   2.869 -0.3750  0.4627  0.1038
 6668SOL    MW426446   0.975   4.601   2.868 -0.3792  0.0674  0.4455
 6669SOL     OW26447   2.890   4.599   5.822 -0.2526  0.6665  0.2806
 6669SOL    HW226448   2.901   4.675   5.765 -0.9886  0.1569 -0.5821
 6669SOL    HW326449   2.795   4.587   5.828 -0.1525  0.0028  0.6590
 6669SOL    MW426450   2.879   4.607   5.815  0.1661  0.6674 -0.2228
 6670SOL     OW26451   1.659   2.074   0.481 -0.0391  0.0539 -0.2030
 6670SOL    HW226452   1.711   2.093   0.559 -1.2358 -0.6137  0.7951
 6670SOL    HW326453   1.621   1.987   0.497 -0.6442  0.0774 -1.3450
 6670SOL    MW426454   1.661   2.065   0.493 -0.7883  0.0571 -0.0434
 6671SOL     OW26455   2.012   1.798   4.617  0.2089  0.2318  1.0074
 6671SOL    HW226456   1.967   1.812   4.700 -1.1586 -1.2099  0.5633
 6671SOL    HW326457   2.029   1.704   4.615  0.2218  0.2493 -0.3300
 6671SOL    MW426458   2.008   1.788   4.628  0.5422 -0.1705  0.2756
 6672SOL     OW26459   3.303   2.852   5.050  0.3698 -0.6903  0.3121
 6672SOL    HW226460   3.310   2.880   5.142 -1.1844  0.8153  0.0266
 6672SOL    HW326461   3.352   2.918   5.001 -2.2494  0.9547 -0.2557
 6672SOL    MW426462   3.310   2.865   5.056  0.1006 -0.9159 -0.1474
 6673SOL     OW26463   3.481   1.324   2.332  0.3459 -0.3016 -0.1332
 6673SOL    HW226464   3.425   1.250   2.309  1.6348 -1.4545  0.3568
 6673SOL    HW326465   3.441   1.362   2.410  0.4812 -1.3919  0.4802
 6673SOL    MW426466   3.468   1.320   2.339 -0.2688 -0.0553 -0.1110
 6674SOL     OW26467   5.039   1.165   5.815 -0.3266 -0.1790 -0.2269
 6674SOL    HW226468   5.118   1.129   5.774  1.1394  1.9826  0.5339
 6674SOL    HW326469   4.995   1.213   5.745  0.4509  0.7952 -0.0662
 6674SOL    MW426470   5.043   1.167   5.800  0.1097  0.1114  1.1649
 6675SOL     OW26471   4.870   1.105   2.813 -0.2637 -0.1180  0.4592
 6675SOL    HW226472   4.949   1.138   2.854 -0.1207 -0.0442  0.1239
 6675SOL    HW326473   4.837   1.178   2.760  0.7755 -0.8998 -1.3430
 6675SOL    MW426474   4.876   1.119   2.811  0.2915  0.3533 -0.0468
 6676SOL     OW26475   2.447   2.647   4.400 -0.4438  0.0289  0.5192
 6676SOL    HW226476   2.424   2.735   4.431  0.5130 -0.0781  1.6221
 6676SOL    HW326477   2.421   2.589   4.470 -2.1405 -0.7538 -0.6849
 6676SOL    MW426478   2.441   2.651   4.413  0.2049  0.0708 -0.3640
 6677SOL     OW26479   4.643   2.239   2.536  0.3501 -0.1423  0.1519
 6677SOL    HW226480   4.728   2.235   2.492  0.7241  0.8232  0.7355
 6677SOL    HW326481   4.639   2.159   2.589  1.4720  0.3789  1.0877
 6677SOL    MW426482   4.654   2.228   2.538  0.1829 -0.1940 -0.1114
 6678SOL     OW26483   3.803   0.530   3.266 -0.1160 -0.4150 -0.0054
 6678SOL    HW226484   3.748   0.581   3.207  1.0886  1.6602  0.5810
 6678SOL    HW326485   3.825   0.590   3.337  1.1312 -1.8556  0.8871
 6678SOL    MW426486   3.798   0.544   3.267  0.2247  0.1165  0.0764
 6679SOL     OW26487   5.462   3.753   5.636 -0.4299 -0.3535 -0.7708
 6679SOL    HW226488   5.552   3.737   5.665 -0.3177 -0.7028 -1.3114
 6679SOL    HW326489   5.419   3.790   5.713  0.2418  0.0527 -0.5799
 6679SOL    MW426490   5.468   3.756   5.650  0.0123  0.2598  0.2284
 6680SOL     OW26491   2.111   5.480   0.271  0.0053 -0.5916 -0.0891
 6680SOL    HW226492   2.069   5.396   0.255  0.0997 -0.7519  0.4817
 6680SOL    HW326493   2.179   5.461   0.336  0.1271 -0.1074 -0.0701
 6680SOL    MW426494   2.115   5.466   0.278 -0.2478  0.2414  0.1320
 6681SOL     OW26495   6.266   1.607   3.913  0.3410  0.0394 -0.2237
 6681SOL    HW226496   6.252   1.577   3.823 -0.3193 -0.1053 -0.0774
 6681SOL    HW326497   6.189   1.659   3.934  1.4921  1.9367 -0.4902
 6681SOL    MW426498   6.254   1.610   3.904  0.1346 -0.5281 -0.2342
 6682SOL     OW26499   3.910   5.035   4.371 -0.4822 -0.1477 -0.3622
 6682SOL    HW226500   3.859   4.954   4.377  1.4818 -1.3665  1.8867
 6682SOL    HW326501   4.001   5.004   4.361  0.2214  1.8018 -0.3548
 6682SOL    MW426502   3.915   5.020   4.370  0.3731 -0.2211 -0.6298
 6683SOL     OW26503   3.018   3.174   2.281 -0.8108 -0.1903 -0.1369
 6683SOL    HW226504   3.114   3.177   2.280 -0.7176  0.1709  2.6309
 6683SOL    HW326505   2.992   3.251   2.230  0.3854  0.1377 -0.2872
 6683SOL    MW426506   3.027   3.185   2.274 -0.0471  0.3898  0.6830
 6684SOL     OW26507   1.051   0.694   1.736  0.0537 -0.0484 -0.3921
 6684SOL    HW226508   0.971   0.731   1.774  0.5049  0.9756 -0.4163
 6684SOL    HW326509   1.111   0.768   1.727  2.7826 -1.3580  3.8944
 6684SOL    MW426510   1.048   0.708   1.740  0.4790  0.3339 -0.0538
 6685SOL     OW26511   4.632   4.952   2.220 -0.3841  1.0065  0.0864
 6685SOL    HW226512   4.630   4.997   2.304  1.3518 -3.9711  3.2308
 6685SOL    HW326513   4.542   4.923   2.205 -0.7701  2.2193  0.0001
 6685SOL    MW426514   4.620   4.954   2.229  0.0698  0.0627  0.3160
 6686SOL     OW26515   1.352   6.312   3.099  0.7004 -0.2180 -0.2640
 6686SOL    HW226516   1.322   6.322   3.190  0.3694 -1.8814 -0.1652
 6686SOL    HW326517   1.301   6.239   3.065  2.3747 -1.0288 -1.1184
 6686SOL    MW426518   1.341   6.304   3.107  0.2254 -0.5745  0.0936
 6687SOL     OW26519   0.440   1.759   4.786  0.3039 -0.7443  0.7768
 6687SOL    HW226520   0.487   1.797   4.860 -0.4630  1.4938  0.2114
 6687SOL    HW326521   0.363   1.815   4.776 -0.4412 -1.9631 -0.7207
 6687SOL    MW426522   0.436   1.771   4.795  0.0966  0.1209  0.0640
 6688SOL     OW26523   0.211   1.910   1.017 -0.2212  0.6415 -0.7220
 6688SOL    HW226524   0.188   1.841   1.079 -0.7251  0.5162 -1.0434
 6688SOL    HW326525   0.306   1.901   1.005 -0.1483  0.5591 -0.1058
 6688SOL    MW426526   0.221   1.899   1.023 -0.2978  0.2953  0.4756
 6689SOL     OW26527   2.076   5.889   0.316 -0.2218 -0.0434  0.7621
 6689SOL    HW226528   2.039   5.815   0.364 -1.9088  0.2484  0.0105
 6689SOL    HW326529   2.002   5.948   0.302  0.7625  1.0773  0.0356
 6689SOL    MW426530   2.061   5.887   0.320 -0.0921  0.0255  0.6155
 6690SOL     OW26531   5.772   4.513   3.749  0.0197 -0.3341 -0.1346
 6690SOL    HW226532   5.683   4.539   3.727 -0.4381 -0.5609  1.3538
 6690SOL    HW326533   5.762   4.433   3.800  0.7406  1.5283  3.2585
 6690SOL    MW426534   5.759   4.506   3.753  0.2457 -0.1472 -0.3409
 6691SOL     OW26535   2.144   0.703   5.795 -0.4003 -0.1091  0.0965
 6691SOL    HW226536   2.195   0.688   5.715 -0.0535 -1.2045  0.4994
 6691SOL    HW326537   2.203   0.749   5.853 -0.5100  0.3123 -0.1248
 6691SOL    MW426538   2.158   0.707   5.792 -0.4113 -0.1009  0.3573
 6692SOL     OW26539   2.734   6.299   5.310  0.1637 -0.1070  0.2181
 6692SOL    HW226540   2.778   6.215   5.324 -1.6097 -0.9996  0.7893
 6692SOL    HW326541   2.648   6.275   5.276  0.3329  1.5937 -1.5604
 6692SOL    MW426542   2.728   6.284   5.307  0.1068 -0.3696 -0.4854
 6693SOL     OW26543   5.942   1.095   2.993  0.5399  0.6819 -0.2005
 6693SOL    HW226544   6.003   1.076   2.923 -0.3533 -0.4547 -0.6959
 6693SOL    HW326545   5.906   1.010   3.018  0.0277  1.1899  0.8752
 6693SOL    MW426546   5.945   1.082   2.987  0.1443  0.0738  0.2739
 6694SOL     OW26547   0.637   3.518   4.736 -0.5444 -0.7410 -0.1172
 6694SOL    HW226548   0.571   3.581   4.763  0.8870  0.1093  1.5774
 6694SOL    HW326549   0.644   3.457   4.809 -0.3462 -1.5975 -0.8253
 6694SOL    MW426550   0.629   3.518   4.749 -0.1560 -0.3714 -0.5265
 6695SOL     OW26551   0.747   5.791   4.643  0.1111  0.0835 -1.0246
 6695SOL    HW226552   0.742   5.886   4.657  0.4816 -0.1777  1.1382
 6695SOL    HW326553   0.664   5.757   4.677  0.5367 -0.4949 -0.5518
 6695SOL    MW426554   0.735   5.799   4.649  0.2374  0.5612  0.2055
 6696SOL     OW26555   2.394   4.841   5.798  0.5354  0.0987  0.4778
 6696SOL    HW226556   2.311   4.860   5.755 -0.2980  1.8464  2.6353
 6696SOL    HW326557   2.427   4.927   5.826  2.4407 -0.6757  0.7819
 6696SOL    MW426558   2.388   4.855   5.796  0.3801  0.6657 -0.1742
 6697SOL     OW26559   2.205   5.536   0.016  0.0768 -0.1852 -0.1808
 6697SOL    HW226560   2.184   5.506   0.104 -0.6880  0.1438 -0.2487
 6697SOL    HW326561   2.155   5.616   0.005  2.8115  1.7623  0.3767
 6697SOL    MW426562   2.196   5.542   0.026  0.0574  0.0196  0.1860
 6698SOL     OW26563   1.579   4.469   2.663  0.1104  0.5558  0.0706
 6698SOL    HW226564   1.496   4.494   2.623 -1.6548 -0.8746  2.5542
 6698SOL    HW326565   1.598   4.382   2.627  0.2753  0.6790 -0.1392
 6698SOL    MW426566   1.571   4.461   2.653 -0.3558  0.5010 -0.1907
 6699SOL     OW26567   2.846   0.548   4.660  0.1961  0.0847 -0.2380
 6699SOL    HW226568   2.817   0.554   4.569 -1.0049  0.3116  0.1363
 6699SOL    HW326569   2.866   0.639   4.685  0.2710  0.0578 -0.1989
 6699SOL    MW426570   2.845   0.561   4.651 -0.0066  0.0864  0.0066
 6700SOL     OW26571   4.598   0.890   2.771  0.2144 -0.1693  0.4078
 6700SOL    HW226572   4.518   0.933   2.740  0.3117 -1.1053 -1.2357
 6700SOL    HW326573   4.567   0.808   2.810  0.3286 -0.3142  0.1964
 6700SOL    MW426574   4.583   0.885   2.772 -0.1788 -0.3197  0.1762
 6701SOL     OW26575   4.991   2.078   5.910 -0.2158  0.0683  0.3957
 6701SOL    HW226576   5.017   2.060   6.001  2.8510  0.8956 -0.2034
 6701SOL    HW326577   4.902   2.112   5.917 -0.3631 -0.6388  3.0066
 6701SOL    MW426578   4.983   2.080   5.923 -0.8131 -0.1117  0.0841
 6702SOL     OW26579   0.255   2.590   5.668 -0.4807  0.1135 -0.1676
 6702SOL    HW226580   0.178   2.595   5.613  0.0509  0.2118 -0.9217
 6702SOL    HW326581   0.322   2.548   5.613  0.1714  0.5543  0.2655
 6702SOL    MW426582   0.254   2.585   5.654  0.3264  0.0745 -0.6461
 6703SOL     OW26583   6.331   4.728   3.016 -0.2536  0.0319 -0.8273
 6703SOL    HW226584   6.296   4.665   2.953  0.7766  0.5183 -1.9226
 6703SOL    HW326585   6.273   4.804   3.008  0.1319  0.2657 -1.5484
 6703SOL    MW426586   6.319   4.729   3.006  0.2665  0.4141  0.5312
 6704SOL     OW26587   2.356   5.685   0.221  0.3219 -0.3158 -0.2592
 6704SOL    HW226588   2.347   5.774   0.187  0.4531  0.2722  1.1703
 6704SOL    HW326589   2.294   5.634   0.169  0.6091  0.4923 -1.4472
 6704SOL    MW426590   2.346   5.690   0.209  0.2894 -0.3982  0.2816
 6705SOL     OW26591   5.744   5.802   0.980 -0.1017 -0.6394 -0.5475
 6705SOL    HW226592   5.785   5.811   1.065  1.0092  0.2875 -1.1570
 6705SOL    HW326593   5.687   5.726   0.989  0.7304 -1.1465  0.7277
 6705SOL    MW426594   5.742   5.793   0.992 -0.3075  0.3584 -0.0513
 6706SOL     OW26595   4.309   3.588   0.507  0.7979  0.4759  0.5311
 6706SOL    HW226596   4.250   3.655   0.474  0.7818 -1.1453 -3.3079
 6706SOL    HW326597   4.373   3.636   0.560  0.3628  3.4167 -1.3913
 6706SOL    MW426598   4.310   3.603   0.510 -0.0226  0.0918  0.4317
 6707SOL     OW26599   2.876   2.541   2.074  0.1160 -0.4859  0.2782
 6707SOL    HW226600   2.827   2.528   1.993  0.1765  0.6290  0.0509
 6707SOL    HW326601   2.952   2.593   2.048  0.4003 -0.5466  0.9658
 6707SOL    MW426602   2.880   2.546   2.060 -0.2456  0.0544  0.9642
 6708SOL     OW26603   4.049   5.559   1.777  0.2919 -0.0759 -0.1576
 6708SOL    HW226604   4.119   5.595   1.831 -0.3837 -0.7394  1.2197
 6708SOL    HW326605   3.969   5.591   1.819 -0.2706 -1.5378 -0.0578
 6708SOL    MW426606   4.047   5.568   1.790 -0.0762  0.2148  0.3788
 6709SOL     OW26607   4.369   2.714   4.878  0.2121  0.5164 -0.2265
 6709SOL    HW226608   4.398   2.773   4.809  1.3878 -2.0027 -2.0214
 6709SOL    HW326609   4.384   2.626   4.843 -1.2980 -0.8982  2.3589
 6709SOL    MW426610   4.375   2.710   4.864  0.0252 -0.3345 -0.8174
 6710SOL     OW26611   5.301   4.240   1.685 -0.3194  0.3332  0.1613
 6710SOL    HW226612   5.358   4.316   1.699 -0.4245  1.1613 -2.9831
 6710SOL    HW326613   5.219   4.263   1.727  0.3902  0.9209  1.2654
 6710SOL    MW426614   5.298   4.253   1.692  0.1014 -0.2843 -0.5062
 6711SOL     OW26615   1.411   1.290   1.367  0.5445 -0.3806  0.3869
 6711SOL    HW226616   1.479   1.358   1.372  0.0280  0.0942  1.0053
 6711SOL    HW326617   1.424   1.238   1.446 -0.8845  0.7434  1.4030
 6711SOL    MW426618   1.422   1.292   1.378 -0.4190  0.3553 -0.2243
 6712SOL     OW26619   3.299   1.756   4.724 -0.2230 -0.3919 -0.2053
 6712SOL    HW226620   3.337   1.755   4.636  1.8970  1.7738  0.5609
 6712SOL    HW326621   3.218   1.806   4.715 -0.7080 -1.3200 -1.1323
 6712SOL    MW426622   3.293   1.763   4.711  0.5693 -0.8541 -0.5557
 6713SOL     OW26623   3.112   0.294   2.965 -0.5747  0.3363 -0.2891
 6713SOL    HW226624   3.079   0.382   2.983  1.3897  1.0492  0.1075
 6713SOL    HW326625   3.186   0.308   2.906 -0.6731 -1.1307 -0.8030
 6713SOL    MW426626   3.117   0.308   2.959 -0.0595  0.3275 -0.3555
 6714SOL     OW26627   0.986   3.326   4.283 -0.6443 -0.1195  0.3658
 6714SOL    HW226628   1.059   3.296   4.227 -0.6498 -1.4064  1.0038
 6714SOL    HW326629   1.019   3.405   4.325 -0.7470  1.0625 -1.6640
 6714SOL    MW426630   1.000   3.332   4.281  0.2364 -0.5350 -0.1340
 6715SOL     OW26631   1.945   0.758   0.053  0.3220 -0.3659 -0.3530
 6715SOL    HW226632   1.948   0.671   0.011  3.2233 -0.5867  0.1042
 6715SOL    HW326633   2.028   0.799   0.028  0.0309  1.3638  1.3237
 6715SOL    MW426634   1.957   0.752   0.044 -0.3266 -0.1353  0.3905
 6716SOL     OW26635   0.733   2.059   0.397  0.7882 -0.7637  0.4521
 6716SOL    HW226636   0.691   2.130   0.349 -0.6825 -1.7776  0.1753
 6716SOL    HW326637   0.792   2.103   0.458 -0.3889  0.7145  0.5831
 6716SOL    MW426638   0.735   2.074   0.398  0.1774  0.1059 -0.2270
 6717SOL     OW26639   0.159   2.636   3.725  0.0076  0.2223  0.3762
 6717SOL    HW226640   0.161   2.716   3.777  1.6349  0.4355  0.0260
 6717SOL    HW326641   0.251   2.616   3.708 -0.4425 -0.0684 -2.0792
 6717SOL    MW426642   0.171   2.644   3.730  0.4699  0.5064  0.0324
 6718SOL     OW26643   3.044   2.197   5.270 -0.3484 -0.2463  0.4781
 6718SOL    HW226644   2.969   2.137   5.270  0.1392 -0.8620 -0.0956
 6718SOL    HW326645   3.099   2.167   5.343 -0.7351  0.3123  1.0085
 6718SOL    MW426646   3.041   2.185   5.280 -0.1576  0.5103  0.3023
 6719SOL     OW26647   5.349   4.146   2.111  0.8758  0.7170 -0.2003
 6719SOL    HW226648   5.416   4.199   2.154  2.7954  0.8847 -3.1367
 6719SOL    HW326649   5.361   4.058   2.146  0.9876  1.2113  1.0530
 6719SOL    MW426650   5.359   4.142   2.121  0.7768  0.5289  0.7100
 6720SOL     OW26651   1.506   4.810   1.863  0.1452 -0.4467  0.1946
 6720SOL    HW226652   1.497   4.741   1.796 -0.2805  0.4693 -0.7240
 6720SOL    HW326653   1.557   4.878   1.820 -0.4356  0.3092  0.6745
 6720SOL    MW426654   1.511   4.810   1.848 -0.2025 -0.6976 -0.1546
 6721SOL     OW26655   3.639   0.924   2.036 -0.7930 -0.3502  0.0073
 6721SOL    HW226656   3.629   0.902   2.128  1.5197 -0.2135  0.3462
 6721SOL    HW326657   3.634   1.019   2.033 -1.5595 -0.3869 -0.1324
 6721SOL    MW426658   3.637   0.934   2.048 -0.7264 -0.0056  0.1773
 6722SOL     OW26659   1.863   4.495   3.550 -0.1821  0.6365 -0.2594
 6722SOL    HW226660   1.925   4.433   3.512 -1.8588 -0.0793 -1.9743
 6722SOL    HW326661   1.913   4.540   3.618  2.3779  0.4569 -1.8744
 6722SOL    MW426662   1.878   4.493   3.554  0.3956 -0.5066  0.4920
 6723SOL     OW26663   5.195   3.020   3.390 -0.1248 -0.1719 -0.2771
 6723SOL    HW226664   5.188   2.958   3.463  0.5969 -0.8552 -0.7648
 6723SOL    HW326665   5.135   3.090   3.412  1.7876  0.8602  2.1730
 6723SOL    MW426666   5.186   3.021   3.402  0.4764 -0.3134  0.2152
 6724SOL     OW26667   4.027   1.276   3.801 -0.7295  0.0450  0.4019
 6724SOL    HW226668   4.075   1.358   3.812 -1.7677  0.4829  1.9190
 6724SOL    HW326669   4.081   1.225   3.741  1.4671  0.6576  1.7432
 6724SOL    MW426670   4.041   1.280   3.794 -0.3722 -0.4686 -0.1151
 6725SOL     OW26671   3.524   6.247   2.648  0.2089 -0.3545  0.7783
 6725SOL    HW226672   3.538   6.317   2.584 -2.2493 -0.4494  0.0406
 6725SOL    HW326673   3.601   6.191   2.640  0.3776  0.1070 -1.4984
 6725SOL    MW426674   3.536   6.249   2.639  0.2496  0.0092 -0.2845
 6726SOL     OW26675   0.134   5.630   0.978 -0.7707  0.4121 -0.4346
 6726SOL    HW226676   0.153   5.701   0.917  1.1708 -0.2165 -0.6259
 6726SOL    HW326677   0.086   5.565   0.926  1.7877 -0.5965 -1.6780
 6726SOL    MW426678   0.130   5.631   0.963  0.5062  0.2231 -0.4156
 6727SOL     OW26679   5.511   6.085   1.269  0.1766 -0.0493  0.1152
 6727SOL    HW226680   5.417   6.088   1.286  0.1196 -0.6372 -0.0900
 6727SOL    HW326681   5.538   5.997   1.294  0.7787  0.2859  0.6879
 6727SOL    MW426682   5.502   6.074   1.275  0.1273  0.1348 -0.0975
 6728SOL     OW26683   2.071   2.727   4.803 -0.0122 -0.2066  0.3585
 6728SOL    HW226684   2.159   2.709   4.836 -0.1506 -0.8712  0.3717
 6728SOL    HW326685   2.049   2.651   4.750  0.9750  1.6385 -2.9638
 6728SOL    MW426686   2.080   2.715   4.800  0.2626  0.2865  0.2403
 6729SOL     OW26687   4.777   5.636   0.531 -0.3736 -0.1561  0.6229
 6729SOL    HW226688   4.722   5.643   0.609 -1.2116  2.2003 -0.1044
 6729SOL    HW326689   4.824   5.720   0.527  0.3071 -0.5690 -0.9309
 6729SOL    MW426690   4.776   5.648   0.541  0.7334  0.6957 -0.1240
 6730SOL     OW26691   0.678   0.431   3.989  0.3383 -0.1544 -0.3286
 6730SOL    HW226692   0.693   0.448   4.082 -1.9573 -0.6543  0.2188
 6730SOL    HW326693   0.641   0.513   3.955 -1.5298 -0.8265 -0.0482
 6730SOL    MW426694   0.675   0.444   3.997  0.3878  0.5012 -0.1839
 6731SOL     OW26695   0.829   2.088   3.135  0.0164 -0.2961 -0.1950
 6731SOL    HW226696   0.758   2.139   3.174  1.1515  0.3568  1.1187
 6731SOL    HW326697   0.790   2.003   3.115 -1.2918  0.2686 -0.1390
 6731SOL    MW426698   0.815   2.084   3.137  0.1020  0.1086 -0.3448
 6732SOL     OW26699   6.182   2.838   1.183  0.2259 -0.7098  0.1741
 6732SOL    HW226700   6.262   2.866   1.138  0.1117 -1.6242 -0.6296
 6732SOL    HW326701   6.111   2.874   1.129  0.0651  0.3236  1.0278
 6732SOL    MW426702   6.183   2.847   1.170  0.0060  0.1957 -0.4329
 6733SOL     OW26703   4.507   5.908   0.173 -0.4661 -0.5364 -0.4523
 6733SOL    HW226704   4.550   5.963   0.107 -0.8858  0.7139  0.2876
 6733SOL    HW326705   4.495   5.824   0.130  0.3188 -0.0956 -1.5736
 6733SOL    MW426706   4.511   5.904   0.159 -0.3279  0.4900 -0.3283
 6734SOL     OW26707   2.293   5.103   1.196  0.0507  0.1479  0.4299
 6734SOL    HW226708   2.209   5.081   1.235 -0.5340  1.3450 -0.1342
 6734SOL    HW326709   2.293   5.056   1.112 -1.1934  2.1765 -0.7684
 6734SOL    MW426710   2.282   5.094   1.190 -0.1084 -0.1417  0.4811
 6735SOL     OW26711   1.968   4.915   5.808  0.0605  0.7055 -0.1304
 6735SOL    HW226712   1.925   4.855   5.747 -1.1008 -1.1125  2.3171
 6735SOL    HW326713   1.927   4.897   5.892  2.7025  1.9538  1.5498
 6735SOL    MW426714   1.957   4.905   5.811 -0.5436  0.4478 -0.2041
 6736SOL     OW26715   0.300   0.328   0.265  0.1748  0.1650 -0.1718
 6736SOL    HW226716   0.376   0.385   0.263  2.2538 -2.4501 -0.0582
 6736SOL    HW326717   0.306   0.275   0.186 -0.1729 -1.7003  0.9896
 6736SOL    MW426718   0.311   0.329   0.254 -0.2245  0.1831  0.0740
 6737SOL     OW26719   0.636   6.082   3.066  0.0554  0.3824 -0.1069
 6737SOL    HW226720   0.690   6.047   3.137 -1.0077 -2.1778 -0.4315
 6737SOL    HW326721   0.599   6.163   3.101  1.2195  0.2733  1.4666
 6737SOL    MW426722   0.638   6.088   3.080  0.5906 -0.7830 -0.2607
 6738SOL     OW26723   5.877   3.222   1.621  0.1391 -0.2107 -0.6581
 6738SOL    HW226724   5.935   3.155   1.584 -0.4533 -0.8773 -0.3897
 6738SOL    HW326725   5.826   3.254   1.546 -1.3849 -1.8843 -0.3947
 6738SOL    MW426726   5.878   3.217   1.606  0.4073  0.6146  0.2918
 6739SOL     OW26727   3.624   1.169   4.760  0.0618  0.1263  0.2143
 6739SOL    HW226728   3.535   1.196   4.784 -0.3297  2.2848 -3.0105
 6739SOL    HW326729   3.612   1.087   4.711  0.0225 -0.2644  0.8688
 6739SOL    MW426730   3.611   1.162   4.757 -0.0252  0.0995  0.1146
 6740SOL     OW26731   4.145   1.591   1.252 -0.2218  0.6347 -0.0481
 6740SOL    HW226732   4.057   1.629   1.250 -0.5335  0.0191  1.0958
 6740SOL    HW326733   4.131   1.497   1.241  0.2020  0.4169  1.1999
 6740SOL    MW426734   4.132   1.583   1.250 -0.5752 -0.2225  0.0747
 6741SOL     OW26735   1.352   0.477   1.959  0.4931  0.6269  0.2449
 6741SOL    HW226736   1.414   0.412   1.990 -1.0023 -1.1802 -0.3222
 6741SOL    HW326737   1.359   0.474   1.863 -0.0122  0.8537  0.1929
 6741SOL    MW426738   1.361   0.468   1.950 -0.5531  0.0500 -0.3288
 6742SOL     OW26739   6.295   5.071   4.593  0.7360  0.2512 -0.0857
 6742SOL    HW226740   6.246   5.145   4.557  0.5453  0.9869  1.5930
 6742SOL    HW326741   6.317   5.018   4.516 -1.9902  0.2921 -1.0055
 6742SOL    MW426742   6.292   5.074   4.578 -0.5486  0.5599 -0.4595
 6743SOL     OW26743   0.781   1.371   4.043 -0.0039 -0.2221  0.3502
 6743SOL    HW226744   0.707   1.349   4.099  0.1696 -0.8422  0.3503
 6743SOL    HW326745   0.851   1.311   4.072  1.3472  2.0123  2.1010
 6743SOL    MW426746   0.781   1.360   4.054  0.4225 -0.3516 -0.3967
 6744SOL     OW26747   2.816   4.404   6.095  0.3946 -0.2880  0.2348
 6744SOL    HW226748   2.845   4.326   6.046  0.4481 -1.1023  1.5279
 6744SOL    HW326749   2.764   4.453   6.031  1.8635 -0.4331 -1.1652
 6744SOL    MW426750   2.813   4.400   6.080  0.0250  0.6813 -0.2379
 6745SOL     OW26751   4.456   4.469   0.006  0.3475 -0.1116 -0.0823
 6745SOL    HW226752   4.436   4.377  -0.011 -0.3449  0.1561 -0.7292
 6745SOL    HW326753   4.462   4.509  -0.080  1.8326  0.2168  0.1509
 6745SOL    MW426754   4.454   4.462  -0.007  0.2302 -0.4763 -0.1304
 6746SOL     OW26755   5.588   6.062   2.611  0.1127 -0.0929  0.4304
 6746SOL    HW226756   5.553   5.975   2.630  1.1277 -0.5445  0.3187
 6746SOL    HW326757   5.544   6.121   2.672 -0.0906 -0.7906  0.9584
 6746SOL    MW426758   5.577   6.058   2.621 -0.1467 -0.1806 -0.2073
 6747SOL     OW26759   0.034   0.766   1.027  0.2756  0.1300 -0.1997
 6747SOL    HW226760   0.036   0.672   1.045  1.8471  0.1798  0.0286
 6747SOL    HW326761  -0.046   0.798   1.070 -0.0078 -1.0075  0.1375
 6747SOL    MW426762   0.024   0.758   1.035 -0.1604  0.6253  0.1729
 6748SOL     OW26763   4.025   0.830   1.874  0.1105  0.1333 -0.0243
 6748SOL    HW226764   3.977   0.843   1.792 -0.3338  0.1614  0.2370
 6748SOL    HW326765   4.031   0.917   1.913  1.4025  0.3250 -0.6122
 6748SOL    MW426766   4.019   0.843   1.868 -0.7889 -0.4192 -0.0543
 6749SOL     OW26767   0.002   2.388   2.149  0.2041  0.2616 -0.4409
 6749SOL    HW226768  -0.067   2.324   2.130  0.8308 -0.6153  0.1755
 6749SOL    HW326769   0.082   2.336   2.156  0.6125  1.0083  0.7773
 6749SOL    MW426770   0.003   2.373   2.147 -0.2596 -0.5989 -0.2782
 6750SOL     OW26771   0.104   0.906   6.268 -0.2234 -0.1017  0.1723
 6750SOL    HW226772   0.033   0.872   6.213  0.1392  1.4549 -1.3559
 6750SOL    HW326773   0.071   0.899   6.357 -1.2586 -1.7557 -0.2918
 6750SOL    MW426774   0.090   0.900   6.272  0.5739 -0.3428  0.1079
 6751SOL     OW26775   6.072   5.915   2.383  0.2444  0.2897 -0.2748
 6751SOL    HW226776   6.088   5.956   2.468 -0.1467  0.2843 -0.1958
 6751SOL    HW326777   6.155   5.873   2.361  0.6952  1.2279 -0.4225
 6751SOL    MW426778   6.085   5.915   2.391  0.3027 -0.4573  0.0608
 6752SOL     OW26779   3.332   3.238   1.168  0.5528  0.0221 -0.5793
 6752SOL    HW226780   3.263   3.195   1.118  0.0781  1.0045 -0.8131
 6752SOL    HW326781   3.403   3.174   1.173 -0.0767 -0.7230 -1.0024
 6752SOL    MW426782   3.332   3.224   1.162  0.4490  0.1897 -0.1067
 6753SOL     OW26783   3.434   4.521   3.679 -0.0718 -0.2921 -0.2308
 6753SOL    HW226784   3.444   4.482   3.592  1.5370 -1.4197  0.3931
 6753SOL    HW326785   3.397   4.450   3.732 -1.6331  0.5836 -0.1103
 6753SOL    MW426786   3.430   4.506   3.674  0.4304 -0.1842  0.5756
 6754SOL     OW26787   1.201   1.394   4.738  0.5587 -0.2569 -0.1634
 6754SOL    HW226788   1.205   1.376   4.644  3.3316  0.5498 -0.2862
 6754SOL    HW326789   1.203   1.490   4.743 -3.0081 -0.0876  0.7297
 6754SOL    MW426790   1.202   1.405   4.726 -0.3344 -0.2571  0.7146
 6755SOL     OW26791   3.058   5.830   1.672  0.6159 -0.0249 -0.9385
 6755SOL    HW226792   3.030   5.838   1.764 -0.6772  0.6260 -1.3553
 6755SOL    HW326793   3.012   5.752   1.640  0.4595  0.1780 -1.2196
 6755SOL    MW426794   3.048   5.821   1.680  0.2704 -0.1361 -0.4486
 6756SOL     OW26795   0.783   4.415   0.417  0.0680 -0.1412  0.0707
 6756SOL    HW226796   0.859   4.410   0.476  1.3979  0.1952 -1.5156
 6756SOL    HW326797   0.794   4.499   0.372 -0.7245 -0.5323 -0.8777
 6756SOL    MW426798   0.795   4.426   0.419 -0.4548 -0.0740 -0.0299
 6757SOL     OW26799   4.343   0.797   3.425  0.4964 -0.1088  0.4764
 6757SOL    HW226800   4.260   0.811   3.380  0.7179 -2.3577 -0.7611
 6757SOL    HW326801   4.388   0.881   3.418 -0.6755  0.4432 -0.9844
 6757SOL    MW426802   4.338   0.810   3.418  0.2929  0.1281  0.1992
 6758SOL     OW26803   3.369   1.626   5.641 -0.3829 -0.4721 -0.2685
 6758SOL    HW226804   3.284   1.650   5.605 -0.0668 -0.3705 -0.9612
 6758SOL    HW326805   3.405   1.563   5.579  0.4930  0.2780 -0.5590
 6758SOL    MW426806   3.363   1.621   5.628  0.7893  0.1707  0.1147
 6759SOL     OW26807   1.375   2.436   6.012 -0.0142  0.1026  0.3686
 6759SOL    HW226808   1.403   2.469   6.097  0.8160 -1.0649  0.5785
 6759SOL    HW326809   1.281   2.420   6.022 -0.3075  1.7170  0.4528
 6759SOL    MW426810   1.367   2.438   6.025 -0.2273 -0.0179  0.4048
 6760SOL     OW26811   0.847   5.238   5.852  0.1735 -0.0685 -0.0964
 6760SOL    HW226812   0.844   5.333   5.840 -2.1274 -0.2977 -2.2937
 6760SOL    HW326813   0.935   5.213   5.825  0.3347  1.2826 -0.9297
 6760SOL    MW426814   0.858   5.247   5.847 -0.7464 -0.0954 -0.0877
 6761SOL     OW26815   3.130   2.735   0.208  0.5975  0.0160 -0.3776
 6761SOL    HW226816   3.178   2.654   0.193 -0.4146 -0.7657  0.4285
 6761SOL    HW326817   3.131   2.746   0.303 -0.4916  0.1604 -0.3660
 6761SOL    MW426818   3.136   2.726   0.218  0.2740 -0.2857  0.4596
 6762SOL     OW26819   5.196   5.856   5.190 -0.1025 -0.2161  0.0429
 6762SOL    HW226820   5.155   5.863   5.276 -1.3606  1.6313 -0.6279
 6762SOL    HW326821   5.122   5.850   5.129  0.6876  0.5733 -1.0343
 6762SOL    MW426822   5.181   5.856   5.193  0.0575  0.0725  0.1629
 6763SOL     OW26823   6.080   2.881   3.281  0.6256  0.5589 -0.1623
 6763SOL    HW226824   6.010   2.946   3.291 -1.7660 -1.8114 -0.3021
 6763SOL    HW326825   6.062   2.838   3.198  0.8962 -1.5844  0.8179
 6763SOL    MW426826   6.068   2.884   3.272  0.5414 -0.1590  0.4663
 6764SOL     OW26827   1.511   3.870   3.696 -0.0751  0.0389  0.1432
 6764SOL    HW226828   1.563   3.790   3.694 -0.7166 -0.3823 -0.4386
 6764SOL    HW326829   1.574   3.941   3.682  0.2001 -0.5514 -1.9576
 6764SOL    MW426830   1.526   3.869   3.694  0.1344 -0.5193  0.4341
 6765SOL     OW26831   2.753   0.330   3.357 -0.0466  0.7373 -0.8746
 6765SOL    HW226832   2.834   0.284   3.382 -0.7381  0.4017  0.8924
 6765SOL    HW326833   2.703   0.265   3.308 -1.1520 -0.6174  1.8709
 6765SOL    MW426834   2.757   0.315   3.354  0.5138  0.4285  0.4216
 6766SOL     OW26835   2.014   3.982   2.260  0.2924 -0.0764 -0.1244
 6766SOL    HW226836   1.944   3.979   2.196  0.8035  0.3010 -0.7098
 6766SOL    HW326837   1.978   4.033   2.333 -0.0784  0.0119 -0.3701
 6766SOL    MW426838   2.000   3.989   2.261 -0.5646 -0.2872 -0.0838
 6767SOL     OW26839   0.197   1.153   5.536  0.2999  0.0154  0.8476
 6767SOL    HW226840   0.200   1.059   5.552  0.8719 -0.0749  0.2790
 6767SOL    HW326841   0.120   1.166   5.481  1.0649 -0.3519 -0.3630
 6767SOL    MW426842   0.188   1.143   5.531  0.0893  0.0568 -0.0764
 6768SOL     OW26843   4.805   3.190   0.020 -0.1218 -0.2085 -0.2450
 6768SOL    HW226844   4.889   3.230   0.045 -0.4080  0.3023 -0.0909
 6768SOL    HW326845   4.739   3.245   0.062 -0.6493  0.9026 -2.4238
 6768SOL    MW426846   4.807   3.203   0.029 -0.0124  0.5090  0.0158
 6769SOL     OW26847   0.829   2.142   2.537  0.2456  0.5539  0.1568
 6769SOL    HW226848   0.901   2.205   2.537 -0.9728  2.0215  0.2219
 6769SOL    HW326849   0.855   2.075   2.600  0.7698  2.0072  1.5436
 6769SOL    MW426850   0.842   2.142   2.545 -0.2473  0.5615 -0.2433
 6770SOL     OW26851   6.344   3.587   0.734 -0.0710 -0.7085 -0.1180
 6770SOL    HW226852   6.380   3.517   0.788  0.2271  0.3284  1.0876
 6770SOL    HW326853   6.280   3.544   0.678  0.1331 -1.9497  0.5674
 6770SOL    MW426854   6.340   3.572   0.734 -0.1518  0.2162 -0.2057
 6771SOL     OW26855   0.909   1.803   5.967 -0.1229  0.2204  0.7568
 6771SOL    HW226856   0.871   1.800   6.055 -0.9964 -1.5036  0.3639
 6771SOL    HW326857   0.847   1.855   5.916  0.4775  1.3776  1.1719
 6771SOL    MW426858   0.896   1.809   5.972 -0.0556 -0.3419  0.3258
 6772SOL     OW26859   0.828   4.274   4.200 -0.4336 -0.2994 -0.1047
 6772SOL    HW226860   0.895   4.252   4.265  0.1365  0.7036 -0.3431
 6772SOL    HW326861   0.750   4.294   4.252 -0.3067 -0.6013  0.2100
 6772SOL    MW426862   0.827   4.274   4.215 -0.0143  0.7164 -0.1130
 6773SOL     OW26863   0.401   1.511   4.037  0.2712 -0.2179 -0.3567
 6773SOL    HW226864   0.432   1.423   4.056  1.9101  0.5028  0.5167
 6773SOL    HW326865   0.347   1.501   3.958 -1.0047 -2.2252  0.6857
 6773SOL    MW426866   0.398   1.498   4.029  0.3104  0.0537 -0.0534
 6774SOL     OW26867   3.801   5.578   4.431  0.7039 -0.1956  0.3596
 6774SOL    HW226868   3.756   5.542   4.507 -1.8600 -0.0889 -0.9915
 6774SOL    HW326869   3.779   5.671   4.431  0.8263 -0.1549 -0.3873
 6774SOL    MW426870   3.792   5.585   4.441  0.3408  0.3436  0.1849
 6775SOL     OW26871   3.781   6.336   1.025 -0.3566 -0.5778 -0.4631
 6775SOL    HW226872   3.699   6.355   1.071 -0.6941  1.7444 -1.8367
 6775SOL    HW326873   3.813   6.422   0.998  3.5443 -1.2119  1.5383
 6775SOL    MW426874   3.774   6.350   1.027 -0.6954 -0.3405 -0.0461
 6776SOL     OW26875   2.473   5.232   1.867 -0.3542  0.1341 -0.5661
 6776SOL    HW226876   2.511   5.272   1.945 -0.5981 -0.1640 -0.2920
 6776SOL    HW326877   2.400   5.289   1.844 -0.7171 -0.1583 -0.1604
 6776SOL    MW426878   2.469   5.245   1.874  0.1108 -0.1713  0.2396
 6777SOL     OW26879   5.051   5.011   6.052 -0.0661 -0.2889 -0.0742
 6777SOL    HW226880   5.056   4.972   6.140  1.1441  0.1312  0.0627
 6777SOL    HW326881   5.049   4.937   5.992 -3.5792 -0.6779  0.3491
 6777SOL    MW426882   5.052   4.996   6.056 -0.0003 -0.0289  0.0165
 6778SOL     OW26883   0.819   4.190   3.907 -0.2857 -0.1524  0.1916
 6778SOL    HW226884   0.751   4.164   3.969 -0.0519  0.3313  0.6591
 6778SOL    HW326885   0.780   4.173   3.821 -1.5772  1.4203  0.4077
 6778SOL    MW426886   0.805   4.185   3.904  0.4845  0.2244  0.2900
 6779SOL     OW26887   3.798   5.214   4.609 -0.3524  1.0165 -0.2064
 6779SOL    HW226888   3.839   5.231   4.693 -2.2988  0.4315  0.9103
 6779SOL    HW326889   3.846   5.139   4.574 -0.5334  0.2542  1.1254
 6779SOL    MW426890   3.810   5.206   4.615  0.2052 -0.1454 -0.4585
 6780SOL     OW26891   5.690   2.256   1.409 -0.3851 -0.6593 -0.3467
 6780SOL    HW226892   5.781   2.232   1.426 -0.5643 -1.9559 -1.0897
 6780SOL    HW326893   5.693   2.303   1.326 -0.0658  1.8645  0.9932
 6780SOL    MW426894   5.702   2.259   1.401  0.2441  0.1582 -0.5029
 6781SOL     OW26895   5.565   4.201   4.494  0.1869 -0.1772  0.1452
 6781SOL    HW226896   5.506   4.167   4.427  0.9665 -2.0451  0.3490
 6781SOL    HW326897   5.598   4.123   4.539 -0.8129  0.9765  3.1878
 6781SOL    MW426898   5.561   4.186   4.491 -0.0397 -0.0359 -0.1297
 6782SOL     OW26899   2.314   0.229   4.028 -0.1650 -0.3040 -0.0199
 6782SOL    HW226900   2.289   0.307   3.979 -2.1419 -0.6203  0.4190
 6782SOL    HW326901   2.348   0.169   3.962 -0.1074  0.3305 -0.5830
 6782SOL    MW426902   2.316   0.231   4.013  0.1192 -0.0717  0.4811
 6783SOL     OW26903   5.139   4.445   3.777  0.1525  0.1043  0.5027
 6783SOL    HW226904   5.137   4.452   3.682  0.2212  1.4063  0.5854
 6783SOL    HW326905   5.232   4.440   3.799  0.1949  1.0696  0.5725
 6783SOL    MW426906   5.151   4.445   3.768 -0.1222 -0.6526  0.4293
 6784SOL     OW26907   1.328   0.081   1.896 -0.1012 -0.1303 -0.6238
 6784SOL    HW226908   1.378   0.029   1.834  2.6318 -0.0107  1.2938
 6784SOL    HW326909   1.285   0.148   1.842  1.9461 -0.1617 -2.4476
 6784SOL    MW426910   1.329   0.083   1.881 -0.5867 -0.4097  0.2689
 6785SOL     OW26911   3.459   5.337   2.818  0.0337  0.2123  0.1757
 6785SOL    HW226912   3.376   5.384   2.809 -0.4452 -0.8731 -1.9871
 6785SOL    HW326913   3.437   5.246   2.795  1.2408 -0.7652  2.6018
 6785SOL    MW426914   3.445   5.331   2.813 -0.1397  0.1810  0.4650
 6786SOL     OW26915   5.306   0.642   2.018 -0.3683 -0.1195  0.3043
 6786SOL    HW226916   5.354   0.692   1.953 -2.2444 -0.1833 -1.2322
 6786SOL    HW326917   5.256   0.578   1.967 -1.4186 -0.6040  1.8625
 6786SOL    MW426918   5.306   0.640   2.003 -0.0983  0.0426 -0.1342
 6787SOL     OW26919   4.239   2.480   2.604  0.0279 -0.2279  0.0472
 6787SOL    HW226920   4.178   2.456   2.674  0.2738  0.5837  0.5528
 6787SOL    HW326921   4.323   2.493   2.648 -0.0096  1.1852 -0.2277
 6787SOL    MW426922   4.242   2.479   2.619  0.0624 -0.1317  0.0318
 6788SOL     OW26923   4.634   1.488   3.315 -0.0391 -0.3226 -0.1989
 6788SOL    HW226924   4.602   1.573   3.345  0.7396  0.1534 -0.6852
 6788SOL    HW326925   4.564   1.455   3.259 -0.3354  0.0043 -0.0253
 6788SOL    MW426926   4.620   1.495   3.311 -0.3732  0.4261 -0.0678
 6789SOL     OW26927   0.556   1.144   0.979 -0.3087 -0.6249  0.2108
 6789SOL    HW226928   0.482   1.204   0.970 -0.5970 -1.0051  0.0270
 6789SOL    HW326929   0.543   1.079   0.910  2.5002  1.6919 -2.8461
 6789SOL    MW426930   0.545   1.143   0.969 -0.5426  0.7250 -0.0749
 6790SOL     OW26931   4.981   3.686   2.201  0.1621 -0.2770  0.0010
 6790SOL    HW226932   4.988   3.605   2.251  0.9078 -0.8375 -0.9671
 6790SOL    HW326933   4.897   3.678   2.155 -0.7913  0.4835  1.5070
 6790SOL    MW426934   4.971   3.674   2.201 -0.8355  0.2708 -0.5432
 6791SOL     OW26935   1.990   5.718   0.087  0.3555  0.0151  0.0456
 6791SOL    HW226936   1.911   5.770   0.076 -0.7136 -1.4589  0.5234
 6791SOL    HW326937   2.046   5.772   0.143 -0.6247  0.7463  0.3476
 6791SOL    MW426938   1.987   5.732   0.093 -0.2179 -0.0329 -0.1544
 6792SOL     OW26939   3.154   5.697   3.611  0.0348 -0.2246  0.6535
 6792SOL    HW226940   3.161   5.654   3.525  1.5351  0.2332  0.5065
 6792SOL    HW326941   3.172   5.627   3.673 -0.8149 -0.5054  0.5996
 6792SOL    MW426942   3.158   5.682   3.608  0.4705 -0.5933 -0.1370
 6793SOL     OW26943   6.335   1.238   4.543  0.4716  0.1176 -0.1750
 6793SOL    HW226944   6.393   1.169   4.575  1.4305  0.3487 -1.3387
 6793SOL    HW326945   6.281   1.196   4.476 -1.7351 -0.4406  1.8072
 6793SOL    MW426946   6.335   1.224   4.538 -0.1716  0.0772 -0.0082
 6794SOL     OW26947   4.038   6.002   5.708 -0.3726  0.3152  0.0076
 6794SOL    HW226948   4.038   6.057   5.630 -2.6358  3.3300  1.9215
 6794SOL    HW326949   4.128   6.003   5.739  0.1152  0.8533 -1.3886
 6794SOL    MW426950   4.050   6.009   5.702  0.5768  0.6193  0.5425
 6795SOL     OW26951   3.958   2.732   3.614  0.3986  0.3834 -0.3330
 6795SOL    HW226952   3.971   2.752   3.521  0.0019  0.8128 -0.2996
 6795SOL    HW326953   3.874   2.686   3.617  0.8672 -0.4879 -0.2963
 6795SOL    MW426954   3.949   2.729   3.602 -0.3410  0.1801  0.2318
 6796SOL     OW26955   2.261   1.696   4.935 -0.1373 -0.5406 -0.4018
 6796SOL    HW226956   2.219   1.636   4.998  1.0201 -0.0570  0.8776
 6796SOL    HW326957   2.307   1.638   4.875 -0.9823 -1.0011 -0.6263
 6796SOL    MW426958   2.262   1.680   4.935  0.1069  0.0820 -0.2691
 6797SOL     OW26959   1.578   0.085   5.828  0.8174 -0.7499 -0.3051
 6797SOL    HW226960   1.647   0.070   5.763  0.1026  1.1221 -1.5814
 6797SOL    HW326961   1.619   0.135   5.898  0.5787  1.4537 -1.6389
 6797SOL    MW426962   1.592   0.089   5.828 -0.5439  0.1004 -0.6228
 6798SOL     OW26963   1.091   3.885   0.592  0.0131  0.3987 -0.1296
 6798SOL    HW226964   1.167   3.942   0.581  1.5160 -1.3902  0.3327
 6798SOL    HW326965   1.093   3.827   0.516 -1.1917  0.6330 -0.3508
 6798SOL    MW426966   1.102   3.885   0.581 -0.0829  0.7379  0.1511
 6799SOL     OW26967   2.511   0.208   5.068  0.2842  0.1267 -0.1403
 6799SOL    HW226968   2.419   0.208   5.042  0.6079 -0.7001 -1.3220
 6799SOL    HW326969   2.558   0.177   4.991  1.4854 -0.2407  0.7219
 6799SOL    MW426970   2.505   0.204   5.055  0.1963 -0.0967 -0.9012
 6800SOL     OW26971   6.086   0.809   3.177 -0.1312  0.2277 -0.3391
 6800SOL    HW226972   6.156   0.809   3.112 -0.1504 -0.2152 -0.3616
 6800SOL    HW326973   6.121   0.760   3.251 -0.5436 -0.3233 -0.4961
 6800SOL    MW426974   6.100   0.803   3.178  0.4172 -0.0143 -0.3379
 6801SOL     OW26975   6.234   0.151   5.891 -0.2971 -0.2681  0.0167
 6801SOL    HW226976   6.165   0.154   5.824 -0.5139 -0.6260  0.2217
 6801SOL    HW326977   6.303   0.099   5.850 -0.4729 -0.5771  0.1053
 6801SOL    MW426978   6.234   0.145   5.877 -0.0234 -0.0688 -0.5784
 6802SOL     OW26979   0.567   2.581   6.194 -0.1632  0.4612  0.0767
 6802SOL    HW226980   0.529   2.666   6.172  1.2247  1.5568  1.6422
 6802SOL    HW326981   0.656   2.585   6.159  0.4760  0.3680  1.6000
 6802SOL    MW426982   0.574   2.593   6.187  0.5869 -0.6305  0.0952
 6803SOL     OW26983   2.700   1.917   4.099 -0.0349 -0.2728 -0.2304
 6803SOL    HW226984   2.637   1.882   4.162 -0.3999 -0.9209 -0.9398
 6803SOL    HW326985   2.706   1.850   4.031 -0.0725  0.6606 -1.1742
 6803SOL    MW426986   2.693   1.904   4.098 -0.0497  0.3352  0.9825
 6804SOL     OW26987   4.254   3.403   0.042 -0.2196 -0.3894  0.7387
 6804SOL    HW226988   4.210   3.373   0.122  1.3756 -2.0462  1.0785
 6804SOL    HW326989   4.190   3.387  -0.028 -0.9066 -0.8275  1.4453
 6804SOL    MW426990   4.240   3.397   0.043 -0.3570 -0.0761  0.1080
 6805SOL     OW26991   3.617   2.817   1.339  0.6278 -0.3796 -0.2882
 6805SOL    HW226992   3.555   2.818   1.265  2.5339 -0.0319 -1.9785
 6805SOL    HW326993   3.563   2.796   1.415 -1.1478 -2.8328 -2.0629
 6805SOL    MW426994   3.602   2.814   1.339 -0.3792 -0.6888 -0.1885
 6806SOL     OW26995   0.554   2.556   5.070 -0.3450  0.4677  0.4063
 6806SOL    HW226996   0.488   2.618   5.039  0.1129  0.3220 -0.9244
 6806SOL    HW326997   0.538   2.476   5.020  1.7062  0.8739 -1.0416
 6806SOL    MW426998   0.543   2.553   5.059 -0.4197 -0.0213  0.2500
 6807SOL     OW26999   0.975   5.280   0.516  0.0751  0.1463 -0.6005
 6807SOL    HW227000   1.003   5.258   0.427  1.7079 -0.8200  0.1004
 6807SOL    HW327001   0.988   5.375   0.522 -0.3572  0.2768 -1.4709
 6807SOL    MW427002   0.981   5.290   0.505 -0.4085  0.0164 -0.6623
 6808SOL     OW27003   3.951   2.249   2.585  0.9285  0.1525 -0.0190
 6808SOL    HW227004   3.878   2.198   2.619  1.1434  0.7188  1.3583
 6808SOL    HW327005   3.959   2.222   2.494 -0.8231 -0.0968 -0.1215
 6808SOL    MW427006   3.943   2.239   2.578 -0.5392 -0.6365 -0.8460
 6809SOL     OW27007   0.803   6.155   2.844 -0.0990  0.5631  0.6095
 6809SOL    HW227008   0.858   6.223   2.884 -0.3814  2.0658 -1.3679
 6809SOL    HW327009   0.738   6.134   2.911  0.9350  1.1164  1.8285
 6809SOL    MW427010   0.802   6.161   2.858  0.6634  0.9544 -0.4038
 6810SOL     OW27011   5.497   2.540   3.544  0.1644 -0.0889  0.0572
 6810SOL    HW227012   5.551   2.527   3.622 -0.5155 -0.5358  0.4545
 6810SOL    HW327013   5.549   2.501   3.473  1.5020  1.7052 -0.0123
 6810SOL    MW427014   5.511   2.533   3.545 -0.7048  0.0850 -0.0238
 6811SOL     OW27015   3.872   3.060   0.468  0.1050  0.0509 -0.1393
 6811SOL    HW227016   3.788   3.023   0.496 -0.0774  1.0102  0.6443
 6811SOL    HW327017   3.863   3.153   0.485  1.3189  0.1699 -0.1011
 6811SOL    MW427018   3.860   3.067   0.474 -0.1772  0.1659  0.2237
 6812SOL     OW27019   2.150   5.648   6.058  0.2843  0.0830  0.2605
 6812SOL    HW227020   2.209   5.691   6.120  0.9687  1.0146 -0.9806
 6812SOL    HW327021   2.093   5.594   6.112  1.7520 -0.2286  1.5892
 6812SOL    MW427022   2.151   5.647   6.073 -0.0484 -0.4407 -0.3180
 6813SOL     OW27023   3.689   5.476   3.578 -0.6179 -0.0185  0.0232
 6813SOL    HW227024   3.595   5.479   3.561 -0.6039 -0.6025 -0.2037
 6813SOL    HW327025   3.717   5.567   3.581 -1.1997  0.1562  0.1303
 6813SOL    MW427026   3.680   5.488   3.576  0.0902  0.5638 -0.0867
 6814SOL     OW27027   6.279   3.435   5.837  0.2630 -0.2015  0.4366
 6814SOL    HW227028   6.285   3.498   5.766 -0.2807 -1.6948 -0.9925
 6814SOL    HW327029   6.192   3.450   5.875 -0.4882 -1.0492 -0.8741
 6814SOL    MW427030   6.268   3.445   5.833  1.1540  0.4598 -0.3814
 6815SOL     OW27031   0.765   2.768   1.582 -0.0941  0.1912  0.5823
 6815SOL    HW227032   0.684   2.720   1.564  0.0843 -0.7314  2.1305
 6815SOL    HW327033   0.817   2.709   1.636  2.3380  0.1280 -1.6548
 6815SOL    MW427034   0.761   2.754   1.587  0.1676 -0.3278  0.4081
 6816SOL     OW27035   2.414   2.927   2.695 -0.0519 -0.2100 -0.0586
 6816SOL    HW227036   2.411   2.886   2.608 -0.9961 -0.4795  0.0877
 6816SOL    HW327037   2.379   3.015   2.681  0.4978  0.0088 -0.0825
 6816SOL    MW427038   2.409   2.934   2.682 -0.2373  0.1965  0.2610
 6817SOL     OW27039   2.259   3.448   1.977 -0.0271 -0.0187 -0.6696
 6817SOL    HW227040   2.173   3.407   1.986 -0.1076  0.2525 -0.1880
 6817SOL    HW327041   2.265   3.508   2.051 -0.0626  1.1310 -1.5774
 6817SOL    MW427042   2.248   3.451   1.988  0.1452  0.0706 -0.4502
 6818SOL     OW27043   4.623   4.118   0.795 -0.4558  0.1945  0.0439
 6818SOL    HW227044   4.589   4.196   0.751 -0.8347  0.4062  0.7013
 6818SOL    HW327045   4.718   4.123   0.784 -0.4614  0.8529  0.2515
 6818SOL    MW427046   4.631   4.129   0.788 -0.0164  0.0899  0.0882
 6819SOL     OW27047   1.770   3.552   5.692  0.2292 -0.0711 -0.2459
 6819SOL    HW227048   1.822   3.499   5.752 -2.3596 -1.7036  0.7294
 6819SOL    HW327049   1.811   3.539   5.606  1.3519 -1.3475  0.4526
 6819SOL    MW427050   1.782   3.544   5.688  0.1830  0.3682 -0.2337
 6820SOL     OW27051   6.325   6.343   4.358 -0.3090 -0.3164  0.2070
 6820SOL    HW227052   6.385   6.405   4.316  1.2624 -1.4330  0.6702
 6820SOL    HW327053   6.357   6.338   4.449 -1.5464 -0.4328  0.6467
 6820SOL    MW427054   6.337   6.350   4.365  0.0746  0.2908 -0.1630
 6821SOL     OW27055   5.222   4.862   3.995 -0.5080  0.1018  0.6334
 6821SOL    HW227056   5.164   4.787   4.013 -0.3386 -0.2936 -0.4277
 6821SOL    HW327057   5.252   4.889   4.082 -1.6130 -0.2133  1.1440
 6821SOL    MW427058   5.218   4.855   4.009 -0.3268  0.2271 -0.1886
 6822SOL     OW27059   4.113   2.978   2.685  0.2914 -0.1500 -0.4180
 6822SOL    HW227060   4.125   3.022   2.769  3.1818 -1.5609  0.0599
 6822SOL    HW327061   4.194   2.998   2.637 -0.0446 -1.6843 -1.6957
 6822SOL    MW427062   4.125   2.986   2.690  0.1595 -0.1778  0.1802
 6823SOL     OW27063   5.810   5.413   2.370 -0.2280  0.4145  0.2888
 6823SOL    HW227064   5.905   5.398   2.367 -0.0198  1.7425 -0.3577
 6823SOL    HW327065   5.799   5.502   2.337 -1.6043  0.7294  1.5097
 6823SOL    MW427066   5.821   5.422   2.365  0.3647 -0.1634  0.2748
 6824SOL     OW27067   1.801   5.168   5.555 -0.3395 -0.1075  0.2961
 6824SOL    HW227068   1.734   5.165   5.623  0.4057  0.3265  1.0708
 6824SOL    HW327069   1.802   5.080   5.518 -0.4536 -0.4740  1.1515
 6824SOL    MW427070   1.792   5.156   5.559  0.2640 -0.4013  0.0590
 6825SOL     OW27071   4.122   1.668   3.224 -0.0775  0.6181 -0.2613
 6825SOL    HW227072   4.187   1.598   3.223 -2.1588 -1.4324  0.2078
 6825SOL    HW327073   4.152   1.727   3.293  0.8120 -0.7930  0.6072
 6825SOL    MW427074   4.134   1.666   3.233 -0.6320 -0.4401 -0.2107
 6826SOL     OW27075   1.376   1.697   1.251  0.1973 -0.0158 -0.5883
 6826SOL    HW227076   1.325   1.659   1.180  0.3581 -0.2367 -0.5890
 6826SOL    HW327077   1.318   1.761   1.292  0.7993  1.6846 -2.2370
 6826SOL    MW427078   1.362   1.700   1.247 -0.1700  0.5840 -0.1969
 6827SOL     OW27079   1.134   1.193   5.737 -0.1236 -0.8035  0.4204
 6827SOL    HW227080   1.064   1.133   5.763 -1.3244  1.2321  2.1215
 6827SOL    HW327081   1.089   1.269   5.700  1.3638 -0.8612 -1.7325
 6827SOL    MW427082   1.119   1.195   5.735  0.6493  0.1764 -0.0243
 6828SOL     OW27083   0.164   3.218   6.154 -0.0964  1.1669 -0.1067
 6828SOL    HW227084   0.147   3.310   6.136  0.1410  1.4978  1.2623
 6828SOL    HW327085   0.082   3.174   6.128 -0.3334  1.7944 -0.4567
 6828SOL    MW427086   0.151   3.224   6.148 -0.0884  0.1929 -0.0507
 6829SOL     OW27087   4.306   5.030   2.426  0.2342 -0.6075  0.0065
 6829SOL    HW227088   4.338   4.967   2.491  1.7951  0.0431 -0.0866
 6829SOL    HW327089   4.326   5.116   2.463  0.3507 -0.2120 -0.9467
 6829SOL    MW427090   4.313   5.033   2.439 -0.5388 -0.3682 -0.0468
 6830SOL     OW27091   1.748   0.639   6.192 -0.0153 -0.1130 -0.6763
 6830SOL    HW227092   1.670   0.680   6.231 -0.4561 -1.2971 -0.2588
 6830SOL    HW327093   1.714   0.587   6.120  0.1094 -2.0598  0.5911
 6830SOL    MW427094   1.733   0.638   6.188  0.6842  0.5376  0.2616
 6831SOL     OW27095   4.296   1.084   4.810 -0.4232 -0.1549  0.4108
 6831SOL    HW227096   4.228   1.016   4.805 -1.0972  0.5765 -0.6046
 6831SOL    HW327097   4.247   1.166   4.813  0.4100  0.4666 -1.8962
 6831SOL    MW427098   4.280   1.086   4.810 -0.2382  0.2738 -0.1088
 6832SOL     OW27099   1.677   1.315   5.043 -0.1099 -0.7504  0.3140
 6832SOL    HW227100   1.771   1.317   5.024 -0.4368 -1.8371 -1.6103
 6832SOL    HW327101   1.637   1.364   4.972 -0.9209  1.4972  2.1928
 6832SOL    MW427102   1.684   1.321   5.031  0.6737  0.5536  0.5135
 6833SOL     OW27103   0.626   6.112   6.324  0.4633 -0.1203  0.1149
 6833SOL    HW227104   0.658   6.037   6.374 -0.9555  0.1014  1.4300
 6833SOL    HW327105   0.531   6.102   6.325  0.3249  0.8848 -1.0119
 6833SOL    MW427106   0.618   6.100   6.330 -0.4298  0.2640  0.3601
 6834SOL     OW27107   5.680   0.945   1.541 -0.1442  0.1144  0.4848
 6834SOL    HW227108   5.671   0.988   1.456 -1.0461  1.5420  1.2587
 6834SOL    HW327109   5.594   0.905   1.558 -1.6480  3.7784  2.6904
 6834SOL    MW427110   5.668   0.945   1.532 -0.5992 -0.0514 -0.0224
 6835SOL     OW27111   5.688   5.150   6.200  0.6012 -0.1624  0.4572
 6835SOL    HW227112   5.623   5.088   6.166 -0.1646  1.9534 -2.2984
 6835SOL    HW327113   5.647   5.186   6.279  0.0527 -1.4396  0.7886
 6835SOL    MW427114   5.674   5.146   6.206 -0.1024  0.0384 -0.1226
 6836SOL     OW27115   3.738   2.483   2.296  0.3383 -0.0595 -0.7681
 6836SOL    HW227116   3.747   2.496   2.390  1.9327  0.3404 -0.9507
 6836SOL    HW327117   3.658   2.531   2.273  0.3611  0.4978  0.2600
 6836SOL    MW427118   3.729   2.491   2.305 -0.4398 -0.6749 -0.1669
 6837SOL     OW27119   3.928   2.794   0.381 -0.5072  0.7170  0.0081
 6837SOL    HW227120   3.856   2.733   0.395  0.1812  0.3236  2.1647
 6837SOL    HW327121   3.885   2.878   0.362 -1.4630 -0.1427 -1.9412
 6837SOL    MW427122   3.913   2.797   0.380  0.0103  0.2004  0.1294
 6838SOL     OW27123   3.734   2.714   5.605 -0.2528 -0.4038  0.3230
 6838SOL    HW227124   3.665   2.650   5.584  0.2730 -0.2936 -2.0942
 6838SOL    HW327125   3.686   2.791   5.634 -1.5564  0.6927 -3.9595
 6838SOL    MW427126   3.718   2.715   5.606 -0.1123 -0.2398 -0.7722
 6839SOL     OW27127   6.088   3.816   1.326  0.3934 -0.0261 -0.3339
 6839SOL    HW227128   6.119   3.751   1.263 -0.8188 -1.1333  0.1855
 6839SOL    HW327129   6.106   3.778   1.412  1.6763  1.3029  0.0414
 6839SOL    MW427130   6.095   3.802   1.329  0.4306 -0.0462  0.5068
 6840SOL     OW27131   2.059   6.423   3.590 -0.1785 -0.1926 -0.0524
 6840SOL    HW227132   1.990   6.464   3.642 -0.0641  2.1908 -1.6129
 6840SOL    HW327133   2.030   6.333   3.578 -2.8891  0.6221 -0.3679
 6840SOL    MW427134   2.046   6.416   3.596 -0.4367 -0.0691  0.1759
 6841SOL     OW27135   3.598   0.934   4.608  0.8846 -0.2806  0.4239
 6841SOL    HW227136   3.530   0.904   4.549  0.8559 -0.7986  0.7161
 6841SOL    HW327137   3.672   0.875   4.593  0.9087 -0.3625  0.8404
 6841SOL    MW427138   3.599   0.923   4.598  0.0364 -0.7826  0.1418
 6842SOL     OW27139   6.067   5.777   3.179  0.2276 -0.1315  0.2438
 6842SOL    HW227140   6.096   5.701   3.229  2.7352  0.2100 -0.5547
 6842SOL    HW327141   6.082   5.754   3.088  1.3640  1.3620 -0.0052
 6842SOL    MW427142   6.073   5.764   3.174 -0.5558 -0.2808  0.0046
 6843SOL     OW27143   4.732   6.304   0.768  0.2608 -0.9993 -0.6499
 6843SOL    HW227144   4.775   6.249   0.833  0.6719 -0.2363 -0.2649
 6843SOL    HW327145   4.638   6.289   0.783  0.3494 -0.8907  0.0723
 6843SOL    MW427146   4.725   6.295   0.779  0.6107  0.3879  0.2837
 6844SOL     OW27147   3.689   3.255   5.095 -0.3259  0.8074 -0.0485
 6844SOL    HW227148   3.662   3.317   5.163 -0.6948  0.5842  0.0126
 6844SOL    HW327149   3.703   3.172   5.141  0.2836  0.8678 -0.1100
 6844SOL    MW427150   3.687   3.252   5.110  0.1635  0.2913  0.1487
 6845SOL     OW27151   0.049   3.755   0.200  0.4001  0.2620  0.1127
 6845SOL    HW227152   0.006   3.837   0.180  1.1514  1.1921  2.0259
 6845SOL    HW327153   0.032   3.741   0.294  1.2034 -1.1957  0.0754
 6845SOL    MW427154   0.041   3.764   0.210  0.4541 -0.3278 -0.5600
 6846SOL     OW27155   6.011   5.220   0.604 -0.0317  0.0492  0.3905
 6846SOL    HW227156   6.072   5.152   0.574  0.2115  0.3191  0.2550
 6846SOL    HW327157   5.992   5.271   0.525 -0.5182 -0.0927  0.4123
 6846SOL    MW427158   6.017   5.218   0.589 -0.7795 -0.2230  0.5062
 6847SOL     OW27159   2.679   4.793   4.992  0.2247  0.9207 -0.1995
 6847SOL    HW227160   2.665   4.729   5.062  1.8415  1.1339  0.3448
 6847SOL    HW327161   2.676   4.741   4.911 -0.1209  0.4392  0.1172
 6847SOL    MW427162   2.677   4.778   4.990  0.1049 -0.0609  0.5362
 6848SOL     OW27163   1.484   2.410   3.607  0.3743  0.0471 -0.4040
 6848SOL    HW227164   1.403   2.360   3.599  0.0533  0.3402  0.7414
 6848SOL    HW327165   1.546   2.349   3.646  0.1524  0.3485  0.4454
 6848SOL    MW427166   1.481   2.395   3.611  0.1430  0.7303 -0.5123
 6849SOL     OW27167   1.169   4.748   1.661 -0.0809 -0.1019 -0.2921
 6849SOL    HW227168   1.206   4.786   1.740  1.8988 -2.4903  0.0509
 6849SOL    HW327169   1.079   4.726   1.685  0.2240  0.0107  1.0343
 6849SOL    MW427170   1.162   4.750   1.675 -0.3937 -0.5597  0.2876
 6850SOL     OW27171   0.457   3.945   0.194  0.3383 -0.2238  0.7422
 6850SOL    HW227172   0.421   4.027   0.161 -0.9298 -1.7958 -2.1490
 6850SOL    HW327173   0.547   3.967   0.219 -0.0684  2.0810  0.4493
 6850SOL    MW427174   0.464   3.959   0.193  0.3048  0.3352  0.0995
 6851SOL     OW27175   1.640   3.620   3.703 -0.3822  0.4941  0.0338
 6851SOL    HW227176   1.641   3.535   3.745  0.2043  0.7742  0.5943
 6851SOL    HW327177   1.640   3.601   3.609  0.6270 -0.1172  0.1481
 6851SOL    MW427178   1.640   3.606   3.696 -0.3959  0.2201  0.1859
 6852SOL     OW27179   1.383   4.769   1.445  0.0226 -0.1212 -0.4768
 6852SOL    HW227180   1.301   4.783   1.492  0.3703  1.3121 -0.2597
 6852SOL    HW327181   1.356   4.757   1.353 -0.5255 -1.2268 -0.1886
 6852SOL    MW427182   1.368   4.769   1.439  0.3276  0.1861  0.0579
 6853SOL     OW27183   3.643   0.992   1.575  0.2403 -0.1354 -0.0667
 6853SOL    HW227184   3.720   1.005   1.519  0.3422 -0.2295  0.0528
 6853SOL    HW327185   3.627   1.078   1.614  0.4690 -0.1894  0.1473
 6853SOL    MW427186   3.651   1.005   1.572 -0.4229  0.1828  0.5068
 6854SOL     OW27187   1.284   1.397   2.882 -0.4234 -0.4643  0.3665
 6854SOL    HW227188   1.354   1.451   2.846 -1.5952  0.9176  0.0819
 6854SOL    HW327189   1.239   1.362   2.805  0.3736 -1.9765  0.5426
 6854SOL    MW427190   1.288   1.399   2.867 -0.1875  0.1613 -0.0527
 6855SOL     OW27191   0.559   0.857   5.707 -0.4094 -0.6960 -0.0640
 6855SOL    HW227192   0.520   0.876   5.621  0.6915  1.4681 -0.1464
 6855SOL    HW327193   0.528   0.928   5.763  1.7365 -0.0337  0.3784
 6855SOL    MW427194   0.549   0.869   5.703  0.1560  0.0061  0.2540
 6856SOL     OW27195   0.979   0.646   3.935 -0.1383 -0.0750  0.0283
 6856SOL    HW227196   1.012   0.621   4.022 -0.1090 -0.0160  0.0344
 6856SOL    HW327197   0.896   0.690   3.953  0.4014  0.9470  0.1203
 6856SOL    MW427198   0.973   0.649   3.949 -1.1038 -0.4734 -0.1520
 6857SOL     OW27199   4.048   1.901   4.191  0.0921  0.3674  0.2662
 6857SOL    HW227200   3.973   1.860   4.234  0.5566  1.4070  2.2215
 6857SOL    HW327201   4.022   1.992   4.179  0.7675  0.5696  0.3092
 6857SOL    MW427202   4.035   1.908   4.195 -0.1540  0.0534  0.2014
 6858SOL     OW27203   4.340   3.952   5.190 -0.4879 -0.1157 -0.0222
 6858SOL    HW227204   4.435   3.951   5.196 -0.2315 -0.4048 -2.8519
 6858SOL    HW327205   4.316   3.862   5.167 -1.0378  0.6207 -2.7241
 6858SOL    MW427206   4.349   3.940   5.188 -0.2001  0.3875  0.1539
 6859SOL     OW27207   0.061   0.111   5.476  0.1976 -0.5818  0.2281
 6859SOL    HW227208   0.094   0.201   5.482 -0.4289 -0.3804  0.8118
 6859SOL    HW327209   0.039   0.088   5.566 -1.1408 -0.7449 -0.1242
 6859SOL    MW427210   0.062   0.120   5.489  0.0236 -0.1505  0.9637
 6860SOL     OW27211   2.376   4.620   2.651  0.3892 -0.0814  0.1940
 6860SOL    HW227212   2.347   4.684   2.586  2.3240 -0.6398 -1.3196
 6860SOL    HW327213   2.340   4.537   2.621 -0.1849 -0.0793  0.8529
 6860SOL    MW427214   2.368   4.617   2.638 -0.3867  0.5101 -0.3318
 6861SOL     OW27215   3.759   5.402   2.039  0.0117  0.5440 -0.0711
 6861SOL    HW227216   3.789   5.325   1.990 -1.1398 -0.3474  0.5679
 6861SOL    HW327217   3.670   5.419   2.005 -0.9581 -0.3090  1.8850
 6861SOL    MW427218   3.751   5.394   2.028  0.0429 -0.0985 -0.0015
 6862SOL     OW27219   1.439   5.846   6.079  0.1682  0.8288 -0.0665
 6862SOL    HW227220   1.407   5.879   5.995  0.2466  1.7276  0.2398
 6862SOL    HW327221   1.361   5.812   6.123  0.5680 -2.8292 -1.8217
 6862SOL    MW427222   1.425   5.846   6.074  0.0931  0.5483 -1.0529
 6863SOL     OW27223   5.825   3.029   4.131 -0.2444 -0.8105  1.0574
 6863SOL    HW227224   5.834   3.064   4.042  2.4127 -1.1131  1.1261
 6863SOL    HW327225   5.753   2.966   4.125 -1.1267  0.2604 -0.4688
 6863SOL    MW427226   5.816   3.025   4.119 -0.0461  0.1716 -0.5252
 6864SOL     OW27227   6.328   5.688   4.645  0.0513  0.2707  0.0450
 6864SOL    HW227228   6.320   5.781   4.621 -1.9807  0.2466  0.4821
 6864SOL    HW327229   6.243   5.665   4.682  1.2867 -1.1600  2.2165
 6864SOL    MW427230   6.316   5.698   4.646  0.4680  0.0930  0.2824
 6865SOL     OW27231   4.414   4.878   3.941 -0.3779  0.1978 -0.5350
 6865SOL    HW227232   4.471   4.807   3.969  0.3066  1.2174  0.7412
 6865SOL    HW327233   4.417   4.942   4.012 -1.5817  1.1663 -1.2994
 6865SOL    MW427234   4.422   4.877   3.954  0.7766  0.1631 -0.1993
 6866SOL     OW27235   1.076   3.869   4.290 -0.0634  0.6304 -0.1084
 6866SOL    HW227236   0.985   3.847   4.306  0.0816 -0.1436 -0.3110
 6866SOL    HW327237   1.073   3.945   4.232 -0.6076 -0.5007 -1.6544
 6866SOL    MW427238   1.064   3.876   4.284  0.4085  0.3174  0.1307
 6867SOL     OW27239   6.245   0.885   5.540 -0.0931 -0.2340  0.2190
 6867SOL    HW227240   6.171   0.842   5.496 -0.9745  2.8064 -1.5864
 6867SOL    HW327241   6.206   0.929   5.615 -0.1831  1.2627 -0.6609
 6867SOL    MW427242   6.230   0.885   5.544  0.2884 -0.9264 -0.2795
 6868SOL     OW27243   3.859   1.660   5.183  0.2802 -0.1300  0.7678
 6868SOL    HW227244   3.847   1.566   5.198  0.5380 -0.2183  0.4464
 6868SOL    HW327245   3.771   1.693   5.168  0.3164 -0.6009 -0.6407
 6868SOL    MW427246   3.846   1.652   5.183 -0.2141 -0.2905 -0.4930
 6869SOL     OW27247   0.816   0.745   3.160  0.1821 -0.0556  0.4956
 6869SOL    HW227248   0.724   0.737   3.186  0.1029  0.5231  0.4089
 6869SOL    HW327249   0.834   0.839   3.163  0.8131 -0.1728  0.6439
 6869SOL    MW427250   0.806   0.756   3.164  0.5222  0.8009  0.2369
 6870SOL     OW27251   3.625   2.270   0.352 -0.1053 -0.8181 -0.1178
 6870SOL    HW227252   3.550   2.213   0.333 -1.0996  1.0225 -2.0812
 6870SOL    HW327253   3.623   2.279   0.448 -2.1039 -1.2272 -0.0609
 6870SOL    MW427254   3.615   2.264   0.362 -0.2097 -0.9387  0.7409
 6871SOL     OW27255   1.618   2.652   3.209  0.8116 -0.2630 -0.4214
 6871SOL    HW227256   1.671   2.669   3.131  1.6202 -0.4242  0.0774
 6871SOL    HW327257   1.652   2.569   3.243  1.8564  0.7754  1.2124
 6871SOL    MW427258   1.629   2.644   3.203  0.8171  0.0826 -0.0559
 6872SOL     OW27259   4.027   1.877   0.115 -0.3432  0.4544  0.5769
 6872SOL    HW227260   4.079   1.941   0.163 -0.8355  0.8976  0.5209
 6872SOL    HW327261   3.938   1.888   0.149 -0.2028 -1.1163  1.5520
 6872SOL    MW427262   4.022   1.887   0.126 -0.1610  0.3703  0.0068
 6873SOL     OW27263   0.556   2.077   2.572 -0.3412 -0.6247 -0.0917
 6873SOL    HW227264   0.560   1.998   2.519  0.7341 -0.1480 -0.7462
 6873SOL    HW327265   0.647   2.105   2.581 -0.7400  0.7921 -0.2484
 6873SOL    MW427266   0.568   2.070   2.566 -0.0242  0.3223  0.3783
 6874SOL     OW27267   0.445   5.596   0.940 -0.4557  0.0436 -0.0065
 6874SOL    HW227268   0.367   5.555   0.976  0.0914 -0.2149  0.9310
 6874SOL    HW327269   0.484   5.641   1.015  0.1764  0.3375 -0.5099
 6874SOL    MW427270   0.440   5.596   0.955 -0.0627  0.3173  0.0031
 6875SOL     OW27271   3.927   2.174   0.718  0.3460  0.0018  0.6415
 6875SOL    HW227272   3.928   2.079   0.727  1.5174  0.1982  4.5487
 6875SOL    HW327273   4.016   2.197   0.694  0.0866  0.1498 -0.2097
 6875SOL    MW427274   3.939   2.164   0.716 -0.2437  0.1782 -0.6720
 6876SOL     OW27275   0.349   0.224   2.168  0.0731 -0.0610 -0.3515
 6876SOL    HW227276   0.272   0.199   2.116 -0.6463  0.7448  0.2884
 6876SOL    HW327277   0.414   0.158   2.147 -0.8608 -0.8850 -0.7707
 6876SOL    MW427278   0.347   0.212   2.159  0.8477 -0.0730 -0.0007
 6877SOL     OW27279   3.410   4.193   0.337  0.0267  0.5813 -0.2165
 6877SOL    HW227280   3.497   4.156   0.347  0.3632  1.1899 -0.8293
 6877SOL    HW327281   3.407   4.266   0.398 -0.3969  0.0029  0.4853
 6877SOL    MW427282   3.421   4.197   0.346 -0.0384 -0.4021  0.1019
 6878SOL     OW27283   0.915   0.264   2.176 -0.1185  0.0046 -0.8254
 6878SOL    HW227284   0.962   0.234   2.098 -1.1756  0.5075 -1.6814
 6878SOL    HW327285   0.912   0.359   2.168 -1.7910 -0.0349 -1.1375
 6878SOL    MW427286   0.921   0.272   2.164  0.2869  0.1581 -0.0019
 6879SOL     OW27287   5.643   2.440   3.767 -0.1141  0.0975 -0.3164
 6879SOL    HW227288   5.705   2.372   3.793 -0.6899 -0.2642  0.1213
 6879SOL    HW327289   5.562   2.419   3.814 -0.6874  0.3467 -1.1576
 6879SOL    MW427290   5.641   2.428   3.776 -0.8052  0.6594 -0.6474
 6880SOL     OW27291   1.509   0.897   2.149 -0.0746 -0.1246  0.0856
 6880SOL    HW227292   1.528   0.818   2.198 -1.6756 -0.0352  0.9223
 6880SOL    HW327293   1.561   0.965   2.191 -0.3187 -0.3328  0.7282
 6880SOL    MW427294   1.518   0.896   2.161 -0.2422  0.1091  0.1385
 6881SOL     OW27295   4.820   3.776   4.751 -0.5628  0.3474 -0.1691
 6881SOL    HW227296   4.732   3.788   4.789 -0.4521  1.1712 -0.1565
 6881SOL    HW327297   4.822   3.684   4.725 -0.6903 -0.2338  1.7280
 6881SOL    MW427298   4.808   3.766   4.753  0.3458  0.6681  0.7838
 6882SOL     OW27299   3.547   0.057   4.651  0.1095  0.2162 -0.1841
 6882SOL    HW227300   3.589  -0.029   4.655  0.2302  0.2942  0.4118
 6882SOL    HW327301   3.460   0.041   4.614  0.7103  0.0744 -1.5803
 6882SOL    MW427302   3.541   0.044   4.647 -0.5428  0.3917  0.1785
 6883SOL     OW27303   0.136   5.853   3.429  0.0056  0.1615 -0.1128
 6883SOL    HW227304   0.049   5.890   3.415 -0.0338  0.2856  0.4311
 6883SOL    HW327305   0.120   5.773   3.480  0.2811  0.7693  0.9647
 6883SOL    MW427306   0.122   5.847   3.434 -0.0070  0.1069  0.0366
 6884SOL     OW27307   3.299   1.233   2.735  0.3720 -0.1231 -0.4887
 6884SOL    HW227308   3.207   1.237   2.759  0.8883  0.6766  1.5904
 6884SOL    HW327309   3.329   1.149   2.769  0.3683 -0.5268 -1.4429
 6884SOL    MW427310   3.291   1.222   2.742  0.6264  0.5858  0.5256
 6885SOL     OW27311   4.651   4.942   3.217  0.3772 -0.2863  0.3862
 6885SOL    HW227312   4.599   4.986   3.285  0.6601 -0.1035  0.4844
 6885SOL    HW327313   4.740   4.943   3.251  0.1815 -2.2204  1.0647
 6885SOL    MW427314   4.656   4.948   3.231 -0.4042  0.6219 -0.2148
 6886SOL     OW27315   1.247   4.136   3.885  0.0261 -0.0224  0.2229
 6886SOL    HW227316   1.298   4.192   3.826  1.6847 -1.3261  0.3478
 6886SOL    HW327317   1.310   4.071   3.917 -1.5892 -1.3177  0.9163
 6886SOL    MW427318   1.262   4.135   3.881 -0.0080 -0.5092 -0.3358
 6887SOL     OW27319   1.888   1.584   4.160  0.0275  1.1673 -0.1728
 6887SOL    HW227320   1.860   1.496   4.135 -1.0369  1.8409 -1.4694
 6887SOL    HW327321   1.975   1.572   4.199 -0.3847 -0.5183  0.2868
 6887SOL    MW427322   1.896   1.571   4.162 -0.4928  0.1174  0.1720
 6888SOL     OW27323   3.168   2.219   1.055 -0.4175  0.3106 -0.0117
 6888SOL    HW227324   3.112   2.296   1.050  0.7323  1.1522 -0.3955
 6888SOL    HW327325   3.122   2.153   1.003 -1.2135  0.8660 -0.0275
 6888SOL    MW427326   3.155   2.220   1.047  0.2177 -0.3526 -0.4416
 6889SOL     OW27327   3.070   3.786   3.151 -0.3541  0.1799  0.4636
 6889SOL    HW227328   3.034   3.781   3.062  1.9343 -0.0631 -0.5198
 6889SOL    HW327329   3.105   3.874   3.158  0.1333 -0.0382  0.8367
 6889SOL    MW427330   3.070   3.797   3.140  0.1100 -0.3860 -0.8655
 6890SOL     OW27331   3.754   3.243   3.490  0.0875 -0.1217 -0.5623
 6890SOL    HW227332   3.748   3.207   3.579  1.1230  2.2704  0.5680
 6890SOL    HW327333   3.753   3.166   3.433 -2.3252 -1.6824  1.3615
 6890SOL    MW427334   3.753   3.228   3.495  0.3425  0.3750  0.5028
 6891SOL     OW27335   2.250   1.102   2.618  0.0312  0.2485  0.4001
 6891SOL    HW227336   2.169   1.143   2.650 -0.7621  0.0333 -1.2122
 6891SOL    HW327337   2.222   1.049   2.543  1.9387  1.7841 -1.5270
 6891SOL    MW427338   2.235   1.100   2.612  0.2432 -0.3570  0.1235
 6892SOL     OW27339   5.254   3.787   6.101 -0.3562  0.3175  0.7743
 6892SOL    HW227340   5.162   3.801   6.125 -1.3187 -2.5484 -0.7663
 6892SOL    HW327341   5.274   3.699   6.133  0.4845 -0.8040 -2.4524
 6892SOL    MW427342   5.244   3.777   6.109  0.3427 -0.5180  0.0339
 6893SOL     OW27343   0.608   5.980   3.502 -0.3195 -0.0406 -0.1328
 6893SOL    HW227344   0.657   5.908   3.542 -1.2923  0.1197  1.4239
 6893SOL    HW327345   0.641   6.059   3.545  1.0329  0.5690 -2.1124
 6893SOL    MW427346   0.619   5.981   3.513 -0.0881 -0.3474 -0.3272
 6894SOL     OW27347   3.687   3.936   0.977  0.5627  0.5382  0.4609
 6894SOL    HW227348   3.669   3.843   0.989 -1.4837  0.7263 -0.7247
 6894SOL    HW327349   3.783   3.942   0.976  0.7968 -1.9154 -1.9497
 6894SOL    MW427350   3.698   3.924   0.979 -0.1089 -0.6470 -0.1466
 6895SOL     OW27351   0.821   1.663   1.468  0.4225 -0.0559 -0.3541
 6895SOL    HW227352   0.774   1.742   1.441 -0.7873 -0.4264  0.5587
 6895SOL    HW327353   0.889   1.694   1.526  0.8260  0.4259 -1.0698
 6895SOL    MW427354   0.824   1.678   1.472  0.2389 -0.4225  0.0006
 6896SOL     OW27355   1.036   2.046   4.012 -0.0408 -0.0581  0.1670
 6896SOL    HW227356   1.003   2.111   3.949 -0.8711 -0.0317  0.6116
 6896SOL    HW327357   1.061   2.098   4.088  2.2660  0.0639 -0.6067
 6896SOL    MW427358   1.035   2.062   4.013  0.2199 -0.0945  0.7928
 6897SOL     OW27359   0.051   0.022   0.195 -0.6412  0.3549  0.0476
 6897SOL    HW227360   0.055  -0.051   0.134 -0.6041  0.6929 -0.3540
 6897SOL    HW327361   0.120   0.082   0.166 -0.0163  0.1036  0.9544
 6897SOL    MW427362   0.061   0.020   0.183  0.3120  0.0959 -0.6324
 6898SOL     OW27363   3.769   4.639   5.390  0.2315  0.2502 -0.0048
 6898SOL    HW227364   3.710   4.712   5.411 -0.3589  0.2234 -1.4857
 6898SOL    HW327365   3.726   4.592   5.319  0.0981 -2.1920  1.5552
 6898SOL    MW427366   3.756   4.643   5.383  0.3805 -0.2948 -0.2975
 6899SOL     OW27367   1.547   0.381   2.625 -0.3696 -0.2762 -0.5623
 6899SOL    HW227368   1.528   0.473   2.605 -2.6310 -0.6498 -0.3071
 6899SOL    HW327369   1.641   0.373   2.609 -0.2879  1.8379 -1.5172
 6899SOL    MW427370   1.557   0.392   2.620  0.1897 -0.2306  0.2291
 6900SOL     OW27371   1.351   5.138   0.898 -0.4301 -0.1799  0.5419
 6900SOL    HW227372   1.339   5.044   0.916 -1.6841 -0.2215 -0.4080
 6900SOL    HW327373   1.423   5.164   0.956  0.2987 -1.8410  0.4367
 6900SOL    MW427374   1.359   5.129   0.908  0.5193  0.2224 -0.2010
 6901SOL     OW27375   2.365   3.937   0.650 -0.1615 -0.1253 -0.1272
 6901SOL    HW227376   2.435   3.967   0.591  1.4092 -1.8580  0.7339
 6901SOL    HW327377   2.340   3.851   0.616 -0.6487 -0.2695  0.5731
 6901SOL    MW427378   2.371   3.930   0.638 -0.0171  0.0469  0.1314
 6902SOL     OW27379   0.715   0.868   5.277 -0.2670  0.9638 -1.0689
 6902SOL    HW227380   0.739   0.855   5.369 -1.5534 -0.2374 -0.8821
 6902SOL    HW327381   0.742   0.958   5.259 -1.7223  1.9136  1.0606
 6902SOL    MW427382   0.722   0.878   5.287  0.2801 -0.4446 -0.2636
 6903SOL     OW27383   0.655   1.873   1.390 -0.1639 -0.1150  0.0552
 6903SOL    HW227384   0.739   1.918   1.374 -0.1909 -0.4624 -1.1498
 6903SOL    HW327385   0.596   1.909   1.323 -1.4084  1.1427  1.7307
 6903SOL    MW427386   0.659   1.884   1.379  0.1334  0.0133  0.5283
 6904SOL     OW27387   0.923   4.283   6.364  0.2802  0.1213  0.4133
 6904SOL    HW227388   0.944   4.195   6.331  0.9484 -0.6579  2.6812
 6904SOL    HW327389   0.990   4.340   6.326  0.3065 -0.4876 -0.4792
 6904SOL    MW427390   0.935   4.279   6.355  0.0969 -0.6971 -0.1315
 6905SOL     OW27391   5.769   1.404   4.460  0.6199 -0.2847  0.0441
 6905SOL    HW227392   5.695   1.449   4.419  0.5949 -0.2075  0.1703
 6905SOL    HW327393   5.813   1.473   4.511 -0.1034 -0.6479  1.1927
 6905SOL    MW427394   5.765   1.419   4.461  0.3368 -0.0080 -0.2810
 6906SOL     OW27395   1.462   3.826   5.549 -0.2995  0.3140  0.3474
 6906SOL    HW227396   1.521   3.801   5.478  0.4419  4.0079 -0.5222
 6906SOL    HW327397   1.503   3.789   5.628  2.4496  1.4414 -0.4202
 6906SOL    MW427398   1.476   3.818   5.550  0.7834  0.2760  0.0185
 6907SOL     OW27399   5.728   0.707   1.362 -0.7812  0.5464 -0.2853
 6907SOL    HW227400   5.767   0.642   1.421 -2.5740 -0.4828 -0.1437
 6907SOL    HW327401   5.709   0.782   1.418  0.3086  0.8006 -0.2245
 6907SOL    MW427402   5.731   0.708   1.378  0.6191 -0.2097 -0.1155
 6908SOL     OW27403   5.070   3.910   5.585  0.3731  0.3063  0.2730
 6908SOL    HW227404   5.027   3.832   5.621  1.0510 -0.3291 -0.2742
 6908SOL    HW327405   5.090   3.964   5.661  1.0703 -0.6594  0.7963
 6908SOL    MW427406   5.067   3.906   5.600  0.3676  0.1575  0.0186
 6909SOL     OW27407   2.741   4.144   4.490  0.6188  0.1543  0.6285
 6909SOL    HW227408   2.807   4.140   4.559  1.4761 -0.6689 -0.2147
 6909SOL    HW327409   2.761   4.071   4.432 -0.8848  0.0392  0.2020
 6909SOL    MW427410   2.752   4.134   4.491  0.3624 -0.6759  0.3409
 6910SOL     OW27411   4.673   3.390   3.932  0.4710 -0.2832  0.4433
 6910SOL    HW227412   4.714   3.309   3.962  1.5544  0.5355  1.2565
 6910SOL    HW327413   4.636   3.429   4.012 -1.0515 -0.4986 -0.1168
 6910SOL    MW427414   4.673   3.384   3.947 -0.3885 -0.1630 -0.3516
 6911SOL     OW27415   0.069   6.122   4.620  0.1379  0.1338  0.5248
 6911SOL    HW227416   0.119   6.139   4.540  1.0863 -2.3333  0.4904
 6911SOL    HW327417   0.060   6.207   4.662  0.4992  1.3422 -1.6753
 6911SOL    MW427418   0.074   6.135   4.615 -0.0826 -0.1218  0.0412
 6912SOL     OW27419   4.098   3.269   1.484 -0.0296 -0.2220  0.0696
 6912SOL    HW227420   4.131   3.358   1.486  0.7386 -0.5078  0.2725
 6912SOL    HW327421   4.034   3.269   1.412  0.0324  0.4610  0.0091
 6912SOL    MW427422   4.094   3.281   1.474  0.5757 -0.2709  0.0843
 6913SOL     OW27423   2.686   3.413   0.570  0.3126 -0.1282 -0.8650
 6913SOL    HW227424   2.697   3.371   0.485  1.6385 -1.0187 -0.2803
 6913SOL    HW327425   2.657   3.343   0.629  1.7831 -0.0866 -0.0524
 6913SOL    MW427426   2.683   3.398   0.567 -0.1159  0.7107 -0.2593
 6914SOL     OW27427   0.276   0.723   2.911  0.4774  0.1056  0.3622
 6914SOL    HW227428   0.242   0.650   2.860  0.2959  2.2730 -2.9862
 6914SOL    HW327429   0.370   0.724   2.892  1.0035 -0.8207  2.6521
 6914SOL    MW427430   0.284   0.714   2.902  0.1928  0.1281 -0.0314
 6915SOL     OW27431   6.084   5.626   3.893  0.0138 -0.1804 -0.2463
 6915SOL    HW227432   6.017   5.571   3.933 -0.0662 -0.2449 -0.4657
 6915SOL    HW327433   6.067   5.714   3.927  0.0048 -0.2497 -0.0685
 6915SOL    MW427434   6.073   5.630   3.903  0.4426 -0.0776  0.1057
 6916SOL     OW27435   6.189   0.234   0.877  0.6023  0.3789 -0.1507
 6916SOL    HW227436   6.232   0.209   0.795 -2.4170 -1.7454 -1.2579
 6916SOL    HW327437   6.165   0.326   0.864  0.2973  0.1234 -1.6133
 6916SOL    MW427438   6.192   0.243   0.864 -0.2766  0.4411 -0.4219
 6917SOL     OW27439   2.313   4.687   0.610  0.5066 -0.0824 -0.1253
 6917SOL    HW227440   2.324   4.700   0.515  0.6443 -0.7065 -0.2005
 6917SOL    HW327441   2.391   4.638   0.636  1.1815  1.3180  0.5773
 6917SOL    MW427442   2.325   4.682   0.601 -0.1070  0.4345  0.0602
 6918SOL     OW27443   4.161   1.824   6.328  0.3706  0.5626 -0.3915
 6918SOL    HW227444   4.114   1.853   6.406  1.4727  0.6465  0.2661
 6918SOL    HW327445   4.095   1.821   6.260 -0.8094 -0.3004  0.7353
 6918SOL    MW427446   4.146   1.827   6.329  0.7253  0.5050  0.4924
 6919SOL     OW27447   1.222   4.791   4.060  0.3239 -0.4520  0.0672
 6919SOL    HW227448   1.272   4.872   4.070 -1.9185  0.9661  0.7466
 6919SOL    HW327449   1.225   4.750   4.147 -0.6343  0.2830  0.4764
 6919SOL    MW427450   1.229   4.796   4.073 -0.1354 -0.3216  0.1124
 6920SOL     OW27451   0.631   6.441   6.271 -0.2541 -0.1666 -0.2880
 6920SOL    HW227452   0.568   6.471   6.336 -0.9050 -2.9646  0.4654
 6920SOL    HW327453   0.698   6.394   6.321  0.2811 -0.6999 -1.4524
 6920SOL    MW427454   0.631   6.439   6.286  0.2876  0.1139 -0.9885
 6921SOL     OW27455   5.031   3.311   4.039  0.7044  0.5329  0.1662
 6921SOL    HW227456   5.087   3.367   3.986  1.5076 -0.3200  0.0838
 6921SOL    HW327457   5.028   3.355   4.124  2.7058 -0.1049  0.6256
 6921SOL    MW427458   5.038   3.324   4.044 -0.1729  0.1077 -0.0023
 6922SOL     OW27459   0.385   1.483   0.026 -0.0215  0.3890 -0.0968
 6922SOL    HW227460   0.447   1.457  -0.042 -0.5190 -1.1960  0.0280
 6922SOL    HW327461   0.420   1.445   0.106 -0.7573  0.1127  0.0998
 6922SOL    MW427462   0.398   1.475   0.027 -0.2387  0.3697 -0.3971
 6923SOL     OW27463   3.844   1.032   4.401 -0.3690 -0.0266 -0.0807
 6923SOL    HW227464   3.881   1.103   4.454 -1.4520 -1.1658  2.3649
 6923SOL    HW327465   3.902   1.026   4.325  1.3025  1.7081  0.9601
 6923SOL    MW427466   3.857   1.040   4.398  0.0045  0.0193 -0.1981
 6924SOL     OW27467   0.501   4.004   4.674 -0.2631 -0.0357  0.1130
 6924SOL    HW227468   0.431   4.018   4.738 -1.4092 -1.1512 -0.8360
 6924SOL    HW327469   0.466   3.936   4.616  1.7989 -0.9662 -0.1194
 6924SOL    MW427470   0.487   3.997   4.675  0.0163 -0.4280 -0.3282
 6925SOL     OW27471   4.754   5.697   1.520  0.5361 -0.2549  0.0786
 6925SOL    HW227472   4.809   5.682   1.443 -1.0036  2.1424 -1.6310
 6925SOL    HW327473   4.691   5.625   1.519  1.2308 -0.8730 -0.2007
 6925SOL    MW427474   4.753   5.686   1.509  0.3776 -0.5956 -0.1279
 6926SOL     OW27475   0.808   0.706   3.440 -0.0923 -0.0858 -0.6403
 6926SOL    HW227476   0.874   0.647   3.477  1.0832  1.7116  0.2640
 6926SOL    HW327477   0.821   0.701   3.346  0.1079 -1.1105 -0.5720
 6926SOL    MW427478   0.818   0.698   3.433  0.6890  0.0115  0.1613
 6927SOL     OW27479   5.554   4.941   0.759 -0.1759 -0.3288 -0.5295
 6927SOL    HW227480   5.641   4.930   0.719  0.0989  0.1580 -0.0721
 6927SOL    HW327481   5.532   4.853   0.791  1.4316  0.0670  1.9080
 6927SOL    MW427482   5.563   4.928   0.758 -0.2073 -0.0099 -0.5400
 6928SOL     OW27483   1.431   0.237   1.269  0.2856 -0.1844 -0.6294
 6928SOL    HW227484   1.447   0.264   1.359 -2.1343 -2.2964  0.5775
 6928SOL    HW327485   1.338   0.254   1.254  0.7201  0.5769 -2.9689
 6928SOL    MW427486   1.421   0.242   1.279  0.0172 -0.2202 -0.7376
 6929SOL     OW27487   0.515   3.320   5.781 -0.2536 -0.2426  0.0304
 6929SOL    HW227488   0.450   3.320   5.711  0.3181 -0.5573 -0.5045
 6929SOL    HW327489   0.597   3.295   5.738  0.0902 -0.5002  0.8220
 6929SOL    MW427490   0.518   3.317   5.766 -0.0856 -0.7525 -0.1803
 6930SOL     OW27491   2.217   5.810   5.038  0.3374 -0.8909 -0.5901
 6930SOL    HW227492   2.232   5.843   4.949  0.3814  1.3741  0.1770
 6930SOL    HW327493   2.235   5.716   5.033  0.4356 -0.7958 -2.9314
 6930SOL    MW427494   2.222   5.802   5.026  0.7375  0.0873 -0.4479
 6931SOL     OW27495   5.704   4.561   1.909  0.4960 -0.4571  0.5138
 6931SOL    HW227496   5.698   4.515   1.993 -0.6506  0.2503  0.8432
 6931SOL    HW327497   5.798   4.571   1.894  0.7251 -0.6745  1.6654
 6931SOL    MW427498   5.716   4.556   1.918  0.7281 -0.5099  0.4181
 6932SOL     OW27499   5.925   4.947   5.434 -0.2743  0.0103 -0.0631
 6932SOL    HW227500   5.893   4.923   5.347 -0.1756  0.4848 -0.2324
 6932SOL    HW327501   5.897   5.038   5.446 -1.7436 -0.5503  1.0789
 6932SOL    MW427502   5.917   4.956   5.424  1.0088 -0.1214 -0.0938
 6933SOL     OW27503   3.000   0.173   3.418  0.4159  0.1017  0.7596
 6933SOL    HW227504   3.078   0.197   3.369  0.9220 -1.4534  0.7355
 6933SOL    HW327505   2.996   0.077   3.410 -0.3878 -0.0275  2.4063
 6933SOL    MW427506   3.010   0.163   3.410 -0.6492 -0.0712 -0.0312
 6934SOL     OW27507   3.783   0.930   0.858  0.4888 -0.0752 -0.1103
 6934SOL    HW227508   3.860   0.957   0.908 -0.2574  0.0943  0.9733
 6934SOL    HW327509   3.728   0.885   0.921 -1.1852  1.4891 -0.3897
 6934SOL    MW427510   3.786   0.927   0.873  0.0504 -0.2364  0.7287
 6935SOL     OW27511   3.468   2.619   2.175 -0.7957  0.2389  0.1738
 6935SOL    HW227512   3.426   2.600   2.259  0.5678 -0.0331  0.8142
 6935SOL    HW327513   3.497   2.710   2.183  1.2156 -0.3988  0.8765
 6935SOL    MW427514   3.466   2.628   2.187  0.0382 -0.3609 -0.5983
 6936SOL     OW27515   5.813   0.548   4.770  1.0509 -0.0959 -0.6682
 6936SOL    HW227516   5.829   0.457   4.744  0.5304 -0.6250  0.7477
 6936SOL    HW327517   5.719   0.560   4.755  1.1833  0.3213 -1.1675
 6936SOL    MW427518   5.802   0.537   4.765  0.8126 -0.4061  0.5374
 6937SOL     OW27519   2.606   5.942   0.693 -0.0081  0.4931  0.2107
 6937SOL    HW227520   2.589   5.849   0.710  1.6993  0.4473  2.0956
 6937SOL    HW327521   2.658   5.970   0.768  1.0402  2.5472 -1.2078
 6937SOL    MW427522   2.610   5.934   0.705  0.3435  0.2231 -0.3882
 6938SOL     OW27523   2.456   4.177   4.551 -0.8743  0.2607  0.1137
 6938SOL    HW227524   2.547   4.163   4.525 -1.0111  0.9188 -0.7416
 6938SOL    HW327525   2.414   4.091   4.540 -0.1083 -0.3378  1.6212
 6938SOL    MW427526   2.462   4.163   4.546  0.2723 -0.1921  0.3851
 6939SOL     OW27527   4.286   3.987   2.527 -0.5698 -0.1487 -0.4316
 6939SOL    HW227528   4.302   4.026   2.441  2.3289  1.0850  0.5443
 6939SOL    HW327529   4.258   3.897   2.509  1.4172 -0.3949 -2.6547
 6939SOL    MW427530   4.284   3.981   2.514  0.2619 -0.4221 -0.0826
 6940SOL     OW27531   0.896   0.424   5.176  0.8031  0.5947  0.3882
 6940SOL    HW227532   0.808   0.461   5.176  1.0785  1.2686  0.2668
 6940SOL    HW327533   0.951   0.492   5.216  1.1851 -0.0229  0.9179
 6940SOL    MW427534   0.892   0.438   5.181  0.1698  0.0968 -0.1039
 6941SOL     OW27535   4.909   0.444   0.535 -0.1394 -0.7857 -0.1304
 6941SOL    HW227536   4.841   0.420   0.472 -1.1730  0.3345  0.5168
 6941SOL    HW327537   4.961   0.511   0.490 -1.3868  0.6308  0.4549
 6941SOL    MW427538   4.907   0.449   0.520  0.3300  0.3660 -0.2682
 6942SOL     OW27539   4.907   4.616   3.006  0.1231 -0.1606 -0.0452
 6942SOL    HW227540   4.861   4.584   3.083  1.5039  0.0137  0.9020
 6942SOL    HW327541   4.967   4.683   3.039 -1.5963  2.3993 -1.7528
 6942SOL    MW427542   4.909   4.620   3.020  0.0155  0.0165 -0.8033
 6943SOL     OW27543   0.733   4.255   2.986 -0.0596  0.1114 -0.6434
 6943SOL    HW227544   0.679   4.298   3.053  0.9958 -0.0722  0.3463
 6943SOL    HW327545   0.701   4.165   2.984 -0.2292  0.1677 -0.5363
 6943SOL    MW427546   0.722   4.249   2.994 -0.5045  0.2645 -0.5880
 6944SOL     OW27547   0.950   0.956   3.459  0.0715 -0.0364 -0.6884
 6944SOL    HW227548   0.899   0.877   3.478  2.4706 -1.3771  0.5802
 6944SOL    HW327549   0.955   1.003   3.542  0.9816  0.0114 -0.7603
 6944SOL    MW427550   0.944   0.952   3.472  0.1720  0.6518  0.5193
 6945SOL     OW27551   5.865   1.006   1.778 -0.1302  0.2747  0.3972
 6945SOL    HW227552   5.872   1.100   1.790  4.1703  0.1415  0.2022
 6945SOL    HW327553   5.811   0.996   1.699  1.0378  2.7101 -0.8210
 6945SOL    MW427554   5.859   1.017   1.769 -0.0572 -0.0074 -0.1759
 6946SOL     OW27555   1.482   2.341   4.127  0.6481  0.2188  0.7208
 6946SOL    HW227556   1.547   2.366   4.062 -1.6578  2.0043 -1.0996
 6946SOL    HW327557   1.435   2.422   4.146 -1.1033 -0.9839  1.8403
 6946SOL    MW427558   1.484   2.355   4.121 -0.3848 -0.1711  0.7037
 6947SOL     OW27559   0.356   4.292   2.101 -0.1140 -0.2636  0.1667
 6947SOL    HW227560   0.424   4.274   2.165  0.8109  2.3229  0.0183
 6947SOL    HW327561   0.399   4.280   2.016  0.0911  0.9351  0.0759
 6947SOL    MW427562   0.371   4.288   2.098  0.1244  0.2516 -0.1850
 6948SOL     OW27563   5.686   3.955   3.279 -0.3500 -0.0388 -0.7494
 6948SOL    HW227564   5.617   3.917   3.334 -0.6322 -1.2938 -1.9291
 6948SOL    HW327565   5.650   4.038   3.249 -0.6372  0.1344  0.0393
 6948SOL    MW427566   5.672   3.961   3.283  0.4935 -0.0886  0.0597
 6949SOL     OW27567   1.090   1.849   0.612 -0.1379 -0.2588 -0.4234
 6949SOL    HW227568   1.154   1.876   0.547  2.0878  0.3969  1.8948
 6949SOL    HW327569   1.026   1.797   0.563  1.8064 -0.4272 -2.9671
 6949SOL    MW427570   1.090   1.846   0.597  0.3007  0.0967  0.0450
 6950SOL     OW27571   4.075   5.152   3.928  0.5365  0.1339  0.1545
 6950SOL    HW227572   4.021   5.163   4.006  1.2164 -0.5661  0.7450
 6950SOL    HW327573   4.066   5.060   3.905  0.6002  0.2625 -0.4011
 6950SOL    MW427574   4.067   5.141   3.935 -0.2449 -0.2788  0.1044
 6951SOL     OW27575   3.631   4.889   5.341 -0.0853 -0.0558 -0.5111
 6951SOL    HW227576   3.662   4.895   5.251  0.1806  0.2586 -0.4025
 6951SOL    HW327577   3.695   4.940   5.391  0.0637 -0.6684 -0.0734
 6951SOL    MW427578   3.644   4.896   5.336 -0.3773  0.1300  0.4322
 6952SOL     OW27579   4.091   6.381   0.292  0.0486 -0.3446  0.3868
 6952SOL    HW227580   4.172   6.368   0.242  0.2590  1.5161  0.1849
 6952SOL    HW327581   4.023   6.392   0.225  0.1365  0.9957  0.4980
 6952SOL    MW427582   4.092   6.381   0.277  0.1103  0.3013  0.0403
 6953SOL     OW27583   3.929   3.119   5.329 -0.4335 -0.6646  0.6132
 6953SOL    HW227584   3.970   3.205   5.328 -1.4716 -0.1309 -1.3203
 6953SOL    HW327585   3.984   3.064   5.274 -1.7173 -0.1938 -1.2226
 6953SOL    MW427586   3.941   3.123   5.322  0.1867 -0.3061  0.4487
 6954SOL     OW27587   3.318   1.264   5.042 -0.3836  0.2229 -0.4209
 6954SOL    HW227588   3.277   1.289   4.959 -0.6978  0.1963 -0.2774
 6954SOL    HW327589   3.249   1.277   5.108  0.0457  0.8225 -0.0801
 6954SOL    MW427590   3.303   1.269   5.040 -0.9690 -0.0764 -0.2113
 6955SOL     OW27591   0.308   5.062   5.810 -0.4927 -0.7390  0.4942
 6955SOL    HW227592   0.338   5.087   5.723 -0.9165  0.7730  0.7520
 6955SOL    HW327593   0.278   4.971   5.801 -4.1527  0.5126 -1.8959
 6955SOL    MW427594   0.308   5.053   5.798 -0.1502  0.5991  0.2609
 6956SOL     OW27595   2.611   4.152   6.322  0.7556  0.7857 -0.0394
 6956SOL    HW227596   2.590   4.107   6.241  1.1331  0.0558  0.2545
 6956SOL    HW327597   2.611   4.245   6.299  1.2036  0.5701 -0.9474
 6956SOL    MW427598   2.608   4.159   6.309  0.2388 -0.4623 -0.1630
 6957SOL     OW27599   2.080   1.366   1.052 -0.1557 -0.0351 -0.1114
 6957SOL    HW227600   2.049   1.366   1.143 -0.2897  2.5800 -0.0954
 6957SOL    HW327601   2.041   1.287   1.014 -2.0614  0.0510  1.4839
 6957SOL    MW427602   2.071   1.355   1.059 -0.4513  0.2647 -0.4494
 6958SOL     OW27603   5.362   4.014   2.986  0.1327 -0.4062 -0.3479
 6958SOL    HW227604   5.411   4.085   2.943 -0.8999  1.6217  1.6039
 6958SOL    HW327605   5.403   3.934   2.954  2.6281  1.0947 -1.2198
 6958SOL    MW427606   5.374   4.013   2.976 -0.2844  0.0608  0.4039
 6959SOL     OW27607   5.280   4.291   6.178 -0.2860  0.1443  0.2011
 6959SOL    HW227608   5.220   4.268   6.107  0.1738 -0.6235  0.0567
 6959SOL    HW327609   5.332   4.364   6.142  0.5091 -0.7774 -0.5755
 6959SOL    MW427610   5.279   4.298   6.164  0.0332 -0.1641 -0.2282
 6960SOL     OW27611   3.315   3.851   2.891 -0.4594 -0.2175  0.6325
 6960SOL    HW227612   3.311   3.934   2.844  0.9773 -0.3164  0.2804
 6960SOL    HW327613   3.279   3.787   2.829  0.9388 -0.2618 -0.1940
 6960SOL    MW427614   3.310   3.853   2.876  0.5676 -0.0610 -0.5681
 6961SOL     OW27615   5.420   2.269   0.936 -0.0998  0.1831 -0.0983
 6961SOL    HW227616   5.427   2.334   1.005  1.2443  0.2450 -0.2745
 6961SOL    HW327617   5.510   2.256   0.905 -0.6095 -0.1795 -1.5129
 6961SOL    MW427618   5.433   2.276   0.941 -0.4696  0.0503  0.4779
 6962SOL     OW27619   0.626   1.893   3.059 -0.5320 -0.1612 -0.0301
 6962SOL    HW227620   0.657   1.816   3.011  0.0287  0.0679 -0.0414
 6962SOL    HW327621   0.602   1.956   2.991 -1.9042 -0.6608 -0.0438
 6962SOL    MW427622   0.626   1.891   3.044 -0.1542  0.0771 -0.3636
 6963SOL     OW27623   4.763   2.304   4.047  0.1776 -0.0614 -0.0303
 6963SOL    HW227624   4.767   2.223   3.996  0.4742 -1.5763  2.2730
 6963SOL    HW327625   4.853   2.316   4.079  0.2235  1.4128 -0.6455
 6963SOL    MW427626   4.776   2.295   4.044 -0.5257  0.4180  0.3766
 6964SOL     OW27627   2.759   0.073   2.472  0.3704  0.2698 -0.5178
 6964SOL    HW227628   2.840   0.043   2.431  0.9264  0.0092  0.7437
 6964SOL    HW327629   2.773   0.061   2.566 -0.9904  0.5718 -0.2543
 6964SOL    MW427630   2.771   0.067   2.479  0.2059 -0.1506 -0.5438
 6965SOL     OW27631   0.752   1.456   3.445  0.6004 -0.4744  0.8401
 6965SOL    HW227632   0.742   1.515   3.519  0.4634  0.1385  0.3466
 6965SOL    HW327633   0.834   1.483   3.403 -0.4672  0.7644 -0.5777
 6965SOL    MW427634   0.761   1.467   3.449 -0.4969  0.0378  0.5441
 6966SOL     OW27635   3.476   5.638   1.245 -0.1936  0.3580  0.6005
 6966SOL    HW227636   3.429   5.627   1.162  1.5987 -0.9014 -0.3262
 6966SOL    HW327637   3.502   5.549   1.269  0.7832  0.9000  1.6181
 6966SOL    MW427638   3.473   5.625   1.237  0.7634 -0.1904 -0.7979
 6967SOL     OW27639   3.034   2.649   3.761  0.4288  0.2561 -0.2563
 6967SOL    HW227640   3.014   2.691   3.845 -1.2571 -2.6232  0.9422
 6967SOL    HW327641   2.987   2.701   3.696 -0.4213  1.0225  0.9312
 6967SOL    MW427642   3.025   2.661   3.764 -0.4041 -0.2761  0.6013
 6968SOL     OW27643   1.353   0.125   3.674  0.2065 -0.1629  0.2738
 6968SOL    HW227644   1.380   0.034   3.677  1.0407  0.0881  2.6159
 6968SOL    HW327645   1.372   0.153   3.584  1.2653 -1.9057 -0.0957
 6968SOL    MW427646   1.359   0.117   3.662  0.2670  0.5546  0.3166
 6969SOL     OW27647   0.258   0.567   5.145 -0.2056  0.0291  0.3861
 6969SOL    HW227648   0.198   0.493   5.141 -1.1032  0.7383  0.4423
 6969SOL    HW327649   0.330   0.537   5.201 -0.1158 -1.0939 -0.3016
 6969SOL    MW427650   0.260   0.554   5.152 -0.1209 -0.0058  0.0555
 6970SOL     OW27651   4.450   1.545   0.410 -0.3354  0.4062 -0.0346
 6970SOL    HW227652   4.512   1.612   0.440 -0.0582 -0.1901  0.7472
 6970SOL    HW327653   4.412   1.582   0.330  0.7639  0.9316 -0.3301
 6970SOL    MW427654   4.453   1.559   0.403 -0.2361 -0.2091 -0.8949
 6971SOL     OW27655   5.783   2.127   0.362 -0.5159 -1.0907 -0.0945
 6971SOL    HW227656   5.748   2.086   0.440 -0.1073 -0.5989  0.3556
 6971SOL    HW327657   5.827   2.206   0.394  0.0890 -1.1474 -0.7582
 6971SOL    MW427658   5.784   2.132   0.376 -0.2153  0.0854 -0.2339
 6972SOL     OW27659   0.943   4.686   1.807 -0.2589  0.0355 -0.1060
 6972SOL    HW227660   0.850   4.687   1.784 -0.9656  0.2237  2.4162
 6972SOL    HW327661   0.956   4.602   1.851  0.5250  0.4185  0.4156
 6972SOL    MW427662   0.932   4.675   1.810 -0.6194 -0.1649  0.0759
 6973SOL     OW27663   4.777   2.800   0.708  0.0157  0.4771  0.0192
 6973SOL    HW227664   4.734   2.883   0.729 -0.4648  0.4152 -0.7048
 6973SOL    HW327665   4.717   2.733   0.740 -1.2361  0.3539 -2.3793
 6973SOL    MW427666   4.764   2.802   0.715  0.2020  0.4684 -0.2889
 6974SOL     OW27667   4.486   3.587   1.691 -0.5285 -0.4393  0.0277
 6974SOL    HW227668   4.546   3.587   1.765 -0.8694 -2.8290  0.3878
 6974SOL    HW327669   4.468   3.494   1.674 -2.9211  0.1278 -1.0475
 6974SOL    MW427670   4.491   3.575   1.698  0.0319  0.7886  0.2055
 6975SOL     OW27671   4.360   6.357   0.233 -0.1766 -0.3127  0.2992
 6975SOL    HW227672   4.388   6.323   0.318  1.9903 -0.4455 -0.3963
 6975SOL    HW327673   4.383   6.450   0.235 -0.5773 -0.2045  0.0407
 6975SOL    MW427674   4.367   6.365   0.244 -0.7099 -0.5406  0.8055
 6976SOL     OW27675   0.509   6.002   5.944 -0.1302  1.0211 -0.2424
 6976SOL    HW227676   0.600   6.022   5.968  0.3876 -0.6652 -0.6431
 6976SOL    HW327677   0.487   6.065   5.876  0.6888  1.5509 -0.0301
 6976SOL    MW427678   0.518   6.013   5.939  0.6753 -0.2758  0.1707
 6977SOL     OW27679   2.088   0.948   1.232 -0.2225 -0.1430  0.5045
 6977SOL    HW227680   2.008   0.931   1.183  0.0194 -0.6154  0.2688
 6977SOL    HW327681   2.072   0.907   1.318  0.2375 -1.3475  0.0422
 6977SOL    MW427682   2.075   0.940   1.237  0.3803  0.0785  0.0648
 6978SOL     OW27683   5.503   6.081   4.980  0.0347 -0.1206 -0.1279
 6978SOL    HW227684   5.575   6.089   4.917  0.3181 -0.7616  0.1090
 6978SOL    HW327685   5.528   6.008   5.037 -1.9027 -1.9619 -1.4953
 6978SOL    MW427686   5.516   6.072   4.980 -0.5176  0.1454  0.3180
 6979SOL     OW27687   4.850   1.853   2.496 -0.0915 -0.1259  0.4639
 6979SOL    HW227688   4.816   1.922   2.553  0.5254  0.8223 -0.2821
 6979SOL    HW327689   4.850   1.892   2.409  1.3491 -0.6522  0.1978
 6979SOL    MW427690   4.845   1.867   2.492 -0.0762  0.3171 -0.2470
 6980SOL     OW27691   4.956   2.834   5.103 -0.1286  0.4094 -0.3368
 6980SOL    HW227692   4.940   2.744   5.076  1.4744  0.4286 -1.5231
 6980SOL    HW327693   5.003   2.873   5.029  0.8580  1.6711  0.8971
 6980SOL    MW427694   4.960   2.828   5.090 -0.4530 -1.0078 -0.0281
 6981SOL     OW27695   0.367   4.342   0.385 -0.2244  0.3281  0.4832
 6981SOL    HW227696   0.399   4.417   0.434  0.8238 -0.5390  1.1456
 6981SOL    HW327697   0.444   4.307   0.341 -0.7488 -0.2227 -0.0170
 6981SOL    MW427698   0.381   4.347   0.385 -0.4329  0.0396 -0.6456
 6982SOL     OW27699   3.514   5.457   1.928 -0.0197  0.6561  0.3209
 6982SOL    HW227700   3.449   5.412   1.874 -0.7356  1.3612  0.5716
 6982SOL    HW327701   3.473   5.540   1.951  1.0246  1.1765  0.3866
 6982SOL    MW427702   3.500   5.462   1.924  0.1215 -0.1225 -0.0545
 6983SOL     OW27703   6.109   6.003   5.919 -0.2869 -0.3945  0.8608
 6983SOL    HW227704   6.168   5.937   5.884 -1.7861 -0.2729 -2.2492
 6983SOL    HW327705   6.031   5.955   5.945 -1.1618 -0.0066 -0.8861
 6983SOL    MW427706   6.107   5.988   5.918 -0.1535 -0.5457  0.5241
 6984SOL     OW27707   1.617   4.219   2.546 -0.5159  1.0700 -0.0005
 6984SOL    HW227708   1.607   4.175   2.630  1.8052 -1.5351 -0.9664
 6984SOL    HW327709   1.555   4.174   2.488 -0.4018  1.2565 -0.2688
 6984SOL    MW427710   1.607   4.207   2.549 -0.3611  0.2307  0.6488
 6985SOL     OW27711   2.474   3.718   5.660  0.3360 -0.2460 -0.7667
 6985SOL    HW227712   2.542   3.774   5.695  0.6103 -0.9018 -0.2265
 6985SOL    HW327713   2.437   3.767   5.587 -1.1677  1.7693  1.2086
 6985SOL    MW427714   2.478   3.732   5.655  0.0166  0.1157 -0.1359
 6986SOL     OW27715   4.902   0.645   4.375 -0.6910  0.5244  0.0036
 6986SOL    HW227716   4.921   0.716   4.313  3.5401  0.7543  1.2641
 6986SOL    HW327717   4.883   0.690   4.458 -0.0921  0.2266  0.3102
 6986SOL    MW427718   4.902   0.660   4.378 -0.6274  0.7036 -0.5480
 6987SOL     OW27719   6.106   5.020   5.004 -0.1261 -0.0378 -0.8364
 6987SOL    HW227720   6.186   5.054   5.044  0.4560 -1.2705 -0.8777
 6987SOL    HW327721   6.137   4.960   4.936 -1.0421 -1.9208  0.3330
 6987SOL    MW427722   6.121   5.016   5.000 -0.4351  0.3566 -0.1729
 6988SOL     OW27723   0.775   1.051   4.348 -0.0243  0.0883  0.3884
 6988SOL    HW227724   0.720   1.094   4.283  0.4767  0.0730 -0.0422
 6988SOL    HW327725   0.713   0.998   4.399 -0.3733 -0.1847 -0.3012
 6988SOL    MW427726   0.759   1.050   4.346 -0.2092  0.2886 -0.3280
 6989SOL     OW27727   5.483   5.256   3.856 -0.1934  0.3138  0.1606
 6989SOL    HW227728   5.392   5.275   3.882  0.4135  1.5549  1.5793
 6989SOL    HW327729   5.501   5.171   3.895 -1.1813 -0.6544 -1.3955
 6989SOL    MW427730   5.473   5.247   3.865  0.3086  0.0053  0.9883
 6990SOL     OW27731   1.243   2.361   1.237 -0.0018  0.0519  0.1486
 6990SOL    HW227732   1.302   2.415   1.184  0.4628  0.0039  0.6082
 6990SOL    HW327733   1.222   2.287   1.180  3.1981 -1.7929  1.1250
 6990SOL    MW427734   1.248   2.358   1.222 -0.2711 -0.4281  0.0456
 6991SOL     OW27735   6.402   4.614   3.557  0.0909  0.3906 -0.8535
 6991SOL    HW227736   6.431   4.552   3.491 -1.0913 -1.5166  0.3136
 6991SOL    HW327737   6.474   4.618   3.620 -1.0453 -2.6218  0.8793
 6991SOL    MW427738   6.415   4.606   3.557  0.0019  0.1265  0.1499
 6992SOL     OW27739   1.710   2.900   1.055  0.3472  0.1598 -0.0384
 6992SOL    HW227740   1.634   2.956   1.039  0.6174  0.6468  0.3446
 6992SOL    HW327741   1.766   2.953   1.112  0.9388 -0.2231 -0.2615
 6992SOL    MW427742   1.707   2.915   1.060 -0.0810  0.0919 -0.1328
 6993SOL     OW27743   0.229   2.461   3.404  0.2540 -0.1955 -0.0185
 6993SOL    HW227744   0.265   2.372   3.401  0.1159 -0.2309 -0.7301
 6993SOL    HW327745   0.288   2.508   3.463  0.1517 -0.8357  0.6052
 6993SOL    MW427746   0.242   2.455   3.411 -0.5480  0.8188  0.0154
 6994SOL     OW27747   1.584   3.528   3.433  0.1786  0.7136 -0.9969
 6994SOL    HW227748   1.494   3.560   3.437 -0.0702 -0.0927  0.0217
 6994SOL    HW327749   1.576   3.433   3.430  1.0183  0.4054  2.5626
 6994SOL    MW427750   1.571   3.520   3.433  0.3186  0.4904 -0.0896
 6995SOL     OW27751   4.706   2.437   4.838  0.1998  1.0517  0.3466
 6995SOL    HW227752   4.737   2.446   4.928 -0.9025 -0.1530  0.8806
 6995SOL    HW327753   4.613   2.416   4.847 -0.3750  2.7168 -1.1302
 6995SOL    MW427754   4.697   2.435   4.851 -0.0681 -0.2020 -0.1990
 6996SOL     OW27755   2.659   3.177   1.827  0.0056 -0.0284 -0.5339
 6996SOL    HW227756   2.740   3.227   1.831  0.7137 -0.9114 -2.5026
 6996SOL    HW327757   2.683   3.090   1.860  0.2547 -0.6801 -2.3134
 6996SOL    MW427758   2.673   3.172   1.832 -0.3473  0.0751 -0.0741
 6997SOL     OW27759   1.398   2.613   3.753  0.5966  0.1470 -0.1707
 6997SOL    HW227760   1.439   2.537   3.711 -0.6384 -0.9187  0.4830
 6997SOL    HW327761   1.381   2.673   3.680  2.3181  0.1678 -0.5893
 6997SOL    MW427762   1.401   2.611   3.738  0.2334  0.0207 -0.5945
 6998SOL     OW27763   1.355   2.716   3.214 -0.3022 -0.1793  0.0578
 6998SOL    HW227764   1.318   2.675   3.136 -0.1720 -0.0452 -0.0755
 6998SOL    HW327765   1.442   2.676   3.222 -0.0899  0.2322 -0.1984
 6998SOL    MW427766   1.362   2.705   3.205 -0.0146 -0.1471 -0.2891
 6999SOL     OW27767   0.514   2.399   0.491  0.5160  0.8494  0.0327
 6999SOL    HW227768   0.557   2.368   0.412 -1.0807  1.0620 -0.9742
 6999SOL    HW327769   0.477   2.484   0.466 -3.5192 -0.7909 -0.4203
 6999SOL    MW427770   0.515   2.406   0.477 -0.2829 -0.0677 -0.4078
 7000SOL     OW27771   4.376   6.340   3.999  0.0068  0.8058 -0.1145
 7000SOL    HW227772   4.366   6.261   3.947  0.5972 -0.0170  0.9689
 7000SOL    HW327773   4.469   6.360   3.996  0.1654  0.3576  1.1241
 7000SOL    MW427774   4.387   6.332   3.992 -0.0358  0.6274 -0.1472
 7001SOL     OW27775   4.751   5.238   4.523 -0.9533  0.5972  0.4021
 7001SOL    HW227776   4.735   5.300   4.594 -0.7951 -0.0704  1.0466
 7001SOL    HW327777   4.786   5.290   4.452  2.3269  0.8881  2.0179
 7001SOL    MW427778   4.754   5.253   4.523 -0.0179 -0.2823  0.0242
 7002SOL     OW27779   1.304   5.114   3.121 -0.3712  0.4973 -0.1299
 7002SOL    HW227780   1.352   5.178   3.174 -0.1207  0.0973  0.1258
 7002SOL    HW327781   1.354   5.110   3.039  0.5975 -0.6160  0.4839
 7002SOL    MW427782   1.317   5.122   3.117  0.2408 -0.4707  0.8136
 7003SOL     OW27783   1.051   1.661   2.054  0.2446 -0.0816  0.1423
 7003SOL    HW227784   0.984   1.728   2.071 -1.0409 -1.0322 -1.0220
 7003SOL    HW327785   1.092   1.688   1.972  0.1081 -0.4200 -0.0379
 7003SOL    MW427786   1.048   1.674   2.046  0.3989 -0.3388 -0.5149
 7004SOL     OW27787   3.507   5.927   3.683 -0.7543 -0.3605 -0.1544
 7004SOL    HW227788   3.470   5.975   3.756  2.2700  1.8968  0.0885
 7004SOL    HW327789   3.485   5.835   3.701 -3.2014  0.4705  1.5715
 7004SOL    MW427790   3.500   5.921   3.695 -0.3349  0.3505 -0.1055
 7005SOL     OW27791   2.157   0.885   2.410  0.1687  0.7323  0.1723
 7005SOL    HW227792   2.096   0.929   2.350  0.8976  0.5449 -0.7254
 7005SOL    HW327793   2.130   0.793   2.408  1.2174  0.4174 -1.2015
 7005SOL    MW427794   2.145   0.879   2.402  0.1240  0.1073 -0.2222
 7006SOL     OW27795   4.556   3.123   0.354  0.1418 -0.5396 -0.3104
 7006SOL    HW227796   4.637   3.071   0.355 -1.5375 -3.4025  0.8960
 7006SOL    HW327797   4.502   3.085   0.423 -3.2456 -0.5540 -2.6917
 7006SOL    MW427798   4.560   3.111   0.363 -0.0537  0.4556 -0.2546
 7007SOL     OW27799   3.261   4.878   1.973 -0.5914  0.1413 -0.1353
 7007SOL    HW227800   3.290   4.794   1.936  1.0345  0.3300  0.6123
 7007SOL    HW327801   3.251   4.861   2.067  0.2932  0.8862  0.1147
 7007SOL    MW427802   3.264   4.865   1.980 -0.0905 -0.0342 -0.9313
 7008SOL     OW27803   5.158   2.951   1.328  0.3595  1.1874 -0.2286
 7008SOL    HW227804   5.151   2.932   1.234  2.2008  1.2989 -0.4272
 7008SOL    HW327805   5.069   2.974   1.354 -0.4683 -0.1686 -1.6415
 7008SOL    MW427806   5.145   2.951   1.319  0.3959 -0.0692 -0.4591
 7009SOL     OW27807   2.483   5.889   1.753  0.4004  0.3510 -0.3151
 7009SOL    HW227808   2.501   5.983   1.748 -2.4928  1.0249  0.1503
 7009SOL    HW327809   2.431   5.871   1.674  3.3569 -1.5725 -1.9767
 7009SOL    MW427810   2.478   5.899   1.742 -0.7339 -0.3570  0.9158
 7010SOL     OW27811   0.449   2.379   6.025 -0.1539  0.2558 -0.5106
 7010SOL    HW227812   0.503   2.436   6.080  0.0950 -0.6720  0.2408
 7010SOL    HW327813   0.429   2.304   6.081 -0.3515 -0.4642 -1.5148
 7010SOL    MW427814   0.453   2.377   6.040  0.6919 -0.3659 -0.9083
 7011SOL     OW27815   3.000   1.409   5.564  0.3562  0.6270 -0.0404
 7011SOL    HW227816   3.051   1.479   5.524  2.4982 -1.3631 -0.9813
 7011SOL    HW327817   3.055   1.375   5.634 -0.0787 -0.9135 -0.4082
 7011SOL    MW427818   3.014   1.413   5.568  0.0721 -0.3321  0.5471
 7012SOL     OW27819   6.224   3.611   1.092  0.2284 -0.3070  0.3401
 7012SOL    HW227820   6.299   3.672   1.094 -0.0376  0.0082  1.9481
 7012SOL    HW327821   6.151   3.664   1.061  0.0231  0.2177  1.6354
 7012SOL    MW427822   6.224   3.626   1.088 -0.2151  0.4589 -0.1245
 7013SOL     OW27823   0.373   4.467   3.097 -0.2947  0.6007  0.0393
 7013SOL    HW227824   0.307   4.534   3.115 -1.8766 -0.8588 -0.1331
 7013SOL    HW327825   0.343   4.389   3.145  0.6346 -0.4685 -1.0519
 7013SOL    MW427826   0.360   4.465   3.106 -0.2297  0.5143  0.5245
 7014SOL     OW27827   0.206   2.973   2.624 -0.1784 -0.0853 -0.1883
 7014SOL    HW227828   0.135   3.004   2.567 -0.9855 -1.9865 -0.2811
 7014SOL    HW327829   0.178   2.997   2.712 -0.3291  0.2799 -0.3322
 7014SOL    MW427830   0.193   2.980   2.628  0.1504 -0.0156  0.0607
 7015SOL     OW27831   3.452   4.319   5.145  0.0906 -0.3961 -0.6334
 7015SOL    HW227832   3.479   4.229   5.163  0.4103 -0.5003 -1.5429
 7015SOL    HW327833   3.442   4.321   5.050 -1.4851  0.1043 -0.4780
 7015SOL    MW427834   3.454   4.307   5.135  0.2996 -0.4072 -0.3023
 7016SOL     OW27835   4.636   3.914   1.913 -0.2183  0.0333 -0.3288
 7016SOL    HW227836   4.546   3.923   1.945 -0.3383  0.4262 -0.7735
 7016SOL    HW327837   4.689   3.967   1.974 -0.4153  0.5730 -0.6153
 7016SOL    MW427838   4.631   3.922   1.925 -0.1425 -0.2559  0.2891
 7017SOL     OW27839   4.339   0.122   3.470  0.0755  0.2138 -0.3892
 7017SOL    HW227840   4.297   0.056   3.415  0.5597  1.1053 -1.9105
 7017SOL    HW327841   4.301   0.111   3.557 -2.8217  0.5483 -1.5222
 7017SOL    MW427842   4.329   0.112   3.474 -0.1494  0.1407 -0.6392
 7018SOL     OW27843   6.338   4.199   1.842  0.1659 -0.1466  0.1172
 7018SOL    HW227844   6.354   4.267   1.908  2.1482  1.5043 -1.8795
 7018SOL    HW327845   6.273   4.238   1.784 -0.0626 -0.7218 -0.0102
 7018SOL    MW427846   6.332   4.213   1.843  0.6328 -0.5090 -0.7911
 7019SOL     OW27847   6.246   0.993   0.456 -0.1171  0.0931  0.4316
 7019SOL    HW227848   6.179   0.929   0.478  1.5045 -2.7657 -2.1970
 7019SOL    HW327849   6.328   0.951   0.481  0.9388  1.9469  0.2476
 7019SOL    MW427850   6.248   0.979   0.462 -0.5122 -0.0070  0.1877
 7020SOL     OW27851   4.346   3.890   3.697 -0.1344 -0.0044 -0.0842
 7020SOL    HW227852   4.355   3.796   3.715 -2.6339 -0.2142  0.4723
 7020SOL    HW327853   4.313   3.895   3.607 -0.7186  0.2750  0.1375
 7020SOL    MW427854   4.343   3.878   3.688  0.1288 -0.2415  0.3536
 7021SOL     OW27855   2.243   5.762   1.055 -0.1532  0.1413  0.3240
 7021SOL    HW227856   2.190   5.832   1.017 -0.2711 -0.0375  0.1564
 7021SOL    HW327857   2.332   5.779   1.023 -0.0259  0.6911  0.9586
 7021SOL    MW427858   2.248   5.773   1.046  0.1000  0.4888 -0.2120
 7022SOL     OW27859   1.492   4.502   4.504 -0.4991 -0.4405  0.5091
 7022SOL    HW227860   1.532   4.456   4.430 -1.7720 -1.5148  0.4636
 7022SOL    HW327861   1.537   4.587   4.506 -1.3938  0.2153 -2.3929
 7022SOL    MW427862   1.503   4.507   4.494 -0.3075 -0.3778 -0.3755
 7023SOL     OW27863   3.306   5.745   1.573  0.2011 -0.2026  0.2897
 7023SOL    HW227864   3.363   5.805   1.622  0.2905  0.1126 -0.1922
 7023SOL    HW327865   3.218   5.779   1.587  0.3461  0.7484 -0.9253
 7023SOL    MW427866   3.302   5.757   1.581  0.1521  0.0276  0.0182
 7024SOL     OW27867   6.271   1.765   0.404 -0.3751  0.1016  0.5344
 7024SOL    HW227868   6.253   1.680   0.443 -0.1572  0.3185  1.1127
 7024SOL    HW327869   6.254   1.828   0.473 -3.5453  0.8045 -0.7203
 7024SOL    MW427870   6.267   1.762   0.418  0.1452  0.1804 -0.3405
 7025SOL     OW27871   1.344   5.541   4.324  0.2049  0.4210  0.3375
 7025SOL    HW227872   1.314   5.516   4.237 -1.2128 -0.1501  0.9546
 7025SOL    HW327873   1.278   5.505   4.383  1.5001  0.1993  1.7031
 7025SOL    MW427874   1.331   5.533   4.320  0.0377 -0.0095  0.4062
 7026SOL     OW27875   0.935   1.130   2.648 -0.2240  0.6432 -0.1156
 7026SOL    HW227876   0.875   1.096   2.582  2.1553 -0.8895 -1.6403
 7026SOL    HW327877   0.879   1.161   2.719 -2.9225  2.4364 -2.8318
 7026SOL    MW427878   0.920   1.129   2.649  0.2139  0.7293 -0.0475
 7027SOL     OW27879   1.891   4.130   0.591 -0.0054 -0.5713 -0.0411
 7027SOL    HW227880   1.929   4.111   0.676  2.2530 -1.2252 -1.1083
 7027SOL    HW327881   1.881   4.045   0.549 -0.0283 -0.1971 -0.8331
 7027SOL    MW427882   1.894   4.117   0.596  0.3820  0.4171  0.6635
 7028SOL     OW27883   0.976   6.178   0.435  0.0083  0.2927  0.1250
 7028SOL    HW227884   1.015   6.244   0.492 -0.2611  0.0597  0.5895
 7028SOL    HW327885   0.892   6.216   0.408 -0.6560 -0.3035  1.2871
 7028SOL    MW427886   0.970   6.192   0.439  0.0822 -0.3028 -0.1927
 7029SOL     OW27887   3.825   3.176   3.842  0.3374 -0.9741  0.6806
 7029SOL    HW227888   3.789   3.103   3.792 -0.5761 -1.4849  2.0182
 7029SOL    HW327889   3.786   3.167   3.929 -0.6852  1.7442  0.6084
 7029SOL    MW427890   3.815   3.165   3.847 -0.4015  0.1468  0.2910
 7030SOL     OW27891   2.677   5.157   4.740 -0.1527  0.4886  0.3871
 7030SOL    HW227892   2.695   5.133   4.831 -1.3739 -0.3148  0.4452
 7030SOL    HW327893   2.743   5.110   4.689 -0.0724  0.1580  0.7939
 7030SOL    MW427894   2.688   5.148   4.745 -0.0568  0.4359  0.2875
 7031SOL     OW27895   1.888   2.080   1.964  0.3428 -0.0757 -0.2903
 7031SOL    HW227896   1.957   2.114   1.907  0.7079  0.0477  0.2174
 7031SOL    HW327897   1.848   2.158   2.002  0.5388 -0.1788  0.1302
 7031SOL    MW427898   1.892   2.095   1.962  0.1586  0.4562  0.0014
 7032SOL     OW27899   1.890   2.555   3.026  1.0895  0.2141  0.0727
 7032SOL    HW227900   1.948   2.521   2.959 -0.0953  0.1295 -0.9347
 7032SOL    HW327901   1.842   2.626   2.984 -0.2964 -0.3991  0.5429
 7032SOL    MW427902   1.892   2.560   3.012 -0.1205  0.2231 -0.3591
 7033SOL     OW27903   5.216   2.520   0.170  0.1971  0.0971  0.0474
 7033SOL    HW227904   5.166   2.438   0.166 -1.5443  0.9639  1.6940
 7033SOL    HW327905   5.307   2.493   0.174 -0.3751 -1.8592  1.6291
 7033SOL    MW427906   5.221   2.506   0.170  0.1447  0.0509  0.1941
 7034SOL     OW27907   2.691   5.629   6.272  0.3826 -0.1076 -0.3587
 7034SOL    HW227908   2.738   5.663   6.348 -0.4968 -1.3331  0.7861
 7034SOL    HW327909   2.622   5.693   6.256 -0.3721 -0.5740  0.8720
 7034SOL    MW427910   2.688   5.642   6.280 -0.2647 -0.3064  0.7051
 7035SOL     OW27911   5.947   5.979   0.623 -0.3041  0.3087 -0.2894
 7035SOL    HW227912   6.034   5.978   0.581  0.0603  2.1896  0.3159
 7035SOL    HW327913   5.962   5.941   0.709 -0.7234 -2.0687 -1.2023
 7035SOL    MW427914   5.961   5.974   0.629  0.0907 -0.5474  0.5113
 7036SOL     OW27915   5.731   0.398   3.196  0.8895  0.1586  0.4750
 7036SOL    HW227916   5.732   0.484   3.155  2.2077 -0.2253 -0.3585
 7036SOL    HW327917   5.656   0.400   3.256  0.2109  1.4724 -0.3884
 7036SOL    MW427918   5.721   0.409   3.199 -0.0127 -0.6074 -0.0404
 7037SOL     OW27919   5.070   5.544   0.728  0.0321 -0.0884  0.1676
 7037SOL    HW227920   5.024   5.627   0.737  0.6440  0.1934  0.7664
 7037SOL    HW327921   5.009   5.479   0.764 -0.8236 -0.0442 -1.1272
 7037SOL    MW427922   5.056   5.546   0.734  0.4152  0.3883  0.5152
 7038SOL     OW27923   4.918   0.438   6.212  0.2368  0.3147 -0.0486
 7038SOL    HW227924   4.869   0.519   6.194 -0.1987  0.2017  0.6015
 7038SOL    HW327925   4.930   0.438   6.307 -0.9006 -1.0211  0.1272
 7038SOL    MW427926   4.913   0.449   6.222 -0.0503 -0.1931 -0.4650
 7039SOL     OW27927   6.374   0.908   3.955 -0.0035 -0.1815 -0.3158
 7039SOL    HW227928   6.326   0.990   3.956  1.1051  0.4965 -0.0509
 7039SOL    HW327929   6.370   0.876   4.046  0.2432 -0.0031 -0.2416
 7039SOL    MW427930   6.367   0.914   3.967 -0.3641 -0.1473  0.1264
 7040SOL     OW27931   0.226   6.071   3.802  0.7223 -0.0323  0.4206
 7040SOL    HW227932   0.317   6.052   3.778  0.0169 -0.6447 -2.0434
 7040SOL    HW327933   0.180   5.988   3.788 -0.7430  1.0341 -1.4458
 7040SOL    MW427934   0.232   6.057   3.797 -0.4663  0.1199  0.2741
 7041SOL     OW27935   0.542   2.662   2.404 -0.2352  0.1890 -0.2884
 7041SOL    HW227936   0.559   2.676   2.311 -0.8047 -0.1095 -0.4395
 7041SOL    HW327937   0.448   2.646   2.409 -0.1625 -0.0579  0.3051
 7041SOL    MW427938   0.532   2.661   2.392  0.4432 -0.3992 -0.5589
 7042SOL     OW27939   0.414   2.770   6.412  0.4520  0.4650 -0.3384
 7042SOL    HW227940   0.457   2.688   6.437  0.8555  1.0890  1.0844
 7042SOL    HW327941   0.372   2.750   6.328  1.2017 -0.9623 -0.4009
 7042SOL    MW427942   0.414   2.756   6.404 -0.4995  0.2416 -0.2763
 7043SOL     OW27943   2.576   5.561   1.493  0.1884  0.1932  0.5893
 7043SOL    HW227944   2.631   5.513   1.431 -0.5846  0.7207 -0.5357
 7043SOL    HW327945   2.572   5.650   1.457 -0.8520  0.3316  1.0208
 7043SOL    MW427946   2.583   5.566   1.480 -0.3499 -0.3381  0.4787
 7044SOL     OW27947   4.014   0.300   6.150 -0.1500  0.0751  0.6296
 7044SOL    HW227948   3.994   0.214   6.188 -2.9759  0.1550 -0.4466
 7044SOL    HW327949   3.985   0.293   6.059 -2.3458  2.6996  1.0038
 7044SOL    MW427950   4.008   0.288   6.143  0.1470 -0.0591 -0.6007
 7045SOL     OW27951   0.653   3.280   1.878 -0.8470 -0.2444 -0.5401
 7045SOL    HW227952   0.568   3.266   1.919 -0.7886 -0.1330 -0.3771
 7045SOL    HW327953   0.708   3.210   1.913 -0.1341  1.2102  1.4696
 7045SOL    MW427954   0.649   3.269   1.888  0.0588  0.0119  0.0975
 7046SOL     OW27955   0.587   3.939   1.994 -0.2560  0.9978 -0.4444
 7046SOL    HW227956   0.520   3.991   1.949 -2.4549 -0.5966  0.7354
 7046SOL    HW327957   0.624   3.884   1.925 -0.3822  1.6932 -1.0817
 7046SOL    MW427958   0.583   3.938   1.979  0.0181  0.5339  0.3165
 7047SOL     OW27959   2.362   0.254   6.004 -0.3286  0.3552 -0.2345
 7047SOL    HW227960   2.290   0.290   6.056 -1.4362 -0.3177 -1.2545
 7047SOL    HW327961   2.374   0.317   5.933 -1.7404 -0.8267 -1.5754
 7047SOL    MW427962   2.354   0.267   6.002 -0.8964  0.1954 -0.2825
 7048SOL     OW27963   1.060   1.575   6.214  0.9921  0.3932 -0.3219
 7048SOL    HW227964   0.968   1.570   6.188  1.0548  0.7927 -0.6174
 7048SOL    HW327965   1.104   1.614   6.139  1.4163  0.1381 -0.2067
 7048SOL    MW427966   1.054   1.579   6.201  0.1461 -0.3625 -0.6229
 7049SOL     OW27967   4.428   2.561   4.251  0.2145 -0.1076  0.1705
 7049SOL    HW227968   4.356   2.601   4.298 -0.0869 -1.1286  0.6047
 7049SOL    HW327969   4.409   2.577   4.158 -0.7083 -0.5950  0.2681
 7049SOL    MW427970   4.416   2.568   4.245  0.4388  0.0819  0.8865
 7050SOL     OW27971   4.368   3.818   2.146 -0.1758 -0.3937  0.0655
 7050SOL    HW227972   4.451   3.775   2.166 -0.2371 -1.0713 -1.0266
 7050SOL    HW327973   4.306   3.746   2.137 -0.8853  0.1067  0.8176
 7050SOL    MW427974   4.371   3.803   2.147 -0.6713  0.1283  0.1273
 7051SOL     OW27975   4.414   1.958   5.087  0.7064  0.0646 -0.3251
 7051SOL    HW227976   4.477   1.895   5.051  0.9644  0.8146 -1.2076
 7051SOL    HW327977   4.466   2.013   5.146  0.4122 -0.7461  0.7254
 7051SOL    MW427978   4.429   1.957   5.090 -0.1786 -0.3140 -0.3567
 7052SOL     OW27979   2.962   2.300   2.700  0.3634 -0.1454 -0.2395
 7052SOL    HW227980   2.873   2.268   2.712  1.0147 -2.2511 -0.6851
 7052SOL    HW327981   2.972   2.309   2.605  0.3428  1.0531 -0.1488
 7052SOL    MW427982   2.951   2.297   2.689  0.1113  0.1338 -0.2881
 7053SOL     OW27983   0.239   2.695   2.698  0.1128 -0.0715 -0.6818
 7053SOL    HW227984   0.233   2.790   2.693 -1.7381 -0.2104 -2.7803
 7053SOL    HW327985   0.154   2.667   2.732 -0.1024 -1.0001 -1.8899
 7053SOL    MW427986   0.227   2.704   2.702  0.2584 -0.7528  0.3644
 7054SOL     OW27987   3.167   5.274   1.587 -0.1436  0.2525 -0.0230
 7054SOL    HW227988   3.120   5.274   1.670 -2.1910  0.9083 -1.1116
 7054SOL    HW327989   3.235   5.340   1.598  1.2363 -1.3956  1.9378
 7054SOL    MW427990   3.169   5.283   1.599  0.1123 -0.5613  0.0995
 7055SOL     OW27991   0.963   0.482   2.496  0.0182 -0.4924 -0.5047
 7055SOL    HW227992   0.892   0.421   2.517  1.3129 -1.2388  2.0982
 7055SOL    HW327993   0.928   0.568   2.519 -0.3649 -0.7332 -0.1693
 7055SOL    MW427994   0.949   0.485   2.501  0.0779  0.3682  0.6737
 7056SOL     OW27995   1.429   2.242   0.526  0.1626 -0.0650  0.2480
 7056SOL    HW227996   1.431   2.332   0.495 -1.9742 -0.1905 -0.4141
 7056SOL    HW327997   1.517   2.209   0.511  0.9438  1.8662  0.3940
 7056SOL    MW427998   1.441   2.249   0.520  0.2387 -0.2765 -0.6670
 7057SOL     OW27999   2.919   6.043   4.207 -0.4319  0.0730  0.0071
 7057SOL    HW228000   2.920   5.947   4.204 -0.1664  0.0224  1.0601
 7057SOL    HW328001   2.842   6.064   4.260  1.2145  0.2780  2.5165
 7057SOL    MW428002   2.909   6.033   4.214 -0.3316  0.2320  0.8141
 7058SOL     OW28003   5.964   1.083   3.795  0.0177  0.1332  0.1418
 7058SOL    HW228004   5.896   1.017   3.811 -0.0268 -0.3883 -1.9879
 7058SOL    HW328005   5.924   1.144   3.733  0.1342  2.1219  1.9177
 7058SOL    MW428006   5.949   1.082   3.789 -0.0486  0.2107  0.0116
 7059SOL     OW28007   1.849   4.656   1.264  0.5108 -0.1419 -0.4472
 7059SOL    HW228008   1.787   4.589   1.294  0.2445  0.0328 -0.6087
 7059SOL    HW328009   1.930   4.635   1.311 -0.5366  1.6052  2.4518
 7059SOL    MW428010   1.851   4.645   1.274  0.5819 -0.2229 -0.6965
 7060SOL     OW28011   0.915   1.063   3.767  0.0879 -0.5862  0.5412
 7060SOL    HW228012   0.942   1.058   3.859  1.4035  0.0156  0.2140
 7060SOL    HW328013   0.885   1.154   3.757 -0.8672 -0.8894  0.5736
 7060SOL    MW428014   0.914   1.075   3.778 -0.5720 -0.1725 -0.1270
 7061SOL     OW28015   5.801   3.388   3.822 -0.4167  0.1781  0.1005
 7061SOL    HW228016   5.755   3.394   3.906 -1.6227  1.2700 -0.5968
 7061SOL    HW328017   5.741   3.340   3.765  0.6639 -1.1157  0.0102
 7061SOL    MW428018   5.787   3.383   3.826 -0.0232 -0.5079  0.5542
 7062SOL     OW28019   3.484   5.819   4.303 -0.3027 -0.2516  0.0445
 7062SOL    HW228020   3.577   5.833   4.320 -0.5354 -0.9380  2.0928
 7062SOL    HW328021   3.445   5.906   4.314  0.0515  0.0037 -0.6391
 7062SOL    MW428022   3.491   5.833   4.307 -0.3022  0.3617 -0.3189
 7063SOL     OW28023   3.127   6.407   0.512  0.3296  0.0096  0.6400
 7063SOL    HW228024   3.149   6.481   0.455  1.3559  0.3942  1.4949
 7063SOL    HW328025   3.209   6.360   0.522  0.6848  0.9660  3.2188
 7063SOL    MW428026   3.141   6.411   0.506 -0.1992 -0.0961 -0.0580
 7064SOL     OW28027   4.806   1.986   0.469  0.6876  0.6241 -1.0082
 7064SOL    HW228028   4.744   1.913   0.465  0.2143  0.9702 -0.1721
 7064SOL    HW328029   4.882   1.950   0.515  0.4664  0.6406 -0.6230
 7064SOL    MW428030   4.808   1.971   0.475 -0.2671  0.2382  0.3053
 7065SOL     OW28031   4.013   3.949   4.914  0.0252 -0.1585 -0.6790
 7065SOL    HW228032   3.955   3.883   4.877 -1.0520 -0.2449  1.0663
 7065SOL    HW328033   3.970   3.977   4.995  2.2183  0.0609  0.4922
 7065SOL    MW428034   4.000   3.944   4.920  0.0107 -0.1857  0.5581
 7066SOL     OW28035   4.137   4.659   2.259  0.1670  0.5545 -0.2326
 7066SOL    HW228036   4.042   4.658   2.268  0.3474  0.3763  2.7248
 7066SOL    HW328037   4.153   4.634   2.168 -2.5883  0.4884 -0.7853
 7066SOL    MW428038   4.126   4.656   2.249 -0.5773 -0.1723  0.2280
 7067SOL     OW28039   4.533   2.661   1.199  0.0117 -0.4203 -0.4830
 7067SOL    HW228040   4.524   2.625   1.287 -0.4400  1.1082  0.1233
 7067SOL    HW328041   4.539   2.755   1.212  0.6992 -0.2172 -2.0481
 7067SOL    MW428042   4.532   2.668   1.212  0.2749 -0.0559  0.0970
 7068SOL     OW28043   1.598   3.498   5.117 -0.0294 -0.5618 -0.4897
 7068SOL    HW228044   1.665   3.563   5.138 -0.4852 -0.5840  1.2228
 7068SOL    HW328045   1.644   3.430   5.068  1.1300 -0.3715  0.2988
 7068SOL    MW428046   1.613   3.497   5.114 -0.0206  0.7536 -0.4398
 7069SOL     OW28047   1.137   3.682   0.396 -0.3001  0.5063  0.1915
 7069SOL    HW228048   1.195   3.606   0.387  0.4167  1.2426 -2.0650
 7069SOL    HW328049   1.049   3.647   0.377  0.2667  0.5132 -2.9944
 7069SOL    MW428050   1.133   3.667   0.392  0.6928 -0.1292  0.1850
 7070SOL     OW28051   5.711   0.077   0.605  0.2272  0.1801  0.6197
 7070SOL    HW228052   5.650   0.103   0.674  0.1033 -0.9577  0.9489
 7070SOL    HW328053   5.772   0.017   0.648 -0.6884 -1.6656 -0.5426
 7070SOL    MW428054   5.711   0.073   0.620  0.1313 -0.1500 -0.1895
 7071SOL     OW28055   2.146   1.580   4.304 -0.2252 -0.3637 -0.1144
 7071SOL    HW228056   2.231   1.536   4.304 -0.9772 -1.9237  1.3683
 7071SOL    HW328057   2.163   1.666   4.343  0.9936  0.1663 -1.6944
 7071SOL    MW428058   2.159   1.586   4.309 -0.1034  0.5248  0.0172
 7072SOL     OW28059   2.138   3.634   4.652  0.0111 -0.0285  0.0708
 7072SOL    HW228060   2.181   3.689   4.718  0.2627  0.3007 -0.3676
 7072SOL    HW328061   2.143   3.545   4.688 -0.9154  0.2961  1.0653
 7072SOL    MW428062   2.144   3.629   4.666 -0.2186  0.0812 -0.5699
 7073SOL     OW28063   6.234   0.841   1.170  0.3945 -0.0025  0.6076
 7073SOL    HW228064   6.144   0.809   1.171  0.5641 -0.6570 -0.9548
 7073SOL    HW328065   6.258   0.851   1.262 -1.2554  0.1591  1.0406
 7073SOL    MW428066   6.225   0.838   1.182  0.5384 -0.1518 -0.6501
 7074SOL     OW28067   5.595   2.330   5.367  0.9917 -0.2342 -0.2228
 7074SOL    HW228068   5.586   2.406   5.425 -0.1318 -1.3436  1.1172
 7074SOL    HW328069   5.670   2.282   5.403  2.0863  0.4893 -1.4293
 7074SOL    MW428070   5.604   2.334   5.380 -0.0063  0.2878 -0.1376
 7075SOL     OW28071   5.901   1.539   3.460 -1.1379 -0.3366 -0.8527
 7075SOL    HW228072   5.871   1.528   3.370 -1.8827 -0.5109 -0.5879
 7075SOL    HW328073   5.822   1.557   3.510 -0.4152  3.3487 -0.7577
 7075SOL    MW428074   5.887   1.540   3.455  0.3845 -0.2106 -0.1902
 7076SOL     OW28075   5.529   4.826   3.170 -0.3347  0.1971 -0.1889
 7076SOL    HW228076   5.530   4.866   3.257 -1.8628 -1.0861  0.4545
 7076SOL    HW328077   5.585   4.749   3.179 -1.3526 -0.5340 -0.0216
 7076SOL    MW428078   5.537   4.821   3.183  0.4527 -0.3449 -0.4005
 7077SOL     OW28079   1.128   0.275   0.725 -0.0726  0.1907  0.3509
 7077SOL    HW228080   1.170   0.360   0.720 -2.8663  1.9350  2.9236
 7077SOL    HW328081   1.106   0.253   0.635 -1.0368  3.2451 -0.2813
 7077SOL    MW428082   1.130   0.283   0.713  0.0707  0.1376  0.2096
 7078SOL     OW28083   1.652   3.605   1.493  0.4519 -0.9173 -1.1235
 7078SOL    HW228084   1.653   3.594   1.588  1.8705  0.6168 -0.9197
 7078SOL    HW328085   1.727   3.553   1.463  2.0520  1.1882 -1.0046
 7078SOL    MW428086   1.662   3.596   1.501 -0.1356 -0.1706 -0.2594
 7079SOL     OW28087   1.331   5.025   5.779  0.1397 -0.1498  1.0400
 7079SOL    HW228088   1.412   5.051   5.823  1.8365 -0.9361 -1.4253
 7079SOL    HW328089   1.318   4.934   5.805  0.3886 -0.2100  0.9529
 7079SOL    MW428090   1.340   5.016   5.789 -0.3487  0.6687 -0.0344
 7080SOL     OW28091   0.412   3.155   4.095  0.0408 -0.2080 -0.0021
 7080SOL    HW228092   0.389   3.134   4.185 -0.3874 -0.1242 -0.0888
 7080SOL    HW328093   0.505   3.131   4.087  0.8312  2.1447  1.1862
 7080SOL    MW428094   0.421   3.149   4.106  0.0939  0.1015  0.1925
 7081SOL     OW28095   2.714   1.710   0.870 -0.1489 -0.0510 -0.4907
 7081SOL    HW228096   2.707   1.782   0.808  0.2399  1.1099  0.7433
 7081SOL    HW328097   2.676   1.745   0.951  0.9525 -0.8797  0.4181
 7081SOL    MW428098   2.708   1.724   0.873 -0.4763 -0.8463 -0.1300
 7082SOL     OW28099   2.809   3.914   4.881 -0.2347  0.0671  0.1297
 7082SOL    HW228100   2.869   3.914   4.955  1.1702 -1.4145 -0.9411
 7082SOL    HW328101   2.743   3.848   4.904  0.0428 -0.1963  0.1664
 7082SOL    MW428102   2.808   3.905   4.894 -0.4538  0.3388 -0.7684
 7083SOL     OW28103   4.968   4.174   3.579 -0.2350  0.4073 -0.1264
 7083SOL    HW228104   4.945   4.227   3.503 -0.2721  0.6284  0.0398
 7083SOL    HW328105   4.904   4.197   3.645 -0.2984  0.0966 -0.0793
 7083SOL    MW428106   4.957   4.184   3.577 -0.5032 -0.0367  0.0552
 7084SOL     OW28107   1.976   6.181   5.007  1.0375  0.1550 -0.4188
 7084SOL    HW228108   2.070   6.185   4.992  0.8158 -0.4102 -2.1814
 7084SOL    HW328109   1.957   6.089   5.024  1.0600  0.5638  2.1529
 7084SOL    MW428110   1.986   6.170   5.007 -0.4126 -0.1566  0.3208
 7085SOL     OW28111   3.102   3.246   6.412  0.3008 -0.2442  0.0977
 7085SOL    HW228112   3.101   3.239   6.317  1.0004 -0.0212  0.0708
 7085SOL    HW328113   3.099   3.155   6.443 -2.6152 -0.2914 -0.0760
 7085SOL    MW428114   3.102   3.233   6.404  0.4424 -0.1753 -0.4172
 7086SOL     OW28115   5.317   1.029   3.309  0.2847 -0.5464  0.0564
 7086SOL    HW228116   5.263   1.104   3.282  0.2367 -0.7031 -0.2920
 7086SOL    HW328117   5.380   1.066   3.371 -1.3785 -0.6880  1.9270
 7086SOL    MW428118   5.318   1.044   3.313  0.4051 -0.0977  0.0328
 7087SOL     OW28119   3.657   1.915   0.766 -0.8106  0.2088  0.2975
 7087SOL    HW228120   3.618   1.893   0.682  0.1388  1.3726 -0.4778
 7087SOL    HW328121   3.749   1.889   0.757 -0.6212  0.6715  0.8304
 7087SOL    MW428122   3.664   1.909   0.754 -0.3373  0.2433 -0.0188
 7088SOL     OW28123   4.446   2.501   6.005 -0.0179  0.4255  0.3048
 7088SOL    HW228124   4.472   2.411   5.984 -1.6985 -0.1610  0.5063
 7088SOL    HW328125   4.528   2.548   6.020  0.9706 -0.6837 -1.3199
 7088SOL    MW428126   4.460   2.495   6.004 -0.3919 -0.2168 -0.3120
 7089SOL     OW28127   3.894   4.093   5.143  0.0739 -0.3600 -0.4153
 7089SOL    HW228128   3.805   4.078   5.111  0.9545 -1.6586 -2.5214
 7089SOL    HW328129   3.900   4.188   5.154 -2.0643 -0.3645  1.5250
 7089SOL    MW428130   3.883   4.104   5.140  0.9882 -0.0467 -0.3568
 7090SOL     OW28131   0.479   5.992   4.344  0.1771 -0.1678 -0.1311
 7090SOL    HW228132   0.473   5.972   4.437 -0.2422 -2.0931 -0.5215
 7090SOL    HW328133   0.566   6.031   4.334  0.7619 -1.1244  0.9006
 7090SOL    MW428134   0.490   5.994   4.355 -0.6847 -0.3646  0.2573
 7091SOL     OW28135   6.276   0.320   4.304 -0.1394 -0.0238 -0.5513
 7091SOL    HW228136   6.235   0.236   4.323 -0.1536  0.0190 -0.3933
 7091SOL    HW328137   6.338   0.334   4.375 -0.4151  0.2816 -0.3676
 7091SOL    MW428138   6.278   0.311   4.316  0.6872 -0.7091  0.0321
 7092SOL     OW28139   1.411   5.117   4.209  0.2944 -0.3502  0.3180
 7092SOL    HW228140   1.465   5.193   4.229 -0.3266 -0.1262  1.1612
 7092SOL    HW328141   1.460   5.072   4.139 -0.1864  1.7394 -1.4995
 7092SOL    MW428142   1.425   5.121   4.202  0.6089 -1.0591  0.2672
 7093SOL     OW28143   5.418   5.794   2.697 -0.3887 -0.5890  0.5062
 7093SOL    HW228144   5.494   5.760   2.650 -0.5002 -0.6680  0.3831
 7093SOL    HW328145   5.371   5.846   2.631 -0.0096  0.1282  0.7934
 7093SOL    MW428146   5.422   5.797   2.682  0.3514 -0.1724  0.0528
 7094SOL     OW28147   3.153   3.321   1.793 -0.5540  0.3618  0.2852
 7094SOL    HW228148   3.207   3.400   1.783 -0.3677  0.0046 -2.3291
 7094SOL    HW328149   3.200   3.268   1.856 -1.3368  2.7965  3.1294
 7094SOL    MW428150   3.166   3.325   1.800  0.9639  0.1953 -0.3072
 7095SOL     OW28151   3.298   3.890   0.481  0.0979 -0.0807 -0.2305
 7095SOL    HW228152   3.246   3.817   0.513  0.2655 -0.2071 -0.2497
 7095SOL    HW328153   3.296   3.955   0.551 -0.3529  0.0472 -0.3574
 7095SOL    MW428154   3.291   3.889   0.494  0.2797 -0.5981  0.0545
 7096SOL     OW28155   1.795   4.612   1.584 -0.2568  0.3470 -0.8165
 7096SOL    HW228156   1.854   4.681   1.553 -1.1428  1.3142 -0.4415
 7096SOL    HW328157   1.788   4.552   1.511  0.2094  0.8904 -1.3179
 7096SOL    MW428158   1.802   4.613   1.570  0.6449  0.2629 -0.3104
 7097SOL     OW28159   5.123   5.164   5.099 -0.5061  0.2146 -0.2853
 7097SOL    HW228160   5.214   5.194   5.094 -0.3747  0.3918  2.0428
 7097SOL    HW328161   5.129   5.069   5.096 -0.4027  0.2521 -1.7183
 7097SOL    MW428162   5.136   5.155   5.098  0.2948  0.1053  0.0444
 7098SOL     OW28163   6.067   2.491   4.269  0.1038  0.5166  0.4248
 7098SOL    HW228164   6.109   2.406   4.253 -1.4911 -0.4247  1.0190
 7098SOL    HW328165   6.070   2.501   4.365  0.9147  1.4851  0.3084
 7098SOL    MW428166   6.073   2.481   4.280 -0.2644  0.4004  0.0907
 7099SOL     OW28167   0.194   0.697   4.797  0.2568  0.7394  0.2425
 7099SOL    HW228168   0.167   0.664   4.883  1.4407 -0.4630  0.1869
 7099SOL    HW328169   0.119   0.679   4.741  0.9240 -2.3658  0.1351
 7099SOL    MW428170   0.180   0.690   4.801 -0.6389  0.2951 -0.7607
 7100SOL     OW28171   3.560   1.486   6.175 -1.1693 -0.7589 -0.4334
 7100SOL    HW228172   3.468   1.505   6.193 -1.6035 -0.7616 -2.4069
 7100SOL    HW328173   3.581   1.540   6.099  0.9106  0.3493  0.8480
 7100SOL    MW428174   3.551   1.496   6.167 -0.2923 -0.4016 -0.2603
 7101SOL     OW28175   0.098   0.619   3.340 -0.3115  0.0652 -0.1400
 7101SOL    HW228176   0.030   0.552   3.330 -0.1449 -0.1381  0.1007
 7101SOL    HW328177   0.148   0.614   3.259 -1.9988  1.8124 -1.3840
 7101SOL    MW428178   0.096   0.610   3.328 -0.7286  0.2769 -0.1015
 7102SOL     OW28179   3.451   2.380   3.052 -0.1136 -0.3350 -0.3390
 7102SOL    HW228180   3.412   2.332   2.979 -0.9424 -1.3896  0.7371
 7102SOL    HW328181   3.399   2.460   3.059  0.7208  0.3561 -1.6033
 7102SOL    MW428182   3.439   2.384   3.043  0.2743  0.1982  0.2591
 7103SOL     OW28183   1.367   3.522   2.995  0.2198  0.5414 -0.0053
 7103SOL    HW228184   1.448   3.558   3.032 -0.3335  1.5609  0.2348
 7103SOL    HW328185   1.354   3.440   3.043  0.8721  0.5776  0.2537
 7103SOL    MW428186   1.376   3.516   3.006 -0.1318  0.4253 -0.1046
 7104SOL     OW28187   5.725   1.663   3.845 -0.0001  0.2189 -0.2551
 7104SOL    HW228188   5.694   1.660   3.935 -1.4238 -1.2221 -0.7410
 7104SOL    HW328189   5.797   1.600   3.842 -1.2316 -1.2387 -0.5188
 7104SOL    MW428190   5.731   1.654   3.856  0.6742 -0.7176 -0.9736
 7105SOL     OW28191   2.707   5.638   1.978 -0.1884 -0.2236  0.2477
 7105SOL    HW228192   2.681   5.634   1.886 -1.9484 -0.4296  0.7269
 7105SOL    HW328193   2.707   5.547   2.007 -1.6812 -0.0266  0.9604
 7105SOL    MW428194   2.704   5.625   1.969  0.1558  0.5856 -0.0495
 7106SOL     OW28195   1.070   2.921   4.195  0.0476  0.5565 -0.0255
 7106SOL    HW228196   1.093   2.831   4.171 -2.1471 -0.4601  1.3936
 7106SOL    HW328197   1.026   2.956   4.118 -0.9430 -0.3300  0.1228
 7106SOL    MW428198   1.067   2.914   4.182  0.3811  0.4331 -0.5077
 7107SOL     OW28199   1.923   6.432   3.169 -0.0766 -0.2961 -0.5523
 7107SOL    HW228200   1.950   6.417   3.078 -0.5554 -0.6138 -0.6437
 7107SOL    HW328201   2.005   6.437   3.218  0.1530 -2.7900 -0.5814
 7107SOL    MW428202   1.938   6.431   3.163  0.0502 -0.0085  0.2355
 7108SOL     OW28203   3.528   4.831   1.065 -0.2454  0.2646  0.0163
 7108SOL    HW228204   3.500   4.806   1.152 -0.2609  0.3004  0.0216
 7108SOL    HW328205   3.480   4.912   1.046  2.0659  2.0352  1.2271
 7108SOL    MW428206   3.518   4.838   1.074  0.1541 -0.7106  0.1498
 7109SOL     OW28207   6.411   0.220   1.058 -0.1855 -0.4926  0.0719
 7109SOL    HW228208   6.427   0.127   1.044  0.1850 -0.1429 -2.2333
 7109SOL    HW328209   6.326   0.236   1.016 -0.8919 -0.0068  1.6151
 7109SOL    MW428210   6.402   0.210   1.050 -0.3877  0.0324 -0.3287
 7110SOL     OW28211   0.156   4.957   4.268  0.2781  0.7908 -0.2350
 7110SOL    HW228212   0.063   4.960   4.292  0.0963 -0.5350 -0.7259
 7110SOL    HW328213   0.175   5.045   4.236 -0.7650  1.1281  0.0288
 7110SOL    MW428214   0.146   4.969   4.267  0.2565  0.8325  0.4444
 7111SOL     OW28215   0.990   0.309   0.973 -0.1347  0.4199  0.2111
 7111SOL    HW228216   1.075   0.294   1.016 -0.6537 -0.8178  0.8508
 7111SOL    HW328217   1.009   0.300   0.879  0.1729 -1.3878  0.4194
 7111SOL    MW428218   1.004   0.306   0.966 -0.3048 -0.5515 -0.2407
 7112SOL     OW28219   2.726   2.184   2.778  0.4862 -0.3100  0.3427
 7112SOL    HW228220   2.644   2.234   2.773 -0.1141 -0.8675  2.9468
 7112SOL    HW328221   2.703   2.097   2.746  0.0978 -0.3928  0.8298
 7112SOL    MW428222   2.712   2.179   2.773 -0.1593 -0.0485 -0.2496
 7113SOL     OW28223   1.553   5.637   5.950 -0.6872  0.0211 -0.2558
 7113SOL    HW228224   1.471   5.599   5.918 -1.4837 -0.3030  1.9929
 7113SOL    HW328225   1.525   5.711   6.004  0.4017 -0.6521  1.3056
 7113SOL    MW428226   1.539   5.642   5.953  0.7224  0.5439  0.3496
 7114SOL     OW28227   1.728   2.470   4.465 -0.1987  0.5366 -0.5789
 7114SOL    HW228228   1.758   2.488   4.554 -0.1976 -2.7118  0.1988
 7114SOL    HW328229   1.654   2.531   4.452 -1.4360 -0.1328  2.3841
 7114SOL    MW428230   1.722   2.481   4.475  0.2126  0.6007  0.0782
 7115SOL     OW28231   0.100   5.004   4.930  0.4658 -0.1281  0.0005
 7115SOL    HW228232   0.024   4.999   4.871 -0.3595 -0.9095  1.0955
 7115SOL    HW328233   0.083   5.080   4.985 -0.1574 -1.0103  1.0650
 7115SOL    MW428234   0.088   5.013   4.929 -0.1955  0.4684 -0.2381
 7116SOL     OW28235   3.585   3.586   1.195 -0.1203 -0.7845 -0.1712
 7116SOL    HW228236   3.530   3.662   1.214  1.4515 -0.1357  2.4683
 7116SOL    HW328237   3.623   3.604   1.109 -0.7979  0.7707 -0.1727
 7116SOL    MW428238   3.583   3.598   1.186  0.0625 -0.0632  0.1954
 7117SOL     OW28239   5.365   3.194   5.810 -0.5014 -0.1624 -0.5033
 7117SOL    HW228240   5.422   3.181   5.735 -1.4518  1.7343 -1.6228
 7117SOL    HW328241   5.277   3.192   5.774 -0.9801  0.5904  0.5715
 7117SOL    MW428242   5.361   3.192   5.796 -0.4238 -0.1875  0.3111
 7118SOL     OW28243   1.360   4.861   0.940 -0.0527 -0.0790 -0.0509
 7118SOL    HW228244   1.410   4.816   0.872  0.1789 -0.1642  0.1753
 7118SOL    HW328245   1.347   4.795   1.008 -1.9023 -0.5714 -0.8155
 7118SOL    MW428246   1.365   4.846   0.940 -0.0138 -0.3407 -0.1139
 7119SOL     OW28247   3.169   6.244   5.983  0.2958 -0.4200 -0.5021
 7119SOL    HW228248   3.220   6.163   5.974 -1.0043 -1.9208  3.4284
 7119SOL    HW328249   3.234   6.313   5.988  1.5363 -1.3925 -2.0729
 7119SOL    MW428250   3.184   6.242   5.982 -0.5757 -0.1685 -0.0102
 7120SOL     OW28251   5.528   5.055   4.933  0.6507 -0.2864 -0.0513
 7120SOL    HW228252   5.543   4.961   4.943  2.9505  0.0342  0.0213
 7120SOL    HW328253   5.472   5.063   4.856 -0.9828 -1.7774  0.9196
 7120SOL    MW428254   5.523   5.043   4.924  0.3392  0.2488  0.0902
 7121SOL     OW28255   1.611   1.294   4.406  1.2341 -0.1141 -0.4245
 7121SOL    HW228256   1.669   1.272   4.333  1.1456 -0.6813 -0.3255
 7121SOL    HW328257   1.613   1.217   4.462  3.7642  1.4343  1.8040
 7121SOL    MW428258   1.619   1.281   4.403 -0.0663 -0.3012 -0.4020
 7122SOL     OW28259   6.043   2.256   1.337 -0.4812 -0.5894  0.3573
 7122SOL    HW228260   6.130   2.239   1.372 -0.1647 -0.0986 -0.1780
 7122SOL    HW328261   5.983   2.222   1.404  0.1165 -0.4348  0.9792
 7122SOL    MW428262   6.047   2.249   1.350  0.0673 -0.3192 -0.2410
 7123SOL     OW28263   1.570   1.939   5.098 -0.1669  0.6711  0.1236
 7123SOL    HW228264   1.486   1.939   5.052  0.4434  0.1170 -1.0234
 7123SOL    HW328265   1.634   1.964   5.032  0.8887 -1.3065  0.3309
 7123SOL    MW428266   1.567   1.942   5.084 -0.3110 -0.5086 -0.4154
 7124SOL     OW28267   1.176   2.822   2.072  0.1191 -0.2440 -0.4049
 7124SOL    HW228268   1.153   2.730   2.062  0.2393 -0.1611 -1.6511
 7124SOL    HW328269   1.179   2.856   1.982 -2.2320  1.5541  0.0739
 7124SOL    MW428270   1.173   2.814   2.059 -0.6837 -0.5341 -0.8694
 7125SOL     OW28271   4.397   0.071   5.292  0.5981 -0.2491 -0.9628
 7125SOL    HW228272   4.468   0.007   5.300  0.9151  0.2342  0.2754
 7125SOL    HW328273   4.441   0.156   5.288  0.1097  0.1123  0.4638
 7125SOL    MW428274   4.412   0.074   5.293  0.2386 -0.1367  0.6759
 7126SOL     OW28275   6.104   2.068   1.118 -0.2200  0.3352 -0.1934
 7126SOL    HW228276   6.055   2.076   1.199 -0.2558 -1.1587 -0.0387
 7126SOL    HW328277   6.064   1.993   1.073 -0.3066  1.2279 -1.6661
 7126SOL    MW428278   6.092   2.059   1.122  0.6579 -0.2093 -0.4656
 7127SOL     OW28279   6.355   4.633   2.030 -0.3473  0.1230  0.4334
 7127SOL    HW228280   6.378   4.714   2.076  2.0819 -1.0873  1.5549
 7127SOL    HW328281   6.268   4.610   2.063 -0.2184  1.2458  1.6080
 7127SOL    MW428282   6.346   4.640   2.041  0.5681  0.1517  0.1453
 7128SOL     OW28283   5.436   5.622   2.305  0.6436 -0.2247 -0.5287
 7128SOL    HW228284   5.485   5.608   2.386 -1.6963  0.0944  1.0463
 7128SOL    HW328285   5.496   5.670   2.248  2.2611 -0.1866  1.1216
 7128SOL    MW428286   5.450   5.626   2.308  0.4300 -0.0467  0.0462
 7129SOL     OW28287   5.733   0.058   4.864  0.4367 -0.6422 -0.0847
 7129SOL    HW228288   5.811   0.043   4.917  0.9136  0.6466 -0.3996
 7129SOL    HW328289   5.739   0.149   4.837 -1.9362 -0.0544  1.1027
 7129SOL    MW428290   5.744   0.068   4.867  0.2876  0.0072  0.2434
 7130SOL     OW28291   4.636   3.154   3.345 -0.3931  0.1131  0.0234
 7130SOL    HW228292   4.609   3.215   3.414 -0.5629  0.2226 -0.1395
 7130SOL    HW328293   4.685   3.086   3.391  1.6197  1.4338 -0.0133
 7130SOL    MW428294   4.639   3.153   3.360 -0.2657 -0.0121  0.4472
 7131SOL     OW28295   0.419   4.738   1.991  0.1317 -0.3781 -0.1470
 7131SOL    HW228296   0.457   4.671   1.935 -0.7564 -0.8255 -0.2244
 7131SOL    HW328297   0.348   4.694   2.036 -0.6781  0.5892 -0.4498
 7131SOL    MW428298   0.415   4.724   1.989 -0.3440 -0.1983  0.0390
 7132SOL     OW28299   2.634   4.073   2.016 -0.3990  0.1835  0.1160
 7132SOL    HW228300   2.579   4.035   2.086  0.6951 -1.0792  0.3336
 7132SOL    HW328301   2.644   4.164   2.041 -1.0858  0.0561  0.9243
 7132SOL    MW428302   2.628   4.080   2.029  0.3215  0.2992  0.0720
 7133SOL     OW28303   4.055   6.167   5.498  0.2533  0.0739 -0.3148
 7133SOL    HW228304   4.029   6.240   5.554  2.6216  2.3596 -1.9607
 7133SOL    HW328305   4.151   6.172   5.495  0.4819 -2.8374 -0.9439
 7133SOL    MW428306   4.064   6.177   5.505  0.2942  0.0943  0.6672
 7134SOL     OW28307   0.320   3.004   1.480  0.7741 -0.5378 -0.0480
 7134SOL    HW228308   0.414   3.002   1.497  0.8624 -0.7657 -0.5507
 7134SOL    HW328309   0.282   3.046   1.558  1.5101  1.8125 -0.8937
 7134SOL    MW428310   0.327   3.009   1.493  0.3852 -0.2145  0.1473
 7135SOL     OW28311   2.563   2.333   0.594  0.7297 -0.1913 -0.1821
 7135SOL    HW228312   2.656   2.313   0.594  0.3020 -2.6141  1.0492
 7135SOL    HW328313   2.545   2.363   0.505  2.9053  1.8229 -0.0323
 7135SOL    MW428314   2.573   2.334   0.582  0.1730  0.2247 -0.0947
 7136SOL     OW28315   4.134   4.569   0.987  0.2941  0.0249  0.8722
 7136SOL    HW228316   4.088   4.566   0.903 -0.0888 -1.4397  1.1096
 7136SOL    HW328317   4.206   4.507   0.977 -0.5870 -1.2488  2.0608
 7136SOL    MW428318   4.137   4.560   0.974  0.1119 -0.4075  0.3366
 7137SOL     OW28319   1.055   2.418   3.910  0.7972  0.2964  0.6997
 7137SOL    HW228320   0.985   2.436   3.973  1.5241 -0.2221  1.6837
 7137SOL    HW328321   1.017   2.351   3.852 -1.0094  2.9511 -1.4485
 7137SOL    MW428322   1.040   2.411   3.911 -0.0586 -0.4078 -0.0779
 7138SOL     OW28323   1.558   5.810   0.025  0.0322 -0.3838 -0.8245
 7138SOL    HW228324   1.552   5.746  -0.046  1.7795  0.3983 -1.7418
 7138SOL    HW328325   1.499   5.881  -0.002  0.9827  0.0853 -1.7287
 7138SOL    MW428326   1.549   5.811   0.012 -0.0123  0.1355  0.6892
 7139SOL     OW28327   4.918   5.389   4.341  0.2002 -0.6188 -0.5320
 7139SOL    HW228328   5.001   5.400   4.387  1.0844 -0.8214 -2.0096
 7139SOL    HW328329   4.875   5.475   4.347  0.8501 -0.3025 -0.3831
 7139SOL    MW428330   4.923   5.402   4.348 -0.7345  0.3410  0.2481
 7140SOL     OW28331   4.574   3.433   2.199  0.0408 -0.0447  0.1864
 7140SOL    HW228332   4.538   3.390   2.277  0.2385 -0.5267  0.0201
 7140SOL    HW328333   4.652   3.382   2.178  1.1822  1.3404  0.8796
 7140SOL    MW428334   4.580   3.420   2.207  0.4188  0.0483 -0.3059
 7141SOL     OW28335   0.047   2.786   4.472 -0.5988 -0.1030  0.2933
 7141SOL    HW228336  -0.025   2.849   4.464 -2.4118 -2.0482  0.3512
 7141SOL    HW328337   0.105   2.807   4.399 -0.1955  2.6590  1.2645
 7141SOL    MW428338   0.045   2.797   4.462 -0.1232 -0.0933 -0.1354
 7142SOL     OW28339   2.502   2.775   1.917  0.3494 -0.0643  0.3198
 7142SOL    HW228340   2.415   2.787   1.954  0.8953  1.5749  1.1775
 7142SOL    HW328341   2.517   2.680   1.921 -1.8540 -0.5255 -1.0562
 7142SOL    MW428342   2.493   2.764   1.923  0.3449 -0.1683 -0.3058
 7143SOL     OW28343   4.490   1.370   0.877  0.0597 -0.1801  0.0457
 7143SOL    HW228344   4.505   1.276   0.882  0.7087 -0.0612  0.4779
 7143SOL    HW328345   4.424   1.388   0.944 -0.1417 -0.3397 -0.1088
 7143SOL    MW428346   4.484   1.360   0.887  0.3622 -0.1357 -0.1960
 7144SOL     OW28347   2.229   5.475   2.847  0.8454  0.1403  0.0175
 7144SOL    HW228348   2.164   5.456   2.780  0.6251  0.1478  0.2292
 7144SOL    HW328349   2.199   5.428   2.924  0.9742  0.3222  0.1810
 7144SOL    MW428350   2.217   5.466   2.848 -0.4389 -0.2026 -0.4150
 7145SOL     OW28351   4.310   4.911   3.385 -0.1577  0.1408 -0.2171
 7145SOL    HW228352   4.374   4.974   3.351  0.0167 -0.2795 -0.6762
 7145SOL    HW328353   4.306   4.930   3.478 -0.4469  1.1423 -0.4166
 7145SOL    MW428354   4.318   4.922   3.392  0.3009 -0.3334 -0.0198
 7146SOL     OW28355   2.507   0.378   2.484 -0.3945 -0.2174 -0.4729
 7146SOL    HW228356   2.436   0.429   2.525 -1.0119 -0.9137 -0.6596
 7146SOL    HW328357   2.516   0.301   2.539 -1.3817 -1.2769 -1.7297
 7146SOL    MW428358   2.499   0.375   2.497  0.3119  0.1291 -0.2708
 7147SOL     OW28359   1.615   4.186   0.569 -0.0555 -0.2560  0.0337
 7147SOL    HW228360   1.603   4.248   0.641  0.5152  0.7056 -0.6882
 7147SOL    HW328361   1.709   4.174   0.564  0.0001  0.5788 -1.2885
 7147SOL    MW428362   1.626   4.193   0.578  0.2947 -0.0128 -0.8773
 7148SOL     OW28363   3.763   1.911   0.278  0.3543 -0.2740 -0.8919
 7148SOL    HW228364   3.701   1.949   0.215 -0.9345 -0.4592  0.2191
 7148SOL    HW328365   3.774   1.978   0.345 -1.9565 -1.7319  1.0920
 7148SOL    MW428366   3.756   1.925   0.278  0.1100  0.4973  0.3571
 7149SOL     OW28367   2.204   5.437   0.524  0.2248 -0.3577 -0.4390
 7149SOL    HW228368   2.213   5.348   0.558 -0.4688 -0.7390 -1.2164
 7149SOL    HW328369   2.294   5.467   0.510  0.5133 -0.4207  1.0860
 7149SOL    MW428370   2.217   5.429   0.527  0.2367 -0.1496 -0.1701
 7150SOL     OW28371   4.250   3.384   0.705 -0.2841  0.2522  0.0278
 7150SOL    HW228372   4.317   3.396   0.773 -0.4947  0.3632  0.2183
 7150SOL    HW328373   4.255   3.464   0.653  0.0862  0.0362 -0.2757
 7150SOL    MW428374   4.260   3.396   0.707 -0.5165  1.2415 -0.5300
 7151SOL     OW28375   4.147   5.735   4.849  0.2937  0.7583  1.0962
 7151SOL    HW228376   4.124   5.823   4.816 -0.3226  0.5782  1.0322
 7151SOL    HW328377   4.144   5.679   4.771 -2.6683  0.0275  1.6099
 7151SOL    MW428378   4.143   5.740   4.834  0.7969  0.2880 -0.3410
 7152SOL     OW28379   6.346   3.262   3.721 -0.3315 -0.1416  0.0068
 7152SOL    HW228380   6.279   3.250   3.654  0.5908  0.2382 -1.0304
 7152SOL    HW328381   6.340   3.354   3.744 -1.3988 -0.5112  1.3085
 7152SOL    MW428382   6.336   3.272   3.715 -0.3976  0.2427  0.6261
 7153SOL     OW28383   0.501   3.092   2.246 -0.3073 -0.1222 -0.2494
 7153SOL    HW228384   0.448   3.024   2.205  1.3207 -1.9504  0.5249
 7153SOL    HW328385   0.467   3.100   2.335 -1.0738  0.7587 -0.6071
 7153SOL    MW428386   0.490   3.084   2.252 -0.5165  0.2285  1.1182
 7154SOL     OW28387   0.774   2.354   5.249  0.0271 -0.5251 -0.3863
 7154SOL    HW228388   0.754   2.446   5.233  3.0064  0.0298 -1.7745
 7154SOL    HW328389   0.857   2.356   5.297 -0.1089 -2.4912 -0.0079
 7154SOL    MW428390   0.782   2.366   5.253  0.0768 -0.2870 -0.4787
 7155SOL     OW28391   4.095   4.903   6.277 -0.0808 -0.2731 -0.6519
 7155SOL    HW228392   4.001   4.917   6.263 -0.2053 -1.8594 -1.6810
 7155SOL    HW328393   4.099   4.846   6.354  0.0289 -0.2390 -0.6321
 7155SOL    MW428394   4.083   4.897   6.285 -0.3417 -0.9209 -0.1800
 7156SOL     OW28395   4.034   6.385   4.769  0.0619 -0.7781  0.7492
 7156SOL    HW228396   3.994   6.301   4.749 -1.0375  0.0600 -0.7988
 7156SOL    HW328397   3.967   6.450   4.744  0.9031  0.5610  1.8182
 7156SOL    MW428398   4.020   6.383   4.763  0.1427 -0.4553  0.1881
 7157SOL     OW28399   2.793   2.604   1.600 -0.1695 -0.7476 -0.3653
 7157SOL    HW228400   2.816   2.697   1.594  0.5668 -0.9909 -1.7101
 7157SOL    HW328401   2.865   2.564   1.648  0.6812 -0.9774 -1.7804
 7157SOL    MW428402   2.805   2.611   1.606  0.3111 -0.1959  0.0464
 7158SOL     OW28403   6.204   2.766   4.695 -0.3555  0.1698 -0.1232
 7158SOL    HW228404   6.146   2.801   4.763  2.3544  2.4912  1.2318
 7158SOL    HW328405   6.239   2.844   4.652  2.6992 -0.9511  0.0554
 7158SOL    MW428406   6.201   2.781   4.698 -0.0101 -0.3836 -0.3315
 7159SOL     OW28407   2.935   6.277   6.150 -0.3285 -0.4479  0.1635
 7159SOL    HW228408   3.022   6.277   6.111 -0.1386  3.1801  0.1948
 7159SOL    HW328409   2.878   6.243   6.080  0.9060 -1.4769 -0.3784
 7159SOL    MW428410   2.939   6.273   6.135 -0.2658  0.6029  0.4658
 7160SOL     OW28411   3.266   2.492   3.698  0.5461 -0.1865 -0.0144
 7160SOL    HW228412   3.319   2.532   3.767 -0.2344 -0.1100  0.5556
 7160SOL    HW328413   3.180   2.532   3.708 -0.0218 -1.3728  0.0161
 7160SOL    MW428414   3.262   2.503   3.709 -0.2106  0.2284  0.3593
 7161SOL     OW28415   3.183   1.055   0.816 -0.2928  0.1372  0.0302
 7161SOL    HW228416   3.107   0.997   0.814 -1.0735  1.0667  1.1427
 7161SOL    HW328417   3.243   1.014   0.878 -0.8014  0.4428  0.7391
 7161SOL    MW428418   3.181   1.042   0.824 -0.5461  0.0014  0.0952
 7162SOL     OW28419   1.698   5.653   4.349  0.1508  0.8887 -0.7311
 7162SOL    HW228420   1.719   5.727   4.405 -0.6035  0.4946  0.0929
 7162SOL    HW328421   1.696   5.577   4.408  3.3265 -0.2752 -1.8894
 7162SOL    MW428422   1.701   5.653   4.364 -0.2013  0.1150  0.0769
 7163SOL     OW28423   0.282   2.406   2.164  0.6229  0.1036 -0.2038
 7163SOL    HW228424   0.334   2.326   2.163  0.5960  0.0742  0.6194
 7163SOL    HW328425   0.301   2.447   2.248 -3.1456 -1.5897  1.7189
 7163SOL    MW428426   0.291   2.400   2.175 -0.4090 -0.0780  0.1877
 7164SOL     OW28427   1.598   0.635   2.219 -0.0096  0.2365  0.3629
 7164SOL    HW228428   1.523   0.582   2.245  0.4875 -0.2120  0.9235
 7164SOL    HW328429   1.633   0.591   2.141 -0.6258  0.7377 -0.2013
 7164SOL    MW428430   1.593   0.622   2.212  0.4435 -0.0943 -0.3525
 7165SOL     OW28431   2.919   1.764   5.266 -0.2716  0.0941  0.3489
 7165SOL    HW228432   2.889   1.854   5.253  0.4935  0.3386  0.2035
 7165SOL    HW328433   2.954   1.738   5.181  1.0052  0.2404  0.8104
 7165SOL    MW428434   2.920   1.772   5.253  0.4341 -0.0980 -0.3132
 7166SOL     OW28435   4.309   2.860   4.627 -0.8383  0.0901 -0.5361
 7166SOL    HW228436   4.236   2.819   4.581  0.7853 -0.4215 -2.8559
 7166SOL    HW328437   4.337   2.930   4.569  1.4354 -0.7100 -0.4946
 7166SOL    MW428438   4.303   2.864   4.613 -0.1517  0.3466  0.1382
 7167SOL     OW28439   5.666   4.646   1.545  0.0928 -1.1100  0.2403
 7167SOL    HW228440   5.667   4.718   1.607 -1.7738 -0.2407 -0.6616
 7167SOL    HW328441   5.577   4.646   1.509  0.0352 -3.8301  0.1557
 7167SOL    MW428442   5.654   4.655   1.548 -0.1371  0.0992  0.2260
 7168SOL     OW28443   3.556   4.276   4.526  0.2049  0.1034 -0.0914
 7168SOL    HW228444   3.583   4.185   4.532  0.2068  0.1666  1.4615
 7168SOL    HW328445   3.620   4.324   4.579  1.5965  1.3840 -2.7757
 7168SOL    MW428446   3.568   4.271   4.534  0.9636 -0.0226 -0.1438
 7169SOL     OW28447   6.415   5.446   2.086 -0.0420  0.0299  0.2278
 7169SOL    HW228448   6.505   5.416   2.076 -0.8499 -2.4561 -0.1533
 7169SOL    HW328449   6.362   5.368   2.073 -2.3715  1.7703 -1.3989
 7169SOL    MW428450   6.420   5.432   2.083  0.5901 -0.0978 -0.2270
 7170SOL     OW28451   1.059   3.222   4.958  0.2371  0.7952 -0.8580
 7170SOL    HW228452   1.120   3.152   4.934  0.4549  0.5565  0.3667
 7170SOL    HW328453   1.114   3.299   4.969  0.8370  0.0290  2.9093
 7170SOL    MW428454   1.074   3.223   4.956 -0.2790 -0.1828 -0.2904
 7171SOL     OW28455   0.225   3.195   5.281  0.1343  0.3288  0.0039
 7171SOL    HW228456   0.264   3.118   5.239  0.7805  0.9636 -0.5860
 7171SOL    HW328457   0.272   3.202   5.365  1.4623  1.1944 -0.7822
 7171SOL    MW428458   0.237   3.186   5.287  0.1009  0.0231  0.8238
 7172SOL     OW28459   1.092   3.549   4.417 -0.8017  0.1897 -0.1223
 7172SOL    HW228460   1.030   3.615   4.448 -1.1193 -0.5348  0.8276
 7172SOL    HW328461   1.162   3.599   4.374  0.1548  1.3480  2.5779
 7172SOL    MW428462   1.093   3.564   4.415  0.0940 -0.9260 -0.0436
 7173SOL     OW28463   0.184   2.408   4.994 -0.2641 -0.0562 -0.2897
 7173SOL    HW228464   0.094   2.413   4.963 -0.7499 -0.2888  1.0164
 7173SOL    HW328465   0.204   2.314   4.995  0.6440  0.0572 -2.2690
 7173SOL    MW428466   0.175   2.396   4.990  0.0720 -0.0503 -0.4134
 7174SOL     OW28467   2.297   3.246   0.531  0.3985 -0.0272 -0.1214
 7174SOL    HW228468   2.229   3.209   0.474  0.9207 -0.2017 -0.6405
 7174SOL    HW328469   2.358   3.173   0.545  0.3871  0.0761  0.4945
 7174SOL    MW428470   2.296   3.231   0.525  0.2004 -0.1629  0.4997
 7175SOL     OW28471   2.821   5.368   0.908  0.5391 -0.3791  0.1958
 7175SOL    HW228472   2.836   5.304   0.978  2.8126 -1.6164 -1.3023
 7175SOL    HW328473   2.811   5.315   0.829  1.0374  1.0666 -0.8734
 7175SOL    MW428474   2.821   5.352   0.907  0.0297  0.1690 -0.1820
 7176SOL     OW28475   5.851   0.706   0.692 -0.2387 -0.0156  0.5514
 7176SOL    HW228476   5.849   0.611   0.703  1.0274 -0.2975 -1.2299
 7176SOL    HW328477   5.759   0.732   0.694 -0.5692 -1.1604  1.7410
 7176SOL    MW428478   5.838   0.697   0.694  0.5023 -0.0953 -0.3398
 7177SOL     OW28479   2.546   2.049   2.430 -0.0566  0.0306 -0.3272
 7177SOL    HW228480   2.532   2.112   2.360 -1.9024 -0.4959 -0.4696
 7177SOL    HW328481   2.462   2.005   2.441  0.5134 -0.7181  1.4280
 7177SOL    MW428482   2.533   2.051   2.422 -0.3134  0.1179 -0.2228
 7178SOL     OW28483   5.231   2.278   3.768 -0.0181 -0.0830  0.4168
 7178SOL    HW228484   5.139   2.259   3.783  0.3463 -0.0595  3.0589
 7178SOL    HW328485   5.276   2.194   3.782  0.5812  0.4401  1.8259
 7178SOL    MW428486   5.225   2.265   3.772  0.0080 -0.1702 -0.4121
 7179SOL     OW28487   4.494   5.961   4.059 -0.2650 -0.0565 -0.2573
 7179SOL    HW228488   4.502   5.886   3.999 -1.9769 -0.9927  0.6318
 7179SOL    HW328489   4.584   5.993   4.068  0.4272 -1.6107 -1.1492
 7179SOL    MW428490   4.507   5.956   4.052  0.0442 -0.3541  0.1789
 7180SOL     OW28491   4.590   4.978   3.628 -0.0387 -0.6594 -0.3752
 7180SOL    HW228492   4.500   5.005   3.645  0.0885 -0.6063  0.2143
 7180SOL    HW328493   4.587   4.882   3.625  0.1741 -0.7393  1.3317
 7180SOL    MW428494   4.578   4.969   3.630  0.4598  0.0567  0.0647
 7181SOL     OW28495   2.072   0.619   2.400 -0.3104 -0.3024  0.8145
 7181SOL    HW228496   1.977   0.613   2.407 -0.3868 -0.8770 -0.4855
 7181SOL    HW328497   2.093   0.582   2.314  1.1144 -0.4389  1.1882
 7181SOL    MW428498   2.063   0.614   2.390 -0.0758  0.3218 -0.0564
 7182SOL     OW28499   2.399   4.459   6.215 -0.2529  0.0922 -0.3659
 7182SOL    HW228500   2.464   4.529   6.222 -0.3956  0.1080  1.3002
 7182SOL    HW328501   2.411   4.408   6.295 -0.6604 -1.3571 -1.1875
 7182SOL    MW428502   2.409   4.461   6.227  0.0572  0.4275  0.6165
 7183SOL     OW28503   1.292   2.238   3.930  0.2381 -0.0563 -0.6289
 7183SOL    HW228504   1.370   2.279   3.969 -0.7525  0.3771  0.9702
 7183SOL    HW328505   1.223   2.303   3.942 -0.8992 -1.3510  0.0894
 7183SOL    MW428506   1.293   2.252   3.937 -0.2043  0.9403  0.8126
 7184SOL     OW28507   2.749   1.068   2.716 -0.5820 -0.6678  0.3837
 7184SOL    HW228508   2.677   1.098   2.773 -1.2855  0.6316 -1.0981
 7184SOL    HW328509   2.823   1.124   2.739 -1.0935  0.4036 -0.4574
 7184SOL    MW428510   2.749   1.079   2.727  0.2059  0.0799 -0.2730
 7185SOL     OW28511   3.059   2.936   6.118 -0.0759 -0.0875 -0.2210
 7185SOL    HW228512   3.115   2.860   6.127  0.0012  0.2464  4.0420
 7185SOL    HW328513   2.970   2.902   6.125 -0.0260  0.1344  2.4720
 7185SOL    MW428514   3.055   2.922   6.120 -0.0214 -0.0057  0.2926
 7186SOL     OW28515   2.149   2.262   6.390 -0.2227 -0.6066 -0.5795
 7186SOL    HW228516   2.157   2.245   6.484  0.9968  0.2906 -0.4935
 7186SOL    HW328517   2.177   2.180   6.349  0.8832 -0.4562 -0.1602
 7186SOL    MW428518   2.154   2.249   6.397  0.0321  0.1436 -0.4789
 7187SOL     OW28519   0.133   1.463   2.960  0.7831  0.2341  0.1692
 7187SOL    HW228520   0.123   1.371   2.983  0.8669  0.5212  1.3881
 7187SOL    HW328521   0.053   1.484   2.910  0.7412 -0.4796 -0.0674
 7187SOL    MW428522   0.121   1.454   2.956 -0.2238 -0.4011  1.0756
 7188SOL     OW28523   1.066   3.625   1.151 -0.1413  0.0419 -0.2470
 7188SOL    HW228524   1.130   3.692   1.129  1.1565 -0.8945  0.5397
 7188SOL    HW328525   1.036   3.592   1.066  1.2818 -0.2781 -0.6591
 7188SOL    MW428526   1.070   3.629   1.137 -0.1827 -0.2648 -0.3454
 7189SOL     OW28527   0.129   1.861   0.012 -0.1354  0.2282  0.2213
 7189SOL    HW228528   0.038   1.831   0.017  0.5371 -1.8223  1.2610
 7189SOL    HW328529   0.136   1.926   0.082 -0.1696 -1.6066  2.0434
 7189SOL    MW428530   0.118   1.865   0.022 -0.3752  0.0265  0.0698
 7190SOL     OW28531   1.693   5.811   2.493  0.4712 -1.0263 -0.2473
 7190SOL    HW228532   1.620   5.790   2.552  0.7103 -0.6642  0.1882
 7190SOL    HW328533   1.657   5.800   2.405 -0.0907 -0.9233 -0.0355
 7190SOL    MW428534   1.679   5.807   2.490 -0.3436  0.2776  0.4294
 7191SOL     OW28535   3.847   0.770   2.423  0.6503 -0.1127  0.3904
 7191SOL    HW228536   3.838   0.695   2.482  2.4914  0.5753  1.6363
 7191SOL    HW328537   3.911   0.742   2.358  0.4168 -0.0508  0.1339
 7191SOL    MW428538   3.854   0.756   2.422  0.0456 -0.2064  0.3650
 7192SOL     OW28539   5.719   2.186   4.125  0.4113 -0.2987 -0.2579
 7192SOL    HW228540   5.724   2.263   4.182  0.4002 -1.0076  0.7192
 7192SOL    HW328541   5.763   2.213   4.044  0.8713  0.5625  0.2678
 7192SOL    MW428542   5.726   2.200   4.121  0.7219 -0.2644 -0.3269
 7193SOL     OW28543   1.512   2.365   5.377 -0.0655  0.1818  0.1350
 7193SOL    HW228544   1.546   2.279   5.350  0.8755  0.9323 -1.1637
 7193SOL    HW328545   1.586   2.407   5.421  0.4438  1.4159 -1.7838
 7193SOL    MW428546   1.526   2.359   5.379 -0.1519  0.1545 -0.2159
 7194SOL     OW28547   3.413   5.265   2.416  0.1104 -0.1386  0.4246
 7194SOL    HW228548   3.458   5.279   2.333  1.2396  1.1406  1.2169
 7194SOL    HW328549   3.482   5.268   2.481 -0.9829  0.8286  1.5925
 7194SOL    MW428550   3.428   5.267   2.413  0.0591 -0.9319  0.3750
 7195SOL     OW28551   2.048   3.768   3.551 -0.3238 -0.0345  0.1850
 7195SOL    HW228552   2.018   3.855   3.524  2.3705  1.1347  0.6802
 7195SOL    HW328553   1.990   3.744   3.623 -1.5068  1.0643 -0.3535
 7195SOL    MW428554   2.037   3.776   3.557  0.1386 -0.2055 -0.4927
 7196SOL     OW28555   4.606   4.675   4.310 -0.0348  0.3798  0.3056
 7196SOL    HW228556   4.515   4.701   4.323 -0.3097  1.3813 -2.7509
 7196SOL    HW328557   4.644   4.676   4.397 -2.4330  2.0113  1.4365
 7196SOL    MW428558   4.599   4.679   4.323 -0.2763  0.1543  0.2519
 7197SOL     OW28559   3.135   2.554   4.583  0.0163 -0.3883 -0.3496
 7197SOL    HW228560   3.126   2.541   4.489 -1.2308  1.0335 -0.4679
 7197SOL    HW328561   3.109   2.471   4.622 -0.5689 -0.6337 -1.2314
 7197SOL    MW428562   3.131   2.541   4.576  0.6720  0.4627  0.5330
 7198SOL     OW28563   1.145   6.288   2.719  0.1813 -0.1392 -0.0718
 7198SOL    HW228564   1.139   6.201   2.680 -0.7643  0.4173 -1.2299
 7198SOL    HW328565   1.227   6.286   2.769  0.4247 -1.5230 -0.4730
 7198SOL    MW428566   1.155   6.276   2.720 -0.2930  0.2326  0.2235
 7199SOL     OW28567   0.957   2.386   1.302 -0.2987  0.6504  0.1198
 7199SOL    HW228568   0.961   2.355   1.393  0.7223 -2.1412 -0.7956
 7199SOL    HW328569   1.049   2.393   1.276 -0.4131  4.4312  0.1176
 7199SOL    MW428570   0.970   2.383   1.311 -0.5478  0.3490  1.0035
 7200SOL     OW28571   3.652   2.322   6.223 -0.4844  0.1509 -0.0892
 7200SOL    HW228572   3.708   2.248   6.198  2.0152  2.6685 -2.5772
 7200SOL    HW328573   3.695   2.359   6.300 -0.2432  0.4973 -0.3869
 7200SOL    MW428574   3.665   2.317   6.230  0.6916 -0.2230 -0.3457
 7201SOL     OW28575   0.897   1.750   2.447  0.3632  0.0068  0.1244
 7201SOL    HW228576   0.882   1.662   2.413 -0.0856  0.4216 -0.7744
 7201SOL    HW328577   0.810   1.781   2.473  0.1670  0.9897 -1.5810
 7201SOL    MW428578   0.884   1.742   2.446 -1.1010  1.0479  0.5431
 7202SOL     OW28579   1.078   1.378   2.403 -0.1121  0.0884 -0.1744
 7202SOL    HW228580   1.091   1.369   2.497 -0.4670  0.8071 -0.0544
 7202SOL    HW328581   1.105   1.293   2.367 -0.1638 -0.2594  0.5907
 7202SOL    MW428582   1.083   1.365   2.411 -0.0147  0.3770  0.1558
 7203SOL     OW28583   3.846   6.027   0.797  0.3237 -0.1912 -0.7698
 7203SOL    HW228584   3.768   5.988   0.836  1.0614 -0.2043  0.7561
 7203SOL    HW328585   3.815   6.107   0.755 -0.2655  0.7625  1.3702
 7203SOL    MW428586   3.831   6.032   0.797 -0.1003  0.1687 -0.1282
 7204SOL     OW28587   5.672   6.326   1.952 -0.0245  0.0394 -0.1425
 7204SOL    HW228588   5.628   6.276   1.882 -1.5697  2.4206 -0.9981
 7204SOL    HW328589   5.728   6.387   1.905  1.6242 -0.6462  0.8682
 7204SOL    MW428590   5.673   6.327   1.936  0.4761 -0.2775  0.3157
 7205SOL     OW28591   1.870   1.767   2.859 -0.1601  0.5937 -0.2993
 7205SOL    HW228592   1.885   1.696   2.921 -1.1884  0.9084  0.3551
 7205SOL    HW328593   1.904   1.845   2.904 -2.4168  1.1103  0.6812
 7205SOL    MW428594   1.876   1.768   2.873  0.0608 -0.1599 -0.3264
 7206SOL     OW28595   5.852   6.087   2.000 -0.5908  0.0351  0.4389
 7206SOL    HW228596   5.835   6.149   1.928  3.0213 -0.0954 -0.7259
 7206SOL    HW328597   5.767   6.076   2.043 -2.6837  1.1099 -3.0251
 7206SOL    MW428598   5.838   6.094   1.996 -0.1032 -1.1266  0.2945
 7207SOL     OW28599   1.034   1.009   1.941  0.1525  0.0152  0.1547
 7207SOL    HW228600   0.964   0.945   1.926  0.1129  0.3335 -1.1166
 7207SOL    HW328601   0.988   1.088   1.970  0.2340 -0.6280  2.1455
 7207SOL    MW428602   1.019   1.011   1.943 -0.3902  0.1500 -0.2189
 7208SOL     OW28603   2.660   2.352   4.273  0.4227 -0.1693 -0.1488
 7208SOL    HW228604   2.640   2.442   4.297  1.3145 -0.3290  1.3196
 7208SOL    HW328605   2.680   2.356   4.180  0.7424  1.2008 -0.0462
 7208SOL    MW428606   2.660   2.364   4.264 -0.1655 -0.3062 -0.1428
 7209SOL     OW28607   5.107   3.704   0.742 -0.1220 -0.3846  0.2889
 7209SOL    HW228608   5.107   3.776   0.678 -0.7635  1.1302  1.9089
 7209SOL    HW328609   5.100   3.625   0.688  0.4649  0.7410 -1.5616
 7209SOL    MW428610   5.106   3.703   0.726 -0.4452 -0.0540  0.5677
 7210SOL     OW28611   5.987   5.038   1.004  0.1489  0.3190  0.3904
 7210SOL    HW228612   5.908   4.992   1.031  0.2470  0.1337  0.3638
 7210SOL    HW328613   6.058   4.975   1.017  0.2197  0.2777 -0.1530
 7210SOL    MW428614   5.986   5.024   1.009 -0.3655 -0.0848  0.0792
 7211SOL     OW28615   4.827   6.052   5.054  0.0370  0.3088 -0.2787
 7211SOL    HW228616   4.844   6.147   5.055 -1.6042  0.6265 -0.2674
 7211SOL    HW328617   4.733   6.045   5.041  0.0839 -1.3378  0.1337
 7211SOL    MW428618   4.817   6.064   5.052 -0.3659  0.1261  0.3156
 7212SOL     OW28619   5.088   1.347   0.105 -0.2337 -0.1624  0.2372
 7212SOL    HW228620   5.076   1.294   0.026 -1.2595  0.7987 -0.2781
 7212SOL    HW328621   5.009   1.333   0.157 -1.4804  2.2700 -0.8055
 7212SOL    MW428622   5.076   1.338   0.101 -0.1049 -0.3152 -0.3267
 7213SOL     OW28623   4.297   3.942   2.944  0.4581  0.2294 -0.1270
 7213SOL    HW228624   4.278   3.848   2.938  1.3610  0.0436 -0.2367
 7213SOL    HW328625   4.300   3.960   3.037 -0.3966  0.2964 -0.1088
 7213SOL    MW428626   4.295   3.932   2.955  0.0099 -0.3414 -0.1402
 7214SOL     OW28627   5.858   1.486   0.393 -0.2230 -0.0699 -0.0426
 7214SOL    HW228628   5.864   1.563   0.336  1.1902 -0.8935 -1.0786
 7214SOL    HW328629   5.949   1.469   0.419 -0.9030  1.0404  3.6092
 7214SOL    MW428630   5.871   1.494   0.389 -0.6517 -0.2508  0.6331
 7215SOL     OW28631   0.005   3.304   1.373  0.3565 -0.1942 -0.4014
 7215SOL    HW228632  -0.070   3.330   1.320  0.8691  2.0180 -0.1403
 7215SOL    HW328633  -0.027   3.307   1.463  1.3032  3.3911 -0.0377
 7215SOL    MW428634  -0.009   3.308   1.378  0.0556 -0.1148 -0.0736
 7216SOL     OW28635   0.324   0.929   0.730  0.6359  0.3764 -0.1910
 7216SOL    HW228636   0.383   0.930   0.805 -0.7257 -0.7115  0.9411
 7216SOL    HW328637   0.255   0.991   0.753  0.9175  1.0757 -1.1702
 7216SOL    MW428638   0.322   0.937   0.743  0.2898  0.0794 -0.0555
 7217SOL     OW28639   0.432   0.850   0.983 -0.6971  0.5349 -0.0693
 7217SOL    HW228640   0.386   0.772   0.951 -0.4534  0.0827  0.6487
 7217SOL    HW328641   0.480   0.819   1.060 -2.1074  1.8253  1.4031
 7217SOL    MW428642   0.432   0.835   0.989  0.5757 -0.5680 -0.0981
 7218SOL     OW28643   1.997   4.560   3.794  0.8582 -0.1326  0.1592
 7218SOL    HW228644   2.091   4.547   3.778  0.9049  1.7494 -1.3835
 7218SOL    HW328645   1.991   4.644   3.839 -0.1748  0.4953 -1.1025
 7218SOL    MW428646   2.009   4.569   3.798 -0.4817 -0.2650 -0.2648
 7219SOL     OW28647   5.513   5.296   3.174  0.3140 -0.5805  0.5739
 7219SOL    HW228648   5.553   5.358   3.113 -1.7688 -1.4698 -1.9006
 7219SOL    HW328649   5.438   5.343   3.210 -0.7137 -1.3020 -0.5755
 7219SOL    MW428650   5.508   5.310   3.171 -0.4624 -0.1540  0.3792
 7220SOL     OW28651   0.401   5.826   0.803 -0.4707 -0.0084 -0.5678
 7220SOL    HW228652   0.349   5.872   0.869  0.0709 -0.7313  0.3879
 7220SOL    HW328653   0.414   5.739   0.839 -0.2801 -0.4638 -1.7074
 7220SOL    MW428654   0.396   5.821   0.817  0.1173 -0.0772  0.5981
 7221SOL     OW28655   2.466   3.272   5.379  0.1974 -0.1789 -0.4074
 7221SOL    HW228656   2.491   3.339   5.315 -0.5140  0.3123 -0.1797
 7221SOL    HW328657   2.449   3.321   5.459 -1.3256 -0.4889 -0.5071
 7221SOL    MW428658   2.467   3.288   5.381  0.2932 -0.1981 -0.3874
 7222SOL     OW28659   3.296   5.068   1.476  0.0130 -0.2294  0.9837
 7222SOL    HW228660   3.257   5.145   1.518 -1.5733 -0.2758 -0.2733
 7222SOL    HW328661   3.237   4.996   1.498 -0.2958 -0.4435 -0.4304
 7222SOL    MW428662   3.283   5.068   1.484  0.0134  0.1935 -0.3529
 7223SOL     OW28663   3.887   0.686   3.460 -0.0346  0.0825 -0.4459
 7223SOL    HW228664   3.831   0.695   3.537  2.5016  1.4796  1.3722
 7223SOL    HW328665   3.944   0.611   3.480  0.3776  0.2021 -1.1336
 7223SOL    MW428666   3.887   0.677   3.473  0.2878  0.3095 -0.3655
 7224SOL     OW28667   1.782   1.334   6.012  0.4672 -0.9826 -0.0181
 7224SOL    HW228668   1.758   1.282   5.935  0.2931 -0.4251 -0.3380
 7224SOL    HW328669   1.699   1.368   6.045  0.4170 -2.0411  1.0182
 7224SOL    MW428670   1.768   1.331   6.006  0.4944  0.5502  0.1887
 7225SOL     OW28671   1.242   4.554   3.249  0.2090  0.2346 -0.0814
 7225SOL    HW228672   1.298   4.526   3.321  0.8018  0.6139 -0.3915
 7225SOL    HW328673   1.155   4.522   3.273  0.4507  0.1245  0.6722
 7225SOL    MW428674   1.238   4.546   3.261  0.2668 -0.4405 -0.2581
 7226SOL     OW28675   3.083   4.124   2.360 -0.3170  0.2980 -0.0834
 7226SOL    HW228676   3.086   4.205   2.309  2.0288 -0.5048 -1.3439
 7226SOL    HW328677   3.031   4.064   2.306 -1.1617  0.6049  0.3628
 7226SOL    MW428678   3.076   4.127   2.346  0.2080  0.1780 -0.3815
 7227SOL     OW28679   3.213   4.787   0.426  0.1118  0.3389 -0.6247
 7227SOL    HW228680   3.196   4.881   0.432 -0.4246  0.1533  1.2658
 7227SOL    HW328681   3.159   4.748   0.494  0.4053 -1.3502 -1.3072
 7227SOL    MW428682   3.204   4.794   0.435 -0.3077  0.2300  0.1137
 7228SOL     OW28683   5.086   4.421   1.405 -0.5586  0.0414  0.0730
 7228SOL    HW228684   5.113   4.465   1.486 -0.3974  1.7960 -0.8891
 7228SOL    HW328685   4.991   4.410   1.415 -0.4617 -0.2845  0.7306
 7228SOL    MW428686   5.077   4.425   1.417 -0.1196 -0.2434  0.2122
 7229SOL     OW28687   2.343   4.765   5.067 -0.1050 -0.3255 -0.0047
 7229SOL    HW228688   2.437   4.781   5.070 -0.0077 -0.8217 -0.3021
 7229SOL    HW328689   2.324   4.718   5.149 -0.0795 -0.2982  0.0168
 7229SOL    MW428690   2.353   4.761   5.078 -0.0788 -0.2942 -0.5025
 7230SOL     OW28691   1.693   4.968   0.789  0.5830  0.0522  0.6315
 7230SOL    HW228692   1.649   5.038   0.741  0.5899 -0.4566 -0.1432
 7230SOL    HW328693   1.710   4.901   0.722  1.5517 -0.2174  1.1353
 7230SOL    MW428694   1.690   4.969   0.774 -0.4266 -0.1231  0.2132
 7231SOL     OW28695   2.068   0.670   0.324  0.0007 -0.0942 -0.5572
 7231SOL    HW228696   1.999   0.662   0.390 -0.7862  1.4293 -1.1317
 7231SOL    HW328697   2.021   0.690   0.243  0.8532 -3.0066 -1.9117
 7231SOL    MW428698   2.053   0.672   0.322  0.0894 -0.3135 -0.0014
 7232SOL     OW28699   0.298   2.210   3.476 -0.0819  0.1094  0.2569
 7232SOL    HW228700   0.291   2.164   3.393 -1.0766  0.1245  0.3181
 7232SOL    HW328701   0.384   2.185   3.511 -0.1305 -0.7862 -0.2481
 7232SOL    MW428702   0.309   2.201   3.470 -0.5162  0.3468  0.0405
 7233SOL     OW28703   4.534   3.843   0.949 -0.0116 -0.2060 -0.0158
 7233SOL    HW228704   4.515   3.835   0.856 -0.5311 -1.4139  0.1770
 7233SOL    HW328705   4.556   3.935   0.962 -1.1794  0.2443 -1.1007
 7233SOL    MW428706   4.535   3.854   0.939  0.0094 -0.3186  0.1556
 7234SOL     OW28707   6.118   0.359   2.584 -0.3629  0.2298  0.1387
 7234SOL    HW228708   6.073   0.437   2.553  1.3866  1.4914  0.6301
 7234SOL    HW328709   6.131   0.306   2.505 -3.8089 -0.8588  0.1653
 7234SOL    MW428710   6.114   0.362   2.570  0.2313  0.0966 -0.1798
 7235SOL     OW28711   4.601   5.860   5.468 -0.7297  0.0025 -0.1263
 7235SOL    HW228712   4.534   5.887   5.406  0.2057 -0.2198 -1.2670
 7235SOL    HW328713   4.659   5.803   5.418  1.5011  1.8421  0.1810
 7235SOL    MW428714   4.600   5.856   5.453  0.0923  0.4482  0.0399
 7236SOL     OW28715   1.928   4.119   0.868  1.0104  0.3106 -0.2961
 7236SOL    HW228716   2.010   4.152   0.904  1.3016  0.0469 -0.7172
 7236SOL    HW328717   1.901   4.051   0.930  2.1750 -1.0537 -1.2119
 7236SOL    MW428718   1.935   4.115   0.881  0.3146  0.1835 -0.2304
 7237SOL     OW28719   6.059   4.632   0.347 -0.5017 -0.0344  0.1406
 7237SOL    HW228720   5.996   4.697   0.378 -0.1803  0.7455 -0.8151
 7237SOL    HW328721   6.138   4.648   0.399 -0.5320  0.1141  0.1403
 7237SOL    MW428722   6.061   4.642   0.358 -0.4517 -0.3623  0.4257
 7238SOL     OW28723   3.911   2.449   5.110 -0.4405 -0.3884 -0.0153
 7238SOL    HW228724   3.964   2.504   5.167 -2.2169 -0.4157  1.7755
 7238SOL    HW328725   3.887   2.374   5.164 -2.1055 -0.4734 -0.8034
 7238SOL    MW428726   3.914   2.446   5.124  0.3311 -0.0374  0.1961
 7239SOL     OW28727   0.942   2.643   0.701  0.0040 -0.0422 -0.0229
 7239SOL    HW228728   0.857   2.654   0.744  0.0110 -0.1205  0.0119
 7239SOL    HW328729   0.921   2.597   0.620 -0.0870  0.6724 -0.4104
 7239SOL    MW428730   0.928   2.638   0.696  0.2971  0.7336 -0.2084
 7240SOL     OW28731   4.342   4.384   0.955 -0.8188 -0.4149  0.0496
 7240SOL    HW228732   4.318   4.393   1.047  0.6615 -0.9578  0.5106
 7240SOL    HW328733   4.428   4.425   0.948 -0.9512 -0.3092 -1.1164
 7240SOL    MW428734   4.350   4.390   0.966  0.4641 -0.1190  0.5667
 7241SOL     OW28735   5.564   3.713   0.085 -0.6986  0.5311 -0.5085
 7241SOL    HW228736   5.629   3.773   0.048 -1.1661  1.4604  0.1434
 7241SOL    HW328737   5.585   3.711   0.178 -0.4215 -0.6718 -0.5822
 7241SOL    MW428738   5.576   3.721   0.092  0.5648 -0.3353  0.1352
 7242SOL     OW28739   1.438   4.317   1.125  0.8265 -0.4530 -0.0230
 7242SOL    HW228740   1.391   4.354   1.050 -1.2827 -2.9668 -0.0734
 7242SOL    HW328741   1.518   4.370   1.131 -1.2105  3.0959 -0.8870
 7242SOL    MW428742   1.443   4.329   1.116  0.2237 -0.1408 -0.0044
 7243SOL     OW28743   1.652   2.792   2.511 -0.1358  0.6059 -0.0024
 7243SOL    HW228744   1.661   2.870   2.565  1.5461  1.8928 -1.9426
 7243SOL    HW328745   1.580   2.743   2.550 -0.4104  2.4841  2.0484
 7243SOL    MW428746   1.644   2.796   2.523  0.2383  0.4200 -0.5112
 7244SOL     OW28747   0.292   4.191   5.064 -0.2505 -0.4363 -0.2817
 7244SOL    HW228748   0.336   4.252   5.123 -1.2091 -0.8451  0.8934
 7244SOL    HW328749   0.201   4.192   5.093 -0.5886 -1.2135 -1.2862
 7244SOL    MW428750   0.286   4.200   5.076  0.3326 -0.3913 -0.0898
 7245SOL     OW28751   5.791   5.046   4.103  0.5805 -0.0815  0.1907
 7245SOL    HW228752   5.696   5.052   4.096  0.6604 -0.1081 -1.2915
 7245SOL    HW328753   5.807   5.001   4.186 -0.7561 -1.6282 -0.3395
 7245SOL    MW428754   5.781   5.041   4.113 -0.4881 -0.2580 -0.5642
 7246SOL     OW28755   4.455   6.245   0.819 -0.4803  0.1589 -0.1156
 7246SOL    HW228756   4.422   6.322   0.774  0.3660 -0.6901 -2.4003
 7246SOL    HW328757   4.385   6.180   0.810 -0.8374  0.3677  1.0197
 7246SOL    MW428758   4.442   6.246   0.812 -0.1283 -0.2236  0.2967
 7247SOL     OW28759   5.777   4.441   0.484  0.5212  0.3714  0.6201
 7247SOL    HW228760   5.701   4.489   0.518  0.7465  1.1595  0.0195
 7247SOL    HW328761   5.782   4.465   0.392  0.8779 -0.5077  0.3996
 7247SOL    MW428762   5.767   4.451   0.477 -0.1216 -0.3357 -0.2683
 7248SOL     OW28763   0.217   0.875   5.924 -0.4259 -0.0928 -0.1729
 7248SOL    HW228764   0.279   0.939   5.890 -0.4401  1.2485  2.1324
 7248SOL    HW328765   0.137   0.924   5.941 -1.3273 -1.2887 -0.7990
 7248SOL    MW428766   0.215   0.890   5.922 -0.2951  0.4707 -0.6779
 7249SOL     OW28767   3.714   5.542   5.506 -0.0483  0.6277 -0.2179
 7249SOL    HW228768   3.651   5.485   5.461 -0.0731 -1.1699  1.9058
 7249SOL    HW328769   3.660   5.606   5.553 -0.1088  1.2133 -1.0698
 7249SOL    MW428770   3.698   5.543   5.506  0.4236 -0.1988 -0.3127
 7250SOL     OW28771   0.053   2.801   3.113  0.3151  0.0316 -0.7614
 7250SOL    HW228772   0.138   2.794   3.156 -0.9129 -1.5750  1.6420
 7250SOL    HW328773   0.038   2.714   3.075 -0.4999  0.0833 -0.5880
 7250SOL    MW428774   0.062   2.788   3.114 -0.1261  0.1256 -0.0879
 7251SOL     OW28775   5.965   5.780   4.964 -0.2663  0.3683  0.1752
 7251SOL    HW228776   5.958   5.847   4.896  0.7405  3.4553  2.8167
 7251SOL    HW328777   6.020   5.711   4.925  1.3533  2.5741 -1.7504
 7251SOL    MW428778   5.972   5.780   4.950 -0.3145 -0.5658 -0.2499
 7252SOL     OW28779   5.552   4.640   0.186  0.0690  0.3729 -0.1654
 7252SOL    HW228780   5.504   4.580   0.243  1.1825  1.2866  1.8358
 7252SOL    HW328781   5.572   4.715   0.241  1.8001  1.0299 -1.5744
 7252SOL    MW428782   5.548   4.642   0.200  0.5536  0.3726  0.0078
 7253SOL     OW28783   4.573   5.669   3.474  0.1413  0.2772  0.2669
 7253SOL    HW228784   4.584   5.586   3.521 -1.4398  0.1098  0.3976
 7253SOL    HW328785   4.513   5.649   3.402  1.1143  0.9401 -0.7676
 7253SOL    MW428786   4.566   5.656   3.471  1.2332  0.2431 -0.4320
 7254SOL     OW28787   1.678   5.914   0.320 -0.9741  0.1314 -0.3790
 7254SOL    HW228788   1.661   5.906   0.414 -0.4877  1.3792 -0.1757
 7254SOL    HW328789   1.755   5.969   0.313  0.1369 -1.4770 -1.4755
 7254SOL    MW428790   1.686   5.920   0.331 -0.2095 -0.3673 -0.2492
 7255SOL     OW28791   3.789   0.590   4.611 -0.4248 -0.3105 -0.1708
 7255SOL    HW228792   3.759   0.642   4.537  0.5570  0.6963  0.1248
 7255SOL    HW328793   3.845   0.523   4.572  2.0614  1.6510 -0.2084
 7255SOL    MW428794   3.793   0.588   4.596  0.2103 -0.2811  0.6091
 7256SOL     OW28795   2.335   4.858   6.360  0.0153  0.1258 -0.5034
 7256SOL    HW228796   2.365   4.783   6.413  2.7300 -0.4978 -2.6951
 7256SOL    HW328797   2.247   4.834   6.332  0.5171 -1.9236 -0.4903
 7256SOL    MW428798   2.327   4.845   6.364  0.0048 -0.0356  0.3500
 7257SOL     OW28799   2.038   3.980   5.224 -0.4283 -0.1010 -0.4199
 7257SOL    HW228800   2.084   3.900   5.252  1.0445 -0.2352 -2.8958
 7257SOL    HW328801   2.074   4.049   5.280 -0.8443 -0.9479  0.9460
 7257SOL    MW428802   2.049   3.978   5.235 -0.2585  0.1385 -0.3491
 7258SOL     OW28803   4.116   5.862   3.690  0.4303 -0.3482 -1.1263
 7258SOL    HW228804   4.082   5.816   3.614 -0.5912 -2.0167  0.2589
 7258SOL    HW328805   4.211   5.849   3.686  0.3238 -0.9404 -1.7936
 7258SOL    MW428806   4.124   5.854   3.680  0.5219  0.2365  0.3175
 7259SOL     OW28807   0.331   3.366   5.586 -0.6536 -0.0781 -0.1886
 7259SOL    HW228808   0.396   3.384   5.518  0.6486 -0.9531  0.7784
 7259SOL    HW328809   0.282   3.447   5.595  0.0845  0.4928 -1.1724
 7259SOL    MW428810   0.333   3.379   5.578  0.4168 -0.1627 -0.0326
 7260SOL     OW28811   5.629   2.959   3.522  0.1490 -0.0572 -0.4294
 7260SOL    HW228812   5.688   2.884   3.520 -0.4484 -0.5386 -0.1837
 7260SOL    HW328813   5.557   2.932   3.579 -0.1363  0.6536 -0.4424
 7260SOL    MW428814   5.627   2.946   3.529 -0.1127 -0.5070 -0.1016
 7261SOL     OW28815   3.691   6.087   1.675 -0.5274 -0.7458  0.0349
 7261SOL    HW228816   3.607   6.044   1.694 -0.1536 -0.8863  1.4717
 7261SOL    HW328817   3.669   6.180   1.669 -0.9663 -0.8884 -0.8255
 7261SOL    MW428818   3.677   6.093   1.677  0.3487 -0.4004 -0.1430
 7262SOL     OW28819   0.293   5.587   5.811 -0.6881  0.2922  0.1108
 7262SOL    HW228820   0.344   5.642   5.871 -1.1319  2.0796 -1.0654
 7262SOL    HW328821   0.253   5.520   5.867 -0.8193  1.6786  1.7522
 7262SOL    MW428822   0.295   5.585   5.826  0.0297  0.3163 -0.4693
 7263SOL     OW28823   5.030   5.380   5.266  0.0972  0.1651  0.0761
 7263SOL    HW228824   5.048   5.326   5.189 -1.2443  1.8925 -1.5381
 7263SOL    HW328825   5.097   5.448   5.263 -0.7965  1.0501 -0.4280
 7263SOL    MW428826   5.042   5.382   5.255  0.1786  0.9182  0.0369
 7264SOL     OW28827   0.583   3.201   4.585 -0.1027  0.1592 -0.3553
 7264SOL    HW228828   0.660   3.257   4.578 -1.0367  1.4551 -0.6817
 7264SOL    HW328829   0.594   3.155   4.668  1.2266 -0.0370 -0.6087
 7264SOL    MW428830   0.595   3.202   4.595 -0.0430 -0.2631  0.2632
 7265SOL     OW28831   3.460   5.132   1.782  0.2602  0.3696  0.3081
 7265SOL    HW228832   3.464   5.038   1.763  1.9628  0.3210  0.7664
 7265SOL    HW328833   3.511   5.173   1.712 -1.1237  1.0782 -0.3544
 7265SOL    MW428834   3.467   5.125   1.770  0.2215  0.0280 -0.0573
 7266SOL     OW28835   4.965   0.650   2.345 -0.4209 -0.3592  0.2499
 7266SOL    HW228836   5.044   0.680   2.389  0.3632  0.5451 -1.6843
 7266SOL    HW328837   4.953   0.711   2.272 -4.1098  0.8683  1.6381
 7266SOL    MW428838   4.974   0.662   2.341  0.4546 -0.1343  0.0213
 7267SOL     OW28839   4.105   0.789   3.611  0.6590 -0.0253  0.4144
 7267SOL    HW228840   4.032   0.770   3.553  0.5515 -0.0601  0.5614
 7267SOL    HW328841   4.177   0.734   3.579  0.1709 -1.1548  1.2252
 7267SOL    MW428842   4.105   0.780   3.599 -0.3677 -0.2391 -0.1989
 7268SOL     OW28843   0.169   5.124   6.369  0.2287  0.6011 -0.5441
 7268SOL    HW228844   0.128   5.121   6.282 -1.5152  1.4871  0.1839
 7268SOL    HW328845   0.108   5.076   6.425 -0.0433  2.2694  0.6627
 7268SOL    MW428846   0.155   5.117   6.365  0.2030 -0.1698  0.4113
 7269SOL     OW28847   4.354   2.024   1.379 -1.2074  0.6970 -0.0058
 7269SOL    HW228848   4.285   1.962   1.356 -2.7201  1.6728  1.6847
 7269SOL    HW328849   4.425   2.005   1.317 -0.9208 -3.7382  1.4119
 7269SOL    MW428850   4.354   2.014   1.368  0.1068 -0.2807 -0.1936
 7270SOL     OW28851   5.129   5.286   5.730 -0.0410  0.2125  0.0270
 7270SOL    HW228852   5.129   5.365   5.784  0.8284 -0.0081  0.3633
 7270SOL    HW328853   5.194   5.229   5.770  0.6873  0.0647 -1.2874
 7270SOL    MW428854   5.138   5.289   5.742 -0.7604  0.0258  0.5568
 7271SOL     OW28855   0.674   4.916   3.061  0.1972 -0.5314  0.8428
 7271SOL    HW228856   0.749   4.868   3.025  0.2439 -0.1293  0.3814
 7271SOL    HW328857   0.598   4.862   3.038  0.1128  0.2443 -0.8780
 7271SOL    MW428858   0.674   4.902   3.053 -0.7513 -0.2713  0.7195
 7272SOL     OW28859   2.851   6.340   4.845  0.0180  0.3505 -0.2914
 7272SOL    HW228860   2.798   6.269   4.808 -1.0726  1.4043 -0.8242
 7272SOL    HW328861   2.878   6.307   4.931 -0.9884 -0.4805 -0.2702
 7272SOL    MW428862   2.847   6.326   4.851 -0.4484  0.7221 -0.5334
 7273SOL     OW28863   0.716   2.746   3.396  0.6035  0.2412 -0.2784
 7273SOL    HW228864   0.676   2.712   3.315 -0.0114  0.2509  0.0136
 7273SOL    HW328865   0.740   2.667   3.445 -1.7802  0.1489  0.8723
 7273SOL    MW428866   0.714   2.731   3.392 -0.3477 -0.2473  0.3412
 7274SOL     OW28867   0.585   5.321   5.379 -0.6972  0.5093  0.4215
 7274SOL    HW228868   0.559   5.371   5.457  1.6103  0.5809  1.2150
 7274SOL    HW328869   0.653   5.262   5.411 -0.2735 -0.0315 -1.4123
 7274SOL    MW428870   0.590   5.319   5.394  0.0836 -0.2472  0.8824
 7275SOL     OW28871   3.406   4.114   3.537  0.2544 -0.2312 -0.4162
 7275SOL    HW228872   3.317   4.104   3.504  0.1163  1.0176 -0.4816
 7275SOL    HW328873   3.457   4.051   3.486 -0.5831 -0.9968 -0.3423
 7275SOL    MW428874   3.401   4.104   3.526  0.1040 -0.2189 -0.0858
 7276SOL     OW28875   0.926   0.532   2.124 -0.0352 -0.2222 -0.1127
 7276SOL    HW228876   1.005   0.560   2.078 -0.3297  0.2250 -0.3568
 7276SOL    HW328877   0.859   0.527   2.056  0.1210 -2.0766 -0.1713
 7276SOL    MW428878   0.928   0.535   2.109  0.5142 -0.7244  0.3250
 7277SOL     OW28879   6.163   2.819   0.328  0.3304 -0.3344  0.9307
 7277SOL    HW228880   6.205   2.899   0.358  1.4398 -0.6710  0.3440
 7277SOL    HW328881   6.198   2.805   0.240  1.1008 -2.0833  1.4610
 7277SOL    MW428882   6.173   2.827   0.320 -0.4211  0.0930 -0.0904
 7278SOL     OW28883   2.057   5.953   1.006  0.1947 -0.0871  0.0216
 7278SOL    HW228884   2.048   6.044   0.978  1.0460 -0.1785 -0.5834
 7278SOL    HW328885   1.971   5.914   0.994  0.7330 -0.4453 -3.6423
 7278SOL    MW428886   2.045   5.960   1.001 -0.2145 -0.3099  0.1839
 7279SOL     OW28887   4.237   4.882   0.158  0.2670 -0.5244  0.4145
 7279SOL    HW228888   4.317   4.920   0.124  0.8341  0.3815  2.6189
 7279SOL    HW328889   4.235   4.794   0.120  1.6466 -0.1446 -0.6286
 7279SOL    MW428890   4.247   4.875   0.148  0.1658  0.3303  0.4000
 7280SOL     OW28891   1.397   1.005   3.782 -0.2268  0.5575 -0.8033
 7280SOL    HW228892   1.419   0.912   3.793  2.7064  1.3015  0.5317
 7280SOL    HW328893   1.359   1.009   3.694 -1.0194 -1.9803 -0.6707
 7280SOL    MW428894   1.395   0.993   3.772  0.6952 -0.4299  0.2623
 7281SOL     OW28895   5.816   0.359   3.701 -0.4782  0.1076 -0.4601
 7281SOL    HW228896   5.797   0.270   3.730  2.2903 -1.3788 -2.7615
 7281SOL    HW328897   5.901   0.380   3.740 -0.4002  1.1689 -1.1431
 7281SOL    MW428898   5.825   0.350   3.710  0.0726  0.2061 -0.1343
 7282SOL     OW28899   5.270   4.717   3.672  0.2984  0.0603 -0.0618
 7282SOL    HW228900   5.228   4.722   3.758  2.0707  0.3264  0.8369
 7282SOL    HW328901   5.213   4.660   3.621  0.7043 -2.5824  2.2205
 7282SOL    MW428902   5.257   4.710   3.677 -0.2564 -0.0188 -0.4156
 7283SOL     OW28903   4.319   4.349   4.619  0.0281 -0.8838 -0.1029
 7283SOL    HW228904   4.247   4.401   4.583  1.2910  0.4716 -0.7818
 7283SOL    HW328905   4.370   4.323   4.542 -1.1526 -4.2176  0.0463
 7283SOL    MW428906   4.316   4.352   4.604  0.6872 -0.4862  0.5133
 7284SOL     OW28907   0.038   1.991   3.312 -0.1684  0.1074  0.3747
 7284SOL    HW228908   0.075   1.943   3.387  0.5129 -1.7191 -1.0470
 7284SOL    HW328909   0.106   1.984   3.244 -1.0210  1.1804 -0.6154
 7284SOL    MW428910   0.052   1.983   3.313 -0.0949 -0.0497  0.1006
 7285SOL     OW28911   2.006   5.232   6.113  0.0179  0.3338 -0.1028
 7285SOL    HW228912   2.062   5.281   6.053 -0.1454 -0.8464 -1.2614
 7285SOL    HW328913   1.922   5.225   6.069  0.1216 -1.2132 -0.1051
 7285SOL    MW428914   2.002   5.237   6.100  0.1149  0.1527  0.4173
 7286SOL     OW28915   4.058   2.691   2.697 -0.0398 -0.3300 -0.0523
 7286SOL    HW228916   4.076   2.785   2.700 -0.4353 -0.2314 -0.6123
 7286SOL    HW328917   4.131   2.654   2.648 -2.4212  0.4168 -4.8508
 7286SOL    MW428918   4.070   2.699   2.691 -0.6306  0.1653  0.0864
 7287SOL     OW28919   3.289   6.435   4.514 -0.1872  0.3019  0.3249
 7287SOL    HW228920   3.206   6.401   4.548  0.2779  0.6414  1.9143
 7287SOL    HW328921   3.302   6.388   4.432  0.2213 -3.1659  2.1514
 7287SOL    MW428922   3.279   6.424   4.508 -0.7122 -0.0772 -0.2901
 7288SOL     OW28923   3.482   3.017   0.747  0.0875 -0.3502  0.0773
 7288SOL    HW228924   3.400   3.051   0.710 -0.3881  0.0049  1.3965
 7288SOL    HW328925   3.538   3.094   0.755  0.5452 -0.5812 -0.7537
 7288SOL    MW428926   3.479   3.032   0.743 -0.2662 -0.1187  0.2186
 7289SOL     OW28927   6.191   1.140   4.335 -0.4491  0.0619  0.2811
 7289SOL    HW228928   6.185   1.045   4.343 -0.2538 -0.0123 -0.3768
 7289SOL    HW328929   6.102   1.167   4.312 -0.6999  0.1360  1.2840
 7289SOL    MW428930   6.178   1.131   4.333 -0.0450 -0.0871  0.7230
 7290SOL     OW28931   6.079   3.866   2.345 -0.2925  0.0042 -0.0764
 7290SOL    HW228932   6.150   3.858   2.408 -1.0414  0.1569  0.7967
 7290SOL    HW328933   6.017   3.798   2.370 -1.5737  1.4036  0.6430
 7290SOL    MW428934   6.081   3.856   2.356 -0.3723  0.1164 -0.3172
 7291SOL     OW28935   2.943   6.060   6.365 -0.5719 -0.2577  0.2745
 7291SOL    HW228936   2.955   6.154   6.352 -0.3810 -0.3064  0.0934
 7291SOL    HW328937   2.951   6.023   6.277 -0.0927 -0.5026  0.4169
 7291SOL    MW428938   2.946   6.067   6.352  0.0625  0.0280 -0.1090
 7292SOL     OW28939   3.687   2.770   3.913 -0.2204  0.0690 -0.2144
 7292SOL    HW228940   3.745   2.697   3.892 -1.4268 -0.8085 -0.6454
 7292SOL    HW328941   3.680   2.767   4.009  0.9081  0.5867 -0.0952
 7292SOL    MW428942   3.694   2.760   3.923 -0.2882 -0.6125  0.8108
 7293SOL     OW28943   1.197   4.057   0.134 -0.0106  0.1560 -0.0088
 7293SOL    HW228944   1.209   4.074   0.041  0.1469  0.5053  0.0742
 7293SOL    HW328945   1.272   4.099   0.176 -1.2067  1.9086  0.4742
 7293SOL    MW428946   1.208   4.065   0.127  0.9703  0.0789  0.3353
 7294SOL     OW28947   1.539   5.320   3.548 -0.0097  0.0408 -0.3206
 7294SOL    HW228948   1.484   5.245   3.570 -0.5409  0.7603  0.8432
 7294SOL    HW328949   1.628   5.291   3.571 -0.1530 -0.3831 -0.2864
 7294SOL    MW428950   1.544   5.306   3.554 -0.2057 -0.2130 -0.2887
 7295SOL     OW28951   1.433   1.139   4.192 -0.0208  0.2791  0.1817
 7295SOL    HW228952   1.384   1.083   4.131 -0.3384 -0.2838  0.9254
 7295SOL    HW328953   1.513   1.089   4.211  0.2716  0.6410 -0.0911
 7295SOL    MW428954   1.437   1.125   4.186  0.6696 -0.5141  0.3796
 7296SOL     OW28955   3.826   4.731   1.424 -0.1711  0.7095 -0.2949
 7296SOL    HW228956   3.907   4.759   1.382  1.5033 -2.2630  0.6248
 7296SOL    HW328957   3.780   4.680   1.358  1.2552 -1.8363  0.5223
 7296SOL    MW428958   3.831   4.728   1.410  0.0235  0.5209 -0.2576
 7297SOL     OW28959   0.154   5.083   3.597 -0.6975  0.4401 -0.2209
 7297SOL    HW228960   0.151   4.994   3.562  0.1676  0.1056  0.4936
 7297SOL    HW328961   0.242   5.114   3.575 -0.6414  0.7409  0.4147
 7297SOL    MW428962   0.165   5.075   3.590  0.4341 -0.6891  0.2430
 7298SOL     OW28963   4.044   0.430   1.540  0.4900 -0.1453  0.6942
 7298SOL    HW228964   3.982   0.411   1.611 -0.8568  1.1566 -0.0757
 7298SOL    HW328965   4.072   0.520   1.556  0.4762  0.0245 -0.1917
 7298SOL    MW428966   4.039   0.439   1.552 -0.4289 -0.3338 -0.1410
 7299SOL     OW28967   4.284   5.814   3.265  0.5170 -0.0498 -0.0278
 7299SOL    HW228968   4.202   5.844   3.226 -0.7260 -1.4897  1.3830
 7299SOL    HW328969   4.352   5.853   3.210 -1.0317  2.8061 -0.0859
 7299SOL    MW428970   4.282   5.823   3.253 -0.0473 -0.7690  0.2290
 7300SOL     OW28971   3.110   2.279   3.570  0.4832 -0.1455  0.2678
 7300SOL    HW228972   3.137   2.269   3.661  1.5052 -2.8377 -0.2512
 7300SOL    HW328973   3.192   2.289   3.521 -0.0366  1.0198 -0.4233
 7300SOL    MW428974   3.124   2.279   3.575 -0.3205 -0.4285  0.0003
 7301SOL     OW28975   6.395   4.004   0.514 -0.0755 -0.2975 -0.3788
 7301SOL    HW228976   6.336   4.015   0.588 -0.3548  0.6212 -0.7276
 7301SOL    HW328977   6.414   3.910   0.513 -1.4173 -0.5932 -0.1816
 7301SOL    MW428978   6.390   3.993   0.524 -1.4877 -0.6772 -0.2256
 7302SOL     OW28979   4.120   2.836   5.909  0.4047 -0.7397 -0.2270
 7302SOL    HW228980   4.097   2.883   5.989  1.9042  0.8784 -0.7067
 7302SOL    HW328981   4.038   2.795   5.881 -0.8071  1.0453  0.5775
 7302SOL    MW428982   4.106   2.837   5.916  0.4065  0.2458  0.0261
 7303SOL     OW28983   6.404   4.226   6.243  0.3858  0.2352  0.1642
 7303SOL    HW228984   6.432   4.304   6.291 -1.2969  0.7693  0.3670
 7303SOL    HW328985   6.399   4.157   6.310 -0.3839  0.5656  0.4574
 7303SOL    MW428986   6.407   4.227   6.259  0.1843  0.8038 -0.0160
 7304SOL     OW28987   2.454   3.338   2.822  0.0230 -0.0523 -0.2539
 7304SOL    HW228988   2.498   3.277   2.881 -1.1540 -1.0187 -0.3372
 7304SOL    HW328989   2.411   3.283   2.757 -1.1691  0.8507 -0.2659
 7304SOL    MW428990   2.454   3.323   2.821  0.6729  0.6363 -0.2732
 7305SOL     OW28991   1.530   2.110   1.215  0.3374  0.0324  0.4412
 7305SOL    HW228992   1.547   2.023   1.178 -0.3499  0.4342 -0.8573
 7305SOL    HW328993   1.467   2.150   1.155 -0.0215  1.1067  1.5029
 7305SOL    MW428994   1.524   2.104   1.202  0.0856 -0.0701 -0.4227
 7306SOL     OW28995   2.556   0.200   3.826 -0.2553  0.1696  0.3164
 7306SOL    HW228996   2.579   0.172   3.914 -0.9435 -2.0599 -0.1607
 7306SOL    HW328997   2.599   0.138   3.768  0.3956  1.7457 -0.9706
 7306SOL    MW428998   2.564   0.188   3.830  0.5989  0.2879 -0.0809
 7307SOL     OW28999   4.649   2.413   1.846  0.4626  0.0789  0.1059
 7307SOL    HW229000   4.677   2.471   1.917  0.1588  1.8500 -1.1743
 7307SOL    HW329001   4.714   2.428   1.776  1.2614 -2.2686  0.2580
 7307SOL    MW429002   4.662   2.423   1.846 -0.1944 -0.0594 -0.0751
 7308SOL     OW29003   1.284   6.236   3.729 -0.4919 -0.4847 -0.4713
 7308SOL    HW229004   1.191   6.252   3.718 -0.5840  0.4426  1.3077
 7308SOL    HW329005   1.312   6.197   3.646 -2.3755 -0.4710 -1.1518
 7308SOL    MW429006   1.276   6.233   3.716  0.2092  0.3650 -0.0896
 7309SOL     OW29007   5.696   2.587   0.219 -0.0707 -0.0817 -0.4202
 7309SOL    HW229008   5.759   2.588   0.291  0.1015 -1.0151 -0.5454
 7309SOL    HW329009   5.676   2.680   0.203  0.3430  0.1609  0.4226
 7309SOL    MW429010   5.702   2.600   0.226 -0.4849  0.2030  0.4162
 7310SOL     OW29011   5.386   1.717   2.632  0.1080 -0.4714 -0.3034
 7310SOL    HW229012   5.357   1.751   2.716 -1.5589 -3.5380  0.4928
 7310SOL    HW329013   5.422   1.631   2.652  1.7468 -0.3770 -2.4962
 7310SOL    MW429014   5.387   1.710   2.646 -0.1863  0.0657 -0.2045
 7311SOL     OW29015   5.778   5.147   2.083 -0.4793  0.1425 -0.0986
 7311SOL    HW229016   5.687   5.175   2.098 -0.9995  0.1575 -2.6938
 7311SOL    HW329017   5.772   5.089   2.007  1.4003 -2.0341  1.2995
 7311SOL    MW429018   5.765   5.143   2.075  0.4136 -0.5889  0.5059
 7312SOL     OW29019   6.010   3.013   4.661 -0.0815 -0.7420  0.2059
 7312SOL    HW229020   5.949   2.980   4.594 -0.7872 -1.8517  1.3524
 7312SOL    HW329021   6.000   3.108   4.657 -1.0142 -0.8500 -0.4500
 7312SOL    MW429022   6.000   3.021   4.652  0.1498 -0.1908 -0.3455
 7313SOL     OW29023   3.971   0.399   3.884 -0.4812 -0.5156 -0.2504
 7313SOL    HW229024   4.050   0.361   3.923 -0.8132 -0.6184  0.3507
 7313SOL    HW329025   3.997   0.485   3.854  0.2174 -1.0939 -1.3616
 7313SOL    MW429026   3.985   0.405   3.885  0.2667  0.5271  0.6321
 7314SOL     OW29027   5.444   0.318   5.105 -0.4136 -0.1918 -0.1372
 7314SOL    HW229028   5.378   0.378   5.140 -1.3772  0.1070 -2.2974
 7314SOL    HW329029   5.396   0.239   5.082 -0.0881  0.0605 -1.8221
 7314SOL    MW429030   5.429   0.316   5.107 -0.0048 -0.2938  0.1008
 7315SOL     OW29031   2.553   0.663   2.476  0.1307  0.0118 -0.0884
 7315SOL    HW229032   2.575   0.695   2.563 -0.7466  0.8818 -0.1694
 7315SOL    HW329033   2.583   0.572   2.475  0.4458  0.0963  0.9997
 7315SOL    MW429034   2.560   0.655   2.487 -0.1533 -0.5781  0.1793
 7316SOL     OW29035   3.718   3.564   1.426 -0.5241  0.5987  0.2045
 7316SOL    HW229036   3.673   3.593   1.506  1.2661 -0.2234  1.5630
 7316SOL    HW329037   3.648   3.558   1.361 -2.1725  0.5909  1.8842
 7316SOL    MW429038   3.703   3.567   1.428 -0.4771  0.6192  0.3921
 7317SOL     OW29039   3.394   2.749   1.813  0.5299 -0.1052 -0.3368
 7317SOL    HW229040   3.469   2.764   1.871  0.5593  2.2442 -0.8817
 7317SOL    HW329041   3.434   2.728   1.728  0.5652  0.3181 -0.4268
 7317SOL    MW429042   3.409   2.748   1.810 -0.3995 -0.3131  0.0998
 7318SOL     OW29043   0.360   0.855   4.200 -0.3075 -0.0696 -0.0445
 7318SOL    HW229044   0.282   0.846   4.256  0.4252 -3.0177  0.6616
 7318SOL    HW329045   0.335   0.813   4.118  0.4855 -1.0226  0.1842
 7318SOL    MW429046   0.346   0.848   4.197  0.4876 -0.1498  0.1076
 7319SOL     OW29047   5.678   4.835   4.465  0.4520 -0.3155  0.0867
 7319SOL    HW229048   5.755   4.878   4.427 -0.1850  0.7801 -0.0042
 7319SOL    HW329049   5.634   4.794   4.390  0.8217 -0.7621  0.1079
 7319SOL    MW429050   5.682   4.835   4.450 -0.0551  0.3568 -0.3631
 7320SOL     OW29051   4.142   1.834   2.398  0.3808  0.1444 -0.0098
 7320SOL    HW229052   4.064   1.785   2.426  0.6530 -0.7844 -0.8162
 7320SOL    HW329053   4.195   1.843   2.477  0.4384 -1.1010  0.1031
 7320SOL    MW429054   4.138   1.829   2.412 -0.2258 -0.3187  0.4640
 7321SOL     OW29055   0.235   5.834   5.705 -0.2874 -0.3478  0.2374
 7321SOL    HW229056   0.199   5.873   5.785  0.3780 -1.1967  0.9815
 7321SOL    HW329057   0.261   5.746   5.732 -0.5599 -0.8464 -1.0713
 7321SOL    MW429058   0.234   5.828   5.719  0.2869  0.2739 -0.1760
 7322SOL     OW29059   3.424   4.341   6.408  0.1569  0.5315  0.0467
 7322SOL    HW229060   3.350   4.280   6.408 -0.1800  0.9303 -0.4135
 7322SOL    HW329061   3.462   4.331   6.321  1.7179 -0.9399  0.8538
 7322SOL    MW429062   3.419   4.332   6.396 -0.1562 -0.0641 -0.0206
 7323SOL     OW29063   5.520   5.941   3.703  0.1497 -0.2566 -0.5064
 7323SOL    HW229064   5.522   5.861   3.650  1.5712 -0.2923 -0.4349
 7323SOL    HW329065   5.588   5.928   3.769 -0.3460  0.5689  0.1968
 7323SOL    MW429066   5.529   5.929   3.705  0.0195  0.4698  0.3654
 7324SOL     OW29067   2.563   6.249   2.862 -0.0528 -0.0208 -0.0051
 7324SOL    HW229068   2.611   6.172   2.891 -1.6431 -1.1048 -0.1110
 7324SOL    HW329069   2.515   6.220   2.785 -0.4814  1.1515 -0.2040
 7324SOL    MW429070   2.563   6.235   2.856 -0.3975  0.2947 -0.2445
 7325SOL     OW29071   1.545   5.403   0.356  0.7194 -0.0276 -0.6451
 7325SOL    HW229072   1.592   5.465   0.301  1.1822  1.5935  1.4140
 7325SOL    HW329073   1.454   5.430   0.351  0.8587  0.5725 -0.1138
 7325SOL    MW429074   1.539   5.415   0.348  0.0096  0.7827  0.4145
 7326SOL     OW29075   2.033   5.186   4.881 -0.0271 -0.1930  0.2545
 7326SOL    HW229076   2.002   5.262   4.831 -2.5884 -0.9856  0.5088
 7326SOL    HW329077   2.075   5.129   4.816  0.9538  0.8977 -0.1127
 7326SOL    MW429078   2.035   5.189   4.866 -0.3620  0.1170 -0.1066
 7327SOL     OW29079   5.529   0.419   3.389  0.4165  0.1993 -0.6574
 7327SOL    HW229080   5.537   0.477   3.465 -2.0000 -3.3247  2.6547
 7327SOL    HW329081   5.438   0.427   3.361  0.1084 -1.6228 -0.3174
 7327SOL    MW429082   5.518   0.427   3.395 -0.0439 -0.1501  0.0614
 7328SOL     OW29083   4.531   1.010   4.174  0.0149  0.1998  0.0683
 7328SOL    HW229084   4.548   0.969   4.089  0.6221  0.4058  0.0876
 7328SOL    HW329085   4.535   0.938   4.236  0.4597  0.1825  0.0253
 7328SOL    MW429086   4.534   0.995   4.171  0.3101  0.4119  0.2749
 7329SOL     OW29087   5.725   3.207   4.826  0.0572 -0.2736  0.3004
 7329SOL    HW229088   5.665   3.159   4.769 -0.2704  0.6676 -0.1608
 7329SOL    HW329089   5.801   3.225   4.772  0.0544 -0.0138  0.3816
 7329SOL    MW429090   5.727   3.203   4.812  0.0016 -0.4394  0.1664
 7330SOL     OW29091   4.582   6.031   6.156  0.4740  0.0516 -0.6827
 7330SOL    HW229092   4.486   6.028   6.160  0.4898  0.1991 -0.0538
 7330SOL    HW329093   4.602   6.105   6.099  0.2150 -0.1077 -0.9862
 7330SOL    MW429094   4.572   6.040   6.149 -0.1523 -0.2060  0.1720
 7331SOL     OW29095   5.662   4.172   3.636  0.1164  0.1114 -0.1477
 7331SOL    HW229096   5.640   4.079   3.645  0.3962  0.0493 -0.0831
 7331SOL    HW329097   5.578   4.215   3.620 -0.6463  0.3923  3.7344
 7331SOL    MW429098   5.648   4.165   3.635  0.1568  0.1393 -0.1057
 7332SOL     OW29099   2.921   4.067   1.964 -0.5805 -0.4732 -0.6516
 7332SOL    HW229100   2.828   4.053   1.981 -0.3808  0.5174  1.4940
 7332SOL    HW329101   2.923   4.131   1.893 -1.5764  0.4942  0.1651
 7332SOL    MW429102   2.909   4.074   1.957 -0.4554  0.0031 -0.3934
 7333SOL     OW29103   6.330   4.224   3.011  0.5422  0.0175 -0.3493
 7333SOL    HW229104   6.321   4.153   2.946 -0.5583 -0.6905  0.5447
 7333SOL    HW329105   6.418   4.213   3.045 -0.1914 -2.1199  1.0740
 7333SOL    MW429106   6.340   4.213   3.007 -0.7861 -0.3747  0.8372
 7334SOL     OW29107   3.129   1.260   6.341  0.1233 -0.1938 -0.2305
 7334SOL    HW229108   3.082   1.193   6.391  0.5296  0.1590  0.6277
 7334SOL    HW329109   3.191   1.210   6.287 -1.4612 -0.7068 -1.6916
 7334SOL    MW429110   3.131   1.245   6.340  0.6121  0.3116 -0.1015
 7335SOL     OW29111   3.442   4.320   4.871  0.3442  0.4036 -0.1804
 7335SOL    HW229112   3.436   4.407   4.830  0.8534 -0.1609 -1.5165
 7335SOL    HW329113   3.535   4.298   4.865  0.2932 -0.0386  0.5901
 7335SOL    MW429114   3.454   4.329   4.864  0.2555 -0.3897  0.0451
 7336SOL     OW29115   4.584   1.768   3.734 -0.1923 -0.3873 -0.2536
 7336SOL    HW229116   4.578   1.863   3.748  0.4224 -0.4762  0.6765
 7336SOL    HW329117   4.496   1.743   3.707 -0.2398  0.5197 -1.0036
 7336SOL    MW429118   4.572   1.777   3.732  0.5019 -0.0110  0.7612
 7337SOL     OW29119   1.009   5.676   2.420 -0.1889  0.1265 -0.5770
 7337SOL    HW229120   1.074   5.737   2.386  1.2829 -1.2483 -0.3347
 7337SOL    HW329121   0.925   5.710   2.388  0.5832  2.1454 -0.5924
 7337SOL    MW429122   1.006   5.689   2.411  0.4891 -0.4805 -0.1178
 7338SOL     OW29123   1.133   6.385   2.449 -0.2597  0.2478 -0.5238
 7338SOL    HW229124   1.129   6.290   2.439 -0.7023  0.3069 -0.9500
 7338SOL    HW329125   1.171   6.398   2.536 -2.9126 -0.3461  0.8345
 7338SOL    MW429126   1.137   6.374   2.459 -0.0975 -0.1744  0.9087
 7339SOL     OW29127   0.548   4.800   5.978  0.3559 -0.3370  0.1718
 7339SOL    HW229128   0.576   4.803   6.070  0.6491  0.6887  0.0626
 7339SOL    HW329129   0.553   4.707   5.955 -0.1551 -0.6746  1.3173
 7339SOL    MW429130   0.552   4.788   5.987 -0.2766  0.4951 -0.4295
 7340SOL     OW29131   2.216   3.036   4.127  0.2954 -0.6257  0.0853
 7340SOL    HW229132   2.234   2.942   4.126  0.1709 -0.7267  2.3230
 7340SOL    HW329133   2.168   3.050   4.208 -1.0315  1.1693 -0.9547
 7340SOL    MW429134   2.212   3.025   4.137  0.3705 -0.0078 -0.2096
 7341SOL     OW29135   0.520   5.922   5.590  0.7612 -0.0453  0.0880
 7341SOL    HW229136   0.512   5.846   5.532 -1.5311  1.2673 -1.5209
 7341SOL    HW329137   0.467   5.900   5.667  1.5781 -0.7518  0.4540
 7341SOL    MW429138   0.512   5.909   5.592  0.2134  0.3047  0.4740
 7342SOL     OW29139   5.015   4.003   2.085 -0.0596  0.2687  0.3674
 7342SOL    HW229140   5.029   3.959   2.169 -1.3683  0.7944  0.8949
 7342SOL    HW329141   5.036   4.095   2.101 -2.8371  0.9044  0.9345
 7342SOL    MW429142   5.019   4.009   2.098  0.2744 -0.1216  0.2541
 7343SOL     OW29143   3.752   4.217   1.327 -0.2159 -0.1567  0.2520
 7343SOL    HW229144   3.767   4.123   1.330 -0.9615 -0.2769  0.3792
 7343SOL    HW329145   3.755   4.239   1.234 -3.0099 -0.8248 -0.0770
 7343SOL    MW429146   3.755   4.207   1.316 -0.2431 -0.1504 -0.1040
 7344SOL     OW29147   1.571   4.312   3.052  0.3160 -0.0768 -0.2515
 7344SOL    HW229148   1.481   4.343   3.042 -0.1453 -1.3095 -0.1891
 7344SOL    HW329149   1.605   4.360   3.128 -0.2714  0.4362 -0.3059
 7344SOL    MW429150   1.564   4.322   3.061 -0.0842  0.0318 -0.6973
 7345SOL     OW29151   2.525   5.826   1.098  0.0145  0.0751  0.3404
 7345SOL    HW229152   2.589   5.876   1.048 -1.5241  1.4978 -0.2952
 7345SOL    HW329153   2.558   5.736   1.096  3.0086  1.0074  1.7252
 7345SOL    MW429154   2.538   5.821   1.092  0.3556 -0.1146  0.1850
 7346SOL     OW29155   3.606   3.348   2.487  0.3755  0.5824  0.2218
 7346SOL    HW229156   3.654   3.392   2.557 -0.6721  0.7132  0.8758
 7346SOL    HW329157   3.607   3.256   2.512  0.1139  0.6118  0.3384
 7346SOL    MW429158   3.613   3.342   2.499  0.4366  0.3760 -0.8126
 7347SOL     OW29159   2.268   6.215   4.995 -0.3340  0.0370  0.0437
 7347SOL    HW229160   2.270   6.311   4.986 -1.5093  0.1169  0.4264
 7347SOL    HW329161   2.340   6.184   4.941 -0.6492  1.0816 -1.0032
 7347SOL    MW429162   2.278   6.224   4.987 -0.2810 -0.3411 -0.0961
 7348SOL     OW29163   0.143   1.475   1.001  0.5874 -0.2716 -0.1559
 7348SOL    HW229164   0.084   1.519   0.939  0.0211 -0.0554  0.5123
 7348SOL    HW329165   0.087   1.412   1.046  0.2882  1.4705  2.0538
 7348SOL    MW429166   0.128   1.473   0.999  0.4055  0.1936 -0.3836
 7349SOL     OW29167   0.261   3.574   4.693 -0.5162 -0.1818 -0.4184
 7349SOL    HW229168   0.300   3.607   4.612  2.4710  0.7115  1.2482
 7349SOL    HW329169   0.310   3.618   4.763 -2.0935 -1.8920  1.9055
 7349SOL    MW429170   0.272   3.584   4.692 -0.2995 -0.1317 -0.3951
 7350SOL     OW29171   3.648   0.192   3.433 -0.0299  0.3741 -0.4218
 7350SOL    HW229172   3.665   0.269   3.488  1.7555  0.7656 -1.4564
 7350SOL    HW329173   3.567   0.155   3.469 -2.4551  4.0972 -1.3879
 7350SOL    MW429174   3.639   0.198   3.445  0.0440  0.0852 -0.5392
 7351SOL     OW29175   2.251   0.511   5.272 -0.2515  0.2522  0.0518
 7351SOL    HW229176   2.234   0.429   5.226 -0.0350  0.0697  0.2955
 7351SOL    HW329177   2.329   0.547   5.229 -0.7219  0.6583 -0.4876
 7351SOL    MW429178   2.259   0.505   5.260 -0.2313  0.3470 -0.0406
 7352SOL     OW29179   3.522   3.537   3.438 -0.0494  0.0296 -0.1557
 7352SOL    HW229180   3.514   3.477   3.512  0.0672 -0.7647 -0.7767
 7352SOL    HW329181   3.432   3.549   3.407 -0.3630  1.8778  1.2567
 7352SOL    MW429182   3.509   3.531   3.443  0.6275 -0.0377  0.2761
 7353SOL     OW29183   0.313   0.114   4.083  0.0580 -0.0100  0.0765
 7353SOL    HW229184   0.224   0.099   4.114  0.5556 -3.9641  0.1944
 7353SOL    HW329185   0.360   0.145   4.160 -0.6138 -0.8401  0.8402
 7353SOL    MW429186   0.308   0.116   4.097  0.5438  0.0926  0.6225
 7354SOL     OW29187   1.053   0.803   3.724  0.8800 -0.0802  0.2219
 7354SOL    HW229188   0.989   0.874   3.727  0.7830 -0.0660 -1.5228
 7354SOL    HW329189   1.035   0.752   3.803 -2.0833 -0.7432 -0.7508
 7354SOL    MW429190   1.042   0.806   3.735 -0.3417 -0.0128 -0.5104
 7355SOL     OW29191   3.332   1.643   5.183 -0.8174  0.3659 -0.4295
 7355SOL    HW229192   3.396   1.664   5.116 -0.4623 -0.0895 -0.2378
 7355SOL    HW329193   3.290   1.727   5.203 -0.5967  0.5871 -0.8760
 7355SOL    MW429194   3.335   1.657   5.177 -0.2037  0.0394  0.1657
 7356SOL     OW29195   1.744   0.710   4.585 -0.1530 -0.3419  0.2626
 7356SOL    HW229196   1.758   0.740   4.674 -0.7891  0.1217  0.2086
 7356SOL    HW329197   1.720   0.617   4.593 -0.7109 -0.1674  0.6060
 7356SOL    MW429198   1.743   0.701   4.598 -0.4196  0.0527 -0.4656
 7357SOL     OW29199   3.608   3.451   2.075  0.1297 -0.2381 -0.0262
 7357SOL    HW229200   3.683   3.428   2.130  0.6792  1.1553 -0.1760
 7357SOL    HW329201   3.576   3.366   2.042  0.3991 -1.0154  1.6173
 7357SOL    MW429202   3.614   3.436   2.078  0.4581  0.2494  0.2938
 7358SOL     OW29203   2.356   5.698   6.246 -0.5107 -0.1725  0.1385
 7358SOL    HW229204   2.387   5.762   6.310 -1.9554  1.4191 -0.6738
 7358SOL    HW329205   2.359   5.614   6.292 -0.6578  0.7903  1.9789
 7358SOL    MW429206   2.361   5.695   6.260 -0.2497  0.0917  0.5360
 7359SOL     OW29207   4.801   6.019   3.694 -0.0084  0.3234 -0.5653
 7359SOL    HW229208   4.790   5.931   3.731  0.9774 -0.1404 -1.3398
 7359SOL    HW329209   4.832   6.071   3.768 -1.5994  0.2945  0.1665
 7359SOL    MW429210   4.804   6.014   3.709  0.1993  0.3404  0.3440
 7360SOL     OW29211   5.661   2.781   2.651  0.3286  0.1042 -0.1064
 7360SOL    HW229212   5.653   2.694   2.612  1.8787 -0.0084 -0.2559
 7360SOL    HW329213   5.661   2.841   2.577  0.4024  0.1342 -0.0818
 7360SOL    MW429214   5.660   2.777   2.636  0.3367 -0.6189 -0.1926
 7361SOL     OW29215   5.600   3.247   2.086 -0.0479 -0.0699  1.1148
 7361SOL    HW229216   5.654   3.284   2.156 -0.5096  2.8974  0.0496
 7361SOL    HW329217   5.517   3.293   2.093 -0.3816 -0.2950 -0.8654
 7361SOL    MW429218   5.596   3.258   2.096 -0.0127  0.3178 -0.0543
 7362SOL     OW29219   1.450   3.682   1.767 -0.0484  0.2324  0.6605
 7362SOL    HW229220   1.414   3.697   1.854  0.8935 -0.6513  1.2219
 7362SOL    HW329221   1.373   3.678   1.710 -0.7751 -0.4333  1.6382
 7362SOL    MW429222   1.435   3.684   1.771 -0.3745  0.1058  0.5146
 7363SOL     OW29223   4.839   4.146   5.117  0.4039 -0.0922  0.1534
 7363SOL    HW229224   4.915   4.157   5.061  0.0143  0.3236 -0.2984
 7363SOL    HW329225   4.785   4.223   5.101  0.0327 -0.2290  0.7000
 7363SOL    MW429226   4.842   4.158   5.108 -0.3878  0.2536 -0.3848
 7364SOL     OW29227   0.157   5.837   4.471 -0.4099  0.3451 -0.0123
 7364SOL    HW229228   0.078   5.797   4.435 -1.4845  0.9911  1.5242
 7364SOL    HW329229   0.159   5.924   4.431 -2.4173  1.6288  2.4052
 7364SOL    MW429230   0.147   5.843   4.461 -0.1522 -0.0669 -0.3293
 7365SOL     OW29231   5.359   0.019   2.489 -0.2665  0.0524  0.4719
 7365SOL    HW229232   5.387   0.032   2.579 -0.8145  2.6848  0.3614
 7365SOL    HW329233   5.429  -0.032   2.448  1.4077  1.2743  1.6841
 7365SOL    MW429234   5.372   0.014   2.495 -0.4225  0.0693 -0.7435
 7366SOL     OW29235   0.136   4.278   2.278 -0.1195 -0.7605 -0.3692
 7366SOL    HW229236   0.111   4.186   2.271 -0.9058 -0.5325 -0.7861
 7366SOL    HW329237   0.216   4.286   2.227  0.4258 -1.3769  0.3761
 7366SOL    MW429238   0.143   4.267   2.270  0.1475 -0.2869 -0.5806
 7367SOL     OW29239   3.182   2.861   3.429  0.4960  0.4116 -0.3209
 7367SOL    HW229240   3.132   2.791   3.386  1.1210  0.4484 -1.1317
 7367SOL    HW329241   3.194   2.927   3.360 -0.3058  1.4477  0.5018
 7367SOL    MW429242   3.177   2.860   3.414 -0.4977 -0.7540  0.1838
 7368SOL     OW29243   4.759   3.250   5.144  0.0402  0.2881  0.6394
 7368SOL    HW229244   4.783   3.168   5.186  0.7564  0.8801  1.4198
 7368SOL    HW329245   4.730   3.307   5.216 -0.2061  0.7991  0.1445
 7368SOL    MW429246   4.759   3.247   5.159 -0.3289  0.4635 -0.3561
 7369SOL     OW29247   4.422   4.497   5.443 -0.2309  0.1636 -0.5588
 7369SOL    HW229248   4.425   4.589   5.419  0.4510  1.0343  2.5018
 7369SOL    HW329249   4.483   4.454   5.383 -1.1509  1.5089 -2.5481
 7369SOL    MW429250   4.430   4.503   5.432  0.2423  0.0731  0.8375
 7370SOL     OW29251   1.840   0.303   5.302  0.5385 -0.0516 -0.0697
 7370SOL    HW229252   1.789   0.384   5.312  0.0667 -0.1611 -1.4406
 7370SOL    HW329253   1.781   0.234   5.333  0.6799  0.0455  0.4277
 7370SOL    MW429254   1.825   0.305   5.308  0.8929  0.5490 -0.4962
 7371SOL     OW29255   1.087   1.831   5.571  0.2661  0.2592  0.7784
 7371SOL    HW229256   1.174   1.816   5.608  0.2707 -1.7397  0.0527
 7371SOL    HW329257   1.029   1.773   5.620 -0.4266  0.5589  0.3356
 7371SOL    MW429258   1.091   1.821   5.582 -0.1357  0.3462  0.5314
 7372SOL     OW29259   2.444   0.088   5.325 -0.3789  0.0974  0.0280
 7372SOL    HW229260   2.465   0.147   5.397  0.9788  0.4509 -0.6219
 7372SOL    HW329261   2.464   0.139   5.246 -0.2904 -0.8288 -0.5595
 7372SOL    MW429262   2.450   0.102   5.324  0.1604  0.0941  0.6045
 7373SOL     OW29263   3.681   4.716   1.859  0.1087 -0.1751 -0.0457
 7373SOL    HW229264   3.635   4.632   1.869  1.2830 -0.8777 -0.4020
 7373SOL    HW329265   3.765   4.693   1.820  0.4192  1.1900 -0.2207
 7373SOL    MW429266   3.686   4.702   1.855  0.3950  0.3255 -0.3494
 7374SOL     OW29267   2.806   0.115   6.175  0.2286  0.3407 -0.7606
 7374SOL    HW229268   2.842   0.027   6.167  0.1664  0.3138 -0.7420
 7374SOL    HW329269   2.866   0.170   6.124  1.1599  0.5345  0.4908
 7374SOL    MW429270   2.819   0.111   6.167 -0.3226 -0.5877 -0.4060
 7375SOL     OW29271   6.099   3.399   5.170 -0.4749  0.0675  0.0861
 7375SOL    HW229272   6.077   3.398   5.077 -0.8304 -1.6987  0.1700
 7375SOL    HW329273   6.170   3.335   5.179 -1.3466 -0.7719  1.2306
 7375SOL    MW429274   6.106   3.391   5.159 -0.4015 -0.4187  0.1520
 7376SOL     OW29275   4.619   1.191   4.391 -0.0240  0.6595 -0.0680
 7376SOL    HW229276   4.615   1.107   4.346 -1.9710  0.9833 -0.6201
 7376SOL    HW329277   4.529   1.206   4.423  0.6978  1.6680  1.6560
 7376SOL    MW429278   4.606   1.182   4.389 -0.4091 -0.5061 -0.3480
 7377SOL     OW29279   2.275   5.745   2.985 -0.0885  0.5607  0.3103
 7377SOL    HW229280   2.271   5.823   2.929 -0.9838  0.9460  0.8871
 7377SOL    HW329281   2.239   5.675   2.931 -1.4012  1.0313  0.5447
 7377SOL    MW429282   2.270   5.746   2.971  0.2275  0.1121 -0.5660
 7378SOL     OW29283   5.569   6.410   3.881  0.0339  0.7744  0.3036
 7378SOL    HW229284   5.569   6.350   3.806 -0.0536 -0.6771  1.4373
 7378SOL    HW329285   5.507   6.478   3.857 -1.3734 -0.6403 -0.2051
 7378SOL    MW429286   5.561   6.411   3.868  0.0309  0.7276  0.5678
 7379SOL     OW29287   1.671   1.953   1.841  0.3847  0.4607  0.0200
 7379SOL    HW229288   1.752   1.978   1.887  1.2131 -1.4277 -0.3240
 7379SOL    HW329289   1.617   1.913   1.909  0.6691 -0.2748 -0.1803
 7379SOL    MW429290   1.675   1.951   1.856 -0.1872 -0.2463  0.2820
 7380SOL     OW29291   2.439   1.913   2.159  0.5869  0.4250  0.5187
 7380SOL    HW229292   2.416   1.986   2.215  0.3119  0.2324  0.6567
 7380SOL    HW329293   2.502   1.950   2.097 -0.3507  1.0420 -0.0939
 7380SOL    MW429294   2.445   1.927   2.158 -0.2589  0.1043 -0.5888
 7381SOL     OW29295   5.308   2.887   5.641  0.1967  0.2959  0.1446
 7381SOL    HW229296   5.254   2.961   5.616  2.2249  1.7059 -0.3310
 7381SOL    HW329297   5.275   2.859   5.726 -2.8807 -0.6138 -1.2082
 7381SOL    MW429298   5.297   2.893   5.649 -0.1040 -0.7747 -0.2024
 7382SOL     OW29299   0.416   5.267   1.858 -0.3199 -0.6859 -0.6235
 7382SOL    HW229300   0.444   5.298   1.773 -3.1409 -0.4846 -1.6018
 7382SOL    HW329301   0.439   5.174   1.859  0.8055 -0.4227 -1.0882
 7382SOL    MW429302   0.422   5.259   1.847 -0.7018 -0.3388  0.3439
 7383SOL     OW29303   3.144   2.070   0.647  0.2503  0.2083 -0.0756
 7383SOL    HW229304   3.172   2.000   0.708  1.5755  0.1469 -0.7060
 7383SOL    HW329305   3.119   2.023   0.568 -1.0542  0.3202  0.2515
 7383SOL    MW429306   3.145   2.054   0.645  0.1613 -0.0135 -0.0921
 7384SOL     OW29307   1.152   0.644   1.990  0.0108  0.2222 -0.0438
 7384SOL    HW229308   1.220   0.576   1.991  0.4491  0.6380  1.4523
 7384SOL    HW329309   1.132   0.657   1.898  0.5671 -1.2914 -0.4122
 7384SOL    MW429310   1.158   0.636   1.978 -0.3973  0.0935 -0.2680
 7385SOL     OW29311   5.805   4.472   3.377 -0.1766  0.2936 -0.0391
 7385SOL    HW229312   5.841   4.525   3.448  2.4018  0.2596 -1.2104
 7385SOL    HW329313   5.827   4.382   3.400  3.4629  0.4644 -2.1634
 7385SOL    MW429314   5.812   4.467   3.389 -0.5142 -0.5770  0.0002
 7386SOL     OW29315   3.955   4.292   2.010  0.5738 -0.1332 -0.2104
 7386SOL    HW229316   4.008   4.213   1.998 -0.0564 -0.6474  0.2738
 7386SOL    HW329317   3.865   4.260   2.011  0.3455  0.4929  0.8032
 7386SOL    MW429318   3.950   4.277   2.009 -0.3683  0.2095  0.1337
 7387SOL     OW29319   4.117   0.789   5.132  0.1881 -0.1555 -0.3737
 7387SOL    HW229320   4.045   0.728   5.117 -1.2335  1.3152  0.0954
 7387SOL    HW329321   4.074   0.874   5.144  1.9047  0.5388  1.3965
 7387SOL    MW429322   4.102   0.792   5.131  0.4176  0.0434  0.7871
 7388SOL     OW29323   3.200   2.281   5.044  1.1360  0.1999  0.2751
 7388SOL    HW229324   3.246   2.198   5.028  2.3226  0.5725  1.5655
 7388SOL    HW329325   3.134   2.259   5.111 -0.6191 -0.3163 -1.5162
 7388SOL    MW429326   3.197   2.267   5.051  0.3620  0.3625 -0.2580
 7389SOL     OW29327   6.198   6.180   2.279 -0.1719 -0.7065  0.7737
 7389SOL    HW229328   6.121   6.235   2.263  0.4213 -0.5067 -1.9092
 7389SOL    HW329329   6.161   6.093   2.298 -1.0788 -0.4357  0.3280
 7389SOL    MW429330   6.183   6.176   2.279  0.0131  0.1322  0.1404
 7390SOL     OW29331   4.976   3.760   6.228  0.2257  0.2005  0.4732
 7390SOL    HW229332   5.004   3.697   6.294 -1.0184 -1.1537 -0.2139
 7390SOL    HW329333   4.880   3.761   6.236  0.0473  0.0106 -1.2593
 7390SOL    MW429334   4.967   3.751   6.237  0.0117  0.3735  0.3282
 7391SOL     OW29335   1.951   5.484   0.911 -0.3576  0.0316  0.1787
 7391SOL    HW229336   1.927   5.455   0.823 -0.4370 -0.1042  0.2437
 7391SOL    HW329337   2.030   5.536   0.899  1.4343 -2.4678  0.3189
 7391SOL    MW429338   1.958   5.487   0.898 -0.0026  0.3612 -0.7291
 7392SOL     OW29339   1.621   6.163   1.697  0.6855 -0.0441 -0.1666
 7392SOL    HW229340   1.547   6.224   1.699 -0.4285 -1.3551 -0.5802
 7392SOL    HW329341   1.691   6.213   1.655 -0.5143  0.6304 -1.4421
 7392SOL    MW429342   1.621   6.178   1.692 -0.0164  0.8181  0.0822
 7393SOL     OW29343   3.824   3.491   2.619  0.9053 -0.5179  0.2024
 7393SOL    HW229344   3.907   3.445   2.607 -0.3120 -2.9446  0.4994
 7393SOL    HW329345   3.829   3.527   2.707  1.3883 -1.2569  0.4857
 7393SOL    MW429346   3.836   3.490   2.629  0.6688 -0.5264  0.1297
 7394SOL     OW29347   2.677   2.422   0.216 -0.3286 -0.1253 -0.4833
 7394SOL    HW229348   2.712   2.353   0.160  0.6422  0.1649 -0.2576
 7394SOL    HW329349   2.750   2.483   0.228 -1.2609  1.1226 -0.9516
 7394SOL    MW429350   2.691   2.421   0.210  0.2189 -0.3458  0.0078
 7395SOL     OW29351   3.171   2.125   4.621  0.0910 -0.6087 -0.0827
 7395SOL    HW229352   3.137   2.035   4.615  1.1664 -0.9646 -1.1724
 7395SOL    HW329353   3.263   2.114   4.646  0.1267  0.2208  0.1834
 7395SOL    MW429354   3.179   2.111   4.624  0.1579 -0.2778  0.3640
 7396SOL     OW29355   2.504   4.593   3.074 -0.4218  1.3371 -0.1197
 7396SOL    HW229356   2.582   4.603   3.018 -0.0833 -1.2651 -0.2258
 7396SOL    HW329357   2.431   4.585   3.012 -0.3213  0.4723 -0.1274
 7396SOL    MW429358   2.505   4.593   3.058 -0.2676  0.2950  0.1037
 7397SOL     OW29359   2.710   0.983   0.833  0.6530  0.0181  0.0403
 7397SOL    HW229360   2.672   1.048   0.893 -1.0811 -0.0998 -0.8718
 7397SOL    HW329361   2.637   0.955   0.779  1.7559 -1.4060 -0.7740
 7397SOL    MW429362   2.695   0.988   0.834 -0.0384 -0.4301 -0.1412
 7398SOL     OW29363   2.712   0.677   3.834 -0.3337 -0.1046  0.0964
 7398SOL    HW229364   2.749   0.632   3.909 -1.0743 -1.2394 -0.1948
 7398SOL    HW329365   2.644   0.618   3.802 -0.9328  0.9617 -0.6581
 7398SOL    MW429366   2.708   0.664   3.840  0.1995 -0.2124 -0.3368
 7399SOL     OW29367   6.256   4.916   2.324 -0.2166 -0.2631  0.2635
 7399SOL    HW229368   6.235   4.840   2.377 -0.8586  0.7248  1.4957
 7399SOL    HW329369   6.226   4.893   2.236  0.0496 -1.5963  0.5073
 7399SOL    MW429370   6.249   4.903   2.319  0.7985 -0.3576 -0.0819
 7400SOL     OW29371   5.442   5.975   3.021 -0.1513  0.2448 -0.0705
 7400SOL    HW229372   5.445   6.061   3.062 -0.9811  1.0096 -1.5386
 7400SOL    HW329373   5.359   5.937   3.050 -0.8864  0.9107 -1.1842
 7400SOL    MW429374   5.431   5.981   3.030  0.3344  0.0070 -0.5674
 7401SOL     OW29375   1.951   2.397   2.343 -0.4176  0.0962  0.1647
 7401SOL    HW229376   1.874   2.442   2.378  1.2506  1.5801  2.2042
 7401SOL    HW329377   1.932   2.304   2.355 -1.4352  0.4623  1.6903
 7401SOL    MW429378   1.938   2.391   2.349  0.5555 -1.0476 -0.3486
 7402SOL     OW29379   0.739   1.923   5.768 -0.0137  1.0838  0.2630
 7402SOL    HW229380   0.745   1.904   5.675  0.8727  0.8562  0.3532
 7402SOL    HW329381   0.648   1.949   5.782 -0.4135  0.1201 -0.4703
 7402SOL    MW429382   0.728   1.924   5.758 -0.1070  0.2504 -0.5851
 7403SOL     OW29383   1.137   0.453   0.035 -0.0197 -0.2446 -0.4693
 7403SOL    HW229384   1.137   0.507  -0.044  0.4721  0.5786  0.0822
 7403SOL    HW329385   1.229   0.449   0.061 -0.4915  3.1750  2.4942
 7403SOL    MW429386   1.149   0.460   0.028 -0.1394  0.1586  0.5787
 7404SOL     OW29387   2.668   6.233   5.760  0.4789  0.1546 -0.2753
 7404SOL    HW229388   2.701   6.144   5.748 -0.3933 -0.1454 -0.5167
 7404SOL    HW329389   2.616   6.228   5.840 -0.0428  0.3109 -0.6029
 7404SOL    MW429390   2.665   6.220   5.769  0.1759 -0.0149 -0.2895
 7405SOL     OW29391   1.779   4.482   0.130  1.1303  0.1184 -0.4799
 7405SOL    HW229392   1.756   4.528   0.210 -2.0113  0.5139 -1.4808
 7405SOL    HW329393   1.866   4.515   0.108  1.7532  0.5706  2.2856
 7405SOL    MW429394   1.788   4.493   0.137 -0.2080 -0.2220 -0.4960
 7406SOL     OW29395   1.056   5.059   1.059 -0.5106 -0.3579 -0.2434
 7406SOL    HW229396   1.012   5.003   0.996 -1.9294  1.8467 -1.3383
 7406SOL    HW329397   1.117   5.112   1.007 -0.6668  0.4972  0.4121
 7406SOL    MW429398   1.058   5.059   1.044  0.3228 -0.1476 -0.0616
 7407SOL     OW29399   2.009   3.409   2.549 -0.6917  0.4286  0.1642
 7407SOL    HW229400   1.920   3.399   2.516 -0.4964 -0.5804 -0.0793
 7407SOL    HW329401   2.065   3.401   2.472 -0.4019  1.8736  0.1805
 7407SOL    MW429402   2.005   3.407   2.534  0.0881  0.6322  0.0932
 7408SOL     OW29403   4.101   3.853   3.953  0.2973 -0.0008  0.6037
 7408SOL    HW229404   4.158   3.922   3.986 -1.6848  1.6204  0.8711
 7408SOL    HW329405   4.035   3.840   4.022 -0.9229 -0.2302 -0.5451
 7408SOL    MW429406   4.100   3.860   3.967  0.1580  0.4024 -0.0770
 7409SOL     OW29407   1.433   2.853   1.306 -0.1233 -0.0758 -0.5829
 7409SOL    HW229408   1.355   2.831   1.357  1.5434 -0.9007  1.7623
 7409SOL    HW329409   1.479   2.769   1.296  1.1818  0.6286 -0.6352
 7409SOL    MW429410   1.429   2.839   1.311  0.2513  0.4583 -0.3619
 7410SOL     OW29411   1.002   1.986   5.184  0.3740  0.1457  0.2138
 7410SOL    HW229412   0.992   2.001   5.278  0.6488 -1.7329  0.5828
 7410SOL    HW329413   1.090   1.948   5.175  0.4843  0.6208 -0.8454
 7410SOL    MW429414   1.012   1.983   5.195  0.5010  0.1250  0.4857
 7411SOL     OW29415   3.002   6.083   3.586 -0.4385  0.2198  0.2870
 7411SOL    HW229416   2.947   6.038   3.522 -0.2029  0.0190  0.2253
 7411SOL    HW329417   3.080   6.029   3.593 -0.1830  0.5832  0.2661
 7411SOL    MW429418   3.005   6.070   3.579  0.0867 -0.2422 -0.6105
 7412SOL     OW29419   4.220   5.929   1.244  0.4750 -0.3887  0.1262
 7412SOL    HW229420   4.130   5.914   1.217  0.5533  0.4092 -0.6276
 7412SOL    HW329421   4.259   5.842   1.248  0.2556 -0.6218 -1.7073
 7412SOL    MW429422   4.213   5.916   1.241  0.5860 -0.5462 -0.2629
 7413SOL     OW29423   4.304   0.878   3.850 -0.3997 -0.0432  0.5037
 7413SOL    HW229424   4.371   0.939   3.818 -1.0300  0.8387  0.8203
 7413SOL    HW329425   4.229   0.893   3.792 -0.1230 -1.4961 -0.2690
 7413SOL    MW429426   4.303   0.888   3.838 -0.6350  0.3155  0.4239
 7414SOL     OW29427   0.846   5.785   5.967  0.2603  1.2749 -0.2276
 7414SOL    HW229428   0.821   5.876   5.980  0.4547  1.3820 -0.5965
 7414SOL    HW329429   0.930   5.789   5.922  0.3681  0.9137 -0.0654
 7414SOL    MW429430   0.854   5.797   5.963 -0.3903  0.7451  0.4209
 7415SOL     OW29431   4.744   5.118   5.202  0.4972 -0.3953 -0.2375
 7415SOL    HW229432   4.746   5.214   5.209  0.0646 -0.3865 -0.1518
 7415SOL    HW329433   4.770   5.087   5.288  2.5184 -0.3884 -0.8068
 7415SOL    MW429434   4.747   5.127   5.214 -0.0128 -0.1036  0.0722
 7416SOL     OW29435   1.314   2.601   2.856  0.4182 -0.4964  0.1350
 7416SOL    HW229436   1.353   2.608   2.769 -0.5255  1.3620 -0.1765
 7416SOL    HW329437   1.234   2.653   2.852 -1.3523 -2.9217  1.2257
 7416SOL    MW429438   1.309   2.609   2.844 -0.2232  0.1311  0.0060
 7417SOL     OW29439   2.974   3.002   4.813  0.8398  0.1888 -0.1807
 7417SOL    HW229440   3.008   2.914   4.828  1.1722 -0.0938 -2.2862
 7417SOL    HW329441   3.032   3.039   4.746 -1.2866  0.7150 -1.8616
 7417SOL    MW429442   2.986   2.995   4.806 -0.0588  0.4373  0.0511
 7418SOL     OW29443   1.464   2.540   0.175 -0.8861  1.0135  0.5366
 7418SOL    HW229444   1.378   2.528   0.216 -1.5911 -1.1765 -1.4021
 7418SOL    HW329445   1.483   2.457   0.132  0.8911  2.3652 -1.5193
 7418SOL    MW429446   1.455   2.528   0.175  0.3983  0.0909 -0.0246
 7419SOL     OW29447   5.158   2.371   6.229  0.1426 -0.4349  0.5575
 7419SOL    HW229448   5.211   2.369   6.149 -0.6590  3.4265 -0.2575
 7419SOL    HW329449   5.073   2.337   6.202 -0.0554  0.6373 -0.2201
 7419SOL    MW429450   5.154   2.366   6.215 -0.2143 -0.2257 -0.1981
 7420SOL     OW29451   3.413   5.539   3.529 -0.1339  0.0109  0.0213
 7420SOL    HW229452   3.345   5.475   3.508  0.3482 -0.2887 -0.6774
 7420SOL    HW329453   3.395   5.614   3.472 -0.1662  0.1345  0.1908
 7420SOL    MW429454   3.402   5.541   3.519 -0.1386 -0.5107  0.0699
 7421SOL     OW29455   1.852   5.466   2.205  0.2313 -0.0944 -0.1704
 7421SOL    HW229456   1.837   5.544   2.151 -0.9525 -1.3681 -1.7895
 7421SOL    HW329457   1.825   5.493   2.293  0.1270  1.4024 -0.6244
 7421SOL    MW429458   1.846   5.480   2.210 -0.1384  0.0797 -0.5040
 7422SOL     OW29459   0.501   4.344   1.419 -0.0737  0.3488  0.0288
 7422SOL    HW229460   0.570   4.286   1.388 -0.1128 -0.1727  0.8887
 7422SOL    HW329461   0.514   4.425   1.369  0.7101  0.0089 -0.3389
 7422SOL    MW429462   0.512   4.347   1.409 -0.5434 -0.5717 -0.1932
 7423SOL     OW29463   1.837   3.885   1.503 -0.9050  0.7639 -0.4172
 7423SOL    HW229464   1.773   3.867   1.572  1.5187  1.1577  2.1186
 7423SOL    HW329465   1.870   3.973   1.523  2.2319 -0.3921  0.0507
 7423SOL    MW429466   1.833   3.894   1.515  0.4464  0.2528 -0.2202
 7424SOL     OW29467   0.774   3.137   2.234 -0.1565 -0.2194  0.5121
 7424SOL    HW229468   0.680   3.129   2.249 -0.6847 -0.3049 -2.2399
 7424SOL    HW329469   0.809   3.050   2.252 -1.1059 -0.9870 -1.1439
 7424SOL    MW429470   0.767   3.124   2.238 -0.0265 -0.7891 -0.5503
 7425SOL     OW29471   5.681   2.821   1.391 -0.5503 -0.1601  0.7059
 7425SOL    HW229472   5.687   2.899   1.336 -0.5970 -0.8087 -0.2325
 7425SOL    HW329473   5.590   2.794   1.384  0.1449 -2.2471 -1.7677
 7425SOL    MW429474   5.670   2.828   1.383 -0.0077  0.1913  0.1054
 7426SOL     OW29475   4.679   2.283   0.613  0.2624 -0.1518  0.6557
 7426SOL    HW229476   4.618   2.336   0.561  0.5707 -0.2392  0.1939
 7426SOL    HW329477   4.749   2.260   0.551  2.1061  2.0277  1.7319
 7426SOL    MW429478   4.680   2.287   0.598  0.0786 -0.1700 -0.2161
 7427SOL     OW29479   0.256   4.313   4.325 -0.3696  0.1543  0.1371
 7427SOL    HW229480   0.179   4.296   4.270  0.1303 -2.8497  0.1843
 7427SOL    HW329481   0.324   4.340   4.264 -1.1054  1.6879 -0.0471
 7427SOL    MW429482   0.255   4.315   4.310  0.0679 -0.2263 -0.3071
 7428SOL     OW29483   5.965   3.904   2.632  0.0538 -0.0452 -0.1552
 7428SOL    HW229484   5.906   3.881   2.561  0.4338  0.5267 -0.6647
 7428SOL    HW329485   6.023   3.970   2.595  1.1307 -0.7189  0.2846
 7428SOL    MW429486   5.965   3.910   2.618 -0.0196  0.4137 -0.3287
 7429SOL     OW29487   4.766   3.755   1.653 -0.9541  0.2349  0.5276
 7429SOL    HW229488   4.852   3.741   1.613 -1.0747 -0.8231  0.6148
 7429SOL    HW329489   4.786   3.799   1.736 -0.1777 -2.6677  1.9965
 7429SOL    MW429490   4.780   3.759   1.659  0.4408  0.4261  0.2010
 7430SOL     OW29491   5.284   6.376   6.048  0.0388  0.4215  0.8454
 7430SOL    HW229492   5.278   6.288   6.085  0.7030 -0.6636 -1.4608
 7430SOL    HW329493   5.375   6.402   6.060  0.1896  0.1815  0.2514
 7430SOL    MW429494   5.295   6.368   6.055  0.4218 -0.2940 -0.6727
 7431SOL     OW29495   3.991   4.898   3.871  0.2787  0.5154 -0.1714
 7431SOL    HW229496   4.009   4.852   3.789  0.5180  0.6614 -0.2040
 7431SOL    HW329497   3.896   4.896   3.880  0.1323  1.6053 -1.1095
 7431SOL    MW429498   3.981   4.892   3.861  0.2943  0.2977  0.4787
 7432SOL     OW29499   0.960   6.373   3.227  0.1473 -0.0282  0.0607
 7432SOL    HW229500   0.964   6.355   3.133  0.9103  1.0343 -0.1259
 7432SOL    HW329501   1.035   6.430   3.244 -0.9894  1.2518  0.9791
 7432SOL    MW429502   0.970   6.378   3.217 -0.4001 -0.2689  0.0653
 7433SOL     OW29503   2.894   5.934   4.816 -0.1220  0.0310 -0.4875
 7433SOL    HW229504   2.837   5.857   4.821  0.0867 -0.0901  0.1781
 7433SOL    HW329505   2.982   5.900   4.832  0.0082  0.3603 -0.4913
 7433SOL    MW429506   2.898   5.920   4.819  0.1389  0.7574 -0.1687
 7434SOL     OW29507   5.337   1.675   4.268 -0.0238  0.4841  0.6848
 7434SOL    HW229508   5.392   1.742   4.227  0.4274  0.7823  1.7366
 7434SOL    HW329509   5.252   1.716   4.278  0.1194  0.7362  0.8849
 7434SOL    MW429510   5.333   1.689   4.264  0.1678 -0.0665  0.2496
 7435SOL     OW29511   1.290   1.615   5.345  0.7528 -0.1527  0.1848
 7435SOL    HW229512   1.343   1.541   5.372 -0.8222 -1.1864  0.5795
 7435SOL    HW329513   1.335   1.692   5.380  1.8038 -1.0099  0.7404
 7435SOL    MW429514   1.303   1.616   5.353  0.0501  0.0731  0.1373
 7436SOL     OW29515   3.656   2.503   3.240  0.1990 -0.0600  0.5069
 7436SOL    HW229516   3.630   2.540   3.324 -0.3172  1.2519 -0.1995
 7436SOL    HW329517   3.574   2.485   3.195  0.3668 -3.2682  1.2570
 7436SOL    MW429518   3.642   2.506   3.245 -0.3556  0.4700 -0.3578
 7437SOL     OW29519   2.091   4.742   4.926  0.0997 -0.3899  0.4618
 7437SOL    HW229520   2.174   4.777   4.958 -0.6214  0.5204  1.4195
 7437SOL    HW329521   2.103   4.735   4.832  0.8587  0.8508  0.4414
 7437SOL    MW429522   2.104   4.745   4.918 -0.1496  0.0807 -0.2087
 7438SOL     OW29523   0.089   6.013   2.893 -0.1279 -0.4633  0.0519
 7438SOL    HW229524   0.120   6.096   2.857  1.2026 -0.7395  0.5055
 7438SOL    HW329525   0.052   5.967   2.818  0.2370  0.0414 -0.4520
 7438SOL    MW429526   0.088   6.018   2.878  0.3899 -0.4412 -0.4908
 7439SOL     OW29527   0.116   0.500   4.254  0.5760  0.3383  0.5676
 7439SOL    HW229528   0.071   0.433   4.305 -0.9657 -0.3935 -1.6125
 7439SOL    HW329529   0.151   0.453   4.179  0.5917  1.7553 -0.3539
 7439SOL    MW429530   0.115   0.485   4.251 -0.0807 -0.1326 -0.0678
 7440SOL     OW29531   3.319   3.437   0.519  0.0327  0.3095  0.0979
 7440SOL    HW229532   3.404   3.412   0.482  0.2696  0.4873  0.5026
 7440SOL    HW329533   3.278   3.353   0.542  1.1739  0.2430  2.2197
 7440SOL    MW429534   3.325   3.422   0.517  0.4945  0.4268 -0.0159
 7441SOL     OW29535   4.631   4.747   0.982  0.1834  0.1506 -0.3848
 7441SOL    HW229536   4.702   4.731   1.045 -0.2624 -0.1147  0.0518
 7441SOL    HW329537   4.677   4.774   0.902  0.7502  0.6030  0.0775
 7441SOL    MW429538   4.647   4.748   0.980  0.0387 -0.0233  0.1498
 7442SOL     OW29539   1.124   0.715   3.133  0.5315  0.6551 -0.0781
 7442SOL    HW229540   1.139   0.672   3.049 -0.3013  0.1479  0.0193
 7442SOL    HW329541   1.029   0.712   3.145  0.5179  1.9875  0.2275
 7442SOL    MW429542   1.113   0.709   3.124 -0.5547 -0.1232  0.3878
 7443SOL     OW29543   1.343   2.944   1.839 -0.0627  0.2895 -0.0979
 7443SOL    HW229544   1.299   3.028   1.825 -0.3492  0.6742  2.5410
 7443SOL    HW329545   1.433   2.960   1.811 -0.5326  0.8735 -1.3577
 7443SOL    MW429546   1.349   2.957   1.834 -0.2736 -0.7463  0.3783
 7444SOL     OW29547   2.771   4.782   3.175  0.4857 -0.1669  0.4032
 7444SOL    HW229548   2.801   4.712   3.233  1.9767 -0.3033 -0.4874
 7444SOL    HW329549   2.842   4.793   3.111 -0.3537  1.1606 -0.3544
 7444SOL    MW429550   2.784   4.774   3.175 -0.0882 -0.4332 -0.2639
 7445SOL     OW29551   2.894   2.398   5.393 -0.2191  0.1496  0.1543
 7445SOL    HW229552   2.938   2.483   5.385 -0.5243  0.3925  0.9924
 7445SOL    HW329553   2.961   2.334   5.370 -0.2218  0.6410 -1.3760
 7445SOL    MW429554   2.909   2.401   5.389 -0.1906 -0.2332  0.2648
 7446SOL     OW29555   3.002   0.879   3.317  0.0141 -0.0048  0.1639
 7446SOL    HW229556   3.034   0.854   3.404  0.2785  2.0070  0.6998
 7446SOL    HW329557   3.076   0.924   3.277 -0.7988  0.9719 -0.2533
 7446SOL    MW429558   3.016   0.881   3.323 -0.3153 -0.1554  0.2108
 7447SOL     OW29559   4.896   4.558   2.724  0.6678 -0.0873 -0.3744
 7447SOL    HW229560   4.806   4.532   2.741  0.4807 -0.5961 -1.9395
 7447SOL    HW329561   4.927   4.595   2.807 -1.0520  0.3364  0.1169
 7447SOL    MW429562   4.888   4.560   2.737  0.1003 -0.6184 -0.3415
 7448SOL     OW29563   0.400   5.070   5.556  0.0275 -0.9537 -0.4319
 7448SOL    HW229564   0.398   4.974   5.557  0.2045 -0.9886 -1.6455
 7448SOL    HW329565   0.493   5.092   5.555 -0.0105 -0.7539  0.0663
 7448SOL    MW429566   0.412   5.060   5.556 -0.3894  0.4488 -0.4918
 7449SOL     OW29567   3.660   4.237   2.112 -0.1602 -0.2695  0.1634
 7449SOL    HW229568   3.705   4.235   2.197  0.4609  1.0264 -0.1017
 7449SOL    HW329569   3.568   4.252   2.134  0.3063  2.5946  0.6072
 7449SOL    MW429570   3.654   4.239   2.126 -0.3367 -0.5097  0.3310
 7450SOL     OW29571   6.008   3.911   6.368  0.1438  0.0537 -0.4599
 7450SOL    HW229572   5.963   3.876   6.291  0.6457  0.2985 -0.8712
 7450SOL    HW329573   6.031   4.001   6.344  1.1136 -0.1581 -0.3855
 7450SOL    MW429574   6.005   3.918   6.354  0.4431 -0.1065  0.3401
 7451SOL     OW29575   4.610   0.916   5.003  0.3062  0.1757  0.0204
 7451SOL    HW229576   4.520   0.884   4.998  0.0240  0.8440  0.6434
 7451SOL    HW329577   4.661   0.839   5.028 -0.0473 -0.2626 -0.5787
 7451SOL    MW429578   4.605   0.901   5.006 -0.1750 -0.0030 -0.0209
 7452SOL     OW29579   2.046   2.228   5.791  0.5118  0.5367 -0.5353
 7452SOL    HW229580   2.103   2.160   5.825 -0.7586 -0.5875 -0.5521
 7452SOL    HW329581   1.960   2.208   5.828 -0.1904  1.2781 -1.6949
 7452SOL    MW429582   2.042   2.216   5.800 -0.0249  0.0481 -0.1182
 7453SOL     OW29583   2.496   6.411   0.887  0.0898 -0.1853  0.5376
 7453SOL    HW229584   2.512   6.345   0.954  0.4124  0.1839  0.8264
 7453SOL    HW329585   2.537   6.490   0.921  1.3927 -0.3089 -0.6663
 7453SOL    MW429586   2.503   6.412   0.900  0.0123  0.3860 -0.1432
 7454SOL     OW29587   3.222   0.966   6.229 -0.0044 -0.8708 -0.0199
 7454SOL    HW229588   3.233   0.906   6.156 -2.3449 -1.0997 -0.2335
 7454SOL    HW329589   3.166   0.919   6.291 -2.5463  1.2726 -0.5212
 7454SOL    MW429590   3.216   0.952   6.228  0.5593 -0.5230  0.4822
 7455SOL     OW29591   6.101   2.989   1.822 -0.0536 -0.2015  0.3863
 7455SOL    HW229592   6.138   2.987   1.910  1.2240  0.4435 -0.1045
 7455SOL    HW329593   6.176   3.003   1.764 -1.0751  1.4997 -0.6506
 7455SOL    MW429594   6.116   2.991   1.826 -0.1912  0.4722  0.0931
 7456SOL     OW29595   5.672   5.121   0.942 -0.2701 -0.0343  0.3510
 7456SOL    HW229596   5.627   5.190   0.990 -2.4131 -0.2084 -1.2688
 7456SOL    HW329597   5.603   5.078   0.891  1.0490 -3.0411  0.8696
 7456SOL    MW429598   5.657   5.124   0.942  0.4190  0.7762  0.0904
 7457SOL     OW29599   4.570   4.787   2.960  0.5881 -0.0732  0.3917
 7457SOL    HW229600   4.518   4.707   2.953 -1.1889  1.1116 -0.4945
 7457SOL    HW329601   4.598   4.790   3.051 -0.2759 -1.1209  0.7054
 7457SOL    MW429602   4.567   4.777   2.971  0.3798  0.3287 -0.0850
 7458SOL     OW29603   5.929   1.136   5.849 -0.3385 -0.1346 -0.3061
 7458SOL    HW229604   5.855   1.144   5.789 -0.8551  0.0345  0.3450
 7458SOL    HW329605   5.893   1.093   5.926  0.0295  0.7237  0.3687
 7458SOL    MW429606   5.915   1.131   5.851 -0.2009 -0.0746 -0.5666
 7459SOL     OW29607   4.494   5.585   4.697 -0.2597  0.4291 -0.3402
 7459SOL    HW229608   4.473   5.648   4.766 -1.2265  0.6551 -0.8178
 7459SOL    HW329609   4.574   5.541   4.727  0.0548  1.4209  0.3062
 7459SOL    MW429610   4.502   5.587   4.710 -0.0879 -0.0354  0.0955
 7460SOL     OW29611   4.622   5.029   5.443  0.1139 -0.0020 -0.1357
 7460SOL    HW229612   4.588   4.989   5.523  0.4904  0.9538  0.5149
 7460SOL    HW329613   4.544   5.051   5.392 -0.1312 -0.5233  0.0059
 7460SOL    MW429614   4.607   5.026   5.447  0.4218 -0.7401 -0.3432
 7461SOL     OW29615   2.177   0.685   0.975 -0.3988 -0.5193 -0.8611
 7461SOL    HW229616   2.202   0.644   0.892  1.3050  0.4071 -0.8565
 7461SOL    HW329617   2.160   0.776   0.952 -0.2195 -0.3245 -0.2496
 7461SOL    MW429618   2.178   0.692   0.961 -0.4193  0.5766  0.1861
 7462SOL     OW29619   4.225   1.776   4.016 -0.2787  0.3751  0.0237
 7462SOL    HW229620   4.299   1.776   4.076 -1.1818 -0.0990  1.1754
 7462SOL    HW329621   4.155   1.820   4.064 -0.4175  1.9165 -1.4993
 7462SOL    MW429622   4.225   1.781   4.030  0.5508 -0.0380 -0.0656
 7463SOL     OW29623   4.651   1.750   0.441  0.1889 -0.1163 -0.2264
 7463SOL    HW229624   4.603   1.812   0.386  1.9564  0.2125 -1.5092
 7463SOL    HW329625   4.711   1.706   0.380 -0.6002 -2.7148  0.7408
 7463SOL    MW429626   4.653   1.752   0.426  0.4911  0.6224  0.0899
 7464SOL     OW29627   6.114   0.362   4.686 -0.5255 -0.0101 -0.2351
 7464SOL    HW229628   6.113   0.457   4.679 -2.3987 -0.0339 -0.9612
 7464SOL    HW329629   6.057   0.343   4.761 -0.4956 -0.5682 -0.3533
 7464SOL    MW429630   6.106   0.372   4.695  0.7156  0.0507 -0.1731
 7465SOL     OW29631   0.742   4.823   2.103  0.4826  0.0076 -0.0499
 7465SOL    HW229632   0.728   4.913   2.073  1.4511  0.4623  0.7795
 7465SOL    HW329633   0.739   4.830   2.199 -1.8651 -1.2685  0.0500
 7465SOL    MW429634   0.740   4.836   2.112  0.2816 -0.2778  0.3712
 7466SOL     OW29635   5.768   0.834   4.347 -0.2688  0.3596 -0.2714
 7466SOL    HW229636   5.820   0.756   4.367 -0.9703 -0.0960 -0.1815
 7466SOL    HW329637   5.712   0.846   4.424  0.5293  1.5569  0.1651
 7466SOL    MW429638   5.768   0.826   4.360 -1.0067 -0.2675 -0.1519
 7467SOL     OW29639   1.863   5.758   3.860  0.5094  0.0607 -0.2018
 7467SOL    HW229640   1.817   5.741   3.777 -0.1049  2.0595 -0.3470
 7467SOL    HW329641   1.955   5.745   3.839  0.3843  0.7691 -1.3039
 7467SOL    MW429642   1.869   5.754   3.846 -0.0797  0.0200  0.2578
 7468SOL     OW29643   2.734   4.874   1.915  0.7032  0.4154  0.0117
 7468SOL    HW229644   2.760   4.811   1.848 -0.2261  0.6678 -0.6121
 7468SOL    HW329645   2.661   4.832   1.961  1.8372 -0.0937  1.4325
 7468SOL    MW429646   2.728   4.860   1.912  0.1050  0.4810 -0.0369
 7469SOL     OW29647   4.420   4.917   4.622  0.3215  0.2057  0.1648
 7469SOL    HW229648   4.442   4.995   4.673 -0.3124  1.1964 -1.0329
 7469SOL    HW329649   4.336   4.888   4.658  0.7002 -0.1120  0.8087
 7469SOL    MW429650   4.412   4.924   4.634  0.3421  0.4666  0.5407
 7470SOL     OW29651   4.144   0.430   5.204  0.0360 -0.4274 -0.0325
 7470SOL    HW229652   4.067   0.464   5.158  1.4025 -0.3315 -2.4291
 7470SOL    HW329653   4.148   0.338   5.181 -0.8283 -1.1361  2.3494
 7470SOL    MW429654   4.134   0.422   5.195  0.4410  0.6720  0.2138
 7471SOL     OW29655   0.706   1.453   0.986  0.2788  0.1999 -0.8502
 7471SOL    HW229656   0.662   1.378   1.027 -1.2490  1.4018 -0.1967
 7471SOL    HW329657   0.800   1.432   0.992  0.0789 -0.3149  2.0630
 7471SOL    MW429658   0.713   1.440   0.992  0.0109  0.3408 -0.6057
 7472SOL     OW29659   4.489   2.519   3.200 -0.5740 -0.1452  0.1691
 7472SOL    HW229660   4.455   2.437   3.165 -1.0205  0.0895  0.0503
 7472SOL    HW329661   4.482   2.581   3.127  0.5080 -0.2021  0.0051
 7472SOL    MW429662   4.484   2.516   3.186 -0.0225  0.1547 -0.0092
 7473SOL     OW29663   3.328   4.938   0.662  0.3746 -0.1440 -0.0603
 7473SOL    HW229664   3.417   4.911   0.681  1.3242  2.1095 -0.9264
 7473SOL    HW329665   3.303   4.887   0.585  0.8480 -0.8896  0.2746
 7473SOL    MW429666   3.336   4.928   0.654  0.7205  0.5689  0.1346
 7474SOL     OW29667   3.147   0.599   3.909  0.5902 -0.2051  0.4331
 7474SOL    HW229668   3.168   0.686   3.877  1.0593 -0.3423  0.3565
 7474SOL    HW329669   3.143   0.544   3.831 -0.2026 -0.1560  0.4347
 7474SOL    MW429670   3.150   0.603   3.895 -0.6413 -0.0522 -0.0443
 7475SOL     OW29671   5.205   5.355   4.417 -0.2426  0.1597  0.2462
 7475SOL    HW229672   5.221   5.345   4.511 -1.4759  0.2864  0.4943
 7475SOL    HW329673   5.229   5.446   4.398 -1.0422  0.4795  0.6957
 7475SOL    MW429674   5.210   5.366   4.427  0.1453 -1.0337 -0.1239
 7476SOL     OW29675   5.698   4.012   2.477 -0.0040  0.5546  0.1091
 7476SOL    HW229676   5.718   4.096   2.517  0.8636  0.6878 -0.5863
 7476SOL    HW329677   5.735   4.017   2.389 -1.0908 -0.0723 -0.4008
 7476SOL    MW429678   5.705   4.024   2.471 -0.3383  0.0925  0.3351
 7477SOL     OW29679   3.956   1.096   1.615  0.1612  0.1632  0.0429
 7477SOL    HW229680   3.888   1.098   1.681 -0.7601  0.3631 -0.8895
 7477SOL    HW329681   3.921   1.147   1.542 -0.2035 -2.5896 -1.8682
 7477SOL    MW429682   3.943   1.103   1.614 -0.0581  0.2617 -0.2238
 7478SOL     OW29683   1.874   5.101   0.540  0.6760 -0.0949 -0.2591
 7478SOL    HW229684   1.780   5.119   0.543  1.0051  1.7086  1.2662
 7478SOL    HW329685   1.902   5.138   0.456 -0.0021 -0.9930 -0.9069
 7478SOL    MW429686   1.865   5.108   0.529  0.4259 -0.5850 -0.0629
 7479SOL     OW29687   4.067   2.718   2.384  0.5268  0.2146  0.2671
 7479SOL    HW229688   4.158   2.745   2.396  0.8301 -0.5158 -0.3247
 7479SOL    HW329689   4.073   2.629   2.351 -0.3678  0.6207 -1.0357
 7479SOL    MW429690   4.080   2.710   2.381 -0.3921  0.1794  0.2941
 7480SOL     OW29691   5.690   5.750   0.254  0.0311 -0.1476 -1.0461
 7480SOL    HW229692   5.685   5.812   0.326  0.9367 -0.6288 -0.5500
 7480SOL    HW329693   5.673   5.802   0.176  3.1534  1.3084 -0.9142
 7480SOL    MW429694   5.687   5.765   0.253  0.3169 -0.0225 -0.0352
 7481SOL     OW29695   6.373   2.633   5.173  0.0364  0.2728  0.4721
 7481SOL    HW229696   6.287   2.674   5.165 -0.0640  0.3247  1.5712
 7481SOL    HW329697   6.355   2.539   5.166 -0.1964  0.2528  1.2397
 7481SOL    MW429698   6.359   2.626   5.171 -0.1709  0.3527  0.1141
 7482SOL     OW29699   1.495   2.679   1.630 -0.3398  0.2926  0.3180
 7482SOL    HW229700   1.424   2.731   1.594 -0.5830 -0.0358  0.3153
 7482SOL    HW329701   1.556   2.666   1.557  0.1638  1.3046  0.5350
 7482SOL    MW429702   1.494   2.684   1.616  1.0039 -0.7396  0.3572
 7483SOL     OW29703   0.364   5.644   0.538 -0.3598  0.2112  0.5693
 7483SOL    HW229704   0.283   5.593   0.529 -0.0570 -0.1960  0.0574
 7483SOL    HW329705   0.335   5.729   0.570 -1.0399  0.1893  0.0558
 7483SOL    MW429706   0.350   5.648   0.541  0.2320 -0.8867 -0.2961
 7484SOL     OW29707   1.201   1.211   0.410 -0.0624 -0.2310  0.3275
 7484SOL    HW229708   1.196   1.135   0.468 -1.3462  0.1101  0.6900
 7484SOL    HW329709   1.269   1.266   0.449  0.3602 -0.8407  0.4726
 7484SOL    MW429710   1.210   1.208   0.423 -0.4223  0.0203  0.0244
 7485SOL     OW29711   3.232   1.323   3.836 -0.0865  0.2780 -0.0903
 7485SOL    HW229712   3.269   1.331   3.748 -0.5038  0.5778 -0.2402
 7485SOL    HW329713   3.217   1.413   3.864  2.2616  0.3263  1.2551
 7485SOL    MW429714   3.235   1.336   3.828  0.4821 -0.4599 -0.3624
 7486SOL     OW29715   5.378   3.816   2.627 -0.6157 -0.3095 -0.5088
 7486SOL    HW229716   5.414   3.902   2.604 -1.0629  0.1406  0.3944
 7486SOL    HW329717   5.401   3.805   2.720  0.2586 -1.5994 -0.8610
 7486SOL    MW429718   5.385   3.826   2.637 -0.0413 -0.4334 -0.0442
 7487SOL     OW29719   5.904   6.229   6.313 -0.0496  0.0743  0.3317
 7487SOL    HW229720   5.886   6.272   6.397 -0.2054  0.8975 -0.1151
 7487SOL    HW329721   5.843   6.270   6.252 -0.2356 -0.8280 -0.0993
 7487SOL    MW429722   5.893   6.240   6.316 -0.3565 -1.0502  0.2368
 7488SOL     OW29723   4.601   3.713   2.267  0.1894 -0.4471 -0.1455
 7488SOL    HW229724   4.550   3.689   2.344  0.6513 -0.7823  0.0647
 7488SOL    HW329725   4.638   3.631   2.236  2.1147 -0.0051  0.8183
 7488SOL    MW429726   4.599   3.699   2.273  0.1148 -0.5399 -0.0366
 7489SOL     OW29727   4.560   2.058   0.774  0.2417  0.1413 -0.3703
 7489SOL    HW229728   4.640   2.049   0.826 -1.1193  1.7428  2.2465
 7489SOL    HW329729   4.577   2.133   0.717  0.0395  1.8250  1.6270
 7489SOL    MW429730   4.573   2.067   0.773  0.9498 -0.5127  0.0355
 7490SOL     OW29731   4.421   0.643   2.354  0.7053  0.5788  0.3491
 7490SOL    HW229732   4.410   0.697   2.433  1.2151  1.8808 -0.4434
 7490SOL    HW329733   4.381   0.694   2.284  2.0900  0.4137 -0.5994
 7490SOL    MW429734   4.415   0.657   2.355  0.3228 -0.0491 -0.3981
 7491SOL     OW29735   5.380   4.505   2.164  0.8280  0.1426  0.3177
 7491SOL    HW229736   5.312   4.470   2.106  1.4773  1.8582 -1.6095
 7491SOL    HW329737   5.334   4.563   2.223  0.4405  0.3372 -0.1664
 7491SOL    MW429738   5.365   4.508   2.164 -0.4166 -0.8330 -0.0264
 7492SOL     OW29739   3.397   0.972   4.397 -0.2374  0.0043  0.0840
 7492SOL    HW229740   3.461   1.033   4.360  1.1716 -1.3100  0.2577
 7492SOL    HW329741   3.421   0.887   4.360 -1.8005 -0.5553  0.2841
 7492SOL    MW429742   3.409   0.969   4.387 -0.0776 -0.2877 -0.2286
 7493SOL     OW29743   2.979   5.508   0.246  0.4850  0.5198  0.4699
 7493SOL    HW229744   3.044   5.500   0.176  2.2702  0.8875  2.0143
 7493SOL    HW329745   2.929   5.426   0.242  1.1549  0.1465 -0.6406
 7493SOL    MW429746   2.981   5.496   0.236  0.1964 -0.1110 -0.0704
 7494SOL     OW29747   5.416   2.581   2.995  0.3793 -0.3271  0.0774
 7494SOL    HW229748   5.323   2.557   3.005 -0.1872  1.6822 -0.0475
 7494SOL    HW329749   5.417   2.643   2.922  1.9952 -1.1189 -0.6140
 7494SOL    MW429750   5.404   2.586   2.987 -0.6657 -0.2828  0.5544
 7495SOL     OW29751   0.726   4.524   3.717  0.1887  0.0106 -0.6373
 7495SOL    HW229752   0.819   4.537   3.738  0.3630  0.8534 -1.8173
 7495SOL    HW329753   0.682   4.531   3.801  1.3260 -2.1633  0.2225
 7495SOL    MW429754   0.732   4.527   3.731  0.3633  0.5246  0.0971
 7496SOL     OW29755   3.449   5.030   5.148 -0.3181 -0.1295  0.1803
 7496SOL    HW229756   3.378   4.985   5.102 -1.1587  2.7955 -1.6269
 7496SOL    HW329757   3.415   5.044   5.237 -1.7353  0.4978 -0.4222
 7496SOL    MW429758   3.435   5.026   5.154  0.2848 -0.2967  0.4547
 7497SOL     OW29759   5.021   5.023   0.238  0.2296  0.4044 -0.0097
 7497SOL    HW229760   4.960   5.088   0.274  0.0748  0.3597 -0.1877
 7497SOL    HW329761   5.108   5.060   0.254  0.2135 -0.0496  1.2663
 7497SOL    MW429762   5.024   5.037   0.245 -1.0686 -0.1013 -0.5890
 7498SOL     OW29763   2.492   5.217   0.377  0.2722  0.2158 -0.6338
 7498SOL    HW229764   2.515   5.296   0.426 -1.5831  0.6965 -0.4470
 7498SOL    HW329765   2.479   5.248   0.287  1.5946 -0.2873 -1.0240
 7498SOL    MW429766   2.493   5.231   0.371 -0.2420 -0.2474 -0.3374
 7499SOL     OW29767   3.126   4.225   3.610  0.2492  0.3487 -0.2992
 7499SOL    HW229768   3.088   4.149   3.654  0.1101  0.5661 -0.0415
 7499SOL    HW329769   3.213   4.234   3.650 -0.2908  1.2121  0.7459
 7499SOL    MW429770   3.133   4.216   3.621 -0.5071 -0.3587  0.2471
 7500SOL     OW29771   1.987   3.446   2.834 -0.0960  0.3669  0.2878
 7500SOL    HW229772   2.078   3.471   2.854 -0.3471  0.0385  2.0290
 7500SOL    HW329773   1.985   3.437   2.739  1.7720  0.1300  0.2323
 7500SOL    MW429774   1.999   3.448   2.824 -0.1207 -0.2391  0.2034
 7501SOL     OW29775   1.484   1.673   4.617 -0.3016 -0.4310 -0.2061
 7501SOL    HW229776   1.456   1.661   4.526 -1.0838 -1.1664  0.1243
 7501SOL    HW329777   1.404   1.664   4.668  0.1773 -0.2700  0.5850
 7501SOL    MW429778   1.470   1.670   4.612 -0.3239  0.2511  0.3687
 7502SOL     OW29779   4.645   5.351   3.311  0.3571  0.6235 -0.1823
 7502SOL    HW229780   4.565   5.404   3.313  0.1456  0.2970  0.7132
 7502SOL    HW329781   4.691   5.373   3.392  1.1894  0.8155 -0.6945
 7502SOL    MW429782   4.640   5.361   3.322  0.9209  0.1688  1.0893
 7503SOL     OW29783   5.435   0.860   5.488 -0.3088 -0.3254 -0.3428
 7503SOL    HW229784   5.447   0.897   5.401  1.1520 -2.0915 -0.9531
 7503SOL    HW329785   5.514   0.887   5.536 -0.1786 -0.9485 -0.1928
 7503SOL    MW429786   5.447   0.869   5.483  0.6658 -0.6140  0.1695
 7504SOL     OW29787   4.432   5.131   6.137  0.1782 -0.1599  0.1442
 7504SOL    HW229788   4.504   5.193   6.147  0.0013 -0.3383  3.2160
 7504SOL    HW329789   4.355   5.176   6.170 -0.9442 -0.4282 -1.9387
 7504SOL    MW429790   4.432   5.145   6.142  0.2168  0.6874 -0.2308
 7505SOL     OW29791   5.574   0.281   2.986  0.2158 -0.4616 -0.1632
 7505SOL    HW229792   5.562   0.197   3.030 -0.5150  0.4398  1.4599
 7505SOL    HW329793   5.631   0.331   3.045 -1.4650  1.0813  0.2661
 7505SOL    MW429794   5.580   0.276   3.000 -0.2932  0.1646  0.4461
 7506SOL     OW29795   5.000   4.805   0.402  0.3618  0.6707  0.2219
 7506SOL    HW229796   4.998   4.733   0.338 -2.3945  0.2825  0.6416
 7506SOL    HW329797   4.998   4.884   0.348  0.6577  0.3978 -0.2007
 7506SOL    MW429798   4.999   4.806   0.386  0.2359  0.7929  0.1216
 7507SOL     OW29799   4.715   4.383   6.375 -0.1502 -0.0950  0.6455
 7507SOL    HW229800   4.693   4.325   6.302  0.2549 -1.0917  1.2808
 7507SOL    HW329801   4.631   4.405   6.415 -0.2501 -1.2794  1.1400
 7507SOL    MW429802   4.701   4.378   6.371  0.2505 -0.1538  0.3776
 7508SOL     OW29803   3.510   2.119   2.371 -0.5368  0.1478  0.1084
 7508SOL    HW229804   3.595   2.161   2.386 -0.8625  0.1522  2.2528
 7508SOL    HW329805   3.473   2.166   2.297  0.6792  1.1874  0.1301
 7508SOL    MW429806   3.516   2.131   2.363 -0.1544 -0.2814  0.1486
 7509SOL     OW29807   2.024   1.534   4.564  0.5913  0.1429 -0.4119
 7509SOL    HW229808   1.932   1.531   4.538  0.3617 -0.7114  0.4419
 7509SOL    HW329809   2.073   1.531   4.482 -0.1155 -1.7572 -0.8171
 7509SOL    MW429810   2.018   1.533   4.550  0.5743  0.2881 -0.2478
 7510SOL     OW29811   3.507   4.225   3.060 -0.2870 -0.4018 -0.5430
 7510SOL    HW229812   3.574   4.188   3.003 -1.2529 -1.1570 -1.2263
 7510SOL    HW329813   3.486   4.310   3.020  1.4812  0.6991  0.6766
 7510SOL    MW429814   3.513   4.232   3.047 -0.3120  0.3509 -0.6112
 7511SOL     OW29815   0.670   5.629   2.049 -0.0107 -0.3617  0.1228
 7511SOL    HW229816   0.635   5.712   2.081 -0.8116 -0.7068  0.1539
 7511SOL    HW329817   0.761   5.628   2.082  1.0630  1.8722 -2.3883
 7511SOL    MW429818   0.678   5.640   2.058  0.2346 -0.0084  0.1365
 7512SOL     OW29819   5.068   1.760   4.306 -0.1136 -0.5761  0.2607
 7512SOL    HW229820   4.987   1.809   4.293  0.0466 -0.4515 -0.2793
 7512SOL    HW329821   5.045   1.692   4.370 -0.7307 -0.7640 -0.1585
 7512SOL    MW429822   5.055   1.757   4.313 -0.5587  0.3069  0.0243
 7513SOL     OW29823   1.519   1.330   2.107 -0.2152 -0.5063  0.8489
 7513SOL    HW229824   1.428   1.305   2.091  0.0178 -1.4370  0.8918
 7513SOL    HW329825   1.554   1.259   2.161  1.8000 -2.7078 -2.8698
 7513SOL    MW429826   1.512   1.317   2.112  0.3616 -0.0400  0.1408
 7514SOL     OW29827   2.879   4.815   5.652  0.0267 -0.0947  0.1262
 7514SOL    HW229828   2.787   4.789   5.643 -0.3072  1.0964 -0.1061
 7514SOL    HW329829   2.875   4.900   5.696  1.0738 -0.4541  0.9402
 7514SOL    MW429830   2.866   4.823   5.656 -0.2125  0.1345  0.4806
 7515SOL     OW29831   6.094   1.843   2.339 -0.1294 -1.0241 -0.1401
 7515SOL    HW229832   6.002   1.852   2.363 -0.1861 -3.2371  0.7048
 7515SOL    HW329833   6.116   1.925   2.294 -2.5504 -0.5419 -0.5489
 7515SOL    MW429834   6.085   1.855   2.336 -0.4313 -0.1035  0.1240
 7516SOL     OW29835   6.200   3.100   5.358  0.2748 -0.3692  0.3104
 7516SOL    HW229836   6.288   3.062   5.354 -0.2555 -1.6664  0.4581
 7516SOL    HW329837   6.159   3.073   5.276  0.5393  1.6926 -0.5746
 7516SOL    MW429838   6.206   3.092   5.347 -0.0795  0.2040  0.1873
 7517SOL     OW29839   0.279   4.520   5.429  0.5276  0.1731 -0.0949
 7517SOL    HW229840   0.287   4.615   5.445 -0.9673 -0.0221  2.4534
 7517SOL    HW329841   0.324   4.480   5.504 -3.2114 -0.9729  1.8105
 7517SOL    MW429842   0.286   4.527   5.441  0.1550 -0.2222 -0.3692
 7518SOL     OW29843   5.214   6.108   1.260  0.3661  0.5004 -0.2766
 7518SOL    HW229844   5.152   6.165   1.214  0.2699  0.4501 -0.2097
 7518SOL    HW329845   5.182   6.019   1.241 -0.5010  0.5107  1.0434
 7518SOL    MW429846   5.202   6.104   1.251 -0.3478 -0.2014  0.3004
 7519SOL     OW29847   3.903   0.455   1.301 -0.2035  0.2709  0.0581
 7519SOL    HW229848   3.964   0.453   1.374 -0.8933  0.1925  0.6487
 7519SOL    HW329849   3.859   0.370   1.304 -1.3808  0.8740  0.5640
 7519SOL    MW429850   3.905   0.444   1.311 -0.1476  0.2734 -0.0044
 7520SOL     OW29851   4.850   5.055   0.578 -0.5980  0.0549  0.2167
 7520SOL    HW229852   4.780   5.110   0.613  0.4623  2.5606 -1.2583
 7520SOL    HW329853   4.926   5.114   0.572  0.6487 -1.5882 -1.4090
 7520SOL    MW429854   4.851   5.070   0.582  0.9903 -0.4307  0.0410
 7521SOL     OW29855   0.078   4.872   6.079  0.0876 -0.5597 -0.2157
 7521SOL    HW229856   0.058   4.839   6.166  1.2438  2.0398  1.1578
 7521SOL    HW329857   0.065   4.967   6.086  2.0337 -0.0532 -2.3175
 7521SOL    MW429858   0.073   4.880   6.091  0.2282  0.2929 -0.7141
 7522SOL     OW29859   4.957   1.239   3.556  0.1374 -0.0320  0.0360
 7522SOL    HW229860   5.027   1.191   3.511 -0.0460 -0.6954  0.4502
 7522SOL    HW329861   4.962   1.210   3.647 -0.3843  0.2607  0.1611
 7522SOL    MW429862   4.967   1.229   3.562 -0.2527 -0.0535 -0.2135
 7523SOL     OW29863   1.446   0.759   4.953  0.4739 -0.3771 -0.4300
 7523SOL    HW229864   1.391   0.737   4.877 -0.4242 -0.0981  0.1161
 7523SOL    HW329865   1.484   0.844   4.931  0.3191 -0.3602 -0.6370
 7523SOL    MW429866   1.444   0.767   4.940 -0.1762  0.0486 -0.5516
 7524SOL     OW29867   1.246   5.960   3.269 -0.5263  0.7464 -0.0259
 7524SOL    HW229868   1.164   6.009   3.279  0.0488  1.6108  0.5530
 7524SOL    HW329869   1.229   5.875   3.309 -1.1191  0.9472  0.1520
 7524SOL    MW429870   1.233   5.955   3.275 -0.0807  0.4652  0.4412
 7525SOL     OW29871   5.162   5.536   2.308 -0.0444 -0.0614  0.5263
 7525SOL    HW229872   5.247   5.575   2.288  0.3593 -0.7914  0.7906
 7525SOL    HW329873   5.167   5.448   2.272 -0.7436 -0.0696  0.4347
 7525SOL    MW429874   5.174   5.530   2.301 -0.1999 -0.0224 -0.1635
 7526SOL     OW29875   0.990   2.406   2.795 -0.0678 -0.1482  0.2791
 7526SOL    HW229876   0.970   2.485   2.745  1.2054  0.2248  0.3355
 7526SOL    HW329877   0.910   2.353   2.788 -0.2838  0.3346 -1.2885
 7526SOL    MW429878   0.977   2.409   2.788  1.1298 -0.8193  0.4562
 7527SOL     OW29879   3.468   6.415   5.390 -0.1923 -0.0865 -0.5258
 7527SOL    HW229880   3.377   6.385   5.399 -0.0453 -0.2478  0.6150
 7527SOL    HW329881   3.463   6.488   5.328 -1.4287  1.2743  1.0736
 7527SOL    MW429882   3.455   6.421   5.383  0.5473 -0.6012  0.1353
 7528SOL     OW29883   2.852   5.173   1.112  0.0869 -0.0477  0.1887
 7528SOL    HW229884   2.761   5.168   1.142 -0.0931  1.4908 -0.0141
 7528SOL    HW329885   2.900   5.203   1.190  0.5201 -1.3708  0.4458
 7528SOL    MW429886   2.846   5.177   1.127 -0.3060 -0.2705 -0.3739
 7529SOL     OW29887   0.914   4.069   6.151  0.2316 -0.3472 -0.9451
 7529SOL    HW229888   0.840   4.111   6.107 -1.1717 -0.9065  0.7385
 7529SOL    HW329889   0.966   4.031   6.080 -1.9907 -1.3425 -2.1619
 7529SOL    MW429890   0.911   4.069   6.136 -0.1390 -0.3608  0.4828
 7530SOL     OW29891   4.509   0.838   4.606 -0.2132  0.2147  0.2642
 7530SOL    HW229892   4.545   0.894   4.675  0.8515 -0.0122 -0.0870
 7530SOL    HW329893   4.434   0.887   4.572  1.4765  2.0928 -0.9505
 7530SOL    MW429894   4.504   0.852   4.611  0.3745 -0.0596 -0.1285
 7531SOL     OW29895   3.270   2.520   1.568  0.0101  0.0955 -0.1412
 7531SOL    HW229896   3.310   2.460   1.506 -0.9712 -0.4583 -0.2560
 7531SOL    HW329897   3.222   2.583   1.513 -0.8187 -0.3659  0.0376
 7531SOL    MW429898   3.269   2.521   1.553 -0.1179 -0.2384  0.1607
 7532SOL     OW29899   3.099   6.392   0.819 -0.1627  0.0035  0.3527
 7532SOL    HW229900   3.155   6.442   0.878  1.5824 -2.3507  0.8085
 7532SOL    HW329901   3.089   6.448   0.742  2.4203  0.7391  0.4751
 7532SOL    MW429902   3.105   6.406   0.816 -0.2648  0.3237 -0.8556
 7533SOL     OW29903   0.792   5.464   0.177  0.5545 -0.0332 -0.8981
 7533SOL    HW229904   0.765   5.381   0.138 -0.6122  0.1884 -0.6071
 7533SOL    HW329905   0.784   5.528   0.106  1.4940 -0.1634 -1.1341
 7533SOL    MW429906   0.788   5.462   0.162  0.2081  0.1091  0.1563
 7534SOL     OW29907   2.919   6.018   1.090  0.1021  0.2022 -0.6755
 7534SOL    HW229908   2.897   5.992   1.179  0.4696  0.9481 -0.3572
 7534SOL    HW329909   3.005   5.980   1.074  0.1474  0.2823 -0.6216
 7534SOL    MW429910   2.927   6.010   1.100  0.3587  0.3255  0.5469
 7535SOL     OW29911   2.405   2.726   0.656  0.5170 -0.1940  0.6117
 7535SOL    HW229912   2.369   2.694   0.573 -1.7212 -2.1202  2.1929
 7535SOL    HW329913   2.387   2.820   0.655 -0.2174 -0.3218 -0.7227
 7535SOL    MW429914   2.398   2.734   0.645  0.2924 -0.1326  0.5815
 7536SOL     OW29915   1.527   4.128   4.549 -0.1646  0.1694  0.1897
 7536SOL    HW229916   1.533   4.040   4.514  0.8731 -0.0507  0.8599
 7536SOL    HW329917   1.548   4.118   4.642 -2.3516  0.7987  0.7902
 7536SOL    MW429918   1.531   4.115   4.557 -0.4172 -0.2472  0.5634
 7537SOL     OW29919   3.232   6.322   5.469  0.1906  0.4574  0.4575
 7537SOL    HW229920   3.192   6.296   5.552 -0.0264 -0.8255 -0.0320
 7537SOL    HW329921   3.162   6.370   5.423  0.0119  0.3715  0.6371
 7537SOL    MW429922   3.217   6.325   5.474  0.2375  0.1635 -0.3438
 7538SOL     OW29923   4.847   6.089   2.945 -0.1480 -1.0064  1.4064
 7538SOL    HW229924   4.915   6.024   2.928  0.2745  0.0103 -1.3763
 7538SOL    HW329925   4.895   6.171   2.957 -0.7328  0.0845 -2.4016
 7538SOL    MW429926   4.862   6.091   2.944  0.2008  0.0153 -1.0089
 7539SOL     OW29927   3.684   0.975   2.312  0.6846  0.4839  0.0950
 7539SOL    HW229928   3.657   1.043   2.373 -1.2689 -0.0420 -0.1161
 7539SOL    HW329929   3.773   0.952   2.339  0.4653  1.3892  1.7029
 7539SOL    MW429930   3.692   0.981   2.323  0.8291  0.0306 -0.4911
 7540SOL     OW29931   4.240   3.186   4.899 -0.6057 -0.8403 -0.7561
 7540SOL    HW229932   4.160   3.147   4.864 -0.4076  0.3576 -2.6458
 7540SOL    HW329933   4.287   3.218   4.822  0.2624  1.1789  0.5347
 7540SOL    MW429934   4.236   3.185   4.884 -0.2263 -0.1273  0.0614
 7541SOL     OW29935   1.800   1.059   3.896 -0.3428 -0.1636 -0.2227
 7541SOL    HW229936   1.754   1.076   3.979 -2.0087  0.4167 -1.2184
 7541SOL    HW329937   1.834   1.145   3.870  0.0148 -0.3088 -0.2298
 7541SOL    MW429938   1.798   1.073   3.904 -0.4589 -0.2859 -0.0388
 7542SOL     OW29939   1.001   3.379   4.735  0.8959 -0.1734  0.5169
 7542SOL    HW229940   1.010   3.307   4.798 -0.6023  0.7525  1.8443
 7542SOL    HW329941   0.979   3.455   4.788 -0.2975  0.6724 -1.1045
 7542SOL    MW429942   0.999   3.379   4.751 -0.1624 -0.7034  0.5985
 7543SOL     OW29943   1.665   2.406   3.375  0.3182  0.1804 -0.2863
 7543SOL    HW229944   1.621   2.430   3.457  0.4929  0.4670 -0.2722
 7543SOL    HW329945   1.733   2.344   3.401 -1.1952 -1.6421 -0.5323
 7543SOL    MW429946   1.668   2.401   3.390  0.0685  0.4622 -0.0873
 7544SOL     OW29947   4.029   4.329   5.950  0.2134 -0.2284 -0.7515
 7544SOL    HW229948   4.108   4.314   6.001 -0.0992 -2.2270 -0.7740
 7544SOL    HW329949   4.057   4.386   5.878  1.4777 -0.3914 -0.4122
 7544SOL    MW429950   4.043   4.335   5.948  0.0144 -0.2137 -0.4509
 7545SOL     OW29951   4.051   1.618   0.473 -0.3506  0.2467  0.7324
 7545SOL    HW229952   4.119   1.597   0.537  0.0647 -0.9423 -0.0777
 7545SOL    HW329953   3.971   1.583   0.512 -0.1941  0.0226  0.8559
 7545SOL    MW429954   4.049   1.610   0.487  0.0860  0.1711  0.3825
 7546SOL     OW29955   0.749   4.925   0.352 -0.5848 -0.2908  0.1246
 7546SOL    HW229956   0.733   5.013   0.387  0.9198 -0.2107  0.6521
 7546SOL    HW329957   0.705   4.867   0.414  0.9358 -0.0701  1.4625
 7546SOL    MW429958   0.741   4.929   0.365 -0.6859 -0.6385  0.3026
 7547SOL     OW29959   1.873   2.690   5.930  0.2193  0.0149  0.0255
 7547SOL    HW229960   1.958   2.719   5.962 -0.1938  0.5948  0.6249
 7547SOL    HW329961   1.829   2.771   5.903  0.4019 -0.4049 -1.6764
 7547SOL    MW429962   1.879   2.705   5.931  0.2075 -0.5931 -0.2946
 7548SOL     OW29963   5.149   5.135   2.862 -0.0531 -0.3246 -0.0211
 7548SOL    HW229964   5.212   5.076   2.903 -0.0917 -0.4962 -0.2099
 7548SOL    HW329965   5.170   5.221   2.898  1.7389  0.0229 -1.7216
 7548SOL    MW429966   5.160   5.139   2.872  0.0471  0.3364 -0.4616
 7549SOL     OW29967   1.946   4.424   5.222 -0.0928  0.1003  0.2132
 7549SOL    HW229968   1.973   4.336   5.248 -0.5177 -0.6269 -1.6411
 7549SOL    HW329969   1.851   4.424   5.233  0.0645  0.9503  1.8763
 7549SOL    MW429970   1.937   4.412   5.227  0.4465  0.4226 -0.5477
 7550SOL     OW29971   1.920   0.016   1.260 -0.6156  0.5565 -0.2624
 7550SOL    HW229972   1.997  -0.033   1.231 -0.8555 -0.7545  1.1759
 7550SOL    HW329973   1.954   0.082   1.319 -0.5415  0.2200  0.0774
 7550SOL    MW429974   1.934   0.018   1.264  0.7444 -0.4224  0.3717
 7551SOL     OW29975   1.498   6.036   2.427 -0.5116 -0.0894  0.5060
 7551SOL    HW229976   1.547   6.066   2.504 -1.3445  2.1653  0.2597
 7551SOL    HW329977   1.407   6.041   2.454 -0.7251 -2.5044  0.3880
 7551SOL    MW429978   1.493   6.041   2.441 -0.1326  0.3321  0.1125
 7552SOL     OW29979   1.022   1.714   2.694 -0.7895  0.1026 -0.1232
 7552SOL    HW229980   0.985   1.699   2.606 -2.3969 -0.6265  0.6309
 7552SOL    HW329981   0.971   1.656   2.751  0.1600  0.6438  1.3151
 7552SOL    MW429982   1.010   1.704   2.690 -0.1315 -0.6056 -0.3477
 7553SOL     OW29983   4.601   0.025   1.637  0.2981  0.5176 -0.2756
 7553SOL    HW229984   4.597  -0.062   1.597 -1.7863  0.2050  0.4943
 7553SOL    HW329985   4.540   0.078   1.585  0.6575  1.2015 -0.0070
 7553SOL    MW429986   4.593   0.020   1.625  0.1376  0.5298 -0.5349
 7554SOL     OW29987   4.090   1.369   2.886 -0.8403  0.1824  0.7659
 7554SOL    HW229988   4.124   1.280   2.871 -1.5649 -0.2643  1.6474
 7554SOL    HW329989   4.006   1.355   2.929 -0.0110  1.3035  2.9526
 7554SOL    MW429990   4.084   1.355   2.890 -0.0928 -0.6739  0.0316
 7555SOL     OW29991   4.876   2.460   5.327 -0.5191 -0.0327  0.5581
 7555SOL    HW229992   4.849   2.493   5.413 -0.7663  0.6210  0.2362
 7555SOL    HW329993   4.918   2.376   5.346 -0.9367 -0.0942  1.2779
 7555SOL    MW429994   4.878   2.453   5.341 -0.0310 -0.1764 -0.0301
 7556SOL     OW29995   4.669   0.753   0.370 -0.4262  0.5446  0.6011
 7556SOL    HW229996   4.613   0.798   0.433  0.1797  0.1823  1.4195
 7556SOL    HW329997   4.757   0.761   0.406 -0.0436  0.4468 -0.2756
 7556SOL    MW429998   4.673   0.760   0.383 -0.9792 -0.6636 -0.3695
 7557SOL     OW29999   3.430   4.210   5.984  0.1328  0.1105  0.3434
 7557SOL    HW230000   3.421   4.260   5.903 -0.7603  0.3306  0.5771
 7557SOL    HW330001   3.491   4.261   6.037 -1.1020  1.2003  0.7586
 7557SOL    MW430002   3.437   4.223   5.980 -0.5227 -0.3343  0.0205
 7558SOL     OW30003   1.242   0.534   0.725 -0.5995  0.5277  0.5236
 7558SOL    HW230004   1.272   0.551   0.636 -0.6013 -2.3235 -0.1085
 7558SOL    HW330005   1.157   0.579   0.731  0.9020  3.7072  0.3754
 7558SOL    MW430006   1.235   0.542   0.714  0.3565 -0.5778 -0.1657
 7559SOL     OW30007   0.755   3.235   0.414 -0.0545 -0.7308 -0.1007
 7559SOL    HW230008   0.800   3.229   0.498  0.4774 -1.0138 -0.3984
 7559SOL    HW330009   0.823   3.263   0.352 -0.3176 -1.0175 -0.5295
 7559SOL    MW430010   0.770   3.238   0.417 -0.0298 -0.2393 -0.3564
 7560SOL     OW30011   3.657   5.208   0.460  0.1357 -0.2755 -0.7877
 7560SOL    HW230012   3.730   5.268   0.477  0.8240 -1.3859  0.4243
 7560SOL    HW330013   3.643   5.163   0.543 -0.6568 -1.4624 -1.5255
 7560SOL    MW430014   3.665   5.210   0.473 -0.1415  0.1378 -0.3488
 7561SOL     OW30015   1.018   2.214   1.547 -0.4725 -0.0617  0.1740
 7561SOL    HW230016   1.104   2.251   1.526 -1.9405  3.1389 -0.8359
 7561SOL    HW330017   1.010   2.224   1.642 -0.5669  1.7945  0.0076
 7561SOL    MW430018   1.029   2.220   1.557  0.1584 -0.7076  0.3385
 7562SOL     OW30019   5.056   1.012   3.414 -0.5002  0.4616 -0.0625
 7562SOL    HW230020   5.146   1.004   3.384 -0.1244  1.1054  0.8279
 7562SOL    HW330021   5.007   1.040   3.337  0.0288 -0.0359 -0.5900
 7562SOL    MW430022   5.061   1.014   3.400 -0.5766  0.2813  0.0172
 7563SOL     OW30023   2.403   0.338   0.164 -0.2438  0.2487  0.4599
 7563SOL    HW230024   2.423   0.426   0.196 -0.9518  0.9506 -0.9365
 7563SOL    HW330025   2.345   0.352   0.089 -0.3357 -1.4114  0.1781
 7563SOL    MW430026   2.398   0.351   0.158 -0.1302  0.5588 -0.0772
 7564SOL     OW30027   5.789   3.714   4.480  0.3969  0.5103 -0.4022
 7564SOL    HW230028   5.789   3.710   4.576  0.0032  1.7452 -0.3278
 7564SOL    HW330029   5.856   3.652   4.453 -1.6807 -2.3386  0.5236
 7564SOL    MW430030   5.798   3.706   4.489 -0.1504 -0.2573 -0.5460
 7565SOL     OW30031   3.412   0.467   2.244 -0.1978 -0.0904 -0.1087
 7565SOL    HW230032   3.461   0.539   2.284  0.4584 -0.9326  0.6368
 7565SOL    HW330033   3.323   0.477   2.278 -0.4404  1.0775 -0.9854
 7565SOL    MW430034   3.407   0.478   2.253 -0.5454 -0.5639 -0.4121
 7566SOL     OW30035   5.280   1.895   1.070 -0.1762 -0.0016 -0.3607
 7566SOL    HW230036   5.296   1.905   0.976  1.6180  0.2203 -0.0649
 7566SOL    HW330037   5.197   1.940   1.085 -0.5325 -0.1119 -1.8447
 7566SOL    MW430038   5.271   1.903   1.060  0.2561 -0.2258 -0.1204
 7567SOL     OW30039   5.078   0.380   3.499 -0.0005 -0.1403 -0.2681
 7567SOL    HW230040   5.018   0.315   3.463  0.1353 -0.5490  0.2511
 7567SOL    HW330041   5.027   0.426   3.565  0.7632 -1.6626  1.4393
 7567SOL    MW430042   5.064   0.378   3.503 -0.3292 -0.0487  0.2251
 7568SOL     OW30043   0.943   0.808   5.879  0.1982  0.0578  0.1669
 7568SOL    HW230044   0.927   0.748   5.806  1.4731 -1.3032  0.9453
 7568SOL    HW330045   0.924   0.895   5.843 -0.1678 -0.6598 -1.4758
 7568SOL    MW430046   0.939   0.812   5.864  0.1108  0.0430  0.2287
 7569SOL     OW30047   4.188   3.075   0.663 -0.2929  0.0149 -0.3754
 7569SOL    HW230048   4.160   3.052   0.751 -2.0058 -0.0494 -0.9000
 7569SOL    HW330049   4.200   3.170   0.665  0.0847 -0.0377  0.0223
 7569SOL    MW430050   4.186   3.084   0.675 -0.1655  0.2347 -0.7520
 7570SOL     OW30051   4.382   3.081   2.568 -0.2907  0.2078 -0.3432
 7570SOL    HW230052   4.410   3.132   2.492  0.0699  2.1934  1.0434
 7570SOL    HW330053   4.458   3.081   2.626 -1.4100  1.1848  1.2043
 7570SOL    MW430054   4.396   3.088   2.565 -0.4064 -0.0774  0.2744
 7571SOL     OW30055   4.087   6.211   3.891 -0.1881 -0.0281  0.4979
 7571SOL    HW230056   4.061   6.175   3.976 -0.7810  0.0577  0.3580
 7571SOL    HW330057   4.166   6.163   3.868 -1.8864 -2.5605 -0.5096
 7571SOL    MW430058   4.094   6.200   3.899  0.5385 -0.3754 -0.5519
 7572SOL     OW30059   0.637   5.893   2.113 -0.0697 -0.3280  0.1040
 7572SOL    HW230060   0.650   5.937   2.029 -3.2112  0.9865  0.1899
 7572SOL    HW330061   0.609   5.963   2.172 -0.2701 -1.6439  1.6274
 7572SOL    MW430062   0.635   5.908   2.110 -0.1322 -0.3368 -0.0166
 7573SOL     OW30063   2.159   5.363   5.173  0.0103 -0.2588  0.1778
 7573SOL    HW230064   2.248   5.372   5.207  0.3225 -2.0365 -0.0777
 7573SOL    HW330065   2.158   5.277   5.131 -2.1092 -0.7296  1.0628
 7573SOL    MW430066   2.170   5.353   5.172  0.2802  0.3091 -0.5163
 7574SOL     OW30067   4.944   0.796   1.755  0.0687 -0.9138  0.5602
 7574SOL    HW230068   5.023   0.848   1.763  0.2768 -0.7133 -1.9305
 7574SOL    HW330069   4.945   0.738   1.831  1.3359  0.6991  1.8280
 7574SOL    MW430070   4.955   0.795   1.766  0.2071 -0.1979  0.6033
 7575SOL     OW30071   2.019   1.910   0.238  0.2566 -0.3735  0.3705
 7575SOL    HW230072   1.959   1.981   0.219 -0.1994 -1.1604 -1.2814
 7575SOL    HW330073   2.032   1.914   0.333 -1.6614  0.3841  0.6421
 7575SOL    MW430074   2.013   1.920   0.248 -0.1807  0.4346 -0.1767
 7576SOL     OW30075   1.538   3.483   0.288 -0.1933 -0.2690  0.1454
 7576SOL    HW230076   1.573   3.568   0.313  1.4124 -0.4204 -1.4320
 7576SOL    HW330077   1.525   3.489   0.193 -2.0055 -1.1366  0.2822
 7576SOL    MW430078   1.541   3.495   0.279 -0.3726 -0.0462  0.0212
 7577SOL     OW30079   2.166   4.935   3.889 -0.3911  0.5717  0.1928
 7577SOL    HW230080   2.133   4.953   3.801  1.6806 -0.3247 -0.8463
 7577SOL    HW330081   2.203   5.019   3.918  0.8906  0.3512 -0.7379
 7577SOL    MW430082   2.166   4.949   3.882  0.3146  0.2121 -0.3848
 7578SOL     OW30083   1.180   4.998   1.306  0.4590  0.7687 -0.5630
 7578SOL    HW230084   1.139   5.059   1.368 -1.4130 -0.8121 -0.1568
 7578SOL    HW330085   1.131   5.011   1.224  1.2726  1.0823 -1.0104
 7578SOL    MW430086   1.168   5.008   1.303 -0.2302 -0.3648 -0.3266
 7579SOL     OW30087   1.802   5.564   2.460  0.7198  0.0130 -0.1726
 7579SOL    HW230088   1.873   5.541   2.520 -2.5540 -0.3081  4.0564
 7579SOL    HW330089   1.783   5.656   2.479 -1.2070 -0.4505  0.3915
 7579SOL    MW430090   1.808   5.573   2.471 -0.0775  0.4177 -0.0968
 7580SOL     OW30091   4.087   2.424   4.065 -0.2359 -0.2548  0.3267
 7580SOL    HW230092   4.070   2.463   4.151  0.8375  0.9957 -0.0042
 7580SOL    HW330093   4.135   2.343   4.085  0.3083  0.1996  0.8994
 7580SOL    MW430094   4.091   2.418   4.079  0.2017 -0.1907  0.3660
 7581SOL     OW30095   4.619   4.221   1.537  0.0241  0.2172  0.4611
 7581SOL    HW230096   4.573   4.287   1.589 -1.9170 -0.0334 -0.8197
 7581SOL    HW330097   4.606   4.140   1.585  1.0983  0.4892  1.2486
 7581SOL    MW430098   4.611   4.219   1.550  0.7568 -0.5020 -0.1074
 7582SOL     OW30099   4.337   0.591   0.496  0.2501 -0.1287  0.5001
 7582SOL    HW230100   4.330   0.651   0.422  0.4366 -0.8167 -0.0848
 7582SOL    HW330101   4.409   0.626   0.549  1.2348 -0.5624 -0.5247
 7582SOL    MW430102   4.346   0.603   0.493  0.1415 -0.2389  0.4584
 7583SOL     OW30103   5.253   0.059   0.509 -0.3754  0.5563 -0.5413
 7583SOL    HW230104   5.241   0.051   0.414 -0.6569 -0.2503 -0.4472
 7583SOL    HW330105   5.203   0.137   0.533 -1.0901  0.2212 -0.9216
 7583SOL    MW430106   5.245   0.068   0.499 -0.4275  0.5465 -0.0026
 7584SOL     OW30107   5.536   5.924   1.670  0.0731  0.0674  0.3899
 7584SOL    HW230108   5.567   5.891   1.754  0.8129  2.4911  1.1396
 7584SOL    HW330109   5.454   5.969   1.690 -0.2841 -0.2112 -0.3857
 7584SOL    MW430110   5.529   5.925   1.683  1.0169 -0.2741  0.1016
 7585SOL     OW30111   5.762   3.277   4.396 -0.2272  0.0941  0.1704
 7585SOL    HW230112   5.851   3.312   4.401 -0.0850 -0.3709  1.0702
 7585SOL    HW330113   5.769   3.188   4.429 -1.0250  0.0464  0.2332
 7585SOL    MW430114   5.775   3.270   4.401 -0.5538 -0.2042  0.1122
 7586SOL     OW30115   3.911   6.371   2.239  0.2797 -0.7646 -0.3552
 7586SOL    HW230116   3.934   6.457   2.206  1.4159 -0.4087  1.2679
 7586SOL    HW330117   3.939   6.310   2.170  0.7311  0.0640 -0.9138
 7586SOL    MW430118   3.917   6.374   2.225  0.4078  0.5427  0.5381
 7587SOL     OW30119   4.058   3.443   4.061  0.2316  0.3033 -0.2151
 7587SOL    HW230120   4.112   3.517   4.036  0.9530  0.0542  0.5433
 7587SOL    HW330121   4.054   3.388   3.982  0.3488  0.7543 -0.5380
 7587SOL    MW430122   4.065   3.445   4.047 -0.0313  0.0998  0.4707
 7588SOL     OW30123   1.012   4.738   0.963  0.2751 -0.0431  0.5300
 7588SOL    HW230124   1.008   4.724   1.058 -1.7322 -0.5238  0.4274
 7588SOL    HW330125   0.921   4.748   0.937  0.9070  2.0930 -1.1023
 7588SOL    MW430126   1.000   4.737   0.972  0.0560  0.2548  0.5181
 7589SOL     OW30127   5.959   5.015   3.255  0.7106  0.3913 -0.0351
 7589SOL    HW230128   5.878   5.067   3.263  1.2134  0.9864  1.9436
 7589SOL    HW330129   5.955   4.955   3.329  0.1182 -2.5730 -2.2977
 7589SOL    MW430130   5.948   5.014   3.266 -0.2356  0.2052 -0.6768
 7590SOL     OW30131   3.944   1.906   0.713  0.3583 -0.2569 -0.0129
 7590SOL    HW230132   4.005   1.920   0.640  0.2074  0.4620 -0.0020
 7590SOL    HW330133   3.974   1.824   0.753  0.2689 -0.8323 -1.0618
 7590SOL    MW430134   3.956   1.897   0.708 -0.1999  0.0160 -0.5886
 7591SOL     OW30135   3.343   4.922   4.527  0.2965  0.4217 -0.5821
 7591SOL    HW230136   3.365   4.896   4.616 -2.3594 -0.4238 -0.0860
 7591SOL    HW330137   3.322   5.015   4.533 -2.0194 -0.1026  0.1941
 7591SOL    MW430138   3.344   4.930   4.539 -0.0923  0.1045  0.2858
 7592SOL     OW30139   4.425   2.007   6.107 -0.2742 -0.3847 -0.4963
 7592SOL    HW230140   4.418   2.026   6.200  0.0520 -0.4054 -0.4696
 7592SOL    HW330141   4.381   1.923   6.096  0.8953 -1.0614 -0.1396
 7592SOL    MW430142   4.418   1.999   6.117 -0.2760 -0.3261  0.0550
 7593SOL     OW30143   3.042   1.781   2.888 -0.3954  0.6724 -0.0363
 7593SOL    HW230144   3.073   1.841   2.955 -0.1497  0.9253 -0.3684
 7593SOL    HW330145   3.055   1.829   2.806 -2.3451  1.0691 -0.1442
 7593SOL    MW430146   3.048   1.795   2.886  0.3176  0.1611 -0.3866
 7594SOL     OW30147   3.302   5.967   6.004  0.0838 -0.5052  0.3823
 7594SOL    HW230148   3.388   5.941   6.035  0.0046 -0.8927  0.2885
 7594SOL    HW330149   3.297   5.932   5.915  1.8509  3.8705 -1.7501
 7594SOL    MW430150   3.312   5.959   5.996 -0.0150  0.2804 -0.0114
 7595SOL     OW30151   5.582   5.857   1.408  0.0215  0.1737  0.4871
 7595SOL    HW230152   5.538   5.886   1.488  1.2908  0.0486  1.2640
 7595SOL    HW330153   5.521   5.794   1.369 -0.5310  0.0775  1.4684
 7595SOL    MW430154   5.568   5.852   1.413  0.0088  0.5564 -0.0492
 7596SOL     OW30155   2.204   2.252   2.267  0.1424 -0.0611  0.4223
 7596SOL    HW230156   2.172   2.275   2.354  0.3102  0.8105  0.2620
 7596SOL    HW330157   2.161   2.169   2.247 -1.3744  0.6375  0.5765
 7596SOL    MW430158   2.194   2.244   2.276 -0.8387  0.3844  0.0340
 7597SOL     OW30159   0.913   3.034   3.981 -0.2505  0.4014  0.3245
 7597SOL    HW230160   0.958   3.024   3.897 -1.8044  1.5079 -0.7111
 7597SOL    HW330161   0.935   3.123   4.009  0.3715 -0.0100  1.1951
 7597SOL    MW430162   0.922   3.045   3.973  0.1078 -0.1964 -0.0961
 7598SOL     OW30163   2.696   2.082   0.314 -0.2101  0.0681  0.0664
 7598SOL    HW230164   2.670   2.130   0.236  1.4363  0.3072 -0.3740
 7598SOL    HW330165   2.766   2.023   0.284 -0.8390 -1.2084  0.9857
 7598SOL    MW430166   2.702   2.080   0.300 -0.5518  0.0335 -0.1582
 7599SOL     OW30167   2.431   0.037   2.985  0.2627 -0.6043 -0.0704
 7599SOL    HW230168   2.351  -0.004   2.952  0.3229 -1.2600  0.5744
 7599SOL    HW330169   2.501  -0.022   2.957  0.5756  0.2080 -1.0340
 7599SOL    MW430170   2.430   0.024   2.977 -0.3061 -0.6971  0.2900
 7600SOL     OW30171   6.055   4.759   1.521 -0.0017  0.1737 -0.3573
 7600SOL    HW230172   6.008   4.829   1.475  1.7561  0.5462 -1.6990
 7600SOL    HW330173   6.096   4.709   1.451  0.1173 -1.2266  0.6868
 7600SOL    MW430174   6.054   4.762   1.506  0.4184  0.2468 -0.2905
 7601SOL     OW30175   4.914   2.299   0.114  0.0350 -0.5333  0.3150
 7601SOL    HW230176   4.935   2.287   0.022  1.2307 -1.6584  0.7203
 7601SOL    HW330177   4.866   2.382   0.116 -2.4558 -1.7732 -1.6702
 7601SOL    MW430178   4.910   2.309   0.102  0.3588  0.5717  0.0770
 7602SOL     OW30179   3.659   3.625   4.920 -0.0811  0.3273 -0.6919
 7602SOL    HW230180   3.714   3.592   4.990  0.0362 -1.4400 -1.5699
 7602SOL    HW330181   3.570   3.602   4.946 -0.1924  1.0859 -0.3853
 7602SOL    MW430182   3.654   3.618   4.933 -0.3195 -0.5128 -0.1035
 7603SOL     OW30183   0.317   3.678   0.809  0.0997 -0.5136  0.3975
 7603SOL    HW230184   0.305   3.610   0.743 -0.6789  1.3231 -1.4710
 7603SOL    HW330185   0.299   3.634   0.893 -0.4210 -2.5591 -0.7144
 7603SOL    MW430186   0.313   3.663   0.812  0.7432 -0.1529 -0.4055
 7604SOL     OW30187   0.923   0.055   6.188  0.4224  0.4737 -0.0604
 7604SOL    HW230188   0.846   0.070   6.243 -0.6822 -1.3201 -1.0216
 7604SOL    HW330189   0.987   0.016   6.248  0.2198  1.0296  0.5313
 7604SOL    MW430190   0.921   0.052   6.203 -0.5382  0.2226 -0.0303
 7605SOL     OW30191   4.428   0.682   5.418 -0.4848 -0.8611 -0.2651
 7605SOL    HW230192   4.400   0.626   5.491  0.6665 -1.2116 -0.0661
 7605SOL    HW330193   4.407   0.631   5.340 -3.4471  0.2828 -0.3387
 7605SOL    MW430194   4.422   0.667   5.418 -0.2552  0.0645  0.3351
 7606SOL     OW30195   2.742   6.038   5.017 -0.4884 -0.2809  0.1999
 7606SOL    HW230196   2.800   6.113   5.034 -2.4857  1.1731  1.0543
 7606SOL    HW330197   2.783   5.992   4.944  1.4849  0.9171  0.4745
 7606SOL    MW430198   2.755   6.042   5.010 -0.1361 -0.1449  0.1769
 7607SOL     OW30199   2.318   5.003   4.870 -0.1494 -0.0200  0.5580
 7607SOL    HW230200   2.229   5.002   4.835 -0.5892  1.0297  1.5849
 7607SOL    HW330201   2.357   4.921   4.839 -1.0690  0.0575 -0.8955
 7607SOL    MW430202   2.312   4.992   4.861  0.4356  0.2455  0.1176
 7608SOL     OW30203   2.985   2.652   3.343  1.2116 -0.1894 -0.3410
 7608SOL    HW230204   2.984   2.562   3.376 -0.5499  0.0670  0.4270
 7608SOL    HW330205   2.969   2.644   3.249 -0.4813 -0.6523 -0.0504
 7608SOL    MW430206   2.983   2.639   3.335 -0.8630 -0.2717 -0.0224
 7609SOL     OW30207   4.036   1.236   0.886 -0.1766 -0.8523 -0.0650
 7609SOL    HW230208   4.115   1.236   0.832 -0.6188 -0.9861 -0.7338
 7609SOL    HW330209   3.965   1.250   0.823 -0.6761 -0.6574  0.5356
 7609SOL    MW430210   4.037   1.238   0.871 -0.5454  0.0517 -0.6130
 7610SOL     OW30211   2.510   4.530   0.661  0.0199 -0.3863 -0.3873
 7610SOL    HW230212   2.522   4.464   0.729 -1.2138 -0.0158  0.2159
 7610SOL    HW330213   2.599   4.553   0.634  0.4863 -1.8089 -0.1513
 7610SOL    MW430214   2.523   4.524   0.667  0.1834  0.2083  0.2999
 7611SOL     OW30215   1.457   2.162   4.329  0.0189  0.2675  0.0989
 7611SOL    HW230216   1.534   2.107   4.317  0.6205  0.9806  0.5673
 7611SOL    HW330217   1.457   2.220   4.253 -1.9027 -1.8074 -1.6055
 7611SOL    MW430218   1.468   2.162   4.317  0.3296  0.4575  0.1430
 7612SOL     OW30219   3.870   6.400   3.781  0.2850 -0.2925 -0.0802
 7612SOL    HW230220   3.913   6.314   3.776 -1.8973 -1.4142 -3.8925
 7612SOL    HW330221   3.778   6.380   3.799 -0.2447  1.2299 -0.8979
 7612SOL    MW430222   3.864   6.386   3.782  0.0640  0.1996 -0.0580
 7613SOL     OW30223   1.439   5.085   1.234  0.2747  0.2137 -1.2143
 7613SOL    HW230224   1.494   5.063   1.309 -0.3082  2.5063  0.0042
 7613SOL    HW330225   1.350   5.066   1.263  0.0629  0.9043 -1.3718
 7613SOL    MW430226   1.434   5.080   1.248 -0.6855  0.6950  0.2994
 7614SOL     OW30227   4.068   0.952   1.324  0.2375 -0.1981 -0.2118
 7614SOL    HW230228   4.075   0.953   1.229 -1.3625 -0.3242 -0.3644
 7614SOL    HW330229   4.100   0.866   1.350 -1.1455 -0.9415 -0.8517
 7614SOL    MW430230   4.073   0.941   1.315  0.0106 -0.0122 -0.5667
 7615SOL     OW30231   4.242   6.058   6.169  0.0465  0.3821 -0.2535
 7615SOL    HW230232   4.224   6.131   6.229 -2.4717 -0.3323  0.0062
 7615SOL    HW330233   4.155   6.029   6.141  0.9437 -2.5060 -0.3753
 7615SOL    MW430234   4.228   6.064   6.173  0.3643  0.0813 -0.7898
 7616SOL     OW30235   1.530   3.920   3.259  0.7841  0.5764  0.8400
 7616SOL    HW230236   1.469   3.944   3.328 -1.1583 -0.3267 -0.4510
 7616SOL    HW330237   1.474   3.896   3.185  2.6438 -2.1800  0.1746
 7616SOL    MW430238   1.514   3.920   3.258  0.0433 -0.3242 -0.4997
 7617SOL     OW30239   5.683   1.290   3.842 -0.2420 -0.9087  0.5323
 7617SOL    HW230240   5.674   1.239   3.762  1.1482 -0.5357  0.1070
 7617SOL    HW330241   5.609   1.350   3.842 -1.6243 -2.5521  0.7828
 7617SOL    MW430242   5.672   1.291   3.832 -0.4768  0.2245 -0.1949
 7618SOL     OW30243   4.863   0.603   0.802 -0.2106 -0.0810 -0.8657
 7618SOL    HW230244   4.881   0.556   0.721  0.7482 -1.1227 -0.0792
 7618SOL    HW330245   4.897   0.692   0.787  0.1616 -0.3318 -1.5215
 7618SOL    MW430246   4.870   0.609   0.789 -1.0275  0.1581 -0.0502
 7619SOL     OW30247   0.709   3.312   4.201 -0.2799  0.1311  0.4048
 7619SOL    HW230248   0.690   3.236   4.256 -1.7597 -0.0344 -0.2949
 7619SOL    HW330249   0.785   3.353   4.242 -0.3014 -0.9490  1.5757
 7619SOL    MW430250   0.717   3.308   4.214 -0.9420 -0.1793  0.6495
 7620SOL     OW30251   6.069   1.794   5.717 -0.0950 -0.3685 -0.3070
 7620SOL    HW230252   6.085   1.742   5.638 -0.0856 -1.2935  0.2772
 7620SOL    HW330253   6.019   1.870   5.687  0.2711 -0.4877 -1.2586
 7620SOL    MW430254   6.065   1.797   5.702  0.8111  0.1202  0.0002
 7621SOL     OW30255   0.050   1.075   2.531 -0.1953 -0.3253  0.1851
 7621SOL    HW230256   0.108   1.047   2.603  1.0594  0.8335 -0.3203
 7621SOL    HW330257  -0.022   1.120   2.575  0.4015  0.1047  0.7511
 7621SOL    MW430258   0.048   1.077   2.546  0.0236 -0.0819 -0.0468
 7622SOL     OW30259   4.977   5.781   6.048 -0.4017  0.3257  1.1151
 7622SOL    HW230260   5.029   5.854   6.015 -0.9621  0.3776  0.3154
 7622SOL    HW330261   4.903   5.822   6.092  0.0525  0.2468  1.9824
 7622SOL    MW430262   4.974   5.796   6.049 -0.3468  0.0950  0.6060
 7623SOL     OW30263   0.850   3.659   2.096  0.6731 -0.0560 -0.4192
 7623SOL    HW230264   0.921   3.667   2.160  2.7535 -1.5427 -2.3707
 7623SOL    HW330265   0.792   3.593   2.134  1.6622 -0.6393  0.1380
 7623SOL    MW430266   0.852   3.651   2.110  0.3739 -0.1348 -0.3958
 7624SOL     OW30267   4.555   1.936   2.370 -0.3525 -0.0955  0.0997
 7624SOL    HW230268   4.628   1.983   2.409 -0.4526  0.8062 -0.7511
 7624SOL    HW330269   4.535   1.985   2.290 -1.2674 -0.8784 -0.1730
 7624SOL    MW430270   4.562   1.949   2.364 -0.7139 -0.1309  0.5852
 7625SOL     OW30271   3.933   0.751   4.799  0.0341 -0.1374  0.4669
 7625SOL    HW230272   3.900   0.698   4.727  1.0860  1.4963 -1.3239
 7625SOL    HW330273   4.027   0.733   4.801 -0.0397 -0.4796  1.7417
 7625SOL    MW430274   3.941   0.742   4.790 -0.4759  0.4229  0.5849
 7626SOL     OW30275   0.383   3.549   2.078 -0.3184 -0.2011 -0.3330
 7626SOL    HW230276   0.359   3.512   2.162  0.2440 -0.6699 -0.3728
 7626SOL    HW330277   0.403   3.641   2.096  0.1600 -0.3877  0.1171
 7626SOL    MW430278   0.383   3.556   2.091 -0.2160  0.1970  0.2571
 7627SOL     OW30279   5.998   2.034   6.346  0.4442  0.1182  0.0130
 7627SOL    HW230280   5.908   2.014   6.372  0.6683  0.5665  1.2114
 7627SOL    HW330281   5.990   2.082   6.264 -0.5827  2.1940  1.2525
 7627SOL    MW430282   5.985   2.038   6.339 -0.1823 -0.2076  0.2894
 7628SOL     OW30283   0.729   0.442   4.275 -0.5924  0.1789  0.2898
 7628SOL    HW230284   0.661   0.497   4.313  0.9155  1.7567  0.8475
 7628SOL    HW330285   0.768   0.397   4.351  0.6623  1.2904  0.3419
 7628SOL    MW430286   0.725   0.443   4.290  0.2040 -0.3375 -0.1801
 7629SOL     OW30287   0.977   5.138   4.690 -0.2751  0.1874  0.4589
 7629SOL    HW230288   0.929   5.072   4.740 -0.3521  0.2093  0.4141
 7629SOL    HW330289   0.999   5.095   4.608 -1.8985  0.7862 -0.3295
 7629SOL    MW430290   0.973   5.124   4.686 -0.2263  0.1898  0.1297
 7630SOL     OW30291   4.636   1.996   2.676 -0.2892  0.6723  0.3575
 7630SOL    HW230292   4.659   1.950   2.757 -0.3865  0.9499  0.5460
 7630SOL    HW330293   4.543   1.976   2.663  0.1537 -0.8808 -0.6884
 7630SOL    MW430294   4.627   1.987   2.685 -0.0118 -0.3658 -0.1754
 7631SOL     OW30295   3.344   1.400   1.658  0.1274 -0.2625  0.3819
 7631SOL    HW230296   3.425   1.451   1.656 -1.8274  3.1546  0.8523
 7631SOL    HW330297   3.283   1.449   1.603 -2.1990 -1.6222  1.5593
 7631SOL    MW430298   3.347   1.413   1.650  0.0907  0.1476  0.4310
 7632SOL     OW30299   5.053   1.283   1.371  0.2817 -0.3447  0.2884
 7632SOL    HW230300   5.057   1.379   1.375  0.6379 -0.1754 -2.1770
 7632SOL    HW330301   4.994   1.258   1.442  0.0896  1.7159  0.9175
 7632SOL    MW430302   5.045   1.293   1.381  0.5467  0.3316 -0.1651
 7633SOL     OW30303   2.800   0.553   5.054  0.9044 -0.4064 -0.2985
 7633SOL    HW230304   2.862   0.626   5.043 -1.6054  1.6657 -1.6834
 7633SOL    HW330305   2.813   0.499   4.977  2.4749 -1.2968  0.5244
 7633SOL    MW430306   2.810   0.556   5.043  0.0500 -0.0051 -0.2250
 7634SOL     OW30307   4.009   5.162   1.517  0.4387  0.4681  0.9922
 7634SOL    HW230308   4.078   5.174   1.452 -1.4755  1.7069 -0.9572
 7634SOL    HW330309   4.022   5.232   1.581  1.6269 -0.0135  1.2939
 7634SOL    MW430310   4.020   5.173   1.517  0.2123  0.1983 -0.7549
 7635SOL     OW30311   3.445   1.659   0.555  0.6377  0.4105 -0.5070
 7635SOL    HW230312   3.494   1.611   0.621  0.2793  2.7274  1.5899
 7635SOL    HW330313   3.497   1.737   0.537 -0.6681  1.2704 -0.7504
 7635SOL    MW430314   3.458   1.663   0.561  0.6144 -0.0983  0.5669
 7636SOL     OW30315   0.826   5.726   5.651 -0.3941 -0.3233  0.4760
 7636SOL    HW230316   0.852   5.707   5.560  2.4017  1.4772  0.7684
 7636SOL    HW330317   0.819   5.821   5.655  1.4646 -0.1812  2.5148
 7636SOL    MW430318   0.829   5.736   5.639  0.0464 -0.6652  0.0384
 7637SOL     OW30319   3.391   0.848   1.508 -0.2756  0.0371 -0.2239
 7637SOL    HW230320   3.478   0.884   1.526 -1.1778  2.4035 -0.1809
 7637SOL    HW330321   3.350   0.840   1.594 -0.2704 -0.6635 -0.2809
 7637SOL    MW430322   3.397   0.852   1.521 -0.2437  0.4131 -0.0110
 7638SOL     OW30323   2.206   3.329   4.333 -0.3085 -0.1483 -0.0846
 7638SOL    HW230324   2.152   3.256   4.362 -0.2930 -0.1465 -0.0512
 7638SOL    HW330325   2.251   3.296   4.255 -0.2874 -0.1809 -0.0589
 7638SOL    MW430326   2.205   3.315   4.327  0.4060 -0.5990  0.0760
 7639SOL     OW30327   3.919   3.975   2.479 -0.5947  0.4777  0.2675
 7639SOL    HW230328   3.916   3.961   2.574  1.0736 -0.6491  0.2088
 7639SOL    HW330329   3.877   3.897   2.442 -1.8564  1.2317  0.0653
 7639SOL    MW430330   3.913   3.963   2.487 -0.2342  0.0575  0.2213
 7640SOL     OW30331   3.290   2.527   0.134  0.7644  0.1221 -0.2195
 7640SOL    HW230332   3.385   2.518   0.137  0.9955  0.9025 -2.8301
 7640SOL    HW330333   3.270   2.540   0.041 -1.8775  0.2565  0.2932
 7640SOL    MW430334   3.300   2.527   0.122 -0.0584 -0.3681  0.0114
 7641SOL     OW30335   5.230   5.883   2.003 -0.1660 -0.6676 -0.0072
 7641SOL    HW230336   5.259   5.974   2.003 -0.4739 -0.5510  1.3219
 7641SOL    HW330337   5.297   5.836   1.954  0.1298  0.2239 -0.4724
 7641SOL    MW430338   5.242   5.888   1.996 -0.0643 -0.7122 -0.0364
 7642SOL     OW30339   2.781   4.638   0.294  0.1915 -0.1050 -0.6737
 7642SOL    HW230340   2.873   4.662   0.280 -0.1910  1.5277 -0.5734
 7642SOL    HW330341   2.777   4.611   0.386  0.5548 -0.0816 -0.6501
 7642SOL    MW430342   2.793   4.637   0.304  0.3386 -0.3464  0.0409
 7643SOL     OW30343   0.674   2.889   1.245  0.4233  0.2394 -0.3824
 7643SOL    HW230344   0.715   2.804   1.261  0.0420  0.0731 -0.2728
 7643SOL    HW330345   0.743   2.953   1.263  1.0402 -0.0856 -1.5206
 7643SOL    MW430346   0.688   2.887   1.250  0.0579 -0.2754 -0.3218
 7644SOL     OW30347   2.304   3.202   2.628 -0.2366  0.2526 -0.3012
 7644SOL    HW230348   2.297   3.209   2.533  1.2661  1.8175 -0.3456
 7644SOL    HW330349   2.213   3.198   2.659 -0.7364 -0.9676 -1.8068
 7644SOL    MW430350   2.291   3.202   2.620  0.2349 -0.3298  0.5811
 7645SOL     OW30351   1.819   3.262   4.322  0.8824  0.8979 -0.0130
 7645SOL    HW230352   1.882   3.310   4.269 -0.7983  2.0279 -1.0560
 7645SOL    HW330353   1.785   3.194   4.264 -0.2592  1.5245 -0.1042
 7645SOL    MW430354   1.823   3.259   4.308 -0.2056 -0.6606  0.2409
 7646SOL     OW30355   5.059   2.805   0.592 -0.4638 -0.5112  0.8016
 7646SOL    HW230356   5.087   2.895   0.575 -0.7302 -0.7242 -0.9562
 7646SOL    HW330357   4.973   2.814   0.633 -1.7899  0.0762 -1.8837
 7646SOL    MW430358   5.051   2.818   0.595 -0.0088  0.0834 -0.2164
 7647SOL     OW30359   1.095   5.874   4.595 -0.0693  0.1857  0.1215
 7647SOL    HW230360   1.140   5.797   4.560  0.4920  0.2078  0.7689
 7647SOL    HW330361   1.056   5.916   4.519  0.9498  0.1358 -0.4451
 7647SOL    MW430362   1.096   5.869   4.581  0.4733 -0.1296 -0.3097
 7648SOL     OW30363   6.149   2.841   1.460 -0.0979  0.0885  0.6198
 7648SOL    HW230364   6.167   2.843   1.366  0.4804  0.6769  0.7362
 7648SOL    HW330365   6.126   2.931   1.483 -1.6314 -0.3017  0.7984
 7648SOL    MW430366   6.148   2.853   1.451  0.5672 -0.1304  0.6444
 7649SOL     OW30367   3.507   2.977   2.940 -1.0521  0.4821  0.1222
 7649SOL    HW230368   3.511   3.045   2.872 -1.6380  0.2053 -0.1951
 7649SOL    HW330369   3.507   2.895   2.892  0.1002  0.2309  0.5251
 7649SOL    MW430370   3.508   2.975   2.925  0.1824  0.2236 -0.1217
 7650SOL     OW30371   2.779   1.737   3.878 -0.3308  0.0693 -0.2377
 7650SOL    HW230372   2.699   1.691   3.855 -0.4522 -1.2054  2.3066
 7650SOL    HW330373   2.844   1.668   3.891  0.5487  0.9015 -0.0341
 7650SOL    MW430374   2.777   1.722   3.877  0.0527  0.0306 -0.2668
 7651SOL     OW30375   1.295   2.616   6.381  0.6686 -0.0790  0.7530
 7651SOL    HW230376   1.329   2.602   6.469  1.6171  0.2824  0.4615
 7651SOL    HW330377   1.373   2.622   6.326  0.1068 -2.3774 -0.4670
 7651SOL    MW430378   1.310   2.615   6.385 -0.4402  0.3817 -0.0439
 7652SOL     OW30379   6.284   1.522   1.995  0.5511  0.2313  1.0009
 7652SOL    HW230380   6.238   1.579   2.058  0.5778 -0.8489  2.0340
 7652SOL    HW330381   6.243   1.542   1.911  1.7376  3.0688  0.9599
 7652SOL    MW430382   6.272   1.532   1.992  0.1506  0.2420 -0.6545
 7653SOL     OW30383   5.479   4.810   2.750  0.4815 -0.1793  0.1410
 7653SOL    HW230384   5.440   4.762   2.823  0.5821  1.6650  1.4871
 7653SOL    HW330385   5.421   4.886   2.739  0.2282 -0.6329 -2.0143
 7653SOL    MW430386   5.466   4.814   2.758  0.7359  0.3010  0.2588
 7654SOL     OW30387   1.035   5.543   0.502  0.4993  0.2888 -0.4638
 7654SOL    HW230388   0.964   5.607   0.506 -0.9957 -1.1469 -2.1920
 7654SOL    HW330389   1.082   5.553   0.585 -0.6975  2.4244  0.0118
 7654SOL    MW430390   1.032   5.553   0.513  0.0351 -0.0796  0.2719
 7655SOL     OW30391   5.548   0.674   0.390 -0.2055 -0.2287  0.2766
 7655SOL    HW230392   5.571   0.767   0.392  0.9174 -0.4389 -1.0219
 7655SOL    HW330393   5.484   0.664   0.460  2.9442  0.5998  3.5931
 7655SOL    MW430394   5.543   0.685   0.399  0.1419 -0.1483 -0.5814
 7656SOL     OW30395   2.186   4.389   4.264  0.9576  0.4155 -0.1509
 7656SOL    HW230396   2.201   4.454   4.195 -0.5922  0.9767  0.0070
 7656SOL    HW330397   2.091   4.381   4.269  0.9463  1.1747  2.6140
 7656SOL    MW430398   2.176   4.397   4.255  0.3434 -0.2418 -0.5592
 7657SOL     OW30399   1.142   2.075   1.128  0.2902 -0.0372  0.1246
 7657SOL    HW230400   1.151   2.029   1.045  0.0513 -0.3604  0.2770
 7657SOL    HW330401   1.047   2.090   1.137  0.3482  0.3098  0.1678
 7657SOL    MW430402   1.130   2.071   1.118  0.1110 -0.1668 -0.2646
 7658SOL     OW30403   2.181   2.812   3.696  0.2891 -0.0099 -0.1941
 7658SOL    HW230404   2.185   2.905   3.718 -1.1432 -0.3410  1.6943
 7658SOL    HW330405   2.094   2.801   3.657  0.0784 -0.7064  0.4498
 7658SOL    MW430406   2.170   2.823   3.693  0.4017  0.0727  0.0805
 7659SOL     OW30407   0.787   5.845   0.896  0.3418 -0.2734 -0.5417
 7659SOL    HW230408   0.754   5.923   0.852  0.9549  0.2787 -0.0312
 7659SOL    HW330409   0.880   5.844   0.877  1.1274  1.2638  2.5501
 7659SOL    MW430410   0.795   5.855   0.888 -0.2365 -0.3486 -0.1243
 7660SOL     OW30411   1.400   6.041   3.869  0.2544  0.1604 -0.2807
 7660SOL    HW230412   1.336   6.108   3.843  0.9721  0.6521 -0.8180
 7660SOL    HW330413   1.377   5.964   3.817  0.6253  0.6035 -1.1115
 7660SOL    MW430414   1.388   6.040   3.859  0.1312 -0.0144  0.6184
 7661SOL     OW30415   2.598   5.637   5.634  1.0175 -0.3425 -0.0062
 7661SOL    HW230416   2.541   5.656   5.559 -0.8900 -1.1778  1.1899
 7661SOL    HW330417   2.683   5.675   5.609 -0.3757  2.1620 -1.2630
 7661SOL    MW430418   2.602   5.644   5.620 -0.2431  0.0358 -0.3498
 7662SOL     OW30419   3.766   0.171   2.713 -0.4726  0.4026 -0.3933
 7662SOL    HW230420   3.792   0.119   2.789  1.2136 -0.2260 -1.3420
 7662SOL    HW330421   3.813   0.131   2.639 -0.1786  2.4290 -1.3790
 7662SOL    MW430422   3.776   0.159   2.713  0.0572  0.2438 -0.1100
 7663SOL     OW30423   0.902   0.233   4.155  0.5020 -0.2760  0.0767
 7663SOL    HW230424   0.866   0.322   4.157  1.0584 -0.0284 -0.4893
 7663SOL    HW330425   0.983   0.242   4.105  0.1774 -1.2393 -0.6460
 7663SOL    MW430426   0.908   0.246   4.149 -0.0806  0.3513 -0.5608
 7664SOL     OW30427   4.284   5.790   2.434  0.2802  0.0038 -0.0583
 7664SOL    HW230428   4.376   5.766   2.427  0.2395 -0.3799  0.5946
 7664SOL    HW330429   4.237   5.707   2.426 -0.1272  0.3745 -2.0545
 7664SOL    MW430430   4.290   5.776   2.432 -0.5820 -0.5097 -0.1039
 7665SOL     OW30431   3.154   6.044   5.377  0.3602  0.4544 -0.0503
 7665SOL    HW230432   3.224   5.981   5.394  0.7293  0.3438 -1.8561
 7665SOL    HW330433   3.196   6.130   5.387  0.8127  0.3882 -1.2543
 7665SOL    MW430434   3.169   6.047   5.381 -0.0156 -0.0440 -0.2801
 7666SOL     OW30435   1.152   6.120   2.424 -0.3318  0.0591  0.4842
 7666SOL    HW230436   1.080   6.087   2.478  0.1651  0.3579  1.3483
 7666SOL    HW330437   1.120   6.113   2.334 -0.8112 -1.3752  0.7333
 7666SOL    MW430438   1.138   6.115   2.419  0.2598  0.0450 -0.4827
 7667SOL     OW30439   1.797   4.368   1.965 -0.0003  0.4496  0.2229
 7667SOL    HW230440   1.812   4.351   1.871 -0.5277 -0.8550  0.3613
 7667SOL    HW330441   1.742   4.446   1.966 -0.7995 -0.0750 -0.6100
 7667SOL    MW430442   1.792   4.376   1.952  0.1627 -0.5337 -0.4705
 7668SOL     OW30443   4.761   6.262   1.857  0.3634 -0.2690 -0.4078
 7668SOL    HW230444   4.775   6.171   1.884 -3.8701 -1.4814 -1.5285
 7668SOL    HW330445   4.741   6.308   1.938  1.2835 -0.5822  0.0161
 7668SOL    MW430446   4.760   6.256   1.871 -0.0890 -0.0845 -0.5604
 7669SOL     OW30447   4.076   2.527   0.378 -0.0513 -0.2577  0.1099
 7669SOL    HW230448   4.041   2.615   0.365 -1.6014 -0.6949  1.1136
 7669SOL    HW330449   4.127   2.533   0.459 -1.3185 -0.5815  0.9547
 7669SOL    MW430450   4.078   2.539   0.387 -0.1321  0.0583  0.4649
 7670SOL     OW30451   1.075   5.704   3.119 -0.4158  0.3216 -0.1249
 7670SOL    HW230452   1.042   5.732   3.204 -0.6163 -0.5647  0.0948
 7670SOL    HW330453   1.126   5.625   3.137  0.0786  0.4850 -0.7446
 7670SOL    MW430454   1.078   5.698   3.133 -0.1168 -0.0390  0.2235
 7671SOL     OW30455   3.268   5.299   0.454  0.0881  0.3322  0.3444
 7671SOL    HW230456   3.224   5.382   0.439 -2.8309 -1.3667 -1.2572
 7671SOL    HW330457   3.338   5.297   0.388 -0.4710  1.0876 -0.2940
 7671SOL    MW430458   3.272   5.309   0.443 -0.0304 -0.6711  0.2070
 7672SOL     OW30459   2.366   0.225   3.344  0.2425  0.1926 -0.5269
 7672SOL    HW230460   2.291   0.167   3.329 -0.0733  0.1011  1.2341
 7672SOL    HW330461   2.368   0.238   3.439  3.1197 -0.7138 -0.3815
 7672SOL    MW430462   2.356   0.219   3.355  0.4484  0.6207 -0.0731
 7673SOL     OW30463   0.249   1.223   2.403  0.2587  0.3320 -0.2625
 7673SOL    HW230464   0.194   1.162   2.453  0.7998 -0.0351 -0.1054
 7673SOL    HW330465   0.247   1.189   2.314 -0.0942  0.5496 -0.3375
 7673SOL    MW430466   0.241   1.210   2.398  0.2188  0.5476 -0.1544
 7674SOL     OW30467   2.616   4.489   5.483  0.5933  0.1948 -0.1188
 7674SOL    HW230468   2.685   4.473   5.419  0.0586 -0.0820 -0.6252
 7674SOL    HW330469   2.638   4.432   5.557  0.2386 -0.8100 -0.7741
 7674SOL    MW430470   2.628   4.480   5.485  0.3950 -0.1597  0.3285
 7675SOL     OW30471   3.581   2.218   1.942  0.4389  0.5229  0.4062
 7675SOL    HW230472   3.637   2.296   1.934  1.2875 -0.1040  0.0641
 7675SOL    HW330473   3.522   2.223   1.867  0.9510  0.4778 -0.0015
 7675SOL    MW430474   3.581   2.229   1.931  0.7242  0.2722  0.1621
 7676SOL     OW30475   3.521   2.407   1.207  0.8578  0.0466  0.0144
 7676SOL    HW230476   3.560   2.378   1.124  1.4607  0.5807  0.0974
 7676SOL    HW330477   3.594   2.447   1.254  0.9735 -1.9054  1.6288
 7676SOL    MW430478   3.536   2.409   1.202  0.1230 -0.5160  0.3178
 7677SOL     OW30479   0.830   4.276   1.099  0.7702 -0.2331  0.4391
 7677SOL    HW230480   0.873   4.258   1.183  1.3486 -0.9172  0.0017
 7677SOL    HW330481   0.853   4.202   1.044  0.0937  0.0379 -0.2199
 7677SOL    MW430482   0.838   4.264   1.103  0.0271  0.4847 -0.1573
 7678SOL     OW30483   1.650   3.555   3.038 -0.3448  0.3873 -0.1739
 7678SOL    HW230484   1.674   3.622   3.102 -0.2500  1.4541 -1.3115
 7678SOL    HW330485   1.653   3.473   3.088  1.4245  0.9860  0.7836
 7678SOL    MW430486   1.654   3.553   3.053 -0.0008  0.2095  0.3792
 7679SOL     OW30487   4.077   3.056   4.506  0.2500  0.1370 -0.2537
 7679SOL    HW230488   4.135   3.072   4.431 -0.0072  2.0075 -0.1129
 7679SOL    HW330489   4.003   3.008   4.469  0.7829 -0.2082 -0.9058
 7679SOL    MW430490   4.075   3.052   4.491  0.2458  0.4408  0.2915
 7680SOL     OW30491   3.083   5.896   6.161 -0.1273 -0.0915  0.1801
 7680SOL    HW230492   3.080   5.837   6.236  1.8297  2.1367  2.1811
 7680SOL    HW330493   3.170   5.884   6.124 -1.0465 -1.1062 -1.7764
 7680SOL    MW430494   3.094   5.887   6.166 -0.4567  0.2751 -0.0209
 7681SOL     OW30495   3.748   3.773   4.495  0.4604 -0.0286 -0.4462
 7681SOL    HW230496   3.756   3.868   4.503 -0.9893  0.1181 -0.4439
 7681SOL    HW330497   3.706   3.760   4.409 -2.1048 -0.4561  0.7815
 7681SOL    MW430498   3.744   3.784   4.484 -0.0908  0.8808 -0.2579
 7682SOL     OW30499   3.444   4.393   0.539  0.4038 -0.0359 -0.2097
 7682SOL    HW230500   3.431   4.407   0.633  0.1414 -0.7442 -0.1263
 7682SOL    HW330501   3.530   4.351   0.533  1.1984  1.5724 -0.4545
 7682SOL    MW430502   3.453   4.389   0.551  0.0133 -0.1042  0.3048
 7683SOL     OW30503   6.239   1.908   2.078  0.1423  0.3154 -0.2178
 7683SOL    HW230504   6.184   1.904   2.000 -0.0336 -0.3348 -0.0647
 7683SOL    HW330505   6.323   1.873   2.049  0.1197  0.2051 -0.1491
 7683SOL    MW430506   6.243   1.903   2.064 -0.2805 -0.2682 -0.4982
 7684SOL     OW30507   2.878   4.058   1.272  0.1225 -0.3469  0.2216
 7684SOL    HW230508   2.848   3.972   1.242  0.1237 -0.4349  0.4702
 7684SOL    HW330509   2.883   4.050   1.367 -0.2011  0.0324  0.2733
 7684SOL    MW430510   2.875   4.046   1.281 -0.5275  0.4043  0.2007
 7685SOL     OW30511   4.950   4.274   2.627  0.4275 -0.0941 -0.4160
 7685SOL    HW230512   4.940   4.191   2.673 -2.6576  0.7261  0.6136
 7685SOL    HW330513   4.975   4.336   2.695 -0.7307  0.4590 -0.4731
 7685SOL    MW430514   4.952   4.271   2.642  0.0741 -0.0115  0.0393
 7686SOL     OW30515   1.562   3.702   6.282 -0.1795  0.0186 -0.1567
 7686SOL    HW230516   1.655   3.711   6.262  0.6606 -2.2379  2.1307
 7686SOL    HW330517   1.530   3.792   6.288  2.1177  0.8899  0.0569
 7686SOL    MW430518   1.570   3.715   6.280  0.5105  0.3448 -0.2622
 7687SOL     OW30519   5.435   4.326   3.576  0.0501  0.1102  0.2904
 7687SOL    HW230520   5.430   4.382   3.654 -0.4958  1.0364 -0.3785
 7687SOL    HW330521   5.372   4.256   3.592  1.1424 -0.6639  1.3851
 7687SOL    MW430522   5.426   4.324   3.589  0.2486  0.0541  0.4504
 7688SOL     OW30523   3.351   4.398   4.167 -0.0881  0.1029  0.0127
 7688SOL    HW230524   3.446   4.409   4.169 -0.1635  0.7049  1.1191
 7688SOL    HW330525   3.318   4.466   4.226 -1.3992  1.8815 -2.5530
 7688SOL    MW430526   3.359   4.409   4.175  0.2035 -0.4878 -0.3091
 7689SOL     OW30527   3.535   5.166   6.093 -0.5667 -0.4991 -0.5487
 7689SOL    HW230528   3.575   5.187   6.178 -1.6258 -1.4827  0.2446
 7689SOL    HW330529   3.598   5.196   6.028 -0.4153  1.7327  0.5434
 7689SOL    MW430530   3.548   5.172   6.096  0.2617  0.4170  0.3344
 7690SOL     OW30531   3.555   1.331   5.153  0.0187 -0.5066  0.6818
 7690SOL    HW230532   3.508   1.366   5.229  0.4330 -3.2968  2.3517
 7690SOL    HW330533   3.487   1.289   5.101 -0.0488  0.0378  0.3290
 7690SOL    MW430534   3.540   1.330   5.156  0.4815 -0.0765  0.3561
 7691SOL     OW30535   2.354   6.129   1.243  0.5966 -0.0518 -0.1792
 7691SOL    HW230536   2.296   6.054   1.252 -0.3619  0.5471 -1.2138
 7691SOL    HW330537   2.374   6.155   1.333 -1.1854  0.0733  0.2024
 7691SOL    MW430538   2.349   6.122   1.256  0.3713  0.0501 -0.1913
 7692SOL     OW30539   1.516   5.913   2.978 -0.5313  0.0521  0.2424
 7692SOL    HW230540   1.424   5.888   2.967 -0.6780  0.8901 -0.5484
 7692SOL    HW330541   1.566   5.838   2.946 -0.8805 -1.2084  2.4060
 7692SOL    MW430542   1.510   5.900   2.972 -0.0417  0.3048  0.7189
 7693SOL     OW30543   5.694   4.843   2.028  0.0214 -0.3494 -0.5780
 7693SOL    HW230544   5.637   4.848   2.105 -0.4608 -1.6972 -0.8184
 7693SOL    HW330545   5.701   4.749   2.009  2.3970 -0.2546 -0.5143
 7693SOL    MW430546   5.687   4.831   2.036  0.1163 -0.1506 -0.1745
 7694SOL     OW30547   5.039   1.541   4.501 -0.1200  0.0253  1.0960
 7694SOL    HW230548   5.076   1.580   4.580 -1.2983 -1.1155  2.2536
 7694SOL    HW330549   4.961   1.494   4.531  0.6803 -2.3930 -0.3919
 7694SOL    MW430550   5.033   1.540   4.515  0.2272 -0.2367  0.0642
 7695SOL     OW30551   1.695   4.433   4.701 -0.0634  0.2824  0.1058
 7695SOL    HW230552   1.769   4.462   4.647 -0.7401  0.5458 -0.7166
 7695SOL    HW330553   1.620   4.434   4.641 -0.2312 -2.8497  0.1135
 7695SOL    MW430554   1.695   4.437   4.686  0.5537  0.0234  0.0703
 7696SOL     OW30555   1.782   6.324   1.533  0.5402  0.2942  0.3132
 7696SOL    HW230556   1.859   6.305   1.480 -0.7312 -0.7251 -1.2721
 7696SOL    HW330557   1.770   6.418   1.527 -0.5570  0.0611 -2.7677
 7696SOL    MW430558   1.791   6.334   1.525  0.7665  0.7744  0.6069
 7697SOL     OW30559   5.859   1.373   5.274  0.0266  0.0258 -0.0430
 7697SOL    HW230560   5.937   1.359   5.220  0.1945  0.3681  0.1047
 7697SOL    HW330561   5.866   1.310   5.345  0.3880  0.3403  0.2032
 7697SOL    MW430562   5.870   1.363   5.276  0.5068 -0.0484 -0.4292
 7698SOL     OW30563   6.224   0.446   5.513  0.2270  0.0928 -0.2653
 7698SOL    HW230564   6.250   0.369   5.463  0.9310  1.2849 -1.8347
 7698SOL    HW330565   6.129   0.445   5.513  0.1057  0.9262 -3.2244
 7698SOL    MW430566   6.215   0.436   5.507  0.3863  0.0328  0.0417
 7699SOL     OW30567   0.121   3.588   1.456 -0.1340  0.7196  0.1829
 7699SOL    HW230568   0.111   3.503   1.414  1.0626  0.9834 -0.6828
 7699SOL    HW330569   0.080   3.577   1.542  1.2167 -1.1671  0.6529
 7699SOL    MW430570   0.115   3.576   1.462  0.7252 -0.1692  0.0267
 7700SOL     OW30571   1.272   2.230   3.656  0.1305 -0.5173  0.0791
 7700SOL    HW230572   1.281   2.238   3.751  0.2613  0.2536  0.0060
 7700SOL    HW330573   1.214   2.154   3.644  0.5863 -0.9770  0.7506
 7700SOL    MW430574   1.265   2.221   3.667 -0.1831 -0.1153 -0.5850
 7701SOL     OW30575   1.178   1.798   2.373 -0.5399 -0.0453  0.3210
 7701SOL    HW230576   1.207   1.716   2.334  0.7326  0.1316  0.8572
 7701SOL    HW330577   1.084   1.787   2.386 -0.2738 -1.6578  0.9824
 7701SOL    MW430578   1.169   1.786   2.369 -0.1676  0.6043  0.1094
 7702SOL     OW30579   2.156   0.922   0.841  0.5157 -0.7223 -0.0506
 7702SOL    HW230580   2.151   0.978   0.763  1.5096  0.2243  0.5496
 7702SOL    HW330581   2.222   0.963   0.896  0.1552 -1.6413  1.0996
 7702SOL    MW430582   2.164   0.935   0.838  0.4866  0.0959  0.3285
 7703SOL     OW30583   2.386   1.409   1.043 -0.2637 -0.1348  0.1819
 7703SOL    HW230584   2.301   1.402   1.087 -0.0809  1.0566  0.7809
 7703SOL    HW330585   2.365   1.444   0.956 -0.4215 -0.1277  0.2215
 7703SOL    MW430586   2.372   1.413   1.038 -0.1876 -0.8333  0.4117
 7704SOL     OW30587   6.340   0.418   1.934  0.4167 -0.3007 -0.2822
 7704SOL    HW230588   6.391   0.488   1.976 -1.7836  2.0576 -1.2714
 7704SOL    HW330589   6.315   0.455   1.849 -1.5225 -1.9704 -0.4998
 7704SOL    MW430590   6.343   0.432   1.928 -0.0037 -0.1586  0.6681
 7705SOL     OW30591   0.187   0.408   3.999 -0.1435 -0.8865  0.2413
 7705SOL    HW230592   0.108   0.410   3.945 -0.4691 -0.3836  0.7319
 7705SOL    HW330593   0.247   0.350   3.951 -0.7118 -1.0685 -0.2601
 7705SOL    MW430594   0.185   0.401   3.985 -0.1029  0.1085 -0.5564
 7706SOL     OW30595   1.067   5.685   1.187 -0.4023  0.5319 -0.7731
 7706SOL    HW230596   1.103   5.748   1.250  0.8846  1.3192 -2.2237
 7706SOL    HW330597   0.972   5.700   1.190 -0.2343  1.5337 -0.0393
 7706SOL    MW430598   1.059   5.696   1.195  0.0302  0.6033 -0.0757
 7707SOL     OW30599   6.111   3.141   1.453  0.2289  0.0888 -0.0912
 7707SOL    HW230600   6.188   3.170   1.502  0.7698  1.1551 -1.4798
 7707SOL    HW330601   6.132   3.163   1.362 -0.7008 -1.8437 -0.8282
 7707SOL    MW430602   6.124   3.148   1.447 -0.2470  0.5428 -0.0090
 7708SOL     OW30603   3.588   2.298   5.129  0.0033 -0.5597  0.2921
 7708SOL    HW230604   3.520   2.246   5.171  1.5541 -1.5227  1.7369
 7708SOL    HW330605   3.591   2.379   5.180 -0.9794  0.1123 -0.6616
 7708SOL    MW430606   3.579   2.302   5.141 -0.3981 -0.1951  0.2209
 7709SOL     OW30607   2.895   4.524   2.819 -0.0695  0.0848  0.3920
 7709SOL    HW230608   2.855   4.482   2.896 -0.5930 -2.5426 -1.1856
 7709SOL    HW330609   2.823   4.573   2.779  0.6591  3.1840  2.5162
 7709SOL    MW430610   2.880   4.525   2.824  0.5012  0.0339  0.2350
 7710SOL     OW30611   2.689   4.820   3.608  0.4048  0.1469 -0.0273
 7710SOL    HW230612   2.627   4.793   3.540 -0.1765  1.3298  0.0030
 7710SOL    HW330613   2.753   4.874   3.561  1.2686 -0.8246 -0.0037
 7710SOL    MW430614   2.689   4.823   3.592 -0.8058 -0.5819 -0.3932
 7711SOL     OW30615   0.612   1.361   4.272  0.1552 -0.3390 -0.8046
 7711SOL    HW230616   0.526   1.358   4.313 -1.0316  1.1292 -3.0530
 7711SOL    HW330617   0.660   1.428   4.322 -1.1339  1.1676 -1.5307
 7711SOL    MW430618   0.607   1.370   4.284 -0.0229 -0.2888 -0.1479
 7712SOL     OW30619   4.688   0.115   0.617  0.6238  0.7305  0.4447
 7712SOL    HW230620   4.593   0.110   0.611  0.3482  3.2136  1.6000
 7712SOL    HW330621   4.715   0.026   0.639 -1.5061  0.1881  1.1038
 7712SOL    MW430622   4.679   0.103   0.619  0.2493  0.2339  0.3245
 7713SOL     OW30623   0.859   2.559   3.550  0.5744  0.7776  0.2997
 7713SOL    HW230624   0.940   2.585   3.594  0.2168  0.9742  0.8526
 7713SOL    HW330625   0.864   2.464   3.545  0.3231  0.6977  1.3679
 7713SOL    MW430626   0.870   2.550   3.555 -0.4113 -0.0143  0.1626
 7714SOL     OW30627   4.555   1.187   5.920 -0.3587  0.2847 -0.0619
 7714SOL    HW230628   4.553   1.208   5.826 -0.8669 -0.6233 -0.2682
 7714SOL    HW330629   4.593   1.265   5.961  0.0244  0.6320 -1.0377
 7714SOL    MW430630   4.560   1.200   5.913 -0.2119 -0.0270  0.2235
 7715SOL     OW30631   0.515   5.077   5.998  0.2389  0.4894 -0.1475
 7715SOL    HW230632   0.477   4.990   5.982 -2.6007  1.5168  0.4000
 7715SOL    HW330633   0.507   5.122   5.915  2.3801  0.0701 -0.6344
 7715SOL    MW430634   0.509   5.071   5.985  0.0647  0.5168  0.0174
 7716SOL     OW30635   2.623   3.085   5.598  0.3632 -0.2700 -0.1723
 7716SOL    HW230636   2.553   3.023   5.573  0.9098 -0.9755  0.0179
 7716SOL    HW330637   2.601   3.110   5.688 -0.2709  0.4012 -0.5029
 7716SOL    MW430638   2.611   3.080   5.607  0.2526  0.6860  0.5536
 7717SOL     OW30639   1.535   0.130   4.759 -0.7900 -0.3475 -0.0750
 7717SOL    HW230640   1.509   0.055   4.813 -0.3272 -1.0984 -0.8661
 7717SOL    HW330641   1.570   0.091   4.679  0.3837  0.6826 -0.1062
 7717SOL    MW430642   1.536   0.115   4.755  0.4813  0.3555 -0.2710
 7718SOL     OW30643   1.225   4.868   0.112 -0.1170  0.4539 -0.0342
 7718SOL    HW230644   1.148   4.916   0.082 -0.9769 -2.0266 -2.3057
 7718SOL    HW330645   1.290   4.881   0.042  0.9981  1.2665  1.1170
 7718SOL    MW430646   1.224   4.876   0.099 -0.2286  0.7971 -0.7922
 7719SOL     OW30647   6.057   4.212   0.584 -0.2814 -0.3222 -0.4084
 7719SOL    HW230648   6.023   4.299   0.602 -1.5941 -0.6641 -1.0811
 7719SOL    HW330649   6.074   4.211   0.489 -1.4385 -1.1506 -0.6345
 7719SOL    MW430650   6.055   4.223   0.574 -0.0231 -0.4129  0.5329
 7720SOL     OW30651   4.742   1.375   6.061 -0.3124  0.2794 -0.6580
 7720SOL    HW230652   4.720   1.462   6.095  1.5034  0.5330 -0.0723
 7720SOL    HW330653   4.798   1.393   5.986  0.1244 -0.3909 -0.4908
 7720SOL    MW430654   4.746   1.389   6.055  0.3354 -0.2895 -0.1641
 7721SOL     OW30655   3.383   0.701   5.182 -0.0016  0.8370  0.3940
 7721SOL    HW230656   3.404   0.698   5.275  0.5711  0.9319  0.2766
 7721SOL    HW330657   3.382   0.609   5.154 -1.3379  0.7306  0.7277
 7721SOL    MW430658   3.386   0.688   5.191 -0.0179  0.2994  0.0390
 7722SOL     OW30659   2.128   3.331   1.608 -0.2222 -0.5217 -0.2155
 7722SOL    HW230660   2.129   3.414   1.561  0.4738 -0.4921 -0.1693
 7722SOL    HW330661   2.078   3.348   1.688 -0.5428 -0.2967 -0.4641
 7722SOL    MW430662   2.122   3.344   1.612  0.3044 -1.1129 -0.5444
 7723SOL     OW30663   0.888   5.652   1.590 -0.2099 -0.2122 -0.7671
 7723SOL    HW230664   0.812   5.605   1.622  0.2184 -0.0945  0.4661
 7723SOL    HW330665   0.852   5.720   1.533 -0.8669 -1.6660 -2.1666
 7723SOL    MW430666   0.873   5.655   1.587 -0.0014  0.3024 -0.2762
 7724SOL     OW30667   4.085   0.638   4.417  0.2663 -0.5091 -0.0071
 7724SOL    HW230668   4.026   0.577   4.461  0.1533 -0.1096  0.4087
 7724SOL    HW330669   4.054   0.724   4.444  0.1795 -0.2488 -0.8903
 7724SOL    MW430670   4.073   0.641   4.426  0.1775  0.0465 -0.4378
 7725SOL     OW30671   3.863   1.239   0.674 -0.2729  0.4543 -0.5242
 7725SOL    HW230672   3.775   1.217   0.644 -0.8829 -0.1001  1.5331
 7725SOL    HW330673   3.906   1.275   0.596 -1.5709 -1.2944 -2.1438
 7725SOL    MW430674   3.857   1.241   0.660  0.1462  0.5720 -0.0085
 7726SOL     OW30675   3.543   1.952   0.124  0.0870  0.2718 -0.6709
 7726SOL    HW230676   3.481   1.887   0.158  0.6389 -0.5383 -1.1668
 7726SOL    HW330677   3.491   2.032   0.115 -0.7331 -0.2230 -0.4996
 7726SOL    MW430678   3.528   1.954   0.127 -0.1488 -0.2966 -0.2251
 7727SOL     OW30679   5.821   3.133   0.394  0.4283 -0.4333  0.0310
 7727SOL    HW230680   5.840   3.130   0.487 -2.1143  1.5956  0.7360
 7727SOL    HW330681   5.732   3.099   0.386  0.0507  0.7673 -1.4318
 7727SOL    MW430682   5.812   3.128   0.405 -0.2184 -0.5406 -0.4612
 7728SOL     OW30683   4.457   0.489   0.999 -0.3580  0.2654 -0.6518
 7728SOL    HW230684   4.487   0.572   0.962 -1.8901  0.7697 -0.7950
 7728SOL    HW330685   4.439   0.434   0.923  0.7244 -0.2470 -0.5564
 7728SOL    MW430686   4.459   0.493   0.984  0.3175  0.1790  0.4641
 7729SOL     OW30687   2.243   4.191   4.092 -0.3517  0.4142 -0.1435
 7729SOL    HW230688   2.328   4.163   4.124 -0.4559  0.0383 -0.1891
 7729SOL    HW330689   2.209   4.249   4.161  0.3826  1.4203 -0.5970
 7729SOL    MW430690   2.250   4.195   4.106  0.0611  0.0079  0.1441
 7730SOL     OW30691   2.205   2.296   0.249 -0.1576  0.4968 -0.2571
 7730SOL    HW230692   2.290   2.340   0.246  0.0061  0.1596 -0.6822
 7730SOL    HW330693   2.212   2.233   0.320  0.0258  0.3136 -0.4381
 7730SOL    MW430694   2.217   2.293   0.258 -0.1293  0.8886 -0.0402
 7731SOL     OW30695   2.413   4.941   0.705 -0.2100  0.7053 -0.6014
 7731SOL    HW230696   2.395   4.860   0.657 -1.1508  1.2040 -1.0924
 7731SOL    HW330697   2.358   4.935   0.783  1.0137  0.0865  0.2692
 7731SOL    MW430698   2.404   4.929   0.709  0.0454 -0.1616 -0.3455
 7732SOL     OW30699   5.671   4.460   1.174 -0.3155 -0.0202  0.0932
 7732SOL    HW230700   5.624   4.380   1.197 -0.9212  0.3266  0.1013
 7732SOL    HW330701   5.699   4.447   1.083  0.8288 -0.8097  0.5429
 7732SOL    MW430702   5.668   4.448   1.165 -0.7302  0.5405 -0.3615
 7733SOL     OW30703   5.110   3.956   0.952 -0.8609  0.2017  0.5293
 7733SOL    HW230704   5.038   3.962   1.015 -0.4381 -0.1811  1.0656
 7733SOL    HW330705   5.097   3.873   0.907  0.1951 -0.7285  1.8561
 7733SOL    MW430706   5.099   3.946   0.955 -0.6451  0.3043 -0.1413
 7734SOL     OW30707   5.725   5.468   2.640 -0.4140 -0.4660 -0.0802
 7734SOL    HW230708   5.661   5.400   2.661 -0.9440  0.3873  1.2089
 7734SOL    HW330709   5.735   5.464   2.545 -3.2046  0.0507 -0.4739
 7734SOL    MW430710   5.718   5.459   2.631 -0.1949 -0.7248 -0.1285
 7735SOL     OW30711   3.153   4.257   2.085 -0.1796  0.2058 -0.0019
 7735SOL    HW230712   3.067   4.217   2.088 -0.2896  0.4312 -0.1388
 7735SOL    HW330713   3.187   4.235   1.998 -0.8399  1.6413 -0.6538
 7735SOL    MW430714   3.146   4.249   2.074  0.1913 -0.3548  0.0834
 7736SOL     OW30715   0.380   0.258   3.847 -0.0627 -0.0126  0.0892
 7736SOL    HW230716   0.362   0.187   3.909  1.0972 -0.3200  0.0841
 7736SOL    HW330717   0.445   0.313   3.891  1.0737 -0.4480 -1.0071
 7736SOL    MW430718   0.386   0.256   3.861 -0.0621 -0.3714 -0.1398
 7737SOL     OW30719   6.283   0.902   2.426 -0.1815  0.8297 -0.1059
 7737SOL    HW230720   6.299   0.833   2.490 -0.6812  0.6508 -0.1653
 7737SOL    HW330721   6.347   0.970   2.447  2.2511 -0.7692 -1.7791
 7737SOL    MW430722   6.293   0.902   2.437 -0.1970  0.2548 -0.7201
 7738SOL     OW30723   2.088   2.906   4.577 -0.5434  0.2777 -0.5624
 7738SOL    HW230724   2.073   2.846   4.650 -1.1659 -1.0516 -1.7505
 7738SOL    HW330725   2.097   2.992   4.619  1.0603 -0.6892  1.2410
 7738SOL    MW430726   2.087   2.910   4.592 -0.3827  0.1595  0.1854
 7739SOL     OW30727   1.136   1.600   0.264 -0.0556 -0.0267  0.4886
 7739SOL    HW230728   1.062   1.636   0.313 -0.0753  1.1287 -0.3561
 7739SOL    HW330729   1.213   1.646   0.298 -0.3196  2.7557 -2.2007
 7739SOL    MW430730   1.136   1.611   0.275  0.9133 -0.1021  0.1190
 7740SOL     OW30731   5.957   3.975   3.371  0.0758 -0.2841  0.1843
 7740SOL    HW230732   5.862   3.965   3.367  0.1110 -0.6225  0.0967
 7740SOL    HW330733   5.981   3.937   3.455  0.0862  0.2223  0.4113
 7740SOL    MW430734   5.948   3.968   3.381  0.4178  0.1426 -0.1187
 7741SOL     OW30735   6.383   4.267   4.607 -0.1709  0.0356  0.1153
 7741SOL    HW230736   6.354   4.292   4.519 -1.3306  2.6495  1.1234
 7741SOL    HW330737   6.478   4.258   4.598  0.1449  2.9923 -0.9563
 7741SOL    MW430738   6.392   4.269   4.594  0.2651 -0.2726 -0.0712
 7742SOL     OW30739   0.565   0.227   5.349  0.6447  0.4067 -0.0578
 7742SOL    HW230740   0.652   0.188   5.359  0.5313  0.1258 -0.1438
 7742SOL    HW330741   0.507   0.152   5.338  0.4556  0.6117 -0.4811
 7742SOL    MW430742   0.569   0.212   5.349  0.2973 -0.0634  0.3205
 7743SOL     OW30743   5.422   4.791   5.716 -0.2545  0.0584  1.0320
 7743SOL    HW230744   5.493   4.799   5.652  0.8728  0.7478  2.3147
 7743SOL    HW330745   5.349   4.840   5.676 -0.1904 -1.0265 -0.4975
 7743SOL    MW430746   5.422   4.799   5.702 -0.3900  0.0350  0.0840
 7744SOL     OW30747   1.409   1.816   3.400  0.3774 -0.4016  0.0052
 7744SOL    HW230748   1.321   1.851   3.413  1.6094  3.4007 -0.8277
 7744SOL    HW330749   1.409   1.785   3.310 -0.7289 -2.8555  0.7542
 7744SOL    MW430750   1.398   1.816   3.390 -0.0557 -0.7293  0.2245
 7745SOL     OW30751   4.269   0.952   4.241 -0.2563  0.4403  0.3506
 7745SOL    HW230752   4.344   0.986   4.192 -0.1749  0.3179  0.3875
 7745SOL    HW330753   4.285   0.857   4.247 -1.3332  0.1314 -1.2022
 7745SOL    MW430754   4.281   0.944   4.236  0.1476 -0.4495  0.3385
 7746SOL     OW30755   6.134   5.189   5.695  0.1662  0.4321 -0.1972
 7746SOL    HW230756   6.220   5.167   5.659 -0.5195  1.4344 -2.6765
 7746SOL    HW330757   6.111   5.272   5.654 -0.9598  1.4736  2.3338
 7746SOL    MW430758   6.142   5.197   5.685  0.5802  0.1539 -0.3099
 7747SOL     OW30759   2.898   4.420   0.766  0.0732  0.2842  0.1930
 7747SOL    HW230760   2.875   4.459   0.851 -0.5639  0.4775 -0.0619
 7747SOL    HW330761   2.992   4.439   0.756  0.3650 -0.5050  1.2473
 7747SOL    MW430762   2.908   4.428   0.776  0.3540 -0.1000  0.0090
 7748SOL     OW30763   4.195   5.132   6.408 -0.4606 -0.4057  0.3886
 7748SOL    HW230764   4.165   5.052   6.364 -2.4100  0.1990  0.5674
 7748SOL    HW330765   4.133   5.146   6.479 -0.3107  1.4323  0.2078
 7748SOL    MW430766   4.183   5.123   6.412 -0.1763 -0.4276 -0.0857
 7749SOL     OW30767   5.164   5.578   0.995  0.1319  0.4604  0.5217
 7749SOL    HW230768   5.138   5.565   0.903  0.3791  1.4123  0.3037
 7749SOL    HW330769   5.149   5.494   1.036  0.7810 -0.2193 -0.5857
 7749SOL    MW430770   5.159   5.566   0.988 -0.5012 -0.2370 -0.0590
 7750SOL     OW30771   3.341   3.968   6.108  0.3742  0.3551 -0.6037
 7750SOL    HW230772   3.288   3.929   6.038  1.6411 -0.7971 -0.9727
 7750SOL    HW330773   3.374   4.049   6.070 -0.5869  0.7502 -0.6028
 7750SOL    MW430774   3.339   3.973   6.094 -0.4797 -0.3913 -0.2583
 7751SOL     OW30775   1.718   4.145   3.371  0.0388 -0.1469 -0.2196
 7751SOL    HW230776   1.681   4.229   3.346 -0.7852 -0.7954 -1.2433
 7751SOL    HW330777   1.664   4.080   3.326  0.5734 -1.2350  0.6572
 7751SOL    MW430778   1.706   4.148   3.362 -0.2204 -0.3087 -0.6995
 7752SOL     OW30779   3.513   0.821   3.658 -0.0615 -0.2168 -0.4145
 7752SOL    HW230780   3.458   0.876   3.602 -0.3901 -0.4370 -0.3102
 7752SOL    HW330781   3.480   0.732   3.646  1.0136 -0.5258 -1.2234
 7752SOL    MW430782   3.501   0.817   3.649  0.1891  0.0442  0.2798
 7753SOL     OW30783   0.143   3.638   2.891 -0.1156 -0.3504 -0.1566
 7753SOL    HW230784   0.237   3.654   2.882  0.1666 -1.3571  0.8653
 7753SOL    HW330785   0.135   3.580   2.966 -1.7184  1.2528  1.0101
 7753SOL    MW430786   0.154   3.633   2.900 -0.7450  0.0543 -0.3355
 7754SOL     OW30787   4.590   3.371   0.439 -0.1366 -0.7262 -0.6267
 7754SOL    HW230788   4.579   3.279   0.415 -0.9928 -1.2624  1.5675
 7754SOL    HW330789   4.520   3.416   0.392 -0.7291 -1.4613 -0.4768
 7754SOL    MW430790   4.579   3.365   0.430  0.5129 -0.0480 -0.0353
 7755SOL     OW30791   3.270   2.589   3.153  0.0208  1.1854 -0.2151
 7755SOL    HW230792   3.262   2.575   3.248  0.0271  1.0278 -0.2371
 7755SOL    HW330793   3.284   2.683   3.144 -1.2159  1.3823 -0.1395
 7755SOL    MW430794   3.271   2.599   3.165 -0.3263 -0.4132  0.0109
 7756SOL     OW30795   2.542   6.372   0.086 -0.1996 -0.0880 -0.2611
 7756SOL    HW230796   2.535   6.336   0.175  0.3917 -0.1548 -0.2420
 7756SOL    HW330797   2.562   6.296   0.031 -0.4542 -0.0279 -0.4436
 7756SOL    MW430798   2.543   6.357   0.091  0.2869  0.0547  0.4189
 7757SOL     OW30799   0.321   2.831   5.871  0.4494 -0.1509 -0.2106
 7757SOL    HW230800   0.288   2.779   5.799 -0.4862 -1.0945  0.8553
 7757SOL    HW330801   0.292   2.920   5.852  1.9742  0.0285 -2.0019
 7757SOL    MW430802   0.313   2.836   5.859  0.0611 -0.2085  0.5772
 7758SOL     OW30803   1.234   2.650   5.039  0.3371 -0.7229 -0.4874
 7758SOL    HW230804   1.309   2.591   5.043 -0.2216 -1.5360 -1.5280
 7758SOL    HW330805   1.240   2.702   5.119  0.5162 -2.5905  0.7489
 7758SOL    MW430806   1.245   2.649   5.050  0.0269  1.1957 -0.0570
 7759SOL     OW30807   3.437   1.524   3.249 -0.8876  0.0677 -0.4670
 7759SOL    HW230808   3.374   1.565   3.190 -0.8809  0.1761 -0.3993
 7759SOL    HW330809   3.483   1.598   3.290 -3.4206  0.2188  2.5330
 7759SOL    MW430810   3.435   1.539   3.247 -0.2995 -0.1624  0.0186
 7760SOL     OW30811   2.711   1.411   2.723 -0.0661  0.0491  0.2125
 7760SOL    HW230812   2.633   1.383   2.676  0.4743 -0.6852 -0.2562
 7760SOL    HW330813   2.782   1.403   2.660  0.5533 -0.2563  0.9370
 7760SOL    MW430814   2.710   1.406   2.709  0.1636  0.0212 -0.0915
 7761SOL     OW30815   1.913   0.140   2.750  0.2368 -0.5108 -0.1634
 7761SOL    HW230816   1.832   0.164   2.705  0.1797 -0.6695 -0.1465
 7761SOL    HW330817   1.980   0.196   2.710  0.3803 -1.3735 -1.1898
 7761SOL    MW430818   1.911   0.151   2.738  0.0620 -0.3351 -0.5022
 7762SOL     OW30819   2.666   3.662   0.148 -0.3400  0.1062  0.2533
 7762SOL    HW230820   2.727   3.726   0.111 -0.2732  0.2010  0.5178
 7762SOL    HW330821   2.615   3.630   0.074 -0.2435  0.3275  0.0918
 7762SOL    MW430822   2.667   3.666   0.134  0.5083 -0.3180  0.2450
 7763SOL     OW30823   5.360   3.816   0.804  0.2644 -0.0054 -0.0463
 7763SOL    HW230824   5.341   3.825   0.898 -0.1153  0.4102 -0.1628
 7763SOL    HW330825   5.287   3.765   0.769  0.3478 -0.0609 -0.1393
 7763SOL    MW430826   5.348   3.811   0.812  0.0022  0.0295  0.2160
 7764SOL     OW30827   2.712   5.729   2.679 -0.2699  0.7071  0.3247
 7764SOL    HW230828   2.638   5.700   2.626 -2.2647  2.4724  1.9824
 7764SOL    HW330829   2.683   5.811   2.719  2.1309  0.8371  2.0216
 7764SOL    MW430830   2.699   5.736   2.677  0.1819 -0.9378 -0.1116
 7765SOL     OW30831   5.773   2.245   5.594 -0.0765 -0.0504 -0.4298
 7765SOL    HW230832   5.692   2.236   5.643 -1.2715  1.7814 -1.9473
 7765SOL    HW330833   5.812   2.326   5.627  0.0716  0.1727 -1.1270
 7765SOL    MW430834   5.768   2.254   5.605 -0.0370  0.5480 -0.3155
 7766SOL     OW30835   5.764   2.304   4.729  0.1456 -0.0476  0.1268
 7766SOL    HW230836   5.744   2.211   4.726 -1.1960  0.1596  1.5050
 7766SOL    HW330837   5.684   2.345   4.762  1.2785  1.4032  1.2285
 7766SOL    MW430838   5.751   2.297   4.733  0.0074 -0.7438 -0.7060
 7767SOL     OW30839   6.215   1.199   6.237 -0.2784  0.4837  0.3395
 7767SOL    HW230840   6.162   1.119   6.238 -0.5924  0.4800 -2.9448
 7767SOL    HW330841   6.152   1.270   6.228  0.0896  0.6895 -0.9698
 7767SOL    MW430842   6.200   1.197   6.236  0.1007 -0.2645 -0.0131
 7768SOL     OW30843   1.130   0.663   2.307 -0.5849 -0.2276  0.5202
 7768SOL    HW230844   1.070   0.589   2.302  1.0822 -1.6715  0.9384
 7768SOL    HW330845   1.164   0.673   2.219 -0.6711 -0.0483  0.5048
 7768SOL    MW430846   1.126   0.655   2.295  0.3470  0.0709 -0.6593
 7769SOL     OW30847   6.353   2.185   0.854 -0.0736 -0.0849  0.1013
 7769SOL    HW230848   6.385   2.198   0.764 -0.6767 -2.1037 -0.4482
 7769SOL    HW330849   6.293   2.258   0.869  0.1510  0.3627 -1.0854
 7769SOL    MW430850   6.349   2.197   0.844 -0.0882 -0.5028  0.3121
 7770SOL     OW30851   1.889   0.029   3.840 -0.2469  0.1269  0.9207
 7770SOL    HW230852   1.865   0.111   3.884  1.4775  1.4210 -0.4251
 7770SOL    HW330853   1.854  -0.040   3.897 -3.7622  1.7443  0.9834
 7770SOL    MW430854   1.881   0.031   3.853  0.0575 -0.0852 -0.4178
 7771SOL     OW30855   3.118   2.210   1.344  0.7153 -0.0734 -0.0584
 7771SOL    HW230856   3.068   2.291   1.352 -0.2172 -0.5611 -0.7210
 7771SOL    HW330857   3.134   2.201   1.250  1.0486 -0.5168  0.0372
 7771SOL    MW430858   3.113   2.220   1.332  0.5983  0.4422  0.1940
 7772SOL     OW30859   0.195   2.819   4.222 -0.5906  0.2870 -0.1704
 7772SOL    HW230860   0.245   2.895   4.252 -0.6683  0.6248 -0.8918
 7772SOL    HW330861   0.127   2.855   4.165  0.7772 -0.4914 -2.3974
 7772SOL    MW430862   0.193   2.834   4.219 -0.1051  0.1642  0.2822
 7773SOL     OW30863   1.430   4.045   2.450 -0.1424  0.6175 -0.1599
 7773SOL    HW230864   1.415   3.983   2.521  0.9921  0.8171  0.2731
 7773SOL    HW330865   1.345   4.087   2.436 -0.5101  0.1712  0.6851
 7773SOL    MW430866   1.417   4.043   2.457  0.2632  0.3816  0.1565
 7774SOL     OW30867   0.445   5.351   3.075  0.2893 -0.2299 -0.5180
 7774SOL    HW230868   0.468   5.430   3.025  2.4753 -0.5165 -0.0846
 7774SOL    HW330869   0.403   5.384   3.154 -0.7694  0.3684 -1.3057
 7774SOL    MW430870   0.443   5.366   3.079 -0.2701  0.1147  0.1218
 7775SOL     OW30871   4.885   4.037   6.192  0.4062  0.0791  0.2832
 7775SOL    HW230872   4.919   4.103   6.132 -0.6044 -0.0275 -0.4251
 7775SOL    HW330873   4.902   3.954   6.147  0.1986 -0.0386  0.4220
 7775SOL    MW430874   4.892   4.035   6.178 -0.4868  0.6328 -0.1252
 7776SOL     OW30875   6.112   2.569   0.656 -0.1697  0.0448  0.1115
 7776SOL    HW230876   6.114   2.663   0.676  1.8998  0.1648 -0.4465
 7776SOL    HW330877   6.139   2.526   0.737  0.1342  0.0073 -0.0105
 7776SOL    MW430878   6.116   2.576   0.669 -0.5099 -0.6628  0.4516
 7777SOL     OW30879   0.495   2.704   1.057 -0.4097 -0.4883 -0.3537
 7777SOL    HW230880   0.487   2.736   0.967 -0.6941  0.0368 -0.1441
 7777SOL    HW330881   0.524   2.779   1.108 -1.5717 -0.4118  0.2300
 7777SOL    MW430882   0.498   2.718   1.052  0.1925  0.4000  0.2130
 7778SOL     OW30883   3.401   0.193   0.760  0.2684 -0.0491 -0.2398
 7778SOL    HW230884   3.427   0.117   0.708  2.2068  0.6830 -0.3917
 7778SOL    HW330885   3.483   0.228   0.795 -0.7257  1.1224  1.0371
 7778SOL    MW430886   3.415   0.187   0.758 -0.9239 -0.2646 -0.4398
 7779SOL     OW30887   3.658   1.011   3.492  0.3708 -0.1939  0.1158
 7779SOL    HW230888   3.602   1.087   3.503 -1.3923 -1.3606 -0.4200
 7779SOL    HW330889   3.674   0.980   3.581 -0.9087 -0.5643  0.2375
 7779SOL    MW430890   3.653   1.017   3.505 -0.2181  0.1982  0.0344
 7780SOL     OW30891   3.881   1.493   4.903 -0.1987  0.2899  0.2207
 7780SOL    HW230892   3.795   1.503   4.943 -0.1489  1.8191 -0.0123
 7780SOL    HW330893   3.943   1.521   4.970 -0.0050  0.9969 -0.2389
 7780SOL    MW430894   3.878   1.498   4.917  0.5414 -0.1667 -0.0496
 7781SOL     OW30895   5.821   0.032   5.763 -0.1262  0.0742  0.5123
 7781SOL    HW230896   5.846  -0.044   5.815  1.3751  0.6445  0.6586
 7781SOL    HW330897   5.903   0.066   5.727 -0.5777  2.3097  1.4095
 7781SOL    MW430898   5.835   0.026   5.765  0.8896 -0.7536  0.4142
 7782SOL     OW30899   4.674   5.702   5.831 -0.0251 -0.5526  0.4630
 7782SOL    HW230900   4.690   5.618   5.874 -0.2000 -0.4261  0.7820
 7782SOL    HW330901   4.593   5.690   5.782  0.6807 -0.9937 -0.6246
 7782SOL    MW430902   4.666   5.690   5.831 -0.8590 -0.1395 -0.2007
 7783SOL     OW30903   2.088   1.050   3.010 -0.3898 -0.4777  0.5071
 7783SOL    HW230904   1.998   1.019   3.000 -0.9527  1.3136 -0.3354
 7783SOL    HW330905   2.140   0.988   2.957 -1.0615 -1.6567  1.1797
 7783SOL    MW430906   2.083   1.037   3.002 -0.2698 -0.0131  0.2146
 7784SOL     OW30907   3.960   6.190   5.885  0.1792 -0.2335  0.3377
 7784SOL    HW230908   3.939   6.121   5.948  1.7212 -0.3486  0.7577
 7784SOL    HW330909   3.985   6.144   5.805 -0.6480 -0.1033 -0.0115
 7784SOL    MW430910   3.960   6.175   5.883  0.4736 -0.2072  0.2989
 7785SOL     OW30911   3.166   3.230   3.646 -0.0600 -0.0229 -0.1572
 7785SOL    HW230912   3.174   3.249   3.553 -0.4116 -2.4287 -0.7450
 7785SOL    HW330913   3.097   3.290   3.677 -0.7373  0.0424 -1.6882
 7785SOL    MW430914   3.158   3.241   3.638  0.4536 -0.0026  0.5295
 7786SOL     OW30915   5.582   5.357   1.067 -0.0437  0.1487 -0.0215
 7786SOL    HW230916   5.625   5.414   1.004  2.4092 -1.1313  0.3859
 7786SOL    HW330917   5.602   5.395   1.152 -0.9014  0.2710  0.1408
 7786SOL    MW430918   5.590   5.370   1.070  0.0837 -0.5486 -0.4967
 7787SOL     OW30919   5.179   6.213   2.493 -0.2975 -0.0046 -0.0576
 7787SOL    HW230920   5.229   6.133   2.511 -0.1748  0.3825  1.4779
 7787SOL    HW330921   5.243   6.284   2.503 -0.8767  0.4176  0.8381
 7787SOL    MW430922   5.194   6.212   2.497  0.0778 -0.0620 -0.2099
 7788SOL     OW30923   4.518   1.558   1.750  0.4505 -0.1484 -0.1601
 7788SOL    HW230924   4.610   1.583   1.745  0.5267  0.0337  1.5483
 7788SOL    HW330925   4.517   1.478   1.802 -0.4525  0.7179  1.2395
 7788SOL    MW430926   4.530   1.551   1.756 -0.2220  0.7674 -0.4660
 7789SOL     OW30927   6.127   5.318   1.073  0.0441 -0.0167  0.7171
 7789SOL    HW230928   6.157   5.407   1.091 -0.0149 -0.0134  0.7979
 7789SOL    HW330929   6.075   5.294   1.150 -1.0923  0.3868  0.0879
 7789SOL    MW430930   6.124   5.327   1.086  0.4306  0.5826 -0.0296
 7790SOL     OW30931   2.466   5.379   2.939  0.2369  0.3204 -0.1637
 7790SOL    HW230932   2.550   5.424   2.924  0.6164 -0.3350 -0.0499
 7790SOL    HW330933   2.401   5.436   2.899  0.5523  1.6403  1.1259
 7790SOL    MW430934   2.469   5.393   2.931  0.4194  0.1166  0.1935
 7791SOL     OW30935   1.649   3.230   0.321 -0.3215 -0.1269  0.6788
 7791SOL    HW230936   1.615   3.319   0.312  0.7169  0.2561  0.3273
 7791SOL    HW330937   1.717   3.238   0.388  0.0844 -0.5614  0.3212
 7791SOL    MW430938   1.654   3.243   0.329 -0.0339 -0.3565 -0.3651
 7792SOL     OW30939   6.118   2.218   1.787  0.8354 -0.5962  0.4292
 7792SOL    HW230940   6.088   2.289   1.845  0.9081 -0.5538  0.4145
 7792SOL    HW330941   6.168   2.262   1.719 -0.6095 -0.4640 -0.5958
 7792SOL    MW430942   6.120   2.233   1.786 -0.2668  0.4670  0.6588
 7793SOL     OW30943   5.961   5.003   1.356  0.0080  0.0105 -0.1400
 7793SOL    HW230944   5.886   4.988   1.298 -1.3185 -0.3386  1.6163
 7793SOL    HW330945   5.976   5.098   1.352  1.3629 -0.2151 -2.6881
 7793SOL    MW430946   5.953   5.014   1.347 -0.1257 -0.3951  0.3857
 7794SOL     OW30947   1.322   5.262   4.888  0.7024 -0.5456 -0.2371
 7794SOL    HW230948   1.301   5.170   4.907 -1.5563 -0.1544 -0.5672
 7794SOL    HW330949   1.244   5.295   4.844  0.3880  2.2323  2.1571
 7794SOL    MW430950   1.309   5.254   4.884 -0.0897  0.4144 -0.1718
 7795SOL     OW30951   2.467   3.151   3.992  0.2391 -0.3542  0.0774
 7795SOL    HW230952   2.392   3.110   4.035 -1.0159 -1.0211 -2.5422
 7795SOL    HW330953   2.516   3.078   3.954  0.5465  0.2363 -0.7017
 7795SOL    MW430954   2.464   3.136   3.992  0.0809  0.0279 -0.0203
 7796SOL     OW30955   3.511   2.645   4.786 -0.8473  0.2229 -0.2921
 7796SOL    HW230956   3.526   2.599   4.704  0.5276  1.5022 -0.7928
 7796SOL    HW330957   3.472   2.729   4.760 -0.6314  0.5401  0.3829
 7796SOL    MW430958   3.508   2.650   4.772 -0.2137 -0.2752  0.3017
 7797SOL     OW30959   1.016   5.902   0.529  0.3724  0.5464 -0.8077
 7797SOL    HW230960   1.111   5.913   0.527  0.3961  0.7603  0.5148
 7797SOL    HW330961   0.981   5.987   0.504  0.5345  0.7946 -0.1951
 7797SOL    MW430962   1.024   5.915   0.525 -0.1348 -0.1770 -0.1620
 7798SOL     OW30963   5.910   1.967   3.341 -0.5958  0.2180  0.0308
 7798SOL    HW230964   6.002   1.969   3.317 -0.8140 -1.1693 -1.0675
 7798SOL    HW330965   5.896   2.048   3.389  1.0751  0.6831 -0.1981
 7798SOL    MW430966   5.920   1.978   3.344 -0.0078  0.1646  0.0015
 7799SOL     OW30967   3.094   0.274   4.248 -0.0589  0.1527  0.1430
 7799SOL    HW230968   3.091   0.306   4.338  2.3464  1.9235 -0.2923
 7799SOL    HW330969   3.186   0.286   4.222 -0.2696 -2.0997 -1.9366
 7799SOL    MW430970   3.106   0.280   4.256 -0.7429  0.3245  0.4410
 7800SOL     OW30971   5.239   5.146   2.429  0.0785  0.4052  0.7583
 7800SOL    HW230972   5.259   5.081   2.496 -2.7004 -0.1279  1.1882
 7800SOL    HW330973   5.229   5.095   2.348  2.3783  0.9301  0.0502
 7800SOL    MW430974   5.240   5.131   2.427 -0.0516 -0.3537 -0.2012
 7801SOL     OW30975   1.501   2.198   6.127 -0.7088  0.9393 -0.2582
 7801SOL    HW230976   1.458   2.280   6.103  1.5812  2.2707 -0.1867
 7801SOL    HW330977   1.573   2.225   6.184  0.3617 -1.0847 -0.5555
 7801SOL    MW430978   1.505   2.212   6.131  0.7078  0.0042  0.4160
 7802SOL     OW30979   4.907   0.885   0.806  0.0306 -0.3469  0.0054
 7802SOL    HW230980   4.896   0.902   0.900 -0.6162 -1.7379  0.2053
 7802SOL    HW330981   5.001   0.895   0.792 -0.0454  1.2658  0.4942
 7802SOL    MW430982   4.918   0.888   0.817 -0.3443 -0.7657 -0.4043
 7803SOL     OW30983   4.028   4.920   1.722  0.3941 -0.2427 -0.4674
 7803SOL    HW230984   4.017   5.008   1.686  0.4729 -0.4641 -1.0376
 7803SOL    HW330985   4.074   4.934   1.805 -0.0580  0.2955 -0.3003
 7803SOL    MW430986   4.033   4.934   1.728 -0.1699 -0.1510 -0.4452
 7804SOL     OW30987   1.055   3.547   0.013 -0.1011  0.4409  0.1508
 7804SOL    HW230988   1.113   3.473   0.026 -1.0448 -0.2821  0.3950
 7804SOL    HW330989   1.103   3.622   0.048  1.4829  0.2419 -1.4738
 7804SOL    MW430990   1.069   3.547   0.020 -0.4989  0.7481  0.2496
 7805SOL     OW30991   2.705   2.453   2.275  0.1555  0.5554 -0.7295
 7805SOL    HW230992   2.749   2.494   2.200  0.5672  0.8437 -0.3339
 7805SOL    HW330993   2.627   2.413   2.237 -1.3504  3.3461 -0.8802
 7805SOL    MW430994   2.701   2.453   2.260  0.0580 -0.0468  0.4516
 7806SOL     OW30995   0.117   4.559   5.880 -0.5582 -0.1050 -0.3057
 7806SOL    HW230996   0.068   4.591   5.956 -1.3981 -1.3064 -0.2985
 7806SOL    HW330997   0.050   4.517   5.825  0.3527 -1.1667 -0.6418
 7806SOL    MW430998   0.102   4.557   5.883  0.2674 -0.0902 -0.3851
 7807SOL     OW30999   3.590   4.364   6.158 -0.3185  0.3312 -0.3794
 7807SOL    HW231000   3.672   4.329   6.123  1.7291  1.7712  2.5392
 7807SOL    HW331001   3.592   4.457   6.136 -1.6068  0.2320 -0.9783
 7807SOL    MW431002   3.601   4.372   6.151  0.4898  0.3577 -0.3676
 7808SOL     OW31003   3.419   2.538   4.552  0.3260 -0.0761 -0.4207
 7808SOL    HW231004   3.447   2.459   4.505  1.9739 -0.7483  1.5448
 7808SOL    HW331005   3.329   2.520   4.577  1.2242 -2.2660  1.6309
 7808SOL    MW431006   3.411   2.525   4.549  0.7956 -0.1315 -0.4908
 7809SOL     OW31007   4.147   5.980   2.933  0.4511  0.3155 -0.3010
 7809SOL    HW231008   4.192   5.930   2.865  0.4686 -0.8132  0.4977
 7809SOL    HW331009   4.196   6.061   2.940 -0.6851  1.3409 -2.9511
 7809SOL    MW431010   4.159   5.984   2.925  0.6851  0.4350  0.2590
 7810SOL     OW31011   0.321   2.504   0.228  0.6947 -0.4319 -0.4075
 7810SOL    HW231012   0.393   2.527   0.170  0.9344 -1.7371 -0.6630
 7810SOL    HW331013   0.244   2.547   0.190  0.6044 -2.2363 -2.4506
 7810SOL    MW431014   0.320   2.513   0.215 -0.0562 -0.3613 -0.4170
 7811SOL     OW31015   0.292   2.416   1.130 -0.2547  0.2888 -0.1564
 7811SOL    HW231016   0.301   2.480   1.059 -2.2270  1.6203  0.6965
 7811SOL    HW331017   0.276   2.333   1.086  0.1731  0.7836 -1.2821
 7811SOL    MW431018   0.291   2.414   1.115 -0.1034  0.2761  0.5142
 7812SOL     OW31019   5.027   0.036   3.708 -0.5259 -0.0340 -0.1192
 7812SOL    HW231020   5.097  -0.027   3.693 -1.1760 -0.6868 -0.4527
 7812SOL    HW331021   5.072   0.121   3.712  0.2978 -0.4598 -0.1447
 7812SOL    MW431022   5.042   0.039   3.706  0.3521  0.1502 -0.7842
 7813SOL     OW31023   2.923   4.065   4.245  0.3578 -0.3549  0.0502
 7813SOL    HW231024   2.863   4.120   4.196 -1.2684 -0.7519  1.5052
 7813SOL    HW331025   2.981   4.127   4.290  0.4462  0.0533 -0.6087
 7813SOL    MW431026   2.923   4.080   4.245  0.4254 -0.2939  0.1958
 7814SOL     OW31027   5.039   4.635   4.461  0.1444 -0.3415 -0.2792
 7814SOL    HW231028   4.995   4.607   4.381 -2.5276 -0.7137  1.2210
 7814SOL    HW331029   5.043   4.730   4.454 -1.0511 -0.2868 -0.4293
 7814SOL    MW431030   5.034   4.644   4.450 -0.2343 -0.0383 -0.1731
 7815SOL     OW31031   1.827   4.779   2.583  0.1450 -0.1335  0.4828
 7815SOL    HW231032   1.800   4.695   2.548  1.0340  0.3178 -1.4008
 7815SOL    HW331033   1.745   4.824   2.604 -0.3699 -0.9558  0.2736
 7815SOL    MW431034   1.812   4.774   2.581  0.3831  0.2980  0.3942
 7816SOL     OW31035   6.403   5.871   0.200 -0.6268 -0.0717  0.7849
 7816SOL    HW231036   6.328   5.860   0.140 -0.0869  0.2816  0.0370
 7816SOL    HW331037   6.387   5.955   0.243 -0.2201  0.4370 -0.0301
 7816SOL    MW431038   6.391   5.881   0.198  0.4649 -0.8129  0.4996
 7817SOL     OW31039   6.220   1.131   3.923 -0.4053  0.1400 -0.0356
 7817SOL    HW231040   6.135   1.099   3.894 -0.3532  0.1609 -0.2109
 7817SOL    HW331041   6.204   1.221   3.950 -0.0958  0.7407 -1.7408
 7817SOL    MW431042   6.207   1.139   3.923  0.5301 -0.5773  0.5275
 7818SOL     OW31043   0.406   3.817   2.174  0.5722  0.0754 -0.3464
 7818SOL    HW231044   0.342   3.884   2.151  2.4574  1.5107 -1.7545
 7818SOL    HW331045   0.483   3.838   2.121  0.9019 -3.8988 -1.7996
 7818SOL    MW431046   0.408   3.829   2.164 -0.1726  0.3289 -0.1333
 7819SOL     OW31047   1.514   1.877   2.064 -0.1205  0.1059  0.3822
 7819SOL    HW231048   1.494   1.788   2.090 -0.5101 -0.1485 -0.7232
 7819SOL    HW331049   1.590   1.902   2.117  0.2711 -1.0308  0.3746
 7819SOL    MW431050   1.521   1.869   2.074 -0.2497 -0.2490 -0.3174
 7820SOL     OW31051   3.214   3.177   1.524  0.7549  0.3272 -0.3932
 7820SOL    HW231052   3.309   3.179   1.538  0.6088 -0.4489  0.8835
 7820SOL    HW331053   3.177   3.203   1.608 -0.1737 -1.6721 -0.1386
 7820SOL    MW431054   3.222   3.181   1.537  0.4833  0.0663 -0.6763
 7821SOL     OW31055   4.623   4.160   3.490  0.2531  0.4322 -0.2363
 7821SOL    HW231056   4.533   4.159   3.458  0.3369 -0.8223 -0.4869
 7821SOL    HW331057   4.629   4.083   3.548  0.7242  1.3918  1.0389
 7821SOL    MW431058   4.612   4.149   3.493 -0.3563 -0.4078  0.3431
 7822SOL     OW31059   0.934   2.037   5.468 -0.5271 -0.1868  0.4791
 7822SOL    HW231060   0.853   1.985   5.469 -0.0937 -1.0213 -1.5724
 7822SOL    HW331061   0.998   1.982   5.513 -0.8766  0.0786  1.3099
 7822SOL    MW431062   0.932   2.023   5.474 -0.1057 -0.4621 -0.0235
 7823SOL     OW31063   6.219   2.272   3.324 -0.3882  0.3471  0.5195
 7823SOL    HW231064   6.275   2.349   3.320  0.6329 -0.3780  0.3338
 7823SOL    HW331065   6.244   2.228   3.406  1.0636 -1.2342 -0.7014
 7823SOL    MW431066   6.229   2.276   3.335  0.1966  0.0507  0.1931
 7824SOL     OW31067   0.801   1.595   6.166  0.4026  0.0731 -0.1206
 7824SOL    HW231068   0.774   1.686   6.184  2.5261  0.4705  1.4987
 7824SOL    HW331069   0.755   1.543   6.231 -0.4690  0.0255 -0.7606
 7824SOL    MW431070   0.792   1.600   6.177  0.1341 -0.2064 -0.5323
 7825SOL     OW31071   4.987   3.209   3.449 -0.7691  0.1604 -0.5761
 7825SOL    HW231072   4.925   3.151   3.494 -1.4762  1.2714 -0.0874
 7825SOL    HW331073   4.951   3.218   3.360  0.8763 -2.4129 -1.6278
 7825SOL    MW431074   4.974   3.202   3.443 -0.2156  0.0794 -0.1442
 7826SOL     OW31075   5.396   3.524   0.514 -0.4455  0.0689 -0.1645
 7826SOL    HW231076   5.400   3.515   0.419 -2.3784  0.1478 -0.2887
 7826SOL    HW331077   5.395   3.619   0.529  0.2576  0.0600 -0.0277
 7826SOL    MW431078   5.396   3.535   0.503  0.3218  0.1432 -1.0022
 7827SOL     OW31079   5.376   4.842   1.789  0.6507 -0.1568  0.1192
 7827SOL    HW231080   5.349   4.752   1.809  0.9239 -0.1329  0.6212
 7827SOL    HW331081   5.324   4.866   1.713  0.0022 -0.4665  0.4577
 7827SOL    MW431082   5.366   4.833   1.782  0.9719 -0.6186  0.5945
 7828SOL     OW31083   5.560   3.464   4.463  0.1199 -0.1403 -0.1918
 7828SOL    HW231084   5.631   3.405   4.438 -1.7663 -1.6672 -2.3995
 7828SOL    HW331085   5.595   3.552   4.444  2.2976 -0.5983  1.3350
 7828SOL    MW431086   5.574   3.468   4.457  0.0998  0.3926  0.1669
 7829SOL     OW31087   5.103   5.478   0.458 -0.3950 -0.0783  0.5025
 7829SOL    HW231088   5.040   5.473   0.529 -0.3264  0.4692  0.6116
 7829SOL    HW331089   5.177   5.526   0.495  0.0544 -0.6470  0.3535
 7829SOL    MW431090   5.105   5.484   0.472  0.3184  0.4403 -0.2371
 7830SOL     OW31091   5.496   0.100   0.786 -0.7176  0.0785  0.5231
 7830SOL    HW231092   5.429   0.034   0.807 -0.4441 -0.0755  0.9222
 7830SOL    HW331093   5.559   0.094   0.858  0.1572 -0.3424 -0.2492
 7830SOL    MW431094   5.495   0.091   0.798  0.3756 -0.3979  0.5491
 7831SOL     OW31095   4.810   5.353   3.091 -0.4253  0.3953 -0.0546
 7831SOL    HW231096   4.752   5.364   3.167 -0.2325 -0.6624  0.2622
 7831SOL    HW331097   4.896   5.335   3.129 -0.3568 -0.2966 -0.5140
 7831SOL    MW431098   4.813   5.352   3.106  0.6170 -0.0295  0.1798
 7832SOL     OW31099   6.264   1.801   5.319  0.4522 -0.3106  0.5426
 7832SOL    HW231100   6.310   1.778   5.400  0.6017  0.0636  0.5678
 7832SOL    HW331101   6.173   1.813   5.346  0.8977  2.2140  1.1475
 7832SOL    MW431102   6.258   1.800   5.334 -0.4725 -0.4561 -0.1171
 7833SOL     OW31103   0.931   6.122   5.057  0.1709  0.2963  0.2606
 7833SOL    HW231104   0.935   6.046   5.115 -0.0108  0.6979  0.8121
 7833SOL    HW331105   0.953   6.088   4.970 -0.5885 -0.5108  0.3782
 7833SOL    MW431106   0.935   6.108   5.053  0.2341  0.1677 -0.5563
 7834SOL     OW31107   5.862   4.918   5.175 -0.4273 -0.1616  0.1945
 7834SOL    HW231108   5.820   4.838   5.144 -1.4243  0.4513 -0.0757
 7834SOL    HW331109   5.941   4.925   5.122 -1.5376  0.2764 -1.4925
 7834SOL    MW431110   5.867   4.908   5.164 -0.4619 -0.0821  0.1675
 7835SOL     OW31111   1.287   4.405   5.070  0.1865  0.7069  0.4734
 7835SOL    HW231112   1.209   4.381   5.021  0.3724 -1.8222  1.2806
 7835SOL    HW331113   1.341   4.453   5.007 -1.4776  1.4632 -0.4307
 7835SOL    MW431114   1.284   4.408   5.055  0.3574 -0.2437  0.6344
 7836SOL     OW31115   4.131   0.214   0.401  0.8073 -0.1966 -0.5126
 7836SOL    HW231116   4.125   0.139   0.341  0.2552 -0.2032 -0.4521
 7836SOL    HW331117   4.225   0.229   0.411  0.9358 -1.2110 -0.1117
 7836SOL    MW431118   4.143   0.206   0.394  0.2102  0.0375 -0.4928
 7837SOL     OW31119   3.289   1.011   3.274  0.5782  0.2581  0.0198
 7837SOL    HW231120   3.330   1.081   3.223  1.0952 -0.0274  0.0377
 7837SOL    HW331121   3.356   0.943   3.280 -0.1587 -0.5478 -0.6157
 7837SOL    MW431122   3.303   1.012   3.268  0.1795 -0.3021 -0.3372
 7838SOL     OW31123   4.077   1.239   1.380 -0.7300 -0.2185 -0.1590
 7838SOL    HW231124   4.061   1.264   1.289 -0.0052  0.1354 -0.1926
 7838SOL    HW331125   4.076   1.143   1.379 -1.9255 -0.2237 -0.3126
 7838SOL    MW431126   4.075   1.230   1.368 -0.2265  0.1531  0.5593
 7839SOL     OW31127   5.173   1.560   5.143  0.1446 -0.7879 -0.0046
 7839SOL    HW231128   5.127   1.541   5.061  1.6011  1.3826 -1.4234
 7839SOL    HW331129   5.263   1.532   5.127  0.2024 -1.4534  1.3293
 7839SOL    MW431130   5.179   1.554   5.130  0.9333 -0.3031 -0.0046
 7840SOL     OW31131   5.424   4.448   3.834  0.2009  0.3957  0.1923
 7840SOL    HW231132   5.503   4.408   3.869  0.9153 -0.3302 -2.0436
 7840SOL    HW331133   5.437   4.542   3.846  0.6855  0.2005  1.2374
 7840SOL    MW431134   5.436   4.455   3.840 -0.6354 -0.3530 -0.5061
 7841SOL     OW31135   5.563   1.593   4.428  0.3134 -0.4210 -0.4552
 7841SOL    HW231136   5.537   1.560   4.514  2.1672 -0.9870 -0.0487
 7841SOL    HW331137   5.485   1.583   4.374 -0.5511 -1.1696  0.8617
 7841SOL    MW431138   5.549   1.587   4.432 -0.3804  0.0152 -0.2388
 7842SOL     OW31139   0.128   5.874   4.924 -0.5183 -0.1142 -0.2801
 7842SOL    HW231140   0.181   5.846   4.998  1.4188  2.0742 -0.7468
 7842SOL    HW331141   0.152   5.815   4.853  0.3438  0.0306 -0.1198
 7842SOL    MW431142   0.138   5.863   4.924 -0.3799  0.1986 -0.2181
 7843SOL     OW31143   3.491   0.611   1.189  0.3200 -0.6089  0.2527
 7843SOL    HW231144   3.489   0.579   1.279  0.1531 -0.7060  0.2140
 7843SOL    HW331145   3.414   0.668   1.182  0.6996 -0.0681  0.3682
 7843SOL    MW431146   3.481   0.614   1.200  0.3727 -0.0537  0.2374
 7844SOL     OW31147   5.334   0.616   2.838 -0.0549 -0.3346 -0.2778
 7844SOL    HW231148   5.319   0.525   2.864 -0.1186 -0.3644 -0.4199
 7844SOL    HW331149   5.255   0.662   2.867 -0.7896 -0.6301 -1.7166
 7844SOL    MW431150   5.321   0.610   2.846 -0.2719 -0.2133  0.8964
 7845SOL     OW31151   1.530   5.593   3.537  0.4157 -0.2432 -0.2534
 7845SOL    HW231152   1.526   5.497   3.533 -1.1267 -0.2785  0.9505
 7845SOL    HW331153   1.537   5.621   3.446  2.0232 -1.5091 -0.5558
 7845SOL    MW431154   1.530   5.584   3.524  0.2918 -0.2631  0.3163
 7846SOL     OW31155   2.111   4.682   1.676  0.3212 -0.4114  0.2326
 7846SOL    HW231156   2.087   4.773   1.690 -0.2332 -0.7678  1.7894
 7846SOL    HW331157   2.203   4.677   1.702  0.0257 -0.5211  1.2971
 7846SOL    MW431158   2.120   4.693   1.681 -0.6784 -0.2529  0.4115
 7847SOL     OW31159   0.097   1.307   4.303 -0.2481 -0.1668  0.2356
 7847SOL    HW231160   0.181   1.338   4.337  0.0403 -0.3329 -0.3098
 7847SOL    HW331161   0.035   1.377   4.325 -0.0136 -0.1450  0.8402
 7847SOL    MW431162   0.100   1.320   4.310 -0.2592  0.2360 -0.0448
 7848SOL     OW31163   6.095   5.398   2.405  0.4916  0.0090 -0.3721
 7848SOL    HW231164   6.098   5.303   2.393 -0.0304  0.0040 -0.4948
 7848SOL    HW331165   6.186   5.425   2.403  0.7153 -0.6239  0.8320
 7848SOL    MW431166   6.107   5.389   2.403 -0.5964  0.5089 -0.5295
 7849SOL     OW31167   2.187   0.853   4.348  0.6088 -0.9404  1.0400
 7849SOL    HW231168   2.104   0.839   4.303  1.0047 -0.2454  0.0735
 7849SOL    HW331169   2.163   0.862   4.441 -0.4773  0.0163  0.6843
 7849SOL    MW431170   2.173   0.852   4.355  1.5026  0.3147 -0.1587
 7850SOL     OW31171   0.476   4.411   4.199 -0.7258 -0.3428 -0.1833
 7850SOL    HW231172   0.536   4.403   4.124  0.9655 -0.9219  1.1706
 7850SOL    HW331173   0.425   4.490   4.180  0.9114  0.5409 -1.1029
 7850SOL    MW431174   0.477   4.421   4.186 -0.1611 -0.1028  0.0229
 7851SOL     OW31175   3.669   4.934   0.045 -0.0408  0.1896 -0.2504
 7851SOL    HW231176   3.594   4.876   0.056  0.2204 -0.0624  0.2223
 7851SOL    HW331177   3.734   4.881  -0.001  0.0898  0.2049 -0.0811
 7851SOL    MW431178   3.667   4.919   0.040  0.3671 -0.0792  0.2339
 7852SOL     OW31179   6.046   0.178   5.667  0.5885 -0.0799 -0.7905
 7852SOL    HW231180   6.081   0.123   5.597 -0.0753 -0.0167 -1.1763
 7852SOL    HW331181   6.003   0.250   5.621  3.2428  1.9712 -0.3306
 7852SOL    MW431182   6.045   0.181   5.652  0.2646  0.4127  0.4101
 7853SOL     OW31183   5.492   5.297   1.440  0.1644  0.0316 -0.0086
 7853SOL    HW231184   5.536   5.310   1.524  2.0953  1.0020 -1.1195
 7853SOL    HW331185   5.555   5.326   1.374 -1.5658 -0.0095 -1.7860
 7853SOL    MW431186   5.506   5.302   1.443 -0.7700  0.2033 -0.2811
 7854SOL     OW31187   1.108   0.073   3.809 -0.2080  0.3110  0.0175
 7854SOL    HW231188   1.192   0.100   3.771 -0.9237  1.4640 -0.8252
 7854SOL    HW331189   1.108   0.111   3.897 -0.3629  1.3961 -0.4357
 7854SOL    MW431190   1.119   0.082   3.815 -0.0878 -0.4853  0.3149
 7855SOL     OW31191   3.502   1.969   2.685 -0.0499  0.7323 -0.2183
 7855SOL    HW231192   3.567   2.034   2.711  1.2719 -0.1555 -1.1303
 7855SOL    HW331193   3.453   2.010   2.613  0.8086  0.7243 -0.8241
 7855SOL    MW431194   3.504   1.983   2.679  0.1966  0.2470  0.1825
 7856SOL     OW31195   4.190   2.902   1.541 -0.5025  0.2843  0.6644
 7856SOL    HW231196   4.195   2.837   1.611  0.7017 -1.0992 -0.6425
 7856SOL    HW331197   4.193   2.986   1.587 -0.3457 -0.5733  2.3012
 7856SOL    MW431198   4.191   2.905   1.556 -0.0080 -0.5206 -0.8629
 7857SOL     OW31199   0.770   3.045   1.961  0.1576  0.5227  0.0034
 7857SOL    HW231200   0.779   3.055   2.055  2.4863  1.5860 -0.2556
 7857SOL    HW331201   0.724   2.962   1.950  0.3160  0.1088  2.0596
 7857SOL    MW431202   0.765   3.036   1.972  0.1700 -0.0772 -0.1060
 7858SOL     OW31203   0.772   3.111   3.595 -0.6753 -0.1644 -0.2250
 7858SOL    HW231204   0.861   3.106   3.629 -1.3929  0.8063  1.9446
 7858SOL    HW331205   0.746   3.202   3.609 -2.1988 -0.5675 -0.2723
 7858SOL    MW431206   0.780   3.122   3.601 -0.2325 -0.6018 -0.7547
 7859SOL     OW31207   6.261   1.190   2.072 -0.1813  0.3154  0.9517
 7859SOL    HW231208   6.180   1.223   2.033 -0.2775 -0.0250  0.8533
 7859SOL    HW331209   6.325   1.260   2.059 -0.0268 -0.0679 -0.4580
 7859SOL    MW431210   6.259   1.203   2.065 -0.0768 -0.1096 -0.1050
 7860SOL     OW31211   3.420   3.800   5.134 -0.1706  0.2740  0.3224
 7860SOL    HW231212   3.410   3.716   5.088 -1.3095 -0.4587  1.8306
 7860SOL    HW331213   3.491   3.785   5.197 -2.6231 -0.7835  3.0404
 7860SOL    MW431214   3.428   3.787   5.136 -0.3447  0.1332 -0.6375
 7861SOL     OW31215   3.443   5.833   5.505  0.1254 -0.1211 -0.5487
 7861SOL    HW231216   3.525   5.876   5.480  0.1986 -0.0197 -0.1424
 7861SOL    HW331217   3.465   5.785   5.585 -0.1053 -0.4388 -0.6775
 7861SOL    MW431218   3.457   5.832   5.512 -0.3070  0.2950  0.7077
 7862SOL     OW31219   5.320   6.390   5.609  0.2023  0.1648 -0.2482
 7862SOL    HW231220   5.236   6.347   5.594  0.2961 -0.0430 -0.1900
 7862SOL    HW331221   5.298   6.479   5.635 -0.0044  0.0643 -0.0767
 7862SOL    MW431222   5.306   6.396   5.611  0.0569 -0.6598  0.2309
 7863SOL     OW31223   5.110   4.565   3.471 -0.0261  0.2576  0.4558
 7863SOL    HW231224   5.157   4.594   3.393 -0.6868 -0.9282 -0.4163
 7863SOL    HW331225   5.018   4.581   3.451 -0.1261  1.2791  1.5952
 7863SOL    MW431226   5.104   4.571   3.458  0.2675  0.8738  0.4795
 7864SOL     OW31227   6.086   0.375   0.143 -0.2105 -0.4254  0.0311
 7864SOL    HW231228   6.154   0.422   0.193 -1.2871  2.3502 -0.9301
 7864SOL    HW331229   6.135   0.324   0.078  1.0100 -0.1885  0.7380
 7864SOL    MW431230   6.102   0.375   0.141  0.6574  0.5110  0.2428
 7865SOL     OW31231   5.803   6.023   2.363  0.1885 -0.5134  0.4185
 7865SOL    HW231232   5.829   6.102   2.409 -0.1067  0.5275 -1.1340
 7865SOL    HW331233   5.885   5.974   2.350  0.5533  0.1095  0.3545
 7865SOL    MW431234   5.817   6.027   2.367  0.2838  0.7456  0.7736
 7866SOL     OW31235   5.375   0.624   5.609 -0.0768 -0.0581  0.0655
 7866SOL    HW231236   5.288   0.636   5.648  0.4307 -0.6629  1.4425
 7866SOL    HW331237   5.397   0.710   5.572 -0.8631  0.3567  0.5287
 7866SOL    MW431238   5.366   0.637   5.609  0.0953 -0.3378 -0.2057
 7867SOL     OW31239   2.403   2.010   5.227 -0.2305  0.1836 -0.6102
 7867SOL    HW231240   2.353   1.937   5.262  0.7903  0.2919  1.2212
 7867SOL    HW331241   2.337   2.077   5.208 -0.9845 -0.4984 -0.4641
 7867SOL    MW431242   2.388   2.010   5.229  0.4652 -0.7267 -0.0304
 7868SOL     OW31243   2.701   6.298   1.516 -0.0590  0.1802 -0.0629
 7868SOL    HW231244   2.686   6.350   1.595 -2.2830 -0.8508  0.2559
 7868SOL    HW331245   2.659   6.348   1.446  0.6175  0.3638 -0.3460
 7868SOL    MW431246   2.694   6.312   1.517 -0.2581 -0.0097 -0.6542
 7869SOL     OW31247   6.032   5.414   5.928  0.4844 -0.2855  0.7904
 7869SOL    HW231248   6.106   5.353   5.935  0.6272 -0.1919  0.1582
 7869SOL    HW331249   6.017   5.443   6.018  0.7500 -0.8554  1.0309
 7869SOL    MW431250   6.040   5.410   5.941  0.1273  0.1582 -0.2561
 7870SOL     OW31251   1.010   4.462   3.343  0.1173 -0.0115 -0.2778
 7870SOL    HW231252   0.989   4.413   3.263  2.4038  0.8993 -1.5642
 7870SOL    HW331253   0.934   4.517   3.358 -0.8322 -1.0311 -1.1665
 7870SOL    MW431254   0.997   4.463   3.334  0.0363 -0.2456  0.0551
 7871SOL     OW31255   2.595   2.192   5.356  0.2937 -0.3365 -0.3728
 7871SOL    HW231256   2.514   2.161   5.315  0.8014 -1.2411 -0.7274
 7871SOL    HW331257   2.609   2.131   5.428  0.4980  0.0108 -0.1164
 7871SOL    MW431258   2.586   2.180   5.360 -0.1471 -0.3556  0.6466
 7872SOL     OW31259   5.393   0.338   0.626 -0.1871 -0.3459  0.3653
 7872SOL    HW231260   5.439   0.282   0.689 -0.5222  2.7763  3.7048
 7872SOL    HW331261   5.309   0.294   0.612  1.6509 -3.6514 -2.1024
 7872SOL    MW431262   5.388   0.324   0.632 -0.5681  0.1553  0.1512
 7873SOL     OW31263   3.702   4.527   0.041  0.3235 -0.3516 -0.2619
 7873SOL    HW231264   3.665   4.441   0.059  0.8149 -0.7387 -1.0921
 7873SOL    HW331265   3.648   4.562  -0.030 -0.0196  0.1352  0.2222
 7873SOL    MW431266   3.690   4.521   0.034  0.1631  0.1005  0.3844
 7874SOL     OW31267   4.798   2.748   1.376 -0.8843  0.1043  0.3192
 7874SOL    HW231268   4.800   2.660   1.338  1.7649 -0.1975  0.9707
 7874SOL    HW331269   4.797   2.807   1.300 -1.2417 -0.4896 -0.1457
 7874SOL    MW431270   4.798   2.744   1.361 -0.6057 -0.0162  0.2190
 7875SOL     OW31271   0.672   1.171   3.484 -0.2176  0.4170 -0.2105
 7875SOL    HW231272   0.691   1.172   3.390 -0.4978 -1.0981 -0.3037
 7875SOL    HW331273   0.581   1.200   3.490 -0.7156 -0.9902 -0.5704
 7875SOL    MW431274   0.663   1.175   3.472 -0.5248 -0.4650  0.4152
 7876SOL     OW31275   1.831   5.711   5.501 -0.2820 -0.8396  0.1128
 7876SOL    HW231276   1.883   5.663   5.437  1.3898  0.0360  0.7744
 7876SOL    HW331277   1.743   5.713   5.463  0.7817  0.2416 -2.5071
 7876SOL    MW431278   1.826   5.705   5.488 -0.1634 -0.2551  0.5668
 7877SOL     OW31279   3.106   3.563   0.817 -0.2626 -0.1675 -0.0723
 7877SOL    HW231280   3.143   3.475   0.818  1.4536  0.5247  0.9248
 7877SOL    HW331281   3.130   3.598   0.731  0.3257 -0.1570  0.0960
 7877SOL    MW431282   3.114   3.556   0.806 -0.4709  0.1631  0.1690
 7878SOL     OW31283   1.754   4.629   5.898 -0.3061  0.0958  0.4120
 7878SOL    HW231284   1.701   4.550   5.888  0.2381 -0.2039 -0.1589
 7878SOL    HW331285   1.810   4.612   5.974  1.1040 -0.8412 -0.7697
 7878SOL    MW431286   1.754   4.616   5.907 -0.1721  0.0335 -0.0913
 7879SOL     OW31287   0.588   3.843   0.905 -0.1456  0.4831  0.5596
 7879SOL    HW231288   0.620   3.753   0.901 -0.0298  0.5198  0.6549
 7879SOL    HW331289   0.577   3.869   0.814 -1.5237 -0.1131  0.5269
 7879SOL    MW431290   0.591   3.834   0.893  0.0270  0.8649  0.5286
 7880SOL     OW31291   3.878   0.408   0.722  0.1613 -0.3739  0.2546
 7880SOL    HW231292   3.898   0.494   0.687  0.4761  0.3985  2.1748
 7880SOL    HW331293   3.955   0.385   0.774 -0.5914 -1.0430  1.1111
 7880SOL    MW431294   3.891   0.416   0.724 -0.0650  0.0138  0.0087
 7881SOL     OW31295   5.107   3.817   5.066 -0.2494 -0.2697 -0.4059
 7881SOL    HW231296   5.189   3.798   5.021  0.4030  1.8436 -0.2482
 7881SOL    HW331297   5.133   3.831   5.157 -1.3068 -2.8156  0.3680
 7881SOL    MW431298   5.122   3.816   5.072 -0.1193  0.2997  0.0642
 7882SOL     OW31299   5.718   1.964   2.677  0.0247 -0.4245 -0.2486
 7882SOL    HW231300   5.754   2.041   2.721 -3.0138 -0.7227  3.2375
 7882SOL    HW331301   5.749   1.890   2.729 -1.8805 -1.0024  0.1304
 7882SOL    MW431302   5.727   1.965   2.690 -0.2447  0.3189  0.2163
 7883SOL     OW31303   4.241   2.330   1.900  0.0532  0.1468 -0.5397
 7883SOL    HW231304   4.277   2.267   1.837  0.9355 -0.9992  1.0456
 7883SOL    HW331305   4.221   2.278   1.977  0.6310  1.7785  0.7712
 7883SOL    MW431306   4.243   2.315   1.902 -0.5949  0.0646 -0.3180
 7884SOL     OW31307   3.871   5.077   5.786 -0.1444  0.7657  0.2897
 7884SOL    HW231308   3.960   5.095   5.817 -0.1996  1.5086  0.0510
 7884SOL    HW331309   3.852   5.150   5.727 -0.4441 -0.0487 -0.6365
 7884SOL    MW431310   3.881   5.089   5.782  0.2769  0.1295  0.3524
 7885SOL     OW31311   1.884   2.569   2.039 -0.4851 -0.0224  0.0424
 7885SOL    HW231312   1.853   2.657   2.059 -1.5531 -0.3145 -0.2541
 7885SOL    HW331313   1.906   2.572   1.946  1.7227  0.5486  0.5360
 7885SOL    MW431314   1.882   2.581   2.029 -0.7127  0.5281  0.0541
 7886SOL     OW31315   4.310   4.105   0.958 -0.0956 -0.1988  0.5548
 7886SOL    HW231316   4.335   4.196   0.971 -1.8984  0.5614 -0.8152
 7886SOL    HW331317   4.278   4.101   0.868 -2.2167 -1.6168  1.2624
 7886SOL    MW431318   4.309   4.116   0.948  0.1529 -0.0560 -0.2674
 7887SOL     OW31319   1.902   3.374   5.845 -0.1574  0.3184  0.0641
 7887SOL    HW231320   1.908   3.423   5.927 -0.8020  0.6146 -0.0552
 7887SOL    HW331321   1.915   3.283   5.870 -0.8400  0.3495  0.5761
 7887SOL    MW431322   1.904   3.368   5.859  0.5422 -0.5510 -0.5327
 7888SOL     OW31323   2.480   4.004   2.235  0.2310  0.3342 -0.2447
 7888SOL    HW231324   2.403   4.050   2.268 -0.5839 -0.7183 -0.5817
 7888SOL    HW331325   2.530   3.981   2.313 -1.3603 -1.5932  0.3061
 7888SOL    MW431326   2.476   4.007   2.249 -0.1042  0.0170  0.5466
 7889SOL     OW31327   5.475   3.605   1.734  0.1283 -0.5289  0.2599
 7889SOL    HW231328   5.481   3.520   1.692  0.7265  0.0918 -0.9922
 7889SOL    HW331329   5.548   3.606   1.796 -0.0798 -1.0406  0.5177
 7889SOL    MW431330   5.486   3.594   1.737  0.9828 -0.4517  0.2230
 7890SOL     OW31331   2.543   5.196   2.747  0.1123  0.3044  0.1538
 7890SOL    HW231332   2.542   5.104   2.773  1.6153  0.1660 -0.1864
 7890SOL    HW331333   2.500   5.242   2.820 -2.1086 -0.7895 -0.3770
 7890SOL    MW431334   2.537   5.190   2.760  0.0799  0.4675 -0.2598
 7891SOL     OW31335   2.776   0.304   5.471 -0.0297 -0.1329  0.0299
 7891SOL    HW231336   2.783   0.297   5.375  1.2691  1.2092 -0.0107
 7891SOL    HW331337   2.687   0.276   5.490 -0.0968 -1.1370 -1.4905
 7891SOL    MW431338   2.765   0.299   5.461 -0.3343 -0.0099  0.4600
 7892SOL     OW31339   3.877   0.199   0.527 -0.0624  0.5112 -0.1968
 7892SOL    HW231340   3.848   0.275   0.577 -0.8290 -0.3598  0.7329
 7892SOL    HW331341   3.966   0.221   0.498 -1.3103  2.9677 -2.5370
 7892SOL    MW431342   3.885   0.212   0.530  0.7657  0.5088 -0.8867
 7893SOL     OW31343   1.726   3.505   0.829  0.1895 -0.1498 -0.8293
 7893SOL    HW231344   1.796   3.507   0.764 -1.5346  2.5397 -2.8295
 7893SOL    HW331345   1.667   3.576   0.803 -1.2082  0.3782  3.1064
 7893SOL    MW431346   1.728   3.515   0.817 -0.1011  0.2283  1.1823
 7894SOL     OW31347   4.576   3.388   2.672  0.5884 -0.0788 -0.0610
 7894SOL    HW231348   4.548   3.430   2.591 -1.1484  0.3690  0.7230
 7894SOL    HW331349   4.601   3.300   2.645  2.7644  0.8702 -1.4818
 7894SOL    MW431350   4.575   3.382   2.658  0.6231 -0.6812  0.2865
 7895SOL     OW31351   3.939   6.009   0.140 -0.5093 -1.2472  0.2428
 7895SOL    HW231352   3.888   6.050   0.210  0.0800 -0.3292  0.1507
 7895SOL    HW331353   4.030   6.032   0.160 -0.3838 -0.3183 -1.2373
 7895SOL    MW431354   3.944   6.017   0.152  0.8357 -0.0588 -0.3049
 7896SOL     OW31355   3.894   5.245   5.349  0.2881  0.0874  0.1421
 7896SOL    HW231356   3.877   5.276   5.438 -2.5202 -0.4614 -0.1171
 7896SOL    HW331357   3.876   5.321   5.294 -2.1896 -0.6451 -0.1781
 7896SOL    MW431358   3.890   5.259   5.354  0.8179 -0.3537  0.0963
 7897SOL     OW31359   1.937   4.931   2.393 -0.2220  0.4833  0.2689
 7897SOL    HW231360   1.991   4.999   2.432 -0.0458  1.2014 -1.1605
 7897SOL    HW331361   1.900   4.884   2.468  0.7926  1.2333  1.2754
 7897SOL    MW431362   1.939   4.934   2.408 -0.3565  0.2534  0.1521
 7898SOL     OW31363   3.409   5.628   3.810 -0.5275  0.5932 -0.0686
 7898SOL    HW231364   3.370   5.566   3.872 -1.2652  0.5163 -0.6038
 7898SOL    HW331365   3.425   5.577   3.731  1.0004  0.5384  0.2473
 7898SOL    MW431366   3.406   5.613   3.808 -0.2515 -0.1913 -0.6645
 7899SOL     OW31367   5.729   5.909   3.861  0.3823 -0.5989  0.9167
 7899SOL    HW231368   5.748   6.000   3.886 -1.5975  0.6516 -1.6560
 7899SOL    HW331369   5.791   5.890   3.791 -1.0908 -0.1233 -0.5613
 7899SOL    MW431370   5.740   5.918   3.855  0.5160 -0.3388  0.2803
 7900SOL     OW31371   0.883   3.079   4.392 -0.1890  0.0224  0.2750
 7900SOL    HW231372   0.918   3.024   4.322 -0.1833  2.0978 -1.4526
 7900SOL    HW331373   0.924   3.164   4.379 -2.0329  1.1419  1.3249
 7900SOL    MW431374   0.893   3.083   4.381  0.1768  0.4105 -0.8694
 7901SOL     OW31375   5.842   2.621   0.758 -0.0594  0.2017 -0.2120
 7901SOL    HW231376   5.785   2.544   0.759 -0.9695  0.8460 -0.6778
 7901SOL    HW331377   5.925   2.589   0.723 -0.4902 -0.5224 -0.5948
 7901SOL    MW431378   5.845   2.607   0.754 -0.2280 -0.1825 -0.0400
 7902SOL     OW31379   0.999   4.731   4.806  0.0840  0.3384 -0.5091
 7902SOL    HW231380   0.958   4.646   4.787  1.6978 -0.6447  0.1459
 7902SOL    HW331381   1.057   4.713   4.879  0.6464  1.9798 -0.5187
 7902SOL    MW431382   1.001   4.717   4.813  0.0035 -0.3485  0.0078
 7903SOL     OW31383   2.796   2.403   5.104  0.3138 -0.3064  0.1567
 7903SOL    HW231384   2.864   2.462   5.070  1.0199 -0.9061  0.4861
 7903SOL    HW331385   2.809   2.405   5.199 -0.6266  0.1435  0.2916
 7903SOL    MW431386   2.807   2.411   5.112  0.1421  0.3178 -0.5311
 7904SOL     OW31387   4.167   2.918   1.265 -0.4107 -0.2372 -0.1005
 7904SOL    HW231388   4.208   2.918   1.351  0.1435  0.8104 -0.3411
 7904SOL    HW331389   4.208   2.845   1.218  0.4329  0.1513  0.0136
 7904SOL    MW431390   4.178   2.909   1.270  0.0985 -0.1832 -0.0415
 7905SOL     OW31391   0.656   3.157   6.316  0.3064 -0.0432  1.0491
 7905SOL    HW231392   0.689   3.201   6.394  0.9308  2.8881 -0.7202
 7905SOL    HW331393   0.590   3.217   6.282 -0.0558 -1.3256 -0.5885
 7905SOL    MW431394   0.652   3.171   6.322  0.4850  0.2188  0.7186
 7906SOL     OW31395   1.017   5.467   1.438  0.6470  0.2635 -0.5420
 7906SOL    HW231396   1.094   5.506   1.397  0.3788 -0.0678 -1.3939
 7906SOL    HW331397   0.982   5.536   1.495  2.2365  0.0245  0.7948
 7906SOL    MW431398   1.023   5.481   1.440 -0.4094 -0.5445  0.5022
 7907SOL     OW31399   0.538   6.316   0.667  0.2543  0.6092  0.2774
 7907SOL    HW231400   0.611   6.357   0.714  1.5869 -0.1273 -1.0878
 7907SOL    HW331401   0.535   6.227   0.700  0.6286  0.3465 -0.3849
 7907SOL    MW431402   0.547   6.310   0.678  0.4655  0.0521 -0.2108
 7908SOL     OW31403   5.490   3.106   0.791 -0.2218  0.5429  0.7080
 7908SOL    HW231404   5.536   3.042   0.735 -1.4109 -0.3467  0.7216
 7908SOL    HW331405   5.515   3.191   0.754  0.5567  0.0451  0.0354
 7908SOL    MW431406   5.500   3.109   0.779  0.6051 -0.1711  0.0935
 7909SOL     OW31407   4.354   0.476   5.607 -0.2789  0.5944  0.5037
 7909SOL    HW231408   4.339   0.541   5.677 -2.1933  1.5642 -0.7077
 7909SOL    HW331409   4.286   0.410   5.622 -0.8216  0.9023 -0.4981
 7909SOL    MW431410   4.343   0.476   5.618  0.0216  0.2021 -0.3169
 7910SOL     OW31411   3.604   1.180   2.735  0.0744  0.1303  0.0349
 7910SOL    HW231412   3.536   1.242   2.707  1.9272  2.9034  1.1432
 7910SOL    HW331413   3.677   1.236   2.763  2.1100 -2.6288  0.7171
 7910SOL    MW431414   3.605   1.196   2.735 -0.0500 -0.4955  0.5345
 7911SOL     OW31415   0.267   5.625   2.105  0.3380 -0.5403 -0.0555
 7911SOL    HW231416   0.189   5.647   2.055  0.0771 -0.3891  0.4096
 7911SOL    HW331417   0.280   5.531   2.090 -0.7823 -0.8849  1.0089
 7911SOL    MW431418   0.259   5.615   2.097  0.1885  0.1253  0.0211
 7912SOL     OW31419   4.593   6.169   3.402 -0.0789 -0.2450 -0.5187
 7912SOL    HW231420   4.656   6.238   3.381 -0.8908  0.2471 -1.4734
 7912SOL    HW331421   4.621   6.094   3.350  0.2205 -0.3096 -0.2647
 7912SOL    MW431422   4.605   6.168   3.392 -0.2896  0.0231  0.0015
 7913SOL     OW31423   3.174   2.537   5.597 -0.1212 -0.2611 -0.5092
 7913SOL    HW231424   3.234   2.479   5.551  1.6675  1.7769 -0.8937
 7913SOL    HW331425   3.115   2.570   5.529 -0.3648 -0.6943 -0.5089
 7913SOL    MW431426   3.174   2.534   5.582 -0.4004  0.3157 -0.3799
 7914SOL     OW31427   1.239   3.053   1.531 -0.1603  0.1973  0.2301
 7914SOL    HW231428   1.263   3.061   1.438  0.6247  0.7363  0.4723
 7914SOL    HW331429   1.143   3.054   1.530 -0.1656  0.6683 -0.5432
 7914SOL    MW431430   1.229   3.054   1.518  0.0552 -0.0586  0.5796
 7915SOL     OW31431   1.288   5.931   0.540 -0.1898 -0.1877  0.0346
 7915SOL    HW231432   1.329   5.856   0.583 -0.8530 -0.8763 -0.4883
 7915SOL    HW331433   1.333   6.008   0.575  0.2365 -0.8104  0.8751
 7915SOL    MW431434   1.299   5.931   0.550 -0.1383 -0.0787  0.1987
 7916SOL     OW31435   6.065   1.293   0.163 -0.1079 -0.0597 -0.5011
 7916SOL    HW231436   5.997   1.342   0.116 -1.5499  0.2390  1.7153
 7916SOL    HW331437   6.056   1.204   0.131 -2.4277 -0.2842  0.5217
 7916SOL    MW431438   6.055   1.288   0.153  0.0216 -0.6551  0.0306
 7917SOL     OW31439   1.811   6.001   0.934 -0.0316  0.0095 -0.2111
 7917SOL    HW231440   1.801   6.011   0.840  1.3183 -0.3673 -0.4112
 7917SOL    HW331441   1.868   6.073   0.961  1.0134 -0.8738  0.0154
 7917SOL    MW431442   1.817   6.011   0.925  0.5303 -0.1915 -0.4342
 7918SOL     OW31443   2.179   5.998   0.557  0.7794  0.0087 -0.2371
 7918SOL    HW231444   2.173   5.976   0.464  2.1141  0.1484 -0.3867
 7918SOL    HW331445   2.240   6.072   0.560  0.1830  0.4771  0.6870
 7918SOL    MW431446   2.187   6.005   0.545  0.3952 -0.0578 -0.0837
 7919SOL     OW31447   2.828   1.634   1.772 -0.1168  0.0462 -0.2591
 7919SOL    HW231448   2.823   1.552   1.723  1.2245 -0.9328  1.1580
 7919SOL    HW331449   2.796   1.613   1.859  1.0569  0.7827  0.3883
 7919SOL    MW431450   2.823   1.621   1.777  0.6207 -0.0698  0.3568
 7920SOL     OW31451   4.109   3.297   3.840 -0.0490  0.2013  0.1759
 7920SOL    HW231452   4.117   3.346   3.758 -0.2960 -0.4105 -0.2177
 7920SOL    HW331453   4.036   3.237   3.826 -0.1619  0.1609  0.8838
 7920SOL    MW431454   4.100   3.296   3.827 -0.4400 -0.4286  0.6373
 7921SOL     OW31455   3.486   1.497   0.186  0.5652  0.4767 -0.7715
 7921SOL    HW231456   3.413   1.449   0.224 -0.4104  1.8550 -0.8206
 7921SOL    HW331457   3.515   1.443   0.113 -1.0753  0.3466 -1.3722
 7921SOL    MW431458   3.480   1.484   0.181 -0.4773  0.0874  0.3422
 7922SOL     OW31459   0.989   4.490   3.797  0.5553 -0.6631  0.7667
 7922SOL    HW231460   0.990   4.445   3.882  1.8977 -0.7775  0.7199
 7922SOL    HW331461   1.082   4.504   3.777  0.2474 -0.4433 -0.5858
 7922SOL    MW431462   1.001   4.486   3.806 -0.1288 -0.0393  0.2282
 7923SOL     OW31463   1.400   3.146   0.787 -0.4969  0.1191 -0.3871
 7923SOL    HW231464   1.477   3.178   0.835 -0.2368  0.2840 -0.9017
 7923SOL    HW331465   1.330   3.144   0.852 -0.4741  1.5660 -0.2751
 7923SOL    MW431466   1.401   3.150   0.802 -0.1236  0.1560 -0.9420
 7924SOL     OW31467   0.998   6.013   3.875 -0.2620  1.1059  0.0970
 7924SOL    HW231468   0.954   6.098   3.863  0.7724  2.0571  2.3520
 7924SOL    HW331469   1.041   6.021   3.961  2.2921 -0.6376 -0.9040
 7924SOL    MW431470   0.998   6.025   3.885  0.4183 -0.1045  0.0788
 7925SOL     OW31471   0.573   3.107   0.759  0.0255  0.3478 -0.1701
 7925SOL    HW231472   0.586   3.101   0.854 -1.7541 -2.5771 -0.0075
 7925SOL    HW331473   0.648   3.060   0.722  0.4333  1.0278 -0.2382
 7925SOL    MW431474   0.585   3.100   0.767 -0.0495  0.2037 -0.2993
 7926SOL     OW31475   4.172   2.736   1.753  0.4079  0.3877 -0.3390
 7926SOL    HW231476   4.151   2.793   1.826  0.6530  0.4973 -0.3519
 7926SOL    HW331477   4.266   2.720   1.761  0.3239 -0.0899 -0.2805
 7926SOL    MW431478   4.182   2.741   1.763  0.1574  0.1133 -0.0524
 7927SOL     OW31479   5.663   3.826   4.227  0.3212  0.1472  0.2688
 7927SOL    HW231480   5.699   3.786   4.305 -0.4459 -4.4041 -1.3883
 7927SOL    HW331481   5.569   3.807   4.231  0.0916  0.7964 -1.2109
 7927SOL    MW431482   5.655   3.819   4.238  0.3862  0.1599 -0.6318
 7928SOL     OW31483   3.508   1.465   4.182  0.2143 -0.1108 -0.3818
 7928SOL    HW231484   3.418   1.469   4.214  0.8670  2.1309  1.5202
 7928SOL    HW331485   3.506   1.404   4.108 -2.5838 -1.0701  0.3854
 7928SOL    MW431486   3.496   1.458   4.177  0.2196 -0.4560  0.1431
 7929SOL     OW31487   0.559   4.620   0.930  0.2893 -0.5694 -0.3982
 7929SOL    HW231488   0.624   4.552   0.914  1.5292  0.1998  1.1180
 7929SOL    HW331489   0.476   4.573   0.934  0.9878 -1.8609 -0.3745
 7929SOL    MW431490   0.557   4.605   0.928  0.0223  0.1322  0.1563
 7930SOL     OW31491   6.309   6.303   0.802 -0.2015  0.3241  0.1864
 7930SOL    HW231492   6.357   6.325   0.882  0.1331 -0.8204  0.3212
 7930SOL    HW331493   6.226   6.267   0.833  0.5309 -1.5471  0.1048
 7930SOL    MW431494   6.305   6.301   0.816  0.0193 -0.1548 -0.2780
 7931SOL     OW31495   5.487   5.748   3.975 -0.5202  0.1535 -0.3849
 7931SOL    HW231496   5.417   5.740   3.910 -1.2322  0.9224  0.2811
 7931SOL    HW331497   5.551   5.806   3.933  0.1495 -1.1994 -1.3327
 7931SOL    MW431498   5.486   5.755   3.961  0.3237 -0.5601  0.2612
 7932SOL     OW31499   2.199   3.914   0.903  0.1930 -0.0034 -0.0785
 7932SOL    HW231500   2.223   3.964   0.825 -1.2850 -0.0280 -0.5895
 7932SOL    HW331501   2.128   3.856   0.874 -0.5031  0.1039  1.3020
 7932SOL    MW431502   2.193   3.913   0.889  0.2456 -0.1194  0.1630
 7933SOL     OW31503   2.800   6.197   0.334 -0.0191 -0.3240  0.3453
 7933SOL    HW231504   2.704   6.195   0.327 -0.0829  0.2476  0.9864
 7933SOL    HW331505   2.817   6.219   0.425  0.7207  0.0452  0.1243
 7933SOL    MW431506   2.789   6.199   0.345 -0.4591 -0.1674  0.5479
 7934SOL     OW31507   3.826   4.902   2.021  0.2576  0.4532  0.1014
 7934SOL    HW231508   3.773   4.830   1.985 -0.8647  1.3211 -0.0222
 7934SOL    HW331509   3.804   4.978   1.967 -0.2998  1.4260  1.6292
 7934SOL    MW431510   3.816   4.902   2.009  0.8273  0.7776  0.1834
 7935SOL     OW31511   5.694   2.508   2.999  0.5142 -0.3238  0.3309
 7935SOL    HW231512   5.739   2.587   2.970 -0.0626  0.7767  2.2330
 7935SOL    HW331513   5.601   2.532   2.999  0.4055 -0.6487  1.8020
 7935SOL    MW431514   5.688   2.522   2.996  0.0251 -0.6236 -0.1920
 7936SOL     OW31515   2.797   5.296   0.207 -0.4621 -0.0053 -0.1851
 7936SOL    HW231516   2.822   5.279   0.116 -0.0546  0.1227 -0.0996
 7936SOL    HW331517   2.720   5.352   0.201 -0.4778 -0.0539 -0.4523
 7936SOL    MW431518   2.790   5.301   0.194 -0.4205 -0.1907  0.5959
 7937SOL     OW31519   6.392   3.816   1.088 -0.5395  0.3998  0.6189
 7937SOL    HW231520   6.473   3.835   1.042 -0.3671 -0.2920  0.6175
 7937SOL    HW331521   6.407   3.844   1.178  0.6313 -1.9672  1.2389
 7937SOL    MW431522   6.405   3.822   1.094 -0.1946  0.1223  0.5541
 7938SOL     OW31523   2.901   2.799   3.574 -0.3988  0.1344  0.3333
 7938SOL    HW231524   2.808   2.777   3.574 -0.2489 -0.5118 -0.4649
 7938SOL    HW331525   2.938   2.750   3.501  0.9637 -1.3125  1.8997
 7938SOL    MW431526   2.894   2.790   3.565 -0.3534 -0.0390  0.5358
 7939SOL     OW31527   0.666   5.117   2.055 -0.1653 -0.1746 -0.1261
 7939SOL    HW231528   0.600   5.148   2.117 -1.5197 -0.8646 -1.1780
 7939SOL    HW331529   0.670   5.186   1.989 -0.1152 -0.3194 -0.2731
 7939SOL    MW431530   0.658   5.130   2.055  0.2025  0.2202  0.5523
 7940SOL     OW31531   1.137   0.528   5.971 -0.2285  0.0489  0.1123
 7940SOL    HW231532   1.119   0.621   5.978 -1.4070  0.1130 -2.4968
 7940SOL    HW331533   1.077   0.488   6.035 -0.7378  1.0077  0.2601
 7940SOL    MW431534   1.127   0.535   5.980 -0.5364 -0.2215 -0.0157
 7941SOL     OW31535   2.672   4.221   2.828 -0.1791  0.4550  0.3409
 7941SOL    HW231536   2.716   4.246   2.909  0.1978  1.4719 -0.1661
 7941SOL    HW331537   2.713   4.274   2.760 -1.1169  0.2869 -0.3842
 7941SOL    MW431538   2.683   4.231   2.830 -0.2026  0.0517 -0.1396
 7942SOL     OW31539   3.581   0.568   5.730 -0.6711  0.2978  0.1135
 7942SOL    HW231540   3.543   0.561   5.643 -1.1532 -0.9978  0.4143
 7942SOL    HW331541   3.670   0.534   5.720 -0.5275  0.6876  0.0198
 7942SOL    MW431542   3.588   0.563   5.717 -0.0781 -0.0559 -0.8908
 7943SOL     OW31543   2.317   3.710   3.533  0.7650  0.4190  0.0276
 7943SOL    HW231544   2.355   3.784   3.486  0.5664  0.8577  0.5480
 7943SOL    HW331545   2.223   3.726   3.532  0.7439  0.3307  0.3990
 7943SOL    MW431546   2.310   3.722   3.527  0.5954  0.3290  0.1715
 7944SOL     OW31547   3.626   5.762   0.052 -0.5103 -0.6713 -0.1496
 7944SOL    HW231548   3.619   5.667   0.064 -0.4283 -0.5733  0.7458
 7944SOL    HW331549   3.679   5.792   0.126  1.0129 -0.1348 -1.4033
 7944SOL    MW431550   3.632   5.754   0.063  0.0185  0.0353  0.0181
 7945SOL     OW31551   2.487   3.842   0.920  0.1056 -0.0488  0.2595
 7945SOL    HW231552   2.457   3.764   0.967  0.2450 -0.1429  0.1925
 7945SOL    HW331553   2.408   3.895   0.909  0.2349  0.4060  1.4042
 7945SOL    MW431554   2.473   3.839   0.924  0.3347 -0.2429  0.3007
 7946SOL     OW31555   4.741   2.597   2.037  0.2820 -0.4171 -0.1094
 7946SOL    HW231556   4.766   2.647   1.959 -0.8594  0.9823  0.3720
 7946SOL    HW331557   4.823   2.581   2.083  0.8481 -0.3668 -1.0793
 7946SOL    MW431558   4.755   2.601   2.033  0.5274 -0.0685 -0.5000
 7947SOL     OW31559   3.301   5.057   0.160  0.3542  0.0818 -0.0926
 7947SOL    HW231560   3.349   4.976   0.176  2.6524  1.2656 -0.4535
 7947SOL    HW331561   3.250   5.071   0.240  0.8128 -1.1262  0.4332
 7947SOL    MW431562   3.301   5.048   0.173 -0.7553  0.2693 -0.0366
 7948SOL     OW31563   1.566   0.917   3.068 -0.1490 -0.3716 -0.4163
 7948SOL    HW231564   1.514   0.985   3.025 -0.8512 -0.1715  0.7004
 7948SOL    HW331565   1.656   0.949   3.061 -0.6372  2.1618  2.3999
 7948SOL    MW431566   1.571   0.930   3.062  0.4760 -0.0344  0.2354
 7949SOL     OW31567   2.232   2.887   5.777  0.0036 -0.8421  0.2460
 7949SOL    HW231568   2.232   2.982   5.790  2.2429 -0.3416 -2.3979
 7949SOL    HW331569   2.214   2.851   5.864 -1.7994  1.9609  1.1616
 7949SOL    MW431570   2.230   2.895   5.790 -0.2264 -0.2743  0.5550
 7950SOL     OW31571   3.852   5.728   5.339 -0.6245  0.1325 -0.2405
 7950SOL    HW231572   3.772   5.766   5.301 -0.2279 -0.3987 -1.6672
 7950SOL    HW331573   3.822   5.651   5.387 -0.8502 -0.9829 -2.0748
 7950SOL    MW431574   3.838   5.723   5.340  0.7717 -0.2169 -0.0090
 7951SOL     OW31575   3.808   1.325   2.055 -0.3402 -0.0178 -0.0440
 7951SOL    HW231576   3.862   1.397   2.087 -0.3798  0.7454 -1.5761
 7951SOL    HW331577   3.869   1.252   2.046  0.1408  0.4076 -0.3411
 7951SOL    MW431578   3.823   1.325   2.058 -0.1994 -0.6867 -0.1682
 7952SOL     OW31579   5.994   0.309   1.541 -0.1986  0.4158  0.1489
 7952SOL    HW231580   6.017   0.331   1.451 -0.5438 -2.0046 -0.6134
 7952SOL    HW331581   5.913   0.258   1.533 -1.3632  1.8209  2.0405
 7952SOL    MW431582   5.986   0.305   1.528 -0.4957  0.1525  0.0056
 7953SOL     OW31583   4.338   6.413   5.715 -0.3478  0.2372  0.1524
 7953SOL    HW231584   4.411   6.464   5.748 -1.1303  1.5928 -0.1517
 7953SOL    HW331585   4.326   6.343   5.779  1.4788 -0.2796 -0.0253
 7953SOL    MW431586   4.346   6.410   5.728 -0.3539  0.6119 -0.6224
 7954SOL     OW31587   5.732   5.604   4.975  0.1577 -0.1659 -0.1552
 7954SOL    HW231588   5.641   5.624   4.953 -0.2455 -1.0628  0.6266
 7954SOL    HW331589   5.771   5.689   4.995 -0.6185  0.1847 -0.0946
 7954SOL    MW431590   5.726   5.618   4.975 -0.6692 -0.5670  0.0283
 7955SOL     OW31591   5.664   3.885   3.594 -0.3757 -0.3839 -0.2641
 7955SOL    HW231592   5.582   3.901   3.547 -0.5061 -0.0959  0.0524
 7955SOL    HW331593   5.702   3.808   3.552 -1.0715 -0.8435 -0.0705
 7955SOL    MW431594   5.658   3.877   3.582  0.1438 -0.2092  1.3238
 7956SOL     OW31595   0.705   2.356   5.590  0.2660  0.1441 -0.4954
 7956SOL    HW231596   0.765   2.326   5.659  0.5850 -0.0553 -0.8519
 7956SOL    HW331597   0.644   2.415   5.634  0.8109  0.4581 -0.1519
 7956SOL    MW431598   0.705   2.360   5.605  0.6598 -0.0207 -0.8634
 7957SOL     OW31599   4.246   1.515   5.179  0.0656  0.0259 -0.0556
 7957SOL    HW231600   4.285   1.454   5.241 -1.1345 -1.9169 -1.1323
 7957SOL    HW331601   4.192   1.573   5.233 -0.1771 -0.9912  0.8204
 7957SOL    MW431602   4.244   1.515   5.194 -0.6211  0.1113  0.8820
 7958SOL     OW31603   1.622   0.150   1.695 -0.1923  0.6197 -0.1889
 7958SOL    HW231604   1.649   0.147   1.786 -2.2367 -2.6667  0.5094
 7958SOL    HW331605   1.560   0.223   1.690  0.0131  0.9004  1.0310
 7958SOL    MW431606   1.617   0.159   1.706  0.2922  0.7068  0.2845
 7959SOL     OW31607   5.344   2.223   5.277  0.1576 -0.3954 -0.6034
 7959SOL    HW231608   5.328   2.306   5.231 -0.1835  0.1866  0.5139
 7959SOL    HW331609   5.436   2.227   5.302  0.1049 -0.2902 -0.4270
 7959SOL    MW431610   5.354   2.235   5.274 -0.5642 -0.6060  0.0167
 7960SOL     OW31611   2.833   3.358   0.078  0.4692 -0.2151 -0.0920
 7960SOL    HW231612   2.842   3.388   0.168  1.5715  2.4008 -0.9812
 7960SOL    HW331613   2.910   3.305   0.062  0.5772 -0.1846  0.3127
 7960SOL    MW431614   2.844   3.355   0.088  0.0723  0.5908  0.2763
 7961SOL     OW31615   0.287   4.348   5.951  0.3256  0.1573  0.3299
 7961SOL    HW231616   0.278   4.317   6.041 -0.4716  2.2050  1.0344
 7961SOL    HW331617   0.200   4.384   5.929  0.7879  0.5938 -0.8864
 7961SOL    MW431618   0.274   4.349   5.960  0.2712  0.1242 -0.1252
 7962SOL     OW31619   5.860   5.543   3.276  0.6176 -0.1384  0.3679
 7962SOL    HW231620   5.952   5.561   3.299  0.8222 -0.6655 -0.0190
 7962SOL    HW331621   5.815   5.626   3.293  1.4169  0.5404 -0.6793
 7962SOL    MW431622   5.867   5.557   3.281  0.1444  0.6305 -0.1495
 7963SOL     OW31623   5.906   2.884   0.517 -0.1615 -0.5226 -0.2451
 7963SOL    HW231624   5.996   2.881   0.484  0.2848 -0.6794  0.9124
 7963SOL    HW331625   5.879   2.792   0.522  0.5646 -0.6865  1.7723
 7963SOL    MW431626   5.914   2.871   0.513 -0.6978  0.1834 -0.4137
 7964SOL     OW31627   1.233   5.195   2.413 -0.1528 -0.1915 -0.0266
 7964SOL    HW231628   1.149   5.240   2.410 -0.9034 -1.5788 -1.3587
 7964SOL    HW331629   1.289   5.244   2.352 -0.4876 -0.1797 -0.3257
 7964SOL    MW431630   1.229   5.207   2.405  0.7000 -0.2035  0.2436
 7965SOL     OW31631   5.941   0.428   5.529 -0.5106 -0.1100 -0.1125
 7965SOL    HW231632   5.883   0.395   5.461 -0.7243 -1.3505  0.6480
 7965SOL    HW331633   5.890   0.498   5.572 -1.1644 -0.7009  0.0861
 7965SOL    MW431634   5.926   0.433   5.526 -0.0884 -0.8467  0.4447
 7966SOL     OW31635   4.614   5.183   2.753  0.6381 -0.0044 -0.6932
 7966SOL    HW231636   4.647   5.104   2.796  3.1834  1.4132  0.1919
 7966SOL    HW331637   4.613   5.249   2.822 -0.6311  0.9768 -1.6031
 7966SOL    MW431638   4.618   5.181   2.768 -0.2430  0.2096 -0.5279
 7967SOL     OW31639   5.610   4.832   5.519 -0.2594 -0.2310  0.4012
 7967SOL    HW231640   5.699   4.861   5.539 -0.3253  0.1934  0.0965
 7967SOL    HW331641   5.596   4.859   5.428 -0.8717  0.1344  0.5979
 7967SOL    MW431642   5.620   4.839   5.509 -0.7616 -0.0416  0.0462
 7968SOL     OW31643   4.086   2.192   6.140  0.2246 -1.2607  0.4876
 7968SOL    HW231644   4.000   2.152   6.128  0.8468 -2.7688  0.7353
 7968SOL    HW331645   4.100   2.191   6.235  1.3172 -2.9237  0.3537
 7968SOL    MW431646   4.077   2.186   6.151  0.1638  0.8223  0.8525
 7969SOL     OW31647   1.073   0.713   4.676  0.7900  0.2075  0.1683
 7969SOL    HW231648   1.020   0.676   4.747 -1.0311 -0.4411 -1.4320
 7969SOL    HW331649   1.059   0.808   4.682 -1.8855 -0.0166 -1.0967
 7969SOL    MW431650   1.064   0.721   4.686  0.2990  0.3978  0.5114
 7970SOL     OW31651   3.598   0.794   1.799 -0.5305 -0.0337  0.3738
 7970SOL    HW231652   3.657   0.852   1.752  0.1049 -1.8925 -1.2388
 7970SOL    HW331653   3.594   0.831   1.887  2.1565  0.7808  0.2468
 7970SOL    MW431654   3.605   0.807   1.804 -0.2195 -0.1367  0.1062
 7971SOL     OW31655   1.388   0.942   5.291 -0.4264  0.6084 -0.0223
 7971SOL    HW231656   1.468   0.993   5.280  0.3999 -0.7207 -0.4605
 7971SOL    HW331657   1.334   0.993   5.351  1.4171  0.7802  1.5525
 7971SOL    MW431658   1.391   0.955   5.297  0.1071 -0.3997 -0.4534
 7972SOL     OW31659   4.439   2.739   3.022  0.4459  0.4288  0.3871
 7972SOL    HW231660   4.425   2.781   3.107 -1.5940  3.1329 -1.0995
 7972SOL    HW331661   4.352   2.737   2.982  1.5204  0.5732 -2.1674
 7972SOL    MW431662   4.425   2.744   3.028  0.1800  0.0722  0.3238
 7973SOL     OW31663   3.525   0.034   6.282 -0.3173  0.2887 -0.4202
 7973SOL    HW231664   3.501   0.098   6.349 -0.5146  1.1540 -1.2903
 7973SOL    HW331665   3.513  -0.050   6.324  0.0277  0.8151  0.7866
 7973SOL    MW431666   3.520   0.032   6.296  0.4321  0.0816  0.1792
 7974SOL     OW31667   6.390   1.221   0.595 -0.1425  0.7297  0.2417
 7974SOL    HW231668   6.341   1.161   0.539 -0.7575 -0.2059  1.7220
 7974SOL    HW331669   6.340   1.224   0.676  0.4230  2.4796  0.5781
 7974SOL    MW431670   6.377   1.214   0.598 -0.2760  0.3982 -0.4042
 7975SOL     OW31671   6.329   0.551   2.974 -0.4744 -0.1583  0.0037
 7975SOL    HW231672   6.322   0.499   3.054 -1.2963 -1.6461 -0.9844
 7975SOL    HW331673   6.323   0.642   3.004  0.4444 -0.6258  1.7356
 7975SOL    MW431674   6.327   0.556   2.988  0.1390  0.0543 -0.2627
 7976SOL     OW31675   0.225   0.965   2.773 -0.0609  0.4106  0.2280
 7976SOL    HW231676   0.252   1.051   2.804 -1.6253  0.2879  2.1688
 7976SOL    HW331677   0.250   0.905   2.844  1.4202 -0.8622 -1.2778
 7976SOL    MW431678   0.232   0.968   2.786  0.3055  0.2467  0.2149
 7977SOL     OW31679   1.114   2.441   3.395 -0.4120 -0.1215 -0.0097
 7977SOL    HW231680   1.176   2.372   3.374 -1.6549 -2.1224  2.4323
 7977SOL    HW331681   1.047   2.399   3.450 -3.0544  2.2777 -1.1057
 7977SOL    MW431682   1.113   2.427   3.400 -0.1213 -0.0920 -0.8309
 7978SOL     OW31683   0.035   4.438   5.314 -0.5570 -0.1563  0.4513
 7978SOL    HW231684   0.006   4.360   5.361 -0.8016  0.5506  1.4877
 7978SOL    HW331685   0.115   4.465   5.358 -1.5615  1.3517  1.4316
 7978SOL    MW431686   0.041   4.431   5.326  0.4488  0.4260  0.8860
 7979SOL     OW31687   2.921   1.428   2.499  0.4572 -0.1658 -0.2432
 7979SOL    HW231688   2.949   1.493   2.563 -0.3406 -0.9267  0.9234
 7979SOL    HW331689   2.898   1.479   2.421  0.5751  0.8637  0.3779
 7979SOL    MW431690   2.921   1.443   2.497 -0.1624  0.3101 -0.3770
 7980SOL     OW31691   3.180   5.433   3.770 -0.1357 -0.2413 -0.0291
 7980SOL    HW231692   3.222   5.347   3.778 -2.4323 -1.6149 -1.4272
 7980SOL    HW331693   3.143   5.449   3.857 -0.7912 -1.3151 -0.0919
 7980SOL    MW431694   3.181   5.424   3.783 -0.1775  0.3627 -0.0306
 7981SOL     OW31695   0.759   3.116   4.833 -0.2210 -0.2426  0.3170
 7981SOL    HW231696   0.854   3.108   4.840 -0.0717  0.1314 -1.1327
 7981SOL    HW331697   0.726   3.030   4.859  0.5506 -0.6400  0.0076
 7981SOL    MW431698   0.767   3.104   4.838 -0.0398 -0.0673  0.4357
 7982SOL     OW31699   2.710   3.433   5.566  0.1624 -0.2720  0.2162
 7982SOL    HW231700   2.720   3.434   5.661 -0.6195  0.0159  0.3017
 7982SOL    HW331701   2.668   3.349   5.547 -1.0522  0.3017  0.2839
 7982SOL    MW431702   2.706   3.422   5.576  0.1428 -0.2843  0.3028
 7983SOL     OW31703   5.823   2.572   4.454 -0.4067  0.4515 -0.3501
 7983SOL    HW231704   5.770   2.637   4.499 -0.1913 -0.0647  0.6716
 7983SOL    HW331705   5.913   2.600   4.469 -0.3154 -0.0396  0.0548
 7983SOL    MW431706   5.828   2.584   4.462 -0.0342 -0.5900  0.2250
 7984SOL     OW31707   0.770   1.797   5.214 -0.0492  0.3814  0.9344
 7984SOL    HW231708   0.853   1.844   5.210  0.7681 -1.0267  0.8845
 7984SOL    HW331709   0.777   1.731   5.145 -0.8592 -0.3127  1.5017
 7984SOL    MW431710   0.782   1.795   5.204  0.5736  0.0192  0.5089
 7985SOL     OW31711   1.954   1.528   5.859 -0.2093 -0.0885  0.0923
 7985SOL    HW231712   2.045   1.535   5.889 -0.3954 -1.1571  0.9750
 7985SOL    HW331713   1.904   1.508   5.938 -1.3200  1.1227 -0.2797
 7985SOL    MW431714   1.960   1.526   5.873 -0.1238 -0.6288 -0.2923
 7986SOL     OW31715   5.856   3.190   0.696  0.0455  0.0351  0.0902
 7986SOL    HW231716   5.842   3.127   0.767  0.0485  0.4668  0.4878
 7986SOL    HW331717   5.780   3.248   0.702  0.1011  0.1357 -0.1931
 7986SOL    MW431718   5.844   3.190   0.706  0.1352  0.2989 -0.1951
 7987SOL     OW31719   2.826   0.517   2.276  0.4925 -0.2307 -0.6848
 7987SOL    HW231720   2.755   0.502   2.214  0.6688  2.0796 -1.5422
 7987SOL    HW331721   2.827   0.439   2.331 -1.2400 -1.2909 -2.0638
 7987SOL    MW431722   2.817   0.505   2.275  0.2268  0.1769  0.3150
 7988SOL     OW31723   0.376   5.075   0.243  0.0750  0.1264  0.4535
 7988SOL    HW231724   0.280   5.071   0.240  0.0389  0.6156  0.9372
 7988SOL    HW331725   0.396   5.167   0.259  0.6614  0.2691 -0.9536
 7988SOL    MW431726   0.366   5.086   0.244  0.7137 -0.0822  0.5786
 7989SOL     OW31727   3.017   6.362   0.005 -0.5026  0.0468 -0.2323
 7989SOL    HW231728   2.945   6.372   0.068 -0.4686 -0.2534 -0.1463
 7989SOL    HW331729   2.980   6.391  -0.078 -0.7251 -0.1138 -0.1902
 7989SOL    MW431730   3.003   6.367   0.003  0.2232 -0.1420  0.1328
 7990SOL     OW31731   4.470   1.095   0.938  0.1597 -0.0278 -0.3831
 7990SOL    HW231732   4.531   1.039   0.890  0.7611  0.8954 -0.7063
 7990SOL    HW331733   4.403   1.034   0.970  0.9711 -0.9873 -0.4419
 7990SOL    MW431734   4.469   1.080   0.936 -0.3593  0.1449  0.1129
 7991SOL     OW31735   1.054   5.763   0.904 -0.4368  0.0511  0.8699
 7991SOL    HW231736   1.085   5.690   0.850  1.1747  1.0354  0.3679
 7991SOL    HW331737   1.066   5.733   0.994  1.8371  0.2589  0.6968
 7991SOL    MW431738   1.060   5.749   0.909 -0.4284 -0.3134  0.3523
 7992SOL     OW31739   0.662   4.980   4.441  0.2801 -0.7129  0.1309
 7992SOL    HW231740   0.700   5.064   4.467 -0.9537  0.1289 -0.6708
 7992SOL    HW331741   0.626   4.944   4.522  1.3356 -0.7636  0.5894
 7992SOL    MW431742   0.662   4.986   4.455 -0.3347 -0.0821  0.3278
 7993SOL     OW31743   5.562   4.256   0.058 -0.2934  0.0602  0.0884
 7993SOL    HW231744   5.581   4.257   0.152 -0.5673 -1.2367  0.1751
 7993SOL    HW331745   5.644   4.282   0.016 -0.5227  1.9536  0.7086
 7993SOL    MW431746   5.575   4.260   0.065 -0.0651  0.2017  0.1082
 7994SOL     OW31747   6.307   5.553   5.649 -0.6343 -0.1462  0.4724
 7994SOL    HW231748   6.266   5.615   5.710  1.4362  0.3866  1.4300
 7994SOL    HW331749   6.360   5.608   5.591 -1.4118 -0.7797 -0.8602
 7994SOL    MW431750   6.309   5.569   5.650 -0.2684 -0.3014  0.3479
 7995SOL     OW31751   1.379   2.528   5.742 -0.2599  0.2367 -0.1223
 7995SOL    HW231752   1.394   2.503   5.833  1.0556 -0.1610 -0.4235
 7995SOL    HW331753   1.299   2.481   5.718 -0.5437  0.2348  0.7779
 7995SOL    MW431754   1.370   2.518   5.751  0.0906  0.0583 -0.5497
 7996SOL     OW31755   2.354   6.242   4.259  0.4262 -0.5112 -0.3982
 7996SOL    HW231756   2.274   6.285   4.290  0.5411 -0.9216  0.5147
 7996SOL    HW331757   2.332   6.210   4.172 -1.0562 -2.2275  0.5167
 7996SOL    MW431758   2.340   6.243   4.252 -0.2105 -0.1257  0.1579
 7997SOL     OW31759   4.583   3.729   0.187  0.2055  0.5680 -0.3186
 7997SOL    HW231760   4.524   3.655   0.199  0.0984  0.0449 -3.2156
 7997SOL    HW331761   4.671   3.692   0.196  0.1328  0.5153  0.1788
 7997SOL    MW431762   4.587   3.714   0.190 -0.5848  0.6761  0.3823
 7998SOL     OW31763   0.495   0.581   5.628 -0.5669 -0.3112 -0.2151
 7998SOL    HW231764   0.582   0.621   5.637 -1.4067  1.6377 -0.2801
 7998SOL    HW331765   0.439   0.631   5.687 -2.0872 -0.0638 -1.7836
 7998SOL    MW431766   0.499   0.593   5.637 -0.2886 -0.4322 -0.3581
 7999SOL     OW31767   1.752   6.397   6.064  0.5007  0.2128  0.0582
 7999SOL    HW231768   1.787   6.328   6.007 -0.2211  0.5592 -0.8301
 7999SOL    HW331769   1.809   6.396   6.141  1.9378  0.1997 -0.9645
 7999SOL    MW431770   1.764   6.388   6.066 -0.3267 -0.4036  0.3006
 8000SOL     OW31771   6.343   6.117   0.325  0.4010 -0.0048  0.2042
 8000SOL    HW231772   6.361   6.181   0.393 -1.1693  0.3529  0.3265
 8000SOL    HW331773   6.267   6.152   0.278 -0.0258 -1.3986 -0.2081
 8000SOL    MW431774   6.335   6.130   0.328  0.3404 -0.2046 -0.2206
 8001SOL     OW31775   4.139   3.095   0.099  0.0822 -0.4500 -0.0281
 8001SOL    HW231776   4.144   3.007   0.135  0.9821  0.1190  1.3006
 8001SOL    HW331777   4.047   3.119   0.107 -0.0988 -1.1162 -0.0372
 8001SOL    MW431778   4.128   3.087   0.105  0.4345  0.3300 -0.3575
 8002SOL     OW31779   4.691   0.371   1.098  0.4077 -0.3028  0.3482
 8002SOL    HW231780   4.704   0.334   1.010 -0.4225 -0.5920  0.3403
 8002SOL    HW331781   4.603   0.406   1.096  0.9342  1.0887  0.5866
 8002SOL    MW431782   4.681   0.371   1.086 -0.4107  0.5831 -0.1628
 8003SOL     OW31783   3.646   1.976   5.358  0.7009 -0.4638 -0.2972
 8003SOL    HW231784   3.598   1.919   5.418 -0.0058  1.3491  0.9733
 8003SOL    HW331785   3.724   2.002   5.407  0.7856  0.0098 -0.6734
 8003SOL    MW431786   3.650   1.972   5.372 -0.4039 -0.1303 -0.2700
 8004SOL     OW31787   5.828   0.089   3.814  0.8282 -0.0186 -0.1889
 8004SOL    HW231788   5.866   0.109   3.899 -2.5502  1.6112  1.1374
 8004SOL    HW331789   5.746   0.044   3.835 -0.3826  0.9538 -2.5136
 8004SOL    MW431790   5.822   0.086   3.828  0.0163 -0.1539 -0.1985
 8005SOL     OW31791   0.808   5.112   2.500  0.1901 -0.2422  0.1791
 8005SOL    HW231792   0.749   5.173   2.456 -0.4985 -1.0717 -0.0716
 8005SOL    HW331793   0.786   5.119   2.593 -1.3220 -1.5716 -0.0386
 8005SOL    MW431794   0.798   5.121   2.506  0.5716  0.0881  0.1618
 8006SOL     OW31795   3.850   2.939   4.419  0.2291  0.3244  0.5338
 8006SOL    HW231796   3.809   3.022   4.393 -0.1417 -0.5397 -1.8657
 8006SOL    HW331797   3.785   2.897   4.474 -1.1370  0.0889 -1.1760
 8006SOL    MW431798   3.836   2.945   4.423 -0.2372 -0.0375  0.0389
 8007SOL     OW31799   4.991   0.166   0.370  0.1139 -0.4840  0.7540
 8007SOL    HW231800   4.932   0.125   0.307  1.4122 -0.4559 -0.5023
 8007SOL    HW331801   4.993   0.104   0.444  0.9436 -2.0472 -0.5141
 8007SOL    MW431802   4.983   0.152   0.372  0.0175  0.5651 -0.3644
 8008SOL     OW31803   3.791   1.807   4.287 -0.5377  0.1137  0.4729
 8008SOL    HW231804   3.720   1.866   4.314 -0.5682 -0.1693  1.0182
 8008SOL    HW331805   3.751   1.751   4.220 -0.4554  0.8346 -0.1916
 8008SOL    MW431806   3.776   1.808   4.282  0.1850  0.8264 -0.9170
 8009SOL     OW31807   3.605   0.677   2.287 -0.3961  0.4862 -0.4784
 8009SOL    HW231808   3.532   0.737   2.302  0.5369  1.3714  0.7152
 8009SOL    HW331809   3.674   0.709   2.344  0.2452 -1.5608 -0.0404
 8009SOL    MW431810   3.604   0.689   2.296 -0.0839  0.0622 -0.5058
 8010SOL     OW31811   4.518   2.391   5.057 -0.5976 -0.5167  0.3479
 8010SOL    HW231812   4.447   2.428   5.006 -0.6148 -1.4302 -0.3192
 8010SOL    HW331813   4.531   2.303   5.020  1.3279 -0.1266 -0.0252
 8010SOL    MW431814   4.511   2.384   5.045 -0.2737 -0.0806 -0.3726
 8011SOL     OW31815   3.366   0.407   5.521  0.0884  0.1297  0.3073
 8011SOL    HW231816   3.413   0.332   5.555 -0.4191 -0.6616 -0.6803
 8011SOL    HW331817   3.406   0.424   5.435 -0.1969  0.6081  0.2622
 8011SOL    MW431818   3.377   0.399   5.514  0.9162 -0.3524 -0.4066
 8012SOL     OW31819   2.003   2.866   5.033 -0.1835 -0.0417  0.0706
 8012SOL    HW231820   2.010   2.828   4.945 -1.8389  0.3422 -0.2659
 8012SOL    HW331821   2.080   2.922   5.041 -0.1472  0.1430 -1.2618
 8012SOL    MW431822   2.014   2.869   5.023 -0.2196 -0.2614  0.2633
 8013SOL     OW31823   0.827   0.106   2.801  0.4299  0.3376  0.4805
 8013SOL    HW231824   0.858   0.187   2.841 -0.5722  2.1606 -2.1674
 8013SOL    HW331825   0.873   0.102   2.717 -0.9629 -0.8062 -0.2673
 8013SOL    MW431826   0.837   0.116   2.795  1.3551 -0.5413 -0.6569
 8014SOL     OW31827   5.182   0.459   1.202 -0.3937  0.3523  0.3291
 8014SOL    HW231828   5.128   0.381   1.215 -0.4676  0.0498 -1.5124
 8014SOL    HW331829   5.272   0.426   1.198 -0.3755  0.4252  0.1052
 8014SOL    MW431830   5.187   0.445   1.203  0.1245 -0.4287 -0.1054
 8015SOL     OW31831   1.580   5.311   2.501 -0.4987 -0.2622 -0.2403
 8015SOL    HW231832   1.579   5.399   2.465 -2.0833 -0.1838 -0.0481
 8015SOL    HW331833   1.647   5.314   2.570 -0.3529  0.7136 -0.4150
 8015SOL    MW431834   1.589   5.323   2.506  0.1097 -0.1683  0.3447
 8016SOL     OW31835   4.950   3.114   4.395  0.1156 -0.3993 -0.0341
 8016SOL    HW231836   5.043   3.092   4.400  0.7275  1.3470 -2.0362
 8016SOL    HW331837   4.924   3.131   4.485  2.0986  0.3560  0.4530
 8016SOL    MW431838   4.959   3.113   4.407  0.0637  0.2113 -0.0017
 8017SOL     OW31839   0.271   0.156   0.047 -0.4823  0.5489 -0.1514
 8017SOL    HW231840   0.217   0.187  -0.026 -0.2942 -1.8915 -1.4442
 8017SOL    HW331841   0.290   0.064   0.025  1.0081  0.2277  2.1567
 8017SOL    MW431842   0.267   0.148   0.034  0.3289  0.3370 -0.0917
 8018SOL     OW31843   4.709   5.268   5.584  0.4027  0.1750 -0.7228
 8018SOL    HW231844   4.623   5.308   5.594 -0.0146 -0.5996 -1.0788
 8018SOL    HW331845   4.703   5.218   5.502  1.1425 -0.0015 -0.6822
 8018SOL    MW431846   4.697   5.266   5.574  0.4761  0.2772 -0.1216
 8019SOL     OW31847   3.297   0.771   6.048  0.0281 -0.4357 -0.3867
 8019SOL    HW231848   3.225   0.732   5.998  0.7179  0.0256 -1.8118
 8019SOL    HW331849   3.368   0.779   5.984  0.9175  0.2881  0.6662
 8019SOL    MW431850   3.297   0.767   6.033 -0.2363 -0.4069  0.0817
 8020SOL     OW31851   1.986   1.344   1.315 -0.0972 -0.1600 -0.0671
 8020SOL    HW231852   1.961   1.431   1.346 -0.2920 -0.0122 -0.6292
 8020SOL    HW331853   1.905   1.292   1.320 -0.1155 -0.1519 -0.2701
 8020SOL    MW431854   1.972   1.348   1.320 -0.2033 -0.3866  0.2003
 8021SOL     OW31855   5.204   3.049   2.726  0.2138  0.0711  0.5122
 8021SOL    HW231856   5.276   3.062   2.664  1.3530  1.2123  2.0015
 8021SOL    HW331857   5.185   2.956   2.722  1.1429 -0.0895 -0.5902
 8021SOL    MW431858   5.211   3.039   2.717  0.1564 -0.3389  0.1789
 8022SOL     OW31859   2.205   2.364   4.026  0.1416  0.4697 -0.2254
 8022SOL    HW231860   2.113   2.357   4.052  0.2245 -1.1004 -0.2748
 8022SOL    HW331861   2.249   2.296   4.076  0.9341 -0.1293 -1.7079
 8022SOL    MW431862   2.198   2.354   4.036 -0.2093 -0.4281 -0.4741
 8023SOL     OW31863   2.206   6.280   2.126  0.6916 -0.6997 -0.2912
 8023SOL    HW231864   2.112   6.261   2.131  0.7249 -0.4502  2.9094
 8023SOL    HW331865   2.243   6.203   2.081 -1.0179 -0.6020 -2.0257
 8023SOL    MW431866   2.198   6.267   2.120 -0.4324  0.5887  0.1038
 8024SOL     OW31867   3.433   6.345   5.845  0.1181  0.1269  1.1672
 8024SOL    HW231868   3.467   6.394   5.920  0.0619  0.7879  0.7773
 8024SOL    HW331869   3.457   6.254   5.861 -0.5150  0.1512  2.3328
 8024SOL    MW431870   3.440   6.340   5.857 -0.4668  0.3001  0.7138
 8025SOL     OW31871   5.242   4.669   6.418 -0.2273 -0.2671 -0.1084
 8025SOL    HW231872   5.167   4.626   6.460  0.3182 -1.2927 -0.1635
 8025SOL    HW331873   5.303   4.598   6.400 -0.0193  0.2973 -1.7327
 8025SOL    MW431874   5.240   4.654   6.422  0.4093  0.4094 -0.0659
 8026SOL     OW31875   0.998   3.911   1.381 -0.4811 -0.8629 -0.0892
 8026SOL    HW231876   0.952   3.834   1.413 -0.6272 -1.7516 -2.2574
 8026SOL    HW331877   1.088   3.882   1.368 -0.6835 -0.8891 -1.5484
 8026SOL    MW431878   1.004   3.897   1.384 -0.3524 -0.2170  0.4370
 8027SOL     OW31879   4.919   0.767   0.069  0.0057 -0.1930  0.2412
 8027SOL    HW231880   4.941   0.674   0.063  0.2591 -0.0343 -1.8772
 8027SOL    HW331881   4.945   0.803  -0.015 -2.1113  1.3781  0.1853
 8027SOL    MW431882   4.925   0.759   0.057 -0.1523 -0.1925  0.1428
 8028SOL     OW31883   0.625   6.131   1.634 -0.1506 -0.2982  0.2746
 8028SOL    HW231884   0.582   6.070   1.574 -1.0524 -1.1423  1.6921
 8028SOL    HW331885   0.718   6.110   1.629 -0.3021 -0.8546 -0.2642
 8028SOL    MW431886   0.631   6.120   1.626 -0.3407  0.5013  0.6316
 8029SOL     OW31887   3.621   2.769   1.975 -0.2942 -0.0041  0.1412
 8029SOL    HW231888   3.635   2.675   1.984 -1.0549 -0.1521 -0.1563
 8029SOL    HW331889   3.683   2.797   1.907  2.7129  0.4286  2.8374
 8029SOL    MW431890   3.631   2.761   1.967 -0.4585  0.2063  0.0174
 8030SOL     OW31891   1.183   5.535   5.137  0.2425  0.0643 -0.4109
 8030SOL    HW231892   1.119   5.475   5.175 -0.4222  0.4267 -0.9381
 8030SOL    HW331893   1.239   5.480   5.082  1.2639 -0.4835  1.1130
 8030SOL    MW431894   1.182   5.520   5.135 -0.0177  0.5926 -0.6888
 8031SOL     OW31895   3.920   3.508   0.907  0.0745 -0.5838  0.2402
 8031SOL    HW231896   3.891   3.417   0.899 -0.4138 -0.5522  1.4265
 8031SOL    HW331897   3.975   3.509   0.985  0.2507  0.0974  0.1163
 8031SOL    MW431898   3.923   3.496   0.916 -0.4624 -0.1871 -0.6800
 8032SOL     OW31899   2.099   0.867   4.609 -0.4579 -0.3944 -0.6443
 8032SOL    HW231900   2.110   0.953   4.650  1.1345 -0.9906  0.3003
 8032SOL    HW331901   2.155   0.809   4.661 -1.8686 -2.1143 -0.9513
 8032SOL    MW431902   2.108   0.870   4.621  0.2422  0.1087 -0.3055
 8033SOL     OW31903   3.177   5.924   1.060 -0.4166  0.0069 -0.3613
 8033SOL    HW231904   3.254   5.972   1.030  0.4575 -0.7118  0.6643
 8033SOL    HW331905   3.197   5.898   1.150 -2.2535  0.6141  0.2785
 8033SOL    MW431906   3.190   5.927   1.068 -0.2162  0.0469  0.0723
 8034SOL     OW31907   5.599   1.226   4.619 -0.2148 -0.8580 -0.2031
 8034SOL    HW231908   5.557   1.178   4.547 -1.1559  1.4293 -1.2939
 8034SOL    HW331909   5.638   1.303   4.577 -0.3184  0.2772  1.6507
 8034SOL    MW431910   5.599   1.230   4.604 -0.5436 -0.4090  0.3921
 8035SOL     OW31911   4.946   5.056   3.045  0.0943 -0.6600  0.5225
 8035SOL    HW231912   4.872   5.033   2.989  0.8429 -1.9119  0.0122
 8035SOL    HW331913   5.009   5.097   2.986 -0.5454  1.3013  1.1277
 8035SOL    MW431914   4.944   5.058   3.030 -0.1338 -0.0611 -0.3076
 8036SOL     OW31915   2.402   1.844   4.208  0.0745  0.1034  0.5864
 8036SOL    HW231916   2.332   1.865   4.271  0.4450 -0.4787  1.2077
 8036SOL    HW331917   2.363   1.862   4.122 -0.3343  1.2305  0.9855
 8036SOL    MW431918   2.387   1.849   4.205  0.2550  0.7014  0.3440
 8037SOL     OW31919   5.502   0.970   3.091  0.3018  0.3527  0.1133
 8037SOL    HW231920   5.494   0.994   3.183  1.0119  1.1236 -0.0140
 8037SOL    HW331921   5.559   1.037   3.053 -0.7174  0.5705 -1.0900
 8037SOL    MW431922   5.509   0.982   3.098  0.2469 -0.0623 -0.0130
 8038SOL     OW31923   3.527   1.841   1.038 -0.0780 -0.4957 -0.7797
 8038SOL    HW231924   3.495   1.926   1.070  1.9096  0.1343 -0.2764
 8038SOL    HW331925   3.557   1.860   0.949  1.0803 -0.4380 -0.3985
 8038SOL    MW431926   3.527   1.855   1.030 -0.0867 -0.8013  0.5232
 8039SOL     OW31927   1.881   6.429   5.391 -0.2145  0.0442  0.0065
 8039SOL    HW231928   1.976   6.432   5.399 -0.0308  0.0133 -1.7903
 8039SOL    HW331929   1.849   6.462   5.475  1.3371 -1.4837  1.2675
 8039SOL    MW431930   1.889   6.434   5.403 -0.2625 -0.5564 -0.1974
 8040SOL     OW31931   0.558   2.105   4.881 -0.2201 -0.3707 -0.5088
 8040SOL    HW231932   0.645   2.137   4.902 -0.7359  0.4082  0.5330
 8040SOL    HW331933   0.547   2.028   4.937 -0.1888 -0.4763 -0.6494
 8040SOL    MW431934   0.568   2.099   4.891  0.6847 -0.3420 -0.0577
 8041SOL     OW31935   3.463   1.865   5.525 -0.2748 -0.6234  0.3406
 8041SOL    HW231936   3.457   1.773   5.551  0.1962 -0.6989  0.1911
 8041SOL    HW331937   3.372   1.891   5.510 -0.2981 -1.6999 -1.7570
 8041SOL    MW431938   3.450   1.856   5.526  0.5387 -0.3392 -0.1298
 8042SOL     OW31939   1.572   5.346   4.331  0.0869 -0.4533  0.1620
 8042SOL    HW231940   1.581   5.360   4.425  3.5053  0.9980 -0.2317
 8042SOL    HW331941   1.502   5.406   4.305  0.1452  0.3027  1.5978
 8042SOL    MW431942   1.564   5.356   4.340 -0.5475 -0.2322  0.4039
 8043SOL     OW31943   0.766   0.053   0.725 -0.2222 -0.3641 -0.5227
 8043SOL    HW231944   0.807   0.129   0.683 -0.8017 -0.6135 -1.5578
 8043SOL    HW331945   0.736   0.087   0.810 -1.8975  1.0277 -1.5924
 8043SOL    MW431946   0.768   0.068   0.731  0.1087  0.2095  0.8328
 8044SOL     OW31947   1.838   6.032   3.803 -0.2809 -0.1792 -0.3202
 8044SOL    HW231948   1.853   6.086   3.881 -0.4873 -0.1483 -0.3026
 8044SOL    HW331949   1.821   5.944   3.838 -2.9963  0.3274 -0.1707
 8044SOL    MW431950   1.838   6.027   3.818 -0.3434  0.2237  0.2474
 8045SOL     OW31951   2.342   0.066   1.248  0.0817 -0.2629 -0.0718
 8045SOL    HW231952   2.310   0.052   1.337 -2.3060 -1.1171 -0.9845
 8045SOL    HW331953   2.321   0.157   1.229  0.9348  0.0324  0.3246
 8045SOL    MW431954   2.335   0.076   1.257 -0.7593  0.1548 -0.3041
 8046SOL     OW31955   6.395   5.231   3.935  0.1897  0.0559  0.2451
 8046SOL    HW231956   6.358   5.316   3.960 -0.2189  0.0678 -0.3792
 8046SOL    HW331957   6.402   5.235   3.839  0.4358 -0.5093  0.2354
 8046SOL    MW431958   6.391   5.243   3.926  0.2817  0.4899  0.0714
 8047SOL     OW31959   6.140   1.365   0.424  0.1620 -0.2367 -0.0113
 8047SOL    HW231960   6.223   1.410   0.409  0.6743 -1.8868 -2.7332
 8047SOL    HW331961   6.121   1.321   0.341 -3.1873 -0.3517  0.6693
 8047SOL    MW431962   6.148   1.365   0.411 -0.1358  0.3108  0.2115
 8048SOL     OW31963   6.089   5.759   2.907  0.0338 -0.1464 -0.4548
 8048SOL    HW231964   6.101   5.774   2.813 -0.0712 -0.8266 -0.5769
 8048SOL    HW331965   6.070   5.847   2.942  1.4630  0.3381 -0.8426
 8048SOL    MW431966   6.088   5.773   2.899  0.6528 -0.2726 -0.4200
 8049SOL     OW31967   4.468   1.542   5.012 -0.5308  0.4092  0.0341
 8049SOL    HW231968   4.400   1.546   5.079 -0.2187  0.8946  0.3303
 8049SOL    HW331969   4.518   1.623   5.024  0.4367 -0.1980  0.1906
 8049SOL    MW431970   4.466   1.553   5.023  0.0966  0.1848  0.3220
 8050SOL     OW31971   4.086   4.323   0.504 -0.0695  0.9813  0.1720
 8050SOL    HW231972   4.041   4.244   0.475  1.4837 -0.3777  1.2558
 8050SOL    HW331973   4.149   4.342   0.435  0.7480  0.2228  0.6936
 8050SOL    MW431974   4.088   4.315   0.491  0.3076  0.2891  0.2049
 8051SOL     OW31975   2.956   5.583   4.630 -0.4977 -0.0621 -0.1899
 8051SOL    HW231976   2.904   5.656   4.599  1.8299  2.2801  1.0713
 8051SOL    HW331977   3.009   5.556   4.555 -1.4638 -0.6122 -0.6946
 8051SOL    MW431978   2.956   5.589   4.616  1.1849  0.4002  0.1223
 8052SOL     OW31979   4.119   2.482   6.414 -0.7508  0.6638  0.4497
 8052SOL    HW231980   4.212   2.491   6.435  0.1735 -1.1260 -2.2583
 8052SOL    HW331981   4.098   2.392   6.437 -1.0112  0.2097 -1.4048
 8052SOL    MW431982   4.129   2.471   6.420 -0.2950  0.4563  0.1597
 8053SOL     OW31983   0.541   1.173   6.331  0.3846 -0.3533 -0.3109
 8053SOL    HW231984   0.538   1.132   6.417  0.3170  0.6789  0.2021
 8053SOL    HW331985   0.450   1.193   6.311  0.3486 -1.0537 -0.8585
 8053SOL    MW431986   0.529   1.170   6.340 -0.5370 -0.3503 -0.0646
 8054SOL     OW31987   1.312   3.112   3.948 -0.1444 -0.1326 -0.1551
 8054SOL    HW231988   1.278   3.026   3.922  0.2934 -0.4143  0.1873
 8054SOL    HW331989   1.390   3.092   3.999  0.1161  0.4817 -0.3075
 8054SOL    MW431990   1.318   3.098   3.951 -0.2573 -0.0273 -0.2373
 8055SOL     OW31991   5.369   6.435   4.631 -0.4974  0.4101 -0.2354
 8055SOL    HW231992   5.361   6.530   4.623 -2.3498  0.4197  1.0320
 8055SOL    HW331993   5.380   6.420   4.725 -1.2388 -0.6618 -0.2973
 8055SOL    MW431994   5.369   6.446   4.643  0.5442  0.1543 -0.1696
 8056SOL     OW31995   1.172   5.173   5.146  0.1629 -0.2178  0.2714
 8056SOL    HW231996   1.193   5.110   5.077  0.9838  1.5170 -1.1512
 8056SOL    HW331997   1.249   5.175   5.201 -0.1328 -0.9356  0.7214
 8056SOL    MW431998   1.185   5.165   5.144 -0.3143 -0.7146 -0.4881
 8057SOL     OW31999   1.352   0.176   0.290  0.2315 -0.1567  0.3570
 8057SOL    HW232000   1.320   0.176   0.200 -0.7687  2.0327  0.6287
 8057SOL    HW332001   1.410   0.101   0.295  2.8403  1.3478 -3.0448
 8057SOL    MW432002   1.355   0.166   0.279  0.0354 -0.3322  0.0718
 8058SOL     OW32003   3.080   4.487   3.997  0.1075  0.4334 -0.1803
 8058SOL    HW232004   3.076   4.487   3.901 -1.5645  0.3281 -0.1382
 8058SOL    HW332005   3.171   4.463   4.017 -0.0501 -1.7668 -1.7450
 8058SOL    MW432006   3.092   4.484   3.987 -0.1851  0.2178  0.4475
 8059SOL     OW32007   3.341   1.251   0.078 -0.1693  0.2113 -0.0360
 8059SOL    HW232008   3.261   1.280   0.034 -0.5606  2.6334  2.0502
 8059SOL    HW332009   3.328   1.158   0.093 -1.9135  0.2407 -1.1418
 8059SOL    MW432010   3.329   1.243   0.074 -0.0403  0.2213  0.3614
 8060SOL     OW32011   4.703   1.163   6.226  0.2712  0.5680  0.1384
 8060SOL    HW232012   4.713   1.237   6.167  0.3724  0.4868  0.0523
 8060SOL    HW332013   4.609   1.155   6.240 -0.1561 -1.6050 -2.8772
 8060SOL    MW432014   4.692   1.171   6.220 -0.2617 -0.3232  0.0710
 8061SOL     OW32015   6.284   5.964   4.575  0.0855  0.2650 -0.1118
 8061SOL    HW232016   6.289   5.968   4.479 -0.6367  0.4782 -0.1477
 8061SOL    HW332017   6.354   6.021   4.605  0.4494  0.0394 -0.5116
 8061SOL    MW432018   6.294   5.972   4.566 -0.2920 -0.2950 -0.2173
 8062SOL     OW32019   2.184   5.099   2.131 -0.4448  0.0226  0.0785
 8062SOL    HW232020   2.132   5.020   2.146 -1.2998  0.4267 -0.6452
 8062SOL    HW332021   2.124   5.160   2.089  0.4032  0.8005 -0.0484
 8062SOL    MW432022   2.169   5.096   2.127 -0.2211  0.1486  0.5550
 8063SOL     OW32023   3.708   4.884   3.889  0.1064  0.1356 -0.7699
 8063SOL    HW232024   3.684   4.828   3.815  1.2435 -0.9058 -0.3908
 8063SOL    HW332025   3.629   4.889   3.943 -0.4551  0.1532 -1.5838
 8063SOL    MW432026   3.695   4.877   3.887  0.2629 -0.3969 -0.2033
 8064SOL     OW32027   1.219   1.565   2.251 -0.1284  0.2953 -0.1410
 8064SOL    HW232028   1.174   1.500   2.303 -1.8997  1.4367 -0.1557
 8064SOL    HW332029   1.164   1.577   2.173  0.1123  1.8065 -0.1250
 8064SOL    MW432030   1.206   1.558   2.247 -0.0136  0.2703  0.1588
 8065SOL     OW32031   6.398   0.655   4.627 -0.5683  0.5453  0.5170
 8065SOL    HW232032   6.403   0.709   4.548 -0.8053 -3.3533 -2.4488
 8065SOL    HW332033   6.305   0.652   4.648 -0.5393  1.3113  0.8166
 8065SOL    MW432034   6.386   0.662   4.619 -0.2237 -0.3759 -0.1443
 8066SOL     OW32035   2.613   1.148   3.497 -0.0175 -0.0044  0.1861
 8066SOL    HW232036   2.705   1.145   3.471 -0.5420 -1.4309 -1.7054
 8066SOL    HW332037   2.601   1.069   3.549 -0.3620 -0.2402 -0.2528
 8066SOL    MW432038   2.624   1.138   3.500  0.1667  0.2448 -0.0110
 8067SOL     OW32039   0.839   3.455   5.170 -0.1491 -0.2957  0.0667
 8067SOL    HW232040   0.802   3.426   5.087  1.5475 -1.4224 -0.3607
 8067SOL    HW332041   0.835   3.378   5.227  1.1851 -0.3720  0.0962
 8067SOL    MW432042   0.834   3.441   5.167 -0.5491  0.3160  0.1855
 8068SOL     OW32043   1.259   1.666   5.061 -0.2375  0.1876  0.1061
 8068SOL    HW232044   1.186   1.608   5.081  0.3170 -0.4351  0.3461
 8068SOL    HW332045   1.313   1.665   5.140  1.0259 -0.8612 -0.7432
 8068SOL    MW432046   1.257   1.658   5.074  0.2148  0.2017  0.1919
 8069SOL     OW32047   2.711   3.143   3.684 -0.2279 -0.2050  0.1369
 8069SOL    HW232048   2.773   3.106   3.621 -2.1132 -0.7569 -1.4888
 8069SOL    HW332049   2.732   3.236   3.686 -1.0382  0.1160 -2.5039
 8069SOL    MW432050   2.722   3.150   3.676  0.1067  0.0593  0.0277
 8070SOL     OW32051   3.080   1.417   2.106  0.6819  0.1460  0.1594
 8070SOL    HW232052   3.105   1.327   2.128  0.3032  0.6736  3.1489
 8070SOL    HW332053   3.154   1.451   2.057  1.6590 -1.2189  0.6263
 8070SOL    MW432054   3.093   1.409   2.102 -0.4703 -0.1374 -0.5340
 8071SOL     OW32055   1.960   4.082   1.958  0.2613 -0.1674  0.3100
 8071SOL    HW232056   2.002   4.134   1.888  1.5099 -1.1120  0.3310
 8071SOL    HW332057   1.988   3.992   1.941 -1.5020 -0.8038  0.5485
 8071SOL    MW432058   1.969   4.077   1.946  0.0779 -0.0696  0.0018
 8072SOL     OW32059   3.477   0.202   0.069 -0.0131 -0.1717 -0.3054
 8072SOL    HW232060   3.453   0.293   0.055 -0.6251 -0.5404 -1.8782
 8072SOL    HW332061   3.563   0.205   0.109  0.0839  1.0926 -0.5744
 8072SOL    MW432062   3.485   0.214   0.073  0.5187 -0.3182  0.6444
 8073SOL     OW32063   3.784   4.210   6.037  0.2104  0.0016  0.2064
 8073SOL    HW232064   3.858   4.269   6.020 -0.3096  0.6386  0.1086
 8073SOL    HW332065   3.767   4.167   5.953  0.1791  0.1945  0.1143
 8073SOL    MW432066   3.791   4.212   6.024 -0.3136 -0.1306 -0.0213
 8074SOL     OW32067   2.725   2.371   5.642  1.0304  0.2008 -0.0952
 8074SOL    HW232068   2.767   2.435   5.699 -0.3848  2.7846 -1.7207
 8074SOL    HW332069   2.782   2.365   5.566  0.2254  1.0731 -0.7922
 8074SOL    MW432070   2.738   2.379   5.640 -0.4787  0.2641  0.5972
 8075SOL     OW32071   2.606   3.380   2.427 -0.2641  0.7290  0.6514
 8075SOL    HW232072   2.536   3.446   2.435  0.9783  2.0215  1.3751
 8075SOL    HW332073   2.686   3.427   2.451  0.8548 -0.7474 -0.0261
 8075SOL    MW432074   2.607   3.395   2.432  0.2312  0.4454  0.2351
 8076SOL     OW32075   3.682   5.969   5.507  0.5819 -0.0692  0.4280
 8076SOL    HW232076   3.632   6.048   5.525  0.7550 -0.0957  1.0374
 8076SOL    HW332077   3.713   5.940   5.592 -0.9417 -1.7911  0.4512
 8076SOL    MW432078   3.680   5.975   5.520  0.7374 -0.3610 -0.3930
 8077SOL     OW32079   2.064   1.430   5.594 -0.0406 -0.0211  0.2138
 8077SOL    HW232080   2.000   1.396   5.657  0.0181  0.9371  0.8254
 8077SOL    HW332081   2.094   1.353   5.546 -1.3960 -0.5404  0.1406
 8077SOL    MW432082   2.059   1.416   5.596 -0.2082 -0.2440 -0.3755
 8078SOL     OW32083   2.543   6.261   0.352  0.1913  0.0711  0.0361
 8078SOL    HW232084   2.485   6.187   0.333 -1.6245  2.1163 -3.4580
 8078SOL    HW332085   2.503   6.303   0.428 -1.3500 -0.1417 -0.6120
 8078SOL    MW432086   2.530   6.256   0.359  0.4584  0.1513 -0.4402
 8079SOL     OW32087   2.944   4.993   1.502  0.5804  0.6662 -0.2871
 8079SOL    HW232088   2.999   4.930   1.549  1.4519 -0.1057 -2.2705
 8079SOL    HW332089   2.880   5.021   1.568  3.5887  2.0722  2.3619
 8079SOL    MW432090   2.943   4.988   1.517  0.4081 -0.6109 -0.0205
 8080SOL     OW32091   2.870   6.079   1.781 -0.9053 -0.0337  0.8332
 8080SOL    HW232092   2.858   5.988   1.807 -0.8364  0.1699  1.6076
 8080SOL    HW332093   2.863   6.078   1.685 -0.8938 -0.8480  0.8346
 8080SOL    MW432094   2.867   6.067   1.772  0.1337  0.0076 -0.0841
 8081SOL     OW32095   3.880   4.518   4.427 -0.2267  0.1220 -0.3407
 8081SOL    HW232096   3.849   4.608   4.417 -0.1334  0.2847  0.7431
 8081SOL    HW332097   3.975   4.526   4.434 -0.1266 -0.1617 -1.2255
 8081SOL    MW432098   3.889   4.531   4.427 -0.1120  0.0279 -0.3780
 8082SOL     OW32099   0.913   5.582   3.693  0.5833  0.1561 -0.4736
 8082SOL    HW232100   0.900   5.488   3.707  1.2802  0.2298  0.8672
 8082SOL    HW332101   0.939   5.615   3.779 -0.0308  1.6555 -0.8350
 8082SOL    MW432102   0.915   5.574   3.706 -0.1070  0.0092  0.3623
 8083SOL     OW32103   0.802   5.690   5.390 -0.3743  0.1174 -0.0155
 8083SOL    HW232104   0.851   5.743   5.326  1.5290  0.3185  1.5057
 8083SOL    HW332105   0.833   5.601   5.374 -0.8574 -0.0206 -0.1917
 8083SOL    MW432106   0.813   5.685   5.379 -0.1051 -0.1811 -0.1025
 8084SOL     OW32107   4.086   5.708   0.980  0.0290  0.2254 -0.2993
 8084SOL    HW232108   4.012   5.684   0.925  0.6475  1.2644 -1.6541
 8084SOL    HW332109   4.125   5.624   1.006 -0.9120 -0.2998 -0.5420
 8084SOL    MW432110   4.081   5.694   0.976 -0.7683  0.2678  0.0415
 8085SOL     OW32111   2.841   4.261   2.157  0.5013  0.2728  0.5681
 8085SOL    HW232112   2.818   4.170   2.179 -0.0283  0.0831 -0.7121
 8085SOL    HW332113   2.804   4.313   2.229  1.4236 -0.5640  1.6893
 8085SOL    MW432114   2.833   4.256   2.169 -0.2066  0.5179 -0.2921
 8086SOL     OW32115   1.273   4.494   5.881 -0.3856  0.1395  0.1251
 8086SOL    HW232116   1.196   4.476   5.935 -0.7011  1.5701  0.1936
 8086SOL    HW332117   1.280   4.590   5.879  1.7271  0.0489  0.5834
 8086SOL    MW432118   1.264   4.505   5.888  0.4176 -0.6993  0.6134
 8087SOL     OW32119   6.293   2.502   6.212  0.4280 -0.2351 -0.0573
 8087SOL    HW232120   6.378   2.486   6.254  0.4920 -0.3173 -0.2183
 8087SOL    HW332121   6.295   2.449   6.133  0.7737  0.7940 -0.7677
 8087SOL    MW432122   6.305   2.493   6.207  0.0531 -0.6638  0.4090
 8088SOL     OW32123   2.417   0.715   3.157  0.4182  0.4595 -1.1025
 8088SOL    HW232124   2.475   0.679   3.090 -0.1258  1.1724 -1.9797
 8088SOL    HW332125   2.329   0.710   3.119 -0.3475 -1.7513  0.6725
 8088SOL    MW432126   2.413   0.710   3.143  0.0847 -0.2631 -0.5544
 8089SOL     OW32127   4.100   1.236   5.470  0.2212 -0.0725  0.2735
 8089SOL    HW232128   4.066   1.165   5.417  0.7525 -0.7756  0.8525
 8089SOL    HW332129   4.026   1.297   5.478 -0.3242 -0.6800 -0.0081
 8089SOL    MW432130   4.085   1.235   5.464 -0.1779  0.1606  0.3309
 8090SOL     OW32131   0.483   4.619   0.095 -0.1524 -0.1074 -0.8786
 8090SOL    HW232132   0.408   4.574   0.134  0.0548 -0.3027 -0.7009
 8090SOL    HW332133   0.494   4.697   0.149  0.4676 -0.6482 -0.1987
 8090SOL    MW432134   0.475   4.623   0.107 -0.6350 -0.0327 -0.2576
 8091SOL     OW32135   1.094   3.351   3.669 -0.2232  0.1271 -0.0883
 8091SOL    HW232136   1.188   3.365   3.668 -0.4675  2.0358 -0.5732
 8091SOL    HW332137   1.059   3.425   3.719 -1.5867  0.5710 -1.6103
 8091SOL    MW432138   1.102   3.363   3.675 -0.4219 -0.1642  0.4235
 8092SOL     OW32139   0.008   5.119   5.676  0.3616 -0.5422  0.1183
 8092SOL    HW232140   0.084   5.160   5.635  0.1802 -1.9311 -1.7229
 8092SOL    HW332141   0.038   5.031   5.700 -0.0234 -0.3152  1.5340
 8092SOL    MW432142   0.022   5.113   5.674 -0.7318 -0.3110  0.1369
 8093SOL     OW32143   4.130   4.946   2.760 -0.1920 -0.0139 -0.5169
 8093SOL    HW232144   4.212   4.950   2.810  0.2328 -0.0574 -1.2006
 8093SOL    HW332145   4.081   5.023   2.788  0.2142  0.1761 -0.3226
 8093SOL    MW432146   4.134   4.956   2.770 -0.0529  0.4924 -0.0105
 8094SOL     OW32147   2.924   0.690   0.591 -0.4579 -0.3189 -0.1335
 8094SOL    HW232148   2.915   0.707   0.497 -0.0324  0.3474 -0.0579
 8094SOL    HW332149   2.995   0.626   0.597  0.2269  0.4154 -0.2061
 8094SOL    MW432150   2.932   0.683   0.579 -0.2178  0.0714 -0.3247
 8095SOL     OW32151   6.317   4.330   4.346 -0.7265 -0.3523 -0.1204
 8095SOL    HW232152   6.251   4.261   4.340 -1.1266 -0.0893  1.1173
 8095SOL    HW332153   6.268   4.409   4.368 -0.0249 -0.1234  0.6435
 8095SOL    MW432154   6.302   4.331   4.348 -0.0851  0.1645 -0.4661
 8096SOL     OW32155   5.646   2.931   0.634 -0.5646  0.3998 -0.0270
 8096SOL    HW232156   5.731   2.940   0.592 -0.4350  2.9440  0.6266
 8096SOL    HW332157   5.636   2.837   0.647  1.6340 -0.0515 -1.1110
 8096SOL    MW432158   5.656   2.920   0.630  0.4903  0.2460 -0.3347
 8097SOL     OW32159   0.111   4.975   1.769  0.1381  0.2617 -0.3760
 8097SOL    HW232160   0.182   4.918   1.739 -0.9466 -1.8233  0.7084
 8097SOL    HW332161   0.113   4.966   1.865  0.1888  2.4572 -0.1339
 8097SOL    MW432162   0.121   4.966   1.778  0.3307 -0.0253 -0.2103
 8098SOL     OW32163   5.662   0.423   2.104 -0.4269  0.5163 -0.1230
 8098SOL    HW232164   5.702   0.477   2.036 -0.0104  1.4833  0.8650
 8098SOL    HW332165   5.598   0.369   2.057  1.2248 -0.2700 -1.5632
 8098SOL    MW432166   5.659   0.423   2.089 -0.5562  0.2593  0.2426
 8099SOL     OW32167   5.763   5.166   5.063 -0.7590 -0.2930  0.1159
 8099SOL    HW232168   5.814   5.086   5.080 -0.6320 -0.4813 -1.1070
 8099SOL    HW332169   5.695   5.138   5.002 -0.7936  0.5128 -0.2146
 8099SOL    MW432170   5.761   5.151   5.057  0.1510  0.9292  0.4540
 8100SOL     OW32171   4.457   4.008   2.737  0.0119  0.3709  0.1899
 8100SOL    HW232172   4.399   3.989   2.811 -0.3015 -0.3121 -0.2278
 8100SOL    HW332173   4.404   3.991   2.659  0.0797  1.8653 -0.2246
 8100SOL    MW432174   4.442   4.004   2.737  0.0870  0.2138 -0.1004
 8101SOL     OW32175   5.788   5.728   2.761  0.6013 -0.5375  0.1143
 8101SOL    HW232176   5.750   5.644   2.734 -0.0748  0.1408 -1.1313
 8101SOL    HW332177   5.877   5.706   2.789  1.3478 -1.3866 -2.5753
 8101SOL    MW432178   5.795   5.714   2.761 -0.2117 -0.1133 -0.2216
 8102SOL     OW32179   2.257   5.358   1.740  0.2668  0.3136  0.0917
 8102SOL    HW232180   2.164   5.335   1.736 -0.6996  3.4860  1.1917
 8102SOL    HW332181   2.279   5.383   1.651  0.7421 -2.3229 -0.6312
 8102SOL    MW432182   2.247   5.358   1.728 -0.3642  0.0932 -0.1023
 8103SOL     OW32183   1.190   3.416   1.612 -0.2177 -0.2829  0.2825
 8103SOL    HW232184   1.118   3.419   1.549 -2.3448 -1.6008  2.4730
 8103SOL    HW332185   1.267   3.396   1.559 -2.0038 -2.1028 -1.8277
 8103SOL    MW432186   1.191   3.414   1.597  0.0300  0.3177  0.0481
 8104SOL     OW32187   3.107   5.050   1.029 -0.3512  0.1142  0.3372
 8104SOL    HW232188   3.016   5.041   1.059 -0.2505 -2.9568 -0.0017
 8104SOL    HW332189   3.099   5.067   0.935 -0.6012 -0.1400  0.3077
 8104SOL    MW432190   3.094   5.051   1.021 -0.5361 -0.2717  0.0894
 8105SOL     OW32191   2.630   4.627   4.783  0.0004 -0.4530  0.2423
 8105SOL    HW232192   2.596   4.541   4.808  1.7370 -0.9819  0.9026
 8105SOL    HW332193   2.667   4.613   4.695 -1.3332  0.0964 -0.4353
 8105SOL    MW432194   2.630   4.614   4.775  0.3668 -0.2005 -0.4403
 8106SOL     OW32195   4.637   4.742   2.510  0.8343  0.5029  0.3161
 8106SOL    HW232196   4.598   4.739   2.423 -0.0004 -0.1838  0.6893
 8106SOL    HW332197   4.575   4.793   2.562  1.0894  0.5056  0.6184
 8106SOL    MW432198   4.624   4.748   2.505 -0.2042 -0.5380  0.2787
 8107SOL     OW32199   5.975   2.576   4.012 -0.3542  0.5724  0.2565
 8107SOL    HW232200   5.950   2.535   4.094  1.8869 -2.0366 -0.1940
 8107SOL    HW332201   5.892   2.601   3.970 -1.6039  0.3136  2.4597
 8107SOL    MW432202   5.961   2.574   4.017 -0.0084 -0.2541  0.2762
 8108SOL     OW32203   5.807   0.442   5.815 -0.4994  0.0553  0.3520
 8108SOL    HW232204   5.871   0.427   5.884  1.1221 -1.3875 -1.3585
 8108SOL    HW332205   5.823   0.532   5.787  1.2764 -0.4699 -0.4534
 8108SOL    MW432206   5.817   0.452   5.820  0.4786  0.6086 -0.3172
 8109SOL     OW32207   5.732   2.486   4.202  0.1296 -0.4998  0.7756
 8109SOL    HW232208   5.691   2.544   4.138 -0.3642 -2.4392 -0.7849
 8109SOL    HW332209   5.758   2.543   4.274 -1.9648  1.3506  0.1582
 8109SOL    MW432210   5.730   2.501   4.203 -0.4950 -0.4341 -0.1235
 8110SOL     OW32211   4.080   1.752   2.974 -0.6044 -0.0684  0.3836
 8110SOL    HW232212   4.100   1.733   3.066  0.0754  1.2077  0.5211
 8110SOL    HW332213   4.045   1.841   2.975 -0.1952  0.1196 -0.6377
 8110SOL    MW432214   4.078   1.761   2.987  0.4522 -0.2531 -0.5425
 8111SOL     OW32215   5.105   0.754   2.973  0.1420  0.4003 -0.6043
 8111SOL    HW232216   5.064   0.689   3.030  1.1886  0.1949 -0.0603
 8111SOL    HW332217   5.053   0.751   2.893 -0.1036 -0.7787 -0.4206
 8111SOL    MW432218   5.093   0.745   2.970  0.2934 -0.5408  0.5398
 8112SOL     OW32219   5.832   2.269   3.875  0.1664 -0.1832 -0.3585
 8112SOL    HW232220   5.829   2.192   3.819 -1.2544  0.0469 -0.6401
 8112SOL    HW332221   5.916   2.263   3.921 -0.6040 -2.8108  0.8858
 8112SOL    MW432222   5.843   2.258   3.874  0.2606  0.0932 -0.0681
 8113SOL     OW32223   4.873   0.089   1.031  0.2651  0.4058  0.0354
 8113SOL    HW232224   4.857   0.161   0.969 -0.3057 -0.0981 -0.4095
 8113SOL    HW332225   4.787   0.047   1.042  0.2506  0.7608  1.5285
 8113SOL    MW432226   4.859   0.093   1.024  0.0400 -0.2378  0.3495
 8114SOL     OW32227   5.453   2.080   0.724 -0.2733 -0.4862  0.0552
 8114SOL    HW232228   5.383   2.079   0.658  0.6189  2.6305 -1.1045
 8114SOL    HW332229   5.432   2.155   0.779  0.5480 -1.3654  1.6048
 8114SOL    MW432230   5.441   2.090   0.722 -0.1289 -0.0428  0.0923
 8115SOL     OW32231   1.450   4.179   5.086 -0.6405 -0.2297  0.0064
 8115SOL    HW232232   1.533   4.210   5.052 -0.1451 -2.2055 -0.7612
 8115SOL    HW332233   1.388   4.249   5.066  0.7233  1.0651  0.1588
 8115SOL    MW432234   1.452   4.192   5.079  0.0903 -0.2200 -0.1972
 8116SOL     OW32235   4.251   3.140   1.691 -0.0461  0.7252 -0.0592
 8116SOL    HW232236   4.205   3.142   1.776 -2.2975 -0.1437 -1.1752
 8116SOL    HW332237   4.204   3.202   1.637 -1.3840 -1.7175 -1.8917
 8116SOL    MW432238   4.239   3.148   1.695  0.0788  0.3944 -0.2059
 8117SOL     OW32239   6.293   0.456   1.668 -0.7791  0.0288 -0.0408
 8117SOL    HW232240   6.303   0.366   1.639  2.2601  1.3024 -3.7534
 8117SOL    HW332241   6.216   0.488   1.621 -0.9192 -0.1900  0.0390
 8117SOL    MW432242   6.284   0.449   1.658 -0.1692 -0.0458 -0.2513
 8118SOL     OW32243   1.963   4.948   1.737  0.5371 -0.3397  0.6548
 8118SOL    HW232244   1.985   5.034   1.702  2.5204 -1.4976 -1.2013
 8118SOL    HW332245   1.869   4.937   1.717  0.7965  0.4888 -1.2355
 8118SOL    MW432246   1.953   4.958   1.730  0.1030  0.3055 -0.4485
 8119SOL     OW32247   3.799   5.784   4.674 -0.1762  0.3527  0.0089
 8119SOL    HW232248   3.848   5.734   4.740 -1.3296  1.0472  1.4406
 8119SOL    HW332249   3.711   5.792   4.710 -0.4097  2.1735 -0.8510
 8119SOL    MW432250   3.794   5.778   4.687 -0.1560  0.1536  0.1938
 8120SOL     OW32251   2.084   3.166   0.369  0.4406 -0.5834 -0.2680
 8120SOL    HW232252   2.073   3.082   0.412 -1.0017 -1.0151 -1.3879
 8120SOL    HW332253   2.008   3.218   0.396  0.5278 -0.1849 -0.7625
 8120SOL    MW432254   2.072   3.162   0.378 -0.0992  0.1905 -0.1862
 8121SOL     OW32255   3.848   6.332   4.412  0.7117  0.0658 -0.5743
 8121SOL    HW232256   3.790   6.346   4.337  0.0732 -0.7480 -0.2531
 8121SOL    HW332257   3.879   6.419   4.435 -1.2313  0.6788 -0.0854
 8121SOL    MW432258   3.845   6.345   4.405  0.2908 -0.7101 -0.2023
 8122SOL     OW32259   4.970   4.340   1.721  0.0680 -0.1180 -0.1432
 8122SOL    HW232260   5.021   4.420   1.736  1.3035 -0.9906  0.4293
 8122SOL    HW332261   4.886   4.357   1.763  0.5888  0.5958  0.6407
 8122SOL    MW432262   4.965   4.353   1.729  0.3673  0.6072  0.4537
 8123SOL     OW32263   3.683   3.000   5.245  1.0338  0.1609  0.1932
 8123SOL    HW232264   3.691   2.967   5.155 -0.0344 -0.8820  0.4661
 8123SOL    HW332265   3.766   3.045   5.261  0.3394  2.5881 -2.1699
 8123SOL    MW432266   3.695   3.002   5.235  0.5200  0.1079  0.4641
 8124SOL     OW32267   1.149   1.711   0.007  0.2943 -0.6918  0.4649
 8124SOL    HW232268   1.138   1.650   0.079  0.8402 -0.6000  0.6291
 8124SOL    HW332269   1.102   1.670  -0.066 -2.1127  0.2129  1.4000
 8124SOL    MW432270   1.141   1.697   0.007  0.1914 -0.0099 -0.2260
 8125SOL     OW32271   4.280   4.445   2.360 -0.2011 -0.5528  0.8452
 8125SOL    HW232272   4.216   4.375   2.356 -0.2648 -0.4505 -1.6171
 8125SOL    HW332273   4.232   4.523   2.333  0.5654 -0.1613  0.5597
 8125SOL    MW432274   4.266   4.446   2.356  0.2703  0.2237  0.0960
 8126SOL     OW32275   4.432   4.035   0.623  0.1247  0.3977 -0.2588
 8126SOL    HW232276   4.381   4.115   0.633  0.5797  1.0961 -2.8275
 8126SOL    HW332277   4.512   4.051   0.672 -0.9819  0.3035  1.6717
 8126SOL    MW432278   4.436   4.047   0.631 -0.0886  0.8368  0.1507
 8127SOL     OW32279   5.099   1.499   4.883 -0.2503  0.1523 -0.1291
 8127SOL    HW232280   5.003   1.496   4.893 -0.2174 -0.6694 -0.0580
 8127SOL    HW332281   5.128   1.410   4.902  0.5754  0.4956  0.2549
 8127SOL    MW432282   5.090   1.487   4.887 -0.6412 -0.1875 -0.2484
 8128SOL     OW32283   0.773   1.580   3.891  0.5593 -0.4741 -0.3165
 8128SOL    HW232284   0.754   1.636   3.966  0.3368 -1.3893  0.3434
 8128SOL    HW332285   0.796   1.495   3.931  2.7590 -0.3420 -1.1933
 8128SOL    MW432286   0.773   1.576   3.906 -0.4548  0.2312 -0.0207
 8129SOL     OW32287   5.281   2.666   0.716  0.4923 -0.4644 -0.2670
 8129SOL    HW232288   5.242   2.585   0.751  0.1874  0.2105  1.0043
 8129SOL    HW332289   5.207   2.715   0.681  0.7639 -1.0184 -1.6679
 8129SOL    MW432290   5.266   2.661   0.716 -0.4986 -0.0618 -0.5324
 8130SOL     OW32291   5.346   1.707   3.870 -0.2272 -0.4189  0.0507
 8130SOL    HW232292   5.322   1.693   3.778 -1.1725  3.5455 -0.4778
 8130SOL    HW332293   5.276   1.763   3.904  0.2049 -1.5990  3.2198
 8130SOL    MW432294   5.334   1.712   3.863 -0.2150  0.9760 -0.2715
 8131SOL     OW32295   3.140   2.889   1.809  0.1034 -0.2927  0.2086
 8131SOL    HW232296   3.215   2.845   1.771 -2.1325 -3.1909 -1.2208
 8131SOL    HW332297   3.132   2.852   1.897  1.9250  2.2016  1.5459
 8131SOL    MW432298   3.149   2.879   1.816  0.1519 -0.3633 -0.7969
 8132SOL     OW32299   3.766   3.099   4.717 -0.0071  0.1012  0.2385
 8132SOL    HW232300   3.727   3.180   4.751 -0.4441  0.3289 -0.7591
 8132SOL    HW332301   3.860   3.115   4.719 -0.0226  0.1171  1.2888
 8132SOL    MW432302   3.773   3.112   4.722 -0.0815 -0.3601 -0.2128
 8133SOL     OW32303   6.164   3.350   2.129 -0.4148 -0.1051 -0.1605
 8133SOL    HW232304   6.082   3.384   2.164 -0.6262 -0.9763  0.2096
 8133SOL    HW332305   6.197   3.292   2.198  0.2596 -0.1589 -0.5176
 8133SOL    MW432306   6.158   3.347   2.143 -0.2755  0.0202  0.0519
 8134SOL     OW32307   4.026   0.882   4.542 -0.3414  0.2969 -0.4661
 8134SOL    HW232308   3.948   0.926   4.508 -1.6027 -0.8844  0.7672
 8134SOL    HW332309   4.012   0.878   4.637 -0.0130 -2.1492 -0.4590
 8134SOL    MW432310   4.014   0.887   4.550 -0.0265 -0.2989 -0.0870
 8135SOL     OW32311   3.521   6.001   1.318 -0.2780 -0.1781 -0.0551
 8135SOL    HW232312   3.596   6.000   1.258 -0.2725 -2.3903 -0.1042
 8135SOL    HW332313   3.543   5.936   1.384 -0.3638  2.0670  2.3502
 8135SOL    MW432314   3.534   5.992   1.319 -0.2135 -0.3272  0.4228
 8136SOL     OW32315   0.161   1.363   5.725  0.1249  0.1088 -0.0144
 8136SOL    HW232316   0.182   1.298   5.658  2.0803  0.6501  0.0147
 8136SOL    HW332317   0.221   1.343   5.797  0.0023  1.2649  0.4314
 8136SOL    MW432318   0.172   1.352   5.726  0.7615 -0.2082 -0.2508
 8137SOL     OW32319   4.244   0.889   0.980  0.3081 -0.3720 -0.9548
 8137SOL    HW232320   4.242   0.793   0.977  0.7810 -0.3880 -0.8469
 8137SOL    HW332321   4.157   0.914   1.012  0.2429 -0.7690 -0.8167
 8137SOL    MW432322   4.232   0.879   0.984  0.3554  0.3962 -0.0834
 8138SOL     OW32323   0.594   0.720   0.368 -0.0046 -0.5987  0.1258
 8138SOL    HW232324   0.541   0.705   0.446  0.5147  0.3648  0.6871
 8138SOL    HW332325   0.680   0.685   0.390  0.5877  1.0676  0.6084
 8138SOL    MW432326   0.599   0.714   0.381 -0.0948 -0.2303  0.6614
 8139SOL     OW32327   0.189   1.663   1.451 -0.2446 -0.8702 -0.5526
 8139SOL    HW232328   0.115   1.656   1.511  0.0683 -2.2197 -0.2905
 8139SOL    HW332329   0.205   1.757   1.444 -2.0265 -0.5495 -0.6936
 8139SOL    MW432330   0.181   1.674   1.458  0.2486  0.1280  0.4173
 8140SOL     OW32331   2.111   4.981   1.379  0.0949  0.3260  0.0204
 8140SOL    HW232332   2.148   4.895   1.359 -2.6679 -1.3162  1.3619
 8140SOL    HW332333   2.148   5.004   1.464 -1.9081 -1.4104  1.4632
 8140SOL    MW432334   2.121   4.973   1.387  0.0175 -0.1833 -0.1899
 8141SOL     OW32335   3.224   4.820   2.266 -0.7461 -0.2987  1.1445
 8141SOL    HW232336   3.224   4.901   2.317 -0.7658  0.2947  0.2294
 8141SOL    HW332337   3.307   4.778   2.287  0.7999  1.5415 -0.7461
 8141SOL    MW432338   3.235   4.825   2.275  0.3192  0.4541  0.2073
 8142SOL     OW32339   5.913   5.423   0.440  0.0514  0.6590  0.4338
 8142SOL    HW232340   5.955   5.509   0.445 -0.6544  0.9858  0.8755
 8142SOL    HW332341   5.828   5.440   0.400  0.1577  0.0635 -0.0604
 8142SOL    MW432342   5.908   5.436   0.435 -0.5422 -0.2511  0.1974
 8143SOL     OW32343   3.940   2.692   1.537  0.1295  0.7083  0.4673
 8143SOL    HW232344   3.883   2.734   1.602 -0.6993 -0.7800  0.7424
 8143SOL    HW332345   4.026   2.729   1.554 -0.4327  1.7580  1.1592
 8143SOL    MW432346   3.944   2.703   1.548  0.8550  0.0780  0.8775
 8144SOL     OW32347   5.604   2.284   2.866  0.3823 -0.7248  0.1436
 8144SOL    HW232348   5.515   2.294   2.833  0.8981 -0.7203 -1.2833
 8144SOL    HW332349   5.629   2.372   2.895 -0.1579 -0.7807  0.8143
 8144SOL    MW432350   5.596   2.297   2.866 -0.2873  0.2222 -0.0648
 8145SOL     OW32351   2.133   3.522   5.229  0.3288  0.1459 -0.1145
 8145SOL    HW232352   2.107   3.521   5.321  1.3448  1.0751  0.2055
 8145SOL    HW332353   2.179   3.440   5.216 -1.7813 -1.0520 -0.4237
 8145SOL    MW432354   2.136   3.511   5.240 -0.5687 -0.5534 -0.5117
 8146SOL     OW32355   5.012   4.106   1.548  0.1610  0.1540  0.0419
 8146SOL    HW232356   4.999   4.164   1.623  0.3834  0.5115 -0.1901
 8146SOL    HW332357   5.039   4.165   1.477 -1.0675 -0.0342 -0.6082
 8146SOL    MW432358   5.014   4.121   1.549 -0.1559  0.1289  0.6831
 8147SOL     OW32359   0.187   1.577   4.225  0.2334 -0.7089  0.5875
 8147SOL    HW232360   0.252   1.524   4.179 -0.5816 -1.2220  0.0123
 8147SOL    HW332361   0.165   1.647   4.164  0.8014 -0.0776  1.0840
 8147SOL    MW432362   0.193   1.579   4.211 -0.3213 -0.3132  0.4517
 8148SOL     OW32363   4.693   5.408   5.916  0.2888 -0.0119  0.1696
 8148SOL    HW232364   4.697   5.363   6.000  0.9797  0.8147  0.5941
 8148SOL    HW332365   4.669   5.339   5.853 -1.0776 -0.4634  1.1492
 8148SOL    MW432366   4.690   5.393   5.919  0.3662 -0.3161  0.6565
 8149SOL     OW32367   3.909   4.975   2.293  0.6419 -0.0083 -0.0245
 8149SOL    HW232368   3.898   4.902   2.231 -0.2214 -0.9377  1.1787
 8149SOL    HW332369   3.956   4.936   2.367 -0.7212  0.3555  1.0806
 8149SOL    MW432370   3.914   4.960   2.294  0.0345 -0.0138 -0.4868
 8150SOL     OW32371   1.250   4.244   6.110 -0.2978  0.2786  0.0856
 8150SOL    HW232372   1.213   4.182   6.172  0.7840 -1.5368 -0.9889
 8150SOL    HW332373   1.181   4.309   6.095 -1.9992 -1.4332  0.2173
 8150SOL    MW432374   1.236   4.245   6.116  0.5328  0.1184  0.0808
 8151SOL     OW32375   0.551   2.154   6.352 -0.0631 -0.0944 -0.1917
 8151SOL    HW232376   0.574   2.072   6.396 -0.7626 -0.4968 -0.5612
 8151SOL    HW332377   0.635   2.190   6.323  0.5782  0.8395  2.5565
 8151SOL    MW432378   0.565   2.148   6.354 -0.4774 -0.2056 -0.6485
 8152SOL     OW32379   3.753   6.143   0.310 -0.1267 -0.4578 -0.2604
 8152SOL    HW232380   3.703   6.219   0.282  1.0524  0.0003 -1.1867
 8152SOL    HW332381   3.692   6.069   0.301 -0.5917  0.0623 -1.4928
 8152SOL    MW432382   3.738   6.143   0.305  0.3796  0.4292 -0.0141
 8153SOL     OW32383   5.692   3.884   0.925 -0.9985 -0.0511 -0.2392
 8153SOL    HW232384   5.638   3.933   0.987 -1.5332  1.7062 -1.9981
 8153SOL    HW332385   5.734   3.816   0.979 -0.2433  2.2470  2.3529
 8153SOL    MW432386   5.691   3.881   0.941 -0.4585 -0.5615  0.3157
 8154SOL     OW32387   2.651   1.712   4.571  0.0494 -0.0029 -0.5233
 8154SOL    HW232388   2.716   1.741   4.508 -0.6763  2.1863 -0.3305
 8154SOL    HW332389   2.698   1.710   4.655  0.1124  0.6934 -0.5364
 8154SOL    MW432390   2.665   1.715   4.574  0.2288 -0.3043 -0.3833
 8155SOL     OW32391   6.020   1.631   4.250  0.4277 -0.2629 -0.0371
 8155SOL    HW232392   6.091   1.666   4.304  0.1765  1.1776 -0.5740
 8155SOL    HW332393   6.031   1.536   4.253  2.1165 -0.0861  0.2410
 8155SOL    MW432394   6.031   1.623   4.257 -0.0256  0.4029 -0.5406
 8156SOL     OW32395   1.607   5.242   0.735  0.1718 -0.6030  0.2532
 8156SOL    HW232396   1.618   5.318   0.677  1.3913 -0.1643  1.0187
 8156SOL    HW332397   1.630   5.275   0.822  0.4922 -1.7866  0.6349
 8156SOL    MW432398   1.612   5.257   0.739 -0.1049 -0.4973  0.2739
 8157SOL     OW32399   2.900   3.372   2.088 -0.6709  0.2869  0.2561
 8157SOL    HW232400   2.809   3.379   2.117 -0.8273  0.9187 -0.3551
 8157SOL    HW332401   2.933   3.461   2.093 -0.3574  0.2120 -0.3820
 8157SOL    MW432402   2.892   3.384   2.092  0.1771  0.2989  0.7053
 8158SOL     OW32403   1.777   4.367   0.889 -0.1139  1.0272  0.2106
 8158SOL    HW232404   1.697   4.356   0.838  0.7885  1.0315 -1.2830
 8158SOL    HW332405   1.823   4.284   0.880  0.0368  1.0126  1.0750
 8158SOL    MW432406   1.772   4.355   0.881 -0.0536  0.5180 -0.3343
 8159SOL     OW32407   5.445   0.315   1.924 -0.3676 -0.3894  0.1004
 8159SOL    HW232408   5.480   0.331   1.837 -1.9942  1.1782 -0.3336
 8159SOL    HW332409   5.357   0.353   1.922 -1.0598 -1.7371  1.9351
 8159SOL    MW432410   5.438   0.322   1.912 -0.2151  0.1136 -0.1506
 8160SOL     OW32411   2.280   3.775   6.419  0.0940  1.0138 -0.1713
 8160SOL    HW232412   2.308   3.866   6.423 -0.8057  1.2678  1.3028
 8160SOL    HW332413   2.208   3.774   6.357  0.8942  1.0498 -1.1290
 8160SOL    MW432414   2.275   3.787   6.412 -0.1497  0.1953  0.1835
 8161SOL     OW32415   5.322   3.160   1.439  0.6403 -0.0868 -0.2166
 8161SOL    HW232416   5.270   3.102   1.384 -1.8179  1.3343  0.4176
 8161SOL    HW332417   5.260   3.194   1.504  1.7294  3.4978 -0.7787
 8161SOL    MW432418   5.307   3.157   1.440 -0.3754  0.1950 -0.0087
 8162SOL     OW32419   5.158   2.504   3.079 -0.5004 -0.0609  0.6486
 8162SOL    HW232420   5.131   2.414   3.060 -1.8347  0.2571  0.9548
 8162SOL    HW332421   5.160   2.509   3.175 -0.3906  0.2279  0.6332
 8162SOL    MW432422   5.155   2.493   3.089  0.0122 -0.0222  0.6722
 8163SOL     OW32423   3.180   3.716   3.920 -0.2076  0.3712 -0.4828
 8163SOL    HW232424   3.211   3.637   3.964  0.7410  0.4738 -0.9355
 8163SOL    HW332425   3.135   3.765   3.989  0.5824  0.1705  0.2014
 8163SOL    MW432426   3.178   3.712   3.935  0.2232 -0.3079  0.5318
 8164SOL     OW32427   4.915   2.086   2.842  0.5413 -0.5445  0.0112
 8164SOL    HW232428   4.955   2.095   2.756 -0.0308  2.0037 -0.0724
 8164SOL    HW332429   4.947   2.002   2.875 -0.1014 -2.1640 -3.1005
 8164SOL    MW432430   4.924   2.076   2.835  0.4455 -0.0777 -0.1926
 8165SOL     OW32431   0.551   6.101   3.815  0.5093  0.4591 -0.2717
 8165SOL    HW232432   0.612   6.131   3.748 -0.8181  2.7417 -0.5408
 8165SOL    HW332433   0.546   6.172   3.878 -0.9507 -0.1747  0.3859
 8165SOL    MW432434   0.558   6.114   3.814 -0.0546 -0.2779 -0.2344
 8166SOL     OW32435   1.257   1.419   4.458  0.0419  0.4305 -0.4581
 8166SOL    HW232436   1.266   1.339   4.405  0.1819 -0.3828  0.7514
 8166SOL    HW332437   1.327   1.476   4.427 -0.0038  0.0503 -1.2849
 8166SOL    MW432438   1.267   1.416   4.447 -0.1926 -0.5222 -0.7813
 8167SOL     OW32439   6.295   4.395   0.370  0.0818  0.3854 -0.4089
 8167SOL    HW232440   6.246   4.315   0.353 -1.8921  1.1986  1.1622
 8167SOL    HW332441   6.377   4.365   0.410 -0.8270 -0.8462  0.5909
 8167SOL    MW432442   6.300   4.380   0.373 -0.1054 -0.2742  0.4018
 8168SOL     OW32443   4.774   1.488   2.144  0.1914  0.1697 -0.2771
 8168SOL    HW232444   4.727   1.562   2.182  1.9216  1.0475  0.2520
 8168SOL    HW332445   4.713   1.415   2.150 -2.2690  1.8531 -2.3651
 8168SOL    MW432446   4.760   1.488   2.150  0.1475  0.5027  0.4048
 8169SOL     OW32447   0.740   1.053   1.161 -0.4008 -0.3883  0.3943
 8169SOL    HW232448   0.723   0.963   1.188  0.1244 -1.0442 -1.3700
 8169SOL    HW332449   0.666   1.076   1.105 -0.2140  0.0551  0.3252
 8169SOL    MW432450   0.728   1.044   1.157 -0.0637 -0.4060  0.2197
 8170SOL     OW32451   2.409   6.146   0.630 -0.0017  0.1913  0.3662
 8170SOL    HW232452   2.448   6.063   0.656 -0.5433 -0.0808  0.3226
 8170SOL    HW332453   2.480   6.210   0.639  1.1926 -0.6804 -2.0458
 8170SOL    MW432454   2.423   6.144   0.634 -0.1437 -0.3908  0.2720
 8171SOL     OW32455   2.935   3.426   5.386  0.0721  0.6552 -0.2475
 8171SOL    HW232456   2.855   3.467   5.421  0.1103  1.0738 -0.6356
 8171SOL    HW332457   2.935   3.338   5.423 -0.2234  0.8723  0.2855
 8171SOL    MW432458   2.924   3.420   5.395  0.2160 -0.2959  0.5477
 8172SOL     OW32459   4.777   2.097   5.400 -0.4244  0.2726 -0.1353
 8172SOL    HW232460   4.805   2.160   5.466 -1.0375  0.4995 -0.0870
 8172SOL    HW332461   4.703   2.052   5.440 -0.7710  0.3770 -0.6531
 8172SOL    MW432462   4.771   2.099   5.414  0.1439 -0.0311  0.1680
 8173SOL     OW32463   2.708   6.053   3.107  0.3935  0.5938  0.7186
 8173SOL    HW232464   2.737   6.008   3.187 -1.4556  0.1739  1.1908
 8173SOL    HW332465   2.618   6.080   3.126  0.0155  0.7422 -1.1295
 8173SOL    MW432466   2.700   6.050   3.120 -1.0381 -0.1658 -0.2255
 8174SOL     OW32467   3.252   1.296   0.722 -0.9540  0.5933  0.4692
 8174SOL    HW232468   3.214   1.209   0.738 -0.8236  0.3741 -0.3853
 8174SOL    HW332469   3.306   1.312   0.799 -1.3689  0.1330  0.8688
 8174SOL    MW432470   3.254   1.286   0.734 -0.1578 -0.0713  0.0761
 8175SOL     OW32471   4.813   5.273   1.090 -0.0088 -0.5171 -0.0001
 8175SOL    HW232472   4.898   5.312   1.068  0.0520  0.6380  1.9698
 8175SOL    HW332473   4.803   5.291   1.184 -2.3224 -0.8363 -0.1383
 8175SOL    MW432474   4.823   5.281   1.100 -0.7327 -0.3356  0.6841
 8176SOL     OW32475   4.195   3.312   0.301 -0.0935  0.2263 -0.0236
 8176SOL    HW232476   4.144   3.355   0.370  1.7592  1.6228  0.5388
 8176SOL    HW332477   4.189   3.219   0.323  2.0238  0.7174  3.2761
 8176SOL    MW432478   4.187   3.305   0.313 -0.1811 -0.6792 -0.5578
 8177SOL     OW32479   5.220   5.436   1.893  0.9565  0.3602  0.3887
 8177SOL    HW232480   5.137   5.469   1.859  1.2636  0.8874  0.1257
 8177SOL    HW332481   5.281   5.510   1.882  1.3841  0.0831  0.8504
 8177SOL    MW432482   5.217   5.450   1.887  0.2736 -0.0832  0.1598
 8178SOL     OW32483   3.434   3.619   2.205 -0.1010  0.3437 -0.1808
 8178SOL    HW232484   3.496   3.557   2.168  0.7745  0.4928  1.0045
 8178SOL    HW332485   3.441   3.696   2.148 -0.1770 -0.1079 -0.8192
 8178SOL    MW432486   3.443   3.621   2.193  0.2658 -0.0072  0.0849
 8179SOL     OW32487   4.500   5.557   2.017  0.0694  0.1239  0.2884
 8179SOL    HW232488   4.541   5.554   1.930 -0.2294 -0.5959  0.1658
 8179SOL    HW332489   4.544   5.487   2.066 -2.7330 -2.4849 -0.6365
 8179SOL    MW432490   4.511   5.547   2.012  0.4969  0.1149  0.2220
 8180SOL     OW32491   1.086   4.151   5.711  0.0562  0.4042 -0.0855
 8180SOL    HW232492   1.156   4.128   5.772  0.2923 -0.4452 -0.6597
 8180SOL    HW332493   1.112   4.111   5.628 -1.1819 -0.0693 -0.2740
 8180SOL    MW432494   1.099   4.143   5.708 -0.0395  0.0961 -0.0343
 8181SOL     OW32495   1.749   5.265   2.068  0.0757  0.5852 -0.1658
 8181SOL    HW232496   1.776   5.332   2.131  1.1062  0.0808 -0.0469
 8181SOL    HW332497   1.758   5.182   2.115 -2.1872  0.3771  0.0384
 8181SOL    MW432498   1.754   5.263   2.082  0.0533  0.2852  0.0866
 8182SOL     OW32499   2.193   2.189   5.164 -0.6948  0.3778 -0.2404
 8182SOL    HW232500   2.209   2.275   5.125 -1.7545  0.9873  0.6319
 8182SOL    HW332501   2.107   2.196   5.204 -0.7318 -1.0506 -0.0135
 8182SOL    MW432502   2.184   2.201   5.164  0.4083  0.5191 -0.3510
 8183SOL     OW32503   4.393   0.590   3.248 -0.0428  0.1199  0.4825
 8183SOL    HW232504   4.403   0.646   3.325  1.7000  0.2117  0.2343
 8183SOL    HW332505   4.326   0.527   3.272  0.0670  0.5019  1.8599
 8183SOL    MW432506   4.385   0.589   3.261 -0.1157  0.1785 -0.3064
 8184SOL     OW32507   4.186   1.447   2.448 -0.2890  0.6945 -0.0762
 8184SOL    HW232508   4.230   1.382   2.504 -1.1353 -0.8037 -1.0799
 8184SOL    HW332509   4.093   1.430   2.461 -0.5099  0.1333 -2.0936
 8184SOL    MW432510   4.180   1.436   2.457 -0.0703 -0.2904  0.3837
 8185SOL     OW32511   3.795   4.094   5.799 -0.7374 -0.4380 -0.2403
 8185SOL    HW232512   3.889   4.082   5.782 -0.6034 -1.0624  0.8781
 8185SOL    HW332513   3.762   4.005   5.812 -1.6654 -0.2944 -1.4250
 8185SOL    MW432514   3.803   4.081   5.798 -0.1376  0.6345  0.2586
 8186SOL     OW32515   2.625   4.741   5.582  0.0740  0.2828 -0.3569
 8186SOL    HW232516   2.608   4.647   5.570 -0.9453  0.3917  0.1350
 8186SOL    HW332517   2.570   4.766   5.656  0.2909  1.2908 -0.5230
 8186SOL    MW432518   2.616   4.732   5.590  0.1659  0.5853  0.0710
 8187SOL     OW32519   5.403   2.789   2.822  0.4311  0.0116 -0.8017
 8187SOL    HW232520   5.478   2.779   2.763  1.1992  0.9905 -0.0282
 8187SOL    HW332521   5.416   2.875   2.863 -0.4028 -0.3845  0.3414
 8187SOL    MW432522   5.415   2.799   2.820  0.0562  0.0064  0.1734
 8188SOL     OW32523   3.523   2.500   0.824  1.0554 -0.7316  0.0378
 8188SOL    HW232524   3.487   2.429   0.771  0.7584 -0.0924 -0.6478
 8188SOL    HW332525   3.448   2.556   0.842  1.2222 -0.7579  0.8574
 8188SOL    MW432526   3.508   2.498   0.819  0.6282  0.6823  0.5359
 8189SOL     OW32527   3.546   4.659   6.280  1.1698  0.4826  0.1059
 8189SOL    HW232528   3.536   4.750   6.250 -0.2722 -0.1148 -1.3458
 8189SOL    HW332529   3.457   4.626   6.285  1.6600 -0.7509  1.0387
 8189SOL    MW432530   3.533   4.667   6.277  0.1979  0.0609  0.3006
 8190SOL     OW32531   4.154   1.092   3.593  0.0846 -0.1297  0.0089
 8190SOL    HW232532   4.162   0.998   3.608  0.7028 -0.3205 -1.3936
 8190SOL    HW332533   4.082   1.100   3.530 -0.9253  0.4627  1.2040
 8190SOL    MW432534   4.145   1.081   3.587 -0.0192 -0.1447 -0.1469
 8191SOL     OW32535   2.208   4.904   2.725 -0.1211  0.2238 -0.8010
 8191SOL    HW232536   2.245   4.892   2.637  0.1702  1.1963 -0.8184
 8191SOL    HW332537   2.147   4.831   2.735  1.4241 -1.1550 -0.9589
 8191SOL    MW432538   2.205   4.893   2.714  0.1551  0.3331 -0.1907
 8192SOL     OW32539   6.263   4.928   3.434 -0.7168 -0.0577  0.6745
 8192SOL    HW232540   6.284   4.985   3.361  0.2068  0.4285  1.2997
 8192SOL    HW332541   6.260   4.986   3.510  1.7421 -0.9678  1.5895
 8192SOL    MW432542   6.265   4.943   3.435  0.1794  0.4379 -0.0369
 8193SOL     OW32543   6.334   6.315   3.685 -0.2011  0.1822 -0.4856
 8193SOL    HW232544   6.276   6.256   3.733  0.3753  0.5210  0.6854
 8193SOL    HW332545   6.329   6.398   3.734  0.5762  0.4742 -0.8837
 8193SOL    MW432546   6.326   6.318   3.698 -0.2610  0.0253 -0.1947
 8194SOL     OW32547   3.643   5.589   2.267 -0.2869 -0.0869  0.1717
 8194SOL    HW232548   3.674   5.499   2.277  0.4041  0.2689  1.5623
 8194SOL    HW332549   3.722   5.643   2.274 -0.7065  0.6383 -0.5051
 8194SOL    MW432550   3.658   5.585   2.269 -0.0181  0.7423 -0.3965
 8195SOL     OW32551   2.735   2.612   2.848  0.5500  0.5161  0.0479
 8195SOL    HW232552   2.656   2.559   2.844  0.1580  0.7982  2.6436
 8195SOL    HW332553   2.719   2.683   2.785 -0.5519 -0.3224 -0.6471
 8195SOL    MW432554   2.722   2.615   2.839  0.0744  0.3429 -0.3581
 8196SOL     OW32555   1.630   2.967   1.998  0.1534  0.4678  0.3825
 8196SOL    HW232556   1.641   2.919   1.916  0.0837 -0.8661  1.1226
 8196SOL    HW332557   1.680   2.916   2.063 -3.5612 -1.3058  2.1667
 8196SOL    MW432558   1.638   2.954   1.996  0.1581  0.1591  0.4392
 8197SOL     OW32559   0.318   5.523   4.549 -0.4705  0.2794 -0.1291
 8197SOL    HW232560   0.330   5.437   4.589  0.6891 -0.2961 -1.6091
 8197SOL    HW332561   0.239   5.515   4.496  0.1346 -0.1991 -0.9908
 8197SOL    MW432562   0.309   5.511   4.547  0.3950 -0.2846  0.2614
 8198SOL     OW32563   5.806   1.989   5.335  0.0079 -0.0488 -0.1059
 8198SOL    HW232564   5.849   2.075   5.340 -0.0015  0.1720 -2.6248
 8198SOL    HW332565   5.741   1.991   5.405 -1.0976  2.6834 -1.0670
 8198SOL    MW432566   5.803   2.001   5.345 -0.2460  0.0442 -0.0652
 8199SOL     OW32567   2.558   3.934   1.746 -0.6497 -0.1728  0.5347
 8199SOL    HW232568   2.557   4.001   1.677  0.1533 -0.3903  0.3069
 8199SOL    HW332569   2.565   3.984   1.828  4.1085  0.0289  0.2507
 8199SOL    MW432570   2.559   3.950   1.748  0.1641 -0.1563 -0.1256
 8200SOL     OW32571   5.331   2.118   2.695 -0.4130 -0.0904 -0.0863
 8200SOL    HW232572   5.369   2.069   2.622  1.7935  1.1622  0.1294
 8200SOL    HW332573   5.370   2.079   2.773  0.2559  1.0667  0.1685
 8200SOL    MW432574   5.341   2.106   2.696  0.1527  0.4356  0.0940
 8201SOL     OW32575   2.281   5.375   0.980 -0.4494 -0.5199 -0.0004
 8201SOL    HW232576   2.268   5.409   0.891 -2.5217 -4.2055 -1.3294
 8201SOL    HW332577   2.364   5.328   0.976 -1.2660 -2.0197 -0.6147
 8201SOL    MW432578   2.290   5.373   0.968 -0.4922  0.8225  0.2524
 8202SOL     OW32579   5.412   3.726   4.322 -0.6343  0.2491  0.2783
 8202SOL    HW232580   5.387   3.670   4.249  0.9440 -0.8441  0.5441
 8202SOL    HW332581   5.329   3.766   4.350 -1.8595 -2.0857  0.2259
 8202SOL    MW432582   5.398   3.724   4.316  0.7781 -0.0064 -0.5185
 8203SOL     OW32583   0.125   5.844   2.436 -0.2001  0.4343 -0.5450
 8203SOL    HW232584   0.146   5.753   2.457 -0.7448  0.4358  0.0320
 8203SOL    HW332585   0.178   5.863   2.358 -0.5484 -0.5603 -1.0475
 8203SOL    MW432586   0.135   5.834   2.428 -0.6306 -0.4445 -0.0293
 8204SOL     OW32587   1.239   1.012   2.143  0.4957 -0.3782 -0.0869
 8204SOL    HW232588   1.321   0.967   2.124  0.4756 -0.3974 -0.1274
 8204SOL    HW332589   1.184   0.997   2.066  1.1029  1.1574 -0.8517
 8204SOL    MW432590   1.242   1.004   2.130 -0.2557  0.2453 -0.9976
 8205SOL     OW32591   0.292   1.512   3.366  0.6699  0.6546 -0.6355
 8205SOL    HW232592   0.348   1.448   3.410 -0.3627 -1.7346 -2.5074
 8205SOL    HW332593   0.204   1.492   3.397  0.5303  2.8022  0.5060
 8205SOL    MW432594   0.288   1.501   3.376  0.9652 -0.1869  0.2020
 8206SOL     OW32595   4.586   0.292   2.668 -0.4805 -0.3710 -0.4557
 8206SOL    HW232596   4.655   0.226   2.666 -1.1999 -1.1758  0.3804
 8206SOL    HW332597   4.546   0.288   2.581  0.1018 -0.3643 -0.7229
 8206SOL    MW432598   4.589   0.283   2.656 -0.0756  0.3290 -0.1337
 8207SOL     OW32599   3.249   3.209   5.385 -0.0208  0.2910 -0.4750
 8207SOL    HW232600   3.304   3.288   5.385 -0.7637  0.8122 -0.0671
 8207SOL    HW332601   3.310   3.139   5.360  0.6924  0.9527 -0.6629
 8207SOL    MW432602   3.265   3.210   5.381 -0.0478 -0.1516  0.1530
 8208SOL     OW32603   3.651   5.066   2.292  0.1820  0.1193  0.4715
 8208SOL    HW232604   3.732   5.015   2.295 -0.4713 -1.0213 -0.5089
 8208SOL    HW332605   3.618   5.054   2.203 -0.3928  1.6662  0.4520
 8208SOL    MW432606   3.657   5.058   2.281 -0.1327 -0.3790  0.5416
 8209SOL     OW32607   3.901   3.911   0.208 -0.5556 -0.4937  0.5873
 8209SOL    HW232608   3.808   3.933   0.196 -0.5680 -0.4150  0.8264
 8209SOL    HW332609   3.900   3.819   0.234 -0.4332 -1.1655 -1.6337
 8209SOL    MW432610   3.888   3.902   0.210  0.7122  0.1225 -0.2038
 8210SOL     OW32611   1.225   1.149   3.245  0.7009 -0.4350 -0.1537
 8210SOL    HW232612   1.213   1.068   3.195  0.3794 -0.3913 -0.1463
 8210SOL    HW332613   1.235   1.120   3.336 -0.5368 -0.3958  0.0038
 8210SOL    MW432614   1.225   1.135   3.250  0.0566  0.5918  0.0994
 8211SOL     OW32615   4.131   0.263   4.547 -0.4223 -0.5342  0.4007
 8211SOL    HW232616   4.138   0.266   4.642  1.1540  1.0266  0.2855
 8211SOL    HW332617   4.133   0.170   4.525 -0.3632 -0.8936  1.8578
 8211SOL    MW432618   4.132   0.252   4.556  0.6429 -0.4209  0.2959
 8212SOL     OW32619   3.838   1.640   2.191 -1.0392  0.4406 -0.0106
 8212SOL    HW232620   3.777   1.658   2.263 -0.6119  1.5002  0.1152
 8212SOL    HW332621   3.924   1.649   2.231 -0.7974  1.2427 -0.6813
 8212SOL    MW432622   3.841   1.644   2.206 -0.3715  0.2662  0.0093
 8213SOL     OW32623   1.977   2.390   3.236  0.2853 -0.1098 -0.5580
 8213SOL    HW232624   1.936   2.436   3.163  0.6276 -2.2882 -2.2535
 8213SOL    HW332625   1.915   2.321   3.259  0.3549  0.3188  1.0037
 8213SOL    MW432626   1.964   2.387   3.229 -0.0617  0.2434  0.4862
 8214SOL     OW32627   1.411   0.401   2.880 -0.2111 -0.3895  0.5997
 8214SOL    HW232628   1.425   0.489   2.914 -1.2856 -0.2914  0.8417
 8214SOL    HW332629   1.455   0.400   2.795 -1.8227  1.0350 -0.3176
 8214SOL    MW432630   1.419   0.413   2.873 -0.2587  0.0888 -0.3897
 8215SOL     OW32631   4.711   0.882   3.664  0.5345  0.5023 -0.1383
 8215SOL    HW232632   4.725   0.924   3.579  1.2980  1.1318  0.2788
 8215SOL    HW332633   4.658   0.804   3.644 -0.9243  1.6545 -0.9267
 8215SOL    MW432634   4.706   0.877   3.650 -0.1164  0.7417  0.0030
 8216SOL     OW32635   2.882   5.724   3.513 -0.0891  0.0196 -0.2985
 8216SOL    HW232636   2.892   5.651   3.452  1.3850 -0.1124  0.0610
 8216SOL    HW332637   2.961   5.721   3.568 -0.7942  0.8760  0.8153
 8216SOL    MW432638   2.894   5.714   3.512 -0.1715  0.1961  0.3262
 8217SOL     OW32639   0.339   6.001   3.293  0.0005  0.8021  0.5014
 8217SOL    HW232640   0.268   5.947   3.328 -0.0707  1.1435  0.8855
 8217SOL    HW332641   0.384   5.943   3.230 -1.6373  1.1190 -1.0236
 8217SOL    MW432642   0.336   5.986   3.290 -0.1201 -0.0557  0.3157
 8218SOL     OW32643   1.874   1.267   3.518  0.1512  0.5460 -1.1836
 8218SOL    HW232644   1.892   1.353   3.481 -0.9933  1.4641  0.2945
 8218SOL    HW332645   1.779   1.264   3.529  0.0668 -1.2969 -2.0742
 8218SOL    MW432646   1.864   1.278   3.515  0.1684 -0.4621  0.5322
 8219SOL     OW32647   2.498   3.651   2.380 -0.5389 -0.1464  0.1037
 8219SOL    HW232648   2.515   3.742   2.356  0.2855 -0.1841  0.4960
 8219SOL    HW332649   2.509   3.649   2.475  0.2022 -0.7996  0.0217
 8219SOL    MW432650   2.502   3.663   2.390  0.0268  0.3163 -0.2949
 8220SOL     OW32651   5.429   3.465   1.007  0.8901  0.6791 -0.0086
 8220SOL    HW232652   5.450   3.413   1.085  1.4501 -0.0360 -0.6107
 8220SOL    HW332653   5.396   3.548   1.041 -1.5410 -0.6197  1.0135
 8220SOL    MW432654   5.428   3.469   1.022 -0.7888 -0.9017 -0.3345
 8221SOL     OW32655   0.281   6.349   0.870  0.1357  0.2681  0.1208
 8221SOL    HW232656   0.332   6.427   0.849 -1.1737  0.5917 -2.1270
 8221SOL    HW332657   0.256   6.312   0.786 -0.5742 -1.7454  1.1368
 8221SOL    MW432658   0.284   6.354   0.856 -0.2105  0.3569 -0.6921
 8222SOL     OW32659   1.853   3.960   3.831 -0.0945 -0.4568  0.3707
 8222SOL    HW232660   1.937   4.005   3.827 -1.9407  3.2071 -1.3140
 8222SOL    HW332661   1.814   3.988   3.914 -0.1214 -1.3416  0.6765
 8222SOL    MW432662   1.859   3.969   3.842  0.0426 -0.0445 -0.4237
 8223SOL     OW32663   3.609   3.599   0.307 -0.1519 -0.4332 -0.1117
 8223SOL    HW232664   3.589   3.650   0.386  1.0595 -1.4693  0.9250
 8223SOL    HW332665   3.552   3.634   0.240 -1.1905  0.5289  1.2263
 8223SOL    MW432666   3.599   3.610   0.309 -0.1449 -0.7159  0.4430
 8224SOL     OW32667   1.431   1.025   1.867 -0.1584 -0.1520  0.1886
 8224SOL    HW232668   1.473   0.984   1.942  1.4872 -0.0588 -0.6394
 8224SOL    HW332669   1.375   0.957   1.830 -0.6460 -0.3262  1.2221
 8224SOL    MW432670   1.429   1.011   1.872 -0.9449 -0.2114  0.2508
 8225SOL     OW32671   3.015   4.221   3.978 -0.3343 -0.2021 -0.8368
 8225SOL    HW232672   3.084   4.162   4.009 -1.5380 -1.6391 -0.8339
 8225SOL    HW332673   3.051   4.309   3.994  0.8239 -0.9053  0.6779
 8225SOL    MW432674   3.029   4.225   3.984  0.5260 -0.1060 -0.3827
 8226SOL     OW32675   0.279   2.646   1.741  0.1541 -0.3312  0.1640
 8226SOL    HW232676   0.212   2.674   1.679  1.7802  0.0130 -1.5217
 8226SOL    HW332677   0.238   2.572   1.787 -1.7997  0.6236  0.0884
 8226SOL    MW432678   0.265   2.640   1.739 -0.6009  0.2321 -0.3732
 8227SOL     OW32679   3.735   4.449   4.671 -0.0680 -0.6585  0.3427
 8227SOL    HW232680   3.740   4.525   4.728 -0.4686 -0.0007 -0.4763
 8227SOL    HW332681   3.784   4.475   4.593  0.0291 -1.3475  0.1664
 8227SOL    MW432682   3.742   4.462   4.668 -0.0174 -0.0780 -0.0734
 8228SOL     OW32683   4.476   0.119   2.049 -0.2430 -0.1126  0.1168
 8228SOL    HW232684   4.522   0.188   2.002 -1.3672  2.2743  2.2556
 8228SOL    HW332685   4.454   0.054   1.982  1.0913  1.4638 -1.9682
 8228SOL    MW432686   4.479   0.119   2.034 -0.4385  0.6358  0.0688
 8229SOL     OW32687   3.715   5.597   0.902  0.2659  0.0226 -0.0145
 8229SOL    HW232688   3.694   5.657   0.974 -0.5988 -0.2702 -0.0199
 8229SOL    HW332689   3.706   5.510   0.941  2.0517 -0.1376  0.1530
 8229SOL    MW432690   3.711   5.594   0.917  0.0162 -0.5186  0.5290
 8230SOL     OW32691   0.176   6.065   4.331 -0.1035 -0.0566 -0.1252
 8230SOL    HW232692   0.130   6.096   4.253 -0.5165  2.2912  0.9468
 8230SOL    HW332693   0.268   6.063   4.304 -0.1073  1.8016 -0.4308
 8230SOL    MW432694   0.182   6.069   4.317 -0.0649  0.2246  0.1465
 8231SOL     OW32695   5.817   2.742   3.471  0.0186  0.1232  0.0247
 8231SOL    HW232696   5.849   2.666   3.520  1.2999 -0.2092 -1.2736
 8231SOL    HW332697   5.775   2.705   3.393 -0.8754  0.6913  0.2191
 8231SOL    MW432698   5.816   2.727   3.467  0.2373 -0.0778  0.1473
 8232SOL     OW32699   0.140   6.235   5.788 -0.1900 -0.0051  0.0137
 8232SOL    HW232700   0.117   6.216   5.878  0.1769  1.7903  0.5289
 8232SOL    HW332701   0.071   6.194   5.736 -0.1631 -1.4419  1.0660
 8232SOL    MW432702   0.128   6.227   5.793  0.0225  0.1109 -0.2446
 8233SOL     OW32703   3.916   0.707   4.191 -0.0979  0.0399 -0.2579
 8233SOL    HW232704   3.886   0.630   4.143 -1.5551 -0.2168  1.0041
 8233SOL    HW332705   3.987   0.674   4.246  1.3787  0.2754 -1.9363
 8233SOL    MW432706   3.921   0.693   4.192 -0.2224  0.3405 -0.6682
 8234SOL     OW32707   6.207   0.051   3.877  0.0792 -0.1550  0.3544
 8234SOL    HW232708   6.169   0.094   3.801  0.7389 -1.3383 -0.6793
 8234SOL    HW332709   6.275   0.111   3.907 -1.5298  1.2770  1.3070
 8234SOL    MW432710   6.211   0.064   3.871 -0.2687 -0.1115  0.7849
 8235SOL     OW32711   4.921   3.736   0.976  0.3420 -0.1080 -0.2056
 8235SOL    HW232712   4.978   3.666   0.943 -2.9544 -1.6337 -3.3756
 8235SOL    HW332713   4.907   3.714   1.069  0.9458 -2.5656 -0.6351
 8235SOL    MW432714   4.927   3.724   0.984  0.1381 -0.2871  0.3709
 8236SOL     OW32715   4.558   3.848   3.110 -0.3589  0.3892  0.4037
 8236SOL    HW232716   4.484   3.907   3.125  0.0858  0.8229  0.9164
 8236SOL    HW332717   4.627   3.904   3.074  0.1052  0.2161  1.0005
 8236SOL    MW432718   4.558   3.863   3.107 -0.0565  0.1013 -0.3663
 8237SOL     OW32719   6.252   2.789   6.184  0.3442 -0.5541  0.5000
 8237SOL    HW232720   6.183   2.782   6.118 -0.5572 -1.3286  1.4852
 8237SOL    HW332721   6.262   2.700   6.217  2.1003 -0.5332  0.1226
 8237SOL    MW432722   6.244   2.776   6.180  0.0812 -0.1567 -0.7730
 8238SOL     OW32723   4.333   4.894   0.727 -0.6257 -0.4740 -0.1246
 8238SOL    HW232724   4.260   4.919   0.669 -0.9592  1.3630  0.9788
 8238SOL    HW332725   4.291   4.871   0.810  0.0006  1.9882  0.9941
 8238SOL    MW432726   4.318   4.895   0.730 -0.1182  0.1854  0.6324
 8239SOL     OW32727   1.163   4.502   1.331  0.0302 -0.3980  0.0147
 8239SOL    HW232728   1.077   4.514   1.372 -1.1298 -1.8050 -1.8605
 8239SOL    HW332729   1.223   4.489   1.405 -1.0427  2.0686  1.4438
 8239SOL    MW432730   1.159   4.502   1.347 -0.0068  0.1005  0.0486
 8240SOL     OW32731   3.073   1.479   2.830  0.3082 -0.2259  0.1342
 8240SOL    HW232732   3.055   1.511   2.918  0.8505 -1.0412  0.5480
 8240SOL    HW332733   3.112   1.553   2.785 -0.2490  0.2900  0.4767
 8240SOL    MW432734   3.076   1.493   2.835 -0.0952  1.1412  0.1982
 8241SOL     OW32735   2.817   2.822   6.196 -0.2088 -0.0318 -0.3064
 8241SOL    HW232736   2.875   2.770   6.252 -0.2133 -0.3937 -0.6333
 8241SOL    HW332737   2.796   2.900   6.248 -0.4167 -0.4838  0.3006
 8241SOL    MW432738   2.822   2.825   6.210  0.0144  0.3511  0.2154
 8242SOL     OW32739   5.604   4.785   0.435  0.2975  0.3606  0.5238
 8242SOL    HW232740   5.522   4.834   0.438  0.6471  0.9497  0.8237
 8242SOL    HW332741   5.586   4.704   0.482 -1.3704 -1.5702 -3.0295
 8242SOL    MW432742   5.591   4.781   0.442 -0.5351  0.0643  0.0726
 8243SOL     OW32743   3.827   3.080   0.812 -0.4882 -0.6091  0.7557
 8243SOL    HW232744   3.918   3.107   0.803 -0.3352 -1.2975  0.1861
 8243SOL    HW332745   3.779   3.136   0.751 -0.2344 -1.2898 -0.0821
 8243SOL    MW432746   3.832   3.091   0.803 -0.4551 -0.0221  0.1145
 8244SOL     OW32747   3.198   3.687   4.703  0.0709 -0.0867  0.4576
 8244SOL    HW232748   3.207   3.641   4.787 -1.1567 -1.6831 -0.2293
 8244SOL    HW332749   3.266   3.651   4.648 -0.5408 -0.7165  0.0926
 8244SOL    MW432750   3.208   3.676   4.707  0.0145  0.2396  0.4384
 8245SOL     OW32751   4.301   4.413   1.863  0.1338  0.1915  0.2577
 8245SOL    HW232752   4.378   4.406   1.805 -0.3769 -1.4319 -0.2925
 8245SOL    HW332753   4.332   4.382   1.948  0.2451  0.1588  0.2051
 8245SOL    MW432754   4.315   4.408   1.866 -0.7673 -0.5468  0.0925
 8246SOL     OW32755   4.724   2.648   4.657  0.5442 -0.5176  0.3081
 8246SOL    HW232756   4.639   2.649   4.612  1.4304  1.1650 -1.4470
 8246SOL    HW332757   4.714   2.580   4.724 -2.0319 -0.6805 -0.1242
 8246SOL    MW432758   4.711   2.639   4.660 -0.0232 -0.1753  0.3728
 8247SOL     OW32759   6.350   4.903   2.647  0.1063  0.2932 -0.4578
 8247SOL    HW232760   6.312   4.826   2.605 -0.0266  0.2602 -0.2811
 8247SOL    HW332761   6.418   4.933   2.587  1.3575 -0.9964  0.2567
 8247SOL    MW432762   6.354   4.897   2.634  0.0513  0.6835  0.5113
 8248SOL     OW32763   5.158   4.600   4.097  0.0769  0.4250  0.6800
 8248SOL    HW232764   5.206   4.558   4.168 -0.0093 -0.7075  0.0929
 8248SOL    HW332765   5.067   4.574   4.111  0.2442 -0.9513 -0.5968
 8248SOL    MW432766   5.152   4.591   4.108  0.2781  0.1203 -0.0533
 8249SOL     OW32767   3.823   3.508   3.807  0.0866  0.5197  0.7583
 8249SOL    HW232768   3.846   3.419   3.832 -0.7960  0.0278 -0.1138
 8249SOL    HW332769   3.792   3.549   3.888  0.5687  0.0665  1.1761
 8249SOL    MW432770   3.822   3.502   3.821 -0.8427 -0.0641 -0.2591
 8250SOL     OW32771   1.611   5.503   5.618  0.2174 -0.4094  0.2731
 8250SOL    HW232772   1.661   5.492   5.699  0.5968  1.0037  0.2471
 8250SOL    HW332773   1.677   5.509   5.550 -0.1002 -1.5535 -0.1607
 8250SOL    MW432774   1.626   5.502   5.620 -0.2831  0.0176  0.1141
 8251SOL     OW32775   1.373   4.557   2.504  1.0976 -0.2930  0.0139
 8251SOL    HW232776   1.311   4.620   2.540 -0.0324 -1.2376 -0.1934
 8251SOL    HW332777   1.425   4.608   2.441 -1.6712 -0.0628 -2.3030
 8251SOL    MW432778   1.372   4.572   2.500  0.9516 -0.3928 -0.2779
 8252SOL     OW32779   5.774   3.411   6.129 -0.0641 -0.2024  0.5539
 8252SOL    HW232780   5.754   3.318   6.141 -0.6787 -0.4462 -1.8250
 8252SOL    HW332781   5.705   3.456   6.177 -1.8372 -1.0479 -1.0279
 8252SOL    MW432782   5.762   3.405   6.137  0.0690  0.3372  0.6883
 8253SOL     OW32783   2.607   2.624   5.554 -0.2117 -0.0086  0.3090
 8253SOL    HW232784   2.657   2.604   5.634  0.5262  2.1019  0.4438
 8253SOL    HW332785   2.582   2.538   5.520  1.9146 -1.0996  1.2647
 8253SOL    MW432786   2.610   2.610   5.560 -0.4364  0.2473  0.0643
 8254SOL     OW32787   0.871   1.795   3.238 -0.3582 -0.0022  0.0963
 8254SOL    HW232788   0.893   1.702   3.248 -1.0231 -0.0867  0.8997
 8254SOL    HW332789   0.948   1.834   3.197 -0.0928 -0.9172 -0.3089
 8254SOL    MW432790   0.884   1.788   3.234  0.8828  0.6936  0.5858
 8255SOL     OW32791   2.547   5.363   2.098 -0.1925 -0.1327  0.2786
 8255SOL    HW232792   2.566   5.295   2.164  0.2568 -1.8156 -1.4921
 8255SOL    HW332793   2.458   5.392   2.120  0.0920 -0.3687  1.8551
 8255SOL    MW432794   2.538   5.358   2.110 -0.0789 -0.2206  0.4031
 8256SOL     OW32795   1.973   3.209   0.914 -0.0067 -0.2009  0.1854
 8256SOL    HW232796   1.964   3.302   0.934 -2.2372 -0.4814  0.8228
 8256SOL    HW332797   2.057   3.184   0.952  1.1700  1.7409 -0.9673
 8256SOL    MW432798   1.983   3.218   0.922 -0.4632 -0.1068  0.2668
 8257SOL     OW32799   2.541   5.058   3.690  0.0316 -0.2658  0.1001
 8257SOL    HW232800   2.584   4.980   3.653 -0.6267 -1.2706  1.3558
 8257SOL    HW332801   2.458   5.025   3.724 -0.6806  1.1958 -0.1855
 8257SOL    MW432802   2.536   5.043   3.689  0.0306  0.0318  0.1748
 8258SOL     OW32803   5.239   6.427   0.241  0.2364  0.2818 -0.6734
 8258SOL    HW232804   5.167   6.472   0.195  1.0081 -0.7017 -2.9869
 8258SOL    HW332805   5.213   6.335   0.243  0.1887  0.3034  1.0323
 8258SOL    MW432806   5.226   6.421   0.235 -0.9165  0.3685 -0.1655
 8259SOL     OW32807   2.718   2.439   3.157 -0.6400  0.1368  0.2002
 8259SOL    HW232808   2.786   2.418   3.221 -0.8192  0.4014  0.4802
 8259SOL    HW332809   2.765   2.452   3.075 -0.1769  1.7453  0.6910
 8259SOL    MW432810   2.733   2.438   3.155  0.7563  0.3791  0.5227
 8260SOL     OW32811   5.113   3.940   0.527 -0.2554  0.8246 -0.1279
 8260SOL    HW232812   5.126   4.011   0.590  0.9168  0.8298 -0.3552
 8260SOL    HW332813   5.192   3.940   0.474  0.0284 -1.0143  0.2298
 8260SOL    MW432814   5.125   3.949   0.529  0.6857  0.6160  0.3523
 8261SOL     OW32815   1.056   1.317   0.174  0.2474 -0.4375  0.2765
 8261SOL    HW232816   1.064   1.405   0.210 -0.4152 -0.3520  0.2095
 8261SOL    HW332817   1.112   1.263   0.231  0.2013 -0.0769  0.6611
 8261SOL    MW432818   1.065   1.321   0.187 -0.1950  0.3093  0.8315
 8262SOL     OW32819   1.055   0.291   6.123 -0.2948  0.7990  0.0327
 8262SOL    HW232820   1.145   0.261   6.117 -0.3355  0.1370  2.0584
 8262SOL    HW332821   1.008   0.219   6.166 -2.0529  0.6477 -1.9738
 8262SOL    MW432822   1.060   0.277   6.128 -0.2807  0.0308 -0.3735
 8263SOL     OW32823   2.567   2.514   4.826  0.2803  0.1455 -0.3834
 8263SOL    HW232824   2.550   2.432   4.872  1.5390  0.2127  0.2481
 8263SOL    HW332825   2.509   2.578   4.869  1.3036  0.1636  1.0155
 8263SOL    MW432826   2.557   2.512   4.838 -0.3273  0.2126  0.9790
 8264SOL     OW32827   0.369   3.929   0.501 -0.1290  0.0072 -0.1496
 8264SOL    HW232828   0.458   3.949   0.533  0.4488  0.8418 -2.1643
 8264SOL    HW332829   0.377   3.930   0.406 -1.9987 -1.4488 -0.3666
 8264SOL    MW432830   0.382   3.932   0.493  0.2298 -0.0866  0.1943
 8265SOL     OW32831   0.723   6.126   4.299 -0.0540  0.8240 -0.1153
 8265SOL    HW232832   0.774   6.169   4.230  1.0463 -0.7471 -0.3486
 8265SOL    HW332833   0.765   6.040   4.309 -2.5076 -0.4897 -0.1375
 8265SOL    MW432834   0.735   6.120   4.291 -0.4850 -0.2952  0.5734
 8266SOL     OW32835   2.498   1.009   1.284 -0.5395  0.1804  0.9629
 8266SOL    HW232836   2.455   1.074   1.340 -0.8660 -0.7319  1.7893
 8266SOL    HW332837   2.518   0.936   1.342  1.8164  0.4063  0.5132
 8266SOL    MW432838   2.495   1.008   1.299 -0.5168  0.3839  0.1487
 8267SOL     OW32839   0.513   0.239   2.871  0.2727  0.2674  0.7174
 8267SOL    HW232840   0.528   0.150   2.838  2.2411  1.2180 -1.2359
 8267SOL    HW332841   0.481   0.288   2.794 -0.7474  1.2838  1.7457
 8267SOL    MW432842   0.510   0.234   2.856  0.2326  0.0434 -0.3879
 8268SOL     OW32843   0.359   1.591   2.835 -0.4655  0.5349  0.0807
 8268SOL    HW232844   0.365   1.589   2.739 -2.5045  1.4760 -0.1246
 8268SOL    HW332845   0.275   1.549   2.854  0.5979 -1.0452  1.5995
 8268SOL    MW432846   0.349   1.585   2.825  0.5149  0.0386 -0.6470
 8269SOL     OW32847   2.658   5.943   5.705  0.7930  0.0031 -0.3505
 8269SOL    HW232848   2.642   5.880   5.775 -1.4350  0.5701 -0.2587
 8269SOL    HW332849   2.718   5.899   5.645 -0.1366 -1.9298  0.0721
 8269SOL    MW432850   2.664   5.929   5.706  0.3681  0.2425  0.6088
 8270SOL     OW32851   4.407   6.274   1.099  0.2112  0.8088 -0.7060
 8270SOL    HW232852   4.411   6.252   1.006  0.0232 -0.4346 -0.4411
 8270SOL    HW332853   4.315   6.261   1.123  0.6560 -1.1089  0.1317
 8270SOL    MW432854   4.395   6.269   1.090 -0.2073  0.1368 -0.1984
 8271SOL     OW32855   0.874   0.591   6.263 -0.8372 -0.1317  0.5167
 8271SOL    HW232856   0.828   0.521   6.217 -1.0248 -0.9848  1.9488
 8271SOL    HW332857   0.830   0.598   6.348  0.9135 -0.2034  1.4903
 8271SOL    MW432858   0.862   0.583   6.268  0.5853  0.1612  0.0229
 8272SOL     OW32859   0.292   4.727   1.689 -0.3635 -0.1758  0.0686
 8272SOL    HW232860   0.217   4.671   1.707 -0.7157  0.5015  0.8283
 8272SOL    HW332861   0.350   4.715   1.765 -0.7724  0.9807  0.6009
 8272SOL    MW432862   0.290   4.718   1.702 -0.4691 -0.2018 -0.4868
 8273SOL     OW32863   1.606   1.607   3.754  0.0283 -0.0066 -0.1937
 8273SOL    HW232864   1.516   1.630   3.777 -0.2783 -0.3472 -1.0306
 8273SOL    HW332865   1.658   1.682   3.783 -0.7020  0.8451 -1.0117
 8273SOL    MW432866   1.601   1.620   3.761  0.6292  0.0465  0.5916
 8274SOL     OW32867   1.805   4.615   0.362  0.2271  0.2647  0.1301
 8274SOL    HW232868   1.838   4.537   0.407  1.4749  1.9073  2.2556
 8274SOL    HW332869   1.884   4.663   0.338 -0.4050 -0.2704 -3.5543
 8274SOL    MW432870   1.820   4.611   0.365 -0.1912 -0.2975  0.3140
 8275SOL     OW32871   4.112   2.436   2.344  0.2971 -0.1722 -0.3242
 8275SOL    HW232872   4.155   2.448   2.429 -0.2694  0.8652 -0.1663
 8275SOL    HW332873   4.087   2.344   2.343 -1.2937  0.1618  1.4521
 8275SOL    MW432874   4.114   2.425   2.355  0.5035  0.5764 -0.7002
 8276SOL     OW32875   4.121   5.019   4.996  0.0874  0.0715 -0.2314
 8276SOL    HW232876   4.191   4.960   5.025 -0.0800  0.0305  0.1017
 8276SOL    HW332877   4.110   5.080   5.069 -1.4476 -1.0115  0.5037
 8276SOL    MW432878   4.129   5.019   5.010 -0.1088 -0.1168 -0.2300
 8277SOL     OW32879   3.916   5.883   1.981  0.1381  0.3940 -0.2846
 8277SOL    HW232880   3.845   5.940   2.013 -0.0825 -0.1276  0.1599
 8277SOL    HW332881   3.871   5.806   1.947  0.3424  0.9952 -2.0590
 8277SOL    MW432882   3.900   5.881   1.981  1.0369 -0.1882 -0.4395
 8278SOL     OW32883   5.479   1.043   4.424 -0.3968 -0.0619  0.0628
 8278SOL    HW232884   5.453   0.962   4.468  0.2740 -0.7535 -0.7943
 8278SOL    HW332885   5.396   1.083   4.397 -0.6940 -1.1681 -0.7319
 8278SOL    MW432886   5.464   1.038   4.426 -0.3762 -0.3188  0.7526
 8279SOL     OW32887   3.733   4.897   0.345  0.1929  0.1304  0.2465
 8279SOL    HW232888   3.711   4.988   0.366  1.9112  0.7807 -0.5891
 8279SOL    HW332889   3.719   4.891   0.250  2.0191  0.1340 -0.0491
 8279SOL    MW432890   3.728   4.909   0.335  0.5940 -0.1734 -0.3479
 8280SOL     OW32891   2.777   6.383   4.202  0.6073 -0.4364 -0.5596
 8280SOL    HW232892   2.753   6.291   4.211 -0.6649 -0.1279 -0.5410
 8280SOL    HW332893   2.869   6.382   4.177  0.6813 -1.7004 -0.2892
 8280SOL    MW432894   2.786   6.371   4.200 -0.1778 -0.0986  0.0733
 8281SOL     OW32895   0.315   1.079   3.367  0.0516 -0.3592  0.2132
 8281SOL    HW232896   0.378   1.011   3.390  0.4657 -0.8466 -2.0796
 8281SOL    HW332897   0.367   1.146   3.322 -0.7237  0.3771  0.3821
 8281SOL    MW432898   0.330   1.079   3.364  0.0494  0.2131 -0.3621
 8282SOL     OW32899   2.101   4.732   2.267 -0.3481 -0.4556 -0.4621
 8282SOL    HW232900   2.030   4.789   2.295 -0.2890  0.8427 -2.6977
 8282SOL    HW332901   2.060   4.647   2.251 -1.4631  0.3068 -1.8276
 8282SOL    MW432902   2.086   4.728   2.269  0.4674  0.0420  0.4277
 8283SOL     OW32903   4.171   0.690   1.421 -0.7341 -0.6536  0.2984
 8283SOL    HW232904   4.229   0.658   1.351 -1.0080  1.1559 -0.8263
 8283SOL    HW332905   4.230   0.730   1.485 -0.6459  1.5234 -1.0210
 8283SOL    MW432906   4.187   0.691   1.420 -0.4201 -0.2597  0.0530
 8284SOL     OW32907   2.812   1.796   4.801  0.3967 -0.8556 -0.3779
 8284SOL    HW232908   2.864   1.874   4.786  2.4763 -1.8112  1.2764
 8284SOL    HW332909   2.765   1.814   4.882 -0.3184 -0.7574 -0.8079
 8284SOL    MW432910   2.812   1.808   4.810  0.1164  0.2025  0.0710
 8285SOL     OW32911   0.380   5.169   0.886 -0.1322 -0.1030  0.4920
 8285SOL    HW232912   0.315   5.187   0.818 -0.4212 -2.1692  0.1619
 8285SOL    HW332913   0.354   5.225   0.959 -2.3979 -0.9349  0.4068
 8285SOL    MW432914   0.368   5.178   0.887 -0.4146  0.3216  0.6361
 8286SOL     OW32915   4.755   0.954   3.406  0.1695  0.1042 -0.3256
 8286SOL    HW232916   4.786   0.864   3.395 -0.0268 -0.2009  1.3858
 8286SOL    HW332917   4.830   1.008   3.382  0.9255 -0.5633  0.4449
 8286SOL    MW432918   4.769   0.949   3.401  0.0006 -0.0595 -0.0200
 8287SOL     OW32919   0.698   3.706   2.861  1.1908 -0.0161 -0.6639
 8287SOL    HW232920   0.722   3.797   2.845 -0.0621  0.4173 -0.2142
 8287SOL    HW332921   0.765   3.674   2.921  0.6080  1.2090  0.7189
 8287SOL    MW432922   0.710   3.714   2.867 -0.3843 -0.4050  0.1794
 8288SOL     OW32923   5.715   4.681   4.698 -0.1317  0.3384 -0.4317
 8288SOL    HW232924   5.652   4.714   4.761  0.6051  0.5161  0.2368
 8288SOL    HW332925   5.686   4.716   4.613 -0.1013  1.6329  0.0714
 8288SOL    MW432926   5.703   4.690   4.695  0.1029 -0.1109  0.4384
 8289SOL     OW32927   3.657   5.850   1.506  0.5499  0.3823 -0.0676
 8289SOL    HW232928   3.740   5.820   1.471  0.3460  1.3182 -1.4465
 8289SOL    HW332929   3.679   5.921   1.566  0.7608  0.5349 -0.3259
 8289SOL    MW432930   3.671   5.855   1.510 -0.4859  0.4413 -0.2458
 8290SOL     OW32931   4.674   5.930   4.565  0.4142  0.3854 -0.3539
 8290SOL    HW232932   4.618   6.007   4.558 -0.1648  0.2498  2.0027
 8290SOL    HW332933   4.668   5.904   4.657  1.2955 -1.9527 -0.8884
 8290SOL    MW432934   4.666   5.937   4.576  0.1234 -0.2629 -0.2128
 8291SOL     OW32935   5.103   4.312   1.027  0.0302 -0.7865  0.5602
 8291SOL    HW232936   5.009   4.314   1.046 -0.0681  0.0204  0.0642
 8291SOL    HW332937   5.108   4.337   0.935  0.8479  0.9654  1.0509
 8291SOL    MW432938   5.091   4.316   1.017 -0.4933  0.2628 -0.1836
 8292SOL     OW32939   6.314   3.747   5.057 -0.6100  0.0350  0.5462
 8292SOL    HW232940   6.351   3.659   5.060  0.1672  0.3336  0.1071
 8292SOL    HW332941   6.376   3.801   5.106 -0.5306  0.5144 -0.0611
 8292SOL    MW432942   6.327   3.742   5.064 -0.0330  0.0892  0.6242
 8293SOL     OW32943   0.278   3.151   3.071  0.1721 -0.4360 -0.2525
 8293SOL    HW232944   0.207   3.165   3.134  1.5868  0.1681  1.2714
 8293SOL    HW332945   0.312   3.239   3.054  0.3569 -0.6857 -1.2238
 8293SOL    MW432946   0.273   3.165   3.077 -0.0500 -0.0474  0.7371
 8294SOL     OW32947   2.325   0.800   3.991 -0.8455 -0.4708  0.1150
 8294SOL    HW232948   2.420   0.815   3.988 -0.8949 -0.1977 -0.1819
 8294SOL    HW332949   2.310   0.755   4.074 -0.6737  1.1402  1.0695
 8294SOL    MW432950   2.336   0.796   4.001 -0.3694  0.0958 -0.1181
 8295SOL     OW32951   1.034   6.078   0.161  0.2398 -0.3070 -0.1422
 8295SOL    HW232952   1.116   6.037   0.190  0.3285  0.7561  1.2219
 8295SOL    HW332953   1.013   6.141   0.230 -1.0259  0.4057 -1.1304
 8295SOL    MW432954   1.042   6.081   0.174 -0.1024 -0.4906  0.3239
 8296SOL     OW32955   1.111   3.942   3.742  0.3677 -0.3846  0.0964
 8296SOL    HW232956   1.153   4.022   3.774 -1.4933  0.6048  0.1532
 8296SOL    HW332957   1.092   3.960   3.651 -0.8300 -0.4152  0.3305
 8296SOL    MW432958   1.114   3.955   3.735  0.3690 -0.1818 -0.4189
 8297SOL     OW32959   2.833   0.310   3.775 -0.1077  0.4993  0.3224
 8297SOL    HW232960   2.842   0.347   3.688 -1.2048  1.0140  0.4052
 8297SOL    HW332961   2.739   0.314   3.793 -0.0139 -0.4789  1.1432
 8297SOL    MW432962   2.822   0.315   3.766  0.0487 -0.4929  0.3526
 8298SOL     OW32963   6.400   3.539   2.677 -0.1916 -0.1486 -0.1369
 8298SOL    HW232964   6.443   3.463   2.637  0.0089 -0.5495  0.8102
 8298SOL    HW332965   6.458   3.564   2.749 -0.2515  0.9180 -0.4382
 8298SOL    MW432966   6.414   3.532   2.681  0.5169 -0.1663 -0.1802
 8299SOL     OW32967   1.682   0.820   5.814 -0.2638 -0.0924  0.1520
 8299SOL    HW232968   1.595   0.855   5.831 -0.1935  0.4487 -0.5585
 8299SOL    HW332969   1.732   0.839   5.893 -0.8930 -0.7649  0.7257
 8299SOL    MW432970   1.677   0.827   5.827  0.3181 -0.4980  0.4003
 8300SOL     OW32971   1.347   5.093   2.079 -0.0811  0.1032 -0.3347
 8300SOL    HW232972   1.395   5.163   2.124 -1.5044 -0.2270  1.8386
 8300SOL    HW332973   1.329   5.128   1.992  0.9322  1.6527  0.0446
 8300SOL    MW432974   1.351   5.107   2.073  0.3670  0.0678  0.1818
 8301SOL     OW32975   2.728   5.419   4.699 -0.0489 -0.0077  0.1693
 8301SOL    HW232976   2.718   5.329   4.730  1.2538  0.1622  1.1552
 8301SOL    HW332977   2.821   5.428   4.679 -0.0617  1.2674  0.5879
 8301SOL    MW432978   2.739   5.409   4.701  0.2271 -0.0919  0.6008
 8302SOL     OW32979   2.151   5.744   3.838  0.3132 -0.0798 -0.9898
 8302SOL    HW232980   2.156   5.650   3.854 -1.1350 -0.0149  0.0481
 8302SOL    HW332981   2.167   5.754   3.744 -2.6280 -1.7304 -1.7912
 8302SOL    MW432982   2.154   5.733   3.827 -0.4058  0.1626  0.6379
 8303SOL     OW32983   5.945   6.089   4.394 -0.4533  0.1250  0.6136
 8303SOL    HW232984   5.995   6.114   4.472 -1.4720  1.1814  0.9630
 8303SOL    HW332985   5.912   6.172   4.360  0.8300 -0.2036 -1.5811
 8303SOL    MW432986   5.947   6.103   4.400  0.4484 -0.1088  0.8225
 8304SOL     OW32987   3.636   2.298   3.941  0.5350  0.4015 -0.2613
 8304SOL    HW232988   3.692   2.331   3.870 -0.9742 -0.1372 -1.7811
 8304SOL    HW332989   3.636   2.368   4.006  0.4555  1.7780 -1.6760
 8304SOL    MW432990   3.643   2.311   3.940 -0.6958  0.4336  0.3213
 8305SOL     OW32991   3.904   0.041   4.057 -0.6877  0.3805  0.1883
 8305SOL    HW232992   3.900   0.023   3.963 -0.6625 -1.5222  0.5084
 8305SOL    HW332993   3.997   0.034   4.078 -0.6087  1.5089  0.2449
 8305SOL    MW432994   3.916   0.037   4.047  0.2644  0.0389  0.4626
 8306SOL     OW32995   3.445   0.750   2.628  0.1422  0.4656 -0.2409
 8306SOL    HW232996   3.527   0.795   2.652 -0.0433  1.4059 -1.2572
 8306SOL    HW332997   3.461   0.658   2.648  0.9587  0.8210  0.8343
 8306SOL    MW432998   3.458   0.744   2.634  0.3996  0.4424  0.1538
 8307SOL     OW32999   3.474   5.287   0.272  0.9151  0.3942  0.2594
 8307SOL    HW233000   3.448   5.199   0.242 -0.1144  0.7105  0.1934
 8307SOL    HW333001   3.530   5.270   0.348  0.3708 -0.3145  0.5146
 8307SOL    MW433002   3.478   5.273   0.278  0.0891  0.3322 -0.3459
 8308SOL     OW33003   0.609   2.868   2.559  0.0221  0.6143  0.4697
 8308SOL    HW233004   0.618   2.824   2.644  0.7358  0.4332  0.3108
 8308SOL    HW333005   0.598   2.797   2.496  1.6487  0.5840  0.1502
 8308SOL    MW433006   0.609   2.853   2.562 -0.1183  0.1049 -0.2950
 8309SOL     OW33007   3.817   5.741   3.206  0.4935 -0.1507 -0.2409
 8309SOL    HW233008   3.776   5.737   3.120 -1.3083 -1.6951  0.6118
 8309SOL    HW333009   3.898   5.790   3.192  0.1034 -0.0969 -2.7258
 8309SOL    MW433010   3.822   5.747   3.193  0.3818  0.2044  0.1259
 8310SOL     OW33011   2.821   0.341   1.574  0.0670  0.0790  0.3243
 8310SOL    HW233012   2.855   0.431   1.571  0.3475 -0.0453 -0.4639
 8310SOL    HW333013   2.869   0.300   1.646  0.2826  0.4227  0.3818
 8310SOL    MW433014   2.831   0.348   1.583  0.8495  0.1981 -0.0758
 8311SOL     OW33015   2.656   2.327   3.544 -0.0219  0.1689 -0.0814
 8311SOL    HW233016   2.637   2.235   3.563 -1.3896  0.7078  1.2962
 8311SOL    HW333017   2.576   2.374   3.567  1.2647  1.9416  1.0269
 8311SOL    MW433018   2.643   2.321   3.549  0.4360  0.5094  0.2513
 8312SOL     OW33019   1.099   3.154   3.066  0.4013 -0.1195  0.2499
 8312SOL    HW233020   1.082   3.183   2.977 -0.8599 -1.2039  0.1109
 8312SOL    HW333021   1.012   3.149   3.107  0.8812 -0.4731  1.2698
 8312SOL    MW433022   1.085   3.157   3.060  0.0994 -0.2687 -0.8225
 8313SOL     OW33023   0.376   4.401   5.677  0.0271 -0.2912  0.0852
 8313SOL    HW233024   0.421   4.452   5.744  0.5616 -1.2221  0.4485
 8313SOL    HW333025   0.299   4.366   5.721 -0.6571  0.6448 -0.3219
 8313SOL    MW433026   0.372   4.403   5.691 -0.1139 -1.0778  0.0750
 8314SOL     OW33027   6.377   0.062   1.434  0.4458  0.1971  0.7974
 8314SOL    HW233028   6.432   0.129   1.394  1.3215 -0.2121  1.3019
 8314SOL    HW333029   6.332   0.107   1.505  0.1564  0.5183  0.4164
 8314SOL    MW433030   6.378   0.076   1.438  0.0117 -0.2324  0.2203
 8315SOL     OW33031   5.382   4.457   0.963 -0.1387 -0.2333  0.3499
 8315SOL    HW233032   5.323   4.469   0.888 -0.2786  0.4996  0.5651
 8315SOL    HW333033   5.407   4.365   0.959 -1.5550 -0.6412  0.4532
 8315SOL    MW433034   5.378   4.447   0.952 -0.3876  0.2562 -0.1608
 8316SOL     OW33035   0.491   3.143   5.990  0.2328 -0.2418 -0.6098
 8316SOL    HW233036   0.509   3.213   5.928 -0.9024  1.2752  0.7079
 8316SOL    HW333037   0.400   3.120   5.975  0.7671 -1.9762 -1.4903
 8316SOL    MW433038   0.482   3.149   5.980 -0.1019  0.4651  0.1795
 8317SOL     OW33039   3.339   2.487   1.906 -0.5057  0.2818  0.1252
 8317SOL    HW233040   3.393   2.491   1.985  0.8597  0.6064 -0.7866
 8317SOL    HW333041   3.355   2.570   1.861 -0.3758 -0.3486 -1.0373
 8317SOL    MW433042   3.348   2.498   1.910  0.4109 -0.2050  0.6823
 8318SOL     OW33043   2.831   4.008   0.507  0.0774 -0.3926 -0.3611
 8318SOL    HW233044   2.742   4.013   0.473 -0.7414 -1.9712  1.4105
 8318SOL    HW333045   2.828   4.056   0.590  0.5500 -1.4503  0.2904
 8318SOL    MW433046   2.819   4.015   0.514  0.4431 -0.3253 -1.1117
 8319SOL     OW33047   5.648   6.277   0.941  0.1268  0.0069  0.3517
 8319SOL    HW233048   5.642   6.189   0.905 -1.3213  0.4669 -0.6405
 8319SOL    HW333049   5.717   6.319   0.890  1.7188 -0.8791  1.6738
 8319SOL    MW433050   5.656   6.271   0.929  0.4201  0.1680  0.1789
 8320SOL     OW33051   2.813   3.875   4.415 -0.2236  0.4026  0.7937
 8320SOL    HW233052   2.890   3.854   4.468 -0.2513  2.8092  1.9372
 8320SOL    HW333053   2.847   3.930   4.344 -0.8352  1.5836  1.3755
 8320SOL    MW433054   2.827   3.880   4.412  0.0893 -0.4089 -0.7467
 8321SOL     OW33055   2.628   0.650   5.355 -0.4182 -0.0205  0.3896
 8321SOL    HW233056   2.718   0.675   5.338 -0.1519 -0.9624  0.3633
 8321SOL    HW333057   2.612   0.574   5.299 -0.5272 -1.1881  1.9274
 8321SOL    MW433058   2.638   0.643   5.346  0.4402  0.3591 -0.2162
 8322SOL     OW33059   5.111   2.504   2.696  0.6304  0.2604 -0.3300
 8322SOL    HW233060   5.108   2.597   2.718 -1.1371  0.0989  0.2567
 8322SOL    HW333061   5.095   2.459   2.779  2.5462 -0.6462 -0.3843
 8322SOL    MW433062   5.109   2.510   2.709  0.1619  0.0681  0.0322
 8323SOL     OW33063   1.587   3.056   2.388 -0.0005  0.0882 -0.0204
 8323SOL    HW233064   1.524   3.006   2.337  0.4063 -0.7064  0.2433
 8323SOL    HW333065   1.626   2.993   2.447  1.2232  0.5047 -0.3448
 8323SOL    MW433066   1.584   3.041   2.389  0.0323 -0.0239  0.1029
 8324SOL     OW33067   0.191   3.892   1.850 -0.3832 -0.2693 -0.1798
 8324SOL    HW233068   0.123   3.914   1.914  1.0233  1.8656  0.6590
 8324SOL    HW333069   0.199   3.970   1.795  0.5962 -0.9198 -1.0013
 8324SOL    MW433070   0.183   3.905   1.851 -0.4677  0.2420  0.0863
 8325SOL     OW33071   4.910   6.177   3.474  0.3975  0.2313 -0.2564
 8325SOL    HW233072   4.861   6.119   3.533  0.4853 -2.3478 -2.5330
 8325SOL    HW333073   4.996   6.186   3.515 -0.8068  2.1927  2.1549
 8325SOL    MW433074   4.915   6.170   3.487  0.0895  0.0855  0.3392
 8326SOL     OW33075   4.919   4.544   4.230  0.5944  0.1093 -0.5610
 8326SOL    HW233076   4.887   4.470   4.282  1.5792 -0.7047 -1.0820
 8326SOL    HW333077   4.841   4.580   4.189 -0.0116 -0.1022  0.3816
 8326SOL    MW433078   4.905   4.539   4.232  0.1577 -0.3316 -0.5951
 8327SOL     OW33079   5.087   1.489   3.166  0.7989 -0.4944 -0.2792
 8327SOL    HW233080   4.997   1.458   3.168  0.7419 -0.3750  2.5109
 8327SOL    HW333081   5.101   1.514   3.075 -1.7302 -1.1875 -0.9491
 8327SOL    MW433082   5.077   1.489   3.154 -0.3911  0.0709  0.2480
 8328SOL     OW33083   5.227   5.271   5.469  0.1902  0.6680 -0.0442
 8328SOL    HW233084   5.161   5.304   5.408 -0.1376  1.4770  0.7329
 8328SOL    HW333085   5.184   5.274   5.555  2.1497  4.0758  0.9923
 8328SOL    MW433086   5.213   5.276   5.473 -0.0118  0.8017  0.1775
 8329SOL     OW33087   0.685   5.675   3.254  0.1821  0.7105  0.3159
 8329SOL    HW233088   0.623   5.735   3.213  0.9571  1.3605  0.0804
 8329SOL    HW333089   0.667   5.683   3.348 -2.0991 -1.3349  0.1397
 8329SOL    MW433090   0.674   5.684   3.261 -0.0049 -0.3067 -0.0416
 8330SOL     OW33091   3.424   1.339   1.341  0.0146  0.0734  0.3467
 8330SOL    HW233092   3.445   1.282   1.267  0.6931 -0.1257  0.6832
 8330SOL    HW333093   3.375   1.283   1.401 -1.2107  0.4432 -0.2835
 8330SOL    MW433094   3.421   1.324   1.339  0.2604  0.3571  0.6907
 8331SOL     OW33095   4.269   3.659   2.972  0.1291  0.0323 -0.0432
 8331SOL    HW233096   4.353   3.614   2.970  0.0564 -0.1793  1.0796
 8331SOL    HW333097   4.227   3.629   3.052 -0.6402  0.8210 -0.1285
 8331SOL    MW433098   4.274   3.649   2.982 -0.2113 -0.3258  0.6107
 8332SOL     OW33099   2.871   2.600   0.593 -0.2437  0.4932 -0.0437
 8332SOL    HW233100   2.860   2.649   0.674 -1.7774 -2.2500  1.5432
 8332SOL    HW333101   2.788   2.611   0.547 -0.9477 -1.1813  0.7385
 8332SOL    MW433102   2.859   2.608   0.597 -0.0832 -0.1738 -0.0003
 8333SOL     OW33103   2.308   3.127   1.330 -0.3845 -0.0397  0.5329
 8333SOL    HW233104   2.326   3.217   1.355 -0.0929 -0.3671  1.5819
 8333SOL    HW333105   2.379   3.077   1.371 -0.6964 -0.7744  0.1929
 8333SOL    MW433106   2.320   3.132   1.339 -0.0973  0.2690 -0.6477
 8334SOL     OW33107   2.421   1.650   2.060  0.6135 -0.5825  0.0035
 8334SOL    HW233108   2.511   1.626   2.082  1.0595  0.6218 -0.4045
 8334SOL    HW333109   2.416   1.744   2.079  0.3410  0.0246 -2.7393
 8334SOL    MW433110   2.432   1.660   2.066 -0.7134 -0.7628 -0.1123
 8335SOL     OW33111   5.016   3.584   5.347 -0.0132  0.5249  0.7520
 8335SOL    HW233112   5.097   3.631   5.368 -0.1337  0.4102  1.4904
 8335SOL    HW333113   4.975   3.568   5.432 -1.3030  1.4267  0.3282
 8335SOL    MW433114   5.022   3.588   5.361 -0.0354 -0.1413  0.4248
 8336SOL     OW33115   5.683   0.963   0.372  0.0517 -0.5107  0.2970
 8336SOL    HW233116   5.744   0.988   0.441 -1.6365  0.8931  1.3648
 8336SOL    HW333117   5.688   1.035   0.308 -0.5002 -0.3617  0.4162
 8336SOL    MW433118   5.691   0.976   0.372  0.5074  0.3967 -0.2013
 8337SOL     OW33119   5.056   2.505   4.654 -0.0433 -0.2423  0.2541
 8337SOL    HW233120   5.139   2.466   4.626  0.1723 -0.0033  0.5577
 8337SOL    HW333121   5.081   2.580   4.708 -0.4514  0.5671 -0.6528
 8337SOL    MW433122   5.070   2.509   4.658 -0.1403  0.1302 -0.0185
 8338SOL     OW33123   3.214   5.413   5.493  0.4899  0.1086  0.2874
 8338SOL    HW233124   3.259   5.377   5.416 -0.8185 -1.9938  0.4408
 8338SOL    HW333125   3.143   5.465   5.456  0.6370  0.1590  0.0693
 8338SOL    MW433126   3.211   5.415   5.478 -0.7359 -0.1017 -0.5369
 8339SOL     OW33127   4.839   1.245   1.583 -0.0264 -0.4354  0.2191
 8339SOL    HW233128   4.778   1.181   1.547  0.3624 -1.3201  1.0968
 8339SOL    HW333129   4.806   1.329   1.551  0.0456 -1.1162 -1.8272
 8339SOL    MW433130   4.827   1.248   1.574  0.0140  0.0575  0.0677
 8340SOL     OW33131   4.658   5.586   1.188  0.5124  0.9258 -0.0980
 8340SOL    HW233132   4.611   5.507   1.211 -0.3600  1.4488 -0.0594
 8340SOL    HW333133   4.620   5.614   1.105  0.3894  1.6240  0.1791
 8340SOL    MW433134   4.647   5.579   1.180  0.0120 -0.3702 -0.0666
 8341SOL     OW33135   1.170   5.251   6.039 -0.1726  0.3113 -0.1438
 8341SOL    HW233136   1.130   5.227   5.956 -0.6006  0.2745  0.0689
 8341SOL    HW333137   1.167   5.171   6.092 -0.5145  0.5084  0.1423
 8341SOL    MW433138   1.164   5.237   6.035 -0.2860 -0.1928  0.4743
 8342SOL     OW33139   0.489   3.841   1.304 -0.3447 -0.2491  0.5949
 8342SOL    HW233140   0.461   3.892   1.228  0.5224 -0.0016  0.4328
 8342SOL    HW333141   0.572   3.802   1.278 -0.6058 -1.1001  1.0139
 8342SOL    MW433142   0.496   3.843   1.291  0.1349  0.1127  0.0918
 8343SOL     OW33143   1.849   5.916   3.455 -0.2216 -0.6784  0.3148
 8343SOL    HW233144   1.818   5.837   3.500  1.3710 -1.4838  0.0573
 8343SOL    HW333145   1.786   5.983   3.480 -1.0020 -1.7721  1.4276
 8343SOL    MW433146   1.836   5.914   3.464 -0.2848  0.3524  0.3433
 8344SOL     OW33147   3.474   4.672   2.488  0.1488 -0.1608 -0.0017
 8344SOL    HW233148   3.524   4.621   2.552 -1.4643 -0.5580  1.0019
 8344SOL    HW333149   3.466   4.759   2.529  0.2139 -0.0368 -0.2532
 8344SOL    MW433150   3.479   4.677   2.502 -0.8173  0.1892 -0.2496
 8345SOL     OW33151   0.420   5.756   5.988 -0.3762  0.5681 -0.1362
 8345SOL    HW233152   0.493   5.694   5.985 -0.4995  0.4561 -1.4516
 8345SOL    HW333153   0.458   5.839   5.958 -0.5326  0.7993  0.2925
 8345SOL    MW433154   0.435   5.759   5.984 -0.0424 -0.4685 -0.5305
 8346SOL     OW33155   3.224   1.337   6.053  0.2981 -0.3340 -0.2837
 8346SOL    HW233156   3.137   1.349   6.013 -1.1766 -1.1283  2.4438
 8346SOL    HW333157   3.284   1.377   5.991 -1.9896  0.0947 -2.3913
 8346SOL    MW433158   3.220   1.344   6.039  0.1677 -0.1083  0.7892
 8347SOL     OW33159   0.293   0.334   2.424  0.7308 -0.3454  0.2193
 8347SOL    HW233160   0.259   0.401   2.365  2.7086  0.0067 -0.6152
 8347SOL    HW333161   0.334   0.270   2.367 -0.2149 -1.7490  1.0730
 8347SOL    MW433162   0.294   0.335   2.409  0.4181 -0.3882 -0.5944
 8348SOL     OW33163   4.462   6.047   1.297 -0.3737  0.1183  0.0281
 8348SOL    HW233164   4.459   6.123   1.239 -1.2652  0.6664  0.7512
 8348SOL    HW333165   4.377   6.003   1.283 -0.7189  0.4084  1.0837
 8348SOL    MW433166   4.450   6.051   1.287  0.3871 -0.5083  0.1072
 8349SOL     OW33167   2.925   6.005   2.790 -0.3530 -0.0895  0.3804
 8349SOL    HW233168   2.883   6.011   2.704  0.8486 -2.0024 -0.4139
 8349SOL    HW333169   2.954   6.094   2.809 -2.3086  0.7328 -0.2904
 8349SOL    MW433170   2.924   6.018   2.781  0.0889 -0.3670 -0.6364
 8350SOL     OW33171   2.158   5.380   3.107  0.1106  0.5302  0.2208
 8350SOL    HW233172   2.140   5.294   3.067 -0.1398  0.5305  0.3302
 8350SOL    HW333173   2.236   5.366   3.160 -0.1771  0.2632  0.5757
 8350SOL    MW433174   2.166   5.366   3.108  0.4491  0.1097  0.2486
 8351SOL     OW33175   2.276   0.578   3.596 -0.3044 -0.1112  0.1102
 8351SOL    HW233176   2.346   0.552   3.535 -1.2762 -2.3574 -0.1629
 8351SOL    HW333177   2.278   0.673   3.596  0.7731 -0.0637 -2.2311
 8351SOL    MW433178   2.286   0.587   3.588 -0.0629 -0.1922  0.0914
 8352SOL     OW33179   2.193   2.679   1.410  0.0894 -0.3318 -0.1543
 8352SOL    HW233180   2.166   2.769   1.396  1.1668 -0.0072 -0.2770
 8352SOL    HW333181   2.232   2.678   1.497 -0.0776 -0.7184 -0.0805
 8352SOL    MW433182   2.195   2.691   1.420 -0.0037 -0.1288  0.7715
 8353SOL     OW33183   0.246   2.407   4.586  0.2498  0.2683 -0.5186
 8353SOL    HW233184   0.167   2.354   4.578  1.1719 -0.9850 -1.6982
 8353SOL    HW333185   0.269   2.430   4.496  1.0830  0.8456 -0.1734
 8353SOL    MW433186   0.239   2.403   4.573  0.0943 -0.0320 -0.3450
 8354SOL     OW33187   0.838   2.644   5.076  0.4488  0.5556  0.2829
 8354SOL    HW233188   0.855   2.702   5.150  0.7649  1.8275 -0.7360
 8354SOL    HW333189   0.743   2.638   5.072  0.4384 -0.1233  1.2141
 8354SOL    MW433190   0.828   2.651   5.085 -0.1891  0.3461 -0.0093
 8355SOL     OW33191   1.310   5.536   5.861  0.0317 -0.4200 -0.6130
 8355SOL    HW233192   1.279   5.566   5.775 -2.0675 -2.0591 -0.5104
 8355SOL    HW333193   1.327   5.442   5.848  0.1342 -0.5839  0.6413
 8355SOL    MW433194   1.308   5.527   5.848 -0.1044  0.2802  0.3218
 8356SOL     OW33195   5.050   2.496   3.363 -0.3449  0.3982 -0.1326
 8356SOL    HW233196   4.973   2.479   3.417  0.2973  1.1605  1.0772
 8356SOL    HW333197   5.124   2.466   3.415  0.2177 -0.1344 -1.1895
 8356SOL    MW433198   5.050   2.490   3.377 -0.6471  0.2909  0.3348
 8357SOL     OW33199   2.794   3.596   4.431 -0.4186 -0.0961 -0.1352
 8357SOL    HW233200   2.730   3.572   4.498  0.7175  0.0632  1.0641
 8357SOL    HW333201   2.777   3.688   4.412  0.3093  0.3314  1.1974
 8357SOL    MW433202   2.783   3.605   4.437  0.2712 -0.2914  0.0922
 8358SOL     OW33203   2.608   3.695   2.060  0.1553 -0.0185  0.4281
 8358SOL    HW233204   2.587   3.603   2.077  1.3039 -0.2869  0.4602
 8358SOL    HW333205   2.660   3.693   1.980 -2.3278  0.9141 -1.3565
 8358SOL    MW433206   2.612   3.682   2.051  0.5472  0.9111  0.0793
 8359SOL     OW33207   4.840   3.861   4.476  0.2290 -0.0483  0.3072
 8359SOL    HW233208   4.922   3.826   4.444  0.1456  0.0527 -0.0151
 8359SOL    HW333209   4.842   3.843   4.570  0.2971 -0.6916  0.1869
 8359SOL    MW433210   4.851   3.854   4.485  0.1197 -0.5495 -0.0986
 8360SOL     OW33211   1.693   1.905   1.547  0.2623  0.1133 -0.3359
 8360SOL    HW233212   1.780   1.911   1.509  0.0053 -1.0823 -1.1642
 8360SOL    HW333213   1.707   1.900   1.641  1.1445 -1.0202 -0.5162
 8360SOL    MW433214   1.706   1.905   1.554  0.1925 -0.2900 -0.1868
 8361SOL     OW33215   2.639   4.073   0.979  0.0607  0.0658 -0.1646
 8361SOL    HW233216   2.594   3.990   0.965  0.6984 -0.2616 -0.3180
 8361SOL    HW333217   2.709   4.074   0.914  0.5086  0.3839  0.3066
 8361SOL    MW433218   2.643   4.062   0.969  0.7193  0.4728  0.1152
 8362SOL     OW33219   2.846   0.786   2.336  0.1616  0.4648 -0.2573
 8362SOL    HW233220   2.757   0.811   2.363  0.2905  0.3386  0.2800
 8362SOL    HW333221   2.842   0.691   2.324 -0.1068  0.6130 -1.4880
 8362SOL    MW433222   2.834   0.777   2.338  0.0624  0.0167  0.4043
 8363SOL     OW33223   3.057   1.708   1.125  0.1437  0.2215 -0.0585
 8363SOL    HW233224   2.976   1.676   1.165 -0.1427  1.2519  0.2154
 8363SOL    HW333225   3.105   1.628   1.101 -0.0508 -0.4255  1.5868
 8363SOL    MW433226   3.053   1.693   1.127  0.4952  0.4794  0.1648
 8364SOL     OW33227   0.399   5.508   5.555 -0.4895  0.0901 -0.7115
 8364SOL    HW233228   0.456   5.566   5.505  0.3406  0.2760  0.4333
 8364SOL    HW333229   0.405   5.539   5.645 -2.5406  0.2245 -0.5755
 8364SOL    MW433230   0.407   5.519   5.560  0.1493  0.3287  0.1430
 8365SOL     OW33231   4.060   1.215   6.277  0.0054 -0.1196 -0.0533
 8365SOL    HW233232   4.068   1.280   6.207 -1.1625  0.5850  0.4356
 8365SOL    HW333233   4.139   1.161   6.269  0.7581  1.0445 -0.7818
 8365SOL    MW433234   4.071   1.216   6.267 -0.3373 -0.0471  0.1486
 8366SOL     OW33235   5.215   4.145   3.704  0.3994 -0.0409 -0.4812
 8366SOL    HW233236   5.199   4.167   3.795 -1.1471 -0.0292 -0.7376
 8366SOL    HW333237   5.130   4.153   3.661  0.4453 -2.9259 -1.3335
 8366SOL    MW433238   5.202   4.149   3.710 -0.4985 -0.2181 -0.4935
 8367SOL     OW33239   6.174   1.480   1.210 -0.2253 -0.3165 -0.9345
 8367SOL    HW233240   6.192   1.573   1.216  0.7531 -0.5642  1.7700
 8367SOL    HW333241   6.116   1.463   1.284 -1.4894 -1.6591 -2.1788
 8367SOL    MW433242   6.169   1.490   1.221 -0.4328 -0.1273  0.0101
 8368SOL     OW33243   2.478   4.761   6.120  0.2380 -0.2834 -0.1409
 8368SOL    HW233244   2.431   4.822   6.176 -0.8453 -1.6164  0.4773
 8368SOL    HW333245   2.559   4.806   6.097 -0.4989  1.3426  0.3079
 8368SOL    MW433246   2.482   4.775   6.124  0.0225 -0.0776  0.2629
 8369SOL     OW33247   5.930   1.638   4.584  0.7940 -0.1589  0.6871
 8369SOL    HW233248   6.023   1.620   4.569  0.2768 -1.3381 -1.6927
 8369SOL    HW333249   5.917   1.726   4.547  0.8364 -0.2903  0.3534
 8369SOL    MW433250   5.941   1.647   4.577 -0.1477 -0.0334 -0.0837
 8370SOL     OW33251   3.798   2.072   4.870  0.2334 -0.7725  0.4343
 8370SOL    HW233252   3.858   2.085   4.943 -0.0069 -0.9688  0.6717
 8370SOL    HW333253   3.729   2.137   4.884  1.6266  1.1839 -1.2042
 8370SOL    MW433254   3.797   2.082   4.882  0.2215  0.0658  0.0561
 8371SOL     OW33255   3.691   4.469   4.028  0.1213 -0.7347  0.3317
 8371SOL    HW233256   3.661   4.443   4.115 -1.8468 -1.3892 -0.4885
 8371SOL    HW333257   3.726   4.557   4.040  2.2314 -1.7297  2.2153
 8371SOL    MW433258   3.692   4.477   4.041  0.4250 -0.2009  0.0670
 8372SOL     OW33259   6.330   3.019   3.840 -0.1830  0.2325  0.6980
 8372SOL    HW233260   6.258   2.960   3.817  2.4773 -2.5162 -1.4843
 8372SOL    HW333261   6.303   3.105   3.807 -2.8787 -0.4203  1.0318
 8372SOL    MW433262   6.317   3.023   3.832 -0.5015 -0.3063  0.3868
 8373SOL     OW33263   3.590   5.442   4.926 -0.7887 -0.3324  0.5335
 8373SOL    HW233264   3.607   5.351   4.952 -0.7116 -0.4381  0.1135
 8373SOL    HW333265   3.609   5.445   4.832  0.0952  0.3228  0.7123
 8373SOL    MW433266   3.595   5.431   4.917  0.1233 -1.0357  0.6439
 8374SOL     OW33267   0.874   2.018   0.793 -0.1355 -0.0936 -0.0687
 8374SOL    HW233268   0.779   2.007   0.801 -0.1776 -0.2161 -0.6801
 8374SOL    HW333269   0.907   1.929   0.783  0.2284 -0.2003  1.8844
 8374SOL    MW433270   0.866   2.005   0.792  0.2053  0.1411 -0.3848
 8375SOL     OW33271   5.094   0.621   5.662 -0.0094  0.5366 -0.0296
 8375SOL    HW233272   5.112   0.677   5.738  0.2328  0.9317 -0.3759
 8375SOL    HW333273   5.061   0.681   5.595 -1.7817 -0.0390  0.2745
 8375SOL    MW433274   5.092   0.636   5.663  0.1461  0.0209 -0.2463
 8376SOL     OW33275   5.434   4.880   6.432  0.4776 -0.1241 -0.1932
 8376SOL    HW233276   5.403   4.957   6.385  0.5595  1.4173  2.1152
 8376SOL    HW333277   5.354   4.830   6.451  0.0395  0.9048  0.7867
 8376SOL    MW433278   5.419   4.883   6.429 -0.0300  0.1913 -0.6420
 8377SOL     OW33279   1.449   0.341   1.560 -0.5095 -0.3943  0.0529
 8377SOL    HW233280   1.437   0.434   1.541  0.8181  0.2188  1.9084
 8377SOL    HW333281   1.369   0.316   1.606 -1.1339 -0.3514 -0.9806
 8377SOL    MW433282   1.437   0.350   1.563 -0.1237  0.6520 -0.5330
 8378SOL     OW33283   0.324   2.956   5.169  0.0720  0.0853  0.1755
 8378SOL    HW233284   0.278   2.873   5.181 -0.2671  0.3286  0.6183
 8378SOL    HW333285   0.416   2.932   5.161  0.2116 -0.2306  2.1307
 8378SOL    MW433286   0.330   2.942   5.170  0.1490 -0.1913  0.5578
 8379SOL     OW33287   4.062   2.142   2.359 -0.8356 -0.3159 -0.1541
 8379SOL    HW233288   4.039   2.049   2.360  1.1235 -0.8408  0.3564
 8379SOL    HW333289   4.150   2.145   2.398 -1.1558  1.8370  0.5118
 8379SOL    MW433290   4.071   2.130   2.364 -0.0956 -0.1105  0.3637
 8380SOL     OW33291   5.014   2.810   2.054 -0.1685 -0.4514 -0.7077
 8380SOL    HW233292   4.947   2.872   2.082 -0.3901 -0.5434 -1.0268
 8380SOL    HW333293   5.034   2.834   1.964  0.2325 -0.4228 -0.6148
 8380SOL    MW433294   5.008   2.821   2.046 -0.6667  0.1622 -0.8364
 8381SOL     OW33295   6.004   3.096   2.897 -0.0781  0.1153  0.1213
 8381SOL    HW233296   6.078   3.129   2.845 -0.7618 -0.1919 -1.0655
 8381SOL    HW333297   6.036   3.015   2.936 -0.1062 -0.5911 -1.2572
 8381SOL    MW433298   6.018   3.090   2.895 -0.0694  0.3194  0.2946
 8382SOL     OW33299   5.125   5.356   6.305 -0.2263 -0.4023 -0.3478
 8382SOL    HW233300   5.204   5.350   6.252 -0.4156  0.4537 -0.7548
 8382SOL    HW333301   5.054   5.342   6.242 -0.3893 -2.0541  0.1695
 8382SOL    MW433302   5.126   5.353   6.290  0.0310 -0.5390 -0.7365
 8383SOL     OW33303   6.082   0.952   6.228 -0.0556 -0.0184 -0.0033
 8383SOL    HW233304   6.116   0.924   6.143  0.4130 -0.4771  0.3297
 8383SOL    HW333305   6.031   0.878   6.259  0.7158 -0.3043  0.6246
 8383SOL    MW433306   6.080   0.939   6.221  0.2424  0.2515  0.0844
 8384SOL     OW33307   1.326   0.984   1.361 -0.7621  0.0072  0.0470
 8384SOL    HW233308   1.299   1.071   1.332  0.7498 -0.0164 -1.5822
 8384SOL    HW333309   1.407   1.000   1.411 -0.7481 -0.4142  0.1629
 8384SOL    MW433310   1.333   0.998   1.364  0.0151  0.3115 -0.6344
 8385SOL     OW33311   3.306   1.096   2.310  0.5952 -0.5404 -0.2900
 8385SOL    HW233312   3.344   1.011   2.331  1.9279  0.6482  2.5852
 8385SOL    HW333313   3.244   1.114   2.381  1.1425  1.3251 -0.2226
 8385SOL    MW433314   3.303   1.087   2.322 -0.1983  0.1072  0.0351
 8386SOL     OW33315   1.484   1.425   4.120  0.0095  0.2874 -0.0336
 8386SOL    HW233316   1.541   1.442   4.045 -2.1086 -1.9069 -2.2971
 8386SOL    HW333317   1.484   1.330   4.129 -2.7889  0.2348  0.2142
 8386SOL    MW433318   1.492   1.415   4.111 -0.5134  0.3546  0.4353
 8387SOL     OW33319   0.924   1.981   1.393 -0.4944 -0.0117 -0.3927
 8387SOL    HW233320   1.001   1.937   1.359  0.3591  1.5363 -0.5960
 8387SOL    HW333321   0.959   2.060   1.435 -1.7488 -0.4738  1.6749
 8387SOL    MW433322   0.938   1.986   1.394 -0.4756 -0.4835  0.3204
 8388SOL     OW33323   5.870   4.921   6.047  0.1794  0.3488  0.2356
 8388SOL    HW233324   5.954   4.955   6.015  1.3350 -1.0741  1.6049
 8388SOL    HW333325   5.871   4.940   6.141 -0.0268 -1.5634  0.6679
 8388SOL    MW433326   5.881   4.928   6.055  0.2108  0.3443  0.1850
 8389SOL     OW33327   4.738   0.105   3.742  0.2800 -0.7188 -0.3175
 8389SOL    HW233328   4.709   0.073   3.827 -2.7292  1.4176 -0.4073
 8389SOL    HW333329   4.828   0.074   3.734  0.8383 -0.6465  3.8286
 8389SOL    MW433330   4.746   0.097   3.752 -0.1397 -0.3101  0.4937
 8390SOL     OW33331   4.876   0.568   1.151  0.0663 -0.0726  0.0636
 8390SOL    HW233332   4.820   0.496   1.121  0.4493 -0.1726 -0.4234
 8390SOL    HW333333   4.936   0.528   1.214  0.6198 -0.2931 -0.5942
 8390SOL    MW433334   4.876   0.553   1.155  0.2276  0.2622  0.3509
 8391SOL     OW33335   2.987   4.258   1.492  0.6997  0.4087 -0.5073
 8391SOL    HW233336   3.063   4.201   1.490  0.5360  0.1965 -0.8617
 8391SOL    HW333337   3.017   4.338   1.536  0.3078 -0.8403  2.1905
 8391SOL    MW433338   3.001   4.261   1.497  0.2328  0.3231  0.1597
 8392SOL     OW33339   0.025   3.304   4.267  0.1061  0.3223  0.5625
 8392SOL    HW233340   0.061   3.357   4.196 -2.2117 -0.2716 -1.1783
 8392SOL    HW333341  -0.067   3.330   4.272 -0.0008 -0.2966  2.7995
 8392SOL    MW433342   0.018   3.315   4.259  0.3425 -0.1610 -0.5167
 8393SOL     OW33343   4.381   3.980   1.950 -0.4960  0.6567 -0.0820
 8393SOL    HW233344   4.356   3.928   1.873 -1.6474  1.9538 -0.6326
 8393SOL    HW333345   4.354   3.926   2.025 -2.2746  0.6978 -0.6423
 8393SOL    MW433346   4.374   3.966   1.950  0.3309 -0.7883 -0.2277
 8394SOL     OW33347   4.320   1.746   6.084 -0.0826  0.3599 -0.3011
 8394SOL    HW233348   4.235   1.703   6.083 -0.1500  0.4876 -1.0023
 8394SOL    HW333349   4.378   1.686   6.037  0.4298 -0.1345  0.9416
 8394SOL    MW433350   4.317   1.732   6.078 -0.3991 -0.0122  0.0171
 8395SOL     OW33351   3.800   0.463   4.103  0.1930 -0.5379 -0.0217
 8395SOL    HW233352   3.849   0.451   4.022 -0.3713 -1.2456 -0.2704
 8395SOL    HW333353   3.848   0.412   4.168  1.4430  1.1430  0.4513
 8395SOL    MW433354   3.812   0.455   4.101 -0.4096 -0.4068 -0.7081
 8396SOL     OW33355   5.810   5.619   3.654  0.1141 -0.3168 -0.2579
 8396SOL    HW233356   5.813   5.525   3.637 -0.2577 -0.2872 -0.5019
 8396SOL    HW333357   5.731   5.649   3.608  0.6350  0.2387 -0.8030
 8396SOL    MW433358   5.800   5.611   3.646 -0.0631 -0.7078 -0.4769
 8397SOL     OW33359   2.641   3.428   4.292  0.2131 -0.2097 -0.0475
 8397SOL    HW233360   2.715   3.485   4.314 -0.4940  0.3922  0.8308
 8397SOL    HW333361   2.613   3.392   4.376 -0.5328 -0.3932 -0.3666
 8397SOL    MW433362   2.647   3.430   4.306 -0.3346  0.7152  0.0189
 8398SOL     OW33363   3.548   4.596   6.008  0.1102 -0.5427  0.0037
 8398SOL    HW233364   3.643   4.606   6.017  0.3812 -1.7386 -1.2263
 8398SOL    HW333365   3.513   4.631   6.089  1.7507 -2.0829  1.4817
 8398SOL    MW433366   3.556   4.602   6.020  0.1835 -0.0544  0.6108
 8399SOL     OW33367   6.283   1.466   5.424  0.6672  0.5976  0.3700
 8399SOL    HW233368   6.248   1.435   5.340  0.2399  0.7863  0.4746
 8399SOL    HW333369   6.374   1.436   5.425  0.9263  1.2998 -0.5347
 8399SOL    MW433370   6.290   1.458   5.413 -0.4633 -0.3105  0.0667
 8400SOL     OW33371   2.918   4.613   3.343 -0.2393  0.3380  0.5254
 8400SOL    HW233372   2.993   4.652   3.387 -0.1919 -0.9300  1.6425
 8400SOL    HW333373   2.929   4.519   3.357 -2.2999  0.1501  1.1400
 8400SOL    MW433374   2.930   4.606   3.351  0.0826 -0.2147  0.5515
 8401SOL     OW33375   2.751   2.969   4.632  0.8338  0.1113 -0.2079
 8401SOL    HW233376   2.699   3.007   4.561 -1.0632 -0.7512  0.6477
 8401SOL    HW333377   2.807   3.041   4.661  0.8703  0.7893 -1.8451
 8401SOL    MW433378   2.752   2.984   4.626 -0.1190  0.4427  0.1627
 8402SOL     OW33379   1.246   3.495   5.299 -0.2237  0.0283 -0.1369
 8402SOL    HW233380   1.329   3.485   5.345 -1.0959 -1.2788  1.2304
 8402SOL    HW333381   1.270   3.536   5.216  1.6167  0.8811  0.7478
 8402SOL    MW433382   1.260   3.499   5.294  0.0032  0.4014 -0.3568
 8403SOL     OW33383   2.484   0.847   5.228  0.2323  0.0914 -0.6199
 8403SOL    HW233384   2.412   0.878   5.283 -1.3488 -1.1703 -1.8878
 8403SOL    HW333385   2.522   0.775   5.277 -0.4965 -0.3540 -0.6976
 8403SOL    MW433386   2.480   0.842   5.242  0.1260 -0.2651 -0.1399
 8404SOL     OW33387   0.429   3.639   3.921  0.1156 -0.1654  0.6910
 8404SOL    HW233388   0.382   3.632   3.838  0.9332  0.4739  0.1589
 8404SOL    HW333389   0.496   3.571   3.917  0.2448 -0.0435  0.7751
 8404SOL    MW433390   0.432   3.629   3.910  0.0196  0.0644 -0.4198
 8405SOL     OW33391   4.879   4.952   3.680  0.3673  0.1360  0.3173
 8405SOL    HW233392   4.903   5.006   3.605 -0.3312 -0.0352 -0.0390
 8405SOL    HW333393   4.784   4.954   3.682  0.3278 -0.9615  0.3836
 8405SOL    MW433394   4.870   4.959   3.670  0.0608 -0.0155  0.1784
 8406SOL     OW33395   0.802   3.871   0.536  0.1621 -0.1934 -0.2811
 8406SOL    HW233396   0.764   3.825   0.611 -1.6098  0.0468 -0.9826
 8406SOL    HW333397   0.893   3.885   0.560 -0.3737 -0.0613  1.8777
 8406SOL    MW433398   0.809   3.867   0.549 -0.5555 -0.0348  0.0365
 8407SOL     OW33399   0.610   4.260   0.279 -0.3238  0.2104  0.6206
 8407SOL    HW233400   0.637   4.169   0.293 -1.1910 -0.3814 -1.2622
 8407SOL    HW333401   0.674   4.311   0.330  0.3100 -1.4083  1.5616
 8407SOL    MW433402   0.622   4.254   0.288  0.3513 -0.6050 -0.3923
 8408SOL     OW33403   0.623   1.619   5.699 -0.1657  0.4469 -0.4176
 8408SOL    HW233404   0.604   1.555   5.630 -2.6243 -0.9854  1.4304
 8408SOL    HW333405   0.631   1.567   5.778 -0.6813  2.3133  0.9258
 8408SOL    MW433406   0.622   1.604   5.700  0.5754 -0.0524  0.1958
 8409SOL     OW33407   4.107   0.041   2.827  0.0836  0.5175 -0.2876
 8409SOL    HW233408   4.069   0.129   2.829 -1.1937 -0.0007  2.3989
 8409SOL    HW333409   4.198   0.053   2.853 -0.0628  1.0768 -0.0230
 8409SOL    MW433410   4.114   0.054   2.831  0.2556 -0.4296 -0.1496
 8410SOL     OW33411   3.750   5.081   3.670  0.4470 -0.1538  0.0842
 8410SOL    HW233412   3.710   5.015   3.726  2.2701 -1.5455 -0.1563
 8410SOL    HW333413   3.727   5.054   3.581  1.8776 -1.0042 -0.0598
 8410SOL    MW433414   3.742   5.068   3.666 -0.1620 -0.1670  0.0768
 8411SOL     OW33415   5.146   1.916   4.808  0.4274  0.0864  0.4502
 8411SOL    HW233416   5.193   1.986   4.853 -0.1774  0.9887 -0.2802
 8411SOL    HW333417   5.058   1.952   4.792 -0.2301 -1.2099  0.9570
 8411SOL    MW433418   5.140   1.930   4.812  0.2307  0.3595  0.0948
 8412SOL     OW33419   5.143   1.825   2.356  0.3380  0.3707 -0.1956
 8412SOL    HW233420   5.175   1.913   2.338 -0.9462  1.2646  1.6322
 8412SOL    HW333421   5.062   1.817   2.305  0.7481 -0.0012 -0.8118
 8412SOL    MW433422   5.137   1.835   2.347  0.5270  0.1877  0.0382
 8413SOL     OW33423   5.008   3.975   3.932  0.1245 -0.0876  0.1312
 8413SOL    HW233424   5.060   3.894   3.929 -1.5530 -1.1991 -1.6233
 8413SOL    HW333425   5.021   4.009   4.020  1.9743 -1.5284  0.4728
 8413SOL    MW433426   5.016   3.969   3.943 -0.3059 -0.3891  0.5563
 8414SOL     OW33427   4.856   1.221   0.258  0.8161  0.3578 -1.0076
 8414SOL    HW233428   4.895   1.146   0.214 -0.9165 -1.6984  0.7707
 8414SOL    HW333429   4.777   1.240   0.208 -0.6561 -1.3891  0.5056
 8414SOL    MW433430   4.851   1.214   0.246  0.4079  0.1000 -0.0054
 8415SOL     OW33431   4.868   5.600   2.767 -0.5070  0.2758 -0.1955
 8415SOL    HW233432   4.919   5.677   2.740  0.5186  0.3829  1.8978
 8415SOL    HW333433   4.924   5.526   2.745 -0.1641  0.3042  0.5634
 8415SOL    MW433434   4.882   5.601   2.760  0.1136  0.4737 -0.0015
 8416SOL     OW33435   1.356   5.122   3.600 -0.3436 -0.2108  0.3642
 8416SOL    HW233436   1.409   5.046   3.575 -0.2504 -0.5172  1.4449
 8416SOL    HW333437   1.353   5.119   3.696 -1.4246  0.4145  0.3690
 8416SOL    MW433438   1.363   5.112   3.609 -0.4229 -0.1033 -0.3498
 8417SOL     OW33439   1.795   2.429   0.565  0.2093  0.0913 -0.8346
 8417SOL    HW233440   1.874   2.446   0.514 -0.0458 -0.1939 -1.3255
 8417SOL    HW333441   1.724   2.470   0.516  0.2532  1.8205  0.4438
 8417SOL    MW433442   1.796   2.437   0.552 -0.0570  0.1395 -0.1663
 8418SOL     OW33443   3.234   4.464   3.304 -0.1395  0.6600 -0.1822
 8418SOL    HW233444   3.210   4.524   3.375  0.7730  0.9342 -0.1004
 8418SOL    HW333445   3.324   4.439   3.323 -0.4785 -0.6842 -0.2722
 8418SOL    MW433446   3.242   4.469   3.316 -0.1960  0.1580 -0.0369
 8419SOL     OW33447   4.051   1.303   0.455 -0.1273  0.1341 -0.3470
 8419SOL    HW233448   4.120   1.309   0.522  1.3014 -0.2074 -1.7453
 8419SOL    HW333449   4.078   1.365   0.388 -1.6277  0.5790 -0.5782
 8419SOL    MW433450   4.064   1.312   0.455  0.2891  0.5407 -0.4464
 8420SOL     OW33451   0.156   5.541   4.212  0.1717 -0.4357 -0.1654
 8420SOL    HW233452   0.247   5.571   4.203 -0.0490  0.6516  0.9671
 8420SOL    HW333453   0.105   5.621   4.224 -0.8388 -1.0892  0.0521
 8420SOL    MW433454   0.161   5.555   4.212 -0.2545  0.5441  0.4830
 8421SOL     OW33455   4.275   0.382   2.670  0.0699  0.1440 -0.4819
 8421SOL    HW233456   4.332   0.437   2.724 -0.8504  2.4711 -1.7565
 8421SOL    HW333457   4.309   0.391   2.581  0.2450 -1.8832 -0.6784
 8421SOL    MW433458   4.287   0.390   2.665  0.0037 -0.5935 -0.2399
 8422SOL     OW33459   0.376   5.714   1.581 -0.2851  0.2503 -0.1044
 8422SOL    HW233460   0.374   5.731   1.675 -0.2876 -0.4051  0.0235
 8422SOL    HW333461   0.417   5.792   1.543 -0.1921  0.4763  0.4502
 8422SOL    MW433462   0.381   5.726   1.589 -0.6320  0.0354  0.1384
 8423SOL     OW33463   1.876   4.256   4.819  0.1453  0.0647  0.3989
 8423SOL    HW233464   1.946   4.313   4.851 -0.0626  0.6112 -0.0986
 8423SOL    HW333465   1.810   4.317   4.785 -0.9625 -0.4066  1.6278
 8423SOL    MW433466   1.876   4.272   4.819 -0.6023 -0.2424 -0.0016
 8424SOL     OW33467   3.584   0.700   0.025 -0.2481  0.2039  0.2235
 8424SOL    HW233468   3.538   0.748  -0.043 -2.5981 -0.1830  1.4584
 8424SOL    HW333469   3.612   0.767   0.087  0.8177  0.4192 -0.4483
 8424SOL    MW433470   3.582   0.715   0.024 -0.0134 -0.5228 -0.1138
 8425SOL     OW33471   2.215   6.432   3.852 -0.1615  0.5331 -0.3283
 8425SOL    HW233472   2.138   6.465   3.898 -0.1483 -0.0346  0.1128
 8425SOL    HW333473   2.184   6.414   3.763 -1.2061 -2.0873  0.4996
 8425SOL    MW433474   2.201   6.434   3.846  0.2213 -0.3181 -0.4412
 8426SOL     OW33475   3.519   1.618   3.745  0.6234 -0.4226  0.1244
 8426SOL    HW233476   3.549   1.531   3.771  1.2640  0.2042  1.6020
 8426SOL    HW333477   3.443   1.635   3.802  1.0194  0.3109  0.4514
 8426SOL    MW433478   3.513   1.609   3.756 -0.1450  0.3557 -0.1084
 8427SOL     OW33479   6.000   5.697   2.089 -0.0128  0.3609 -0.5904
 8427SOL    HW233480   6.026   5.780   2.050 -0.3877  0.3447 -0.8834
 8427SOL    HW333481   6.046   5.631   2.038  0.7125  0.4107 -0.0103
 8427SOL    MW433482   6.010   5.699   2.077 -0.0566 -0.6305  0.2477
 8428SOL     OW33483   0.579   3.578   2.634 -0.6840 -0.1736 -0.4066
 8428SOL    HW233484   0.540   3.666   2.627  1.1601  0.5654 -2.1224
 8428SOL    HW333485   0.655   3.590   2.690  0.1888 -0.4340 -1.5116
 8428SOL    MW433486   0.584   3.591   2.641  0.8819 -0.4241 -0.7767
 8429SOL     OW33487   3.889   3.602   6.394  0.2936 -0.5587  0.0014
 8429SOL    HW233488   3.942   3.671   6.355  0.5431  0.7981  2.5300
 8429SOL    HW333489   3.928   3.521   6.363  1.5286  0.4212 -1.1184
 8429SOL    MW433490   3.901   3.601   6.385  0.2987  0.1555  0.2215
 8430SOL     OW33491   0.912   6.047   1.587 -0.1203  0.6069 -0.9493
 8430SOL    HW233492   0.937   5.965   1.630  0.8192  1.1241 -0.4703
 8430SOL    HW333493   0.918   6.027   1.494 -0.8023 -0.1275 -0.8457
 8430SOL    MW433494   0.916   6.033   1.581  0.0863  0.1324 -0.0330
 8431SOL     OW33495   3.592   5.113   2.581 -0.3781 -0.0187 -0.0071
 8431SOL    HW233496   3.617   5.086   2.493  0.3893 -0.7767  0.4211
 8431SOL    HW333497   3.527   5.049   2.609  0.4023 -0.6205  0.4810
 8431SOL    MW433498   3.587   5.101   2.573 -0.3338 -0.2348  0.0223
 8432SOL     OW33499   2.963   2.309   4.377  0.0414 -0.3749 -0.0949
 8432SOL    HW233500   2.993   2.399   4.362 -1.2150  0.7347  3.0923
 8432SOL    HW333501   2.883   2.302   4.326 -0.5569  0.8252  0.6326
 8432SOL    MW433502   2.956   2.320   4.368  0.1771  0.1550 -0.4299
 8433SOL     OW33503   5.524   5.288   2.614 -0.1049  0.0242 -0.4535
 8433SOL    HW233504   5.546   5.240   2.534 -0.5521 -0.6092 -0.2117
 8433SOL    HW333505   5.449   5.343   2.590  0.5487  0.7807 -0.7906
 8433SOL    MW433506   5.517   5.289   2.601 -0.2354  0.1054  0.4568
 8434SOL     OW33507   5.402   2.343   3.171 -0.2684  0.0163 -0.2998
 8434SOL    HW233508   5.411   2.434   3.142 -0.9200 -0.4138 -1.9340
 8434SOL    HW333509   5.491   2.317   3.195  0.1919  0.6248 -1.2849
 8434SOL    MW433510   5.415   2.352   3.170 -0.3362 -0.6575  0.3107
 8435SOL     OW33511   0.239   0.600   5.812  0.4473  0.2407 -0.4513
 8435SOL    HW233512   0.240   0.695   5.821 -0.1185  0.0736  2.6139
 8435SOL    HW333513   0.236   0.568   5.902 -0.7247 -2.6544 -1.4002
 8435SOL    MW433514   0.239   0.608   5.825 -0.5571 -0.0468 -0.0359
 8436SOL     OW33515   1.196   3.751   5.576 -0.0762 -0.6433 -0.3165
 8436SOL    HW233516   1.194   3.674   5.634  1.0448 -0.2694  0.2514
 8436SOL    HW333517   1.289   3.763   5.557 -0.1744  0.9018  0.0574
 8436SOL    MW433518   1.208   3.742   5.581  0.2679  0.1832 -0.1132
 8437SOL     OW33519   4.737   4.415   4.903  0.2193 -0.4360  0.0829
 8437SOL    HW233520   4.768   4.350   4.839 -0.0128  0.0544 -0.5462
 8437SOL    HW333521   4.661   4.455   4.860 -0.7830 -1.0349  1.2486
 8437SOL    MW433522   4.731   4.411   4.889 -0.4487 -0.1043  0.3920
 8438SOL     OW33523   4.609   4.646   1.616  0.3334 -0.3346 -0.2113
 8438SOL    HW233524   4.612   4.736   1.650  0.2385 -0.8253  1.1595
 8438SOL    HW333525   4.689   4.636   1.566  0.9391  0.1402  0.6384
 8438SOL    MW433526   4.620   4.657   1.614  0.3027  0.3092  0.0332
 8439SOL     OW33527   1.353   6.095   3.478 -0.4687 -0.6521 -0.3847
 8439SOL    HW233528   1.440   6.068   3.506 -1.1945 -1.6200  1.0455
 8439SOL    HW333529   1.339   6.049   3.395  0.0099 -1.2649 -0.1335
 8439SOL    MW433530   1.363   6.085   3.471  0.2552 -0.1263  0.0268
 8440SOL     OW33531   0.403   5.734   1.873 -0.6583  0.1903 -0.1684
 8440SOL    HW233532   0.422   5.825   1.896  1.6757 -0.1956 -0.2980
 8440SOL    HW333533   0.366   5.697   1.953 -1.1463  1.1221  0.0501
 8440SOL    MW433534   0.401   5.741   1.887 -0.2628  0.2527 -0.0900
 8441SOL     OW33535   2.506   2.766   1.235  0.0562  0.5643  0.6083
 8441SOL    HW233536   2.541   2.700   1.294  1.3298  0.0865 -0.6359
 8441SOL    HW333537   2.423   2.730   1.204 -0.0923  0.3409  1.2580
 8441SOL    MW433538   2.499   2.753   1.238 -0.1720  0.3657 -0.4210
 8442SOL     OW33539   4.070   0.299   1.126  0.5764 -0.2779 -0.4101
 8442SOL    HW233540   4.156   0.274   1.161 -0.1251 -1.0034  0.8599
 8442SOL    HW333541   4.027   0.343   1.200 -1.0784 -2.1581 -0.1873
 8442SOL    MW433542   4.076   0.302   1.141 -0.4125 -0.4591  0.1727
 8443SOL     OW33543   6.077   0.925   0.216  0.4784 -0.3513  0.3636
 8443SOL    HW233544   6.128   0.982   0.273 -0.3641  0.8526 -0.0418
 8443SOL    HW333545   6.023   0.873   0.275  2.2876 -1.8231  0.8100
 8443SOL    MW433546   6.076   0.926   0.231 -0.5161 -0.1389 -0.5190
 8444SOL     OW33547   2.203   5.806   5.517  0.1908  0.1691 -0.7830
 8444SOL    HW233548   2.266   5.854   5.571 -1.8619  1.6735  0.4534
 8444SOL    HW333549   2.154   5.753   5.580 -0.6004 -0.0141 -1.5380
 8444SOL    MW433550   2.205   5.805   5.533  0.3162  0.3968  0.3013
 8445SOL     OW33551   4.603   0.192   4.681 -0.4278 -0.0086 -0.4234
 8445SOL    HW233552   4.581   0.272   4.729  0.6928 -0.2753  0.6145
 8445SOL    HW333553   4.683   0.214   4.633  0.8689 -0.9388  1.2033
 8445SOL    MW433554   4.611   0.205   4.681  0.2322 -0.1395 -0.0741
 8446SOL     OW33555   1.450   3.249   1.630 -0.1673 -0.4153 -0.0202
 8446SOL    HW233556   1.420   3.163   1.604 -2.5416  0.1362  0.6326
 8446SOL    HW333557   1.467   3.242   1.724  3.4371 -1.0868 -0.5780
 8446SOL    MW433558   1.448   3.237   1.639 -0.3359 -0.1928  0.2758
 8447SOL     OW33559   5.022   1.707   0.112  0.1011 -0.1018 -0.4470
 8447SOL    HW233560   5.055   1.630   0.064  0.3947  0.4259 -1.1179
 8447SOL    HW333561   5.101   1.752   0.141 -0.0570 -1.0398  1.6274
 8447SOL    MW433562   5.037   1.703   0.109  0.1231 -0.0520  0.5754
 8448SOL     OW33563   1.747   4.201   0.213 -0.1155 -0.2998 -0.3593
 8448SOL    HW233564   1.712   4.172   0.129 -1.5444 -1.3213  0.5458
 8448SOL    HW333565   1.765   4.294   0.201  0.2196 -0.5452 -1.9452
 8448SOL    MW433566   1.745   4.209   0.201 -0.1147  0.4402  0.8138
 8449SOL     OW33567   1.063   0.995   4.689  0.4717  0.2001  0.7420
 8449SOL    HW233568   1.154   1.018   4.666  0.7199 -0.1661  1.3443
 8449SOL    HW333569   1.010   1.054   4.636  1.0571  0.2128  0.1476
 8449SOL    MW433570   1.068   1.006   4.679  0.2807  0.7861 -0.4109
 8450SOL     OW33571   6.046   3.728   5.882  0.1003 -0.3881  0.6718
 8450SOL    HW233572   6.049   3.640   5.845 -0.1163 -0.3747  0.6226
 8450SOL    HW333573   6.007   3.782   5.813  3.0110  0.3708 -0.5474
 8450SOL    MW433574   6.041   3.723   5.868  0.1244 -0.1009  0.3468
 8451SOL     OW33575   1.420   6.313   4.854 -0.4362  0.2534  0.1486
 8451SOL    HW233576   1.426   6.273   4.941  2.3653 -0.2182 -0.1408
 8451SOL    HW333577   1.386   6.244   4.798  1.6215 -0.8933  0.1983
 8451SOL    MW433578   1.417   6.299   4.858 -0.3102 -0.4119  0.0014
 8452SOL     OW33579   3.467   6.075   4.459  0.4143 -0.6639 -0.0174
 8452SOL    HW233580   3.472   6.155   4.408  2.3836 -0.5836  0.2004
 8452SOL    HW333581   3.397   6.090   4.523 -1.5900 -0.4944 -2.1503
 8452SOL    MW433582   3.458   6.087   4.461 -0.1423  0.5177  0.0811
 8453SOL     OW33583   4.736   4.369   1.897  0.4349 -0.2551 -0.3525
 8453SOL    HW233584   4.682   4.320   1.958  1.7796 -0.9530  0.3204
 8453SOL    HW333585   4.720   4.461   1.918 -1.0884 -0.4113 -0.7339
 8453SOL    MW433586   4.727   4.375   1.907  0.0082 -0.0836  0.1058
 8454SOL     OW33587   2.276   2.498   6.338 -0.0991  0.2348  0.0692
 8454SOL    HW233588   2.229   2.414   6.346  0.5286  0.0503  2.4641
 8454SOL    HW333589   2.359   2.475   6.296  0.1846 -0.4229  0.9538
 8454SOL    MW433590   2.280   2.484   6.334  0.0351  0.2209  0.0802
 8455SOL     OW33591   5.266   6.177   6.253  0.0935  0.1092 -0.0667
 8455SOL    HW233592   5.283   6.246   6.318 -0.1736  1.0357 -0.9587
 8455SOL    HW333593   5.338   6.115   6.264  0.6512  0.8236  0.3674
 8455SOL    MW433594   5.277   6.178   6.263 -0.1080 -0.5751  0.3734
 8456SOL     OW33595   4.177   5.668   5.268  0.1859  0.2684  0.0116
 8456SOL    HW233596   4.100   5.699   5.317  0.4391 -0.8422  1.1782
 8456SOL    HW333597   4.143   5.597   5.213  0.3512 -0.2237  0.5286
 8456SOL    MW433598   4.162   5.662   5.267  0.3448  0.0874  0.7205
 8457SOL     OW33599   1.324   0.932   0.939  0.3373 -0.2210  0.1581
 8457SOL    HW233600   1.238   0.918   0.980  0.6509  0.4456  1.0898
 8457SOL    HW333601   1.313   1.009   0.884  0.6780  0.7972  1.4400
 8457SOL    MW433602   1.311   0.940   0.937 -0.1379 -0.1109  0.0758
 8458SOL     OW33603   0.925   2.295   3.539 -0.2849  1.0276 -0.2507
 8458SOL    HW233604   0.892   2.226   3.482 -0.8526  1.7292 -0.7873
 8458SOL    HW333605   0.949   2.249   3.620  1.4701 -0.1465 -1.3568
 8458SOL    MW433606   0.924   2.280   3.542 -0.1474  0.0143  0.3917
 8459SOL     OW33607   1.479   4.533   4.899 -0.3649  0.3148 -0.7525
 8459SOL    HW233608   1.549   4.529   4.834 -1.4389 -2.2446 -1.8743
 8459SOL    HW333609   1.401   4.559   4.850 -0.7404  0.6452 -0.0105
 8459SOL    MW433610   1.478   4.536   4.884 -0.1980 -0.2650  0.1363
 8460SOL     OW33611   5.934   6.412   1.268  1.0372  0.2479 -0.5120
 8460SOL    HW233612   5.860   6.358   1.242  1.0742 -0.2368  0.3411
 8460SOL    HW333613   5.975   6.438   1.186  1.0869 -1.1360 -0.9553
 8460SOL    MW433614   5.930   6.408   1.254 -1.0668 -0.7355 -0.0247
 8461SOL     OW33615   1.478   4.361   2.176 -0.3141 -0.0616 -0.0491
 8461SOL    HW233616   1.388   4.360   2.208 -1.3099  0.0537 -2.5727
 8461SOL    HW333617   1.520   4.433   2.224 -1.0914 -1.0335  2.2103
 8461SOL    MW433618   1.472   4.371   2.186  0.7132  0.5959  0.1567
 8462SOL     OW33619   6.006   2.377   0.176 -0.1111 -0.0617  0.2367
 8462SOL    HW233620   5.928   2.355   0.126  0.2452  1.5155 -1.0700
 8462SOL    HW333621   6.069   2.308   0.155  0.2282  0.8462 -2.0194
 8462SOL    MW433622   6.004   2.365   0.167  0.0649 -0.1538  0.4130
 8463SOL     OW33623   5.112   1.955   3.669  0.0327 -0.0038  0.1870
 8463SOL    HW233624   5.108   1.938   3.763  0.9387  0.0061  0.2348
 8463SOL    HW333625   5.153   1.877   3.632 -0.8993 -0.2750 -0.2816
 8463SOL    MW433626   5.117   1.943   3.676  0.3057 -0.2891  0.4727
 8464SOL     OW33627   1.962   1.284   2.024 -0.4531 -0.2035 -0.0413
 8464SOL    HW233628   2.028   1.313   1.962 -1.2485  1.5858 -0.1135
 8464SOL    HW333629   1.879   1.289   1.976 -0.9447  0.0957  0.8090
 8464SOL    MW433630   1.960   1.288   2.010  0.7072 -0.5180  0.1722
 8465SOL     OW33631   6.305   2.133   2.525  0.3580 -0.2276 -0.1046
 8465SOL    HW233632   6.363   2.204   2.552  0.5753 -0.5794  0.3691
 8465SOL    HW333633   6.237   2.129   2.592 -0.1284  0.0771 -0.5745
 8465SOL    MW433634   6.304   2.142   2.537  0.0375  0.4036 -0.3204
 8466SOL     OW33635   0.185   6.017   0.104 -0.2502  0.3494  0.4193
 8466SOL    HW233636   0.115   5.965   0.144  0.0102 -0.2297  0.1475
 8466SOL    HW333637   0.200   6.089   0.164 -1.5727  0.8885  0.1354
 8466SOL    MW433638   0.178   6.019   0.117 -0.1547 -0.0894  0.0605
 8467SOL     OW33639   1.846   0.367   4.852  0.0239 -0.2427  0.0736
 8467SOL    HW233640   1.883   0.445   4.894  1.1447 -0.5432 -0.3246
 8467SOL    HW333641   1.829   0.307   4.925  0.4681 -0.1626  0.2449
 8467SOL    MW433642   1.848   0.370   4.867 -0.3128 -0.1118  0.4131
 8468SOL     OW33643   0.872   2.984   2.496  0.0491  0.0902 -0.2521
 8468SOL    HW233644   0.893   2.942   2.413 -0.0463 -0.0484 -0.2077
 8468SOL    HW333645   0.785   2.951   2.518  0.4083 -0.5092  0.3045
 8468SOL    MW433646   0.863   2.974   2.488  0.2486 -0.0312 -0.4104
 8469SOL     OW33647   3.241   3.338   3.399  0.5694  0.1538  0.1728
 8469SOL    HW233648   3.167   3.397   3.403  0.5575  0.2457 -0.9663
 8469SOL    HW333649   3.211   3.265   3.344  0.9794 -0.3197  0.5618
 8469SOL    MW433650   3.227   3.336   3.392 -0.6653  0.6008  0.0771
 8470SOL     OW33651   6.011   2.800   3.032  0.5086 -0.0644  0.0369
 8470SOL    HW233652   6.045   2.711   3.031 -0.0756 -0.2938 -1.2187
 8470SOL    HW333653   5.920   2.791   3.003 -0.1963  0.7133  1.8239
 8470SOL    MW433654   6.003   2.787   3.028  0.4187  0.8822  0.4581
 8471SOL     OW33655   5.509   4.435   4.888 -0.2198  0.2247 -0.3769
 8471SOL    HW233656   5.554   4.415   4.969  0.8531 -0.3030 -1.0792
 8471SOL    HW333657   5.455   4.511   4.908  0.8249  0.7427  0.5558
 8471SOL    MW433658   5.508   4.443   4.901 -0.2215 -0.5227  0.1580
 8472SOL     OW33659   2.687   6.343   3.395 -0.4134  0.2285  0.0744
 8472SOL    HW233660   2.639   6.261   3.382 -0.4997  0.5480 -1.9501
 8472SOL    HW333661   2.776   6.316   3.416 -0.1176 -0.4406 -1.8762
 8472SOL    MW433662   2.692   6.329   3.396 -0.1266  0.3725  0.1223
 8473SOL     OW33663   2.233   5.210   4.490 -0.2591 -0.4058  0.5373
 8473SOL    HW233664   2.273   5.197   4.404 -0.0725  0.3739  0.4931
 8473SOL    HW333665   2.306   5.204   4.551 -0.2661 -0.1804  0.5678
 8473SOL    MW433666   2.248   5.208   4.486  0.1066  0.2980 -0.3969
 8474SOL     OW33667   2.706   0.911   1.508 -0.0249 -0.1895  0.4901
 8474SOL    HW233668   2.778   0.856   1.537  0.9835  1.3174  0.9186
 8474SOL    HW333669   2.701   0.981   1.572 -1.3230  0.2146 -0.0118
 8474SOL    MW433670   2.715   0.913   1.520  0.2878 -0.1216  0.5899
 8475SOL     OW33671   5.353   3.476   0.237 -0.3486 -0.5362  0.3110
 8475SOL    HW233672   5.410   3.451   0.164 -1.4492 -1.5467 -0.2560
 8475SOL    HW333673   5.333   3.393   0.280 -2.2163 -0.3804 -0.1595
 8475SOL    MW433674   5.358   3.461   0.233  0.2299  0.5668 -0.3134
 8476SOL     OW33675   5.487   4.206   2.801 -0.0559 -0.4181 -0.0184
 8476SOL    HW233676   5.578   4.234   2.813 -0.3925  1.3501 -1.1761
 8476SOL    HW333677   5.483   4.179   2.709 -0.5970 -0.9520  0.1615
 8476SOL    MW433678   5.499   4.206   2.790  0.1318  0.4449 -0.0799
 8477SOL     OW33679   4.337   5.409   4.865  0.7440  0.0101 -0.3467
 8477SOL    HW233680   4.385   5.447   4.792 -0.7013 -0.3621 -1.5578
 8477SOL    HW333681   4.299   5.328   4.830  2.6361 -1.9575  1.7695
 8477SOL    MW433682   4.338   5.403   4.851  0.1494 -0.1190  0.6023
 8478SOL     OW33683   2.944   1.360   0.825  0.1565 -0.3715  0.2654
 8478SOL    HW233684   2.908   1.298   0.762 -2.0329  1.9468 -0.9813
 8478SOL    HW333685   3.017   1.401   0.779 -0.1441 -0.1172  0.0086
 8478SOL    MW433686   2.949   1.357   0.811  0.1771  0.2140  0.5501
 8479SOL     OW33687   3.024   0.868   2.914 -0.0045  0.6427  0.2422
 8479SOL    HW233688   3.066   0.938   2.964  2.6717 -1.3788  1.0579
 8479SOL    HW333689   3.091   0.839   2.852  0.4985 -3.5712  2.3889
 8479SOL    MW433690   3.038   0.873   2.912 -0.6380 -0.1502 -0.2183
 8480SOL     OW33691   4.653   2.803   4.327  0.2091  0.2188  0.2226
 8480SOL    HW233692   4.717   2.747   4.283  1.6909  1.6103  0.5194
 8480SOL    HW333693   4.591   2.742   4.368  0.4331 -1.1327 -1.3801
 8480SOL    MW433694   4.653   2.788   4.327 -0.9323 -0.1112  0.3215
 8481SOL     OW33695   1.573   4.628   0.995  0.5838  0.0429 -0.5224
 8481SOL    HW233696   1.577   4.636   0.900 -1.1600  0.7511 -0.5620
 8481SOL    HW333697   1.609   4.710   1.027  1.2234 -0.2183 -0.5519
 8481SOL    MW433698   1.578   4.640   0.987  0.1098  0.1252  0.0952
 8482SOL     OW33699   4.450   2.134   4.260 -0.2834  0.1477  0.2434
 8482SOL    HW233700   4.514   2.204   4.251  1.3391 -1.4028 -0.8699
 8482SOL    HW333701   4.435   2.127   4.354 -0.3922  1.8706  0.3832
 8482SOL    MW433702   4.456   2.142   4.271 -0.2437 -0.3147 -0.2204
 8483SOL     OW33703   4.822   4.334   1.105  0.0318 -0.4237 -0.0075
 8483SOL    HW233704   4.821   4.368   1.195 -2.3628 -2.0112  0.6808
 8483SOL    HW333705   4.760   4.390   1.058 -1.2107 -1.5453  0.2267
 8483SOL    MW433706   4.813   4.346   1.111 -0.5948 -0.5888  0.0387
 8484SOL     OW33707   4.158   3.559   3.620  0.0210 -0.2491 -0.2514
 8484SOL    HW233708   4.072   3.602   3.623  0.6857  1.1225 -0.0456
 8484SOL    HW333709   4.149   3.493   3.551 -1.0871  0.1236 -0.4939
 8484SOL    MW433710   4.146   3.556   3.611 -0.2232 -0.2600 -0.8017
 8485SOL     OW33711   1.800   0.934   2.451 -0.0587  0.2215  0.3326
 8485SOL    HW233712   1.784   0.957   2.542  1.7819 -0.5383  0.8848
 8485SOL    HW333713   1.813   0.840   2.451  0.1400  0.2341 -0.6875
 8485SOL    MW433714   1.800   0.925   2.463 -0.1589  0.0692  0.1174
 8486SOL     OW33715   0.775   1.632   4.972 -0.2268 -0.5791 -0.3598
 8486SOL    HW233716   0.768   1.698   4.903  2.2989  0.6846  0.4940
 8486SOL    HW333717   0.836   1.567   4.938  0.9068 -0.0357  0.5873
 8486SOL    MW433718   0.782   1.632   4.958 -0.5521 -0.0856  0.4473
 8487SOL     OW33719   1.874   2.409   6.059  0.3552  0.8621 -0.5637
 8487SOL    HW233720   1.847   2.496   6.030 -0.0833  0.7797 -0.4066
 8487SOL    HW333721   1.970   2.410   6.051  0.4252  1.6538  0.2595
 8487SOL    MW433722   1.883   2.421   6.054 -0.1771  0.3089 -0.4698
 8488SOL     OW33723   5.097   5.203   0.518  0.2230 -0.1210  0.0899
 8488SOL    HW233724   5.076   5.295   0.505 -1.0292 -0.4702 -0.5636
 8488SOL    HW333725   5.174   5.188   0.462 -0.1890  0.2995 -0.6074
 8488SOL    MW433726   5.105   5.213   0.509 -0.0203  0.2756  0.1743
 8489SOL     OW33727   4.705   4.365   3.070  1.3322  0.7966 -0.4579
 8489SOL    HW233728   4.646   4.385   2.997  0.0387 -0.8690  0.0749
 8489SOL    HW333729   4.702   4.443   3.126 -0.2074  0.8314 -0.5546
 8489SOL    MW433730   4.697   4.378   3.067 -0.0176  0.1407 -0.1839
 8490SOL     OW33731   0.373   2.460   3.853  0.3170 -0.2396  0.9906
 8490SOL    HW233732   0.297   2.421   3.810 -0.1434 -0.2894  1.8226
 8490SOL    HW333733   0.337   2.507   3.928  1.0064  0.6256  0.7951
 8490SOL    MW433734   0.358   2.461   3.857  0.7407 -0.3980 -0.3256
 8491SOL     OW33735   3.920   1.057   2.056  0.2045 -0.2134 -0.3259
 8491SOL    HW233736   3.844   1.008   2.085 -0.3643  1.4639  1.2284
 8491SOL    HW333737   3.971   1.072   2.136  1.2418  0.2351 -1.0425
 8491SOL    MW433738   3.917   1.053   2.070  0.3270 -0.3380  0.1679
 8492SOL     OW33739   1.731   3.101   5.219  0.3810 -0.1871 -0.0380
 8492SOL    HW233740   1.725   3.106   5.315  0.8297 -0.5359  0.0096
 8492SOL    HW333741   1.792   3.171   5.196 -0.5835  0.6340 -0.1712
 8492SOL    MW433742   1.738   3.111   5.229  0.4235 -0.1911 -0.3648
 8493SOL     OW33743   1.757   1.126   6.168  0.4020  0.4418  0.3220
 8493SOL    HW233744   1.778   1.195   6.104  1.8053  0.9488  1.2711
 8493SOL    HW333745   1.828   1.131   6.232  1.0845 -2.5474 -0.0808
 8493SOL    MW433746   1.769   1.136   6.168  0.2095  0.2769 -0.5042
 8494SOL     OW33747   3.994   1.014   1.037 -0.1859  0.6387 -0.3883
 8494SOL    HW233748   4.031   1.084   0.983 -0.1126  0.8902 -0.0202
 8494SOL    HW333749   3.928   1.058   1.091  1.4723  0.9221  1.5405
 8494SOL    MW433750   3.990   1.029   1.037 -0.0365  0.0866 -0.2950
 8495SOL     OW33751   1.590   5.704   5.310 -0.2616 -0.1931 -0.2221
 8495SOL    HW233752   1.521   5.638   5.311 -0.7995  0.1380 -3.5989
 8495SOL    HW333753   1.555   5.774   5.254  1.4467  1.6245  0.8662
 8495SOL    MW433754   1.576   5.705   5.303  0.2052 -0.0991  0.7265
 8496SOL     OW33755   3.160   4.747   2.658 -0.1091  0.3615  0.1410
 8496SOL    HW233756   3.080   4.798   2.641 -0.3498 -0.7069 -2.3198
 8496SOL    HW333757   3.226   4.787   2.601 -0.1195 -1.5496 -1.2915
 8496SOL    MW433758   3.158   4.759   2.648  0.0056 -0.0577  0.2466
 8497SOL     OW33759   3.593   0.526   2.026  0.2920 -0.1566  0.2864
 8497SOL    HW233760   3.589   0.548   2.119  1.2145  1.2160  0.0211
 8497SOL    HW333761   3.677   0.560   1.996  0.4700 -1.4717 -0.8488
 8497SOL    MW433762   3.603   0.533   2.034  0.3703 -0.1545 -0.1986
 8498SOL     OW33763   0.801   3.428   4.538 -0.1191 -0.5138 -0.3322
 8498SOL    HW233764   0.737   3.458   4.603  0.7442 -1.8593  1.2006
 8498SOL    HW333765   0.874   3.396   4.590 -0.2412 -3.6171 -1.8761
 8498SOL    MW433766   0.802   3.428   4.554 -0.0526 -0.0893  0.1050
 8499SOL     OW33767   0.093   4.927   0.462  0.1230  0.0891  0.0906
 8499SOL    HW233768   0.095   5.001   0.401 -0.4508  1.2762  1.4518
 8499SOL    HW333769   0.007   4.932   0.502  0.7411 -0.2110  1.5153
 8499SOL    MW433770   0.082   4.937   0.459 -0.8062 -0.1298 -0.2149
 8500SOL     OW33771   6.333   2.131   3.529  0.0352  0.0541  0.0560
 8500SOL    HW233772   6.390   2.083   3.469  0.7653 -0.2349  0.9561
 8500SOL    HW333773   6.354   2.095   3.615 -2.6268 -1.1928  0.2745
 8500SOL    MW433774   6.343   2.120   3.533 -0.3310  0.0834 -0.3012
 8501SOL     OW33775   5.732   4.668   5.131  0.2692 -0.2121  0.2402
 8501SOL    HW233776   5.759   4.612   5.058  0.5332 -0.2748  0.3815
 8501SOL    HW333777   5.730   4.609   5.206  1.5025  0.1419  0.5862
 8501SOL    MW433778   5.736   4.653   5.131 -0.0634  0.3637 -0.6065
 8502SOL     OW33779   5.079   4.811   3.058 -0.9486  0.1108 -0.4577
 8502SOL    HW233780   5.133   4.800   3.136  0.6924  0.4992 -1.5021
 8502SOL    HW333781   5.051   4.903   3.062 -1.2384  0.0102 -0.1068
 8502SOL    MW433782   5.082   4.822   3.069 -0.1523  0.1588 -0.1951
 8503SOL     OW33783   5.481   1.945   3.858 -0.0015  0.8865 -0.1083
 8503SOL    HW233784   5.576   1.930   3.858  0.0734  1.3293  0.9564
 8503SOL    HW333785   5.444   1.857   3.857  0.4339  0.6722  1.0291
 8503SOL    MW433786   5.489   1.931   3.858  0.4570  0.1499  0.3462
 8504SOL     OW33787   4.209   2.612   3.634  0.3253 -0.4743  0.0917
 8504SOL    HW233788   4.126   2.659   3.627  0.0006 -1.1789 -1.0675
 8504SOL    HW333789   4.216   2.564   3.552  1.6928 -0.7475  0.3507
 8504SOL    MW433790   4.199   2.612   3.622  0.4160 -0.2378  0.2964
 8505SOL     OW33791   3.492   4.118   1.892 -0.5600 -0.0129  0.2675
 8505SOL    HW233792   3.535   4.096   1.809 -0.5325 -2.0292  0.7536
 8505SOL    HW333793   3.560   4.164   1.942  0.0387 -0.4203 -0.1428
 8505SOL    MW433794   3.507   4.121   1.888  0.6230  0.0939  0.4643
 8506SOL     OW33795   3.569   3.074   1.215 -0.0742 -0.1021  0.2057
 8506SOL    HW233796   3.588   2.998   1.271 -0.1769 -0.3539 -0.0981
 8506SOL    HW333797   3.656   3.107   1.190 -0.0274 -0.2390  0.1829
 8506SOL    MW433798   3.583   3.068   1.219  0.4400  0.3690  0.2315
 8507SOL     OW33799   3.497   4.390   3.425 -0.4667  0.2269 -0.1023
 8507SOL    HW233800   3.467   4.303   3.448 -0.1829 -0.0777 -0.8487
 8507SOL    HW333801   3.581   4.375   3.380 -0.8746  0.8083 -1.0773
 8507SOL    MW433802   3.504   4.377   3.422 -0.4100 -0.0599 -0.6678
 8508SOL     OW33803   5.930   3.762   6.146  0.0944 -0.2938  0.3552
 8508SOL    HW233804   5.835   3.757   6.132  0.0819 -0.8066  0.6087
 8508SOL    HW333805   5.967   3.752   6.058 -0.1117  1.2943  0.0481
 8508SOL    MW433806   5.922   3.760   6.132  0.2253  0.4692  0.1026
 8509SOL     OW33807   5.578   3.848   0.601  0.1769  0.2521  0.1744
 8509SOL    HW233808   5.503   3.850   0.661  0.0999  1.8254  0.0697
 8509SOL    HW333809   5.643   3.905   0.642  0.4061  0.7525 -0.8657
 8509SOL    MW433810   5.576   3.856   0.614 -0.3870 -0.3863 -0.3627
 8510SOL     OW33811   2.619   0.885   0.279 -0.5733 -0.3528 -0.1651
 8510SOL    HW233812   2.584   0.966   0.316 -0.4882 -0.2714 -0.2596
 8510SOL    HW333813   2.550   0.820   0.291 -1.5911  0.2823 -2.1783
 8510SOL    MW433814   2.606   0.887   0.285  0.5551 -0.4731  0.5703
 8511SOL     OW33815   4.697   0.506   3.481 -0.2831  0.8776  0.2398
 8511SOL    HW233816   4.675   0.480   3.391 -0.8063  1.2984  0.2390
 8511SOL    HW333817   4.778   0.557   3.473  2.2368 -2.7137  0.5027
 8511SOL    MW433818   4.705   0.509   3.468  1.0084  0.4516 -0.0456
 8512SOL     OW33819   3.496   3.151   1.518  0.1525 -0.7107  0.2013
 8512SOL    HW233820   3.507   3.199   1.436 -1.2121 -1.0042 -0.1886
 8512SOL    HW333821   3.521   3.214   1.586  1.2249 -0.4414 -0.4204
 8512SOL    MW433822   3.501   3.166   1.516  0.3004 -0.1171 -0.4443
 8513SOL     OW33823   3.346   3.637   3.713 -0.2427  0.1258 -0.0392
 8513SOL    HW233824   3.308   3.666   3.796 -0.8525 -0.8869  0.0575
 8513SOL    HW333825   3.303   3.692   3.647  0.3701  1.0530  0.3098
 8513SOL    MW433826   3.335   3.648   3.715 -0.3219  0.7568 -0.2360
 8514SOL     OW33827   4.218   4.906   1.472  0.4085 -0.5092 -0.6295
 8514SOL    HW233828   4.226   4.813   1.493 -0.2548 -0.2872  0.7936
 8514SOL    HW333829   4.135   4.932   1.513  1.0354  0.9084 -0.1819
 8514SOL    MW433830   4.208   4.897   1.480  0.4797  0.2067 -0.1229
 8515SOL     OW33831   2.128   0.256   2.585  0.2395  0.0971  0.1160
 8515SOL    HW233832   2.160   0.345   2.569 -1.5210  0.5966 -0.8833
 8515SOL    HW333833   2.074   0.235   2.509 -1.4077 -0.8578  1.4707
 8515SOL    MW433834   2.125   0.265   2.573 -0.7023 -0.1819 -0.0081
 8516SOL     OW33835   3.212   5.127   5.865 -0.8530  0.0383 -0.5489
 8516SOL    HW233836   3.226   5.072   5.942  1.9054  1.3998  0.0468
 8516SOL    HW333837   3.137   5.181   5.887 -0.4817 -0.0101  0.9514
 8516SOL    MW433838   3.204   5.127   5.878 -0.5246  0.3610 -0.1281
 8517SOL     OW33839   0.356   1.214   1.579  0.4355  0.0020 -0.3333
 8517SOL    HW233840   0.433   1.211   1.522  0.0116 -0.4939 -0.8984
 8517SOL    HW333841   0.287   1.172   1.528 -0.0269 -0.2141  0.4541
 8517SOL    MW433842   0.357   1.208   1.565  0.3967 -0.0312  0.1096
 8518SOL     OW33843   2.758   3.027   5.934 -0.3500 -0.2928 -0.1530
 8518SOL    HW233844   2.715   2.943   5.955  0.4154 -0.7583 -0.4130
 8518SOL    HW333845   2.820   3.005   5.865 -0.2946  0.5424 -0.3731
 8518SOL    MW433846   2.760   3.013   5.928 -0.4148 -0.6109 -0.0340
 8519SOL     OW33847   1.687   0.967   2.704  0.3545 -0.2439 -0.3189
 8519SOL    HW233848   1.747   0.999   2.772  2.7723 -0.9335 -2.0101
 8519SOL    HW333849   1.631   1.043   2.685 -0.2635  0.0320  2.2123
 8519SOL    MW433850   1.687   0.982   2.710  0.6213  0.2028  0.1048
 8520SOL     OW33851   0.464   5.468   1.474  1.0701 -0.0100 -0.4588
 8520SOL    HW233852   0.382   5.437   1.436  1.0294 -2.7472  1.5731
 8520SOL    HW333853   0.446   5.558   1.500 -1.7221 -0.8584  0.9428
 8520SOL    MW433854   0.451   5.476   1.472  0.2681 -0.9095 -0.4157
 8521SOL     OW33855   3.001   5.171   2.995  0.2783  0.2749  0.0849
 8521SOL    HW233856   2.975   5.079   2.996 -0.3767  0.4275  2.2578
 8521SOL    HW333857   3.078   5.176   3.052  2.1563  0.6642 -2.3233
 8521SOL    MW433858   3.008   5.160   3.002  0.5155  0.0134 -0.3945
 8522SOL     OW33859   2.707   5.742   5.932  0.2072 -0.0109  0.4120
 8522SOL    HW233860   2.665   5.794   6.001  0.9825  0.9988  0.1412
 8522SOL    HW333861   2.798   5.771   5.933 -0.0196  0.9802 -1.8806
 8522SOL    MW433862   2.713   5.753   5.941  0.6013  0.2020  0.5628
 8523SOL     OW33863   2.144   4.019   3.177  0.7741 -0.3906 -0.2102
 8523SOL    HW233864   2.144   4.113   3.160  0.1126 -0.6455 -1.8660
 8523SOL    HW333865   2.221   4.004   3.231  1.0252  1.0645 -0.1260
 8523SOL    MW433866   2.154   4.029   3.182  0.0770 -0.5032 -0.1576
 8524SOL     OW33867   3.310   1.921   3.302 -0.3671 -0.1225  0.3676
 8524SOL    HW233868   3.353   2.005   3.287  1.7578 -1.0426  0.9743
 8524SOL    HW333869   3.255   1.937   3.379  0.8390  0.4566  1.1428
 8524SOL    MW433870   3.308   1.934   3.310 -0.0796  0.0957 -0.0240
 8525SOL     OW33871   2.108   2.819   0.137  0.1134  0.1544  0.3098
 8525SOL    HW233872   2.098   2.913   0.121 -1.5575 -0.0455 -0.0336
 8525SOL    HW333873   2.192   2.811   0.182  0.0876  1.8616  0.7349
 8525SOL    MW433874   2.118   2.831   0.141 -0.2239 -0.4269  0.4085
 8526SOL     OW33875   2.629   3.991   3.322  0.4668  0.6237  1.0168
 8526SOL    HW233876   2.721   3.975   3.301  0.2227  0.1481  0.2680
 8526SOL    HW333877   2.626   3.995   3.417  1.2193  0.3677  1.0528
 8526SOL    MW433878   2.641   3.989   3.332  0.0353  0.4635 -0.4338
 8527SOL     OW33879   5.591   4.418   5.173 -0.4088  0.3244  0.8940
 8527SOL    HW233880   5.501   4.391   5.190 -0.0644 -0.1664  2.0574
 8527SOL    HW333881   5.632   4.421   5.260  0.2141  2.3079  0.5912
 8527SOL    MW433882   5.585   4.415   5.187  0.6867  0.1273  0.1813
 8528SOL     OW33883   0.420   3.996   5.669 -0.3314  0.3251 -0.2157
 8528SOL    HW233884   0.410   4.001   5.764  0.0549  2.6082 -0.2531
 8528SOL    HW333885   0.509   3.964   5.656 -0.3101  0.2216  0.1699
 8528SOL    MW433886   0.430   3.992   5.680 -0.6021 -0.4029 -0.1823
 8529SOL     OW33887   0.794   1.132   5.238 -0.2739 -0.5851 -0.1294
 8529SOL    HW233888   0.889   1.139   5.246 -0.2412  0.0364 -0.9647
 8529SOL    HW333889   0.771   1.196   5.171 -1.5618  0.9726  1.7102
 8529SOL    MW433890   0.804   1.141   5.230 -0.2930  0.4522 -0.4713
 8530SOL     OW33891   4.887   3.790   1.281  0.6182  0.7908  0.1697
 8530SOL    HW233892   4.809   3.843   1.298  1.2383  1.3047  1.6120
 8530SOL    HW333893   4.951   3.821   1.345  2.2398  0.8345 -1.4089
 8530SOL    MW433894   4.885   3.801   1.292 -0.2249 -0.2472  0.1141
 8531SOL     OW33895   0.836   2.058   3.411  0.2238 -0.0237  0.3238
 8531SOL    HW233896   0.742   2.056   3.427  0.5729  0.0933  2.7665
 8531SOL    HW333897   0.844   2.058   3.315 -2.1970 -1.2715  0.0448
 8531SOL    MW433898   0.825   2.058   3.400  0.5236  0.0983 -0.4636
 8532SOL     OW33899   0.781   4.163   1.983  0.8003  0.1326  0.0090
 8532SOL    HW233900   0.819   4.159   1.895  1.0504  1.8466 -0.0047
 8532SOL    HW333901   0.708   4.101   1.981  2.6185 -2.1392 -0.4230
 8532SOL    MW433902   0.776   4.154   1.971  0.1844 -0.5753  0.2175
 8533SOL     OW33903   1.630   1.076   2.310  0.1955 -0.0218  0.2997
 8533SOL    HW233904   1.562   1.081   2.377 -1.9869  2.1216 -1.8630
 8533SOL    HW333905   1.703   1.033   2.353 -2.2511 -1.8658  3.0007
 8533SOL    MW433906   1.630   1.071   2.324  0.1908 -0.2411  0.4357
 8534SOL     OW33907   2.797   3.387   2.698 -0.2338  0.5367  0.0200
 8534SOL    HW233908   2.750   3.426   2.772  0.0004 -1.4858  1.3155
 8534SOL    HW333909   2.740   3.317   2.667  0.3761  0.3360 -0.6865
 8534SOL    MW433910   2.784   3.383   2.704  0.1102  0.0882  0.2624
 8535SOL     OW33911   3.234   3.225   5.859 -0.3809 -0.5342  0.0787
 8535SOL    HW233912   3.275   3.142   5.837 -1.8963 -1.0271 -1.0743
 8535SOL    HW333913   3.183   3.247   5.781 -0.6637  1.0721  0.6809
 8535SOL    MW433914   3.233   3.217   5.846 -0.1405  0.6426 -0.0342
 8536SOL     OW33915   0.090   1.984   5.843  0.0463 -0.1279 -0.3853
 8536SOL    HW233916   0.056   1.982   5.933  2.1147 -1.4518  0.4273
 8536SOL    HW333917   0.026   1.933   5.793 -0.0088 -1.2744  0.7939
 8536SOL    MW433918   0.077   1.977   5.849  0.2211  0.0478  0.1169
 8537SOL     OW33919   3.286   3.701   4.293 -1.1025 -0.5182 -0.1248
 8537SOL    HW233920   3.317   3.624   4.342 -0.4385 -0.4673 -0.4558
 8537SOL    HW333921   3.246   3.757   4.360  0.5720 -0.0515  0.5377
 8537SOL    MW433922   3.285   3.698   4.309 -0.0683  0.1862 -0.2776
 8538SOL     OW33923   1.219   4.139   1.238  0.3572 -0.0591  0.0765
 8538SOL    HW233924   1.292   4.172   1.289  0.3105  1.4232 -0.7776
 8538SOL    HW333925   1.141   4.171   1.283  0.3130  1.0671 -0.7505
 8538SOL    MW433926   1.218   4.147   1.250  0.0131  0.0777  0.2314
 8539SOL     OW33927   0.891   3.385   1.548 -0.0835 -0.1157  0.3336
 8539SOL    HW233928   0.888   3.424   1.635  0.5786  0.2287  0.2070
 8539SOL    HW333929   0.882   3.459   1.488 -0.5294 -0.3513  0.1106
 8539SOL    MW433930   0.890   3.400   1.552  0.2118 -0.7513 -0.2257
 8540SOL     OW33931   0.669   0.074   0.232  0.1008 -0.5238 -0.1419
 8540SOL    HW233932   0.691   0.167   0.237  0.2954 -0.6373  2.0339
 8540SOL    HW333933   0.687   0.041   0.320  0.6398 -2.7695 -1.0388
 8540SOL    MW433934   0.674   0.082   0.245  0.0142  0.4186  0.0357
 8541SOL     OW33935   6.193   4.185   6.070 -0.0573 -0.0553 -0.4064
 8541SOL    HW233936   6.206   4.248   5.998 -1.1173 -0.9713 -1.4323
 8541SOL    HW333937   6.261   4.208   6.133  0.0454  1.6547 -1.0733
 8541SOL    MW433938   6.204   4.196   6.069 -0.3543  0.2268 -0.2308
 8542SOL     OW33939   3.133   5.007   3.437 -0.3300 -0.2421 -0.0322
 8542SOL    HW233940   3.041   4.989   3.416  0.7543 -4.5499 -2.2869
 8542SOL    HW333941   3.174   5.023   3.352  1.3950 -0.9796  0.6261
 8542SOL    MW433942   3.126   5.007   3.423 -0.2908  0.4377  0.0076
 8543SOL     OW33943   1.023   1.601   1.297  0.2548 -0.3960  0.1502
 8543SOL    HW233944   1.100   1.580   1.350 -0.6081 -0.7238  1.3198
 8543SOL    HW333945   0.952   1.608   1.360 -0.4256  1.3299 -0.7448
 8543SOL    MW433946   1.024   1.599   1.312  0.2813 -0.1639 -0.3962
 8544SOL     OW33947   2.163   4.823   3.511 -0.4549 -0.1460 -0.4586
 8544SOL    HW233948   2.188   4.897   3.455  0.6225 -0.7807 -0.8488
 8544SOL    HW333949   2.080   4.793   3.474 -0.4797  0.3427 -0.8161
 8544SOL    MW433950   2.156   4.829   3.499  0.3352 -0.0003 -0.0216
 8545SOL     OW33951   0.314   2.888   2.207  0.5598  0.2284 -0.0819
 8545SOL    HW233952   0.225   2.902   2.240  1.4974  0.0946  2.8341
 8545SOL    HW333953   0.311   2.804   2.162 -1.1054  1.0171 -1.5505
 8545SOL    MW433954   0.302   2.879   2.205 -0.1241 -0.2411  0.5825
 8546SOL     OW33955   2.243   5.870   1.311 -0.2718  0.2526 -0.0702
 8546SOL    HW233956   2.272   5.844   1.223  1.5502  3.1780 -0.4784
 8546SOL    HW333957   2.149   5.881   1.303 -0.3023 -0.7233 -1.3046
 8546SOL    MW433958   2.235   5.868   1.298  0.2991 -0.2629 -0.4269
 8547SOL     OW33959   3.004   0.527   3.084 -0.2642 -0.1030 -0.0276
 8547SOL    HW233960   2.953   0.607   3.082 -0.7849 -0.4443 -0.9064
 8547SOL    HW333961   3.036   0.521   3.174  0.0888  1.2660 -0.0408
 8547SOL    MW433962   3.002   0.537   3.096  0.4901 -0.0089  0.3726
 8548SOL     OW33963   2.440   2.468   3.625 -0.3366 -0.3638 -0.2142
 8548SOL    HW233964   2.367   2.420   3.586  1.2943 -4.8920  1.5400
 8548SOL    HW333965   2.418   2.474   3.718  0.1857  1.0808 -0.1630
 8548SOL    MW433966   2.428   2.462   3.632 -0.2269 -0.3031 -0.0019
 8549SOL     OW33967   2.509   6.082   4.881  0.1489  0.5576  0.9397
 8549SOL    HW233968   2.559   6.128   4.812  0.2404 -2.0758 -0.9108
 8549SOL    HW333969   2.571   6.073   4.953  1.9952 -1.2664 -0.7284
 8549SOL    MW433970   2.524   6.087   4.881  0.4013  0.3156 -0.1643
 8550SOL     OW33971   0.709   4.804   5.342 -0.4720  0.1079  0.1653
 8550SOL    HW233972   0.681   4.737   5.279  0.9415 -0.0627 -0.3203
 8550SOL    HW333973   0.706   4.760   5.427 -3.7850  0.7548  0.4872
 8550SOL    MW433974   0.705   4.789   5.345  0.3231  0.3283  0.3651
 8551SOL     OW33975   1.918   3.252   3.021 -0.4963  0.5033 -0.5834
 8551SOL    HW233976   1.945   3.314   2.954 -1.6789  0.7237 -0.8767
 8551SOL    HW333977   1.842   3.292   3.062 -0.8329 -0.4106 -0.2765
 8551SOL    MW433978   1.912   3.265   3.018  0.1508 -0.5384 -0.3983
 8552SOL     OW33979   6.106   5.418   5.504 -0.5675  0.4584 -0.0918
 8552SOL    HW233980   6.147   5.383   5.426  0.7478  0.7327  0.4454
 8552SOL    HW333981   6.177   5.465   5.549 -1.7802  2.0528  0.2297
 8552SOL    MW433982   6.121   5.420   5.500  0.2038  0.8366  0.1835
 8553SOL     OW33983   2.629   3.929   2.464 -0.3859 -0.1591 -0.2030
 8553SOL    HW233984   2.713   3.900   2.497  0.6774  1.7958 -1.0198
 8553SOL    HW333985   2.587   3.971   2.539  0.1913  0.5195 -0.2509
 8553SOL    MW433986   2.634   3.931   2.478 -0.2785  0.0345 -0.4460
 8554SOL     OW33987   3.237   2.518   6.303  0.0265  0.1017  0.1719
 8554SOL    HW233988   3.251   2.575   6.228 -0.3242  0.9864  0.7660
 8554SOL    HW333989   3.268   2.432   6.274 -0.7088  0.2784 -1.2084
 8554SOL    MW433990   3.243   2.514   6.290 -0.1233  0.4569  0.2397
 8555SOL     OW33991   3.276   3.407   0.128 -0.2437  0.5267 -0.1502
 8555SOL    HW233992   3.220   3.355   0.071  0.3316 -1.3247  0.9234
 8555SOL    HW333993   3.359   3.415   0.079  0.0203 -0.4812  0.1140
 8555SOL    MW433994   3.280   3.401   0.114  0.5523 -0.5165  0.5349
 8556SOL     OW33995   5.671   2.781   0.933  0.1343 -0.8186 -0.1146
 8556SOL    HW233996   5.723   2.743   0.862  0.5030 -2.0024  0.7502
 8556SOL    HW333997   5.710   2.744   1.013  0.1438  0.9766  0.7503
 8556SOL    MW433998   5.683   2.771   0.934 -0.0472 -0.2486 -0.4531
 8557SOL     OW33999   0.317   6.278   2.372  0.1115  0.7168 -0.0495
 8557SOL    HW234000   0.326   6.229   2.453 -2.5776  0.2774  0.0852
 8557SOL    HW334001   0.230   6.254   2.339  1.0429  0.9527 -3.0180
 8557SOL    MW434002   0.307   6.268   2.378  0.4914  0.5538  0.2789
 8558SOL     OW34003   0.018   6.156   1.653 -0.0822 -0.3979 -0.3960
 8558SOL    HW234004   0.020   6.106   1.571  0.6127 -0.6463 -0.2352
 8558SOL    HW334005   0.051   6.242   1.629 -1.4285  0.0538 -0.7060
 8558SOL    MW434006   0.023   6.161   1.639  0.4741 -0.0155  0.1444
 8559SOL     OW34007   3.328   3.234   5.012 -0.2858 -0.8537 -0.1916
 8559SOL    HW234008   3.353   3.216   5.103  1.9752 -0.0937 -0.5881
 8559SOL    HW334009   3.357   3.157   4.963 -1.2974 -1.1637 -0.3358
 8559SOL    MW434010   3.335   3.221   5.018 -0.2028 -0.1500  0.0986
 8560SOL     OW34011   1.162   1.973   0.340  0.4085 -0.1576 -0.6022
 8560SOL    HW234012   1.199   2.056   0.307  0.1584  0.8492  1.4807
 8560SOL    HW334013   1.236   1.912   0.339  0.3784 -0.2682 -3.0727
 8560SOL    MW434014   1.177   1.976   0.335  0.5906  0.0639  0.4543
 8561SOL     OW34015   3.866   5.648   0.676 -0.3186 -0.0957  0.7103
 8561SOL    HW234016   3.862   5.561   0.635 -1.1814  0.7443 -1.0858
 8561SOL    HW334017   3.812   5.639   0.755 -1.0921 -0.9803  0.1031
 8561SOL    MW434018   3.858   5.635   0.681 -0.4346 -0.2622  0.0308
 8562SOL     OW34019   5.161   1.839   5.078  0.0274  0.2519  0.0135
 8562SOL    HW234020   5.166   1.846   4.983  0.8316 -1.0467 -0.0615
 8562SOL    HW334021   5.141   1.747   5.095 -2.8540  0.9508  1.0713
 8562SOL    MW434022   5.159   1.828   5.068 -0.3187  0.0431  0.0604
 8563SOL     OW34023   2.115   3.509   6.248  0.2362 -0.1825  0.1844
 8563SOL    HW234024   2.169   3.464   6.313  0.4315  0.6667  0.6377
 8563SOL    HW334025   2.173   3.524   6.174  0.4242  0.0806  0.3804
 8563SOL    MW434026   2.130   3.505   6.247  0.4207  0.6882 -0.4207
 8564SOL     OW34027   1.935   3.061   0.684 -0.3365  0.0504 -0.3620
 8564SOL    HW234028   1.853   3.095   0.649 -2.1345 -1.2549  2.2612
 8564SOL    HW334029   1.958   3.121   0.754  0.0788 -0.4630 -0.0542
 8564SOL    MW434030   1.927   3.073   0.689  0.1537 -0.2728  0.5953
 8565SOL     OW34031   1.466   5.203   6.094  0.3791  0.4019 -0.1336
 8565SOL    HW234032   1.379   5.215   6.055 -0.9938 -2.4015  1.7278
 8565SOL    HW334033   1.457   5.240   6.182  0.9804 -0.1492  0.1647
 8565SOL    MW434034   1.453   5.210   6.101 -0.1684  0.5032  0.3711
 8566SOL     OW34035   3.327   4.874   3.237 -0.2478 -0.4783 -0.1834
 8566SOL    HW234036   3.315   4.797   3.183 -2.5148 -0.6584  0.4636
 8566SOL    HW334037   3.323   4.841   3.327 -0.8706  0.3432  0.1010
 8566SOL    MW434038   3.325   4.860   3.242 -0.0424 -0.1324  0.0622
 8567SOL     OW34039   1.932   1.686   0.536 -0.0501  0.3101  0.2631
 8567SOL    HW234040   1.995   1.651   0.473 -1.0412  0.2574 -0.7219
 8567SOL    HW334041   1.931   1.780   0.519 -0.0588  0.3441  0.4499
 8567SOL    MW434042   1.940   1.693   0.526  0.2737  0.3289  0.2516
 8568SOL     OW34043   4.412   5.315   4.568  0.3439 -0.1847 -0.1224
 8568SOL    HW234044   4.408   5.409   4.549 -0.0256 -0.5815 -2.2700
 8568SOL    HW334045   4.341   5.277   4.517  0.7878 -1.7056  0.3307
 8568SOL    MW434046   4.402   5.322   4.559  0.3405  0.0704 -0.0564
 8569SOL     OW34047   2.293   1.848   3.939  0.5836  0.1328  0.7183
 8569SOL    HW234048   2.225   1.786   3.910 -0.9605  1.0087  2.2781
 8569SOL    HW334049   2.291   1.917   3.873 -0.9768  0.7675  1.3760
 8569SOL    MW434050   2.284   1.849   3.926 -0.1071 -0.1663 -0.3966
 8570SOL     OW34051   4.507   0.849   1.861 -0.4269 -0.3863 -0.3326
 8570SOL    HW234052   4.594   0.888   1.849 -0.0194 -1.3493 -0.5883
 8570SOL    HW334053   4.460   0.870   1.781  0.5345 -2.2850 -1.4614
 8570SOL    MW434054   4.512   0.857   1.849  0.0546  0.0212 -0.1329
 8571SOL     OW34055   4.452   1.310   0.288 -0.3296  0.0630  0.3800
 8571SOL    HW234056   4.522   1.301   0.223 -0.2917  1.1664  0.2493
 8571SOL    HW334057   4.475   1.388   0.338  0.0533 -1.2041  2.2645
 8571SOL    MW434058   4.464   1.319   0.286  0.2367  0.2782 -0.1058
 8572SOL     OW34059   2.331   5.191   6.066  0.2796 -0.0757 -0.1782
 8572SOL    HW234060   2.274   5.261   6.034  2.2647  2.4140  1.4099
 8572SOL    HW334061   2.281   5.150   6.137 -1.1542 -0.7849 -1.5287
 8572SOL    MW434062   2.317   5.195   6.071  0.0082  0.2798  0.6535
 8573SOL     OW34063   5.104   6.329   5.847  0.4191  0.2294  0.1387
 8573SOL    HW234064   5.031   6.295   5.898 -0.3304 -3.0212 -2.7695
 8573SOL    HW334065   5.175   6.339   5.911 -1.5500  0.2950  2.4519
 8573SOL    MW434066   5.104   6.326   5.862  0.4420  0.0471 -0.2401
 8574SOL     OW34067   2.870   3.416   0.798  0.1406 -0.1922 -0.1503
 8574SOL    HW234068   2.940   3.481   0.805 -0.4572  0.4248  0.2485
 8574SOL    HW334069   2.808   3.454   0.737  0.5308 -1.1044 -1.1476
 8574SOL    MW434070   2.871   3.430   0.791 -0.3401 -0.9289 -0.5876
 8575SOL     OW34071   2.263   1.972   0.077 -0.0159 -0.2375  0.5419
 8575SOL    HW234072   2.179   1.971   0.123  0.2545  2.3184  1.2381
 8575SOL    HW334073   2.239   1.955  -0.015 -1.0790 -1.1111  0.9556
 8575SOL    MW434074   2.249   1.970   0.071 -0.4746  0.1760 -0.2310
 8576SOL     OW34075   2.511   5.866   4.688  0.0254 -0.1088  0.0730
 8576SOL    HW234076   2.532   5.900   4.601  0.1148 -1.1171 -0.3028
 8576SOL    HW334077   2.492   5.945   4.740 -0.1119  0.4952 -0.8692
 8576SOL    MW434078   2.511   5.881   4.683 -0.3206 -0.2332  0.0952
 8577SOL     OW34079   0.335   4.145   2.976 -0.5668 -0.4159 -0.8139
 8577SOL    HW234080   0.268   4.163   2.910 -1.1238  0.8449  0.0527
 8577SOL    HW334081   0.292   4.163   3.060  0.7651  0.1119 -0.2154
 8577SOL    MW434082   0.320   4.150   2.979  0.4940  0.1594 -0.1865
 8578SOL     OW34083   3.130   4.652   2.904  0.2751  0.5169  0.3708
 8578SOL    HW234084   3.054   4.598   2.885  0.1788  0.4256  1.0023
 8578SOL    HW334085   3.157   4.687   2.819 -0.4360  0.5025  0.1355
 8578SOL    MW434086   3.124   4.650   2.890 -0.0819 -0.2429  0.6911
 8579SOL     OW34087   0.788   5.323   1.784  0.1180 -0.2370  0.1150
 8579SOL    HW234088   0.738   5.295   1.707  1.4726 -0.1785 -0.8109
 8579SOL    HW334089   0.748   5.407   1.808 -2.0841 -1.4920  1.1757
 8579SOL    MW434090   0.776   5.331   1.777  0.0185 -0.4624 -0.1551
 8580SOL     OW34091   2.360   3.551   4.522 -0.4907 -0.0270 -0.4912
 8580SOL    HW234092   2.348   3.469   4.475 -1.4513 -0.8281  1.0485
 8580SOL    HW334093   2.273   3.573   4.555 -0.1120  1.2251 -0.2777
 8580SOL    MW434094   2.347   3.543   4.520  0.0015  0.1749  0.1358
 8581SOL     OW34095   5.584   4.018   6.064 -0.2135 -0.2631  0.3957
 8581SOL    HW234096   5.614   3.929   6.042 -1.5627 -0.6506 -0.0259
 8581SOL    HW334097   5.545   4.009   6.151 -0.4409 -0.1070  0.3090
 8581SOL    MW434098   5.583   4.005   6.072  0.3424 -0.4620 -0.2250
 8582SOL     OW34099   0.759   4.264   4.660  0.7454  0.3276 -0.5192
 8582SOL    HW234100   0.711   4.268   4.742  2.3066 -0.2638  0.4723
 8582SOL    HW334101   0.705   4.313   4.598 -0.4159  0.8830  0.8723
 8582SOL    MW434102   0.746   4.271   4.662 -0.0319 -0.4584  0.1184
 8583SOL     OW34103   0.754   6.046   6.054  0.0950 -0.0964  0.8084
 8583SOL    HW234104   0.800   6.129   6.041  1.2924 -0.6731  1.1683
 8583SOL    HW334105   0.704   6.058   6.135 -0.4673  0.5752  0.3642
 8583SOL    MW434106   0.753   6.058   6.063 -0.1851 -0.6249  0.1372
 8584SOL     OW34107   3.443   3.526   5.065  0.0104 -0.6169 -0.1794
 8584SOL    HW234108   3.383   3.455   5.042 -0.9732  0.2856 -0.4689
 8584SOL    HW334109   3.498   3.489   5.134 -1.8302 -1.0432  1.1483
 8584SOL    MW434110   3.442   3.512   5.071 -0.1506  0.0784  1.2600
 8585SOL     OW34111   0.766   2.671   5.533  0.4027 -0.2386  0.0381
 8585SOL    HW234112   0.729   2.593   5.492  1.5134 -0.0631 -1.3722
 8585SOL    HW334113   0.831   2.638   5.595  3.3132 -0.5341 -2.8826
 8585SOL    MW434114   0.769   2.656   5.536 -0.0954 -0.0723 -0.2426
 8586SOL     OW34115   0.315   2.516   3.145  0.0332 -0.2797  0.1133
 8586SOL    HW234116   0.259   2.461   3.091 -0.6754  0.8428 -0.3271
 8586SOL    HW334117   0.279   2.507   3.234  1.0970 -1.9914  0.4109
 8586SOL    MW434118   0.303   2.508   3.150  0.0890  0.5704 -0.4054
 8587SOL     OW34119   0.859   4.526   5.760 -0.3483 -0.1294 -0.3265
 8587SOL    HW234120   0.918   4.474   5.707 -0.4688 -1.1038  0.4656
 8587SOL    HW334121   0.782   4.470   5.775 -0.5280  0.2943  0.4473
 8587SOL    MW434122   0.856   4.512   5.755  0.7097 -0.0355  0.4065
 8588SOL     OW34123   6.036   2.571   1.528 -0.1461  0.3708  0.1349
 8588SOL    HW234124   6.077   2.658   1.525  0.0522  0.2778  0.0875
 8588SOL    HW334125   6.022   2.549   1.436 -1.1884  0.8102  0.1808
 8588SOL    MW434126   6.040   2.580   1.515 -0.1947 -0.0661  0.3357
 8589SOL     OW34127   0.520   5.938   1.416 -0.6258 -0.2546  0.1856
 8589SOL    HW234128   0.582   5.873   1.383 -2.3148 -1.1794 -1.3106
 8589SOL    HW334129   0.442   5.928   1.362 -1.3015  2.4414  0.4824
 8589SOL    MW434130   0.518   5.928   1.405  0.3731 -0.5031 -0.0736
 8590SOL     OW34131   4.897   2.123   1.691 -0.1659 -0.2205  0.3476
 8590SOL    HW234132   4.919   2.032   1.672  0.9499 -0.7095  3.4011
 8590SOL    HW334133   4.803   2.122   1.704 -0.3001 -0.7165 -0.5407
 8590SOL    MW434134   4.888   2.111   1.690  0.0179 -0.3694 -0.2038
 8591SOL     OW34135   1.943   1.787   5.767  0.2638 -0.2159 -0.2629
 8591SOL    HW234136   1.931   1.698   5.800  0.4146 -1.2538 -2.7785
 8591SOL    HW334137   1.855   1.821   5.754  0.1554 -0.8032 -1.1874
 8591SOL    MW434138   1.930   1.779   5.769 -0.5631 -0.6633  0.7183
 8592SOL     OW34139   6.195   3.177   2.655  0.1839  0.1682 -0.2991
 8592SOL    HW234140   6.248   3.174   2.735 -2.1684 -0.8959  1.3200
 8592SOL    HW334141   6.192   3.086   2.625 -0.8808  0.1826 -0.2548
 8592SOL    MW434142   6.202   3.165   2.661 -0.4689  0.0564 -0.5786
 8593SOL     OW34143   1.673   2.389   0.979 -0.3276 -0.1710  0.2227
 8593SOL    HW234144   1.614   2.430   1.042 -0.2821 -0.7713  0.6634
 8593SOL    HW334145   1.693   2.458   0.916 -1.9746 -0.0980 -0.2792
 8593SOL    MW434146   1.668   2.403   0.979  0.4800  0.1335 -0.4807
 8594SOL     OW34147   4.272   5.838   6.342  0.4403 -0.4200 -0.5193
 8594SOL    HW234148   4.180   5.827   6.363  0.6943 -2.3136 -0.2594
 8594SOL    HW334149   4.275   5.917   6.288 -1.6758 -1.7382 -2.7468
 8594SOL    MW434150   4.261   5.847   6.338 -0.1909  0.9269  0.0388
 8595SOL     OW34151   0.629   3.459   3.961 -0.2818 -0.5816  0.4010
 8595SOL    HW234152   0.644   3.403   4.037 -1.1047 -1.3009  0.0446
 8595SOL    HW334153   0.644   3.402   3.886 -1.5603 -0.4737  0.0333
 8595SOL    MW434154   0.633   3.444   3.961  0.3983  0.0044 -0.2817
 8596SOL     OW34155   2.123   1.682   0.736  0.4838 -0.0119  0.6431
 8596SOL    HW234156   2.052   1.680   0.671  0.4768 -1.6172  0.6694
 8596SOL    HW334157   2.167   1.765   0.721 -1.8926  1.4472  1.1646
 8596SOL    MW434158   2.119   1.693   0.726  0.0924  0.3553 -0.3485
 8597SOL     OW34159   6.114   5.016   2.692  0.0335 -0.2944  0.1756
 8597SOL    HW234160   6.077   4.930   2.713  0.3883  0.0126  2.2417
 8597SOL    HW334161   6.204   4.997   2.665 -0.9267 -0.8603 -3.0420
 8597SOL    MW434162   6.121   5.002   2.691  0.0630  0.0062  0.4194
 8598SOL     OW34163   0.866   3.683   3.626  0.1891 -0.5815 -0.3241
 8598SOL    HW234164   0.834   3.772   3.641  0.2483 -0.4665 -0.8802
 8598SOL    HW334165   0.928   3.692   3.553 -0.5379 -1.2357 -1.0291
 8598SOL    MW434166   0.870   3.696   3.619  0.0569  0.0917  0.3795
 8599SOL     OW34167   2.006   5.205   5.744  0.3648  0.1835  0.2961
 8599SOL    HW234168   1.942   5.194   5.674  0.9056  3.5501 -0.9325
 8599SOL    HW334169   2.014   5.118   5.783 -1.8704 -1.2764 -2.1331
 8599SOL    MW434170   1.999   5.192   5.740 -0.2382 -0.1135 -0.2055
 8600SOL     OW34171   3.734   3.689   3.356  0.2660 -0.6847 -0.1620
 8600SOL    HW234172   3.779   3.687   3.440 -0.5062  0.1094  0.2903
 8600SOL    HW334173   3.651   3.642   3.372 -0.2140  0.1126 -0.2638
 8600SOL    MW434174   3.729   3.682   3.369 -0.2224  0.2838 -0.0216
 8601SOL     OW34175   4.408   5.434   0.810  0.1261 -0.1240 -0.6991
 8601SOL    HW234176   4.360   5.351   0.816  0.1873 -0.4499 -3.5899
 8601SOL    HW334177   4.365   5.482   0.739  2.9235  0.3011 -2.2714
 8601SOL    MW434178   4.396   5.429   0.801 -0.1816 -0.0202  0.4832
 8602SOL     OW34179   5.702   2.418   6.118  0.7257 -0.0320 -0.8918
 8602SOL    HW234180   5.713   2.325   6.139 -0.0554  0.0551 -0.0106
 8602SOL    HW334181   5.650   2.453   6.190 -0.3835  0.7449 -2.0194
 8602SOL    MW434182   5.696   2.410   6.130  0.0171  0.1640  0.0953
 8603SOL     OW34183   2.775   5.171   2.228  0.0991  0.5399  0.0070
 8603SOL    HW234184   2.862   5.200   2.258 -0.3580  2.1219 -0.1160
 8603SOL    HW334185   2.791   5.139   2.139  0.7543 -0.3740  0.4285
 8603SOL    MW434186   2.789   5.170   2.220  0.4438  0.4420 -0.6191
 8604SOL     OW34187   0.680   5.120   5.585  0.1769 -0.2634 -0.0685
 8604SOL    HW234188   0.680   5.182   5.657 -0.0712  0.4280 -0.6596
 8604SOL    HW334189   0.772   5.093   5.577  0.3747  0.4201 -0.1445
 8604SOL    MW434190   0.692   5.124   5.593 -0.2985 -0.5821  0.3129
 8605SOL     OW34191   6.199   2.174   2.053 -0.7218 -0.7371 -0.7831
 8605SOL    HW234192   6.190   2.180   1.958 -3.7212 -2.2729 -0.7063
 8605SOL    HW334193   6.224   2.083   2.069 -3.5472 -1.5059 -0.0804
 8605SOL    MW434194   6.201   2.163   2.043  0.7571 -0.0844 -0.3016
 8606SOL     OW34195   0.178   3.962   4.437  0.0987 -0.1526  0.1736
 8606SOL    HW234196   0.099   3.945   4.488 -0.4811 -0.0011 -0.6502
 8606SOL    HW334197   0.172   4.054   4.414 -0.5701 -0.6068 -1.6479
 8606SOL    MW434198   0.167   3.972   4.441 -0.6183  0.0722  0.1714
 8607SOL     OW34199   3.780   2.557   6.131 -0.1605  0.2067  0.1462
 8607SOL    HW234200   3.728   2.485   6.167 -1.1221 -0.1449 -1.8092
 8607SOL    HW334201   3.851   2.514   6.084 -0.0562  0.5722 -0.0314
 8607SOL    MW434202   3.782   2.542   6.130 -0.0532  0.0329  0.0031
 8608SOL     OW34203   1.749   1.482   1.128  0.0625 -0.1404 -0.6846
 8608SOL    HW234204   1.775   1.526   1.047  2.4908 -1.6812 -0.8396
 8608SOL    HW334205   1.762   1.389   1.110 -0.2174 -0.5863  1.1927
 8608SOL    MW434206   1.754   1.475   1.115  0.0548  0.2212 -0.1746
 8609SOL     OW34207   0.293   1.712   2.531  0.4959 -0.2805  0.0629
 8609SOL    HW234208   0.232   1.639   2.526 -0.3256  0.3454  0.6480
 8609SOL    HW334209   0.349   1.702   2.454 -1.1587 -0.1784 -1.2237
 8609SOL    MW434210   0.293   1.701   2.520  0.2422 -0.3910  0.4628
 8610SOL     OW34211   2.150   4.893   3.011 -0.3120 -0.3713  0.1508
 8610SOL    HW234212   2.183   4.928   2.928  0.1793  1.1787  0.9666
 8610SOL    HW334213   2.098   4.816   2.985  0.5949 -0.4799 -1.4997
 8610SOL    MW434214   2.147   4.887   2.997 -0.0592  0.3274  0.3224
 8611SOL     OW34215   5.994   2.924   3.632 -0.2777 -0.6980  0.4692
 8611SOL    HW234216   5.934   2.885   3.569 -0.9748  0.6253  0.2728
 8611SOL    HW334217   6.069   2.865   3.635 -1.6206 -2.4424  0.7971
 8611SOL    MW434218   5.996   2.911   3.624  0.3598  0.7852 -0.6860
 8612SOL     OW34219   5.411   4.989   0.521 -0.1383  0.1747  0.0756
 8612SOL    HW234220   5.465   4.977   0.599 -0.2142  2.3643  0.5260
 8612SOL    HW334221   5.322   4.965   0.549  0.1607 -1.0636  0.0269
 8612SOL    MW434222   5.406   4.984   0.535 -0.4012  0.4642 -0.2091
 8613SOL     OW34223   3.467   5.826   0.507  0.0127  0.0418 -0.2880
 8613SOL    HW234224   3.379   5.826   0.471 -0.4294 -0.4397  0.7532
 8613SOL    HW334225   3.464   5.764   0.580  1.2597 -0.1240 -0.3454
 8613SOL    MW434226   3.455   5.818   0.512 -0.2678  0.2865  0.5617
 8614SOL     OW34227   0.372   6.339   6.371  0.0694 -0.0850 -0.3258
 8614SOL    HW234228   0.462   6.308   6.370  0.0156 -0.3772  1.2326
 8614SOL    HW334229   0.341   6.328   6.281  0.9115 -1.9967 -0.4184
 8614SOL    MW434230   0.380   6.333   6.359  0.3206 -0.3273  0.4653
 8615SOL     OW34231   3.740   5.335   2.306  0.5206  0.2902 -0.0939
 8615SOL    HW234232   3.739   5.333   2.210  1.0556  1.3275 -0.1445
 8615SOL    HW334233   3.700   5.252   2.332  2.3986 -1.0521 -1.2131
 8615SOL    MW434234   3.735   5.324   2.296  0.2715 -0.0627  0.1611
 8616SOL     OW34235   2.954   3.314   3.216  0.3005  0.1301 -0.1706
 8616SOL    HW234236   2.930   3.223   3.197 -1.0920  0.2027  1.0835
 8616SOL    HW334237   3.036   3.327   3.168 -0.8257 -0.9475 -2.5723
 8616SOL    MW434238   2.962   3.304   3.207 -0.7519  0.6361 -0.4307
 8617SOL     OW34239   0.810   0.171   5.921 -0.0706 -0.4194 -0.2739
 8617SOL    HW234240   0.896   0.196   5.889 -0.2363  0.9928  0.3326
 8617SOL    HW334241   0.826   0.139   6.010 -0.3106  1.2072  0.3920
 8617SOL    MW434242   0.823   0.170   5.929 -0.0523 -0.0593  0.6673
 8618SOL     OW34243   0.532   4.215   2.300 -0.1870 -0.6689  0.0570
 8618SOL    HW234244   0.613   4.175   2.332  0.8591  0.2405 -1.3105
 8618SOL    HW334245   0.542   4.308   2.320 -1.0633 -0.6003  0.2033
 8618SOL    MW434246   0.544   4.222   2.307  0.0950 -0.5531 -0.1626
 8619SOL     OW34247   0.615   4.364   1.682 -1.0346 -0.2212  0.1282
 8619SOL    HW234248   0.642   4.456   1.680 -2.0439  0.1127  0.7728
 8619SOL    HW334249   0.567   4.352   1.600  0.1102 -0.5178 -0.5143
 8619SOL    MW434250   0.612   4.375   1.671  0.4257 -0.3475 -0.4418
 8620SOL     OW34251   2.573   5.884   6.369 -0.8980  0.3119  0.1944
 8620SOL    HW234252   2.662   5.904   6.398 -0.0782 -2.5678 -0.0132
 8620SOL    HW334253   2.574   5.903   6.275 -1.0641  1.8158  0.4606
 8620SOL    MW434254   2.585   5.889   6.360  0.3391  0.2859  0.2662
 8621SOL     OW34255   5.175   3.691   0.193 -0.9504 -0.1494 -0.6800
 8621SOL    HW234256   5.237   3.756   0.158 -0.7782 -0.2455 -0.5570
 8621SOL    HW334257   5.230   3.615   0.214 -0.6931  0.6009  1.6866
 8621SOL    MW434258   5.191   3.690   0.191  0.4304  0.1529 -0.1525
 8622SOL     OW34259   5.558   2.552   2.540 -0.6563  0.4586  0.1881
 8622SOL    HW234260   5.506   2.507   2.606 -0.6823  1.9494  1.2318
 8622SOL    HW334261   5.500   2.619   2.505  0.6287  2.5402  1.7750
 8622SOL    MW434262   5.544   2.555   2.544 -0.1146 -0.0922 -0.4890
 8623SOL     OW34263   1.288   1.797   2.661 -0.2206  0.5000 -0.2115
 8623SOL    HW234264   1.253   1.793   2.572 -0.9453 -1.3764  0.1172
 8623SOL    HW334265   1.218   1.763   2.716  0.5403  0.8247  0.9955
 8623SOL    MW434266   1.275   1.792   2.657 -0.6643 -0.2852 -0.6947
 8624SOL     OW34267   0.195   3.057   5.833  0.5564 -0.4881  0.2867
 8624SOL    HW234268   0.173   3.125   5.770  2.3399 -0.7509 -0.6968
 8624SOL    HW334269   0.152   3.084   5.914  0.6278  1.4403 -0.2629
 8624SOL    MW434270   0.187   3.069   5.836  0.1913  0.1450 -0.0605
 8625SOL     OW34271   0.911   3.523   2.722  0.1701 -0.2196  0.9990
 8625SOL    HW234272   0.898   3.436   2.683  1.2666 -0.0704  0.2464
 8625SOL    HW334273   0.890   3.511   2.815 -0.8641 -0.9875  0.6887
 8625SOL    MW434274   0.907   3.510   2.729 -0.2527 -0.0752 -0.1443
 8626SOL     OW34275   4.659   5.118   2.481 -0.6418  0.1913  0.2554
 8626SOL    HW234276   4.655   5.212   2.461  1.5379  0.5719  1.3160
 8626SOL    HW334277   4.672   5.114   2.575  0.1107 -1.1497  0.1184
 8626SOL    MW434278   4.660   5.130   2.490  0.3390 -0.4404  0.0321
 8627SOL     OW34279   3.859   0.820   0.627  0.2329  0.0247  0.5228
 8627SOL    HW234280   3.839   0.848   0.716  2.9451 -1.1983  1.6365
 8627SOL    HW334281   3.937   0.765   0.636  0.5704 -0.2065 -2.6129
 8627SOL    MW434282   3.867   0.817   0.640 -0.2451  0.7242 -0.6993
 8628SOL     OW34283   0.547   3.884   3.901  0.0523 -0.2643 -0.6026
 8628SOL    HW234284   0.539   3.790   3.912  0.0208 -0.3343 -1.1812
 8628SOL    HW334285   0.576   3.916   3.987  0.6038 -0.8614 -0.5567
 8628SOL    MW434286   0.550   3.876   3.914 -0.1836 -0.3271  0.4210
 8629SOL     OW34287   0.088   3.216   5.609  0.0941 -0.4611 -0.1147
 8629SOL    HW234288   0.004   3.260   5.601  0.3965  0.4818  1.4254
 8629SOL    HW334289   0.151   3.278   5.571  0.2948 -0.3837  0.3392
 8629SOL    MW434290   0.085   3.230   5.603 -0.0944  0.1133  0.1224
 8630SOL     OW34291   1.374   2.969   5.165 -0.1754 -0.6918  0.4568
 8630SOL    HW234292   1.313   2.979   5.238 -1.0391  0.0455 -0.3454
 8630SOL    HW334293   1.422   2.888   5.185 -1.4706 -1.3350  1.0608
 8630SOL    MW434294   1.372   2.959   5.178 -0.9109 -0.2615 -0.5225
 8631SOL     OW34295   3.283   4.124   4.036 -0.1150  0.1363  0.1646
 8631SOL    HW234296   3.358   4.064   4.035  0.8675  1.2584  1.4492
 8631SOL    HW334297   3.304   4.187   4.106 -0.5937  2.5686 -1.7237
 8631SOL    MW434298   3.296   4.125   4.045 -0.5213 -0.2400  0.5009
 8632SOL     OW34299   1.621   2.116   5.295 -0.1795 -0.0200  0.1045
 8632SOL    HW234300   1.699   2.144   5.248  0.3815 -1.9551 -0.1948
 8632SOL    HW334301   1.591   2.038   5.249  0.2639 -1.8744  2.7533
 8632SOL    MW434302   1.627   2.110   5.283 -0.0908  0.4706  0.1591
 8633SOL     OW34303   0.054   0.751   0.291 -0.2661  0.0681 -0.0647
 8633SOL    HW234304   0.059   0.802   0.372  3.3612  0.0674 -0.1499
 8633SOL    HW334305   0.038   0.816   0.222 -0.8657  0.3886  0.3701
 8633SOL    MW434306   0.053   0.766   0.293  0.5496  0.1955 -0.2497
 8634SOL     OW34307   4.787   2.083   3.877 -0.0794 -0.4890  0.2121
 8634SOL    HW234308   4.797   1.995   3.912 -0.2645 -1.3837 -1.8607
 8634SOL    HW334309   4.696   2.086   3.846 -0.6665  1.0918  1.8521
 8634SOL    MW434310   4.776   2.072   3.878  0.8136  0.3346  0.1472
 8635SOL     OW34311   5.752   3.945   5.324 -0.5642  0.1764 -0.0365
 8635SOL    HW234312   5.719   3.904   5.243 -0.0621 -0.4723  0.0700
 8635SOL    HW334313   5.762   4.037   5.302  1.9027 -0.3572 -1.5491
 8635SOL    MW434314   5.749   3.951   5.310  0.4568 -0.7302  0.2048
 8636SOL     OW34315   6.228   3.063   0.448  0.5259  0.5069 -0.3200
 8636SOL    HW234316   6.315   3.040   0.483  0.1354  1.5735  1.5322
 8636SOL    HW334317   6.244   3.143   0.397  0.4695  1.6833  1.3867
 8636SOL    MW434318   6.242   3.071   0.446 -0.1547  0.2241 -0.0783
 8637SOL     OW34319   1.397   3.914   3.957  0.5484 -0.4904  0.0782
 8637SOL    HW234320   1.438   3.885   3.876  0.2240  0.5329 -0.4671
 8637SOL    HW334321   1.344   3.839   3.985  0.6508 -0.8455 -0.6611
 8637SOL    MW434322   1.395   3.900   3.950 -0.3105 -0.2742  0.2571
 8638SOL     OW34323   5.695   6.036   4.768 -0.5187  0.1074  0.3603
 8638SOL    HW234324   5.624   6.030   4.705 -0.0203 -1.7600 -0.0951
 8638SOL    HW334325   5.749   6.109   4.737 -0.7123 -0.2788 -0.9492
 8638SOL    MW434326   5.693   6.045   4.755  0.3308 -0.0600 -0.1300
 8639SOL     OW34327   1.055   1.335   1.892  0.1889  0.4397 -0.0667
 8639SOL    HW234328   0.999   1.301   1.822 -1.3368 -0.0732  1.3471
 8639SOL    HW334329   1.138   1.354   1.848 -0.9197  0.8212 -2.1609
 8639SOL    MW434330   1.058   1.333   1.877 -0.3760 -0.2714 -0.3812
 8640SOL     OW34331   1.909   2.557   4.661 -0.1329 -0.0674 -0.0448
 8640SOL    HW234332   1.886   2.492   4.727  0.7103 -0.1368  0.1885
 8640SOL    HW334333   1.976   2.514   4.608  0.3404  0.5625  0.0366
 8640SOL    MW434334   1.915   2.543   4.663  0.3889 -0.1071  0.3109
 8641SOL     OW34335   2.742   5.021   1.678  0.4751 -0.8172 -0.8028
 8641SOL    HW234336   2.711   4.989   1.763  0.5013  0.3446 -0.3357
 8641SOL    HW334337   2.725   5.115   1.680  2.2405 -0.4522 -1.3013
 8641SOL    MW434338   2.736   5.029   1.690  0.2548  0.1990 -0.4133
 8642SOL     OW34339   4.326   0.078   2.545 -0.2256 -0.0292 -0.5212
 8642SOL    HW234340   4.313  -0.016   2.562  1.0718 -0.4401 -1.6548
 8642SOL    HW334341   4.331   0.085   2.450  0.0138  1.1497 -0.4398
 8642SOL    MW434342   4.325   0.066   2.535  0.2844 -0.0100 -0.1792
 8643SOL     OW34343   1.901   2.383   0.186 -0.0360 -0.5081  0.0602
 8643SOL    HW234344   1.938   2.452   0.131 -0.1936 -0.0689  0.5054
 8643SOL    HW334345   1.945   2.393   0.271  0.5257 -1.4527 -0.0970
 8643SOL    MW434346   1.912   2.393   0.190  0.3678  0.0174  0.2138
 8644SOL     OW34347   1.399   5.542   1.134 -0.1892 -0.2233 -0.3805
 8644SOL    HW234348   1.306   5.533   1.118 -0.2980  1.3508 -0.7429
 8644SOL    HW334349   1.431   5.600   1.065  0.9721 -0.3376  0.0263
 8644SOL    MW434350   1.391   5.548   1.123  0.0138 -0.3833  0.2805
 8645SOL     OW34351   2.203   3.151   1.061 -0.0787 -0.5322  0.4482
 8645SOL    HW234352   2.247   3.159   1.146 -0.9918 -0.6398  0.9440
 8645SOL    HW334353   2.242   3.219   1.006  1.1769 -1.0632  0.6619
 8645SOL    MW434354   2.214   3.161   1.065 -0.9421 -0.3869 -0.8998
 8646SOL     OW34355   4.353   6.087   4.296 -0.7226  0.0011  0.2863
 8646SOL    HW234356   4.373   6.015   4.236 -0.5721 -0.0861  0.4401
 8646SOL    HW334357   4.268   6.120   4.266 -0.8020 -0.2551  0.2268
 8646SOL    MW434358   4.344   6.082   4.284 -0.3228 -0.2116  0.1052
 8647SOL     OW34359   1.877   3.114   1.166  0.1757 -0.0311 -0.3040
 8647SOL    HW234360   1.809   3.164   1.210  0.2267  0.1005 -0.3755
 8647SOL    HW334361   1.883   3.153   1.079 -0.1543 -0.4980 -0.5427
 8647SOL    MW434362   1.869   3.126   1.160 -0.0998 -0.0894 -0.4730
 8648SOL     OW34363   3.492   0.500   2.692 -0.9134 -0.5269  0.1760
 8648SOL    HW234364   3.416   0.442   2.696 -1.1183 -0.2401  0.5902
 8648SOL    HW334365   3.555   0.455   2.635 -0.7676 -1.5111  1.0853
 8648SOL    MW434366   3.491   0.486   2.685  0.3249 -0.8206 -0.3719
 8649SOL     OW34367   6.087   5.327   1.761  0.0493  0.1710 -0.2451
 8649SOL    HW234368   6.077   5.382   1.839 -1.9742 -0.9300  0.3559
 8649SOL    HW334369   6.042   5.245   1.784  1.2646 -1.0009 -1.8164
 8649SOL    MW434370   6.080   5.323   1.774  0.0038  0.0556 -0.0090
 8650SOL     OW34371   0.521   6.379   4.767  0.3621 -0.3048 -0.0622
 8650SOL    HW234372   0.431   6.347   4.776  0.4663 -0.1399  2.1204
 8650SOL    HW334373   0.560   6.321   4.702 -1.0086 -1.1264 -0.1970
 8650SOL    MW434374   0.514   6.367   4.760 -0.6795 -1.1457 -0.5753
 8651SOL     OW34375   5.899   0.806   0.936 -0.7362 -0.0857 -0.1374
 8651SOL    HW234376   5.888   0.755   0.855 -1.4357 -2.4002  1.3155
 8651SOL    HW334377   5.814   0.848   0.949 -1.3003 -1.3614  0.4206
 8651SOL    MW434378   5.886   0.805   0.927  0.4868 -0.2572  0.2433
 8652SOL     OW34379   2.882   5.757   5.251  0.6563  0.5907  0.8581
 8652SOL    HW234380   2.799   5.744   5.205 -0.9166 -0.9629  3.7931
 8652SOL    HW334381   2.918   5.668   5.261  1.3006  0.9540  1.9355
 8652SOL    MW434382   2.876   5.743   5.247  0.1308 -0.0856  0.4221
 8653SOL     OW34383   3.856   1.210   4.915  0.2542 -0.1156  0.5702
 8653SOL    HW234384   3.773   1.186   4.873  0.0686 -0.0345  0.8885
 8653SOL    HW334385   3.850   1.304   4.929  0.6716 -0.0006  0.0054
 8653SOL    MW434386   3.844   1.219   4.912 -0.4606  0.3859  0.0315
 8654SOL     OW34387   5.208   2.154   6.394  0.2963 -0.3591  1.0266
 8654SOL    HW234388   5.140   2.116   6.338  3.0223 -0.8434 -2.3700
 8654SOL    HW334389   5.212   2.246   6.368  1.1505 -0.4301  0.8702
 8654SOL    MW434390   5.200   2.161   6.383 -0.5730  0.4417  0.2829
 8655SOL     OW34391   4.489   5.871   3.048 -0.2512 -0.3187 -0.1457
 8655SOL    HW234392   4.520   5.927   2.977  1.6596 -1.3198 -0.1737
 8655SOL    HW334393   4.448   5.797   3.004 -0.1425 -0.3608 -0.1761
 8655SOL    MW434394   4.488   5.869   3.033  0.4165  0.5062 -0.2045
 8656SOL     OW34395   2.850   0.809   4.781 -0.3420  0.2240  0.4419
 8656SOL    HW234396   2.859   0.897   4.744  0.6025  0.6426  1.6469
 8656SOL    HW334397   2.882   0.816   4.870  1.6928 -1.8078 -0.0494
 8656SOL    MW434398   2.855   0.821   4.788 -0.1004 -0.1198  0.0752
 8657SOL     OW34399   5.569   0.702   5.852 -0.1160  0.5008  0.3131
 8657SOL    HW234400   5.529   0.616   5.843 -0.1668  0.5109  0.4514
 8657SOL    HW334401   5.498   0.759   5.882 -0.0909  0.5982  0.1904
 8657SOL    MW434402   5.554   0.698   5.854  0.2349 -0.4298  0.2076
 8658SOL     OW34403   3.534   1.928   1.810 -0.6068  0.4012  0.1299
 8658SOL    HW234404   3.579   2.007   1.779 -0.3161  0.4240  0.6038
 8658SOL    HW334405   3.531   1.870   1.733  1.2595 -0.0789  0.3715
 8658SOL    MW434406   3.539   1.931   1.795 -0.3974  0.7157 -0.3500
 8659SOL     OW34407   2.785   0.780   4.422  0.2360  0.0368 -0.4062
 8659SOL    HW234408   2.734   0.817   4.495  0.3027  0.7525 -0.7109
 8659SOL    HW334409   2.876   0.791   4.449  0.2441 -0.7790 -0.0853
 8659SOL    MW434410   2.790   0.786   4.436 -0.4792 -0.1684 -0.0335
 8660SOL     OW34411   0.185   5.643   6.256  0.5627  1.0474  0.8311
 8660SOL    HW234412   0.157   5.589   6.330 -0.6357  0.8196  0.2436
 8660SOL    HW334413   0.264   5.601   6.224 -0.5472 -0.6423  0.1513
 8660SOL    MW434414   0.192   5.630   6.262 -0.5075 -0.1315 -0.8225
 8661SOL     OW34415   4.848   4.758   1.182  0.2563  0.2559  0.3391
 8661SOL    HW234416   4.914   4.694   1.155  0.4461  0.0705  1.2003
 8661SOL    HW334417   4.872   4.839   1.137 -0.8230 -0.6067 -1.9292
 8661SOL    MW434418   4.860   4.760   1.172 -0.1538 -0.8222 -0.2915
 8662SOL     OW34419   6.305   4.485   2.868 -0.3739 -0.7335 -0.2269
 8662SOL    HW234420   6.380   4.448   2.821  0.2431 -0.2626  0.3651
 8662SOL    HW334421   6.282   4.417   2.932  0.7639 -0.1386  0.8664
 8662SOL    MW434422   6.312   4.471   2.871 -0.5902  0.5857 -0.2595
 8663SOL     OW34423   3.144   3.937   0.251  0.3946  0.4955  0.2129
 8663SOL    HW234424   3.154   3.842   0.242 -1.2617  0.3599 -0.6862
 8663SOL    HW334425   3.177   3.957   0.338  1.2451 -0.8307  0.2178
 8663SOL    MW434426   3.149   3.927   0.261 -0.2946 -0.1464  0.0877
 8664SOL     OW34427   5.396   4.684   1.480  0.4450  0.3499 -0.3088
 8664SOL    HW234428   5.390   4.635   1.398  0.8556 -2.5355  1.2697
 8664SOL    HW334429   5.328   4.751   1.472 -1.5781 -1.7153 -1.8440
 8664SOL    MW434430   5.386   4.686   1.468 -0.0558 -0.0459 -0.7664
 8665SOL     OW34431   4.176   4.368   3.780 -0.0006  0.2232  0.6219
 8665SOL    HW234432   4.169   4.416   3.862 -0.0787  0.4678  0.4709
 8665SOL    HW334433   4.216   4.284   3.805 -1.6673 -0.4405  1.1950
 8665SOL    MW434434   4.181   4.363   3.794  0.3141  0.0195 -0.1066
 8666SOL     OW34435   4.476   1.222   1.643 -0.4080 -0.2836 -0.0010
 8666SOL    HW234436   4.504   1.245   1.732  1.8675 -0.9061 -0.4807
 8666SOL    HW334437   4.403   1.162   1.655 -2.0251  1.8124  1.3556
 8666SOL    MW434438   4.470   1.217   1.656 -0.2182  0.0274  0.5858
 8667SOL     OW34439   1.172   3.121   1.256  0.1792 -0.1248  0.3196
 8667SOL    HW234440   1.167   3.214   1.275 -2.1167  0.2336 -1.6760
 8667SOL    HW334441   1.081   3.092   1.251  0.8291 -2.2398 -0.2488
 8667SOL    MW434442   1.160   3.129   1.258 -0.5418 -0.5270  0.1861
 8668SOL     OW34443   0.742   2.771   0.127  0.2907 -0.7774 -0.8191
 8668SOL    HW234444   0.723   2.814   0.044  0.0906 -0.0085 -0.3909
 8668SOL    HW334445   0.785   2.839   0.180 -0.3921 -0.9745  0.0112
 8668SOL    MW434446   0.745   2.786   0.123  0.5423 -0.1214 -0.0040
 8669SOL     OW34447   5.761   5.435   5.204 -0.1150  0.4238  0.5483
 8669SOL    HW234448   5.744   5.500   5.136  1.4534 -1.0764 -1.3846
 8669SOL    HW334449   5.743   5.351   5.163  0.4419 -0.5345  2.1519
 8669SOL    MW434450   5.756   5.433   5.190 -0.2236  0.6182  0.4322
 8670SOL     OW34451   0.315   1.733   4.402  0.2387 -0.3222 -0.0360
 8670SOL    HW234452   0.393   1.688   4.435  1.3426  1.2011 -0.4524
 8670SOL    HW334453   0.276   1.671   4.340  1.5364 -0.8282 -0.3696
 8670SOL    MW434454   0.320   1.719   4.398  0.0122 -0.2778 -0.0111
 8671SOL     OW34455   3.056   4.608   4.785  0.4691 -0.3478  0.1356
 8671SOL    HW234456   3.029   4.523   4.819 -1.1433 -0.9732 -2.4165
 8671SOL    HW334457   3.025   4.671   4.850 -1.7716 -1.4962  0.2711
 8671SOL    MW434458   3.048   4.605   4.798  0.2162 -0.3102 -0.0859
 8672SOL     OW34459   0.854   2.556   6.189 -0.0791  0.8189  0.4913
 8672SOL    HW234460   0.910   2.606   6.249  0.8871  0.0932  0.2202
 8672SOL    HW334461   0.827   2.479   6.239 -0.3645  0.8704  0.4206
 8672SOL    MW434462   0.858   2.553   6.204  0.3845  0.7088  0.5141
 8673SOL     OW34463   0.002   3.222   2.041 -0.3899  0.3854  0.0204
 8673SOL    HW234464   0.083   3.177   2.017 -0.7151 -0.6017  0.7205
 8673SOL    HW334465   0.023   3.272   2.119  0.0625  1.7726 -0.9500
 8673SOL    MW434466   0.015   3.222   2.048 -0.3563 -0.2159  0.0201
 8674SOL     OW34467   5.580   3.319   0.091  0.0222 -0.3689 -0.4554
 8674SOL    HW234468   5.626   3.334   0.174  1.3946  3.3044 -1.6751
 8674SOL    HW334469   5.561   3.225   0.090  0.5716 -0.6813  3.6409
 8674SOL    MW434470   5.584   3.308   0.102 -0.4357  0.3567  0.3684
 8675SOL     OW34471   1.681   3.126   3.665 -0.2492  0.2317 -0.0119
 8675SOL    HW234472   1.683   3.210   3.712  1.2558 -0.1665  0.6935
 8675SOL    HW334473   1.758   3.079   3.696 -1.5262 -1.8042  0.2964
 8675SOL    MW434474   1.691   3.131   3.675  0.4773  0.3680  0.2357
 8676SOL     OW34475   6.403   4.449   2.444  0.1513  0.2539  0.5332
 8676SOL    HW234476   6.322   4.399   2.443 -1.0179  2.1004 -0.8334
 8676SOL    HW334477   6.467   4.391   2.403 -1.1966 -0.0914 -1.1646
 8676SOL    MW434478   6.401   4.434   2.439  0.2788 -0.7145  0.3969
 8677SOL     OW34479   0.210   5.281   5.541  0.4682 -0.3512  0.6985
 8677SOL    HW234480   0.289   5.228   5.543  1.5483  1.1508 -0.4947
 8677SOL    HW334481   0.241   5.371   5.543 -1.0890  0.3103 -1.5272
 8677SOL    MW434482   0.224   5.286   5.542 -0.2063  0.1896  0.1186
 8678SOL     OW34483   5.280   3.822   5.822  0.0146 -0.7148 -0.4600
 8678SOL    HW234484   5.240   3.745   5.783 -1.9537 -0.1196  0.2585
 8678SOL    HW334485   5.271   3.808   5.917 -0.6267  0.5057 -0.3279
 8678SOL    MW434486   5.274   3.810   5.830 -0.0112 -0.5332 -0.3771
 8679SOL     OW34487   2.468   0.196   4.298 -0.0795 -0.1149  0.0678
 8679SOL    HW234488   2.484   0.272   4.353  1.2324  1.0663 -1.8077
 8679SOL    HW334489   2.397   0.149   4.341 -0.8221  2.0725  1.3918
 8679SOL    MW434490   2.461   0.200   4.311 -0.4711  0.5368 -0.6263
 8680SOL     OW34491   0.623   1.675   4.095  0.2052  0.1789  0.7212
 8680SOL    HW234492   0.551   1.620   4.065  0.8021  0.1111 -0.6273
 8680SOL    HW334493   0.630   1.656   4.189 -0.5088 -0.9744  0.5587
 8680SOL    MW434494   0.615   1.666   4.104 -0.0108  0.1945 -0.8621
 8681SOL     OW34495   3.450   4.767   1.314  0.0773 -0.0870 -0.7191
 8681SOL    HW234496   3.493   4.814   1.386  0.4263  2.2240 -2.3205
 8681SOL    HW334497   3.497   4.683   1.309  1.9025  0.8269  0.0098
 8681SOL    MW434498   3.462   4.762   1.323 -0.0969 -0.1005  0.1378
 8682SOL     OW34499   3.568   1.955   4.371 -0.2907  0.5836  0.0797
 8682SOL    HW234500   3.583   2.006   4.450 -1.1262 -0.0081  0.6377
 8682SOL    HW334501   3.507   2.008   4.320 -0.6136  0.4635  0.3394
 8682SOL    MW434502   3.562   1.969   4.375 -0.2677  0.1917 -0.2841
 8683SOL     OW34503   5.360   1.400   2.003 -0.2685 -0.8055 -0.0088
 8683SOL    HW234504   5.363   1.494   2.022  0.3960 -0.4315 -1.7720
 8683SOL    HW334505   5.391   1.359   2.083 -0.6275  0.4780  0.8182
 8683SOL    MW434506   5.365   1.407   2.016 -0.2589 -0.1870  0.1585
 8684SOL     OW34507   4.630   3.026   0.760 -0.0508  0.5467  0.5233
 8684SOL    HW234508   4.557   3.010   0.699 -0.4775 -0.4458  1.2656
 8684SOL    HW334509   4.590   3.021   0.846  0.9671 -0.4581  0.9639
 8684SOL    MW434510   4.615   3.023   0.763 -0.7217 -0.1297  0.2965
 8685SOL     OW34511   1.914   0.776   3.845 -0.2691  0.0251  0.3457
 8685SOL    HW234512   1.983   0.832   3.809  0.7408 -0.9350  0.7129
 8685SOL    HW334513   1.834   0.828   3.837 -0.0409  0.0597 -2.7601
 8685SOL    MW434514   1.913   0.790   3.839 -0.5219  0.3470 -0.1469
 8686SOL     OW34515   1.776   0.958   3.353  0.2897 -0.3771 -0.0806
 8686SOL    HW234516   1.858   0.982   3.396  0.7276  1.1179 -1.6459
 8686SOL    HW334517   1.763   1.025   3.287 -2.8555  0.1590  0.9054
 8686SOL    MW434518   1.785   0.970   3.350  0.1138  0.2706  0.2331
 8687SOL     OW34519   6.392   0.896   2.778 -0.8993  0.0253 -0.3376
 8687SOL    HW234520   6.483   0.925   2.771 -1.2164  0.9921 -0.6144
 8687SOL    HW334521   6.385   0.827   2.711 -0.0174 -1.0645  0.6391
 8687SOL    MW434522   6.403   0.891   2.768 -0.2223  0.5450  0.2650
 8688SOL     OW34523   5.447   4.176   0.527 -0.2762 -0.2020 -0.0787
 8688SOL    HW234524   5.503   4.214   0.460  0.6575 -1.3370  0.0193
 8688SOL    HW334525   5.423   4.090   0.493 -1.2773 -0.0689  0.2582
 8688SOL    MW434526   5.451   4.169   0.514  0.1531 -0.2260  0.3564
 8689SOL     OW34527   0.852   3.264   2.538 -0.4874 -0.5283 -0.1856
 8689SOL    HW234528   0.777   3.296   2.489  0.6108 -0.5679 -1.9905
 8689SOL    HW334529   0.864   3.174   2.507  1.6850  0.2211 -1.7681
 8689SOL    MW434530   0.844   3.256   2.528 -0.0458  0.5040  0.1961
 8690SOL     OW34531   5.839   0.859   3.033 -0.4127 -0.5131 -0.3809
 8690SOL    HW234532   5.917   0.843   3.086 -0.3387  0.2406 -0.2495
 8690SOL    HW334533   5.785   0.781   3.046  1.3945 -2.2336 -2.4647
 8690SOL    MW434534   5.842   0.846   3.042  0.2072  0.0184 -0.4329
 8691SOL     OW34535   0.090   2.625   0.053 -0.0127 -0.7429 -0.4469
 8691SOL    HW234536   0.044   2.542   0.066  0.2942 -1.0100 -1.0340
 8691SOL    HW334537   0.022   2.691   0.057 -0.2227 -0.9963  0.3134
 8691SOL    MW434538   0.075   2.623   0.055 -0.2665  0.4479 -0.2627
 8692SOL     OW34539   3.762   0.039   2.963  0.0605 -1.0265 -0.2894
 8692SOL    HW234540   3.687  -0.020   2.975  0.3456 -1.1459  1.0876
 8692SOL    HW334541   3.739   0.118   3.011  0.6372 -0.8962 -0.2182
 8692SOL    MW434542   3.749   0.041   2.971 -1.2025 -0.1793 -0.3906
 8693SOL     OW34543   4.672   6.010   3.206  0.0063  0.7626 -0.1733
 8693SOL    HW234544   4.600   5.973   3.154 -0.6721  0.2459  1.1004
 8693SOL    HW334545   4.740   6.029   3.141 -0.0576 -1.6525 -1.0344
 8693SOL    MW434546   4.671   6.008   3.190  0.0143 -0.4519  0.0400
 8694SOL     OW34547   1.275   2.067   2.731 -0.0528  0.0214 -0.2093
 8694SOL    HW234548   1.204   2.096   2.674  0.4812  0.8753 -0.4681
 8694SOL    HW334549   1.295   1.978   2.701 -0.6321 -0.0153 -0.5010
 8694SOL    MW434550   1.269   2.059   2.719 -0.0111 -0.3896 -0.2453
 8695SOL     OW34551   1.472   1.928   5.862 -0.8200  0.1376  0.1718
 8695SOL    HW234552   1.404   1.906   5.798  0.5554 -1.0072 -0.9793
 8695SOL    HW334553   1.430   1.916   5.947 -2.3513  0.5313 -0.4922
 8695SOL    MW434554   1.458   1.924   5.865  0.0790 -0.3265 -0.0711
 8696SOL     OW34555   6.267   6.071   4.291 -0.3570  0.1543  0.0808
 8696SOL    HW234556   6.172   6.083   4.293 -0.2326  1.2462  0.3550
 8696SOL    HW334557   6.302   6.160   4.290  0.6577 -0.2387 -0.7550
 8696SOL    MW434558   6.259   6.085   4.291 -0.2302 -0.5206 -0.1387
 8697SOL     OW34559   5.066   0.844   6.280  0.2192  0.7088 -0.0419
 8697SOL    HW234560   4.990   0.886   6.239 -1.2348  0.1813  1.9963
 8697SOL    HW334561   5.078   0.762   6.232 -0.2667  0.9631 -0.6040
 8697SOL    MW434562   5.058   0.839   6.268  0.1887 -0.2689 -0.3980
 8698SOL     OW34563   5.861   4.963   6.321 -0.2809  0.5285 -0.6192
 8698SOL    HW234564   5.792   4.896   6.318 -0.3386  0.5937 -0.7445
 8698SOL    HW334565   5.820   5.042   6.285 -0.7352  1.1120  1.1138
 8698SOL    MW434566   5.846   4.964   6.316 -0.1687  0.1991  0.0314
 8699SOL     OW34567   6.029   0.627   1.966 -0.2776  0.8787 -0.2596
 8699SOL    HW234568   6.038   0.536   1.994  0.0616  0.2303 -2.2929
 8699SOL    HW334569   6.006   0.675   2.045  1.4377 -0.6634  1.2431
 8699SOL    MW434570   6.027   0.621   1.980  0.2959 -0.0914  0.2993
 8700SOL     OW34571   6.079   4.737   5.626  0.1726 -0.0357 -0.0129
 8700SOL    HW234572   6.019   4.793   5.577  0.8283  0.3646 -0.3765
 8700SOL    HW334573   6.151   4.720   5.566  0.3680 -0.6133  0.3716
 8700SOL    MW434574   6.081   4.742   5.612 -0.3859 -0.0647  0.4117
 8701SOL     OW34575   2.903   0.826   0.311  0.6871 -0.0083 -0.5367
 8701SOL    HW234576   2.811   0.846   0.291  0.8308 -1.3051 -2.8266
 8701SOL    HW334577   2.931   0.900   0.365 -1.0663  1.6477 -1.7049
 8701SOL    MW434578   2.894   0.839   0.316 -0.0876  0.1465  0.2701
 8702SOL     OW34579   2.098   5.396   5.564 -0.2089 -0.5702 -0.1673
 8702SOL    HW234580   2.091   5.472   5.622  2.4120 -0.2846 -0.1105
 8702SOL    HW334581   2.057   5.325   5.613  0.5895  0.0051  1.4152
 8702SOL    MW434582   2.092   5.397   5.578  0.4878 -0.2739  0.2142
 8703SOL     OW34583   2.050   1.180   5.772  0.2194  0.4503  0.5167
 8703SOL    HW234584   2.017   1.225   5.850  0.5489  2.7562 -0.5840
 8703SOL    HW334585   1.999   1.100   5.767 -1.5214  1.4232  1.7496
 8703SOL    MW434586   2.039   1.175   5.781 -0.0759 -0.0146 -0.1731
 8704SOL     OW34587   4.397   5.517   3.303 -0.5102  0.0935  0.0541
 8704SOL    HW234588   4.366   5.596   3.258  0.2132 -0.0508 -0.7221
 8704SOL    HW334589   4.324   5.490   3.358 -0.7310  1.3682  0.4195
 8704SOL    MW434590   4.384   5.524   3.304 -0.2248  0.3961  0.3381
 8705SOL     OW34591   4.217   4.870   5.832  0.0801 -0.2243 -0.0536
 8705SOL    HW234592   4.238   4.836   5.919 -0.4834 -2.1775 -0.6355
 8705SOL    HW334593   4.247   4.802   5.771 -0.5877  0.5755 -1.3288
 8705SOL    MW434594   4.224   4.857   5.835 -0.5003 -0.3293  0.3626
 8706SOL     OW34595   5.687   1.736   2.130  0.3781  0.1328  0.0853
 8706SOL    HW234596   5.620   1.793   2.168 -1.2195  0.1332 -2.4388
 8706SOL    HW334597   5.646   1.649   2.129  0.7541 -0.0478 -0.6766
 8706SOL    MW434598   5.672   1.732   2.135  0.0467 -0.0005  0.0182
 8707SOL     OW34599   4.847   2.612   4.247  0.2071  0.9111 -0.0769
 8707SOL    HW234600   4.830   2.538   4.304  1.2284 -1.3920 -2.5613
 8707SOL    HW334601   4.939   2.634   4.261  0.9155 -0.6821 -1.7871
 8707SOL    MW434602   4.857   2.605   4.256  0.0257 -0.0383 -0.1324
 8708SOL     OW34603   5.788   0.978   4.998 -0.0238 -0.5197  0.0222
 8708SOL    HW234604   5.823   0.889   4.994 -3.2807 -1.9083 -0.8343
 8708SOL    HW334605   5.815   1.011   5.084  1.3704 -2.2355  0.3003
 8708SOL    MW434606   5.796   0.971   5.008 -0.1683  0.3194 -0.3345
 8709SOL     OW34607   0.550   0.632   2.543  0.2301  0.2575  0.1401
 8709SOL    HW234608   0.534   0.675   2.459  0.8028  1.2460  0.5175
 8709SOL    HW334609   0.644   0.646   2.559  0.5762 -1.5786  0.0480
 8709SOL    MW434610   0.561   0.639   2.534 -0.2298  0.1393  0.3737
 8710SOL     OW34611   5.470   1.931   6.005 -0.5461  0.5764 -0.2355
 8710SOL    HW234612   5.423   2.000   6.052 -1.2445  0.4715 -0.7629
 8710SOL    HW334613   5.552   1.972   5.979 -0.0802  0.5973  1.1786
 8710SOL    MW434614   5.474   1.946   6.008  0.4294 -0.0211  0.4402
 8711SOL     OW34615   1.897   6.084   0.271  0.0647  0.2360  0.1698
 8711SOL    HW234616   1.840   6.161   0.279 -0.5798 -0.2726  0.6129
 8711SOL    HW334617   1.871   6.044   0.187 -0.9902 -0.5716  0.8524
 8711SOL    MW434618   1.886   6.089   0.261  0.7178  0.3041  0.1106
 8712SOL     OW34619   0.611   1.126   1.955 -0.0729  0.2651  0.5664
 8712SOL    HW234620   0.606   1.060   1.886  0.1579  1.0254 -0.1847
 8712SOL    HW334621   0.592   1.209   1.912 -1.9943  0.5465  1.8033
 8712SOL    MW434622   0.608   1.128   1.940 -0.3369 -0.0226  0.3804
 8713SOL     OW34623   5.404   3.343   5.456 -0.6308  0.4419  0.4184
 8713SOL    HW234624   5.471   3.306   5.514 -0.8023  1.0952  1.0590
 8713SOL    HW334625   5.359   3.268   5.419  0.2956 -0.0005  0.1831
 8713SOL    MW434626   5.407   3.328   5.459  0.3177  0.0098 -0.3499
 8714SOL     OW34627   1.509   6.387   6.407 -0.2864 -0.0394  0.6053
 8714SOL    HW234628   1.433   6.445   6.408  0.5537  1.1620 -0.7029
 8714SOL    HW334629   1.528   6.375   6.314  1.2281 -0.1547  0.9016
 8714SOL    MW434630   1.502   6.393   6.395 -0.0181  0.0171  0.5224
 8715SOL     OW34631   0.162   4.817   5.333  0.5252  0.2186  0.1442
 8715SOL    HW234632   0.255   4.835   5.341  0.3641  0.1509  3.3126
 8715SOL    HW334633   0.120   4.903   5.343  0.1857 -0.0843  1.3982
 8715SOL    MW434634   0.168   4.831   5.335 -0.2063 -0.4884 -0.4676
 8716SOL     OW34635   4.447   1.085   5.610  0.2982 -0.0170  0.1499
 8716SOL    HW234636   4.501   1.018   5.651 -0.9812  0.1467  2.2143
 8716SOL    HW334637   4.366   1.087   5.662 -1.8956 -0.4510 -2.9413
 8716SOL    MW434638   4.443   1.077   5.622 -0.4219  0.4108  0.2144
 8717SOL     OW34639   1.739   1.206   1.122 -0.2200 -0.3236 -0.5119
 8717SOL    HW234640   1.773   1.167   1.202 -1.2673 -1.4219 -0.5787
 8717SOL    HW334641   1.645   1.213   1.136 -0.0390  3.1373 -0.1167
 8717SOL    MW434642   1.731   1.202   1.134  0.0625  0.7852  0.3672
 8718SOL     OW34643   0.864   2.286   5.791  0.4293 -0.1073  0.1555
 8718SOL    HW234644   0.861   2.371   5.834  0.7334  0.8121 -1.5746
 8718SOL    HW334645   0.955   2.276   5.763 -0.3444  0.8903 -3.1766
 8718SOL    MW434646   0.876   2.296   5.793  0.1949 -0.3044 -0.1242
 8719SOL     OW34647   1.489   0.848   3.339 -0.1457 -0.1104 -0.2548
 8719SOL    HW234648   1.572   0.827   3.381  0.4565  2.9835  0.3816
 8719SOL    HW334649   1.514   0.879   3.252 -0.5336  1.1079  0.0386
 8719SOL    MW434650   1.503   0.850   3.333 -0.3304  0.2419  0.0701
 8720SOL     OW34651   3.110   4.421   5.813  0.7340 -0.8833  0.1054
 8720SOL    HW234652   3.134   4.406   5.904  0.9608  0.1349  0.2219
 8720SOL    HW334653   3.047   4.492   5.816  0.2843 -1.2497 -0.4885
 8720SOL    MW434654   3.105   4.428   5.825  0.0340  0.5435  0.2538
 8721SOL     OW34655   5.779   4.118   4.299 -0.2182 -0.0851 -0.1244
 8721SOL    HW234656   5.731   4.181   4.351 -1.0387 -0.7469 -0.0666
 8721SOL    HW334657   5.744   4.033   4.324  0.2957 -0.5125 -0.7937
 8721SOL    MW434658   5.768   4.115   4.309 -0.1264 -0.5141  0.2665
 8722SOL     OW34659   3.521   5.719   2.504 -0.7324 -0.4011  0.3337
 8722SOL    HW234660   3.461   5.645   2.512  0.2852 -1.4984 -1.5096
 8722SOL    HW334661   3.597   5.683   2.458 -1.1211  2.2480 -2.7408
 8722SOL    MW434662   3.523   5.705   2.499 -0.0041  0.7293 -0.1192
 8723SOL     OW34663   4.781   5.096   6.277 -0.7457 -0.0963  0.5609
 8723SOL    HW234664   4.783   5.072   6.184 -0.2693 -1.9058  0.9913
 8723SOL    HW334665   4.869   5.075   6.309 -1.0648  0.0036  1.5278
 8723SOL    MW434666   4.793   5.090   6.269 -0.1098  0.1332  0.2009
 8724SOL     OW34667   5.589   5.378   4.213  0.3839  0.5424  0.2395
 8724SOL    HW234668   5.635   5.404   4.133 -0.5311  0.6623 -0.2570
 8724SOL    HW334669   5.499   5.362   4.185  0.6506 -2.2554  0.6717
 8724SOL    MW434670   5.583   5.379   4.198 -0.3040 -0.2676  0.0215
 8725SOL     OW34671   4.225   4.617   0.071  0.2179  0.7509 -0.7706
 8725SOL    HW234672   4.147   4.562   0.062  0.1260  0.7365  0.0244
 8725SOL    HW334673   4.296   4.564   0.033  0.1732 -0.0300  0.2076
 8725SOL    MW434674   4.224   4.602   0.065  0.9010 -0.1184 -0.7696
 8726SOL     OW34675   3.508   5.280   0.866 -0.4088 -0.1175  0.0712
 8726SOL    HW234676   3.451   5.313   0.797  0.9766 -0.8531 -1.4920
 8726SOL    HW334677   3.453   5.219   0.915 -1.7176  1.1895  0.3254
 8726SOL    MW434678   3.493   5.276   0.863  0.2105 -0.4378 -0.1117
 8727SOL     OW34679   1.683   4.182   2.132  0.1640  0.2553  0.0287
 8727SOL    HW234680   1.728   4.249   2.079 -0.0322 -0.5909 -1.2631
 8727SOL    HW334681   1.606   4.228   2.167  0.4809  0.9369 -0.1433
 8727SOL    MW434682   1.679   4.197   2.129 -0.4159  0.0467 -0.6229
 8728SOL     OW34683   1.139   0.259   4.033 -0.3836 -0.1036 -0.1382
 8728SOL    HW234684   1.232   0.243   4.043 -0.2185  0.4845 -0.6293
 8728SOL    HW334685   1.130   0.297   3.946 -1.1953 -0.9599 -0.4489
 8728SOL    MW434686   1.150   0.262   4.023  0.2032  0.8239  0.0941
 8729SOL     OW34687   5.705   2.361   1.152  0.3787  0.6611 -0.1616
 8729SOL    HW234688   5.711   2.315   1.069 -0.1665 -1.3596  0.8655
 8729SOL    HW334689   5.719   2.453   1.129 -0.6388  0.2879 -2.5863
 8729SOL    MW434690   5.708   2.367   1.138 -0.0225 -0.2154 -0.0719
 8730SOL     OW34691   5.575   1.035   0.801  0.0121  0.5640 -0.9874
 8730SOL    HW234692   5.583   1.125   0.832  0.5882  0.6404 -1.3556
 8730SOL    HW334693   5.614   0.983   0.871 -0.4651  0.5853 -0.7024
 8730SOL    MW434694   5.581   1.040   0.815 -0.1620 -0.1495 -0.3384
 8731SOL     OW34695   1.043   4.472   6.011  0.0394  0.8204 -0.1774
 8731SOL    HW234696   1.023   4.499   6.101  0.9684  0.2836  0.2085
 8731SOL    HW334697   0.965   4.495   5.961 -0.7614  0.5153  0.8930
 8731SOL    MW434698   1.030   4.479   6.017 -0.2881 -0.2746  0.4146
 8732SOL     OW34699   2.214   3.441   5.830 -0.4401 -0.2101  0.6918
 8732SOL    HW234700   2.126   3.461   5.798 -0.5070 -2.2291 -0.5204
 8732SOL    HW334701   2.270   3.444   5.752  0.1872 -0.9288  1.0933
 8732SOL    MW434702   2.210   3.444   5.816  0.1585  0.3494  0.1338
 8733SOL     OW34703   0.672   3.527   1.758  0.0450  0.4931  0.2392
 8733SOL    HW234704   0.629   3.450   1.793 -0.5246  0.1604 -1.1489
 8733SOL    HW334705   0.758   3.527   1.800 -0.4525 -0.1036  1.3000
 8733SOL    MW434706   0.678   3.517   1.768 -0.5456  0.3778  0.1215
 8734SOL     OW34707   3.885   2.891   2.488 -0.3838 -0.5070  0.6603
 8734SOL    HW234708   3.929   2.921   2.568  0.7548 -0.8496  0.1813
 8734SOL    HW334709   3.952   2.841   2.441 -1.1283 -0.5654 -0.3749
 8734SOL    MW434710   3.900   2.888   2.493  0.3754  0.2908 -0.2087
 8735SOL     OW34711   6.068   2.880   4.916 -0.1711 -0.0977  0.0015
 8735SOL    HW234712   6.102   2.954   4.967 -0.4290 -0.9390  1.4539
 8735SOL    HW334713   6.000   2.917   4.861  0.8374  1.0287 -0.5331
 8735SOL    MW434714   6.064   2.894   4.916  0.6734  0.0334  0.0282
 8736SOL     OW34715   4.419   3.516   0.281  0.7485 -0.0423  0.6048
 8736SOL    HW234716   4.355   3.458   0.240  0.4075  0.4443  0.4457
 8736SOL    HW334717   4.376   3.549   0.360  1.2644 -0.6802  1.1617
 8736SOL    MW434718   4.405   3.513   0.286 -0.4910 -0.1763  0.0240
 8737SOL     OW34719   5.647   0.865   4.603  0.2497 -0.3257  0.4262
 8737SOL    HW234720   5.626   0.958   4.614  0.8048 -0.1261 -0.1762
 8737SOL    HW334721   5.741   0.859   4.621  0.6058 -0.4586 -1.2965
 8737SOL    MW434722   5.656   0.876   4.607  0.2932  0.2002 -0.0824
 8738SOL     OW34723   5.429   4.097   6.308 -0.3506 -1.0207 -0.6108
 8738SOL    HW234724   5.484   4.142   6.372 -1.4401 -2.0079  1.0952
 8738SOL    HW334725   5.362   4.161   6.284 -0.9625 -1.1894  0.5949
 8738SOL    MW434726   5.427   4.112   6.313 -0.0532 -0.2901 -0.2166
 8739SOL     OW34727   5.441   3.968   3.422 -0.2130  0.1267 -0.1658
 8739SOL    HW234728   5.393   4.024   3.362  1.0828 -2.1531 -3.6138
 8739SOL    HW334729   5.376   3.942   3.487 -1.3906  3.6238  0.2758
 8739SOL    MW434730   5.426   3.972   3.423  0.4596 -0.4826  0.3796
 8740SOL     OW34731   0.153   5.960   1.813 -0.5294 -0.2890  0.6415
 8740SOL    HW234732   0.112   5.976   1.897 -0.7092 -0.1961  0.5362
 8740SOL    HW334733   0.127   6.035   1.759 -0.8286 -0.6002  0.3480
 8740SOL    MW434734   0.144   5.972   1.817 -0.1930 -0.3842  0.1881
 8741SOL     OW34735   0.649   3.043   4.040  0.5334 -0.0017  0.2911
 8741SOL    HW234736   0.741   3.047   4.013  0.8110 -1.0611  0.9776
 8741SOL    HW334737   0.647   2.973   4.106 -1.0328 -1.0648 -0.8026
 8741SOL    MW434738   0.661   3.034   4.045  0.1990 -0.8926 -0.3694
 8742SOL     OW34739   4.272   1.718   0.835 -0.1518  0.0915  0.2688
 8742SOL    HW234740   4.182   1.699   0.860 -1.4396  1.6774 -2.6936
 8742SOL    HW334741   4.292   1.653   0.768  0.3501  0.6530 -0.1351
 8742SOL    MW434742   4.263   1.707   0.830  0.4890  0.1153  0.6883
 8743SOL     OW34743   3.276   0.091   4.061  0.1090  0.5248  0.1078
 8743SOL    HW234744   3.319   0.045   3.990 -0.5251 -0.6088  0.4282
 8743SOL    HW334745   3.206   0.141   4.019  0.2738  0.5341 -0.1558
 8743SOL    MW434746   3.272   0.092   4.046  0.2409 -0.1930 -0.2622
 8744SOL     OW34747   4.266   4.300   2.974 -0.9554  0.6812 -0.3040
 8744SOL    HW234748   4.214   4.228   2.939 -0.0416 -0.8950  1.3644
 8744SOL    HW334749   4.300   4.345   2.897 -0.7748 -1.2749 -1.4428
 8744SOL    MW434750   4.264   4.297   2.959  0.2612 -0.6215 -0.1991
 8745SOL     OW34751   1.011   6.232   3.612 -0.9643 -1.2330 -0.1507
 8745SOL    HW234752   1.012   6.191   3.525  2.2907 -0.1565 -0.7641
 8745SOL    HW334753   1.000   6.325   3.595 -0.1727 -0.9976  0.5591
 8745SOL    MW434754   1.010   6.239   3.599  0.1303 -0.5836  0.1627
 8746SOL     OW34755   1.940   1.061   4.876  0.3712 -0.8083 -0.1852
 8746SOL    HW234756   2.036   1.056   4.875  0.3745 -2.0052  1.8129
 8746SOL    HW334757   1.921   1.144   4.921  0.5062 -1.4502  1.0936
 8746SOL    MW434758   1.950   1.071   4.882 -0.0948  0.0759 -0.3429
 8747SOL     OW34759   3.916   5.541   2.600 -0.2662  0.6585  0.1891
 8747SOL    HW234760   3.859   5.466   2.587  0.6101  0.0116 -0.0477
 8747SOL    HW334761   3.859   5.609   2.637 -1.4761  0.5043 -1.3012
 8747SOL    MW434762   3.901   5.540   2.604 -0.2570 -0.1570 -0.6786
 8748SOL     OW34763   4.376   0.290   3.018  0.2942  0.4792 -0.0407
 8748SOL    HW234764   4.378   0.214   2.960  0.9525  1.6736 -1.6630
 8748SOL    HW334765   4.302   0.343   2.986  0.6604  1.1490  0.1874
 8748SOL    MW434766   4.367   0.287   3.006 -0.3873  0.6619  0.0082
 8749SOL     OW34767   1.733   1.134   3.157  0.0901  0.2545 -0.0017
 8749SOL    HW234768   1.650   1.168   3.189  0.8901 -1.2556  4.3614
 8749SOL    HW334769   1.793   1.208   3.163  0.0799  0.1643  1.7696
 8749SOL    MW434770   1.730   1.148   3.162 -0.1100  0.1264 -0.1292
 8750SOL     OW34771   4.830   4.450   0.228  0.3448  0.3883  0.0563
 8750SOL    HW234772   4.791   4.532   0.199 -0.8959 -0.2919 -0.2636
 8750SOL    HW334773   4.812   4.388   0.157 -1.5167 -0.9592  1.5989
 8750SOL    MW434774   4.823   4.453   0.215 -0.4748 -0.9975 -0.2088
 8751SOL     OW34775   2.758   4.216   4.813  0.1901 -0.2967  0.0673
 8751SOL    HW234776   2.769   4.123   4.833  1.5661  0.1146  1.4382
 8751SOL    HW334777   2.663   4.228   4.809 -0.0865 -1.3629  2.0372
 8751SOL    MW434778   2.747   4.205   4.815 -0.3169 -0.2155 -0.7114
 8752SOL     OW34779   3.433   5.881   3.032  0.1304  0.4467  0.6835
 8752SOL    HW234780   3.429   5.786   3.041 -1.2778  0.5085  0.9946
 8752SOL    HW334781   3.433   5.896   2.938  1.5324  0.1274  0.6111
 8752SOL    MW434782   3.432   5.870   3.021  0.4456 -0.1903 -0.2782
 8753SOL     OW34783   5.066   2.729   0.310  0.2616 -0.0736  0.1767
 8753SOL    HW234784   5.119   2.652   0.287  1.5425  0.5766  0.8298
 8753SOL    HW334785   5.079   2.738   0.404  0.3185  1.0846  0.0620
 8753SOL    MW434786   5.075   2.720   0.319 -0.3308  0.0645  0.4668
 8754SOL     OW34787   5.022   3.827   1.531  0.8797  0.1240  0.2170
 8754SOL    HW234788   5.003   3.920   1.545  2.3933  0.4536  0.2814
 8754SOL    HW334789   5.116   3.819   1.546  0.8559 -1.3516 -0.2075
 8754SOL    MW434790   5.032   3.838   1.535  0.0837 -0.2803  0.1778
 8755SOL     OW34791   5.857   3.274   5.618 -0.6010 -0.2148  0.4437
 8755SOL    HW234792   5.850   3.246   5.527  1.8187  1.3465 -0.3511
 8755SOL    HW334793   5.896   3.200   5.664 -0.8279 -0.6354 -0.0421
 8755SOL    MW434794   5.861   3.261   5.612 -0.8915  0.5122  0.3577
 8756SOL     OW34795   6.369   3.702   3.549 -0.0516  0.1414 -0.0301
 8756SOL    HW234796   6.421   3.663   3.479 -0.1414 -0.8958  0.4591
 8756SOL    HW334797   6.431   3.754   3.600 -0.2559  2.2067 -1.7393
 8756SOL    MW434798   6.384   3.704   3.546  0.2131  0.7509  0.4552
 8757SOL     OW34799   4.570   4.361   0.665 -0.2557  0.0592  0.3918
 8757SOL    HW234800   4.474   4.370   0.664 -0.1499  1.3927 -0.5284
 8757SOL    HW334801   4.602   4.440   0.621  1.2885 -0.2423  0.9041
 8757SOL    MW434802   4.561   4.373   0.659 -0.5537  0.0410  0.1750
 8758SOL     OW34803   5.580   3.341   3.211 -0.4656 -0.5936  0.7923
 8758SOL    HW234804   5.519   3.267   3.207 -0.8923 -0.2082 -0.0594
 8758SOL    HW334805   5.620   3.344   3.125  0.8336 -0.8858  1.3651
 8758SOL    MW434806   5.577   3.332   3.199  0.6455 -0.3123  0.1378
 8759SOL     OW34807   0.530   5.694   5.421  0.2656 -0.5449 -0.4414
 8759SOL    HW234808   0.487   5.739   5.348  0.7246 -1.6428 -1.4080
 8759SOL    HW334809   0.620   5.681   5.392 -0.1993 -3.4532 -0.8819
 8759SOL    MW434810   0.536   5.699   5.407 -0.0477 -0.3791 -0.0163
 8760SOL     OW34811   0.910   5.441   5.353  0.0122  0.3688 -0.0879
 8760SOL    HW234812   0.947   5.417   5.437  2.0002 -0.5380 -1.1663
 8760SOL    HW334813   0.901   5.358   5.305 -0.2431  0.9506 -1.0944
 8760SOL    MW434814   0.913   5.427   5.358  0.5034 -0.5020 -0.9993
 8761SOL     OW34815   0.235   2.127   2.430  0.3125  0.5471  0.2321
 8761SOL    HW234816   0.204   2.078   2.354  0.1044  2.5448 -1.0401
 8761SOL    HW334817   0.222   2.067   2.504 -1.2391 -0.7711 -1.0316
 8761SOL    MW434818   0.229   2.112   2.430  0.4240 -0.2799  0.1476
 8762SOL     OW34819   3.617   5.281   4.043  0.1369  0.4336  0.2927
 8762SOL    HW234820   3.700   5.248   4.077  1.1927  0.5874 -1.9680
 8762SOL    HW334821   3.635   5.303   3.952 -2.0175  1.9018  0.1386
 8762SOL    MW434822   3.630   5.279   4.036 -0.3926 -0.2524  0.4109
 8763SOL     OW34823   5.649   6.117   5.383  0.2212 -0.0803  0.0777
 8763SOL    HW234824   5.616   6.194   5.430  0.5546  0.4431 -0.5199
 8763SOL    HW334825   5.574   6.087   5.331  0.1495 -0.0250  0.1483
 8763SOL    MW434826   5.635   6.123   5.382 -0.5450  0.3771  0.3953
 8764SOL     OW34827   6.325   1.196   0.069 -0.0618  0.2273  0.1226
 8764SOL    HW234828   6.290   1.184  -0.019  0.8609 -0.4588 -0.1647
 8764SOL    HW334829   6.301   1.286   0.093 -2.1165 -0.2454  0.0125
 8764SOL    MW434830   6.317   1.206   0.061  0.0109  0.0497  0.2373
 8765SOL     OW34831   2.302   2.850   2.113 -0.0286 -0.4770 -0.1287
 8765SOL    HW234832   2.349   2.921   2.157 -0.3035 -0.9611  0.9810
 8765SOL    HW334833   2.225   2.834   2.168 -0.6745 -0.7581 -1.0718
 8765SOL    MW434834   2.298   2.857   2.126  0.5474  0.6034 -0.7532
 8766SOL     OW34835   1.906   3.694   3.799 -0.1142 -0.0039  0.3585
 8766SOL    HW234836   1.822   3.657   3.773  0.3994 -0.6819 -0.4078
 8766SOL    HW334837   1.888   3.787   3.815 -0.8346  0.0429 -0.6307
 8766SOL    MW434838   1.893   3.701   3.797  0.1088 -0.2489 -0.1800
 8767SOL     OW34839   4.736   5.354   0.559  0.2248 -0.3271  0.3864
 8767SOL    HW234840   4.765   5.442   0.535  0.5894 -0.8617 -1.2392
 8767SOL    HW334841   4.764   5.344   0.650  1.8950  0.5137 -0.0025
 8767SOL    MW434842   4.743   5.365   0.568 -0.1626  0.0613 -0.0422
 8768SOL     OW34843   2.413   0.134   6.350  0.2881 -0.1722  0.1134
 8768SOL    HW234844   2.440   0.114   6.260  0.3583 -1.3075  0.3724
 8768SOL    HW334845   2.465   0.075   6.404  0.3481  0.5992  0.9201
 8768SOL    MW434846   2.424   0.123   6.345 -0.1444 -0.4827  0.0227
 8769SOL     OW34847   1.441   2.814   3.543  0.3047 -0.3757 -0.5327
 8769SOL    HW234848   1.429   2.893   3.595  1.0356 -0.8703  0.4309
 8769SOL    HW334849   1.355   2.796   3.506  0.3286  1.3948 -1.5928
 8769SOL    MW434850   1.428   2.822   3.545 -0.3483  0.0407  0.0308
 8770SOL     OW34851   3.913   3.913   1.270  0.0350  0.2145  0.5854
 8770SOL    HW234852   3.954   3.830   1.296  1.7517  0.8836  0.1751
 8770SOL    HW334853   3.956   3.935   1.187 -0.9800  1.1176  0.2848
 8770SOL    MW434854   3.924   3.905   1.263 -0.1466  0.5095  0.1724
 8771SOL     OW34855   1.597   1.509   1.356  0.8234  0.1189 -0.0092
 8771SOL    HW234856   1.526   1.565   1.325  0.5535 -0.3712 -0.2994
 8771SOL    HW334857   1.650   1.493   1.278  0.2145 -1.0162 -0.2182
 8771SOL    MW434858   1.594   1.514   1.341  0.0825  0.0375 -0.7994
 8772SOL     OW34859   5.517   0.311   2.714 -0.4207 -0.3722  0.2222
 8772SOL    HW234860   5.554   0.317   2.802 -0.8717 -0.1622  0.4003
 8772SOL    HW334861   5.592   0.291   2.658  0.2333  1.4305  0.3669
 8772SOL    MW434862   5.532   0.309   2.718 -0.2527 -0.6291  0.6173
 8773SOL     OW34863   4.502   6.344   6.312 -0.2323  0.2314 -0.0125
 8773SOL    HW234864   4.523   6.381   6.226 -1.7199 -0.0671 -0.5271
 8773SOL    HW334865   4.528   6.412   6.374 -0.8333  1.2249 -0.8163
 8773SOL    MW434866   4.509   6.358   6.309  0.3747 -0.6021 -0.7975
 8774SOL     OW34867   3.821   4.538   3.535  0.2154 -0.9411  0.4296
 8774SOL    HW234868   3.825   4.557   3.441  1.7083 -0.7608  0.5022
 8774SOL    HW334869   3.893   4.590   3.573 -1.2272  0.1035  1.8854
 8774SOL    MW434870   3.831   4.548   3.528  0.1403  0.1317  0.3276
 8775SOL     OW34871   4.235   4.496   4.033 -0.2700  0.2641 -0.3314
 8775SOL    HW234872   4.318   4.457   4.060  0.4193  1.3270 -0.8473
 8775SOL    HW334873   4.172   4.465   4.098  0.5437 -0.4914  0.1166
 8775SOL    MW434874   4.238   4.487   4.045  0.3103  0.2468  0.1781
 8776SOL     OW34875   1.860   0.563   4.270 -0.0749 -0.1057  0.0266
 8776SOL    HW234876   1.914   0.640   4.254 -1.1233  0.0369 -3.5263
 8776SOL    HW334877   1.771   0.597   4.278 -0.5020 -0.8575 -1.2266
 8776SOL    MW434878   1.855   0.578   4.269  0.1704 -0.3583  0.1078
 8777SOL     OW34879   2.513   3.093   2.981 -0.7371  0.3300 -0.1533
 8777SOL    HW234880   2.596   3.133   3.008 -1.4713  1.5276  0.4173
 8777SOL    HW334881   2.528   2.999   2.992  0.3196  0.5609  0.6299
 8777SOL    MW434882   2.526   3.086   2.986 -0.3152  0.0763 -0.2741
 8778SOL     OW34883   2.204   0.569   1.258 -0.3792  0.0025  0.6175
 8778SOL    HW234884   2.213   0.632   1.186 -1.8336 -0.5181 -0.0592
 8778SOL    HW334885   2.241   0.614   1.334  1.8327  0.3221 -0.5466
 8778SOL    MW434886   2.210   0.583   1.258 -0.1388  0.1375 -0.1229
 8779SOL     OW34887   0.489   3.168   0.345 -0.0453 -0.2854  0.2306
 8779SOL    HW234888   0.491   3.073   0.337 -0.0730 -0.4144  1.5420
 8779SOL    HW334889   0.579   3.193   0.365  0.1173  0.0614 -0.8399
 8779SOL    MW434890   0.501   3.159   0.346  0.6749 -0.2063 -0.1558
 8780SOL     OW34891   1.271   1.013   3.506  0.1604  0.2076  0.5496
 8780SOL    HW234892   1.203   0.947   3.523 -0.6588  0.1829 -2.3574
 8780SOL    HW334893   1.340   0.966   3.460  1.1337  0.7352  1.4250
 8780SOL    MW434894   1.271   0.998   3.502  0.1295 -0.3649  0.3227
 8781SOL     OW34895   2.951   0.964   5.964 -0.1044 -0.3496 -0.0649
 8781SOL    HW234896   2.893   0.987   5.892  1.5135  1.3276 -0.9218
 8781SOL    HW334897   3.031   1.015   5.947  0.5448 -0.3609  2.6003
 8781SOL    MW434898   2.954   0.974   5.952 -0.7552 -0.0854 -0.1752
 8782SOL     OW34899   1.808   4.349   1.683 -0.0327 -0.2470  0.3793
 8782SOL    HW234900   1.807   4.444   1.674  0.6733 -0.2320  0.3838
 8782SOL    HW334901   1.719   4.322   1.663 -0.0387  0.3395 -0.4580
 8782SOL    MW434902   1.796   4.358   1.679 -0.5499 -0.1638 -0.1427
 8783SOL     OW34903   1.941   4.296   3.031  0.4433 -0.1732  0.0824
 8783SOL    HW234904   2.035   4.313   3.038  0.5952 -1.1400  0.5771
 8783SOL    HW334905   1.901   4.351   3.098  0.8014 -0.7944  0.8206
 8783SOL    MW434906   1.948   4.306   3.041  0.3085 -0.4511  0.6333
 8784SOL     OW34907   2.394   6.207   5.531  0.6263 -0.0370 -0.0626
 8784SOL    HW234908   2.368   6.210   5.439 -1.0959 -0.6636  0.3637
 8784SOL    HW334909   2.460   6.276   5.540 -0.6561  1.4495 -1.3357
 8784SOL    MW434910   2.399   6.217   5.520  0.1321 -0.8984 -0.3304
 8785SOL     OW34911   5.698   1.891   1.309  0.2901  0.0933  0.5523
 8785SOL    HW234912   5.639   1.965   1.320 -2.1177 -1.5493 -0.5442
 8785SOL    HW334913   5.665   1.845   1.232  3.4598 -0.5657 -0.5450
 8785SOL    MW434914   5.686   1.894   1.300 -0.4663 -0.2434  0.2988
 8786SOL     OW34915   0.497   2.817   3.578 -0.2702  0.3400 -0.0094
 8786SOL    HW234916   0.526   2.852   3.662 -1.2483 -1.6254  1.2174
 8786SOL    HW334917   0.577   2.810   3.526  0.2915  1.9649  0.5775
 8786SOL    MW434918   0.512   2.821   3.582  0.1514 -0.0898  0.2375
 8787SOL     OW34919   2.834   1.253   1.246  0.1345 -0.5392 -0.0955
 8787SOL    HW234920   2.774   1.320   1.212  1.0028  0.3866  0.1434
 8787SOL    HW334921   2.911   1.259   1.189  0.3417 -1.1408  0.1171
 8787SOL    MW434922   2.836   1.263   1.234  0.0115  0.5059  0.0632
 8788SOL     OW34923   5.086   0.250   0.651  0.0249  0.1395 -0.3401
 8788SOL    HW234924   5.046   0.165   0.668  2.0488 -1.1782 -1.7440
 8788SOL    HW334925   5.021   0.298   0.600  0.0732 -1.8569 -2.3924
 8788SOL    MW434926   5.072   0.245   0.647  0.3804  0.3537 -0.2321
 8789SOL     OW34927   5.807   0.910   3.430 -0.6120 -0.3175 -0.3295
 8789SOL    HW234928   5.870   0.934   3.362  0.4538 -2.2212 -0.0503
 8789SOL    HW334929   5.757   0.838   3.391 -2.2718  0.7627 -0.3176
 8789SOL    MW434930   5.808   0.904   3.416  0.0765  0.0821  0.7392
 8790SOL     OW34931   3.474   1.292   3.981 -0.8741 -0.1417  0.2626
 8790SOL    HW234932   3.509   1.205   3.961 -1.8832 -1.1689  2.5242
 8790SOL    HW334933   3.390   1.295   3.935  0.9474  1.4191 -3.2856
 8790SOL    MW434934   3.467   1.281   3.973 -0.0097  0.1201  0.0983
 8791SOL     OW34935   0.539   5.167   4.974 -0.0072  0.1144  0.5912
 8791SOL    HW234936   0.610   5.227   4.996 -1.4632  2.8699 -1.6835
 8791SOL    HW334937   0.479   5.172   5.049  0.5583  0.3941  1.0325
 8791SOL    MW434938   0.540   5.175   4.987 -0.3198  0.0401 -0.0917
 8792SOL     OW34939   4.158   0.634   0.935  0.2892  0.3969 -0.6192
 8792SOL    HW234940   4.149   0.538   0.936 -0.7867  0.4416 -2.3329
 8792SOL    HW334941   4.097   0.664   1.003  1.6736 -0.1415  0.9427
 8792SOL    MW434942   4.149   0.625   0.944  0.3940  0.2848  0.4184
 8793SOL     OW34943   1.278   4.769   4.327  0.5932 -0.0721 -0.6149
 8793SOL    HW234944   1.323   4.836   4.379 -2.0945  1.6672 -0.3301
 8793SOL    HW334945   1.221   4.724   4.390  1.7098 -2.0885 -0.9761
 8793SOL    MW434946   1.276   4.772   4.342 -0.0966 -0.2246 -0.8013
 8794SOL     OW34947   3.539   5.158   4.718  0.0811  0.1977  0.2600
 8794SOL    HW234948   3.511   5.076   4.757 -0.6883  0.2563 -0.1586
 8794SOL    HW334949   3.606   5.133   4.654  1.3635  0.1021  1.5762
 8794SOL    MW434950   3.544   5.144   4.714 -0.0447  0.7496  0.2591
 8795SOL     OW34951   3.666   1.498   3.059  0.6418  0.1520  0.6076
 8795SOL    HW234952   3.598   1.462   3.003  2.1709  0.3059 -1.4389
 8795SOL    HW334953   3.668   1.440   3.135  0.2710 -1.6217 -0.6969
 8795SOL    MW434954   3.657   1.486   3.062 -0.3218  0.7769  0.3255
 8796SOL     OW34955   5.567   0.381   4.029  0.5604 -0.3579 -0.1381
 8796SOL    HW234956   5.512   0.456   4.052  2.5433  0.9361  0.5752
 8796SOL    HW334957   5.515   0.333   3.964 -0.5831  1.8901 -1.0133
 8796SOL    MW434958   5.553   0.385   4.023 -0.0313  0.9406  0.3829
 8797SOL     OW34959   1.507   1.504   0.228 -0.0326  0.6973  0.0526
 8797SOL    HW234960   1.588   1.547   0.255 -0.5675  1.7243  0.0612
 8797SOL    HW334961   1.483   1.549   0.146 -0.2048 -0.0986 -0.3394
 8797SOL    MW434962   1.515   1.516   0.220  0.2692 -0.0511  0.1918
 8798SOL     OW34963   0.948   0.363   3.473  0.0669  0.0451 -0.3252
 8798SOL    HW234964   0.986   0.375   3.386  2.5104 -1.2300  0.4807
 8798SOL    HW334965   0.984   0.435   3.525  0.6139 -0.5753  0.1867
 8798SOL    MW434966   0.958   0.374   3.469 -0.7466 -0.1965  0.0464
 8799SOL     OW34967   6.407   3.373   0.163  0.1240 -0.5165  0.2351
 8799SOL    HW234968   6.397   3.443   0.099 -0.5091 -0.8992 -0.0937
 8799SOL    HW334969   6.494   3.336   0.144 -0.4257 -1.2391 -1.0520
 8799SOL    MW434970   6.417   3.377   0.152  0.0560 -0.3331  0.3360
 8800SOL     OW34971   4.525   1.322   1.891  0.0907 -0.2045  0.2662
 8800SOL    HW234972   4.514   1.316   1.986 -0.1787  2.1844  0.4400
 8800SOL    HW334973   4.613   1.288   1.875  0.3198 -0.1971  1.4232
 8800SOL    MW434974   4.535   1.316   1.902  0.4388 -0.0944  0.2649
 8801SOL     OW34975   2.662   5.412   4.197  0.2750 -0.1875 -0.4764
 8801SOL    HW234976   2.692   5.482   4.139 -0.8274  0.6927 -0.0217
 8801SOL    HW334977   2.598   5.363   4.146  0.4049 -0.3340 -0.5001
 8801SOL    MW434978   2.658   5.415   4.183  0.4373 -0.4702 -0.7024
 8802SOL     OW34979   6.183   5.324   0.800 -0.1243 -0.0160 -0.1772
 8802SOL    HW234980   6.121   5.333   0.872  0.2175 -0.9796  0.2526
 8802SOL    HW334981   6.144   5.260   0.742 -0.3548  0.6916 -0.8081
 8802SOL    MW434982   6.170   5.317   0.802 -0.1216 -0.0774  0.4836
 8803SOL     OW34983   3.057   5.691   0.950  0.1925  0.2049  0.5552
 8803SOL    HW234984   3.003   5.677   1.028  0.3935  1.7314  0.9914
 8803SOL    HW334985   3.108   5.769   0.969  0.5817  0.3499 -0.9316
 8803SOL    MW434986   3.056   5.699   0.963 -0.0113 -0.0521 -0.0592
 8804SOL     OW34987   2.460   6.257   4.533 -0.4484 -1.0289 -0.7742
 8804SOL    HW234988   2.432   6.240   4.442 -1.8474 -3.0540 -0.0509
 8804SOL    HW334989   2.378   6.271   4.581  0.2529 -0.3184  0.2401
 8804SOL    MW434990   2.445   6.256   4.527 -0.7215 -0.0310  0.1877
 8805SOL     OW34991   5.856   4.044   2.250  0.0178  0.0578 -0.3356
 8805SOL    HW234992   5.913   3.978   2.291 -0.3285  0.8179  1.4281
 8805SOL    HW334993   5.798   3.993   2.194  1.7531 -0.8355 -1.4123
 8805SOL    MW434994   5.856   4.028   2.248 -0.0871  0.1481  0.1786
 8806SOL     OW34995   4.359   4.686   3.181  0.0440 -0.3159 -0.1955
 8806SOL    HW234996   4.282   4.631   3.185  0.1208 -0.4716 -0.7615
 8806SOL    HW334997   4.325   4.776   3.187 -0.3743 -0.2879 -2.3408
 8806SOL    MW434998   4.345   4.691   3.183 -0.1169  0.2542 -0.1380
 8807SOL     OW34999   4.848   2.518   5.811  0.3395  0.1624  0.2075
 8807SOL    HW235000   4.940   2.542   5.817 -0.0210  2.4341 -1.6545
 8807SOL    HW335001   4.807   2.562   5.886  0.8204 -1.4632  1.4676
 8807SOL    MW435002   4.855   2.527   5.822 -0.1412 -0.2579  0.3409
 8808SOL     OW35003   4.547   4.650   4.025  0.2705  0.2637 -0.6383
 8808SOL    HW235004   4.638   4.679   4.030 -0.0020  1.1859 -0.8363
 8808SOL    HW335005   4.525   4.623   4.114  0.8010 -0.1630 -0.6353
 8808SOL    MW435006   4.556   4.650   4.038 -0.3245 -0.3769 -0.1320
 8809SOL     OW35007   1.622   4.421   4.277 -0.0937 -0.4082 -0.1544
 8809SOL    HW235008   1.614   4.411   4.182  0.0948 -1.2165 -0.0940
 8809SOL    HW335009   1.716   4.431   4.292 -0.2047  0.6120 -0.1292
 8809SOL    MW435010   1.633   4.421   4.266 -0.3490  0.2844 -0.2190
 8810SOL     OW35011   4.235   2.309   0.390 -0.2431 -0.5218 -0.1880
 8810SOL    HW235012   4.215   2.281   0.479  0.3927  0.4527  0.2872
 8810SOL    HW335013   4.172   2.379   0.371  0.1969 -0.0993 -0.1396
 8810SOL    MW435014   4.224   2.315   0.399 -0.6254  0.1965  0.2346
 8811SOL     OW35015   5.911   2.330   2.991  0.3120 -0.0360 -0.3080
 8811SOL    HW235016   5.905   2.347   2.897  0.5212  1.0411 -0.1402
 8811SOL    HW335017   5.840   2.380   3.029  0.8810  0.3890  0.2077
 8811SOL    MW435018   5.901   2.339   2.983 -0.1323  0.4187 -0.7784
 8812SOL     OW35019   2.582   0.855   2.123  0.0891 -0.2440  0.8100
 8812SOL    HW235020   2.519   0.872   2.193  0.6223 -2.3271  1.8709
 8812SOL    HW335021   2.529   0.846   2.044 -0.8082 -0.6213  1.4430
 8812SOL    MW435022   2.567   0.856   2.121  0.0604  0.5714 -0.4232
 8813SOL     OW35023   0.915   1.649   5.680 -0.2449 -0.3880  0.4127
 8813SOL    HW235024   0.821   1.667   5.684 -0.3628 -0.3855 -1.4996
 8813SOL    HW335025   0.941   1.636   5.772 -2.0446 -0.1402  0.9959
 8813SOL    MW435026   0.906   1.650   5.693  0.6706  0.0090  0.2003
 8814SOL     OW35027   6.149   5.013   6.325  0.5001  0.3921 -0.4702
 8814SOL    HW235028   6.132   5.097   6.283  0.4704  1.0163  0.7383
 8814SOL    HW335029   6.068   4.964   6.314  0.6471  0.3716 -1.5121
 8814SOL    MW435030   6.136   5.018   6.318  0.2717  0.1320  0.2737
 8815SOL     OW35031   2.300   0.651   5.551  0.3068 -0.5053  0.0457
 8815SOL    HW235032   2.392   0.629   5.565  0.7176  0.6881 -0.6381
 8815SOL    HW335033   2.277   0.609   5.468  0.6790  0.4068 -0.5353
 8815SOL    MW435034   2.309   0.643   5.542  0.0921 -0.6472 -0.2442
 8816SOL     OW35035   2.289   2.670   0.410  0.0182 -0.6478  0.5439
 8816SOL    HW235036   2.326   2.715   0.335 -2.1678 -0.3479 -0.4381
 8816SOL    HW335037   2.214   2.723   0.436  0.5169 -0.9223  2.7702
 8816SOL    MW435038   2.284   2.683   0.404  0.1504  0.1427  0.5016
 8817SOL     OW35039   5.124   3.477   1.823 -0.1907  0.1658 -0.3197
 8817SOL    HW235040   5.199   3.418   1.809 -0.1890  0.1817 -0.3800
 8817SOL    HW335041   5.154   3.539   1.890 -1.2057 -1.7269  2.0414
 8817SOL    MW435042   5.138   3.477   1.830  0.3223 -0.3089 -0.2917
 8818SOL     OW35043   0.865   4.214   1.717  0.7504 -0.2691  0.0690
 8818SOL    HW235044   0.791   4.271   1.698  0.8339  0.5687  1.9694
 8818SOL    HW335045   0.941   4.260   1.682  0.6140 -0.0807  0.0231
 8818SOL    MW435046   0.866   4.227   1.710 -0.0308 -0.0390 -0.0888
 8819SOL     OW35047   5.579   2.107   5.000  0.0124 -0.0005  0.0277
 8819SOL    HW235048   5.654   2.047   5.007  0.0781  0.0852  0.0642
 8819SOL    HW335049   5.619   2.193   4.985 -0.0831  0.0235 -0.0967
 8819SOL    MW435050   5.595   2.110   4.999  0.1062  0.3006  0.0846
 8820SOL     OW35051   0.301   0.839   2.237 -0.3791  0.0465 -0.2579
 8820SOL    HW235052   0.388   0.828   2.200 -0.5435  0.0114 -0.6430
 8820SOL    HW335053   0.315   0.843   2.331 -0.0722 -1.1294 -0.2360
 8820SOL    MW435054   0.314   0.838   2.245  0.1824 -0.4380 -0.1716
 8821SOL     OW35055   0.006   1.598   4.697  0.6837 -0.4472 -0.1447
 8821SOL    HW235056   0.008   1.522   4.755  0.1181  0.3453  0.9702
 8821SOL    HW335057  -0.083   1.600   4.661  0.5249 -0.0323  0.2517
 8821SOL    MW435058  -0.006   1.588   4.700 -0.1118  0.2716 -0.7246
 8822SOL     OW35059   0.233   4.577   1.225 -0.1399 -0.5450 -0.6154
 8822SOL    HW235060   0.283   4.614   1.298 -1.0236  3.7716 -1.9737
 8822SOL    HW335061   0.146   4.615   1.234 -1.4417 -3.0035 -1.8436
 8822SOL    MW435062   0.229   4.587   1.236 -0.3370 -0.3537 -0.2702
 8823SOL     OW35063   3.108   0.100   4.997  0.1288  0.2021 -0.7411
 8823SOL    HW235064   3.101   0.193   4.975  0.6410  0.1831 -0.9951
 8823SOL    HW335065   3.036   0.059   4.949 -0.4764  0.5452 -0.1429
 8823SOL    MW435066   3.097   0.107   4.987 -0.3933  0.0723 -0.8679
 8824SOL     OW35067   2.308   4.601   2.122  0.2046 -0.4926 -0.1182
 8824SOL    HW235068   2.242   4.547   2.079 -1.2622  0.3795  0.9398
 8824SOL    HW335069   2.258   4.658   2.181  1.9771 -0.5152  1.5211
 8824SOL    MW435070   2.292   4.601   2.124 -0.4892  0.3350 -0.0133
 8825SOL     OW35071   5.727   5.444   1.306  0.0511  0.3691 -0.1667
 8825SOL    HW235072   5.723   5.513   1.372 -0.6353  0.4999 -0.3426
 8825SOL    HW335073   5.770   5.484   1.231  0.0978  0.4583 -0.0919
 8825SOL    MW435074   5.732   5.458   1.305 -0.4143  0.2297  0.4274
 8826SOL     OW35075   1.522   2.238   5.730  0.2274  0.3482  0.6749
 8826SOL    HW235076   1.507   2.191   5.811 -0.0066  1.3848  1.2464
 8826SOL    HW335077   1.543   2.327   5.757  0.8567  0.5375 -0.3756
 8826SOL    MW435078   1.522   2.243   5.744  0.3119  0.0948 -0.2267
 8827SOL     OW35079   5.097   4.003   6.403 -0.0966  0.1530  0.0504
 8827SOL    HW235080   5.056   3.993   6.317 -0.5174 -1.5508  0.4080
 8827SOL    HW335081   5.171   3.942   6.401 -0.9497 -0.9861  1.3603
 8827SOL    MW435082   5.101   3.994   6.391 -0.1115  0.5598 -0.0776
 8828SOL     OW35083   2.712   5.153   6.306 -0.0359  0.6708  0.7310
 8828SOL    HW235084   2.675   5.217   6.246  2.3933  0.8545 -0.6997
 8828SOL    HW335085   2.638   5.125   6.360 -1.5952  3.0954  0.0085
 8828SOL    MW435086   2.697   5.157   6.305 -0.0747  0.3980  0.0514
 8829SOL     OW35087   3.688   2.499   1.943  0.1029  0.5764 -0.2837
 8829SOL    HW235088   3.776   2.495   1.982  0.3160 -0.3890 -0.8253
 8829SOL    HW335089   3.704   2.500   1.849 -0.4887 -1.2190 -0.4333
 8829SOL    MW435090   3.702   2.499   1.936 -0.0346 -0.3408  0.0270
 8830SOL     OW35091   6.141   1.139   5.670 -0.3179 -0.7933  0.2113
 8830SOL    HW235092   6.207   1.204   5.695 -1.3091  0.8439 -1.2077
 8830SOL    HW335093   6.073   1.148   5.737  0.3242 -1.6312  0.9962
 8830SOL    MW435094   6.140   1.149   5.682  0.3440 -0.3377  0.5781
 8831SOL     OW35095   0.644   0.201   2.120  0.4758 -0.7676 -0.2297
 8831SOL    HW235096   0.737   0.219   2.130  0.5560 -1.6204  0.6480
 8831SOL    HW335097   0.635   0.107   2.133 -0.8122 -0.3932  2.4369
 8831SOL    MW435098   0.655   0.191   2.123 -0.1653 -0.1862 -0.8440
 8832SOL     OW35099   2.676   2.540   1.847  0.5971  0.1418 -0.1039
 8832SOL    HW235100   2.702   2.572   1.761 -0.2032 -0.4105 -0.5619
 8832SOL    HW335101   2.686   2.445   1.842 -0.5229  0.0066  0.0312
 8832SOL    MW435102   2.681   2.532   1.835  0.0391  0.1575 -0.2254
 8833SOL     OW35103   0.463   3.342   6.189 -0.0340  0.6785 -0.0484
 8833SOL    HW235104   0.445   3.263   6.138 -0.8798 -0.0183  1.2740
 8833SOL    HW335105   0.382   3.393   6.185 -0.0896  0.6402  0.5572
 8833SOL    MW435106   0.450   3.338   6.181 -0.0728 -0.2796 -0.1182
 8834SOL     OW35107   6.053   6.037   2.939 -0.3659 -0.4370 -0.4474
 8834SOL    HW235108   6.119   6.106   2.932  0.2773 -1.0770 -0.7898
 8834SOL    HW335109   5.970   6.081   2.917 -0.1219  0.4585  0.3487
 8834SOL    MW435110   6.051   6.052   2.935  0.1735  0.4085 -0.5161
 8835SOL     OW35111   4.577   6.075   2.856  0.0282  0.3176 -0.7632
 8835SOL    HW235112   4.579   6.038   2.768 -0.2993 -1.8815  0.0800
 8835SOL    HW335113   4.668   6.100   2.874  0.5400 -1.2552 -0.9738
 8835SOL    MW435114   4.589   6.073   2.847  0.0158  0.2926 -0.2732
 8836SOL     OW35115   0.873   0.048   2.520 -0.0987 -0.2086  0.0713
 8836SOL    HW235116   0.805   0.017   2.461 -0.5710  1.3848 -0.2699
 8836SOL    HW335117   0.953   0.004   2.490 -0.6362 -0.7011 -0.6790
 8836SOL    MW435118   0.874   0.038   2.508 -0.3627 -0.4125 -0.3866
 8837SOL     OW35119   1.941   3.150   6.017 -0.4436 -1.0925 -0.0192
 8837SOL    HW235120   1.854   3.164   6.054  0.0978  0.3749  0.7790
 8837SOL    HW335121   2.001   3.159   6.091  0.6044  1.1143 -1.0622
 8837SOL    MW435122   1.938   3.153   6.031 -0.1320  0.3469 -0.3312
 8838SOL     OW35123   0.607   2.955   3.796 -0.0593  0.6753  0.2269
 8838SOL    HW235124   0.663   3.009   3.740  1.2852 -0.3857  0.4815
 8838SOL    HW335125   0.618   2.992   3.883 -2.2618  2.4150 -0.1385
 8838SOL    MW435126   0.616   2.967   3.800  0.4114 -0.2473  0.6061
 8839SOL     OW35127   5.933   5.829   6.050  0.1824 -0.3354 -0.4644
 8839SOL    HW235128   5.883   5.911   6.054  0.3926 -0.2237 -0.0281
 8839SOL    HW335129   5.883   5.773   5.991 -0.5957 -0.3187  0.1682
 8839SOL    MW435130   5.920   5.832   6.043  0.2922  0.2026 -0.1193
 8840SOL     OW35131   2.604   6.153   1.861  0.2099  0.1371  0.1765
 8840SOL    HW235132   2.596   6.221   1.928 -0.5650 -0.7791  1.0620
 8840SOL    HW335133   2.698   6.135   1.855  0.1844 -1.1420  2.5034
 8840SOL    MW435134   2.615   6.159   1.869 -0.1382 -0.0418  0.0026
 8841SOL     OW35135   4.749   0.970   1.836  0.7640 -0.1010  0.0536
 8841SOL    HW235136   4.815   0.907   1.808  1.7146 -0.3110  2.5386
 8841SOL    HW335137   4.798   1.052   1.848  0.3941  0.0070  0.9036
 8841SOL    MW435138   4.764   0.973   1.834 -0.0797 -0.2806 -0.3456
 8842SOL     OW35139   0.428   3.700   4.874  0.7263  0.1740 -0.4115
 8842SOL    HW235140   0.406   3.793   4.865 -0.4906 -0.0325  0.1702
 8842SOL    HW335141   0.452   3.689   4.966 -1.3460 -0.4703  0.1159
 8842SOL    MW435142   0.428   3.710   4.885 -0.2992 -0.0591  0.4873
 8843SOL     OW35143   1.458   1.185   1.118  0.1494  0.4867 -0.4965
 8843SOL    HW235144   1.420   1.211   1.202 -1.8495  0.7613 -1.4246
 8843SOL    HW335145   1.471   1.091   1.125  2.0560  0.7833  0.8450
 8843SOL    MW435146   1.455   1.176   1.130 -0.4636 -0.0901  0.3257
 8844SOL     OW35147   2.240   2.091   3.040 -0.2519  0.5040 -0.3283
 8844SOL    HW235148   2.266   2.005   3.007  0.6552  0.0708  1.3609
 8844SOL    HW335149   2.146   2.083   3.057 -0.6992  0.6735 -2.4483
 8844SOL    MW435150   2.231   2.078   3.038  0.2996 -0.4330 -0.4104
 8845SOL     OW35151   0.044   1.514   2.578 -0.0406 -0.4441  0.9194
 8845SOL    HW235152   0.029   1.492   2.486  1.8419 -0.4548  0.5897
 8845SOL    HW335153  -0.043   1.538   2.611 -0.8349 -0.9376 -0.7118
 8845SOL    MW435154   0.030   1.514   2.570  0.0429  0.2617  0.0584
 8846SOL     OW35155   4.833   2.989   0.377  0.1723 -0.2069  0.4412
 8846SOL    HW235156   4.884   2.995   0.297  1.2013 -0.5500  1.0587
 8846SOL    HW335157   4.884   3.036   0.442 -0.0344 -0.9928  1.1909
 8846SOL    MW435158   4.846   2.996   0.375 -0.0818  0.2783  0.6968
 8847SOL     OW35159   3.547   6.276   2.940  0.3348  0.2084  0.2566
 8847SOL    HW235160   3.461   6.260   2.979  0.6071  1.0728  1.2422
 8847SOL    HW335161   3.530   6.276   2.845 -0.3532 -1.7823  0.3336
 8847SOL    MW435162   3.533   6.274   2.932 -0.0214  0.1938 -0.4550
 8848SOL     OW35163   6.256   4.084   0.731 -0.1509  0.3204 -0.3010
 8848SOL    HW235164   6.287   4.112   0.817  0.7387 -0.0685 -0.4800
 8848SOL    HW335165   6.200   4.155   0.701  1.4931  1.6352 -0.4499
 8848SOL    MW435166   6.253   4.097   0.738  0.1796 -0.6589 -0.2177
 8849SOL     OW35167   3.736   2.545   1.329  0.0857 -0.2041  0.2442
 8849SOL    HW235168   3.823   2.540   1.289 -0.8046  0.9607 -2.0209
 8849SOL    HW335169   3.718   2.638   1.336 -1.2578 -0.4265 -0.0077
 8849SOL    MW435170   3.745   2.556   1.325  0.0596 -0.2668  0.2492
 8850SOL     OW35171   5.344   5.050   4.714 -0.2836  0.2532 -0.1634
 8850SOL    HW235172   5.383   5.036   4.628 -3.4190 -2.4512 -1.3443
 8850SOL    HW335173   5.305   5.138   4.708  0.3779  0.5038 -1.1031
 8850SOL    MW435174   5.344   5.060   4.702  0.3593 -0.2078 -0.3090
 8851SOL     OW35175   0.828   0.187   5.358  0.3672 -0.4405 -0.8180
 8851SOL    HW235176   0.836   0.126   5.284  0.6247 -0.3302 -0.8811
 8851SOL    HW335177   0.855   0.271   5.322 -0.9597 -0.0733 -1.0099
 8851SOL    MW435178   0.832   0.190   5.343  0.3098  0.0858 -0.5150
 8852SOL     OW35179   4.033   4.986   0.337  0.4780  0.0178 -0.2570
 8852SOL    HW235180   3.951   4.939   0.327  0.0213  0.8744 -0.6046
 8852SOL    HW335181   4.093   4.944   0.275  0.5051 -1.0116  0.4288
 8852SOL    MW435182   4.030   4.974   0.328  0.0644 -0.0527  0.5405
 8853SOL     OW35183   4.194   0.344   4.838 -0.1227  0.2728 -0.0231
 8853SOL    HW235184   4.234   0.317   4.921  0.9384  0.1969 -0.5426
 8853SOL    HW335185   4.199   0.439   4.839 -0.7477  0.3076  0.2985
 8853SOL    MW435186   4.200   0.353   4.849  0.1355  0.3011 -0.0525
 8854SOL     OW35187   5.184   2.700   4.826 -0.6251  0.3083  0.0807
 8854SOL    HW235188   5.131   2.777   4.845 -0.3489  0.6099 -0.3555
 8854SOL    HW335189   5.234   2.684   4.906 -3.0845 -1.4159  1.4262
 8854SOL    MW435190   5.184   2.708   4.839  0.5246  0.1867  0.0632
 8855SOL     OW35191   0.947   0.083   3.558  0.1742 -0.0826  0.2188
 8855SOL    HW235192   1.012   0.085   3.628 -0.0378  0.4153  0.4114
 8855SOL    HW335193   0.968   0.159   3.504 -0.1024 -0.0570  0.1472
 8855SOL    MW435194   0.958   0.093   3.560  0.0161  0.1481 -0.2915
 8856SOL     OW35195   6.007   3.473   1.731 -0.1342 -0.0756 -0.5880
 8856SOL    HW235196   6.048   3.424   1.803 -0.2802  0.5892 -0.0445
 8856SOL    HW335197   5.963   3.406   1.678 -0.0109 -0.5737 -0.0666
 8856SOL    MW435198   6.007   3.458   1.733 -0.0984  0.1885 -0.6532
 8857SOL     OW35199   6.424   2.756   4.878  0.1631 -0.0778  0.2986
 8857SOL    HW235200   6.350   2.778   4.821  0.5895  0.7745  0.0660
 8857SOL    HW335201   6.493   2.728   4.819  0.4729  0.4193  0.4202
 8857SOL    MW435202   6.423   2.755   4.863 -0.4980 -0.3187  0.0909
 8858SOL     OW35203   4.026   3.723   5.222 -0.4260  0.8942  0.6177
 8858SOL    HW235204   3.989   3.803   5.260  1.2204  1.7464  0.4916
 8858SOL    HW335205   3.968   3.705   5.147  1.5123  4.5175 -2.0815
 8858SOL    MW435206   4.013   3.731   5.217 -0.0280 -0.0580  0.3304
 8859SOL     OW35207   6.241   3.986   4.245  0.0302 -0.3078 -0.3906
 8859SOL    HW235208   6.291   4.017   4.169  0.9447  0.3907  0.4683
 8859SOL    HW335209   6.181   4.058   4.264  1.0878  0.3264  0.6628
 8859SOL    MW435210   6.240   4.000   4.237  0.4019  0.1532  0.6664
 8860SOL     OW35211   6.116   2.265   2.298  0.0898 -0.6190 -0.2233
 8860SOL    HW235212   6.146   2.231   2.214  1.4739 -0.7908  0.3254
 8860SOL    HW335213   6.184   2.240   2.360 -0.9361 -0.5367  0.9683
 8860SOL    MW435214   6.129   2.257   2.295 -0.2115  0.1939  0.8314
 8861SOL     OW35215   3.825   2.291   2.926  0.0202  0.3492 -0.0645
 8861SOL    HW235216   3.822   2.263   3.018  0.6789 -1.7627 -0.6264
 8861SOL    HW335217   3.917   2.310   2.910  0.0834 -0.2977 -0.5316
 8861SOL    MW435218   3.837   2.290   2.936  0.0706  0.3957  0.1538
 8862SOL     OW35219   0.885   3.268   0.667  0.1783 -0.2450  0.3140
 8862SOL    HW235220   0.856   3.358   0.657  1.1598  0.0467  0.0731
 8862SOL    HW335221   0.862   3.245   0.757  0.3636  0.3945  0.5224
 8862SOL    MW435222   0.878   3.277   0.677  0.0628 -0.0167  0.4857
 8863SOL     OW35223   4.814   1.112   5.435  0.3019  0.3040 -0.2030
 8863SOL    HW235224   4.824   1.020   5.458  1.1667  0.3943 -0.1947
 8863SOL    HW335225   4.752   1.111   5.361 -1.5509 -0.0741  1.2821
 8863SOL    MW435226   4.807   1.100   5.428 -0.0329 -0.2588 -0.4928
 8864SOL     OW35227   6.155   0.721   3.839  0.3917  0.0127 -0.7388
 8864SOL    HW235228   6.195   0.803   3.868  0.3081  0.5425 -2.0702
 8864SOL    HW335229   6.114   0.742   3.755  0.3704 -1.3912 -1.1100
 8864SOL    MW435230   6.155   0.735   3.832 -0.7336  0.0241 -0.0285
 8865SOL     OW35231   6.211   6.198   6.087 -0.1672  0.2756  0.2240
 8865SOL    HW235232   6.164   6.138   6.030  0.0838  0.2883  0.0018
 8865SOL    HW335233   6.170   6.187   6.173  0.4098 -0.8212  0.3819
 8865SOL    MW435234   6.199   6.189   6.091 -0.2277  0.5732 -0.1833
 8866SOL     OW35235   4.005   4.133   0.002 -0.7723  0.0363  0.5009
 8866SOL    HW235236   4.002   4.073   0.076 -0.2297  1.2031  1.4964
 8866SOL    HW335237   4.096   4.130  -0.028 -1.1830 -1.1269 -0.7442
 8866SOL    MW435238   4.016   4.125   0.008  0.4750  0.2569 -0.0279
 8867SOL     OW35239   6.056   1.175   0.608 -0.5109 -0.3648 -0.8838
 8867SOL    HW235240   6.055   1.267   0.579 -1.6285 -0.3216 -0.7457
 8867SOL    HW335241   6.119   1.133   0.549 -2.6168 -0.2531 -3.3856
 8867SOL    MW435242   6.064   1.182   0.596  0.0434 -0.4659  0.3798
 8868SOL     OW35243   3.907   3.328   0.537  0.3104  0.4022  0.3908
 8868SOL    HW235244   3.850   3.404   0.549  0.3904  0.2261  2.1047
 8868SOL    HW335245   3.973   3.336   0.605  0.1534 -1.3580  0.8106
 8868SOL    MW435246   3.908   3.339   0.547  0.0894  0.4915  0.3946
 8869SOL     OW35247   2.946   2.692   0.867  0.3981  0.6671  0.5449
 8869SOL    HW235248   2.959   2.786   0.880 -2.3845  1.1870  0.0871
 8869SOL    HW335249   2.901   2.663   0.946 -0.9990  0.2707 -0.3662
 8869SOL    MW435250   2.942   2.701   0.879  0.5099 -0.4210 -0.3464
 8870SOL     OW35251   2.283   0.579   0.721  0.0633  0.7529 -0.7670
 8870SOL    HW235252   2.228   0.514   0.678 -1.5683  1.6874 -0.1689
 8870SOL    HW335253   2.350   0.528   0.767 -0.9891 -0.4790 -0.5744
 8870SOL    MW435254   2.285   0.564   0.722  0.0655 -0.3026  0.1483
 8871SOL     OW35255   2.340   3.253   0.841 -0.1747 -0.2780  0.3433
 8871SOL    HW235256   2.306   3.241   0.752  0.7956  0.8054 -0.1989
 8871SOL    HW335257   2.435   3.256   0.830 -0.1028  2.4378  1.0498
 8871SOL    MW435258   2.348   3.252   0.828 -0.1339  0.2075 -0.1246
 8872SOL     OW35259   2.423   0.390   2.852 -0.5320  0.3826  0.5423
 8872SOL    HW235260   2.395   0.333   2.924  2.4965 -0.0568  1.4872
 8872SOL    HW335261   2.473   0.333   2.794 -2.5385  0.8224 -1.8245
 8872SOL    MW435262   2.426   0.375   2.854  0.1609 -0.9677  0.2580
 8873SOL     OW35263   0.309   4.115   2.485 -0.1850  0.2591 -0.6029
 8873SOL    HW235264   0.249   4.160   2.425 -1.5207 -0.7574 -0.0800
 8873SOL    HW335265   0.396   4.136   2.452 -0.8362  1.2503 -1.7813
 8873SOL    MW435266   0.313   4.124   2.473 -0.0060  0.1199  0.1886
 8874SOL     OW35267   3.591   0.124   3.823  0.3503 -0.5387 -0.0846
 8874SOL    HW235268   3.541   0.081   3.754 -0.3362 -0.7024  0.4925
 8874SOL    HW335269   3.636   0.196   3.779  0.1245 -0.7924 -0.7440
 8874SOL    MW435270   3.590   0.128   3.808 -0.2022  0.0876  0.3039
 8875SOL     OW35271   4.775   4.665   5.247  0.4021 -0.1235 -0.5879
 8875SOL    HW235272   4.843   4.696   5.306 -0.8759  0.3483  0.6751
 8875SOL    HW335273   4.819   4.656   5.162  2.3831 -1.2380  0.4863
 8875SOL    MW435274   4.790   4.668   5.243 -0.6507  0.1020  0.2176
 8876SOL     OW35275   6.297   3.849   5.904 -0.4704  0.1242  0.4608
 8876SOL    HW235276   6.280   3.906   5.979 -2.7239  2.2914 -1.4789
 8876SOL    HW335277   6.211   3.811   5.884 -0.0259 -0.0565 -1.2410
 8876SOL    MW435278   6.283   3.851   5.911 -0.8202 -0.0394 -0.7438
 8877SOL     OW35279   1.649   5.308   2.908 -0.3838  0.7107  0.6745
 8877SOL    HW235280   1.574   5.254   2.883  0.2719 -0.7370  1.6309
 8877SOL    HW335281   1.718   5.284   2.846  0.0609  0.0018  1.3999
 8877SOL    MW435282   1.648   5.297   2.897 -0.6652  0.6815  0.2083
 8878SOL     OW35283   5.783   0.289   0.330  0.3352  0.1679 -0.4385
 8878SOL    HW235284   5.778   0.330   0.244 -0.6056 -0.3883 -0.6601
 8878SOL    HW335285   5.755   0.358   0.391 -0.0764  0.2183 -0.6860
 8878SOL    MW435286   5.779   0.304   0.327 -0.0517 -0.2083 -0.2336
 8879SOL     OW35287   0.335   2.784   3.260  0.2302  0.0271 -0.1830
 8879SOL    HW235288   0.402   2.828   3.207  0.6531 -0.7381 -0.3053
 8879SOL    HW335289   0.343   2.691   3.236 -0.4816 -0.1483  0.2372
 8879SOL    MW435290   0.345   2.777   3.250  0.4196  0.4710  0.1696
 8880SOL     OW35291   0.025   4.486   6.354  0.5095 -0.2340  0.4068
 8880SOL    HW235292  -0.019   4.505   6.437  0.7129 -2.0100  0.9537
 8880SOL    HW335293   0.115   4.465   6.379  0.9287  0.5185 -0.4131
 8880SOL    MW435294   0.031   4.486   6.368 -0.2271  0.9585  0.1453
 8881NA      NA35295   1.223   3.381   4.583 -0.4681 -0.1094 -0.3923
 8882NA      NA35296   2.302   2.628   3.318 -0.3458 -0.0364  0.0413
 8883NA      NA35297   4.299   2.206   6.026 -0.5345 -0.1030  0.0382
 8884NA      NA35298   3.650   1.349   4.381 -0.1679  0.3774  0.3507
 8885NA      NA35299   0.441   1.857   3.222  0.0084 -0.0278 -0.3959
 8886NA      NA35300   2.887   0.806   6.159  0.1029 -0.8018 -0.3187
 8887NA      NA35301   2.174   3.777   1.320  0.5461  0.6375 -0.0356
   6.42840   6.42840   6.42840
