A-SYNC WITH LIG-47 in water
35301
  121NASP     N    1   0.313   2.325   0.807 -0.8735  1.1873  0.2770
  121NASP    H1    2   0.396   2.271   0.790 -1.9946 -0.8530  0.8550
  121NASP    H2    3   0.236   2.268   0.838 -0.3653 -0.9137 -1.9700
  121NASP    H3    4   0.336   2.375   0.891  1.3225 -0.1377  0.5325
  121NASP    CA    5   0.276   2.413   0.697 -0.0399 -0.6903 -0.2642
  121NASP    HA    6   0.264   2.357   0.605 -2.1262  0.3242 -0.6713
  121NASP    CB    7   0.133   2.477   0.722 -0.1400 -0.1288  0.2620
  121NASP   HB1    8   0.053   2.404   0.707  0.1569 -0.3531 -0.2519
  121NASP   HB2    9   0.113   2.558   0.652  2.2410 -0.0802 -0.4370
  121NASP    CG   10   0.119   2.537   0.864  0.4741 -0.1835  0.1258
  121NASP   OD1   11   0.221   2.562   0.933  0.5205  0.2066 -0.0052
  121NASP   OD2   12   0.004   2.580   0.895 -0.0723 -0.4298 -0.4392
  121NASP     C   13   0.391   2.520   0.679  0.0295 -0.4238 -0.3908
  121NASP     O   14   0.498   2.514   0.744 -0.7852 -0.3364 -0.0139
  122ASN      N   15   0.370   2.618   0.589 -0.1799  0.6193 -0.2301
  122ASN      H   16   0.280   2.622   0.544  0.8938  0.8400 -2.4805
  122ASN     CA   17   0.455   2.725   0.560 -0.5658  0.2013 -0.2003
  122ASN     HA   18   0.425   2.764   0.462  0.4008 -0.1906 -0.6588
  122ASN     CB   19   0.434   2.833   0.670 -0.3465  0.0839  0.2925
  122ASN    HB1   20   0.509   2.908   0.643 -1.5696  1.1765 -0.1537
  122ASN    HB2   21   0.467   2.791   0.765 -0.1839 -0.8771 -0.1746
  122ASN     CG   22   0.301   2.905   0.671 -0.0151 -0.1072  0.3806
  122ASN    OD1   23   0.200   2.852   0.626  0.0892 -0.1088  0.1519
  122ASN    ND2   24   0.293   3.028   0.720  0.1038  0.2338  0.2050
  122ASN   HD21   25   0.208   3.079   0.705  0.2418  0.9150  1.6073
  122ASN   HD22   26   0.364   3.073   0.776  0.1426  0.9668 -0.4191
  122ASN      C   27   0.601   2.681   0.542 -0.1180 -0.1545  0.5738
  122ASN      O   28   0.700   2.720   0.606 -0.0844  0.0843  0.4573
  123GLU      N   29   0.615   2.590   0.446 -0.0421  0.0058 -0.0614
  123GLU      H   30   0.530   2.567   0.397 -0.4343  1.0011  0.1346
  123GLU     CA   31   0.742   2.531   0.402  0.9420  0.5180 -0.0434
  123GLU     HA   32   0.796   2.487   0.486 -0.1051  0.5280  0.6568
  123GLU     CB   33   0.699   2.420   0.306 -0.6796 -0.4643  0.0706
  123GLU    HB1   34   0.786   2.383   0.252  0.8178  0.2303  1.8983
  123GLU    HB2   35   0.626   2.452   0.232 -2.6734 -1.0882  1.6479
  123GLU     CG   36   0.634   2.309   0.390 -0.4609  0.7283  0.4910
  123GLU    HG1   37   0.546   2.353   0.438  0.4809  2.9821  0.2727
  123GLU    HG2   38   0.706   2.269   0.461 -0.3273 -2.1750 -1.1177
  123GLU     CD   39   0.586   2.199   0.294 -0.3188 -0.1183  0.1577
  123GLU    OE1   40   0.523   2.102   0.343 -0.2019 -0.3184 -0.5480
  123GLU    OE2   41   0.624   2.202   0.176 -0.5461 -0.2467  0.2973
  123GLU      C   42   0.829   2.635   0.334  0.7135  0.2140 -0.4840
  123GLU      O   43   0.777   2.718   0.261  0.7468 -0.4868  0.1786
  124ALA      N   44   0.956   2.616   0.347 -1.7372 -0.6802 -0.2864
  124ALA      H   45   0.989   2.539   0.405  0.1811 -0.1266 -0.5772
  124ALA     CA   46   1.058   2.704   0.287 -0.3967  0.9266 -0.3964
  124ALA     HA   47   1.013   2.758   0.204 -0.5457  1.9203  0.3182
  124ALA     CB   48   1.105   2.797   0.396  1.1449  0.7572  0.2409
  124ALA    HB1   49   1.028   2.866   0.432 -0.1150  0.6318 -1.9741
  124ALA    HB2   50   1.177   2.870   0.359 -0.2936  2.5191  0.8136
  124ALA    HB3   51   1.144   2.744   0.483  1.9830  0.9448 -0.0185
  124ALA      C   52   1.181   2.629   0.233  0.9207 -0.1689  0.6073
  124ALA      O   53   1.245   2.552   0.300  0.3214  0.3589 -0.0885
  125TYR      N   54   1.221   2.664   0.111 -0.5226  0.2012 -0.5332
  125TYR      H   55   1.158   2.718   0.055  0.6263  1.4287 -0.6725
  125TYR     CA   56   1.361   2.663   0.062  0.1428 -0.4018  0.6246
  125TYR     HA   57   1.416   2.577   0.100 -2.0432 -1.8503  0.6364
  125TYR     CB   58   1.356   2.665  -0.088  0.1206  0.5832  1.1331
  125TYR    HB1   59   1.323   2.764  -0.117 -0.7926  0.1221  0.5391
  125TYR    HB2   60   1.279   2.597  -0.125  1.4223 -0.5651  0.3890
  125TYR     CG   61   1.483   2.625  -0.160 -0.3470  0.8231 -0.2315
  125TYR    CD1   62   1.582   2.720  -0.188  0.3145 -0.5789  0.0978
  125TYR    HD1   63   1.571   2.823  -0.157 -2.4175 -0.5462 -0.7092
  125TYR    CE1   64   1.700   2.674  -0.244  0.0386 -0.5649 -0.1276
  125TYR    HE1   65   1.783   2.742  -0.253  1.5222 -2.3553 -0.4630
  125TYR     CZ   66   1.715   2.545  -0.294  0.4603  0.7151 -0.3544
  125TYR     OH   67   1.823   2.495  -0.357  0.8287  0.5597 -0.0424
  125TYR     HH   68   1.887   2.566  -0.361 -0.2984  1.6159  0.0433
  125TYR    CE2   69   1.606   2.455  -0.280 -0.4271  0.3639  0.6047
  125TYR    HE2   70   1.622   2.356  -0.320 -1.1968 -0.0413  1.2791
  125TYR    CD2   71   1.495   2.493  -0.205  0.3426  0.4029 -0.2341
  125TYR    HD2   72   1.411   2.432  -0.173  0.1614  1.2630  1.0238
  125TYR      C   73   1.437   2.781   0.119 -0.9260  0.2241  0.1490
  125TYR      O   74   1.373   2.878   0.162  0.7313 -0.0103  0.2119
  126GLU      N   75   1.571   2.776   0.119 -0.6338 -0.4379 -0.2747
  126GLU      H   76   1.619   2.694   0.085  0.0157  1.0839 -3.4551
  126GLU     CA   77   1.664   2.884   0.167  0.0041 -0.3169 -0.3082
  126GLU     HA   78   1.615   2.982   0.165 -1.0680 -0.8025 -2.9388
  126GLU     CB   79   1.703   2.861   0.317 -0.5432  0.8212 -0.0677
  126GLU    HB1   80   1.796   2.907   0.349 -0.4177 -0.2139  1.1506
  126GLU    HB2   81   1.708   2.753   0.329 -0.3112  0.7021 -1.1695
  126GLU     CG   82   1.598   2.904   0.418  0.1350 -0.4481  0.1754
  126GLU    HG1   83   1.622   2.853   0.511  1.3369 -0.3122 -0.0467
  126GLU    HG2   84   1.500   2.879   0.378  0.1194  0.1559 -0.1686
  126GLU     CD   85   1.595   3.050   0.447 -0.2844 -0.8122  0.2108
  126GLU    OE1   86   1.516   3.084   0.538  0.0683 -0.3604 -0.4555
  126GLU    OE2   87   1.676   3.135   0.403  0.3178 -0.0332 -0.1995
  126GLU      C   88   1.773   2.882   0.073 -0.0367  0.1579  0.5114
  126GLU      O   89   1.838   2.780   0.047  0.4862  0.5321 -0.0810
  127MET      N   90   1.813   3.004   0.025 -0.0021  0.4316  0.2168
  127MET      H   91   1.751   3.080   0.051 -2.8789 -0.5069 -3.1513
  127MET     CA   92   1.935   3.041  -0.052  0.0627 -0.3962 -0.0509
  127MET     HA   93   1.943   2.960  -0.124 -0.4907 -1.1299  0.7039
  127MET     CB   94   1.899   3.171  -0.128 -0.1985 -0.5361 -0.0689
  127MET    HB1   95   1.992   3.218  -0.162 -1.0641 -0.9286 -3.2519
  127MET    HB2   96   1.859   3.246  -0.060 -0.0209  0.3324 -0.9101
  127MET     CG   97   1.800   3.155  -0.250 -0.0768 -0.4890 -0.8795
  127MET    HG1   98   1.782   3.248  -0.303  3.9375 -0.1350 -1.9906
  127MET    HG2   99   1.707   3.119  -0.207 -0.9256  1.9300 -0.5765
  127MET     SD  100   1.847   3.032  -0.377  0.0867  0.3167 -0.0133
  127MET     CE  101   1.704   3.065  -0.486  0.1791 -0.4446 -0.6370
  127MET    HE1  102   1.707   3.167  -0.524 -1.4155  0.9194  2.5196
  127MET    HE2  103   1.607   3.071  -0.435  0.7685 -2.1343  0.8018
  127MET    HE3  104   1.708   2.997  -0.571  1.8256 -0.4377 -0.5934
  127MET      C  105   2.060   3.061   0.036 -0.8217 -0.3085 -0.1248
  127MET      O  106   2.046   3.116   0.150  0.4269  0.1154  0.2735
  128PRO      N  107   2.179   3.023  -0.015  0.3164 -0.2167 -0.4165
  128PRO     CD  108   2.211   2.968  -0.157 -0.1834  0.5498 -0.4823
  128PRO    HD1  109   2.146   3.010  -0.234 -0.4655  0.9822 -0.0146
  128PRO    HD2  110   2.207   2.859  -0.151  1.2846  0.5142  0.1412
  128PRO     CG  111   2.355   3.016  -0.180  0.4525 -0.0369  0.0233
  128PRO    HG1  112   2.353   3.123  -0.204  0.0254 -0.3062 -1.1594
  128PRO    HG2  113   2.411   2.952  -0.247  0.2352 -1.4746  1.1619
  128PRO     CB  114   2.417   3.009  -0.044 -0.5596  0.4538 -0.2856
  128PRO    HB1  115   2.456   2.909  -0.022  2.7467  1.7175  0.1710
  128PRO    HB2  116   2.507   3.065  -0.019  1.2848 -2.3992 -0.0438
  128PRO     CA  117   2.305   3.035   0.058  0.0975  0.2321  0.4082
  128PRO     HA  118   2.311   2.962   0.138  0.0968 -0.5215 -0.2614
  128PRO      C  119   2.318   3.177   0.110 -0.3343 -0.7850 -0.4448
  128PRO      O  120   2.301   3.272   0.034 -0.3495 -0.7485  0.4141
  129SER      N  121   2.365   3.189   0.238 -0.1695 -0.7991  0.1068
  129SER      H  122   2.376   3.105   0.293 -0.3086 -2.0114 -1.6286
  129SER     CA  123   2.402   3.313   0.296  0.3974 -0.7340  0.3204
  129SER     HA  124   2.335   3.391   0.261  1.9934 -0.2042 -1.7687
  129SER     CB  125   2.408   3.305   0.451 -0.0113 -0.9590  0.8709
  129SER    HB1  126   2.311   3.277   0.491 -0.8456  2.2673  1.4537
  129SER    HB2  127   2.422   3.403   0.497  0.7877 -1.1782  1.1061
  129SER     OG  128   2.506   3.215   0.487 -0.8398 -0.1806  0.1275
  129SER    HG1  129   2.515   3.202   0.582  1.0148  0.2453  0.0481
  129SER      C  130   2.542   3.356   0.245  0.5298 -0.6431 -0.2833
  129SER      O  131   2.632   3.269   0.225 -0.1063 -0.0398  0.3595
  130GLU      N  132   2.571   3.486   0.238 -0.3379  0.2435 -0.8456
  130GLU      H  133   2.493   3.548   0.252 -0.4937 -0.3781  1.7215
  130GLU     CA  134   2.698   3.541   0.191  0.4627  0.4947 -0.7819
  130GLU     HA  135   2.772   3.461   0.191 -0.5919 -0.5113  0.0935
  130GLU     CB  136   2.689   3.609   0.053  0.1256 -0.0210  0.5123
  130GLU    HB1  137   2.792   3.638   0.034  0.6154 -1.0478  1.5112
  130GLU    HB2  138   2.614   3.687   0.068  0.4942  0.8777 -1.9015
  130GLU     CG  139   2.649   3.517  -0.062  0.7451 -0.0419 -0.4219
  130GLU    HG1  140   2.559   3.462  -0.034  1.1436 -2.5971 -3.5101
  130GLU    HG2  141   2.733   3.454  -0.090  1.2554  1.0865 -1.5927
  130GLU     CD  142   2.609   3.594  -0.190  0.1194 -0.1486  0.1564
  130GLU    OE1  143   2.582   3.718  -0.191 -0.1243  0.2837  0.5305
  130GLU    OE2  144   2.592   3.530  -0.297  0.0238  0.0245  0.5003
  130GLU      C  145   2.753   3.646   0.289 -0.0203 -0.0459 -0.5046
  130GLU      O  146   2.678   3.720   0.355 -0.2090  0.1775 -0.3577
  131GLU      N  147   2.885   3.648   0.306  0.1649  0.1686  0.1131
  131GLU      H  148   2.937   3.594   0.238  0.2265  0.2320  0.1098
  131GLU     CA  149   2.972   3.715   0.415 -0.0258  0.3355 -0.2378
  131GLU     HA  150   2.935   3.817   0.431 -1.1798 -0.1306  0.1316
  131GLU     CB  151   2.980   3.621   0.539 -0.0192  0.2215 -0.7831
  131GLU    HB1  152   3.028   3.530   0.503  1.3630  0.2783  0.8083
  131GLU    HB2  153   2.879   3.598   0.572  0.0662 -0.1787 -0.7970
  131GLU     CG  154   3.042   3.680   0.662  0.1568 -0.2569 -0.0117
  131GLU    HG1  155   2.986   3.771   0.684 -1.1261 -0.6888 -1.3571
  131GLU    HG2  156   3.145   3.703   0.634  0.1007  0.5738  0.4192
  131GLU     CD  157   3.038   3.582   0.779  1.1291 -0.0067  0.3954
  131GLU    OE1  158   3.006   3.622   0.891  0.7188  0.1371 -0.3705
  131GLU    OE2  159   3.065   3.463   0.760  1.1391  0.4622  0.4704
  131GLU      C  160   3.112   3.734   0.362 -0.1861  0.5459 -0.0440
  131GLU      O  161   3.185   3.638   0.329  0.4806 -0.0657 -0.0162
  132GLY      N  162   3.154   3.861   0.347  0.1354  0.1650  0.2262
  132GLY      H  163   3.085   3.932   0.368  1.9427  1.9640  0.3670
  132GLY     CA  164   3.287   3.899   0.300  0.1326 -0.2202  0.3049
  132GLY    HA1  165   3.352   3.815   0.329 -2.0774 -1.4383  2.0662
  132GLY    HA2  166   3.315   3.995   0.343 -0.0839  0.5783 -1.2722
  132GLY      C  167   3.290   3.921   0.147 -0.7013 -0.5932  0.6912
  132GLY      O  168   3.204   3.873   0.069 -0.1134 -0.1526 -0.2455
  133TYR      N  169   3.376   4.023   0.111  0.3278  1.1143 -0.1411
  133TYR      H  170   3.432   4.062   0.186  2.5953 -0.5857 -0.8473
  133TYR     CA  171   3.397   4.090  -0.013  0.3544  0.1426 -0.1891
  133TYR     HA  172   3.394   4.017  -0.093 -1.1738  0.0848 -0.1032
  133TYR     CB  173   3.275   4.185  -0.042  0.3030 -0.7067  0.3611
  133TYR    HB1  174   3.184   4.125  -0.042  0.5810 -1.1649  1.7877
  133TYR    HB2  175   3.284   4.226  -0.143 -1.2557 -1.9463 -0.3409
  133TYR     CG  176   3.243   4.304   0.050  0.6566 -0.2534  0.3795
  133TYR    CD1  177   3.318   4.425   0.040  0.5573  0.7164  0.2254
  133TYR    HD1  178   3.404   4.431  -0.024 -0.5483  0.5823 -1.3318
  133TYR    CE1  179   3.268   4.539   0.104  0.2577 -0.8001  0.0225
  133TYR    HE1  180   3.324   4.631   0.099  0.6868 -1.0971 -0.9252
  133TYR     CZ  181   3.155   4.531   0.189  0.1201 -0.4434  0.2527
  133TYR     OH  182   3.109   4.645   0.243  0.0701 -0.1204 -0.0707
  133TYR     HH  183   3.137   4.726   0.198  0.6794 -0.0937  0.3445
  133TYR    CE2  184   3.084   4.409   0.212 -0.0877 -0.3239  0.5233
  133TYR    HE2  185   2.993   4.406   0.271  0.4413 -0.3861  1.3374
  133TYR    CD2  186   3.127   4.296   0.137  0.2683 -0.6312  0.7144
  133TYR    HD2  187   3.074   4.202   0.144  0.2696 -0.8868 -1.8385
  133TYR      C  188   3.528   4.159  -0.014 -0.1170  0.2448 -0.2177
  133TYR      O  189   3.584   4.192   0.094 -0.2656 -0.5285  0.7519
  134GLN      N  190   3.582   4.180  -0.134 -1.0096 -0.0693  0.0014
  134GLN      H  191   3.547   4.153  -0.224  0.3451  1.1354 -0.9361
  134GLN     CA  192   3.716   4.234  -0.153  0.5039  0.1788 -0.2336
  134GLN     HA  193   3.770   4.235  -0.058  1.7621 -2.1909 -0.8705
  134GLN     CB  194   3.806   4.163  -0.255  0.0723  0.2008  0.0312
  134GLN    HB1  195   3.901   4.215  -0.270  0.0869  0.0047 -0.5718
  134GLN    HB2  196   3.748   4.169  -0.347 -0.5428  0.8399  0.4439
  134GLN     CG  197   3.812   4.010  -0.236 -0.2403  0.0485 -0.7044
  134GLN    HG1  198   3.715   3.971  -0.265 -0.6682 -1.2484  2.0599
  134GLN    HG2  199   3.834   3.979  -0.133  1.5542 -1.3612 -1.4584
  134GLN     CD  200   3.919   3.947  -0.323  0.1176 -0.1068  0.4506
  134GLN    OE1  201   3.984   4.005  -0.413 -0.0215  0.2927 -0.3448
  134GLN    NE2  202   3.935   3.820  -0.311 -1.0535  0.2128 -0.6344
  134GLN   HE21  203   3.985   3.771  -0.383 -0.4019 -0.9820  0.5764
  134GLN   HE22  204   3.872   3.765  -0.254 -1.4700  0.7247 -0.5962
  134GLN      C  205   3.709   4.383  -0.198 -0.0608  0.1497  0.5877
  134GLN      O  206   3.675   4.405  -0.313 -0.4913 -0.5133  0.0662
  135ASP      N  207   3.748   4.480  -0.116 -0.2060  0.1942  0.2791
  135ASP      H  208   3.785   4.450  -0.027 -0.0775  0.3909  0.2911
  135ASP     CA  209   3.743   4.623  -0.140  0.2573  0.0172 -0.5196
  135ASP     HA  210   3.658   4.647  -0.204  0.7327 -0.7550 -1.4543
  135ASP     CB  211   3.728   4.689   0.003 -0.7045 -0.1263  0.7438
  135ASP    HB1  212   3.630   4.658   0.040 -1.6434  1.0045 -0.6763
  135ASP    HB2  213   3.723   4.797  -0.011 -1.2951 -0.2032  0.2948
  135ASP     CG  214   3.831   4.654   0.108 -0.0852 -0.1131 -0.3544
  135ASP    OD1  215   3.925   4.577   0.084 -0.1728  0.2806 -0.9081
  135ASP    OD2  216   3.823   4.720   0.213 -0.1294  0.0906 -0.2346
  135ASP      C  217   3.856   4.678  -0.223 -0.3531  0.1043  0.5163
  135ASP      O  218   3.914   4.776  -0.187 -0.0587  0.1629 -0.1477
  136TYR      N  219   3.880   4.620  -0.336  0.7836  0.6400  0.7466
  136TYR      H  220   3.827   4.536  -0.351  1.4178  0.6628 -2.1811
  136TYR     CA  221   3.997   4.643  -0.422 -0.3333  0.0191 -0.2029
  136TYR     HA  222   4.018   4.749  -0.430  1.7327 -0.3818 -0.6547
  136TYR     CB  223   4.125   4.576  -0.364 -0.3671 -0.1711  0.2322
  136TYR    HB1  224   4.153   4.641  -0.281 -1.8027 -0.4617  0.9818
  136TYR    HB2  225   4.209   4.595  -0.431 -0.1587  0.6756  0.7263
  136TYR     CG  226   4.123   4.431  -0.317  0.0809 -0.1319 -0.5274
  136TYR    CD1  227   4.092   4.404  -0.178 -0.0312 -0.9145 -0.1068
  136TYR    HD1  228   4.050   4.490  -0.129  1.0126  0.7782 -2.0286
  136TYR    CE1  229   4.112   4.281  -0.121 -0.4359  0.5851  0.4543
  136TYR    HE1  230   4.083   4.265  -0.018 -0.7044 -0.2746  0.2507
  136TYR     CZ  231   4.157   4.172  -0.199  0.4554 -0.0469  0.4715
  136TYR     OH  232   4.173   4.053  -0.140  0.3786  0.1546  0.2752
  136TYR     HH  233   4.218   3.991  -0.198  2.1544 -0.3219  2.0770
  136TYR    CE2  234   4.189   4.195  -0.337 -0.0304 -0.4431 -0.4119
  136TYR    HE2  235   4.223   4.108  -0.391 -0.1463 -0.4808 -0.4244
  136TYR    CD2  236   4.177   4.325  -0.389  0.1439  0.7715  0.1057
  136TYR    HD2  237   4.206   4.338  -0.492  1.0853  2.5024  0.5456
  136TYR      C  238   3.966   4.598  -0.563  0.3366  0.0676 -0.0167
  136TYR      O  239   3.907   4.492  -0.587  0.6743  0.0511  0.1058
  137GLU      N  240   3.995   4.685  -0.658 -0.5372  0.6443  0.7638
  137GLU      H  241   4.055   4.759  -0.621  1.6285 -0.7645  0.2751
  137GLU     CA  242   3.978   4.679  -0.805 -0.1696 -0.4335  0.7069
  137GLU     HA  243   3.872   4.672  -0.831  0.2000 -1.1357 -0.7053
  137GLU     CB  244   4.021   4.815  -0.866 -0.0507  0.2464 -0.2497
  137GLU    HB1  245   4.008   4.803  -0.974 -4.0150  0.9838 -0.0004
  137GLU    HB2  246   4.125   4.840  -0.847  0.1384 -0.8487  0.2630
  137GLU     CG  247   3.931   4.928  -0.815  0.0324  0.4843  0.5287
  137GLU    HG1  248   3.952   4.942  -0.708 -0.9307 -1.3419  0.9947
  137GLU    HG2  249   3.827   4.897  -0.822  0.3067 -0.4548  0.5047
  137GLU     CD  250   3.939   5.063  -0.890  0.3550  0.6084 -0.0268
  137GLU    OE1  251   4.021   5.078  -0.987  0.0575  1.0543 -0.2425
  137GLU    OE2  252   3.859   5.153  -0.860 -0.1107 -0.1375 -0.3045
  137GLU      C  253   4.046   4.564  -0.877 -0.2647  0.5845  0.0241
  137GLU      O  254   4.148   4.534  -0.818  0.3112  0.3469  0.1157
  138PRO      N  255   3.996   4.506  -0.985 -0.0311 -0.1621  0.0519
  138PRO     CD  256   3.872   4.533  -1.056  0.3271  0.4232  0.5589
  138PRO    HD1  257   3.866   4.636  -1.091 -0.2250  1.1910  2.7268
  138PRO    HD2  258   3.789   4.499  -0.993  1.2826 -1.8203  0.7084
  138PRO     CG  259   3.869   4.423  -1.170  0.5215 -0.5138 -0.3348
  138PRO    HG1  260   3.900   4.475  -1.261  0.2536 -0.3292 -0.3212
  138PRO    HG2  261   3.768   4.384  -1.177 -0.2911  1.2129  1.0913
  138PRO     CB  262   3.963   4.313  -1.130 -0.1542 -0.1690 -0.0616
  138PRO    HB1  263   3.913   4.236  -1.071  0.7743 -2.5598 -2.1765
  138PRO    HB2  264   4.008   4.270  -1.220  1.2567 -0.0513  0.5627
  138PRO     CA  265   4.060   4.397  -1.050 -0.7854  0.8670  0.2785
  138PRO     HA  266   4.104   4.333  -0.974 -2.5760 -2.0833 -0.9880
  138PRO      C  267   4.178   4.435  -1.146  0.1463 -0.7826 -0.6742
  138PRO      O  268   4.169   4.533  -1.224  0.0174 -0.0495 -0.1682
  139GLU      N  269   4.291   4.355  -1.138 -0.2191  0.6814 -0.1168
  139GLU      H  270   4.285   4.284  -1.066 -0.0356  1.7929  1.0362
  139GLU     CA  271   4.407   4.357  -1.224  0.0602  0.0782 -0.1808
  139GLU     HA  272   4.423   4.460  -1.253 -1.1175  0.1939 -0.4903
  139GLU     CB  273   4.535   4.310  -1.151  0.5530 -0.2380  0.4528
  139GLU    HB1  274   4.558   4.203  -1.152 -1.8580 -0.9659  3.8645
  139GLU    HB2  275   4.524   4.335  -1.046 -0.5054  0.0095  0.2934
  139GLU     CG  276   4.657   4.390  -1.190  0.5997  0.7099  0.4243
  139GLU    HG1  277   4.636   4.496  -1.177  0.1951  1.3862 -4.0964
  139GLU    HG2  278   4.688   4.382  -1.295  1.3688  1.8179  0.5513
  139GLU     CD  279   4.783   4.357  -1.105 -0.8079 -0.5631 -0.2780
  139GLU    OE1  280   4.786   4.260  -1.027  0.1123  0.2010  0.0637
  139GLU    OE2  281   4.884   4.419  -1.137  0.2257  0.3575 -0.9275
  139GLU      C  282   4.379   4.269  -1.342 -0.3163  0.5361  0.1947
  139GLU      O  283   4.437   4.295  -1.447  0.3522  0.0325 -0.4870
  140CALA     N  284   4.298   4.162  -1.338 -0.1914 -0.2959 -0.0675
  140CALA     H  285   4.263   4.131  -1.249  0.3698 -1.5385 -0.2573
  140CALA    CA  286   4.246   4.084  -1.451  0.6761 -0.4059  0.3970
  140CALA    HA  287   4.320   4.009  -1.480 -0.8151 -0.4727 -3.9187
  140CALA    CB  288   4.135   3.991  -1.390  0.4972  0.2945 -0.2017
  140CALA   HB1  289   4.105   3.932  -1.477  0.4308  0.0898 -0.0391
  140CALA   HB2  290   4.054   4.050  -1.347 -0.6074 -0.9990 -0.4321
  140CALA   HB3  291   4.182   3.926  -1.317  0.7117  0.0372 -0.5690
  140CALA     C  292   4.207   4.163  -1.575 -0.3241 -0.0467 -0.2009
  140CALA   OC1  293   4.251   4.118  -1.686 -0.1629  0.6840 -0.1265
  140CALA   OC2  294   4.123   4.251  -1.561 -0.3936 -0.3184  0.3708
  141L47      C  295   6.238   4.350   0.973 -0.4697 -0.0673  0.0831
  141L47      H  296   6.278   4.432   0.911  2.3246 -0.8429  0.7327
  141L47     H1  297   6.243   4.387   1.076 -0.8760 -1.4818  0.6242
  141L47     H2  298   6.137   4.324   0.939 -0.7620 -0.2581  1.0842
  141L47     C1  299   6.323   4.222   0.965 -0.6412 -0.6593 -0.1826
  141L47      O  300   6.435   4.222   0.913 -0.2131  0.5590 -0.3848
  141L47      N  301   6.265   4.105   1.018 -0.1430 -0.4716  0.5057
  141L47     C2  302   6.133   4.100   1.090  0.6289 -0.3676 -0.3327
  141L47     H3  303   6.053   4.086   1.016 -1.9268 -1.8646  2.4672
  141L47     H4  304   6.115   4.192   1.147  0.6388 -1.2710  1.2055
  141L47     C3  305   6.146   3.976   1.189  0.2692 -0.3512 -0.3626
  141L47     H5  306   6.053   3.917   1.189 -0.1735  0.3332  0.2657
  141L47     H6  307   6.157   4.013   1.292 -1.5551  0.0949 -0.2976
  141L47     C4  308   6.266   3.903   1.136  0.1987  0.3145  0.3810
  141L47     C5  309   6.332   3.984   1.049  0.0932 -0.6432  0.1749
  141L47     C6  310   6.445   3.936   0.988 -0.1590 -0.3832  0.3131
  141L47     H7  311   6.493   3.992   0.909 -0.0053  1.2076  1.4850
  141L47     C7  312   6.493   3.807   1.021 -0.1518  0.0387 -0.2797
  141L47     H8  313   6.574   3.768   0.960 -0.1756  0.6018 -0.6771
  141L47     C8  314   6.422   3.721   1.115  0.8242 -0.1118 -0.1991
  141L47     C9  315   6.306   3.776   1.181 -0.7300  0.9113  0.1191
  141L47     H9  316   6.247   3.713   1.246  0.8215 -0.5552  0.1853
  141L47      S  317   6.498   3.563   1.161 -0.1241  0.1060  0.1119
  141L47     O1  318   6.564   3.511   1.042  0.0394  0.6697  0.1788
  141L47     O2  319   6.411   3.484   1.249 -0.1152 -0.5052  0.1200
  141L47     N1  320   6.627   3.600   1.256 -0.2480 -0.1845  0.1212
  141L47    C10  321   6.692   3.478   1.318  0.5882 -0.4971  0.2688
  141L47    H10  322   6.661   3.391   1.258 -1.3604 -1.2993  2.2867
  141L47    H11  323   6.655   3.457   1.419 -4.2029 -0.7997 -1.3119
  141L47    C11  324   6.843   3.502   1.313  0.1348 -0.1699 -0.9415
  141L47    H12  325   6.862   3.563   1.224 -1.8927  0.6735 -0.8373
  141L47    H13  326   6.890   3.404   1.296 -2.0472 -1.8237  1.7859
  141L47    C12  327   6.899   3.558   1.451  0.4686 -0.4435  0.7218
  141L47    H14  328   7.002   3.591   1.433  0.5662 -1.0619  0.0902
  141L47    H15  329   6.910   3.479   1.526  1.8469 -1.2916 -0.3091
  141L47     N2  330   6.820   3.671   1.511  0.1374  0.4250 -0.0990
  141L47    H16  331   6.749   3.630   1.573 -0.2420  0.9207 -0.2011
  141L47    H17  332   6.871   3.720   1.586  1.6732 -0.8252 -0.2605
  141L47    C13  333   6.749   3.768   1.414 -0.4217  0.6086  0.2636
  141L47    H18  334   6.816   3.788   1.330 -0.5760 -2.5786 -0.7457
  141L47    H19  335   6.737   3.864   1.465  2.0796  0.6799  0.8623
  141L47    C14  336   6.614   3.717   1.348  0.1772 -0.2213  0.4094
  141L47    H20  337   6.538   3.696   1.424  0.2240  0.8551  0.7756
  141L47    H21  338   6.563   3.805   1.306  1.9456  0.9819  0.6501
  142SOL     OW  339   4.973   4.280   3.463  0.5407  0.1279  0.2691
  142SOL    HW2  340   5.038   4.332   3.511 -1.0592  1.9849  0.5633
  142SOL    HW3  341   4.946   4.213   3.525  0.9622  0.3792  0.7352
  142SOL    MW4  342   4.978   4.278   3.478 -0.0755  0.2503 -0.3336
  143SOL     OW  343   2.933   4.378   6.305 -0.0019 -0.4780  0.2791
  143SOL    HW2  344   3.025   4.386   6.281 -0.1628 -1.6744 -0.8654
  143SOL    HW3  345   2.907   4.292   6.273 -1.6026 -0.0448  0.3156
  143SOL    MW4  346   2.941   4.368   6.298 -0.4747 -0.0380  0.2620
  144SOL     OW  347   4.191   1.741   4.570  0.1648 -0.0033 -0.1442
  144SOL    HW2  348   4.115   1.758   4.626 -1.1299 -2.1520 -1.1127
  144SOL    HW3  349   4.265   1.738   4.631 -1.1015 -1.6826  1.4578
  144SOL    MW4  350   4.191   1.743   4.586 -0.1073 -0.5037  0.3342
  145SOL     OW  351   4.220   1.050   1.481 -0.4253  0.6865  0.1656
  145SOL    HW2  352   4.161   1.114   1.520 -2.5540 -0.1934 -1.3908
  145SOL    HW3  353   4.242   1.087   1.396  0.6822  0.6463  0.4229
  145SOL    MW4  354   4.215   1.063   1.475  0.0143 -0.0907  0.4291
  146SOL     OW  355   3.944   2.095   2.113 -0.1550  0.4429 -0.3417
  146SOL    HW2  356   4.023   2.140   2.141 -0.5538  0.3176  1.0559
  146SOL    HW3  357   3.877   2.163   2.108 -1.2025 -0.0869  3.4596
  146SOL    MW4  358   3.946   2.110   2.116 -0.2576  0.1286  0.0189
  147SOL     OW  359   1.095   3.219   0.942  0.5836  0.6768  0.8997
  147SOL    HW2  360   1.085   3.225   0.847 -0.0357 -0.3129  0.8930
  147SOL    HW3  361   1.023   3.162   0.970  1.1402  0.4451  1.8901
  147SOL    MW4  362   1.084   3.212   0.933 -0.4284  0.3057  0.0989
  148SOL     OW  363   2.389   1.284   5.945 -0.0925  0.1248 -0.0781
  148SOL    HW2  364   2.432   1.211   5.900 -2.2200 -0.9834 -0.4494
  148SOL    HW3  365   2.359   1.341   5.874 -0.9835 -0.1685  0.0505
  148SOL    MW4  366   2.391   1.282   5.929  0.4233 -0.0006  0.2730
  149SOL     OW  367   5.285   2.421   5.507  0.7032  0.2853 -0.1301
  149SOL    HW2  368   5.329   2.485   5.451 -1.0793  0.6505 -1.1882
  149SOL    HW3  369   5.208   2.393   5.457 -0.8336  0.3944  1.9978
  149SOL    MW4  370   5.280   2.426   5.493 -0.0509  0.1275  0.0394
  150SOL     OW  371   4.434   3.403   1.501  0.1473  0.2824 -0.2955
  150SOL    HW2  372   4.436   3.498   1.496 -0.9445  0.2902 -0.7512
  150SOL    HW3  373   4.377   3.376   1.429  1.1764 -0.7692 -0.7462
  150SOL    MW4  374   4.427   3.412   1.491  0.7448  0.0702  0.0013
  151SOL     OW  375   2.256   3.955   2.028  0.0551  0.2142 -0.2347
  151SOL    HW2  376   2.163   3.972   2.012  0.8486  2.8551 -3.3143
  151SOL    HW3  377   2.287   4.035   2.071  1.0715 -0.2345 -0.1127
  151SOL    MW4  378   2.248   3.968   2.032  0.3761  0.7346  0.0532
  152SOL     OW  379   5.894   4.666   1.411 -0.9054  0.2141  0.1051
  152SOL    HW2  380   5.895   4.609   1.488  2.0612 -1.9763 -1.3234
  152SOL    HW3  381   5.958   4.734   1.431  0.4405 -0.7871 -0.5888
  152SOL    MW4  382   5.903   4.667   1.424  1.1059  0.2083  0.2144
  153SOL     OW  383   3.896   2.850   3.207 -0.1378  0.0580 -0.2301
  153SOL    HW2  384   3.861   2.906   3.277  1.2917 -1.1540  1.5596
  153SOL    HW3  385   3.859   2.763   3.224 -1.1174  0.0628 -2.0611
  153SOL    MW4  386   3.887   2.846   3.218  0.1720  0.2766  0.3706
  154SOL     OW  387   3.725   6.050   4.205  0.6307  0.0868  0.4038
  154SOL    HW2  388   3.655   6.070   4.266 -0.5038 -1.9757 -0.1178
  154SOL    HW3  389   3.740   6.132   4.157  0.4724  1.2942  2.3240
  154SOL    MW4  390   3.718   6.064   4.206 -0.0251 -0.3318  0.5744
  155SOL     OW  391   3.008   1.662   1.819 -0.0304  0.0938  0.4651
  155SOL    HW2  392   2.944   1.650   1.749  0.1190  0.2063  0.3080
  155SOL    HW3  393   3.048   1.748   1.801 -1.5339  1.1618  1.9323
  155SOL    MW4  394   3.005   1.672   1.807 -0.3927  0.4949 -0.2303
  156SOL     OW  395   3.060   1.922   2.118 -0.3709  0.0327 -0.2512
  156SOL    HW2  396   3.013   1.844   2.149  1.8894 -1.6513 -0.7238
  156SOL    HW3  397   3.123   1.940   2.188 -1.0113  1.6315 -0.0513
  156SOL    MW4  398   3.062   1.914   2.132 -0.0949  0.1503 -0.5473
  157SOL     OW  399   0.727   1.437   5.478  0.1365  0.2194  0.0339
  157SOL    HW2  400   0.631   1.429   5.480  0.2376 -1.5380 -0.8752
  157SOL    HW3  401   0.752   1.406   5.392  1.5497  0.7036  0.2525
  157SOL    MW4  402   0.717   1.432   5.467  0.2300 -0.3473 -0.6400
  158SOL     OW  403   5.121   5.748   2.467 -0.4107  0.2295 -0.6086
  158SOL    HW2  404   5.112   5.840   2.444  0.4038  0.3736 -0.4136
  158SOL    HW3  405   5.132   5.749   2.562  0.4541  0.0206 -0.6944
  158SOL    MW4  406   5.122   5.760   2.477  0.3971  0.3375 -0.0909
  159SOL     OW  407   3.620   0.440   4.328 -0.6241 -0.8003 -0.6794
  159SOL    HW2  408   3.581   0.403   4.249 -0.4074 -2.0809 -0.2243
  159SOL    HW3  409   3.547   0.446   4.390 -0.9411  0.8723 -1.1747
  159SOL    MW4  410   3.605   0.436   4.326 -0.2794 -0.0763  0.4520
  160SOL     OW  411   0.015   4.371   3.424  0.5653  0.4193 -0.2326
  160SOL    HW2  412  -0.061   4.416   3.389  0.5832 -0.0267 -0.8650
  160SOL    HW3  413   0.090   4.415   3.384  0.6146  0.4237 -0.1364
  160SOL    MW4  414   0.015   4.383   3.414  0.1036 -0.3447 -0.2877
  161SOL     OW  415   1.786   5.522   1.224 -0.2114  0.3130  0.4507
  161SOL    HW2  416   1.718   5.580   1.256 -1.2088  0.3372 -1.5275
  161SOL    HW3  417   1.820   5.565   1.145  0.1776 -0.9904 -0.1342
  161SOL    MW4  418   1.782   5.535   1.218 -0.4440  0.0346  0.0481
  162SOL     OW  419   6.223   6.375   5.115 -0.2987 -0.1938  0.7815
  162SOL    HW2  420   6.272   6.421   5.047 -2.4839 -0.4736 -1.0969
  162SOL    HW3  421   6.284   6.370   5.189  2.0105  0.5512 -0.9552
  162SOL    MW4  422   6.237   6.381   5.116  0.5549  0.4937  0.7654
  163SOL     OW  423   3.151   5.383   4.968 -0.6864  0.0103 -0.0607
  163SOL    HW2  424   3.182   5.458   5.019 -1.3520 -0.4219  1.0192
  163SOL    HW3  425   3.068   5.412   4.929 -0.1714  0.3450 -0.9327
  163SOL    MW4  426   3.144   5.396   4.970 -0.5348 -0.0031  0.4598
  164SOL     OW  427   3.986   0.034   0.939 -0.2074 -0.2068 -0.1641
  164SOL    HW2  428   4.044   0.102   0.973 -0.0945  0.4191 -1.5143
  164SOL    HW3  429   3.987   0.049   0.844 -2.3525 -0.3494 -0.2441
  164SOL    MW4  430   3.994   0.045   0.931 -0.1504  0.1197 -0.2189
  165SOL     OW  431   4.350   6.229   2.947 -0.2925 -0.0360 -0.1134
  165SOL    HW2  432   4.282   6.180   2.992  0.3234  0.4951  1.4788
  165SOL    HW3  433   4.373   6.175   2.871 -1.4096 -0.9374  0.1703
  165SOL    MW4  434   4.344   6.216   2.942  0.3855 -0.1303  0.0106
  166SOL     OW  435   1.240   3.530   0.485 -0.0611  0.3444 -0.7551
  166SOL    HW2  436   1.263   3.438   0.481 -3.1895 -0.6310  0.6272
  166SOL    HW3  437   1.180   3.543   0.411 -3.5325 -0.1550  1.7404
  166SOL    MW4  438   1.235   3.520   0.474 -0.5814 -0.7087  0.3971
  167SOL     OW  439   1.432   5.345   4.034  0.1831 -0.4998  0.0747
  167SOL    HW2  440   1.416   5.253   4.015  0.6719 -0.5262 -0.2341
  167SOL    HW3  441   1.349   5.388   4.013  0.2313 -0.7467 -0.6778
  167SOL    MW4  442   1.419   5.339   4.029 -0.2213 -0.3966 -0.0945
  168SOL     OW  443   2.391   5.349   3.119  0.0703  0.3012  0.3076
  168SOL    HW2  444   2.405   5.305   3.202 -0.1612 -0.6672 -0.1542
  168SOL    HW3  445   2.363   5.280   3.059 -0.1464  1.0471 -0.4786
  168SOL    MW4  446   2.389   5.334   3.122  0.0087 -0.4088 -0.0227
  169SOL     OW  447   0.869   5.250   3.856 -0.3207  0.2081  0.7015
  169SOL    HW2  448   0.935   5.241   3.925 -0.9172  0.8653  1.3688
  169SOL    HW3  449   0.918   5.239   3.774  0.0386 -2.8934  1.2261
  169SOL    MW4  450   0.884   5.247   3.854 -0.1845 -0.3647 -0.3027
  170SOL     OW  451   4.814   2.262   1.498 -0.7289 -0.1987  0.3430
  170SOL    HW2  452   4.744   2.323   1.521 -0.7747 -0.4013  0.7432
  170SOL    HW3  453   4.893   2.300   1.538 -0.6477 -0.0892  0.0837
  170SOL    MW4  454   4.815   2.275   1.506 -0.1385  0.0918  0.5951
  171SOL     OW  455   0.609   0.749   6.008  0.2721  0.3468 -0.2117
  171SOL    HW2  456   0.586   0.664   5.972  0.8818  0.0920 -0.0163
  171SOL    HW3  457   0.642   0.730   6.096  1.7829  0.6046 -0.6803
  171SOL    MW4  458   0.610   0.735   6.015 -0.0122  0.2559 -0.4552
  172SOL     OW  459   5.826   3.261   1.030 -0.4152 -0.0030 -0.1529
  172SOL    HW2  460   5.766   3.310   1.087 -0.0109 -0.9911  1.1811
  172SOL    HW3  461   5.906   3.251   1.083 -1.3605 -4.3963  0.8327
  172SOL    MW4  462   5.829   3.266   1.045  0.4934 -0.0974  0.2883
  173SOL     OW  463   6.249   2.076   4.138 -0.2381  0.3472 -0.1065
  173SOL    HW2  464   6.172   2.117   4.176 -1.0259 -1.5165  0.4629
  173SOL    HW3  465   6.296   2.039   4.213  0.0320 -0.4099 -0.6270
  173SOL    MW4  466   6.245   2.076   4.153  0.8432  0.2049  0.8925
  174SOL     OW  467   3.820   0.170   2.345 -0.3672  0.0272  0.0424
  174SOL    HW2  468   3.772   0.252   2.338 -0.6521 -0.2679 -2.2289
  174SOL    HW3  469   3.912   0.195   2.349 -0.5153  0.4828  0.6849
  174SOL    MW4  470   3.825   0.184   2.345 -0.1057  0.0356  0.0644
  175SOL     OW  471   4.670   3.470   1.305 -0.4040 -0.0966  0.3241
  175SOL    HW2  472   4.744   3.512   1.348  0.3780 -1.0520 -0.0436
  175SOL    HW3  473   4.684   3.485   1.211 -1.2188  0.5641  0.2936
  175SOL    MW4  474   4.682   3.478   1.298  0.5509  0.3892  0.0105
  176SOL     OW  475   1.261   3.562   3.672  0.4293  0.1470 -0.1953
  176SOL    HW2  476   1.274   3.520   3.587 -0.3100 -1.7934  0.5839
  176SOL    HW3  477   1.166   3.556   3.687  0.7524 -1.4257  1.6258
  176SOL    MW4  478   1.250   3.555   3.663  0.1727  0.1753  0.2952
  177SOL     OW  479   3.706   2.910   2.077  0.6108 -0.2896 -0.1926
  177SOL    HW2  480   3.623   2.903   2.029  0.7582  0.0166 -0.4975
  177SOL    HW3  481   3.701   2.842   2.144  0.5995 -1.0315 -0.9404
  177SOL    MW4  482   3.694   2.900   2.080 -0.1857  0.5426 -0.0759
  178SOL     OW  483   1.404   0.222   4.399 -0.0784 -0.4975 -0.1960
  178SOL    HW2  484   1.330   0.259   4.350 -0.0168 -1.6338 -1.1785
  178SOL    HW3  485   1.473   0.213   4.334  0.3265 -1.1452  0.3189
  178SOL    MW4  486   1.403   0.226   4.384  0.4295 -0.0917  0.4719
  179SOL     OW  487   1.188   5.292   2.690 -1.1039  0.1299  0.0078
  179SOL    HW2  488   1.260   5.354   2.674 -0.7457 -0.4547 -0.6572
  179SOL    HW3  489   1.228   5.223   2.744 -0.4311 -1.5540 -2.4948
  179SOL    MW4  490   1.203   5.291   2.695 -0.4396 -0.3653 -0.3009
  180SOL     OW  491   1.354   5.876   6.150  0.4685  0.4961  0.4342
  180SOL    HW2  492   1.351   5.968   6.121  0.3192  0.5541  0.6316
  180SOL    HW3  493   1.374   5.827   6.070 -0.4251  0.6077  0.1195
  180SOL    MW4  494   1.356   5.882   6.135 -0.1468  0.5970  0.0808
  181SOL     OW  495   2.182   2.382   2.917  0.5149  0.0440  0.4344
  181SOL    HW2  496   2.128   2.381   2.838  0.9896  2.0955  0.0391
  181SOL    HW3  497   2.231   2.300   2.913  0.0966 -0.1615 -1.0892
  181SOL    MW4  498   2.181   2.371   2.906  0.4011  0.1385  0.3482
  182SOL     OW  499   4.995   5.555   4.651  0.3486 -0.2062  0.3277
  182SOL    HW2  500   4.964   5.480   4.701  0.1529 -0.1866  0.2345
  182SOL    HW3  501   4.953   5.630   4.693 -0.4053 -0.2540 -0.3277
  182SOL    MW4  502   4.985   5.555   4.663 -0.4435 -0.4412  0.2178
  183SOL     OW  503   0.399   1.894   3.865  0.1294 -0.5647  0.0133
  183SOL    HW2  504   0.323   1.873   3.812 -0.5559 -0.2727  0.8606
  183SOL    HW3  505   0.439   1.970   3.823  0.3520 -1.1363 -0.8197
  183SOL    MW4  506   0.394   1.901   3.853  0.1770 -0.0175  0.1092
  184SOL     OW  507   0.874   2.022   5.180  0.3468 -0.1956  0.1775
  184SOL    HW2  508   0.822   2.100   5.195  1.3809  0.4530  0.5363
  184SOL    HW3  509   0.902   2.028   5.089  0.8792  0.1442  0.3602
  184SOL    MW4  510   0.871   2.033   5.170  0.6573  0.7035 -0.3041
  185SOL     OW  511   4.476   5.062   1.126 -0.3185  0.6111  0.0504
  185SOL    HW2  512   4.509   4.975   1.147 -2.2376  0.0012  0.6939
  185SOL    HW3  513   4.520   5.120   1.187  1.0131  0.1305 -0.4161
  185SOL    MW4  514   4.486   5.058   1.137 -0.5128  0.5263 -0.4877
  186SOL     OW  515   5.401   3.493   5.520  0.0497  0.4143 -0.4240
  186SOL    HW2  516   5.443   3.462   5.440  0.7805  0.2598  0.0028
  186SOL    HW3  517   5.356   3.574   5.494 -0.0245  0.1676 -1.0634
  186SOL    MW4  518   5.401   3.500   5.506 -0.3542  0.0880 -0.1091
  187SOL     OW  519   2.015   1.901   1.379 -0.4969 -0.1271  0.4471
  187SOL    HW2  520   2.025   1.807   1.368  1.2560 -0.0052  0.7418
  187SOL    HW3  521   1.921   1.915   1.380 -0.8171 -1.6257 -1.6207
  187SOL    MW4  522   2.004   1.891   1.377 -0.0603  0.5352  0.0948
  188SOL     OW  523   0.645   0.061   2.474  0.5941  0.3963  0.3299
  188SOL    HW2  524   0.566   0.065   2.419 -0.2559  2.8951  1.5870
  188SOL    HW3  525   0.716   0.088   2.415  0.6020 -1.8464 -0.8059
  188SOL    MW4  526   0.644   0.065   2.459  0.4645  0.2964 -0.4340
  189SOL     OW  527   4.455   6.410   1.713  0.4364 -0.3980  0.2842
  189SOL    HW2  528   4.362   6.428   1.702 -0.2520 -3.2528  0.6944
  189SOL    HW3  529   4.476   6.444   1.800 -0.5465 -0.7405  0.6781
  189SOL    MW4  530   4.446   6.417   1.723 -0.1433  0.2437 -0.6218
  190SOL     OW  531   1.229   5.639   5.834 -0.3243 -0.0971  0.2913
  190SOL    HW2  532   1.147   5.666   5.875  0.0542  0.2226  0.8500
  190SOL    HW3  533   1.220   5.545   5.822 -1.0779  0.0422 -0.3580
  190SOL    MW4  534   1.217   5.630   5.838 -0.1664 -0.2049 -0.5322
  191SOL     OW  535   1.338   2.969   4.545  0.1148 -0.0600  0.0496
  191SOL    HW2  536   1.349   3.057   4.508 -0.6145 -0.1581 -0.4235
  191SOL    HW3  537   1.311   2.985   4.635 -0.0054  0.2020 -0.0305
  191SOL    MW4  538   1.336   2.983   4.552  0.1430 -0.9493 -0.1536
  192SOL     OW  539   0.218   0.690   0.133  0.2094 -0.0352 -0.7825
  192SOL    HW2  540   0.297   0.637   0.121  1.0909  1.0669 -0.0669
  192SOL    HW3  541   0.193   0.715   0.044  0.6563 -0.3948 -1.0208
  192SOL    MW4  542   0.225   0.686   0.120 -0.3057  0.0295  0.5745
  193SOL     OW  543   5.737   6.323   5.676 -0.1765  0.2569  0.0809
  193SOL    HW2  544   5.815   6.293   5.722 -0.0301  1.2060  0.4797
  193SOL    HW3  545   5.669   6.325   5.744 -0.6430 -0.8605 -0.3270
  193SOL    MW4  546   5.738   6.320   5.691 -1.0191  0.8176  0.1116
  194SOL     OW  547   2.164   0.159   4.914  0.1090  0.1500 -0.3232
  194SOL    HW2  548   2.094   0.210   4.955  1.0131  0.5112  0.8282
  194SOL    HW3  549   2.119   0.087   4.870 -0.8909 -1.0270  2.3809
  194SOL    MW4  550   2.149   0.156   4.914 -0.7689 -0.4912 -0.0652
  195SOL     OW  551   3.367   0.271   5.764 -0.3268 -0.4215  0.9545
  195SOL    HW2  552   3.323   0.300   5.843 -1.5756 -0.0170  0.1402
  195SOL    HW3  553   3.410   0.189   5.788 -2.2610 -1.3056  1.5511
  195SOL    MW4  554   3.367   0.264   5.777  0.2024 -0.0408  0.1959
  196SOL     OW  555   4.347   0.909   4.404  0.2162  0.3759  0.3313
  196SOL    HW2  556   4.399   0.829   4.418 -0.2662 -0.2461 -1.2781
  196SOL    HW3  557   4.370   0.965   4.478 -0.6731 -1.8819  2.4406
  196SOL    MW4  558   4.357   0.906   4.416 -0.1852 -0.5225 -0.3793
  197SOL     OW  559   4.861   1.727   3.830 -0.1822  0.5261  0.2101
  197SOL    HW2  560   4.862   1.735   3.925  0.3631  0.0385  0.2471
  197SOL    HW3  561   4.916   1.651   3.811 -0.3949  0.5369 -0.4869
  197SOL    MW4  562   4.868   1.718   3.840 -0.9682  0.3087 -0.0551
  198SOL     OW  563   0.538   3.872   3.457 -0.1260 -0.1618 -0.2217
  198SOL    HW2  564   0.448   3.861   3.427  0.0413 -0.0135 -0.7759
  198SOL    HW3  565   0.558   3.791   3.504  0.0967 -0.9996 -1.7328
  198SOL    MW4  566   0.529   3.860   3.459 -0.2200  0.6035 -0.4641
  199SOL     OW  567   2.302   3.870   0.699  0.1973  0.2073 -0.4927
  199SOL    HW2  568   2.367   3.822   0.647  0.9108  0.9168 -0.2650
  199SOL    HW3  569   2.341   3.877   0.786 -0.4104  0.1985 -0.2134
  199SOL    MW4  570   2.316   3.864   0.704  0.3633  0.0299  0.3385
  200SOL     OW  571   3.686   6.076   3.444 -0.6461  0.2618 -0.1049
  200SOL    HW2  572   3.684   6.034   3.530  1.6419 -0.5488 -0.3712
  200SOL    HW3  573   3.681   6.169   3.463  2.3246  0.2681  1.2079
  200SOL    MW4  574   3.685   6.082   3.458  0.3404  0.0694 -0.1284
  201SOL     OW  575   6.430   6.099   4.774  0.0598 -0.3232 -0.6854
  201SOL    HW2  576   6.356   6.148   4.809  0.1915  1.1467 -2.3670
  201SOL    HW3  577   6.393   6.014   4.749 -0.2770 -0.9526  1.7528
  201SOL    MW4  578   6.415   6.094   4.775 -0.1976 -0.0078 -0.0604
  202SOL     OW  579   2.208   4.332   0.353 -0.1100  0.3759  0.3566
  202SOL    HW2  580   2.280   4.358   0.296  0.2770 -0.5151  0.4171
  202SOL    HW3  581   2.238   4.250   0.393 -1.1323  0.0251  0.4311
  202SOL    MW4  582   2.222   4.324   0.351 -0.3705 -0.3919  0.2862
  203SOL     OW  583   3.719   0.935   4.589  0.5297  0.1032  0.2545
  203SOL    HW2  584   3.725   0.869   4.520  0.7711 -0.0503  0.4190
  203SOL    HW3  585   3.674   0.890   4.661  2.4123 -0.5172  1.0972
  203SOL    MW4  586   3.714   0.920   4.589 -0.3888 -0.3167  0.2355
  204SOL     OW  587   5.379   4.157   2.829 -0.0100 -0.1180 -0.1085
  204SOL    HW2  588   5.319   4.083   2.833 -0.2398  0.0121 -1.0076
  204SOL    HW3  589   5.466   4.119   2.845 -0.2429 -0.4244  0.4218
  204SOL    MW4  590   5.383   4.142   2.831 -0.3633  0.1813 -0.2805
  205SOL     OW  591   4.019   2.357   0.291 -0.0687  0.3922  0.0542
  205SOL    HW2  592   4.091   2.303   0.258  0.1319  0.8305 -0.2250
  205SOL    HW3  593   4.019   2.342   0.386  0.0444 -0.0210 -0.0066
  205SOL    MW4  594   4.028   2.348   0.299 -0.2319 -0.8083  0.2700
  206SOL     OW  595   4.109   1.489   0.783  0.0349  0.1826  0.6124
  206SOL    HW2  596   4.069   1.402   0.785  2.0906 -0.8235  0.7294
  206SOL    HW3  597   4.133   1.502   0.692  0.3708  0.2876  0.7129
  206SOL    MW4  598   4.107   1.479   0.772 -0.0091  0.5409  0.3973
  207SOL     OW  599   3.480   3.669   2.055 -0.0359 -0.2010 -0.3614
  207SOL    HW2  600   3.410   3.604   2.057  0.2885 -0.5636  1.8091
  207SOL    HW3  601   3.455   3.729   1.984 -1.2647 -1.6583 -1.2160
  207SOL    MW4  602   3.467   3.669   2.046 -0.2464 -0.1201  0.2020
  208SOL     OW  603   2.594   5.286   2.204 -0.4757 -0.4712 -0.1859
  208SOL    HW2  604   2.499   5.277   2.199 -0.3862 -1.2726 -0.4697
  208SOL    HW3  605   2.620   5.236   2.281 -0.4747  1.4129  1.1229
  208SOL    MW4  606   2.585   5.278   2.213  0.0418 -0.1385  0.2811
  209SOL     OW  607   1.630   6.421   3.168 -0.3014  0.2251 -0.3005
  209SOL    HW2  608   1.712   6.378   3.191 -0.0704  0.3774 -0.8351
  209SOL    HW3  609   1.566   6.384   3.229  0.4539  1.2398  1.1738
  209SOL    MW4  610   1.632   6.411   3.179  0.2181  0.1931 -0.0804
  210SOL     OW  611   5.670   1.274   1.238  0.1189  0.4912 -0.2042
  210SOL    HW2  612   5.596   1.318   1.197 -0.5187 -1.2451 -0.9898
  210SOL    HW3  613   5.738   1.273   1.170 -0.1632 -0.4529 -0.4794
  210SOL    MW4  614   5.670   1.280   1.223 -0.2774 -0.7946 -0.1360
  211SOL     OW  615   4.200   4.072   5.385  0.2796 -0.2136  0.4551
  211SOL    HW2  616   4.181   4.102   5.473 -0.1558  0.1067  0.2555
  211SOL    HW3  617   4.174   3.980   5.385  0.1653 -0.1811  0.6247
  211SOL    MW4  618   4.194   4.063   5.397  0.0122 -0.1036  0.7859
  212SOL     OW  619   0.959   4.136   5.667 -0.1328 -0.4298  0.2974
  212SOL    HW2  620   0.895   4.178   5.609  1.6116 -0.2602 -1.5809
  212SOL    HW3  621   0.931   4.044   5.672 -0.6625 -0.3019 -0.2653
  212SOL    MW4  622   0.947   4.129   5.660  0.3628  0.1243  0.3024
  213SOL     OW  623   3.044   3.292   2.291 -0.1340 -0.6808 -0.2293
  213SOL    HW2  624   3.092   3.232   2.348 -1.0348 -1.0741  0.1266
  213SOL    HW3  625   3.016   3.238   2.217  0.8887 -0.2102 -0.9814
  213SOL    MW4  626   3.047   3.277   2.288  0.0191 -0.1394 -0.2297
  214SOL     OW  627   2.107   4.425   1.738 -0.0404 -0.0248 -0.2835
  214SOL    HW2  628   2.058   4.404   1.658 -0.2972  0.3937 -0.2390
  214SOL    HW3  629   2.197   4.436   1.708  0.3820 -2.4265 -0.1264
  214SOL    MW4  630   2.112   4.423   1.723 -1.0287  0.3526 -0.2945
  215SOL     OW  631   5.489   5.930   5.356  0.0160  0.4628 -0.1671
  215SOL    HW2  632   5.493   6.026   5.362  2.0947  0.4633 -0.6323
  215SOL    HW3  633   5.538   5.899   5.432 -0.0013 -0.2169 -0.4283
  215SOL    MW4  634   5.496   5.939   5.366 -0.1946  0.5282  0.4080
  216SOL     OW  635   3.891   3.655   4.488 -0.8330  0.1256 -0.1713
  216SOL    HW2  636   3.957   3.660   4.419  0.0518 -1.6015  0.4913
  216SOL    HW3  637   3.841   3.576   4.467 -0.6914 -0.2975  1.0220
  216SOL    MW4  638   3.893   3.645   4.476 -0.4340 -0.4515 -0.4803
  217SOL     OW  639   6.255   1.714   0.613  0.1072 -0.0736  0.1854
  217SOL    HW2  640   6.227   1.783   0.554  1.3412  0.4889  0.2128
  217SOL    HW3  641   6.315   1.661   0.561  0.8135  0.1299  0.7681
  217SOL    MW4  642   6.260   1.716   0.599  0.3840  0.1876  0.4512
  218SOL     OW  643   4.901   1.481   0.355  0.1230  0.0636  0.1632
  218SOL    HW2  644   4.996   1.473   0.370 -0.0051 -0.3131  0.8479
  218SOL    HW3  645   4.865   1.503   0.441 -0.3294  1.0531 -0.2686
  218SOL    MW4  646   4.909   1.483   0.369  0.0444 -0.2100  0.2567
  219SOL     OW  647   6.187   6.117   4.352  0.3956 -0.2596 -0.2262
  219SOL    HW2  648   6.237   6.039   4.327 -0.9650 -1.8928  1.7615
  219SOL    HW3  649   6.136   6.138   4.274 -0.2617 -2.2727 -0.4160
  219SOL    MW4  650   6.187   6.109   4.338 -0.1715  0.0459  0.4163
  220SOL     OW  651   1.818   2.226   3.527 -0.1574  0.6731  0.2455
  220SOL    HW2  652   1.907   2.207   3.554 -0.4245 -1.4317 -0.1378
  220SOL    HW3  653   1.815   2.198   3.435 -1.5582 -0.6880  0.6677
  220SOL    MW4  654   1.829   2.220   3.518 -0.1029 -0.3832  0.6752
  221SOL     OW  655   0.875   6.203   5.102  0.2559 -0.0210  0.1547
  221SOL    HW2  656   0.831   6.205   5.188 -0.8120 -0.4345 -0.3598
  221SOL    HW3  657   0.898   6.111   5.089 -2.2709 -0.5668 -1.2573
  221SOL    MW4  658   0.872   6.191   5.112 -0.2067  0.7615  0.0289
  222SOL     OW  659   3.193   0.970   6.056 -0.1275  0.1780 -0.1838
  222SOL    HW2  660   3.167   0.886   6.019 -0.1089 -0.2331  0.7129
  222SOL    HW3  661   3.249   0.947   6.131  0.1654  0.9929 -0.1447
  222SOL    MW4  662   3.197   0.956   6.061 -0.4266 -0.2028  0.5905
  223SOL     OW  663   1.180   3.465   1.577  0.4512  0.0977 -0.2290
  223SOL    HW2  664   1.147   3.537   1.630  1.4954  0.1521  0.3763
  223SOL    HW3  665   1.149   3.484   1.488 -0.9741  0.2194  0.2613
  223SOL    MW4  666   1.171   3.477   1.572  0.1515 -0.0367 -0.2577
  224SOL     OW  667   4.885   1.396   5.742 -0.2485 -0.1173  0.0119
  224SOL    HW2  668   4.976   1.383   5.716 -0.1495 -0.2725  0.4172
  224SOL    HW3  669   4.838   1.322   5.704 -0.5963  1.0988 -2.0231
  224SOL    MW4  670   4.891   1.384   5.734 -0.1299  0.5177  0.2998
  225SOL     OW  671   0.671   1.985   4.544 -0.6159 -0.3456 -0.3852
  225SOL    HW2  672   0.691   1.986   4.451  0.0685  1.3893 -0.2486
  225SOL    HW3  673   0.585   1.944   4.550 -0.6151 -0.5846 -1.7461
  225SOL    MW4  674   0.662   1.980   4.533  0.0299 -0.3410 -0.0355
  226SOL     OW  675   4.735   4.489   3.172  0.7225 -0.5520 -0.0924
  226SOL    HW2  676   4.789   4.562   3.205 -0.6395  0.9171 -0.9825
  226SOL    HW3  677   4.657   4.490   3.228 -0.3289  0.1621 -1.4989
  226SOL    MW4  678   4.732   4.499   3.184 -0.7316  0.1797 -0.0147
  227SOL     OW  679   0.876   5.072   6.219  0.7173 -0.1492 -0.4937
  227SOL    HW2  680   0.962   5.067   6.261  0.9533  2.0899 -0.5496
  227SOL    HW3  681   0.893   5.052   6.127  0.8543 -1.3587 -0.2246
  227SOL    MW4  682   0.890   5.069   6.212 -0.3104 -0.5187  0.1684
  228SOL     OW  683   2.447   1.236   4.428 -0.0112 -0.0335 -0.3795
  228SOL    HW2  684   2.483   1.263   4.343 -2.0069  0.2637 -1.2009
  228SOL    HW3  685   2.352   1.244   4.417 -0.4866 -2.6939  0.9611
  228SOL    MW4  686   2.439   1.241   4.415 -0.3322 -0.0117  0.1940
  229SOL     OW  687   6.258   3.541   2.234  0.4554 -0.1523  0.3902
  229SOL    HW2  688   6.320   3.505   2.297  1.5704 -0.1180 -0.6325
  229SOL    HW3  689   6.307   3.544   2.152 -1.1350 -0.7804 -0.6331
  229SOL    MW4  690   6.273   3.537   2.231 -0.0404 -0.3279 -0.9187
  230SOL     OW  691   6.219   3.930   5.323  0.0958  0.3794  0.3069
  230SOL    HW2  692   6.178   3.850   5.356  0.0609  1.4360  3.1467
  230SOL    HW3  693   6.147   3.982   5.289 -0.2034  0.1018  0.5066
  230SOL    MW4  694   6.204   3.926   5.323  0.4637  0.6267 -0.2740
  231SOL     OW  695   4.016   5.912   1.618  0.4161 -0.5796  0.3366
  231SOL    HW2  696   4.007   5.859   1.698 -0.1465  0.5397  1.0397
  231SOL    HW3  697   4.110   5.913   1.600  0.9486  1.6331  2.7498
  231SOL    MW4  698   4.027   5.905   1.626 -0.4263 -0.0987 -0.3573
  232SOL     OW  699   3.700   6.284   1.784  0.1630 -0.2424 -0.5111
  232SOL    HW2  700   3.693   6.335   1.864  2.0917 -1.0577  0.2514
  232SOL    HW3  701   3.631   6.318   1.727 -1.4242  0.1886  1.5624
  232SOL    MW4  702   3.690   6.295   1.787  0.0849 -0.3747  0.2192
  233SOL     OW  703   5.099   2.029   3.267  0.3060 -0.4169  0.1585
  233SOL    HW2  704   5.119   2.047   3.359 -0.2385 -0.9164  0.3833
  233SOL    HW3  705   5.030   2.090   3.245 -0.3939 -1.0869  0.4397
  233SOL    MW4  706   5.093   2.039   3.276 -0.4043  0.1041  0.0089
  234SOL     OW  707   0.751   2.068   5.802  0.0321  0.6715 -0.4299
  234SOL    HW2  708   0.826   2.067   5.743  0.6143 -0.3681  0.2970
  234SOL    HW3  709   0.776   2.132   5.870  0.3014  0.2834 -0.1563
  234SOL    MW4  710   0.765   2.077   5.803 -0.4582 -0.0112 -0.3654
  235SOL     OW  711   4.404   1.977   3.566 -0.1029 -0.1936  0.0062
  235SOL    HW2  712   4.350   1.917   3.515  1.1191 -0.6328 -0.8160
  235SOL    HW3  713   4.406   2.058   3.515 -0.1265 -0.1173  0.1256
  235SOL    MW4  714   4.397   1.980   3.553 -0.0237  0.1216  0.1776
  236SOL     OW  715   0.069   2.065   1.282  0.0303  0.1416 -0.0187
  236SOL    HW2  716   0.081   2.006   1.356 -2.3801 -0.0078  0.3250
  236SOL    HW3  717   0.148   2.119   1.281  0.2840 -0.0938  2.4246
  236SOL    MW4  718   0.081   2.064   1.291  0.4259 -0.0575  0.3278
  237SOL     OW  719   1.655   2.336   4.153 -0.3457  0.0305  0.3460
  237SOL    HW2  720   1.714   2.409   4.172  0.7508  0.2087 -3.1238
  237SOL    HW3  721   1.578   2.377   4.112  0.3026 -0.6764 -1.6809
  237SOL    MW4  722   1.652   2.351   4.150  0.7115  0.2083  0.3024
  238SOL     OW  723   5.670   6.116   1.357 -0.2644  0.4804  0.0833
  238SOL    HW2  724   5.734   6.169   1.404  0.0761  0.6221 -0.5262
  238SOL    HW3  725   5.623   6.179   1.302 -1.1710  0.4301  0.7826
  238SOL    MW4  726   5.672   6.131   1.356 -0.4780  0.6098  0.8392
  239SOL     OW  727   2.589   3.530   1.852  0.0882 -0.2590 -0.6783
  239SOL    HW2  728   2.669   3.487   1.882 -0.4473 -1.5377 -1.0427
  239SOL    HW3  729   2.578   3.603   1.913  1.2037 -0.4205 -0.2553
  239SOL    MW4  730   2.598   3.534   1.864  0.5312  0.1543 -0.2785
  240SOL     OW  731   5.904   1.973   0.927  1.0064  0.0737  1.2131
  240SOL    HW2  732   5.984   1.925   0.948  0.8461 -2.2275 -2.5220
  240SOL    HW3  733   5.930   2.036   0.860 -0.1959 -0.5802  0.0835
  240SOL    MW4  734   5.918   1.975   0.921  0.0433 -0.3759  0.4361
  241SOL     OW  735   3.950   5.640   2.104 -0.1351 -0.3083  0.2603
  241SOL    HW2  736   4.021   5.580   2.083  0.3227  0.2835  0.0922
  241SOL    HW3  737   3.870   5.594   2.077  0.1666 -1.0158  0.5435
  241SOL    MW4  738   3.949   5.626   2.098  0.3202  0.2078 -0.5667
  242SOL     OW  739   2.585   1.606   1.260 -0.3070  0.1749  0.2152
  242SOL    HW2  740   2.669   1.578   1.295  0.1710 -0.1747 -1.1228
  242SOL    HW3  741   2.597   1.700   1.243  0.2200 -0.0786 -0.9679
  242SOL    MW4  742   2.598   1.615   1.262 -0.8294 -0.3041 -0.3119
  243SOL     OW  743   1.999   1.515   2.910  0.4953  0.0094 -0.1712
  243SOL    HW2  744   2.037   1.530   2.823  0.4057 -1.9783 -0.5976
  243SOL    HW3  745   1.959   1.429   2.904 -1.6449  0.8414  1.1440
  243SOL    MW4  746   1.999   1.506   2.897 -0.4365 -0.8396  0.1989
  244SOL     OW  747   5.462   2.613   3.577  0.3568 -0.4119 -0.5047
  244SOL    HW2  748   5.553   2.582   3.574  0.8276  0.9111 -0.7339
  244SOL    HW3  749   5.411   2.535   3.598  1.6380 -0.9979  0.6015
  244SOL    MW4  750   5.467   2.599   3.579  0.2598  0.0429 -0.4185
  245SOL     OW  751   3.869   4.311   3.432  0.7125  0.1081  0.1229
  245SOL    HW2  752   3.827   4.334   3.514  0.9640 -0.6609  0.4824
  245SOL    HW3  753   3.929   4.383   3.414  1.3541 -0.1580  1.1187
  245SOL    MW4  754   3.872   4.323   3.440 -0.6270 -0.9140 -0.1054
  246SOL     OW  755   0.183   2.825   1.032  0.0842 -0.0821  0.1031
  246SOL    HW2  756   0.256   2.879   1.004 -1.1529  1.0795 -0.9640
  246SOL    HW3  757   0.202   2.739   0.995  0.5670  0.3721 -0.7284
  246SOL    MW4  758   0.195   2.821   1.023  0.7056  0.0280 -0.0733
  247SOL     OW  759   1.925   2.490   5.733 -0.1937 -0.0878 -0.8757
  247SOL    HW2  760   1.888   2.430   5.798 -0.5203  0.4729 -0.5311
  247SOL    HW3  761   1.887   2.576   5.755  1.6687  0.6185 -0.1891
  247SOL    MW4  762   1.915   2.494   5.745 -0.1453 -0.4290  0.4997
  248SOL     OW  763   3.418   6.345   0.700 -0.1657  0.3841  0.6530
  248SOL    HW2  764   3.443   6.261   0.662  0.5889  0.5075  0.8605
  248SOL    HW3  765   3.473   6.354   0.778 -0.6909  0.7847  0.9866
  248SOL    MW4  766   3.428   6.335   0.705  0.0738  0.0530  0.2029
  249SOL     OW  767   2.534   1.807   4.962 -0.0074  0.4582  0.3067
  249SOL    HW2  768   2.542   1.717   4.993  0.1571  0.4454  0.2318
  249SOL    HW3  769   2.487   1.800   4.879  0.3276  0.4004  0.1158
  249SOL    MW4  770   2.529   1.794   4.955  0.2304  0.1637 -0.3887
  250SOL     OW  771   4.680   4.646   1.972 -0.3770 -0.1329 -0.0220
  250SOL    HW2  772   4.679   4.644   1.876 -0.7037  0.6291 -0.0413
  250SOL    HW3  773   4.772   4.634   1.995 -0.0224  1.4659 -0.4986
  250SOL    MW4  774   4.692   4.644   1.963  0.3071 -0.0686  0.1245
  251SOL     OW  775   4.573   2.168   1.022  0.3071 -0.1759 -0.3649
  251SOL    HW2  776   4.631   2.098   1.052  1.8662  1.9312  1.9882
  251SOL    HW3  777   4.594   2.242   1.079 -2.7025  1.6079 -1.3553
  251SOL    MW4  778   4.584   2.169   1.034  0.3266  0.3750  0.0441
  252SOL     OW  779   5.102   1.379   1.551 -0.2676 -0.0382 -0.7264
  252SOL    HW2  780   5.072   1.468   1.529 -0.3049 -0.0815 -0.8498
  252SOL    HW3  781   5.192   1.391   1.581 -0.3249  0.0615 -0.5910
  252SOL    MW4  782   5.110   1.393   1.552  0.3711 -0.0236  0.1309
  253SOL     OW  783   3.880   2.301   1.849  0.0254  0.3412  0.0633
  253SOL    HW2  784   3.813   2.311   1.917 -1.7666  0.1752 -1.5927
  253SOL    HW3  785   3.844   2.235   1.789  0.8507  1.5245 -1.8304
  253SOL    MW4  786   3.867   2.294   1.850 -0.4288 -0.2242  0.5966
  254SOL     OW  787   5.608   0.854   6.170  0.0993 -0.0310 -0.1825
  254SOL    HW2  788   5.623   0.812   6.255  2.6240  0.8784 -0.1022
  254SOL    HW3  789   5.604   0.782   6.107 -0.1691 -0.6143  0.4955
  254SOL    MW4  790   5.610   0.839   6.173 -0.0793 -0.6756  0.1419
  255SOL     OW  791   0.786   3.969   2.036  0.0544  0.3443 -0.0501
  255SOL    HW2  792   0.798   3.987   1.943  0.2592 -0.1267 -0.1167
  255SOL    HW3  793   0.695   3.940   2.043 -0.0476  0.6517 -0.0559
  255SOL    MW4  794   0.775   3.968   2.025 -0.1691  0.0991 -0.4336
  256SOL     OW  795   0.352   2.716   5.939 -0.3170 -0.4488  0.4136
  256SOL    HW2  796   0.334   2.668   6.020  2.3319 -0.5182  1.0507
  256SOL    HW3  797   0.337   2.652   5.869 -2.6429 -0.3839  0.7770
  256SOL    MW4  798   0.348   2.701   5.940 -0.3199  0.0582  0.2899
  257SOL     OW  799   3.080   2.336   6.035 -0.0858 -0.4565 -0.2935
  257SOL    HW2  800   3.065   2.395   5.961  0.4976  0.8071  0.5886
  257SOL    HW3  801   3.004   2.347   6.091  0.1376 -0.3661 -0.0062
  257SOL    MW4  802   3.068   2.345   6.032 -0.4319 -0.0653  0.0084
  258SOL     OW  803   2.721   3.707   2.437  0.5903  0.4970 -0.6963
  258SOL    HW2  804   2.637   3.739   2.471  0.8418  2.1844 -1.5602
  258SOL    HW3  805   2.787   3.750   2.492  0.9088 -0.2974 -0.4516
  258SOL    MW4  806   2.719   3.717   2.449 -0.1157  0.1976  0.1497
  259SOL     OW  807   2.369   4.113   5.745 -0.0833 -0.1252 -0.1396
  259SOL    HW2  808   2.457   4.147   5.753 -0.2350  0.0680  0.8133
  259SOL    HW3  809   2.337   4.107   5.835 -2.2810  3.0712 -0.5616
  259SOL    MW4  810   2.376   4.117   5.758 -0.2074  0.7578  0.3246
  260SOL     OW  811   5.596   6.308   2.333  0.6321  0.2754 -0.1948
  260SOL    HW2  812   5.546   6.292   2.253  0.1543  0.0624  0.1338
  260SOL    HW3  813   5.605   6.221   2.373 -1.1462  0.6178  1.1271
  260SOL    MW4  814   5.590   6.294   2.328 -0.0028  0.2158 -0.3889
  261SOL     OW  815   1.420   1.835   2.566 -0.1178  0.8513 -0.1215
  261SOL    HW2  816   1.465   1.865   2.645 -2.4726 -0.1043  1.7337
  261SOL    HW3  817   1.327   1.842   2.588 -0.8469 -0.2167 -2.5512
  261SOL    MW4  818   1.414   1.840   2.579 -0.2909 -0.1394  0.1509
  262SOL     OW  819   4.011   1.153   0.232 -0.4625 -0.5499  0.5701
  262SOL    HW2  820   4.069   1.127   0.160 -0.3270 -0.9602  0.8246
  262SOL    HW3  821   4.059   1.224   0.276 -0.8118  0.1080 -0.0961
  262SOL    MW4  822   4.025   1.159   0.229 -0.4284 -0.0680 -0.3565
  263SOL     OW  823   5.030   2.828   3.593  0.2049 -0.1097 -0.1568
  263SOL    HW2  824   5.068   2.852   3.508  0.6509  0.7076  0.2674
  263SOL    HW3  825   4.936   2.821   3.576  0.1258  1.3615 -0.4335
  263SOL    MW4  826   5.023   2.830   3.579  0.2619 -0.0806  0.0553
  264SOL     OW  827   2.141   6.370   0.253 -0.0102 -0.2097  0.0173
  264SOL    HW2  828   2.194   6.348   0.177  0.0009 -1.9724  0.5045
  264SOL    HW3  829   2.204   6.387   0.322  0.0854 -4.1558  1.1244
  264SOL    MW4  830   2.156   6.369   0.252  0.6711 -0.4998  0.1896
  265SOL     OW  831   5.439   4.409   2.406 -0.3184  0.2826  0.4190
  265SOL    HW2  832   5.419   4.462   2.483 -0.1234  0.7940  0.1283
  265SOL    HW3  833   5.414   4.464   2.332  0.4425  0.2162  0.0969
  265SOL    MW4  834   5.433   4.423   2.406  0.0197 -0.3151  0.1337
  266SOL     OW  835   5.060   5.491   3.676 -0.2405  0.2609  0.4855
  266SOL    HW2  836   5.130   5.473   3.738  0.3848  1.7420  0.2302
  266SOL    HW3  837   5.097   5.552   3.613 -1.4018  0.1597 -0.3401
  266SOL    MW4  838   5.074   5.496   3.676  0.1443 -0.3463  0.0860
  267SOL     OW  839   5.246   0.660   3.076  0.1386  0.4691  0.5252
  267SOL    HW2  840   5.341   0.668   3.079  0.4810 -2.7441  3.3926
  267SOL    HW3  841   5.227   0.636   2.985  1.8466  2.3367 -0.3915
  267SOL    MW4  842   5.256   0.658   3.064  0.0146 -0.5594 -0.4943
  268SOL     OW  843   4.097   4.578   1.014 -0.1882  0.0292 -0.1037
  268SOL    HW2  844   4.148   4.658   1.027 -1.7678  1.0519  0.0817
  268SOL    HW3  845   4.154   4.521   0.962 -0.5657  2.9680 -4.2005
  268SOL    MW4  846   4.111   4.581   1.009  0.1992  0.1604  0.1615
  269SOL     OW  847   1.122   0.014   2.386 -0.0880 -0.3331 -0.1753
  269SOL    HW2  848   1.096  -0.041   2.313  0.9483 -1.2819  0.1529
  269SOL    HW3  849   1.104  -0.039   2.464 -1.5708  0.8132  0.3302
  269SOL    MW4  850   1.116  -0.000   2.387  0.0863  0.0975  0.0502
  270SOL     OW  851   6.314   1.539   5.356  0.2929  0.1228 -0.6474
  270SOL    HW2  852   6.262   1.560   5.433 -1.3073  2.3566 -2.2072
  270SOL    HW3  853   6.315   1.443   5.353 -1.1230  0.0053  1.1383
  270SOL    MW4  854   6.307   1.529   5.365 -0.2508 -0.3250  0.0921
  271SOL     OW  855   2.153   3.754   4.372  0.6760 -0.0535 -0.2355
  271SOL    HW2  856   2.111   3.722   4.452 -4.0421  1.9483 -1.5549
  271SOL    HW3  857   2.114   3.702   4.302  2.3332  0.3363 -1.5148
  271SOL    MW4  858   2.142   3.743   4.373  0.0468 -0.1727 -0.1389
  272SOL     OW  859   3.264   1.601   0.357 -0.0039 -0.5533  0.1228
  272SOL    HW2  860   3.221   1.591   0.272 -0.8208 -0.9934  0.5719
  272SOL    HW3  861   3.346   1.647   0.337  0.2554 -1.4540 -1.0189
  272SOL    MW4  862   3.269   1.606   0.343 -0.1582  0.2264  0.2590
  273SOL     OW  863   4.776   0.030   4.776 -0.2443  0.0794 -0.4519
  273SOL    HW2  864   4.861   0.073   4.779  0.1268 -0.6695 -0.0969
  273SOL    HW3  865   4.783  -0.034   4.706 -1.7176  2.4299 -2.9608
  273SOL    MW4  866   4.788   0.027   4.767 -0.3240  0.0879  0.4847
  274SOL     OW  867   4.583   4.358   6.441 -0.0372  0.3924  0.0114
  274SOL    HW2  868   4.528   4.384   6.515 -0.0596 -1.5428  0.7278
  274SOL    HW3  869   4.525   4.357   6.366 -0.8992 -1.1234  0.6629
  274SOL    MW4  870   4.568   4.361   6.441  0.6027  0.0311  0.0822
  275SOL     OW  871   1.237   5.021   4.965 -0.2655 -0.0749  0.2251
  275SOL    HW2  872   1.192   4.941   4.938 -0.0114 -0.5358  1.1291
  275SOL    HW3  873   1.220   5.083   4.894 -0.6979 -0.8409 -0.3579
  275SOL    MW4  874   1.229   5.018   4.952 -0.1898 -1.0035  0.0341
  276SOL     OW  875   4.493   4.647   2.675  0.2666 -0.2310 -0.1792
  276SOL    HW2  876   4.479   4.590   2.750 -0.3018 -1.7646 -1.3817
  276SOL    HW3  877   4.582   4.626   2.646  0.6642  0.7046  0.3186
  276SOL    MW4  878   4.503   4.636   2.681 -0.3637  0.0596 -0.5132
  277SOL     OW  879   4.885   0.321   0.045  0.2590  0.4282 -0.2318
  277SOL    HW2  880   4.980   0.317   0.034  0.6184 -0.0383  2.3036
  277SOL    HW3  881   4.865   0.415   0.040  0.3824  0.3817 -3.3842
  277SOL    MW4  882   4.895   0.333   0.043 -0.3206  0.6666  1.0948
  278SOL     OW  883   3.041   0.625   1.817 -0.2851 -0.2502 -0.0737
  278SOL    HW2  884   3.043   0.546   1.871 -0.1042 -0.0681  0.1933
  278SOL    HW3  885   2.981   0.684   1.863 -2.3311 -1.0965 -1.5255
  278SOL    MW4  886   3.034   0.622   1.831 -0.4688 -0.0227  0.0258
  279SOL     OW  887   4.975   2.163   2.167 -0.3296 -0.1336 -0.5789
  279SOL    HW2  888   4.966   2.170   2.072 -0.5833 -0.6080 -0.5940
  279SOL    HW3  889   4.970   2.069   2.185 -1.3656  0.0108  0.0078
  279SOL    MW4  890   4.973   2.151   2.157 -0.8650 -0.7886  0.4672
  280SOL     OW  891   6.174   1.928   5.113  0.7127  0.0310 -0.7749
  280SOL    HW2  892   6.183   1.833   5.121  1.3026  0.2402  1.7265
  280SOL    HW3  893   6.105   1.951   5.175  1.4380  1.3599 -0.4147
  280SOL    MW4  894   6.166   1.919   5.122  0.2415 -0.1382  0.2423
  281SOL     OW  895   4.455   1.772   2.413  0.0869 -0.2460 -0.1626
  281SOL    HW2  896   4.532   1.794   2.467  0.4490 -0.9139 -0.3911
  281SOL    HW3  897   4.420   1.692   2.454  1.9668 -2.4105 -2.4349
  281SOL    MW4  898   4.461   1.764   2.426  0.3294  0.2864  0.4688
  282SOL     OW  899   6.403   0.290   5.153  0.4020 -0.3391 -0.0853
  282SOL    HW2  900   6.331   0.236   5.187  1.1821 -0.6530  1.1271
  282SOL    HW3  901   6.383   0.299   5.060 -0.7109 -1.2071  0.0357
  282SOL    MW4  902   6.391   0.284   5.146 -0.7469  0.4179  0.5475
  283SOL     OW  903   2.905   6.112   2.820  0.4984 -0.4915 -1.0469
  283SOL    HW2  904   2.839   6.176   2.791 -2.0313 -2.9795 -1.2637
  283SOL    HW3  905   2.969   6.110   2.749  1.2616  2.4412 -0.5645
  283SOL    MW4  906   2.905   6.120   2.807  0.3537 -0.4321  0.2120
  284SOL     OW  907   2.813   4.733   2.216 -0.2087  0.0143  0.0407
  284SOL    HW2  908   2.759   4.676   2.272 -0.7502  0.4250 -0.0508
  284SOL    HW3  909   2.896   4.742   2.263 -0.8582  0.8313  1.0833
  284SOL    MW4  910   2.817   4.726   2.230 -0.5788 -0.1350 -0.2497
  285SOL     OW  911   4.194   5.957   5.024 -0.2991 -0.3436  0.4821
  285SOL    HW2  912   4.108   5.952   5.065 -2.0460  0.9787 -2.6420
  285SOL    HW3  913   4.216   5.867   5.003 -1.9593 -0.5572 -0.5094
  285SOL    MW4  914   4.186   5.945   5.027 -0.8097 -0.1598 -0.2538
  286SOL     OW  915   4.414   5.153   2.902 -0.2163  0.2765  0.2400
  286SOL    HW2  916   4.462   5.097   2.963 -0.6107  0.4853  0.7483
  286SOL    HW3  917   4.358   5.093   2.853  0.2241  0.0881 -0.0358
  286SOL    MW4  918   4.413   5.138   2.903 -0.0693 -0.0051 -0.0871
  287SOL     OW  919   0.472   2.620   2.683 -0.3603  0.6318  0.3676
  287SOL    HW2  920   0.428   2.705   2.677 -1.7239 -0.0332  0.3711
  287SOL    HW3  921   0.513   2.608   2.598 -1.1095  0.8199 -0.0298
  287SOL    MW4  922   0.471   2.630   2.671  0.1461 -0.1329  0.1988
  288SOL     OW  923   1.023   5.686   6.029 -0.5204  0.0214 -0.1739
  288SOL    HW2  924   1.076   5.633   6.089 -1.3386 -1.7148 -0.9298
  288SOL    HW3  925   0.957   5.627   5.996 -1.8756  1.6994 -0.6195
  288SOL    MW4  926   1.021   5.672   6.033 -0.0487  0.0546  0.0495
  289SOL     OW  927   6.146   2.808   3.459 -0.3525 -0.1519 -0.5595
  289SOL    HW2  928   6.179   2.722   3.431  1.6634 -0.0428  1.2335
  289SOL    HW3  929   6.108   2.792   3.546  1.5134  0.9921  0.5309
  289SOL    MW4  930   6.145   2.794   3.467  0.5283  0.1128 -0.1534
  290SOL     OW  931   0.284   4.096   6.206  0.1428  0.2297  0.3445
  290SOL    HW2  932   0.214   4.090   6.141  1.9722  3.0046 -2.1498
  290SOL    HW3  933   0.277   4.185   6.241  1.5678  0.0999  1.0284
  290SOL    MW4  934   0.274   4.107   6.202  0.5608  0.1201  0.5196
  291SOL     OW  935   4.317   3.448   1.761 -0.7331  0.0171  0.2221
  291SOL    HW2  936   4.259   3.373   1.772  3.3070 -3.5744 -0.1862
  291SOL    HW3  937   4.345   3.444   1.669  0.6607  1.1596  0.5528
  291SOL    MW4  938   4.313   3.438   1.750  0.4409 -0.6483  0.1998
  292SOL     OW  939   2.517   0.288   1.196 -0.3826 -0.5174  0.7898
  292SOL    HW2  940   2.579   0.360   1.184  1.0187 -1.9687 -1.2668
  292SOL    HW3  941   2.551   0.239   1.271 -0.7306  0.3030  1.5072
  292SOL    MW4  942   2.529   0.291   1.204  0.5836 -0.2503  0.5888
  293SOL     OW  943   6.354   4.142   2.014 -0.0042  0.1360  0.3708
  293SOL    HW2  944   6.428   4.153   2.074  0.4520 -1.4666  0.1614
  293SOL    HW3  945   6.309   4.063   2.046 -0.8258  0.3085 -0.3175
  293SOL    MW4  946   6.358   4.133   2.027  0.7324 -0.0395  0.5476
  294SOL     OW  947   5.989   2.313   3.840 -0.0955  0.2596  0.6117
  294SOL    HW2  948   6.003   2.287   3.749 -1.6315 -0.4208  0.5335
  294SOL    HW3  949   6.077   2.323   3.876  0.5596  1.0084 -1.0595
  294SOL    MW4  950   6.002   2.311   3.832 -0.0366 -0.5284  0.6562
  295SOL     OW  951   1.864   4.244   3.661  0.3706 -0.6152  0.3370
  295SOL    HW2  952   1.923   4.169   3.673  0.7638 -0.1626  1.2580
  295SOL    HW3  953   1.822   4.255   3.746 -0.8751 -0.7746 -0.2381
  295SOL    MW4  954   1.866   4.235   3.674  0.0341  0.5044 -0.1598
  296SOL     OW  955   2.154   2.100   0.607 -0.5062  0.0493  0.1191
  296SOL    HW2  956   2.121   2.108   0.517 -0.8937 -0.9776  0.1482
  296SOL    HW3  957   2.243   2.134   0.603  0.0204 -1.3343 -1.0304
  296SOL    MW4  958   2.161   2.105   0.594  0.1859  0.5407  1.0194
  297SOL     OW  959   5.816   2.066   4.809  0.1181 -0.3071  0.5513
  297SOL    HW2  960   5.766   2.147   4.825  0.6690  0.7746 -2.5292
  297SOL    HW3  961   5.760   2.015   4.750  1.7902  0.1449 -1.5493
  297SOL    MW4  962   5.802   2.070   4.804 -0.9585  0.1653 -0.1431
  298SOL     OW  963   1.737   6.134   1.563  0.0105 -0.4571 -0.3447
  298SOL    HW2  964   1.731   6.051   1.515 -1.1566  0.2879 -1.5644
  298SOL    HW3  965   1.651   6.175   1.551 -0.0643  0.1499  1.7429
  298SOL    MW4  966   1.724   6.128   1.555 -0.0442 -0.5163  0.1613
  299SOL     OW  967   2.567   1.980   5.172  0.0860  0.3231  0.0945
  299SOL    HW2  968   2.590   1.912   5.109 -0.2158 -1.0490  1.3940
  299SOL    HW3  969   2.649   2.024   5.192 -0.0657  1.9908 -2.5121
  299SOL    MW4  970   2.581   1.977   5.166 -0.0635 -0.1206  0.1754
  300SOL     OW  971   1.074   1.025   4.168 -0.1227 -0.5268 -0.1786
  300SOL    HW2  972   0.983   0.996   4.170  0.0176 -1.0548 -0.8112
  300SOL    HW3  973   1.120   0.954   4.123  0.7098 -0.5509  0.6883
  300SOL    MW4  974   1.068   1.011   4.162  0.4132  0.3662 -0.2594
  301SOL     OW  975   6.121   0.891   0.974 -0.3919  0.4036 -0.2561
  301SOL    HW2  976   6.029   0.867   0.975 -0.0152 -1.1888  1.1111
  301SOL    HW3  977   6.121   0.986   0.967 -2.1531  0.4540  0.0312
  301SOL    MW4  978   6.109   0.900   0.973 -0.9255  0.3659 -0.2343
  302SOL     OW  979   0.621   1.882   0.472 -0.3590 -0.2173  0.2252
  302SOL    HW2  980   0.586   1.946   0.411 -0.2435 -0.9181 -0.6026
  302SOL    HW3  981   0.703   1.920   0.503 -0.6943  0.3903  0.3753
  302SOL    MW4  982   0.627   1.895   0.468 -0.3010 -0.0128 -0.2410
  303SOL     OW  983   0.095   5.061   0.789  0.0669 -0.0434 -0.8674
  303SOL    HW2  984   0.113   5.155   0.785  0.9627 -0.0646  1.2806
  303SOL    HW3  985   0.181   5.020   0.800 -0.3294 -1.1145 -1.5703
  303SOL    MW4  986   0.109   5.068   0.790  0.1475  0.2676  0.0639
  304SOL     OW  987   1.273   3.668   0.104  0.0856 -0.1876 -0.1187
  304SOL    HW2  988   1.256   3.756   0.070  1.2978  0.5519  1.0958
  304SOL    HW3  989   1.352   3.678   0.157  1.1406 -2.3110 -1.1657
  304SOL    MW4  990   1.281   3.681   0.106 -0.4676 -0.0756 -0.0582
  305SOL     OW  991   4.406   1.260   5.314  0.2033 -0.0190 -0.0275
  305SOL    HW2  992   4.419   1.208   5.393  0.3995  0.4303  0.2378
  305SOL    HW3  993   4.493   1.270   5.277 -0.1045 -2.1752 -1.5764
  305SOL    MW4  994   4.419   1.254   5.319 -0.0378 -0.6872  0.0149
  306SOL     OW  995   4.367   4.654   0.143 -0.0798  0.0897  0.3384
  306SOL    HW2  996   4.430   4.710   0.098 -0.0849 -1.5565 -1.9251
  306SOL    HW3  997   4.284   4.669   0.097 -0.9520  0.8332  2.0545
  306SOL    MW4  998   4.364   4.664   0.131  0.4689 -0.6700  0.3508
  307SOL     OW  999   3.575   2.323   3.372  0.1958  0.2711  0.2358
  307SOL    HW2 1000   3.538   2.244   3.333 -0.3778  0.6926 -0.0961
  307SOL    HW3 1001   3.549   2.393   3.312 -0.2812  0.8663  1.1137
  307SOL    MW4 1002   3.567   2.322   3.359 -0.6233 -0.4896 -0.7112
  308SOL     OW 1003   5.186   4.353   5.002 -0.5357  0.0917  0.0256
  308SOL    HW2 1004   5.246   4.394   4.940  0.3879 -1.3187 -0.0544
  308SOL    HW3 1005   5.102   4.397   4.987  0.0982  0.9894 -0.9778
  308SOL    MW4 1006   5.183   4.364   4.992 -0.1612 -0.3139 -0.1570
  309SOL     OW 1007   3.038   3.547   2.393  0.6254  0.2785  0.1611
  309SOL    HW2 1008   3.065   3.461   2.362 -1.7919 -0.9351  1.1508
  309SOL    HW3 1009   2.964   3.571   2.337  0.3056  0.9894  0.8655
  309SOL    MW4 1010   3.032   3.539   2.381 -0.6342  0.0137  1.0378
  310SOL     OW 1011   1.269   5.281   0.385 -0.7708  0.0076  0.2238
  310SOL    HW2 1012   1.293   5.313   0.298  0.5140 -2.7754 -0.5859
  310SOL    HW3 1013   1.345   5.299   0.440 -1.0535  0.5822  0.4296
  310SOL    MW4 1014   1.282   5.287   0.381  0.2403 -0.2558  0.3331
  311SOL     OW 1015   4.584   5.590   2.713  0.1678  0.8639 -0.0597
  311SOL    HW2 1016   4.597   5.635   2.630 -0.6595  3.1859  0.9817
  311SOL    HW3 1017   4.500   5.545   2.704  0.8779 -0.3364 -1.0221
  311SOL    MW4 1018   4.575   5.590   2.701  0.6435 -0.0444  0.1786
  312SOL     OW 1019   2.302   3.108   2.905 -0.7244  0.5449  0.6261
  312SOL    HW2 1020   2.330   3.081   2.992  1.3834  2.0399  0.4939
  312SOL    HW3 1021   2.230   3.049   2.883  1.2710 -2.5626  1.7215
  312SOL    MW4 1022   2.296   3.097   2.913  0.4964 -0.4265 -0.5412
  313SOL     OW 1023   4.552   2.739   6.355 -0.6458 -0.0474 -0.3817
  313SOL    HW2 1024   4.620   2.788   6.401  1.0885 -1.6991 -1.0523
  313SOL    HW3 1025   4.509   2.805   6.301 -0.9004  1.4001  1.4792
  313SOL    MW4 1026   4.556   2.754   6.354 -0.0632 -0.1926  0.5906
  314SOL     OW 1027   5.779   2.556   3.599 -0.0705  0.0033  0.9595
  314SOL    HW2 1028   5.821   2.625   3.548  0.6598 -1.6235 -0.7828
  314SOL    HW3 1029   5.821   2.560   3.685  0.7378  1.0275  0.5373
  314SOL    MW4 1030   5.790   2.566   3.603  0.4541  0.0117  0.1479
  315SOL     OW 1031   4.671   4.996   0.381  0.4422  0.9436  0.2121
  315SOL    HW2 1032   4.711   5.023   0.299  1.1376 -1.1954 -0.2049
  315SOL    HW3 1033   4.682   4.901   0.383 -2.0434  0.5988  1.4592
  315SOL    MW4 1034   4.678   4.987   0.370 -0.9476  0.5286  0.1515
  316SOL     OW 1035   6.042   3.190   2.921  0.1363  0.2736  0.0169
  316SOL    HW2 1036   5.976   3.260   2.920 -0.8283 -0.5923 -1.2265
  316SOL    HW3 1037   6.068   3.183   3.012 -2.0261  0.1821  0.6890
  316SOL    MW4 1038   6.037   3.199   2.933  0.8128  0.3457  0.4580
  317SOL     OW 1039   5.714   3.775   5.084 -0.7658  0.3491 -0.0585
  317SOL    HW2 1040   5.721   3.686   5.050  1.4383  0.9737 -1.4468
  317SOL    HW3 1041   5.663   3.822   5.019 -0.2052  0.5512 -0.3585
  317SOL    MW4 1042   5.708   3.769   5.071  0.0262  0.5093 -0.4144
  318SOL     OW 1043   4.231   0.635   2.662  0.1779 -0.6223  0.0298
  318SOL    HW2 1044   4.253   0.689   2.737  0.5358 -0.3144 -0.2935
  318SOL    HW3 1045   4.236   0.694   2.587  2.5774 -1.4751 -0.6016
  318SOL    MW4 1046   4.235   0.650   2.662 -0.3050 -0.5413 -0.6196
  319SOL     OW 1047   3.807   2.072   1.671 -0.2631  0.2130 -0.1807
  319SOL    HW2 1048   3.713   2.086   1.681  0.1008  1.7941  1.4413
  319SOL    HW3 1049   3.826   2.104   1.582 -1.3099 -0.5807 -0.7082
  319SOL    MW4 1050   3.797   2.078   1.660 -0.5761  0.5573  0.3280
  320SOL     OW 1051   3.558   4.979   5.791 -0.0737  0.4170  0.0277
  320SOL    HW2 1052   3.512   5.006   5.871 -0.7301 -0.4159 -0.0515
  320SOL    HW3 1053   3.580   5.062   5.747  0.2460  0.8822  1.0316
  320SOL    MW4 1054   3.555   4.994   5.796  0.5894 -0.0235  0.0107
  321SOL     OW 1055   4.951   2.743   0.166  0.7648  0.2626 -0.3309
  321SOL    HW2 1056   4.871   2.735   0.219  0.4170 -0.9197 -1.0035
  321SOL    HW3 1057   5.019   2.699   0.217  1.0242  1.3162  0.2670
  321SOL    MW4 1058   4.949   2.736   0.180  0.6215  0.6564 -0.5157
  322SOL     OW 1059   2.394   5.327   6.372 -0.3822 -0.3366 -0.5668
  322SOL    HW2 1060   2.388   5.311   6.466  0.7172  1.1574 -0.2060
  322SOL    HW3 1061   2.322   5.388   6.354  0.1823  0.3704 -0.4440
  322SOL    MW4 1062   2.383   5.333   6.382 -0.1742 -0.2024  0.0956
  323SOL     OW 1063   3.585   0.494   6.051  0.8023 -0.1900 -0.2128
  323SOL    HW2 1064   3.548   0.575   6.017 -1.1217 -0.9907 -0.1929
  323SOL    HW3 1065   3.551   0.488   6.140  2.0050 -0.3891  0.2530
  323SOL    MW4 1066   3.575   0.504   6.058  0.0155  0.4310 -0.0951
  324SOL     OW 1067   2.786   0.170   1.924  0.4152  0.4904  0.4133
  324SOL    HW2 1068   2.776   0.117   2.003 -1.1532 -0.5206 -0.4177
  324SOL    HW3 1069   2.856   0.126   1.875 -0.0746 -0.1282  0.2630
  324SOL    MW4 1070   2.794   0.157   1.928  0.4539 -0.4286 -0.5787
  325SOL     OW 1071   1.041   0.255   5.832  0.2539 -0.0799  0.0181
  325SOL    HW2 1072   1.051   0.163   5.807  0.3863  0.3559 -1.7112
  325SOL    HW3 1073   0.954   0.261   5.870  0.7026 -1.1244  1.2858
  325SOL    MW4 1074   1.031   0.244   5.833 -0.3413  0.4925 -0.4077
  326SOL     OW 1075   5.925   2.153   0.146  0.3753  0.6325 -0.0081
  326SOL    HW2 1076   5.941   2.197   0.230  0.9251 -1.6784  1.1788
  326SOL    HW3 1077   5.839   2.112   0.157  1.6404 -2.1077  0.6639
  326SOL    MW4 1078   5.916   2.153   0.159  0.1877  0.0265 -0.5753
  327SOL     OW 1079   2.155   5.715   3.843 -0.1310 -0.1584 -0.0320
  327SOL    HW2 1080   2.151   5.755   3.930 -0.9956  2.9787 -1.3594
  327SOL    HW3 1081   2.233   5.753   3.803 -1.3404  0.8663 -1.5760
  327SOL    MW4 1082   2.165   5.726   3.849 -0.1199  0.5504 -0.5344
  328SOL     OW 1083   1.967   3.294   5.186 -0.3363  0.2706  0.0111
  328SOL    HW2 1084   1.993   3.290   5.278  1.0973  0.1631 -0.3812
  328SOL    HW3 1085   1.875   3.264   5.186 -0.0442 -0.7228  1.2778
  328SOL    MW4 1086   1.958   3.289   5.198  0.2701  0.4519 -0.2921
  329SOL     OW 1087   6.295   6.113   1.586  0.1381 -0.5615 -0.3431
  329SOL    HW2 1088   6.382   6.144   1.613 -0.3253 -0.6833  1.3822
  329SOL    HW3 1089   6.259   6.070   1.663 -2.7556  2.2110  0.0637
  329SOL    MW4 1090   6.302   6.112   1.600 -0.3561  0.4354 -0.0249
  330SOL     OW 1091   1.931   3.611   4.182 -0.0949  0.1594  0.2069
  330SOL    HW2 1092   1.838   3.632   4.175 -0.2328 -0.1557  1.0263
  330SOL    HW3 1093   1.938   3.521   4.152  0.2862  0.8352 -1.9241
  330SOL    MW4 1094   1.920   3.602   4.177 -0.0446  0.1723 -0.1652
  331SOL     OW 1095   5.841   3.414   2.822 -0.3072 -0.2804 -0.0927
  331SOL    HW2 1096   5.903   3.482   2.794  1.4677 -1.5982  0.4083
  331SOL    HW3 1097   5.834   3.356   2.746  0.2009 -0.8825  0.3047
  331SOL    MW4 1098   5.848   3.415   2.808 -0.2324 -0.0364 -0.3523
  332SOL     OW 1099   4.517   4.991   3.112  0.3281  0.3555 -0.1891
  332SOL    HW2 1100   4.564   5.028   3.186 -0.0530 -2.0436  1.3804
  332SOL    HW3 1101   4.428   4.977   3.144 -0.2140  0.4995 -1.5527
  332SOL    MW4 1102   4.512   4.994   3.126 -0.3778 -0.1156  0.2946
  333SOL     OW 1103   3.226   0.228   3.722 -0.3525 -0.4980  0.0125
  333SOL    HW2 1104   3.164   0.163   3.690  0.5358 -1.4661  0.2281
  333SOL    HW3 1105   3.307   0.210   3.675  0.0373  0.1683  0.4097
  333SOL    MW4 1106   3.229   0.217   3.712 -0.0432  0.3652  0.3257
  334SOL     OW 1107   5.217   1.818   1.808 -0.4513  0.1573  0.5105
  334SOL    HW2 1108   5.235   1.725   1.824 -0.7583 -0.4940 -2.3336
  334SOL    HW3 1109   5.296   1.850   1.765  0.2359  1.6824  2.7219
  334SOL    MW4 1110   5.230   1.810   1.804  0.2450 -0.0033 -0.1860
  335SOL     OW 1111   2.247   2.907   1.395 -0.1758 -0.0562  0.0547
  335SOL    HW2 1112   2.223   2.840   1.459 -0.4318 -0.4163 -0.4195
  335SOL    HW3 1113   2.317   2.956   1.438 -1.7892  1.0994  1.5174
  335SOL    MW4 1114   2.253   2.904   1.409  0.6073 -0.1401 -0.8719
  336SOL     OW 1115   4.312   2.712   4.732  0.1310 -0.4734 -0.1774
  336SOL    HW2 1116   4.364   2.793   4.734 -0.0880 -0.2806 -1.3766
  336SOL    HW3 1117   4.377   2.642   4.743  0.7505 -0.2585 -2.0322
  336SOL    MW4 1118   4.328   2.713   4.733  0.4414 -0.2231  0.2818
  337SOL     OW 1119   2.923   6.277   4.077 -0.5763  0.0128  0.5755
  337SOL    HW2 1120   2.833   6.251   4.054 -0.2023  0.0583 -1.1290
  337SOL    HW3 1121   2.927   6.269   4.172 -1.6064 -2.4925  0.4834
  337SOL    MW4 1122   2.912   6.273   4.086 -0.1713 -0.3353 -0.1546
  338SOL     OW 1123   3.706   0.003   2.004  0.3449  0.1050 -0.2193
  338SOL    HW2 1124   3.752   0.083   1.982  0.8024  0.7850  2.8116
  338SOL    HW3 1125   3.762  -0.041   2.069 -1.2619 -1.1631  0.4067
  338SOL    MW4 1126   3.719   0.007   2.010  0.1933 -0.1784 -0.6701
  339SOL     OW 1127   4.542   5.380   6.317  0.3949 -0.0746 -0.6330
  339SOL    HW2 1128   4.464   5.357   6.266  1.1247 -0.4191 -1.6364
  339SOL    HW3 1129   4.513   5.376   6.408 -0.0054 -3.3402 -0.7670
  339SOL    MW4 1130   4.528   5.376   6.322  0.5553 -0.1662 -0.0872
  340SOL     OW 1131   1.131   4.377   4.733 -0.4117 -0.1359  0.2478
  340SOL    HW2 1132   1.051   4.327   4.715 -0.5076  0.0683  0.0963
  340SOL    HW3 1133   1.113   4.464   4.696 -0.0377 -0.1530  0.0185
  340SOL    MW4 1134   1.118   4.382   4.725 -0.3511  0.1795 -0.6850
  341SOL     OW 1135   5.473   5.213   5.466  0.1410 -0.5504  0.2614
  341SOL    HW2 1136   5.490   5.306   5.478 -2.6856  0.1530 -0.5477
  341SOL    HW3 1137   5.517   5.190   5.384  0.9885 -0.0021  0.5505
  341SOL    MW4 1138   5.481   5.222   5.457  0.3119  0.1733 -0.5754
  342SOL     OW 1139   2.793   6.138   1.303 -0.2045  0.5430 -0.1892
  342SOL    HW2 1140   2.787   6.116   1.396  1.0229  1.9814  0.2727
  342SOL    HW3 1141   2.717   6.095   1.264 -1.7894  1.3587  1.7789
  342SOL    MW4 1142   2.782   6.130   1.310  0.1581 -0.3338  0.2576
  343SOL     OW 1143   2.820   4.799   1.284  0.0676 -0.4135 -0.2031
  343SOL    HW2 1144   2.826   4.783   1.378 -0.7790  1.7933  0.2916
  343SOL    HW3 1145   2.843   4.892   1.274 -2.5978  0.1834 -1.7974
  343SOL    MW4 1146   2.824   4.809   1.295 -0.3534 -0.0842  0.2147
  344SOL     OW 1147   1.341   1.572   4.791 -0.3083  0.1237 -0.1289
  344SOL    HW2 1148   1.360   1.481   4.814 -1.5668 -0.2781 -0.5884
  344SOL    HW3 1149   1.389   1.586   4.709  2.6100  0.9601  1.6002
  344SOL    MW4 1150   1.350   1.561   4.783 -0.5526 -0.1480 -0.3303
  345SOL     OW 1151   0.832   5.819   4.524  0.5371  0.0326  0.1135
  345SOL    HW2 1152   0.765   5.887   4.531  0.4501  0.0095 -0.4053
  345SOL    HW3 1153   0.897   5.855   4.464  0.0053 -0.7151 -0.9511
  345SOL    MW4 1154   0.832   5.832   4.517 -0.4371 -0.0796  0.6741
  346SOL     OW 1155   5.200   0.674   3.771  0.4721 -0.0646  0.3634
  346SOL    HW2 1156   5.217   0.740   3.703  0.1223  0.3805  0.7032
  346SOL    HW3 1157   5.128   0.621   3.736  0.6434 -0.1642  0.1613
  346SOL    MW4 1158   5.193   0.676   3.757  0.4964  0.0892  0.2408
  347SOL     OW 1159   5.370   3.512   3.825 -0.0916 -0.1096 -0.6245
  347SOL    HW2 1160   5.339   3.594   3.863 -2.1068 -0.9808 -0.2699
  347SOL    HW3 1161   5.357   3.447   3.894 -1.2017 -1.2216 -1.8286
  347SOL    MW4 1162   5.364   3.514   3.839 -0.0043 -0.3792 -0.0504
  348SOL     OW 1163   3.212   1.477   1.217 -0.1363 -0.1938  0.5549
  348SOL    HW2 1164   3.215   1.429   1.134 -0.1284 -0.2985  0.6156
  348SOL    HW3 1165   3.303   1.490   1.241 -0.1401 -0.4469  0.7100
  348SOL    MW4 1166   3.224   1.472   1.209  0.3471 -0.3214 -0.4385
  349SOL     OW 1167   5.485   5.361   2.567 -0.5575  0.2393  0.0621
  349SOL    HW2 1168   5.519   5.393   2.483 -1.4117  0.8387 -0.0765
  349SOL    HW3 1169   5.469   5.441   2.618  2.2169 -0.1604  1.7695
  349SOL    MW4 1170   5.487   5.376   2.562 -0.6562 -0.6099 -0.4992
  350SOL     OW 1171   6.318   3.031   2.724  0.2425  0.3285  0.1634
  350SOL    HW2 1172   6.256   3.006   2.656  1.2492 -0.1558 -0.5962
  350SOL    HW3 1173   6.289   3.118   2.752 -0.8227  0.0780 -0.0975
  350SOL    MW4 1174   6.306   3.039   2.719  0.9210  0.3543  0.0043
  351SOL     OW 1175   1.573   4.801   3.956  0.1407 -0.6133  0.3602
  351SOL    HW2 1176   1.635   4.811   3.884 -0.1997  0.3621  0.1883
  351SOL    HW3 1177   1.617   4.741   4.017  2.5637  2.1766  1.5910
  351SOL    MW4 1178   1.587   4.794   3.955 -0.3048  0.2777 -0.1434
  352SOL     OW 1179   3.444   2.414   2.646  0.2751 -0.2314 -0.9196
  352SOL    HW2 1180   3.440   2.426   2.740 -0.5673 -0.4149 -0.9207
  352SOL    HW3 1181   3.537   2.407   2.626  0.5048  0.7575 -0.2329
  352SOL    MW4 1182   3.455   2.415   2.656  0.8184  0.3055 -0.1707
  353SOL     OW 1183   5.444   3.215   2.680  0.1986  0.0303 -0.2439
  353SOL    HW2 1184   5.482   3.172   2.757 -0.3261  0.2428  0.1435
  353SOL    HW3 1185   5.358   3.244   2.710 -0.5973 -1.1331 -1.3356
  353SOL    MW4 1186   5.438   3.213   2.694 -0.2079 -0.4528 -0.0641
  354SOL     OW 1187   5.347   3.851   3.894  0.4162 -0.5260  0.2451
  354SOL    HW2 1188   5.337   3.839   3.989  1.5427 -2.2528  0.1936
  354SOL    HW3 1189   5.266   3.816   3.857  0.3819 -0.7736  0.5396
  354SOL    MW4 1190   5.335   3.845   3.902  0.6088  0.4686  0.3146
  355SOL     OW 1191   3.907   2.861   2.444  0.0837  0.1226 -0.0773
  355SOL    HW2 1192   3.907   2.956   2.433  1.0531  0.3284  1.4509
  355SOL    HW3 1193   3.974   2.844   2.510  0.0000 -1.6431 -0.3859
  355SOL    MW4 1194   3.916   2.871   2.451  0.4899  0.1828 -0.2069
  356SOL     OW 1195   0.423   4.575   0.216 -0.0636 -0.9247 -0.5536
  356SOL    HW2 1196   0.352   4.639   0.218  0.4050 -0.3327 -1.8157
  356SOL    HW3 1197   0.383   4.496   0.180 -0.2649 -0.8204 -0.5619
  356SOL    MW4 1198   0.408   4.573   0.211  0.3083 -0.1291  0.5774
  357SOL     OW 1199   0.619   1.304   5.112 -0.2419  0.1093 -0.0938
  357SOL    HW2 1200   0.577   1.252   5.181 -0.7714 -1.0206 -1.2134
  357SOL    HW3 1201   0.602   1.395   5.135  1.6407 -0.0870  2.5351
  357SOL    MW4 1202   0.612   1.309   5.124 -0.3950  0.4614 -0.1364
  358SOL     OW 1203   5.802   5.074   6.049  0.5371 -0.9684 -0.4423
  358SOL    HW2 1204   5.828   5.069   6.141  0.6846 -1.5591 -0.5110
  358SOL    HW3 1205   5.854   5.006   6.006  1.4058  0.1168 -1.1848
  358SOL    MW4 1206   5.812   5.065   6.056  0.9485 -0.3041  0.1540
  359SOL     OW 1207   1.161   3.947   3.144  0.6418 -0.6731  0.0284
  359SOL    HW2 1208   1.173   3.950   3.239 -0.0402  0.6991  0.1094
  359SOL    HW3 1209   1.220   4.015   3.111 -0.3557  0.0376 -0.3476
  359SOL    MW4 1210   1.170   3.957   3.152  0.1078  0.4056  0.7236
  360SOL     OW 1211   0.445   2.374   0.064 -0.0409  0.2821 -0.0668
  360SOL    HW2 1212   0.444   2.449   0.122 -1.9923 -0.9035  1.5929
  360SOL    HW3 1213   0.490   2.305   0.114 -2.4474 -0.9939  0.5310
  360SOL    MW4 1214   0.451   2.375   0.078 -0.6299  0.4082  0.5404
  361SOL     OW 1215   5.728   1.844   2.120  0.0858  0.2171 -0.2520
  361SOL    HW2 1216   5.735   1.938   2.100  0.1478  0.2283 -0.1752
  361SOL    HW3 1217   5.805   1.805   2.078 -0.4804  0.0558 -1.1730
  361SOL    MW4 1218   5.739   1.852   2.112 -0.2049 -0.0776  0.1239
  362SOL     OW 1219   1.659   5.590   2.702 -0.1430  0.1068 -0.1279
  362SOL    HW2 1220   1.753   5.578   2.688 -0.0216 -0.5847  1.1805
  362SOL    HW3 1221   1.652   5.626   2.791 -1.0331  1.7470 -0.8068
  362SOL    MW4 1222   1.670   5.593   2.712  0.2016  0.1421  0.5424
  363SOL     OW 1223   6.094   2.526   4.514  0.1348  0.2280  0.4110
  363SOL    HW2 1224   6.159   2.582   4.472  0.3555  2.5363  3.5230
  363SOL    HW3 1225   6.129   2.437   4.504  1.5112  0.9370 -1.7003
  363SOL    MW4 1226   6.107   2.522   4.507  0.5758  1.0195  0.4291
  364SOL     OW 1227   2.945   1.840   3.979 -0.0101 -0.1414 -0.6040
  364SOL    HW2 1228   2.898   1.762   3.950 -0.2663 -0.6165  0.9730
  364SOL    HW3 1229   2.878   1.895   4.021  0.4837  0.0645 -0.0609
  364SOL    MW4 1230   2.930   1.837   3.981  0.2346  1.1743 -0.2025
  365SOL     OW 1231   0.819   5.580   1.331  1.2207  0.1383  0.2902
  365SOL    HW2 1232   0.843   5.656   1.279 -0.6298  0.0966 -0.7104
  365SOL    HW3 1233   0.901   5.534   1.346  2.0860  1.2849 -0.7771
  365SOL    MW4 1234   0.833   5.584   1.326  1.0407 -0.1613 -0.1119
  366SOL     OW 1235   1.907   1.096   5.531 -0.3503 -0.4018  0.3860
  366SOL    HW2 1236   1.850   1.040   5.477 -0.5050 -0.0270  0.1582
  366SOL    HW3 1237   1.846   1.144   5.587 -0.1874 -0.8381  0.9538
  366SOL    MW4 1238   1.891   1.095   5.531 -0.4431 -0.0111  0.2298
  367SOL     OW 1239   5.355   5.007   5.106 -0.6077  0.2572 -0.4886
  367SOL    HW2 1240   5.263   5.017   5.080 -1.3648  2.4792  2.5371
  367SOL    HW3 1241   5.357   4.925   5.155 -0.6675 -0.4004 -1.5526
  367SOL    MW4 1242   5.343   4.997   5.109 -0.0288  0.5419 -0.0337
  368SOL     OW 1243   3.584   5.399   2.323 -0.3709 -0.5975 -0.5181
  368SOL    HW2 1244   3.592   5.377   2.416 -0.1258  0.0177 -0.3910
  368SOL    HW3 1245   3.490   5.416   2.310 -0.3285 -0.1716 -0.2674
  368SOL    MW4 1246   3.572   5.398   2.334 -0.0198  0.5649  0.2957
  369SOL     OW 1247   0.756   3.549   2.016  0.1358  0.4260 -0.2530
  369SOL    HW2 1248   0.752   3.453   2.012 -1.3257  0.4507 -0.1060
  369SOL    HW3 1249   0.841   3.568   2.056  0.4344 -0.8067 -0.2574
  369SOL    MW4 1250   0.767   3.539   2.021  0.3008 -0.2527 -0.1648
  370SOL     OW 1251   5.375   4.392   0.306 -0.0557 -0.0275 -0.6558
  370SOL    HW2 1252   5.355   4.476   0.347 -0.1804 -0.1354 -0.4970
  370SOL    HW3 1253   5.392   4.332   0.379  2.1072  0.3549 -0.7634
  370SOL    MW4 1254   5.375   4.395   0.321  0.1594  0.3044  0.1685
  371SOL     OW 1255   4.143   2.622   6.212 -0.0139 -0.4512  0.4915
  371SOL    HW2 1256   4.054   2.632   6.245  0.1069 -0.0839  0.7082
  371SOL    HW3 1257   4.196   2.681   6.266  0.6255 -1.8098  1.4099
  371SOL    MW4 1258   4.138   2.631   6.224 -0.0607 -0.0080 -0.0677
  372SOL     OW 1259   0.131   3.339   4.818 -0.1251  0.3746  0.4067
  372SOL    HW2 1260   0.178   3.307   4.895 -0.6529 -0.5992  0.3451
  372SOL    HW3 1261   0.062   3.394   4.854 -1.1297 -1.0416  0.7495
  372SOL    MW4 1262   0.128   3.342   4.833 -0.1585 -0.1584  0.1207
  373SOL     OW 1263   1.216   0.244   2.050  0.1150 -0.3596 -0.0234
  373SOL    HW2 1264   1.247   0.329   2.020 -0.4853 -0.3547 -0.6485
  373SOL    HW3 1265   1.258   0.232   2.136 -0.6678  1.0578  0.5884
  373SOL    MW4 1266   1.226   0.254   2.058  0.3676  0.0235 -0.3251
  374SOL     OW 1267   0.759   4.212   1.248  0.6211  0.5932  0.0872
  374SOL    HW2 1268   0.798   4.241   1.330 -0.0664  0.6467  0.4044
  374SOL    HW3 1269   0.769   4.286   1.188  0.6123  0.7625  0.2966
  374SOL    MW4 1270   0.766   4.225   1.251  0.2522  0.1736  0.1221
  375SOL     OW 1271   4.227   1.269   0.536 -0.1494 -0.0173 -0.4260
  375SOL    HW2 1272   4.188   1.352   0.509  0.7136  0.0372 -1.6098
  375SOL    HW3 1273   4.276   1.240   0.459 -0.6101 -1.7399 -0.1079
  375SOL    MW4 1274   4.228   1.276   0.522 -0.2974 -0.6766 -0.1754
  376SOL     OW 1275   2.405   1.609   1.526  0.4636 -0.1273  0.4029
  376SOL    HW2 1276   2.432   1.699   1.540 -1.6862  0.5288  0.8010
  376SOL    HW3 1277   2.455   1.580   1.450  1.1516  1.4204  0.2308
  376SOL    MW4 1278   2.415   1.617   1.518 -0.3033 -0.5148 -0.4604
  377SOL     OW 1279   4.896   2.003   4.087  0.0524 -0.3212  0.1599
  377SOL    HW2 1280   4.824   2.001   4.150 -0.1436 -1.3996 -0.0737
  377SOL    HW3 1281   4.925   1.912   4.081  1.3297  0.0612  0.1213
  377SOL    MW4 1282   4.891   1.991   4.095 -0.2152 -0.9468 -0.3700
  378SOL     OW 1283   5.963   3.358   5.528 -0.5343  0.0071 -0.1651
  378SOL    HW2 1284   5.949   3.444   5.490  0.3590 -0.0752 -0.7137
  378SOL    HW3 1285   5.958   3.371   5.622  0.8677  0.9041 -0.1943
  378SOL    MW4 1286   5.960   3.371   5.535  0.6758  1.0718  0.3026
  379SOL     OW 1287   4.156   2.504   3.341  0.2190  0.1537  0.4310
  379SOL    HW2 1288   4.068   2.506   3.378  0.0152  1.7304 -0.0954
  379SOL    HW3 1289   4.213   2.482   3.416 -0.5836 -0.8517  0.7746
  379SOL    MW4 1290   4.152   2.501   3.356  0.6243 -0.3972 -0.1545
  380SOL     OW 1291   6.128   1.214   0.300 -0.6813  0.2758 -0.2501
  380SOL    HW2 1292   6.122   1.140   0.239 -2.0377 -0.0488  0.2151
  380SOL    HW3 1293   6.086   1.287   0.254 -1.5224  0.0842  0.1797
  380SOL    MW4 1294   6.121   1.214   0.286 -0.4745 -0.5527 -0.5424
  381SOL     OW 1295   3.628   0.731   1.841  0.7545 -0.4459 -0.2612
  381SOL    HW2 1296   3.583   0.767   1.765  0.4527 -0.4964 -0.1096
  381SOL    HW3 1297   3.645   0.806   1.898  1.5686 -0.3062 -0.6664
  381SOL    MW4 1298   3.624   0.745   1.839  0.0302 -0.7491  0.6780
  382SOL     OW 1299   2.349   6.179   5.898 -0.7204  0.6257 -0.1651
  382SOL    HW2 1300   2.259   6.204   5.876 -0.4371  0.4270 -1.6719
  382SOL    HW3 1301   2.391   6.260   5.926 -0.7617  1.2099 -1.6698
  382SOL    MW4 1302   2.342   6.193   5.899  0.4595 -0.4036 -0.3352
  383SOL     OW 1303   0.507   0.189   4.486  0.2453  0.0391 -0.4063
  383SOL    HW2 1304   0.598   0.161   4.473 -0.0698 -1.0760 -0.2812
  383SOL    HW3 1305   0.455   0.128   4.434 -0.6111 -0.9893  1.5560
  383SOL    MW4 1306   0.512   0.177   4.477  0.0042  0.1033  0.1099
  384SOL     OW 1307   0.079   4.586   4.738 -0.2666 -0.7214 -0.5700
  384SOL    HW2 1308  -0.014   4.606   4.741 -0.5362 -2.0679  1.0575
  384SOL    HW3 1309   0.085   4.509   4.681 -0.5529 -2.3812  1.5277
  384SOL    MW4 1310   0.068   4.579   4.731 -0.4521 -0.1350 -0.3410
  385SOL     OW 1311   0.774   4.983   2.309 -0.5687  0.2236 -0.5185
  385SOL    HW2 1312   0.869   4.978   2.321 -0.6222  2.3515  1.5399
  385SOL    HW3 1313   0.762   5.054   2.246 -0.8265  0.0806 -0.6338
  385SOL    MW4 1314   0.785   4.992   2.302  0.0634 -0.1407  0.2265
  386SOL     OW 1315   2.283   5.036   0.424 -0.4633  0.5447 -0.2654
  386SOL    HW2 1316   2.283   4.941   0.441 -0.8527  0.4470 -0.7942
  386SOL    HW3 1317   2.368   5.065   0.455  0.0278 -0.1336 -0.9387
  386SOL    MW4 1318   2.294   5.027   0.430 -0.5472 -0.0557 -0.6361
  387SOL     OW 1319   2.535   0.171   1.799  0.0872 -0.1002 -0.1695
  387SOL    HW2 1320   2.475   0.149   1.870 -1.0909  1.5087 -0.6013
  387SOL    HW3 1321   2.622   0.168   1.839 -0.5420  0.6831  1.3218
  387SOL    MW4 1322   2.539   0.168   1.814 -0.0993 -0.5149  0.2077
  388SOL     OW 1323   4.533   6.185   0.098 -0.0095  1.1393 -0.8765
  388SOL    HW2 1324   4.594   6.184   0.173 -1.2143 -0.0306  0.1380
  388SOL    HW3 1325   4.558   6.109   0.046  1.1654  2.2432 -2.0040
  388SOL    MW4 1326   4.545   6.175   0.101 -0.0623  0.1365 -0.1499
  389SOL     OW 1327   0.678   4.788   5.074  0.5370 -0.1824 -0.3079
  389SOL    HW2 1328   0.765   4.825   5.056  0.5122 -0.9561 -2.2425
  389SOL    HW3 1329   0.696   4.702   5.111  0.5706  0.5915  1.5791
  389SOL    MW4 1330   0.692   4.782   5.076 -0.2292 -0.4843 -0.8933
  390SOL     OW 1331   3.756   1.622   1.083 -0.2460  0.0619  0.0468
  390SOL    HW2 1332   3.802   1.659   1.008  1.0366  2.2081  1.7724
  390SOL    HW3 1333   3.663   1.633   1.063  0.0503  3.6356  0.0522
  390SOL    MW4 1334   3.750   1.628   1.071  1.0227 -0.3170 -0.3604
  391SOL     OW 1335   3.633   1.852   6.072  0.0533  0.2870  0.1475
  391SOL    HW2 1336   3.553   1.889   6.035 -1.8278 -1.2882  2.3999
  391SOL    HW3 1337   3.674   1.806   5.998 -1.0755  1.1783 -1.0764
  391SOL    MW4 1338   3.628   1.850   6.057  0.7739 -0.1857 -0.5129
  392SOL     OW 1339   1.347   4.503   5.966  0.4051  0.2268  0.1368
  392SOL    HW2 1340   1.278   4.563   5.994  0.5675 -0.3849  1.9929
  392SOL    HW3 1341   1.417   4.514   6.031  1.4877 -0.1598 -0.9261
  392SOL    MW4 1342   1.347   4.512   5.978  0.0527 -0.2192  0.4951
  393SOL     OW 1343   1.601   5.260   2.097  0.0017 -0.1463 -0.0895
  393SOL    HW2 1344   1.576   5.293   2.183  0.5621  1.6681 -0.5915
  393SOL    HW3 1345   1.541   5.304   2.036  0.4458 -0.4374 -0.7449
  393SOL    MW4 1346   1.590   5.270   2.100 -0.4038 -0.2920 -0.4304
  394SOL     OW 1347   2.854   0.388   2.566 -0.2777  0.1293  0.0392
  394SOL    HW2 1348   2.886   0.376   2.476 -0.3684  3.4496 -0.5525
  394SOL    HW3 1349   2.759   0.379   2.558 -0.2361 -0.2522 -0.0507
  394SOL    MW4 1350   2.845   0.385   2.553  0.3764 -0.0369  0.1722
  395SOL     OW 1351   2.793   5.671   6.181 -0.3056  0.4472  0.5732
  395SOL    HW2 1352   2.786   5.613   6.106 -1.2431  0.2082  0.8357
  395SOL    HW3 1353   2.706   5.670   6.221 -0.0387  1.1847  1.2064
  395SOL    MW4 1354   2.781   5.664   6.176 -0.4638 -0.1338  0.4907
  396SOL     OW 1355   5.703   3.807   0.512 -0.3805  0.0173 -0.0075
  396SOL    HW2 1356   5.636   3.765   0.566  1.8598 -2.5835  1.0403
  396SOL    HW3 1357   5.786   3.787   0.556  1.3699  0.2246 -2.8722
  396SOL    MW4 1358   5.705   3.799   0.525 -0.5975  0.5530  0.4508
  397SOL     OW 1359   5.375   1.371   2.916 -0.1954 -0.5055  0.5018
  397SOL    HW2 1360   5.280   1.383   2.923 -0.1280  0.0299  0.5251
  397SOL    HW3 1361   5.391   1.357   2.823  0.0156  2.4077 -0.0060
  397SOL    MW4 1362   5.365   1.371   2.905  0.0038  0.9261  0.0254
  398SOL     OW 1363   1.189   1.535   5.068 -0.0369 -0.2410  0.0843
  398SOL    HW2 1364   1.263   1.592   5.048 -0.8519  1.4859  1.6467
  398SOL    HW3 1365   1.218   1.483   5.143 -0.1399 -0.1273  0.2025
  398SOL    MW4 1366   1.203   1.536   5.075  0.2797 -0.2091  0.4407
  399SOL     OW 1367   3.139   0.669   2.352  0.1106  0.5558  0.9822
  399SOL    HW2 1368   3.143   0.665   2.257 -0.3734  0.3632  0.9631
  399SOL    HW3 1369   3.218   0.716   2.378  0.6378 -0.0556  0.5295
  399SOL    MW4 1370   3.150   0.674   2.343 -0.2342  0.0548 -0.4542
  400SOL     OW 1371   3.774   0.805   5.541 -0.0486  0.6441 -0.0252
  400SOL    HW2 1372   3.864   0.833   5.527 -0.2317  1.4086  0.2459
  400SOL    HW3 1373   3.733   0.879   5.587 -0.9824  0.5816 -0.7284
  400SOL    MW4 1374   3.780   0.819   5.545  0.4263  0.0863  0.2583
  401SOL     OW 1375   2.568   3.725   0.606 -0.2569  0.2912 -0.1736
  401SOL    HW2 1376   2.615   3.789   0.659  1.1010 -1.9614  1.5025
  401SOL    HW3 1377   2.615   3.725   0.522  0.6441  0.4549  0.3154
  401SOL    MW4 1378   2.580   3.734   0.602  0.2699  0.1690 -0.0013
  402SOL     OW 1379   2.998   1.971   2.498 -0.0853  0.1923 -0.2370
  402SOL    HW2 1380   2.926   1.950   2.438  0.1592  0.0556 -0.4871
  402SOL    HW3 1381   3.075   1.974   2.442 -0.1164  1.9063 -0.2276
  402SOL    MW4 1382   2.999   1.968   2.483  0.7308  0.5369  0.4185
  403SOL     OW 1383   2.041   4.011   1.493  0.5201  0.0229  0.6160
  403SOL    HW2 1384   2.113   3.992   1.433  0.3764  1.4866 -0.0533
  403SOL    HW3 1385   1.962   3.992   1.441  0.4040  0.0367  0.7885
  403SOL    MW4 1386   2.040   4.006   1.478 -0.0646  0.5238 -0.5972
  404SOL     OW 1387   5.804   0.616   1.376 -0.0367  0.3706 -0.2426
  404SOL    HW2 1388   5.807   0.521   1.373  0.4927  0.3964 -0.9907
  404SOL    HW3 1389   5.729   0.639   1.320  0.6857  0.4234 -1.2123
  404SOL    MW4 1390   5.794   0.607   1.368  0.3381  0.0401  0.0788
  405SOL     OW 1391   2.781   1.193   2.617 -0.2947 -0.1859 -0.0193
  405SOL    HW2 1392   2.689   1.183   2.640 -1.1709  2.1767 -2.0629
  405SOL    HW3 1393   2.781   1.254   2.543  2.9882  0.7853  0.6212
  405SOL    MW4 1394   2.769   1.200   2.610  0.0144  0.4281 -0.1864
  406SOL     OW 1395   5.672   5.708   3.089 -0.3063 -0.0878 -0.4480
  406SOL    HW2 1396   5.726   5.650   3.036  0.8925  1.4931 -1.0158
  406SOL    HW3 1397   5.734   5.762   3.137 -1.3958  0.2846  0.5964
  406SOL    MW4 1398   5.687   5.707   3.089  0.3963  0.1365 -0.5632
  407SOL     OW 1399   2.356   2.168   6.174 -0.1645 -0.0754  0.0082
  407SOL    HW2 1400   2.368   2.190   6.266 -1.1202  1.4207 -0.1870
  407SOL    HW3 1401   2.445   2.167   6.138  0.2364 -0.8902  0.9644
  407SOL    MW4 1402   2.370   2.171   6.181 -0.4722  0.1045 -0.1926
  408SOL     OW 1403   2.016   6.042   1.166 -0.2116  0.2072  0.3788
  408SOL    HW2 1404   2.088   6.035   1.228 -0.5189 -0.7076  0.6494
  408SOL    HW3 1405   2.057   6.076   1.086  0.4684 -0.0351  0.6118
  408SOL    MW4 1406   2.031   6.046   1.163  0.4163  0.0532 -0.0780
  409SOL     OW 1407   4.109   2.272   6.355  0.6001  0.0370 -0.0418
  409SOL    HW2 1408   4.016   2.250   6.345  0.4100  0.9328 -0.3288
  409SOL    HW3 1409   4.137   2.297   6.268  0.8011  0.9296  0.2761
  409SOL    MW4 1410   4.100   2.272   6.342 -0.1484 -0.1826  0.2951
  410SOL     OW 1411   5.051   6.308   1.987 -0.7133  0.0292  0.3442
  410SOL    HW2 1412   5.101   6.227   1.984  0.0724  0.5192 -2.1198
  410SOL    HW3 1413   5.020   6.314   2.077  1.6037 -1.5487  1.3361
  410SOL    MW4 1414   5.054   6.298   1.999  0.0109 -0.7069  0.0505
  411SOL     OW 1415   4.691   5.355   3.679 -0.0007  0.4085 -0.4326
  411SOL    HW2 1416   4.778   5.330   3.711 -0.3916 -0.0381  0.2948
  411SOL    HW3 1417   4.630   5.301   3.728 -0.8054  2.0208  0.4192
  411SOL    MW4 1418   4.695   5.345   3.689  0.6360 -0.2557 -0.0923
  412SOL     OW 1419   0.439   2.993   0.992  0.4699  0.0823 -0.1024
  412SOL    HW2 1420   0.426   3.085   1.012  0.7158 -0.0939  0.9809
  412SOL    HW3 1421   0.439   2.950   1.078  0.5547 -0.8944 -0.5727
  412SOL    MW4 1422   0.437   2.999   1.006  0.3273 -0.0131  0.3283
  413SOL     OW 1423   4.937   2.170   1.259  0.1524 -0.5573  0.5736
  413SOL    HW2 1424   4.880   2.209   1.325 -1.5153 -1.0672 -0.5080
  413SOL    HW3 1425   4.877   2.126   1.199  1.6276 -0.1663 -1.2490
  413SOL    MW4 1426   4.922   2.169   1.260  0.0431  0.0047 -0.1007
  414SOL     OW 1427   1.289   0.434   4.053 -0.6042  0.2613 -0.4112
  414SOL    HW2 1428   1.266   0.396   4.138  0.3876 -0.0971 -0.2925
  414SOL    HW3 1429   1.262   0.367   3.989 -1.6058  0.6489 -0.4127
  414SOL    MW4 1430   1.282   0.420   4.056  0.2500 -0.5314 -0.3020
  415SOL     OW 1431   5.081   2.047   3.881 -0.1286 -0.1735  0.4173
  415SOL    HW2 1432   5.104   2.140   3.880 -0.9232  0.1187 -2.6523
  415SOL    HW3 1433   5.014   2.039   3.948  0.8197  1.2020  1.5920
  415SOL    MW4 1434   5.075   2.058   3.889 -0.3486  0.3588 -0.2279
  416SOL     OW 1435   4.084   3.298   3.601 -0.2135  0.1315  0.3983
  416SOL    HW2 1436   4.156   3.315   3.539 -0.8771  1.7781  0.0217
  416SOL    HW3 1437   4.081   3.375   3.657 -0.8975 -0.4694  1.2242
  416SOL    MW4 1438   4.093   3.310   3.600  0.4271 -0.0742 -0.0933
  417SOL     OW 1439   3.765   1.720   4.400 -0.1794  0.4336 -0.2008
  417SOL    HW2 1440   3.677   1.720   4.362  0.2366  0.4687 -1.2045
  417SOL    HW3 1441   3.784   1.627   4.415 -0.9741  0.4975  1.5046
  417SOL    MW4 1442   3.756   1.708   4.397  0.3678  0.0475  0.0146
  418SOL     OW 1443   5.982   5.303   5.897 -0.2695  0.1552  0.4533
  418SOL    HW2 1444   5.904   5.306   5.952  0.1592 -0.1907  1.0972
  418SOL    HW3 1445   5.981   5.386   5.849 -0.9980  0.1774  0.4942
  418SOL    MW4 1446   5.971   5.314   5.898 -0.6037 -0.6158 -0.0465
  419SOL     OW 1447   1.683   0.310   1.051 -0.2096  0.1432 -0.3737
  419SOL    HW2 1448   1.756   0.249   1.036 -0.9049 -0.3430 -1.9515
  419SOL    HW3 1449   1.638   0.275   1.128  0.2655 -0.4876 -0.3686
  419SOL    MW4 1450   1.687   0.297   1.060 -0.5499 -0.3698  0.3801
  420SOL     OW 1451   5.387   2.973   3.672 -0.5468 -0.0157  0.0250
  420SOL    HW2 1452   5.369   2.924   3.591 -0.6559 -1.4678  0.8998
  420SOL    HW3 1453   5.386   2.907   3.741 -0.0163  1.1360  1.1730
  420SOL    MW4 1454   5.384   2.958   3.670  0.2150 -0.6431 -0.3259
  421SOL     OW 1455   3.125   5.999   1.888 -0.0682 -0.2835  0.5311
  421SOL    HW2 1456   3.142   6.088   1.857 -0.0557 -0.8370 -1.1650
  421SOL    HW3 1457   3.076   6.011   1.969  1.5623  1.2720  1.3597
  421SOL    MW4 1458   3.121   6.012   1.895  1.1781 -0.3295 -0.1837
  422SOL     OW 1459   1.650   4.375   4.481 -0.4349  0.0741 -0.0703
  422SOL    HW2 1460   1.586   4.447   4.474 -1.1159 -0.3498  1.4341
  422SOL    HW3 1461   1.696   4.392   4.563  0.5686 -0.3045 -0.5404
  422SOL    MW4 1462   1.648   4.387   4.490 -0.2826  0.0206  0.1961
  423SOL     OW 1463   0.050   1.878   1.494 -0.3976 -0.0752  0.5653
  423SOL    HW2 1464   0.141   1.864   1.520 -0.8085 -0.0905  2.0745
  423SOL    HW3 1465   0.020   1.792   1.463  0.0325 -0.1145  0.2463
  423SOL    MW4 1466   0.058   1.865   1.494  0.4058  0.3753  0.8637
  424SOL     OW 1467   3.439   0.085   4.886 -0.0834  0.2879 -0.2051
  424SOL    HW2 1468   3.367   0.032   4.920  0.5954  0.7995  2.2382
  424SOL    HW3 1469   3.511   0.023   4.875 -0.5358 -0.0263 -1.6068
  424SOL    MW4 1470   3.439   0.070   4.889 -0.0963  0.0368 -0.2139
  425SOL     OW 1471   4.240   4.009   2.068 -0.5192 -0.6371  0.3648
  425SOL    HW2 1472   4.241   3.941   2.136  1.0838 -1.9728 -0.9363
  425SOL    HW3 1473   4.332   4.026   2.049 -0.9184 -0.7235 -1.8791
  425SOL    MW4 1474   4.252   4.002   2.075 -0.0636  0.0638 -0.4018
  426SOL     OW 1475   6.081   5.419   1.053  0.2560  0.1449 -0.0869
  426SOL    HW2 1476   6.140   5.353   1.091  1.7282  0.4342 -1.7394
  426SOL    HW3 1477   5.999   5.372   1.039  0.5590 -0.7016  0.8545
  426SOL    MW4 1478   6.078   5.404   1.056  0.6268 -0.3336  0.0095
  427SOL     OW 1479   2.340   6.396   0.622  0.9271 -0.6836 -0.2118
  427SOL    HW2 1480   2.247   6.397   0.644  1.2572  1.1914  1.4202
  427SOL    HW3 1481   2.349   6.459   0.550  1.2409  1.4264  1.5572
  427SOL    MW4 1482   2.329   6.404   0.615 -0.0400  0.1055 -0.7866
  428SOL     OW 1483   6.258   3.807   2.303  0.0952 -0.2023  0.3247
  428SOL    HW2 1484   6.259   3.713   2.286  3.1684 -0.1524 -0.5118
  428SOL    HW3 1485   6.302   3.816   2.387 -0.8736  0.4745  0.7715
  428SOL    MW4 1486   6.264   3.796   2.312  0.1473  0.0551 -0.2259
  429SOL     OW 1487   4.866   3.080   5.228  0.7127  0.9015 -0.7418
  429SOL    HW2 1488   4.948   3.034   5.247  0.4699  0.6231 -0.3596
  429SOL    HW3 1489   4.805   3.011   5.204  0.0077  0.8837  0.9812
  429SOL    MW4 1490   4.869   3.065   5.227 -0.8789 -0.1962 -0.1262
  430SOL     OW 1491   4.368   3.708   0.742 -0.1752 -0.2943 -0.3141
  430SOL    HW2 1492   4.335   3.784   0.695 -0.4017 -0.6522 -0.7468
  430SOL    HW3 1493   4.463   3.710   0.728 -0.3527 -1.0893 -1.8767
  430SOL    MW4 1494   4.376   3.718   0.734  0.1356  0.3664  0.4063
  431SOL     OW 1495   1.842   3.723   3.562  0.1423  0.2774  0.3243
  431SOL    HW2 1496   1.757   3.713   3.605  0.3052  1.7180  1.0236
  431SOL    HW3 1497   1.887   3.639   3.577 -1.2385 -0.6145 -0.3022
  431SOL    MW4 1498   1.837   3.710   3.569 -0.0058 -0.3258  0.2408
  432SOL     OW 1499   0.156   5.316   1.595  0.3213 -0.6113 -0.4791
  432SOL    HW2 1500   0.211   5.371   1.540 -0.0848  1.7578  1.3496
  432SOL    HW3 1501   0.180   5.226   1.571  2.5163  0.3372 -2.1057
  432SOL    MW4 1502   0.167   5.311   1.585 -0.5632 -0.3748  0.5226
  433SOL     OW 1503   5.542   3.189   6.072 -0.2706 -0.5705 -0.6929
  433SOL    HW2 1504   5.483   3.191   6.148 -1.6632  0.9852 -1.7311
  433SOL    HW3 1505   5.485   3.170   5.998  0.9040 -1.1083 -1.4912
  433SOL    MW4 1506   5.527   3.187   6.073  0.0237  0.2383  0.2884
  434SOL     OW 1507   5.833   5.688   5.576 -0.0652  0.0378  0.3811
  434SOL    HW2 1508   5.893   5.751   5.537  0.3031 -1.0493 -0.8710
  434SOL    HW3 1509   5.804   5.634   5.503 -0.9867 -0.7558  1.3023
  434SOL    MW4 1510   5.837   5.690   5.562 -0.3703  0.6618  0.0590
  435SOL     OW 1511   0.099   4.787   4.377  0.2683 -0.0337  0.9172
  435SOL    HW2 1512   0.141   4.815   4.458  0.7355 -0.7310  0.9247
  435SOL    HW3 1513   0.104   4.691   4.379 -0.0081 -0.0707  0.2195
  435SOL    MW4 1514   0.105   4.778   4.388  0.0609  0.0931  0.1490
  436SOL     OW 1515   4.253   5.197   5.412 -0.1081  0.6270 -0.7084
  436SOL    HW2 1516   4.252   5.277   5.360 -1.7623 -0.0336 -1.7506
  436SOL    HW3 1517   4.165   5.161   5.403  0.0558 -0.3921  1.2216
  436SOL    MW4 1518   4.241   5.203   5.404 -0.1620 -0.0074 -0.3773
  437SOL     OW 1519   2.841   4.172   2.758 -0.3905 -0.1738  0.1374
  437SOL    HW2 1520   2.851   4.250   2.704 -0.1948  0.9949  1.8089
  437SOL    HW3 1521   2.804   4.204   2.841 -0.3369 -1.8551  0.8477
  437SOL    MW4 1522   2.837   4.186   2.762  0.2727  0.2148 -0.4744
  438SOL     OW 1523   2.007   3.132   0.739  0.0640 -0.3576  0.1757
  438SOL    HW2 1524   2.035   3.187   0.812  1.0827  0.8984 -1.0829
  438SOL    HW3 1525   2.037   3.044   0.762 -1.2294 -0.3538  2.0436
  438SOL    MW4 1526   2.015   3.128   0.751  0.1276  0.3451 -0.0553
  439SOL     OW 1527   2.563   5.463   2.579  0.2147  0.0783  0.4654
  439SOL    HW2 1528   2.595   5.510   2.656  0.0472 -0.9499  1.1874
  439SOL    HW3 1529   2.501   5.523   2.538  0.7422  0.8705  0.7997
  439SOL    MW4 1530   2.559   5.477   2.584  0.0218 -0.1448  0.1651
  440SOL     OW 1531   1.845   3.684   5.091  0.0387  0.2571  0.1595
  440SOL    HW2 1532   1.782   3.642   5.150  1.0457 -1.0275  0.3831
  440SOL    HW3 1533   1.904   3.732   5.150 -0.3803  0.9838 -0.0053
  440SOL    MW4 1534   1.844   3.685   5.107  0.0149  0.1710 -0.6116
  441SOL     OW 1535   3.803   5.549   4.641  0.5334 -0.1709  0.3777
  441SOL    HW2 1536   3.803   5.639   4.611  2.3098 -0.6391 -1.2384
  441SOL    HW3 1537   3.766   5.499   4.568  2.6448 -1.0671 -0.1627
  441SOL    MW4 1538   3.798   5.554   4.628 -0.1096  0.1001 -0.2466
  442SOL     OW 1539   2.604   0.671   2.334 -0.4914 -0.5930  0.0482
  442SOL    HW2 1540   2.681   0.668   2.391  0.0704 -1.3587 -0.7192
  442SOL    HW3 1541   2.541   0.725   2.382  0.4106 -0.1924  0.8273
  442SOL    MW4 1542   2.606   0.677   2.348  0.4353  0.2102 -0.1932
  443SOL     OW 1543   0.519   1.676   4.784  0.2140  0.6906 -0.3097
  443SOL    HW2 1544   0.590   1.686   4.721  0.1751  0.0652 -0.4583
  443SOL    HW3 1545   0.493   1.766   4.806  0.1572  0.9061 -1.2510
  443SOL    MW4 1546   0.525   1.689   4.779 -0.2080 -0.1478  0.0835
  444SOL     OW 1547   4.686   3.905   1.974 -0.0889 -0.3892  0.2969
  444SOL    HW2 1548   4.624   3.977   1.980  0.6275  0.2532  0.1993
  444SOL    HW3 1549   4.673   3.869   1.886 -1.2609 -1.1445  0.7669
  444SOL    MW4 1550   4.676   3.910   1.963  0.6169 -0.2707  0.5306
  445SOL     OW 1551   2.015   2.350   0.640  0.4627  0.2380  0.0091
  445SOL    HW2 1552   2.059   2.268   0.614  0.9278  0.8838 -1.3245
  445SOL    HW3 1553   1.943   2.359   0.578 -0.8606 -0.1700  1.4175
  445SOL    MW4 1554   2.011   2.340   0.628 -0.2035 -1.0055  0.3589
  446SOL     OW 1555   5.585   5.376   0.898 -0.1459  0.0317 -0.0229
  446SOL    HW2 1556   5.586   5.286   0.864 -0.0043  0.5608 -1.4846
  446SOL    HW3 1557   5.495   5.388   0.931  0.2548 -1.1244  1.6276
  446SOL    MW4 1558   5.573   5.365   0.898  0.1941 -0.0213  0.2904
  447SOL     OW 1559   6.303   3.539   6.458  0.0083  0.2240  0.0775
  447SOL    HW2 1560   6.232   3.548   6.395  0.9021  0.8948 -0.8749
  447SOL    HW3 1561   6.361   3.613   6.441  1.0675 -0.4265  0.6547
  447SOL    MW4 1562   6.302   3.550   6.448  0.7085  0.1949  0.3251
  448SOL     OW 1563   5.763   2.255   2.382 -0.0766 -0.0952  0.3074
  448SOL    HW2 1564   5.843   2.295   2.417  0.5982 -0.7422 -0.4515
  448SOL    HW3 1565   5.693   2.291   2.435  0.5701  1.5713  0.0853
  448SOL    MW4 1566   5.765   2.265   2.393 -0.1749  0.1348 -0.2378
  449SOL     OW 1567   4.528   3.916   3.988 -0.2053 -0.7094 -0.0133
  449SOL    HW2 1568   4.447   3.967   3.983  0.3225  0.0901 -0.7740
  449SOL    HW3 1569   4.512   3.851   4.056 -1.4791 -0.5516 -0.1409
  449SOL    MW4 1570   4.515   3.914   3.996  0.0878  0.2863 -0.2859
  450SOL     OW 1571   2.367   2.399   2.459  0.0894 -0.0639  0.1471
  450SOL    HW2 1572   2.300   2.426   2.397  1.4940  2.0992 -0.5188
  450SOL    HW3 1573   2.428   2.345   2.407  2.1732  3.0916 -0.9668
  450SOL    MW4 1574   2.366   2.395   2.444 -0.4919 -0.5397  0.0843
  451SOL     OW 1575   0.612   4.972   5.789  0.2094 -0.2934 -0.2950
  451SOL    HW2 1576   0.558   4.967   5.710 -0.7091  0.1240  0.2940
  451SOL    HW3 1577   0.702   4.966   5.757 -0.1584 -0.2968 -1.3555
  451SOL    MW4 1578   0.617   4.970   5.774  0.3023 -0.0244  0.6579
  452SOL     OW 1579   1.225   2.723   3.245  0.2487 -0.2055  0.1499
  452SOL    HW2 1580   1.289   2.690   3.307  0.5821  0.8556  0.3925
  452SOL    HW3 1581   1.198   2.807   3.281  0.1350  0.2356 -0.9251
  452SOL    MW4 1582   1.230   2.730   3.258 -0.1808  0.3858  1.2023
  453SOL     OW 1583   3.671   6.054   4.635 -0.4176 -0.0675  0.4906
  453SOL    HW2 1584   3.724   5.985   4.594 -0.1667  0.1660  0.4144
  453SOL    HW3 1585   3.606   6.077   4.568  0.7187  1.1357 -0.2671
  453SOL    MW4 1586   3.670   6.048   4.621 -0.0239  0.3704  0.1049
  454SOL     OW 1587   3.695   3.186   2.051  0.3228 -0.1308 -0.0088
  454SOL    HW2 1588   3.680   3.223   2.138 -0.1465 -1.2871  0.4224
  454SOL    HW3 1589   3.700   3.091   2.065  0.1120 -0.3525 -1.2566
  454SOL    MW4 1590   3.694   3.178   2.064 -0.4717 -0.5313  0.3403
  455SOL     OW 1591   6.283   2.833   2.990 -0.4288  0.5710  0.2544
  455SOL    HW2 1592   6.347   2.786   3.044  0.7373 -2.0725 -3.0558
  455SOL    HW3 1593   6.327   2.915   2.966  0.1614  0.4976  1.0579
  455SOL    MW4 1594   6.298   2.837   2.994 -0.0611 -0.6484 -0.0275
  456SOL     OW 1595   2.974   2.844   3.087  0.6518 -0.5639  0.1245
  456SOL    HW2 1596   3.044   2.863   3.149  0.5628 -2.2040  0.7810
  456SOL    HW3 1597   2.940   2.930   3.062  0.5089  0.1754  2.5747
  456SOL    MW4 1598   2.979   2.858   3.092 -0.3425 -0.0334  0.1552
  457SOL     OW 1599   3.423   1.888   2.182  0.1190 -0.5100  0.2029
  457SOL    HW2 1600   3.455   1.800   2.166 -0.4887 -0.5670 -0.8001
  457SOL    HW3 1601   3.399   1.921   2.095 -2.6566 -0.5288  0.8730
  457SOL    MW4 1602   3.425   1.881   2.168  0.0821 -0.5454  0.3179
  458SOL     OW 1603   5.686   2.632   3.057 -0.2802 -0.4142 -0.0536
  458SOL    HW2 1604   5.746   2.650   2.985  0.8993 -0.1268  0.9555
  458SOL    HW3 1605   5.664   2.719   3.092 -0.9406 -0.5418 -0.1475
  458SOL    MW4 1606   5.691   2.646   3.052 -0.1751 -0.1544 -0.0077
  459SOL     OW 1607   5.421   4.954   2.461  0.4633  0.1895  0.2315
  459SOL    HW2 1608   5.351   4.890   2.473 -0.9219  1.5723 -0.2480
  459SOL    HW3 1609   5.491   4.904   2.419 -1.1897 -0.6696 -1.6631
  459SOL    MW4 1610   5.421   4.939   2.457 -0.0734  0.3062  0.0352
  460SOL     OW 1611   2.663   5.068   1.955 -0.4463  0.2199 -0.1426
  460SOL    HW2 1612   2.671   5.051   2.049 -0.3877  1.2726  0.0613
  460SOL    HW3 1613   2.727   5.137   1.938 -0.3005 -0.1179 -1.0062
  460SOL    MW4 1614   2.673   5.075   1.965 -0.1835  0.0113  0.6446
  461SOL     OW 1615   1.695   4.734   0.038  0.1367 -0.2293  0.7011
  461SOL    HW2 1616   1.751   4.801   0.076  2.3401  0.1195 -2.7130
  461SOL    HW3 1617   1.750   4.656   0.034 -0.2025 -0.4150 -1.0370
  461SOL    MW4 1618   1.709   4.733   0.042  0.2695 -0.0450  1.2973
  462SOL     OW 1619   4.551   4.271   3.658 -0.7233  0.5366 -1.2118
  462SOL    HW2 1620   4.571   4.233   3.743 -1.6372 -1.7912 -1.9710
  462SOL    HW3 1621   4.619   4.338   3.646 -0.3208  0.6396  1.1167
  462SOL    MW4 1622   4.563   4.275   3.667 -0.0473 -0.2981  0.6798
  463SOL     OW 1623   0.390   2.454   1.652 -0.5953 -0.3655 -0.0076
  463SOL    HW2 1624   0.307   2.497   1.673 -1.7589 -1.5871 -1.8758
  463SOL    HW3 1625   0.373   2.361   1.667  0.5500 -0.5951 -0.0819
  463SOL    MW4 1626   0.377   2.448   1.657  0.1054 -0.1961 -0.3674
  464SOL     OW 1627   2.168   6.129   2.876 -0.4982 -0.1772  0.6735
  464SOL    HW2 1628   2.233   6.200   2.873 -0.7774  0.1216  1.4328
  464SOL    HW3 1629   2.147   6.121   2.969 -1.1922 -0.6049  0.4810
  464SOL    MW4 1630   2.174   6.137   2.888  0.1233 -0.3972  0.0688
  465SOL     OW 1631   4.577   0.854   3.647  0.4049  0.0200  0.7583
  465SOL    HW2 1632   4.514   0.926   3.640 -1.6481 -1.6527  1.0843
  465SOL    HW3 1633   4.644   0.874   3.581 -1.8639  0.5717 -1.5609
  465SOL    MW4 1634   4.577   0.866   3.637  0.2291 -0.1241  0.4482
  466SOL     OW 1635   2.693   4.044   2.534  0.0636 -0.4089  0.1516
  466SOL    HW2 1636   2.721   4.075   2.620 -0.4565 -0.2402  0.2610
  466SOL    HW3 1637   2.768   3.993   2.502 -0.1683 -1.4443  1.1914
  466SOL    MW4 1638   2.707   4.041   2.541 -0.6088 -0.0804 -0.3054
  467SOL     OW 1639   5.625   6.189   3.786 -0.0409 -0.6459 -0.0668
  467SOL    HW2 1640   5.698   6.129   3.800  1.4084  1.0144 -0.1292
  467SOL    HW3 1641   5.627   6.208   3.692 -0.2540 -0.2085  0.0140
  467SOL    MW4 1642   5.635   6.184   3.775  0.8035  0.1761  0.0565
  468SOL     OW 1643   0.115   2.673   3.477 -0.0903  0.1072  0.1591
  468SOL    HW2 1644   0.111   2.704   3.567 -2.1182 -0.6950  0.4112
  468SOL    HW3 1645   0.149   2.584   3.484  1.4696  0.6571 -0.0911
  468SOL    MW4 1646   0.119   2.665   3.490 -0.6105  0.3014  0.1873
  469SOL     OW 1647   4.215   6.185   6.452 -0.2059 -0.1577  0.0284
  469SOL    HW2 1648   4.183   6.113   6.506  2.6460 -1.4413  0.1649
  469SOL    HW3 1649   4.282   6.227   6.505  0.4400  0.5604 -1.3123
  469SOL    MW4 1650   4.219   6.181   6.466 -0.1625 -0.3392 -0.1731
  470SOL     OW 1651   4.103   1.016   5.917  0.3778 -0.3339  0.1239
  470SOL    HW2 1652   4.159   1.009   5.994 -0.4670  0.9551  0.8847
  470SOL    HW3 1653   4.038   1.081   5.940 -0.5092 -0.6594 -1.3228
  470SOL    MW4 1654   4.102   1.023   5.930  0.2128 -0.0488 -0.2463
  471SOL     OW 1655   3.978   3.612   1.725 -0.0223  0.7395 -0.1751
  471SOL    HW2 1656   3.994   3.524   1.690  0.5615  0.6311  0.3420
  471SOL    HW3 1657   3.894   3.638   1.688  0.0577  0.1818 -0.7665
  471SOL    MW4 1658   3.969   3.604   1.715 -0.4337  0.4396  0.1469
  472SOL     OW 1659   2.792   3.805   5.939 -0.5892 -0.2975 -0.3397
  472SOL    HW2 1660   2.713   3.848   5.972 -1.1767 -1.4360 -0.2181
  472SOL    HW3 1661   2.768   3.713   5.930  1.5828 -1.2915  2.5416
  472SOL    MW4 1662   2.779   3.799   5.942 -0.2342 -0.3271  0.3345
  473SOL     OW 1663   5.888   2.728   2.878  0.5007  0.3489 -0.5067
  473SOL    HW2 1664   5.854   2.689   2.797  0.5652  0.7537 -0.7314
  473SOL    HW3 1665   5.976   2.691   2.887 -0.2094 -1.2074  0.4201
  473SOL    MW4 1666   5.895   2.718   2.868  0.6132 -0.5927 -0.4689
  474SOL     OW 1667   2.670   5.450   3.988 -0.0582  0.2557  0.0432
  474SOL    HW2 1668   2.659   5.366   4.034 -2.6937 -0.1018 -1.0319
  474SOL    HW3 1669   2.728   5.429   3.915  0.5305 -0.2452  0.6386
  474SOL    MW4 1670   2.676   5.436   3.985 -0.2130  0.2907  0.6288
  475SOL     OW 1671   4.559   5.962   5.576  0.0054  0.5925  0.3677
  475SOL    HW2 1672   4.624   5.930   5.639 -0.5740  0.5167  0.9383
  475SOL    HW3 1673   4.568   5.903   5.501  0.4726  0.4733  0.5129
  475SOL    MW4 1674   4.569   5.950   5.574 -0.3806  0.0557 -0.1129
  476SOL     OW 1675   6.040   2.071   4.667 -0.1986 -0.3386 -0.0526
  476SOL    HW2 1676   5.973   2.051   4.732 -0.5544 -0.9660 -0.5911
  476SOL    HW3 1677   6.012   2.154   4.627 -0.5283 -0.4742 -0.1057
  476SOL    MW4 1678   6.027   2.079   4.670 -0.8187  0.4018  0.3967
  477SOL     OW 1679   5.563   2.700   6.159  0.0921  0.2222 -0.6055
  477SOL    HW2 1680   5.547   2.719   6.067  0.4993  1.7837 -0.3925
  477SOL    HW3 1681   5.505   2.760   6.207  2.3835  2.0406  0.1172
  477SOL    MW4 1682   5.554   2.711   6.153 -0.8609  0.1957 -0.5469
  478SOL     OW 1683   4.497   0.731   5.868 -0.3216  0.1706 -0.5401
  478SOL    HW2 1684   4.438   0.807   5.868  0.1467  0.5576  0.5479
  478SOL    HW3 1685   4.489   0.695   5.956  0.1307 -0.5197 -0.7797
  478SOL    MW4 1686   4.488   0.736   5.880  0.8880  0.1013  0.4504
  479SOL     OW 1687   0.533   5.784   4.687 -0.0973  0.0947  0.2238
  479SOL    HW2 1688   0.540   5.695   4.653 -1.9989 -0.5389  1.3395
  479SOL    HW3 1689   0.569   5.779   4.776  2.8420  1.2427 -0.8083
  479SOL    MW4 1690   0.538   5.771   4.695  0.1022  0.6956 -0.4284
  480SOL     OW 1691   3.478   5.711   2.588  0.4135 -0.4003  0.2476
  480SOL    HW2 1692   3.547   5.677   2.531  0.3990 -1.8817  1.0864
  480SOL    HW3 1693   3.495   5.672   2.673 -0.8853  0.0039  0.7135
  480SOL    MW4 1694   3.489   5.701   2.592  0.2357 -0.0884 -0.5045
  481SOL     OW 1695   6.269   1.972   4.407 -0.2300 -0.0704  0.1676
  481SOL    HW2 1696   6.227   2.058   4.410 -0.2921 -0.0387 -1.1178
  481SOL    HW3 1697   6.320   1.968   4.487  1.3859  2.0000 -0.6604
  481SOL    MW4 1698   6.270   1.983   4.418  0.5589 -0.2791 -0.7461
  482SOL     OW 1699   0.107   4.787   2.929 -0.0527  0.0533  0.5244
  482SOL    HW2 1700   0.064   4.710   2.966  0.9257 -0.8584 -0.1746
  482SOL    HW3 1701   0.112   4.849   3.002 -1.6080 -0.2024  0.8789
  482SOL    MW4 1702   0.102   4.785   2.944 -0.0206 -0.4979  0.0883
  483SOL     OW 1703   1.138   0.105   1.255 -0.0645 -0.7554 -0.8817
  483SOL    HW2 1704   1.202   0.036   1.270  0.9072  0.2957 -0.0633
  483SOL    HW3 1705   1.190   0.182   1.232 -0.8273  0.6628  1.7548
  483SOL    MW4 1706   1.153   0.106   1.254 -0.3960 -0.2088 -0.4779
  484SOL     OW 1707   0.337   5.771   2.076  0.2641  0.4359 -0.4739
  484SOL    HW2 1708   0.360   5.830   2.004  1.0163  0.7776  0.0369
  484SOL    HW3 1709   0.421   5.738   2.108 -0.0374  0.4944  0.4122
  484SOL    MW4 1710   0.351   5.775   2.071 -0.2483  0.2102 -0.1041
  485SOL     OW 1711   1.287   2.986   4.836 -0.6129 -0.1781 -0.0526
  485SOL    HW2 1712   1.221   2.917   4.839  0.3924 -1.1678  0.1807
  485SOL    HW3 1713   1.352   2.960   4.901 -0.4063  1.2149  0.3284
  485SOL    MW4 1714   1.287   2.974   4.845  0.4431 -0.2131  0.0154
  486SOL     OW 1715   1.963   0.922   0.967 -0.6288 -0.6049 -0.8169
  486SOL    HW2 1716   1.971   0.845   1.023 -3.0520 -0.4903 -0.2176
  486SOL    HW3 1717   2.008   0.991   1.016 -0.4248 -1.1048 -0.2848
  486SOL    MW4 1718   1.970   0.921   0.981 -0.3005 -0.0082 -0.5644
  487SOL     OW 1719   2.709   4.054   3.199 -0.3717 -0.1911 -0.1285
  487SOL    HW2 1720   2.676   4.132   3.243 -0.9063 -0.8911  0.7418
  487SOL    HW3 1721   2.639   4.030   3.138  0.8271  1.4274 -2.2718
  487SOL    MW4 1722   2.695   4.061   3.197 -0.4738 -0.0971  0.1151
  488SOL     OW 1723   0.332   2.756   4.716 -0.3432 -0.8465  0.7097
  488SOL    HW2 1724   0.352   2.664   4.736  0.0219 -1.7154 -2.8493
  488SOL    HW3 1725   0.399   2.806   4.761  0.1217 -2.4118  1.8396
  488SOL    MW4 1726   0.343   2.750   4.724 -0.2086  0.1591 -0.0415
  489SOL     OW 1727   5.660   1.874   0.807 -0.0157  0.0262 -0.1412
  489SOL    HW2 1728   5.652   1.780   0.795 -0.6109  0.1252 -0.5861
  489SOL    HW3 1729   5.733   1.885   0.868  0.3161 -0.7026 -0.3971
  489SOL    MW4 1730   5.668   1.863   0.813 -0.3289  0.1929  0.3379
  490SOL     OW 1731   1.768   1.353   3.558 -0.2694 -0.5588  0.1124
  490SOL    HW2 1732   1.702   1.285   3.571  0.0612 -0.9564 -0.2582
  490SOL    HW3 1733   1.725   1.434   3.586 -1.1904 -0.6825 -0.8899
  490SOL    MW4 1734   1.754   1.355   3.563 -0.3146 -0.0159  0.4228
  491SOL     OW 1735   4.494   1.690   5.508 -0.8736  0.0093  0.1299
  491SOL    HW2 1736   4.577   1.665   5.468 -1.0860  0.5208 -0.6471
  491SOL    HW3 1737   4.438   1.613   5.496 -0.5471 -0.3035  0.5757
  491SOL    MW4 1738   4.498   1.677   5.501  0.3383  0.0007  0.1722
  492SOL     OW 1739   4.655   0.315   5.958  0.0258  0.0733 -0.3853
  492SOL    HW2 1740   4.592   0.359   5.901  2.1053  2.0212 -1.3463
  492SOL    HW3 1741   4.602   0.256   6.011 -2.7414  2.3451 -0.3747
  492SOL    MW4 1742   4.640   0.313   5.957  0.8160 -0.3861  0.4609
  493SOL     OW 1743   5.885   4.384   1.125 -0.1756  0.5230 -0.1457
  493SOL    HW2 1744   5.954   4.449   1.115  0.2735  0.0863  0.0606
  493SOL    HW3 1745   5.816   4.411   1.064  0.8200  0.1248 -1.4879
  493SOL    MW4 1746   5.885   4.396   1.116 -0.4059 -0.0778  0.6748
  494SOL     OW 1747   0.130   5.611   3.039 -0.1292  0.3912  0.0992
  494SOL    HW2 1748   0.204   5.593   2.981  0.3533 -1.5273  1.2389
  494SOL    HW3 1749   0.095   5.525   3.062 -1.8695  1.1970  0.7041
  494SOL    MW4 1750   0.135   5.598   3.034 -0.1353  0.3059 -0.3260
  495SOL     OW 1751   4.119   1.425   1.730 -0.4832 -0.0048  0.0761
  495SOL    HW2 1752   4.028   1.398   1.718 -0.8327  0.7376  0.9325
  495SOL    HW3 1753   4.113   1.515   1.763  0.5741  0.2417 -0.3625
  495SOL    MW4 1754   4.106   1.433   1.733  0.2354  0.1818  1.1818
  496SOL     OW 1755   3.068   0.675   6.113 -0.1884  0.4757  0.0125
  496SOL    HW2 1756   3.140   0.672   6.176 -1.9930 -1.4718  2.2254
  496SOL    HW3 1757   3.082   0.599   6.056 -0.0327  0.5946 -0.1064
  496SOL    MW4 1758   3.079   0.665   6.114 -0.0451 -0.2038 -0.3380
  497SOL     OW 1759   0.758   1.283   5.950  0.4090 -0.0246  0.2734
  497SOL    HW2 1760   0.833   1.239   5.909  0.9279  1.0441  0.0311
  497SOL    HW3 1761   0.792   1.369   5.976 -0.1978 -0.2657  2.0051
  497SOL    MW4 1762   0.772   1.288   5.948 -0.6158  0.1649  0.5607
  498SOL     OW 1763   1.358   2.959   4.130 -0.1051 -0.1611 -0.3996
  498SOL    HW2 1764   1.273   2.935   4.166 -0.3734  0.9195 -0.2898
  498SOL    HW3 1765   1.354   2.933   4.038 -0.9615  0.8516 -0.6678
  498SOL    MW4 1766   1.346   2.952   4.123  0.3764 -0.3635  0.4744
  499SOL     OW 1767   0.145   6.139   5.207 -0.4222  0.0598  0.0551
  499SOL    HW2 1768   0.206   6.210   5.191  1.1888 -1.0374  1.0442
  499SOL    HW3 1769   0.148   6.086   5.127  0.2410 -0.1987  0.2458
  499SOL    MW4 1770   0.153   6.141   5.194  0.8041 -0.0663  0.3678
  500SOL     OW 1771   5.687   0.677   5.064  0.1928  0.2637  0.0507
  500SOL    HW2 1772   5.767   0.721   5.094 -0.3055  1.0989  0.1746
  500SOL    HW3 1773   5.713   0.585   5.054  1.0255  0.4223  0.6207
  500SOL    MW4 1774   5.701   0.670   5.067 -0.5637 -0.0256 -0.0402
  501SOL     OW 1775   5.875   5.419   2.207 -0.5477  0.3345 -0.3197
  501SOL    HW2 1776   5.793   5.386   2.246 -1.6596  2.2012 -0.9484
  501SOL    HW3 1777   5.847   5.470   2.131  1.0818  2.1773  0.2264
  501SOL    MW4 1778   5.860   5.421   2.203 -0.1518 -0.0469 -0.2460
  502SOL     OW 1779   3.333   2.705   6.436  0.2947 -0.0084 -0.1078
  502SOL    HW2 1780   3.366   2.711   6.346  0.2663  1.8977 -0.0106
  502SOL    HW3 1781   3.240   2.726   6.429  0.1135 -0.6347  0.2852
  502SOL    MW4 1782   3.325   2.708   6.423  0.0564 -0.4071 -0.3190
  503SOL     OW 1783   3.698   5.901   2.753  0.0521  0.3041 -0.1181
  503SOL    HW2 1784   3.681   5.841   2.680  1.1171 -1.2256  0.8242
  503SOL    HW3 1785   3.709   5.987   2.712 -0.2212 -0.3668 -1.6594
  503SOL    MW4 1786   3.697   5.904   2.738  0.0781  0.0527  0.0912
  504SOL     OW 1787   2.957   4.227   0.790  0.3324 -0.5135  0.5368
  504SOL    HW2 1788   2.978   4.154   0.849  0.7590 -0.2628  0.6978
  504SOL    HW3 1789   2.862   4.232   0.791  0.0592 -2.9240 -1.6960
  504SOL    MW4 1790   2.948   4.218   0.798 -0.2622  0.3816 -0.0227
  505SOL     OW 1791   0.301   3.072   1.882  0.3343  0.7086 -0.1307
  505SOL    HW2 1792   0.212   3.052   1.855  0.1798  1.2119 -0.0123
  505SOL    HW3 1793   0.325   3.148   1.830  0.8666  0.2921 -0.4988
  505SOL    MW4 1794   0.292   3.080   1.872  0.1257  0.6051  0.2597
  506SOL     OW 1795   1.153   3.760   4.806 -0.0663  0.2672  0.1588
  506SOL    HW2 1796   1.238   3.804   4.815  0.0001  0.1783 -0.0270
  506SOL    HW3 1797   1.151   3.731   4.715 -0.4715  0.6228  0.0525
  506SOL    MW4 1798   1.164   3.762   4.795  0.4012 -0.2073 -0.2505
  507SOL     OW 1799   3.884   6.299   0.205  0.0044  0.2459 -0.1396
  507SOL    HW2 1800   3.876   6.362   0.134  0.4557  0.0943 -0.3320
  507SOL    HW3 1801   3.973   6.311   0.239  0.0954 -0.2696 -0.1735
  507SOL    MW4 1802   3.895   6.309   0.200  0.3437  0.0194  0.0026
  508SOL     OW 1803   6.186   0.922   2.882 -0.0307 -0.3479 -0.1757
  508SOL    HW2 1804   6.162   0.847   2.828  0.4591  0.3518 -1.4315
  508SOL    HW3 1805   6.103   0.965   2.903 -0.4956 -2.1904  2.0932
  508SOL    MW4 1806   6.172   0.918   2.878  0.1186 -0.4597 -0.5437
  509SOL     OW 1807   2.419   1.530   4.028  0.0161  0.5433  0.4653
  509SOL    HW2 1808   2.337   1.508   3.984  1.2824 -1.4504 -1.0544
  509SOL    HW3 1809   2.463   1.590   3.968  0.9177 -0.7100 -0.1798
  509SOL    MW4 1810   2.414   1.535   4.014  0.2062 -0.4644  0.3140
  510SOL     OW 1811   3.807   0.859   3.284  0.4373  0.4075  0.0116
  510SOL    HW2 1812   3.866   0.876   3.211  0.3234 -1.0513 -0.4559
  510SOL    HW3 1813   3.837   0.917   3.354  0.7645  1.5806 -1.0643
  510SOL    MW4 1814   3.819   0.869   3.284 -0.0441 -0.0264  0.2954
  511SOL     OW 1815   3.528   1.755   4.243 -0.1261 -0.0209  0.1905
  511SOL    HW2 1816   3.483   1.837   4.263 -1.5870 -0.5305 -0.8116
  511SOL    HW3 1817   3.561   1.767   4.154 -0.2378 -0.4748  0.0835
  511SOL    MW4 1818   3.527   1.767   4.234  0.0075 -0.2750  0.4408
  512SOL     OW 1819   0.193   1.770   3.737  0.4190  0.1060  0.7501
  512SOL    HW2 1820   0.266   1.707   3.738  1.1626  0.9530  0.6071
  512SOL    HW3 1821   0.139   1.744   3.811  0.5587 -0.8792  0.5310
  512SOL    MW4 1822   0.195   1.758   3.747 -0.0318 -0.3208  0.0530
  513SOL     OW 1823   0.343   1.435   2.613 -0.4931  0.0981  0.5696
  513SOL    HW2 1824   0.351   1.408   2.521 -0.9271  0.2082  0.4942
  513SOL    HW3 1825   0.256   1.405   2.638 -0.1932 -0.3424  1.0870
  513SOL    MW4 1826   0.332   1.428   2.604 -0.3418  0.3712  0.1668
  514SOL     OW 1827   4.012   6.263   6.217 -0.0316 -0.0063 -0.3493
  514SOL    HW2 1828   4.019   6.169   6.199 -1.0836 -0.0956 -0.3465
  514SOL    HW3 1829   4.064   6.277   6.296  0.0445 -0.6014 -0.2923
  514SOL    MW4 1830   4.020   6.252   6.225  0.2207 -0.1498  0.1881
  515SOL     OW 1831   5.974   2.884   4.254 -0.0644 -0.1216  0.0513
  515SOL    HW2 1832   6.042   2.884   4.321  0.5166 -1.6189 -0.4869
  515SOL    HW3 1833   5.899   2.927   4.295  0.6672  0.0563  1.2356
  515SOL    MW4 1834   5.973   2.890   4.268  0.7417  0.1002  0.3481
  516SOL     OW 1835   4.942   2.323   0.979  0.1713  0.0269  0.5428
  516SOL    HW2 1836   5.000   2.259   0.937 -0.7455 -0.2371 -0.3717
  516SOL    HW3 1837   4.918   2.282   1.063  0.3075 -0.4369  0.3594
  516SOL    MW4 1838   4.946   2.309   0.985  0.0472 -0.0929  0.2665
  517SOL     OW 1839   3.767   5.509   0.747  0.4800 -0.2764  0.2455
  517SOL    HW2 1840   3.691   5.451   0.748  0.7194 -0.5844  0.6977
  517SOL    HW3 1841   3.767   5.550   0.834 -0.2329  1.1212 -0.3784
  517SOL    MW4 1842   3.757   5.507   0.759  0.4422 -0.3088  0.0974
  518SOL     OW 1843   4.176   3.584   5.191 -0.0613 -0.1417 -0.1216
  518SOL    HW2 1844   4.174   3.640   5.269  0.4914 -1.4861  0.8899
  518SOL    HW3 1845   4.106   3.619   5.135 -0.9557  0.4185  1.2857
  518SOL    MW4 1846   4.166   3.596   5.194 -0.2335 -0.2171 -0.0790
  519SOL     OW 1847   0.966   2.924   5.660 -0.1444 -0.0769  0.7236
  519SOL    HW2 1848   1.039   2.956   5.607  0.8067  1.7082  2.9570
  519SOL    HW3 1849   0.964   2.829   5.643  0.1895  0.3550 -2.2722
  519SOL    MW4 1850   0.975   2.915   5.651 -0.2088  0.8775 -0.3498
  520SOL     OW 1851   5.291   5.620   2.280 -0.1565  0.2968 -0.3393
  520SOL    HW2 1852   5.237   5.695   2.303  0.5088  0.2897  1.3950
  520SOL    HW3 1853   5.381   5.651   2.293  0.2424 -0.0474 -2.0427
  520SOL    MW4 1854   5.296   5.634   2.284  0.3176 -0.3213 -0.1150
  521SOL     OW 1855   1.551   0.048   6.393 -0.5433  0.1018  0.8028
  521SOL    HW2 1856   1.569  -0.037   6.433 -0.1618 -0.3536 -0.3018
  521SOL    HW3 1857   1.480   0.031   6.331 -0.3163  0.5496  0.4150
  521SOL    MW4 1858   1.544   0.035   6.390 -0.0634  0.1015  0.2572
  522SOL     OW 1859   5.524   4.555   4.224  0.2150  0.3289  0.0976
  522SOL    HW2 1860   5.544   4.564   4.131 -1.8638  0.5162 -0.3643
  522SOL    HW3 1861   5.549   4.464   4.245  1.1687  0.4394 -0.4846
  522SOL    MW4 1862   5.530   4.544   4.214  0.4715  0.0524  0.0395
  523SOL     OW 1863   0.957   3.250   5.552 -0.0417 -0.1549 -0.3261
  523SOL    HW2 1864   1.038   3.224   5.508 -0.6149 -1.6274 -0.5528
  523SOL    HW3 1865   0.968   3.219   5.642 -0.2149 -0.0357 -0.2642
  523SOL    MW4 1866   0.969   3.243   5.558  0.3075 -0.5168 -0.5521
  524SOL     OW 1867   3.744   5.435   4.161  0.0665  0.2160 -0.0012
  524SOL    HW2 1868   3.722   5.370   4.228  1.4385  0.8257  1.0937
  524SOL    HW3 1869   3.789   5.385   4.093  0.6771 -0.0764  0.6000
  524SOL    MW4 1870   3.747   5.420   4.161 -0.6281  0.0776  0.4970
  525SOL     OW 1871   4.292   1.476   5.475 -0.4344 -0.0224 -0.0184
  525SOL    HW2 1872   4.205   1.501   5.446 -0.4770 -0.4930 -0.3180
  525SOL    HW3 1873   4.313   1.398   5.422  0.3438  0.3453 -0.2680
  525SOL    MW4 1874   4.283   1.469   5.464 -1.0836  0.0869 -0.2072
  526SOL     OW 1875   4.920   3.810   4.051  0.1205  0.5734  0.6873
  526SOL    HW2 1876   4.869   3.881   4.090 -1.5773 -0.0564 -0.3104
  526SOL    HW3 1877   4.915   3.827   3.957 -2.2285 -2.0553  0.2322
  526SOL    MW4 1878   4.913   3.822   4.044 -0.5926  0.1206 -0.6882
  527SOL     OW 1879   1.293   3.077   1.562 -0.2828 -0.3592  0.3862
  527SOL    HW2 1880   1.356   3.148   1.575 -0.0188 -0.1051 -1.8766
  527SOL    HW3 1881   1.346   3.001   1.541 -0.6518 -0.0059 -2.1249
  527SOL    MW4 1882   1.308   3.077   1.561  0.6321  0.3247 -0.2499
  528SOL     OW 1883   1.225   5.926   2.573 -0.2088  0.0726  0.2137
  528SOL    HW2 1884   1.134   5.919   2.544  0.3133  0.0295 -1.5430
  528SOL    HW3 1885   1.221   5.912   2.668 -1.7851 -1.9940 -0.0901
  528SOL    MW4 1886   1.212   5.923   2.582  0.1028 -0.1808 -0.7361
  529SOL     OW 1887   1.803   3.077   4.610  0.8337 -0.0633 -0.2334
  529SOL    HW2 1888   1.754   3.131   4.672  1.0706 -1.5747  1.3423
  529SOL    HW3 1889   1.894   3.085   4.638  0.8361 -1.5074  0.2421
  529SOL    MW4 1890   1.809   3.085   4.622  0.7793  0.2670 -0.2908
  530SOL     OW 1891   3.745   0.669   2.531 -0.6019 -0.5653  0.7617
  530SOL    HW2 1892   3.823   0.661   2.587  0.6168 -1.2599 -0.9606
  530SOL    HW3 1893   3.697   0.588   2.545 -1.1941 -0.0358  2.0091
  530SOL    MW4 1894   3.749   0.657   2.541  0.4852  0.2101 -0.6740
  531SOL     OW 1895   6.297   3.904   0.233  0.1481 -0.1881 -0.5276
  531SOL    HW2 1896   6.308   3.984   0.286 -0.5495 -0.3869 -0.0626
  531SOL    HW3 1897   6.378   3.896   0.184  0.4879  0.4503 -0.0814
  531SOL    MW4 1898   6.309   3.914   0.234  0.3278 -0.0631 -0.8217
  532SOL     OW 1899   3.452   2.095   6.075 -0.2219  0.0992  0.6673
  532SOL    HW2 1900   3.398   2.041   6.133  0.2944  1.3486  2.3932
  532SOL    HW3 1901   3.422   2.184   6.090  0.2409  0.5081 -0.6837
  532SOL    MW4 1902   3.441   2.100   6.085  0.3834 -0.1592  0.0171
  533SOL     OW 1903   3.253   1.063   5.801 -0.0566 -0.3650 -0.3913
  533SOL    HW2 1904   3.234   1.054   5.894 -0.6859  1.1350 -0.3454
  533SOL    HW3 1905   3.223   0.980   5.762 -2.1151 -0.0528  0.4166
  533SOL    MW4 1906   3.246   1.051   5.808  0.3827 -0.1128 -0.2804
  534SOL     OW 1907   5.789   0.975   4.415 -0.2557 -0.3601 -0.2436
  534SOL    HW2 1908   5.813   0.898   4.467 -1.5590  0.8566  2.3491
  534SOL    HW3 1909   5.873   1.017   4.394  0.3435  0.2099  2.7973
  534SOL    MW4 1910   5.803   0.970   4.419  0.3652  0.0083  0.3760
  535SOL     OW 1911   5.256   2.238   1.816  0.1411  0.1415 -0.3009
  535SOL    HW2 1912   5.160   2.236   1.806  0.2089  1.4094 -1.6356
  535SOL    HW3 1913   5.275   2.330   1.835  1.0123 -0.3535  1.4190
  535SOL    MW4 1914   5.246   2.250   1.817 -0.4517 -0.4081 -0.1439
  536SOL     OW 1915   0.572   0.622   1.894  0.1102  0.1814 -0.4145
  536SOL    HW2 1916   0.580   0.715   1.877 -0.4190  0.3324  0.1325
  536SOL    HW3 1917   0.499   0.615   1.956  0.8290 -0.4975  0.3721
  536SOL    MW4 1918   0.563   0.633   1.900  0.4241 -0.3150 -0.0605
  537SOL     OW 1919   3.463   4.169   5.025 -0.0540 -0.4113 -0.1778
  537SOL    HW2 1920   3.508   4.215   4.954 -2.2989  1.7207 -0.3616
  537SOL    HW3 1921   3.401   4.111   4.980 -1.0686  0.5111 -0.0196
  537SOL    MW4 1922   3.461   4.167   5.010  0.1307  0.3280 -0.2945
  538SOL     OW 1923   4.970   5.685   2.112  0.2341 -0.2572  0.4347
  538SOL    HW2 1924   5.017   5.671   2.030 -0.2881 -1.8259  0.3697
  538SOL    HW3 1925   4.878   5.693   2.085  0.1401 -0.0366  0.8154
  538SOL    MW4 1926   4.964   5.685   2.097  0.0150 -0.1823 -0.2767
  539SOL     OW 1927   4.791   4.968   0.701 -0.7032 -0.0390  0.2150
  539SOL    HW2 1928   4.839   4.913   0.639 -0.2120  2.6678 -2.0151
  539SOL    HW3 1929   4.705   4.925   0.710  0.0341 -1.7480 -0.4482
  539SOL    MW4 1930   4.786   4.955   0.694 -0.1363  0.4946 -0.5089
  540SOL     OW 1931   5.437   1.985   3.686  0.8084 -0.5190  0.3204
  540SOL    HW2 1932   5.483   2.069   3.691 -1.9215  1.1959 -0.8665
  540SOL    HW3 1933   5.472   1.943   3.608  1.7357 -0.1899  0.5490
  540SOL    MW4 1934   5.447   1.990   3.676 -0.4198 -0.7670 -0.3055
  541SOL     OW 1935   0.671   5.367   1.666  0.1604 -0.2316 -0.3798
  541SOL    HW2 1936   0.744   5.305   1.664  1.3682  1.1060 -0.2688
  541SOL    HW3 1937   0.656   5.390   1.575  2.8624  2.6830 -0.2785
  541SOL    MW4 1938   0.679   5.362   1.654 -0.1502  0.3615 -0.2078
  542SOL     OW 1939   5.845   0.314   3.390  0.1264  0.1796 -0.0420
  542SOL    HW2 1940   5.836   0.241   3.452 -0.2741  1.4195  1.4000
  542SOL    HW3 1941   5.937   0.339   3.395 -0.5931  2.8428  3.1774
  542SOL    MW4 1942   5.856   0.307   3.399 -0.6023 -0.0370  0.3171
  543SOL     OW 1943   0.977   0.642   5.754 -0.3570  0.0631  0.4333
  543SOL    HW2 1944   0.941   0.575   5.696  1.1512 -0.2024 -0.2241
  543SOL    HW3 1945   1.025   0.701   5.696  0.2235  0.4376  1.2822
  543SOL    MW4 1946   0.979   0.641   5.739 -0.5703  0.1461 -0.1741
  544SOL     OW 1947   6.077   1.493   0.165 -0.4125 -0.0123 -0.3441
  544SOL    HW2 1948   6.014   1.512   0.095 -0.1236  2.2020 -0.0838
  544SOL    HW3 1949   6.163   1.501   0.123 -0.2607  0.0970 -0.0162
  544SOL    MW4 1950   6.080   1.497   0.150 -0.3434  0.1631  0.4989
  545SOL     OW 1951   0.503   2.113   0.621  0.1022 -0.1793  0.3336
  545SOL    HW2 1952   0.593   2.109   0.654  0.5483 -0.8475 -0.8982
  545SOL    HW3 1953   0.511   2.096   0.527 -1.4006 -1.1535  0.3411
  545SOL    MW4 1954   0.516   2.110   0.613 -0.2279  1.0041 -0.2116
  546SOL     OW 1955   3.841   5.974   5.484 -0.1068  0.3949  0.3138
  546SOL    HW2 1956   3.873   5.888   5.511 -0.6139  0.5512  1.4939
  546SOL    HW3 1957   3.873   5.986   5.395  0.9255 -0.5349  0.5498
  546SOL    MW4 1958   3.850   5.964   5.476  0.3263 -0.3365 -0.0693
  547SOL     OW 1959   3.278   1.418   0.102  0.3148 -0.3586 -0.1950
  547SOL    HW2 1960   3.352   1.428   0.161 -0.4808  2.8742  0.4733
  547SOL    HW3 1961   3.305   1.461   0.021 -0.3702 -0.2640 -0.3858
  547SOL    MW4 1962   3.291   1.425   0.099  0.0245 -0.5107  0.0819
  548SOL     OW 1963   2.282   3.491   4.099 -0.2584 -0.5049  0.5198
  548SOL    HW2 1964   2.313   3.435   4.027 -0.0222 -0.2926  0.4557
  548SOL    HW3 1965   2.288   3.580   4.064  0.7604 -0.3251  1.1313
  548SOL    MW4 1966   2.286   3.495   4.085 -0.3156  0.4656 -0.5425
  549SOL     OW 1967   4.776   3.807   3.589 -0.2677  0.8303 -0.3168
  549SOL    HW2 1968   4.725   3.841   3.516  0.6369 -0.2200 -1.4896
  549SOL    HW3 1969   4.753   3.714   3.593  0.6002  0.6138 -0.0629
  549SOL    MW4 1970   4.766   3.799   3.580 -0.1370 -0.0502  1.2432
  550SOL     OW 1971   3.394   4.779   0.846 -0.7614  0.2896 -0.5669
  550SOL    HW2 1972   3.330   4.851   0.843 -0.1113  0.9197  0.1350
  550SOL    HW3 1973   3.469   4.813   0.797 -0.1654  0.3915  0.4025
  550SOL    MW4 1974   3.395   4.793   0.839  0.1303  0.2212  0.1773
  551SOL     OW 1975   2.348   6.347   2.844 -0.0361  0.2279 -0.4346
  551SOL    HW2 1976   2.411   6.386   2.783  1.8291  0.1243  1.3305
  551SOL    HW3 1977   2.318   6.419   2.899  1.1121 -0.2476  0.8701
  551SOL    MW4 1978   2.352   6.362   2.843 -0.3511 -0.3325  0.0767
  552SOL     OW 1979   5.569   5.656   1.257 -0.5421 -0.0217 -0.1785
  552SOL    HW2 1980   5.542   5.712   1.184 -1.7605  0.0917  0.3407
  552SOL    HW3 1981   5.487   5.620   1.291 -0.1572  0.9565  1.9611
  552SOL    MW4 1982   5.555   5.659   1.252 -0.1404 -0.2742  0.2808
  553SOL     OW 1983   2.731   5.640   4.203  0.2720 -0.2324  0.6080
  553SOL    HW2 1984   2.723   5.557   4.155  3.3999 -1.8243  2.5335
  553SOL    HW3 1985   2.651   5.645   4.255 -0.2720 -1.7208 -0.0296
  553SOL    MW4 1986   2.719   5.630   4.203  0.2264 -0.3995 -0.0705
  554SOL     OW 1987   5.431   0.665   4.983 -0.4534 -0.2095 -0.1031
  554SOL    HW2 1988   5.521   0.682   5.009  0.3934 -3.3385 -0.6263
  554SOL    HW3 1989   5.379   0.682   5.062  0.7052  0.6012  0.5062
  554SOL    MW4 1990   5.436   0.670   4.997  0.0689 -0.2960 -0.1539
  555SOL     OW 1991   2.644   4.121   0.068 -0.7687  0.3172  0.1971
  555SOL    HW2 1992   2.572   4.130   0.004  0.9585 -0.4330 -1.9766
  555SOL    HW3 1993   2.681   4.209   0.073  1.6179 -0.2744 -3.1689
  555SOL    MW4 1994   2.639   4.134   0.060 -0.1147 -0.4432  0.0535
  556SOL     OW 1995   4.469   1.674   5.183 -0.0591 -0.5821  0.4802
  556SOL    HW2 1996   4.489   1.625   5.103 -0.6292 -0.7347  0.4316
  556SOL    HW3 1997   4.522   1.631   5.251  3.2761  1.7070 -0.3930
  556SOL    MW4 1998   4.479   1.662   5.182  0.0852 -0.0617 -0.4847
  557SOL     OW 1999   3.221   3.681   5.283 -0.1802 -0.3416  0.0873
  557SOL    HW2 2000   3.165   3.745   5.327  0.2271 -0.2973  0.5519
  557SOL    HW3 2001   3.304   3.686   5.329  0.9776  1.2029 -1.9729
  557SOL    MW4 2002   3.224   3.690   5.295  1.0275 -0.0043  0.8332
  558SOL     OW 2003   0.684   4.437   3.088 -0.0183 -0.8882  0.2815
  558SOL    HW2 2004   0.727   4.425   3.172  0.7771 -1.6022 -0.2113
  558SOL    HW3 2005   0.641   4.353   3.070 -0.4473 -0.6404  0.1178
  558SOL    MW4 2006   0.684   4.424   3.096  0.8321 -0.1186 -1.2428
  559SOL     OW 2007   2.335   0.131   1.962  0.1945 -0.6951 -0.0246
  559SOL    HW2 2008   2.341   0.211   2.014  0.6430 -1.6405  1.4627
  559SOL    HW3 2009   2.257   0.143   1.908 -0.1435  0.4416  0.6761
  559SOL    MW4 2010   2.325   0.143   1.962  0.3953 -0.3702 -0.8065
  560SOL     OW 2011   3.182   5.536   5.364  0.3330 -0.3386  0.1486
  560SOL    HW2 2012   3.119   5.593   5.407 -2.0700 -2.6964  0.0530
  560SOL    HW3 2013   3.202   5.580   5.281 -0.4080  0.9290  0.6136
  560SOL    MW4 2014   3.176   5.549   5.359  0.3503  0.3995 -0.7087
  561SOL     OW 2015   5.812   2.952   3.850 -0.2657 -0.1768  0.0600
  561SOL    HW2 2016   5.850   3.031   3.890  0.3324 -0.3241 -0.2065
  561SOL    HW3 2017   5.770   2.984   3.770 -0.3556 -0.0755  0.1455
  561SOL    MW4 2018   5.812   2.967   3.845 -0.5723 -0.3693  0.4131
  562SOL     OW 2019   0.012   3.510   0.477  0.3421 -0.2492  0.5949
  562SOL    HW2 2020  -0.038   3.495   0.557 -0.8393 -1.2342 -0.2888
  562SOL    HW3 2021   0.007   3.427   0.429 -0.7927  0.9132 -1.4627
  562SOL    MW4 2022   0.005   3.497   0.481  0.3318  0.0442 -0.6135
  563SOL     OW 2023   4.678   1.449   1.681 -0.2734 -0.1989 -0.9906
  563SOL    HW2 2024   4.770   1.424   1.691 -0.0530  0.5822 -0.9510
  563SOL    HW3 2025   4.652   1.481   1.768 -0.8841 -1.3430 -0.7394
  563SOL    MW4 2026   4.687   1.450   1.694 -0.2256 -0.0634  0.4491
  564SOL     OW 2027   1.272   2.569   1.401  0.1108 -0.2135  0.4306
  564SOL    HW2 2028   1.285   2.490   1.349 -2.8149 -1.7395  1.7779
  564SOL    HW3 2029   1.250   2.636   1.336 -0.8158 -1.4051 -0.5449
  564SOL    MW4 2030   1.270   2.567   1.386  0.0353 -0.2047  0.4329
  565SOL     OW 2031   3.427   3.011   1.713 -0.1759 -0.1526 -0.5585
  565SOL    HW2 2032   3.449   3.086   1.768 -0.8289 -0.3681  0.0260
  565SOL    HW3 2033   3.336   3.026   1.688 -0.4746 -0.9682 -0.0339
  565SOL    MW4 2034   3.418   3.023   1.717  0.6960 -0.3223 -0.2400
  566SOL     OW 2035   2.008   2.017   5.443 -0.4049  0.0656 -0.0151
  566SOL    HW2 2036   2.068   2.027   5.370 -0.7539 -0.2285 -0.3466
  566SOL    HW3 2037   2.002   1.923   5.457  0.4051  0.1521  1.0258
  566SOL    MW4 2038   2.015   2.006   5.436 -0.2234  0.4083 -0.1910
  567SOL     OW 2039   1.492   4.602   4.584  0.0461 -0.1496 -0.0251
  567SOL    HW2 2040   1.549   4.679   4.578  0.7673 -0.7396 -4.1585
  567SOL    HW3 2041   1.407   4.633   4.554 -0.3023 -0.5031  0.5778
  567SOL    MW4 2042   1.488   4.617   4.579  0.1186 -0.0316  0.0229
  568SOL     OW 2043   6.419   0.917   3.927  0.1410  0.3905 -0.2843
  568SOL    HW2 2044   6.462   0.896   3.845  2.8254  2.2886  0.5113
  568SOL    HW3 2045   6.338   0.961   3.901  0.1919 -0.3699 -1.8619
  568SOL    MW4 2046   6.414   0.920   3.913 -0.3322  0.4580  0.0530
  569SOL     OW 2047   5.205   5.114   0.162 -0.1442  0.5247 -0.3285
  569SOL    HW2 2048   5.298   5.130   0.178 -0.1603  1.1695 -0.8672
  569SOL    HW3 2049   5.174   5.077   0.245 -0.1989  3.6403  1.1961
  569SOL    MW4 2050   5.214   5.111   0.175 -0.0977  0.0994 -0.7241
  570SOL     OW 2051   0.282   5.318   5.747  0.0683  0.6888  0.9818
  570SOL    HW2 2052   0.251   5.238   5.705 -0.5352  1.1763  0.4895
  570SOL    HW3 2053   0.341   5.359   5.683  2.4537 -0.6193  2.1923
  570SOL    MW4 2054   0.286   5.313   5.733  0.0442 -0.0783 -0.2588
  571SOL     OW 2055   1.993   1.969   6.258  0.6413 -1.1355  0.1551
  571SOL    HW2 2056   1.950   1.892   6.296 -1.5706  0.3126  0.7664
  571SOL    HW3 2057   1.927   2.038   6.262  1.4924  0.0821 -3.0815
  571SOL    MW4 2058   1.979   1.968   6.263  0.6686 -0.4189 -0.4338
  572SOL     OW 2059   3.920   4.437   2.734 -0.1724  0.1916 -0.0580
  572SOL    HW2 2060   3.902   4.529   2.714 -1.8854  0.0449  0.6300
  572SOL    HW3 2061   3.918   4.393   2.648  0.9156  0.7925 -0.4214
  572SOL    MW4 2062   3.918   4.443   2.720 -0.1852  0.1570  0.4561
  573SOL     OW 2063   5.343   4.361   4.454 -0.0128  0.1198 -0.2727
  573SOL    HW2 2064   5.337   4.283   4.509  1.1258  0.0868 -0.1667
  573SOL    HW3 2065   5.363   4.432   4.516  1.3669  0.0654 -0.6408
  573SOL    MW4 2066   5.345   4.360   4.470  0.4861 -0.3879  0.4837
  574SOL     OW 2067   2.702   1.487   4.369 -0.1003 -0.0147  0.7945
  574SOL    HW2 2068   2.772   1.551   4.359 -0.6338  0.4951  0.1784
  574SOL    HW3 2069   2.746   1.406   4.396  0.7693  0.1936  0.0439
  574SOL    MW4 2070   2.717   1.485   4.371  0.5671  1.2359  0.0532
  575SOL     OW 2071   3.184   1.493   2.953  0.5155 -0.2383  0.2385
  575SOL    HW2 2072   3.236   1.414   2.964  0.5354 -0.2865 -0.2107
  575SOL    HW3 2073   3.110   1.467   2.900 -0.9849 -0.6095  2.4016
  575SOL    MW4 2074   3.181   1.479   2.948 -0.6273  0.5768  0.5444
  576SOL     OW 2075   6.160   4.501   6.109 -0.5343  0.4187 -0.1821
  576SOL    HW2 2076   6.204   4.549   6.039  0.2404 -0.0458 -0.0264
  576SOL    HW3 2077   6.071   4.535   6.110 -0.2172  1.2712 -0.6047
  576SOL    MW4 2078   6.154   4.511   6.100  0.4289 -0.2625 -0.8470
  577SOL     OW 2079   0.211   3.977   3.093  0.1978 -0.3182  0.2392
  577SOL    HW2 2080   0.135   3.929   3.061 -0.9124  0.5832  1.4323
  577SOL    HW3 2081   0.286   3.926   3.064 -0.9127 -3.2154  2.0737
  577SOL    MW4 2082   0.211   3.964   3.085  0.5951 -0.3082 -0.0670
  578SOL     OW 2083   0.921   0.404   0.179 -0.0732 -0.3762 -0.2496
  578SOL    HW2 2084   0.874   0.322   0.160 -0.0043 -0.1515 -1.5300
  578SOL    HW3 2085   0.975   0.418   0.101  0.4540  0.5172  0.2685
  578SOL    MW4 2086   0.922   0.395   0.166 -0.2555 -0.2012 -0.3514
  579SOL     OW 2087   6.062   4.869   6.052  0.6159 -0.3129  0.1253
  579SOL    HW2 2088   6.131   4.934   6.062  0.3338  0.0903 -0.4681
  579SOL    HW3 2089   6.027   4.857   6.140  0.9766 -0.0011  0.3138
  579SOL    MW4 2090   6.066   4.876   6.065 -0.2488  0.0872 -0.3557
  580SOL     OW 2091   0.181   1.462   0.197  0.0239  0.0941 -0.2560
  580SOL    HW2 2092   0.184   1.555   0.175  1.1831  0.4554  1.2555
  580SOL    HW3 2093   0.126   1.423   0.129  0.0652  1.7640 -1.3048
  580SOL    MW4 2094   0.174   1.470   0.185  0.5253 -0.1121  0.4662
  581SOL     OW 2095   2.854   3.297   0.700  0.5352 -0.1012  0.5706
  581SOL    HW2 2096   2.844   3.302   0.605 -2.0531  0.0860  0.7682
  581SOL    HW3 2097   2.917   3.365   0.721  0.2161  0.7008 -0.9115
  581SOL    MW4 2098   2.861   3.306   0.690 -0.1377 -0.1223  0.3311
  582SOL     OW 2099   4.685   0.910   0.056  0.2737 -0.1402  0.2418
  582SOL    HW2 2100   4.696   0.894  -0.038 -0.4581 -1.1975  0.3241
  582SOL    HW3 2101   4.750   0.977   0.076  2.3771 -1.8573 -0.4589
  582SOL    MW4 2102   4.695   0.917   0.046  0.7552  0.0592  0.0083
  583SOL     OW 2103   0.405   3.407   2.434  0.0054  0.0545 -0.1588
  583SOL    HW2 2104   0.367   3.349   2.368  0.0380 -0.1625  0.0112
  583SOL    HW3 2105   0.346   3.482   2.437 -0.0066  0.0563 -0.4198
  583SOL    MW4 2106   0.392   3.409   2.426 -0.5014 -0.8353  0.0620
  584SOL     OW 2107   4.443   0.010   6.383  0.0561  0.0662  0.2140
  584SOL    HW2 2108   4.523   0.060   6.373  0.2899 -0.2293  0.5892
  584SOL    HW3 2109   4.472  -0.079   6.405 -0.2979 -0.5902 -1.7573
  584SOL    MW4 2110   4.457   0.005   6.385  0.1072  0.5080  0.2297
  585SOL     OW 2111   6.373   1.994   3.886 -0.4101 -0.5731 -0.1273
  585SOL    HW2 2112   6.322   2.005   3.966 -1.0371  1.3015 -0.7243
  585SOL    HW3 2113   6.311   1.955   3.823  0.2698 -2.6870  0.4334
  585SOL    MW4 2114   6.358   1.990   3.888  0.1872 -0.3733  0.2396
  586SOL     OW 2115   3.315   5.134   6.279  0.3833 -0.0142  0.3628
  586SOL    HW2 2116   3.345   5.205   6.335 -2.2244  0.2169  1.6027
  586SOL    HW3 2117   3.386   5.122   6.215  1.6167  2.5346  1.1364
  586SOL    MW4 2118   3.328   5.142   6.278  0.0871  0.0796  0.7572
  587SOL     OW 2119   5.574   3.714   6.213 -0.6473 -0.3017  0.0569
  587SOL    HW2 2120   5.575   3.740   6.304  1.3387  1.1991 -0.3319
  587SOL    HW3 2121   5.659   3.742   6.178 -1.1703 -1.1904 -2.1548
  587SOL    MW4 2122   5.585   3.721   6.220 -0.2706 -0.2677  0.3295
  588SOL     OW 2123   5.441   2.349   2.076  0.1087 -0.3956 -0.3410
  588SOL    HW2 2124   5.417   2.393   1.994 -0.1174  0.1247 -0.0053
  588SOL    HW3 2125   5.533   2.371   2.090  0.3465 -1.0648 -0.8092
  588SOL    MW4 2126   5.450   2.358   2.067  0.3032 -0.0450  0.3304
  589SOL     OW 2127   2.251   5.747   4.481  0.2688 -0.5952 -0.1085
  589SOL    HW2 2128   2.252   5.698   4.563  0.3776  1.7967  1.3983
  589SOL    HW3 2129   2.327   5.715   4.432  0.9575 -1.1605  1.2899
  589SOL    MW4 2130   2.261   5.736   4.485  0.4472  0.0373  0.3024
  590SOL     OW 2131   3.560   2.467   1.018 -0.1799 -0.0096 -0.4394
  590SOL    HW2 2132   3.514   2.532   0.963  0.7127  3.4415  2.5520
  590SOL    HW3 2133   3.653   2.483   1.002  0.0633 -0.1181  0.7693
  590SOL    MW4 2134   3.566   2.478   1.008 -0.1218  0.3495 -0.3077
  591SOL     OW 2135   1.563   0.909   4.662  0.4435 -0.3460  0.4109
  591SOL    HW2 2136   1.550   0.881   4.571 -2.6023 -0.5984  0.8256
  591SOL    HW3 2137   1.581   0.828   4.710  0.5463 -0.4040  0.2757
  591SOL    MW4 2138   1.564   0.895   4.656  0.3780  0.4761  0.2510
  592SOL     OW 2139   2.764   2.314   0.206 -0.0644  0.0046 -0.1314
  592SOL    HW2 2140   2.763   2.226   0.170 -0.3228 -2.3919  4.8190
  592SOL    HW3 2141   2.673   2.331   0.232  0.4721  0.2057  1.8157
  592SOL    MW4 2142   2.752   2.305   0.205  0.8175 -0.2808 -0.3411
  593SOL     OW 2143   5.299   5.446   1.246 -0.1501  0.3196  0.1064
  593SOL    HW2 2144   5.264   5.358   1.262 -1.0462  0.0461 -2.7878
  593SOL    HW3 2145   5.234   5.504   1.286  0.5347 -0.2375  2.1984
  593SOL    MW4 2146   5.286   5.442   1.254 -0.3955  0.2261  0.1077
  594SOL     OW 2147   1.597   2.047   3.561 -0.4015  0.1852  0.2175
  594SOL    HW2 2148   1.541   2.038   3.637 -1.1136 -0.9001 -0.4083
  594SOL    HW3 2149   1.672   2.098   3.592 -2.1003  2.4536  0.8508
  594SOL    MW4 2150   1.600   2.053   3.575 -0.0402  0.2286  0.7786
  595SOL     OW 2151   1.611   1.872   3.182 -0.0721  0.3145 -0.0398
  595SOL    HW2 2152   1.627   1.871   3.276  1.5642 -0.0754 -0.2868
  595SOL    HW3 2153   1.674   1.936   3.148 -0.9090  0.7377 -0.8355
  595SOL    MW4 2154   1.622   1.881   3.190  0.3125  0.3504  0.2267
  596SOL     OW 2155   4.878   3.231   2.377  0.5721 -0.0970 -0.0462
  596SOL    HW2 2156   4.807   3.283   2.339 -0.8097 -2.3406 -0.7199
  596SOL    HW3 2157   4.896   3.164   2.311 -0.5794 -2.9610  2.3134
  596SOL    MW4 2158   4.871   3.229   2.363 -0.1645 -0.1806  0.0842
  597SOL     OW 2159   3.341   1.257   2.964  0.4693 -0.6949 -0.1974
  597SOL    HW2 2160   3.428   1.225   2.988  0.6003  0.2379  0.6214
  597SOL    HW3 2161   3.287   1.178   2.961  1.0331 -1.1415  0.6977
  597SOL    MW4 2162   3.346   1.242   2.967  0.0367  0.3855 -0.5642
  598SOL     OW 2163   1.481   1.025   3.316 -0.2337 -1.1580  0.0880
  598SOL    HW2 2164   1.501   0.934   3.297  0.4367 -0.7277 -1.4122
  598SOL    HW3 2165   1.550   1.075   3.272 -0.4805  0.0744  1.0307
  598SOL    MW4 2166   1.493   1.020   3.308  0.1449 -0.0141 -0.0915
  599SOL     OW 2167   4.794   4.222   1.217 -0.6204  0.4546  0.2888
  599SOL    HW2 2168   4.755   4.152   1.165 -0.3320  0.6724 -0.2293
  599SOL    HW3 2169   4.751   4.302   1.185 -0.5429  0.5751  0.4861
  599SOL    MW4 2170   4.783   4.223   1.206  0.7193 -0.3998  0.1433
  600SOL     OW 2171   2.205   5.800   5.529 -0.1825 -0.4826  0.5114
  600SOL    HW2 2172   2.216   5.878   5.582  0.3953 -2.1496  3.0167
  600SOL    HW3 2173   2.289   5.755   5.535 -0.8382 -1.8242  0.0612
  600SOL    MW4 2174   2.217   5.804   5.537 -0.6727  0.4698  0.1436
  601SOL     OW 2175   5.134   4.391   5.424 -0.6261 -0.3677  0.2257
  601SOL    HW2 2176   5.131   4.306   5.468 -0.1387 -0.4156  0.1653
  601SOL    HW3 2177   5.054   4.393   5.371  0.2118 -1.5272 -1.1463
  601SOL    MW4 2178   5.123   4.380   5.423  0.1882 -0.2409  0.2084
  602SOL     OW 2179   0.490   1.743   5.887 -0.1292 -0.3241 -0.1155
  602SOL    HW2 2180   0.405   1.703   5.868  0.9403 -3.1266  0.6300
  602SOL    HW3 2181   0.549   1.705   5.822  0.7162  1.2196 -0.3046
  602SOL    MW4 2182   0.486   1.733   5.876  0.0860  0.2154  0.1436
  603SOL     OW 2183   4.090   5.087   0.341 -0.2797  0.3511 -0.7440
  603SOL    HW2 2184   4.174   5.084   0.296 -0.8041 -1.0416 -1.6845
  603SOL    HW3 2185   4.069   5.180   0.346  2.0572  0.8975  1.0288
  603SOL    MW4 2186   4.098   5.099   0.336  0.3271  0.0677 -0.0937
  604SOL     OW 2187   1.069   3.833   0.353 -0.3372 -0.3358 -0.6074
  604SOL    HW2 2188   1.094   3.761   0.295  0.4132  0.1157 -0.8530
  604SOL    HW3 2189   1.150   3.880   0.370 -0.3316 -1.1039  1.7315
  604SOL    MW4 2190   1.083   3.830   0.347 -0.4937 -0.8110 -0.2100
  605SOL     OW 2191   5.772   4.837   0.659 -0.0447  0.1897 -0.3236
  605SOL    HW2 2192   5.712   4.840   0.734 -1.3945  0.3731 -1.3759
  605SOL    HW3 2193   5.853   4.802   0.695 -0.3233  1.2287  1.4460
  605SOL    MW4 2194   5.775   4.833   0.674 -0.3852  0.2247  0.1713
  606SOL     OW 2195   0.589   0.899   1.224  0.2076 -0.4912  0.0783
  606SOL    HW2 2196   0.640   0.880   1.302 -1.2983  2.6379  2.0098
  606SOL    HW3 2197   0.514   0.839   1.229  1.0601 -1.6142 -0.0830
  606SOL    MW4 2198   0.586   0.889   1.235 -0.8942  0.2472  0.3809
  607SOL     OW 2199   2.963   2.460   4.274  0.1999  0.0171 -0.0942
  607SOL    HW2 2200   2.968   2.429   4.184 -0.3114 -0.2519 -0.0346
  607SOL    HW3 2201   3.033   2.524   4.282  1.5785 -1.4406 -0.0977
  607SOL    MW4 2202   2.973   2.464   4.263  0.0803  0.1038 -0.5549
  608SOL     OW 2203   6.423   4.929   2.746  0.1559  0.3671 -0.0561
  608SOL    HW2 2204   6.371   4.998   2.786 -0.2271 -0.0322  0.1333
  608SOL    HW3 2205   6.456   4.878   2.819 -1.1654 -0.8169 -0.2512
  608SOL    MW4 2206   6.421   4.932   2.761 -0.2197  0.3062  0.5855
  609SOL     OW 2207   0.783   2.301   6.405 -0.0972  0.2281  0.0024
  609SOL    HW2 2208   0.739   2.253   6.475  2.1236 -1.8491  0.0940
  609SOL    HW3 2209   0.822   2.233   6.350  2.1281  1.8615 -0.5924
  609SOL    MW4 2210   0.783   2.286   6.407  0.2247 -0.6299 -0.1975
  610SOL     OW 2211   0.727   0.743   5.041  0.2566 -0.4773  0.0549
  610SOL    HW2 2212   0.677   0.800   4.983 -0.3369 -2.8595 -1.9312
  610SOL    HW3 2213   0.791   0.701   4.984 -0.1948 -2.7494  1.0961
  610SOL    MW4 2214   0.729   0.745   5.026 -0.2013 -0.4824 -0.1478
  611SOL     OW 2215   5.643   1.607   0.846  0.1812  0.0618  0.6167
  611SOL    HW2 2216   5.708   1.538   0.832 -0.9616 -1.0683  0.7406
  611SOL    HW3 2217   5.559   1.562   0.843 -0.5218  1.0984  2.6656
  611SOL    MW4 2218   5.641   1.592   0.844  0.2844 -0.7032 -0.0276
  612SOL     OW 2219   1.996   0.053   6.397  0.1307 -0.0373  0.0957
  612SOL    HW2 2220   1.967   0.109   6.325  2.6809 -0.4756 -1.4045
  612SOL    HW3 2221   2.045   0.111   6.455  0.5550 -0.1959 -0.0940
  612SOL    MW4 2222   1.999   0.068   6.395  0.2859 -0.5837 -0.3336
  613SOL     OW 2223   0.186   5.956   3.213 -0.1128 -0.2539  0.2555
  613SOL    HW2 2224   0.235   6.011   3.274  0.2196 -0.5912  0.2906
  613SOL    HW3 2225   0.109   5.928   3.264 -0.6997  0.8016 -0.0034
  613SOL    MW4 2226   0.182   5.960   3.228 -0.2327  0.0978 -0.5038
  614SOL     OW 2227   5.284   1.284   0.099 -0.0669 -0.0118 -0.0773
  614SOL    HW2 2228   5.369   1.264   0.060 -0.8222 -0.4804 -1.5610
  614SOL    HW3 2229   5.262   1.371   0.065  0.2121  0.5005  1.0271
  614SOL    MW4 2230   5.293   1.293   0.089  0.6054  0.4148  0.1688
  615SOL     OW 2231   2.742   4.383   0.105 -0.4808 -0.3643  0.0058
  615SOL    HW2 2232   2.712   4.474   0.103 -1.3183 -0.6332 -0.5623
  615SOL    HW3 2233   2.821   4.382   0.052 -0.4659  0.0400  0.0196
  615SOL    MW4 2234   2.748   4.395   0.098 -0.2809  0.0217  0.7419
  616SOL     OW 2235   2.785   3.002   0.622  0.7329  0.5823  0.4082
  616SOL    HW2 2236   2.755   2.990   0.532 -1.6792  0.6578  1.1417
  616SOL    HW3 2237   2.875   2.967   0.622  0.4800 -0.2116 -1.8002
  616SOL    MW4 2238   2.793   2.996   0.610 -0.0395  0.1881 -0.8251
  617SOL     OW 2239   3.990   3.561   0.131 -0.2715 -0.3363 -0.5488
  617SOL    HW2 2240   3.921   3.583   0.068  2.4094  2.1143 -2.9171
  617SOL    HW3 2241   3.989   3.633   0.194 -0.0902 -0.4831 -0.3754
  617SOL    MW4 2242   3.981   3.573   0.131 -0.4014 -0.4003  0.3193
  618SOL     OW 2243   5.817   3.608   5.379 -0.1630  0.7529 -0.4610
  618SOL    HW2 2244   5.834   3.665   5.454  0.2088  0.4968 -0.3479
  618SOL    HW3 2245   5.903   3.595   5.339 -0.1431 -0.2502 -0.1103
  618SOL    MW4 2246   5.831   3.614   5.383  0.4696 -0.3801 -0.8202
  619SOL     OW 2247   4.818   2.918   6.390  0.0734  0.1443 -0.3920
  619SOL    HW2 2248   4.843   2.898   6.480 -2.0933 -1.3364 -0.0420
  619SOL    HW3 2249   4.874   2.991   6.365  1.0660  0.2783  1.9837
  619SOL    MW4 2250   4.829   2.925   6.399  0.0805 -0.1226  0.3528
  620SOL     OW 2251   6.152   5.977   5.989 -0.1288  0.1398  0.4497
  620SOL    HW2 2252   6.095   5.969   5.913  0.3305  1.6084 -0.0873
  620SOL    HW3 2253   6.223   6.036   5.961 -0.0422  0.8745  2.0444
  620SOL    MW4 2254   6.154   5.984   5.976 -0.1748 -0.0338 -0.0588
  621SOL     OW 2255   1.997   0.604   0.357 -0.3091  0.1079 -0.2641
  621SOL    HW2 2256   2.049   0.561   0.425  0.9457  1.5563 -0.2516
  621SOL    HW3 2257   1.916   0.554   0.354  0.6994 -1.6568  0.3746
  621SOL    MW4 2258   1.993   0.592   0.366 -0.2108  0.5060  0.3162
  622SOL     OW 2259   2.191   0.433   0.529  0.5269 -0.0464  0.1407
  622SOL    HW2 2260   2.233   0.429   0.614  0.4367  1.0923  0.2515
  622SOL    HW3 2261   2.256   0.473   0.471 -0.5487  2.3711  0.4647
  622SOL    MW4 2262   2.205   0.438   0.533 -0.4474  0.2673 -0.4618
  623SOL     OW 2263   2.072   4.446   2.831 -0.0625  0.0239 -0.2354
  623SOL    HW2 2264   1.984   4.481   2.816 -0.7859 -0.7572  1.7901
  623SOL    HW3 2265   2.064   4.353   2.811  0.2000 -0.1170  0.3090
  623SOL    MW4 2266   2.059   4.438   2.826 -0.2278  0.0369 -0.2843
  624SOL     OW 2267   3.124   1.053   4.773 -0.2780  0.3461 -0.4004
  624SOL    HW2 2268   3.045   1.042   4.826 -0.0271 -1.4206 -0.3185
  624SOL    HW3 2269   3.196   1.051   4.836  0.0227 -1.7481 -0.7303
  624SOL    MW4 2270   3.123   1.051   4.788 -0.0289  0.3000 -0.9345
  625SOL     OW 2271   3.873   1.602   2.475 -0.1279 -0.1200 -0.3745
  625SOL    HW2 2272   3.948   1.561   2.518 -0.3297 -0.2758 -0.1702
  625SOL    HW3 2273   3.832   1.532   2.425 -1.4039 -0.5850  1.2262
  625SOL    MW4 2274   3.877   1.587   2.474  0.1342  0.6136 -0.1599
  626SOL     OW 2275   3.143   0.166   6.171 -0.2361  0.0411  0.1109
  626SOL    HW2 2276   3.217   0.130   6.120 -0.4559  0.5888 -0.6086
  626SOL    HW3 2277   3.151   0.124   6.257  1.7524  1.1383  0.5314
  626SOL    MW4 2278   3.154   0.155   6.175 -0.0868  0.1547  0.2230
  627SOL     OW 2279   3.607   0.413   2.822  0.6557 -0.1133  0.0307
  627SOL    HW2 2280   3.591   0.477   2.891  0.0264  0.5230 -0.6843
  627SOL    HW3 2281   3.655   0.343   2.865  1.1265  0.7150  0.8907
  627SOL    MW4 2282   3.611   0.412   2.837  0.2242 -0.1789 -0.0778
  628SOL     OW 2283   4.955   5.445   0.829  0.4127  0.0279  0.0094
  628SOL    HW2 2284   4.980   5.359   0.795 -0.9273 -0.8550  1.1812
  628SOL    HW3 2285   4.990   5.507   0.764  0.2207 -1.4465 -1.5737
  628SOL    MW4 2286   4.963   5.442   0.816 -0.2110 -0.6773 -0.0414
  629SOL     OW 2287   0.252   1.702   2.673  0.1968  0.2462 -0.5748
  629SOL    HW2 2288   0.244   1.745   2.588  0.1889  0.9194 -0.2367
  629SOL    HW3 2289   0.285   1.614   2.653  0.6368  0.5609 -1.2299
  629SOL    MW4 2290   0.255   1.696   2.660  0.2086  0.0577  0.0285
  630SOL     OW 2291   2.305   2.540   1.091  0.2285 -0.4765 -0.1364
  630SOL    HW2 2292   2.260   2.494   1.162  1.2074 -0.8583  0.2471
  630SOL    HW3 2293   2.362   2.603   1.135  0.9808 -0.8474 -0.5644
  630SOL    MW4 2294   2.306   2.542   1.106 -0.5018  0.2906  0.0892
  631SOL     OW 2295   2.253   0.798   6.424 -0.3776  0.3422 -0.1924
  631SOL    HW2 2296   2.190   0.738   6.464 -0.0625  0.3894  0.4002
  631SOL    HW3 2297   2.221   0.811   6.335 -0.7938 -0.2114 -0.1321
  631SOL    MW4 2298   2.241   0.792   6.418 -0.2037  0.3779  0.7264
  632SOL     OW 2299   5.674   4.849   5.489 -0.0772  0.6950 -0.2074
  632SOL    HW2 2300   5.665   4.929   5.541 -0.3272 -0.5866  1.8429
  632SOL    HW3 2301   5.766   4.824   5.499 -0.2331  0.1972  0.0214
  632SOL    MW4 2302   5.685   4.857   5.497 -0.2669  0.8160  0.3589
  633SOL     OW 2303   0.661   3.843   1.319 -0.4972  0.0759  0.3839
  633SOL    HW2 2304   0.697   3.912   1.262 -2.2689 -0.2097 -1.1848
  633SOL    HW3 2305   0.622   3.891   1.392  0.2200  0.5840  0.4416
  633SOL    MW4 2306   0.661   3.859   1.321  0.4335  0.0206  0.3114
  634SOL     OW 2307   5.421   3.219   6.348  0.6205  0.3156 -0.3766
  634SOL    HW2 2308   5.330   3.244   6.366  0.2892 -1.3750  0.5245
  634SOL    HW3 2309   5.473   3.289   6.389 -0.2659  0.1303  1.1520
  634SOL    MW4 2310   5.416   3.232   6.356  0.5002 -0.0694  0.5013
  635SOL     OW 2311   5.560   6.311   1.744 -0.4841 -0.0950 -0.1944
  635SOL    HW2 2312   5.567   6.240   1.680 -1.2212 -0.0795 -0.3074
  635SOL    HW3 2313   5.615   6.284   1.817 -0.7151 -0.7537 -0.2620
  635SOL    MW4 2314   5.568   6.298   1.745  0.2510 -0.7859  0.5486
  636SOL     OW 2315   3.022   2.355   1.997 -0.1030  0.0413 -0.5651
  636SOL    HW2 2316   2.983   2.283   2.046  1.4913 -1.0172 -0.7829
  636SOL    HW3 2317   3.004   2.336   1.906 -0.4822  0.4157 -0.5690
  636SOL    MW4 2318   3.015   2.343   1.992  0.5577 -0.1978 -0.1211
  637SOL     OW 2319   4.641   5.303   0.519 -0.4220 -0.0029 -0.5935
  637SOL    HW2 2320   4.546   5.291   0.521 -0.5406  0.6619 -1.5589
  637SOL    HW3 2321   4.667   5.307   0.611 -1.2495 -0.7245 -0.3157
  637SOL    MW4 2322   4.632   5.302   0.531  0.3903  0.3252  0.3484
  638SOL     OW 2323   3.635   3.546   6.194 -0.0104  0.5215 -1.1500
  638SOL    HW2 2324   3.704   3.583   6.249 -0.0266 -0.7943 -0.1715
  638SOL    HW3 2325   3.673   3.542   6.106  1.0981  0.0505 -0.6763
  638SOL    MW4 2326   3.649   3.550   6.190 -0.1206  0.4157  0.0760
  639SOL     OW 2327   0.095   6.252   1.687  0.2600 -0.0293 -0.0367
  639SOL    HW2 2328   0.101   6.336   1.642 -0.6494 -0.0970 -0.2961
  639SOL    HW3 2329   0.146   6.192   1.633 -0.6216 -0.0582 -0.8726
  639SOL    MW4 2330   0.102   6.255   1.674  0.5836  0.8577  0.2178
  640SOL     OW 2331   1.161   4.038   4.633 -0.1162 -0.7072  0.1088
  640SOL    HW2 2332   1.093   3.972   4.623 -0.5152 -0.7308  2.4605
  640SOL    HW3 2333   1.146   4.076   4.719  0.6520  1.8639 -0.7988
  640SOL    MW4 2334   1.150   4.034   4.643 -0.0709 -0.0616  0.1598
  641SOL     OW 2335   1.793   6.320   2.741 -0.2504 -0.9219  0.0804
  641SOL    HW2 2336   1.872   6.334   2.690 -0.3897 -2.1068 -0.5077
  641SOL    HW3 2337   1.809   6.238   2.789 -1.4006 -1.6263 -0.6714
  641SOL    MW4 2338   1.806   6.311   2.741 -0.2875  0.2843 -0.6231
  642SOL     OW 2339   4.654   2.978   3.745  0.1846 -0.6774  0.7786
  642SOL    HW2 2340   4.580   3.038   3.734  0.5361 -0.0178  1.8707
  642SOL    HW3 2341   4.731   3.035   3.750  1.0241 -1.4098 -1.9185
  642SOL    MW4 2342   4.654   2.993   3.744  0.3156  0.3479 -0.3039
  643SOL     OW 2343   0.782   2.060   1.186 -0.7857  0.7089 -0.2181
  643SOL    HW2 2344   0.744   2.147   1.188 -0.6609  0.7613 -0.0876
  643SOL    HW3 2345   0.876   2.075   1.188 -0.7662  0.5692 -0.0332
  643SOL    MW4 2346   0.789   2.073   1.187 -0.2179 -0.4846 -0.4125
  644SOL     OW 2347   2.549   4.825   6.226  0.5887 -0.3708 -0.0851
  644SOL    HW2 2348   2.520   4.733   6.222 -1.2710  0.1261  0.9226
  644SOL    HW3 2349   2.490   4.871   6.167  0.6276  0.3893  0.4632
  644SOL    MW4 2350   2.537   4.819   6.217 -0.0522 -0.7010  0.0804
  645SOL     OW 2351   0.734   3.980   1.773 -0.0612 -0.0538  0.0661
  645SOL    HW2 2352   0.729   4.075   1.762 -0.6630 -0.2776 -1.8110
  645SOL    HW3 2353   0.645   3.949   1.758 -0.2521 -0.8067  2.3560
  645SOL    MW4 2354   0.722   3.988   1.770 -0.2133  0.3452 -0.1754
  646SOL     OW 2355   4.987   3.878   2.969  0.5469 -0.2249  0.6841
  646SOL    HW2 2356   4.976   3.789   2.936  0.7932 -0.0082 -0.0076
  646SOL    HW3 2357   5.080   3.884   2.993  0.5693 -0.1043  0.5692
  646SOL    MW4 2358   4.998   3.867   2.968 -0.1338 -0.0456  0.2423
  647SOL     OW 2359   0.921   5.897   4.998  0.3864 -0.6396 -0.3768
  647SOL    HW2 2360   0.997   5.841   5.018  1.0877  0.2911 -0.3682
  647SOL    HW3 2361   0.931   5.919   4.906  0.2218 -0.3749 -0.3319
  647SOL    MW4 2362   0.933   5.893   4.989 -0.6762 -0.0343 -0.2298
  648SOL     OW 2363   3.429   6.019   0.973  0.2876 -0.5685  0.2598
  648SOL    HW2 2364   3.508   6.072   0.981 -0.1826  0.3665 -0.8920
  648SOL    HW3 2365   3.394   6.014   1.062  2.1074 -1.7844  0.9417
  648SOL    MW4 2366   3.435   6.025   0.986  0.5793 -0.5334 -0.0988
  649SOL     OW 2367   4.982   6.339   2.257  0.1966 -0.0634 -0.1614
  649SOL    HW2 2368   4.930   6.410   2.296 -0.0423 -0.1002 -0.4055
  649SOL    HW3 2369   5.043   6.313   2.326  2.2552  2.2889 -0.9266
  649SOL    MW4 2370   4.983   6.345   2.271  0.4490  0.3954 -0.3511
  650SOL     OW 2371   3.869   1.918   4.250  0.1241 -0.6318 -0.2431
  650SOL    HW2 2372   3.834   1.838   4.290 -1.2809 -0.7284 -1.5831
  650SOL    HW3 2373   3.936   1.886   4.189  1.6634 -0.5363  1.2950
  650SOL    MW4 2374   3.873   1.903   4.248 -0.3769 -0.5089 -0.0156
  651SOL     OW 2375   5.503   0.355   1.693  0.8019 -0.2141  0.4432
  651SOL    HW2 2376   5.540   0.404   1.619 -0.3175 -0.3533 -0.2311
  651SOL    HW3 2377   5.550   0.271   1.692  1.8415  0.3416  0.8318
  651SOL    MW4 2378   5.514   0.350   1.683 -0.5788 -0.5238 -0.0920
  652SOL     OW 2379   0.742   5.126   5.193  0.1917 -0.1215 -0.0728
  652SOL    HW2 2380   0.790   5.084   5.122 -0.7112 -0.6188 -0.4121
  652SOL    HW3 2381   0.663   5.162   5.152 -0.6186 -0.8883  0.7416
  652SOL    MW4 2382   0.738   5.125   5.179 -0.8520 -0.5547 -0.1244
  653SOL     OW 2383   2.368   6.006   4.517 -0.4492 -0.0585  0.2298
  653SOL    HW2 2384   2.333   5.917   4.507 -1.7156  0.4485 -0.0620
  653SOL    HW3 2385   2.342   6.032   4.606  1.8483 -0.7691  1.1633
  653SOL    MW4 2386   2.360   5.998   4.528  0.0496 -0.0916  0.3745
  654SOL     OW 2387   4.255   3.296   1.334  0.0219 -0.3398  0.6441
  654SOL    HW2 2388   4.328   3.263   1.282  0.1256  0.2311  0.4135
  654SOL    HW3 2389   4.244   3.232   1.404 -0.5137 -1.4257 -0.4069
  654SOL    MW4 2390   4.263   3.283   1.337  0.0862 -0.1502  0.8807
  655SOL     OW 2391   5.133   2.982   5.292 -0.1779 -0.1090 -0.1732
  655SOL    HW2 2392   5.217   3.027   5.300  0.0970 -0.6747  0.1814
  655SOL    HW3 2393   5.146   2.921   5.219  0.1541 -1.1347  0.7342
  655SOL    MW4 2394   5.146   2.980   5.283 -0.1967  0.0550  0.7310
  656SOL     OW 2395   5.922   4.629   3.137 -0.3083 -0.3984  0.5224
  656SOL    HW2 2396   5.981   4.554   3.150  0.2938  0.3043  2.1017
  656SOL    HW3 2397   5.874   4.635   3.219 -2.0127 -0.4284 -0.4382
  656SOL    MW4 2398   5.924   4.620   3.150  0.3549  0.1192  0.2908
  657SOL     OW 2399   2.434   0.074   1.362  0.1626 -0.2916  0.3355
  657SOL    HW2 2400   2.347   0.066   1.323  1.1395  0.1557 -2.0899
  657SOL    HW3 2401   2.451  -0.013   1.399 -1.8480  0.0201  2.2041
  657SOL    MW4 2402   2.424   0.061   1.362  0.0915  0.0566 -0.9261
  658SOL     OW 2403   2.357   1.337   0.131  0.0963 -0.1974 -0.3496
  658SOL    HW2 2404   2.294   1.363   0.064 -0.5585  0.1384  0.3765
  658SOL    HW3 2405   2.361   1.242   0.125 -0.2636 -0.1973 -0.6018
  658SOL    MW4 2406   2.349   1.328   0.122 -0.0134  0.0994  0.2486
  659SOL     OW 2407   0.920   5.284   4.742 -0.3019  0.2729  0.3818
  659SOL    HW2 2408   0.853   5.251   4.681  0.2033  0.4432 -0.2731
  659SOL    HW3 2409   0.976   5.339   4.688  1.7905 -1.7456  0.3717
  659SOL    MW4 2410   0.918   5.287   4.727 -0.4436 -0.4995  0.4236
  660SOL     OW 2411   0.909   4.767   3.823  0.3483  0.0256  0.0867
  660SOL    HW2 2412   0.951   4.763   3.737  1.2030  0.0250  0.4967
  660SOL    HW3 2413   0.980   4.750   3.885 -0.0181  1.2107  0.8529
  660SOL    MW4 2414   0.924   4.764   3.820  0.4103 -0.3922  0.3490
  661SOL     OW 2415   3.692   2.876   5.430 -0.3123  0.4732  0.1385
  661SOL    HW2 2416   3.638   2.885   5.351  1.7295  1.1670 -1.2633
  661SOL    HW3 2417   3.753   2.806   5.409  0.2256  0.6331  1.1396
  661SOL    MW4 2418   3.693   2.868   5.417 -0.0584  0.2237 -0.2445
  662SOL     OW 2419   2.473   0.970   2.808 -0.0473 -0.0386  0.9262
  662SOL    HW2 2420   2.455   0.917   2.885 -3.0032 -0.5464  0.0093
  662SOL    HW3 2421   2.556   0.935   2.774 -1.3525 -3.5405  0.8983
  662SOL    MW4 2422   2.482   0.958   2.814 -0.6846 -0.5214  0.4808
  663SOL     OW 2423   6.367   6.311   0.942 -0.0567  0.3096  0.1363
  663SOL    HW2 2424   6.462   6.317   0.953  0.1146  1.3497 -1.7146
  663SOL    HW3 2425   6.353   6.224   0.904  0.2211  0.4824 -0.3563
  663SOL    MW4 2426   6.378   6.300   0.939  0.2940 -0.2785 -0.7841
  664SOL     OW 2427   2.038   0.529   4.893 -0.5381  0.4452 -0.1345
  664SOL    HW2 2428   2.056   0.459   4.956  1.4753  1.1501  0.1668
  664SOL    HW3 2429   1.998   0.485   4.818  2.8332 -1.5332 -0.9940
  664SOL    MW4 2430   2.035   0.514   4.891 -0.5747  0.1699 -0.1811
  665SOL     OW 2431   6.357   5.205   5.865 -0.0086  0.1694  1.0186
  665SOL    HW2 2432   6.269   5.194   5.903  0.0075  1.1954  1.3896
  665SOL    HW3 2433   6.347   5.277   5.803  0.0746 -1.1953 -0.6513
  665SOL    MW4 2434   6.344   5.213   5.862  0.1685 -0.0234  0.0088
  666SOL     OW 2435   3.651   5.268   5.976  0.7529  0.6518 -0.9147
  666SOL    HW2 2436   3.719   5.234   5.918  1.0800 -2.1111  0.8915
  666SOL    HW3 2437   3.696   5.331   6.031  1.6353 -0.2965 -0.5073
  666SOL    MW4 2438   3.666   5.272   5.976  0.6490  0.2797 -0.5158
  667SOL     OW 2439   1.542   1.054   4.975 -0.4913  0.6277 -0.3548
  667SOL    HW2 2440   1.520   0.967   4.942  1.0021  0.1977 -0.2928
  667SOL    HW3 2441   1.583   1.038   5.060 -0.8751  1.4583  0.0049
  667SOL    MW4 2442   1.544   1.040   4.982 -0.1910  0.2241 -0.1875
  668SOL     OW 2443   5.617   5.055   3.661  0.2197  0.0822  0.1913
  668SOL    HW2 2444   5.553   5.098   3.718  0.2711  0.6945 -0.2020
  668SOL    HW3 2445   5.701   5.091   3.687  0.2716  0.1762 -0.0998
  668SOL    MW4 2446   5.619   5.065   3.672  0.0915 -0.6994 -0.1378
  669SOL     OW 2447   0.867   0.347   1.210  0.1527  0.4317 -0.2374
  669SOL    HW2 2448   0.949   0.368   1.165  0.7028 -0.1763  0.4612
  669SOL    HW3 2449   0.813   0.426   1.198  0.5366  0.5443 -1.3560
  669SOL    MW4 2450   0.871   0.360   1.202 -0.5835 -0.5141  0.2668
  670SOL     OW 2451   0.009   2.631   5.329 -0.5742 -0.0907  0.4752
  670SOL    HW2 2452  -0.072   2.592   5.296 -1.0569  0.2934  1.1923
  670SOL    HW3 2453   0.075   2.562   5.317 -0.7539 -0.0294 -1.1197
  670SOL    MW4 2454   0.007   2.617   5.323 -0.6814  0.2829  0.3530
  671SOL     OW 2455   3.548   5.842   5.653  0.2545 -0.5403 -0.0928
  671SOL    HW2 2456   3.597   5.821   5.574  2.2085  0.0629  0.9029
  671SOL    HW3 2457   3.554   5.937   5.661 -0.0369 -0.5782  0.7109
  671SOL    MW4 2458   3.555   5.852   5.644  0.3391 -0.2189 -0.0643
  672SOL     OW 2459   1.926   2.924   3.229  0.3587  0.2885 -0.2576
  672SOL    HW2 2460   1.901   2.930   3.321  0.5682 -0.0677 -0.1750
  672SOL    HW3 2461   1.844   2.934   3.181 -0.1489 -1.8910  0.0403
  672SOL    MW4 2462   1.912   2.926   3.235 -0.0760 -0.2535 -0.2191
  673SOL     OW 2463   4.902   0.430   2.808 -0.4664  0.3193 -0.1094
  673SOL    HW2 2464   4.927   0.346   2.845 -0.4727  1.3966  2.5565
  673SOL    HW3 2465   4.807   0.425   2.798 -0.5374  0.1733  0.5648
  673SOL    MW4 2466   4.893   0.419   2.812  0.2261  0.1020  0.0657
  674SOL     OW 2467   4.394   4.321   1.183  0.1685  0.1417 -0.4286
  674SOL    HW2 2468   4.485   4.351   1.174 -0.1844  1.9378  1.2629
  674SOL    HW3 2469   4.397   4.254   1.251  0.0000  1.7494  1.2396
  674SOL    MW4 2470   4.406   4.316   1.190  0.1933  0.6479  0.0483
  675SOL     OW 2471   0.135   1.753   4.240 -0.4569 -0.3660 -0.4202
  675SOL    HW2 2472   0.229   1.764   4.225 -0.5577 -0.1061 -0.8684
  675SOL    HW3 2473   0.118   1.801   4.320 -0.3295  0.1609 -0.7050
  675SOL    MW4 2474   0.145   1.761   4.248  0.9582  0.1278 -0.1916
  676SOL     OW 2475   5.377   0.646   4.211 -0.6441 -0.2475  0.0839
  676SOL    HW2 2476   5.364   0.682   4.299  0.4296  0.5868 -0.0806
  676SOL    HW3 2477   5.298   0.593   4.196 -0.4258 -1.1946  1.9182
  676SOL    MW4 2478   5.365   0.644   4.221 -0.3385  0.2083  0.3040
  677SOL     OW 2479   0.747   2.716   4.961  0.1619 -0.4361 -0.2168
  677SOL    HW2 2480   0.688   2.751   4.894 -0.5486 -1.0909  0.0561
  677SOL    HW3 2481   0.690   2.677   5.027  0.8952 -2.6339 -0.7813
  677SOL    MW4 2482   0.732   2.715   4.961 -0.3958 -0.3367  0.2209
  678SOL     OW 2483   2.756   2.023   0.175 -0.6517 -0.5299  0.4031
  678SOL    HW2 2484   2.664   1.999   0.169 -0.3021 -1.6915 -0.9457
  678SOL    HW3 2485   2.802   1.940   0.180  0.4072 -0.0265 -0.5284
  678SOL    MW4 2486   2.750   2.009   0.175  0.5155  0.3909 -0.1737
  679SOL     OW 2487   4.512   6.361   3.665  0.2165  0.0454  0.0201
  679SOL    HW2 2488   4.442   6.317   3.616  2.5217  0.8336 -4.4889
  679SOL    HW3 2489   4.588   6.357   3.607  2.9919  2.3795  3.1077
  679SOL    MW4 2490   4.513   6.354   3.651 -0.3467  0.0509  0.5045
  680SOL     OW 2491   2.430   0.367   3.250  0.7498  0.5525 -0.2743
  680SOL    HW2 2492   2.395   0.443   3.204  1.5880  0.1861 -1.5428
  680SOL    HW3 2493   2.397   0.291   3.202  1.0177  0.1353  0.1846
  680SOL    MW4 2494   2.421   0.367   3.238 -0.0022 -0.2103 -0.5513
  681SOL     OW 2495   4.938   4.473   5.026  0.0369  0.3155 -0.2132
  681SOL    HW2 2496   4.935   4.569   5.023  1.1642  0.3802  0.2797
  681SOL    HW3 2497   4.927   4.452   5.119  1.1342  0.0455 -0.1275
  681SOL    MW4 2498   4.936   4.483   5.038  0.0264  0.4059  0.3063
  682SOL     OW 2499   6.223   6.022   1.864  0.4570  0.5857 -0.3393
  682SOL    HW2 2500   6.242   5.942   1.914 -1.1226  0.2139 -0.2877
  682SOL    HW3 2501   6.272   6.090   1.909 -0.9990  0.2840  1.8427
  682SOL    MW4 2502   6.232   6.020   1.877 -0.3824  0.2701 -0.9060
  683SOL     OW 2503   5.520   3.663   3.318 -0.0717 -0.1903  0.1756
  683SOL    HW2 2504   5.530   3.590   3.380  0.9519  0.0843  0.3466
  683SOL    HW3 2505   5.605   3.671   3.276 -1.1446 -1.3227 -2.3788
  683SOL    MW4 2506   5.533   3.654   3.321  0.2372 -0.1225  0.7089
  684SOL     OW 2507   2.466   2.684   3.766 -0.0266 -0.2046 -0.8795
  684SOL    HW2 2508   2.435   2.609   3.816  0.3307 -0.4881 -1.0782
  684SOL    HW3 2509   2.387   2.721   3.727 -0.4545  0.6189  0.6744
  684SOL    MW4 2510   2.451   2.679   3.768  0.0175 -0.0670  0.3149
  685SOL     OW 2511   4.201   0.400   6.389 -0.3275 -0.3246 -0.4646
  685SOL    HW2 2512   4.125   0.442   6.431  0.4186 -0.3328  0.9449
  685SOL    HW3 2513   4.276   0.434   6.437  0.5090 -0.9539 -1.3109
  685SOL    MW4 2514   4.201   0.410   6.401 -0.3501  0.8299  0.6070
  686SOL     OW 2515   2.261   1.270   3.698 -0.4086 -0.3694  0.2456
  686SOL    HW2 2516   2.275   1.226   3.614  2.3996 -0.0990  0.4631
  686SOL    HW3 2517   2.224   1.355   3.676 -0.9680 -0.8144 -0.5813
  686SOL    MW4 2518   2.258   1.275   3.684  0.2271 -0.1278 -0.0746
  687SOL     OW 2519   3.412   1.481   3.885  0.3947 -0.1943  0.6787
  687SOL    HW2 2520   3.332   1.531   3.873  2.1320  2.7732  0.6598
  687SOL    HW3 2521   3.435   1.494   3.977  1.6206  0.2872  0.3269
  687SOL    MW4 2522   3.404   1.489   3.896 -0.1770  0.3731  0.5809
  688SOL     OW 2523   4.411   2.957   5.069  0.4219  0.6619  0.0670
  688SOL    HW2 2524   4.385   2.870   5.039 -1.9148  2.1228 -2.6617
  688SOL    HW3 2525   4.359   2.971   5.148  0.3445 -0.1792  0.1739
  688SOL    MW4 2526   4.401   2.948   5.076 -0.5246 -0.4114  0.0422
  689SOL     OW 2527   5.055   1.840   4.975 -0.0012 -0.2062  0.4978
  689SOL    HW2 2528   5.040   1.824   5.069  1.8373 -2.7505  0.4580
  689SOL    HW3 2529   4.968   1.836   4.936 -0.7296  0.2302  2.0048
  689SOL    MW4 2530   5.042   1.838   4.983  0.8977 -0.0233 -0.2717
  690SOL     OW 2531   3.517   1.439   0.271  0.0015 -0.3551  0.1206
  690SOL    HW2 2532   3.559   1.424   0.355  0.9444 -1.3935 -0.5100
  690SOL    HW3 2533   3.580   1.490   0.220 -0.4559  0.0516 -0.0546
  690SOL    MW4 2534   3.531   1.444   0.275  0.2348 -0.2469 -0.3115
  691SOL     OW 2535   4.325   0.221   1.965 -0.1860  0.7619  0.0873
  691SOL    HW2 2536   4.409   0.251   1.999 -0.1939 -0.6359  1.4887
  691SOL    HW3 2537   4.281   0.300   1.934  0.4987  1.9320  1.9434
  691SOL    MW4 2538   4.330   0.235   1.966 -0.0319 -1.2373 -0.4372
  692SOL     OW 2539   4.006   5.702   1.813 -0.4330 -0.0783  0.1041
  692SOL    HW2 2540   3.974   5.638   1.750 -0.6579  0.9725 -0.8722
  692SOL    HW3 2541   3.967   5.675   1.896  0.4267 -1.8861 -0.0384
  692SOL    MW4 2542   3.996   5.690   1.816  0.3557  0.3074  0.0258
  693SOL     OW 2543   5.771   4.254   2.251  0.0214 -0.2929 -0.2383
  693SOL    HW2 2544   5.867   4.250   2.254  0.0650  1.0546  0.6848
  693SOL    HW3 2545   5.745   4.278   2.340 -1.1181  0.4237 -0.7451
  693SOL    MW4 2546   5.780   4.256   2.263 -0.3131 -0.2756 -0.0896
  694SOL     OW 2547   2.800   2.565   2.162 -0.8300  0.1702 -1.1301
  694SOL    HW2 2548   2.866   2.589   2.097  1.2930  1.1967  1.2376
  694SOL    HW3 2549   2.772   2.648   2.199 -0.9544 -0.4384  0.1999
  694SOL    MW4 2550   2.805   2.579   2.158  0.2643  0.3875 -0.1898
  695SOL     OW 2551   5.575   5.835   5.112 -0.4501 -0.1787 -0.3430
  695SOL    HW2 2552   5.500   5.799   5.065 -0.5614  1.7125 -1.6994
  695SOL    HW3 2553   5.537   5.884   5.185 -0.4522 -0.3083 -0.2559
  695SOL    MW4 2554   5.560   5.836   5.115  0.5623 -0.0134 -0.5609
  696SOL     OW 2555   3.792   1.006   3.532 -0.0418  0.0030  0.2478
  696SOL    HW2 2556   3.862   0.959   3.578 -0.1012  1.1044  1.5149
  696SOL    HW3 2557   3.718   0.946   3.534  0.3255 -0.4516  0.5043
  696SOL    MW4 2558   3.792   0.992   3.538 -0.1492 -0.1796  0.0979
  697SOL     OW 2559   2.770   5.149   2.773  0.2890  0.3399  0.1173
  697SOL    HW2 2560   2.813   5.063   2.772  0.6636  0.4393  2.8183
  697SOL    HW3 2561   2.803   5.192   2.851 -2.8205  1.4438  0.9489
  697SOL    MW4 2562   2.780   5.143   2.783 -0.4488 -0.1349 -0.0497
  698SOL     OW 2563   5.918   6.173   0.892  0.3738  0.0453  0.1845
  698SOL    HW2 2564   5.869   6.253   0.909 -0.8813 -0.7146  0.2650
  698SOL    HW3 2565   5.930   6.133   0.978 -0.6432 -0.7637 -0.0281
  698SOL    MW4 2566   5.913   6.179   0.906 -0.4056 -0.1022  0.1014
  699SOL     OW 2567   1.828   2.025   4.082  0.6141  0.2406  0.1028
  699SOL    HW2 2568   1.758   1.986   4.134  1.0883 -0.2674  0.3837
  699SOL    HW3 2569   1.784   2.082   4.019 -0.1732 -1.2635 -0.7796
  699SOL    MW4 2570   1.813   2.027   4.080 -0.0214 -0.1009 -0.1396
  700SOL     OW 2571   1.293   4.657   1.955  0.3140 -0.1340  0.4671
  700SOL    HW2 2572   1.365   4.596   1.974  0.2501 -0.1472  0.6585
  700SOL    HW3 2573   1.282   4.708   2.035 -0.4911 -0.7378  0.7549
  700SOL    MW4 2574   1.301   4.656   1.968  0.3888  0.4564  0.0228
  701SOL     OW 2575   1.093   3.564   0.262 -0.2350 -0.0812 -0.2367
  701SOL    HW2 2576   1.016   3.541   0.210  0.1203  0.4881 -1.0415
  701SOL    HW3 2577   1.157   3.594   0.198  0.5627 -0.2786  0.4481
  701SOL    MW4 2578   1.091   3.565   0.247 -0.4609  0.5476 -0.0691
  702SOL     OW 2579   3.223   1.265   2.138 -0.8502  0.3431  0.0011
  702SOL    HW2 2580   3.292   1.203   2.158 -1.2270 -0.9455 -2.3417
  702SOL    HW3 2581   3.266   1.351   2.139  0.2737 -0.2196  0.7175
  702SOL    MW4 2582   3.238   1.268   2.141  0.2573  0.1703  0.3173
  703SOL     OW 2583   1.011   0.908   3.731  0.0397  0.1908 -0.0303
  703SOL    HW2 2584   1.036   0.979   3.791  0.8187 -0.7449  0.7826
  703SOL    HW3 2585   0.988   0.835   3.789  0.8717 -0.7576 -0.8631
  703SOL    MW4 2586   1.011   0.908   3.747  0.8346 -0.1843  0.0553
  704SOL     OW 2587   3.561   3.629   0.802  0.3668  0.4238 -0.3183
  704SOL    HW2 2588   3.602   3.652   0.886 -0.5299  3.5151 -0.5761
  704SOL    HW3 2589   3.525   3.541   0.816  0.4204  0.7346  2.4888
  704SOL    MW4 2590   3.561   3.621   0.815  0.4133 -0.2467 -0.4177
  705SOL     OW 2591   4.525   5.262   2.445  0.2441  0.5503 -0.2804
  705SOL    HW2 2592   4.484   5.267   2.359  1.3259 -3.9920 -1.3482
  705SOL    HW3 2593   4.453   5.240   2.504 -0.0499  0.3851 -0.6901
  705SOL    MW4 2594   4.510   5.260   2.441 -0.0448  0.2948  0.2698
  706SOL     OW 2595   0.621   0.950   2.634 -0.0601  0.3492  0.1976
  706SOL    HW2 2596   0.626   0.907   2.720  1.8948  1.5103  0.7522
  706SOL    HW3 2597   0.534   0.989   2.632 -0.9417 -1.4522  0.7214
  706SOL    MW4 2598   0.610   0.949   2.645 -0.5617 -0.5249  0.0924
  707SOL     OW 2599   2.562   0.450   0.473  0.5816  0.3405 -0.3937
  707SOL    HW2 2600   2.657   0.440   0.463  0.3074 -0.5996 -3.0946
  707SOL    HW3 2601   2.538   0.381   0.535  1.6998  1.1203  0.9815
  707SOL    MW4 2602   2.571   0.439   0.480 -0.4997 -0.4538  0.7523
  708SOL     OW 2603   4.327   0.535   0.449 -0.0351  0.1765  0.1610
  708SOL    HW2 2604   4.399   0.597   0.446 -0.8298  1.0901 -0.7639
  708SOL    HW3 2605   4.356   0.463   0.392  0.6816 -0.0968  0.8505
  708SOL    MW4 2606   4.340   0.533   0.441 -0.4460  1.1727 -0.5794
  709SOL     OW 2607   3.579   2.156   2.784 -0.5669 -0.5018 -0.5683
  709SOL    HW2 2608   3.635   2.108   2.722 -0.8235 -1.1933 -0.2787
  709SOL    HW3 2609   3.515   2.201   2.729 -0.2823 -0.4373 -0.8513
  709SOL    MW4 2610   3.578   2.155   2.768 -0.0174  0.3796 -0.0063
  710SOL     OW 2611   2.358   4.840   5.575 -0.0963  0.0979  0.5726
  710SOL    HW2 2612   2.408   4.763   5.602  1.3243  0.3068 -1.2782
  710SOL    HW3 2613   2.415   4.914   5.596 -0.6689  0.5368  0.6250
  710SOL    MW4 2614   2.372   4.840   5.581 -0.0263  0.3126 -0.2465
  711SOL     OW 2615   5.197   2.393   4.422 -0.2896  0.4352  0.2034
  711SOL    HW2 2616   5.157   2.446   4.491  1.5264  1.4264  0.5564
  711SOL    HW3 2617   5.124   2.370   4.364 -1.2249  3.2399  0.0857
  711SOL    MW4 2618   5.182   2.397   4.423 -0.2590 -0.1104 -0.6422
  712SOL     OW 2619   3.031   1.016   1.493 -0.1631 -0.4248 -0.5287
  712SOL    HW2 2620   3.040   1.090   1.434  1.3661  0.5115  0.7823
  712SOL    HW3 2621   2.938   0.994   1.491 -0.8538  2.1694 -0.2166
  712SOL    MW4 2622   3.020   1.023   1.485  0.0258 -0.4312 -0.2839
  713SOL     OW 2623   4.460   3.784   1.246 -0.2298 -0.5026  0.3315
  713SOL    HW2 2624   4.427   3.840   1.176 -1.9594 -1.0014  0.6972
  713SOL    HW3 2625   4.554   3.775   1.228 -0.6431 -0.6900 -1.9542
  713SOL    MW4 2626   4.468   3.790   1.234 -0.2870 -0.1879 -0.2601
  714SOL     OW 2627   5.577   4.618   0.985  0.0243 -0.4105 -0.1176
  714SOL    HW2 2628   5.607   4.644   1.073 -1.8382 -1.6665  0.9562
  714SOL    HW3 2629   5.642   4.553   0.957 -0.2388 -1.2232  1.0685
  714SOL    MW4 2630   5.590   4.613   0.993  0.3799  0.3872 -0.3444
  715SOL     OW 2631   4.673   3.941   6.312 -0.2601  0.4201 -0.0274
  715SOL    HW2 2632   4.712   4.026   6.330 -2.2258  1.5195 -0.6313
  715SOL    HW3 2633   4.619   3.956   6.234  0.3482 -1.7169 -0.9269
  715SOL    MW4 2634   4.671   3.954   6.304 -0.7011 -0.2691  0.4361
  716SOL     OW 2635   4.221   0.482   1.876 -0.0888  0.4870  0.1651
  716SOL    HW2 2636   4.154   0.547   1.857  0.1331  0.3815 -1.0584
  716SOL    HW3 2637   4.301   0.532   1.889 -0.7380  0.8206  3.8884
  716SOL    MW4 2638   4.223   0.497   1.875 -0.2057  0.2956 -0.2086
  717SOL     OW 2639   1.205   1.287   3.264 -0.0304 -0.1623 -0.2778
  717SOL    HW2 2640   1.143   1.356   3.238 -0.1112 -0.5096 -1.0276
  717SOL    HW3 2641   1.160   1.205   3.244  0.4637 -0.4244 -0.3247
  717SOL    MW4 2642   1.191   1.286   3.258  0.7647  0.1650 -0.5334
  718SOL     OW 2643   6.018   0.554   3.117  0.2592 -0.0351 -0.1620
  718SOL    HW2 2644   5.957   0.535   3.045  0.5723  0.5497 -0.5923
  718SOL    HW3 2645   6.058   0.637   3.092 -0.1279  0.5253  1.0322
  718SOL    MW4 2646   6.015   0.563   3.104 -0.5527  0.3414 -0.3876
  719SOL     OW 2647   2.957   0.955   2.638 -0.2824  0.3824 -0.1482
  719SOL    HW2 2648   2.902   1.032   2.624  0.6457  1.0226 -0.3172
  719SOL    HW3 2649   3.043   0.990   2.660  0.2539 -0.5979 -0.6072
  719SOL    MW4 2650   2.961   0.970   2.639  0.7598  0.2275  0.7620
  720SOL     OW 2651   3.194   5.848   4.110 -0.2111  0.3282 -0.2639
  720SOL    HW2 2652   3.099   5.844   4.099 -0.3862  2.0037  0.3651
  720SOL    HW3 2653   3.207   5.910   4.182  1.3615  0.1058 -0.3222
  720SOL    MW4 2654   3.183   5.856   4.118  0.4643 -0.4367  0.2466
  721SOL     OW 2655   1.786   4.723   2.148  0.2868  0.3852  0.3445
  721SOL    HW2 2656   1.813   4.632   2.140 -2.1549 -0.5207  1.4378
  721SOL    HW3 2657   1.803   4.746   2.240 -1.0465  0.2921  0.6409
  721SOL    MW4 2658   1.792   4.714   2.159 -0.0236  0.4277  0.1468
  722SOL     OW 2659   1.518   2.361   5.189  0.0238 -0.2211 -0.1725
  722SOL    HW2 2660   1.504   2.361   5.094 -1.0734 -3.6686 -0.1647
  722SOL    HW3 2661   1.458   2.428   5.222  0.8382  1.4369 -1.8893
  722SOL    MW4 2662   1.508   2.370   5.181  0.1648 -0.0269 -0.6458
  723SOL     OW 2663   4.986   1.026   3.616 -0.3744  0.2581 -0.1787
  723SOL    HW2 2664   4.950   0.994   3.699  1.0038 -1.5222 -0.2051
  723SOL    HW3 2665   5.034   1.105   3.640  1.1581 -0.9746  1.0158
  723SOL    MW4 2666   4.987   1.032   3.630 -0.0055  0.2364  0.4091
  724SOL     OW 2667   2.756   5.136   0.089  0.1748  0.5742 -0.7404
  724SOL    HW2 2668   2.722   5.163   0.174  0.5365 -0.2316 -0.3190
  724SOL    HW3 2669   2.700   5.064   0.062  0.4181  0.4421 -0.9058
  724SOL    MW4 2670   2.744   5.130   0.097 -0.4728 -0.6365 -0.5660
  725SOL     OW 2671   2.284   0.791   0.388 -0.4908 -0.2623  0.2000
  725SOL    HW2 2672   2.275   0.817   0.479 -0.2241 -1.1537  0.4926
  725SOL    HW3 2673   2.217   0.840   0.342 -1.5224 -0.7994  1.0835
  725SOL    MW4 2674   2.274   0.801   0.394 -0.3860  0.3543 -0.1214
  726SOL     OW 2675   0.692   0.495   4.328  0.0616  0.2805 -0.5222
  726SOL    HW2 2676   0.705   0.457   4.241  0.5898  0.3058 -0.4557
  726SOL    HW3 2677   0.778   0.529   4.353 -0.2675  0.9671 -0.3126
  726SOL    MW4 2678   0.705   0.494   4.320 -0.0717  0.5242  0.0833
  727SOL     OW 2679   5.169   4.866   2.976  0.1058 -0.2086  0.4126
  727SOL    HW2 2680   5.257   4.903   2.967  0.3117 -0.4241  1.3492
  727SOL    HW3 2681   5.176   4.778   2.939  0.7274 -0.8163  1.8858
  727SOL    MW4 2682   5.181   4.859   2.970  0.1862  0.1813 -0.5010
  728SOL     OW 2683   4.945   2.751   1.775 -0.0322 -0.3401  0.1005
  728SOL    HW2 2684   4.966   2.829   1.826 -0.5397 -0.9450  1.2742
  728SOL    HW3 2685   4.968   2.678   1.832 -1.3253 -1.0356 -0.2229
  728SOL    MW4 2686   4.951   2.752   1.790 -0.1709 -0.3710  0.2685
  729SOL     OW 2687   5.085   2.519   3.603  0.1042 -0.0618 -0.5097
  729SOL    HW2 2688   5.066   2.490   3.514 -0.2074 -1.5979  0.0351
  729SOL    HW3 2689   5.102   2.613   3.595  1.1513 -0.3694 -2.3502
  729SOL    MW4 2690   5.085   2.528   3.590 -0.2967 -0.2855  0.0159
  730SOL     OW 2691   5.189   5.075   3.218 -0.9535 -0.1590 -0.9025
  730SOL    HW2 2692   5.217   5.118   3.137  0.9056  0.0805 -0.1767
  730SOL    HW3 2693   5.237   4.992   3.219  1.5937  1.1791  1.3970
  730SOL    MW4 2694   5.199   5.070   3.208 -0.0318 -0.3105  0.2238
  731SOL     OW 2695   0.654   4.380   4.502  0.4652  0.2505 -0.2113
  731SOL    HW2 2696   0.672   4.298   4.456  1.5159  0.9804 -1.1577
  731SOL    HW3 2697   0.562   4.374   4.527  1.2625 -2.6666  2.7570
  731SOL    MW4 2698   0.644   4.368   4.499 -0.2051 -0.1153 -0.1079
  732SOL     OW 2699   0.154   3.041   2.977  0.8757 -0.1578  0.2145
  732SOL    HW2 2700   0.224   3.087   2.929  1.8853 -0.2439  1.5239
  732SOL    HW3 2701   0.195   2.960   3.007  0.4367  0.1095  1.6019
  732SOL    MW4 2702   0.169   3.037   2.975  0.4979 -0.0053  0.0263
  733SOL     OW 2703   1.057   5.902   2.249  0.0754 -0.9861 -0.5923
  733SOL    HW2 2704   1.025   5.812   2.254  0.6314 -1.1863 -0.5270
  733SOL    HW3 2705   0.978   5.955   2.241 -0.4628 -1.2334  2.2622
  733SOL    MW4 2706   1.043   5.897   2.248  0.1206  0.3084  0.3077
  734SOL     OW 2707   2.645   0.081   4.239  0.3065  0.3686  0.4567
  734SOL    HW2 2708   2.692   0.151   4.194  1.6206  0.0640  1.3084
  734SOL    HW3 2709   2.689   0.072   4.323 -0.4384 -0.8419  0.7494
  734SOL    MW4 2710   2.657   0.089   4.244  0.7416  0.0137  0.3637
  735SOL     OW 2711   5.141   4.471   1.942 -0.1920 -0.2819 -0.6713
  735SOL    HW2 2712   5.137   4.457   2.036 -0.0147 -1.1294 -0.7804
  735SOL    HW3 2713   5.079   4.542   1.925  0.5781  0.6292  0.2152
  735SOL    MW4 2714   5.132   4.478   1.952  0.0701  1.1466  0.0719
  736SOL     OW 2715   5.980   4.500   0.168 -0.2669 -0.0474  0.4520
  736SOL    HW2 2716   6.075   4.510   0.175 -0.2568  0.2341 -0.0444
  736SOL    HW3 2717   5.945   4.572   0.220 -0.2475 -1.5632  2.7306
  736SOL    MW4 2718   5.988   4.511   0.176 -0.4099 -0.0569 -0.0983
  737SOL     OW 2719   2.587   0.335   2.555 -0.5841 -0.0973  0.6983
  737SOL    HW2 2720   2.575   0.418   2.600  0.7055  0.4923  0.0015
  737SOL    HW3 2721   2.561   0.352   2.465  2.0611  0.2948 -0.0503
  737SOL    MW4 2722   2.582   0.348   2.549  0.3636  0.4439  0.3001
  738SOL     OW 2723   4.023   3.782   4.697 -0.0733  0.2846  0.1800
  738SOL    HW2 2724   4.099   3.747   4.743 -0.1546 -0.4173 -0.2052
  738SOL    HW3 2725   3.994   3.710   4.640 -1.2149  0.4349  0.5516
  738SOL    MW4 2726   4.029   3.768   4.696 -0.1536  0.2849 -0.4383
  739SOL     OW 2727   4.049   3.243   4.633 -0.3334 -0.5857 -0.3826
  739SOL    HW2 2728   4.062   3.275   4.544  1.1815 -0.8502 -0.2814
  739SOL    HW3 2729   4.054   3.148   4.626 -1.4075 -0.6717 -0.1755
  739SOL    MW4 2730   4.051   3.235   4.621  0.2521  0.3396  0.1377
  740SOL     OW 2731   3.699   1.441   5.824  0.0006 -0.1793  0.1093
  740SOL    HW2 2732   3.639   1.376   5.787  0.0189 -0.1265 -0.0123
  740SOL    HW3 2733   3.786   1.415   5.793 -0.0243  0.0559 -0.1539
  740SOL    MW4 2734   3.703   1.429   5.815 -0.5165  0.3926 -0.2777
  741SOL     OW 2735   0.981   2.793   3.921 -0.3032  0.2867 -0.3274
  741SOL    HW2 2736   1.037   2.788   3.999  1.9491  0.7449 -1.8427
  741SOL    HW3 2737   0.954   2.702   3.906  1.4328 -0.2388 -0.5061
  741SOL    MW4 2738   0.985   2.780   3.929 -0.0666  0.6347 -0.0453
  742SOL     OW 2739   5.810   2.912   2.090 -0.2453 -0.0385 -0.1568
  742SOL    HW2 2740   5.779   2.925   2.180  0.7034  2.6157 -0.1144
  742SOL    HW3 2741   5.846   2.824   2.090  0.0598  0.0136  2.2088
  742SOL    MW4 2742   5.811   2.902   2.102 -0.2437  0.2404 -0.3186
  743SOL     OW 2743   1.654   6.388   1.227  0.3235  0.5425  0.1984
  743SOL    HW2 2744   1.591   6.369   1.297 -2.0177 -1.4046 -2.2146
  743SOL    HW3 2745   1.602   6.427   1.157  1.6194 -1.5025 -2.0779
  743SOL    MW4 2746   1.639   6.391   1.227  0.1593 -0.2720 -0.2286
  744SOL     OW 2747   0.490   1.959   0.068 -0.0593  0.5372 -0.7704
  744SOL    HW2 2748   0.532   2.019   0.129 -0.4536 -0.3266  0.3710
  744SOL    HW3 2749   0.469   2.014  -0.008  0.7043  1.5573 -0.2736
  744SOL    MW4 2750   0.493   1.974   0.066 -0.6598  0.8700 -0.1907
  745SOL     OW 2751   6.314   2.521   0.387  0.4048 -0.0026 -0.3899
  745SOL    HW2 2752   6.292   2.481   0.471  0.9479 -0.6431 -0.5414
  745SOL    HW3 2753   6.335   2.612   0.409 -0.7334  0.1820 -0.0280
  745SOL    MW4 2754   6.314   2.528   0.401  0.1357 -0.3701 -0.1189
  746SOL     OW 2755   2.341   0.639   2.740 -0.2167 -0.5001  0.1866
  746SOL    HW2 2756   2.435   0.628   2.751  0.2781  1.7533 -1.3121
  746SOL    HW3 2757   2.315   0.696   2.812  0.3123  1.9375 -1.4480
  746SOL    MW4 2758   2.350   0.645   2.751 -0.0463  0.1407 -0.1171
  747SOL     OW 2759   5.327   5.509   0.583 -0.0629  0.4303 -0.2746
  747SOL    HW2 2760   5.340   5.590   0.633  0.9871 -0.1265  0.3913
  747SOL    HW3 2761   5.415   5.482   0.558 -0.4048 -0.5123 -0.4799
  747SOL    MW4 2762   5.340   5.516   0.586 -0.4771  0.6883  0.0676
  748SOL     OW 2763   2.496   4.009   4.229  0.5295  0.3338  0.2411
  748SOL    HW2 2764   2.453   3.975   4.307 -2.6925  0.1255 -1.4887
  748SOL    HW3 2765   2.513   4.101   4.250  0.9015 -0.0096  1.5870
  748SOL    MW4 2766   2.493   4.017   4.242  0.6268 -0.0290 -0.1095
  749SOL     OW 2767   0.104   0.188   6.030 -0.2855 -0.3925 -0.0729
  749SOL    HW2 2768   0.042   0.212   6.100 -0.5884  1.2061 -0.8361
  749SOL    HW3 2769   0.092   0.256   5.964  1.1740 -0.9610 -0.9579
  749SOL    MW4 2770   0.094   0.200   6.031 -0.3150  0.1549 -0.0581
  750SOL     OW 2771   3.744   0.317   1.234  0.0536  0.0274 -0.2363
  750SOL    HW2 2772   3.747   0.368   1.153 -1.0951  0.9333  0.2590
  750SOL    HW3 2773   3.652   0.294   1.244  0.5455 -2.2049 -0.4485
  750SOL    MW4 2774   3.732   0.321   1.225 -0.0268 -0.1759  0.0045
  751SOL     OW 2775   4.547   2.197   3.727  0.0594  0.4633  0.0556
  751SOL    HW2 2776   4.634   2.192   3.766 -0.2800  2.3861  1.1829
  751SOL    HW3 2777   4.503   2.116   3.755  0.9915  0.1539  0.6641
  751SOL    MW4 2778   4.553   2.185   3.736 -0.7313  0.4745 -0.1096
  752SOL     OW 2779   2.914   1.367   1.588  0.0683  0.6879  0.0742
  752SOL    HW2 2780   2.921   1.303   1.658 -0.3879  1.3508  0.7376
  752SOL    HW3 2781   2.980   1.340   1.524 -1.1437 -1.3409 -0.4082
  752SOL    MW4 2782   2.923   1.355   1.589 -0.0194  0.1472 -0.1422
  753SOL     OW 2783   1.803   2.674   4.382  0.0020  0.3918 -0.1311
  753SOL    HW2 2784   1.865   2.641   4.316 -0.8562  0.8726 -1.2263
  753SOL    HW3 2785   1.764   2.596   4.421  0.5184  0.0965 -0.1967
  753SOL    MW4 2786   1.806   2.660   4.378  0.1873  0.3113  0.1591
  754SOL     OW 2787   1.568   0.460   6.433 -0.2201 -0.2601  0.0720
  754SOL    HW2 2788   1.552   0.548   6.401  0.2168  0.2957  1.3069
  754SOL    HW3 2789   1.491   0.439   6.486  0.9211  0.5925  2.2085
  754SOL    MW4 2790   1.556   0.468   6.436 -0.6645 -1.1461  0.1436
  755SOL     OW 2791   2.217   2.729   3.617  0.1828  0.8337 -0.4304
  755SOL    HW2 2792   2.260   2.723   3.532  1.8230  1.5113  0.3234
  755SOL    HW3 2793   2.212   2.823   3.635 -2.2672  0.8321 -0.7744
  755SOL    MW4 2794   2.222   2.740   3.608 -0.7127 -0.2391 -0.3558
  756SOL     OW 2795   3.520   1.862   3.527 -0.3295  0.1369  0.1567
  756SOL    HW2 2796   3.605   1.821   3.545 -0.5498 -0.6060 -0.4376
  756SOL    HW3 2797   3.530   1.952   3.557  0.5702 -0.0261  0.3769
  756SOL    MW4 2798   3.532   1.869   3.533  0.0525  0.1172  0.2030
  757SOL     OW 2799   0.649   2.728   3.208  0.3618  0.3955  0.0546
  757SOL    HW2 2800   0.568   2.682   3.189 -0.3928  2.1276 -1.1988
  757SOL    HW3 2801   0.716   2.659   3.214 -0.8364 -0.8997 -0.9426
  757SOL    MW4 2802   0.647   2.713   3.206  0.2131  0.3554 -0.3277
  758SOL     OW 2803   2.264   0.376   1.221  0.2574  0.3224 -0.3490
  758SOL    HW2 2804   2.271   0.415   1.308 -0.1058  1.3869 -0.7799
  758SOL    HW3 2805   2.351   0.342   1.202  0.0098 -1.1703  0.9830
  758SOL    MW4 2806   2.276   0.376   1.230  0.1396  0.2206  0.2299
  759SOL     OW 2807   4.254   2.763   3.302  0.2229  0.8434 -0.4061
  759SOL    HW2 2808   4.204   2.682   3.309  1.1451  0.2150 -0.8996
  759SOL    HW3 2809   4.189   2.833   3.314 -0.5924  0.0416 -0.0669
  759SOL    MW4 2810   4.239   2.762   3.305  0.1114  0.0966  0.3843
  760SOL     OW 2811   5.769   3.765   5.598  0.0502  0.4652  0.3783
  760SOL    HW2 2812   5.740   3.851   5.627 -1.8600  0.6549 -1.8790
  760SOL    HW3 2813   5.703   3.704   5.632  0.6993  0.0113  0.8677
  760SOL    MW4 2814   5.757   3.768   5.607 -0.2571 -0.1960  0.2469
  761SOL     OW 2815   0.743   5.017   3.825 -0.0670  0.3858  0.3742
  761SOL    HW2 2816   0.816   4.956   3.811  0.3111  1.2826 -1.9564
  761SOL    HW3 2817   0.781   5.104   3.813 -1.4682  0.8783 -0.8226
  761SOL    MW4 2818   0.757   5.020   3.822  0.6023  0.1022 -0.4335
  762SOL     OW 2819   2.346   3.321   3.879  0.2321 -0.0765 -0.1512
  762SOL    HW2 2820   2.323   3.235   3.914 -1.5543  0.2420 -0.4457
  762SOL    HW3 2821   2.341   3.310   3.784  0.3164  0.2863 -0.1983
  762SOL    MW4 2822   2.343   3.308   3.871 -0.5261  0.0745 -0.5153
  763SOL     OW 2823   0.305   3.440   0.182  0.3738 -0.2977  0.1118
  763SOL    HW2 2824   0.330   3.502   0.113 -1.6001  1.7118  1.0563
  763SOL    HW3 2825   0.223   3.401   0.151 -0.4858  0.5554  1.2209
  763SOL    MW4 2826   0.298   3.443   0.169 -0.4709 -0.1173 -0.3781
  764SOL     OW 2827   2.080   0.276   3.714  0.0434 -0.0625 -0.0642
  764SOL    HW2 2828   2.078   0.309   3.624 -1.7561 -0.3298 -0.1576
  764SOL    HW3 2829   2.113   0.186   3.706  1.7032  0.5227 -0.2005
  764SOL    MW4 2830   2.084   0.268   3.701  0.3632 -0.6141 -0.1934
  765SOL     OW 2831   2.491   2.184   6.443 -1.3980  0.0791  0.4157
  765SOL    HW2 2832   2.516   2.092   6.441  0.2209  0.5075 -0.4667
  765SOL    HW3 2833   2.482   2.205   6.536  1.9478 -0.0446  0.8712
  765SOL    MW4 2834   2.493   2.175   6.455  0.4957  0.5309  0.1438
  766SOL     OW 2835   4.391   2.367   5.429  0.2815 -0.2886  0.3592
  766SOL    HW2 2836   4.446   2.401   5.500 -0.0433  2.7311 -0.6843
  766SOL    HW3 2837   4.377   2.443   5.372 -1.3193 -2.0597 -1.7536
  766SOL    MW4 2838   4.397   2.382   5.431  0.4692 -0.6085  0.0322
  767SOL     OW 2839   3.901   0.242   1.606  0.0865  0.1377  0.1197
  767SOL    HW2 2840   3.853   0.317   1.571  0.5098  0.4107  0.1106
  767SOL    HW3 2841   3.928   0.192   1.528 -0.8770 -0.4649  0.1549
  767SOL    MW4 2842   3.898   0.245   1.591  0.5009  0.6341 -0.2641
  768SOL     OW 2843   5.903   2.066   0.511 -0.2557 -0.1304  0.1895
  768SOL    HW2 2844   5.974   2.063   0.446  0.2534 -2.3847  0.7708
  768SOL    HW3 2845   5.947   2.089   0.593 -0.5092  0.2496  0.2231
  768SOL    MW4 2846   5.918   2.069   0.513 -0.6043  0.7929 -0.4048
  769SOL     OW 2847   1.190   4.210   4.963 -0.0158 -0.2393 -0.5767
  769SOL    HW2 2848   1.164   4.268   4.892  1.0603  2.1767  0.9049
  769SOL    HW3 2849   1.286   4.208   4.960  0.0510 -0.1961  0.6999
  769SOL    MW4 2850   1.199   4.217   4.954  0.3185 -0.4606  0.3841
  770SOL     OW 2851   2.641   4.092   4.921 -0.3177 -0.1290 -0.2780
  770SOL    HW2 2852   2.616   4.000   4.926 -0.5846  0.0007  1.3715
  770SOL    HW3 2853   2.733   4.093   4.950 -0.3809  0.1297 -0.0760
  770SOL    MW4 2854   2.650   4.080   4.926 -0.0386  0.0367  0.1203
  771SOL     OW 2855   3.338   4.181   3.659  0.1609 -0.3624  0.1980
  771SOL    HW2 2856   3.248   4.149   3.665  0.6961 -2.0630 -0.4728
  771SOL    HW3 2857   3.393   4.104   3.673  1.5006  0.0686 -2.1370
  771SOL    MW4 2858   3.333   4.167   3.662  0.2296 -0.3816 -0.0954
  772SOL     OW 2859   2.699   0.655   5.580  0.2872 -0.0033  0.7751
  772SOL    HW2 2860   2.728   0.699   5.660  1.2738 -0.3195  0.6004
  772SOL    HW3 2861   2.652   0.723   5.532 -0.0084  0.2838  1.4600
  772SOL    MW4 2862   2.696   0.670   5.584  0.0635 -0.6030  0.5946
  773SOL     OW 2863   3.005   4.663   3.840  0.0106  0.3762  0.0841
  773SOL    HW2 2864   2.991   4.573   3.809  0.9608  0.5327 -0.8594
  773SOL    HW3 2865   3.099   4.667   3.859  0.0258  1.2493 -0.1485
  773SOL    MW4 2866   3.015   4.652   3.838 -0.5820 -0.3491  0.5603
  774SOL     OW 2867   1.330   1.132   4.024 -0.6218  0.1308  0.1171
  774SOL    HW2 2868   1.415   1.151   4.064 -0.6381  0.5532 -0.0405
  774SOL    HW3 2869   1.266   1.157   4.090 -0.7829  3.7279 -1.1631
  774SOL    MW4 2870   1.333   1.138   4.038 -0.0567 -0.4187 -0.2284
  775SOL     OW 2871   1.215   1.886   1.030  0.2092 -0.2000  0.1562
  775SOL    HW2 2872   1.251   1.924   0.950  1.2781  0.7972  1.0556
  775SOL    HW3 2873   1.224   1.792   1.019  0.3845 -0.0724 -0.8696
  775SOL    MW4 2874   1.221   1.879   1.018 -0.2592  0.1250  0.1935
  776SOL     OW 2875   4.163   0.134   6.378 -0.4894 -0.0200 -0.4130
  776SOL    HW2 2876   4.175   0.229   6.388  1.6565 -0.2215 -0.5493
  776SOL    HW3 2877   4.251   0.101   6.362 -0.7997 -2.3237  1.9675
  776SOL    MW4 2878   4.176   0.142   6.377  0.2056  0.1773  0.4075
  777SOL     OW 2879   4.706   3.206   6.192  0.0968 -0.4371 -0.0194
  777SOL    HW2 2880   4.707   3.188   6.098  0.0276 -0.6270  0.0173
  777SOL    HW3 2881   4.797   3.199   6.219  0.3848  1.2552 -0.3891
  777SOL    MW4 2882   4.718   3.203   6.183 -0.5636  0.4041  0.2121
  778SOL     OW 2883   0.957   0.408   5.593  0.1971 -0.2838  0.1611
  778SOL    HW2 2884   0.982   0.357   5.671  0.6950  0.4128  0.4713
  778SOL    HW3 2885   0.878   0.365   5.561  1.1430 -1.8642 -0.1744
  778SOL    MW4 2886   0.950   0.395   5.599  0.4938  0.3463 -0.1384
  779SOL     OW 2887   2.744   2.640   5.417 -0.3101  0.3188 -0.6649
  779SOL    HW2 2888   2.715   2.592   5.494  0.2158  1.2059  0.1017
  779SOL    HW3 2889   2.717   2.585   5.343 -0.0226 -0.9856  0.1663
  779SOL    MW4 2890   2.737   2.626   5.417 -0.8303 -0.3930  0.6513
  780SOL     OW 2891   0.049   0.157   5.558  0.0787  0.1241 -0.0931
  780SOL    HW2 2892  -0.017   0.214   5.596 -1.1453 -0.9150 -0.5563
  780SOL    HW3 2893   0.113   0.216   5.520 -0.4262  1.1700  0.6326
  780SOL    MW4 2894   0.049   0.172   5.558 -0.1532 -0.7348 -0.9399
  781SOL     OW 2895   3.739   0.525   0.996  0.1118 -0.1301  0.4004
  781SOL    HW2 2896   3.743   0.602   1.053 -2.0709 -0.1578  0.6907
  781SOL    HW3 2897   3.674   0.547   0.930 -1.0556 -1.9272  0.8655
  781SOL    MW4 2898   3.731   0.538   0.995 -0.0969  0.0449 -0.4904
  782SOL     OW 2899   3.301   4.612   4.684  1.0408 -0.3033  0.2024
  782SOL    HW2 2900   3.229   4.557   4.717  0.1843  1.3018  1.1128
  782SOL    HW3 2901   3.366   4.612   4.754  0.8685  0.1319  0.3670
  782SOL    MW4 2902   3.300   4.605   4.698  0.1554 -0.0646 -0.2479
  783SOL     OW 2903   2.651   0.393   4.138  0.0712  0.3028 -0.3706
  783SOL    HW2 2904   2.620   0.441   4.061 -0.6018 -0.6778 -0.7388
  783SOL    HW3 2905   2.650   0.457   4.209  0.5432  1.1798 -1.1325
  783SOL    MW4 2906   2.647   0.408   4.137 -0.6656  0.9114  0.0689
  784SOL     OW 2907   1.790   1.114   1.240 -0.3263 -0.4036 -0.0347
  784SOL    HW2 2908   1.772   1.049   1.308 -0.9739  0.1441  0.3201
  784SOL    HW3 2909   1.756   1.075   1.159  1.0987 -1.3787 -0.2021
  784SOL    MW4 2910   1.783   1.100   1.238  0.0728 -0.5065 -1.0400
  785SOL     OW 2911   3.290   3.936   4.405 -0.4226 -0.2950  0.3467
  785SOL    HW2 2912   3.196   3.948   4.395 -0.7105 -1.6993  0.9928
  785SOL    HW3 2913   3.325   4.024   4.413 -1.6850  0.2517  0.1278
  785SOL    MW4 2914   3.282   3.949   4.405 -0.7975  0.3015 -0.1378
  786SOL     OW 2915   3.753   1.814   5.042 -0.1282  0.2293 -0.1704
  786SOL    HW2 2916   3.750   1.720   5.060  2.3826  0.0402 -0.4166
  786SOL    HW3 2917   3.665   1.845   5.062 -0.6586 -1.9393  1.1752
  786SOL    MW4 2918   3.741   1.806   5.047 -0.1767 -0.1824  0.1831
  787SOL     OW 2919   5.655   0.881   2.055  0.2859 -0.1067  0.5874
  787SOL    HW2 2920   5.726   0.912   2.000  0.8450  1.2135  1.9769
  787SOL    HW3 2921   5.699   0.833   2.126 -0.3840 -1.3493  0.2041
  787SOL    MW4 2922   5.670   0.879   2.057  0.1682 -0.0354 -0.4103
  788SOL     OW 2923   4.196   1.119   4.640 -0.0310 -0.4317 -0.3410
  788SOL    HW2 2924   4.204   1.212   4.660 -0.3934 -0.0532 -1.7863
  788SOL    HW3 2925   4.283   1.084   4.654 -0.3788 -0.4186  2.5158
  788SOL    MW4 2926   4.208   1.127   4.644 -0.3011 -0.3099 -0.1546
  789SOL     OW 2927   4.079   2.496   1.970 -0.2020 -0.0605  0.4165
  789SOL    HW2 2928   4.045   2.440   1.900  0.1212 -0.7424  0.7894
  789SOL    HW3 2929   4.167   2.522   1.940 -0.5676  0.7174 -0.0076
  789SOL    MW4 2930   4.086   2.492   1.957  0.1620  0.2011 -0.2583
  790SOL     OW 2931   5.682   6.087   4.155  0.0924 -0.0781  0.6541
  790SOL    HW2 2932   5.749   6.084   4.087  0.2327  0.8588  0.7358
  790SOL    HW3 2933   5.728   6.124   4.231 -0.5159  0.5733  0.7103
  790SOL    MW4 2934   5.697   6.091   4.156  0.1184  0.2132 -0.0424
  791SOL     OW 2935   5.467   4.050   5.436  0.4090  0.1806 -0.4453
  791SOL    HW2 2936   5.499   3.962   5.417 -0.2923  0.0135 -0.9111
  791SOL    HW3 2937   5.533   4.109   5.401  0.8777 -0.1575 -0.1374
  791SOL    MW4 2938   5.480   4.046   5.429  0.1035  0.2011 -1.1243
  792SOL     OW 2939   3.633   4.368   0.281 -0.4140  0.0736  0.7865
  792SOL    HW2 2940   3.558   4.360   0.339 -0.1329 -1.5107  0.9985
  792SOL    HW3 2941   3.621   4.297   0.217 -0.3788  1.3674 -0.7070
  792SOL    MW4 2942   3.622   4.357   0.280 -0.2002  0.0368 -0.4040
  793SOL     OW 2943   0.456   5.129   1.421  0.3080  0.0410 -0.1780
  793SOL    HW2 2944   0.451   5.116   1.326  0.0022 -2.2909  0.0897
  793SOL    HW3 2945   0.387   5.072   1.456 -0.7087  2.0973  1.4007
  793SOL    MW4 2946   0.446   5.120   1.413  0.2934 -0.2484 -0.1184
  794SOL     OW 2947   0.523   5.168   5.517  0.6460 -0.4670  0.7106
  794SOL    HW2 2948   0.595   5.231   5.528  0.5806  0.4370 -2.8587
  794SOL    HW3 2949   0.545   5.120   5.437 -1.5089 -1.9292  0.9081
  794SOL    MW4 2950   0.535   5.170   5.508 -0.4802 -0.4185  0.0066
  795SOL     OW 2951   1.163   1.644   2.285 -0.0710 -0.3759 -0.1593
  795SOL    HW2 2952   1.109   1.568   2.307  1.9033 -1.3429  1.6549
  795SOL    HW3 2953   1.221   1.613   2.215  0.7799 -0.6116  0.6274
  795SOL    MW4 2954   1.163   1.630   2.279 -0.2059  0.0528  0.0412
  796SOL     OW 2955   2.835   5.868   0.468  0.4722 -0.4516 -0.1855
  796SOL    HW2 2956   2.765   5.832   0.414  1.7007 -1.7332 -1.0086
  796SOL    HW3 2957   2.797   5.945   0.510 -0.9691 -0.2714 -1.7419
  796SOL    MW4 2958   2.821   5.874   0.466  0.2080  0.0615 -0.6574
  797SOL     OW 2959   0.092   6.035   0.536  0.0174  0.0726  0.7360
  797SOL    HW2 2960   0.155   6.106   0.527 -0.7079  0.6463  0.0077
  797SOL    HW3 2961   0.101   5.983   0.456 -1.0613  0.7007  0.1810
  797SOL    MW4 2962   0.101   6.037   0.524 -0.2231  0.1356 -0.1920
  798SOL     OW 2963   6.282   2.342   1.101 -0.2143 -0.0542 -0.1648
  798SOL    HW2 2964   6.249   2.261   1.140 -0.1744  0.3118  0.6398
  798SOL    HW3 2965   6.204   2.384   1.064 -0.3107 -0.2246 -0.1560
  798SOL    MW4 2966   6.267   2.337   1.101 -0.1442  0.6842  0.2310
  799SOL     OW 2967   4.323   2.072   0.488  0.0496  0.2811 -0.0706
  799SOL    HW2 2968   4.336   2.159   0.527  3.2897 -0.6360  1.2306
  799SOL    HW3 2969   4.283   2.021   0.558  0.2063  0.1821 -0.0524
  799SOL    MW4 2970   4.320   2.077   0.502 -0.6869 -0.2737 -0.5092
  800SOL     OW 2971   3.389   3.820   1.471  0.2350 -0.6342  0.0745
  800SOL    HW2 2972   3.400   3.891   1.535  0.3363  1.0337 -1.7151
  800SOL    HW3 2973   3.446   3.844   1.398 -0.4648 -2.0853 -1.0054
  800SOL    MW4 2974   3.398   3.832   1.470  0.0580 -0.1023  0.0990
  801SOL     OW 2975   3.668   0.757   2.275 -0.0345  0.3963 -0.5414
  801SOL    HW2 2976   3.699   0.747   2.365  2.5650 -2.9030 -1.6237
  801SOL    HW3 2977   3.729   0.820   2.236 -0.4751  0.9590 -0.3489
  801SOL    MW4 2978   3.680   0.764   2.282 -0.2691  0.3457 -0.5416
  802SOL     OW 2979   2.566   1.350   5.714  0.4000  0.3265  0.2203
  802SOL    HW2 2980   2.567   1.398   5.631 -1.6062  1.9499  1.0593
  802SOL    HW3 2981   2.602   1.412   5.778  0.4125 -0.3210  0.8607
  802SOL    MW4 2982   2.571   1.364   5.712 -0.0081 -0.4116  0.6439
  803SOL     OW 2983   4.304   4.311   1.806  0.5044 -0.3427  0.2721
  803SOL    HW2 2984   4.353   4.369   1.748  1.4393 -1.8508 -0.5182
  803SOL    HW3 2985   4.285   4.364   1.883  2.0086  0.7638 -0.0788
  803SOL    MW4 2986   4.308   4.325   1.808 -0.8956  1.0381  0.2071
  804SOL     OW 2987   2.451   6.162   0.490  0.1479  0.2086  0.1124
  804SOL    HW2 2988   2.515   6.198   0.429  2.2942 -0.7962  1.6309
  804SOL    HW3 2989   2.413   6.238   0.534  1.1907  0.7856  0.0308
  804SOL    MW4 2990   2.454   6.176   0.488  0.4157  0.5342 -0.3522
  805SOL     OW 2991   1.075   4.852   5.364  0.6935  0.6317  0.6238
  805SOL    HW2 2992   1.030   4.767   5.360  0.2521  0.8636  0.6576
  805SOL    HW3 2993   1.160   4.835   5.321  0.0165  0.5388 -0.7430
  805SOL    MW4 2994   1.081   4.838   5.357 -0.5825 -0.2169  0.4061
  806SOL     OW 2995   3.090   6.379   5.520  0.1462  0.3092 -0.4573
  806SOL    HW2 2996   3.046   6.423   5.447 -0.8976  1.1967  0.6578
  806SOL    HW3 2997   3.048   6.415   5.598  0.4065 -1.5058  0.5602
  806SOL    MW4 2998   3.079   6.390   5.521 -0.7241  0.1576  0.1599
  807SOL     OW 2999   1.849   2.817   3.681  0.2245  0.1358 -0.2773
  807SOL    HW2 3000   1.877   2.726   3.675  0.1809  0.1120 -0.1280
  807SOL    HW3 3001   1.898   2.852   3.756 -0.7787 -0.1373  0.5349
  807SOL    MW4 3002   1.859   2.810   3.690 -0.0521  0.2360 -0.2278
  808SOL     OW 3003   2.852   1.145   0.570  0.0564 -0.0811 -0.1936
  808SOL    HW2 3004   2.837   1.185   0.485 -0.1976  0.5558  0.1470
  808SOL    HW3 3005   2.883   1.057   0.550 -1.0350 -0.3095 -0.9340
  808SOL    MW4 3006   2.854   1.139   0.556 -0.2772 -0.1469  0.4967
  809SOL     OW 3007   0.653   4.784   4.111  0.4189 -0.4488  0.5670
  809SOL    HW2 3008   0.595   4.856   4.136  0.2226 -0.7250  0.9193
  809SOL    HW3 3009   0.688   4.751   4.194  0.3621 -0.8765  0.4265
  809SOL    MW4 3010   0.650   4.789   4.125 -0.9480  0.2681  0.8437
  810SOL     OW 3011   6.176   5.993   6.281  0.0769 -0.3243  0.0540
  810SOL    HW2 3012   6.168   6.008   6.186  0.4770  1.4544  0.2818
  810SOL    HW3 3013   6.093   6.025   6.317  0.0468 -0.7221  0.3452
  810SOL    MW4 3014   6.164   5.999   6.273  0.4141 -0.2579 -0.2049
  811SOL     OW 3015   5.269   0.884   6.222 -0.7527 -0.1567  0.6665
  811SOL    HW2 3016   5.209   0.931   6.164 -1.1371 -1.0520  0.3291
  811SOL    HW3 3017   5.256   0.925   6.308  1.1789  2.4847 -0.1427
  811SOL    MW4 3018   5.260   0.896   6.226 -0.0064 -0.4191 -0.4724
  812SOL     OW 3019   1.288   4.818   2.177 -0.3155  0.0128 -0.1811
  812SOL    HW2 3020   1.253   4.897   2.137  0.9248  1.6264  1.6989
  812SOL    HW3 3021   1.216   4.784   2.230 -0.7024  0.1649 -0.6044
  812SOL    MW4 3022   1.274   4.824   2.179  0.3201  0.0929  0.1411
  813SOL     OW 3023   0.703   3.290   1.211 -0.0814 -0.2113  0.1685
  813SOL    HW2 3024   0.768   3.311   1.278 -1.2206 -0.0389  1.2558
  813SOL    HW3 3025   0.691   3.372   1.163 -0.1718  0.0052  0.5586
  813SOL    MW4 3026   0.710   3.303   1.213  0.6019 -0.1266  0.0163
  814SOL     OW 3027   5.733   6.388   6.325 -0.2236  0.0086 -0.1047
  814SOL    HW2 3028   5.784   6.454   6.277  1.4604 -1.1004  0.0646
  814SOL    HW3 3029   5.790   6.363   6.398 -0.8704 -1.5299 -0.1002
  814SOL    MW4 3030   5.748   6.394   6.328  0.2359  0.5094 -0.5952
  815SOL     OW 3031   5.438   2.861   4.789  0.1496 -0.3463 -0.4941
  815SOL    HW2 3032   5.384   2.803   4.735 -0.4684  0.2211 -0.4981
  815SOL    HW3 3033   5.528   2.829   4.776 -0.0584 -0.6219 -1.3520
  815SOL    MW4 3034   5.443   2.849   4.780 -0.4589 -0.6052 -0.3195
  816SOL     OW 3035   4.226   0.467   6.114 -0.0085 -0.3735 -0.2544
  816SOL    HW2 3036   4.243   0.380   6.078 -1.5276 -0.5987 -0.5065
  816SOL    HW3 3037   4.208   0.451   6.207 -1.0240 -0.4525 -0.4487
  816SOL    MW4 3038   4.226   0.454   6.122 -0.7510  0.2067 -0.0134
  817SOL     OW 3039   0.429   3.561   5.867 -0.3538  0.2634 -0.2314
  817SOL    HW2 3040   0.370   3.553   5.792 -0.1993 -0.4292 -0.2868
  817SOL    HW3 3041   0.499   3.619   5.836 -0.1415 -0.2447 -0.7270
  817SOL    MW4 3042   0.430   3.568   5.853  0.0509  0.0902 -0.2575
  818SOL     OW 3043   0.200   0.261   1.502 -0.4242  0.5014 -0.5749
  818SOL    HW2 3044   0.183   0.282   1.593 -2.8664  1.6974 -1.2122
  818SOL    HW3 3045   0.216   0.167   1.501  0.7480  0.6524  1.1847
  818SOL    MW4 3046   0.200   0.251   1.514  0.0656  0.5680  0.2254
  819SOL     OW 3047   2.592   5.182   3.824 -0.2228 -0.3872 -0.1882
  819SOL    HW2 3048   2.508   5.214   3.859  1.3445  0.8189  2.8878
  819SOL    HW3 3049   2.612   5.242   3.753 -0.6554  1.2061  0.9630
  819SOL    MW4 3050   2.583   5.194   3.819 -0.5113  0.4653  0.2353
  820SOL     OW 3051   2.706   6.047   0.608  0.0422  1.0123 -0.2469
  820SOL    HW2 3052   2.715   6.097   0.689 -2.0506 -1.5377  1.7652
  820SOL    HW3 3053   2.614   6.059   0.583  0.3718  0.8459 -1.6188
  820SOL    MW4 3054   2.695   6.055   0.616  0.5598  0.2517  0.1494
  821SOL     OW 3055   0.913   6.064   5.542  0.8569  0.0702  0.1322
  821SOL    HW2 3056   0.828   6.020   5.549  0.5383  0.6775  0.1675
  821SOL    HW3 3057   0.954   6.025   5.465  1.5922 -1.9795  1.4632
  821SOL    MW4 3058   0.907   6.053   5.533 -0.1894  0.1763 -0.4728
  822SOL     OW 3059   3.299   3.750   3.369  0.6577  0.1066 -0.0916
  822SOL    HW2 3060   3.304   3.655   3.375 -0.7618  0.0863  1.5653
  822SOL    HW3 3061   3.209   3.771   3.391  0.5712  1.7770 -1.8140
  822SOL    MW4 3062   3.288   3.740   3.373  0.2083  0.2247  0.0327
  823SOL     OW 3063   3.626   0.642   3.293  0.0091 -0.5498  0.3692
  823SOL    HW2 3064   3.602   0.639   3.201 -0.8072 -0.5036  0.5684
  823SOL    HW3 3065   3.676   0.722   3.303 -1.2696  0.2941  0.2682
  823SOL    MW4 3066   3.629   0.652   3.282  0.1363  0.1868 -0.6615
  824SOL     OW 3067   5.151   0.649   2.289 -0.7161  0.1557 -0.4110
  824SOL    HW2 3068   5.167   0.676   2.379 -1.2538  1.3094 -0.6413
  824SOL    HW3 3069   5.163   0.729   2.238 -1.8538 -0.1536 -1.1971
  824SOL    MW4 3070   5.155   0.663   2.294  0.3390 -0.2872 -0.3499
  825SOL     OW 3071   5.201   2.930   0.682  0.2437  0.0366  0.2434
  825SOL    HW2 3072   5.189   3.020   0.651 -2.2864  0.0013  0.9544
  825SOL    HW3 3073   5.257   2.938   0.759  1.8828  0.7062 -0.9473
  825SOL    MW4 3074   5.207   2.943   0.688  0.2080 -0.3490  0.1758
  826SOL     OW 3075   6.349   0.942   6.401  0.1196  0.4972 -0.4500
  826SOL    HW2 3076   6.345   0.847   6.412  0.5862  0.4542 -0.6461
  826SOL    HW3 3077   6.326   0.958   6.309 -0.4531  0.6166 -0.2949
  826SOL    MW4 3078   6.345   0.932   6.391 -0.0373 -0.1502  0.3506
  827SOL     OW 3079   1.040   3.593   2.781  0.2302  0.0293  0.1794
  827SOL    HW2 3080   1.113   3.541   2.815 -0.4922 -0.3867  1.1275
  827SOL    HW3 3081   0.995   3.535   2.720 -0.1422 -0.2062  0.6765
  827SOL    MW4 3082   1.044   3.579   2.778  0.1157 -0.1311  0.3566
  828SOL     OW 3083   5.898   3.852   0.801  0.0932 -0.1778 -0.4538
  828SOL    HW2 3084   5.932   3.788   0.863  0.9475  0.4181 -0.2934
  828SOL    HW3 3085   5.844   3.911   0.854 -0.7640 -0.7956 -0.6158
  828SOL    MW4 3086   5.895   3.851   0.816 -0.1553  1.1397 -0.5289
  829SOL     OW 3087   3.562   0.018   3.954 -0.1426  0.4097 -0.3003
  829SOL    HW2 3088   3.477   0.063   3.957 -0.6843 -0.5127 -1.2923
  829SOL    HW3 3089   3.626   0.089   3.951 -0.7523  1.1677  2.1071
  829SOL    MW4 3090   3.559   0.034   3.954  0.2089  0.2203 -0.5991
  830SOL     OW 3091   4.628   6.137   0.378 -0.2903  0.4411  0.2628
  830SOL    HW2 3092   4.712   6.146   0.334 -0.7775  0.1296 -0.7706
  830SOL    HW3 3093   4.601   6.227   0.397  0.0559  0.5616  0.1919
  830SOL    MW4 3094   4.635   6.150   0.375  0.1969  0.2681  0.1281
  831SOL     OW 3095   2.921   1.234   0.967  0.2948  0.3979  0.2508
  831SOL    HW2 3096   2.859   1.252   0.896  0.5116  0.1525 -0.0049
  831SOL    HW3 3097   2.879   1.270   1.045  0.0901  0.7449 -0.0160
  831SOL    MW4 3098   2.907   1.241   0.968 -0.0088 -0.2445  0.1723
  832SOL     OW 3099   4.625   1.624   4.767  0.0420 -0.1478 -0.1298
  832SOL    HW2 3100   4.697   1.582   4.720  0.0196 -0.7420  0.3627
  832SOL    HW3 3101   4.583   1.554   4.816 -1.9554 -0.1418 -1.6994
  832SOL    MW4 3102   4.629   1.609   4.767  0.3963 -0.5184 -0.0550
  833SOL     OW 3103   4.239   4.967   2.777 -0.4239 -0.7900  0.2219
  833SOL    HW2 3104   4.311   4.946   2.719 -0.3933  3.1340 -1.4646
  833SOL    HW3 3105   4.175   4.897   2.763  0.3980 -1.0108 -3.1204
  833SOL    MW4 3106   4.240   4.955   2.768 -0.9385 -0.2566  0.1180
  834SOL     OW 3107   1.526   3.993   1.246  0.6257  0.4555  0.2195
  834SOL    HW2 3108   1.588   3.980   1.318  1.3048 -1.1748 -0.6047
  834SOL    HW3 3109   1.571   4.051   1.185  1.6801 -1.2658 -0.7005
  834SOL    MW4 3110   1.540   3.999   1.248 -0.4891 -0.0582  0.0485
  835SOL     OW 3111   3.149   4.825   4.881  0.3296  0.3394  0.3048
  835SOL    HW2 3112   3.221   4.849   4.823  0.7756 -2.4577 -0.4022
  835SOL    HW3 3113   3.181   4.751   4.932 -1.5640 -0.0541  1.0194
  835SOL    MW4 3114   3.162   4.819   4.880 -0.5623  0.2402  0.1208
  836SOL     OW 3115   4.030   5.469   0.739 -0.2170  1.0480  0.4399
  836SOL    HW2 3116   4.059   5.506   0.656 -1.1758 -0.4291 -0.6104
  836SOL    HW3 3117   3.934   5.468   0.733 -0.3013  0.8301  1.5237
  836SOL    MW4 3118   4.021   5.474   0.727 -0.5304 -1.0471  0.3885
  837SOL     OW 3119   3.009   5.330   1.003  0.4161 -0.5579  0.3624
  837SOL    HW2 3120   2.929   5.282   0.988  0.3600 -0.4402  0.2798
  837SOL    HW3 3121   3.040   5.353   0.915  0.0495  0.1953  0.4184
  837SOL    MW4 3122   3.003   5.327   0.989 -0.3663 -0.3407 -0.3902
  838SOL     OW 3123   3.716   3.049   3.083  0.7527  0.5494 -0.0815
  838SOL    HW2 3124   3.641   3.007   3.126  0.2438  0.8349 -0.6881
  838SOL    HW3 3125   3.787   2.985   3.092  0.5954  0.5051  0.9831
  838SOL    MW4 3126   3.716   3.035   3.090 -0.0308  0.2430 -0.1836
  839SOL     OW 3127   2.039   6.034   4.050  0.1844  0.0596  0.3444
  839SOL    HW2 3128   2.111   6.095   4.070  1.8338 -0.3798 -3.3770
  839SOL    HW3 3129   2.068   5.951   4.088  0.6527  0.3455  0.6357
  839SOL    MW4 3130   2.053   6.031   4.058  0.4403 -0.3393 -0.5707
  840SOL     OW 3131   0.743   6.211   1.220 -0.3782  0.0564  0.3627
  840SOL    HW2 3132   0.816   6.260   1.183 -0.0457  0.7385  1.8529
  840SOL    HW3 3133   0.782   6.129   1.250 -0.5101 -0.1811 -0.0957
  840SOL    MW4 3134   0.758   6.207   1.219 -0.0320 -0.3780  0.4987
  841SOL     OW 3135   3.511   2.042   1.209 -0.3721 -0.3326  0.2825
  841SOL    HW2 3136   3.569   1.996   1.269 -0.6190 -1.5767 -0.4008
  841SOL    HW3 3137   3.427   1.997   1.218 -0.8542  0.5320  0.2070
  841SOL    MW4 3138   3.507   2.030   1.218 -0.1165  0.2909  0.6164
  842SOL     OW 3139   0.948   3.383   3.052  0.2298  0.0050  0.1621
  842SOL    HW2 3140   0.968   3.406   3.143  1.3027  0.5484 -0.1852
  842SOL    HW3 3141   0.948   3.466   3.006 -0.3016 -0.2704 -0.3458
  842SOL    MW4 3142   0.951   3.397   3.058 -0.7237  0.3681  0.6253
  843SOL     OW 3143   5.822   3.981   3.410 -0.5335 -0.1169 -0.0766
  843SOL    HW2 3144   5.784   3.897   3.437 -1.2924 -0.4581 -2.0171
  843SOL    HW3 3145   5.746   4.036   3.390 -0.0298  0.8679  0.6840
  843SOL    MW4 3146   5.807   3.977   3.411 -0.4108  0.2719 -0.0947
  844SOL     OW 3147   3.857   5.831   1.186 -0.1931  0.4949  0.4806
  844SOL    HW2 3148   3.949   5.815   1.207  0.2234 -2.8168 -2.7252
  844SOL    HW3 3149   3.809   5.803   1.265  1.4462  1.3830  1.8546
  844SOL    MW4 3150   3.863   5.825   1.199 -0.6007 -0.0114  0.2945
  845SOL     OW 3151   2.710   4.802   5.069  0.6085  0.2331  0.6674
  845SOL    HW2 3152   2.775   4.734   5.084  0.7325 -0.1284 -1.1981
  845SOL    HW3 3153   2.758   4.885   5.079  1.6151 -0.0271 -1.3791
  845SOL    MW4 3154   2.725   4.804   5.072 -0.3937 -0.2705 -0.3483
  846SOL     OW 3155   1.745   5.366   3.209  0.3713 -0.1156  0.2312
  846SOL    HW2 3156   1.699   5.285   3.232 -0.1253  0.6830  2.2428
  846SOL    HW3 3157   1.745   5.367   3.114 -2.2905 -0.9837  0.1553
  846SOL    MW4 3158   1.739   5.355   3.200  0.3700  0.3518 -0.0438
  847SOL     OW 3159   5.824   1.620   5.628 -0.0490 -0.0817 -0.1553
  847SOL    HW2 3160   5.913   1.654   5.633  0.3023 -0.8574 -0.9792
  847SOL    HW3 3161   5.828   1.535   5.672  0.0359 -0.9181 -1.7281
  847SOL    MW4 3162   5.836   1.613   5.635 -0.4196 -1.2898 -0.2884
  848SOL     OW 3163   4.586   2.765   5.342  0.4600 -0.0694 -0.5527
  848SOL    HW2 3164   4.651   2.719   5.394 -1.0892  0.5652  2.1263
  848SOL    HW3 3165   4.585   2.854   5.378 -2.7585 -0.4077  0.4773
  848SOL    MW4 3166   4.594   2.771   5.353 -0.2687 -0.0057 -0.1975
  849SOL     OW 3167   2.344   1.277   0.915  0.2663 -0.4785 -0.0790
  849SOL    HW2 3168   2.425   1.233   0.890  0.8194  0.5586 -0.1527
  849SOL    HW3 3169   2.371   1.339   0.983 -0.5658 -0.5242  0.3032
  849SOL    MW4 3170   2.358   1.280   0.921 -0.1038  0.0557  0.2260
  850SOL     OW 3171   3.799   2.239   4.210 -0.1203 -0.5452  0.1073
  850SOL    HW2 3172   3.794   2.163   4.268  1.6116  0.1155  1.1976
  850SOL    HW3 3173   3.710   2.274   4.209 -0.8146 -2.1790  0.0911
  850SOL    MW4 3174   3.787   2.233   4.217 -0.0254  0.4035  0.4787
  851SOL     OW 3175   4.299   6.171   1.101  0.6061  0.2080  0.1718
  851SOL    HW2 3176   4.307   6.076   1.115 -0.7638 -0.0093 -0.4442
  851SOL    HW3 3177   4.208   6.184   1.075  0.5468  1.8078  1.0667
  851SOL    MW4 3178   4.288   6.160   1.100 -0.2492 -0.1717  0.1416
  852SOL     OW 3179   4.571   1.813   1.748 -0.4063 -0.0105 -0.0140
  852SOL    HW2 3180   4.504   1.754   1.713 -0.7138  0.5516 -0.3806
  852SOL    HW3 3181   4.573   1.887   1.687  1.7012 -0.7531 -0.9266
  852SOL    MW4 3182   4.562   1.815   1.735 -0.8946 -0.0889 -0.4518
  853SOL     OW 3183   5.020   6.099   1.409  0.2323 -0.6703  0.3472
  853SOL    HW2 3184   4.985   6.183   1.440  0.3919 -0.8048  0.9142
  853SOL    HW3 3185   4.961   6.034   1.446  0.9789 -0.8924  1.2056
  853SOL    MW4 3186   5.008   6.102   1.418 -0.8453 -0.0053 -0.7388
  854SOL     OW 3187   1.988   5.496   3.260 -0.4062 -0.0004  0.1306
  854SOL    HW2 3188   1.998   5.524   3.169  0.4564 -2.4605 -0.6099
  854SOL    HW3 3189   1.911   5.440   3.260  1.1932 -2.3709  0.1946
  854SOL    MW4 3190   1.979   5.492   3.248 -0.1406  0.2768  0.2609
  855SOL     OW 3191   4.470   5.828   3.568 -1.0561 -0.0317 -0.0963
  855SOL    HW2 3192   4.542   5.850   3.508 -1.7792  0.0319 -0.9537
  855SOL    HW3 3193   4.461   5.733   3.561  0.5279 -0.3943  1.8580
  855SOL    MW4 3194   4.479   5.819   3.559  0.2362 -0.0186 -0.2130
  856SOL     OW 3195   0.215   1.465   4.186  0.1074  0.1807 -0.1210
  856SOL    HW2 3196   0.143   1.403   4.196  0.3970 -0.1772 -0.2158
  856SOL    HW3 3197   0.174   1.552   4.190 -0.0676  0.0440  1.9449
  856SOL    MW4 3198   0.200   1.469   4.188  0.2486  0.3611 -0.0996
  857SOL     OW 3199   1.996   3.977   5.084 -0.1691 -0.0073  0.7047
  857SOL    HW2 3200   2.080   4.016   5.108  0.5280 -0.2503 -1.1928
  857SOL    HW3 3201   2.013   3.929   5.004 -1.7652 -1.4975  1.1878
  857SOL    MW4 3202   2.009   3.976   5.077 -0.3525 -0.1119 -0.0761
  858SOL     OW 3203   1.577   1.617   3.839 -0.1039  0.6669  0.2970
  858SOL    HW2 3204   1.670   1.610   3.817  0.6885  1.2991  3.1545
  858SOL    HW3 3205   1.575   1.639   3.932 -3.1469 -0.4535  0.6145
  858SOL    MW4 3206   1.589   1.619   3.848 -0.0094 -0.3017 -0.1907
  859SOL     OW 3207   3.655   4.085   5.861  0.1205 -0.3833  1.0044
  859SOL    HW2 3208   3.592   4.099   5.789  1.1580  0.5445  0.2311
  859SOL    HW3 3209   3.734   4.131   5.832  1.8135 -3.0481  1.1084
  859SOL    MW4 3210   3.657   4.093   5.847 -0.1315  0.3662  0.1665
  860SOL     OW 3211   5.728   5.945   5.805 -0.1886  0.0870  0.0248
  860SOL    HW2 3212   5.640   5.950   5.768  0.0283 -0.4029 -0.5690
  860SOL    HW3 3213   5.726   6.007   5.878 -1.5058 -1.0709  1.0305
  860SOL    MW4 3214   5.716   5.954   5.809  0.3382  0.3277  0.0624
  861SOL     OW 3215   2.145   5.737   2.570 -0.3913 -0.8761  0.3312
  861SOL    HW2 3216   2.062   5.696   2.591 -0.9785 -0.5534 -1.2475
  861SOL    HW3 3217   2.211   5.670   2.590 -0.9406 -0.9427  2.1060
  861SOL    MW4 3218   2.143   5.723   2.576 -0.4326 -0.1621 -0.0470
  862SOL     OW 3219   0.562   4.855   3.171  1.2975 -0.2968 -1.0565
  862SOL    HW2 3220   0.541   4.786   3.235  0.8326 -0.8958 -1.8383
  862SOL    HW3 3221   0.612   4.919   3.221 -0.3777  0.0209  0.3115
  862SOL    MW4 3222   0.565   4.854   3.186 -0.4674 -0.1657 -0.4704
  863SOL     OW 3223   5.272   1.172   5.466  0.2085  0.0212  1.0022
  863SOL    HW2 3224   5.262   1.148   5.558 -1.0984  1.0707  1.1669
  863SOL    HW3 3225   5.182   1.176   5.433  0.6631 -0.5103 -0.3786
  863SOL    MW4 3226   5.259   1.169   5.473 -0.0325  0.5179  0.2614
  864SOL     OW 3227   3.597   5.202   5.626 -0.4929  0.3414 -0.6078
  864SOL    HW2 3228   3.690   5.192   5.608  0.3272  1.2524  2.5079
  864SOL    HW3 3229   3.584   5.296   5.636 -1.6199  0.1770 -0.3645
  864SOL    MW4 3230   3.608   5.213   5.625  0.4860 -0.0619  0.0167
  865SOL     OW 3231   3.175   6.232   0.790 -0.6384 -0.3412  0.0118
  865SOL    HW2 3232   3.248   6.275   0.745 -1.2755  0.4764 -0.2874
  865SOL    HW3 3233   3.097   6.274   0.753 -1.2047  0.0018  1.5261
  865SOL    MW4 3234   3.174   6.243   0.779  0.1131  0.2317 -0.0066
  866SOL     OW 3235   5.309   4.197   2.274  0.2269 -0.1694  0.2958
  866SOL    HW2 3236   5.358   4.263   2.322 -1.2370  1.1172  0.1123
  866SOL    HW3 3237   5.321   4.220   2.182 -1.1647  0.5457  0.2663
  866SOL    MW4 3238   5.317   4.208   2.268  0.4280 -0.4929 -0.5263
  867SOL     OW 3239   1.682   6.072   3.150  0.3574 -0.1238 -0.1163
  867SOL    HW2 3240   1.586   6.067   3.156  0.2441  2.2727  0.9402
  867SOL    HW3 3241   1.700   6.065   3.056 -0.9287  0.2113 -0.4135
  867SOL    MW4 3242   1.671   6.070   3.138  0.3925  0.2319  0.1970
  868SOL     OW 3243   2.774   4.504   4.897  0.2373 -0.4432 -0.1965
  868SOL    HW2 3244   2.764   4.451   4.818  0.0245  0.0881 -0.5310
  868SOL    HW3 3245   2.837   4.571   4.873 -0.8497  0.5475 -0.3575
  868SOL    MW4 3246   2.781   4.505   4.884  0.1387 -0.1267 -0.3393
  869SOL     OW 3247   3.376   2.269   4.308 -0.3178  0.1439  0.0028
  869SOL    HW2 3248   3.331   2.315   4.378  0.4338 -1.3175  1.5189
  869SOL    HW3 3249   3.368   2.176   4.331  0.2700 -0.3631 -1.6559
  869SOL    MW4 3250   3.369   2.262   4.320  0.3064 -0.4621 -0.5771
  870SOL     OW 3251   1.725   0.066   4.770  0.2076  0.1862  0.1028
  870SOL    HW2 3252   1.811   0.028   4.786  0.2388  0.4057  0.4526
  870SOL    HW3 3253   1.718   0.070   4.675  0.7975  0.6617  0.0781
  870SOL    MW4 3254   1.735   0.062   4.760  0.9184  0.7730 -0.2854
  871SOL     OW 3255   6.359   6.171   2.291  0.1439 -0.3567 -0.1277
  871SOL    HW2 3256   6.313   6.223   2.356  0.7532 -1.4033  1.1843
  871SOL    HW3 3257   6.420   6.232   2.250  0.1061  0.2109  0.6339
  871SOL    MW4 3258   6.361   6.186   2.294 -0.2787 -0.0733  0.4930
  872SOL     OW 3259   0.193   1.556   1.864  0.0386 -0.3946 -0.6557
  872SOL    HW2 3260   0.279   1.513   1.862 -0.1704 -0.8038 -2.1683
  872SOL    HW3 3261   0.131   1.483   1.858 -0.3352  0.0065 -2.2309
  872SOL    MW4 3262   0.196   1.540   1.863  0.3551  0.0090 -0.0013
  873SOL     OW 3263   2.587   1.530   5.091  0.0488 -0.2836  0.1275
  873SOL    HW2 3264   2.647   1.456   5.106  1.6406  0.5562 -1.5989
  873SOL    HW3 3265   2.525   1.497   5.026 -0.3546 -0.6271  0.6730
  873SOL    MW4 3266   2.587   1.516   5.084  0.5496 -0.4490  0.1698
  874SOL     OW 3267   1.053   2.319   3.776  0.4919  0.0358  0.5083
  874SOL    HW2 3268   0.972   2.364   3.753  1.2696  0.6668 -1.1317
  874SOL    HW3 3269   1.088   2.370   3.849 -0.6033 -0.3009  1.3039
  874SOL    MW4 3270   1.047   2.332   3.783  0.4407  0.3800  0.6288
  875SOL     OW 3271   5.741   0.735   3.348 -0.5184  0.5929 -0.1129
  875SOL    HW2 3272   5.711   0.654   3.307 -1.1288 -0.5267  2.4064
  875SOL    HW3 3273   5.818   0.761   3.296  0.6075 -2.4060 -0.0929
  875SOL    MW4 3274   5.747   0.728   3.335  0.0150  0.2612  0.2843
  876SOL     OW 3275   1.696   4.032   1.903 -0.5545  0.7880 -0.5951
  876SOL    HW2 3276   1.736   3.988   1.828 -1.0063  0.4914 -0.6660
  876SOL    HW3 3277   1.740   4.117   1.907 -1.0105  1.0897 -1.6180
  876SOL    MW4 3278   1.707   4.038   1.894  0.2662  0.0866  0.0236
  877SOL     OW 3279   0.332   0.309   1.107 -0.6745  0.0871  0.2618
  877SOL    HW2 3280   0.246   0.270   1.121 -1.2113 -0.1456 -3.0624
  877SOL    HW3 3281   0.384   0.279   1.182 -2.4457 -2.8814  0.4425
  877SOL    MW4 3282   0.327   0.300   1.119  0.4627 -0.6646 -0.7296
  878SOL     OW 3283   3.208   0.942   2.860  0.4041 -0.3238 -0.0457
  878SOL    HW2 3284   3.174   0.991   2.935  0.0136  0.2681 -0.6021
  878SOL    HW3 3285   3.284   0.895   2.895 -0.0612 -0.4510  0.8418
  878SOL    MW4 3286   3.213   0.942   2.874 -0.1105 -0.6745  0.2450
  879SOL     OW 3287   6.006   1.420   4.474  0.2788 -0.2615 -0.1250
  879SOL    HW2 3288   6.065   1.496   4.475  0.4254 -0.3769  0.7927
  879SOL    HW3 3289   5.922   1.455   4.505  0.1944 -0.3548 -0.2483
  879SOL    MW4 3290   6.002   1.435   4.478  0.1078 -0.0615 -0.0890
  880SOL     OW 3291   3.744   2.687   5.019 -0.0886  0.6316  0.0444
  880SOL    HW2 3292   3.678   2.686   5.088  1.0274 -0.3677  1.1473
  880SOL    HW3 3293   3.708   2.630   4.951 -0.8721  1.0264  0.1260
  880SOL    MW4 3294   3.731   2.679   5.019 -0.6557  0.5074  0.7858
  881SOL     OW 3295   3.633   2.013   3.821 -0.0972 -0.3922 -0.3795
  881SOL    HW2 3296   3.612   2.098   3.783  1.1802 -0.8260 -2.2019
  881SOL    HW3 3297   3.718   1.991   3.784  0.7996 -1.3444  2.0469
  881SOL    MW4 3298   3.641   2.021   3.811 -0.2436  0.3837  1.1700
  882SOL     OW 3299   0.761   5.375   1.969  0.0567  0.0814  0.2465
  882SOL    HW2 3300   0.770   5.304   1.905  1.3720  1.3513 -1.0510
  882SOL    HW3 3301   0.685   5.425   1.939 -1.0246 -0.8584  1.3027
  882SOL    MW4 3302   0.752   5.372   1.957 -0.0043 -0.0374  1.0661
  883SOL     OW 3303   2.805   4.258   3.036 -0.2333 -0.2638  0.6243
  883SOL    HW2 3304   2.774   4.176   3.074 -0.3281 -1.0610 -1.1144
  883SOL    HW3 3305   2.899   4.258   3.053 -0.2389 -0.7167  0.6605
  883SOL    MW4 3306   2.814   4.248   3.043  0.4332  0.5010  0.0662
  884SOL     OW 3307   3.088   4.269   3.036 -0.2687 -0.4529 -0.7340
  884SOL    HW2 3308   3.084   4.260   2.941 -2.6525  0.6033 -0.7868
  884SOL    HW3 3309   3.096   4.363   3.051 -1.2308 -0.4912  0.1139
  884SOL    MW4 3310   3.089   4.280   3.025  0.5839 -0.1432 -0.4857
  885SOL     OW 3311   4.119   1.605   0.064 -0.4669 -0.4262 -0.1545
  885SOL    HW2 3312   4.121   1.690   0.020 -1.2644 -1.6478 -2.7544
  885SOL    HW3 3313   4.208   1.591   0.094 -0.7905  2.3442  2.6376
  885SOL    MW4 3314   4.131   1.614   0.062 -0.0724  0.6776 -0.0839
  886SOL     OW 3315   5.421   0.054   1.397  0.6003  0.1200 -0.1072
  886SOL    HW2 3316   5.348   0.021   1.449 -0.7623  0.9377 -1.4427
  886SOL    HW3 3317   5.430  -0.009   1.326  0.8019  0.3482 -0.2845
  886SOL    MW4 3318   5.413   0.042   1.395  0.2856 -0.6635 -0.2508
  887SOL     OW 3319   5.541   5.473   5.547  0.3526 -0.3053 -0.2024
  887SOL    HW2 3320   5.580   5.488   5.633 -2.0785 -0.0569  0.9387
  887SOL    HW3 3321   5.609   5.501   5.485  3.0836 -2.6357  1.4914
  887SOL    MW4 3322   5.555   5.479   5.550 -0.0556  0.3167 -0.1637
  888SOL     OW 3323   3.999   1.485   0.314  0.1032  0.2940 -0.2326
  888SOL    HW2 3324   3.905   1.472   0.303 -0.1281  1.1935  0.6074
  888SOL    HW3 3325   4.027   1.526   0.232 -0.3051  0.4259 -0.3052
  888SOL    MW4 3326   3.991   1.488   0.302 -0.1417  0.2307  0.5725
  889SOL     OW 3327   0.467   4.328   1.058 -0.0116  0.1406 -0.2679
  889SOL    HW2 3328   0.497   4.411   1.095  2.2194 -1.3014  1.3849
  889SOL    HW3 3329   0.471   4.266   1.131  1.2660 -2.0712 -2.0668
  889SOL    MW4 3330   0.472   4.331   1.072  0.2848 -0.7806 -0.1777
  890SOL     OW 3331   5.084   5.107   5.984 -0.5873  0.3569 -0.2292
  890SOL    HW2 3332   5.079   5.154   6.067 -0.6887  0.9995 -0.5895
  890SOL    HW3 3333   4.994   5.102   5.953 -0.8962 -2.0165  0.8322
  890SOL    MW4 3334   5.072   5.113   5.991 -0.6020 -0.3920  0.2480
  891SOL     OW 3335   3.534   2.440   5.413  0.1581  0.6615  0.4999
  891SOL    HW2 3336   3.612   2.405   5.456  1.1976  0.8543 -1.1528
  891SOL    HW3 3337   3.466   2.375   5.431  1.6420 -1.4760 -1.1634
  891SOL    MW4 3338   3.535   2.427   5.421  0.2292 -0.8435  0.0397
  892SOL     OW 3339   1.709   0.448   5.084 -0.6175  0.5009  0.3493
  892SOL    HW2 3340   1.673   0.374   5.134  1.6588 -1.3040 -0.4701
  892SOL    HW3 3341   1.714   0.416   4.994  0.3046  1.6897 -0.0516
  892SOL    MW4 3342   1.705   0.434   5.079 -0.2054  0.1566  0.5544
  893SOL     OW 3343   4.906   1.347   4.406  0.6248  0.4868 -0.5076
  893SOL    HW2 3344   4.868   1.391   4.483  1.2886  1.1683 -0.5546
  893SOL    HW3 3345   4.835   1.347   4.342  0.5337  1.3077 -0.4247
  893SOL    MW4 3346   4.892   1.353   4.408 -0.2930 -0.5070 -0.3057
  894SOL     OW 3347   6.144   1.218   0.660 -0.3145  0.6316 -0.1627
  894SOL    HW2 3348   6.230   1.230   0.620 -0.3690  0.9619 -0.1815
  894SOL    HW3 3349   6.082   1.251   0.595 -0.3869  1.4459  0.3001
  894SOL    MW4 3350   6.147   1.224   0.646  0.1717  0.3045  0.7572
  895SOL     OW 3351   3.588   4.322   5.524  0.7069  0.6887  0.1918
  895SOL    HW2 3352   3.570   4.353   5.613 -2.3353 -3.3501  1.3073
  895SOL    HW3 3353   3.662   4.262   5.533  0.6873  0.6212 -0.0788
  895SOL    MW4 3354   3.595   4.318   5.537 -0.0037  0.1361  0.3645
  896SOL     OW 3355   3.564   1.514   6.069 -0.0726 -0.1043 -0.2946
  896SOL    HW2 3356   3.498   1.579   6.044 -1.4174 -1.5456 -0.7177
  896SOL    HW3 3357   3.608   1.491   5.988  0.6317  0.5068 -0.0907
  896SOL    MW4 3358   3.561   1.519   6.055  0.0461 -0.3066 -0.7469
  897SOL     OW 3359   3.583   6.121   1.388 -0.2994 -0.0993  0.0937
  897SOL    HW2 3360   3.658   6.081   1.432 -0.8065  0.2231  1.3046
  897SOL    HW3 3361   3.619   6.198   1.344  0.2994 -0.6693 -0.4383
  897SOL    MW4 3362   3.598   6.126   1.388 -0.5247 -0.3661  0.3239
  898SOL     OW 3363   5.298   4.840   1.236 -0.7683  0.2294 -0.2012
  898SOL    HW2 3364   5.333   4.758   1.271  1.3366  1.0356 -0.2566
  898SOL    HW3 3365   5.363   4.906   1.260 -1.8066  1.6837 -1.2019
  898SOL    MW4 3366   5.311   4.838   1.243 -0.9101 -0.3511 -0.2317
  899SOL     OW 3367   2.811   3.872   5.186  0.4792  0.2765  0.1552
  899SOL    HW2 3368   2.809   3.809   5.258 -1.3659  0.2347  0.1188
  899SOL    HW3 3369   2.896   3.917   5.196  1.1318 -1.0946  1.1242
  899SOL    MW4 3370   2.822   3.870   5.197 -0.3982  0.3027 -0.1103
  900SOL     OW 3371   2.181   0.566   3.424  0.3639  0.3957 -0.6030
  900SOL    HW2 3372   2.098   0.610   3.441  1.0425  1.3186  0.4469
  900SOL    HW3 3373   2.158   0.473   3.417 -0.7632  0.6530 -0.4899
  900SOL    MW4 3374   2.167   0.560   3.425  0.1495 -0.1899  0.6381
  901SOL     OW 3375   1.758   2.509   0.935 -0.0335  0.2113 -0.1670
  901SOL    HW2 3376   1.707   2.535   1.012 -2.0595 -0.6944 -1.1426
  901SOL    HW3 3377   1.838   2.470   0.972 -1.4616 -1.2986  1.5648
  901SOL    MW4 3378   1.762   2.507   0.950 -0.3445 -0.4775 -0.2731
  902SOL     OW 3379   4.367   5.143   4.491 -0.3785  0.7804  0.0014
  902SOL    HW2 3380   4.286   5.191   4.507 -0.7768  0.7769 -1.7487
  902SOL    HW3 3381   4.339   5.054   4.469  0.2461  0.2076  1.4208
  902SOL    MW4 3382   4.353   5.137   4.490  0.1642 -0.2034 -0.1288
  903SOL     OW 3383   2.045   5.120   0.557  0.0216  0.4987 -0.0443
  903SOL    HW2 3384   2.116   5.106   0.495  0.2249  0.0995  0.2755
  903SOL    HW3 3385   2.015   5.209   0.539 -0.4039  0.1376 -1.1971
  903SOL    MW4 3386   2.050   5.130   0.547 -0.0246 -0.2538  0.1829
  904SOL     OW 3387   0.741   6.285   4.501 -0.0284  0.1474  0.2624
  904SOL    HW2 3388   0.672   6.219   4.496  0.3429 -0.2246 -0.0558
  904SOL    HW3 3389   0.814   6.247   4.452  0.7544  0.0997  1.4331
  904SOL    MW4 3390   0.742   6.271   4.494  0.5072  1.0019  0.1996
  905SOL     OW 3391   3.946   0.658   2.709  0.9261 -0.0652  0.1022
  905SOL    HW2 3392   4.040   0.643   2.698  0.7890 -1.9683  1.0869
  905SOL    HW3 3393   3.934   0.666   2.803 -0.1107 -1.6495  0.1357
  905SOL    MW4 3394   3.957   0.657   2.720  0.0670  0.1520 -0.7302
  906SOL     OW 3395   1.945   2.344   0.131 -0.0238 -0.1667 -0.1173
  906SOL    HW2 3396   1.926   2.250   0.121 -0.3979 -0.1472  0.3898
  906SOL    HW3 3397   1.863   2.387   0.106  0.4747  0.0797 -1.3808
  906SOL    MW4 3398   1.932   2.337   0.126 -0.8845 -1.0354  0.2333
  907SOL     OW 3399   1.072   4.108   1.911  0.1951 -0.2096  0.3917
  907SOL    HW2 3400   1.127   4.037   1.879  1.8834  1.8109 -1.5866
  907SOL    HW3 3401   1.083   4.107   2.006 -0.1612 -2.7695  0.4595
  907SOL    MW4 3402   1.081   4.099   1.919 -0.1767 -0.1517  0.3177
  908SOL     OW 3403   3.989   1.383   5.784 -0.2288  0.3023 -0.1948
  908SOL    HW2 3404   4.050   1.456   5.780  0.0946  0.0321 -0.2327
  908SOL    HW3 3405   4.015   1.334   5.862  0.2214 -0.3493 -0.7442
  908SOL    MW4 3406   4.001   1.386   5.794 -0.2406  0.0791 -0.5083
  909SOL     OW 3407   4.145   4.468   2.005  0.4628 -0.5804 -0.1396
  909SOL    HW2 3408   4.055   4.455   2.036  0.4739  1.3746  0.8703
  909SOL    HW3 3409   4.187   4.519   2.075  1.7517  0.3398 -1.5352
  909SOL    MW4 3410   4.138   4.473   2.019 -0.5751  0.1462 -0.5620
  910SOL     OW 3411   1.480   1.749   2.283  0.2490  0.3816  0.6675
  910SOL    HW2 3412   1.457   1.780   2.370 -0.9041  2.3231 -0.2597
  910SOL    HW3 3413   1.441   1.662   2.278  0.0424  0.3772  1.9569
  910SOL    MW4 3414   1.472   1.742   2.294 -0.6094 -0.2210  0.0950
  911SOL     OW 3415   4.430   0.759   0.906 -0.3788 -0.1640  0.0973
  911SOL    HW2 3416   4.463   0.676   0.939  0.3031 -1.5963 -3.6465
  911SOL    HW3 3417   4.469   0.825   0.963  1.5897 -2.2532  1.3373
  911SOL    MW4 3418   4.440   0.757   0.918  0.1445  0.4363 -0.2680
  912SOL     OW 3419   4.576   3.985   1.503 -0.5361 -0.3507  0.0783
  912SOL    HW2 3420   4.561   3.950   1.591 -1.5542 -0.2743 -0.0541
  912SOL    HW3 3421   4.642   3.926   1.465 -1.1608 -1.2704  0.3770
  912SOL    MW4 3422   4.583   3.972   1.509 -0.6134 -0.5610  0.0881
  913SOL     OW 3423   1.748   5.728   5.959  0.0034 -0.0393  0.2841
  913SOL    HW2 3424   1.737   5.633   5.953  1.5187 -0.7341  4.8019
  913SOL    HW3 3425   1.659   5.762   5.954 -0.6300 -1.7029 -0.7879
  913SOL    MW4 3426   1.735   5.720   5.957 -0.3834 -0.1565  0.2853
  914SOL     OW 3427   3.487   4.322   4.144  0.2902  0.5866  0.5143
  914SOL    HW2 3428   3.437   4.399   4.167 -1.5229 -0.7498  1.2687
  914SOL    HW3 3429   3.554   4.316   4.212 -0.3110  0.8332  1.1376
  914SOL    MW4 3430   3.490   4.331   4.156  0.2396  0.4985  0.0244
  915SOL     OW 3431   1.308   4.341   2.355 -0.3967  0.1309  0.8553
  915SOL    HW2 3432   1.384   4.348   2.297 -0.0046 -1.0125  1.2134
  915SOL    HW3 3433   1.272   4.254   2.337  0.0309 -0.4572  2.6792
  915SOL    MW4 3434   1.313   4.330   2.345  0.4799  0.1294  0.1648
  916SOL     OW 3435   5.847   1.030   0.307  0.5189  0.4277  0.4499
  916SOL    HW2 3436   5.869   1.008   0.397  1.9161 -3.4339 -0.6219
  916SOL    HW3 3437   5.786   0.961   0.280  0.9797  0.8231 -1.8483
  916SOL    MW4 3438   5.842   1.018   0.315  0.4835  0.2024  0.1212
  917SOL     OW 3439   0.687   5.721   3.734 -0.2207 -0.3814  0.3536
  917SOL    HW2 3440   0.731   5.676   3.806  0.0757 -0.0677  0.3728
  917SOL    HW3 3441   0.599   5.740   3.768  0.0364  0.0862  0.7674
  917SOL    MW4 3442   0.681   5.718   3.748  0.2926 -0.5664  0.1162
  918SOL     OW 3443   6.347   3.682   4.315  0.0658  0.5382  0.4257
  918SOL    HW2 3444   6.395   3.649   4.392  0.1257  0.2917  0.2837
  918SOL    HW3 3445   6.401   3.655   4.240 -0.8770 -0.7614  0.1867
  918SOL    MW4 3446   6.361   3.674   4.315  0.4159 -0.8045  0.3011
  919SOL     OW 3447   0.697   2.824   4.412  0.2038 -0.2603 -0.4204
  919SOL    HW2 3448   0.602   2.815   4.402 -0.0135  0.3910  0.7941
  919SOL    HW3 3449   0.720   2.897   4.354 -0.2292  0.3152  0.1169
  919SOL    MW4 3450   0.688   2.832   4.403 -0.0861 -0.5081  0.2313
  920SOL     OW 3451   4.206   6.101   5.404 -0.2654  0.1104  0.2064
  920SOL    HW2 3452   4.221   6.154   5.326 -0.5229  0.7450  0.5847
  920SOL    HW3 3453   4.259   6.022   5.390 -0.7070 -0.0067 -0.8306
  920SOL    MW4 3454   4.215   6.097   5.392 -0.4588  0.0223 -0.1196
  921SOL     OW 3455   3.525   5.741   0.954 -0.5039 -0.0388  0.2989
  921SOL    HW2 3456   3.509   5.829   0.989 -0.0938 -0.0316  0.4815
  921SOL    HW3 3457   3.614   5.721   0.983 -0.5569 -0.4687  0.1581
  921SOL    MW4 3458   3.535   5.750   0.963  0.4535  0.3817  0.5412
  922SOL     OW 3459   1.974   3.007   4.320 -0.0412  0.5271 -0.2551
  922SOL    HW2 3460   1.996   2.953   4.244 -0.0301  0.1994 -0.0208
  922SOL    HW3 3461   1.979   2.947   4.395  1.0797  1.1046  0.1590
  922SOL    MW4 3462   1.977   2.992   4.320 -0.6780  0.6317  0.2592
  923SOL     OW 3463   5.088   1.980   1.438 -0.0434  0.4844 -0.2488
  923SOL    HW2 3464   5.019   2.024   1.387  0.1119  1.8060  0.6155
  923SOL    HW3 3465   5.056   1.985   1.529  0.1187 -0.9808 -0.0940
  923SOL    MW4 3466   5.074   1.987   1.444  0.0871  0.0628 -0.5657
  924SOL     OW 3467   2.594   2.485   5.182 -0.3915 -0.1892  0.3164
  924SOL    HW2 3468   2.570   2.404   5.226 -0.8187  0.2005  0.8204
  924SOL    HW3 3469   2.652   2.458   5.112  0.3405 -0.8267  1.1444
  924SOL    MW4 3470   2.598   2.471   5.179 -0.2519  0.5013  0.7643
  925SOL     OW 3471   5.997   5.957   5.769  0.2450 -0.0019 -0.0906
  925SOL    HW2 3472   6.033   5.886   5.714  0.1775  0.4601 -0.7486
  925SOL    HW3 3473   5.903   5.944   5.766  0.1782  0.5587 -0.8563
  925SOL    MW4 3474   5.990   5.946   5.761  0.0192  0.0071 -0.0901
  926SOL     OW 3475   2.844   5.902   4.397  0.6896 -0.3253 -0.0049
  926SOL    HW2 3476   2.782   5.903   4.470 -0.1140 -1.3567 -0.6257
  926SOL    HW3 3477   2.915   5.846   4.427  1.5787  1.2088  0.8753
  926SOL    MW4 3478   2.845   5.895   4.410  0.7285  0.2998 -0.4239
  927SOL     OW 3479   3.343   0.945   6.313  0.4141 -0.2202 -0.6169
  927SOL    HW2 3480   3.378   1.033   6.326  0.2197 -0.1182 -0.7715
  927SOL    HW3 3481   3.263   0.943   6.365  0.8050 -0.5544 -0.0174
  927SOL    MW4 3482   3.337   0.956   6.322 -0.4502  0.0453 -0.0416
  928SOL     OW 3483   2.927   2.582   5.148 -0.1936 -0.1819  0.1385
  928SOL    HW2 3484   2.929   2.491   5.120  0.1518  0.2908 -1.5366
  928SOL    HW3 3485   2.976   2.584   5.230 -1.1324 -1.6589  0.7482
  928SOL    MW4 3486   2.934   2.571   5.155 -0.9245 -0.3983 -0.0773
  929SOL     OW 3487   2.272   0.498   1.467  0.1247  0.2914  0.1360
  929SOL    HW2 3488   2.327   0.571   1.436  0.4489 -1.1189 -3.0418
  929SOL    HW3 3489   2.335   0.432   1.496  0.2087 -0.7670 -2.1832
  929SOL    MW4 3490   2.288   0.499   1.466 -0.1411 -0.2621 -0.0514
  930SOL     OW 3491   2.536   1.784   3.317  0.2014 -0.7057  0.2994
  930SOL    HW2 3492   2.506   1.875   3.318  2.1697 -0.0351  1.2168
  930SOL    HW3 3493   2.576   1.773   3.231  0.1577 -0.6331  0.2699
  930SOL    MW4 3494   2.537   1.794   3.306  0.2470  0.2584  0.3963
  931SOL     OW 3495   4.809   0.441   2.007 -0.2067 -0.0717 -0.7746
  931SOL    HW2 3496   4.820   0.447   2.102 -1.8124  0.1260 -0.5650
  931SOL    HW3 3497   4.864   0.510   1.972  0.2684 -0.0320  0.0218
  931SOL    MW4 3498   4.818   0.451   2.015 -0.2426 -0.0336 -0.5718
  932SOL     OW 3499   2.070   0.321   3.428  0.3815 -0.7300  0.6366
  932SOL    HW2 3500   2.115   0.246   3.389  1.6728 -0.9300  2.3962
  932SOL    HW3 3501   1.980   0.313   3.398  0.6528 -2.5831  0.1932
  932SOL    MW4 3502   2.064   0.310   3.419 -1.0293 -0.5023  0.6975
  933SOL     OW 3503   3.884   4.686   4.646 -0.2633  0.5158 -0.1700
  933SOL    HW2 3504   3.948   4.615   4.644 -0.3967  0.3871  0.1186
  933SOL    HW3 3505   3.850   4.690   4.556 -0.3168  0.1600 -0.1657
  933SOL    MW4 3506   3.888   4.677   4.634  0.0745 -0.1278 -0.2417
  934SOL     OW 3507   1.088   1.382   0.347 -0.3355  0.3713 -0.5005
  934SOL    HW2 3508   1.023   1.379   0.417  0.4412 -0.4477  0.2002
  934SOL    HW3 3509   1.075   1.301   0.299  1.4655 -0.7871  0.8616
  934SOL    MW4 3510   1.078   1.371   0.350  0.1675 -0.1887 -0.5358
  935SOL     OW 3511   6.190   6.366   5.575 -0.0495  0.0216 -0.7147
  935SOL    HW2 3512   6.188   6.308   5.498 -0.4410 -0.6016 -0.2391
  935SOL    HW3 3513   6.139   6.321   5.641  1.1726  0.0509  0.2823
  935SOL    MW4 3514   6.183   6.353   5.573  0.2086 -0.2640 -0.0066
  936SOL     OW 3515   4.800   6.385   5.173 -0.0529 -0.4815 -0.7688
  936SOL    HW2 3516   4.794   6.438   5.253  0.5184  1.1056 -1.7360
  936SOL    HW3 3517   4.720   6.332   5.174 -0.7036  0.4697  0.2016
  936SOL    MW4 3518   4.788   6.385   5.184 -0.5302 -0.0665  0.0289
  937SOL     OW 3519   5.744   4.489   5.623  0.1327  0.5456  0.0829
  937SOL    HW2 3520   5.812   4.452   5.679 -0.7829  1.7389  2.0842
  937SOL    HW3 3521   5.662   4.451   5.654 -0.2601 -0.3208 -1.8275
  937SOL    MW4 3522   5.742   4.479   5.634  0.3022  0.7122 -0.0005
  938SOL     OW 3523   1.637   5.258   4.679 -0.3455  0.2851 -0.3398
  938SOL    HW2 3524   1.579   5.320   4.724 -0.5015 -0.4741  0.5199
  938SOL    HW3 3525   1.659   5.302   4.596 -1.6179  0.8603 -0.3923
  938SOL    MW4 3526   1.632   5.272   4.674 -0.3455 -0.1600  0.9606
  939SOL     OW 3527   1.674   3.463   6.013 -0.2890 -0.5408  0.4561
  939SOL    HW2 3528   1.623   3.495   5.938 -0.1625  2.3184  1.4556
  939SOL    HW3 3529   1.687   3.541   6.067  2.0414 -1.9288  2.0506
  939SOL    MW4 3530   1.669   3.478   6.010  0.4765 -0.1064 -0.3735
  940SOL     OW 3531   2.119   1.258   0.289  0.2245 -0.1623 -0.1274
  940SOL    HW2 3532   2.193   1.308   0.254 -0.7004  0.4370 -1.3372
  940SOL    HW3 3533   2.131   1.259   0.383  1.3661  0.5407 -0.2638
  940SOL    MW4 3534   2.130   1.265   0.297 -0.0811  1.0024  0.1867
  941SOL     OW 3535   1.839   0.228   2.562 -0.0730 -0.2152  0.2551
  941SOL    HW2 3536   1.849   0.285   2.637  0.7244  1.7630 -1.2600
  941SOL    HW3 3537   1.903   0.158   2.575  2.7293  2.0927 -0.2769
  941SOL    MW4 3538   1.849   0.226   2.573 -0.2497  0.3949  0.1360
  942SOL     OW 3539   2.150   6.026   4.935  0.5440 -0.1717  0.1752
  942SOL    HW2 3540   2.173   5.936   4.960  0.9382  0.1105  0.8483
  942SOL    HW3 3541   2.214   6.080   4.980  1.4026  0.3590 -1.5835
  942SOL    MW4 3542   2.162   6.021   4.944  0.3303  0.2450  0.1151
  943SOL     OW 3543   1.175   0.570   1.668 -0.0032  0.1448 -0.1358
  943SOL    HW2 3544   1.133   0.617   1.740 -0.8577  0.1075 -0.5984
  943SOL    HW3 3545   1.162   0.627   1.591  0.2880 -0.1369 -0.3972
  943SOL    MW4 3546   1.168   0.584   1.667 -0.3162 -0.5464 -0.5845
  944SOL     OW 3547   1.267   2.111   2.652 -0.0019  0.0420  0.5026
  944SOL    HW2 3548   1.297   2.194   2.689 -0.8313  0.2185  0.7985
  944SOL    HW3 3549   1.275   2.049   2.724  1.0774 -0.2439  0.1387
  944SOL    MW4 3550   1.272   2.114   2.666 -0.0913  0.0964  0.7559
  945SOL     OW 3551   1.545   3.308   1.303  0.0268 -0.0538  0.5051
  945SOL    HW2 3552   1.511   3.230   1.260  1.6935  0.0338 -1.0671
  945SOL    HW3 3553   1.568   3.279   1.392 -0.5394 -1.0297  0.3371
  945SOL    MW4 3554   1.544   3.294   1.309  0.6368 -0.0555 -0.0153
  946SOL     OW 3555   1.896   2.464   0.415  0.3740 -0.5606  0.4916
  946SOL    HW2 3556   1.907   2.415   0.334  0.1770 -1.7632  1.1706
  946SOL    HW3 3557   1.802   2.465   0.430  0.5252 -2.8755  2.1613
  946SOL    MW4 3558   1.885   2.458   0.407 -0.5040  0.2274 -0.1361
  947SOL     OW 3559   1.919   4.823   4.770 -0.1891 -0.1488 -0.1206
  947SOL    HW2 3560   1.863   4.898   4.792 -0.3605 -0.5423  0.8648
  947SOL    HW3 3561   1.969   4.806   4.850  1.0090 -0.1102 -0.8303
  947SOL    MW4 3562   1.918   4.831   4.784  0.5441  0.4244 -0.2172
  948SOL     OW 3563   5.653   5.012   1.030 -0.5294 -0.0236 -0.2365
  948SOL    HW2 3564   5.602   5.028   1.110 -0.0598  0.2452  0.0106
  948SOL    HW3 3565   5.718   4.947   1.056 -1.0595 -0.7436 -0.6843
  948SOL    MW4 3566   5.655   5.006   1.044 -0.0068  0.2712 -0.3996
  949SOL     OW 3567   4.700   2.079   3.508  0.2434 -0.1157  0.1373
  949SOL    HW2 3568   4.779   2.047   3.551  0.6423  0.4230 -0.1770
  949SOL    HW3 3569   4.650   2.122   3.578  0.6239  0.2648  0.1805
  949SOL    MW4 3570   4.703   2.081   3.523 -0.1848  0.3307 -0.2690
  950SOL     OW 3571   3.599   5.203   6.309 -0.2156  0.3847  0.4269
  950SOL    HW2 3572   3.681   5.157   6.293 -0.1899 -0.0886  1.7559
  950SOL    HW3 3573   3.594   5.210   6.404 -0.9249  1.8783  0.3078
  950SOL    MW4 3574   3.609   5.198   6.319  0.6526  0.3970 -0.1511
  951SOL     OW 3575   3.985   1.673   3.271  0.4329  0.3251 -0.3215
  951SOL    HW2 3576   4.006   1.740   3.336 -0.0130 -0.2719  0.4613
  951SOL    HW3 3577   4.070   1.649   3.233  0.7046  0.6618  0.0658
  951SOL    MW4 3578   3.999   1.678   3.275 -0.6320  0.0723 -0.0727
  952SOL     OW 3579   2.281   1.191   1.254 -0.3462 -0.0390  0.0085
  952SOL    HW2 3580   2.322   1.267   1.212 -2.8460  0.9359 -0.8741
  952SOL    HW3 3581   2.205   1.171   1.199 -1.4905 -1.2693  1.9083
  952SOL    MW4 3582   2.276   1.198   1.241 -0.2878  0.3787  0.4063
  953SOL     OW 3583   1.483   2.332   0.110  0.0363 -0.4283  0.1791
  953SOL    HW2 3584   1.449   2.306   0.195 -0.6130 -0.1961 -0.0051
  953SOL    HW3 3585   1.532   2.255   0.080  0.5448 -0.3932  0.8962
  953SOL    MW4 3586   1.485   2.318   0.117 -0.3349 -0.3364 -0.1945
  954SOL     OW 3587   2.523   3.395   4.310 -0.4261 -0.1467 -0.3787
  954SOL    HW2 3588   2.551   3.345   4.387 -0.7680 -0.3040 -0.3571
  954SOL    HW3 3589   2.428   3.389   4.310 -0.5402  1.3322  0.1864
  954SOL    MW4 3590   2.514   3.388   4.320 -0.1015  0.2547  0.0109
  955SOL     OW 3591   3.481   3.557   0.226  0.3314  0.5371  0.2048
  955SOL    HW2 3592   3.550   3.492   0.210 -0.4730 -0.1458 -0.6244
  955SOL    HW3 3593   3.420   3.546   0.153 -2.0112 -0.6896  2.1711
  955SOL    MW4 3594   3.482   3.547   0.215  0.7831  0.3788 -1.2984
  956SOL     OW 3595   2.577   4.697   2.446 -0.2041 -0.7907  0.0117
  956SOL    HW2 3596   2.634   4.774   2.444  0.1902 -1.0851 -1.2562
  956SOL    HW3 3597   2.507   4.718   2.383 -1.7177 -0.3033  1.7598
  956SOL    MW4 3598   2.575   4.710   2.437 -0.1364 -0.0475  0.0006
  957SOL     OW 3599   2.831   0.565   1.446 -0.8325 -0.1061  0.0546
  957SOL    HW2 3600   2.809   0.520   1.365 -0.5718 -0.3837  0.1370
  957SOL    HW3 3601   2.927   0.566   1.448 -0.8362 -0.1757  0.3972
  957SOL    MW4 3602   2.841   0.559   1.436 -0.6808 -0.7156  0.1198
  958SOL     OW 3603   2.898   6.354   1.628  0.3569 -0.0443  0.7019
  958SOL    HW2 3604   2.949   6.315   1.557 -2.8757  0.3821 -2.1327
  958SOL    HW3 3605   2.914   6.448   1.620  1.0228 -0.0796  1.4831
  958SOL    MW4 3606   2.907   6.361   1.617 -0.6245 -0.3313  0.1223
  959SOL     OW 3607   4.796   4.154   6.418 -0.2674 -0.4546 -0.2304
  959SOL    HW2 3608   4.742   4.233   6.413  0.2862 -0.0469  0.2214
  959SOL    HW3 3609   4.866   4.168   6.354  0.3033 -0.2118  0.4353
  959SOL    MW4 3610   4.798   4.166   6.409 -0.1951 -0.1418 -0.3995
  960SOL     OW 3611   4.624   2.736   4.183 -0.0534 -0.1974  0.0139
  960SOL    HW2 3612   4.582   2.772   4.105  0.7021  0.1494 -0.2484
  960SOL    HW3 3613   4.663   2.654   4.153  1.1120  0.4237 -0.2574
  960SOL    MW4 3614   4.624   2.730   4.169 -0.1190  0.4670  0.2637
  961SOL     OW 3615   3.657   3.121   0.503  0.0672 -0.3046  0.1629
  961SOL    HW2 3616   3.594   3.160   0.443  1.2685 -0.2867 -1.1504
  961SOL    HW3 3617   3.631   3.030   0.511 -2.0377  0.3901  2.2749
  961SOL    MW4 3618   3.646   3.114   0.496  0.5311 -0.2422 -0.2035
  962SOL     OW 3619   5.137   3.378   5.700 -0.5326  0.2485 -0.3675
  962SOL    HW2 3620   5.122   3.472   5.709 -1.6268  0.1614 -1.0816
  962SOL    HW3 3621   5.140   3.363   5.605  0.9706 -0.2516 -0.2705
  962SOL    MW4 3622   5.135   3.388   5.688 -0.3278 -0.3756 -0.0342
  963SOL     OW 3623   4.759   0.286   1.136  0.1442  0.8006  0.7576
  963SOL    HW2 3624   4.840   0.237   1.154 -0.0388  0.8003  1.6019
  963SOL    HW3 3625   4.754   0.289   1.040  2.0762  2.3504  0.6495
  963SOL    MW4 3626   4.769   0.280   1.126 -0.0780  1.0313 -0.1934
  964SOL     OW 3627   2.932   0.285   1.182 -0.0059  0.2924  0.5050
  964SOL    HW2 3628   2.995   0.273   1.253  0.3192 -0.6887  0.0714
  964SOL    HW3 3629   2.951   0.213   1.121 -0.4970  0.9181 -0.4091
  964SOL    MW4 3630   2.943   0.274   1.183  0.3483 -0.4005 -0.1297
  965SOL     OW 3631   2.763   5.663   5.273  0.0098  0.6018 -0.0098
  965SOL    HW2 3632   2.755   5.621   5.187 -2.9388  1.0440 -0.0802
  965SOL    HW3 3633   2.788   5.593   5.332  1.1034  0.0749 -1.0627
  965SOL    MW4 3634   2.765   5.648   5.269 -0.0256 -0.6217 -0.1721
  966SOL     OW 3635   0.451   1.693   6.383 -0.0839 -0.4197 -0.0535
  966SOL    HW2 3636   0.496   1.636   6.445 -1.7113 -2.1166 -0.3326
  966SOL    HW3 3637   0.464   1.782   6.417  2.1837 -0.9533  0.6241
  966SOL    MW4 3638   0.459   1.697   6.395 -0.2250  0.1604 -0.1049
  967SOL     OW 3639   2.414   1.465   2.688  0.3253  0.4620 -0.4543
  967SOL    HW2 3640   2.488   1.461   2.747 -0.7536 -0.8259  0.8873
  967SOL    HW3 3641   2.428   1.545   2.637  2.9182 -0.0726 -0.7118
  967SOL    MW4 3642   2.425   1.475   2.689 -0.5435 -0.2210  0.5948
  968SOL     OW 3643   3.582   0.779   6.346 -0.9228 -0.3906 -0.3479
  968SOL    HW2 3644   3.583   0.835   6.423 -1.6135 -0.1482 -0.5134
  968SOL    HW3 3645   3.493   0.785   6.312 -2.6162 -5.1722  2.2638
  968SOL    MW4 3646   3.570   0.787   6.351  0.4030  0.4600  0.6161
  969SOL     OW 3647   2.829   1.021   5.790 -0.0389  0.1484 -0.3630
  969SOL    HW2 3648   2.863   1.092   5.845 -1.0172  0.0319  0.4179
  969SOL    HW3 3649   2.772   1.065   5.728  0.4118  0.1840 -0.7597
  969SOL    MW4 3650   2.826   1.036   5.789 -0.0531  0.1096 -0.3454
  970SOL     OW 3651   4.725   5.822   0.711  1.2830 -0.1517  0.0613
  970SOL    HW2 3652   4.734   5.889   0.779  2.3055  1.0162 -1.1637
  970SOL    HW3 3653   4.659   5.762   0.745  1.3878  0.6799  1.8436
  970SOL    MW4 3654   4.718   5.823   0.724 -0.4212  0.0319  0.2169
  971SOL     OW 3655   3.138   5.088   5.899  0.1947 -0.1395 -0.3721
  971SOL    HW2 3656   3.100   5.040   5.972 -0.7109  1.5645  0.3504
  971SOL    HW3 3657   3.221   5.122   5.933 -0.3572  0.8871 -0.0005
  971SOL    MW4 3658   3.144   5.086   5.913  0.1973  0.4959  0.4696
  972SOL     OW 3659   6.136   0.698   4.240 -0.2326 -0.0060 -0.2040
  972SOL    HW2 3660   6.173   0.742   4.316 -0.5902  0.3307 -0.2229
  972SOL    HW3 3661   6.211   0.681   4.183  0.0060 -0.0674  0.1253
  972SOL    MW4 3662   6.150   0.701   4.242  0.3449  0.4341 -0.0413
  973SOL     OW 3663   0.060   0.092   4.357  0.1672  0.0718 -0.6496
  973SOL    HW2 3664   0.019   0.136   4.283  1.2541  0.6947 -0.8872
  973SOL    HW3 3665  -0.012   0.044   4.399 -0.3751 -0.6937 -2.3766
  973SOL    MW4 3666   0.045   0.091   4.353 -0.2292 -0.3814  0.0752
  974SOL     OW 3667   6.229   2.054   1.203 -0.4447  0.1474  0.0700
  974SOL    HW2 3668   6.164   2.036   1.271 -1.5698  1.4255 -0.6061
  974SOL    HW3 3669   6.312   2.060   1.250 -1.0687  0.1507  1.2106
  974SOL    MW4 3670   6.231   2.052   1.218 -0.3820 -0.1453 -0.3057
  975SOL     OW 3671   4.857   3.153   3.765 -0.2297  0.8732 -0.5880
  975SOL    HW2 3672   4.927   3.089   3.776 -0.3877  0.8538  0.4246
  975SOL    HW3 3673   4.845   3.191   3.853 -0.5236  1.8832 -1.0429
  975SOL    MW4 3674   4.864   3.150   3.778  0.1648  0.3749 -0.2767
  976SOL     OW 3675   5.671   5.892   4.700  0.5783  0.1490 -0.7041
  976SOL    HW2 3676   5.716   5.864   4.620  0.2485 -0.2242 -0.7638
  976SOL    HW3 3677   5.689   5.823   4.763 -0.1267 -0.1416 -0.8120
  976SOL    MW4 3678   5.679   5.879   4.698 -0.2105 -0.1158  0.0802
  977SOL     OW 3679   1.837   4.276   1.858  0.9065 -0.0047 -0.3519
  977SOL    HW2 3680   1.776   4.330   1.807 -0.0636  0.0701  0.8344
  977SOL    HW3 3681   1.848   4.324   1.940  0.3966 -1.3530  0.5410
  977SOL    MW4 3682   1.830   4.290   1.862 -0.7352 -0.1230  0.9092
  978SOL     OW 3683   1.538   5.018   2.411 -0.5512  0.1459 -0.3421
  978SOL    HW2 3684   1.551   4.972   2.328 -1.3856 -0.7689  0.0147
  978SOL    HW3 3685   1.625   5.026   2.448  0.1711  2.5078 -2.2723
  978SOL    MW4 3686   1.551   5.013   2.405 -0.3369  0.3626  0.3577
  979SOL     OW 3687   4.061   3.835   6.430 -0.1815 -0.7355 -0.5110
  979SOL    HW2 3688   4.045   3.925   6.402 -0.4379 -0.8781 -0.8463
  979SOL    HW3 3689   4.124   3.801   6.367 -0.7105 -1.0397 -0.8824
  979SOL    MW4 3690   4.067   3.842   6.418  0.5766  0.3336 -0.4505
  980SOL     OW 3691   2.410   5.682   2.079 -0.3326 -0.0053 -0.0854
  980SOL    HW2 3692   2.334   5.640   2.117 -0.7791 -0.3859 -1.3393
  980SOL    HW3 3693   2.476   5.613   2.072  0.4462  0.4989  1.7269
  980SOL    MW4 3694   2.409   5.667   2.083  0.0019 -0.7707 -0.5749
  981SOL     OW 3695   1.003   0.845   3.270  0.4696  0.3806  0.6788
  981SOL    HW2 3696   1.021   0.849   3.176 -3.0941  0.3357 -0.1417
  981SOL    HW3 3697   1.065   0.907   3.309  2.4742 -0.0574 -1.5409
  981SOL    MW4 3698   1.014   0.853   3.262 -0.8843 -0.0836  0.0977
  982SOL     OW 3699   2.580   4.470   5.098  0.1864 -0.0418 -0.3134
  982SOL    HW2 3700   2.659   4.486   5.046  0.3313 -0.6397 -0.2868
  982SOL    HW3 3701   2.523   4.545   5.079  1.1107  0.8650  0.3508
  982SOL    MW4 3702   2.583   4.482   5.089  0.0499  0.0315 -0.1640
  983SOL     OW 3703   0.564   3.289   5.206  0.5513  0.0910 -0.6670
  983SOL    HW2 3704   0.505   3.349   5.162 -0.2615  0.0704  0.3655
  983SOL    HW3 3705   0.539   3.202   5.173 -2.4391 -0.3528  2.2593
  983SOL    MW4 3706   0.553   3.285   5.196  0.0238  0.2012 -0.1137
  984SOL     OW 3707   3.297   2.972   0.574 -0.3689 -0.3387  0.3640
  984SOL    HW2 3708   3.232   3.041   0.588  0.9855  1.1828 -0.5080
  984SOL    HW3 3709   3.287   2.948   0.482  1.6557  1.4650 -0.4141
  984SOL    MW4 3710   3.287   2.978   0.564 -0.3452  0.0662  0.3181
  985SOL     OW 3711   3.022   5.434   5.629  0.3115  0.4135 -0.0553
  985SOL    HW2 3712   2.961   5.451   5.557 -0.5375 -0.4997  0.4255
  985SOL    HW3 3713   3.090   5.379   5.591  0.8968  1.4815 -0.6099
  985SOL    MW4 3714   3.023   5.429   5.615  0.0536  0.4162 -0.1091
  986SOL     OW 3715   6.245   0.053   3.450  0.6210  0.0049  0.0493
  986SOL    HW2 3716   6.264   0.035   3.358 -1.7177  0.9800 -0.7127
  986SOL    HW3 3717   6.266   0.146   3.461 -0.5667  0.2813  0.0582
  986SOL    MW4 3718   6.251   0.063   3.440 -0.5308  0.6812  0.6034
  987SOL     OW 3719   3.206   4.061   6.026 -0.1051  0.4239 -0.1976
  987SOL    HW2 3720   3.201   3.966   6.019  1.5783  0.2730  0.2097
  987SOL    HW3 3721   3.125   4.092   5.986 -0.1953 -1.1344 -1.3213
  987SOL    MW4 3722   3.195   4.053   6.020 -0.2089  0.0103 -0.2817
  988SOL     OW 3723   4.829   0.488   4.020 -0.1154  0.4697 -0.1804
  988SOL    HW2 3724   4.856   0.580   4.009  1.1604  0.2198  0.6216
  988SOL    HW3 3725   4.805   0.481   4.112 -1.2498  0.2300 -0.4736
  988SOL    MW4 3726   4.829   0.499   4.030 -0.1721 -0.6588  0.4275
  989SOL     OW 3727   0.404   1.327   0.813 -0.1177  0.1787  0.2359
  989SOL    HW2 3728   0.478   1.380   0.784  0.6829 -1.3351 -0.6560
  989SOL    HW3 3729   0.396   1.344   0.906  2.3752 -0.7454  0.6839
  989SOL    MW4 3730   0.412   1.336   0.821 -0.1072  0.5778  0.2834
  990SOL     OW 3731   4.635   1.762   3.542 -0.0919 -0.1530 -0.4184
  990SOL    HW2 3732   4.614   1.739   3.632 -0.7546  0.4096 -0.4217
  990SOL    HW3 3733   4.613   1.855   3.536 -1.7417 -0.5854 -1.6552
  990SOL    MW4 3734   4.629   1.772   3.553 -0.0346 -0.4136 -0.1596
  991SOL     OW 3735   1.655   5.268   1.195  0.4633  0.1253 -0.3744
  991SOL    HW2 3736   1.727   5.330   1.184  1.4072 -0.9955 -0.7682
  991SOL    HW3 3737   1.657   5.246   1.288 -0.8785  1.8103  0.1077
  991SOL    MW4 3738   1.665   5.273   1.206  0.0030 -0.5189  0.2885
  992SOL     OW 3739   4.820   0.589   0.062  0.3745 -0.0892  0.0101
  992SOL    HW2 3740   4.874   0.638   0.125 -1.1301  1.1234  0.4348
  992SOL    HW3 3741   4.840   0.629  -0.022  1.0906 -0.5324 -0.0397
  992SOL    MW4 3742   4.830   0.601   0.059 -0.3506  0.4462  0.3237
  993SOL     OW 3743   3.787   1.543   5.464 -0.0725 -0.9606 -0.2671
  993SOL    HW2 3744   3.875   1.520   5.493  0.2819 -0.7869 -1.1857
  993SOL    HW3 3745   3.736   1.463   5.477  0.4783 -1.3997 -0.7435
  993SOL    MW4 3746   3.792   1.529   5.469 -0.2029  0.9127  0.6591
  994SOL     OW 3747   4.336   1.139   5.817 -0.1188  0.7152  0.0089
  994SOL    HW2 3748   4.316   1.232   5.801 -0.5644  0.6194  0.0141
  994SOL    HW3 3749   4.254   1.101   5.846  0.3166  0.5540  1.0750
  994SOL    MW4 3750   4.323   1.147   5.819  0.3048 -0.0568 -0.6080
  995SOL     OW 3751   4.435   4.964   1.521 -0.2042 -0.0612 -0.1845
  995SOL    HW2 3752   4.352   4.967   1.473  0.3055 -1.4464 -1.1975
  995SOL    HW3 3753   4.411   4.925   1.606 -1.0718  2.2431  0.7283
  995SOL    MW4 3754   4.421   4.959   1.526 -0.7761 -0.1691  0.3290
  996SOL     OW 3755   1.821   6.240   6.432  0.6375  1.1325 -0.1500
  996SOL    HW2 3756   1.875   6.319   6.435  2.0413  0.2126 -0.2632
  996SOL    HW3 3757   1.866   6.178   6.489 -0.2765  0.2996 -0.3068
  996SOL    MW4 3758   1.834   6.242   6.440  0.6647 -0.2014 -0.1108
  997SOL     OW 3759   1.703   6.356   5.432  0.3640 -0.1844  0.4198
  997SOL    HW2 3760   1.722   6.344   5.339  0.6940  0.9999  0.3237
  997SOL    HW3 3761   1.732   6.274   5.473 -1.4161 -1.4647 -0.7215
  997SOL    MW4 3762   1.709   6.343   5.426 -0.2375  0.5529 -1.1103
  998SOL     OW 3763   3.784   5.734   0.595 -0.0436 -0.1361  0.0152
  998SOL    HW2 3764   3.710   5.791   0.618  1.0458  0.7796  1.4320
  998SOL    HW3 3765   3.784   5.666   0.662  0.3575 -0.1699 -0.0165
  998SOL    MW4 3766   3.774   5.733   0.607  0.6494  0.1666 -0.2192
  999SOL     OW 3767   1.824   3.143   1.968  0.0075  0.5495 -0.5899
  999SOL    HW2 3768   1.833   3.196   2.048  1.9886 -0.7902  0.1623
  999SOL    HW3 3769   1.899   3.169   1.914  0.6180 -0.9515 -0.4968
  999SOL    MW4 3770   1.835   3.154   1.972  0.1592 -0.2606  0.1526
 1000SOL     OW 3771   4.920   0.658   4.276 -0.5552 -0.1080  0.2355
 1000SOL    HW2 3772   4.846   0.691   4.225 -1.1376 -2.3928 -0.5042
 1000SOL    HW3 3773   4.974   0.735   4.292 -1.4183  1.0537 -2.0298
 1000SOL    MW4 3774   4.917   0.672   4.271  0.4072 -0.0580 -0.2270
 1001SOL     OW 3775   4.319   2.485   4.014 -0.1086  0.1427  0.1695
 1001SOL    HW2 3776   4.389   2.476   3.949 -0.3529  0.8394 -0.1971
 1001SOL    HW3 3777   4.342   2.422   4.083  0.1276 -0.6430 -0.6105
 1001SOL    MW4 3778   4.332   2.475   4.014  0.0521 -0.0031 -0.6773
 1002SOL     OW 3779   6.415   5.420   4.441  0.3761  0.0892  0.1714
 1002SOL    HW2 3780   6.350   5.387   4.504 -1.3240 -1.3053 -2.1210
 1002SOL    HW3 3781   6.445   5.341   4.395  0.9956  1.0905 -1.2178
 1002SOL    MW4 3782   6.410   5.405   4.443  0.4374 -0.2645  0.3115
 1003SOL     OW 3783   5.417   4.755   5.462 -0.4699 -0.3837 -0.2238
 1003SOL    HW2 3784   5.392   4.763   5.370 -1.0431 -1.8111 -0.2114
 1003SOL    HW3 3785   5.503   4.796   5.467  0.5753 -2.1999 -1.8830
 1003SOL    MW4 3786   5.425   4.761   5.450  0.3671  0.1514  0.3075
 1004SOL     OW 3787   4.593   2.368   0.656  0.8787 -0.2381  0.3570
 1004SOL    HW2 3788   4.498   2.362   0.639  1.3179 -0.2646 -2.7608
 1004SOL    HW3 3789   4.612   2.293   0.712 -0.8288 -0.7185  0.3742
 1004SOL    MW4 3790   4.583   2.357   0.661  0.1604 -0.8922  0.3169
 1005SOL     OW 3791   1.028   0.440   2.990 -0.0287  0.1957  0.4949
 1005SOL    HW2 3792   1.043   0.365   3.046  0.9721 -1.0364 -1.3108
 1005SOL    HW3 3793   0.975   0.500   3.042 -2.0349 -2.3354  1.5351
 1005SOL    MW4 3794   1.023   0.438   3.004  0.2600 -0.2375  0.6499
 1006SOL     OW 3795   0.130   3.447   5.894  0.1789  0.4777 -0.2558
 1006SOL    HW2 3796   0.037   3.455   5.870 -0.7913  0.8437  3.0717
 1006SOL    HW3 3797   0.157   3.363   5.859 -1.8385 -0.2505 -0.1988
 1006SOL    MW4 3798   0.121   3.437   5.886 -0.1338  0.0036 -0.3154
 1007SOL     OW 3799   1.945   6.394   4.367 -0.2546  0.4283 -0.2651
 1007SOL    HW2 3800   1.978   6.477   4.403  0.6466 -0.2910  0.6315
 1007SOL    HW3 3801   2.002   6.327   4.405 -1.4969 -0.6914 -0.2954
 1007SOL    MW4 3802   1.957   6.396   4.377 -0.5669 -0.2957 -0.2776
 1008SOL     OW 3803   3.829   4.168   2.586  0.3417  0.0140  0.5600
 1008SOL    HW2 3804   3.735   4.176   2.566  0.4162  1.8185  0.7460
 1008SOL    HW3 3805   3.831   4.130   2.674 -0.1762 -0.9722  0.1629
 1008SOL    MW4 3806   3.817   4.164   2.595  0.2299  0.2343 -0.1230
 1009SOL     OW 3807   4.081   0.062   5.481 -0.5297  1.1173 -0.1452
 1009SOL    HW2 3808   4.063   0.043   5.389 -2.9827  1.6502  0.1545
 1009SOL    HW3 3809   4.140  -0.008   5.509  1.5929  1.8064 -2.4626
 1009SOL    MW4 3810   4.087   0.050   5.473  0.3439  0.6235  0.2168
 1010SOL     OW 3811   2.842   3.606   1.676 -0.4978  0.0489 -0.3947
 1010SOL    HW2 3812   2.792   3.539   1.630  0.4138 -1.0766  0.2074
 1010SOL    HW3 3813   2.857   3.674   1.610 -2.7922  0.4506 -0.5988
 1010SOL    MW4 3814   2.837   3.606   1.661  0.8104 -0.4209  0.7515
 1011SOL     OW 3815   1.867   0.295   5.483  0.1790 -0.0047 -0.1703
 1011SOL    HW2 3816   1.954   0.259   5.500  1.0279  1.6797 -0.6886
 1011SOL    HW3 3817   1.847   0.270   5.393 -0.8314 -2.1428  0.5755
 1011SOL    MW4 3818   1.876   0.287   5.474  0.4918 -0.0863 -0.3772
 1012SOL     OW 3819   1.260   5.265   3.649 -0.1431 -0.0595  0.3044
 1012SOL    HW2 3820   1.317   5.315   3.591 -0.3484 -0.0859  0.0769
 1012SOL    HW3 3821   1.171   5.293   3.626 -0.2312 -0.1434  0.5368
 1012SOL    MW4 3822   1.255   5.275   3.638  0.2893 -0.1394  0.0557
 1013SOL     OW 3823   0.563   3.700   1.726 -0.2820 -0.6899  0.7858
 1013SOL    HW2 3824   0.546   3.677   1.818  1.9684 -1.2725  1.1254
 1013SOL    HW3 3825   0.606   3.622   1.690 -1.6118 -0.6745 -0.9546
 1013SOL    MW4 3826   0.567   3.687   1.734 -0.3837 -0.2462  0.0187
 1014SOL     OW 3827   3.627   2.097   4.547  0.0255 -0.0378  0.3778
 1014SOL    HW2 3828   3.687   2.038   4.592  0.7340  0.9089  0.7001
 1014SOL    HW3 3829   3.630   2.178   4.598  0.5035  0.9183 -1.0950
 1014SOL    MW4 3830   3.635   2.100   4.560  0.0112  0.1677  0.6002
 1015SOL     OW 3831   3.302   5.825   1.586  0.0795 -0.1204  0.2893
 1015SOL    HW2 3832   3.284   5.919   1.583  0.0121 -0.1606 -0.7123
 1015SOL    HW3 3833   3.387   5.818   1.629  0.5790  0.4772 -0.5711
 1015SOL    MW4 3834   3.311   5.836   1.591  0.9873 -0.1627 -0.1166
 1016SOL     OW 3835   2.025   2.677   6.297  0.0466  0.4143  0.0463
 1016SOL    HW2 3836   1.963   2.708   6.363  0.5399 -0.2910  0.8491
 1016SOL    HW3 3837   2.103   2.652   6.346 -0.8190 -3.6115 -0.3184
 1016SOL    MW4 3838   2.027   2.678   6.312  0.0697  0.1502 -0.4386
 1017SOL     OW 3839   2.923   3.178   4.616  0.0249 -0.0445 -0.0801
 1017SOL    HW2 3840   2.897   3.087   4.622 -1.6402  0.4471  0.6615
 1017SOL    HW3 3841   2.882   3.221   4.692  1.1084  1.2407 -0.1753
 1017SOL    MW4 3842   2.914   3.172   4.627 -1.1174 -0.4072 -0.1048
 1018SOL     OW 3843   2.863   0.917   3.905  0.1585 -0.1761  0.4651
 1018SOL    HW2 3844   2.805   0.982   3.945 -0.9072  0.8178 -2.4460
 1018SOL    HW3 3845   2.804   0.862   3.853  1.2139 -2.6748  1.7257
 1018SOL    MW4 3846   2.847   0.918   3.903 -0.3593  0.7461 -0.5905
 1019SOL     OW 3847   5.709   5.584   3.920 -0.5736  0.2907 -0.1475
 1019SOL    HW2 3848   5.724   5.637   3.998  1.4415 -1.6878  0.9178
 1019SOL    HW3 3849   5.704   5.647   3.848 -0.0436  2.0159  1.2586
 1019SOL    MW4 3850   5.710   5.599   3.921 -0.1666 -0.2616  0.1416
 1020SOL     OW 3851   3.757   1.690   2.732  0.2011 -0.3910 -0.1063
 1020SOL    HW2 3852   3.788   1.663   2.645  0.6054 -0.1283 -0.0440
 1020SOL    HW3 3853   3.836   1.693   2.786 -0.0392 -0.4804  0.2543
 1020SOL    MW4 3854   3.771   1.687   2.728 -0.1079 -0.0680  0.1280
 1021SOL     OW 3855   1.862   6.009   1.784 -0.4536  0.0408 -0.1395
 1021SOL    HW2 3856   1.810   6.045   1.712 -0.3323  0.9884  0.2298
 1021SOL    HW3 3857   1.906   6.085   1.822 -0.1065 -0.5198  0.6025
 1021SOL    MW4 3858   1.861   6.024   1.780 -0.1090 -0.5304 -0.1084
 1022SOL     OW 3859   0.253   6.034   5.709 -0.1422  0.3414  0.1217
 1022SOL    HW2 3860   0.304   5.954   5.702 -2.8335 -1.3601 -2.1239
 1022SOL    HW3 3861   0.179   6.011   5.765  0.1421  1.9758  1.2572
 1022SOL    MW4 3862   0.250   6.020   5.716  0.0220  0.1919  0.1493
 1023SOL     OW 3863   2.995   4.001   4.517 -0.7655 -0.0333  0.0580
 1023SOL    HW2 3864   2.997   4.063   4.444 -1.5007  0.6196  0.5916
 1023SOL    HW3 3865   2.919   3.946   4.499  0.2590 -1.2455 -0.7675
 1023SOL    MW4 3866   2.985   4.002   4.505  0.4376 -0.2925 -0.0282
 1024SOL     OW 3867   2.996   1.447   3.581 -0.3222  0.1694  0.5978
 1024SOL    HW2 3868   3.060   1.505   3.623 -0.2820  0.8042 -0.3137
 1024SOL    HW3 3869   2.993   1.476   3.490 -0.3688 -1.2073  0.1350
 1024SOL    MW4 3870   3.004   1.458   3.575  0.2633 -0.6021  0.6329
 1025SOL     OW 3871   1.307   0.911   0.650 -0.0582  0.3587  0.0611
 1025SOL    HW2 3872   1.261   0.831   0.621 -0.1336  0.6093 -0.5362
 1025SOL    HW3 3873   1.292   0.973   0.579  0.5734  0.6891  0.2141
 1025SOL    MW4 3874   1.299   0.908   0.637 -0.3000  0.6063  0.0617
 1026SOL     OW 3875   5.621   5.672   0.327  0.1677 -0.3080  0.0821
 1026SOL    HW2 3876   5.618   5.636   0.238  1.1462 -0.6040  0.1660
 1026SOL    HW3 3877   5.612   5.596   0.384  2.4740 -0.5062  0.2650
 1026SOL    MW4 3878   5.619   5.658   0.322  0.0376 -0.4467 -0.1063
 1027SOL     OW 3879   5.905   1.339   5.127  0.7161  0.5800 -0.6021
 1027SOL    HW2 3880   5.850   1.262   5.145  2.2457 -1.0802 -2.4807
 1027SOL    HW3 3881   5.895   1.353   5.033  1.5277  1.8408 -0.5166
 1027SOL    MW4 3882   5.896   1.330   5.117 -0.8113  0.2515  0.5568
 1028SOL     OW 3883   5.710   0.412   6.423  0.5784  0.4545  0.2414
 1028SOL    HW2 3884   5.674   0.497   6.399 -1.0907 -1.0275 -3.1567
 1028SOL    HW3 3885   5.786   0.402   6.366  0.5657 -0.4570  0.3787
 1028SOL    MW4 3886   5.715   0.422   6.412 -0.4286 -0.3945  0.1223
 1029SOL     OW 3887   5.503   0.389   0.314 -0.1558 -0.7724  0.5189
 1029SOL    HW2 3888   5.596   0.405   0.303  0.0049 -1.3188  1.0405
 1029SOL    HW3 3889   5.497   0.297   0.339 -0.7992 -0.6304  0.9180
 1029SOL    MW4 3890   5.514   0.379   0.316  0.3321  0.2903  0.2029
 1030SOL     OW 3891   4.981   1.593   5.947  0.3575  0.5240  0.8223
 1030SOL    HW2 3892   5.064   1.628   5.914  0.8297  0.0682  1.5124
 1030SOL    HW3 3893   4.977   1.504   5.911 -1.0059  1.3452 -1.2186
 1030SOL    MW4 3894   4.992   1.586   5.938  0.3934  0.4948  0.5651
 1031SOL     OW 3895   3.002   1.072   3.690  0.0131 -0.5321 -0.8026
 1031SOL    HW2 3896   2.962   1.007   3.748 -0.8911 -0.1693 -1.0146
 1031SOL    HW3 3897   2.992   1.155   3.736  1.6220 -0.5810 -0.3001
 1031SOL    MW4 3898   2.995   1.074   3.704 -0.3415  0.8915  0.1022
 1032SOL     OW 3899   2.989   0.559   0.046 -0.4378  0.1744 -1.2211
 1032SOL    HW2 3900   2.940   0.552   0.128  3.4417  1.0864  1.4586
 1032SOL    HW3 3901   2.939   0.621  -0.006 -2.3588  0.7234  1.0899
 1032SOL    MW4 3902   2.976   0.566   0.050 -0.0431  0.2170 -0.4506
 1033SOL     OW 3903   5.844   1.955   1.469  0.2066  0.1115  0.1980
 1033SOL    HW2 3904   5.820   2.023   1.531  2.3094  0.7428  0.4152
 1033SOL    HW3 3905   5.801   1.980   1.387 -1.1862  0.2123  0.9395
 1033SOL    MW4 3906   5.835   1.967   1.466 -0.1932  0.3662  1.3191
 1034SOL     OW 3907   5.445   4.051   4.274  0.0534  0.3422  0.2304
 1034SOL    HW2 3908   5.378   4.017   4.332  1.5736 -2.1059  0.6977
 1034SOL    HW3 3909   5.481   3.974   4.231  1.5665  1.7118 -1.1099
 1034SOL    MW4 3910   5.441   4.037   4.276 -0.0406 -0.1371  0.0461
 1035SOL     OW 3911   6.344   0.678   4.049  0.4891  0.7549 -0.4637
 1035SOL    HW2 3912   6.425   0.627   4.052 -0.4251 -0.9066 -1.9022
 1035SOL    HW3 3913   6.368   0.759   4.004  1.6144  0.8936  0.3445
 1035SOL    MW4 3914   6.358   0.682   4.043 -0.1211 -0.5635 -0.7980
 1036SOL     OW 3915   1.587   2.779   5.710  0.2834 -0.1093  0.4801
 1036SOL    HW2 3916   1.556   2.718   5.777  1.1411 -0.1150  0.8829
 1036SOL    HW3 3917   1.682   2.783   5.723  0.2908  1.0006  0.1971
 1036SOL    MW4 3918   1.595   2.771   5.721  0.0340  0.1637  0.1670
 1037SOL     OW 3919   2.768   1.871   3.152 -0.1809 -0.3992  0.2724
 1037SOL    HW2 3920   2.780   1.911   3.066 -0.1161  0.8103  0.8277
 1037SOL    HW3 3921   2.771   1.944   3.213 -3.8240 -0.7147  1.0501
 1037SOL    MW4 3922   2.770   1.886   3.148 -0.1864 -0.5931 -0.3743
 1038SOL     OW 3923   0.016   4.585   1.978 -0.2432  0.1614  0.6811
 1038SOL    HW2 3924   0.096   4.560   2.024  0.3054 -0.6083 -0.6316
 1038SOL    HW3 3925   0.046   4.618   1.893 -1.3427 -1.5909 -0.4626
 1038SOL    MW4 3926   0.030   4.586   1.973 -0.6684 -0.1582  0.0183
 1039SOL     OW 3927   0.171   2.155   3.180 -0.2414  0.1135  0.5175
 1039SOL    HW2 3928   0.248   2.099   3.178  1.2261  1.9254  1.8906
 1039SOL    HW3 3929   0.157   2.181   3.089  1.7054  0.8623  0.3676
 1039SOL    MW4 3930   0.179   2.151   3.168 -0.2775 -0.0531 -0.7229
 1040SOL     OW 3931   2.419   3.406   5.670  0.4021 -0.1733 -0.2744
 1040SOL    HW2 3932   2.358   3.479   5.656  0.3947 -0.3142 -1.0044
 1040SOL    HW3 3933   2.399   3.345   5.599 -0.3873 -1.4390  0.9721
 1040SOL    MW4 3934   2.408   3.408   5.659  0.0722 -0.1783  0.0961
 1041SOL     OW 3935   0.503   6.147   6.360 -0.0167 -0.3473  1.0837
 1041SOL    HW2 3936   0.429   6.197   6.395 -0.5773 -1.3359  1.3308
 1041SOL    HW3 3937   0.495   6.060   6.399  1.3163 -0.4630  1.1603
 1041SOL    MW4 3938   0.493   6.142   6.369 -0.2939  0.3029  0.4507
 1042SOL     OW 3939   5.221   4.602   3.871 -0.0716 -0.2856 -0.5573
 1042SOL    HW2 3940   5.147   4.553   3.835  0.7942 -0.6305 -1.9259
 1042SOL    HW3 3941   5.298   4.555   3.841  0.8039  1.8411 -1.8850
 1042SOL    MW4 3942   5.221   4.590   3.863  0.4836  0.2856 -0.5089
 1043SOL     OW 3943   2.129   5.904   0.436 -0.4744 -0.2041 -0.0765
 1043SOL    HW2 3944   2.109   5.954   0.358  0.1928 -0.3315 -0.3396
 1043SOL    HW3 3945   2.100   5.960   0.509 -2.9395 -0.9250 -0.4297
 1043SOL    MW4 3946   2.123   5.918   0.435  0.2390 -0.1436 -0.1631
 1044SOL     OW 3947   2.121   6.070   3.140  0.1475  0.2105 -0.1216
 1044SOL    HW2 3948   2.063   6.047   3.213  1.4889 -0.7257  0.6926
 1044SOL    HW3 3949   2.207   6.084   3.181  0.9048 -0.2081 -1.5047
 1044SOL    MW4 3950   2.125   6.069   3.155 -0.0351  0.4485  0.2351
 1045SOL     OW 3951   3.581   3.989   1.925 -0.0173 -0.0628 -0.2389
 1045SOL    HW2 3952   3.534   3.918   1.881  1.5770 -1.6825  0.5513
 1045SOL    HW3 3953   3.667   3.953   1.943 -0.1682  0.9294  3.1401
 1045SOL    MW4 3954   3.586   3.975   1.921  0.1947 -0.2499  0.0268
 1046SOL     OW 3955   4.974   3.175   2.867 -0.4566  0.3711  0.3295
 1046SOL    HW2 3956   4.929   3.259   2.875 -1.6590 -0.2558  0.3443
 1046SOL    HW3 3957   5.065   3.198   2.848 -0.3655  1.7092  2.1083
 1046SOL    MW4 3958   4.980   3.189   2.866 -0.0396  0.5529 -0.1593
 1047SOL     OW 3959   2.496   0.436   0.095 -0.3916 -0.5988  0.6095
 1047SOL    HW2 3960   2.456   0.461   0.178 -0.0186 -0.3524  0.7170
 1047SOL    HW3 3961   2.427   0.451   0.030 -0.8540 -1.2741  0.9305
 1047SOL    MW4 3962   2.481   0.441   0.098  0.4960 -0.3257 -0.6175
 1048SOL     OW 3963   2.531   0.772   0.084  0.0422  0.0454  0.0039
 1048SOL    HW2 3964   2.532   0.822   0.166 -1.2697  0.4665 -0.2183
 1048SOL    HW3 3965   2.440   0.774   0.056 -0.6077 -4.2231  1.0606
 1048SOL    MW4 3966   2.519   0.779   0.091 -0.4466 -0.0221  0.2387
 1049SOL     OW 3967   2.760   3.193   6.409  0.7440 -0.2244 -0.5649
 1049SOL    HW2 3968   2.707   3.226   6.482  1.3636  0.3886 -0.3842
 1049SOL    HW3 3969   2.773   3.101   6.430 -0.0646 -0.3376 -0.5029
 1049SOL    MW4 3970   2.755   3.185   6.421 -0.2319 -0.0495 -0.0550
 1050SOL     OW 3971   5.508   3.865   0.315  0.0999  0.1365 -0.0232
 1050SOL    HW2 3972   5.548   3.800   0.372 -0.2880  0.6436  0.8447
 1050SOL    HW3 3973   5.414   3.859   0.334 -0.1466 -0.3247 -1.2803
 1050SOL    MW4 3974   5.501   3.856   0.325 -0.0388  0.3894 -0.0211
 1051SOL     OW 3975   2.833   3.587   2.198 -0.2200  0.1822  0.0857
 1051SOL    HW2 3976   2.776   3.634   2.259 -0.6386 -0.3209  0.0904
 1051SOL    HW3 3977   2.849   3.650   2.127  0.0305  0.6687  0.5621
 1051SOL    MW4 3978   2.828   3.602   2.197 -0.0159  0.3753 -0.2000
 1052SOL     OW 3979   4.721   3.064   4.679  0.4052  1.0090 -0.0685
 1052SOL    HW2 3980   4.659   3.076   4.752  0.9766  2.3386  0.2292
 1052SOL    HW3 3981   4.688   2.988   4.633 -0.7335  0.9198  0.8259
 1052SOL    MW4 3982   4.708   3.056   4.683 -0.4399 -0.2207  0.8115
 1053SOL     OW 3983   4.698   2.524   4.451  0.3321 -0.0801  0.1910
 1053SOL    HW2 3984   4.607   2.551   4.440  0.2368 -0.5096 -0.0726
 1053SOL    HW3 3985   4.693   2.431   4.472  0.7472 -0.2916 -0.6108
 1053SOL    MW4 3986   4.685   2.515   4.453  0.3647  0.0103  0.3557
 1054SOL     OW 3987   0.029   4.065   5.330  0.0486  0.2286  0.6343
 1054SOL    HW2 3988  -0.049   4.009   5.336  0.6816 -0.6081  1.3381
 1054SOL    HW3 3989   0.085   4.036   5.403  1.2019  0.5224 -0.1064
 1054SOL    MW4 3990   0.026   4.054   5.341 -0.3200  0.1233 -0.2560
 1055SOL     OW 3991   5.552   0.427   1.959 -0.2147 -0.2985  0.7518
 1055SOL    HW2 3992   5.594   0.354   2.004 -1.3739 -0.6071  1.3829
 1055SOL    HW3 3993   5.536   0.395   1.871  0.4844 -0.3203  0.6269
 1055SOL    MW4 3994   5.555   0.413   1.953 -0.2320 -0.3267  0.1212
 1056SOL     OW 3995   5.519   0.685   3.017  0.3862  0.0443 -0.0452
 1056SOL    HW2 3996   5.586   0.628   3.054 -0.0138 -1.0362 -0.9129
 1056SOL    HW3 3997   5.567   0.764   2.991  0.8996  0.2639  1.4470
 1056SOL    MW4 3998   5.534   0.688   3.018  0.1521 -0.5119 -0.2747
 1057SOL     OW 3999   0.079   4.800   5.071  0.2260  0.4165 -0.0309
 1057SOL    HW2 4000   0.001   4.833   5.026 -0.3109 -1.2043 -0.3648
 1057SOL    HW3 4001   0.090   4.858   5.146 -1.4034  0.6037  0.1137
 1057SOL    MW4 4002   0.070   4.812   5.075 -0.3540 -0.2252 -1.0964
 1058SOL     OW 4003   3.872   2.639   1.851 -0.1124 -0.6604  0.0939
 1058SOL    HW2 4004   3.909   2.569   1.905 -0.5791 -0.8668  0.1522
 1058SOL    HW3 4005   3.932   2.713   1.863  0.0832 -0.8755  0.4680
 1058SOL    MW4 4006   3.885   2.640   1.860  0.2183 -0.0635 -0.1865
 1059SOL     OW 4007   5.052   1.131   4.288  0.4418  0.5442  0.3256
 1059SOL    HW2 4008   5.012   1.216   4.308 -0.1287  0.4001 -0.1934
 1059SOL    HW3 4009   5.133   1.131   4.339  0.6916  1.6036 -0.0366
 1059SOL    MW4 4010   5.057   1.142   4.297 -0.7471  0.4191 -0.1070
 1060SOL     OW 4011   5.929   0.538   1.943  0.2219  0.3998 -0.0834
 1060SOL    HW2 4012   5.973   0.620   1.967  0.8157  0.2790 -0.7111
 1060SOL    HW3 4013   5.873   0.562   1.869  0.7506  0.1580 -0.5732
 1060SOL    MW4 4014   5.927   0.552   1.936 -0.1378 -0.2568 -0.1841
 1061SOL     OW 4015   5.051   0.423   0.981  0.3223 -0.1015 -0.1650
 1061SOL    HW2 4016   5.018   0.510   0.960  1.4942  0.5582  0.6679
 1061SOL    HW3 4017   5.099   0.396   0.903 -1.8272 -0.9633 -1.2937
 1061SOL    MW4 4018   5.053   0.431   0.968  0.4081 -0.3240  0.0486
 1062SOL     OW 4019   2.247   1.374   5.497 -0.2509 -0.0818  0.2896
 1062SOL    HW2 4020   2.267   1.466   5.511  0.2112 -0.3163  1.3207
 1062SOL    HW3 4021   2.331   1.332   5.480 -0.4539 -0.3201 -0.1555
 1062SOL    MW4 4022   2.261   1.380   5.497  0.0023 -0.3997  0.3237
 1063SOL     OW 4023   0.051   3.157   0.697 -0.4558  0.1575  0.0379
 1063SOL    HW2 4024   0.080   3.239   0.738 -0.7790  0.4311 -0.2723
 1063SOL    HW3 4025  -0.006   3.185   0.626  0.8951 -0.2822 -1.2611
 1063SOL    MW4 4026   0.047   3.172   0.693 -0.7013  0.1455 -0.0222
 1064SOL     OW 4027   1.119   2.861   5.891 -0.6404 -0.2249  0.0511
 1064SOL    HW2 4028   1.111   2.918   5.967  0.4816 -1.6769  1.3217
 1064SOL    HW3 4029   1.069   2.905   5.822 -1.1216  1.4638  1.4218
 1064SOL    MW4 4030   1.111   2.874   5.892 -0.2701  0.1819  0.3293
 1065SOL     OW 4031   3.848   1.412   6.140  0.7958 -0.0955 -0.2109
 1065SOL    HW2 4032   3.780   1.424   6.206  1.1599 -0.7360  0.3002
 1065SOL    HW3 4033   3.826   1.473   6.070 -0.4546 -0.5026 -0.1838
 1065SOL    MW4 4034   3.836   1.421   6.140 -0.3465 -0.0072 -0.0016
 1066SOL     OW 4035   4.143   5.338   2.959 -0.4908  0.0284 -0.4049
 1066SOL    HW2 4036   4.100   5.421   2.980 -0.1095  0.7201 -2.1729
 1066SOL    HW3 4037   4.114   5.317   2.871 -0.5006 -1.6958 -0.0277
 1066SOL    MW4 4038   4.134   5.346   2.951 -0.1583  0.5569  0.2683
 1067SOL     OW 4039   3.292   5.708   4.662  0.2725  0.2105 -0.2908
 1067SOL    HW2 4040   3.339   5.749   4.734  1.7417 -1.0932 -0.4609
 1067SOL    HW3 4041   3.294   5.614   4.683 -2.4019  0.0825 -0.2440
 1067SOL    MW4 4042   3.298   5.701   4.674 -0.1383 -0.1986 -0.1656
 1068SOL     OW 4043   1.843   0.484   2.711 -0.6869 -0.3852 -0.1831
 1068SOL    HW2 4044   1.780   0.536   2.761  0.0215  0.7207 -0.3948
 1068SOL    HW3 4045   1.924   0.490   2.762 -0.7889 -1.9885  0.2083
 1068SOL    MW4 4046   1.845   0.492   2.724 -0.0119 -0.4958 -0.0343
 1069SOL     OW 4047   2.925   1.604   4.862  0.2301  0.5063 -0.0259
 1069SOL    HW2 4048   2.981   1.602   4.785  0.1563  2.2998 -0.1790
 1069SOL    HW3 4049   2.866   1.679   4.846  0.3639  1.0540  1.8526
 1069SOL    MW4 4050   2.925   1.614   4.850 -0.0767 -0.2511 -0.7879
 1070SOL     OW 4051   4.901   0.706   6.048 -0.6380  0.0880  0.4829
 1070SOL    HW2 4052   4.876   0.616   6.068 -0.8852 -0.0764 -0.5144
 1070SOL    HW3 4053   4.958   0.699   5.971 -0.7538  0.7877  0.3233
 1070SOL    MW4 4054   4.905   0.693   6.041 -0.0141 -0.4414 -0.0607
 1071SOL     OW 4055   0.399   2.795   3.495  0.0647 -0.5982 -0.3315
 1071SOL    HW2 4056   0.396   2.849   3.574  0.4268 -1.4564  0.2941
 1071SOL    HW3 4057   0.313   2.754   3.490 -0.3409  0.3153 -1.0205
 1071SOL    MW4 4058   0.387   2.796   3.505  0.6995  0.1443  0.0133
 1072SOL     OW 4059   2.935   5.188   2.315 -0.1158 -0.2991  0.3752
 1072SOL    HW2 4060   2.854   5.172   2.267 -0.1371  0.6769  0.0531
 1072SOL    HW3 4061   2.909   5.244   2.388  0.3841  0.6930 -0.1920
 1072SOL    MW4 4062   2.921   5.193   2.318  0.3498  0.1778 -0.2509
 1073SOL     OW 4063   0.692   3.504   1.041  0.5562 -0.3691  0.3731
 1073SOL    HW2 4064   0.726   3.445   0.974  0.8438  0.9965 -0.7233
 1073SOL    HW3 4065   0.758   3.572   1.049 -1.1873  1.5572 -0.7388
 1073SOL    MW4 4066   0.705   3.505   1.033  0.7110 -0.1972 -0.1620
 1074SOL     OW 4067   2.371   4.674   5.011  0.4093 -0.3056 -0.4514
 1074SOL    HW2 4068   2.435   4.720   4.957  1.0447  0.9137  1.2269
 1074SOL    HW3 4069   2.327   4.614   4.951  1.9223  0.0699 -2.0196
 1074SOL    MW4 4070   2.373   4.672   4.996  0.1151  0.0868 -0.7469
 1075SOL     OW 4071   3.152   2.710   6.200 -0.3157  0.1582  0.6675
 1075SOL    HW2 4072   3.214   2.742   6.134 -3.0514  0.2696 -2.1071
 1075SOL    HW3 4073   3.145   2.781   6.264  0.9965  0.8906  0.0263
 1075SOL    MW4 4074   3.159   2.723   6.200  0.2230  0.5647 -0.3660
 1076SOL     OW 4075   2.816   1.800   0.577 -0.5377  0.2373 -0.4174
 1076SOL    HW2 4076   2.881   1.778   0.510 -1.3210  0.8540 -1.4017
 1076SOL    HW3 4077   2.762   1.868   0.538 -0.7187  0.9837  1.0384
 1076SOL    MW4 4078   2.817   1.806   0.563 -0.0200 -0.4784 -0.5630
 1077SOL     OW 4079   0.024   3.160   1.030  0.0727 -0.3467  0.3216
 1077SOL    HW2 4080   0.013   3.086   0.970  1.3530  0.2532 -0.7039
 1077SOL    HW3 4081   0.096   3.134   1.086  0.1068 -0.1408  0.3732
 1077SOL    MW4 4082   0.032   3.147   1.029  0.3787  0.0677  0.3136
 1078SOL     OW 4083   5.447   1.965   4.416 -0.2351  0.2133 -0.1847
 1078SOL    HW2 4084   5.407   1.965   4.329 -0.2166  2.1219 -0.2458
 1078SOL    HW3 4085   5.511   2.036   4.412  0.5187 -0.3649  1.0767
 1078SOL    MW4 4086   5.450   1.974   4.404 -0.1826 -0.1574  0.3025
 1079SOL     OW 4087   4.523   4.293   2.487  0.1885  0.4361  0.2087
 1079SOL    HW2 4088   4.603   4.279   2.537  1.5171 -1.0056 -2.1591
 1079SOL    HW3 4089   4.540   4.370   2.434  0.5429 -0.5545 -1.1774
 1079SOL    MW4 4090   4.536   4.301   2.487 -0.3113  0.2221 -0.0212
 1080SOL     OW 4091   0.274   2.854   0.074 -0.2797  0.0381  0.6168
 1080SOL    HW2 4092   0.187   2.815   0.077 -0.5152  0.2208 -1.8451
 1080SOL    HW3 4093   0.308   2.830  -0.012  1.9537  0.3373  1.3599
 1080SOL    MW4 4094   0.267   2.846   0.063 -0.3611  0.9363 -0.2447
 1081SOL     OW 4095   0.791   5.319   6.282  0.3182 -0.3988 -0.2266
 1081SOL    HW2 4096   0.699   5.321   6.257  0.4139  1.0409 -0.5585
 1081SOL    HW3 4097   0.820   5.230   6.262 -0.8430 -0.6928 -0.6723
 1081SOL    MW4 4098   0.783   5.307   6.276 -0.2387  0.1218 -0.2288
 1082SOL     OW 4099   3.820   5.531   5.714 -0.2874  0.1408 -0.3770
 1082SOL    HW2 4100   3.861   5.480   5.644 -0.4373  1.5431 -1.5335
 1082SOL    HW3 4101   3.870   5.509   5.793  0.5232 -0.7089 -1.1036
 1082SOL    MW4 4102   3.832   5.521   5.715  0.0260  0.6003  0.5249
 1083SOL     OW 4103   0.147   1.818   3.270 -0.5422  0.1565  0.6210
 1083SOL    HW2 4104   0.094   1.821   3.190 -1.6717  1.3276  1.3721
 1083SOL    HW3 4105   0.217   1.882   3.254 -1.4625  1.3004  0.9972
 1083SOL    MW4 4106   0.149   1.827   3.257  0.1062  0.3423 -0.3198
 1084SOL     OW 4107   3.306   3.198   3.094 -0.1353  0.5308 -0.3576
 1084SOL    HW2 4108   3.244   3.217   3.164  0.5170 -0.1505  0.4243
 1084SOL    HW3 4109   3.376   3.263   3.107  0.2469  0.0602 -0.0324
 1084SOL    MW4 4110   3.307   3.209   3.105  0.1894  0.2084 -0.2865
 1085SOL     OW 4111   2.863   2.163   0.545  0.1550 -0.7129  0.2025
 1085SOL    HW2 4112   2.830   2.238   0.595  1.8161 -1.2046  2.1641
 1085SOL    HW3 4113   2.793   2.144   0.482 -1.1659  1.2248  0.9898
 1085SOL    MW4 4114   2.849   2.170   0.543  0.6620 -0.0524  0.8444
 1086SOL     OW 4115   0.593   0.019   2.752  0.1239  0.9199 -0.5649
 1086SOL    HW2 4116   0.600   0.040   2.659 -1.0499  0.6882 -0.7216
 1086SOL    HW3 4117   0.547  -0.065   2.755  0.9825  0.4614  0.2005
 1086SOL    MW4 4118   0.588   0.011   2.740 -0.3470 -0.5561 -0.2652
 1087SOL     OW 4119   1.418   3.719   6.065 -0.0700  0.2899 -0.5019
 1087SOL    HW2 4120   1.506   3.721   6.104  0.1301  1.7542 -0.9558
 1087SOL    HW3 4121   1.362   3.683   6.134  0.1972  3.1801  1.3886
 1087SOL    MW4 4122   1.423   3.714   6.080  0.7109  0.2612  0.1275
 1088SOL     OW 4123   6.300   4.457   6.350 -0.0353  0.2825  0.1119
 1088SOL    HW2 4124   6.238   4.461   6.277 -0.4520  1.8256  0.5156
 1088SOL    HW3 4125   6.381   4.494   6.315 -0.3862  1.5136  0.5384
 1088SOL    MW4 4126   6.302   4.462   6.336 -0.2244  0.2898 -0.1277
 1089SOL     OW 4127   1.678   0.660   2.868 -0.3885  0.3907  0.4842
 1089SOL    HW2 4128   1.624   0.739   2.876 -0.6497  0.0938  1.9596
 1089SOL    HW3 4129   1.629   0.592   2.914  0.9599 -0.0126  1.4095
 1089SOL    MW4 4130   1.665   0.662   2.875 -0.3991  0.5553 -0.3540
 1090SOL     OW 4131   3.945   0.902   5.148 -0.4162  0.1495  0.7835
 1090SOL    HW2 4132   3.952   0.997   5.142 -2.3672  0.4805  2.5978
 1090SOL    HW3 4133   3.875   0.887   5.211 -2.0862 -2.4942 -1.4598
 1090SOL    MW4 4134   3.936   0.912   5.155  0.1563  0.2786 -0.2268
 1091SOL     OW 4135   3.322   1.998   0.448 -0.0293 -0.2679  0.2639
 1091SOL    HW2 4136   3.231   2.029   0.456  0.4412  1.4246 -0.3475
 1091SOL    HW3 4137   3.355   1.999   0.538  0.0478  1.3909  0.2460
 1091SOL    MW4 4138   3.314   2.003   0.461 -0.0014  0.2628 -0.0448
 1092SOL     OW 4139   5.239   0.675   5.188  0.1623  0.1411  0.2819
 1092SOL    HW2 4140   5.223   0.592   5.232 -1.2237  0.2862  0.1083
 1092SOL    HW3 4141   5.185   0.739   5.235 -0.3519  0.5408 -0.8136
 1092SOL    MW4 4142   5.230   0.673   5.200 -0.2259 -0.3583  0.4852
 1093SOL     OW 4143   3.864   1.272   3.163 -0.3048 -0.3495 -0.0652
 1093SOL    HW2 4144   3.795   1.336   3.147  0.9454  1.2999  0.9471
 1093SOL    HW3 4145   3.871   1.266   3.258  1.3045 -0.0421 -0.1316
 1093SOL    MW4 4146   3.856   1.280   3.173  0.5042  0.4642  0.5596
 1094SOL     OW 4147   5.989   1.881   3.962  0.0895  0.2880  0.4145
 1094SOL    HW2 4148   6.024   1.854   4.047  0.2101  0.1417  0.3189
 1094SOL    HW3 4149   5.937   1.806   3.933 -0.4779  0.5821  0.6521
 1094SOL    MW4 4150   5.987   1.868   3.969 -0.3562 -0.4558 -0.0782
 1095SOL     OW 4151   6.210   0.816   3.149 -0.0068 -0.2556 -0.3400
 1095SOL    HW2 4152   6.218   0.850   3.060  0.9512 -0.2539 -0.2558
 1095SOL    HW3 4153   6.284   0.854   3.196 -0.2641 -0.6024  0.3483
 1095SOL    MW4 4154   6.221   0.826   3.143  0.0744  0.0186  0.1484
 1096SOL     OW 4155   5.128   3.851   3.491 -0.3894  0.3006 -0.9525
 1096SOL    HW2 4156   5.066   3.885   3.425 -1.5188 -0.9231 -0.5578
 1096SOL    HW3 4157   5.151   3.928   3.543  0.4201  1.2807 -2.6431
 1096SOL    MW4 4158   5.123   3.866   3.489 -0.9529 -0.1862 -0.1359
 1097SOL     OW 4159   3.106   3.149   1.938  0.0356 -0.2566  0.2540
 1097SOL    HW2 4160   3.084   3.241   1.924  0.7372 -0.0036  0.7393
 1097SOL    HW3 4161   3.048   3.122   2.010  0.1745 -0.0566  0.4413
 1097SOL    MW4 4162   3.095   3.158   1.946  0.5305  0.2654 -0.4225
 1098SOL     OW 4163   6.268   3.730   5.924  0.1292  0.3547 -0.6837
 1098SOL    HW2 4164   6.187   3.764   5.888 -1.6662 -1.4410  1.3703
 1098SOL    HW3 4165   6.276   3.771   6.010  0.1119 -1.2131  0.1011
 1098SOL    MW4 4166   6.259   3.740   5.931 -0.4161 -0.1021  0.0397
 1099SOL     OW 4167   3.406   3.115   5.682 -0.5440 -0.6782  0.6537
 1099SOL    HW2 4168   3.378   3.182   5.620  0.6084 -0.3075  0.5118
 1099SOL    HW3 4169   3.334   3.052   5.684 -0.6934 -0.5832 -0.8781
 1099SOL    MW4 4170   3.393   3.116   5.674  1.0612 -0.1504  0.6239
 1100SOL     OW 4171   3.329   1.651   6.083 -0.6048 -0.2787 -0.4941
 1100SOL    HW2 4172   3.335   1.740   6.119 -1.2730  0.2764 -1.6930
 1100SOL    HW3 4173   3.344   1.594   6.158 -1.0300  0.8397  0.4740
 1100SOL    MW4 4174   3.332   1.655   6.098  0.3056 -0.2390  0.6369
 1101SOL     OW 4175   1.484   4.359   3.706  0.2370 -0.0537  0.1095
 1101SOL    HW2 4176   1.511   4.285   3.653 -0.1750  0.7307 -1.2533
 1101SOL    HW3 4177   1.390   4.345   3.721  0.0882  0.3281 -0.4178
 1101SOL    MW4 4178   1.475   4.348   3.701  0.5380 -0.0933 -0.5110
 1102SOL     OW 4179   5.249   0.622   2.797 -0.2337  0.1623  0.3200
 1102SOL    HW2 4180   5.338   0.591   2.814 -0.4225 -0.4029  0.2975
 1102SOL    HW3 4181   5.253   0.661   2.710  0.7783  3.1931  1.5694
 1102SOL    MW4 4182   5.261   0.623   2.788  0.3450  0.3340  0.1074
 1103SOL     OW 4183   5.691   5.729   0.789  0.4811  0.5092 -0.2471
 1103SOL    HW2 4184   5.709   5.724   0.883  1.7806 -0.6326 -0.5263
 1103SOL    HW3 4185   5.772   5.764   0.751  0.9908 -1.5333 -1.2011
 1103SOL    MW4 4186   5.704   5.733   0.796  0.2879 -0.3939  0.7963
 1104SOL     OW 4187   5.258   5.522   5.929  0.1749  0.8392  0.0287
 1104SOL    HW2 4188   5.224   5.442   5.890  0.6012  0.0659  1.1870
 1104SOL    HW3 4189   5.209   5.532   6.010  0.7604  1.2441  0.3418
 1104SOL    MW4 4190   5.247   5.513   5.934 -0.1089 -0.2051  0.3069
 1105SOL     OW 4191   5.709   6.190   4.817  0.6777 -0.2284  0.2198
 1105SOL    HW2 4192   5.623   6.215   4.784  0.4882 -0.3605  0.6130
 1105SOL    HW3 4193   5.718   6.098   4.793  0.7721 -0.1777  0.0547
 1105SOL    MW4 4194   5.699   6.181   4.809 -0.1015  0.0914  0.0583
 1106SOL     OW 4195   2.008   1.531   2.047 -0.7613  0.1801 -0.0680
 1106SOL    HW2 4196   1.968   1.504   1.964 -1.8387 -1.1029  0.8089
 1106SOL    HW3 4197   1.944   1.504   2.114  0.3429  0.6339  1.2156
 1106SOL    MW4 4198   1.994   1.524   2.045  0.1966  0.5335  0.1041
 1107SOL     OW 4199   4.016   2.946   4.676  0.4818 -0.1109 -0.1664
 1107SOL    HW2 4200   4.059   2.949   4.761  0.9658 -1.1740 -0.3587
 1107SOL    HW3 4201   4.059   2.874   4.629 -1.4000 -1.1460 -0.4108
 1107SOL    MW4 4202   4.027   2.937   4.681 -0.1540  0.1256  0.6544
 1108SOL     OW 4203   0.848   1.890   2.157 -0.1218  0.2700 -0.2553
 1108SOL    HW2 4204   0.892   1.956   2.104  0.0248  0.1457 -0.2914
 1108SOL    HW3 4205   0.843   1.928   2.244 -3.2917  1.8602 -0.9971
 1108SOL    MW4 4206   0.854   1.903   2.161 -0.1373 -0.0115  0.5732
 1109SOL     OW 4207   4.187   2.105   3.695  0.2017 -0.1903  0.1881
 1109SOL    HW2 4208   4.266   2.065   3.659  0.1331  0.2502 -0.4610
 1109SOL    HW3 4209   4.208   2.119   3.787  0.2358 -1.6963  0.4381
 1109SOL    MW4 4210   4.200   2.102   3.702 -0.2222 -0.1257  0.2464
 1110SOL     OW 4211   1.150   0.700   0.546  0.1847 -0.2170 -0.2377
 1110SOL    HW2 4212   1.062   0.698   0.508 -0.2423 -2.1891  0.7448
 1110SOL    HW3 4213   1.209   0.697   0.471 -0.5896  0.1923 -0.8766
 1110SOL    MW4 4214   1.146   0.700   0.531  0.2235  0.3175 -0.4492
 1111SOL     OW 4215   1.524   0.845   2.072 -0.0012 -0.4168  0.3612
 1111SOL    HW2 4216   1.518   0.938   2.092 -0.4143 -0.7063  1.6342
 1111SOL    HW3 4217   1.618   0.825   2.078 -0.2025 -0.9085  4.2073
 1111SOL    MW4 4218   1.536   0.854   2.075 -0.1592  0.6913  0.1001
 1112SOL     OW 4219   4.743   6.306   2.539  0.1278 -0.2984 -0.1793
 1112SOL    HW2 4220   4.802   6.236   2.567  0.2718 -0.5407 -1.0766
 1112SOL    HW3 4221   4.789   6.387   2.564 -0.4990 -0.4851  1.8079
 1112SOL    MW4 4222   4.757   6.308   2.546  0.0795 -0.0922 -0.2939
 1113SOL     OW 4223   1.919   3.889   2.784 -0.2747  0.6421 -0.0680
 1113SOL    HW2 4224   1.927   3.816   2.846 -0.2259  1.8395  1.3842
 1113SOL    HW3 4225   1.949   3.853   2.701  0.4243 -0.7987  0.7673
 1113SOL    MW4 4226   1.924   3.875   2.782  0.0714 -0.5028  0.3534
 1114SOL     OW 4227   5.389   1.905   6.084  0.0704  0.1760 -0.0939
 1114SOL    HW2 4228   5.404   1.890   5.990 -0.2275  0.0838 -0.1305
 1114SOL    HW3 4229   5.330   1.834   6.110  0.9788 -0.4003  0.4077
 1114SOL    MW4 4230   5.383   1.894   6.075  0.4615  0.0124  0.3490
 1115SOL     OW 4231   1.212   2.285   5.079 -0.6575  0.3419 -0.0623
 1115SOL    HW2 4232   1.156   2.320   5.148 -1.0480 -0.8523  0.2398
 1115SOL    HW3 4233   1.301   2.292   5.114 -0.8215  0.0960  0.4140
 1115SOL    MW4 4234   1.216   2.291   5.092 -0.0226  0.0765  0.3964
 1116SOL     OW 4235   4.184   5.947   4.006  0.5478  0.1477  0.3080
 1116SOL    HW2 4236   4.133   5.871   4.031  0.6861 -0.5906 -1.4692
 1116SOL    HW3 4237   4.141   6.021   4.049 -1.4493 -0.5636 -0.3472
 1116SOL    MW4 4238   4.172   5.947   4.015  0.3909 -0.0854 -0.4464
 1117SOL     OW 4239   2.022   5.513   2.886  0.3197 -0.3649 -0.5536
 1117SOL    HW2 4240   1.983   5.585   2.937  1.3473  0.4966 -0.9434
 1117SOL    HW3 4241   1.954   5.445   2.885  0.5837 -0.8215  2.7208
 1117SOL    MW4 4242   2.008   5.514   2.893 -0.1237  0.7618 -0.2886
 1118SOL     OW 4243   3.618   5.121   1.767 -0.0504 -0.0918  0.2762
 1118SOL    HW2 4244   3.607   5.046   1.709  0.5957  0.1079 -0.1157
 1118SOL    HW3 4245   3.676   5.089   1.837  2.9778  0.8872 -1.6009
 1118SOL    MW4 4246   3.624   5.107   1.769 -0.6238  0.4858  0.4289
 1119SOL     OW 4247   4.527   0.924   2.826  0.2893  0.2713  0.4791
 1119SOL    HW2 4248   4.590   0.921   2.898 -0.7605 -0.7576  1.3989
 1119SOL    HW3 4249   4.567   0.872   2.756  1.8651  2.2723 -0.2025
 1119SOL    MW4 4250   4.540   0.917   2.826 -0.2578  0.2364  0.5192
 1120SOL     OW 4251   4.908   5.788   0.077 -0.5420  0.5947  0.1004
 1120SOL    HW2 4252   4.886   5.811   0.167  1.7779 -0.2692  0.9480
 1120SOL    HW3 4253   4.895   5.694   0.072 -0.6278  0.6324 -0.4951
 1120SOL    MW4 4254   4.903   5.779   0.088  0.0646  0.6934  0.3844
 1121SOL     OW 4255   3.410   1.559   6.334 -0.5438  0.2037  0.4202
 1121SOL    HW2 4256   3.457   1.642   6.344 -2.2364  1.1112  1.5592
 1121SOL    HW3 4257   3.477   1.492   6.338  0.9781  1.5151 -1.2577
 1121SOL    MW4 4258   3.425   1.561   6.336  0.0461 -0.3908  0.0392
 1122SOL     OW 4259   3.353   2.121   5.244  0.1833  0.5428 -0.5843
 1122SOL    HW2 4260   3.426   2.093   5.300  0.3246  2.4007  0.2062
 1122SOL    HW3 4261   3.275   2.088   5.288  0.4534 -0.5148 -0.8634
 1122SOL    MW4 4262   3.352   2.113   5.257  0.7760 -0.1628  0.3227
 1123SOL     OW 4263   3.713   3.425   4.500 -0.0210  0.0946 -0.2089
 1123SOL    HW2 4264   3.625   3.454   4.523  0.3983  1.9978 -0.8758
 1123SOL    HW3 4265   3.703   3.381   4.416 -0.6728 -1.9081  0.8475
 1123SOL    MW4 4266   3.700   3.423   4.492  0.2896 -0.2792 -0.0349
 1124SOL     OW 4267   5.789   5.704   5.969 -0.6108 -0.3682 -0.1964
 1124SOL    HW2 4268   5.844   5.744   6.037 -1.7408 -0.4977  0.8258
 1124SOL    HW3 4269   5.753   5.779   5.921  1.0681 -0.2879 -1.4317
 1124SOL    MW4 4270   5.792   5.719   5.972 -0.1027  0.5536  0.8129
 1125SOL     OW 4271   4.844   1.729   2.400  0.3026 -0.2798 -0.0460
 1125SOL    HW2 4272   4.814   1.819   2.412  1.2198  0.2203 -1.3171
 1125SOL    HW3 4273   4.772   1.675   2.433  0.1409  0.8925  1.6933
 1125SOL    MW4 4274   4.830   1.734   2.406 -0.4845 -0.6686 -0.4779
 1126SOL     OW 4275   6.422   0.912   3.297 -0.7059  0.3249 -0.0821
 1126SOL    HW2 4276   6.499   0.944   3.250 -1.2222  0.9321 -0.5394
 1126SOL    HW3 4277   6.451   0.903   3.388  0.1128 -0.1998 -0.3859
 1126SOL    MW4 4278   6.436   0.915   3.303 -0.1118  0.1316  0.0111
 1127SOL     OW 4279   5.937   0.848   6.154 -0.3232  0.1010 -0.5937
 1127SOL    HW2 4280   5.844   0.869   6.157 -0.5307 -0.8414  0.5020
 1127SOL    HW3 4281   5.958   0.822   6.244  1.1871  1.0578 -0.6351
 1127SOL    MW4 4282   5.928   0.847   6.167 -0.2417  0.1206 -0.1921
 1128SOL     OW 4283   1.499   3.751   4.625  0.7447 -0.0410  0.0623
 1128SOL    HW2 4284   1.488   3.789   4.713  0.6858  1.8527 -0.7306
 1128SOL    HW3 4285   1.584   3.708   4.628  1.2655  0.9928  0.7158
 1128SOL    MW4 4286   1.508   3.750   4.637 -0.2151  0.7002  0.6416
 1129SOL     OW 4287   1.816   2.185   6.184 -0.3681 -0.3860  0.4623
 1129SOL    HW2 4288   1.874   2.156   6.113 -0.1407 -1.3076  1.0156
 1129SOL    HW3 4289   1.841   2.277   6.198  0.0813 -0.4014 -0.1620
 1129SOL    MW4 4290   1.827   2.193   6.176  0.0979  0.0531  0.0232
 1130SOL     OW 4291   4.900   3.186   4.040 -0.0849  0.5127 -0.5479
 1130SOL    HW2 4292   4.957   3.110   4.052  1.2883  1.1456 -2.5603
 1130SOL    HW3 4293   4.827   3.171   4.100  0.5854 -1.9501 -0.2453
 1130SOL    MW4 4294   4.897   3.174   4.050 -0.0354 -0.1705 -0.0400
 1131SOL     OW 4295   1.835   0.208   3.822  0.4203  0.0760  0.3064
 1131SOL    HW2 4296   1.922   0.210   3.783  0.8835 -0.4142  1.2881
 1131SOL    HW3 4297   1.803   0.120   3.804 -1.0282  1.0306 -2.4235
 1131SOL    MW4 4298   1.842   0.197   3.814 -0.2132  0.2976  0.7595
 1132SOL     OW 4299   1.160   3.573   2.384 -0.2904 -0.0520 -0.2293
 1132SOL    HW2 4300   1.157   3.519   2.305  0.0519 -0.4454  0.0190
 1132SOL    HW3 4301   1.145   3.663   2.352 -2.6243 -0.4568 -0.4285
 1132SOL    MW4 4302   1.158   3.578   2.369 -0.0676 -0.1781  0.1074
 1133SOL     OW 4303   2.777   0.881   0.307  0.1965 -0.5664  0.3581
 1133SOL    HW2 4304   2.687   0.887   0.340  0.3114 -0.4343  0.6543
 1133SOL    HW3 4305   2.796   0.968   0.272  0.4225 -0.4075  0.8651
 1133SOL    MW4 4306   2.768   0.893   0.307 -0.0874  0.2069 -0.2851
 1134SOL     OW 4307   5.892   2.567   3.859  0.1031 -0.3168 -0.3020
 1134SOL    HW2 4308   5.825   2.533   3.918  1.2946  0.0658  1.3449
 1134SOL    HW3 4309   5.949   2.492   3.842 -0.7355 -0.6638 -1.7685
 1134SOL    MW4 4310   5.891   2.553   3.864  0.5041  0.2093  0.3249
 1135SOL     OW 4311   0.627   0.120   5.163  0.2560 -0.1235  0.8215
 1135SOL    HW2 4312   0.653   0.212   5.170 -0.6334  0.2580 -0.5624
 1135SOL    HW3 4313   0.546   0.114   5.214  0.0310 -0.0193  0.4762
 1135SOL    MW4 4314   0.620   0.131   5.171 -0.1987 -0.0696  0.1436
 1136SOL     OW 4315   2.476   1.616   2.344  0.6591 -0.3880  0.2738
 1136SOL    HW2 4316   2.446   1.526   2.330  0.7842 -0.2904 -0.7573
 1136SOL    HW3 4317   2.440   1.664   2.269  3.0818 -0.1984 -0.8552
 1136SOL    MW4 4318   2.467   1.610   2.332  0.1307  0.0152  0.4704
 1137SOL     OW 4319   1.437   4.900   0.775  0.0349  0.3072 -0.5467
 1137SOL    HW2 4320   1.423   4.884   0.869 -0.0370  1.6988 -0.3057
 1137SOL    HW3 4321   1.381   4.836   0.731  0.1077 -0.3947  0.3529
 1137SOL    MW4 4322   1.428   4.889   0.782  0.1166 -0.6100 -0.0446
 1138SOL     OW 4323   4.799   2.112   2.937 -0.1791 -0.2046  0.1635
 1138SOL    HW2 4324   4.815   2.198   2.900 -1.9900  0.3938  0.6564
 1138SOL    HW3 4325   4.704   2.110   2.952 -0.0812 -2.0256  0.7865
 1138SOL    MW4 4326   4.788   2.123   2.934  0.4497  0.0214  0.0809
 1139SOL     OW 4327   0.084   1.078   4.152  0.2316 -0.1004 -0.0246
 1139SOL    HW2 4328   0.016   1.109   4.211  0.9072 -1.0565  1.2946
 1139SOL    HW3 4329   0.037   1.023   4.088 -0.3346 -0.1044  0.3884
 1139SOL    MW4 4330   0.069   1.075   4.151 -0.6898  0.4685 -0.2426
 1140SOL     OW 4331   6.332   4.992   0.985  0.4223  0.4070 -0.4774
 1140SOL    HW2 4332   6.332   4.896   0.991  2.3443  0.3443 -0.8128
 1140SOL    HW3 4333   6.395   5.012   0.915 -0.9630  1.8936 -1.3712
 1140SOL    MW4 4334   6.341   4.982   0.976  0.7451 -0.0789  0.0587
 1141SOL     OW 4335   0.859   1.293   5.274 -0.1808 -0.1376 -0.2367
 1141SOL    HW2 4336   0.810   1.235   5.215  1.4918 -1.4889 -0.3578
 1141SOL    HW3 4337   0.924   1.335   5.218  0.8815 -0.8034  0.4592
 1141SOL    MW4 4338   0.861   1.291   5.259  0.7514  0.0560 -0.2178
 1142SOL     OW 4339   0.060   4.746   3.285 -0.6016 -0.7875  0.2506
 1142SOL    HW2 4340   0.120   4.680   3.320  1.7037  0.3510 -1.2994
 1142SOL    HW3 4341   0.017   4.704   3.211  1.6478 -0.3210 -1.4002
 1142SOL    MW4 4342   0.062   4.732   3.280 -0.6812 -0.4249 -0.3305
 1143SOL     OW 4343   5.241   2.096   0.312  0.5341 -0.2517  0.2724
 1143SOL    HW2 4344   5.323   2.046   0.313 -0.2784 -1.6207  0.2120
 1143SOL    HW3 4345   5.255   2.166   0.376  1.6850 -0.5765  0.3980
 1143SOL    MW4 4346   5.254   2.099   0.320  0.1206  0.3245  0.4312
 1144SOL     OW 4347   0.731   4.368   2.120  0.0130  0.2114 -0.0862
 1144SOL    HW2 4348   0.651   4.348   2.072 -0.1093  1.2473 -0.3380
 1144SOL    HW3 4349   0.801   4.354   2.058 -0.1711  1.9789 -0.7641
 1144SOL    MW4 4350   0.729   4.364   2.106 -0.2198  0.2345  0.0110
 1145SOL     OW 4351   2.254   0.772   3.851 -0.5564 -0.5041  0.1193
 1145SOL    HW2 4352   2.324   0.837   3.844  1.2269 -1.9713  2.6626
 1145SOL    HW3 4353   2.179   0.821   3.884  0.8408  0.3386  2.2942
 1145SOL    MW4 4354   2.254   0.787   3.855 -0.4240  0.1692 -0.2253
 1146SOL     OW 4355   0.084   2.271   6.253 -0.0979 -0.5735 -0.8193
 1146SOL    HW2 4356   0.130   2.292   6.335 -0.4849 -2.2029 -0.1604
 1146SOL    HW3 4357   0.046   2.355   6.226  1.5143  0.3780 -0.2926
 1146SOL    MW4 4358   0.085   2.285   6.260 -0.0635  0.7896 -0.3871
 1147SOL     OW 4359   5.730   0.659   5.622  0.2540  0.0050  0.5928
 1147SOL    HW2 4360   5.778   0.711   5.558 -0.8664  0.0684 -0.2007
 1147SOL    HW3 4361   5.765   0.570   5.612  0.6697  0.1803  0.4829
 1147SOL    MW4 4362   5.741   0.654   5.613  0.0842 -0.2961 -0.4148
 1148SOL     OW 4363   0.041   0.678   5.921 -0.0646  0.3495  0.7136
 1148SOL    HW2 4364   0.004   0.736   5.854 -0.1515  0.3990  0.8055
 1148SOL    HW3 4365  -0.034   0.640   5.965 -0.0312 -0.6248 -0.0185
 1148SOL    MW4 4366   0.027   0.681   5.918 -0.6264  0.3412 -0.2190
 1149SOL     OW 4367   2.031   2.164   4.240 -0.0196 -0.3072 -0.6240
 1149SOL    HW2 4368   2.061   2.219   4.167 -1.3397  0.4281 -0.6571
 1149SOL    HW3 4369   1.951   2.123   4.206 -2.3062  2.2101  1.2202
 1149SOL    MW4 4370   2.024   2.166   4.226  0.0757  0.1151  0.1891
 1150SOL     OW 4371   5.656   4.713   5.805  0.1725 -0.5062  0.1234
 1150SOL    HW2 4372   5.569   4.753   5.807  0.8894  1.1107  1.2765
 1150SOL    HW3 4373   5.646   4.636   5.748 -1.3148  1.2589 -2.2074
 1150SOL    MW4 4374   5.643   4.708   5.798  0.2925 -0.2459  0.0391
 1151SOL     OW 4375   4.224   2.638   1.082 -0.4666  0.4785  0.2231
 1151SOL    HW2 4376   4.166   2.702   1.042  0.7498  1.5707  0.1448
 1151SOL    HW3 4377   4.228   2.662   1.175  0.5474  0.9808  0.0642
 1151SOL    MW4 4378   4.217   2.649   1.089  0.2858 -0.0934 -0.4431
 1152SOL     OW 4379   4.139   5.548   2.635  0.0484  0.1901 -0.0959
 1152SOL    HW2 4380   4.082   5.561   2.711 -0.0617 -1.3120  0.0974
 1152SOL    HW3 4381   4.184   5.632   2.625 -0.9594  0.8617  0.7692
 1152SOL    MW4 4382   4.137   5.561   2.644 -0.0987 -0.5233 -0.0682
 1153SOL     OW 4383   1.354   2.336   3.691  0.1058  0.7132  0.4558
 1153SOL    HW2 4384   1.363   2.430   3.707  0.2061  1.1857 -2.0079
 1153SOL    HW3 4385   1.259   2.322   3.679  0.2948  1.1721 -2.2938
 1153SOL    MW4 4386   1.342   2.346   3.691 -0.7680  0.1977 -0.1313
 1154SOL     OW 4387   4.407   0.439   0.743 -0.0850  0.4605  0.2466
 1154SOL    HW2 4388   4.485   0.485   0.775  0.0798 -0.1060  0.6890
 1154SOL    HW3 4389   4.353   0.507   0.703  1.0656  0.7172 -0.9306
 1154SOL    MW4 4390   4.410   0.454   0.742  0.2243 -0.1732 -0.0831
 1155SOL     OW 4391   6.365   1.655   1.374 -0.1982  0.0744 -0.2589
 1155SOL    HW2 4392   6.280   1.629   1.338  1.0907 -1.0903 -2.7442
 1155SOL    HW3 4393   6.375   1.601   1.452 -1.3698 -0.3937 -0.3979
 1155SOL    MW4 4394   6.355   1.644   1.380  0.7305  0.0897  0.1976
 1156SOL     OW 4395   5.756   0.178   0.863 -0.2932 -0.3025  0.2630
 1156SOL    HW2 4396   5.843   0.143   0.844 -0.9623 -2.0621  0.3455
 1156SOL    HW3 4397   5.773   0.253   0.921  1.2878  0.7687 -1.4488
 1156SOL    MW4 4398   5.770   0.183   0.868  0.0715  0.0122 -0.2669
 1157SOL     OW 4399   0.315   2.374   3.299 -0.2374  0.4212 -0.2771
 1157SOL    HW2 4400   0.304   2.379   3.394 -0.7258 -0.5780 -0.2600
 1157SOL    HW3 4401   0.271   2.292   3.275  0.2723  0.4380 -1.3051
 1157SOL    MW4 4402   0.308   2.364   3.309  0.0475 -0.4631 -0.4314
 1158SOL     OW 4403   1.548   0.706   5.254 -0.0441 -0.5289  0.0873
 1158SOL    HW2 4404   1.478   0.747   5.304  1.1112  0.3887  1.0378
 1158SOL    HW3 4405   1.532   0.612   5.262 -0.5505 -0.3659  1.2144
 1158SOL    MW4 4406   1.537   0.699   5.262 -0.1115  0.4945  0.5144
 1159SOL     OW 4407   4.878   6.020   6.291 -0.5345 -0.1290 -0.3426
 1159SOL    HW2 4408   4.926   5.979   6.218  0.4225  1.0039 -0.3736
 1159SOL    HW3 4409   4.885   5.956   6.362 -0.3671 -0.6837 -0.8439
 1159SOL    MW4 4410   4.886   6.006   6.291  0.2036 -0.6271 -0.2126
 1160SOL     OW 4411   2.007   4.958   6.180  0.1547 -0.1788  0.1201
 1160SOL    HW2 4412   2.046   4.873   6.203  0.7729  0.2368  0.6416
 1160SOL    HW3 4413   1.913   4.943   6.183  0.2540 -1.1016 -0.7584
 1160SOL    MW4 4414   2.000   4.945   6.184 -0.2556  0.0882 -0.4074
 1161SOL     OW 4415   5.782   5.274   1.285  0.0482 -0.3421  0.0866
 1161SOL    HW2 4416   5.694   5.246   1.311 -0.3289  0.4363 -0.2915
 1161SOL    HW3 4417   5.777   5.280   1.190  0.1241  0.9116  0.1465
 1161SOL    MW4 4418   5.770   5.271   1.276  0.1343 -0.0568 -0.1919
 1162SOL     OW 4419   0.685   5.007   1.561 -0.2832 -0.5453 -0.4650
 1162SOL    HW2 4420   0.730   5.087   1.587 -1.7260  0.1259  0.0344
 1162SOL    HW3 4421   0.610   5.037   1.509 -0.8589 -1.5701 -0.2544
 1162SOL    MW4 4422   0.681   5.021   1.557 -0.0945 -0.3821  0.0792
 1163SOL     OW 4423   3.473   1.722   5.306 -0.0619 -0.0596 -0.1053
 1163SOL    HW2 4424   3.448   1.698   5.395 -0.0488  1.0203  0.2079
 1163SOL    HW3 4425   3.530   1.798   5.317  1.9882 -1.4158 -0.9057
 1163SOL    MW4 4426   3.477   1.729   5.319  0.0487  0.0112  0.2979
 1164SOL     OW 4427   1.690   2.538   3.180 -0.4643 -0.9074  0.0731
 1164SOL    HW2 4428   1.738   2.542   3.097  0.4991 -1.3050  0.5898
 1164SOL    HW3 4429   1.632   2.463   3.172  0.8336 -1.9706  0.3634
 1164SOL    MW4 4430   1.689   2.529   3.168 -0.3951 -0.0590 -0.4295
 1165SOL     OW 4431   0.183   4.139   3.405  0.1275 -0.3818 -0.2742
 1165SOL    HW2 4432   0.246   4.168   3.339  1.0728 -0.8310  0.4045
 1165SOL    HW3 4433   0.137   4.219   3.431  2.7671  0.6363  1.6534
 1165SOL    MW4 4434   0.185   4.154   3.400 -0.8538  0.1742 -0.3506
 1166SOL     OW 4435   2.034   1.672   3.276 -0.3588  0.0299  0.1884
 1166SOL    HW2 4436   2.129   1.664   3.285 -0.5184 -2.3933  0.2400
 1166SOL    HW3 4437   2.001   1.663   3.365 -0.6425  2.0220  0.3409
 1166SOL    MW4 4438   2.042   1.670   3.289 -0.5060 -0.2974  0.2519
 1167SOL     OW 4439   5.684   2.501   0.439  0.4427 -0.0636 -0.4177
 1167SOL    HW2 4440   5.769   2.545   0.443  0.2978  0.1967 -0.1513
 1167SOL    HW3 4441   5.620   2.573   0.438  0.2644 -0.1626 -2.9687
 1167SOL    MW4 4442   5.687   2.517   0.439 -0.1272 -0.1698  0.0044
 1168SOL     OW 4443   4.518   2.212   5.713 -0.2361  0.3368  0.1060
 1168SOL    HW2 4444   4.439   2.260   5.737  0.1346 -0.5490  3.5436
 1168SOL    HW3 4445   4.535   2.154   5.787  2.8999 -0.4883 -1.0987
 1168SOL    MW4 4446   4.510   2.211   5.726  0.0344  0.0470  0.2802
 1169SOL     OW 4447   2.787   2.583   3.436  0.1205  0.1460  0.0812
 1169SOL    HW2 4448   2.785   2.519   3.365 -1.1382 -0.6123  0.7691
 1169SOL    HW3 4449   2.705   2.632   3.426  1.0897  1.7449 -0.4782
 1169SOL    MW4 4450   2.776   2.581   3.425 -0.2684  0.1836 -0.0156
 1170SOL     OW 4451   5.449   3.653   2.457  0.0306  0.0410 -0.3500
 1170SOL    HW2 4452   5.475   3.565   2.485 -1.2788 -0.5898 -1.0623
 1170SOL    HW3 4453   5.525   3.707   2.478 -0.2220 -0.6427  2.9930
 1170SOL    MW4 4454   5.463   3.648   2.464 -0.1927 -0.4202 -0.6842
 1171SOL     OW 4455   3.969   3.363   1.593  0.4325  0.5081  0.3329
 1171SOL    HW2 4456   3.950   3.384   1.501  1.4863 -1.7449 -0.4663
 1171SOL    HW3 4457   3.894   3.311   1.622  1.9131 -2.4445 -0.6807
 1171SOL    MW4 4458   3.957   3.359   1.585 -0.1839 -0.0035 -0.0418
 1172SOL     OW 4459   3.744   6.203   2.963 -0.8055 -0.0280  0.5365
 1172SOL    HW2 4460   3.659   6.164   2.986  0.2613 -2.2712  0.9560
 1172SOL    HW3 4461   3.764   6.260   3.038 -1.0770 -1.0190  1.4015
 1172SOL    MW4 4462   3.735   6.205   2.976  0.1035 -0.2713 -0.3590
 1173SOL     OW 4463   0.009   2.286   2.844 -0.4897  0.2950 -0.0907
 1173SOL    HW2 4464  -0.032   2.216   2.793  0.6250  0.0130 -0.6324
 1173SOL    HW3 4465  -0.041   2.289   2.926 -1.3441 -0.2688 -0.5793
 1173SOL    MW4 4466  -0.003   2.277   2.848  0.3303  0.3381 -0.2191
 1174SOL     OW 4467   4.473   2.509   1.077 -0.4422 -0.1522  0.1009
 1174SOL    HW2 4468   4.388   2.552   1.084 -0.5199 -0.5945  2.7216
 1174SOL    HW3 4469   4.502   2.527   0.987 -1.9275  2.5243  0.0669
 1174SOL    MW4 4470   4.466   2.517   1.066  0.4273  0.4783  0.5047
 1175SOL     OW 4471   5.993   0.467   6.285 -0.4275 -0.0198 -0.1271
 1175SOL    HW2 4472   6.068   0.432   6.333 -0.1524  0.3059 -0.3066
 1175SOL    HW3 4473   6.027   0.483   6.197 -0.7968 -0.1661 -0.2959
 1175SOL    MW4 4474   6.007   0.465   6.280  0.0804 -0.0367  0.2181
 1176SOL     OW 4475   3.548   1.642   2.087 -0.0599  0.0983 -0.2940
 1176SOL    HW2 4476   3.591   1.603   2.163 -1.5907 -0.4374  0.3347
 1176SOL    HW3 4477   3.618   1.651   2.022  1.0069 -0.6529  0.7112
 1176SOL    MW4 4478   3.563   1.638   2.088 -0.2289 -0.5990  0.4038
 1177SOL     OW 4479   3.614   2.080   6.304 -0.4495  0.1641 -0.0558
 1177SOL    HW2 4480   3.621   2.173   6.283 -0.6158  0.2918  0.4452
 1177SOL    HW3 4481   3.572   2.041   6.228  0.0456  0.4195 -0.4654
 1177SOL    MW4 4482   3.610   2.087   6.291  0.1803 -0.1935 -0.4719
 1178SOL     OW 4483   2.933   2.545   0.171 -0.2721  0.3332  0.2992
 1178SOL    HW2 4484   2.880   2.467   0.187  0.6775 -0.3524  0.1921
 1178SOL    HW3 4485   3.018   2.525   0.211  0.0274  1.2635  0.1540
 1178SOL    MW4 4486   2.937   2.532   0.178  0.5971  0.0599  0.0155
 1179SOL     OW 4487   4.382   2.155   2.720  0.0040 -0.0644  0.0877
 1179SOL    HW2 4488   4.432   2.217   2.773  0.6662  0.8243 -1.5066
 1179SOL    HW3 4489   4.342   2.209   2.651 -0.4099 -1.2447 -0.6246
 1179SOL    MW4 4490   4.383   2.170   2.718 -0.0632 -0.2141 -0.3066
 1180SOL     OW 4491   1.192   5.736   4.763 -0.2831  0.0755  0.1450
 1180SOL    HW2 4492   1.143   5.815   4.740 -1.7519 -0.8329  0.0672
 1180SOL    HW3 4493   1.178   5.725   4.857 -0.6025 -0.4217  0.0437
 1180SOL    MW4 4494   1.184   5.745   4.772  0.3017 -0.1232 -0.1201
 1181SOL     OW 4495   1.253   1.702   6.225 -0.4813 -0.5123 -0.1934
 1181SOL    HW2 4496   1.336   1.745   6.240 -0.6038  1.0085 -3.1108
 1181SOL    HW3 4497   1.268   1.648   6.147 -1.8768 -1.2568  0.0145
 1181SOL    MW4 4498   1.266   1.700   6.217 -0.6371 -0.1498 -0.3100
 1182SOL     OW 4499   2.388   2.214   0.513  0.3620  0.0826 -0.5355
 1182SOL    HW2 4500   2.397   2.287   0.574 -0.6312  1.3301 -1.8174
 1182SOL    HW3 4501   2.418   2.249   0.429  0.8074 -1.2978 -0.9824
 1182SOL    MW4 4502   2.393   2.228   0.510  0.5713 -0.2994 -0.6898
 1183SOL     OW 4503   3.272   2.718   1.711  0.6595  0.1080  0.7367
 1183SOL    HW2 4504   3.247   2.793   1.765  0.2548  1.2689 -1.0041
 1183SOL    HW3 4505   3.354   2.745   1.669  1.0294 -0.8223  0.8347
 1183SOL    MW4 4506   3.280   2.731   1.713 -0.8459 -0.3917  0.7360
 1184SOL     OW 4507   3.618   4.323   4.400 -0.8984 -0.2882 -0.5482
 1184SOL    HW2 4508   3.569   4.404   4.415  0.0471  0.1105  0.5530
 1184SOL    HW3 4509   3.685   4.323   4.468 -1.3410 -2.3883 -0.0639
 1184SOL    MW4 4510   3.621   4.334   4.411  0.4521 -0.7820  0.2046
 1185SOL     OW 4511   4.274   3.782   6.283 -0.5323 -0.1208  0.1291
 1185SOL    HW2 4512   4.341   3.791   6.350 -0.5572 -0.6461  0.2230
 1185SOL    HW3 4513   4.249   3.690   6.284 -1.6845  0.1705  0.5130
 1185SOL    MW4 4514   4.279   3.771   6.292 -0.4299 -0.1144 -0.2344
 1186SOL     OW 4515   3.861   0.997   2.204 -0.2621 -0.2270  0.1593
 1186SOL    HW2 4516   3.830   1.062   2.268  0.0544 -0.8040  0.9204
 1186SOL    HW3 4517   3.935   0.954   2.248  0.8818  0.3216 -1.1415
 1186SOL    MW4 4518   3.867   1.000   2.218 -0.8482 -0.3619  0.7736
 1187SOL     OW 4519   1.918   4.094   0.422 -0.1525  0.0563  0.1305
 1187SOL    HW2 4520   1.989   4.137   0.471  1.0430 -2.4410  0.7736
 1187SOL    HW3 4521   1.958   4.071   0.339 -0.9680  0.7010 -0.4547
 1187SOL    MW4 4522   1.933   4.097   0.418 -0.1471 -0.2406 -0.2248
 1188SOL     OW 4523   1.413   0.449   0.677 -0.0043 -0.0779 -0.0074
 1188SOL    HW2 4524   1.348   0.512   0.706  0.4604  0.0907  0.6913
 1188SOL    HW3 4525   1.434   0.475   0.587 -1.7082 -0.8112 -0.6578
 1188SOL    MW4 4526   1.407   0.461   0.669 -0.2026 -0.2078  0.4722
 1189SOL     OW 4527   3.179   3.266   3.353 -0.1668 -0.0106 -0.0368
 1189SOL    HW2 4528   3.120   3.342   3.353  0.3879  0.4269  0.0287
 1189SOL    HW3 4529   3.121   3.190   3.343 -0.6037  0.5320 -2.1407
 1189SOL    MW4 4530   3.163   3.266   3.352 -0.2093  0.4015  0.2540
 1190SOL     OW 4531   0.124   0.661   2.273  0.5664 -0.5860 -0.1876
 1190SOL    HW2 4532   0.117   0.650   2.178  1.2675 -1.5137 -0.1505
 1190SOL    HW3 4533   0.041   0.629   2.308  0.7144 -1.2595 -0.4317
 1190SOL    MW4 4534   0.112   0.655   2.265  0.7689  0.2440 -0.0935
 1191SOL     OW 4535   4.237   4.139   0.445 -0.5222  0.0720 -0.1061
 1191SOL    HW2 4536   4.276   4.203   0.505 -0.1673 -1.4576  1.3625
 1191SOL    HW3 4537   4.268   4.165   0.359  0.4879  1.2347  0.5761
 1191SOL    MW4 4538   4.246   4.151   0.442  0.3301 -0.5468 -0.3426
 1192SOL     OW 4539   0.400   4.707   6.319  0.5772 -0.3522 -0.8233
 1192SOL    HW2 4540   0.412   4.615   6.344  3.2057 -0.3397 -1.7531
 1192SOL    HW3 4541   0.488   4.743   6.319 -0.4993  2.6158  0.9017
 1192SOL    MW4 4542   0.413   4.699   6.322  0.6534  0.5593  0.4129
 1193SOL     OW 4543   1.554   5.700   4.964  0.3520  0.5389  0.0098
 1193SOL    HW2 4544   1.632   5.688   5.019  0.5368 -0.5915 -0.4564
 1193SOL    HW3 4545   1.587   5.692   4.874 -0.4149 -0.8870 -0.1717
 1193SOL    MW4 4546   1.569   5.697   4.959 -0.5514  0.4022 -0.2718
 1194SOL     OW 4547   3.467   5.157   4.124 -0.0254  0.7161  0.0059
 1194SOL    HW2 4548   3.469   5.085   4.187  0.9615 -0.0317 -0.8414
 1194SOL    HW3 4549   3.396   5.213   4.155 -1.8460 -1.3607 -0.1370
 1194SOL    MW4 4550   3.458   5.155   4.137 -0.7768  0.0250 -0.4259
 1195SOL     OW 4551   2.117   0.990   5.906  0.5596  0.5649  0.0922
 1195SOL    HW2 4552   2.128   1.043   5.827 -0.5172 -0.9316 -1.1236
 1195SOL    HW3 4553   2.024   0.969   5.909  0.6133  0.4013  1.6587
 1195SOL    MW4 4554   2.106   0.994   5.896  0.4584 -0.0938  0.0476
 1196SOL     OW 4555   5.809   5.800   3.739 -0.1327 -0.1444 -0.0488
 1196SOL    HW2 4556   5.737   5.841   3.691 -0.2960 -0.4063 -0.0334
 1196SOL    HW3 4557   5.874   5.781   3.672  0.3962  1.0789  0.0949
 1196SOL    MW4 4558   5.808   5.803   3.724  0.1649  0.7716  0.2138
 1197SOL     OW 4559   0.958   5.833   1.157 -0.1907 -0.0171  0.4507
 1197SOL    HW2 4560   0.908   5.889   1.217 -2.8088 -1.6100 -0.0818
 1197SOL    HW3 4561   0.984   5.891   1.086 -1.5185  0.8534  0.6408
 1197SOL    MW4 4562   0.954   5.848   1.156  0.2782 -0.0933  0.1695
 1198SOL     OW 4563   1.898   4.635   3.048 -0.1181  0.0689 -0.2383
 1198SOL    HW2 4564   1.970   4.678   3.002 -0.1989  1.3543  0.7738
 1198SOL    HW3 4565   1.935   4.555   3.084  1.7478  2.1197  2.8721
 1198SOL    MW4 4566   1.912   4.630   3.047 -0.5257  0.5566 -0.1852
 1199SOL     OW 4567   2.717   1.407   3.513 -0.4286  0.3774 -0.3923
 1199SOL    HW2 4568   2.653   1.387   3.582  1.2252 -2.1394  0.5409
 1199SOL    HW3 4569   2.791   1.444   3.560  0.0657  0.2445 -1.0621
 1199SOL    MW4 4570   2.718   1.409   3.528 -0.0188 -0.2309 -0.2391
 1200SOL     OW 4571   0.470   0.307   2.579  0.2576  0.0706 -0.5503
 1200SOL    HW2 4572   0.413   0.366   2.530  0.1543  0.9950  0.6491
 1200SOL    HW3 4573   0.554   0.311   2.533 -0.0193  0.4351 -1.0262
 1200SOL    MW4 4574   0.474   0.315   2.567  0.8670  0.0049 -0.2029
 1201SOL     OW 4575   3.520   1.653   1.671 -0.1946 -0.3724 -0.0341
 1201SOL    HW2 4576   3.588   1.705   1.629 -1.1611  0.3612 -0.7400
 1201SOL    HW3 4577   3.554   1.563   1.670  0.8702  0.0192 -0.1120
 1201SOL    MW4 4578   3.534   1.648   1.666  0.0817 -0.0602  0.3493
 1202SOL     OW 4579   3.742   1.430   4.957 -0.1461 -0.1701 -0.0909
 1202SOL    HW2 4580   3.794   1.351   4.966 -0.1916 -0.2396 -0.4159
 1202SOL    HW3 4581   3.738   1.467   5.045  0.7723  0.0414 -0.1255
 1202SOL    MW4 4582   3.748   1.425   4.970  0.1579 -0.1546  0.0972
 1203SOL     OW 4583   2.866   3.829   0.951 -0.3560  0.6229  0.2988
 1203SOL    HW2 4584   2.801   3.804   1.017 -0.2746  0.5031  0.3329
 1203SOL    HW3 4585   2.914   3.749   0.933  0.7534  1.0250  1.3519
 1203SOL    MW4 4586   2.864   3.815   0.957 -0.2133  0.3988 -0.3442
 1204SOL     OW 4587   2.804   6.096   4.952 -0.2990  0.7316  0.4975
 1204SOL    HW2 4588   2.884   6.137   4.921 -0.4112  0.1875 -0.5592
 1204SOL    HW3 4589   2.822   6.073   5.044  1.2059 -0.5069 -0.0679
 1204SOL    MW4 4590   2.817   6.098   4.960  0.4964  0.3205  0.0338
 1205SOL     OW 4591   4.154   5.429   2.050  0.1958  0.3323 -0.3800
 1205SOL    HW2 4592   4.150   5.392   1.962 -0.5969 -0.1641 -0.1420
 1205SOL    HW3 4593   4.235   5.481   2.051  0.6960 -0.4146 -1.1007
 1205SOL    MW4 4594   4.164   5.431   2.039  0.0581 -0.0192 -0.1009
 1206SOL     OW 4595   3.701   5.095   0.548 -0.4916  0.3558 -0.1896
 1206SOL    HW2 4596   3.732   5.178   0.513 -0.5508 -0.1170 -1.4278
 1206SOL    HW3 4597   3.778   5.039   0.549  0.0189  0.9818  2.5666
 1206SOL    MW4 4598   3.715   5.098   0.544  0.2364  0.3741 -0.4459
 1207SOL     OW 4599   0.636   4.264   5.311 -0.2157 -0.9522  0.8054
 1207SOL    HW2 4600   0.561   4.208   5.334 -0.8234 -0.3545  0.3455
 1207SOL    HW3 4601   0.696   4.206   5.265 -0.3367 -1.4767  1.2987
 1207SOL    MW4 4602   0.634   4.249   5.308  0.2534 -0.0350 -0.3979
 1208SOL     OW 4603   1.010   4.777   3.566  0.5664  0.4492  0.3365
 1208SOL    HW2 4604   1.075   4.818   3.509  0.5168  1.2358  0.8261
 1208SOL    HW3 4605   0.933   4.766   3.511  1.0718 -0.4094 -0.2262
 1208SOL    MW4 4606   1.008   4.781   3.551  0.0983 -0.3846 -0.2197
 1209SOL     OW 4607   6.350   4.475   5.848  0.1501  0.0707  0.0740
 1209SOL    HW2 4608   6.300   4.399   5.818 -0.8867  1.1327 -1.0128
 1209SOL    HW3 4609   6.437   4.463   5.810 -0.0205 -0.5235 -0.1494
 1209SOL    MW4 4610   6.355   4.463   5.839  0.2718 -0.2850  0.4382
 1210SOL     OW 4611   5.929   5.227   0.706  0.0215  0.0129  0.5774
 1210SOL    HW2 4612   6.017   5.220   0.741 -0.6488  0.1341  2.3748
 1210SOL    HW3 4613   5.925   5.315   0.668  0.8454 -0.2197 -0.0706
 1210SOL    MW4 4614   5.940   5.237   0.706 -0.1037  0.3258 -0.8696
 1211SOL     OW 4615   2.264   3.391   2.828 -0.0004  0.3638 -0.6991
 1211SOL    HW2 4616   2.235   3.454   2.894  2.8914  0.6781  0.4407
 1211SOL    HW3 4617   2.267   3.307   2.875  0.5233  0.2735 -0.8878
 1211SOL    MW4 4618   2.261   3.388   2.843 -0.3491 -0.4483 -0.5320
 1212SOL     OW 4619   4.080   0.811   5.730  0.1720  0.1262  0.1221
 1212SOL    HW2 4620   4.080   0.897   5.771  2.5784  0.9452 -1.3693
 1212SOL    HW3 4621   4.080   0.749   5.803 -0.5984  1.3859  1.2301
 1212SOL    MW4 4622   4.080   0.814   5.745 -0.0230  0.0567  0.6657
 1213SOL     OW 4623   5.195   5.190   1.262  0.1834 -0.2832 -0.6420
 1213SOL    HW2 4624   5.119   5.237   1.297  0.6135  0.2574 -0.4120
 1213SOL    HW3 4625   5.177   5.181   1.169  0.8038  1.7844 -1.0089
 1213SOL    MW4 4626   5.182   5.195   1.255 -0.1873 -0.3857  0.6375
 1214SOL     OW 4627   3.862   5.191   3.302  0.3251  0.7130  0.1480
 1214SOL    HW2 4628   3.927   5.173   3.234 -0.2983 -3.2401  0.3773
 1214SOL    HW3 4629   3.780   5.159   3.266 -0.1146 -1.0863  2.4849
 1214SOL    MW4 4630   3.860   5.185   3.289 -0.0843  0.1117  0.1488
 1215SOL     OW 4631   5.672   4.721   1.240 -0.0275  0.2580  0.2691
 1215SOL    HW2 4632   5.601   4.677   1.289  0.1803 -0.8162 -0.3500
 1215SOL    HW3 4633   5.752   4.682   1.275  0.0808 -1.8420 -2.0242
 1215SOL    MW4 4634   5.673   4.710   1.251  0.1226  0.1937  0.5844
 1216SOL     OW 4635   6.352   0.795   1.711  0.2755 -0.1752 -0.3205
 1216SOL    HW2 4636   6.350   0.702   1.686  1.3429 -0.3718  0.2344
 1216SOL    HW3 4637   6.436   0.826   1.677  1.4359 -0.2521  2.2524
 1216SOL    MW4 4638   6.363   0.787   1.703  0.5962 -0.0934 -0.8215
 1217SOL     OW 4639   1.967   0.734   5.573 -0.3806  0.1680 -0.3223
 1217SOL    HW2 4640   2.019   0.804   5.534 -0.8168  0.8083  0.2096
 1217SOL    HW3 4641   1.876   0.762   5.561 -0.5819 -0.5531 -0.5431
 1217SOL    MW4 4642   1.962   0.747   5.566 -0.1819  0.2844  0.2016
 1218SOL     OW 4643   0.944   0.997   6.134  0.2102  0.0592 -0.8567
 1218SOL    HW2 4644   1.023   1.038   6.099 -0.5497 -0.4450 -3.3436
 1218SOL    HW3 4645   0.931   0.919   6.080 -2.4539  0.6082 -1.1721
 1218SOL    MW4 4646   0.953   0.992   6.122  0.3595 -0.6003  0.0478
 1219SOL     OW 4647   1.071   2.322   0.363 -0.4636  0.1669 -0.2902
 1219SOL    HW2 4648   1.065   2.375   0.284  0.1415 -0.0613 -0.4906
 1219SOL    HW3 4649   1.010   2.250   0.348  0.2291 -0.3010 -0.8788
 1219SOL    MW4 4650   1.062   2.320   0.351  0.2534  0.0715 -0.1833
 1220SOL     OW 4651   3.662   4.267   1.431 -0.3663  0.1319  0.0618
 1220SOL    HW2 4652   3.622   4.354   1.427  1.4693  0.9965 -0.7203
 1220SOL    HW3 4653   3.595   4.212   1.471 -1.7814  1.7814  0.0956
 1220SOL    MW4 4654   3.648   4.272   1.436  0.1044  0.2447 -0.4555
 1221SOL     OW 4655   0.344   4.157   0.800  0.3546  0.0436 -0.1163
 1221SOL    HW2 4656   0.383   4.126   0.718  0.9628 -0.7394  0.4519
 1221SOL    HW3 4657   0.361   4.087   0.862 -1.1918  0.0825  0.3849
 1221SOL    MW4 4658   0.351   4.144   0.797  0.1278  0.4588  0.2940
 1222SOL     OW 4659   3.684   3.936   0.318 -0.9640  0.2401  0.7347
 1222SOL    HW2 4660   3.740   3.997   0.269 -0.7190 -0.5047  0.0704
 1222SOL    HW3 4661   3.673   3.978   0.403 -0.3162  0.9348  0.4962
 1222SOL    MW4 4662   3.690   3.950   0.323 -0.0683  0.5475 -0.3827
 1223SOL     OW 4663   5.095   2.595   0.344 -0.0836  0.2080  0.0122
 1223SOL    HW2 4664   5.017   2.570   0.394  0.1389 -0.7961 -0.1237
 1223SOL    HW3 4665   5.121   2.679   0.381  0.8028 -1.0797  2.4667
 1223SOL    MW4 4666   5.088   2.603   0.355 -0.2446  0.0766  0.0756
 1224SOL     OW 4667   0.574   3.155   2.097  0.4181 -0.1689 -0.2485
 1224SOL    HW2 4668   0.592   3.153   2.192 -1.0442  0.4530  0.0573
 1224SOL    HW3 4669   0.660   3.170   2.058  0.9117  0.5641  1.0354
 1224SOL    MW4 4670   0.588   3.156   2.105  0.4627 -0.5139  0.1086
 1225SOL     OW 4671   4.143   1.068   0.710 -0.4034 -0.3116 -0.5241
 1225SOL    HW2 4672   4.202   0.996   0.690  1.1297 -0.9182  4.7064
 1225SOL    HW3 4673   4.172   1.140   0.653  2.7673 -1.7842 -0.9462
 1225SOL    MW4 4674   4.155   1.068   0.699  0.0849  0.1687  0.5868
 1226SOL     OW 4675   0.581   2.731   5.506 -0.4578  0.4864 -0.7161
 1226SOL    HW2 4676   0.601   2.734   5.600  1.6008 -1.4906 -0.9867
 1226SOL    HW3 4677   0.643   2.792   5.467  2.2305 -2.2846 -1.1359
 1226SOL    MW4 4678   0.592   2.739   5.514  0.0651  0.1417  0.5734
 1227SOL     OW 4679   4.671   6.201   5.470 -0.2445  0.3858 -0.2519
 1227SOL    HW2 4680   4.758   6.214   5.508 -0.1075 -0.9658 -0.0540
 1227SOL    HW3 4681   4.637   6.124   5.514 -1.5678  0.9154 -0.3193
 1227SOL    MW4 4682   4.678   6.193   5.481 -0.0953 -0.1366  0.4470
 1228SOL     OW 4683   2.324   5.102   1.575  0.2434 -0.5419  0.2067
 1228SOL    HW2 4684   2.348   5.099   1.667  0.3982 -1.4675  0.1395
 1228SOL    HW3 4685   2.399   5.064   1.529  0.3670  0.3220 -0.3509
 1228SOL    MW4 4686   2.337   5.097   1.581 -0.1838  0.2549  0.3050
 1229SOL     OW 4687   2.307   2.921   0.953  0.1306 -0.5182  0.5579
 1229SOL    HW2 4688   2.367   2.930   0.879  0.8101 -3.4755  0.5968
 1229SOL    HW3 4689   2.222   2.907   0.912  0.0981  0.1520  0.3947
 1229SOL    MW4 4690   2.304   2.920   0.938  0.6739  0.3389  0.1826
 1230SOL     OW 4691   3.704   1.561   5.209  0.1307  0.1556 -0.0354
 1230SOL    HW2 4692   3.612   1.580   5.230 -0.0706  0.7037 -1.3306
 1230SOL    HW3 4693   3.748   1.559   5.294 -1.2559 -1.1357  0.7105
 1230SOL    MW4 4694   3.697   1.563   5.223 -0.3385  1.1444  0.7879
 1231SOL     OW 4695   5.370   1.094   3.545 -0.4598  0.1542  0.2609
 1231SOL    HW2 4696   5.327   1.008   3.546  0.0338 -0.1015  1.2624
 1231SOL    HW3 4697   5.321   1.145   3.481 -1.2099 -0.6477  0.1766
 1231SOL    MW4 4698   5.358   1.089   3.537  0.0761  0.0687 -0.4019
 1232SOL     OW 4699   1.869   1.197   5.069  0.1082  0.9674  0.0253
 1232SOL    HW2 4700   1.911   1.233   5.147 -0.2359  1.2404  0.0846
 1232SOL    HW3 4701   1.850   1.106   5.091 -0.2792  1.1310  0.3781
 1232SOL    MW4 4702   1.872   1.190   5.082 -0.4287 -0.1127 -0.0505
 1233SOL     OW 4703   2.953   5.193   3.657  0.4189 -0.0455 -0.0050
 1233SOL    HW2 4704   2.912   5.248   3.590  0.3478 -1.5210 -1.2450
 1233SOL    HW3 4705   3.045   5.188   3.630  0.6934  0.4401  0.8004
 1233SOL    MW4 4706   2.960   5.200   3.644  0.0599  0.1363 -0.2998
 1234SOL     OW 4707   1.152   1.840   2.066 -0.4921  0.0292  0.4679
 1234SOL    HW2 4708   1.157   1.787   2.145 -0.1683  0.2916  0.6310
 1234SOL    HW3 4709   1.168   1.779   1.994  2.0404  0.2094  0.7589
 1234SOL    MW4 4710   1.155   1.825   2.067 -0.3173  0.0063  0.2424
 1235SOL     OW 4711   3.664   0.258   5.965 -0.6851  0.1211 -0.6724
 1235SOL    HW2 4712   3.651   0.268   5.871  0.4952  1.7193 -0.7126
 1235SOL    HW3 4713   3.638   0.342   6.002  0.5002  0.1196  0.2173
 1235SOL    MW4 4714   3.659   0.270   5.957  0.1589 -0.0667  0.3134
 1236SOL     OW 4715   1.392   5.919   0.915 -0.0075 -0.6076 -0.3445
 1236SOL    HW2 4716   1.421   5.844   0.967 -1.0172 -0.0332  1.1247
 1236SOL    HW3 4717   1.297   5.910   0.911  0.1026 -1.4496 -3.4650
 1236SOL    MW4 4718   1.383   5.908   0.922  0.3177 -0.3231  0.0336
 1237SOL     OW 4719   4.662   0.729   2.373 -0.5070  0.4393  0.0155
 1237SOL    HW2 4720   4.743   0.684   2.397  0.1430  2.3912  1.7532
 1237SOL    HW3 4721   4.615   0.666   2.319  1.7783 -1.0730 -0.3488
 1237SOL    MW4 4722   4.666   0.715   2.369  0.1064 -0.2124 -0.5379
 1238SOL     OW 4723   4.287   3.813   4.415 -0.2621 -0.2421 -0.7107
 1238SOL    HW2 4724   4.304   3.719   4.423  0.9239  0.0034 -0.1913
 1238SOL    HW3 4725   4.205   3.818   4.366 -0.5170 -1.5527 -0.4624
 1238SOL    MW4 4726   4.278   3.801   4.410 -0.0463 -0.6734 -1.0033
 1239SOL     OW 4727   4.351   6.122   6.214  0.0705  0.4469  0.0840
 1239SOL    HW2 4728   4.311   6.123   6.300  0.0312  0.4280  0.0661
 1239SOL    HW3 4729   4.288   6.076   6.158  0.8623 -1.1498  0.4326
 1239SOL    MW4 4730   4.338   6.116   6.218  0.4316 -0.2731 -0.4282
 1240SOL     OW 4731   6.141   5.462   3.073  0.2164  0.3527 -0.2731
 1240SOL    HW2 4732   6.093   5.380   3.080 -0.9473  0.9881 -0.5682
 1240SOL    HW3 4733   6.215   5.451   3.133 -0.1758 -0.7290  0.0439
 1240SOL    MW4 4734   6.145   5.450   3.082 -0.1047  0.0732  0.0385
 1241SOL     OW 4735   0.502   1.565   5.198 -0.2925  0.1455 -0.0598
 1241SOL    HW2 4736   0.539   1.653   5.199 -0.2585  0.2016  3.0012
 1241SOL    HW3 4737   0.430   1.570   5.135 -0.7316  2.5816  0.5285
 1241SOL    MW4 4738   0.498   1.577   5.190  0.9466 -0.8028  0.2991
 1242SOL     OW 4739   4.925   5.065   5.271  0.1282  0.6247  0.2157
 1242SOL    HW2 4740   4.908   5.144   5.321 -0.5723  0.0091  0.9699
 1242SOL    HW3 4741   4.839   5.027   5.254  0.4739 -0.2065  0.2359
 1242SOL    MW4 4742   4.911   5.070   5.275 -0.1398  0.2798  0.1304
 1243SOL     OW 4743   2.432   5.342   0.238  0.3066 -0.0004 -0.7691
 1243SOL    HW2 4744   2.396   5.338   0.327  0.8382  0.3994 -0.5310
 1243SOL    HW3 4745   2.419   5.433   0.212 -1.5105 -0.5129 -1.8161
 1243SOL    MW4 4746   2.425   5.353   0.246 -0.0853  0.3100  0.7856
 1244SOL     OW 4747   4.326   3.336   3.038 -0.1092 -0.4964  0.7297
 1244SOL    HW2 4748   4.235   3.363   3.033 -0.1467 -0.6854  0.3760
 1244SOL    HW3 4749   4.359   3.344   2.948  0.4924  0.5108  1.0163
 1244SOL    MW4 4750   4.319   3.340   3.026 -0.3195  0.0668  0.1181
 1245SOL     OW 4751   2.284   6.155   1.579  0.1470  0.1324  0.1477
 1245SOL    HW2 4752   2.252   6.239   1.612  0.0626  0.2449 -0.2184
 1245SOL    HW3 4753   2.302   6.103   1.658 -1.2513 -0.0574  0.3556
 1245SOL    MW4 4754   2.282   6.159   1.594 -0.5881 -0.6965  0.1354
 1246SOL     OW 4755   2.039   1.684   4.913  0.5035 -0.4005  0.4925
 1246SOL    HW2 4756   2.093   1.701   4.836  2.8431 -2.6141  1.5046
 1246SOL    HW3 4757   2.066   1.597   4.943 -1.6686 -0.4197  2.7497
 1246SOL    MW4 4758   2.050   1.675   4.907 -0.0240 -0.6945  0.3581
 1247SOL     OW 4759   3.662   3.737   4.300  0.0319  0.6171  0.6838
 1247SOL    HW2 4760   3.699   3.789   4.371  1.0656 -0.3554  0.8852
 1247SOL    HW3 4761   3.660   3.797   4.225  0.8815  1.0425  0.9942
 1247SOL    MW4 4762   3.666   3.752   4.299 -0.1648  0.2108  0.6321
 1248SOL     OW 4763   3.753   4.129   3.087 -0.2310  0.3826  0.2015
 1248SOL    HW2 4764   3.711   4.052   3.125  1.5186 -0.5088  0.3987
 1248SOL    HW3 4765   3.839   4.134   3.130  0.8134  0.7942 -1.8214
 1248SOL    MW4 4766   3.759   4.120   3.098 -0.2628  0.7488  0.1467
 1249SOL     OW 4767   1.063   5.563   6.274  0.3961 -0.0100  0.2133
 1249SOL    HW2 4768   1.001   5.535   6.341 -0.5577  0.5444 -0.4058
 1249SOL    HW3 4769   1.064   5.658   6.280  0.5863  0.0238 -0.3054
 1249SOL    MW4 4770   1.055   5.572   6.283  0.0496 -0.2701 -0.0916
 1250SOL     OW 4771   3.639   5.397   1.183  0.2917  0.5370  0.5262
 1250SOL    HW2 4772   3.605   5.307   1.181  0.3431  0.5342 -1.5954
 1250SOL    HW3 4773   3.600   5.434   1.263 -3.6585  0.0811 -0.9304
 1250SOL    MW4 4774   3.629   5.390   1.194  0.3139  0.3735  0.3349
 1251SOL     OW 4775   0.703   6.349   0.576 -0.3050 -0.3156 -0.3493
 1251SOL    HW2 4776   0.623   6.398   0.594 -0.1474 -0.4636  0.7755
 1251SOL    HW3 4777   0.678   6.287   0.506 -0.5231  1.2725 -1.7408
 1251SOL    MW4 4778   0.689   6.347   0.569  0.2697 -0.0460  0.0363
 1252SOL     OW 4779   5.411   1.130   4.665  0.2248 -0.4421 -0.4702
 1252SOL    HW2 4780   5.489   1.170   4.628  0.3446 -0.7447 -0.5460
 1252SOL    HW3 4781   5.391   1.182   4.743  1.3249 -1.2213  0.3714
 1252SOL    MW4 4782   5.418   1.142   4.670  0.3675  0.3413  0.1088
 1253SOL     OW 4783   3.145   4.512   2.176 -0.1158 -0.2567 -0.4006
 1253SOL    HW2 4784   3.090   4.529   2.099 -0.2295 -3.0414 -1.0390
 1253SOL    HW3 4785   3.232   4.497   2.141  0.5980  1.7022  0.3926
 1253SOL    MW4 4786   3.149   4.512   2.161  0.4331 -0.7634  0.3400
 1254SOL     OW 4787   0.865   0.780   0.734 -0.2701  0.2226 -0.1813
 1254SOL    HW2 4788   0.800   0.778   0.804 -0.2466 -0.0196 -0.1659
 1254SOL    HW3 4789   0.852   0.864   0.691  0.5435  0.9254  0.8977
 1254SOL    MW4 4790   0.855   0.791   0.737 -0.1062 -0.4436 -0.1998
 1255SOL     OW 4791   0.144   0.821   0.364 -0.4996  0.1560  0.6371
 1255SOL    HW2 4792   0.190   0.812   0.281  1.9870 -0.4277  1.9635
 1255SOL    HW3 4793   0.052   0.828   0.341  0.1240  0.0543 -2.1421
 1255SOL    MW4 4794   0.138   0.821   0.350 -0.1529  0.9748  0.0528
 1256SOL     OW 4795   3.192   6.141   6.137 -0.0309  0.4801 -0.1879
 1256SOL    HW2 4796   3.266   6.200   6.146 -0.1845  0.5868  0.4208
 1256SOL    HW3 4797   3.124   6.193   6.095  0.2971  0.3243 -0.9350
 1256SOL    MW4 4798   3.193   6.155   6.133  0.3515 -0.0012 -0.4035
 1257SOL     OW 4799   3.129   2.588   0.417 -0.3867 -0.0870  0.1752
 1257SOL    HW2 4800   3.163   2.673   0.389  1.0607 -0.7828 -0.2593
 1257SOL    HW3 4801   3.183   2.524   0.371 -1.8593 -1.2605  0.0087
 1257SOL    MW4 4802   3.140   2.591   0.407  0.2368  0.0907  0.6494
 1258SOL     OW 4803   0.751   4.357   1.016  0.0865 -0.8556 -0.0437
 1258SOL    HW2 4804   0.824   4.417   1.027 -0.7074 -0.1607  2.0792
 1258SOL    HW3 4805   0.673   4.413   1.022 -0.6400 -1.8873  0.4620
 1258SOL    MW4 4806   0.750   4.372   1.019 -0.0078  0.4151  0.2300
 1259SOL     OW 4807   5.836   1.120   5.659 -0.3820 -0.0786 -0.0955
 1259SOL    HW2 4808   5.826   1.052   5.726 -2.0487 -2.2373 -2.3178
 1259SOL    HW3 4809   5.924   1.107   5.624  1.1233  2.1046  2.5792
 1259SOL    MW4 4810   5.846   1.109   5.663 -0.1483 -0.4473  0.6856
 1260SOL     OW 4811   1.918   2.840   2.428  0.0269 -0.0345 -0.3399
 1260SOL    HW2 4812   1.888   2.863   2.340  0.2449  2.0857  0.0812
 1260SOL    HW3 4813   2.012   2.821   2.417 -0.6236 -3.5014 -1.1125
 1260SOL    MW4 4814   1.927   2.840   2.415 -0.4324  0.3226  0.2008
 1261SOL     OW 4815   1.904   5.053   3.734  0.1073  0.0345 -0.1043
 1261SOL    HW2 4816   1.857   5.111   3.795  0.7725  0.9196 -0.4128
 1261SOL    HW3 4817   1.890   5.093   3.649  0.7215 -0.1760 -0.3043
 1261SOL    MW4 4818   1.896   5.066   3.731  0.5630 -0.0023 -0.1885
 1262SOL     OW 4819   0.656   1.551   1.788  1.0692 -1.2322 -0.1881
 1262SOL    HW2 4820   0.726   1.605   1.825  0.5245 -1.2794  0.9418
 1262SOL    HW3 4821   0.632   1.595   1.707 -0.9682  1.6308  1.7642
 1262SOL    MW4 4822   0.662   1.564   1.783 -0.3577 -0.1394 -0.0842
 1263SOL     OW 4823   5.619   1.965   0.557 -0.4358  0.1459 -0.0021
 1263SOL    HW2 4824   5.613   1.947   0.651 -0.4230  0.2736  0.0233
 1263SOL    HW3 4825   5.708   1.997   0.545 -0.0462 -0.9718 -0.2433
 1263SOL    MW4 4826   5.630   1.967   0.568 -0.2782 -1.2860  0.0431
 1264SOL     OW 4827   2.863   0.651   2.427 -0.6525 -0.0604 -0.4656
 1264SOL    HW2 4828   2.944   0.669   2.380 -0.6256 -0.1228 -0.4446
 1264SOL    HW3 4829   2.887   0.581   2.488 -0.7867 -0.2630 -0.6433
 1264SOL    MW4 4830   2.877   0.644   2.429  0.0756  0.1419  0.1368
 1265SOL     OW 4831   1.173   1.586   3.626 -0.7228 -0.5915 -0.4070
 1265SOL    HW2 4832   1.172   1.619   3.716  1.0411  3.5273 -1.6581
 1265SOL    HW3 4833   1.084   1.604   3.593 -0.7484 -0.1271 -0.0873
 1265SOL    MW4 4834   1.161   1.593   3.633 -0.2124  0.4175 -0.6231
 1266SOL     OW 4835   2.454   4.141   2.622 -0.0344  0.0320 -0.1119
 1266SOL    HW2 4836   2.522   4.121   2.557  1.4202  1.6506  0.8256
 1266SOL    HW3 4837   2.449   4.236   2.623  1.4603  0.2410  3.4413
 1266SOL    MW4 4838   2.463   4.151   2.613 -0.8036  0.1720 -0.3480
 1267SOL     OW 4839   3.393   4.373   0.466  0.2497 -0.0994  0.2105
 1267SOL    HW2 4840   3.399   4.441   0.533  0.5338 -0.6891  0.8083
 1267SOL    HW3 4841   3.354   4.298   0.512 -1.2511  0.0556 -0.7579
 1267SOL    MW4 4842   3.389   4.372   0.481 -0.0050  0.1357  0.3536
 1268SOL     OW 4843   3.350   4.495   2.534  0.2092 -0.1072  0.2513
 1268SOL    HW2 4844   3.349   4.418   2.591 -0.5349 -1.4373 -1.4823
 1268SOL    HW3 4845   3.394   4.465   2.454  1.2613  1.7197  0.0856
 1268SOL    MW4 4846   3.356   4.481   2.531 -0.2040  0.1438 -0.4753
 1269SOL     OW 4847   3.256   0.642   0.107  0.5545 -0.4253 -0.2101
 1269SOL    HW2 4848   3.304   0.564   0.137  1.2980  0.0697 -0.0983
 1269SOL    HW3 4849   3.170   0.608   0.081  1.1687 -1.4276 -1.0276
 1269SOL    MW4 4850   3.251   0.627   0.108 -0.5083  0.3507  0.3428
 1270SOL     OW 4851   1.408   4.692   4.238  0.2461  0.2007 -0.4725
 1270SOL    HW2 4852   1.383   4.602   4.219 -3.6115  1.3762 -1.9306
 1270SOL    HW3 4853   1.404   4.699   4.333 -0.6060 -0.8842 -0.4129
 1270SOL    MW4 4854   1.404   4.681   4.248  0.0347  0.1208 -1.2194
 1271SOL     OW 4855   3.762   1.001   5.781  0.5812  0.0409 -0.0996
 1271SOL    HW2 4856   3.679   0.999   5.828  0.1377  0.2758 -0.8717
 1271SOL    HW3 4857   3.825   1.032   5.847  0.2061 -0.8344  0.6903
 1271SOL    MW4 4858   3.760   1.005   5.796 -0.8766 -0.2243  0.0483
 1272SOL     OW 4859   5.160   6.013   5.129 -0.0502 -0.1397  0.2413
 1272SOL    HW2 4860   5.175   5.997   5.036  0.1896  1.0641  0.0579
 1272SOL    HW3 4861   5.215   6.088   5.149 -1.5732  0.8267  0.9103
 1272SOL    MW4 4862   5.169   6.020   5.119  0.2811 -0.3226 -0.4562
 1273SOL     OW 4863   1.110   5.390   1.793 -0.0675  0.3524  0.1407
 1273SOL    HW2 4864   1.073   5.333   1.861 -0.4406  1.1252  0.6091
 1273SOL    HW3 4865   1.177   5.337   1.750  0.1675 -0.1544  1.1093
 1273SOL    MW4 4866   1.114   5.376   1.796 -0.5511 -0.4533  0.8226
 1274SOL     OW 4867   4.528   2.873   3.192  0.4878  0.1367  0.3694
 1274SOL    HW2 4868   4.470   2.946   3.175  0.1506 -0.2923 -0.3790
 1274SOL    HW3 4869   4.489   2.827   3.266 -0.3062 -0.3129 -0.3052
 1274SOL    MW4 4870   4.516   2.876   3.199 -0.3293  0.3114 -0.3490
 1275SOL     OW 4871   1.927   0.685   4.405 -0.0947  0.2485 -0.0223
 1275SOL    HW2 4872   1.853   0.625   4.410  1.0507 -1.5976 -2.9291
 1275SOL    HW3 4873   2.001   0.635   4.438  0.6340  0.4705 -1.2499
 1275SOL    MW4 4874   1.927   0.671   4.410 -0.5613 -0.0908  0.1370
 1276SOL     OW 4875   0.283   5.696   3.344 -0.2892  0.3233  0.0189
 1276SOL    HW2 4876   0.236   5.716   3.263  0.3192 -1.2471 -0.7626
 1276SOL    HW3 4877   0.360   5.647   3.315  0.2061  0.1655  1.5232
 1276SOL    MW4 4878   0.287   5.693   3.330 -0.1332 -0.1892  0.0861
 1277SOL     OW 4879   1.185   0.334   4.297 -0.4880  0.1120 -0.7172
 1277SOL    HW2 4880   1.138   0.251   4.286 -1.2820  0.7418 -2.3411
 1277SOL    HW3 4881   1.133   0.382   4.363 -0.6906 -0.2101 -0.6406
 1277SOL    MW4 4882   1.172   0.330   4.304  0.6821 -0.2325 -0.2730
 1278SOL     OW 4883   4.148   0.128   3.568 -0.0606  0.1040 -0.8828
 1278SOL    HW2 4884   4.070   0.093   3.612 -0.3598  1.5945 -0.1740
 1278SOL    HW3 4885   4.193   0.050   3.534 -0.2692 -1.0638  1.3053
 1278SOL    MW4 4886   4.144   0.113   3.569  0.4829  0.6976 -0.5252
 1279SOL     OW 4887   1.952   4.079   0.752 -0.2791  0.7086 -0.1440
 1279SOL    HW2 4888   1.916   4.033   0.829  0.9630  2.1405  1.3712
 1279SOL    HW3 4889   1.964   4.010   0.687 -0.2915 -0.8031  1.3675
 1279SOL    MW4 4890   1.949   4.064   0.754 -0.1710  0.0636 -0.8455
 1280SOL     OW 4891   0.991   5.621   4.158  0.1287  0.0830  0.2825
 1280SOL    HW2 4892   0.957   5.695   4.209 -1.1822 -0.5964  0.4121
 1280SOL    HW3 4893   0.970   5.544   4.210 -0.5965 -0.5685 -0.9319
 1280SOL    MW4 4894   0.984   5.621   4.171  0.3125 -0.0047 -0.6076
 1281SOL     OW 4895   3.700   0.189   4.439 -0.0690 -0.1426 -0.3167
 1281SOL    HW2 4896   3.641   0.115   4.425  1.1518 -0.7266 -3.0460
 1281SOL    HW3 4897   3.652   0.265   4.406 -0.1337 -0.2638 -0.5058
 1281SOL    MW4 4898   3.686   0.190   4.432  0.1045  0.2172  0.2608
 1282SOL     OW 4899   6.199   2.273   4.480 -0.6823 -0.1725 -0.1963
 1282SOL    HW2 4900   6.226   2.254   4.570 -1.3045 -2.4918 -0.4397
 1282SOL    HW3 4901   6.280   2.269   4.429 -0.4232  0.5216  0.1401
 1282SOL    MW4 4902   6.213   2.270   4.486 -0.4879  0.0369  0.0563
 1283SOL     OW 4903   4.136   1.853   1.032 -0.2158  0.0975 -0.2074
 1283SOL    HW2 4904   4.143   1.895   0.947 -0.1400  0.4651 -0.0220
 1283SOL    HW3 4905   4.072   1.906   1.080  0.2148  0.2721  0.1852
 1283SOL    MW4 4906   4.129   1.865   1.027  0.3188  0.0281 -0.1245
 1284SOL     OW 4907   3.496   4.240   3.099  0.0596  0.4276  0.0718
 1284SOL    HW2 4908   3.456   4.248   3.186  2.3487  1.0395  1.1601
 1284SOL    HW3 4909   3.577   4.191   3.115 -0.2645 -0.9300 -2.0306
 1284SOL    MW4 4910   3.501   4.234   3.113 -0.3086  0.5383 -0.4035
 1285SOL     OW 4911   1.147   3.914   6.457  0.0860 -0.2666  0.3086
 1285SOL    HW2 4912   1.089   3.976   6.501 -1.6241 -0.9696 -0.8458
 1285SOL    HW3 4913   1.146   3.940   6.365  0.6392 -1.0262  0.0735
 1285SOL    MW4 4914   1.139   3.926   6.451  0.1801 -0.3305 -0.9223
 1286SOL     OW 4915   1.404   6.279   3.919 -0.0286  0.1077 -0.1076
 1286SOL    HW2 4916   1.393   6.220   3.993  2.9483  0.1443  0.5019
 1286SOL    HW3 4917   1.395   6.367   3.956 -1.3978  0.1111 -0.4050
 1286SOL    MW4 4918   1.401   6.283   3.934 -0.5126  0.2816  0.7416
 1287SOL     OW 4919   2.797   1.729   5.476  0.7300 -0.2650 -0.0384
 1287SOL    HW2 4920   2.742   1.788   5.527  2.4182  1.0675  0.3276
 1287SOL    HW3 4921   2.862   1.696   5.538  3.0111  1.6125 -1.2629
 1287SOL    MW4 4922   2.799   1.732   5.491 -0.2289 -0.1452  0.3659
 1288SOL     OW 4923   2.183   0.950   2.477 -0.5210 -0.3630 -0.7313
 1288SOL    HW2 4924   2.109   1.001   2.445 -1.5500 -0.5867  1.1129
 1288SOL    HW3 4925   2.165   0.937   2.570  0.6927 -2.3785 -0.6944
 1288SOL    MW4 4926   2.171   0.955   2.485 -0.3376 -0.5867  0.3445
 1289SOL     OW 4927   0.626   5.985   5.542  0.1753 -0.0312  0.1561
 1289SOL    HW2 4928   0.579   5.932   5.606 -0.7976  1.3413  0.6158
 1289SOL    HW3 4929   0.557   6.025   5.489  0.7035  2.7437  1.4086
 1289SOL    MW4 4930   0.611   5.983   5.543  0.6520  0.2492 -0.4329
 1290SOL     OW 4931   4.223   5.043   2.263  0.2371 -0.9002  0.5312
 1290SOL    HW2 4932   4.206   4.964   2.314 -0.4898 -0.5370  0.8603
 1290SOL    HW3 4933   4.185   5.026   2.177  1.3011 -1.4403  0.1479
 1290SOL    MW4 4934   4.216   5.031   2.258  0.4426 -0.6151 -0.3520
 1291SOL     OW 4935   3.214   0.820   5.085  0.6224  0.2628 -0.5874
 1291SOL    HW2 4936   3.255   0.886   5.031 -0.2947  0.6242 -0.8573
 1291SOL    HW3 4937   3.242   0.840   5.174  1.9021 -0.1633 -0.8730
 1291SOL    MW4 4938   3.223   0.831   5.090  0.2103 -0.0029  0.1650
 1292SOL     OW 4939   6.154   5.481   2.779  0.4881 -0.1840  0.2616
 1292SOL    HW2 4940   6.233   5.443   2.740  0.6390  1.3203 -0.9888
 1292SOL    HW3 4941   6.166   5.471   2.874  1.0954 -2.0159  0.0267
 1292SOL    MW4 4942   6.166   5.475   2.787 -0.3464  0.1517 -0.1796
 1293SOL     OW 4943   0.300   1.282   1.670  0.6382  0.5360 -0.3080
 1293SOL    HW2 4944   0.234   1.299   1.603  1.0601 -2.7963 -1.7669
 1293SOL    HW3 4945   0.250   1.250   1.745  0.4099 -1.8595 -1.3665
 1293SOL    MW4 4946   0.284   1.280   1.671  0.0411 -0.0453 -0.2961
 1294SOL     OW 4947   5.032   6.266   4.280  0.1715 -0.3301 -0.5839
 1294SOL    HW2 4948   5.038   6.343   4.337  0.2990 -0.8896  0.1728
 1294SOL    HW3 4949   5.029   6.192   4.341 -4.3856 -0.7839 -1.0452
 1294SOL    MW4 4950   5.033   6.266   4.296  0.1266  0.6742  0.1488
 1295SOL     OW 4951   0.546   3.087   2.592 -0.3510  0.2814  0.3237
 1295SOL    HW2 4952   0.601   3.023   2.637  0.7867  1.5960  0.8860
 1295SOL    HW3 4953   0.577   3.172   2.624 -2.1269  1.1191 -0.0317
 1295SOL    MW4 4954   0.557   3.090   2.602 -0.0614 -0.0434  0.2436
 1296SOL     OW 4955   4.058   3.638   3.302 -0.0217 -0.2174 -0.0757
 1296SOL    HW2 4956   4.076   3.714   3.246 -1.7292  0.0225 -0.3794
 1296SOL    HW3 4957   4.128   3.576   3.282  1.4313  1.2805  0.2086
 1296SOL    MW4 4958   4.069   3.640   3.292 -0.0575 -0.3196  0.5572
 1297SOL     OW 4959   4.893   5.567   4.012 -0.2676 -0.2779 -0.2667
 1297SOL    HW2 4960   4.986   5.572   3.990  0.0201 -0.4829  0.8407
 1297SOL    HW3 4961   4.884   5.624   4.089 -1.6983  2.4159 -2.2359
 1297SOL    MW4 4962   4.904   5.575   4.020 -0.2258 -0.4389  0.2451
 1298SOL     OW 4963   6.055   5.721   5.206 -0.5473  0.1744 -0.4068
 1298SOL    HW2 4964   6.109   5.772   5.146  0.8723 -0.6502  0.1378
 1298SOL    HW3 4965   6.112   5.652   5.239 -1.8558 -0.5778  0.4034
 1298SOL    MW4 4966   6.069   5.719   5.203  0.1432  0.1234  0.0622
 1299SOL     OW 4967   1.533   2.197   0.554  0.9660  0.2838 -0.0482
 1299SOL    HW2 4968   1.524   2.146   0.634 -1.5331 -0.9409 -1.0069
 1299SOL    HW3 4969   1.614   2.166   0.515 -0.1326 -2.5939 -0.2644
 1299SOL    MW4 4970   1.542   2.186   0.559 -0.7728  0.1261 -0.1997
 1300SOL     OW 4971   3.357   5.206   1.775  0.6208  0.1563 -0.6357
 1300SOL    HW2 4972   3.427   5.149   1.807 -0.0292  1.3085  3.3770
 1300SOL    HW3 4973   3.400   5.289   1.756  0.7999 -0.1343 -1.5630
 1300SOL    MW4 4974   3.372   5.209   1.777  0.3687 -0.4832  0.0257
 1301SOL     OW 4975   3.645   2.422   0.069  0.4583 -0.0631  0.3468
 1301SOL    HW2 4976   3.690   2.493   0.115  0.4191  1.5499 -1.9194
 1301SOL    HW3 4977   3.554   2.428   0.099 -0.0409  2.3658 -1.3722
 1301SOL    MW4 4978   3.639   2.432   0.079 -0.3310  0.5974  0.3020
 1302SOL     OW 4979   1.381   1.207   2.652  0.0664  0.4985  0.3122
 1302SOL    HW2 4980   1.380   1.112   2.640 -0.6816  0.6846 -1.2747
 1302SOL    HW3 4981   1.452   1.222   2.715  0.4449 -1.0741  0.3058
 1302SOL    MW4 4982   1.391   1.197   2.659  0.0749  0.3248 -0.3544
 1303SOL     OW 4983   4.352   4.695   2.977 -0.4778  0.3349  0.1976
 1303SOL    HW2 4984   4.448   4.697   2.982 -0.3471 -1.4119 -0.8085
 1303SOL    HW3 4985   4.327   4.787   2.972  1.4145  0.8358 -3.3557
 1303SOL    MW4 4986   4.362   4.707   2.977  0.2716  0.0016  0.0947
 1304SOL     OW 4987   4.390   4.339   0.245  0.0344  0.0377 -0.2628
 1304SOL    HW2 4988   4.328   4.410   0.234 -0.5423 -0.1769  1.3515
 1304SOL    HW3 4989   4.350   4.265   0.199  1.6841  1.1921 -3.9792
 1304SOL    MW4 4990   4.377   4.339   0.237 -0.0694 -0.7131 -0.2432
 1305SOL     OW 4991   4.106   2.370   1.648 -1.1163 -0.4163 -0.4356
 1305SOL    HW2 4992   4.063   2.444   1.604 -1.5911 -1.0546 -1.0902
 1305SOL    HW3 4993   4.034   2.323   1.691 -0.6825  0.0596  0.8325
 1305SOL    MW4 4994   4.091   2.374   1.648 -0.0099  0.1866  0.3327
 1306SOL     OW 4995   2.003   5.859   0.040  0.1651 -0.2526  0.5911
 1306SOL    HW2 4996   1.929   5.833  -0.014  0.9230 -0.3466 -0.4421
 1306SOL    HW3 4997   1.981   5.947   0.071  0.3005  0.4065 -1.0520
 1306SOL    MW4 4998   1.991   5.868   0.037  0.3882 -0.3308 -0.2001
 1307SOL     OW 4999   5.416   1.046   2.109 -0.4688  0.5267  0.5381
 1307SOL    HW2 5000   5.493   0.999   2.078 -1.5627  1.1926 -3.8487
 1307SOL    HW3 5001   5.384   0.994   2.183  2.8999 -0.9206  1.1635
 1307SOL    MW4 5002   5.422   1.033   2.115  0.4503  0.5332  0.2685
 1308SOL     OW 5003   0.429   1.374   2.900 -0.9711 -0.2061  0.4556
 1308SOL    HW2 5004   0.406   1.281   2.890  0.4909 -0.5987  0.5359
 1308SOL    HW3 5005   0.407   1.413   2.816 -1.3284 -0.6746  0.3243
 1308SOL    MW4 5006   0.423   1.367   2.888  0.1940  0.0795  0.1293
 1309SOL     OW 5007   1.576   2.853   3.674 -0.1998  0.1813  0.5235
 1309SOL    HW2 5008   1.549   2.891   3.591  0.3455  2.0790  1.1636
 1309SOL    HW3 5009   1.671   2.839   3.665 -0.7406 -4.2385 -0.8602
 1309SOL    MW4 5010   1.585   2.856   3.662 -0.4582 -0.5157  0.5631
 1310SOL     OW 5011   2.599   3.421   3.220  0.7759  0.2093 -0.1018
 1310SOL    HW2 5012   2.629   3.429   3.130  2.4449 -1.5417  0.2380
 1310SOL    HW3 5013   2.650   3.349   3.257 -0.0435  0.6903  2.1790
 1310SOL    MW4 5014   2.609   3.412   3.213  0.4398  0.2757  1.0119
 1311SOL     OW 5015   0.213   4.190   4.350  0.1618 -0.1830 -0.0660
 1311SOL    HW2 5016   0.177   4.120   4.295 -2.9250  1.0915  0.1213
 1311SOL    HW3 5017   0.164   4.268   4.324  1.7545  1.4197  1.4542
 1311SOL    MW4 5018   0.202   4.191   4.339  1.2099 -0.0770 -0.1191
 1312SOL     OW 5019   5.866   1.182   6.152 -0.1547  0.2804 -0.5125
 1312SOL    HW2 5020   5.899   1.272   6.155  1.5809 -0.2189 -2.2920
 1312SOL    HW3 5021   5.770   1.191   6.156 -0.0593  2.2772 -1.4240
 1312SOL    MW4 5022   5.857   1.195   6.153  0.1738  0.2634 -0.3832
 1313SOL     OW 5023   2.727   0.836   2.761 -0.1511  0.2314 -0.4432
 1313SOL    HW2 5024   2.804   0.879   2.725  0.8647 -1.6335 -0.6293
 1313SOL    HW3 5025   2.752   0.816   2.852  0.1566 -1.5631 -0.8825
 1313SOL    MW4 5026   2.741   0.839   2.769 -0.2886  0.3265 -0.4877
 1314SOL     OW 5027   4.839   4.522   4.255 -0.0694  0.1082 -0.6096
 1314SOL    HW2 5028   4.919   4.493   4.300  0.0658  2.6149  0.9204
 1314SOL    HW3 5029   4.867   4.597   4.203 -0.9917 -0.5007 -2.0402
 1314SOL    MW4 5030   4.854   4.528   4.254 -0.5066 -0.5904  0.2283
 1315SOL     OW 5031   4.310   5.732   4.327  0.3831  0.0614  0.5765
 1315SOL    HW2 5032   4.348   5.704   4.410  1.1901  3.3228  1.4178
 1315SOL    HW3 5033   4.386   5.756   4.273 -0.1328  4.7883  1.5735
 1315SOL    MW4 5034   4.325   5.731   4.331 -0.1099 -0.1438 -0.2855
 1316SOL     OW 5035   6.049   2.718   5.273  0.2001 -0.0882  0.0558
 1316SOL    HW2 5036   6.017   2.661   5.343 -0.1354  1.6019  1.3459
 1316SOL    HW3 5037   5.974   2.729   5.214 -0.0670 -0.0976  0.3944
 1316SOL    MW4 5038   6.035   2.712   5.274  0.3770  0.2537 -0.3349
 1317SOL     OW 5039   4.734   5.868   2.549 -0.5253 -0.2382 -0.5160
 1317SOL    HW2 5040   4.704   5.884   2.460  2.7209  0.8421 -1.5599
 1317SOL    HW3 5041   4.777   5.782   2.544 -0.6674 -0.3458  0.1021
 1317SOL    MW4 5042   4.736   5.858   2.536  0.0154  0.1438  0.7448
 1318SOL     OW 5043   1.538   6.050   5.291 -0.4508  0.1304  0.6718
 1318SOL    HW2 5044   1.587   6.070   5.371 -0.4922  2.2242  0.2248
 1318SOL    HW3 5045   1.452   6.088   5.306 -1.2175 -1.4421  0.4861
 1318SOL    MW4 5046   1.533   6.058   5.304 -0.1661 -0.2832 -0.4701
 1319SOL     OW 5047   1.151   2.699   4.784  0.0162  0.5390  0.3097
 1319SOL    HW2 5048   1.090   2.697   4.711 -0.1148 -1.3226  0.4321
 1319SOL    HW3 5049   1.177   2.608   4.796  0.9259  0.9690  1.8466
 1319SOL    MW4 5050   1.147   2.687   4.776 -0.0812 -0.5186 -0.0665
 1320SOL     OW 5051   2.817   2.926   6.421  0.3390 -0.9646 -0.0892
 1320SOL    HW2 5052   2.746   2.878   6.378 -0.3855 -0.4698  0.5260
 1320SOL    HW3 5053   2.814   2.896   6.513 -0.2269  0.3493  0.3401
 1320SOL    MW4 5054   2.808   2.916   6.428  0.6992 -0.0299 -0.0418
 1321SOL     OW 5055   1.789   1.710   1.055  0.5173 -0.3050 -0.8038
 1321SOL    HW2 5056   1.742   1.630   1.079 -1.9628  1.0049 -0.9610
 1321SOL    HW3 5057   1.800   1.758   1.137 -0.7025  0.5090 -1.0920
 1321SOL    MW4 5058   1.784   1.705   1.069  0.2196 -0.0202 -0.1763
 1322SOL     OW 5059   1.004   5.736   3.788 -0.1501 -0.2817 -0.1714
 1322SOL    HW2 5060   0.954   5.684   3.851 -1.6766  0.8357 -0.3918
 1322SOL    HW3 5061   1.044   5.671   3.729 -2.6296 -1.2597 -0.9215
 1322SOL    MW4 5062   1.003   5.720   3.788  0.4260  0.3451 -0.4772
 1323SOL     OW 5063   0.599   2.419   5.743  0.0367 -0.7174 -0.3996
 1323SOL    HW2 5064   0.613   2.365   5.822 -0.1744 -0.9298 -0.5056
 1323SOL    HW3 5065   0.518   2.466   5.760  1.5416  1.6550  0.8547
 1323SOL    MW4 5066   0.590   2.418   5.756  0.2767 -0.6273  0.1552
 1324SOL     OW 5067   4.827   5.133   5.900  0.1685  0.1909  0.1480
 1324SOL    HW2 5068   4.849   5.141   5.808 -1.0770  0.0042 -0.1794
 1324SOL    HW3 5069   4.794   5.044   5.910  0.4360  0.1574  0.8064
 1324SOL    MW4 5070   4.825   5.122   5.889 -0.0950  0.2601 -0.1879
 1325SOL     OW 5071   1.567   0.186   0.805 -0.2423  0.4703 -0.1148
 1325SOL    HW2 5072   1.489   0.220   0.761 -1.0134  0.0570  0.9054
 1325SOL    HW3 5073   1.586   0.249   0.874 -1.7245 -1.0815  1.8374
 1325SOL    MW4 5074   1.559   0.199   0.808 -0.5535 -0.0959  0.0845
 1326SOL     OW 5075   3.130   5.302   2.164  0.5106 -0.6380  0.2500
 1326SOL    HW2 5076   3.057   5.253   2.202  2.9876 -3.7921  1.4647
 1326SOL    HW3 5077   3.138   5.267   2.075 -0.0146  0.4258 -0.2280
 1326SOL    MW4 5078   3.122   5.291   2.157 -0.1693 -0.4827  0.3725
 1327SOL     OW 5079   0.129   4.962   3.131 -0.7044  0.0372  0.1652
 1327SOL    HW2 5080   0.207   5.009   3.161  1.4792 -2.5098 -1.1136
 1327SOL    HW3 5081   0.115   4.894   3.197 -1.4749  0.0399  0.0207
 1327SOL    MW4 5082   0.137   4.959   3.144  0.0091  0.2426  0.5756
 1328SOL     OW 5083   4.493   4.439   4.003 -0.1429 -0.2251  0.1952
 1328SOL    HW2 5084   4.535   4.495   3.938  0.1960 -1.2775 -0.5116
 1328SOL    HW3 5085   4.469   4.499   4.074  2.0151  0.5165  0.3719
 1328SOL    MW4 5086   4.495   4.455   4.004 -0.1094  0.6174  0.8611
 1329SOL     OW 5087   5.399   0.915   2.384  0.0373 -0.2837 -0.1205
 1329SOL    HW2 5088   5.472   0.965   2.419  0.4486 -1.5273  0.8712
 1329SOL    HW3 5089   5.342   0.900   2.460 -1.6187  1.2018 -0.9806
 1329SOL    MW4 5090   5.401   0.920   2.398  0.3095 -0.0361  0.4305
 1330SOL     OW 5091   0.246   1.343   5.426 -0.1728 -0.2649 -0.7997
 1330SOL    HW2 5092   0.337   1.370   5.435 -0.5397  1.4000 -1.6545
 1330SOL    HW3 5093   0.250   1.259   5.382  0.9472 -0.0275 -1.1874
 1330SOL    MW4 5094   0.258   1.336   5.421 -0.0557  0.3438 -0.0766
 1331SOL     OW 5095   1.204   1.869   2.848  0.1247 -0.0840 -0.7460
 1331SOL    HW2 5096   1.151   1.885   2.926 -0.5895 -1.3507 -0.9450
 1331SOL    HW3 5097   1.143   1.876   2.775  0.5842  0.0847 -1.1223
 1331SOL    MW4 5098   1.189   1.872   2.849  0.1894  0.2922  0.5913
 1332SOL     OW 5099   6.066   3.838   0.107  0.3489 -0.3904 -0.2605
 1332SOL    HW2 5100   6.013   3.909   0.142 -0.1556 -1.4521  1.2345
 1332SOL    HW3 5101   6.153   3.851   0.143 -0.1994 -1.5554  1.6352
 1332SOL    MW4 5102   6.070   3.849   0.116 -0.0570 -0.5767  0.5746
 1333SOL     OW 5103   1.883   0.435   2.373  0.5196  0.1503  0.0014
 1333SOL    HW2 5104   1.895   0.515   2.424  0.7800  1.2664 -1.7372
 1333SOL    HW3 5105   1.882   0.365   2.438  0.1818  1.5626  1.5739
 1333SOL    MW4 5106   1.885   0.436   2.388  0.2418 -0.2607 -0.1094
 1334SOL     OW 5107   2.431   6.380   3.990 -0.2938 -0.3921 -0.7347
 1334SOL    HW2 5108   2.369   6.394   3.919 -0.1933 -0.9669 -0.9424
 1334SOL    HW3 5109   2.423   6.458   4.046 -2.9195 -1.4659  0.5334
 1334SOL    MW4 5110   2.422   6.392   3.988 -0.3409  0.5278  0.5360
 1335SOL     OW 5111   3.012   4.503   1.936  0.4110 -0.3025  0.1259
 1335SOL    HW2 5112   2.925   4.466   1.926  0.5212 -0.7536  0.7875
 1335SOL    HW3 5113   3.071   4.437   1.900  0.5160 -0.1928  0.0956
 1335SOL    MW4 5114   3.009   4.490   1.930  0.3524 -0.1151 -0.6060
 1336SOL     OW 5115   3.292   4.719   2.930 -0.2420  0.3454  0.0461
 1336SOL    HW2 5116   3.298   4.809   2.963  0.0705  0.4996 -0.4323
 1336SOL    HW3 5117   3.340   4.667   2.994  0.9890  0.7423 -0.5376
 1336SOL    MW4 5118   3.299   4.724   2.943 -0.1178  0.1451 -0.2927
 1337SOL     OW 5119   4.998   1.544   2.213  0.1636  0.1735 -0.2291
 1337SOL    HW2 5120   4.916   1.584   2.242  0.6594  1.7176 -0.8409
 1337SOL    HW3 5121   5.067   1.598   2.252  1.0322 -2.4734  2.2560
 1337SOL    MW4 5122   4.996   1.556   2.222 -0.1828  1.0159  0.3660
 1338SOL     OW 5123   0.489   5.058   2.963 -0.1140 -0.2598 -0.0602
 1338SOL    HW2 5124   0.583   5.040   2.954 -0.2326 -1.3060  0.7215
 1338SOL    HW3 5125   0.446   4.975   2.946 -0.8585  0.0133  0.4344
 1338SOL    MW4 5126   0.496   5.045   2.959  0.0376 -0.7109 -0.6269
 1339SOL     OW 5127   0.249   2.129   2.894 -0.1537  0.7758 -0.1045
 1339SOL    HW2 5128   0.212   2.041   2.893  0.5821  0.2870  3.4814
 1339SOL    HW3 5129   0.178   2.185   2.861 -1.2260 -0.9463 -0.8734
 1339SOL    MW4 5130   0.235   2.125   2.889 -0.1735 -0.6152 -0.8048
 1340SOL     OW 5131   0.839   6.179   4.773 -0.5290 -0.2376  0.3069
 1340SOL    HW2 5132   0.801   6.189   4.686 -0.1160 -1.0155  0.0295
 1340SOL    HW3 5133   0.884   6.263   4.790  0.6665 -0.6157 -0.8647
 1340SOL    MW4 5134   0.840   6.192   4.764  0.4612  0.3097  0.2369
 1341SOL     OW 5135   3.802   4.258   4.611  0.1143  0.1985 -0.3443
 1341SOL    HW2 5136   3.722   4.246   4.663 -0.0607  0.1771 -0.6215
 1341SOL    HW3 5137   3.855   4.180   4.631  0.9014  1.0980  1.3308
 1341SOL    MW4 5138   3.799   4.246   4.621 -0.5236 -0.1071  0.4741
 1342SOL     OW 5139   0.375   0.421   3.556  0.0578  0.0811  0.0859
 1342SOL    HW2 5140   0.315   0.444   3.627 -0.6484 -1.1611 -0.0648
 1342SOL    HW3 5141   0.395   0.328   3.571 -0.2685 -0.2679 -1.4266
 1342SOL    MW4 5142   0.370   0.411   3.567  0.4798  0.2479 -0.1219
 1343SOL     OW 5143   5.462   3.207   3.345 -0.6217  0.2966 -0.5001
 1343SOL    HW2 5144   5.394   3.250   3.397  1.6762  0.7960  2.4119
 1343SOL    HW3 5145   5.462   3.253   3.262 -2.3487  1.7396  0.2238
 1343SOL    MW4 5146   5.453   3.218   3.341  0.4504  0.3222  0.4414
 1344SOL     OW 5147   4.968   3.486   1.446 -0.1355 -0.0535 -0.1645
 1344SOL    HW2 5148   5.012   3.514   1.526  1.1570 -0.7305 -0.6035
 1344SOL    HW3 5149   5.003   3.399   1.429 -0.1337  0.1982 -1.6250
 1344SOL    MW4 5150   4.979   3.478   1.454  0.6438  0.5537  0.1467
 1345SOL     OW 5151   3.578   5.964   5.383  0.2290 -0.8453  0.0278
 1345SOL    HW2 5152   3.662   5.998   5.413 -0.0235 -0.1111 -0.0590
 1345SOL    HW3 5153   3.575   5.987   5.290 -0.1905 -0.5878  0.0985
 1345SOL    MW4 5154   3.588   5.972   5.374  0.2432 -0.1589  0.6105
 1346SOL     OW 5155   0.663   4.948   0.874  0.7554  0.5006  0.3747
 1346SOL    HW2 5156   0.590   5.006   0.850  1.9689  1.5487 -0.9612
 1346SOL    HW3 5157   0.667   4.953   0.969  0.8444  2.6902  0.3042
 1346SOL    MW4 5158   0.654   4.956   0.883  0.1038  0.0628 -0.5782
 1347SOL     OW 5159   0.103   0.426   1.753  0.1925 -0.6132 -0.0187
 1347SOL    HW2 5160   0.035   0.456   1.692  0.9277  0.0810 -0.5282
 1347SOL    HW3 5161   0.092   0.482   1.830  0.3846 -0.2783 -0.2304
 1347SOL    MW4 5162   0.093   0.437   1.755 -0.0186  0.4551  0.2343
 1348SOL     OW 5163   4.376   3.377   2.770  0.1117  0.5808 -0.3250
 1348SOL    HW2 5164   4.368   3.318   2.695 -4.2059  0.0312  0.3000
 1348SOL    HW3 5165   4.327   3.455   2.744  2.3268  2.2852  0.3698
 1348SOL    MW4 5166   4.368   3.379   2.756 -0.3264  0.8694  0.2729
 1349SOL     OW 5167   3.261   1.020   2.602  0.2321 -0.1697  0.1669
 1349SOL    HW2 5168   3.252   0.995   2.694  0.5710  0.9793  0.5220
 1349SOL    HW3 5169   3.255   1.115   2.602  0.9602 -0.1051 -0.9163
 1349SOL    MW4 5170   3.259   1.029   2.614  0.2631 -0.2088 -0.2422
 1350SOL     OW 5171   2.819   5.147   4.346  0.4624  0.4364 -0.3678
 1350SOL    HW2 5172   2.911   5.171   4.331  0.2199  0.9684 -1.0942
 1350SOL    HW3 5173   2.775   5.169   4.263 -0.4483  0.8254  0.2028
 1350SOL    MW4 5174   2.825   5.153   4.333 -0.3563 -0.1506  0.3045
 1351SOL     OW 5175   3.519   4.538   1.425 -0.0922  1.1421 -0.5335
 1351SOL    HW2 5176   3.434   4.548   1.382 -0.4674  0.3927  0.0125
 1351SOL    HW3 5177   3.583   4.557   1.356 -0.6698 -0.5286 -1.5830
 1351SOL    MW4 5178   3.516   4.542   1.410 -0.4333 -0.0199  0.4268
 1352SOL     OW 5179   0.761   0.126   1.047 -0.4603  0.3322  0.0272
 1352SOL    HW2 5180   0.764   0.209   1.094 -2.4802  1.0157 -0.8875
 1352SOL    HW3 5181   0.673   0.092   1.065 -0.1251 -0.9528 -0.6611
 1352SOL    MW4 5182   0.750   0.132   1.055  0.3220  0.3843  0.4868
 1353SOL     OW 5183   5.154   5.401   5.126  0.6345  0.1999 -0.4007
 1353SOL    HW2 5184   5.245   5.396   5.096  1.3966 -0.0411  1.7943
 1353SOL    HW3 5185   5.155   5.358   5.212 -1.7414 -0.5782 -0.6936
 1353SOL    MW4 5186   5.167   5.394   5.133  0.4500  0.3066 -0.4447
 1354SOL     OW 5187   5.607   4.333   4.388 -0.0302  0.0761  0.5024
 1354SOL    HW2 5188   5.632   4.241   4.381 -0.7897 -0.3970  3.0397
 1354SOL    HW3 5189   5.514   4.331   4.408 -0.1477  1.4281  0.1645
 1354SOL    MW4 5190   5.598   4.321   4.390  0.3462 -0.2722  0.5622
 1355SOL     OW 5191   1.229   3.401   3.416  0.8739 -0.2429  0.5162
 1355SOL    HW2 5192   1.257   3.318   3.454 -0.5328 -0.2858  1.5173
 1355SOL    HW3 5193   1.271   3.403   3.330  4.1606 -0.1289  1.9926
 1355SOL    MW4 5194   1.238   3.391   3.410 -0.2843  0.4924 -0.5751
 1356SOL     OW 5195   0.371   1.054   4.135  0.5038 -0.3264  0.3025
 1356SOL    HW2 5196   0.384   1.087   4.224 -0.3856 -1.1937  0.7726
 1356SOL    HW3 5197   0.280   1.072   4.115  0.7599  0.0672 -0.5298
 1356SOL    MW4 5198   0.361   1.060   4.144  0.3416  0.5833  0.5973
 1357SOL     OW 5199   6.045   5.122   2.323 -0.1048  0.2266  0.0068
 1357SOL    HW2 5200   5.962   5.130   2.371 -0.3152 -1.7091  0.0309
 1357SOL    HW3 5201   6.025   5.157   2.236 -0.5231  1.1115  0.4397
 1357SOL    MW4 5202   6.031   5.127   2.318 -0.2035  0.4157 -0.0673
 1358SOL     OW 5203   2.207   4.711   3.137 -0.0545  0.1454  0.0125
 1358SOL    HW2 5204   2.187   4.768   3.211  0.6384  0.0737  0.2547
 1358SOL    HW3 5205   2.220   4.625   3.176  1.6770  0.3671 -0.0201
 1358SOL    MW4 5206   2.206   4.707   3.152 -0.6783 -0.7074 -0.0450
 1359SOL     OW 5207   6.267   0.399   4.363 -0.8260  0.2237 -0.1001
 1359SOL    HW2 5208   6.199   0.432   4.423  0.2376 -0.2707  1.4279
 1359SOL    HW3 5209   6.328   0.472   4.354 -0.3794 -0.0933  0.3509
 1359SOL    MW4 5210   6.266   0.413   4.369 -0.0247 -0.1062 -0.0440
 1360SOL     OW 5211   1.102   6.122   0.203  0.0763 -0.3982 -0.2276
 1360SOL    HW2 5212   1.042   6.049   0.187 -1.1685  0.3840  0.6871
 1360SOL    HW3 5213   1.141   6.104   0.289 -0.3280  0.0667  0.0571
 1360SOL    MW4 5214   1.099   6.110   0.212 -0.1531  0.1598  0.4281
 1361SOL     OW 5215   4.793   4.794   2.365  0.3236 -0.4019 -0.3742
 1361SOL    HW2 5216   4.842   4.876   2.364  1.7407 -1.2334 -0.7266
 1361SOL    HW3 5217   4.702   4.821   2.353  0.8148  1.0739 -1.0216
 1361SOL    MW4 5218   4.787   4.809   2.363  0.2092 -0.3612 -0.0885
 1362SOL     OW 5219   5.592   4.609   5.152 -0.0530 -0.3556  0.0257
 1362SOL    HW2 5220   5.534   4.532   5.151 -1.2286  0.4396 -2.6267
 1362SOL    HW3 5221   5.645   4.599   5.072 -0.4141  1.6742 -0.5179
 1362SOL    MW4 5222   5.592   4.597   5.141 -0.1656 -0.8525  0.2118
 1363SOL     OW 5223   4.098   4.901   4.175  0.1041 -0.1861 -0.3849
 1363SOL    HW2 5224   4.047   4.978   4.200  1.2545  0.1217  1.1522
 1363SOL    HW3 5225   4.171   4.936   4.124  0.0774 -0.3595 -0.5408
 1363SOL    MW4 5226   4.101   4.916   4.172  0.3963  0.7092 -0.1569
 1364SOL     OW 5227   3.523   0.812   1.318  0.2965  0.1836  0.1474
 1364SOL    HW2 5228   3.542   0.852   1.403  1.3104  0.9720 -0.4094
 1364SOL    HW3 5229   3.454   0.867   1.280 -1.1945 -1.0198  1.0223
 1364SOL    MW4 5230   3.517   0.825   1.324  0.2827  0.2549  0.5646
 1365SOL     OW 5231   4.448   1.827   5.742 -0.1105 -0.2685  0.1789
 1365SOL    HW2 5232   4.404   1.901   5.703  1.9222  1.5328  1.0883
 1365SOL    HW3 5233   4.481   1.776   5.668  1.0762  1.4318 -0.5233
 1365SOL    MW4 5234   4.447   1.830   5.727  0.2357 -0.0049 -0.1072
 1366SOL     OW 5235   0.043   1.037   2.811 -0.3687 -0.2350  0.1066
 1366SOL    HW2 5236  -0.009   0.997   2.881 -0.1201  0.4054  0.6717
 1366SOL    HW3 5237  -0.022   1.074   2.751 -0.5946 -1.2503 -0.2941
 1366SOL    MW4 5238   0.028   1.037   2.812  0.1770  0.4194 -0.2220
 1367SOL     OW 5239   6.355   3.255   1.399 -0.2332 -0.0637 -0.1011
 1367SOL    HW2 5240   6.291   3.299   1.455  0.5927  0.2423  0.6289
 1367SOL    HW3 5241   6.373   3.318   1.329  0.6830  0.6498  0.7489
 1367SOL    MW4 5242   6.349   3.269   1.397 -0.2732 -0.0929  0.0042
 1368SOL     OW 5243   3.269   1.481   4.332 -0.1364  0.4329 -0.4823
 1368SOL    HW2 5244   3.341   1.451   4.275  2.5030  2.6669  1.4136
 1368SOL    HW3 5245   3.249   1.569   4.301 -1.6245  0.0925 -0.5352
 1368SOL    MW4 5246   3.276   1.489   4.320 -0.2583  0.0739 -0.3127
 1369SOL     OW 5247   6.357   1.274   5.235  0.2415  0.2906 -0.5772
 1369SOL    HW2 5248   6.440   1.227   5.241  1.1810  1.9955  0.6853
 1369SOL    HW3 5249   6.342   1.283   5.141  0.6890 -1.3379 -0.8353
 1369SOL    MW4 5250   6.366   1.269   5.223 -0.3959  0.0646  0.1325
 1370SOL     OW 5251   4.343   3.086   4.452  0.2827 -0.4561  0.1470
 1370SOL    HW2 5252   4.252   3.110   4.433  0.9254  0.8648 -1.5571
 1370SOL    HW3 5253   4.368   3.030   4.379  1.5432  1.2186 -0.7820
 1370SOL    MW4 5254   4.334   3.082   4.440  0.1515 -0.6577  0.1355
 1371SOL     OW 5255   4.486   4.546   4.858  0.6927 -0.4857  0.1683
 1371SOL    HW2 5256   4.562   4.544   4.799  0.6925  0.2132  0.1392
 1371SOL    HW3 5257   4.465   4.454   4.873  1.3256 -0.6807 -0.1114
 1371SOL    MW4 5258   4.493   4.534   4.852 -0.6067 -0.2853  0.3730
 1372SOL     OW 5259   3.590   4.380   0.804 -0.0171  0.3020  0.1624
 1372SOL    HW2 5260   3.650   4.439   0.759 -0.8638  0.8884 -0.2424
 1372SOL    HW3 5261   3.503   4.415   0.784 -0.4732 -0.2198  1.1466
 1372SOL    MW4 5262   3.586   4.393   0.796  0.3678  0.0914  0.3850
 1373SOL     OW 5263   4.621   3.113   0.464  0.3781  0.2264  0.5598
 1373SOL    HW2 5264   4.642   3.167   0.388 -1.3816 -1.2249 -1.0665
 1373SOL    HW3 5265   4.706   3.080   0.495  1.1238  0.7208 -0.8766
 1373SOL    MW4 5266   4.635   3.116   0.458  0.0175 -0.4392  0.3492
 1374SOL     OW 5267   1.653   0.708   6.270  0.4059 -0.9931 -0.2672
 1374SOL    HW2 5268   1.686   0.722   6.359 -0.9946 -0.8284  0.2544
 1374SOL    HW3 5269   1.660   0.794   6.228  1.6033 -1.1980 -0.5289
 1374SOL    MW4 5270   1.658   0.721   6.276  0.0896  0.3944 -0.4050
 1375SOL     OW 5271   2.805   5.841   3.478  0.0055  0.0955 -0.0010
 1375SOL    HW2 5272   2.898   5.853   3.500  0.3742 -0.3969 -1.2300
 1375SOL    HW3 5273   2.775   5.774   3.540 -0.3041  2.2168  2.3035
 1375SOL    MW4 5274   2.813   5.834   3.489 -0.1536 -0.2835 -0.0247
 1376SOL     OW 5275   1.264   4.291   0.244  0.1319  0.2894  0.1766
 1376SOL    HW2 5276   1.218   4.326   0.321  0.3574 -0.0896  0.4870
 1376SOL    HW3 5277   1.222   4.334   0.170 -0.8383 -0.1824  0.4384
 1376SOL    MW4 5278   1.252   4.302   0.244  0.3175 -0.8107 -0.2137
 1377SOL     OW 5279   3.691   3.240   4.987  0.3117  0.1202  0.5769
 1377SOL    HW2 5280   3.742   3.258   4.909 -0.4501 -1.3083 -0.2991
 1377SOL    HW3 5281   3.614   3.297   4.981 -0.2471 -0.6986 -0.2570
 1377SOL    MW4 5282   3.688   3.250   4.976 -0.6393  0.0349  0.0955
 1378SOL     OW 5283   5.963   1.130   3.341 -0.1512  0.0410  0.1847
 1378SOL    HW2 5284   6.058   1.141   3.338 -0.3257  2.0083  0.4534
 1378SOL    HW3 5285   5.949   1.039   3.318  1.8785 -0.6667  1.4310
 1378SOL    MW4 5286   5.974   1.120   3.338  0.0428  0.4820 -0.1242
 1379SOL     OW 5287   4.070   2.841   1.882 -0.4679  0.6768  0.0264
 1379SOL    HW2 5288   4.061   2.848   1.977  2.7536 -1.2134  0.6365
 1379SOL    HW3 5289   4.157   2.876   1.865  0.2443 -1.6991 -1.7447
 1379SOL    MW4 5290   4.080   2.846   1.893  0.3150  0.1204 -0.4635
 1380SOL     OW 5291   0.273   6.247   0.075 -0.0109  0.7381 -0.8039
 1380SOL    HW2 5292   0.294   6.174   0.133 -0.4859  1.0982 -0.1561
 1380SOL    HW3 5293   0.290   6.325   0.129 -0.7674  1.0717 -1.0277
 1380SOL    MW4 5294   0.278   6.248   0.090 -0.0218  0.2569  0.3545
 1381SOL     OW 5295   2.772   1.826   4.827  0.1442  0.7739  0.1216
 1381SOL    HW2 5296   2.813   1.901   4.870 -0.1584 -0.1396  2.1316
 1381SOL    HW3 5297   2.684   1.823   4.864 -0.6827  0.8061 -1.7423
 1381SOL    MW4 5298   2.766   1.836   4.837 -0.3094  0.1384  0.3638
 1382SOL     OW 5299   0.634   2.466   1.453 -0.5399  0.2828  0.2041
 1382SOL    HW2 5300   0.698   2.409   1.496  0.1687  0.8438 -0.0803
 1382SOL    HW3 5301   0.563   2.473   1.516 -0.1614 -0.0664  0.6850
 1382SOL    MW4 5302   0.633   2.459   1.467 -0.1807 -0.5053 -0.4634
 1383SOL     OW 5303   0.105  -0.001   0.543  0.5538 -0.7157  0.2490
 1383SOL    HW2 5304   0.169  -0.057   0.587  0.7892  0.7544  1.9139
 1383SOL    HW3 5305   0.029  -0.000   0.601  0.1421 -0.1722 -0.2854
 1383SOL    MW4 5306   0.104  -0.008   0.557  0.0822 -0.2013  0.1940
 1384SOL     OW 5307   0.075   3.240   6.174 -0.9581 -0.0312 -0.5465
 1384SOL    HW2 5308   0.046   3.177   6.240 -0.9985  0.9590  0.4184
 1384SOL    HW3 5309  -0.003   3.291   6.152 -0.4489  1.2743  0.5163
 1384SOL    MW4 5310   0.061   3.239   6.180 -0.2343  0.9959  0.2681
 1385SOL     OW 5311   0.261   0.002   1.453  0.5415  0.2065  0.4889
 1385SOL    HW2 5312   0.353  -0.025   1.456  0.6370  0.5574  0.7580
 1385SOL    HW3 5313   0.214  -0.078   1.432  0.9798  0.1794 -0.4619
 1385SOL    MW4 5314   0.267  -0.012   1.450 -0.3841 -0.0961  0.5343
 1386SOL     OW 5315   3.696   5.517   5.104 -0.6223 -0.2069 -0.2646
 1386SOL    HW2 5316   3.632   5.450   5.130  0.0390 -0.4580  0.7911
 1386SOL    HW3 5317   3.770   5.503   5.163  0.4194  0.0779 -1.4481
 1386SOL    MW4 5318   3.698   5.506   5.115 -0.6468  0.1291 -0.6365
 1387SOL     OW 5319   6.041   2.948   4.874  0.9306 -0.4678 -0.0023
 1387SOL    HW2 5320   6.036   2.941   4.969 -0.1005  0.2986  0.0114
 1387SOL    HW3 5321   6.061   2.859   4.844 -1.4042 -1.3114  0.7654
 1387SOL    MW4 5322   6.043   2.935   4.883 -0.3090 -0.1960  0.1286
 1388SOL     OW 5323   5.006   1.955   1.704 -0.9003  0.2233  0.3766
 1388SOL    HW2 5324   5.083   1.921   1.750 -0.4766  0.9841  0.2376
 1388SOL    HW3 5325   4.951   1.878   1.690 -0.5561 -0.1868  1.2288
 1388SOL    MW4 5326   5.009   1.940   1.708 -0.0476 -0.3559 -0.0103
 1389SOL     OW 5327   0.773   3.547   6.073  0.3454  0.1400 -0.3303
 1389SOL    HW2 5328   0.854   3.534   6.123  1.0651 -1.0226 -1.7058
 1389SOL    HW3 5329   0.705   3.556   6.140  1.3875 -0.4123  0.8608
 1389SOL    MW4 5330   0.775   3.546   6.089 -0.4863  0.2926  0.0888
 1390SOL     OW 5331   2.165   0.780   1.871 -0.7785  0.3220  0.3163
 1390SOL    HW2 5332   2.078   0.789   1.908 -0.7271 -0.0850  0.5372
 1390SOL    HW3 5333   2.218   0.743   1.941 -0.2459  1.2672  0.4246
 1390SOL    MW4 5334   2.161   0.776   1.885  0.0782  0.1106 -0.8781
 1391SOL     OW 5335   2.234   3.578   5.544 -0.2939 -0.0779  0.0237
 1391SOL    HW2 5336   2.213   3.639   5.615  1.1010  0.0620  0.3454
 1391SOL    HW3 5337   2.271   3.634   5.475  0.2806 -0.4462  0.0207
 1391SOL    MW4 5338   2.236   3.594   5.545 -0.2887 -0.2559  0.2131
 1392SOL     OW 5339   1.838   1.945   0.678 -0.3647  0.1204 -0.1806
 1392SOL    HW2 5340   1.847   2.024   0.731  1.4294 -1.0056  1.3441
 1392SOL    HW3 5341   1.925   1.904   0.681 -1.4172 -2.3086 -0.2545
 1392SOL    MW4 5342   1.851   1.950   0.685  0.6203 -0.0867 -0.3751
 1393SOL     OW 5343   1.260   2.425   1.827 -0.1760 -0.1797 -0.3042
 1393SOL    HW2 5344   1.266   2.516   1.856  1.3423 -0.4405  0.3214
 1393SOL    HW3 5345   1.195   2.426   1.757  0.5852  1.5921 -1.0605
 1393SOL    MW4 5346   1.252   2.437   1.822  0.4378  0.4751 -0.6861
 1394SOL     OW 5347   0.409   2.992   3.692  0.1836 -0.3707 -0.2747
 1394SOL    HW2 5348   0.381   3.080   3.670  1.7153  0.1677 -0.1769
 1394SOL    HW3 5349   0.432   2.996   3.785 -0.1423 -1.0000 -0.1556
 1394SOL    MW4 5350   0.408   3.004   3.701  0.2514  0.2140 -0.0264
 1395SOL     OW 5351   4.386   1.230   0.290  0.0420  0.5800 -0.1884
 1395SOL    HW2 5352   4.401   1.137   0.277  0.2494  0.7389 -1.1340
 1395SOL    HW3 5353   4.372   1.265   0.202  0.7479  1.5754  0.0734
 1395SOL    MW4 5354   4.386   1.222   0.277 -0.5328  0.1137 -0.1212
 1396SOL     OW 5355   6.017   2.244   2.520  0.1695 -0.3008 -0.2324
 1396SOL    HW2 5356   6.045   2.335   2.525 -0.5905  0.1156 -2.5822
 1396SOL    HW3 5357   6.099   2.194   2.517  0.5917  0.2239  1.3924
 1396SOL    MW4 5358   6.031   2.249   2.520  0.0932  0.1662 -0.2518
 1397SOL     OW 5359   0.710   0.259   0.801  0.7092  0.0420 -0.0161
 1397SOL    HW2 5360   0.643   0.327   0.806  0.7678  0.3549 -2.3350
 1397SOL    HW3 5361   0.724   0.232   0.892 -2.5421 -0.0300  0.5758
 1397SOL    MW4 5362   0.703   0.264   0.813 -0.0121 -0.0326  0.3361
 1398SOL     OW 5363   3.495   0.631   2.074 -0.9835  0.4478  0.2995
 1398SOL    HW2 5364   3.516   0.686   1.998  1.3172 -0.0738  0.4820
 1398SOL    HW3 5365   3.534   0.677   2.148  1.2005 -1.4629  0.4268
 1398SOL    MW4 5366   3.503   0.645   2.074  0.4484  0.6055 -0.1717
 1399SOL     OW 5367   3.390   0.284   5.326 -0.1631 -0.0299  0.2342
 1399SOL    HW2 5368   3.450   0.325   5.389  0.1627  1.9791 -1.3022
 1399SOL    HW3 5369   3.445   0.263   5.251 -0.8395 -1.0260 -0.0109
 1399SOL    MW4 5370   3.405   0.287   5.325  0.0399  0.1541  0.2623
 1400SOL     OW 5371   4.032   4.958   4.546 -0.4885  0.4393 -0.1927
 1400SOL    HW2 5372   4.122   4.940   4.518 -0.7612  0.0626 -0.8413
 1400SOL    HW3 5373   4.000   4.873   4.576 -0.7749  0.4797 -0.3855
 1400SOL    MW4 5374   4.040   4.944   4.546 -0.1062 -0.0029 -0.0827
 1401SOL     OW 5375   4.295   3.071   1.508  0.0688 -0.1207  0.2013
 1401SOL    HW2 5376   4.280   3.028   1.423  1.0725 -1.5681  0.7043
 1401SOL    HW3 5377   4.224   3.039   1.563  0.4998 -0.7321  0.4188
 1401SOL    MW4 5378   4.284   3.061   1.504 -0.2830 -0.2676 -0.3809
 1402SOL     OW 5379   3.798   3.904   4.832 -0.2860 -0.6435  0.6842
 1402SOL    HW2 5380   3.712   3.877   4.800 -0.4583 -1.0319  1.4553
 1402SOL    HW3 5381   3.858   3.836   4.801 -0.2081 -0.2467 -0.0602
 1402SOL    MW4 5382   3.795   3.892   4.823 -0.8993 -0.0209  0.2635
 1403SOL     OW 5383   0.307   1.399   3.895 -0.0240 -0.6498  0.1428
 1403SOL    HW2 5384   0.257   1.414   3.975 -1.0740  0.8112 -0.7434
 1403SOL    HW3 5385   0.349   1.483   3.876 -0.1765 -0.8249 -1.0773
 1403SOL    MW4 5386   0.306   1.412   3.903 -0.3256 -0.4742  0.1477
 1404SOL     OW 5387   0.696   6.128   0.774 -0.5618  0.5465 -0.0368
 1404SOL    HW2 5388   0.693   6.202   0.714 -0.7674  0.5008 -0.0833
 1404SOL    HW3 5389   0.683   6.051   0.718  0.0808  0.4403 -0.0522
 1404SOL    MW4 5390   0.694   6.127   0.759 -0.4356  0.0747  0.8421
 1405SOL     OW 5391   1.604   3.092   2.619  0.0265 -0.4104 -0.0109
 1405SOL    HW2 5392   1.583   3.053   2.535  2.8935 -0.2893 -0.8951
 1405SOL    HW3 5393   1.552   3.173   2.622 -0.4269 -0.6246 -1.4581
 1405SOL    MW4 5394   1.594   3.098   2.609  0.6395  1.1213  0.2948
 1406SOL     OW 5395   4.870   5.318   5.417  0.1367  0.3639  0.0825
 1406SOL    HW2 5396   4.891   5.255   5.487  1.7196 -2.0686 -2.3481
 1406SOL    HW3 5397   4.921   5.396   5.439  0.0069 -0.0240  1.9725
 1406SOL    MW4 5398   4.879   5.320   5.429 -0.0129 -0.2481  0.7047
 1407SOL     OW 5399   1.041   4.180   1.175  0.7153 -0.2907  0.4853
 1407SOL    HW2 5400   1.098   4.106   1.198  2.0346  0.3399 -0.5908
 1407SOL    HW3 5401   0.954   4.142   1.166  1.1393 -1.4735  1.1986
 1407SOL    MW4 5402   1.037   4.165   1.177 -0.0270 -0.0878  0.1172
 1408SOL     OW 5403   3.962   1.261   5.540  0.5318  0.1017 -0.6337
 1408SOL    HW2 5404   3.960   1.277   5.634  1.0186  0.1696 -0.6306
 1408SOL    HW3 5405   3.876   1.224   5.520  1.0768 -1.7179  0.1676
 1408SOL    MW4 5406   3.951   1.258   5.549 -0.5117 -0.8987 -0.4599
 1409SOL     OW 5407   2.715   3.266   4.156  0.0571 -0.1337  0.5488
 1409SOL    HW2 5408   2.785   3.281   4.220 -0.8170  0.6633  1.3438
 1409SOL    HW3 5409   2.639   3.309   4.193 -0.3861  0.7137 -1.2407
 1409SOL    MW4 5410   2.714   3.273   4.169 -0.4157  0.3153 -0.6123
 1410SOL     OW 5411   6.058   4.138   6.307 -0.0925 -0.3484 -0.0251
 1410SOL    HW2 5412   6.113   4.161   6.232 -0.6000 -1.5059 -0.7849
 1410SOL    HW3 5413   6.038   4.045   6.294 -1.5149 -0.1577  0.6925
 1410SOL    MW4 5414   6.063   4.128   6.295 -0.6479 -0.1188 -0.1414
 1411SOL     OW 5415   5.495   0.644   1.568 -0.0350 -0.3613  0.2051
 1411SOL    HW2 5416   5.410   0.653   1.611 -0.0189  0.9053 -0.0060
 1411SOL    HW3 5417   5.476   0.655   1.475  0.6074  2.0707  0.2990
 1411SOL    MW4 5418   5.481   0.646   1.562  0.1384  0.3016  0.0771
 1412SOL     OW 5419   5.443   5.617   3.209  0.1914  0.8353  0.2821
 1412SOL    HW2 5420   5.525   5.630   3.163  0.3684 -0.3830  0.2049
 1412SOL    HW3 5421   5.427   5.522   3.204 -1.6739  1.1332 -0.5005
 1412SOL    MW4 5422   5.451   5.606   3.203 -0.0315  0.5684  0.1787
 1413SOL     OW 5423   0.604   0.228   1.788 -0.3269 -0.3336 -0.0598
 1413SOL    HW2 5424   0.514   0.204   1.809 -0.3356 -1.7554 -1.5866
 1413SOL    HW3 5425   0.658   0.160   1.829 -0.1970 -1.5503 -2.1175
 1413SOL    MW4 5426   0.599   0.216   1.796  0.3426 -0.0590 -0.0033
 1414SOL     OW 5427   2.155   4.159   1.121  0.4608 -0.0240  0.4425
 1414SOL    HW2 5428   2.165   4.169   1.027 -0.3557 -3.0811 -0.0886
 1414SOL    HW3 5429   2.063   4.178   1.138  0.6321  0.6396  0.6824
 1414SOL    MW4 5430   2.144   4.163   1.111 -0.0499 -0.1007 -0.1691
 1415SOL     OW 5431   0.718   3.019   5.566  0.1633 -0.5449  0.2915
 1415SOL    HW2 5432   0.711   3.010   5.471  0.5707 -0.8007  0.2808
 1415SOL    HW3 5433   0.809   2.996   5.585 -0.1602 -1.4025  0.8474
 1415SOL    MW4 5434   0.729   3.015   5.556  0.2021  0.5988  0.3081
 1416SOL     OW 5435   6.149   3.120   3.519  0.1685  0.3255 -0.0746
 1416SOL    HW2 5436   6.141   3.085   3.607 -0.1522  1.2991  0.2916
 1416SOL    HW3 5437   6.218   3.067   3.479  0.3212 -0.1192  0.7532
 1416SOL    MW4 5438   6.157   3.108   3.525 -0.4211 -0.5277  0.0538
 1417SOL     OW 5439   1.379   4.188   1.760  0.6550 -0.5143 -0.0946
 1417SOL    HW2 5440   1.416   4.268   1.797  2.3818 -0.2091 -2.2390
 1417SOL    HW3 5441   1.455   4.140   1.725 -0.4114 -2.7340  0.4150
 1417SOL    MW4 5442   1.394   4.192   1.760  0.2508 -0.3977 -0.0882
 1418SOL     OW 5443   6.190   4.572   1.465 -0.4301  0.2127 -0.4580
 1418SOL    HW2 5444   6.159   4.661   1.450 -2.8048 -0.5951 -0.7302
 1418SOL    HW3 5445   6.185   4.561   1.560 -2.6491 -0.4050 -0.5939
 1418SOL    MW4 5446   6.186   4.582   1.476 -0.5738  0.7099 -0.7660
 1419SOL     OW 5447   2.938   0.710   3.621 -0.1316 -0.6227 -0.0003
 1419SOL    HW2 5448   3.032   0.708   3.641 -0.6466  0.5423  3.1063
 1419SOL    HW3 5449   2.908   0.621   3.637  0.4932 -1.1792 -1.6936
 1419SOL    MW4 5450   2.946   0.698   3.626  0.0220 -0.1119  0.6808
 1420SOL     OW 5451   0.139   2.203   3.887  0.1006  0.0117  0.0393
 1420SOL    HW2 5452   0.093   2.260   3.825 -0.1413 -0.7765 -0.5124
 1420SOL    HW3 5453   0.083   2.126   3.895 -0.7513  0.8043  2.5758
 1420SOL    MW4 5454   0.126   2.201   3.879 -0.1013  0.9624 -0.4869
 1421SOL     OW 5455   3.905   5.500   5.286 -0.8287 -0.4732  0.3901
 1421SOL    HW2 5456   3.940   5.424   5.239  2.0728  0.2847  1.1089
 1421SOL    HW3 5457   3.908   5.475   5.378 -0.1731  0.3574  0.6086
 1421SOL    MW4 5458   3.910   5.487   5.292 -0.2874  0.1580 -0.1116
 1422SOL     OW 5459   5.577   2.453   2.534  0.1214 -0.1507  0.3343
 1422SOL    HW2 5460   5.604   2.419   2.619 -0.7656  0.5361  0.9059
 1422SOL    HW3 5461   5.483   2.437   2.530  0.1276 -0.0313 -0.4493
 1422SOL    MW4 5462   5.568   2.447   2.545 -0.0854  0.5148  0.1967
 1423SOL     OW 5463   5.507   0.102   0.738 -0.0040  0.6049  0.4025
 1423SOL    HW2 5464   5.439   0.098   0.806 -0.4751  0.3955 -0.0746
 1423SOL    HW3 5465   5.581   0.144   0.781 -0.7496  1.6871  0.6817
 1423SOL    MW4 5466   5.508   0.107   0.753  0.1251 -0.1666  1.0897
 1424SOL     OW 5467   1.329   4.703   3.835 -0.2072  0.0165  0.4097
 1424SOL    HW2 5468   1.357   4.640   3.769 -0.4783  1.1134 -0.7820
 1424SOL    HW3 5469   1.411   4.733   3.876  0.0576  0.1096 -0.1722
 1424SOL    MW4 5470   1.344   4.699   3.832 -0.0274 -0.4632  0.2121
 1425SOL     OW 5471   5.733   0.483   6.037 -0.3197 -0.4303 -0.1915
 1425SOL    HW2 5472   5.780   0.415   5.988 -0.7908 -0.8306 -0.0925
 1425SOL    HW3 5473   5.774   0.565   6.009 -0.1188 -0.7080 -0.7287
 1425SOL    MW4 5474   5.745   0.485   6.027 -1.0099 -0.0991  0.3728
 1426SOL     OW 5475   0.381   0.936   5.125 -0.1768 -0.0047 -0.0698
 1426SOL    HW2 5476   0.404   0.866   5.186 -0.2517 -0.3217 -0.4022
 1426SOL    HW3 5477   0.436   0.920   5.048  0.4612  0.8300  0.2020
 1426SOL    MW4 5478   0.392   0.925   5.123  0.3716 -0.0719 -0.0793
 1427SOL     OW 5479   3.834   4.949   2.670  0.2843  0.1621  0.1105
 1427SOL    HW2 5480   3.891   4.966   2.596 -1.0685  3.8973 -0.2552
 1427SOL    HW3 5481   3.828   4.853   2.674  1.7229 -0.2300 -3.5255
 1427SOL    MW4 5482   3.841   4.938   2.661  0.5665 -0.2401  0.6070
 1428SOL     OW 5483   1.871   5.322   2.037 -0.4379  0.1793 -0.1661
 1428SOL    HW2 5484   1.792   5.295   2.083 -0.1587 -1.3070 -0.4829
 1428SOL    HW3 5485   1.874   5.417   2.047 -2.3314  0.2910 -0.2793
 1428SOL    MW4 5486   1.861   5.331   2.045  0.2606  0.2384  0.2692
 1429SOL     OW 5487   0.663   3.886   2.823 -0.4723  0.2361 -0.3430
 1429SOL    HW2 5488   0.720   3.954   2.859 -0.1376 -1.3564  2.4508
 1429SOL    HW3 5489   0.586   3.887   2.880 -1.3115 -0.4740 -1.4346
 1429SOL    MW4 5490   0.661   3.895   2.836  0.5079  0.3874  0.0925
 1430SOL     OW 5491   4.717   2.436   4.908  0.2121 -0.3539  0.0607
 1430SOL    HW2 5492   4.769   2.386   4.845  0.9508  2.8956 -2.1643
 1430SOL    HW3 5493   4.631   2.444   4.867 -0.4632 -1.2593  1.2522
 1430SOL    MW4 5494   4.713   2.431   4.894 -0.2558  0.0805 -0.3434
 1431SOL     OW 5495   5.932   4.779   5.049 -0.0821  0.9712  0.1838
 1431SOL    HW2 5496   5.987   4.701   5.053 -0.3956  0.7358 -0.1435
 1431SOL    HW3 5497   5.950   4.817   4.963 -0.4980  0.8489  0.0439
 1431SOL    MW4 5498   5.942   4.774   5.038 -0.0914 -0.0478 -0.8334
 1432SOL     OW 5499   1.885   4.353   3.379 -0.3444 -0.0444  0.3817
 1432SOL    HW2 5500   1.932   4.436   3.389  0.2582 -0.3239 -0.0755
 1432SOL    HW3 5501   1.840   4.341   3.462  1.2023 -0.2775  1.2280
 1432SOL    MW4 5502   1.885   4.363   3.391 -0.5590 -0.5228  0.0839
 1433SOL     OW 5503   4.149   4.911   6.242 -0.5139  0.0844  0.0601
 1433SOL    HW2 5504   4.066   4.908   6.194 -0.1235 -0.5185 -0.6081
 1433SOL    HW3 5505   4.147   4.834   6.298 -0.7183  0.4714  0.5845
 1433SOL    MW4 5506   4.138   4.900   6.243 -0.2179  0.0131 -0.1890
 1434SOL     OW 5507   3.097   0.121   4.388  0.1239  0.5770 -0.2196
 1434SOL    HW2 5508   3.117   0.125   4.481 -0.4712  1.3131 -0.1203
 1434SOL    HW3 5509   3.091   0.212   4.360  1.7195  0.3930 -1.3007
 1434SOL    MW4 5510   3.099   0.134   4.396 -0.4581  0.0599  0.0593
 1435SOL     OW 5511   6.067   1.542   3.332 -0.2491 -0.3490  0.2803
 1435SOL    HW2 5512   5.973   1.550   3.343 -0.2133 -0.4585  0.7179
 1435SOL    HW3 5513   6.101   1.629   3.353 -0.2570 -0.2995  0.0853
 1435SOL    MW4 5514   6.059   1.554   3.336  0.2105  0.5408  0.2244
 1436SOL     OW 5515   5.501   5.027   1.301  0.5574  0.0688  0.4013
 1436SOL    HW2 5516   5.570   4.979   1.346 -0.8612 -2.5641 -0.0316
 1436SOL    HW3 5517   5.494   5.110   1.348  1.3159 -1.2292  2.9600
 1436SOL    MW4 5518   5.509   5.032   1.313 -0.4843  0.4403  0.2311
 1437SOL     OW 5519   1.918   4.437   3.985  1.0362  0.1343 -0.2418
 1437SOL    HW2 5520   1.967   4.355   3.979  1.2339  0.1925  0.5182
 1437SOL    HW3 5521   1.836   4.419   3.940  1.4769 -0.1761 -0.9393
 1437SOL    MW4 5522   1.914   4.424   3.978 -0.5386 -0.4639 -0.5888
 1438SOL     OW 5523   0.111   2.317   4.972 -0.1548  0.2129 -0.2255
 1438SOL    HW2 5524   0.146   2.257   4.906 -0.1658 -0.4022  0.3205
 1438SOL    HW3 5525   0.188   2.348   5.019 -0.3387 -1.7103  1.4637
 1438SOL    MW4 5526   0.126   2.313   4.969 -0.5087 -0.1266 -0.1791
 1439SOL     OW 5527   0.342   0.754   1.203 -0.5680 -0.0848 -0.1142
 1439SOL    HW2 5528   0.349   0.703   1.123  0.1474  0.8663 -0.6849
 1439SOL    HW3 5529   0.272   0.817   1.185 -1.8140 -1.1716  0.7769
 1439SOL    MW4 5530   0.334   0.756   1.190  0.2382  0.3555  0.6314
 1440SOL     OW 5531   2.798   3.141   5.530  0.2410 -0.5031  0.4962
 1440SOL    HW2 5532   2.758   3.069   5.578  0.6124 -0.4252  0.9228
 1440SOL    HW3 5533   2.790   3.116   5.438  0.0058 -0.8979  0.6228
 1440SOL    MW4 5534   2.791   3.128   5.524  0.3441  0.0364 -0.1855
 1441SOL     OW 5535   3.062   2.361   4.537 -0.1371 -0.0043  0.1264
 1441SOL    HW2 5536   3.019   2.401   4.462 -0.2085  0.2296  0.2917
 1441SOL    HW3 5537   3.152   2.394   4.533 -0.1659  0.0831  0.1978
 1441SOL    MW4 5538   3.068   2.370   4.527  0.7112  0.2224  0.5726
 1442SOL     OW 5539   3.600   5.817   4.033  0.0699  0.0784 -0.0174
 1442SOL    HW2 5540   3.593   5.787   4.124 -0.7198  0.4564  0.0547
 1442SOL    HW3 5541   3.610   5.912   4.040  0.4145  0.0662 -0.3173
 1442SOL    MW4 5542   3.600   5.825   4.046  0.5670  0.3148  0.0572
 1443SOL     OW 5543   4.808   2.212   3.822  0.4759  0.6156 -0.2576
 1443SOL    HW2 5544   4.871   2.141   3.807 -1.0833 -1.1647  1.0492
 1443SOL    HW3 5545   4.839   2.284   3.768  1.3070 -1.5611 -2.8911
 1443SOL    MW4 5546   4.820   2.212   3.813  0.0800 -0.4250  0.1591
 1444SOL     OW 5547   1.219   3.086   3.167 -0.1446 -0.2685  0.4784
 1444SOL    HW2 5548   1.137   3.098   3.118  1.5259  2.6463 -1.9621
 1444SOL    HW3 5549   1.274   3.034   3.108  0.1714 -1.4069  1.7102
 1444SOL    MW4 5550   1.215   3.080   3.152 -0.0434  0.0758 -0.5940
 1445SOL     OW 5551   2.683   5.807   2.243 -0.1819  0.6309  0.2728
 1445SOL    HW2 5552   2.742   5.858   2.298  0.5503  2.1799 -1.8087
 1445SOL    HW3 5553   2.721   5.719   2.243  2.1768  1.5585 -0.9237
 1445SOL    MW4 5554   2.696   5.802   2.250  0.1484  0.3009 -0.1497
 1446SOL     OW 5555   1.071   0.188   3.648 -0.3540 -0.2138 -0.0263
 1446SOL    HW2 5556   1.011   0.260   3.664 -0.5799 -0.1920 -0.8971
 1446SOL    HW3 5557   1.117   0.213   3.567  0.1361 -0.6733  0.1036
 1446SOL    MW4 5558   1.069   0.201   3.639  0.1624 -0.3290 -0.3506
 1447SOL     OW 5559   0.462   0.004   3.709 -0.2480  0.9056  0.2463
 1447SOL    HW2 5560   0.427  -0.072   3.755  0.3723 -0.2999 -1.2181
 1447SOL    HW3 5561   0.388   0.036   3.658 -0.7905  1.9338  1.6075
 1447SOL    MW4 5562   0.447  -0.002   3.708 -0.2235  0.2860 -0.1230
 1448SOL     OW 5563   6.392   4.093   3.798  0.2098 -0.1566 -0.0683
 1448SOL    HW2 5564   6.301   4.074   3.774  0.1157  1.1405 -0.8161
 1448SOL    HW3 5565   6.405   4.184   3.773  1.4052  0.0034  1.0337
 1448SOL    MW4 5566   6.382   4.102   3.792  0.2693 -0.2039 -0.4242
 1449SOL     OW 5567   1.421   3.624   2.144  0.3743  0.4178 -0.5450
 1449SOL    HW2 5568   1.469   3.673   2.211 -0.8362  1.2786 -0.2798
 1449SOL    HW3 5569   1.386   3.548   2.190  1.5704 -0.2887 -0.7707
 1449SOL    MW4 5570   1.423   3.620   2.159 -0.1888  0.1362 -0.0202
 1450SOL     OW 5571   2.408   3.662   5.313  0.0557  0.4780 -0.2313
 1450SOL    HW2 5572   2.382   3.572   5.295  1.9556  0.1049 -1.4108
 1450SOL    HW3 5573   2.471   3.655   5.384  0.7719  0.7613 -0.8182
 1450SOL    MW4 5574   2.413   3.649   5.320 -0.7939 -0.5144 -0.3283
 1451SOL     OW 5575   0.963   4.590   5.077 -0.2050 -0.2446 -0.7265
 1451SOL    HW2 5576   0.920   4.537   5.010 -0.6193  0.9480 -1.4336
 1451SOL    HW3 5577   1.020   4.649   5.028 -1.0978  1.1781 -0.1212
 1451SOL    MW4 5578   0.965   4.591   5.062 -0.2524  0.2590 -0.5357
 1452SOL     OW 5579   6.274   2.318   3.089  0.3206  0.2794  0.4900
 1452SOL    HW2 5580   6.289   2.327   3.183 -0.9861 -0.9093  0.8367
 1452SOL    HW3 5581   6.209   2.386   3.069  0.2140  0.1904  0.5381
 1452SOL    MW4 5582   6.268   2.328   3.099 -0.7777 -0.9926  0.0228
 1453SOL     OW 5583   3.594   4.643   1.963  0.2098  0.6679  0.0870
 1453SOL    HW2 5584   3.573   4.629   1.871  0.6608 -0.9742  0.2010
 1453SOL    HW3 5585   3.539   4.718   1.989 -0.5337  0.6368 -1.2845
 1453SOL    MW4 5586   3.584   4.651   1.954  0.4850 -0.5314  0.2815
 1454SOL     OW 5587   1.761   1.935   1.260  0.7277  0.6911 -0.3026
 1454SOL    HW2 5588   1.794   1.988   1.188  0.3005  0.5609 -0.6014
 1454SOL    HW3 5589   1.682   1.980   1.290  0.0111 -0.0737 -0.9619
 1454SOL    MW4 5590   1.755   1.948   1.255  0.5494  0.2319 -0.4365
 1455SOL     OW 5591   3.600   3.140   3.528 -0.3897  0.0575  0.2298
 1455SOL    HW2 5592   3.683   3.140   3.577 -0.8128  1.5911  1.0399
 1455SOL    HW3 5593   3.605   3.063   3.472  1.7809  0.3505 -0.0774
 1455SOL    MW4 5594   3.612   3.130   3.527  0.1993  0.8739 -0.0161
 1456SOL     OW 5595   5.422   6.077   6.434 -0.0297  0.1220 -0.4924
 1456SOL    HW2 5596   5.344   6.117   6.472  0.5819  2.4823 -1.5067
 1456SOL    HW3 5597   5.393   5.992   6.402 -2.0461  0.6991 -0.3090
 1456SOL    MW4 5598   5.408   6.071   6.435  0.5287  0.2374  0.1239
 1457SOL     OW 5599   1.718   0.658   0.554 -0.1938  0.1428 -0.5120
 1457SOL    HW2 5600   1.732   0.751   0.570 -0.8005  0.5532 -2.1949
 1457SOL    HW3 5601   1.698   0.622   0.640 -0.1760  1.6034  0.1338
 1457SOL    MW4 5602   1.718   0.665   0.567 -0.1546  0.4323  0.2980
 1458SOL     OW 5603   3.425   0.609   4.781 -0.4322 -0.5405 -0.4554
 1458SOL    HW2 5604   3.382   0.583   4.862  0.0760 -0.1583 -0.0514
 1458SOL    HW3 5605   3.355   0.645   4.727 -0.5929  0.2889  0.2793
 1458SOL    MW4 5606   3.410   0.611   4.784 -0.4485 -0.1980 -0.4635
 1459SOL     OW 5607   0.495   4.286   1.992  0.1169 -0.7895  0.3336
 1459SOL    HW2 5608   0.414   4.293   2.041  1.4569 -0.6023  2.6525
 1459SOL    HW3 5609   0.478   4.216   1.928 -1.6618 -1.1487  1.1366
 1459SOL    MW4 5610   0.482   4.278   1.990 -0.0070  0.0858  0.2529
 1460SOL     OW 5611   1.852   3.752   1.219 -0.2124 -1.0371  0.1794
 1460SOL    HW2 5612   1.783   3.685   1.216  0.2807 -1.5879  0.6795
 1460SOL    HW3 5613   1.883   3.759   1.129  0.3573 -2.1793  0.2589
 1460SOL    MW4 5614   1.847   3.744   1.207 -0.0856  1.1881 -0.3398
 1461SOL     OW 5615   0.064   3.073   4.718 -0.8138  0.3370  0.0980
 1461SOL    HW2 5616   0.078   3.167   4.722  0.9656  0.1238 -0.4548
 1461SOL    HW3 5617   0.030   3.050   4.804  0.8672  1.1900  1.0354
 1461SOL    MW4 5618   0.061   3.082   4.730 -0.2872  0.0441  0.0869
 1462SOL     OW 5619   1.426   2.018   4.401 -0.4331 -0.2614 -0.4187
 1462SOL    HW2 5620   1.331   2.026   4.402 -0.4585 -0.5028  0.9695
 1462SOL    HW3 5621   1.448   1.976   4.484  0.9493  0.5895 -0.3104
 1462SOL    MW4 5622   1.417   2.014   4.412  0.6482 -0.6055 -0.0068
 1463SOL     OW 5623   4.110   2.727   4.531 -0.2739  0.0370 -0.3029
 1463SOL    HW2 5624   4.164   2.699   4.605  0.8422  2.3738 -0.1525
 1463SOL    HW3 5625   4.056   2.650   4.510  0.9522 -1.3906  1.4900
 1463SOL    MW4 5626   4.110   2.713   4.538  0.3996 -0.2542 -1.0359
 1464SOL     OW 5627   2.494   1.056   3.593 -0.3917  0.5781  0.0911
 1464SOL    HW2 5628   2.589   1.051   3.586 -0.3342  2.4721 -1.1734
 1464SOL    HW3 5629   2.464   0.972   3.557  0.7830  0.3568 -0.4334
 1464SOL    MW4 5630   2.502   1.044   3.587 -0.6132  0.1182 -0.1375
 1465SOL     OW 5631   3.546   2.262   0.800 -0.1629  0.3517 -0.5218
 1465SOL    HW2 5632   3.546   2.315   0.720  1.0678 -0.4912 -1.0920
 1465SOL    HW3 5633   3.574   2.323   0.869 -0.3827  0.8549 -0.8701
 1465SOL    MW4 5634   3.549   2.277   0.799 -0.3336  0.5527  0.3673
 1466SOL     OW 5635   4.961   1.925   6.065  0.0673  0.0215 -0.0073
 1466SOL    HW2 5636   5.018   1.963   5.997  1.4482 -0.4384  0.8578
 1466SOL    HW3 5637   5.022   1.891   6.131 -1.1947  2.6183  2.7194
 1466SOL    MW4 5638   4.977   1.925   6.064  0.7784 -0.1820 -0.3451
 1467SOL     OW 5639   2.709   4.510   3.130  0.5862 -0.0378  0.1914
 1467SOL    HW2 5640   2.740   4.421   3.116  1.9445  0.2499  1.1775
 1467SOL    HW3 5641   2.726   4.554   3.046  2.1726 -0.1074  0.4443
 1467SOL    MW4 5642   2.715   4.504   3.117 -0.8908  0.5522  0.2814
 1468SOL     OW 5643   3.716   3.305   5.447  0.5069 -0.3659  0.0835
 1468SOL    HW2 5644   3.741   3.347   5.364  0.3733 -2.9095 -1.3454
 1468SOL    HW3 5645   3.765   3.223   5.448  0.3832 -0.4636  2.5005
 1468SOL    MW4 5646   3.726   3.300   5.436  0.6125  0.4166  0.0956
 1469SOL     OW 5647   3.914   5.722   5.542  0.0010 -0.0323  0.2379
 1469SOL    HW2 5648   3.894   5.668   5.618  0.1665  0.4008  0.5936
 1469SOL    HW3 5649   4.002   5.695   5.515  0.7615  1.1433  1.3911
 1469SOL    MW4 5650   3.923   5.711   5.549  0.3307 -0.3713  0.0547
 1470SOL     OW 5651   3.685   3.293   4.270 -0.0470 -0.5483  0.1208
 1470SOL    HW2 5652   3.633   3.363   4.230 -2.4138 -0.8862  2.3684
 1470SOL    HW3 5653   3.732   3.253   4.197 -0.2065  2.0271 -1.5236
 1470SOL    MW4 5654   3.684   3.297   4.255  0.1861  0.3352 -0.0872
 1471SOL     OW 5655   1.707   5.148   1.449  0.3025 -0.5227 -0.2513
 1471SOL    HW2 5656   1.710   5.092   1.526  1.4916 -0.8386 -0.5032
 1471SOL    HW3 5657   1.795   5.142   1.411 -0.2328 -0.3251 -1.5956
 1471SOL    MW4 5658   1.719   5.140   1.454  0.1383  0.2596  0.2403
 1472SOL     OW 5659   3.605   5.097   0.832  0.1628  0.1983  0.4938
 1472SOL    HW2 5660   3.647   5.082   0.747  0.2895 -0.3431  0.6509
 1472SOL    HW3 5661   3.593   5.192   0.836 -0.8025  0.1406 -0.5866
 1472SOL    MW4 5662   3.609   5.107   0.821  0.4077  0.6327 -0.1726
 1473SOL     OW 5663   3.246   1.038   3.834 -0.4883 -0.2027  0.4094
 1473SOL    HW2 5664   3.285   1.112   3.787 -1.5247  1.3003  1.7856
 1473SOL    HW3 5665   3.155   1.037   3.805 -0.3692 -1.2953  0.0298
 1473SOL    MW4 5666   3.240   1.048   3.824  0.2503  0.0619  0.1013
 1474SOL     OW 5667   5.357   3.609   0.433  0.4887  0.1221  0.5231
 1474SOL    HW2 5668   5.276   3.638   0.390  0.6018  0.3238  0.4428
 1474SOL    HW3 5669   5.411   3.576   0.361  0.6218  0.3260  0.5292
 1474SOL    MW4 5670   5.353   3.608   0.418  0.1807 -0.5587  0.0695
 1475SOL     OW 5671   4.143   0.932   0.361  0.1239  0.1163  0.3704
 1475SOL    HW2 5672   4.103   0.848   0.340 -0.4890 -0.3889  3.1449
 1475SOL    HW3 5673   4.084   0.997   0.322 -2.4514 -0.6678  2.6284
 1475SOL    MW4 5674   4.130   0.929   0.353  0.3733  0.5936 -0.4207
 1476SOL     OW 5675   3.185   2.288   6.387  0.6654  0.1979  0.1261
 1476SOL    HW2 5676   3.121   2.349   6.350 -1.3253 -2.5966 -1.3670
 1476SOL    HW3 5677   3.182   2.304   6.481  0.0613  2.1862 -0.1776
 1476SOL    MW4 5678   3.176   2.298   6.395 -0.5379 -0.0663 -0.0820
 1477SOL     OW 5679   1.199   1.803   5.362 -0.4413 -0.0349 -0.4923
 1477SOL    HW2 5680   1.140   1.783   5.289 -0.5727 -0.8353 -0.1769
 1477SOL    HW3 5681   1.284   1.769   5.334 -0.1744  0.8787 -0.8337
 1477SOL    MW4 5682   1.203   1.796   5.349  0.1992  0.5475  0.2621
 1478SOL     OW 5683   3.156   4.130   2.482  0.4933  0.1126 -0.4616
 1478SOL    HW2 5684   3.134   4.166   2.396  0.6535  0.7553 -0.2395
 1478SOL    HW3 5685   3.238   4.083   2.468 -0.2792 -1.1312 -0.9920
 1478SOL    MW4 5686   3.164   4.129   2.469 -0.0363 -0.6836  0.1796
 1479SOL     OW 5687   2.344   1.079   0.087  0.2555 -0.1131  0.2455
 1479SOL    HW2 5688   2.377   1.032   0.011 -1.8327  0.6008 -1.1969
 1479SOL    HW3 5689   2.278   1.020   0.124  0.3223  0.0970  0.7081
 1479SOL    MW4 5690   2.340   1.065   0.082  0.3160 -0.7789  0.3579
 1480SOL     OW 5691   2.147   0.720   2.333  0.0631  0.2433 -0.0428
 1480SOL    HW2 5692   2.174   0.805   2.366 -1.4957  1.2809 -1.2992
 1480SOL    HW3 5693   2.070   0.698   2.385 -0.0749  0.0223 -0.3385
 1480SOL    MW4 5694   2.140   0.728   2.344 -0.1559 -0.7878 -0.0231
 1481SOL     OW 5695   1.980   0.968   6.418 -0.6300 -0.0191  0.3474
 1481SOL    HW2 5696   2.048   0.924   6.367 -0.2965  0.1878  0.6087
 1481SOL    HW3 5697   2.002   0.948   6.509 -1.8752 -1.3509  0.3932
 1481SOL    MW4 5698   1.992   0.960   6.423 -0.2245  0.4307 -0.6519
 1482SOL     OW 5699   5.050   5.634   3.025 -0.0797 -0.3964 -0.6117
 1482SOL    HW2 5700   4.984   5.611   2.959 -1.6904  0.2305  0.6987
 1482SOL    HW3 5701   5.014   5.712   3.068  2.3776  1.0453 -0.9939
 1482SOL    MW4 5702   5.036   5.641   3.022 -0.0237 -0.4265 -0.2460
 1483SOL     OW 5703   0.836   5.187   0.318 -0.6401  0.3891  0.0029
 1483SOL    HW2 5704   0.760   5.138   0.287  0.2858  0.4363 -2.5892
 1483SOL    HW3 5705   0.819   5.277   0.291 -0.5880  0.8232  1.3300
 1483SOL    MW4 5706   0.824   5.192   0.310  0.1252 -0.6250  0.3134
 1484SOL     OW 5707   4.720   4.881   4.858 -0.3782  0.3581 -0.8008
 1484SOL    HW2 5708   4.677   4.822   4.920  1.1866 -1.7581 -1.5884
 1484SOL    HW3 5709   4.649   4.927   4.814 -1.6694 -0.8238 -0.0259
 1484SOL    MW4 5710   4.705   4.879   4.860 -0.2044  0.0042  0.0901
 1485SOL     OW 5711   3.612   5.195   0.177 -0.1896 -0.1009  0.8758
 1485SOL    HW2 5712   3.615   5.100   0.178 -0.0094 -0.1455 -0.8225
 1485SOL    HW3 5713   3.519   5.217   0.185 -0.3246 -0.4520  0.2662
 1485SOL    MW4 5714   3.600   5.185   0.178 -0.2324 -0.4076 -0.0303
 1486SOL     OW 5715   4.851   2.085   0.418 -0.3575  0.3898  0.6273
 1486SOL    HW2 5716   4.902   2.152   0.463 -0.5539  0.9587  0.0278
 1486SOL    HW3 5717   4.786   2.135   0.368 -0.1080 -0.2160 -0.3243
 1486SOL    MW4 5718   4.849   2.101   0.417 -0.6424 -0.2035 -0.2653
 1487SOL     OW 5719   0.208   0.783   5.470  0.7836 -0.5877  0.4598
 1487SOL    HW2 5720   0.230   0.836   5.547  0.2104 -0.2272  0.3758
 1487SOL    HW3 5721   0.195   0.694   5.505 -0.9664 -0.1476  1.0266
 1487SOL    MW4 5722   0.209   0.778   5.485 -0.0164 -0.0779  0.4787
 1488SOL     OW 5723   5.872   3.984   4.184 -0.2075  0.2976  0.2505
 1488SOL    HW2 5724   5.854   3.905   4.133  0.7950 -0.4531  1.0259
 1488SOL    HW3 5725   5.968   3.990   4.186 -0.0217 -1.2880  4.3056
 1488SOL    MW4 5726   5.882   3.974   4.177  0.4883 -0.1126 -0.0039
 1489SOL     OW 5727   1.466   1.623   2.895  0.3044 -0.2944 -0.0305
 1489SOL    HW2 5728   1.483   1.603   2.987  0.7288 -0.6208 -0.1764
 1489SOL    HW3 5729   1.464   1.719   2.892 -2.7212 -0.2398  0.8475
 1489SOL    MW4 5730   1.468   1.633   2.907 -0.3652 -0.1208 -0.0405
 1490SOL     OW 5731   1.292   1.442   4.174 -0.2411  0.2266 -0.0087
 1490SOL    HW2 5732   1.319   1.423   4.263  1.0220 -0.0517 -0.4317
 1490SOL    HW3 5733   1.270   1.536   4.175  2.0182  0.7986  0.0824
 1490SOL    MW4 5734   1.292   1.452   4.186  0.3451  0.1350  0.1168
 1491SOL     OW 5735   1.022   2.126   0.738  0.2959 -0.2524 -0.0999
 1491SOL    HW2 5736   1.043   2.195   0.800 -0.1733  0.4125 -0.6761
 1491SOL    HW3 5737   1.094   2.063   0.747  0.3537 -0.0405  0.9311
 1491SOL    MW4 5738   1.034   2.126   0.747 -0.2738  0.3863 -0.3806
 1492SOL     OW 5739   3.991   0.921   3.062  0.0736 -0.5562 -0.1301
 1492SOL    HW2 5740   4.073   0.963   3.085 -0.0274 -0.9719  1.0616
 1492SOL    HW3 5741   3.951   0.980   2.998  1.0443 -0.0860 -0.3202
 1492SOL    MW4 5742   3.996   0.934   3.057  0.0934 -0.9813  0.6893
 1493SOL     OW 5743   2.723   1.424   6.409 -0.0537  0.1089 -0.2371
 1493SOL    HW2 5744   2.696   1.516   6.410 -0.3948  0.0441 -1.6578
 1493SOL    HW3 5745   2.642   1.375   6.419 -0.4485 -0.0608 -3.2534
 1493SOL    MW4 5746   2.709   1.430   6.411  0.0313  0.0821 -0.0942
 1494SOL     OW 5747   0.194   2.953   4.379 -0.3526  0.1982 -0.3736
 1494SOL    HW2 5748   0.101   2.974   4.389 -0.6859 -1.2762 -0.2172
 1494SOL    HW3 5749   0.213   2.978   4.288 -1.0650 -0.0760 -0.6123
 1494SOL    MW4 5750   0.184   2.959   4.368 -0.0139 -0.3096 -0.1387
 1495SOL     OW 5751   4.595   5.899   0.219 -0.8165 -0.2255 -0.4230
 1495SOL    HW2 5752   4.560   5.964   0.280 -2.8581 -2.1318  0.5764
 1495SOL    HW3 5753   4.561   5.925   0.134 -2.0837 -0.2308  0.0511
 1495SOL    MW4 5754   4.586   5.911   0.216  0.1445  0.6585  0.1288
 1496SOL     OW 5755   2.416   3.180   1.005 -0.3998 -0.3601  0.5857
 1496SOL    HW2 5756   2.464   3.180   0.922 -1.4353 -0.7223 -0.0330
 1496SOL    HW3 5757   2.361   3.102   1.001 -0.1733 -0.5932  1.7905
 1496SOL    MW4 5758   2.415   3.170   0.993 -0.0316  0.9653 -0.6191
 1497SOL     OW 5759   4.678   1.597   1.434  0.0479 -0.4396  0.0081
 1497SOL    HW2 5760   4.594   1.605   1.389  0.3830  2.7215 -0.2558
 1497SOL    HW3 5761   4.656   1.556   1.518 -1.3332 -1.8121 -0.9510
 1497SOL    MW4 5762   4.664   1.592   1.439  0.1187 -0.3723 -0.2152
 1498SOL     OW 5763   1.686   4.436   1.699  0.6477  0.0250  0.0483
 1498SOL    HW2 5764   1.705   4.518   1.745 -1.3362  0.6644 -0.2085
 1498SOL    HW3 5765   1.697   4.458   1.607 -4.0581  1.3936 -0.4339
 1498SOL    MW4 5766   1.690   4.450   1.693  0.3535 -0.5599  0.6571
 1499SOL     OW 5767   5.100   2.547   4.668 -0.4635 -0.3712 -0.3647
 1499SOL    HW2 5768   5.045   2.622   4.692  0.1963 -0.0785  0.2833
 1499SOL    HW3 5769   5.113   2.499   4.749  3.1976  1.5595  0.4103
 1499SOL    MW4 5770   5.095   2.551   4.682 -0.3007  0.2393 -0.5702
 1500SOL     OW 5771   4.746   2.137   5.059  0.2053 -0.4419 -0.4169
 1500SOL    HW2 5772   4.714   2.047   5.066  1.3975 -0.7793  1.5923
 1500SOL    HW3 5773   4.667   2.191   5.057 -0.5213 -1.4766 -0.2105
 1500SOL    MW4 5774   4.732   2.132   5.060 -0.2467 -0.2602  0.3446
 1501SOL     OW 5775   5.579   2.765   0.761 -0.1118 -0.3143  0.0719
 1501SOL    HW2 5776   5.557   2.764   0.668 -0.2909  1.5971  0.0435
 1501SOL    HW3 5777   5.664   2.722   0.766 -0.4896 -1.1930 -0.8471
 1501SOL    MW4 5778   5.588   2.759   0.749 -0.1677  0.0132 -0.0957
 1502SOL     OW 5779   2.262   4.100   6.442 -0.2378 -0.3027 -0.1694
 1502SOL    HW2 5780   2.298   4.024   6.394 -0.0404 -0.3491  0.0527
 1502SOL    HW3 5781   2.313   4.174   6.410 -1.9465  0.1228 -2.1237
 1502SOL    MW4 5782   2.273   4.100   6.431 -0.3633  0.0537 -0.4353
 1503SOL     OW 5783   5.209   4.471   3.442  0.1050 -0.0084 -0.3585
 1503SOL    HW2 5784   5.160   4.502   3.366 -1.5495 -1.2082  0.1409
 1503SOL    HW3 5785   5.252   4.549   3.476 -0.9365  0.9990 -1.2463
 1503SOL    MW4 5786   5.208   4.485   3.437 -1.4291  0.1626 -0.0563
 1504SOL     OW 5787   5.045   3.931   6.379 -0.4140 -0.4238 -0.1636
 1504SOL    HW2 5788   5.001   3.861   6.331 -0.8387 -0.0041 -0.3880
 1504SOL    HW3 5789   5.135   3.900   6.389 -0.9625 -1.7081  1.1225
 1504SOL    MW4 5790   5.051   3.918   6.374  0.3437  0.4110 -0.5139
 1505SOL     OW 5791   1.531   0.422   2.983 -0.7349 -0.2930 -0.4034
 1505SOL    HW2 5792   1.511   0.377   3.064  0.2795  0.5216  0.3258
 1505SOL    HW3 5793   1.457   0.482   2.969 -0.5532  0.1105  0.3363
 1505SOL    MW4 5794   1.518   0.424   2.992  0.9798  0.3047  0.0108
 1506SOL     OW 5795   4.969   0.798   0.562 -0.2521  0.2750  0.0774
 1506SOL    HW2 5796   5.039   0.759   0.615  1.5453 -1.5373 -3.3425
 1506SOL    HW3 5797   4.982   0.892   0.571  2.4744  0.0008 -0.1760
 1506SOL    MW4 5798   4.980   0.805   0.570  0.1262  0.0732  0.2190
 1507SOL     OW 5799   5.798   5.442   1.661 -0.2308  0.2272 -0.5087
 1507SOL    HW2 5800   5.840   5.396   1.734 -1.4788  2.5629  1.8459
 1507SOL    HW3 5801   5.706   5.417   1.668 -0.6791  1.8904 -0.0720
 1507SOL    MW4 5802   5.791   5.432   1.672 -0.0214  0.1173  0.0868
 1508SOL     OW 5803   2.138   0.906   2.746  0.4076  0.4757  0.1468
 1508SOL    HW2 5804   2.199   0.970   2.783  0.2095  0.8286 -0.1207
 1508SOL    HW3 5805   2.052   0.936   2.776  0.3785 -0.1206  0.6707
 1508SOL    MW4 5806   2.135   0.919   2.755 -0.2684 -0.3281  0.4524
 1509SOL     OW 5807   5.307   6.368   3.463  0.5002  0.1041 -0.6189
 1509SOL    HW2 5808   5.319   6.278   3.431  0.6065 -0.4613  0.8802
 1509SOL    HW3 5809   5.216   6.389   3.442 -1.6904 -2.7709  4.2374
 1509SOL    MW4 5810   5.297   6.359   3.456 -0.0406  0.0836  0.7751
 1510SOL     OW 5811   0.695   3.844   4.207 -0.1907 -0.4053  0.0257
 1510SOL    HW2 5812   0.689   3.903   4.131 -0.9192 -1.1058 -0.4814
 1510SOL    HW3 5813   0.621   3.869   4.262  0.6082  0.4182  0.7622
 1510SOL    MW4 5814   0.684   3.855   4.204  0.6545 -0.1350 -0.8077
 1511SOL     OW 5815   1.287   5.783   3.413 -0.3656 -0.0243  0.0656
 1511SOL    HW2 5816   1.224   5.836   3.363 -0.1774  0.6710  0.5553
 1511SOL    HW3 5817   1.364   5.777   3.355 -1.0309 -1.2619 -0.7253
 1511SOL    MW4 5818   1.289   5.789   3.399 -0.3061 -0.0425 -0.0625
 1512SOL     OW 5819   1.455   5.481   0.288  0.3208 -0.5379  0.0499
 1512SOL    HW2 5820   1.463   5.508   0.197 -0.6109 -1.9691 -0.4934
 1512SOL    HW3 5821   1.545   5.468   0.318  0.6586  0.5909 -0.4473
 1512SOL    MW4 5822   1.468   5.483   0.280 -0.4680 -0.0008 -0.1230
 1513SOL     OW 5823   3.457   1.229   5.065  0.3849 -0.0332  0.2054
 1513SOL    HW2 5824   3.427   1.318   5.086  1.4845  0.4994 -0.3998
 1513SOL    HW3 5825   3.538   1.242   5.017 -0.1666 -1.3307 -1.1395
 1513SOL    MW4 5826   3.464   1.243   5.062 -0.0600  0.0278  0.4306
 1514SOL     OW 5827   0.589   4.204   2.303 -0.3607  0.5971 -0.0271
 1514SOL    HW2 5828   0.641   4.124   2.316  0.9345  1.6859  1.9042
 1514SOL    HW3 5829   0.642   4.256   2.243 -1.2954  0.0034 -1.4395
 1514SOL    MW4 5830   0.603   4.200   2.297 -0.4514 -0.1937  0.4419
 1515SOL     OW 5831   1.014   4.634   0.642  0.3214 -0.0401  0.1292
 1515SOL    HW2 5832   0.953   4.708   0.647  0.0042 -0.3743  2.0725
 1515SOL    HW3 5833   0.986   4.586   0.564  0.6358  1.9328 -1.2646
 1515SOL    MW4 5834   1.002   4.638   0.632 -0.4538  0.0212  0.4119
 1516SOL     OW 5835   6.163   4.448   2.394 -0.3034 -0.0206  0.3321
 1516SOL    HW2 5836   6.247   4.482   2.363 -0.5270  0.8568  0.6756
 1516SOL    HW3 5837   6.102   4.521   2.384 -1.1216 -0.7527 -0.2556
 1516SOL    MW4 5838   6.166   4.462   2.388 -0.3328  0.3999 -0.4573
 1517SOL     OW 5839   3.116   4.841   0.944  0.0690  0.1711 -0.4198
 1517SOL    HW2 5840   3.030   4.863   0.908 -1.0784 -3.2380 -0.1211
 1517SOL    HW3 5841   3.097   4.782   1.017  2.6826 -0.5369 -0.2064
 1517SOL    MW4 5842   3.102   4.836   0.949  0.1443 -0.6765  0.3646
 1518SOL     OW 5843   3.475   2.785   6.197 -0.3993 -0.3403 -0.0736
 1518SOL    HW2 5844   3.513   2.737   6.123 -1.5831  0.1042 -1.0074
 1518SOL    HW3 5845   3.542   2.849   6.222 -0.6296  0.7098 -1.9462
 1518SOL    MW4 5846   3.489   2.787   6.190 -0.1732  0.1874  0.0900
 1519SOL     OW 5847   1.444   5.298   2.367 -0.1954 -0.8998  0.6782
 1519SOL    HW2 5848   1.471   5.206   2.373  2.0365 -0.2290  2.2517
 1519SOL    HW3 5849   1.447   5.330   2.457 -2.4569  0.3791  0.3712
 1519SOL    MW4 5850   1.448   5.290   2.379 -0.1727 -0.0618 -0.3026
 1520SOL     OW 5851   6.163   4.754   4.467  0.2460  0.3528  0.1148
 1520SOL    HW2 5852   6.197   4.742   4.555 -0.1645  0.1215  0.2432
 1520SOL    HW3 5853   6.215   4.694   4.413  2.2277  2.2589 -0.2573
 1520SOL    MW4 5854   6.174   4.744   4.471  0.1478 -0.0326  0.5189
 1521SOL     OW 5855   5.482   5.377   6.012 -0.5962 -0.2473 -0.3267
 1521SOL    HW2 5856   5.513   5.309   5.952  0.6870  0.3873 -0.4217
 1521SOL    HW3 5857   5.403   5.411   5.971 -1.6348 -2.0945  0.0396
 1521SOL    MW4 5858   5.476   5.372   5.998 -0.5738 -0.1297  0.2784
 1522SOL     OW 5859   4.635   0.443   3.248 -0.0539  0.4364  0.1384
 1522SOL    HW2 5860   4.602   0.526   3.213  0.3200 -0.0596 -1.4666
 1522SOL    HW3 5861   4.721   0.433   3.208 -0.4031 -1.0858 -0.2964
 1522SOL    MW4 5862   4.642   0.452   3.238 -0.3032  0.4138  0.2684
 1523SOL     OW 5863   4.453   3.252   5.223  0.7531 -0.2267  0.9493
 1523SOL    HW2 5864   4.367   3.288   5.246 -0.4090  0.1313 -3.2428
 1523SOL    HW3 5865   4.450   3.162   5.256 -1.3599 -0.3266  0.6533
 1523SOL    MW4 5866   4.441   3.245   5.231  0.3121  0.0101 -0.0290
 1524SOL     OW 5867   6.385   4.804   2.140 -0.0748 -0.6619 -0.3751
 1524SOL    HW2 5868   6.469   4.847   2.123 -0.3940  1.1961  2.2184
 1524SOL    HW3 5869   6.387   4.726   2.085  1.9558  0.9463 -2.8456
 1524SOL    MW4 5870   6.397   4.800   2.130 -0.6465  0.2549 -0.2815
 1525SOL     OW 5871   2.272   2.595   4.910  0.6859 -0.5820 -0.7724
 1525SOL    HW2 5872   2.234   2.623   4.993 -0.9884 -1.8163 -1.0617
 1525SOL    HW3 5873   2.234   2.654   4.845  0.6111 -0.7389 -0.8714
 1525SOL    MW4 5874   2.262   2.606   4.912  0.2328 -0.1423 -0.7444
 1526SOL     OW 5875   5.122   6.018   0.692 -0.1206 -0.4953  0.1087
 1526SOL    HW2 5876   5.072   6.083   0.743 -0.3269 -0.4921 -0.0952
 1526SOL    HW3 5877   5.079   5.935   0.712 -0.0693 -0.5218  0.1063
 1526SOL    MW4 5878   5.109   6.016   0.702  0.3232 -0.8627  0.0568
 1527SOL     OW 5879   5.273   4.870   3.859 -0.0101 -0.1830 -0.0308
 1527SOL    HW2 5880   5.183   4.902   3.849 -0.2837 -0.4133  1.5159
 1527SOL    HW3 5881   5.264   4.775   3.858  0.0438 -0.2166  1.3798
 1527SOL    MW4 5882   5.260   4.862   3.857 -0.2238 -0.2608  0.0512
 1528SOL     OW 5883   0.633   3.427   4.612 -0.3410 -0.1713  0.2218
 1528SOL    HW2 5884   0.638   3.355   4.675 -0.5938  0.7211  1.3106
 1528SOL    HW3 5885   0.541   3.453   4.611 -0.0845  0.8247  0.6810
 1528SOL    MW4 5886   0.622   3.421   4.620  0.0393 -0.5648 -0.2744
 1529SOL     OW 5887   4.739   0.372   1.438 -0.2575 -0.3044  0.8861
 1529SOL    HW2 5888   4.743   0.348   1.346  0.6199  0.9186  0.5796
 1529SOL    HW3 5889   4.826   0.351   1.473  0.0955  1.1193  0.9209
 1529SOL    MW4 5890   4.751   0.366   1.431 -0.5086 -0.6913  0.1564
 1530SOL     OW 5891   6.167   3.123   2.286  0.3498 -0.6209 -0.0065
 1530SOL    HW2 5892   6.167   3.052   2.350  0.2157 -1.4213 -0.8780
 1530SOL    HW3 5893   6.259   3.150   2.280  0.3847 -0.6404  0.4082
 1530SOL    MW4 5894   6.179   3.117   2.293  0.2916 -0.2302  0.4554
 1531SOL     OW 5895   2.490   6.014   6.311  0.7440 -0.4276  0.4394
 1531SOL    HW2 5896   2.411   5.972   6.348  0.5747  0.0427  0.6154
 1531SOL    HW3 5897   2.559   5.994   6.374  0.5837 -0.1277  0.7084
 1531SOL    MW4 5898   2.488   6.006   6.324 -0.0128 -0.0509  0.0505
 1532SOL     OW 5899   5.881   6.085   5.213 -0.3104 -0.2627  0.1551
 1532SOL    HW2 5900   5.866   6.031   5.290 -0.1130 -1.7756 -0.8364
 1532SOL    HW3 5901   5.794   6.120   5.191 -0.6867 -1.2478  0.0390
 1532SOL    MW4 5902   5.867   6.083   5.220  0.4604 -0.2436 -0.4156
 1533SOL     OW 5903   0.307   1.325   5.694  0.2837  0.9379 -0.0240
 1533SOL    HW2 5904   0.320   1.310   5.600  0.4234 -1.6381  0.3229
 1533SOL    HW3 5905   0.386   1.291   5.734 -0.3204  0.8358  1.1073
 1533SOL    MW4 5906   0.319   1.319   5.687  0.6564 -0.4030 -0.6165
 1534SOL     OW 5907   2.014   6.411   2.594 -0.2273 -0.6786 -0.3257
 1534SOL    HW2 5908   2.069   6.334   2.585 -0.1168 -0.4719 -1.7098
 1534SOL    HW3 5909   2.075   6.481   2.618  0.4022 -0.1989 -2.9633
 1534SOL    MW4 5910   2.030   6.410   2.596 -0.2934  0.5288  0.0547
 1535SOL     OW 5911   1.270   5.739   0.685  0.0573  0.0122  0.7322
 1535SOL    HW2 5912   1.340   5.729   0.620  0.2146  1.4501  0.6502
 1535SOL    HW3 5913   1.291   5.674   0.753  2.3824  1.4238  1.4859
 1535SOL    MW4 5914   1.282   5.729   0.685  0.5094  0.1895 -0.0963
 1536SOL     OW 5915   1.279   2.695   4.403 -0.2212  0.1498 -0.2466
 1536SOL    HW2 5916   1.260   2.703   4.310 -0.1399  0.4047 -0.2429
 1536SOL    HW3 5917   1.265   2.784   4.438 -0.6835 -0.0374  0.0619
 1536SOL    MW4 5918   1.275   2.708   4.396 -0.0503  0.2596  0.0654
 1537SOL     OW 5919   4.508   0.687   6.149  0.3235  0.2109  0.1474
 1537SOL    HW2 5920   4.417   0.694   6.180 -0.8722 -0.6755 -2.8107
 1537SOL    HW3 5921   4.527   0.593   6.153  1.3495  0.4388  1.2191
 1537SOL    MW4 5922   4.498   0.675   6.154  0.0534 -0.0590 -0.2488
 1538SOL     OW 5923   0.729   4.026   4.678 -0.4603 -0.5255 -0.2454
 1538SOL    HW2 5924   0.815   3.992   4.652 -0.5064  0.1348 -1.3208
 1538SOL    HW3 5925   0.666   3.967   4.637 -0.5273  0.2287 -1.2734
 1538SOL    MW4 5926   0.732   4.014   4.669  0.2542  0.2386 -0.1904
 1539SOL     OW 5927   3.931   1.599   4.121 -0.0179 -0.1192  0.1889
 1539SOL    HW2 5928   3.881   1.581   4.201 -2.0059  1.3189 -0.6553
 1539SOL    HW3 5929   3.892   1.542   4.055 -1.7520  2.1129 -0.8522
 1539SOL    MW4 5930   3.919   1.589   4.123  0.1937 -0.1558  0.2062
 1540SOL     OW 5931   2.398   3.858   0.969 -0.3364  0.6212 -0.5665
 1540SOL    HW2 5932   2.432   3.927   1.026 -1.1733 -0.5957  1.5432
 1540SOL    HW3 5933   2.453   3.782   0.987 -0.9014  0.0851 -1.0474
 1540SOL    MW4 5934   2.409   3.857   0.979  0.2332 -0.2896 -0.5803
 1541SOL     OW 5935   5.968   5.748   6.172  0.4826 -0.3327 -0.2753
 1541SOL    HW2 5936   5.962   5.788   6.259 -0.6856  0.0549 -0.5169
 1541SOL    HW3 5937   6.057   5.768   6.143  0.7337 -0.0678  0.6364
 1541SOL    MW4 5938   5.979   5.756   6.180  0.6422  0.2382 -0.4255
 1542SOL     OW 5939   6.271   0.471   1.278 -0.3032 -0.0026 -0.0005
 1542SOL    HW2 5940   6.345   0.507   1.230 -0.0456  1.0193  1.1000
 1542SOL    HW3 5941   6.303   0.390   1.317  0.3339  0.5526  0.6608
 1542SOL    MW4 5942   6.285   0.465   1.277  0.6304 -0.4168 -0.0601
 1543SOL     OW 5943   4.956   0.674   1.229 -0.3670 -0.5178 -0.4777
 1543SOL    HW2 5944   5.018   0.619   1.278 -1.1834 -0.7329  0.3519
 1543SOL    HW3 5945   4.878   0.676   1.285 -0.1705  1.9625 -0.2198
 1543SOL    MW4 5946   4.954   0.667   1.243 -0.1611  0.4495 -0.3212
 1544SOL     OW 5947   1.612   4.138   0.711  0.1187 -0.3703  1.0035
 1544SOL    HW2 5948   1.661   4.073   0.662  0.9017 -0.6052  2.0622
 1544SOL    HW3 5949   1.520   4.120   0.691  0.3998 -0.7485  0.0146
 1544SOL    MW4 5950   1.606   4.127   0.702  0.6307 -0.1626 -0.1809
 1545SOL     OW 5951   0.727   5.624   1.617  0.1607 -0.2121 -0.5712
 1545SOL    HW2 5952   0.793   5.599   1.552  0.8000 -0.3990  0.1343
 1545SOL    HW3 5953   0.697   5.542   1.654 -1.7289 -0.2539 -2.0477
 1545SOL    MW4 5954   0.732   5.610   1.613 -0.3628  0.0608  0.3035
 1546SOL     OW 5955   4.320   3.068   3.133 -0.4165 -0.2298  0.6984
 1546SOL    HW2 5956   4.234   3.033   3.110  0.8160 -2.4333 -0.9150
 1546SOL    HW3 5957   4.322   3.155   3.091 -0.9860 -1.1412 -1.3492
 1546SOL    MW4 5958   4.309   3.075   3.124  0.0397  0.0228 -0.6600
 1547SOL     OW 5959   0.018   2.847   0.414 -0.3540 -0.1879 -0.0749
 1547SOL    HW2 5960   0.072   2.859   0.492 -0.3520  0.0758 -0.1162
 1547SOL    HW3 5961   0.070   2.791   0.356  0.9523  2.0420 -1.1658
 1547SOL    MW4 5962   0.032   2.841   0.417 -0.1343 -0.4664 -0.5890
 1548SOL     OW 5963   4.329   0.007   0.209  0.2839  0.1199 -0.4113
 1548SOL    HW2 5964   4.368   0.007   0.122  0.3624  1.2018 -0.3936
 1548SOL    HW3 5965   4.312   0.099   0.228  0.5235 -0.0629  0.8301
 1548SOL    MW4 5966   4.332   0.019   0.200  0.0757  0.2561  0.0621
 1549SOL     OW 5967   4.014   2.165   3.478 -0.1699  0.3240  0.0287
 1549SOL    HW2 5968   4.070   2.148   3.402 -0.3207  1.4867 -0.3726
 1549SOL    HW3 5969   4.075   2.162   3.552  0.3327  0.9931 -0.3399
 1549SOL    MW4 5970   4.030   2.163   3.478  0.0162 -0.4972  0.0410
 1550SOL     OW 5971   3.027   3.874   4.780  0.0371 -0.1548  0.8230
 1550SOL    HW2 5972   3.004   3.923   4.701  0.5160 -2.5022 -0.8543
 1550SOL    HW3 5973   3.113   3.908   4.805 -1.0308  2.1496  1.7350
 1550SOL    MW4 5974   3.035   3.885   4.773  0.2895  0.4907 -0.1200
 1551SOL     OW 5975   3.806   6.265   4.458  0.4272  0.3642  0.1138
 1551SOL    HW2 5976   3.884   6.316   4.436 -1.2172  2.1000 -2.3429
 1551SOL    HW3 5977   3.818   6.183   4.411  0.2577  1.1318 -1.3252
 1551SOL    MW4 5978   3.818   6.261   4.449  0.2848  0.4519  0.2979
 1552SOL     OW 5979   0.750   4.769   0.219 -0.2611 -0.5520  0.5674
 1552SOL    HW2 5980   0.710   4.851   0.250  3.8686  2.0456 -0.1598
 1552SOL    HW3 5981   0.729   4.705   0.287 -1.6238  1.7493  2.4729
 1552SOL    MW4 5982   0.742   4.772   0.232 -0.0653 -0.6288 -0.1316
 1553SOL     OW 5983   3.359   5.513   0.981 -0.2978  0.2866 -0.6396
 1553SOL    HW2 5984   3.405   5.596   0.990  0.6960 -0.1663 -1.3247
 1553SOL    HW3 5985   3.317   5.499   1.066  1.1218  0.5639  0.1425
 1553SOL    MW4 5986   3.360   5.522   0.993  0.1730 -0.4409  0.4373
 1554SOL     OW 5987   0.647   0.813   2.874 -0.0024  0.2233  0.9899
 1554SOL    HW2 5988   0.602   0.852   2.950  1.2912  1.2340  1.2757
 1554SOL    HW3 5989   0.657   0.721   2.898  1.0897  0.6735  2.4363
 1554SOL    MW4 5990   0.642   0.806   2.887  0.1019  0.1275  0.5359
 1555SOL     OW 5991   0.617   5.027   0.263  0.0100 -1.6837 -0.7256
 1555SOL    HW2 5992   0.565   5.022   0.343  1.0589 -1.2271 -0.0009
 1555SOL    HW3 5993   0.552   5.037   0.193 -0.8193  1.3146  0.3424
 1555SOL    MW4 5994   0.601   5.027   0.265  0.0409  0.4068 -0.7411
 1556SOL     OW 5995   4.741   5.531   1.660 -0.0788  0.2933  0.1121
 1556SOL    HW2 5996   4.696   5.520   1.576 -0.6219  0.2116  0.4036
 1556SOL    HW3 5997   4.671   5.527   1.725  0.5857 -2.3888  0.7792
 1556SOL    MW4 5998   4.726   5.529   1.658 -0.1004  0.4633  0.3714
 1557SOL     OW 5999   0.055   3.567   4.544  0.0553  0.6175  0.6596
 1557SOL    HW2 6000   0.133   3.540   4.496 -0.6028  1.0287 -0.7010
 1557SOL    HW3 6001   0.088   3.600   4.628  1.2286 -0.1982  0.5415
 1557SOL    MW4 6002   0.070   3.568   4.549 -0.5444  0.1108 -0.2836
 1558SOL     OW 6003   2.017   5.622   4.262 -0.1808  0.0687  0.0725
 1558SOL    HW2 6004   2.036   5.539   4.217 -1.6718 -0.5672  0.5279
 1558SOL    HW3 6005   1.930   5.647   4.230 -0.5654  0.4526  1.3518
 1558SOL    MW4 6006   2.008   5.614   4.252  0.2490 -0.2992  0.8251
 1559SOL     OW 6007   2.332   4.424   3.818  0.9255 -0.1962 -0.5978
 1559SOL    HW2 6008   2.427   4.439   3.814  0.8436  0.1305 -1.6085
 1559SOL    HW3 6009   2.303   4.474   3.893  1.6917 -1.0922  0.3214
 1559SOL    MW4 6010   2.341   4.432   3.827  0.6948 -0.3879  0.2250
 1560SOL     OW 6011   5.686   6.146   6.010  0.1789 -0.3500 -0.0775
 1560SOL    HW2 6012   5.766   6.199   6.007  1.0673 -1.6369 -0.0576
 1560SOL    HW3 6013   5.640   6.176   6.089  0.6077  0.4510 -0.1231
 1560SOL    MW4 6014   5.691   6.157   6.020  0.4746 -0.2697  0.0335
 1561SOL     OW 6015   4.000   3.680   0.653  0.0392 -0.2080 -0.1472
 1561SOL    HW2 6016   3.979   3.773   0.643 -1.0308 -0.0850  2.3808
 1561SOL    HW3 6017   3.914   3.637   0.662  0.5564 -1.3032 -0.2289
 1561SOL    MW4 6018   3.986   3.686   0.653  0.1510  0.8219  0.0305
 1562SOL     OW 6019   4.679   2.847   4.552 -0.7044 -0.2522 -0.5795
 1562SOL    HW2 6020   4.601   2.794   4.537  0.0044 -1.5564  0.1382
 1562SOL    HW3 6021   4.740   2.787   4.595  1.1362  0.3733 -2.1715
 1562SOL    MW4 6022   4.677   2.832   4.555 -0.7642  0.2696 -0.8746
 1563SOL     OW 6023   4.745   5.212   4.949 -0.5660  0.1986  0.2888
 1563SOL    HW2 6024   4.672   5.247   4.999 -1.5942 -1.8032  0.2824
 1563SOL    HW3 6025   4.726   5.119   4.940 -0.3189  0.3713 -3.6347
 1563SOL    MW4 6026   4.733   5.205   4.955 -0.0363  0.5528 -0.1689
 1564SOL     OW 6027   3.492   3.033   0.880  0.3182  0.0898 -0.1007
 1564SOL    HW2 6028   3.430   3.022   0.808  1.8072  0.7537 -1.5477
 1564SOL    HW3 6029   3.559   3.092   0.845  1.4501 -0.1195  1.6055
 1564SOL    MW4 6030   3.493   3.039   0.866 -0.4659 -0.2108  0.6448
 1565SOL     OW 6031   5.516   0.489   0.836 -0.0620  0.2655  0.3673
 1565SOL    HW2 6032   5.467   0.408   0.852  0.1965  0.2299  1.0117
 1565SOL    HW3 6033   5.450   0.558   0.840 -0.5084  0.0005 -1.4558
 1565SOL    MW4 6034   5.501   0.488   0.839  0.4777 -0.5728  0.0442
 1566SOL     OW 6035   0.504   4.472   6.207  0.3095 -0.1668 -0.0492
 1566SOL    HW2 6036   0.483   4.501   6.119  1.8987 -0.8631 -0.6883
 1566SOL    HW3 6037   0.597   4.491   6.218  0.1622 -0.1869  1.4446
 1566SOL    MW4 6038   0.513   4.478   6.197 -0.1511  0.9015 -0.1626
 1567SOL     OW 6039   3.992   6.325   1.739 -0.5463  0.2205 -0.1081
 1567SOL    HW2 6040   4.030   6.252   1.788 -0.1016  1.3804  1.3511
 1567SOL    HW3 6041   3.897   6.316   1.751 -0.5614 -0.7101 -0.8460
 1567SOL    MW4 6042   3.984   6.314   1.747 -0.3258  0.1206  0.3359
 1568SOL     OW 6043   2.930   4.096   0.315 -0.3570  0.4241 -0.4694
 1568SOL    HW2 6044   2.917   4.034   0.243 -1.8388 -0.2556  0.3448
 1568SOL    HW3 6045   2.844   4.137   0.327 -0.0224  0.8067  0.6604
 1568SOL    MW4 6046   2.917   4.093   0.307  0.6053  0.3984  0.2822
 1569SOL     OW 6047   2.079   2.869   0.807  0.2451 -0.3064 -0.2901
 1569SOL    HW2 6048   2.003   2.854   0.863 -0.6045 -0.6764 -1.5021
 1569SOL    HW3 6049   2.096   2.784   0.766  1.3218 -0.2267 -0.0377
 1569SOL    MW4 6050   2.072   2.856   0.809 -0.8160 -0.4495  0.1155
 1570SOL     OW 6051   0.992   3.491   6.270 -1.0890 -0.0788 -0.2628
 1570SOL    HW2 6052   0.945   3.494   6.354  0.6079 -0.4682  0.7306
 1570SOL    HW3 6053   1.079   3.523   6.290 -1.1702  1.6468 -2.2934
 1570SOL    MW4 6054   0.997   3.496   6.284 -0.1114  0.0798  0.4329
 1571SOL     OW 6055   4.792   4.424   3.617  0.0639  0.2941  0.0611
 1571SOL    HW2 6056   4.772   4.509   3.577 -0.3528 -0.7952 -2.1953
 1571SOL    HW3 6057   4.835   4.374   3.548 -1.6414 -2.0701  0.5787
 1571SOL    MW4 6058   4.795   4.429   3.602 -0.1097 -0.0743 -0.1906
 1572SOL     OW 6059   0.052   6.423   6.401  0.1411  0.0080 -0.2267
 1572SOL    HW2 6060   0.090   6.509   6.417 -0.5315 -0.0171  1.8749
 1572SOL    HW3 6061   0.124   6.362   6.416  0.3244  0.1525 -0.5206
 1572SOL    MW4 6062   0.066   6.426   6.405 -0.1452 -0.2630  0.0516
 1573SOL     OW 6063   1.348   6.004   1.946  0.2726 -0.1416  0.1570
 1573SOL    HW2 6064   1.395   6.085   1.928  1.8351 -1.1349 -0.4505
 1573SOL    HW3 6065   1.323   6.010   2.038  1.0577  0.6791  0.3278
 1573SOL    MW4 6066   1.351   6.016   1.955  0.5489  0.4235  0.2914
 1574SOL     OW 6067   3.182   1.336   0.975 -0.1008  0.0754 -0.0869
 1574SOL    HW2 6068   3.209   1.250   1.007  0.3507 -0.0913 -0.8881
 1574SOL    HW3 6069   3.088   1.328   0.958 -0.1416 -0.1283  0.2279
 1574SOL    MW4 6070   3.173   1.324   0.977  0.1009  0.2187 -0.1791
 1575SOL     OW 6071   1.719   0.567   0.302  0.2926  0.6158  0.1863
 1575SOL    HW2 6072   1.703   0.616   0.383  0.2607  0.3747  0.3299
 1575SOL    HW3 6073   1.724   0.476   0.331 -0.1870  0.4819 -0.1508
 1575SOL    MW4 6074   1.718   0.561   0.317 -0.2719 -0.0789  0.7675
 1576SOL     OW 6075   1.313   1.273   0.940  0.7093  0.0664 -0.5702
 1576SOL    HW2 6076   1.407   1.262   0.954  0.8144 -0.0529 -1.3342
 1576SOL    HW3 6077   1.276   1.272   1.028  1.2550 -1.4305 -0.3263
 1576SOL    MW4 6078   1.321   1.271   0.953  0.0506 -1.1699  0.3675
 1577SOL     OW 6079   4.984   2.826   2.344 -0.1682 -0.1734 -0.1139
 1577SOL    HW2 6080   5.011   2.734   2.345  0.1778 -0.0825  1.2165
 1577SOL    HW3 6081   5.021   2.862   2.424  0.3225  1.3269 -0.9855
 1577SOL    MW4 6082   4.992   2.818   2.355  0.2057 -0.2796  0.0028
 1578SOL     OW 6083   2.302   5.898   2.748 -0.0123 -0.1283 -0.3393
 1578SOL    HW2 6084   2.242   5.865   2.681  0.8637 -1.0695 -0.6931
 1578SOL    HW3 6085   2.260   5.977   2.782 -0.2121  0.7364 -2.4219
 1578SOL    MW4 6086   2.289   5.904   2.743 -0.1729  0.0077 -0.6162
 1579SOL     OW 6087   1.197   0.211   4.946 -0.1374  0.0289 -0.0274
 1579SOL    HW2 6088   1.142   0.267   5.000 -0.4868  1.2615 -1.5885
 1579SOL    HW3 6089   1.151   0.127   4.944  0.6004 -0.5369  2.6708
 1579SOL    MW4 6090   1.184   0.207   4.953 -0.5593 -0.3148  0.2098
 1580SOL     OW 6091   2.636   1.687   6.438 -0.1418 -0.3231 -0.1958
 1580SOL    HW2 6092   2.698   1.702   6.510 -1.1410 -0.0430  0.6281
 1580SOL    HW3 6093   2.553   1.668   6.481 -0.5532 -1.0822 -1.2836
 1580SOL    MW4 6094   2.633   1.687   6.453  0.1199 -0.0666 -0.5795
 1581SOL     OW 6095   5.013   5.190   4.391 -0.1851  0.2186 -0.3967
 1581SOL    HW2 6096   4.934   5.152   4.429  1.4195 -2.1361  0.8557
 1581SOL    HW3 6097   5.066   5.214   4.467  0.5546  1.2565 -1.2141
 1581SOL    MW4 6098   5.010   5.189   4.406 -0.1632  0.2307 -0.1145
 1582SOL     OW 6099   1.349   4.061   0.684 -0.2206  0.0704 -0.2771
 1582SOL    HW2 6100   1.256   4.084   0.684 -0.3637 -0.3894  1.4441
 1582SOL    HW3 6101   1.353   3.971   0.715  0.7914 -0.0372 -0.6534
 1582SOL    MW4 6102   1.338   4.052   0.688  0.0201  0.1352 -0.0674
 1583SOL     OW 6103   4.029   3.057   2.794 -0.5406 -0.5178  0.2545
 1583SOL    HW2 6104   4.122   3.079   2.790 -0.8389  0.7485 -2.4897
 1583SOL    HW3 6105   4.024   2.967   2.761 -0.3449 -0.0641 -1.1067
 1583SOL    MW4 6106   4.041   3.048   2.789 -0.1673  0.0062  0.0505
 1584SOL     OW 6107   1.855   4.367   4.679  0.2113  0.1239  1.0106
 1584SOL    HW2 6108   1.876   4.450   4.638  1.7163 -0.1737  1.1224
 1584SOL    HW3 6109   1.817   4.390   4.763 -0.2230  0.7005  0.6582
 1584SOL    MW4 6110   1.853   4.381   4.685 -0.8373 -0.4217  0.1604
 1585SOL     OW 6111   1.430   2.658   2.407 -0.8807 -0.2705  0.1008
 1585SOL    HW2 6112   1.377   2.618   2.477 -0.4367  1.7924  1.6977
 1585SOL    HW3 6113   1.519   2.658   2.442 -0.6417  0.7259 -0.4791
 1585SOL    MW4 6114   1.434   2.652   2.421 -0.2034  0.7314 -0.3178
 1586SOL     OW 6115   1.732   4.990   1.179  0.1309 -0.1404 -0.1651
 1586SOL    HW2 6116   1.705   4.913   1.130  1.7097 -0.0733 -1.2146
 1586SOL    HW3 6117   1.743   5.058   1.113 -0.5408  0.7981  0.6644
 1586SOL    MW4 6118   1.730   4.989   1.164 -0.2826  0.0545  0.2567
 1587SOL     OW 6119   2.792   3.801   4.457 -0.9970  0.0194 -0.5951
 1587SOL    HW2 6120   2.775   3.806   4.363 -0.5077 -2.3788 -0.8709
 1587SOL    HW3 6121   2.706   3.792   4.497 -1.1058 -0.5621 -0.9570
 1587SOL    MW4 6122   2.779   3.801   4.450  0.2409 -0.3324 -0.1532
 1588SOL     OW 6123   1.714   1.564   4.843 -0.0795  0.6881  0.3004
 1588SOL    HW2 6124   1.776   1.492   4.836 -1.1389 -0.0800 -1.7691
 1588SOL    HW3 6125   1.683   1.560   4.934 -1.2139 -2.4398 -0.1206
 1588SOL    MW4 6126   1.718   1.554   4.854  0.4299 -0.5234 -0.1011
 1589SOL     OW 6127   5.096   2.355   3.932  0.3814 -0.1768 -0.2461
 1589SOL    HW2 6128   5.178   2.405   3.935  0.3798 -0.0569 -1.6157
 1589SOL    HW3 6129   5.036   2.411   3.883 -0.2307 -0.6806 -0.0804
 1589SOL    MW4 6130   5.099   2.369   3.926 -0.0446  0.0136  0.0412
 1590SOL     OW 6131   5.545   1.144   3.261 -0.2498 -0.4044 -0.6403
 1590SOL    HW2 6132   5.459   1.181   3.285 -0.0811  0.2737 -1.0629
 1590SOL    HW3 6133   5.531   1.049   3.264 -1.2091 -0.3018 -1.3936
 1590SOL    MW4 6134   5.532   1.137   3.265 -0.0025 -0.3660  0.2349
 1591SOL     OW 6135   2.970   6.079   2.144  0.3548  0.8666 -0.1683
 1591SOL    HW2 6136   3.037   6.138   2.181  1.1718  0.3623 -0.8194
 1591SOL    HW3 6137   2.934   6.128   2.070  0.0720  1.0930  0.1147
 1591SOL    MW4 6138   2.974   6.093   2.139  0.0783 -0.3665  0.3005
 1592SOL     OW 6139   3.711   1.939   0.558  0.0534 -0.2151  0.2731
 1592SOL    HW2 6140   3.800   1.915   0.582  0.4233  0.4639 -0.3694
 1592SOL    HW3 6141   3.718   2.028   0.524 -0.6630 -0.5785 -0.9145
 1592SOL    MW4 6142   3.723   1.947   0.556 -0.2457 -0.1822  0.0994
 1593SOL     OW 6143   0.336   1.850   1.558  0.5588 -0.7781  0.6013
 1593SOL    HW2 6144   0.378   1.911   1.497  0.1780  0.4124  1.4704
 1593SOL    HW3 6145   0.378   1.867   1.642 -1.4245  0.3479  1.4687
 1593SOL    MW4 6146   0.347   1.861   1.561  0.6255 -0.2863 -0.5003
 1594SOL     OW 6147   2.893   4.967   0.792  0.1791 -0.0374  0.2343
 1594SOL    HW2 6148   2.872   5.060   0.791 -0.2302 -0.1102 -1.2406
 1594SOL    HW3 6149   2.950   4.955   0.716  0.8146 -0.8731  0.8267
 1594SOL    MW4 6150   2.897   4.977   0.782 -0.3769  0.0943 -0.5022
 1595SOL     OW 6151   5.509   5.829   3.976  0.4678 -0.2522  0.1603
 1595SOL    HW2 6152   5.528   5.864   4.063 -3.6968  0.7493  0.8897
 1595SOL    HW3 6153   5.479   5.739   3.993 -1.6001  0.3630  0.0372
 1595SOL    MW4 6154   5.507   5.822   3.990 -0.2991  0.3115 -0.4145
 1596SOL     OW 6155   1.193   4.938   5.981  0.3878  0.6672  0.5426
 1596SOL    HW2 6156   1.225   4.923   5.892 -0.6919  1.9640 -0.1004
 1596SOL    HW3 6157   1.174   4.851   6.015 -0.9510  0.2198 -1.1948
 1596SOL    MW4 6158   1.195   4.925   5.973 -1.1314  0.0203  0.3714
 1597SOL     OW 6159   2.284   0.775   4.610  0.5002 -0.0032 -0.0755
 1597SOL    HW2 6160   2.310   0.823   4.689  1.5408  0.3651 -0.6350
 1597SOL    HW3 6161   2.270   0.843   4.544  3.6432 -0.4554 -1.3848
 1597SOL    MW4 6162   2.285   0.791   4.612  0.3928  0.2813  0.0923
 1598SOL     OW 6163   2.723   3.541   5.899  0.1080  0.0066  0.3278
 1598SOL    HW2 6164   2.673   3.531   5.980 -1.0274  0.5464 -0.2779
 1598SOL    HW3 6165   2.791   3.474   5.904  1.3032  1.2614  2.6041
 1598SOL    MW4 6166   2.725   3.531   5.910  0.2641  0.3851 -0.8307
 1599SOL     OW 6167   4.924   4.840   4.536  0.5134 -0.2473 -0.1114
 1599SOL    HW2 6168   4.983   4.835   4.461 -0.5974  0.2974 -1.0401
 1599SOL    HW3 6169   4.943   4.926   4.575 -1.5949  1.2235 -2.1047
 1599SOL    MW4 6170   4.934   4.851   4.531  0.4529  0.1796  0.6410
 1600SOL     OW 6171   2.029   2.777   4.509  0.2637 -0.3193  0.2454
 1600SOL    HW2 6172   2.086   2.716   4.463  0.1783 -0.0943 -0.1704
 1600SOL    HW3 6173   1.940   2.750   4.485  0.2426  0.7840 -1.0614
 1600SOL    MW4 6174   2.025   2.766   4.500 -0.0096 -0.0742 -0.6454
 1601SOL     OW 6175   2.391   5.412   4.239 -0.6772 -0.0450 -0.3578
 1601SOL    HW2 6176   2.312   5.438   4.191  0.1967  0.2423 -1.6889
 1601SOL    HW3 6177   2.434   5.347   4.183  0.4133  0.3528 -0.0175
 1601SOL    MW4 6178   2.386   5.407   4.225 -0.3348 -0.3111  0.0324
 1602SOL     OW 6179   1.440   1.491   2.202 -0.4201  0.2950 -0.0130
 1602SOL    HW2 6180   1.386   1.440   2.142  0.7812 -0.9822 -0.0457
 1602SOL    HW3 6181   1.425   1.450   2.288  1.2668 -0.7669 -0.1925
 1602SOL    MW4 6182   1.431   1.479   2.205  0.1297  0.3280 -0.1105
 1603SOL     OW 6183   0.665   2.332   1.189 -0.1696  0.3929 -0.4453
 1603SOL    HW2 6184   0.749   2.377   1.176 -0.1656  0.4245 -0.3048
 1603SOL    HW3 6185   0.645   2.343   1.281 -0.0795 -0.0498 -0.3681
 1603SOL    MW4 6186   0.674   2.339   1.199 -0.4081 -0.0152 -0.2151
 1604SOL     OW 6187   1.476   5.138   0.219 -0.1508 -0.3521 -0.3495
 1604SOL    HW2 6188   1.424   5.184   0.284 -0.3298  1.2955 -1.6043
 1604SOL    HW3 6189   1.423   5.063   0.194 -1.4517  0.6822 -0.7800
 1604SOL    MW4 6190   1.462   5.134   0.224 -0.1586  0.0549  0.5513
 1605SOL     OW 6191   0.898   4.250   4.665 -0.2360 -0.1861  0.5201
 1605SOL    HW2 6192   0.828   4.187   4.681 -1.2340  0.3760 -1.3993
 1605SOL    HW3 6193   0.863   4.334   4.693  0.6107 -0.2462  1.8445
 1605SOL    MW4 6194   0.884   4.253   4.671 -0.0473 -0.5005  0.0936
 1606SOL     OW 6195   1.120   1.254   0.649  0.2399 -0.0945  0.4069
 1606SOL    HW2 6196   1.134   1.341   0.685 -1.7961  0.2815  0.4383
 1606SOL    HW3 6197   1.031   1.231   0.677  0.4897 -1.8927 -0.1780
 1606SOL    MW4 6198   1.110   1.263   0.657 -0.2227 -0.1299 -0.3696
 1607SOL     OW 6199   4.633   3.130   6.450  0.1010  0.0702  0.0337
 1607SOL    HW2 6200   4.679   3.046   6.457  0.1534  0.0683 -0.3522
 1607SOL    HW3 6201   4.656   3.163   6.363 -0.1546  0.3475  0.0717
 1607SOL    MW4 6202   4.642   3.123   6.440  0.1283  0.3029  0.2653
 1608SOL     OW 6203   1.534   1.093   0.409  0.0924  0.1911 -0.9495
 1608SOL    HW2 6204   1.597   1.084   0.481  0.3712 -0.4168 -1.2620
 1608SOL    HW3 6205   1.449   1.100   0.453  0.1199 -1.4529 -0.5743
 1608SOL    MW4 6206   1.532   1.093   0.425  0.3884 -1.0458  0.4700
 1609SOL     OW 6207   1.235   2.941   1.828  0.5746 -1.3895  0.4412
 1609SOL    HW2 6208   1.311   2.968   1.880  0.0698 -0.3033  0.6357
 1609SOL    HW3 6209   1.256   2.968   1.739  0.8120 -1.9404  0.3250
 1609SOL    MW4 6210   1.248   2.948   1.824  0.6121 -0.1961 -0.8772
 1610SOL     OW 6211   0.579   1.667   1.529  0.7986 -0.1717  0.5066
 1610SOL    HW2 6212   0.514   1.733   1.503  2.3002  1.3440  0.4471
 1610SOL    HW3 6213   0.527   1.588   1.544 -0.6847  0.0373 -2.7659
 1610SOL    MW4 6214   0.563   1.665   1.528 -0.8755  0.0574 -0.1145
 1611SOL     OW 6215   1.053   3.102   5.030  0.5206  0.2779 -0.1219
 1611SOL    HW2 6216   1.053   3.015   4.990  0.8281  0.5978 -0.8358
 1611SOL    HW3 6217   1.127   3.147   4.990  0.9502  0.5595  0.9514
 1611SOL    MW4 6218   1.063   3.096   5.020  0.1480 -0.9122  0.1231
 1612SOL     OW 6219   1.597   5.702   2.444  0.1978  0.8188  0.5560
 1612SOL    HW2 6220   1.617   5.685   2.536  0.4115  0.2950  0.4211
 1612SOL    HW3 6221   1.548   5.784   2.444  0.2585  0.8582  1.1287
 1612SOL    MW4 6222   1.594   5.710   2.456  0.2870  0.0152  0.7625
 1613SOL     OW 6223   0.421   5.435   4.632 -0.4675  0.2980 -0.2090
 1613SOL    HW2 6224   0.343   5.381   4.644 -0.6187  0.4255 -0.6107
 1613SOL    HW3 6225   0.478   5.412   4.706 -0.5902 -0.3090 -0.2953
 1613SOL    MW4 6226   0.418   5.425   4.643  0.6583  0.4057  0.0919
 1614SOL     OW 6227   2.470   3.671   3.040  0.1500  0.2876  0.2849
 1614SOL    HW2 6228   2.501   3.586   3.009  2.5506  1.2449 -0.2153
 1614SOL    HW3 6229   2.442   3.656   3.130  1.3008 -0.9066  0.4771
 1614SOL    MW4 6230   2.471   3.658   3.048 -0.4103 -0.0203  0.6030
 1615SOL     OW 6231   4.006   3.268   1.225 -0.6234  0.2629  0.4170
 1615SOL    HW2 6232   3.994   3.291   1.133 -1.3462 -0.0619  0.4287
 1615SOL    HW3 6233   4.099   3.285   1.241  0.7559 -4.0780 -1.6165
 1615SOL    MW4 6234   4.017   3.274   1.215  0.6143 -0.1355 -0.2111
 1616SOL     OW 6235   5.307   0.003   2.345 -0.0002 -0.1308 -0.0773
 1616SOL    HW2 6236   5.239   0.050   2.297 -0.3708  0.5698  1.0972
 1616SOL    HW3 6237   5.328  -0.072   2.289 -2.2228 -0.7515 -0.1868
 1616SOL    MW4 6238   5.300  -0.001   2.331  0.3993  0.3039 -0.2791
 1617SOL     OW 6239   4.941   2.817   0.649 -0.2733  0.4711  0.1984
 1617SOL    HW2 6240   4.891   2.830   0.730  0.1237 -1.9135  0.9031
 1617SOL    HW3 6241   5.032   2.809   0.678  0.0540  0.9888 -0.6604
 1617SOL    MW4 6242   4.946   2.818   0.664  0.5519 -0.0825  0.4537
 1618SOL     OW 6243   3.160   4.904   0.179  0.3008  0.0345  0.0117
 1618SOL    HW2 6244   3.244   4.889   0.135  0.5815  0.3196  0.4405
 1618SOL    HW3 6245   3.184   4.918   0.271 -0.2812 -0.5494  0.2557
 1618SOL    MW4 6246   3.175   4.904   0.186 -0.4298  1.0670 -1.4522
 1619SOL     OW 6247   3.748   1.545   4.690  0.0338  0.3355  0.3736
 1619SOL    HW2 6248   3.729   1.523   4.782 -2.4424  2.8766  0.6190
 1619SOL    HW3 6249   3.661   1.552   4.649  1.0758 -0.5934 -2.1825
 1619SOL    MW4 6250   3.734   1.543   4.697  0.3455 -0.2057  0.2547
 1620SOL     OW 6251   3.417   4.447   5.112 -0.3498 -0.0325  0.1659
 1620SOL    HW2 6252   3.399   4.354   5.099 -2.6870  0.4352 -0.3486
 1620SOL    HW3 6253   3.458   4.451   5.199  1.2549 -1.6461 -0.4410
 1620SOL    MW4 6254   3.420   4.435   5.122 -0.1175 -0.1454 -0.5513
 1621SOL     OW 6255   6.058   0.930   5.902  0.2006  0.5094 -0.0438
 1621SOL    HW2 6256   5.976   0.920   5.951  0.2868  0.0522  0.0093
 1621SOL    HW3 6257   6.057   1.022   5.874 -0.7602  0.2987 -0.7823
 1621SOL    MW4 6258   6.047   0.941   5.904  0.6507  0.1738 -0.0640
 1622SOL     OW 6259   2.747   4.726   4.395  0.5798  0.6180 -0.3808
 1622SOL    HW2 6260   2.700   4.708   4.476 -0.2460  0.2068 -0.9396
 1622SOL    HW3 6261   2.715   4.660   4.334  0.1141  1.8195 -1.4598
 1622SOL    MW4 6262   2.737   4.715   4.398  0.0566 -0.2664 -0.5796
 1623SOL     OW 6263   0.720   4.250   1.739  0.2125 -0.1996  0.2937
 1623SOL    HW2 6264   0.788   4.303   1.781 -0.2010 -0.5113  1.3897
 1623SOL    HW3 6265   0.734   4.263   1.645  0.9698  0.7643  0.5255
 1623SOL    MW4 6266   0.731   4.259   1.732 -0.5622 -0.1795 -0.0753
 1624SOL     OW 6267   2.997   4.803   3.101  0.1128 -0.4034 -0.4393
 1624SOL    HW2 6268   2.903   4.805   3.086  0.1946 -1.4770 -1.1639
 1624SOL    HW3 6269   3.026   4.893   3.085 -0.9286  0.1986  0.8871
 1624SOL    MW4 6270   2.989   4.816   3.097  0.0927  0.4441 -0.0118
 1625SOL     OW 6271   3.874   5.205   5.836  0.1265  0.1333 -0.1446
 1625SOL    HW2 6272   3.857   5.194   5.742  0.4698  0.2500 -0.2188
 1625SOL    HW3 6273   3.943   5.271   5.841  0.0929  0.1441  0.1914
 1625SOL    MW4 6274   3.881   5.212   5.824  0.0770 -0.2471 -0.0064
 1626SOL     OW 6275   0.458   1.490   5.481 -0.2275  0.0350  0.1094
 1626SOL    HW2 6276   0.403   1.565   5.502 -1.5163 -0.5218 -1.0795
 1626SOL    HW3 6277   0.478   1.501   5.388  1.4237  0.0414  0.4375
 1626SOL    MW4 6278   0.454   1.501   5.471 -0.3300  0.3539  0.0452
 1627SOL     OW 6279   3.788   2.011   2.651  0.6348 -0.3978  0.1165
 1627SOL    HW2 6280   3.728   1.945   2.618  0.5788  0.0196 -0.6307
 1627SOL    HW3 6281   3.850   1.962   2.705 -0.6670 -0.7667  1.3503
 1627SOL    MW4 6282   3.788   1.996   2.654  0.2484 -0.1219  0.8759
 1628SOL     OW 6283   0.314   2.267   6.073  0.8503 -0.3162  0.3706
 1628SOL    HW2 6284   0.245   2.278   6.139  1.2169 -1.3790  0.9515
 1628SOL    HW3 6285   0.268   2.233   5.996 -0.0029  3.2177 -0.8561
 1628SOL    MW4 6286   0.299   2.264   6.072 -0.5238  0.1224 -0.0734
 1629SOL     OW 6287   1.973   1.278   5.333 -0.3594 -0.3105 -0.2357
 1629SOL    HW2 6288   1.962   1.200   5.387  1.5802  0.8304  1.9881
 1629SOL    HW3 6289   2.054   1.318   5.365 -0.8630  2.2026 -1.8296
 1629SOL    MW4 6290   1.982   1.273   5.344  0.5597 -0.3670 -0.0297
 1630SOL     OW 6291   0.480   5.347   0.325  0.7622 -0.3792 -0.3128
 1630SOL    HW2 6292   0.413   5.412   0.304 -1.8855 -2.0371  2.2762
 1630SOL    HW3 6293   0.455   5.270   0.274  0.5480 -1.0702  0.8187
 1630SOL    MW4 6294   0.468   5.346   0.315  0.4390  0.4682 -0.4445
 1631SOL     OW 6295   5.638   1.360   5.364 -0.0692 -0.6268 -0.6006
 1631SOL    HW2 6296   5.572   1.334   5.300  0.5728 -1.6974 -0.8673
 1631SOL    HW3 6297   5.644   1.455   5.355  0.3508 -0.7795 -2.5015
 1631SOL    MW4 6298   5.630   1.369   5.354  0.4867 -0.6952  0.0428
 1632SOL     OW 6299   3.978   2.609   1.594 -0.6908  0.3008 -0.1923
 1632SOL    HW2 6300   4.068   2.640   1.604 -0.8265  0.7012 -0.2036
 1632SOL    HW3 6301   3.945   2.604   1.684  0.3356 -2.9083  0.1507
 1632SOL    MW4 6302   3.986   2.612   1.607  0.0367  0.4203  0.7652
 1633SOL     OW 6303   0.020   0.131   3.991 -0.2465  0.1709 -0.1922
 1633SOL    HW2 6304  -0.034   0.054   3.975 -1.6266  1.2604 -0.9263
 1633SOL    HW3 6305   0.044   0.162   3.903  1.2911 -0.0626  0.1090
 1633SOL    MW4 6306   0.016   0.125   3.977 -0.1553  0.0219 -0.0468
 1634SOL     OW 6307   1.384   1.630   5.594  0.2362 -0.4851 -0.0114
 1634SOL    HW2 6308   1.325   1.555   5.589 -1.2231  0.4875  1.5399
 1634SOL    HW3 6309   1.433   1.628   5.512 -0.3096 -2.6621 -0.3348
 1634SOL    MW4 6310   1.382   1.620   5.583  0.5045 -0.5647  0.0240
 1635SOL     OW 6311   6.217   3.242   3.176  0.0721  0.8526 -0.1599
 1635SOL    HW2 6312   6.244   3.160   3.217  1.0138  1.4257  0.3954
 1635SOL    HW3 6313   6.299   3.280   3.142 -0.4517  1.2188 -1.0512
 1635SOL    MW4 6314   6.232   3.236   3.177 -0.3996  0.4594  0.0272
 1636SOL     OW 6315   3.953   3.069   6.366 -0.4168  0.2755  0.4117
 1636SOL    HW2 6316   4.037   3.076   6.321 -0.5881 -0.0572  0.0361
 1636SOL    HW3 6317   3.968   3.003   6.434 -0.0480  1.0564  1.1104
 1636SOL    MW4 6318   3.966   3.061   6.369  0.1495 -0.4594 -0.0846
 1637SOL     OW 6319   5.094   2.559   5.747 -0.2434 -0.1008  0.1904
 1637SOL    HW2 6320   5.185   2.587   5.738 -0.3675  0.3237  0.2445
 1637SOL    HW3 6321   5.049   2.635   5.783 -1.0132  0.3818 -1.6785
 1637SOL    MW4 6322   5.100   2.573   5.751  0.2867 -0.0147 -0.6343
 1638SOL     OW 6323   2.438   2.928   0.703 -0.1217 -0.1793 -0.3346
 1638SOL    HW2 6324   2.398   2.958   0.621  0.3063  2.2047  0.2606
 1638SOL    HW3 6325   2.532   2.930   0.685 -0.0353  0.1618  0.1355
 1638SOL    MW4 6326   2.445   2.932   0.690  0.4509  0.3973 -0.1118
 1639SOL     OW 6327   1.004   0.943   6.406  0.1548 -0.1111  0.1643
 1639SOL    HW2 6328   1.033   0.853   6.396 -0.0592 -0.1277 -0.3879
 1639SOL    HW3 6329   0.969   0.966   6.319 -0.7190  0.1685  0.5845
 1639SOL    MW4 6330   1.003   0.934   6.393  0.3672  0.0348 -0.0194
 1640SOL     OW 6331   4.839   1.743   1.662  0.0260  0.2323 -0.1414
 1640SOL    HW2 6332   4.887   1.698   1.731 -2.0540 -1.8693  0.0603
 1640SOL    HW3 6333   4.748   1.742   1.692 -0.6621  0.9652 -2.0635
 1640SOL    MW4 6334   4.833   1.737   1.675  0.1332  0.1217 -0.0261
 1641SOL     OW 6335   4.953   6.071   4.086 -0.4316  0.4522  0.7880
 1641SOL    HW2 6336   4.969   6.152   4.133  2.3081 -1.0626  2.7652
 1641SOL    HW3 6337   4.996   6.083   4.001  2.0081  0.3873  1.9256
 1641SOL    MW4 6338   4.961   6.083   4.081  0.2728  0.2502 -0.0826
 1642SOL     OW 6339   0.242   3.261   2.620  0.3214 -0.0877  0.1376
 1642SOL    HW2 6340   0.174   3.217   2.568  0.2762 -0.2352  0.3243
 1642SOL    HW3 6341   0.305   3.292   2.554 -0.1068  0.3740 -0.0737
 1642SOL    MW4 6342   0.241   3.260   2.604  0.0056 -0.2937 -0.0849
 1643SOL     OW 6343   5.656   4.477   2.071  0.2189 -0.3801  0.0561
 1643SOL    HW2 6344   5.671   4.395   2.118  0.7164 -0.4108 -0.1556
 1643SOL    HW3 6345   5.626   4.450   1.984  0.5627 -0.3409 -0.0751
 1643SOL    MW4 6346   5.654   4.463   2.066  0.4867 -0.2644  0.4612
 1644SOL     OW 6347   4.601   1.360   0.377  0.3113  0.4111  0.1327
 1644SOL    HW2 6348   4.527   1.314   0.338 -0.4318  0.6936  1.1724
 1644SOL    HW3 6349   4.642   1.407   0.305 -1.3659  1.3856 -0.2255
 1644SOL    MW4 6350   4.597   1.360   0.363  0.5191  0.2023  0.0786
 1645SOL     OW 6351   2.201   5.351   1.099  0.1733 -0.1218  0.4993
 1645SOL    HW2 6352   2.118   5.314   1.069  0.2586  0.6240 -0.7167
 1645SOL    HW3 6353   2.182   5.383   1.187 -0.8234 -0.0455  0.2754
 1645SOL    MW4 6354   2.187   5.351   1.106 -0.3678 -0.2193 -0.1753
 1646SOL     OW 6355   3.642   0.150   1.512  0.1078 -0.5195 -0.1211
 1646SOL    HW2 6356   3.574   0.198   1.559  1.8646 -0.1689  2.2337
 1646SOL    HW3 6357   3.718   0.152   1.570  1.6367 -2.3518 -1.8892
 1646SOL    MW4 6358   3.643   0.156   1.526  0.1555 -0.9009 -0.4487
 1647SOL     OW 6359   1.225   4.593   4.495  0.1101 -0.0148 -0.5484
 1647SOL    HW2 6360   1.254   4.505   4.473  0.8021 -0.0100  0.2843
 1647SOL    HW3 6361   1.181   4.625   4.416 -0.0046 -1.0404 -0.9057
 1647SOL    MW4 6362   1.223   4.586   4.482  0.5208  0.0910 -0.4097
 1648SOL     OW 6363   3.109   5.217   0.721  0.0018 -0.1881 -0.2534
 1648SOL    HW2 6364   3.174   5.148   0.729  0.4729  0.1648 -0.9189
 1648SOL    HW3 6365   3.159   5.299   0.727 -0.6798  0.1452  1.7009
 1648SOL    MW4 6366   3.124   5.219   0.723  0.0128  0.5306 -0.0299
 1649SOL     OW 6367   4.433   3.044   2.103  0.0180 -0.1811  0.2367
 1649SOL    HW2 6368   4.421   3.113   2.167 -0.9980  0.2099 -0.3643
 1649SOL    HW3 6369   4.519   3.006   2.125  0.6123  1.2817  0.5408
 1649SOL    MW4 6370   4.443   3.048   2.114 -0.0347 -0.2695  0.2075
 1650SOL     OW 6371   2.766   2.009   1.493  0.4855  1.0558  0.3882
 1650SOL    HW2 6372   2.816   2.075   1.445  0.5376  0.2792 -0.6380
 1650SOL    HW3 6373   2.828   1.939   1.511  0.3832  1.1886  1.3139
 1650SOL    MW4 6374   2.781   2.009   1.489  0.2315  0.4593 -0.0406
 1651SOL     OW 6375   3.023   2.219   3.544  0.3726 -0.6871 -0.1774
 1651SOL    HW2 6376   3.075   2.156   3.594  0.4903 -0.6242 -0.2195
 1651SOL    HW3 6377   2.970   2.263   3.609  1.5064  0.3488  0.0925
 1651SOL    MW4 6378   3.023   2.217   3.559 -0.6382  0.0181 -0.2258
 1652SOL     OW 6379   4.798   0.939   0.887  0.0963 -0.0106 -0.0610
 1652SOL    HW2 6380   4.732   1.004   0.912  1.5864  1.6204 -0.1475
 1652SOL    HW3 6381   4.859   0.988   0.832  0.2521 -1.9956 -1.7693
 1652SOL    MW4 6382   4.797   0.954   0.883  0.6308  0.2754 -0.0866
 1653SOL     OW 6383   5.916   4.265   5.934 -0.3950 -0.1400  0.0453
 1653SOL    HW2 6384   5.823   4.241   5.930 -0.1425 -1.5806  1.7990
 1653SOL    HW3 6385   5.924   4.315   6.016  0.3983 -0.0942 -0.0557
 1653SOL    MW4 6386   5.905   4.269   5.944  0.8483  0.0768 -0.6393
 1654SOL     OW 6387   5.945   1.319   2.929  0.1897 -0.7321 -0.1561
 1654SOL    HW2 6388   6.023   1.350   2.974  1.2195 -1.7085 -1.2183
 1654SOL    HW3 6389   5.876   1.326   2.995  0.9217  1.0984  0.5030
 1654SOL    MW4 6390   5.946   1.324   2.944 -0.0235  0.1750  0.1226
 1655SOL     OW 6391   6.108   0.611   5.171  0.0023 -0.0241  0.4222
 1655SOL    HW2 6392   6.102   0.614   5.076 -0.8215 -0.9277  0.4297
 1655SOL    HW3 6393   6.199   0.586   5.188 -0.0730 -0.7176 -0.1536
 1655SOL    MW4 6394   6.119   0.608   5.161  0.1005  0.2080 -0.1734
 1656SOL     OW 6395   0.783   5.315   0.695 -0.1134  0.2468  0.0957
 1656SOL    HW2 6396   0.817   5.267   0.771 -1.1872  0.2725  0.6143
 1656SOL    HW3 6397   0.817   5.267   0.620 -0.8243 -1.1229  0.6086
 1656SOL    MW4 6398   0.792   5.302   0.695  0.2750 -0.0603 -0.5988
 1657SOL     OW 6399   1.664   6.420   2.453  0.2185  0.0794 -0.4811
 1657SOL    HW2 6400   1.740   6.424   2.395  0.5351 -1.5920 -0.2324
 1657SOL    HW3 6401   1.699   6.438   2.540  0.3515 -0.7652 -0.3561
 1657SOL    MW4 6402   1.678   6.423   2.457 -0.4633 -0.3869  0.0445
 1658SOL     OW 6403   0.134   1.899   5.870 -0.1056 -0.1176 -0.2330
 1658SOL    HW2 6404   0.046   1.893   5.908  0.1205 -0.7141  0.1996
 1658SOL    HW3 6405   0.122   1.874   5.778 -0.2142 -1.2213  0.0751
 1658SOL    MW4 6406   0.121   1.895   5.863 -0.1195  0.2995 -0.4108
 1659SOL     OW 6407   1.808   4.483   0.038  0.0227 -0.5075  0.5624
 1659SOL    HW2 6408   1.850   4.455   0.119  0.8652  0.6549  0.5553
 1659SOL    HW3 6409   1.877   4.478  -0.029 -0.0505  0.6216  0.3773
 1659SOL    MW4 6410   1.823   4.479   0.039 -0.5925  0.0722 -0.0853
 1660SOL     OW 6411   5.867   5.331   4.794  0.7130  0.1418 -0.2767
 1660SOL    HW2 6412   5.775   5.323   4.821  0.8467 -0.8848 -0.0809
 1660SOL    HW3 6413   5.878   5.424   4.777  0.1608  0.6160  1.6163
 1660SOL    MW4 6414   5.856   5.342   4.796  0.0646  0.0545 -0.6499
 1661SOL     OW 6415   5.612   2.655   2.329  0.3100  0.5079  0.3416
 1661SOL    HW2 6416   5.603   2.602   2.408 -0.2575  0.1988  0.0822
 1661SOL    HW3 6417   5.559   2.733   2.345  1.6194  1.2908  0.9550
 1661SOL    MW4 6418   5.603   2.658   2.341  0.1558  0.0465  0.1106
 1662SOL     OW 6419   0.790   1.538   1.371 -0.3497  0.3064  0.3195
 1662SOL    HW2 6420   0.728   1.560   1.442  2.0549 -0.8554  2.9691
 1662SOL    HW3 6421   0.817   1.448   1.390  0.2230 -0.1429 -2.3059
 1662SOL    MW4 6422   0.785   1.529   1.383  0.3343  0.4352  0.2784
 1663SOL     OW 6423   2.830   3.553   4.660  0.0961  0.0283 -0.0555
 1663SOL    HW2 6424   2.761   3.491   4.683  1.1567 -1.9170 -1.8475
 1663SOL    HW3 6425   2.793   3.639   4.681 -2.4154 -1.0178  0.0782
 1663SOL    MW4 6426   2.816   3.556   4.666 -0.3179  0.0807 -0.1559
 1664SOL     OW 6427   2.194   5.549   0.651 -0.3880 -0.5836 -0.3362
 1664SOL    HW2 6428   2.237   5.620   0.605  1.3310 -0.5311  1.2274
 1664SOL    HW3 6429   2.202   5.571   0.744  1.0036 -3.1743  0.2723
 1664SOL    MW4 6430   2.200   5.561   0.657 -0.7370 -0.5150  0.1757
 1665SOL     OW 6431   2.301   1.606   6.162 -0.0351 -0.6113  0.1275
 1665SOL    HW2 6432   2.375   1.546   6.159  0.0558 -0.7987  3.0698
 1665SOL    HW3 6433   2.248   1.584   6.085  1.9901 -1.7198 -1.0228
 1665SOL    MW4 6434   2.304   1.595   6.152  0.1369 -0.4724  0.2941
 1666SOL     OW 6435   5.965   5.418   0.469 -0.2680 -0.0838 -0.2231
 1666SOL    HW2 6436   5.892   5.400   0.409  0.0611  0.0098 -0.6514
 1666SOL    HW3 6437   6.018   5.338   0.467  0.7091  0.5524 -1.4421
 1666SOL    MW4 6438   5.962   5.405   0.461 -0.1712  0.7398  0.0212
 1667SOL     OW 6439   2.648   0.752   3.768 -0.0733  0.1171  0.1313
 1667SOL    HW2 6440   2.659   0.727   3.676  0.6130 -1.8666  0.7058
 1667SOL    HW3 6441   2.598   0.833   3.764  0.2391  0.2790 -2.0052
 1667SOL    MW4 6442   2.643   0.759   3.755 -0.1959  0.8335 -0.1524
 1668SOL     OW 6443   0.290   0.147   3.251  0.1074 -0.3890  0.0876
 1668SOL    HW2 6444   0.295   0.123   3.344  0.9470  1.6016  0.6048
 1668SOL    HW3 6445   0.214   0.204   3.245  0.8309  0.5638 -0.1656
 1668SOL    MW4 6446   0.281   0.151   3.263  0.1863 -0.0726  0.0649
 1669SOL     OW 6447   0.051   0.613   1.157  0.3460 -0.2112  0.0258
 1669SOL    HW2 6448   0.068   0.707   1.166  1.8223 -0.4364 -0.0531
 1669SOL    HW3 6449   0.084   0.592   1.069 -1.2424 -0.5601 -0.5114
 1669SOL    MW4 6450   0.058   0.623   1.146  0.6932 -0.1833 -0.3620
 1670SOL     OW 6451   1.046   4.335   1.756  0.2566 -0.1611  0.0465
 1670SOL    HW2 6452   1.071   4.263   1.813  1.6758  0.4910  0.3017
 1670SOL    HW3 6453   1.033   4.409   1.815 -1.9540 -0.3343 -0.1230
 1670SOL    MW4 6454   1.048   4.335   1.771 -0.2089  0.1464 -0.6730
 1671SOL     OW 6455   4.641   5.914   2.800 -0.0955 -0.4588  0.3448
 1671SOL    HW2 6456   4.657   5.887   2.709  0.0177  0.3477  0.1196
 1671SOL    HW3 6457   4.663   5.836   2.852  1.7603 -0.3362 -0.1801
 1671SOL    MW4 6458   4.646   5.900   2.795 -0.0452  0.3066  0.0556
 1672SOL     OW 6459   5.383   2.032   1.681 -0.4723 -0.6641 -0.4611
 1672SOL    HW2 6460   5.343   2.097   1.739  2.5237  0.5419  0.4659
 1672SOL    HW3 6461   5.475   2.028   1.710  0.5665 -1.8500 -3.5196
 1672SOL    MW4 6462   5.390   2.040   1.693 -0.1230  0.1512  0.0174
 1673SOL     OW 6463   4.933   4.185   3.884  0.7254 -0.0111  0.0530
 1673SOL    HW2 6464   4.839   4.181   3.903  0.2901  0.4286 -1.8817
 1673SOL    HW3 6465   4.971   4.116   3.940 -0.4360  1.0821  2.3597
 1673SOL    MW4 6466   4.926   4.175   3.894  0.2943  0.2961 -0.2781
 1674SOL     OW 6467   2.015   1.545   0.817  0.4269 -0.3097 -0.2875
 1674SOL    HW2 6468   2.093   1.511   0.773  0.4034 -2.1229  0.9397
 1674SOL    HW3 6469   1.981   1.470   0.867  0.2888  1.5042  2.5488
 1674SOL    MW4 6470   2.021   1.530   0.818  0.1737  0.1084  0.0444
 1675SOL     OW 6471   2.246   5.904   0.936 -0.0521  0.6650  0.4858
 1675SOL    HW2 6472   2.225   5.836   0.999 -1.2357 -0.2264 -0.7991
 1675SOL    HW3 6473   2.332   5.879   0.902 -0.5788 -0.3542 -0.1448
 1675SOL    MW4 6474   2.255   5.891   0.940 -0.1962  0.5009  0.2555
 1676SOL     OW 6475   5.665   2.299   4.838  0.1264 -0.3138  0.5990
 1676SOL    HW2 6476   5.571   2.292   4.827  0.2940 -0.5023 -0.8857
 1676SOL    HW3 6477   5.682   2.393   4.844 -0.0358 -0.2160 -0.3922
 1676SOL    MW4 6478   5.655   2.311   4.837  0.3814  0.0176  0.3239
 1677SOL     OW 6479   4.405   3.413   2.215  0.9479 -0.5101  0.3267
 1677SOL    HW2 6480   4.314   3.388   2.205  0.8984  0.1099 -0.9913
 1677SOL    HW3 6481   4.403   3.491   2.271  0.7674 -1.0181  1.0444
 1677SOL    MW4 6482   4.393   3.420   2.221  0.5520 -0.6600  0.3119
 1678SOL     OW 6483   2.998   1.632   5.643  0.2227  0.6784 -0.2308
 1678SOL    HW2 6484   3.092   1.616   5.651  0.5144  1.3052 -2.0185
 1678SOL    HW3 6485   2.962   1.546   5.619  0.2705  0.3809  0.6932
 1678SOL    MW4 6486   3.006   1.618   5.641 -0.0684 -0.7561 -0.0687
 1679SOL     OW 6487   0.197   1.264   4.972 -0.5560  0.0468 -0.4098
 1679SOL    HW2 6488   0.245   1.347   4.968  0.6008 -0.5265  0.7490
 1679SOL    HW3 6489   0.243   1.208   4.909  0.0951 -0.3833  0.4232
 1679SOL    MW4 6490   0.210   1.268   4.963  0.5047  0.8660  0.0903
 1680SOL     OW 6491   2.681   5.911   0.075  0.0770 -0.4544 -0.0070
 1680SOL    HW2 6492   2.619   5.922   0.146 -0.2326  0.9619 -0.4697
 1680SOL    HW3 6493   2.766   5.897   0.118 -0.3731 -1.3970  0.6133
 1680SOL    MW4 6494   2.684   5.910   0.090  0.0938  0.1244 -0.4671
 1681SOL     OW 6495   3.530   0.230   2.188  0.2820 -0.1180 -0.7831
 1681SOL    HW2 6496   3.456   0.277   2.150 -0.5726 -0.3713  0.5278
 1681SOL    HW3 6497   3.606   0.281   2.162 -0.6695  2.6179  1.4045
 1681SOL    MW4 6498   3.530   0.243   2.179  1.0314  0.2337 -0.3147
 1682SOL     OW 6499   6.025   2.195   4.230  0.1796  0.2784 -0.2377
 1682SOL    HW2 6500   6.026   2.260   4.300  2.3438  0.2453 -0.1870
 1682SOL    HW3 6501   5.932   2.177   4.216 -0.3965 -1.1781  3.9775
 1682SOL    MW4 6502   6.013   2.201   4.238 -0.1442 -0.0502 -0.1505
 1683SOL     OW 6503   5.566   4.023   3.133 -0.0376  0.1990 -0.0693
 1683SOL    HW2 6504   5.592   4.055   3.047 -2.4756 -1.3446 -1.4993
 1683SOL    HW3 6505   5.587   3.930   3.132 -1.1236 -0.0694  0.5641
 1683SOL    MW4 6506   5.572   4.015   3.122 -0.4728 -0.7516 -0.3880
 1684SOL     OW 6507   0.803   0.068   3.185  0.2321 -0.3070  0.8300
 1684SOL    HW2 6508   0.813  -0.022   3.217  0.7946 -0.4914  0.1433
 1684SOL    HW3 6509   0.718   0.068   3.140  0.2638 -0.5089  0.7709
 1684SOL    MW4 6510   0.793   0.056   3.184 -0.2559 -0.9319 -0.2836
 1685SOL     OW 6511   0.927   4.336   2.503 -0.5509  0.4891 -0.3288
 1685SOL    HW2 6512   0.894   4.406   2.446  0.3314  0.6963 -0.5948
 1685SOL    HW3 6513   0.853   4.276   2.512 -1.2905  1.3972 -0.1909
 1685SOL    MW4 6514   0.913   4.338   2.497  0.2888 -0.0134  0.5372
 1686SOL     OW 6515   2.062   1.244   1.461  0.0783  0.3387  0.1166
 1686SOL    HW2 6516   2.037   1.336   1.470  0.4078  0.3759  0.6864
 1686SOL    HW3 6517   2.113   1.241   1.380 -0.1591  0.6063 -0.0454
 1686SOL    MW4 6518   2.065   1.256   1.452 -0.4193  0.1594 -0.3300
 1687SOL     OW 6519   1.656   2.922   4.443  0.3328 -0.1119 -0.6540
 1687SOL    HW2 6520   1.702   2.987   4.497  0.5500 -2.1073  1.6744
 1687SOL    HW3 6521   1.727   2.872   4.402  0.1681 -0.3827 -0.6019
 1687SOL    MW4 6522   1.672   2.924   4.445 -0.3199  0.4636  0.3150
 1688SOL     OW 6523   4.644   1.786   0.130 -0.1018  0.1152  0.4075
 1688SOL    HW2 6524   4.608   1.855   0.186  0.3381  0.1871  0.6038
 1688SOL    HW3 6525   4.736   1.781   0.155 -0.1415 -0.5771  0.4283
 1688SOL    MW4 6526   4.652   1.795   0.141 -0.0961  0.6436 -0.1441
 1689SOL     OW 6527   2.038   1.827   2.705 -0.0680  0.1177  0.0625
 1689SOL    HW2 6528   2.050   1.740   2.667 -0.5354  0.2579 -0.4075
 1689SOL    HW3 6529   2.029   1.886   2.630  0.5931  0.6302  0.3688
 1689SOL    MW4 6530   2.039   1.824   2.690 -0.6629 -0.1448  0.0364
 1690SOL     OW 6531   5.705   1.685   5.388 -0.6042  0.3473  0.0795
 1690SOL    HW2 6532   5.750   1.666   5.470  0.7666  1.4944 -0.3701
 1690SOL    HW3 6533   5.769   1.664   5.320 -1.5261 -0.0584 -0.6864
 1690SOL    MW4 6534   5.720   1.680   5.390  0.1419 -0.3925  0.2996
 1691SOL     OW 6535   0.605   3.142   2.992  0.2664 -0.0014 -0.3203
 1691SOL    HW2 6536   0.517   3.168   2.963  1.2270  1.4563 -2.0992
 1691SOL    HW3 6537   0.594   3.051   3.021 -2.6485  1.2969  3.4724
 1691SOL    MW4 6538   0.592   3.133   2.992  0.3089  0.4373  0.6076
 1692SOL     OW 6539   1.083   5.805   2.838 -0.8383  0.7263 -0.1229
 1692SOL    HW2 6540   0.992   5.793   2.812 -1.2322 -0.4259  1.6529
 1692SOL    HW3 6541   1.116   5.716   2.853  0.0207  1.2199  1.0578
 1692SOL    MW4 6542   1.076   5.792   2.837 -0.0071 -0.1864  0.6764
 1693SOL     OW 6543   1.983   2.400   3.155  0.0662 -0.1225 -0.0676
 1693SOL    HW2 6544   2.069   2.371   3.125 -0.4962 -0.8348 -1.0154
 1693SOL    HW3 6545   2.001   2.481   3.204  1.3457 -0.6612  0.3824
 1693SOL    MW4 6546   1.997   2.407   3.157  0.3727  0.0395  0.2210
 1694SOL     OW 6547   4.550   3.015   1.220 -0.0370  0.1451 -0.3124
 1694SOL    HW2 6548   4.520   3.102   1.194  1.8524  1.2281  0.9298
 1694SOL    HW3 6549   4.519   2.957   1.150  0.5449  2.1362 -2.3071
 1694SOL    MW4 6550   4.542   3.019   1.207 -0.5953 -0.4206  0.1889
 1695SOL     OW 6551   6.086   0.271   2.616  0.4047 -0.0471 -0.2329
 1695SOL    HW2 6552   6.135   0.265   2.534 -0.6518 -1.2610 -0.8050
 1695SOL    HW3 6553   6.089   0.182   2.652 -2.9251 -0.6635 -1.2185
 1695SOL    MW4 6554   6.093   0.258   2.610 -0.0340 -0.5395 -0.3042
 1696SOL     OW 6555   6.093   5.062   0.117 -0.5321  0.3949  0.0133
 1696SOL    HW2 6556   6.090   5.158   0.123  0.7253  0.3525  2.5917
 1696SOL    HW3 6557   6.039   5.032   0.190  1.0711 -0.7937  0.7762
 1696SOL    MW4 6558   6.085   5.071   0.128 -0.5416  0.9654 -0.0835
 1697SOL     OW 6559   4.149   4.383   4.241 -0.7309 -0.4372 -0.0830
 1697SOL    HW2 6560   4.214   4.328   4.283 -0.4431  0.0935  0.1785
 1697SOL    HW3 6561   4.155   4.467   4.287 -0.9879 -0.1120 -0.6339
 1697SOL    MW4 6562   4.159   4.387   4.252 -0.2817 -0.1187 -0.2089
 1698SOL     OW 6563   2.647   6.268   0.305  0.3465  0.0314 -0.2943
 1698SOL    HW2 6564   2.730   6.224   0.289  0.1706  0.1473 -1.6238
 1698SOL    HW3 6565   2.607   6.278   0.219 -1.5120 -0.9155  0.3874
 1698SOL    MW4 6566   2.653   6.264   0.292 -0.1738  0.0061 -0.0243
 1699SOL     OW 6567   1.465   3.011   2.018  0.4098  0.1135 -0.0480
 1699SOL    HW2 6568   1.427   2.947   2.078 -0.0417  0.2842 -0.1521
 1699SOL    HW3 6569   1.503   3.077   2.075  1.1092 -0.3716  0.0660
 1699SOL    MW4 6570   1.465   3.011   2.033 -0.0371  0.5013  0.4993
 1700SOL     OW 6571   2.484   6.239   2.451  0.0844 -0.2567 -0.2171
 1700SOL    HW2 6572   2.547   6.250   2.381  0.1077  1.1094  0.0018
 1700SOL    HW3 6573   2.416   6.304   2.433  0.4538  0.6317  1.4003
 1700SOL    MW4 6574   2.483   6.249   2.439 -0.3178  0.4056  0.1394
 1701SOL     OW 6575   0.966   4.509   0.884  0.1749 -0.2154  0.2223
 1701SOL    HW2 6576   0.975   4.549   0.798  1.6661  0.1302  0.5016
 1701SOL    HW3 6577   1.006   4.423   0.876 -1.3426 -0.9323  0.1111
 1701SOL    MW4 6578   0.973   4.503   0.872 -0.2635 -0.2238 -0.1153
 1702SOL     OW 6579   6.152   6.140   3.807  0.2079 -0.0865 -0.4596
 1702SOL    HW2 6580   6.173   6.233   3.800 -0.8711  0.1284 -1.0337
 1702SOL    HW3 6581   6.084   6.126   3.741 -2.4229 -0.4701  2.1300
 1702SOL    MW4 6582   6.146   6.150   3.797 -0.3617 -0.2002 -0.5222
 1703SOL     OW 6583   1.924   3.352   3.224  0.3028 -0.6731 -0.2495
 1703SOL    HW2 6584   1.881   3.361   3.309 -1.5262 -0.6031 -1.1318
 1703SOL    HW3 6585   2.005   3.402   3.233  0.4467 -1.1575  1.6205
 1703SOL    MW4 6586   1.929   3.360   3.236  0.6550  0.0751 -0.3990
 1704SOL     OW 6587   3.228   6.160   3.763  0.3447  0.3240 -0.1472
 1704SOL    HW2 6588   3.259   6.074   3.789 -0.8659  0.1217  0.6558
 1704SOL    HW3 6589   3.139   6.146   3.731 -0.1614  1.3848  0.7451
 1704SOL    MW4 6590   3.220   6.147   3.762 -0.5008  0.1360  0.3360
 1705SOL     OW 6591   4.109   0.609   4.014 -0.2058 -0.1561 -0.2719
 1705SOL    HW2 6592   4.055   0.687   4.018 -0.7406 -0.5695  1.8041
 1705SOL    HW3 6593   4.180   0.631   3.953  0.0164  2.1566  0.7489
 1705SOL    MW4 6594   4.111   0.622   4.006 -0.4142  0.1280 -0.2252
 1706SOL     OW 6595   0.654   2.718   2.883  0.0679 -0.1802 -0.3937
 1706SOL    HW2 6596   0.588   2.669   2.833  0.7373 -2.3828  0.7406
 1706SOL    HW3 6597   0.609   2.743   2.964 -0.4090  1.6055 -1.1555
 1706SOL    MW4 6598   0.639   2.714   2.887 -0.2988  0.6196 -0.1071
 1707SOL     OW 6599   4.129   0.763   1.478  0.6229  0.3986 -0.0688
 1707SOL    HW2 6600   4.152   0.852   1.453  1.1092 -0.4126 -2.9626
 1707SOL    HW3 6601   4.210   0.727   1.515  0.4799  1.0799  0.9168
 1707SOL    MW4 6602   4.143   0.770   1.480  0.1258 -0.4453 -0.1614
 1708SOL     OW 6603   3.631   4.375   1.080  0.6531  0.1890 -0.0335
 1708SOL    HW2 6604   3.622   4.406   0.990  0.9139 -0.6165 -0.3452
 1708SOL    HW3 6605   3.644   4.281   1.072 -1.3218 -0.2236  0.9227
 1708SOL    MW4 6606   3.631   4.367   1.067  0.6970 -0.3352 -0.1558
 1709SOL     OW 6607   3.328   0.480   0.943 -0.0430 -0.5448  0.0308
 1709SOL    HW2 6608   3.271   0.544   0.900 -0.3611 -1.3665 -0.8014
 1709SOL    HW3 6609   3.417   0.507   0.920 -0.1698 -0.3222 -0.2024
 1709SOL    MW4 6610   3.332   0.492   0.934  0.2055  0.6501 -0.9132
 1710SOL     OW 6611   2.544   4.096   0.566  0.1231 -0.7450  0.0049
 1710SOL    HW2 6612   2.604   4.031   0.603  1.4424 -0.1741 -1.0278
 1710SOL    HW3 6613   2.598   4.145   0.504 -1.1286  0.5923 -0.0774
 1710SOL    MW4 6614   2.559   4.094   0.563 -0.4452  0.5739  0.3745
 1711SOL     OW 6615   2.079   3.546   2.702 -0.3171  0.2374  0.4390
 1711SOL    HW2 6616   2.125   3.608   2.645  0.7611  0.5577  1.6278
 1711SOL    HW3 6617   2.148   3.495   2.744 -1.1833 -2.3086 -1.0048
 1711SOL    MW4 6618   2.094   3.548   2.700 -0.0099 -0.0270  0.3257
 1712SOL     OW 6619   4.299   1.900   3.236 -0.5545 -0.0362  0.0249
 1712SOL    HW2 6620   4.272   1.821   3.284 -1.6658  0.2892 -0.0242
 1712SOL    HW3 6621   4.276   1.881   3.145  0.1892 -0.0752 -0.1605
 1712SOL    MW4 6622   4.292   1.887   3.230  0.0743 -0.1136 -0.2597
 1713SOL     OW 6623   5.049   1.204   3.240  0.7537  0.4516 -0.1256
 1713SOL    HW2 6624   5.127   1.234   3.286  0.2767  2.4020 -0.4960
 1713SOL    HW3 6625   5.013   1.283   3.199  0.1574 -0.8734 -2.3580
 1713SOL    MW4 6626   5.055   1.219   3.241  0.0469 -0.1555  0.1975
 1714SOL     OW 6627   0.946   5.630   2.237 -0.1414 -0.7168  0.2297
 1714SOL    HW2 6628   0.862   5.600   2.272  0.4868 -0.7007  1.8595
 1714SOL    HW3 6629   0.981   5.554   2.190 -1.0775 -0.6987 -0.5264
 1714SOL    MW4 6630   0.940   5.616   2.235  0.0729  0.7985  0.1947
 1715SOL     OW 6631   3.913   3.991   4.146 -0.0271  0.0065  0.4291
 1715SOL    HW2 6632   3.897   4.078   4.182  1.2748  0.0968  0.8565
 1715SOL    HW3 6633   3.826   3.953   4.136 -0.6006  1.2552  0.4743
 1715SOL    MW4 6634   3.899   3.997   4.150 -0.0574  0.3699 -0.9440
 1716SOL     OW 6635   6.327   0.373   2.710 -0.1057 -0.2072 -0.1477
 1716SOL    HW2 6636   6.323   0.404   2.801  0.2903  0.0807 -0.2279
 1716SOL    HW3 6637   6.241   0.332   2.696  0.0534 -0.8167  0.5572
 1716SOL    MW4 6638   6.315   0.371   2.720 -0.2381 -0.5795  0.6325
 1717SOL     OW 6639   3.011   3.025   1.318 -0.2116 -0.5999 -0.0793
 1717SOL    HW2 6640   3.052   3.084   1.255  0.3072  0.6059  1.3055
 1717SOL    HW3 6641   2.992   2.946   1.269 -0.3614  0.5008 -1.8658
 1717SOL    MW4 6642   3.014   3.022   1.303  0.4155  0.4115 -0.0230
 1718SOL     OW 6643   2.712   1.283   3.945  0.2114 -0.0870  0.4603
 1718SOL    HW2 6644   2.653   1.282   3.869  0.0927  0.6702  0.5367
 1718SOL    HW3 6645   2.654   1.295   4.020  0.2613 -1.4978  0.7527
 1718SOL    MW4 6646   2.696   1.284   3.945 -0.1113 -0.1130  0.7527
 1719SOL     OW 6647   3.181   2.376   0.221  0.1542  0.6147  0.2687
 1719SOL    HW2 6648   3.271   2.366   0.252  0.3271  0.1501 -0.3658
 1719SOL    HW3 6649   3.130   2.316   0.275  0.2548  0.7109  0.4736
 1719SOL    MW4 6650   3.186   2.367   0.232  0.2248  0.3291  0.3759
 1720SOL     OW 6651   2.475   5.316   5.393  0.2949  0.3572  0.3836
 1720SOL    HW2 6652   2.544   5.327   5.459 -0.1890 -0.1861  0.9996
 1720SOL    HW3 6653   2.394   5.316   5.444 -0.2624  2.0489 -0.4394
 1720SOL    MW4 6654   2.473   5.317   5.409  0.4848  0.6344  0.8167
 1721SOL     OW 6655   3.861   5.789   2.938  0.6209 -0.3004  0.3550
 1721SOL    HW2 6656   3.802   5.848   2.890  0.9630  1.0971  1.5670
 1721SOL    HW3 6657   3.813   5.768   3.018  0.9491 -0.8180  0.4185
 1721SOL    MW4 6658   3.847   5.794   2.942 -0.7332  0.3371  0.1467
 1722SOL     OW 6659   2.360   4.563   5.942 -0.0830  0.4481  0.0106
 1722SOL    HW2 6660   2.278   4.603   5.915 -0.0337  0.1832 -0.5555
 1722SOL    HW3 6661   2.423   4.590   5.875  0.1050 -0.0025  0.0014
 1722SOL    MW4 6662   2.358   4.571   5.929  0.1261  0.1768 -0.7962
 1723SOL     OW 6663   1.395   4.971   3.730 -0.0378  0.2167 -0.0092
 1723SOL    HW2 6664   1.359   5.045   3.682  1.9330  0.0518 -1.9549
 1723SOL    HW3 6665   1.333   4.900   3.715 -0.3835  0.6736 -0.8147
 1723SOL    MW4 6666   1.382   4.971   3.722  0.5214 -0.2579  0.1174
 1724SOL     OW 6667   0.016   4.002   1.582  0.0905  0.4158 -0.6657
 1724SOL    HW2 6668  -0.057   4.062   1.593  0.8835  1.2406  0.2792
 1724SOL    HW3 6669   0.070   4.014   1.661  0.9579 -0.5703 -1.0755
 1724SOL    MW4 6670   0.014   4.011   1.594  0.7730 -0.0516  0.1284
 1725SOL     OW 6671   2.603   3.540   3.469  0.0636 -0.3240 -0.0965
 1725SOL    HW2 6672   2.610   3.498   3.383  0.8942  1.3084 -0.8728
 1725SOL    HW3 6673   2.643   3.626   3.457 -3.4891  1.6848  0.7747
 1725SOL    MW4 6674   2.609   3.546   3.456 -0.5396 -0.1844 -0.1015
 1726SOL     OW 6675   0.324   2.328   4.656 -0.1314 -0.7319  0.3109
 1726SOL    HW2 6676   0.342   2.388   4.728  0.2620  0.8951 -1.0715
 1726SOL    HW3 6677   0.409   2.294   4.631 -0.1762 -0.7063  0.1241
 1726SOL    MW4 6678   0.337   2.331   4.662 -0.2743  0.4983 -0.7915
 1727SOL     OW 6679   2.336   6.143   3.511 -0.2886  0.5825 -0.3069
 1727SOL    HW2 6680   2.269   6.210   3.498  0.2000  1.0094 -0.6908
 1727SOL    HW3 6681   2.405   6.187   3.561  0.5001  0.6990 -1.4424
 1727SOL    MW4 6682   2.336   6.157   3.516 -0.0882 -0.1018 -0.2720
 1728SOL     OW 6683   0.895   2.660   4.288 -0.0053 -0.1868  0.1942
 1728SOL    HW2 6684   0.821   2.711   4.320 -0.1328  0.1233 -0.5928
 1728SOL    HW3 6685   0.866   2.569   4.296 -0.2295 -0.0950  0.4654
 1728SOL    MW4 6686   0.882   2.654   4.294  0.6133 -0.2594 -0.4810
 1729SOL     OW 6687   4.893   5.595   2.520 -0.2102  0.0909 -0.7439
 1729SOL    HW2 6688   4.909   5.531   2.589  0.3971  0.6473 -0.3600
 1729SOL    HW3 6689   4.980   5.625   2.494 -0.3238 -1.0697 -2.6883
 1729SOL    MW4 6690   4.906   5.590   2.526  0.0813 -0.0994  0.2771
 1730SOL     OW 6691   1.446   6.021   4.067  0.3167  0.4971 -0.8970
 1730SOL    HW2 6692   1.453   5.926   4.073 -0.5769  0.3737 -1.5649
 1730SOL    HW3 6693   1.518   6.047   4.010  1.9489  0.4922  1.0359
 1730SOL    MW4 6694   1.456   6.012   4.060  0.5076 -0.2762  0.2830
 1731SOL     OW 6695   3.419   5.471   1.645  0.3435  0.0361 -0.4908
 1731SOL    HW2 6696   3.328   5.447   1.628  0.8818 -2.4231 -0.2752
 1731SOL    HW3 6697   3.424   5.477   1.741  0.5108 -0.3167 -0.4764
 1731SOL    MW4 6698   3.408   5.469   1.656 -0.6291 -0.6417  0.2887
 1732SOL     OW 6699   6.241   4.860   6.428 -0.1632 -0.1462  0.6403
 1732SOL    HW2 6700   6.190   4.938   6.450  0.1915 -0.0007  0.9523
 1732SOL    HW3 6701   6.175   4.793   6.409 -0.6026  1.0853 -3.0655
 1732SOL    MW4 6702   6.225   4.861   6.428  0.5190 -0.2667  0.1536
 1733SOL     OW 6703   1.119   1.248   2.603 -0.1474  0.5094  0.2532
 1733SOL    HW2 6704   1.071   1.168   2.625 -2.1344  1.6476  0.3080
 1733SOL    HW3 6705   1.209   1.230   2.628 -0.5185 -1.7345  0.1691
 1733SOL    MW4 6706   1.124   1.235   2.609  0.0276  0.2464  0.2282
 1734SOL     OW 6707   3.184   6.316   4.007  0.1731  0.4921 -0.2160
 1734SOL    HW2 6708   3.195   6.259   3.931 -1.1522  2.5789 -2.0610
 1734SOL    HW3 6709   3.093   6.305   4.033  0.0811  1.3091 -0.1881
 1734SOL    MW4 6710   3.174   6.307   4.001  0.4878  1.0716 -0.0608
 1735SOL     OW 6711   2.939   1.005   6.187 -0.2172 -0.0717 -0.5879
 1735SOL    HW2 6712   3.023   0.985   6.146 -0.8876  0.7413 -2.4930
 1735SOL    HW3 6713   2.882   1.029   6.114 -1.8143  0.4223  0.7522
 1735SOL    MW4 6714   2.943   1.006   6.172  0.2080  0.7840  0.5180
 1736SOL     OW 6715   1.232   6.348   3.690  0.0389  0.1128 -0.1539
 1736SOL    HW2 6716   1.266   6.433   3.661  1.8192 -1.0458 -1.6834
 1736SOL    HW3 6717   1.265   6.337   3.779 -2.0225  1.8870  0.9585
 1736SOL    MW4 6718   1.241   6.358   3.698  0.2628 -0.7350 -0.8520
 1737SOL     OW 6719   3.923   4.549   3.735  0.0377 -0.0185  0.5041
 1737SOL    HW2 6720   4.006   4.506   3.716 -0.2724 -0.8160  0.8975
 1737SOL    HW3 6721   3.915   4.545   3.830 -0.4434  0.0682  0.4716
 1737SOL    MW4 6722   3.932   4.543   3.745 -0.4587 -0.3618 -0.0903
 1738SOL     OW 6723   1.802   4.798   3.769  0.0257 -0.6717  0.2881
 1738SOL    HW2 6724   1.821   4.891   3.768 -1.5002 -0.3314 -0.1870
 1738SOL    HW3 6725   1.815   4.769   3.679  0.9054 -1.0284  0.5162
 1738SOL    MW4 6726   1.806   4.806   3.757  0.4208  0.2694  0.1705
 1739SOL     OW 6727   1.254   1.333   2.054  0.7588  0.1741 -0.0919
 1739SOL    HW2 6728   1.231   1.285   2.134 -2.5397 -1.8032 -2.0321
 1739SOL    HW3 6729   1.278   1.265   1.991  3.3319  1.6869 -0.8969
 1739SOL    MW4 6730   1.254   1.318   2.056  0.0109 -0.2761  1.0141
 1740SOL     OW 6731   5.438   3.293   3.061 -0.7670  0.0985 -0.3905
 1740SOL    HW2 6732   5.492   3.371   3.045 -0.9869  0.4457  0.4916
 1740SOL    HW3 6733   5.477   3.225   3.006 -0.5820  0.8360 -1.1962
 1740SOL    MW4 6734   5.450   3.295   3.052  0.2673  0.4559 -0.0292
 1741SOL     OW 6735   4.464   3.737   4.188  0.4275 -0.3934 -0.2355
 1741SOL    HW2 6736   4.455   3.790   4.267  1.4564 -0.3987 -0.1031
 1741SOL    HW3 6737   4.557   3.714   4.184 -0.0233 -2.5321 -0.0703
 1741SOL    MW4 6738   4.475   3.741   4.198  0.3456 -0.4142  0.2543
 1742SOL     OW 6739   4.105   0.610   4.882 -0.1525  0.3216 -0.1412
 1742SOL    HW2 6740   4.092   0.626   4.975 -1.0653  0.1663 -0.2326
 1742SOL    HW3 6741   4.151   0.688   4.850 -0.7414  0.8369  0.2480
 1742SOL    MW4 6742   4.109   0.622   4.890  0.0816 -0.2785 -0.0946
 1743SOL     OW 6743   4.541   6.111   2.123 -0.6377  0.3323  0.3049
 1743SOL    HW2 6744   4.621   6.137   2.078 -0.0485 -1.4060  0.2494
 1743SOL    HW3 6745   4.470   6.144   2.067  0.0696 -0.5349 -1.1914
 1743SOL    MW4 6746   4.542   6.119   2.109 -0.0907 -0.0245  0.2948
 1744SOL     OW 6747   1.439   3.876   4.859  0.0165 -0.2512  0.8987
 1744SOL    HW2 6748   1.494   3.953   4.844  0.5640 -0.6213  0.9848
 1744SOL    HW3 6749   1.405   3.888   4.948 -2.3452  1.3947 -0.1420
 1744SOL    MW4 6750   1.442   3.888   4.869 -0.0159  0.5165  0.0487
 1745SOL     OW 6751   0.150   5.382   5.997  0.3574  0.3585  0.5529
 1745SOL    HW2 6752   0.234   5.426   6.014  0.1279  0.6552  0.9478
 1745SOL    HW3 6753   0.146   5.376   5.901  1.1278 -0.2577  0.5457
 1745SOL    MW4 6754   0.161   5.387   5.987  0.3537 -0.1197 -0.4907
 1746SOL     OW 6755   4.727   0.807   6.231 -0.6230  0.0174 -0.1605
 1746SOL    HW2 6756   4.650   0.756   6.208  0.5395 -2.2746  0.7200
 1746SOL    HW3 6757   4.786   0.796   6.156  0.0845 -0.9582  0.5102
 1746SOL    MW4 6758   4.725   0.799   6.218 -0.6757  0.3447  0.0732
 1747SOL     OW 6759   1.845   5.526   6.210  0.5103 -0.4836 -0.2707
 1747SOL    HW2 6760   1.856   5.438   6.245  1.6012 -0.5343 -0.6943
 1747SOL    HW3 6761   1.765   5.522   6.158 -1.5550 -0.2605  2.6012
 1747SOL    MW4 6762   1.836   5.514   6.208  0.5356  0.0723 -0.1377
 1748SOL     OW 6763   2.056   2.458   2.383 -0.4907 -0.2181 -0.4877
 1748SOL    HW2 6764   2.058   2.377   2.332 -0.5163  0.2052 -1.1634
 1748SOL    HW3 6765   1.987   2.511   2.343  0.2086  0.5573 -0.7043
 1748SOL    MW4 6766   2.047   2.454   2.371 -0.2933 -0.7528  0.1052
 1749SOL     OW 6767   6.225   3.314   0.944 -0.5968 -0.4023 -0.0535
 1749SOL    HW2 6768   6.306   3.268   0.962 -0.1027  0.6820  0.5718
 1749SOL    HW3 6769   6.180   3.317   1.029  0.2520  1.8834  0.3805
 1749SOL    MW4 6770   6.229   3.308   0.958  0.0978 -1.0377  0.1597
 1750SOL     OW 6771   2.367   6.157   5.395 -0.1000 -0.1205  0.2967
 1750SOL    HW2 6772   2.334   6.077   5.353 -0.2376  0.1928 -0.1995
 1750SOL    HW3 6773   2.327   6.157   5.482 -0.5511 -0.2983  0.0904
 1750SOL    MW4 6774   2.357   6.146   5.401  0.6169 -0.3643 -0.1456
 1751SOL     OW 6775   1.793   4.088   2.997  0.4441 -0.3116  0.1460
 1751SOL    HW2 6776   1.838   4.041   2.926 -0.5700  2.1225 -2.2883
 1751SOL    HW3 6777   1.701   4.085   2.973  0.4116  4.2659 -1.2573
 1751SOL    MW4 6778   1.787   4.081   2.984 -0.8359  0.1004 -0.1920
 1752SOL     OW 6779   1.589   3.634   1.251 -0.3685  0.1613 -0.0685
 1752SOL    HW2 6780   1.540   3.553   1.234 -0.3903  0.2912 -0.6539
 1752SOL    HW3 6781   1.556   3.665   1.335 -0.4672 -0.3621  0.0875
 1752SOL    MW4 6782   1.578   3.628   1.260  0.0017 -0.2228 -0.3631
 1753SOL     OW 6783   0.283   3.284   2.190  0.3068 -0.3796  0.1883
 1753SOL    HW2 6784   0.188   3.277   2.181  0.3256  0.9615 -1.4411
 1753SOL    HW3 6785   0.317   3.215   2.134  0.3046  0.1293 -0.4425
 1753SOL    MW4 6786   0.275   3.274   2.182  0.5950  0.0933 -0.3487
 1754SOL     OW 6787   5.015   4.693   1.643  0.5083  0.1385 -0.2881
 1754SOL    HW2 6788   4.986   4.653   1.561 -2.5966  0.8165  0.3604
 1754SOL    HW3 6789   4.998   4.787   1.632 -2.0025  0.0537  1.7444
 1754SOL    MW4 6790   5.009   4.700   1.631 -0.2487  0.4735  0.4171
 1755SOL     OW 6791   1.547   5.399   5.825 -0.5222 -0.2189 -0.0224
 1755SOL    HW2 6792   1.562   5.466   5.758 -1.0192 -0.1953 -0.1123
 1755SOL    HW3 6793   1.589   5.434   5.903 -2.1751  0.9777  0.3866
 1755SOL    MW4 6794   1.554   5.413   5.826  0.5355  0.3013 -0.0840
 1756SOL     OW 6795   0.192   1.682   0.031 -0.2270  0.2465  0.0335
 1756SOL    HW2 6796   0.283   1.688   0.002  0.3091 -0.3997  1.4615
 1756SOL    HW3 6797   0.183   1.752   0.095 -0.0163 -1.0757  1.5862
 1756SOL    MW4 6798   0.203   1.692   0.036 -0.5377  0.2189  0.2517
 1757SOL     OW 6799   5.623   1.502   4.124 -0.4753 -0.4633 -0.1993
 1757SOL    HW2 6800   5.599   1.593   4.111 -0.5659 -0.1630  1.7681
 1757SOL    HW3 6801   5.540   1.455   4.128 -0.4277 -0.6397 -1.2358
 1757SOL    MW4 6802   5.609   1.507   4.123 -0.1658  0.3994 -0.1264
 1758SOL     OW 6803   4.744   5.310   0.223  0.5076 -0.3046  0.0594
 1758SOL    HW2 6804   4.716   5.301   0.314 -2.1216 -1.0742 -0.7419
 1758SOL    HW3 6805   4.823   5.256   0.217 -1.1410 -3.0512  1.1660
 1758SOL    MW4 6806   4.751   5.302   0.235  0.5842 -0.1108  0.4656
 1759SOL     OW 6807   0.080   3.032   3.444 -0.1157 -0.9859  0.3005
 1759SOL    HW2 6808   0.021   2.991   3.380 -0.7264  0.8879 -0.3936
 1759SOL    HW3 6809   0.167   3.020   3.406 -0.3915 -0.6453 -0.4536
 1759SOL    MW4 6810   0.084   3.025   3.430  0.5975 -0.0559 -0.1490
 1760SOL     OW 6811   4.986   4.483   0.170 -0.4297 -0.8560  0.9475
 1760SOL    HW2 6812   4.970   4.572   0.137  0.0769 -1.0773  0.0645
 1760SOL    HW3 6813   5.039   4.495   0.248  1.2992 -0.4390 -0.2366
 1760SOL    MW4 6814   4.991   4.496   0.176 -0.9967  0.7243  0.9012
 1761SOL     OW 6815   2.424   2.397   0.719  0.1025  0.1740 -0.0894
 1761SOL    HW2 6816   2.420   2.493   0.718  0.2705  0.1870  0.3211
 1761SOL    HW3 6817   2.353   2.371   0.777  0.6956  0.0913  0.6113
 1761SOL    MW4 6818   2.414   2.406   0.726 -0.1277  0.2334 -0.0032
 1762SOL     OW 6819   1.165   3.744   5.904 -0.3952  0.2209 -0.4346
 1762SOL    HW2 6820   1.197   3.715   5.818  1.4422  0.6779  0.0358
 1762SOL    HW3 6821   1.244   3.773   5.950 -1.5069  1.2334  0.9376
 1762SOL    MW4 6822   1.180   3.744   5.899  0.1217  0.2063 -0.0436
 1763SOL     OW 6823   4.753   0.780   5.005 -0.0126  0.9185 -0.2850
 1763SOL    HW2 6824   4.823   0.715   5.009  0.7189  1.7284  1.2659
 1763SOL    HW3 6825   4.701   0.755   4.929 -0.0347 -1.7425  0.5091
 1763SOL    MW4 6826   4.755   0.768   4.996  0.5660  0.4603  0.2138
 1764SOL     OW 6827   5.363   4.664   0.392  0.0383 -0.1157 -0.2711
 1764SOL    HW2 6828   5.271   4.640   0.405 -0.9429  3.1872 -0.2972
 1764SOL    HW3 6829   5.365   4.703   0.304  1.2992  0.5246  0.0256
 1764SOL    MW4 6830   5.351   4.666   0.382  0.3486  0.1956  0.4901
 1765SOL     OW 6831   4.249   0.981   1.861 -0.7210  0.1820 -0.0823
 1765SOL    HW2 6832   4.264   1.076   1.863  1.8641 -0.1707  1.4230
 1765SOL    HW3 6833   4.307   0.949   1.793  0.6554 -0.5758  1.3838
 1765SOL    MW4 6834   4.258   0.990   1.853  0.5040  0.0175  0.2776
 1766SOL     OW 6835   2.460   2.836   2.876 -0.0444  0.0402 -0.2643
 1766SOL    HW2 6836   2.430   2.849   2.786  1.5115 -1.4110 -1.0482
 1766SOL    HW3 6837   2.403   2.767   2.910 -0.8329  0.7989  0.0083
 1766SOL    MW4 6838   2.449   2.829   2.869 -0.6055 -0.2272  0.1196
 1767SOL     OW 6839   4.722   1.409   3.490 -0.4545 -0.3518 -0.1311
 1767SOL    HW2 6840   4.659   1.449   3.430  0.5098  0.2127 -0.7944
 1767SOL    HW3 6841   4.763   1.339   3.440 -0.5615 -0.7308  0.3049
 1767SOL    MW4 6842   4.719   1.405   3.476  0.1252 -0.4256 -0.0075
 1768SOL     OW 6843   2.234   5.950   5.295 -0.0384  0.0983  0.1444
 1768SOL    HW2 6844   2.199   5.915   5.377 -0.4622 -0.4048 -0.2417
 1768SOL    HW3 6845   2.283   5.877   5.256 -0.2141  0.1937 -0.2616
 1768SOL    MW4 6846   2.236   5.935   5.300  0.2975  0.1596 -0.3461
 1769SOL     OW 6847   3.283   1.707   2.573 -0.0565  0.0127  0.1218
 1769SOL    HW2 6848   3.356   1.714   2.511 -1.3811  1.5465 -1.3555
 1769SOL    HW3 6849   3.281   1.792   2.616 -1.2995  0.1804 -0.2477
 1769SOL    MW4 6850   3.292   1.719   2.571 -0.0373 -0.2775  0.1483
 1770SOL     OW 6851   5.022   2.183   5.475 -0.1562  0.4466  0.1864
 1770SOL    HW2 6852   5.092   2.131   5.435 -0.6145 -1.5731  1.8523
 1770SOL    HW3 6853   4.956   2.192   5.406 -0.2982 -1.6842 -0.0116
 1770SOL    MW4 6854   5.023   2.177   5.461  0.2274  0.3106  0.3004
 1771SOL     OW 6855   2.582   0.049   4.657 -0.1356 -0.1345  0.0686
 1771SOL    HW2 6856   2.653   0.078   4.599 -0.9663  1.5574 -0.1737
 1771SOL    HW3 6857   2.566   0.124   4.713 -2.5736  0.0172 -0.7218
 1771SOL    MW4 6858   2.590   0.063   4.657  0.0548  0.1542 -0.3995
 1772SOL     OW 6859   0.098   5.637   5.152 -0.4356 -0.2288 -0.3838
 1772SOL    HW2 6860   0.087   5.568   5.087  1.7528 -0.1991 -0.8571
 1772SOL    HW3 6861   0.192   5.642   5.167 -0.6509  1.6681  0.7236
 1772SOL    MW4 6862   0.109   5.629   5.145 -0.2196  0.1305  0.7485
 1773SOL     OW 6863   1.432   2.292   1.539 -0.1132 -0.0845 -0.6857
 1773SOL    HW2 6864   1.445   2.387   1.541  1.0910 -0.2342 -0.6851
 1773SOL    HW3 6865   1.342   2.281   1.508 -1.0877  1.0834  1.5200
 1773SOL    MW4 6866   1.422   2.304   1.535 -0.1292 -0.1081  0.2129
 1774SOL     OW 6867   6.412   0.600   3.650  0.1474 -0.4109  0.2617
 1774SOL    HW2 6868   6.482   0.634   3.705 -0.1283  0.3570  0.1455
 1774SOL    HW3 6869   6.343   0.575   3.711  0.1089 -0.1933  0.3059
 1774SOL    MW4 6870   6.412   0.601   3.665  0.3420  0.4502 -0.2270
 1775SOL     OW 6871   6.179   5.820   0.736  0.3350 -0.4186 -0.0898
 1775SOL    HW2 6872   6.124   5.893   0.766  0.7760  0.1494 -0.6435
 1775SOL    HW3 6873   6.138   5.743   0.774  0.8789  0.2632  2.0246
 1775SOL    MW4 6874   6.166   5.820   0.745  0.4063 -0.4817  0.4814
 1776SOL     OW 6875   3.023   5.070   3.343  0.0301  0.4757  0.0844
 1776SOL    HW2 6876   2.937   5.077   3.385 -0.1465 -1.6101  0.1808
 1776SOL    HW3 6877   3.085   5.066   3.416 -0.1833 -1.9778  0.2376
 1776SOL    MW4 6878   3.020   5.070   3.358  0.0241  0.1156 -0.0851
 1777SOL     OW 6879   0.158   2.682   5.584  0.4880  0.3721 -0.1002
 1777SOL    HW2 6880   0.110   2.758   5.617 -0.8748 -0.1625 -0.7901
 1777SOL    HW3 6881   0.108   2.653   5.508  0.6953 -1.5090  0.4256
 1777SOL    MW4 6882   0.145   2.688   5.578 -0.4420 -0.2024 -0.8641
 1778SOL     OW 6883   4.230   1.909   2.951 -0.2199 -0.0239 -0.5971
 1778SOL    HW2 6884   4.313   1.891   2.906  0.5188  0.7607  0.4008
 1778SOL    HW3 6885   4.224   2.004   2.953 -0.9908 -0.0707 -0.3652
 1778SOL    MW4 6886   4.240   1.919   2.946 -0.1905 -0.4020  0.7479
 1779SOL     OW 6887   1.293   3.053   2.729 -0.3380 -0.0731  0.5970
 1779SOL    HW2 6888   1.206   3.093   2.736  0.0851  1.3654 -1.5185
 1779SOL    HW3 6889   1.308   3.015   2.816 -1.5802  2.8004  2.2169
 1779SOL    MW4 6890   1.283   3.053   2.742 -1.0021 -0.4725  0.4273
 1780SOL     OW 6891   2.391   1.872   5.384 -0.2502 -0.7849 -0.5860
 1780SOL    HW2 6892   2.408   1.783   5.353  0.2389 -0.3888 -1.4933
 1780SOL    HW3 6893   2.450   1.927   5.332 -2.4706  0.3838 -2.0747
 1780SOL    MW4 6894   2.401   1.867   5.373  0.2487  0.0095 -0.0327
 1781SOL     OW 6895   5.711   1.266   0.215 -0.5242 -0.3595  0.4278
 1781SOL    HW2 6896   5.761   1.185   0.227  1.8644  0.8995 -0.4161
 1781SOL    HW3 6897   5.734   1.320   0.290  1.2438  1.0732 -1.0366
 1781SOL    MW4 6898   5.720   1.262   0.226 -0.1078  0.5652 -0.0373
 1782SOL     OW 6899   2.162   5.239   3.446  0.3902  0.7795  0.5531
 1782SOL    HW2 6900   2.067   5.229   3.448  0.3409  1.1786  0.3813
 1782SOL    HW3 6901   2.175   5.331   3.425  0.8145  1.0075  1.7221
 1782SOL    MW4 6902   2.151   5.250   3.444 -0.3470  0.4978 -0.6638
 1783SOL     OW 6903   3.990   6.018   5.253 -0.0741 -1.1360  0.4214
 1783SOL    HW2 6904   3.985   6.083   5.183  1.4143 -1.9868 -0.5295
 1783SOL    HW3 6905   4.051   6.056   5.317 -0.7254 -0.7616  0.8336
 1783SOL    MW4 6906   3.998   6.032   5.252  0.1243 -0.4626 -0.4727
 1784SOL     OW 6907   2.808   1.716   0.221  0.1141 -0.6604 -0.0962
 1784SOL    HW2 6908   2.749   1.695   0.293 -1.9837  0.1795 -1.4691
 1784SOL    HW3 6909   2.863   1.638   0.211  0.2232 -0.9261  2.1216
 1784SOL    MW4 6910   2.808   1.703   0.229 -0.5479 -0.3654 -0.4286
 1785SOL     OW 6911   2.005   3.344   5.467  0.0942 -0.4261 -0.2497
 1785SOL    HW2 6912   1.972   3.300   5.545  0.6395 -1.3652 -0.5303
 1785SOL    HW3 6913   1.970   3.433   5.473  1.4643  0.0466  1.9305
 1785SOL    MW4 6914   1.996   3.350   5.478 -0.0897  0.0772 -0.5908
 1786SOL     OW 6915   0.744   6.376   4.033 -0.4370  0.0546 -0.3979
 1786SOL    HW2 6916   0.744   6.433   4.110  0.5065 -0.9201  0.3615
 1786SOL    HW3 6917   0.831   6.389   3.994  0.4106 -1.9392  0.6663
 1786SOL    MW4 6918   0.756   6.386   4.038 -0.2057  0.0169  0.2884
 1787SOL     OW 6919   4.761   0.153   3.589 -0.6640 -1.0219 -0.0187
 1787SOL    HW2 6920   4.672   0.178   3.563 -0.3704 -0.6190 -0.6757
 1787SOL    HW3 6921   4.777   0.200   3.670 -0.3961  0.3659 -0.8493
 1787SOL    MW4 6922   4.752   0.162   3.596  0.5256 -0.6941 -0.2042
 1788SOL     OW 6923   5.114   3.528   4.960  0.2067 -0.2446 -0.2621
 1788SOL    HW2 6924   5.203   3.496   4.946  1.4056  3.1596 -1.3983
 1788SOL    HW3 6925   5.077   3.533   4.872 -0.4809  0.0451  0.0434
 1788SOL    MW4 6926   5.121   3.524   4.947 -0.1127 -0.2231  0.1933
 1789SOL     OW 6927   0.116   4.951   3.918 -0.0273 -0.2220  0.0722
 1789SOL    HW2 6928   0.192   4.895   3.934  1.2088  0.8278 -1.7579
 1789SOL    HW3 6929   0.150   5.041   3.924 -1.0137  0.2706 -1.1178
 1789SOL    MW4 6930   0.131   4.956   3.921  0.1142  0.3511  0.4075
 1790SOL     OW 6931   1.467   2.864   1.642 -0.2568 -0.4174  0.5180
 1790SOL    HW2 6932   1.552   2.901   1.664 -0.4624 -0.6505  1.7261
 1790SOL    HW3 6933   1.458   2.788   1.700 -1.2097 -0.5055  0.2632
 1790SOL    MW4 6934   1.477   2.859   1.652  0.2625  0.3034  0.5912
 1791SOL     OW 6935   4.129   5.460   1.001  0.3653 -0.0125  1.0026
 1791SOL    HW2 6936   4.091   5.433   0.917  1.5149  0.6320  0.2498
 1791SOL    HW3 6937   4.054   5.461   1.061 -0.7004  0.5303 -0.2638
 1791SOL    MW4 6938   4.114   5.457   0.998  0.1940  0.1110  0.1064
 1792SOL     OW 6939   3.736   6.303   0.666 -0.5291  0.0004 -0.1747
 1792SOL    HW2 6940   3.810   6.364   0.670 -0.5092  0.0642 -1.1648
 1792SOL    HW3 6941   3.667   6.344   0.718 -0.6024  0.9973 -1.0358
 1792SOL    MW4 6942   3.737   6.316   0.673  0.0806  0.3055  0.0427
 1793SOL     OW 6943   4.628   0.735   2.653  0.0483  0.9711  0.1824
 1793SOL    HW2 6944   4.624   0.766   2.563  0.7817 -0.6847 -0.4642
 1793SOL    HW3 6945   4.629   0.640   2.646  1.8738  0.7955  1.8360
 1793SOL    MW4 6946   4.627   0.726   2.640 -0.1412 -0.2801  0.4317
 1794SOL     OW 6947   0.874   0.907   4.772  0.5411 -0.3981  0.1946
 1794SOL    HW2 6948   0.820   0.881   4.697 -0.0459  0.2285  0.4010
 1794SOL    HW3 6949   0.956   0.858   4.759  0.4885 -0.2299 -0.9068
 1794SOL    MW4 6950   0.878   0.897   4.760  0.2684 -0.6198 -0.0796
 1795SOL     OW 6951   5.689   2.840   0.420 -0.0464 -0.6382 -0.2849
 1795SOL    HW2 6952   5.772   2.799   0.443 -0.5385 -1.5895 -0.1572
 1795SOL    HW3 6953   5.703   2.933   0.435  1.6373 -0.5127 -2.1428
 1795SOL    MW4 6954   5.702   2.847   0.425  0.3506 -0.3690  0.1420
 1796SOL     OW 6955   2.527   5.425   1.787  0.0161 -0.3527 -0.0932
 1796SOL    HW2 6956   2.487   5.344   1.817 -1.5722  0.1853 -0.6549
 1796SOL    HW3 6957   2.615   5.424   1.824  0.1027 -2.4135 -0.2402
 1796SOL    MW4 6958   2.534   5.414   1.796 -0.4776  0.3875 -0.0050
 1797SOL     OW 6959   6.215   2.951   5.493 -0.3533  0.5017  0.3479
 1797SOL    HW2 6960   6.200   2.911   5.408 -0.9055  1.5629 -0.0776
 1797SOL    HW3 6961   6.135   2.935   5.542 -0.5330  0.9806  0.2144
 1797SOL    MW4 6962   6.203   2.944   5.489 -0.3416 -0.2657 -0.0972
 1798SOL     OW 6963   3.871   4.582   4.010  0.3008  0.3197  0.1759
 1798SOL    HW2 6964   3.810   4.656   4.010 -0.1723 -0.0550  1.0453
 1798SOL    HW3 6965   3.816   4.505   4.020  0.7584 -0.2041 -1.1645
 1798SOL    MW4 6966   3.856   4.582   4.012 -0.3802 -0.4287 -0.1840
 1799SOL     OW 6967   2.126   0.217   5.351  0.4192 -0.0312 -0.4251
 1799SOL    HW2 6968   2.147   0.124   5.335 -0.9365 -0.3381 -0.5837
 1799SOL    HW3 6969   2.211   0.259   5.361  1.0642 -1.3402 -0.0869
 1799SOL    MW4 6970   2.140   0.210   5.350 -0.6025  0.1848 -0.7045
 1800SOL     OW 6971   4.434   5.294   3.432  0.6228  0.5233  0.0105
 1800SOL    HW2 6972   4.357   5.269   3.483  1.0297  0.8048  0.7732
 1800SOL    HW3 6973   4.464   5.376   3.472  0.9355  0.7597 -0.6950
 1800SOL    MW4 6974   4.428   5.302   3.444 -0.0352  0.0792  0.3337
 1801SOL     OW 6975   4.144   5.977   0.183 -0.0352  0.1338 -0.3970
 1801SOL    HW2 6976   4.057   5.937   0.186  0.9186 -1.9873  0.7650
 1801SOL    HW3 6977   4.191   5.929   0.115  0.2421  1.3409 -1.1013
 1801SOL    MW4 6978   4.139   5.965   0.174  0.7157  0.3155 -0.0929
 1802SOL     OW 6979   0.479   1.073   1.848 -0.4427 -0.1769 -0.3555
 1802SOL    HW2 6980   0.391   1.042   1.870 -0.1566 -0.4974  0.3838
 1802SOL    HW3 6981   0.476   1.167   1.865 -0.8870 -0.0397 -1.1712
 1802SOL    MW4 6982   0.467   1.081   1.853 -0.0048  0.1583 -0.4967
 1803SOL     OW 6983   5.372   2.760   2.090 -0.0512 -0.6459 -0.5526
 1803SOL    HW2 6984   5.306   2.830   2.091 -0.4780 -0.9591  2.3548
 1803SOL    HW3 6985   5.446   2.797   2.042 -1.9128  0.0667 -3.0809
 1803SOL    MW4 6986   5.373   2.774   2.084 -0.0089 -0.2723  0.3106
 1804SOL     OW 6987   4.742   3.726   1.167 -0.0645 -0.3798 -0.7885
 1804SOL    HW2 6988   4.735   3.651   1.108 -1.0900 -0.8269 -0.1271
 1804SOL    HW3 6989   4.761   3.800   1.109 -1.1817 -0.7887 -1.7150
 1804SOL    MW4 6990   4.743   3.726   1.152  0.2155  0.0258 -0.1915
 1805SOL     OW 6991   2.296   0.824   0.676 -0.0953  0.0008 -0.8278
 1805SOL    HW2 6992   2.364   0.796   0.737  0.0973  0.3403 -0.8837
 1805SOL    HW3 6993   2.215   0.818   0.726  0.0155 -0.0940 -0.6595
 1805SOL    MW4 6994   2.294   0.820   0.691  0.3441  0.7592  0.7929
 1806SOL     OW 6995   3.830   3.700   6.341 -0.4009  0.3613 -0.7947
 1806SOL    HW2 6996   3.763   3.733   6.401  0.2621  0.4875 -0.1177
 1806SOL    HW3 6997   3.911   3.740   6.371  0.2685 -1.1344 -0.5349
 1806SOL    MW4 6998   3.832   3.709   6.352 -0.2221 -0.3639  0.1265
 1807SOL     OW 6999   1.494   6.254   1.987 -0.3813  0.4880  0.1633
 1807SOL    HW2 7000   1.554   6.181   2.006 -0.0341  0.4688 -0.9608
 1807SOL    HW3 7001   1.485   6.299   2.071 -0.5142 -0.7745  0.8526
 1807SOL    MW4 7002   1.501   6.250   2.001 -0.1723  0.4705 -0.1858
 1808SOL     OW 7003   6.398   4.113   2.883 -0.0393  0.3762  1.1641
 1808SOL    HW2 7004   6.383   4.158   2.966 -2.0506 -0.1238  1.1218
 1808SOL    HW3 7005   6.408   4.183   2.819  0.2045  0.7598  1.6142
 1808SOL    MW4 7006   6.397   4.128   2.886  0.0106  0.1368 -0.0008
 1809SOL     OW 7007   2.714   5.439   3.065  0.0974 -0.7681 -0.3193
 1809SOL    HW2 7008   2.689   5.466   2.976 -1.6316  0.4747  0.4805
 1809SOL    HW3 7009   2.659   5.492   3.122  0.9207 -1.7959  1.5080
 1809SOL    MW4 7010   2.703   5.449   3.061 -0.3716  0.2844 -0.1166
 1810SOL     OW 7011   2.806   5.616   2.428  0.3407 -0.3453 -0.5977
 1810SOL    HW2 7012   2.727   5.562   2.421  0.7992 -1.4771  2.0118
 1810SOL    HW3 7013   2.865   5.580   2.362  0.0565 -2.0416  0.0279
 1810SOL    MW4 7014   2.803   5.604   2.418 -0.0913  0.1728  0.7922
 1811SOL     OW 7015   3.213   3.618   3.687 -0.5412  0.4289  0.5138
 1811SOL    HW2 7016   3.268   3.654   3.756  2.7274 -2.2090 -0.4279
 1811SOL    HW3 7017   3.181   3.535   3.722  2.4292 -1.7346 -1.3638
 1811SOL    MW4 7018   3.216   3.612   3.701  0.2072 -0.6137 -0.3973
 1812SOL     OW 7019   4.992   1.700   4.642 -0.1624 -0.0171  0.0090
 1812SOL    HW2 7020   5.076   1.702   4.596 -0.3523 -2.2794 -0.5396
 1812SOL    HW3 7021   4.928   1.724   4.575 -0.0084  1.9862  0.4935
 1812SOL    MW4 7022   4.995   1.704   4.627  0.3242 -0.1689  0.1094
 1813SOL     OW 7023   5.849   1.033   3.655 -0.3767  0.3260  0.0093
 1813SOL    HW2 7024   5.764   0.993   3.639 -2.7692  4.3067  1.4211
 1813SOL    HW3 7025   5.869   1.081   3.575  0.4984 -0.4255 -0.2405
 1813SOL    MW4 7026   5.841   1.034   3.642 -0.6351 -0.5660 -0.1380
 1814SOL     OW 7027   2.724   5.559   1.476 -0.4626  0.9022  0.3565
 1814SOL    HW2 7028   2.785   5.510   1.420 -0.0305 -0.0265  1.6122
 1814SOL    HW3 7029   2.773   5.574   1.557 -1.2236  1.8876  0.6554
 1814SOL    MW4 7030   2.739   5.555   1.479  0.2860 -0.9338  0.3796
 1815SOL     OW 7031   2.442   3.521   2.367  0.6718  0.2539  0.2990
 1815SOL    HW2 7032   2.461   3.451   2.304  3.3118  0.7699  0.3874
 1815SOL    HW3 7033   2.489   3.495   2.446 -0.4701  0.8823  1.2086
 1815SOL    MW4 7034   2.451   3.508   2.369 -0.2571 -0.3969  0.5986
 1816SOL     OW 7035   5.845   0.956   4.795 -0.0167 -0.2502  0.2376
 1816SOL    HW2 7036   5.791   1.017   4.844  0.2910 -0.4998  0.8941
 1816SOL    HW3 7037   5.806   0.870   4.812  1.8966 -0.7447  2.6110
 1816SOL    MW4 7038   5.833   0.953   4.803 -0.1819  0.1991 -0.2284
 1817SOL     OW 7039   4.529   0.682   3.127  0.4914 -0.2226  0.1052
 1817SOL    HW2 7040   4.530   0.635   3.044 -0.4914 -0.4075  0.1844
 1817SOL    HW3 7041   4.579   0.762   3.109  2.1489 -1.2349 -0.0329
 1817SOL    MW4 7042   4.536   0.687   3.113  0.2396  0.4277  0.3595
 1818SOL     OW 7043   0.400   4.079   4.546 -0.6089 -0.1833 -0.0481
 1818SOL    HW2 7044   0.343   4.117   4.478 -0.1815  0.4211 -0.0683
 1818SOL    HW3 7045   0.483   4.065   4.501 -0.9410 -1.7918 -0.2377
 1818SOL    MW4 7046   0.403   4.082   4.531  0.2060  0.2211 -0.4076
 1819SOL     OW 7047   2.541   3.820   4.884 -0.1161 -0.0769  0.3944
 1819SOL    HW2 7048   2.513   3.808   4.975  0.8446  0.1127  0.7348
 1819SOL    HW3 7049   2.632   3.788   4.883 -0.7555 -2.0183 -0.9723
 1819SOL    MW4 7050   2.549   3.814   4.896  0.0480  0.9172  0.1789
 1820SOL     OW 7051   1.235   4.336   4.064 -0.3044 -0.1562 -0.7333
 1820SOL    HW2 7052   1.149   4.356   4.101  0.0342  0.4498 -0.2596
 1820SOL    HW3 7053   1.252   4.246   4.093  0.1392  0.4406  0.9976
 1820SOL    MW4 7054   1.226   4.327   4.073  0.5154  0.2605 -0.7298
 1821SOL     OW 7055   5.407   0.860   5.693  0.5729 -0.2614  0.1474
 1821SOL    HW2 7056   5.410   0.765   5.704  0.8421 -0.4205 -1.1621
 1821SOL    HW3 7057   5.334   0.874   5.632 -0.6511  0.5303  1.7240
 1821SOL    MW4 7058   5.398   0.849   5.686  0.2205 -0.6148 -0.7266
 1822SOL     OW 7059   3.351   5.916   4.497  0.1487  0.1912  1.0541
 1822SOL    HW2 7060   3.331   5.840   4.552  1.4541 -1.6047 -0.7866
 1822SOL    HW3 7061   3.268   5.937   4.454  0.1305 -1.5455  0.1043
 1822SOL    MW4 7062   3.337   5.908   4.498 -0.0651  0.0444  0.7983
 1823SOL     OW 7063   4.242   1.370   4.759 -0.0483  0.0604 -0.3523
 1823SOL    HW2 7064   4.308   1.402   4.697 -0.8069  1.7343 -0.3604
 1823SOL    HW3 7065   4.176   1.439   4.761 -1.8500 -1.5814 -0.3733
 1823SOL    MW4 7066   4.242   1.383   4.751 -0.4209  0.0212  0.5400
 1824SOL     OW 7067   1.339   0.474   1.986 -0.4779  0.3736 -0.2311
 1824SOL    HW2 7068   1.327   0.555   2.035 -0.4918  0.4981 -0.4449
 1824SOL    HW3 7069   1.430   0.450   2.002  0.0689  1.3938 -1.6504
 1824SOL    MW4 7070   1.349   0.481   1.995  0.0727 -0.2007 -0.2744
 1825SOL     OW 7071   6.215   1.910   6.196 -0.3084 -0.0209 -0.2257
 1825SOL    HW2 7072   6.149   1.976   6.174 -0.4289 -0.5300 -1.4214
 1825SOL    HW3 7073   6.291   1.962   6.223  0.3698  0.7333 -3.2648
 1825SOL    MW4 7074   6.216   1.926   6.197 -0.1882  0.3025  0.5491
 1826SOL     OW 7075   3.213   2.001   2.347  0.3605 -0.0930  0.2304
 1826SOL    HW2 7076   3.287   1.967   2.296 -0.5060 -1.9198  0.1164
 1826SOL    HW3 7077   3.233   2.094   2.358  2.2360 -0.3475 -0.5433
 1826SOL    MW4 7078   3.226   2.009   2.342  0.6144 -0.2677 -0.0312
 1827SOL     OW 7079   3.741   4.052   0.800 -0.5726  0.3622  0.5042
 1827SOL    HW2 7080   3.689   4.062   0.721 -0.7326  0.3602  0.6101
 1827SOL    HW3 7081   3.793   4.132   0.804 -0.8527  0.5397  0.6103
 1827SOL    MW4 7082   3.741   4.064   0.790  0.4443  0.4034 -0.1344
 1828SOL     OW 7083   3.329   0.051   4.245  0.1621 -0.1565 -0.1605
 1828SOL    HW2 7084   3.265   0.093   4.302 -0.4919 -1.7484  0.3378
 1828SOL    HW3 7085   3.342   0.113   4.173 -1.9858  0.1966 -0.2906
 1828SOL    MW4 7086   3.322   0.065   4.243 -0.0736  0.3656 -0.2172
 1829SOL     OW 7087   0.915   6.152   0.945  0.0815 -0.1988 -0.8047
 1829SOL    HW2 7088   0.822   6.151   0.922  0.3568  0.6533 -2.0901
 1829SOL    HW3 7089   0.924   6.225   1.007 -0.3309 -1.2348  0.5238
 1829SOL    MW4 7090   0.904   6.161   0.950 -0.4770 -0.4341  0.7397
 1830SOL     OW 7091   2.105   2.027   2.131  0.3951  0.8660 -0.6419
 1830SOL    HW2 7092   2.133   1.986   2.213  0.7197 -0.2585 -1.3061
 1830SOL    HW3 7093   2.040   1.968   2.095  0.2280  1.3710 -1.1865
 1830SOL    MW4 7094   2.100   2.014   2.137 -0.5764  0.3928  0.1477
 1831SOL     OW 7095   0.324   4.228   3.153 -0.0267 -0.1217  0.6450
 1831SOL    HW2 7096   0.264   4.159   3.125 -0.5008  0.7673 -0.6389
 1831SOL    HW3 7097   0.409   4.186   3.159 -0.3385 -0.8533  0.0356
 1831SOL    MW4 7098   0.327   4.213   3.150  0.2825  0.0104  0.3017
 1832SOL     OW 7099   5.433   0.276   5.746 -0.2514 -0.2032  0.5454
 1832SOL    HW2 7100   5.454   0.333   5.820 -1.7143 -1.6481  2.1656
 1832SOL    HW3 7101   5.516   0.232   5.726  0.1180  0.0068  1.5277
 1832SOL    MW4 7102   5.447   0.277   5.753 -0.3842 -0.3132  0.2073
 1833SOL     OW 7103   0.220   0.103   2.936 -0.3210  0.1580  0.1332
 1833SOL    HW2 7104   0.294   0.104   2.997  1.6311 -0.8527 -2.0776
 1833SOL    HW3 7105   0.210   0.193   2.908  0.7980  0.1542 -0.3274
 1833SOL    MW4 7106   0.228   0.115   2.941  0.7702 -0.3253  0.1575
 1834SOL     OW 7107   5.102   1.128   3.996 -0.2665  0.4635 -0.0544
 1834SOL    HW2 7108   5.194   1.144   3.978 -0.3140  0.0606 -0.7093
 1834SOL    HW3 7109   5.096   1.120   4.091  0.7361 -1.6967 -0.1247
 1834SOL    MW4 7110   5.113   1.129   4.006  0.0091  0.4224  0.3554
 1835SOL     OW 7111   5.033   0.740   3.992 -0.7479  0.5932  0.3596
 1835SOL    HW2 7112   5.113   0.726   3.940 -0.4243  1.0500  0.7356
 1835SOL    HW3 7113   5.062   0.786   4.070 -1.1073 -0.7585  1.3385
 1835SOL    MW4 7114   5.047   0.744   3.995 -0.6264 -0.4632  0.2201
 1836SOL     OW 7115   0.190   5.089   2.622  0.8101  0.6604  0.0168
 1836SOL    HW2 7116   0.156   5.099   2.534  0.5688 -0.0769  0.0204
 1836SOL    HW3 7117   0.124   5.037   2.668  1.6555 -0.3072  0.1839
 1836SOL    MW4 7118   0.177   5.083   2.617 -0.1198 -0.3862 -0.4790
 1837SOL     OW 7119   5.026   1.662   6.357  0.2183  0.1217 -0.7615
 1837SOL    HW2 7120   4.967   1.590   6.380  1.1918 -0.4846 -0.0777
 1837SOL    HW3 7121   5.015   1.725   6.428  1.4414 -0.6593  0.1678
 1837SOL    MW4 7122   5.017   1.661   6.369  0.3713  0.0145  0.8774
 1838SOL     OW 7123   2.581   2.186   3.515 -0.4765 -0.6860  0.0407
 1838SOL    HW2 7124   2.502   2.238   3.498 -0.2061  0.0062  0.8213
 1838SOL    HW3 7125   2.558   2.135   3.592 -0.5481 -1.3305 -0.4033
 1838SOL    MW4 7126   2.567   2.186   3.523  0.1011 -0.6123  0.3362
 1839SOL     OW 7127   3.873   0.810   6.309  0.5475 -0.1619 -0.2608
 1839SOL    HW2 7128   3.852   0.780   6.220  2.0382 -1.6869 -0.1677
 1839SOL    HW3 7129   3.908   0.898   6.297  1.2217 -0.5459 -1.2693
 1839SOL    MW4 7130   3.875   0.817   6.296 -0.1412 -0.1587 -0.7833
 1840SOL     OW 7131   4.590   4.748   5.671  0.4959 -0.0286  0.8135
 1840SOL    HW2 7132   4.680   4.715   5.663  0.2006 -0.7551  0.4082
 1840SOL    HW3 7133   4.536   4.678   5.636 -0.1187  1.1575 -0.6797
 1840SOL    MW4 7134   4.595   4.734   5.666  0.2107 -0.4689 -0.2118
 1841SOL     OW 7135   0.711   5.042   3.317  0.3196  0.5854 -0.2450
 1841SOL    HW2 7136   0.669   5.026   3.401 -0.4901  0.7371 -0.6116
 1841SOL    HW3 7137   0.691   5.134   3.297 -0.0724  0.3651 -0.9143
 1841SOL    MW4 7138   0.703   5.052   3.325 -0.1168 -0.1124 -0.1319
 1842SOL     OW 7139   0.960   2.655   2.060 -0.0213  0.5232 -0.1218
 1842SOL    HW2 7140   0.913   2.581   2.022 -0.0090  0.3595  0.1737
 1842SOL    HW3 7141   0.992   2.622   2.144  0.7224  0.5890 -0.3668
 1842SOL    MW4 7142   0.958   2.641   2.066  0.3554 -0.7036  0.2073
 1843SOL     OW 7143   5.003   0.691   5.381  0.1071  0.5312 -0.0077
 1843SOL    HW2 7144   4.927   0.646   5.343 -1.7850  1.8081  2.0033
 1843SOL    HW3 7145   5.030   0.635   5.454 -0.2247  1.0352  0.5161
 1843SOL    MW4 7146   4.996   0.678   5.386 -0.2228 -0.6467 -0.2145
 1844SOL     OW 7147   5.182   0.395   3.145 -0.4640 -0.5915  0.0003
 1844SOL    HW2 7148   5.223   0.340   3.079  0.0509 -2.0165  1.4497
 1844SOL    HW3 7149   5.221   0.482   3.132  0.1789 -1.0254 -1.0675
 1844SOL    MW4 7150   5.193   0.399   3.135 -0.1234  0.0610 -0.1038
 1845SOL     OW 7151   0.838   3.113   1.037  0.3031  0.1088  0.1277
 1845SOL    HW2 7152   0.786   3.178   1.084 -1.5464 -1.2513  0.0704
 1845SOL    HW3 7153   0.782   3.083   0.966  0.4505 -2.5752  1.0026
 1845SOL    MW4 7154   0.824   3.118   1.034 -0.2468  0.7486 -0.5343
 1846SOL     OW 7155   0.676   2.757   3.473 -0.0991 -0.4144 -0.9343
 1846SOL    HW2 7156   0.666   2.743   3.378 -1.2142  0.8917 -1.0350
 1846SOL    HW3 7157   0.589   2.780   3.503  0.3338 -0.4089  0.3565
 1846SOL    MW4 7158   0.663   2.758   3.464 -0.2174 -0.3358 -0.0691
 1847SOL     OW 7159   2.563   1.125   0.860  0.6136  0.1687 -0.0323
 1847SOL    HW2 7160   2.564   1.062   0.788  3.1692 -0.9156  0.8436
 1847SOL    HW3 7161   2.629   1.190   0.835  0.9181  0.2353  0.9367
 1847SOL    MW4 7162   2.572   1.126   0.847 -0.1278 -0.2578 -0.5749
 1848SOL     OW 7163   1.102   0.756   4.701 -0.0773  0.5690  0.2764
 1848SOL    HW2 7164   1.135   0.676   4.660  0.6522  0.8216  0.3636
 1848SOL    HW3 7165   1.103   0.820   4.630 -0.1325  0.6446  0.3445
 1848SOL    MW4 7166   1.107   0.754   4.686  0.1270  0.5473  0.0112
 1849SOL     OW 7167   0.458   6.209   0.892 -0.7274  0.3510 -0.0152
 1849SOL    HW2 7168   0.452   6.173   0.980 -3.6147 -1.8926 -0.9485
 1849SOL    HW3 7169   0.542   6.177   0.858 -0.2691 -0.0029  1.4091
 1849SOL    MW4 7170   0.468   6.200   0.899 -0.5302  0.4397 -0.3344
 1850SOL     OW 7171   1.873   3.073   2.581 -0.0371 -0.1830  0.0981
 1850SOL    HW2 7172   1.883   2.989   2.536  0.1473  1.1328 -2.4452
 1850SOL    HW3 7173   1.778   3.083   2.591 -0.0692 -0.5733  0.2377
 1850SOL    MW4 7174   1.862   3.063   2.577 -0.1639 -0.0808  0.3861
 1851SOL     OW 7175   1.382   1.446   0.538  0.0282 -0.3603 -0.0292
 1851SOL    HW2 7176   1.356   1.511   0.603  0.4642 -0.7598  0.5548
 1851SOL    HW3 7177   1.305   1.389   0.529  0.1864 -0.6761  0.6056
 1851SOL    MW4 7178   1.368   1.447   0.545  0.1235  0.3692 -0.6221
 1852SOL     OW 7179   5.518   5.177   0.454 -0.5580  0.3656 -0.2484
 1852SOL    HW2 7180   5.465   5.143   0.526 -0.8071  1.6714  0.2071
 1852SOL    HW3 7181   5.608   5.149   0.474 -0.6284  0.7207  0.5648
 1852SOL    MW4 7182   5.523   5.169   0.466  1.0505  0.4234 -0.1443
 1853SOL     OW 7183   3.841   5.276   3.954 -0.4016 -0.6267 -0.1310
 1853SOL    HW2 7184   3.917   5.331   3.936 -0.6344  0.4298  1.8072
 1853SOL    HW3 7185   3.775   5.304   3.890  0.0464  0.1798 -0.2537
 1853SOL    MW4 7186   3.842   5.287   3.943  0.5510  0.3761  0.3842
 1854SOL     OW 7187   3.755   4.461   2.271 -0.3917 -0.2469 -0.0172
 1854SOL    HW2 7188   3.838   4.467   2.318 -0.3138  2.6457 -0.3082
 1854SOL    HW3 7189   3.780   4.457   2.179 -0.5330  0.1687 -0.0795
 1854SOL    MW4 7190   3.769   4.462   2.265 -0.5884 -0.0601 -0.0181
 1855SOL     OW 7191   1.587   4.684   1.204 -0.4659 -0.3971  0.0664
 1855SOL    HW2 7192   1.501   4.641   1.212 -0.4222 -0.4315  0.3614
 1855SOL    HW3 7193   1.639   4.623   1.151 -1.4052  0.8016 -2.3599
 1855SOL    MW4 7194   1.582   4.670   1.198  0.4583 -0.1167 -0.4174
 1856SOL     OW 7195   3.324   1.090   4.101  0.2954  0.5376 -0.3330
 1856SOL    HW2 7196   3.311   1.006   4.144  1.2411  0.0213 -1.0240
 1856SOL    HW3 7197   3.291   1.077   4.012 -2.6862  1.9144  0.4172
 1856SOL    MW4 7198   3.318   1.077   4.095 -0.0751 -0.1361  0.2335
 1857SOL     OW 7199   2.746   0.433   4.651 -0.2269 -0.3384  0.0385
 1857SOL    HW2 7200   2.730   0.461   4.741 -0.4420  0.7246 -0.3156
 1857SOL    HW3 7201   2.664   0.391   4.625 -1.0362  1.4181 -0.4026
 1857SOL    MW4 7202   2.733   0.431   4.660  0.6602  0.1579 -0.0383
 1858SOL     OW 7203   2.525   1.369   3.741  0.9445  0.0555  0.0972
 1858SOL    HW2 7204   2.504   1.462   3.727  0.0723 -0.2386 -0.6234
 1858SOL    HW3 7205   2.445   1.323   3.718  1.4382 -0.9011  0.2572
 1858SOL    MW4 7206   2.512   1.375   3.736 -0.0359 -0.1593  0.3756
 1859SOL     OW 7207   5.958   2.603   5.835  1.0137 -0.4811  0.5471
 1859SOL    HW2 7208   5.941   2.646   5.919  2.6175 -1.4844  1.4220
 1859SOL    HW3 7209   5.874   2.562   5.812  0.2359  0.7764  1.0575
 1859SOL    MW4 7210   5.944   2.603   5.843  0.4488  0.0077  0.3538
 1860SOL     OW 7211   5.982   6.121   0.473  0.4036  0.1660 -0.6730
 1860SOL    HW2 7212   6.059   6.176   0.492  0.8015 -1.3282  2.6023
 1860SOL    HW3 7213   5.907   6.177   0.493  0.7408  0.3828  0.0206
 1860SOL    MW4 7214   5.983   6.136   0.478  0.1421 -0.7221 -0.1746
 1861SOL     OW 7215   0.179   4.673   5.462 -0.3105 -0.0462  0.1381
 1861SOL    HW2 7216   0.090   4.648   5.484 -0.0988 -1.4762 -0.5286
 1861SOL    HW3 7217   0.211   4.602   5.406  1.3933  0.2197  0.7176
 1861SOL    MW4 7218   0.172   4.661   5.457 -0.6554 -0.1333 -0.0818
 1862SOL     OW 7219   0.806   4.466   4.885  0.1607 -0.2758 -0.6849
 1862SOL    HW2 7220   0.730   4.428   4.929 -0.1901  1.3039  0.1421
 1862SOL    HW3 7221   0.774   4.549   4.850  1.7606  0.9729  0.6859
 1862SOL    MW4 7222   0.792   4.472   4.886 -0.0103 -0.1912 -0.1282
 1863SOL     OW 7223   4.703   5.343   4.036  0.1741 -0.2893 -0.3556
 1863SOL    HW2 7224   4.775   5.404   4.018  0.1363 -0.1845 -0.1646
 1863SOL    HW3 7225   4.720   5.268   3.979  0.0196  0.0545 -0.8553
 1863SOL    MW4 7226   4.715   5.341   4.026 -0.4084 -0.0212  0.3725
 1864SOL     OW 7227   1.463   0.509   0.392 -0.3585 -0.4068  0.1934
 1864SOL    HW2 7228   1.554   0.526   0.369  0.1782 -1.3706  1.4619
 1864SOL    HW3 7229   1.433   0.445   0.328  0.1656 -0.8097  0.3431
 1864SOL    MW4 7230   1.471   0.503   0.381 -0.4850 -0.3386 -0.0708
 1865SOL     OW 7231   1.154   3.406   1.131  0.0911  0.1284  0.5271
 1865SOL    HW2 7232   1.112   3.343   1.072  0.1917  0.4833  0.0714
 1865SOL    HW3 7233   1.170   3.356   1.211 -0.4291 -0.2436  0.4063
 1865SOL    MW4 7234   1.150   3.391   1.133 -0.1571  1.0639 -0.3970
 1866SOL     OW 7235   5.241   6.035   1.841 -0.1303  0.4692 -0.0107
 1866SOL    HW2 7236   5.280   6.000   1.921 -1.0762 -0.1244  0.2137
 1866SOL    HW3 7237   5.147   6.020   1.852 -0.2666  0.2679 -1.2874
 1866SOL    MW4 7238   5.233   6.029   1.853  0.4668 -0.8508  0.2060
 1867SOL     OW 7239   5.631   2.538   5.163  0.3088  0.3531 -0.1773
 1867SOL    HW2 7240   5.555   2.535   5.105  0.5978 -0.1540 -0.5312
 1867SOL    HW3 7241   5.627   2.626   5.201 -1.5632 -0.2967  1.3269
 1867SOL    MW4 7242   5.620   2.549   5.160  0.0537  0.2684 -0.4062
 1868SOL     OW 7243   6.117   2.026   1.471  0.7871 -0.3070 -0.1629
 1868SOL    HW2 7244   6.031   1.986   1.457  1.1192 -0.7238 -1.1170
 1868SOL    HW3 7245   6.165   1.964   1.525  0.5628 -0.1642  0.2059
 1868SOL    MW4 7246   6.112   2.013   1.476  0.0444 -0.0885 -0.2485
 1869SOL     OW 7247   2.704   2.998   0.362  0.3480 -0.0045  0.0540
 1869SOL    HW2 7248   2.630   2.940   0.344  1.9697 -1.6181 -2.0677
 1869SOL    HW3 7249   2.675   3.084   0.332 -0.6334 -0.6512 -0.9437
 1869SOL    MW4 7250   2.690   3.002   0.356 -0.0920 -0.3477  0.0033
 1870SOL     OW 7251   0.143   4.146   2.192  0.2742 -0.1718 -0.0567
 1870SOL    HW2 7252   0.093   4.135   2.273  0.5271 -1.1330 -0.0131
 1870SOL    HW3 7253   0.222   4.093   2.206  1.2155  1.1608 -0.2047
 1870SOL    MW4 7254   0.147   4.137   2.205 -0.6481 -0.3107 -0.2690
 1871SOL     OW 7255   2.100   6.155   0.924 -0.4711 -0.3377 -0.0566
 1871SOL    HW2 7256   2.146   6.235   0.951 -1.5356  0.4606 -0.5578
 1871SOL    HW3 7257   2.168   6.087   0.927  0.5485  0.6451  0.0279
 1871SOL    MW4 7258   2.115   6.156   0.928  0.1725 -0.2430  0.1073
 1872SOL     OW 7259   0.267   3.566   6.221 -0.2057 -0.5512 -0.6491
 1872SOL    HW2 7260   0.323   3.494   6.193  0.9907 -0.0144  0.2467
 1872SOL    HW3 7261   0.296   3.641   6.169  0.6787 -0.0190  0.5649
 1872SOL    MW4 7262   0.278   3.567   6.210  0.1928  0.2889  0.1981
 1873SOL     OW 7263   4.343   3.546   1.153 -0.6229 -0.1362  0.4600
 1873SOL    HW2 7264   4.390   3.463   1.162  0.6812  0.2050 -2.3283
 1873SOL    HW3 7265   4.407   3.612   1.181 -0.5113  0.1190 -0.3754
 1873SOL    MW4 7266   4.358   3.544   1.158 -0.0545 -0.5047  0.5533
 1874SOL     OW 7267   3.785   3.596   3.334  0.6550 -0.0597 -0.1496
 1874SOL    HW2 7268   3.767   3.503   3.348 -0.5458  0.5224  2.9075
 1874SOL    HW3 7269   3.879   3.599   3.319  0.7120 -1.7819 -0.3960
 1874SOL    MW4 7270   3.795   3.584   3.334  0.2105 -0.3992 -0.2883
 1875SOL     OW 7271   5.204   0.831   0.148  0.0701 -0.2288  0.1428
 1875SOL    HW2 7272   5.241   0.770   0.085 -1.0707  1.1071 -1.9144
 1875SOL    HW3 7273   5.115   0.801   0.163  0.7296 -1.3537  2.3223
 1875SOL    MW4 7274   5.197   0.819   0.142  1.1839  0.0556  0.3979
 1876SOL     OW 7275   4.718   2.148   0.761 -0.4513 -0.4187 -0.5349
 1876SOL    HW2 7276   4.742   2.060   0.734 -1.8331 -0.5674 -1.4156
 1876SOL    HW3 7277   4.672   2.136   0.845 -0.9242 -0.5846 -0.8138
 1876SOL    MW4 7278   4.715   2.135   0.769  0.1214 -0.0358  0.2032
 1877SOL     OW 7279   4.133   6.385   5.991  0.0784  0.0150 -0.4191
 1877SOL    HW2 7280   4.161   6.311   5.937  0.3731  0.8462 -1.4446
 1877SOL    HW3 7281   4.105   6.346   6.073 -0.3126 -1.2911 -1.1456
 1877SOL    MW4 7282   4.133   6.370   5.995 -0.0001  0.4096  0.3533
 1878SOL     OW 7283   1.942   3.792   6.441  0.1875  0.2759  0.1257
 1878SOL    HW2 7284   1.847   3.794   6.444  0.0725 -0.3956 -1.7439
 1878SOL    HW3 7285   1.964   3.812   6.350  1.9820  3.5691  1.1111
 1878SOL    MW4 7286   1.932   3.795   6.429 -0.3828  0.2736 -0.5756
 1879SOL     OW 7287   3.543   3.151   1.468  0.2534 -0.3405 -0.4169
 1879SOL    HW2 7288   3.491   3.118   1.541  0.4884 -0.2367 -0.1987
 1879SOL    HW3 7289   3.517   3.243   1.460  1.2366  0.0382  0.4547
 1879SOL    MW4 7290   3.533   3.159   1.477 -0.1450  0.3403 -0.2230
 1880SOL     OW 7291   6.185   0.132   2.163 -0.2213  0.0994  0.5328
 1880SOL    HW2 7292   6.202   0.099   2.075 -0.3439 -0.7457  0.8184
 1880SOL    HW3 7293   6.114   0.196   2.152 -1.8368 -1.6517  0.3042
 1880SOL    MW4 7294   6.178   0.136   2.150 -0.0413  0.0040 -0.0008
 1881SOL     OW 7295   5.150   4.301   5.761  0.6524  0.0683  0.1628
 1881SOL    HW2 7296   5.153   4.359   5.837  1.9432  0.7788 -0.4078
 1881SOL    HW3 7297   5.071   4.328   5.713  0.3142  0.1953  0.7901
 1881SOL    MW4 7298   5.140   4.312   5.764 -0.5026 -0.3333 -0.4720
 1882SOL     OW 7299   4.369   2.526   3.555  0.4921 -0.0142  0.0177
 1882SOL    HW2 7300   4.377   2.503   3.647 -1.2920 -1.2570 -0.0969
 1882SOL    HW3 7301   4.304   2.597   3.554 -0.5259 -0.9289 -0.3717
 1882SOL    MW4 7302   4.362   2.533   3.567 -0.0510  0.5888  0.0398
 1883SOL     OW 7303   6.249   5.509   0.414 -0.2156  0.2048 -0.2949
 1883SOL    HW2 7304   6.245   5.551   0.328  0.5177 -0.9344 -0.9067
 1883SOL    HW3 7305   6.157   5.496   0.438 -0.4347  0.9478 -0.6899
 1883SOL    MW4 7306   6.236   5.513   0.406  0.0432  0.4864  0.4953
 1884SOL     OW 7307   6.244   3.709   0.870  0.0428  0.0303  0.1729
 1884SOL    HW2 7308   6.298   3.734   0.945 -0.6211  0.1039  0.6335
 1884SOL    HW3 7309   6.256   3.779   0.806  0.5239  0.0222  0.2564
 1884SOL    MW4 7310   6.253   3.721   0.871 -0.1633 -0.3366  0.0080
 1885SOL     OW 7311   4.309   1.892   5.324  0.4179 -0.2944 -0.0318
 1885SOL    HW2 7312   4.332   1.901   5.416 -0.8276  0.3266  0.2438
 1885SOL    HW3 7313   4.368   1.824   5.291  1.4549  0.0743  0.9997
 1885SOL    MW4 7314   4.320   1.884   5.332  0.2671  0.0604 -0.0400
 1886SOL     OW 7315   6.302   5.720   3.909  0.1570 -0.8177 -0.1512
 1886SOL    HW2 7316   6.207   5.704   3.906  0.4235 -2.4619 -0.7078
 1886SOL    HW3 7317   6.339   5.654   3.850  1.8387 -1.6774  1.7618
 1886SOL    MW4 7318   6.294   5.709   3.901  0.2701  0.3532  0.3782
 1887SOL     OW 7319   4.202   5.513   0.528  0.2821 -0.3564 -0.0820
 1887SOL    HW2 7320   4.265   5.446   0.502  0.4980 -0.5483  0.8866
 1887SOL    HW3 7321   4.240   5.595   0.496  0.8900 -0.5028  0.2498
 1887SOL    MW4 7322   4.216   5.515   0.521  0.2265 -0.0651 -0.1765
 1888SOL     OW 7323   0.259   3.522   1.707 -0.3594 -0.4767 -0.1506
 1888SOL    HW2 7324   0.254   3.426   1.712 -1.1370 -0.5656 -1.8156
 1888SOL    HW3 7325   0.169   3.549   1.690 -0.2917  0.6448  1.1213
 1888SOL    MW4 7326   0.246   3.513   1.706  0.0524  0.4491 -0.3777
 1889SOL     OW 7327   2.552   1.661   3.729 -0.2554 -0.4510  0.0834
 1889SOL    HW2 7328   2.597   1.679   3.646 -0.2649  1.2706  0.4256
 1889SOL    HW3 7329   2.563   1.740   3.781 -1.5250 -0.9367  1.1684
 1889SOL    MW4 7330   2.559   1.673   3.725 -0.1295  0.4288 -0.6617
 1890SOL     OW 7331   6.065   1.017   5.503  0.9460 -0.3562  0.2638
 1890SOL    HW2 7332   6.058   1.096   5.448 -0.5393  0.9324  2.1289
 1890SOL    HW3 7333   6.158   1.006   5.518  1.3111 -0.1158 -1.6001
 1890SOL    MW4 7334   6.076   1.026   5.498 -0.5921  0.5751  0.0239
 1891SOL     OW 7335   5.048   5.945   2.179  0.3118  0.1610 -0.1284
 1891SOL    HW2 7336   5.015   5.857   2.193  1.7991 -0.2412  1.1797
 1891SOL    HW3 7337   5.042   5.986   2.265  0.8734  0.8950 -0.4303
 1891SOL    MW4 7338   5.043   5.939   2.192  0.0030  0.0071 -0.0640
 1892SOL     OW 7339   3.379   1.938   2.701  0.3468  0.3361 -0.1444
 1892SOL    HW2 7340   3.440   1.890   2.757 -0.1725 -0.3368 -0.1439
 1892SOL    HW3 7341   3.342   2.005   2.758 -0.6819 -0.7666  0.5335
 1892SOL    MW4 7342   3.382   1.940   2.716  0.4371 -1.3311  0.1341
 1893SOL     OW 7343   4.168   0.674   4.283 -0.2109  0.1364 -0.5683
 1893SOL    HW2 7344   4.197   0.616   4.353 -1.1199  0.5050  0.1360
 1893SOL    HW3 7345   4.188   0.626   4.202 -0.5736 -0.9720 -0.0168
 1893SOL    MW4 7346   4.175   0.660   4.282 -0.3393 -0.1565 -0.5753
 1894SOL     OW 7347   1.031   2.033   3.814  0.8294 -0.2229  1.3751
 1894SOL    HW2 7348   1.070   2.120   3.821 -1.1171  0.7522  0.9479
 1894SOL    HW3 7349   0.940   2.046   3.840  0.7062 -2.3388  2.1661
 1894SOL    MW4 7350   1.024   2.047   3.818 -0.2558  0.5805 -0.2970
 1895SOL     OW 7351   3.981   2.744   0.337  0.7815 -0.1464 -0.3639
 1895SOL    HW2 7352   4.075   2.731   0.348  0.5152 -0.0550  3.1343
 1895SOL    HW3 7353   3.956   2.802   0.410 -2.0290 -0.3480 -1.0398
 1895SOL    MW4 7354   3.990   2.750   0.348  0.0576  0.4788 -0.2229
 1896SOL     OW 7355   4.657   4.674   2.975 -0.1064 -0.1585  0.2453
 1896SOL    HW2 7356   4.603   4.616   2.921 -3.3257  1.1151  1.8246
 1896SOL    HW3 7357   4.689   4.617   3.046 -0.4938 -0.6867  0.0092
 1896SOL    MW4 7358   4.654   4.658   2.978 -0.5770 -0.1230 -0.1117
 1897SOL     OW 7359   4.021   3.102   5.301  0.0235  0.5766 -0.3755
 1897SOL    HW2 7360   3.967   3.032   5.264 -0.6271  0.9706 -0.1873
 1897SOL    HW3 7361   4.024   3.168   5.232 -1.0168  1.2212  0.1661
 1897SOL    MW4 7362   4.014   3.102   5.287 -0.1005  0.2414  0.3060
 1898SOL     OW 7363   0.712   0.991   5.239 -0.0189 -0.4904  0.2229
 1898SOL    HW2 7364   0.742   0.940   5.314  1.2942 -1.1844 -0.7270
 1898SOL    HW3 7365   0.738   0.939   5.163  1.2368  1.5139 -0.7971
 1898SOL    MW4 7366   0.719   0.977   5.239 -0.2129 -0.3224 -0.4113
 1899SOL     OW 7367   0.897   2.195   3.124  0.0598 -0.4994  0.0373
 1899SOL    HW2 7368   0.815   2.150   3.145 -0.2207 -0.3339 -0.6924
 1899SOL    HW3 7369   0.904   2.189   3.029  0.1621  0.7504 -0.0429
 1899SOL    MW4 7370   0.887   2.188   3.115 -0.2194 -0.1723 -0.2329
 1900SOL     OW 7371   2.138   0.048   3.278 -0.6976  0.7052  0.1916
 1900SOL    HW2 7372   2.161  -0.004   3.355 -0.2796  0.0555 -0.3560
 1900SOL    HW3 7373   2.051   0.015   3.253  0.2683 -0.9972 -1.1589
 1900SOL    MW4 7374   2.129   0.037   3.285 -0.5206  0.2878  0.1441
 1901SOL     OW 7375   2.238   1.841   6.336 -0.1537 -0.2709 -0.4285
 1901SOL    HW2 7376   2.241   1.772   6.271 -0.6664  0.2142 -0.9849
 1901SOL    HW3 7377   2.186   1.910   6.295 -1.3282 -0.3462  0.8569
 1901SOL    MW4 7378   2.231   1.841   6.322  0.4049 -0.1356 -0.2792
 1902SOL     OW 7379   3.360   3.538   4.225  1.1159 -0.4774 -0.0620
 1902SOL    HW2 7380   3.288   3.565   4.169  1.9174 -1.4268 -1.6144
 1902SOL    HW3 7381   3.359   3.600   4.298  0.9509  1.7429 -1.8670
 1902SOL    MW4 7382   3.350   3.550   4.227 -0.0354  0.4480 -0.5505
 1903SOL     OW 7383   3.880   6.270   2.154 -0.1416  0.5972  0.5358
 1903SOL    HW2 7384   3.974   6.267   2.136  0.2687 -1.8841  2.5625
 1903SOL    HW3 7385   3.844   6.191   2.113 -0.9491  0.4008  1.5620
 1903SOL    MW4 7386   3.887   6.259   2.147 -0.0820 -0.3326 -0.0704
 1904SOL     OW 7387   1.632   1.298   1.358  0.4384 -0.0842  0.5581
 1904SOL    HW2 7388   1.711   1.246   1.340  0.3482  0.2214 -0.8203
 1904SOL    HW3 7389   1.658   1.355   1.430  1.5429  0.1145  0.0332
 1904SOL    MW4 7390   1.646   1.299   1.365  0.1906  0.2759  0.3040
 1905SOL     OW 7391   6.276   4.890   4.956  0.4245 -0.1250 -0.0855
 1905SOL    HW2 7392   6.237   4.966   4.914  1.2931  0.6538  0.4943
 1905SOL    HW3 7393   6.252   4.899   5.049  2.8671  0.9973  0.5101
 1905SOL    MW4 7394   6.268   4.901   4.963  0.2379  0.1518 -0.1808
 1906SOL     OW 7395   5.149   2.954   6.459  0.3934 -0.3313 -0.2255
 1906SOL    HW2 7396   5.089   2.891   6.498 -0.3323 -0.2488 -1.1781
 1906SOL    HW3 7397   5.110   2.975   6.374  0.7445  1.2341 -0.0226
 1906SOL    MW4 7398   5.136   2.948   6.453  0.3458  0.5152 -0.0582
 1907SOL     OW 7399   3.144   6.177   2.693 -0.5123  0.2655  0.3304
 1907SOL    HW2 7400   3.210   6.228   2.645 -0.9716  0.4908 -0.0756
 1907SOL    HW3 7401   3.172   6.086   2.683 -0.6869  0.2934 -0.5209
 1907SOL    MW4 7402   3.156   6.172   2.685  0.0877  0.3701  0.4437
 1908SOL     OW 7403   0.858   5.684   5.696  0.0673 -0.4627 -0.2392
 1908SOL    HW2 7404   0.776   5.656   5.738 -0.1888  0.5332 -0.0640
 1908SOL    HW3 7405   0.889   5.756   5.750  0.5623 -0.2044 -0.8659
 1908SOL    MW4 7406   0.851   5.690   5.709  0.2812 -0.8340 -0.0276
 1909SOL     OW 7407   2.906   5.142   3.968  0.0340  0.1578 -0.5246
 1909SOL    HW2 7408   2.865   5.067   4.012  0.6109  0.6664  0.9703
 1909SOL    HW3 7409   2.903   5.120   3.875  0.7058 -1.9899 -0.1007
 1909SOL    MW4 7410   2.900   5.129   3.962 -0.1052  0.3215  0.1288
 1910SOL     OW 7411   2.604   1.908   3.889  0.4168 -0.1626 -0.0403
 1910SOL    HW2 7412   2.623   1.929   3.981  0.2044 -0.2382  0.0217
 1910SOL    HW3 7413   2.569   1.989   3.853 -0.0056 -0.2853  0.0880
 1910SOL    MW4 7414   2.602   1.921   3.897 -0.0641 -0.4008  0.2598
 1911SOL     OW 7415   2.869   1.186   3.332 -0.8545 -0.2929 -0.3824
 1911SOL    HW2 7416   2.834   1.262   3.379  1.9354  0.5355  0.5648
 1911SOL    HW3 7417   2.831   1.110   3.377 -1.1591  0.5299  0.7953
 1911SOL    MW4 7418   2.859   1.186   3.345 -0.1413 -0.3244  0.1113
 1912SOL     OW 7419   4.779   4.990   4.073 -0.0740  0.4758  0.5143
 1912SOL    HW2 7420   4.719   4.978   4.146 -0.0446 -0.0004  0.4653
 1912SOL    HW3 7421   4.728   4.968   3.995  0.2856 -0.4033  0.5092
 1912SOL    MW4 7422   4.765   4.986   4.072 -0.1377 -0.2986  0.5287
 1913SOL     OW 7423   1.161   1.137   2.221 -0.0725  0.6137 -0.2848
 1913SOL    HW2 7424   1.072   1.155   2.253 -0.0788 -2.0842  1.4992
 1913SOL    HW3 7425   1.147   1.084   2.142 -0.1223 -1.3963  1.0216
 1913SOL    MW4 7426   1.147   1.133   2.215  0.2932  0.1383  0.0620
 1914SOL     OW 7427   2.479   5.660   4.348  0.5015 -0.1724  0.7020
 1914SOL    HW2 7428   2.467   5.568   4.327  1.6667 -0.3659  0.8225
 1914SOL    HW3 7429   2.542   5.661   4.420 -0.8642  0.6466  1.9511
 1914SOL    MW4 7430   2.485   5.648   4.355  0.1176 -0.6112  0.1310
 1915SOL     OW 7431   2.567   4.811   4.845 -0.0085 -0.4575  0.0032
 1915SOL    HW2 7432   2.630   4.801   4.916 -1.6295 -0.6072  1.5116
 1915SOL    HW3 7433   2.563   4.906   4.830 -0.1795 -0.3548  0.6508
 1915SOL    MW4 7434   2.575   4.822   4.853 -0.5137  0.3050 -0.4676
 1916SOL     OW 7435   5.330   5.419   3.758  0.3239 -0.3079  0.0753
 1916SOL    HW2 7436   5.345   5.476   3.683  0.7683 -0.3240  0.1528
 1916SOL    HW3 7437   5.341   5.475   3.834 -1.0468 -0.0654  0.1270
 1916SOL    MW4 7438   5.333   5.434   3.758 -0.1935 -0.5044  0.4061
 1917SOL     OW 7439   0.024   2.931   5.673  0.0351 -0.1437 -0.2664
 1917SOL    HW2 7440   0.067   3.016   5.687 -0.1315 -0.1063  0.0308
 1917SOL    HW3 7441  -0.039   2.947   5.603  0.1036 -0.0555 -0.3073
 1917SOL    MW4 7442   0.022   2.944   5.666 -0.0789 -0.8754 -0.0649
 1918SOL     OW 7443   0.684   4.569   0.802 -0.3694 -0.5855  0.6439
 1918SOL    HW2 7444   0.775   4.546   0.821  0.6825  0.6432 -2.3446
 1918SOL    HW3 7445   0.643   4.487   0.776  0.2326 -0.9486  0.8250
 1918SOL    MW4 7446   0.690   4.555   0.801 -0.0204  0.1140 -0.1496
 1919SOL     OW 7447   2.991   1.527   3.309  0.4244 -0.2551  0.7081
 1919SOL    HW2 7448   3.071   1.476   3.294  0.6783  0.1200  0.7771
 1919SOL    HW3 7449   2.966   1.558   3.222 -0.1731 -1.1402  0.5467
 1919SOL    MW4 7450   2.998   1.524   3.295  0.0174  0.3052 -0.0860
 1920SOL     OW 7451   1.405   2.142   3.949 -0.3113  0.2504 -0.0153
 1920SOL    HW2 7452   1.418   2.216   3.890  0.7589  0.7116  0.7654
 1920SOL    HW3 7453   1.431   2.066   3.898  0.5186  0.6335 -0.1801
 1920SOL    MW4 7454   1.410   2.142   3.935 -0.1081  0.4662 -0.5783
 1921SOL     OW 7455   6.240   0.965   6.131 -0.1797  0.0348 -0.0179
 1921SOL    HW2 7456   6.180   0.928   6.066 -0.8862 -1.3230  1.3474
 1921SOL    HW3 7457   6.295   1.025   6.081 -2.3035  0.9247 -1.4152
 1921SOL    MW4 7458   6.239   0.968   6.116 -0.0796  0.5798  0.3553
 1922SOL     OW 7459   4.957   3.648   1.898 -0.1977  0.3087 -0.3018
 1922SOL    HW2 7460   4.955   3.582   1.968  0.9492 -1.1950 -1.6170
 1922SOL    HW3 7461   4.906   3.609   1.827 -2.2593  2.2702 -0.0039
 1922SOL    MW4 7462   4.950   3.634   1.898  0.4287 -0.2823  0.1306
 1923SOL     OW 7463   4.708   0.053   0.746 -0.1752 -0.4229 -0.2789
 1923SOL    HW2 7464   4.637   0.022   0.691 -0.7083 -0.6995  0.5374
 1923SOL    HW3 7465   4.689   0.146   0.760 -0.0128 -0.3415 -0.5953
 1923SOL    MW4 7466   4.697   0.061   0.741 -0.5749 -0.7920 -0.7050
 1924SOL     OW 7467   6.377   5.607   3.506  0.0707 -0.2055 -0.1853
 1924SOL    HW2 7468   6.309   5.542   3.488  1.0080 -0.9429 -1.2504
 1924SOL    HW3 7469   6.374   5.665   3.430 -0.3873  0.6853  0.4996
 1924SOL    MW4 7470   6.368   5.606   3.493  0.0558 -0.5256 -0.4560
 1925SOL     OW 7471   1.367   4.043   3.703 -0.0666  0.3737 -0.7073
 1925SOL    HW2 7472   1.445   4.079   3.662  0.2481  0.0760 -0.3778
 1925SOL    HW3 7473   1.397   4.011   3.788 -0.4594 -0.1151 -0.7453
 1925SOL    MW4 7474   1.381   4.043   3.709 -0.0481 -0.3127  0.6318
 1926SOL     OW 7475   4.407   1.434   6.224 -0.2669  0.3853  0.2024
 1926SOL    HW2 7476   4.471   1.448   6.155  0.3232  0.1919  0.7020
 1926SOL    HW3 7477   4.387   1.522   6.257  0.0628  0.4137  0.3290
 1926SOL    MW4 7478   4.413   1.447   6.219 -0.5718  0.3982 -0.2884
 1927SOL     OW 7479   4.280   5.048   0.728  0.3168 -0.5729  0.2375
 1927SOL    HW2 7480   4.314   5.042   0.639 -2.7454  0.5198 -1.1623
 1927SOL    HW3 7481   4.268   4.958   0.756 -0.5896 -0.9774 -1.3437
 1927SOL    MW4 7482   4.283   5.036   0.720  0.1875 -0.4698  0.0402
 1928SOL     OW 7483   4.056   5.320   5.121 -0.1315 -1.4250 -0.3973
 1928SOL    HW2 7484   4.130   5.371   5.152 -0.9300 -1.0916  1.0525
 1928SOL    HW3 7485   4.081   5.293   5.032  0.8435  0.4083 -0.7416
 1928SOL    MW4 7486   4.069   5.323   5.113  0.3774  0.0334 -0.0607
 1929SOL     OW 7487   0.568   1.990   1.724 -0.2496  0.1675 -0.8952
 1929SOL    HW2 7488   0.549   1.915   1.781 -0.3015  1.0919  0.3537
 1929SOL    HW3 7489   0.641   1.961   1.670 -0.7588 -1.0445 -0.9738
 1929SOL    MW4 7490   0.575   1.976   1.725 -0.9005  0.2067 -0.7787
 1930SOL     OW 7491   2.789   6.101   1.587  0.3900 -0.2327  1.1320
 1930SOL    HW2 7492   2.849   6.034   1.619  1.2573 -0.5598 -0.9955
 1930SOL    HW3 7493   2.823   6.183   1.622  1.4815 -0.5281  0.7818
 1930SOL    MW4 7494   2.801   6.103   1.596  0.4497  0.3932 -0.1621
 1931SOL     OW 7495   0.191   2.271   0.115 -0.2940 -0.2082 -0.7383
 1931SOL    HW2 7496   0.263   2.328   0.091 -0.2126  0.0092 -0.0075
 1931SOL    HW3 7497   0.225   2.218   0.187 -1.4327  1.2547  0.9803
 1931SOL    MW4 7498   0.205   2.272   0.121  0.7356 -0.0949  0.1117
 1932SOL     OW 7499   3.798   2.349   5.490 -0.2706 -0.1953  0.9543
 1932SOL    HW2 7500   3.866   2.303   5.539 -1.7571 -2.4620  1.0598
 1932SOL    HW3 7501   3.846   2.415   5.440  1.9285 -1.2435  1.5065
 1932SOL    MW4 7502   3.814   2.351   5.490 -0.0417 -0.2405  0.2936
 1933SOL     OW 7503   0.011   4.384   2.746  0.1724 -0.0137  0.7919
 1933SOL    HW2 7504  -0.072   4.397   2.700 -0.4692 -1.8997  1.3294
 1933SOL    HW3 7505   0.073   4.359   2.677  0.4160  1.7390  0.3389
 1933SOL    MW4 7506   0.008   4.382   2.731  0.5750  0.2774 -0.5013
 1934SOL     OW 7507   4.569   1.525   2.590 -0.2627 -0.7875  0.4480
 1934SOL    HW2 7508   4.542   1.472   2.515  0.8763 -2.9249  1.4811
 1934SOL    HW3 7509   4.496   1.518   2.652 -1.0726  0.7365 -0.2672
 1934SOL    MW4 7510   4.556   1.517   2.588 -0.1144  0.7501  0.0043
 1935SOL     OW 7511   2.849   3.291   2.738  0.3800 -0.4488  0.0032
 1935SOL    HW2 7512   2.911   3.242   2.684 -1.0527 -0.2147 -1.9628
 1935SOL    HW3 7513   2.763   3.267   2.704 -0.4602  1.9778  0.1951
 1935SOL    MW4 7514   2.846   3.281   2.726  0.0198  0.6673  0.6889
 1936SOL     OW 7515   5.500   3.803   5.825 -0.1048  0.0214  0.1253
 1936SOL    HW2 7516   5.482   3.867   5.757 -1.1238  0.6097  0.9154
 1936SOL    HW3 7517   5.414   3.774   5.854  0.3368 -1.3649  0.1134
 1936SOL    MW4 7518   5.486   3.808   5.820  0.0951  0.9280  0.8191
 1937SOL     OW 7519   5.501   3.696   0.664 -0.0643 -0.1567 -0.1770
 1937SOL    HW2 7520   5.436   3.672   0.597 -1.2151 -2.1347  1.5268
 1937SOL    HW3 7521   5.565   3.625   0.661  0.4006  0.2441  0.1716
 1937SOL    MW4 7522   5.501   3.683   0.655 -0.0623  0.8029  0.4563
 1938SOL     OW 7523   3.197   4.098   5.372  0.2664  0.5509 -0.1485
 1938SOL    HW2 7524   3.293   4.093   5.370  0.2334 -0.6559  0.0345
 1938SOL    HW3 7525   3.172   4.039   5.443 -0.6073  1.0879  0.0008
 1938SOL    MW4 7526   3.206   4.089   5.381  0.0405  0.3206 -0.1775
 1939SOL     OW 7527   1.099   5.813   1.958 -0.0116 -0.5281 -0.5773
 1939SOL    HW2 7528   1.075   5.827   2.050  1.2143 -1.7460 -0.0444
 1939SOL    HW3 7529   1.026   5.762   1.922 -1.9825  2.4211 -1.1738
 1939SOL    MW4 7530   1.086   5.808   1.965  0.5710  0.6118 -0.5209
 1940SOL     OW 7531   3.268   2.662   1.382 -0.5735  0.1897 -0.4741
 1940SOL    HW2 7532   3.328   2.690   1.451 -0.8242  2.6332 -1.1470
 1940SOL    HW3 7533   3.270   2.567   1.385  0.4418  0.2179  2.0042
 1940SOL    MW4 7534   3.276   2.653   1.392 -0.2895  0.4326 -0.2106
 1941SOL     OW 7535   1.320   5.010   0.520 -0.3613 -0.2473  0.5065
 1941SOL    HW2 7536   1.245   5.066   0.498 -1.0345 -1.5448 -0.7050
 1941SOL    HW3 7537   1.282   4.923   0.531  0.9518 -0.9219 -0.0687
 1941SOL    MW4 7538   1.305   5.006   0.519  0.1056  0.3615  0.0399
 1942SOL     OW 7539   1.835   3.485   0.187 -0.1413  0.4006 -0.5264
 1942SOL    HW2 7540   1.923   3.475   0.153  0.4437 -0.8042  1.1929
 1942SOL    HW3 7541   1.799   3.396   0.187 -0.6871  0.6035  0.4426
 1942SOL    MW4 7542   1.842   3.472   0.182 -0.3175  0.0095 -0.1228
 1943SOL     OW 7543   4.167   6.112   2.176  0.2918  0.4169 -1.2447
 1943SOL    HW2 7544   4.202   6.174   2.240  0.9969 -1.6413  0.4833
 1943SOL    HW3 7545   4.211   6.136   2.094  2.0880  0.9436 -0.1833
 1943SOL    MW4 7546   4.178   6.124   2.173 -0.0276 -0.6862 -0.6318
 1944SOL     OW 7547   5.104   1.204   0.292  0.3973 -0.2187 -0.1688
 1944SOL    HW2 7548   5.186   1.197   0.244  0.6976  0.1878  0.2810
 1944SOL    HW3 7549   5.048   1.259   0.237  0.7579  0.2882 -0.0284
 1944SOL    MW4 7550   5.107   1.210   0.279  0.3008  0.3893  0.5312
 1945SOL     OW 7551   5.414   2.523   3.176  0.5597  0.3879 -0.0313
 1945SOL    HW2 7552   5.377   2.563   3.254  1.1632 -0.5146  0.7331
 1945SOL    HW3 7553   5.492   2.575   3.157 -0.6429  1.8665 -1.2499
 1945SOL    MW4 7554   5.419   2.535   3.184  0.1779 -0.2235 -0.5403
 1946SOL     OW 7555   2.175   4.187   0.854  0.1686 -0.1285 -0.0545
 1946SOL    HW2 7556   2.246   4.206   0.792 -0.4935 -1.2919 -1.2240
 1946SOL    HW3 7557   2.103   4.159   0.799 -1.5141  1.7635  1.0366
 1946SOL    MW4 7558   2.175   4.186   0.839 -0.7075  0.4810  0.1578
 1947SOL     OW 7559   5.828   0.683   1.711  0.3239  0.2443 -0.1091
 1947SOL    HW2 7560   5.750   0.699   1.763  1.0644  2.5185  0.4454
 1947SOL    HW3 7561   5.800   0.698   1.621  0.1414  1.2558  0.1047
 1947SOL    MW4 7562   5.814   0.687   1.706  0.4936 -0.0695 -0.2069
 1948SOL     OW 7563   4.616   2.593   3.421  0.0650  0.1041  0.3320
 1948SOL    HW2 7564   4.670   2.514   3.420 -0.7819 -0.4999  0.0934
 1948SOL    HW3 7565   4.529   2.561   3.445 -0.4385  0.8698 -0.4219
 1948SOL    MW4 7566   4.611   2.578   3.424  0.1326 -0.2658  0.0004
 1949SOL     OW 7567   3.338   2.574   4.918  0.1744  0.4291  0.2046
 1949SOL    HW2 7568   3.247   2.551   4.900 -0.8524  0.9198  3.9677
 1949SOL    HW3 7569   3.340   2.670   4.914  0.7049  0.3901 -0.5298
 1949SOL    MW4 7570   3.326   2.584   4.915 -0.0126 -0.1745  0.6548
 1950SOL     OW 7571   5.899   0.544   0.599  0.0309  0.2108  0.0490
 1950SOL    HW2 7572   5.956   0.468   0.607  0.2086  0.5339  3.2384
 1950SOL    HW3 7573   5.958   0.618   0.588 -0.0422  0.1029 -1.1413
 1950SOL    MW4 7574   5.914   0.543   0.599 -0.3048 -0.0300  0.4440
 1951SOL     OW 7575   0.623   0.742   4.210 -0.0001 -0.2843  0.5365
 1951SOL    HW2 7576   0.533   0.742   4.177  0.1574  0.0109  0.1033
 1951SOL    HW3 7577   0.636   0.653   4.242  0.2294 -0.9455 -1.2833
 1951SOL    MW4 7578   0.613   0.730   4.210 -0.3712  0.1509  0.1738
 1952SOL     OW 7579   5.207   1.881   2.080  0.4150  0.0229  0.3762
 1952SOL    HW2 7580   5.115   1.876   2.105  0.3230  1.7499  0.4879
 1952SOL    HW3 7581   5.210   1.847   1.990 -0.2980 -0.1947  0.4336
 1952SOL    MW4 7582   5.195   1.876   2.071 -0.2813  0.8658  0.0020
 1953SOL     OW 7583   4.224   5.115   1.171 -0.1589  0.1118 -0.6523
 1953SOL    HW2 7584   4.177   5.100   1.090 -1.1892  3.1266 -0.7477
 1953SOL    HW3 7585   4.316   5.103   1.148 -0.5794 -1.8326 -1.4918
 1953SOL    MW4 7586   4.230   5.112   1.157 -0.3393 -0.5737 -1.2982
 1954SOL     OW 7587   5.172   5.395   2.396 -0.2769  0.2679 -0.2495
 1954SOL    HW2 7588   5.221   5.468   2.358 -1.1300  0.6689 -0.6186
 1954SOL    HW3 7589   5.149   5.424   2.484  1.3002 -0.4748  0.4507
 1954SOL    MW4 7590   5.176   5.408   2.403  1.0739  0.2458 -0.6376
 1955SOL     OW 7591   3.072   2.641   4.926 -0.6477 -0.3834 -0.4139
 1955SOL    HW2 7592   3.082   2.736   4.932  0.9822 -0.5376 -0.1645
 1955SOL    HW3 7593   3.041   2.614   5.013  0.5133 -0.2174  0.0828
 1955SOL    MW4 7594   3.070   2.650   4.939  0.1987  0.1278 -0.1957
 1956SOL     OW 7595   3.011   2.859   0.621  0.4192  0.1001 -0.3820
 1956SOL    HW2 7596   3.104   2.869   0.599  0.8782  0.9968  1.6833
 1956SOL    HW3 7597   3.007   2.777   0.670  0.3994  0.7010  0.6608
 1956SOL    MW4 7598   3.023   2.850   0.624 -0.3722  0.6159  0.2403
 1957SOL     OW 7599   3.139   2.473   2.242 -0.0816 -0.0809 -0.2899
 1957SOL    HW2 7600   3.105   2.450   2.156 -0.5319  1.8815 -0.6956
 1957SOL    HW3 7601   3.168   2.564   2.232  4.1892 -1.1504  0.3710
 1957SOL    MW4 7602   3.138   2.482   2.229 -0.1932  0.1816  1.2031
 1958SOL     OW 7603   0.395   2.349   1.956  0.7175  0.1208 -0.0467
 1958SOL    HW2 7604   0.343   2.421   1.921 -1.9799 -1.5939  0.2022
 1958SOL    HW3 7605   0.430   2.305   1.879  1.9900  1.3497 -0.2139
 1958SOL    MW4 7606   0.393   2.353   1.941 -0.5347 -0.3212  0.3429
 1959SOL     OW 7607   0.639   0.936   3.827 -0.4095 -0.5402  0.4192
 1959SOL    HW2 7608   0.693   0.961   3.752  0.1145 -2.1757  0.2138
 1959SOL    HW3 7609   0.606   1.020   3.862  1.2296  0.4081 -0.1984
 1959SOL    MW4 7610   0.642   0.951   3.821  0.4352  1.2853 -0.1113
 1960SOL     OW 7611   3.725   5.726   1.449  0.5804  0.1099  0.2858
 1960SOL    HW2 7612   3.660   5.659   1.428 -0.2889  1.5107 -1.8434
 1960SOL    HW3 7613   3.794   5.679   1.495 -1.1002 -1.7641  1.0537
 1960SOL    MW4 7614   3.725   5.711   1.453  0.0622  0.7708  0.5615
 1961SOL     OW 7615   4.054   3.309   4.350 -0.2381 -0.1814 -0.0612
 1961SOL    HW2 7616   4.060   3.343   4.261 -1.2490 -0.6751 -0.3219
 1961SOL    HW3 7617   4.034   3.216   4.339 -1.7320  0.0276  0.6798
 1961SOL    MW4 7618   4.052   3.301   4.337  0.2612 -0.2072 -0.2723
 1962SOL     OW 7619   4.162   1.136   3.418  0.1236 -0.5779  0.2771
 1962SOL    HW2 7620   4.157   1.095   3.331  0.0769 -1.5969  0.7452
 1962SOL    HW3 7621   4.229   1.085   3.464  1.0615  0.7355  0.4484
 1962SOL    MW4 7622   4.170   1.124   3.412 -0.2541 -0.0289  0.0769
 1963SOL     OW 7623   1.693   1.185   3.962 -0.0903  0.0558 -0.1581
 1963SOL    HW2 7624   1.716   1.174   4.054 -1.5634 -1.4005  0.0679
 1963SOL    HW3 7625   1.632   1.259   3.961  0.3057  0.3854 -0.0366
 1963SOL    MW4 7626   1.688   1.194   3.974  0.2289 -0.1379 -0.1647
 1964SOL     OW 7627   0.063   2.337   2.423 -0.2064 -0.3265 -0.3263
 1964SOL    HW2 7628   0.084   2.247   2.449  0.7158 -0.3228 -1.0020
 1964SOL    HW3 7629  -0.025   2.331   2.386  1.2603 -1.7768 -4.0290
 1964SOL    MW4 7630   0.054   2.324   2.421  0.4879 -0.2439  0.3270
 1965SOL     OW 7631   1.109   2.142   3.523 -0.2416 -0.0443  0.1096
 1965SOL    HW2 7632   1.073   2.160   3.610 -2.4426 -0.0452 -0.7260
 1965SOL    HW3 7633   1.084   2.218   3.471  0.5767 -0.2877 -0.6589
 1965SOL    MW4 7634   1.101   2.154   3.527 -0.2028  0.0334 -0.5144
 1966SOL     OW 7635   3.265   1.913   5.059 -0.6365 -1.1355 -0.5268
 1966SOL    HW2 7636   3.303   1.973   5.123 -1.4712 -0.4622 -0.6490
 1966SOL    HW3 7637   3.341   1.870   5.019  0.0629  0.6179 -1.1994
 1966SOL    MW4 7638   3.280   1.915   5.062 -0.8372 -0.4320  0.0356
 1967SOL     OW 7639   3.798   3.993   5.133 -0.0377  0.4705 -0.4645
 1967SOL    HW2 7640   3.702   3.995   5.138 -0.0743 -0.5951 -0.4919
 1967SOL    HW3 7641   3.819   4.048   5.056 -0.5323  1.6890  0.2409
 1967SOL    MW4 7642   3.788   4.001   5.123  0.9128  0.2940 -0.1629
 1968SOL     OW 7643   2.820   3.835   6.219 -0.0810 -0.2408 -0.2448
 1968SOL    HW2 7644   2.846   3.832   6.127  0.3538 -3.1742 -0.1354
 1968SOL    HW3 7645   2.728   3.809   6.219 -0.3288  0.5909  0.1175
 1968SOL    MW4 7646   2.812   3.831   6.207  0.0507  0.3538 -0.2268
 1969SOL     OW 7647   6.292   3.429   6.121 -0.0034 -0.1996  0.6564
 1969SOL    HW2 7648   6.363   3.494   6.116 -0.6522  0.5031  0.2794
 1969SOL    HW3 7649   6.222   3.474   6.168 -0.0007 -1.0942  1.5533
 1969SOL    MW4 7650   6.292   3.444   6.126 -0.6463  0.5810 -0.7153
 1970SOL     OW 7651   0.545   2.657   0.990  0.1711  0.0575 -0.3033
 1970SOL    HW2 7652   0.499   2.589   0.941  0.1648 -0.2142  0.0738
 1970SOL    HW3 7653   0.485   2.679   1.061 -0.2186  1.1032 -0.9399
 1970SOL    MW4 7654   0.531   2.651   0.993 -0.2639 -0.5862  0.2312
 1971SOL     OW 7655   4.436   4.670   0.563  0.1786  0.5128  0.9183
 1971SOL    HW2 7656   4.523   4.689   0.528  0.3653 -1.4527  0.1360
 1971SOL    HW3 7657   4.376   4.701   0.496  0.4827 -1.7062 -0.5039
 1971SOL    MW4 7658   4.440   4.676   0.549  0.6592 -0.5710  0.4103
 1972SOL     OW 7659   3.457   3.534   5.792  0.4134  0.3969 -0.1636
 1972SOL    HW2 7660   3.548   3.542   5.820  0.8723  0.2707 -1.5265
 1972SOL    HW3 7661   3.462   3.505   5.701 -1.0126 -0.4355 -0.0107
 1972SOL    MW4 7662   3.469   3.531   5.784 -0.3186 -0.4730  0.6548
 1973SOL     OW 7663   2.973  -0.004   5.250 -0.0868 -0.2670  0.0107
 1973SOL    HW2 7664   3.066   0.001   5.231 -0.4229  0.8590 -1.5539
 1973SOL    HW3 7665   2.948   0.087   5.268 -1.2713 -0.2035 -1.7496
 1973SOL    MW4 7666   2.982   0.009   5.250 -0.1591  0.2842  0.1141
 1974SOL     OW 7667   2.600   0.840   5.411 -0.0358  0.1135  0.0969
 1974SOL    HW2 7668   2.511   0.819   5.439  0.0206 -0.8073 -0.3723
 1974SOL    HW3 7669   2.625   0.916   5.463 -1.1767  0.5155  0.0783
 1974SOL    MW4 7670   2.591   0.847   5.421 -0.1484  0.3808 -0.5258
 1975SOL     OW 7671   5.859   2.545   4.373 -0.1724 -0.1553 -0.3040
 1975SOL    HW2 7672   5.882   2.550   4.280 -0.9746 -1.5703 -0.6107
 1975SOL    HW3 7673   5.943   2.537   4.418  0.3903  2.5714 -0.6757
 1975SOL    MW4 7674   5.873   2.545   4.367 -0.1200 -0.7663  0.1200
 1976SOL     OW 7675   0.417   1.651   3.535 -0.4360  0.0673  0.4462
 1976SOL    HW2 7676   0.509   1.629   3.521 -0.3553  1.2156 -1.0667
 1976SOL    HW3 7677   0.369   1.592   3.478 -0.5702  0.1915  0.4306
 1976SOL    MW4 7678   0.423   1.640   3.526 -0.3123 -0.2194  0.2852
 1977SOL     OW 7679   1.769   6.078   2.888  0.4000 -0.1463  0.2205
 1977SOL    HW2 7680   1.844   6.019   2.889 -0.2421 -0.9958 -0.2458
 1977SOL    HW3 7681   1.703   6.032   2.837 -0.4712  0.5548  0.6806
 1977SOL    MW4 7682   1.770   6.064   2.881 -0.0535 -0.2863 -0.3472
 1978SOL     OW 7683   1.220   4.612   0.332 -0.2387  0.0605  0.5295
 1978SOL    HW2 7684   1.304   4.642   0.298  0.1703  0.3682  1.7879
 1978SOL    HW3 7685   1.155   4.653   0.274  0.4588 -0.0168 -0.3239
 1978SOL    MW4 7686   1.222   4.621   0.320 -0.5519  0.3584  0.2827
 1979SOL     OW 7687   2.649   1.905   5.617  0.0911 -0.1381 -0.0242
 1979SOL    HW2 7688   2.726   1.944   5.658 -0.7350  0.4355  1.0256
 1979SOL    HW3 7689   2.598   1.979   5.585 -1.0145 -0.3643  1.1263
 1979SOL    MW4 7690   2.653   1.920   5.619 -0.4032 -0.7161 -0.5410
 1980SOL     OW 7691   5.241   3.360   3.493 -0.5386  0.0116  0.6555
 1980SOL    HW2 7692   5.313   3.414   3.525 -0.8924  0.8260  0.0947
 1980SOL    HW3 7693   5.180   3.422   3.453 -1.4590 -0.6883  0.9444
 1980SOL    MW4 7694   5.243   3.375   3.492  0.0644 -0.1438  0.6760
 1981SOL     OW 7695   1.073   3.268   0.650  0.0957  0.6048 -0.2117
 1981SOL    HW2 7696   1.058   3.361   0.665 -0.6673  0.3877  0.4293
 1981SOL    HW3 7697   0.989   3.234   0.618  0.9516  0.5348 -2.5988
 1981SOL    MW4 7698   1.060   3.276   0.648  0.4209  0.0049  0.2550
 1982SOL     OW 7699   1.136   0.523   4.520  0.0622  0.7205 -0.3052
 1982SOL    HW2 7700   1.225   0.491   4.531 -0.1772 -0.1382 -0.8118
 1982SOL    HW3 7701   1.143   0.592   4.454  0.5526  1.6758  0.6925
 1982SOL    MW4 7702   1.148   0.528   4.513  0.2263  0.1244  0.1661
 1983SOL     OW 7703   0.439   3.266   1.020 -0.4489 -0.0748  0.3427
 1983SOL    HW2 7704   0.494   3.343   1.029 -0.9703  0.5965 -1.7269
 1983SOL    HW3 7705   0.367   3.294   0.964 -2.8165 -0.9946  2.7194
 1983SOL    MW4 7706   0.437   3.280   1.013 -0.3645  0.1513  0.8350
 1984SOL     OW 7707   3.351   5.245   0.193 -0.4616  0.2942  0.3671
 1984SOL    HW2 7708   3.310   5.243   0.280 -1.9471 -0.8812 -0.3254
 1984SOL    HW3 7709   3.303   5.313   0.146 -0.4540  0.1063  0.0894
 1984SOL    MW4 7710   3.339   5.254   0.198  0.7459  0.6328 -0.4850
 1985SOL     OW 7711   4.902   1.007   5.052 -0.0221 -0.4988  0.3709
 1985SOL    HW2 7712   4.846   0.930   5.038 -0.8751 -0.2601  2.1551
 1985SOL    HW3 7713   4.844   1.081   5.034  0.7457 -0.2221 -1.1533
 1985SOL    MW4 7714   4.887   1.006   5.048  0.3298 -0.6724  0.6060
 1986SOL     OW 7715   5.183   3.758   4.626  0.1054  0.0241 -0.1768
 1986SOL    HW2 7716   5.193   3.780   4.534 -0.3088 -0.6156 -0.3772
 1986SOL    HW3 7717   5.142   3.671   4.626  3.2249 -1.6178  0.5554
 1986SOL    MW4 7718   5.179   3.749   4.614  0.8657 -1.1825  0.1322
 1987SOL     OW 7719   1.613   2.459   1.849  0.1660  0.0005  0.1457
 1987SOL    HW2 7720   1.535   2.440   1.901 -0.5547  1.7866 -0.1908
 1987SOL    HW3 7721   1.579   2.481   1.762  1.1431 -0.3091 -0.3263
 1987SOL    MW4 7722   1.598   2.459   1.844  0.0695  0.0846 -0.0107
 1988SOL     OW 7723   0.214   4.060   2.672  0.2079  0.4438  0.3524
 1988SOL    HW2 7724   0.254   4.147   2.679  2.0169 -0.2574 -0.5054
 1988SOL    HW3 7725   0.184   4.040   2.760  1.4324  1.1946  0.9741
 1988SOL    MW4 7726   0.215   4.069   2.684 -0.2422  0.6626  0.0759
 1989SOL     OW 7727   2.660   1.095   1.260 -0.0054 -0.1653  0.3181
 1989SOL    HW2 7728   2.618   1.167   1.307  0.0779 -0.0410  0.2034
 1989SOL    HW3 7729   2.587   1.042   1.228 -0.0688 -1.6290  2.6509
 1989SOL    MW4 7730   2.645   1.098   1.262  0.1435  0.7724  0.1987
 1990SOL     OW 7731   2.934   1.665   2.101  0.1888 -0.5372 -0.1079
 1990SOL    HW2 7732   2.949   1.679   2.008  0.8556  0.5556  0.1501
 1990SOL    HW3 7733   2.839   1.655   2.109 -0.0630  1.0536 -0.7054
 1990SOL    MW4 7734   2.923   1.665   2.090  0.1993 -0.3630 -0.0030
 1991SOL     OW 7735   4.183   2.140   3.266 -0.3745 -0.2907  0.6145
 1991SOL    HW2 7736   4.222   2.054   3.252  0.2571 -0.0043  0.6211
 1991SOL    HW3 7737   4.250   2.191   3.311 -1.0878 -0.0854  1.4995
 1991SOL    MW4 7738   4.197   2.135   3.270 -0.5912 -0.0720  0.0879
 1992SOL     OW 7739   3.465   0.140   6.160  0.1111  0.3041 -0.1806
 1992SOL    HW2 7740   3.462   0.049   6.190 -1.9742  0.6272  0.7516
 1992SOL    HW3 7741   3.544   0.145   6.106 -0.0647 -2.2147 -0.7775
 1992SOL    MW4 7742   3.475   0.129   6.157  0.1554 -0.1878 -0.1912
 1993SOL     OW 7743   0.060   6.172   2.722  0.0277  0.4420 -0.1902
 1993SOL    HW2 7744   0.074   6.161   2.816  0.5578  2.6152  0.0408
 1993SOL    HW3 7745  -0.004   6.105   2.699  0.4866 -0.6484  1.5541
 1993SOL    MW4 7746   0.053   6.162   2.731  0.6616 -0.6489  0.1530
 1994SOL     OW 7747   4.507   5.142   0.845  0.0364 -0.3747  0.4362
 1994SOL    HW2 7748   4.507   5.141   0.940 -0.2945 -1.2694  0.4374
 1994SOL    HW3 7749   4.416   5.122   0.821 -0.3420  1.7341 -0.0769
 1994SOL    MW4 7750   4.495   5.139   0.854 -0.5319 -0.2804 -0.6219
 1995SOL     OW 7751   3.762   0.849   4.288  0.0430 -0.2374 -0.1312
 1995SOL    HW2 7752   3.718   0.856   4.204  3.0539 -0.6357 -1.8746
 1995SOL    HW3 7753   3.813   0.768   4.283  0.5763 -0.1028  1.9543
 1995SOL    MW4 7754   3.763   0.839   4.276  0.6989 -0.9309 -0.9807
 1996SOL     OW 7755   1.967   6.378   4.809 -0.4085  0.2834  0.1448
 1996SOL    HW2 7756   1.991   6.351   4.898  1.1190  0.4886 -0.1745
 1996SOL    HW3 7757   1.966   6.296   4.760  1.8297  0.4657 -0.2946
 1996SOL    MW4 7758   1.970   6.363   4.814  0.2115  0.1100  0.4602
 1997SOL     OW 7759   5.445   1.491   5.775  0.0827 -0.4860 -0.0622
 1997SOL    HW2 7760   5.500   1.438   5.718  0.5555 -1.3553  1.1746
 1997SOL    HW3 7761   5.363   1.501   5.726  0.0114 -2.2577 -0.3751
 1997SOL    MW4 7762   5.441   1.486   5.761 -0.4982 -0.9121 -0.0681
 1998SOL     OW 7763   4.645   4.085   5.821  0.5829 -0.6596 -0.2198
 1998SOL    HW2 7764   4.671   4.121   5.736  0.7933  1.0054  0.5227
 1998SOL    HW3 7765   4.709   4.120   5.883 -0.6795 -0.3078  0.9336
 1998SOL    MW4 7766   4.657   4.094   5.818 -0.3089 -0.1098 -0.4005
 1999SOL     OW 7767   2.885   5.083   1.295 -0.0745 -0.2453  0.3222
 1999SOL    HW2 7768   2.811   5.087   1.235 -0.6859  3.1700  1.0429
 1999SOL    HW3 7769   2.961   5.106   1.242 -0.1168 -0.3431  0.2217
 1999SOL    MW4 7770   2.885   5.087   1.280  0.1871  0.0697  0.3602
 2000SOL     OW 7771   6.255   0.173   3.039 -0.2799 -0.4507  0.4027
 2000SOL    HW2 7772   6.320   0.133   2.981 -0.6193 -0.7709  0.2382
 2000SOL    HW3 7773   6.241   0.261   3.002 -0.0268 -0.4218  0.3728
 2000SOL    MW4 7774   6.262   0.179   3.027  0.4077 -0.0670  0.3315
 2001SOL     OW 7775   0.334   3.474   4.668 -0.3138  0.5629 -0.3741
 2001SOL    HW2 7776   0.368   3.553   4.710 -0.4159  0.9159 -0.9421
 2001SOL    HW3 7777   0.267   3.441   4.728  1.8824 -0.9147  1.4600
 2001SOL    MW4 7778   0.329   3.480   4.681 -0.6784  0.6274 -0.8811
 2002SOL     OW 7779   4.135   5.311   1.354  0.1213 -0.0907 -0.0530
 2002SOL    HW2 7780   4.158   5.268   1.272 -0.8127  1.1737 -1.0231
 2002SOL    HW3 7781   4.166   5.401   1.343 -1.0278  0.3907  0.4909
 2002SOL    MW4 7782   4.142   5.318   1.342  0.0321 -0.2679  0.0757
 2003SOL     OW 7783   2.703   4.678   3.967  0.1369 -0.1227  0.0582
 2003SOL    HW2 7784   2.676   4.632   3.888  0.6473  0.7628 -0.6698
 2003SOL    HW3 7785   2.731   4.609   4.027  0.7163 -0.7777 -0.9248
 2003SOL    MW4 7786   2.703   4.663   3.964  0.2005 -0.6043 -0.7449
 2004SOL     OW 7787   1.343   6.338   5.095  0.2612 -0.0582 -0.1031
 2004SOL    HW2 7788   1.398   6.322   5.019 -0.8680 -2.4641 -0.4783
 2004SOL    HW3 7789   1.317   6.251   5.125  0.8143  0.7722  3.1791
 2004SOL    MW4 7790   1.347   6.325   5.089 -0.8389 -0.1325 -0.1035
 2005SOL     OW 7791   0.646   4.681   4.801  0.2289  0.2080 -0.1390
 2005SOL    HW2 7792   0.583   4.609   4.795 -0.7654  1.0956 -0.9994
 2005SOL    HW3 7793   0.630   4.720   4.887 -0.4252  0.4343 -0.3561
 2005SOL    MW4 7794   0.635   4.677   4.811  0.1552 -0.3659 -0.8176
 2006SOL     OW 7795   2.067   1.712   0.079 -0.5788  0.4579 -0.7066
 2006SOL    HW2 7796   2.128   1.759   0.021  1.7723 -0.7296  0.6546
 2006SOL    HW3 7797   2.062   1.624   0.042  0.0311  0.0242  0.2082
 2006SOL    MW4 7798   2.074   1.707   0.067  0.4911  0.2183 -0.3909
 2007SOL     OW 7799   1.729   1.308   0.448 -0.3156  0.8947  0.0133
 2007SOL    HW2 7800   1.641   1.299   0.411  0.0957 -3.1610 -0.5200
 2007SOL    HW3 7801   1.783   1.336   0.375 -0.5866 -0.5720 -0.7948
 2007SOL    MW4 7802   1.724   1.310   0.433  0.0888  0.6187 -0.0309
 2008SOL     OW 7803   0.988   2.510   0.684  0.3532 -0.0974  0.0978
 2008SOL    HW2 7804   1.066   2.459   0.707 -0.4654 -1.0599  0.8301
 2008SOL    HW3 7805   0.997   2.590   0.736  0.2247 -0.7794  1.2228
 2008SOL    MW4 7806   0.999   2.514   0.694  0.1367 -0.1977 -0.1055
 2009SOL     OW 7807   2.532   2.791   0.222  0.3843  0.1614  0.1544
 2009SOL    HW2 7808   2.521   2.732   0.296 -0.0583  0.5266  0.3829
 2009SOL    HW3 7809   2.570   2.736   0.153  1.1714 -0.0831  0.7770
 2009SOL    MW4 7810   2.536   2.776   0.223 -0.4262 -0.3507  0.2062
 2010SOL     OW 7811   0.386   5.373   2.063 -0.8248 -0.3990  0.4457
 2010SOL    HW2 7812   0.418   5.286   2.089 -1.6676 -0.7463  0.3603
 2010SOL    HW3 7813   0.324   5.355   1.993  1.8339  0.5563 -2.3346
 2010SOL    MW4 7814   0.382   5.359   2.057 -0.2583  0.7800  0.7999
 2011SOL     OW 7815   2.981   0.067   0.484 -0.2950 -0.1862 -0.3292
 2011SOL    HW2 7816   2.987   0.160   0.506 -0.6069 -0.5147  1.2964
 2011SOL    HW3 7817   2.895   0.058   0.442  0.0073  0.3442 -1.0925
 2011SOL    MW4 7818   2.970   0.078   0.481 -0.0657  0.3286  0.1224
 2012SOL     OW 7819   0.082   0.234   0.851  0.4960  0.3289  0.0150
 2012SOL    HW2 7820  -0.003   0.277   0.842 -0.0121 -0.7667 -0.4998
 2012SOL    HW3 7821   0.078   0.187   0.934  0.9059  0.9253  0.3823
 2012SOL    MW4 7822   0.070   0.234   0.860 -0.3468  0.4949  0.0837
 2013SOL     OW 7823   1.084   4.466   1.248 -0.1340  0.1227 -0.4913
 2013SOL    HW2 7824   1.070   4.459   1.343 -0.2761 -0.3697 -0.5433
 2013SOL    HW3 7825   1.081   4.375   1.217  0.6657  0.2179 -0.8670
 2013SOL    MW4 7826   1.081   4.453   1.256  0.0610 -0.1812  0.5661
 2014SOL     OW 7827   5.619   2.485   1.097 -0.1368  0.3901 -0.2928
 2014SOL    HW2 7828   5.596   2.394   1.116  1.3715  0.0475  0.0428
 2014SOL    HW3 7829   5.545   2.519   1.047 -1.0868 -0.7739  0.2673
 2014SOL    MW4 7830   5.606   2.477   1.093  0.4164 -0.7470 -0.2348
 2015SOL     OW 7831   0.430   1.225   3.409 -0.2620 -0.1956 -0.2056
 2015SOL    HW2 7832   0.386   1.304   3.375 -0.9173 -0.4619 -0.0007
 2015SOL    HW3 7833   0.467   1.253   3.492 -0.2919 -0.0392 -0.2428
 2015SOL    MW4 7834   0.429   1.239   3.415  0.1715 -0.3390 -0.4426
 2016SOL     OW 7835   0.924   3.646   0.969  0.0645 -0.1067 -0.2346
 2016SOL    HW2 7836   0.951   3.563   0.931  0.5781 -0.4895  0.9154
 2016SOL    HW3 7837   0.917   3.706   0.895  1.5102 -0.6863 -0.8771
 2016SOL    MW4 7838   0.927   3.643   0.954  0.1345  0.3684 -0.3843
 2017SOL     OW 7839   2.145   1.932   3.834  0.2140 -1.0466  0.3483
 2017SOL    HW2 7840   2.196   1.856   3.806 -1.3695 -2.2366  0.5499
 2017SOL    HW3 7841   2.062   1.896   3.864 -0.5811  0.7756  0.5047
 2017SOL    MW4 7842   2.141   1.917   3.834 -0.1549  0.3023  0.4784
 2018SOL     OW 7843   4.494   6.012   1.743 -0.1354 -0.1352 -0.3367
 2018SOL    HW2 7844   4.444   5.970   1.674 -0.1775 -0.4499 -0.1165
 2018SOL    HW3 7845   4.510   5.943   1.807  1.7013 -0.3668 -0.9966
 2018SOL    MW4 7846   4.490   5.998   1.743  0.2605 -0.1990  0.7150
 2019SOL     OW 7847   1.288   5.627   1.857  0.9109  0.0471 -0.1373
 2019SOL    HW2 7848   1.356   5.678   1.900  1.7531  0.4571 -1.8470
 2019SOL    HW3 7849   1.206   5.659   1.893  1.5426  0.8996  0.5668
 2019SOL    MW4 7850   1.286   5.638   1.867  0.1725  0.3305 -0.4541
 2020SOL     OW 7851   1.432   3.209   5.699 -0.0109 -0.2101  0.7416
 2020SOL    HW2 7852   1.410   3.125   5.739 -3.4354 -1.0422 -2.3040
 2020SOL    HW3 7853   1.361   3.268   5.727  1.8661  1.5375  2.1244
 2020SOL    MW4 7854   1.420   3.206   5.708  0.3346  0.0105 -0.6165
 2021SOL     OW 7855   6.407   2.560   5.897  0.5860  0.2525 -0.0512
 2021SOL    HW2 7856   6.428   2.646   5.934  1.6773 -0.9815  2.4470
 2021SOL    HW3 7857   6.467   2.549   5.824  1.0527  1.2469  0.1681
 2021SOL    MW4 7858   6.418   2.570   5.892 -0.3357 -0.7982  0.3201
 2022SOL     OW 7859   4.012   4.053   4.601 -0.8914 -0.1141  0.2781
 2022SOL    HW2 7860   4.085   4.100   4.641  0.7401 -0.7745 -1.7674
 2022SOL    HW3 7861   4.015   3.966   4.641 -0.4268 -0.1887  0.0946
 2022SOL    MW4 7862   4.022   4.047   4.612 -0.1490  0.2386  0.6339
 2023SOL     OW 7863   4.478   3.270   1.179 -0.1657 -0.4177 -0.0279
 2023SOL    HW2 7864   4.536   3.339   1.212 -1.5794  0.3959  0.8582
 2023SOL    HW3 7865   4.493   3.269   1.085  1.7592 -0.7027  0.2317
 2023SOL    MW4 7866   4.488   3.279   1.171  0.4822  0.0898 -0.0027
 2024SOL     OW 7867   5.087   4.097   5.961  0.0033 -0.1292  0.2519
 2024SOL    HW2 7868   5.117   4.139   6.041  1.9900 -1.0975  0.0740
 2024SOL    HW3 7869   5.096   4.164   5.894 -0.4078  0.2864  0.6096
 2024SOL    MW4 7870   5.092   4.111   5.963 -0.1732  0.7402 -0.9238
 2025SOL     OW 7871   5.752   6.222   3.471  0.5341  0.3926  0.9284
 2025SOL    HW2 7872   5.845   6.220   3.492  0.4458  2.1021  1.6056
 2025SOL    HW3 7873   5.742   6.293   3.408 -0.1077 -0.8257 -0.4166
 2025SOL    MW4 7874   5.763   6.231   3.465  0.2742 -0.2177  0.0649
 2026SOL     OW 7875   4.017   0.043   4.456  0.4482 -0.5837 -0.6363
 2026SOL    HW2 7876   4.014   0.131   4.494  0.6262 -0.0713 -1.7651
 2026SOL    HW3 7877   3.994   0.056   4.364 -0.9653 -1.9321 -0.5068
 2026SOL    MW4 7878   4.014   0.056   4.449  0.2428 -0.3766 -0.3399
 2027SOL     OW 7879   5.627   2.918   1.255  0.1405  0.5884  0.2456
 2027SOL    HW2 7880   5.599   2.861   1.183  0.5864 -0.8531  1.1690
 2027SOL    HW3 7881   5.722   2.925   1.245  0.7096 -2.1258  2.3028
 2027SOL    MW4 7882   5.636   2.911   1.245 -0.0618  0.1294  0.7736
 2028SOL     OW 7883   1.244   3.439   2.879 -0.3295  0.1996  0.5470
 2028SOL    HW2 7884   1.324   3.435   2.826 -0.3708  2.7740  0.1579
 2028SOL    HW3 7885   1.272   3.412   2.967  0.7970  0.2809  0.2296
 2028SOL    MW4 7886   1.258   3.435   2.884 -0.2828  0.0427  0.2137
 2029SOL     OW 7887   4.439   0.438   3.611 -0.5660  0.9697  0.0880
 2029SOL    HW2 7888   4.494   0.473   3.681 -0.0005  0.7630 -0.2518
 2029SOL    HW3 7889   4.461   0.345   3.608 -1.1527  0.8261  0.1490
 2029SOL    MW4 7890   4.449   0.430   3.620 -0.6747  0.0508  0.3582
 2030SOL     OW 7891   4.399   3.439   3.764  0.2896 -0.6508  0.3224
 2030SOL    HW2 7892   4.420   3.532   3.757 -1.2104 -0.3307 -0.4039
 2030SOL    HW3 7893   4.438   3.400   3.685 -0.8614 -0.2475 -0.4737
 2030SOL    MW4 7894   4.407   3.447   3.752 -0.1535  0.1424  0.0437
 2031SOL     OW 7895   2.307   4.116   4.604 -0.4952  0.0935 -0.4077
 2031SOL    HW2 7896   2.213   4.108   4.621 -0.4982  0.9934  0.0347
 2031SOL    HW3 7897   2.329   4.037   4.554 -1.3628 -0.4297  0.0173
 2031SOL    MW4 7898   2.298   4.104   4.600 -0.0463 -0.4781 -0.0783
 2032SOL     OW 7899   5.762   5.864   0.460 -0.1510  0.4596 -0.1184
 2032SOL    HW2 7900   5.808   5.825   0.534  0.6755  0.8057 -0.4370
 2032SOL    HW3 7901   5.706   5.794   0.427  0.3194 -0.0450  0.1362
 2032SOL    MW4 7902   5.761   5.849   0.465  0.4952 -0.5971  0.2820
 2033SOL     OW 7903   1.006   2.966   2.637 -0.1428  0.7765  0.3005
 2033SOL    HW2 7904   1.004   3.059   2.613 -0.9806  0.6005 -0.3606
 2033SOL    HW3 7905   1.062   2.926   2.571  1.3549  0.9929  1.3697
 2033SOL    MW4 7906   1.013   2.973   2.625  0.1978  0.5789 -0.0058
 2034SOL     OW 7907   0.735   0.490   3.309 -0.0505  0.3066 -0.0580
 2034SOL    HW2 7908   0.774   0.542   3.239 -0.0790  1.1746  0.5548
 2034SOL    HW3 7909   0.688   0.553   3.363  0.6409 -0.2160  1.2013
 2034SOL    MW4 7910   0.734   0.505   3.307 -0.0171 -0.9489 -0.9215
 2035SOL     OW 7911   1.009   0.523   2.659  0.5119  0.2900  0.4904
 2035SOL    HW2 7912   0.983   0.435   2.688  1.1397 -0.5217 -1.2946
 2035SOL    HW3 7913   0.937   0.552   2.604  0.9235  0.3060 -0.0449
 2035SOL    MW4 7914   0.996   0.515   2.656 -0.3222  0.3531 -0.1629
 2036SOL     OW 7915   4.117   4.100   4.333 -0.8125  0.6541  0.0906
 2036SOL    HW2 7916   4.102   4.031   4.269 -0.7534 -0.1778  0.9573
 2036SOL    HW3 7917   4.058   4.079   4.405  0.7547  0.2647  1.3050
 2036SOL    MW4 7918   4.107   4.088   4.334  0.3292 -0.0138 -0.0324
 2037SOL     OW 7919   6.011   0.667   0.287 -0.2476  0.1485 -0.0218
 2037SOL    HW2 7920   6.042   0.741   0.236 -0.6312  0.9104  0.8276
 2037SOL    HW3 7921   6.021   0.694   0.378  0.8281 -1.3572  0.3408
 2037SOL    MW4 7922   6.016   0.680   0.292  0.7037 -0.0965  0.0993
 2038SOL     OW 7923   0.029   0.419   0.518 -0.0432 -0.2435 -0.1719
 2038SOL    HW2 7924   0.113   0.387   0.548  0.9249  3.0139  1.0371
 2038SOL    HW3 7925  -0.033   0.392   0.585  0.9139  1.1685  1.3567
 2038SOL    MW4 7926   0.032   0.411   0.531 -0.2088  0.3715 -0.0129
 2039SOL     OW 7927   2.839   5.033   5.153 -0.4257 -0.5133  0.0675
 2039SOL    HW2 7928   2.800   5.056   5.237  0.5420  0.1231  0.3618
 2039SOL    HW3 7929   2.827   5.111   5.099  1.7905  0.3331  0.6771
 2039SOL    MW4 7930   2.832   5.046   5.157  0.6603  0.5887 -0.1867
 2040SOL     OW 7931   4.863   6.360   1.804  0.0476 -0.1238 -0.2029
 2040SOL    HW2 7932   4.844   6.453   1.817  1.8254  0.3478 -0.7367
 2040SOL    HW3 7933   4.946   6.346   1.850  1.3714 -0.7012 -2.5977
 2040SOL    MW4 7934   4.871   6.371   1.812  0.4245  0.2683 -0.2211
 2041SOL     OW 7935   4.723   5.652   5.549 -0.5773 -0.5092 -0.0594
 2041SOL    HW2 7936   4.695   5.627   5.637 -0.9183 -0.0419 -0.0309
 2041SOL    HW3 7937   4.815   5.628   5.545 -0.0664  1.0999  1.0643
 2041SOL    MW4 7938   4.731   5.646   5.560 -0.2026 -0.2050  0.0063
 2042SOL     OW 7939   5.104   0.659   0.786 -0.6514 -0.1379 -0.0076
 2042SOL    HW2 7940   5.183   0.699   0.823  0.9005  0.6522 -3.7728
 2042SOL    HW3 7941   5.032   0.693   0.840  1.2572  2.1188  1.2679
 2042SOL    MW4 7942   5.105   0.669   0.798  0.3269  0.1153  0.0500
 2043SOL     OW 7943   4.605   0.296   1.685  0.4827 -0.5000 -0.9440
 2043SOL    HW2 7944   4.634   0.329   1.600  0.2992  0.3037 -0.7026
 2043SOL    HW3 7945   4.510   0.296   1.679  0.3082  2.3194  0.2226
 2043SOL    MW4 7946   4.596   0.300   1.673 -0.1676 -0.6612 -0.3373
 2044SOL     OW 7947   1.599   4.265   1.179  0.0022  0.1065 -0.1925
 2044SOL    HW2 7948   1.556   4.251   1.264  1.2407 -0.2014  0.4146
 2044SOL    HW3 7949   1.527   4.274   1.117 -0.9630 -1.6990  0.5662
 2044SOL    MW4 7950   1.584   4.264   1.182  0.0364  0.2661  0.1758
 2045SOL     OW 7951   2.352   5.817   3.185  0.1405  0.0047  0.1341
 2045SOL    HW2 7952   2.408   5.797   3.110 -0.0410 -1.9939  0.4765
 2045SOL    HW3 7953   2.352   5.912   3.190  3.6994  0.1356  0.2481
 2045SOL    MW4 7954   2.360   5.827   3.175  0.1718 -0.8197  0.3673
 2046SOL     OW 7955   4.864   2.580   0.510 -0.2027 -0.0138  0.3124
 2046SOL    HW2 7956   4.876   2.639   0.584 -0.6835 -0.3440  0.6619
 2046SOL    HW3 7957   4.796   2.622   0.457 -1.4596 -0.8398  1.2094
 2046SOL    MW4 7958   4.856   2.593   0.513  0.0930 -0.6551  0.2501
 2047SOL     OW 7959   1.969   6.078   3.749  0.1328 -0.0111 -0.8069
 2047SOL    HW2 7960   1.989   6.047   3.837  0.2588  0.5298 -0.6427
 2047SOL    HW3 7961   1.886   6.036   3.727 -0.5278  0.8052  0.0543
 2047SOL    MW4 7962   1.961   6.069   3.757 -0.0783  0.0693 -0.2783
 2048SOL     OW 7963   3.857   0.688   1.489 -0.9030 -0.2718 -0.1711
 2048SOL    HW2 7964   3.849   0.597   1.462 -0.3422  0.2326 -2.1486
 2048SOL    HW3 7965   3.951   0.707   1.483 -1.1231  0.7031 -0.6983
 2048SOL    MW4 7966   3.869   0.678   1.485 -0.4549  0.0242 -0.3934
 2049SOL     OW 7967   6.193   5.298   0.800 -0.5906  0.1781 -0.1920
 2049SOL    HW2 7968   6.272   5.296   0.853 -2.2505  0.9257  2.4942
 2049SOL    HW3 7969   6.152   5.382   0.819 -1.6435  0.1824 -2.1588
 2049SOL    MW4 7970   6.198   5.309   0.809 -0.8224 -0.2383 -0.6148
 2050SOL     OW 7971   3.514   2.250   5.052  0.3801 -0.3547  0.4046
 2050SOL    HW2 7972   3.475   2.330   5.088 -0.5915 -1.3744  1.7278
 2050SOL    HW3 7973   3.493   2.182   5.117  1.6853 -1.5711 -0.3946
 2050SOL    MW4 7974   3.506   2.252   5.066  0.3799 -0.2693 -0.3351
 2051SOL     OW 7975   2.075   4.722   4.093 -0.4764  0.1413  0.0548
 2051SOL    HW2 7976   2.164   4.693   4.074 -0.0758 -0.8425  2.9280
 2051SOL    HW3 7977   2.019   4.657   4.050  0.3303 -1.7825  1.7485
 2051SOL    MW4 7978   2.079   4.710   4.084  0.2374  0.0355 -0.4023
 2052SOL     OW 7979   4.728   4.595   4.711  0.9347 -0.3918 -0.2604
 2052SOL    HW2 7980   4.781   4.661   4.756  0.6448 -1.5681  1.9646
 2052SOL    HW3 7981   4.777   4.514   4.723  0.2926 -0.9332 -1.1826
 2052SOL    MW4 7982   4.742   4.593   4.719  0.5760 -0.2613  0.3190
 2053SOL     OW 7983   5.489   4.433   5.702  0.3690 -0.3438  0.4998
 2053SOL    HW2 7984   5.446   4.347   5.699 -0.2473 -0.0210 -0.8081
 2053SOL    HW3 7985   5.423   4.494   5.668  0.2236  0.9326  2.8165
 2053SOL    MW4 7986   5.474   4.430   5.697  0.0792  0.3320 -0.6130
 2054SOL     OW 7987   5.415   5.801   6.292  0.1639 -0.2963 -0.0571
 2054SOL    HW2 7988   5.344   5.752   6.333  1.2926 -0.5417  1.7319
 2054SOL    HW3 7989   5.472   5.734   6.255  2.5287 -0.6560  3.7369
 2054SOL    MW4 7990   5.413   5.786   6.293  0.2916  0.0496  0.9881
 2055SOL     OW 7991   2.941  -0.004   1.200  0.3745 -0.1191 -0.3855
 2055SOL    HW2 7992   2.901  -0.016   1.113 -0.0553 -0.9639 -0.0906
 2055SOL    HW3 7993   2.889   0.064   1.241 -0.8601 -1.2722  0.0264
 2055SOL    MW4 7994   2.929   0.003   1.194 -0.5763  0.0840  0.6995
 2056SOL     OW 7995   2.218   2.583   4.367 -0.0420  0.1891 -0.0262
 2056SOL    HW2 7996   2.265   2.521   4.422  0.0257  0.2575 -0.0082
 2056SOL    HW3 7997   2.284   2.617   4.307 -0.0799  0.2452 -0.0358
 2056SOL    MW4 7998   2.233   2.579   4.366  0.5157  0.1481 -0.0399
 2057SOL     OW 7999   4.753   3.106   2.604  0.1195 -0.1127  0.5346
 2057SOL    HW2 8000   4.678   3.057   2.570  0.7278 -2.0924  1.8541
 2057SOL    HW3 8001   4.798   3.139   2.526 -0.4779 -1.4536 -0.4078
 2057SOL    MW4 8002   4.749   3.104   2.589  0.0425  0.1343  0.2161
 2058SOL     OW 8003   1.972   3.957   2.014 -0.3999 -0.3568  0.6088
 2058SOL    HW2 8004   1.943   3.975   1.924 -2.7188  0.6029  1.4461
 2058SOL    HW3 8005   1.952   3.865   2.027 -2.8593  0.1515  0.9794
 2058SOL    MW4 8006   1.965   3.947   2.004 -0.7934 -0.5059 -0.3464
 2059SOL     OW 8007   3.465   5.444   1.917  0.1989  0.8750 -1.0827
 2059SOL    HW2 8008   3.414   5.496   1.980  0.2648  0.9615 -1.1011
 2059SOL    HW3 8009   3.472   5.358   1.958 -0.5145  0.6692 -1.3685
 2059SOL    MW4 8010   3.459   5.440   1.931  0.2812  0.3469  0.0342
 2060SOL     OW 8011   0.923   3.135   4.662 -0.5177 -0.3325 -0.1572
 2060SOL    HW2 8012   0.958   3.112   4.575 -0.8847  0.7112 -0.6003
 2060SOL    HW3 8013   0.977   3.208   4.691 -1.0181 -0.0444  0.0598
 2060SOL    MW4 8014   0.935   3.141   4.654  0.1373  0.0745 -0.6611
 2061SOL     OW 8015   3.549   1.255   3.472  0.1408 -0.3138  0.1765
 2061SOL    HW2 8016   3.641   1.231   3.470  0.4539  0.6794  1.5111
 2061SOL    HW3 8017   3.546   1.343   3.435 -0.2099 -0.1666  0.5475
 2061SOL    MW4 8018   3.561   1.264   3.466 -0.4697 -0.9154  0.3895
 2062SOL     OW 8019   5.781   2.530   4.929  0.2939  0.2234 -0.1636
 2062SOL    HW2 8020   5.731   2.533   5.011  1.7208 -0.7491  0.7739
 2062SOL    HW3 8021   5.747   2.604   4.878 -0.5511  0.9185  1.3451
 2062SOL    MW4 8022   5.770   2.540   4.933  0.7875 -0.6122  0.2008
 2063SOL     OW 8023   4.872   4.350   1.722 -0.5966 -0.6847  0.2459
 2063SOL    HW2 8024   4.859   4.328   1.814 -0.5687 -1.1138  0.1502
 2063SOL    HW3 8025   4.796   4.314   1.678  0.2209 -2.0257 -0.1334
 2063SOL    MW4 8026   4.861   4.342   1.728  0.3605  0.4585 -0.3264
 2064SOL     OW 8027   5.812   2.118   2.139  0.1870 -0.7643 -0.2825
 2064SOL    HW2 8028   5.793   2.138   2.230  0.2355  1.6061 -0.7386
 2064SOL    HW3 8029   5.906   2.102   2.136  0.1037 -1.3736  0.1363
 2064SOL    MW4 8030   5.822   2.118   2.150  0.0695  0.3879  0.0147
 2065SOL     OW 8031   5.771   1.275   3.151  0.8786 -0.2048  0.2552
 2065SOL    HW2 8032   5.704   1.212   3.177 -0.2643 -0.3016 -2.5605
 2065SOL    HW3 8033   5.853   1.240   3.188  0.0583 -2.5578  0.0170
 2065SOL    MW4 8034   5.773   1.262   3.160  0.0473  0.0688 -0.0558
 2066SOL     OW 8035   0.100   4.736   3.671 -0.1967 -0.1149 -0.6707
 2066SOL    HW2 8036   0.118   4.779   3.755  0.5523 -1.9491  0.1707
 2066SOL    HW3 8037   0.049   4.800   3.622  0.1594  1.3894  0.8092
 2066SOL    MW4 8038   0.096   4.750   3.676 -0.3567 -0.3351  0.2196
 2067SOL     OW 8039   2.930   1.581   0.720  0.2537  0.2543  0.3532
 2067SOL    HW2 8040   3.024   1.566   0.728  0.2517 -0.1094 -0.2616
 2067SOL    HW3 8041   2.923   1.668   0.682  0.3861 -0.3091 -1.0156
 2067SOL    MW4 8042   2.942   1.590   0.716 -1.1204  0.0892  0.1444
 2068SOL     OW 8043   3.778   0.241   3.226  0.0222 -0.1947  0.1420
 2068SOL    HW2 8044   3.727   0.299   3.283 -1.1009 -1.3153  0.3045
 2068SOL    HW3 8045   3.864   0.236   3.269 -0.2036  0.4941  0.6999
 2068SOL    MW4 8046   3.783   0.248   3.239  0.2068  0.0259  0.0381
 2069SOL     OW 8047   5.678   3.908   1.533 -0.0770  0.2871 -0.4416
 2069SOL    HW2 8048   5.746   3.957   1.580 -0.0496  0.5529 -0.7608
 2069SOL    HW3 8049   5.712   3.897   1.445 -0.7607  1.0477 -0.8084
 2069SOL    MW4 8050   5.691   3.913   1.528 -0.4153  0.2143 -0.6775
 2070SOL     OW 8051   4.807   2.249   5.313  0.0313 -0.1321  0.9100
 2070SOL    HW2 8052   4.779   2.213   5.229  1.0320 -0.2886  0.6325
 2070SOL    HW3 8053   4.730   2.296   5.346 -0.8898 -1.4179  0.6750
 2070SOL    MW4 8054   4.793   2.251   5.306  0.1653  0.1645 -0.1606
 2071SOL     OW 8055   5.231   0.507   4.831 -0.4374 -0.4220  0.1317
 2071SOL    HW2 8056   5.300   0.547   4.884  0.4907  1.1995 -2.1473
 2071SOL    HW3 8057   5.276   0.441   4.778 -0.8120 -0.1313 -0.5668
 2071SOL    MW4 8058   5.246   0.504   4.831  0.5134  0.0643 -0.3819
 2072SOL     OW 8059   4.817   0.264   3.825  0.4797  0.2303  0.2180
 2072SOL    HW2 8060   4.802   0.348   3.869 -0.6568  0.4600 -0.5848
 2072SOL    HW3 8061   4.912   0.259   3.815  0.5223  1.6736 -0.2275
 2072SOL    MW4 8062   4.827   0.274   3.830  0.2824 -0.2148 -0.1870
 2073SOL     OW 8063   0.405   4.212   4.786 -0.2302  0.1813  0.2985
 2073SOL    HW2 8064   0.310   4.212   4.802 -0.3339  0.7345 -0.2963
 2073SOL    HW3 8065   0.415   4.172   4.700  0.0629  0.3433  0.2569
 2073SOL    MW4 8066   0.394   4.207   4.777  0.5805  0.2318 -0.3588
 2074SOL     OW 8067   2.373   4.776   1.074 -0.2530  0.6177  0.1844
 2074SOL    HW2 8068   2.303   4.841   1.078 -0.6332  0.1680  1.7964
 2074SOL    HW3 8069   2.327   4.692   1.062  0.0449  0.3841  0.6514
 2074SOL    MW4 8070   2.358   4.773   1.073  0.0321  0.0297 -0.3387
 2075SOL     OW 8071   3.779   4.919   0.984  0.0917 -0.0040 -0.6617
 2075SOL    HW2 8072   3.733   4.953   0.907  0.0777  2.9930  0.5355
 2075SOL    HW3 8073   3.848   4.983   1.001  2.2343 -2.2960 -0.0271
 2075SOL    MW4 8074   3.782   4.932   0.976 -0.1306  0.0186  0.1074
 2076SOL     OW 8075   2.781   2.087   6.296  0.2594 -0.6538 -0.2824
 2076SOL    HW2 8076   2.697   2.042   6.282  0.5428 -0.5293 -2.6859
 2076SOL    HW3 8077   2.838   2.020   6.332 -0.8952 -0.6772  1.6604
 2076SOL    MW4 8078   2.777   2.072   6.299 -0.6141 -0.2526 -0.0411
 2077SOL     OW 8079   1.176   2.172   1.425  0.1081 -0.8163 -0.2042
 2077SOL    HW2 8080   1.130   2.165   1.341 -0.3164  0.0709 -0.0534
 2077SOL    HW3 8081   1.168   2.085   1.463  0.1908 -1.1946 -1.0272
 2077SOL    MW4 8082   1.169   2.160   1.419 -0.0258  0.2423  0.0410
 2078SOL     OW 8083   2.089   3.265   0.980 -0.5102 -0.0059  0.3012
 2078SOL    HW2 8084   2.137   3.296   1.056 -1.0051  2.0993 -0.1877
 2078SOL    HW3 8085   2.019   3.210   1.016 -0.3158  0.3972  1.2988
 2078SOL    MW4 8086   2.086   3.262   0.994  0.9172  0.8143 -0.0541
 2079SOL     OW 8087   3.987   1.095   6.270 -0.2010  0.5661 -0.3906
 2079SOL    HW2 8088   3.999   1.097   6.175  1.2702  2.1175 -0.2192
 2079SOL    HW3 8089   4.075   1.081   6.305 -0.2491  2.7925  0.7924
 2079SOL    MW4 8090   4.000   1.094   6.262 -0.8293 -0.4380 -0.4195
 2080SOL     OW 8091   6.314   6.185   1.216 -0.3587 -0.0613 -0.2670
 2080SOL    HW2 8092   6.273   6.101   1.236 -0.3261  0.0082  0.0906
 2080SOL    HW3 8093   6.324   6.184   1.121  0.2835 -0.7614 -0.2024
 2080SOL    MW4 8094   6.310   6.173   1.206 -0.3456 -0.5691  0.0873
 2081SOL     OW 8095   3.713   1.888   1.330  0.5134  0.1007 -0.5046
 2081SOL    HW2 8096   3.785   1.897   1.268 -0.0386  1.0143 -1.0282
 2081SOL    HW3 8097   3.752   1.842   1.405  0.9887 -1.7654 -1.8316
 2081SOL    MW4 8098   3.728   1.883   1.332 -0.3292  0.2347 -0.0037
 2082SOL     OW 8099   4.190   3.331   5.904 -0.3219 -0.0761 -0.0615
 2082SOL    HW2 8100   4.156   3.420   5.905 -0.6894 -0.2111  0.3377
 2082SOL    HW3 8101   4.200   3.309   5.812  0.2194  0.5398 -0.1553
 2082SOL    MW4 8102   4.187   3.340   5.892 -0.6921  0.2743 -0.0627
 2083SOL     OW 8103   0.981   5.256   2.517  0.4114  0.5905 -0.0803
 2083SOL    HW2 8104   1.051   5.249   2.582  0.3486 -0.7716 -0.1211
 2083SOL    HW3 8105   0.904   5.220   2.561 -0.0961  1.4325 -0.2721
 2083SOL    MW4 8106   0.980   5.250   2.531  0.0745 -0.3789  0.2295
 2084SOL     OW 8107   3.746   6.271   5.222  0.0270 -0.1027  0.5988
 2084SOL    HW2 8108   3.772   6.360   5.196  2.2385 -0.5836  0.9474
 2084SOL    HW3 8109   3.712   6.282   5.310  2.4878  0.1865  1.6127
 2084SOL    MW4 8110   3.745   6.284   5.230 -0.7290 -0.1393  0.1734
 2085SOL     OW 8111   0.887   3.854   4.933  0.1911 -0.7405 -0.3059
 2085SOL    HW2 8112   0.958   3.833   4.872 -0.2965 -2.5050 -0.2998
 2085SOL    HW3 8113   0.849   3.934   4.897  1.2655 -0.5629 -1.1170
 2085SOL    MW4 8114   0.892   3.862   4.920  0.0733  0.0060 -0.6392
 2086SOL     OW 8115   3.223   0.001   5.886  0.3890  0.6302 -0.3419
 2086SOL    HW2 8116   3.252  -0.086   5.860 -2.7677 -0.6568  0.0616
 2086SOL    HW3 8117   3.194   0.041   5.804 -0.8414  0.1756 -0.1364
 2086SOL    MW4 8118   3.223  -0.005   5.871 -0.1519 -0.0474  0.0043
 2087SOL     OW 8119   0.796   5.000   2.941  0.2381  0.5884 -0.1051
 2087SOL    HW2 8120   0.843   4.928   2.899 -1.3132 -0.7425  0.3386
 2087SOL    HW3 8121   0.865   5.059   2.972  1.5115 -0.0380 -1.6007
 2087SOL    MW4 8122   0.812   4.998   2.939 -0.1706  0.3306  0.3875
 2088SOL     OW 8123   1.156   2.011   6.156 -0.0075 -0.7541  0.3759
 2088SOL    HW2 8124   1.241   2.037   6.121  0.4251 -0.5417  1.5210
 2088SOL    HW3 8125   1.170   1.922   6.190 -0.6421 -1.2855 -0.7271
 2088SOL    MW4 8126   1.169   2.003   6.156  0.9826  0.1568 -0.3355
 2089SOL     OW 8127   2.558   5.682   6.340  0.0447  0.6504 -0.5487
 2089SOL    HW2 8128   2.482   5.702   6.285 -0.4961  1.1931  0.3639
 2089SOL    HW3 8129   2.581   5.765   6.381 -0.1005  0.0996  0.6899
 2089SOL    MW4 8130   2.551   5.695   6.338  0.2700  0.2946  0.0640
 2090SOL     OW 8131   3.315   5.474   2.308  0.2405  0.6308 -0.1492
 2090SOL    HW2 8132   3.257   5.402   2.282  1.2195  0.0667 -0.8095
 2090SOL    HW3 8133   3.306   5.539   2.238  0.0988  0.7257 -0.0441
 2090SOL    MW4 8134   3.306   5.473   2.295 -0.2682 -0.5650 -0.0274
 2091SOL     OW 8135   5.739   4.916   1.426  0.6693  0.3808 -0.2644
 2091SOL    HW2 8136   5.828   4.940   1.399  0.3451  0.9088 -0.9062
 2091SOL    HW3 8137   5.725   4.830   1.386  0.7446  0.4788 -0.5050
 2091SOL    MW4 8138   5.749   4.908   1.417  0.0373 -0.0032 -0.0001
 2092SOL     OW 8139   5.889   6.334   6.008 -0.0153  0.0152  0.0539
 2092SOL    HW2 8140   5.950   6.381   6.065 -0.1026  0.2166 -0.0176
 2092SOL    HW3 8141   5.834   6.402   5.970  1.3422  0.1207 -1.8727
 2092SOL    MW4 8142   5.889   6.349   6.010 -0.4947  0.9431  0.0966
 2093SOL     OW 8143   6.359   2.989   4.452  0.5776 -0.0108 -0.5188
 2093SOL    HW2 8144   6.353   3.082   4.431 -1.4105 -0.3386 -1.6205
 2093SOL    HW3 8145   6.386   2.987   4.544  1.9963  1.5982 -0.8533
 2093SOL    MW4 8146   6.362   3.001   4.461 -0.2946  0.3737  0.4913
 2094SOL     OW 8147   4.691   1.343   4.206  0.3827  0.2264  0.9139
 2094SOL    HW2 8148   4.665   1.431   4.232 -2.0245 -0.3920  0.8717
 2094SOL    HW3 8149   4.627   1.285   4.248  0.8910 -1.3667 -0.3754
 2094SOL    MW4 8150   4.679   1.347   4.215  0.3648  0.0824  0.3101
 2095SOL     OW 8151   4.489   2.992   6.204  0.0786 -0.0563  0.3833
 2095SOL    HW2 8152   4.545   3.066   6.179 -0.2623 -0.1300 -0.6650
 2095SOL    HW3 8153   4.400   3.025   6.194 -0.0911  0.0073  1.8973
 2095SOL    MW4 8154   4.485   3.006   6.199  0.1599 -0.1529  0.0750
 2096SOL     OW 8155   2.191   5.177   5.237 -0.0172 -0.6262 -0.4084
 2096SOL    HW2 8156   2.161   5.091   5.207 -3.0263  0.7856 -1.7878
 2096SOL    HW3 8157   2.208   5.226   5.156  0.6048  0.4595  0.3473
 2096SOL    MW4 8158   2.189   5.172   5.222 -0.1275 -0.3178 -0.3993
 2097SOL     OW 8159   0.473   3.746   0.510  0.2580 -0.2143  0.2999
 2097SOL    HW2 8160   0.405   3.705   0.456  1.0811  0.6164 -1.4324
 2097SOL    HW3 8161   0.556   3.714   0.472  0.9157 -1.6539  2.7047
 2097SOL    MW4 8162   0.475   3.736   0.498  0.0017  0.3366 -0.1344
 2098SOL     OW 8163   2.132   5.941   3.562 -0.0035 -0.3092 -0.0990
 2098SOL    HW2 8164   2.216   5.987   3.564  0.8683 -1.7716 -0.9708
 2098SOL    HW3 8165   2.088   5.967   3.642  1.8306 -0.4582  1.0139
 2098SOL    MW4 8166   2.137   5.950   3.573 -0.3676  0.1210  0.3027
 2099SOL     OW 8167   5.481   6.266   1.211  0.3133 -0.0572 -0.0175
 2099SOL    HW2 8168   5.504   6.282   1.120  0.8360 -0.9260 -0.0455
 2099SOL    HW3 8169   5.411   6.201   1.207  1.7805 -1.7170  0.2491
 2099SOL    MW4 8170   5.475   6.260   1.199  0.1199 -0.3405 -0.1443
 2100SOL     OW 8171   2.469   6.339   3.659 -0.1485  0.4248  0.1203
 2100SOL    HW2 8172   2.537   6.354   3.724 -1.7143  1.3696  1.6151
 2100SOL    HW3 8173   2.503   6.379   3.579  1.4291  0.0550  0.5785
 2100SOL    MW4 8174   2.482   6.346   3.657 -0.2745  0.7729  1.0634
 2101SOL     OW 8175   4.867   5.963   3.751  0.3143  0.3121 -0.0074
 2101SOL    HW2 8176   4.944   5.910   3.732  0.3026 -0.5759  2.0727
 2101SOL    HW3 8177   4.801   5.899   3.778 -0.7394  1.1576 -0.5087
 2101SOL    MW4 8178   4.868   5.947   3.752  0.0825 -0.0369 -0.2266
 2102SOL     OW 8179   5.503   5.716   3.710  0.0716 -0.3743 -0.6479
 2102SOL    HW2 8180   5.522   5.764   3.790 -1.0530 -1.6038  0.4078
 2102SOL    HW3 8181   5.466   5.781   3.651 -1.8846  0.0108  0.9055
 2102SOL    MW4 8182   5.501   5.731   3.713  0.4315 -0.1775  0.5037
 2103SOL     OW 8183   2.140   4.950   5.752 -0.1790  0.0720  0.5781
 2103SOL    HW2 8184   2.205   4.919   5.689 -0.5599 -0.6036  0.5079
 2103SOL    HW3 8185   2.123   5.040   5.726 -1.2056 -0.5416 -1.0491
 2103SOL    MW4 8186   2.147   4.957   5.740 -0.7149 -0.0194  0.7232
 2104SOL     OW 8187   5.289   2.273   3.400 -0.2138  0.0934 -0.2614
 2104SOL    HW2 8188   5.373   2.238   3.372 -0.6031 -1.2710  0.2314
 2104SOL    HW3 8189   5.306   2.314   3.484  0.1320  0.6506 -0.5939
 2104SOL    MW4 8190   5.302   2.274   3.407 -0.7804  0.4157  0.3432
 2105SOL     OW 8191   4.621   0.794   5.275  0.8686  0.0652 -0.4635
 2105SOL    HW2 8192   4.526   0.808   5.270  0.7105 -0.2507  1.0189
 2105SOL    HW3 8193   4.652   0.803   5.185 -0.3798  1.4468 -0.7926
 2105SOL    MW4 8194   4.612   0.797   5.262  0.6616 -0.2824 -0.1717
 2106SOL     OW 8195   1.704   1.906   0.268 -0.2322 -0.3422  0.0109
 2106SOL    HW2 8196   1.610   1.901   0.283  0.0388 -0.5223  1.9998
 2106SOL    HW3 8197   1.730   1.817   0.247 -0.5873 -0.1576 -1.2790
 2106SOL    MW4 8198   1.695   1.894   0.267 -0.3948 -0.5657 -0.2042
 2107SOL     OW 8199   5.796   0.028   4.467  0.3390 -0.0732  0.1201
 2107SOL    HW2 8200   5.736   0.066   4.530 -1.3253 -0.0676 -1.3961
 2107SOL    HW3 8201   5.846   0.102   4.433 -1.0286  0.4278 -0.8806
 2107SOL    MW4 8202   5.795   0.042   4.471  0.1656 -0.1135 -0.0504
 2108SOL     OW 8203   6.274   2.075   3.501  0.4727 -0.4243  0.4374
 2108SOL    HW2 8204   6.318   1.990   3.493 -2.4663 -1.9178 -1.9995
 2108SOL    HW3 8205   6.193   2.056   3.547  0.8159  1.6125  2.0057
 2108SOL    MW4 8206   6.269   2.061   3.506  0.3335  0.0989  0.1504
 2109SOL     OW 8207   4.156   3.088   0.376  0.2470 -0.3794  0.2213
 2109SOL    HW2 8208   4.181   3.029   0.305 -0.6558 -0.9715  0.3724
 2109SOL    HW3 8209   4.061   3.099   0.365 -0.0114 -0.9560  1.6860
 2109SOL    MW4 8210   4.146   3.082   0.365  0.0618 -0.4121 -0.1455
 2110SOL     OW 8211   0.441   4.713   2.019 -0.2759  0.1373  0.0372
 2110SOL    HW2 8212   0.519   4.768   2.015  0.5704 -1.0111  0.0985
 2110SOL    HW3 8213   0.457   4.654   2.093 -0.5770 -1.0087 -0.7740
 2110SOL    MW4 8214   0.453   4.712   2.029 -0.5498  0.2275 -0.4217
 2111SOL     OW 8215   3.946   4.183   1.008 -0.0555  0.5771  0.5810
 2111SOL    HW2 8216   3.931   4.213   1.098 -0.3107  1.2278  0.3294
 2111SOL    HW3 8217   4.009   4.112   1.017  0.5893  1.2017  1.2010
 2111SOL    MW4 8218   3.952   4.178   1.021 -0.3283  0.1765  0.2622
 2112SOL     OW 8219   1.573   0.228   4.173 -0.3034 -0.6155  0.2935
 2112SOL    HW2 8220   1.629   0.151   4.166 -0.4695 -0.7571  0.5191
 2112SOL    HW3 8221   1.631   0.302   4.153 -0.9606 -1.0091 -4.2177
 2112SOL    MW4 8222   1.588   0.228   4.170  1.2569 -0.2551 -0.0766
 2113SOL     OW 8223   3.127   0.680   0.854  0.3949 -0.0348 -0.0632
 2113SOL    HW2 8224   3.038   0.650   0.833  1.1156 -1.7104 -0.9281
 2113SOL    HW3 8225   3.128   0.771   0.826 -0.8204 -0.2155 -0.8075
 2113SOL    MW4 8226   3.115   0.688   0.847 -0.4414 -0.0088 -0.0443
 2114SOL     OW 8227   6.070   4.901   5.608  0.0132 -0.3001 -0.1526
 2114SOL    HW2 8228   6.037   4.829   5.661  0.6115 -0.7671 -0.4156
 2114SOL    HW3 8229   6.153   4.925   5.648  0.4801 -0.6706 -0.8795
 2114SOL    MW4 8230   6.076   4.895   5.620  0.4217  0.0589 -0.1469
 2115SOL     OW 8231   1.656   4.463   3.531  0.5568 -0.2008 -0.3947
 2115SOL    HW2 8232   1.579   4.449   3.587  0.2015  0.8518 -0.6005
 2115SOL    HW3 8233   1.725   4.490   3.591  0.7067 -0.9089 -0.2398
 2115SOL    MW4 8234   1.655   4.465   3.546  0.2701 -0.1095  0.5532
 2116SOL     OW 8235   4.976   6.066   4.464 -0.3882 -0.5411  0.2975
 2116SOL    HW2 8236   5.067   6.042   4.483 -0.2884 -0.4429 -0.0524
 2116SOL    HW3 8237   4.945   6.107   4.544 -0.3639 -1.2812  0.6896
 2116SOL    MW4 8238   4.984   6.068   4.477 -0.1881 -0.0139  0.4362
 2117SOL     OW 8239   6.218   3.220   5.423 -0.4274 -0.1375 -0.7902
 2117SOL    HW2 8240   6.223   3.128   5.450  3.0288  0.3168  0.6303
 2117SOL    HW3 8241   6.161   3.261   5.488 -0.0114 -0.8435  0.0359
 2117SOL    MW4 8242   6.211   3.213   5.435  0.2636 -0.0167  0.0054
 2118SOL     OW 8243   4.889   1.645   3.539  0.3621 -0.2702 -0.1203
 2118SOL    HW2 8244   4.814   1.701   3.559 -0.1874 -1.1330  0.2959
 2118SOL    HW3 8245   4.851   1.559   3.522  1.1708 -0.4663 -0.9952
 2118SOL    MW4 8246   4.875   1.641   3.540 -0.9879 -0.6603 -0.2687
 2119SOL     OW 8247   5.584   1.945   1.848  0.8018 -0.2270 -0.4265
 2119SOL    HW2 8248   5.583   1.857   1.884 -0.4811  0.3184  0.9803
 2119SOL    HW3 8249   5.530   1.996   1.908  0.9353  1.3717 -1.5990
 2119SOL    MW4 8250   5.577   1.940   1.861 -0.0123  0.3709 -0.3794
 2120SOL     OW 8251   5.007   4.237   2.577  0.2169  0.0381  0.0073
 2120SOL    HW2 8252   5.060   4.169   2.620 -0.4282 -1.5467 -1.5754
 2120SOL    HW3 8253   5.039   4.238   2.487 -1.7869 -0.3053 -0.7578
 2120SOL    MW4 8254   5.018   4.228   2.571  0.5359 -0.1322  0.8947
 2121SOL     OW 8255   0.445   5.795   3.859 -0.2259  0.1873 -0.5142
 2121SOL    HW2 8256   0.359   5.835   3.873 -1.1254 -1.8473  0.1619
 2121SOL    HW3 8257   0.472   5.766   3.947  1.1528  0.7646 -0.7224
 2121SOL    MW4 8258   0.438   5.796   3.873  0.2365  0.5810  0.1763
 2122SOL     OW 8259   3.209   0.668   3.369  0.6044 -0.0177 -0.3423
 2122SOL    HW2 8260   3.205   0.689   3.462 -2.5584 -0.2447 -0.3358
 2122SOL    HW3 8261   3.185   0.749   3.324  1.5967 -0.0495 -0.9663
 2122SOL    MW4 8262   3.205   0.681   3.375  0.0293  0.4734  0.4786
 2123SOL     OW 8263   3.446   4.553   1.725  0.5383 -0.2124 -0.0854
 2123SOL    HW2 8264   3.367   4.603   1.705  1.5605  0.6350 -2.3216
 2123SOL    HW3 8265   3.477   4.522   1.640  0.8448 -3.3663  1.0269
 2123SOL    MW4 8266   3.440   4.555   1.711 -0.5478 -0.2717 -0.6718
 2124SOL     OW 8267   0.446   1.012   2.193  0.1511  0.0198  0.2426
 2124SOL    HW2 8268   0.529   1.018   2.146 -0.2523  0.9165 -0.3939
 2124SOL    HW3 8269   0.447   0.925   2.233  1.0455 -0.2901 -0.4168
 2124SOL    MW4 8270   0.457   1.001   2.192 -0.4366  0.5635  0.1365
 2125SOL     OW 8271   2.056   1.224   4.169  0.0833 -0.9272  0.4059
 2125SOL    HW2 8272   2.100   1.240   4.253 -1.3574  0.0762  1.0062
 2125SOL    HW3 8273   1.999   1.149   4.187 -0.9997 -0.0651  0.6477
 2125SOL    MW4 8274   2.055   1.216   4.183  0.0577  0.3074  0.3760
 2126SOL     OW 8275   5.293   2.446   1.137 -0.2481  0.1942  0.2933
 2126SOL    HW2 8276   5.293   2.354   1.164  0.1911 -0.2464 -1.1274
 2126SOL    HW3 8277   5.218   2.454   1.078 -0.3745  0.8037  0.5248
 2126SOL    MW4 8278   5.283   2.435   1.133  0.2093  0.1793 -0.4670
 2127SOL     OW 8279   0.254   4.864   2.163  0.8864 -0.3749  0.4193
 2127SOL    HW2 8280   0.306   4.944   2.165 -0.0083  0.2894 -1.0749
 2127SOL    HW3 8281   0.309   4.800   2.118  0.1779  0.5518 -1.8827
 2127SOL    MW4 8282   0.268   4.866   2.157  0.5178  0.1702 -0.2449
 2128SOL     OW 8283   2.634   4.274   1.704 -0.1610  0.0729 -0.2701
 2128SOL    HW2 8284   2.655   4.329   1.629 -0.3459 -2.8682 -2.6924
 2128SOL    HW3 8285   2.540   4.287   1.717 -0.6351 -1.0288 -2.1401
 2128SOL    MW4 8286   2.624   4.283   1.696  0.3946  1.1657 -0.3920
 2129SOL     OW 8287   3.734   4.714   5.141  0.0781 -0.2040  0.4394
 2129SOL    HW2 8288   3.781   4.681   5.064 -1.8738  1.7343 -1.7294
 2129SOL    HW3 8289   3.677   4.641   5.166  1.6032 -1.2975  0.9011
 2129SOL    MW4 8290   3.733   4.700   5.134 -0.1815  0.1063  0.5035
 2130SOL     OW 8291   0.287   1.712   5.532  0.1599 -0.5919 -0.3169
 2130SOL    HW2 8292   0.341   1.791   5.526  2.4097 -2.0615 -0.6071
 2130SOL    HW3 8293   0.229   1.718   5.456  0.2032  0.8148 -0.2771
 2130SOL    MW4 8294   0.287   1.724   5.521  0.5099  0.3269 -0.7136
 2131SOL     OW 8295   0.601   1.558   0.125 -0.0082  0.3751 -0.2638
 2131SOL    HW2 8296   0.578   1.474   0.165 -0.5423  0.5867 -0.1313
 2131SOL    HW3 8297   0.679   1.538   0.073 -0.8986 -0.5251 -1.3302
 2131SOL    MW4 8298   0.608   1.544   0.123 -0.7118  0.1407  0.0059
 2132SOL     OW 8299   5.997   5.046   2.798  0.0325  0.0663  0.5583
 2132SOL    HW2 8300   6.071   5.091   2.757  0.1976  0.3082  1.1218
 2132SOL    HW3 8301   5.935   5.032   2.726  0.5015  0.1118  0.1422
 2132SOL    MW4 8302   5.999   5.050   2.783  0.5328 -0.0690 -0.1421
 2133SOL     OW 8303   0.950   5.223   1.435 -0.3265 -0.7039 -0.7769
 2133SOL    HW2 8304   0.975   5.307   1.474 -0.9107 -1.1674  0.6356
 2133SOL    HW3 8305   1.033   5.180   1.415  0.0294 -0.8705  0.9140
 2133SOL    MW4 8306   0.964   5.228   1.437  0.0883 -0.4351  0.0856
 2134SOL     OW 8307   2.413   5.811   3.828  0.2010  0.2332 -0.1050
 2134SOL    HW2 8308   2.406   5.902   3.799  0.8446  0.5652  0.6955
 2134SOL    HW3 8309   2.433   5.818   3.922 -1.8101 -0.7772  0.4437
 2134SOL    MW4 8310   2.415   5.824   3.837  0.1552  0.8054  0.2697
 2135SOL     OW 8311   0.070   1.705   4.814  0.5814 -0.0795  0.2169
 2135SOL    HW2 8312   0.037   1.785   4.773  2.9697  0.5962 -0.5517
 2135SOL    HW3 8313  -0.004   1.644   4.809 -0.4841  1.2361 -1.5603
 2135SOL    MW4 8314   0.056   1.707   4.808  0.0199 -0.2560  0.0538
 2136SOL     OW 8315   0.458   6.282   6.111 -0.1235 -0.1576 -0.2749
 2136SOL    HW2 8316   0.541   6.303   6.069 -0.6036  0.0191 -1.1605
 2136SOL    HW3 8317   0.482   6.241   6.195  0.8360  0.7893 -0.0789
 2136SOL    MW4 8318   0.472   6.279   6.117  0.2234  0.1397 -0.1589
 2137SOL     OW 8319   3.260   4.781   1.617  0.3662  0.1958  0.3975
 2137SOL    HW2 8320   3.350   4.812   1.605  0.2233 -0.0243 -1.5768
 2137SOL    HW3 8321   3.235   4.747   1.531 -1.0253 -1.2998  1.3397
 2137SOL    MW4 8322   3.269   4.780   1.604  0.4603  0.3345  0.3985
 2138SOL     OW 8323   2.253   0.905   1.319 -0.1624  0.4137 -0.4672
 2138SOL    HW2 8324   2.287   0.994   1.318  0.5661  0.1582  0.2634
 2138SOL    HW3 8325   2.330   0.850   1.332 -0.9155 -0.1078  2.7357
 2138SOL    MW4 8326   2.267   0.909   1.321 -0.1894 -0.1489 -0.0451
 2139SOL     OW 8327   2.592   0.242   6.202 -0.7170  0.7256  0.7897
 2139SOL    HW2 8328   2.566   0.299   6.129 -0.1103  1.3130  1.0200
 2139SOL    HW3 8329   2.664   0.289   6.244  1.1810 -1.1060 -0.2280
 2139SOL    MW4 8330   2.598   0.256   6.198  0.4858 -0.3259  0.5443
 2140SOL     OW 8331   0.160   1.179   1.888 -0.2748 -0.1581  0.6061
 2140SOL    HW2 8332   0.064   1.177   1.892 -0.2850  1.3115  3.0145
 2140SOL    HW3 8333   0.188   1.176   1.979  2.0148 -0.8765 -0.0567
 2140SOL    MW4 8334   0.151   1.179   1.900  0.2116  0.1575 -0.2349
 2141SOL     OW 8335   1.686   0.384   5.861 -0.6149  0.2883 -0.5839
 2141SOL    HW2 8336   1.666   0.438   5.937  1.2988  0.9392 -0.5025
 2141SOL    HW3 8337   1.767   0.338   5.885 -0.4641 -0.1550 -1.8877
 2141SOL    MW4 8338   1.694   0.385   5.874  0.2968 -0.1114  0.1556
 2142SOL     OW 8339   1.976   1.491   1.538 -0.0733  0.0034 -0.1032
 2142SOL    HW2 8340   1.882   1.505   1.531  0.0368  0.8830  0.0523
 2142SOL    HW3 8341   1.988   1.447   1.623 -0.4271 -1.0951 -0.5997
 2142SOL    MW4 8342   1.965   1.487   1.549  0.5295  0.0849  0.0649
 2143SOL     OW 8343   1.789   0.777   2.212 -0.9815 -0.1818 -0.0742
 2143SOL    HW2 8344   1.779   0.840   2.283 -0.0094 -1.3400  1.1519
 2143SOL    HW3 8345   1.720   0.712   2.228 -0.2205 -0.9035  0.3416
 2143SOL    MW4 8346   1.778   0.777   2.224 -0.7711 -0.0216  0.4800
 2144SOL     OW 8347   1.928   5.129   2.986  0.0906  0.3931 -0.5830
 2144SOL    HW2 8348   2.014   5.106   3.022 -0.0877 -0.1312 -0.4713
 2144SOL    HW3 8349   1.866   5.093   3.050 -0.2464 -0.9809 -1.6434
 2144SOL    MW4 8350   1.931   5.121   2.999 -0.2480  0.5722 -0.0956
 2145SOL     OW 8351   3.965   1.789   0.392  0.1973  0.1368  0.2444
 2145SOL    HW2 8352   3.995   1.879   0.402  0.0234  0.1853  0.3317
 2145SOL    HW3 8353   4.007   1.741   0.464  0.3972  0.1210  0.1169
 2145SOL    MW4 8354   3.974   1.795   0.403  0.5692  0.2037  0.1888
 2146SOL     OW 8355   3.488   4.951   2.552 -0.3612 -0.2043 -0.0835
 2146SOL    HW2 8356   3.481   4.858   2.574  2.0567 -0.3968  0.1820
 2146SOL    HW3 8357   3.580   4.973   2.569 -0.5516  1.9255 -1.3908
 2146SOL    MW4 8358   3.499   4.942   2.557 -0.2028  0.1408  0.2442
 2147SOL     OW 8359   4.789   4.487   0.725 -0.1742 -0.1793 -0.4670
 2147SOL    HW2 8360   4.865   4.451   0.680 -0.1579 -0.0152 -0.5714
 2147SOL    HW3 8361   4.714   4.451   0.677 -0.1927 -1.1482  0.2433
 2147SOL    MW4 8362   4.789   4.478   0.713 -0.2045  0.3266 -0.3479
 2148SOL     OW 8363   1.294   4.321   3.206 -0.1869 -0.3763 -0.2079
 2148SOL    HW2 8364   1.327   4.249   3.152  0.0157  0.0062 -0.6016
 2148SOL    HW3 8365   1.319   4.401   3.158  0.1332 -0.0243  0.5214
 2148SOL    MW4 8366   1.302   4.322   3.193  0.2952  0.0980  0.1663
 2149SOL     OW 8367   0.101   2.309   1.688 -0.0264 -0.3529  0.6315
 2149SOL    HW2 8368   0.142   2.382   1.734  3.1526 -1.5385 -0.0691
 2149SOL    HW3 8369   0.126   2.322   1.596  0.4375 -2.1719  0.4701
 2149SOL    MW4 8370   0.110   2.320   1.682 -0.4815 -0.3119 -0.0108
 2150SOL     OW 8371   3.378   0.031   5.428 -0.6745 -0.5478 -0.6110
 2150SOL    HW2 8372   3.285   0.017   5.445 -0.7901  2.3428  2.0581
 2150SOL    HW3 8373   3.383   0.119   5.390  1.0137 -0.1932  0.3199
 2150SOL    MW4 8374   3.367   0.041   5.425 -0.2245  0.3413 -0.1121
 2151SOL     OW 8375   0.556   6.050   4.583  0.8710 -0.0937  0.5800
 2151SOL    HW2 8376   0.532   5.958   4.595  2.6801 -0.5288  1.2749
 2151SOL    HW3 8377   0.513   6.096   4.655 -0.0037 -0.3933  0.2569
 2151SOL    MW4 8378   0.547   6.044   4.594 -0.3645  0.5839 -0.2250
 2152SOL     OW 8379   5.418   6.367   3.923 -0.6672  0.2001 -0.7380
 2152SOL    HW2 8380   5.344   6.384   3.865  0.4778 -0.1628 -2.3927
 2152SOL    HW3 8381   5.482   6.322   3.867  1.1582  1.2960  0.3760
 2152SOL    MW4 8382   5.417   6.363   3.908 -0.0315 -0.6681 -0.5054
 2153SOL     OW 8383   3.902   0.280   2.636 -0.3652  0.6022  0.1626
 2153SOL    HW2 8384   3.862   0.335   2.704 -1.5196 -2.2202  1.9111
 2153SOL    HW3 8385   3.982   0.248   2.676 -0.4951 -0.2228 -0.2296
 2153SOL    MW4 8386   3.907   0.283   2.650  0.1881  0.1409 -0.3094
 2154SOL     OW 8387   6.001   0.467   5.394 -0.3702  0.7532  0.1103
 2154SOL    HW2 8388   5.984   0.516   5.314  2.1897 -0.3182 -1.2143
 2154SOL    HW3 8389   6.043   0.531   5.452 -0.1340  0.9693 -0.2947
 2154SOL    MW4 8390   6.005   0.482   5.391  0.5645  0.2296  0.2973
 2155SOL     OW 8391   3.304   0.641   6.261  0.1805  0.2839  0.0687
 2155SOL    HW2 8392   3.308   0.547   6.279 -2.8453  0.2293  1.0844
 2155SOL    HW3 8393   3.298   0.681   6.348 -1.8711  1.1026 -0.4082
 2155SOL    MW4 8394   3.304   0.633   6.275  0.0646  0.0203 -0.2069
 2156SOL     OW 8395   4.502   1.984   0.299 -0.0875  0.3274 -0.4100
 2156SOL    HW2 8396   4.430   2.003   0.360  0.8314 -0.7269  1.0836
 2156SOL    HW3 8397   4.557   2.062   0.301  0.0903  0.1869  0.3542
 2156SOL    MW4 8398   4.500   1.997   0.307 -0.5025  0.4943 -0.1741
 2157SOL     OW 8399   3.935   5.741   2.533  0.2546  0.2115  0.4741
 2157SOL    HW2 8400   3.982   5.769   2.611 -0.9182 -0.4107  1.4275
 2157SOL    HW3 8401   4.004   5.718   2.471  1.2545  2.8646  0.4537
 2157SOL    MW4 8402   3.951   5.742   2.535  0.9737  0.5640 -0.3778
 2158SOL     OW 8403   1.254   3.359   1.883  0.0514 -0.0421 -0.4246
 2158SOL    HW2 8404   1.175   3.398   1.845 -0.2222 -2.0590 -2.1271
 2158SOL    HW3 8405   1.229   3.268   1.900  1.4166 -0.1807  0.9441
 2158SOL    MW4 8406   1.240   3.352   1.880  0.3249  0.2840  0.1012
 2159SOL     OW 8407   1.307   6.176   5.455 -0.1486 -0.3288 -0.4152
 2159SOL    HW2 8408   1.222   6.220   5.464 -0.5792 -1.0825 -0.7001
 2159SOL    HW3 8409   1.365   6.223   5.516 -0.8492  0.0031  0.0073
 2159SOL    MW4 8410   1.303   6.188   5.464 -0.0395 -0.3201  0.0283
 2160SOL     OW 8411   2.840   2.332   6.212  0.4457 -0.5285 -0.1626
 2160SOL    HW2 8412   2.895   2.386   6.268  2.1477 -3.3558  1.1447
 2160SOL    HW3 8413   2.824   2.252   6.263 -0.9788 -1.7745 -2.3463
 2160SOL    MW4 8414   2.845   2.328   6.226 -0.3214 -0.1586  0.0086
 2161SOL     OW 8415   0.971   3.853   5.753 -0.0034 -0.5829 -0.3912
 2161SOL    HW2 8416   1.036   3.839   5.822  0.0458 -0.9598 -0.5122
 2161SOL    HW3 8417   0.967   3.770   5.707 -1.0285 -0.7627 -0.0042
 2161SOL    MW4 8418   0.979   3.840   5.756  0.1451 -0.1357 -0.3719
 2162SOL     OW 8419   3.685   5.984   3.709 -0.0986  0.3810  0.1356
 2162SOL    HW2 8420   3.631   5.904   3.710  0.7410 -0.2401 -1.5265
 2162SOL    HW3 8421   3.634   6.047   3.760 -1.5578 -0.7210  0.1185
 2162SOL    MW4 8422   3.671   5.982   3.716  0.6499  0.7782 -0.1185
 2163SOL     OW 8423   2.996   3.731   1.376 -0.2656 -0.1921 -0.4612
 2163SOL    HW2 8424   2.919   3.775   1.411 -0.0106  0.5368 -0.8073
 2163SOL    HW3 8425   3.054   3.802   1.348  1.2196 -0.6812  1.2265
 2163SOL    MW4 8426   2.993   3.746   1.377 -0.0317  0.2298  0.2480
 2164SOL     OW 8427   3.668   0.656   3.603  0.1279  0.2447 -0.2451
 2164SOL    HW2 8428   3.619   0.577   3.626 -0.9378  0.2070 -2.3623
 2164SOL    HW3 8429   3.722   0.629   3.529  0.1594  1.3543 -0.6446
 2164SOL    MW4 8430   3.669   0.642   3.596 -0.4055  0.0205 -0.0112
 2165SOL     OW 8431   0.096   0.905   3.558  0.5909 -0.6378 -0.1809
 2165SOL    HW2 8432   0.156   0.968   3.596 -0.0274 -0.9789  1.4230
 2165SOL    HW3 8433   0.120   0.821   3.599 -2.1448 -0.4808  2.0123
 2165SOL    MW4 8434   0.107   0.902   3.568 -0.3098 -0.0486  0.0104
 2166SOL     OW 8435   5.340   2.679   1.631  0.0455 -0.2337 -0.1912
 2166SOL    HW2 8436   5.320   2.691   1.538 -1.5407 -0.8414  0.0451
 2166SOL    HW3 8437   5.311   2.760   1.673 -1.2328 -0.7695  0.0278
 2166SOL    MW4 8438   5.333   2.691   1.624  0.2704  0.1653 -0.5921
 2167SOL     OW 8439   1.417   0.451   4.548  0.2770 -0.1491  0.1160
 2167SOL    HW2 8440   1.418   0.445   4.643  0.1971  1.0675  0.2054
 2167SOL    HW3 8441   1.426   0.360   4.518  1.3557 -0.4379  1.2653
 2167SOL    MW4 8442   1.418   0.438   4.557 -0.2687  0.8279  0.3068
 2168SOL     OW 8443   2.587   4.927   0.043  0.5852  0.0025  0.3066
 2168SOL    HW2 8444   2.545   4.897  -0.038 -0.7679 -1.2579  1.4135
 2168SOL    HW3 8445   2.517   4.971   0.091  1.8423  2.4866  0.0215
 2168SOL    MW4 8446   2.572   4.929   0.038 -0.3122  0.3533  0.5639
 2169SOL     OW 8447   3.517   5.965   6.036  0.7475  0.4518  0.2095
 2169SOL    HW2 8448   3.581   5.910   5.991  0.8894  0.5734  0.2638
 2169SOL    HW3 8449   3.554   6.053   6.033  0.6810  0.4876  0.4215
 2169SOL    MW4 8450   3.530   5.969   6.030 -0.1947  0.4490 -0.0079
 2170SOL     OW 8451   0.103   4.739   1.234  0.0395 -0.3466 -0.6429
 2170SOL    HW2 8452   0.119   4.649   1.263  1.0014 -0.0114 -0.0705
 2170SOL    HW3 8453   0.191   4.774   1.217 -0.3311  0.4598 -0.9388
 2170SOL    MW4 8454   0.117   4.731   1.236  0.1563  0.0683 -0.0343
 2171SOL     OW 8455   5.162   2.768   6.118  0.6166 -0.2341  0.3548
 2171SOL    HW2 8456   5.166   2.674   6.100  0.0232  0.0672 -1.6005
 2171SOL    HW3 8457   5.068   2.786   6.129  0.4709  0.5122 -1.8048
 2171SOL    MW4 8458   5.150   2.758   6.117 -0.1568 -0.0414  0.1160
 2172SOL     OW 8459   2.098   4.739   5.451  0.0238  0.4294  0.4596
 2172SOL    HW2 8460   2.191   4.748   5.475 -0.6871  1.4146  3.2614
 2172SOL    HW3 8461   2.077   4.648   5.468  0.8052 -0.2164 -1.7538
 2172SOL    MW4 8462   2.108   4.728   5.457 -0.2091  0.2308 -0.1165
 2173SOL     OW 8463   0.845   0.467   1.588  0.4546 -0.4287 -0.6814
 2173SOL    HW2 8464   0.847   0.478   1.683  2.6543  0.0436 -0.7328
 2173SOL    HW3 8465   0.857   0.373   1.574  0.7331 -0.4205 -0.4985
 2173SOL    MW4 8466   0.847   0.456   1.598 -0.1345  0.3244  0.0314
 2174SOL     OW 8467   1.947   4.488   0.672  0.5041 -0.1639  0.5418
 2174SOL    HW2 8468   1.901   4.484   0.588  1.3247  1.0399  0.0055
 2174SOL    HW3 8469   1.902   4.424   0.727  0.0548 -1.1165 -0.8609
 2174SOL    MW4 8470   1.935   4.479   0.668  0.5497 -0.7046  0.6795
 2175SOL     OW 8471   2.137   3.231   6.054  0.2322 -0.4708 -0.2735
 2175SOL    HW2 8472   2.216   3.261   6.011  1.3785 -2.9970 -0.1012
 2175SOL    HW3 8473   2.067   3.245   5.990  1.0989  0.2697 -1.0728
 2175SOL    MW4 8474   2.138   3.237   6.040 -0.2472 -0.4534 -0.3960
 2176SOL     OW 8475   5.783   5.809   4.475 -0.9654  0.0738 -0.2981
 2176SOL    HW2 8476   5.865   5.858   4.471 -1.1631  0.3723 -0.7895
 2176SOL    HW3 8477   5.727   5.850   4.410 -1.3260 -0.4684 -0.3401
 2176SOL    MW4 8478   5.786   5.821   4.466  0.7271  0.7732 -0.1071
 2177SOL     OW 8479   0.218   2.097   4.775  0.5510  0.0183 -0.2438
 2177SOL    HW2 8480   0.296   2.048   4.801  0.4318  0.3609  0.7945
 2177SOL    HW3 8481   0.250   2.163   4.714  0.9999 -0.1255 -0.1671
 2177SOL    MW4 8482   0.232   2.099   4.770  0.4307 -0.3554 -0.1451
 2178SOL     OW 8483   1.549   1.493   5.919  0.0127  0.3356  0.2568
 2178SOL    HW2 8484   1.511   1.423   5.973  0.4270 -0.0107  0.1028
 2178SOL    HW3 8485   1.475   1.550   5.899 -0.3383 -0.0798  0.3488
 2178SOL    MW4 8486   1.535   1.492   5.924  0.2102 -0.3433  0.1579
 2179SOL     OW 8487   6.211   6.256   2.514 -0.5583 -0.3715  0.0354
 2179SOL    HW2 8488   6.232   6.178   2.565  0.2453  0.1343  0.4984
 2179SOL    HW3 8489   6.212   6.328   2.577 -0.0096  0.1936 -0.5987
 2179SOL    MW4 8490   6.214   6.255   2.529 -0.3910 -0.2137  0.1072
 2180SOL     OW 8491   4.661   2.907   5.121 -0.1279  0.0134  0.1279
 2180SOL    HW2 8492   4.576   2.946   5.100  0.9222  2.1557 -0.3571
 2180SOL    HW3 8493   4.642   2.847   5.194 -1.9827  0.7332  0.2928
 2180SOL    MW4 8494   4.647   2.904   5.128  0.0944  0.4460  1.2285
 2181SOL     OW 8495   2.621   1.221   1.704  0.0233  0.3155 -0.1562
 2181SOL    HW2 8496   2.542   1.196   1.656  1.1171 -0.5355 -1.5806
 2181SOL    HW3 8497   2.600   1.307   1.741 -1.7092 -0.0826 -0.1273
 2181SOL    MW4 8498   2.608   1.229   1.703  0.1824  0.0462 -0.3569
 2182SOL     OW 8499   6.014   3.619   2.781  0.5691 -0.5990  0.4825
 2182SOL    HW2 8500   6.087   3.598   2.723  0.1309  0.4020 -0.4732
 2182SOL    HW3 8501   6.056   3.652   2.861  1.1665 -1.2429  0.4445
 2182SOL    MW4 8502   6.029   3.621   2.784 -0.3493  0.3302  0.2245
 2183SOL     OW 8503   5.737   4.076   4.415  0.1136  0.0142 -0.3233
 2183SOL    HW2 8504   5.788   4.029   4.349  0.5691 -0.8587  0.6218
 2183SOL    HW3 8505   5.683   4.009   4.456 -0.0369  0.5125  0.3127
 2183SOL    MW4 8506   5.737   4.061   4.412 -0.4281 -0.1448  0.4794
 2184SOL     OW 8507   5.871   0.296   5.877 -0.5595  0.3386 -0.2030
 2184SOL    HW2 8508   5.879   0.339   5.792 -0.3744  0.2027 -0.2561
 2184SOL    HW3 8509   5.962   0.280   5.904 -0.6092  0.7485  0.2092
 2184SOL    MW4 8510   5.884   0.299   5.869 -0.1128 -0.0956  0.1958
 2185SOL     OW 8511   5.019   5.778   0.746  0.0433 -0.8414 -0.0989
 2185SOL    HW2 8512   4.948   5.799   0.806 -0.4382 -0.7019 -0.7057
 2185SOL    HW3 8513   4.975   5.744   0.668  0.5183  0.8940 -1.1845
 2185SOL    MW4 8514   5.004   5.776   0.743  0.0847  0.0437  0.0759
 2186SOL     OW 8515   4.314   5.854   2.245 -0.2670  0.4212 -0.1185
 2186SOL    HW2 8516   4.274   5.941   2.234 -1.0966  0.7393  3.8834
 2186SOL    HW3 8517   4.239   5.796   2.258  0.3479 -0.7413 -1.5188
 2186SOL    MW4 8518   4.299   5.858   2.245 -0.5794  0.3982  0.4284
 2187SOL     OW 8519   5.968   2.526   0.527  0.2559 -0.5710  0.4004
 2187SOL    HW2 8520   6.042   2.481   0.568  0.7876  1.6220  2.0126
 2187SOL    HW3 8521   6.009   2.593   0.471 -0.4698  0.7250  1.3792
 2187SOL    MW4 8522   5.983   2.529   0.525 -0.0483  0.4104 -0.1783
 2188SOL     OW 8523   6.107   5.181   6.116 -0.1031  0.1484  0.5037
 2188SOL    HW2 8524   6.065   5.128   6.183  0.2305 -1.3153 -0.4088
 2188SOL    HW3 8525   6.037   5.199   6.053  0.1437 -0.5726  0.0121
 2188SOL    MW4 8526   6.092   5.176   6.117  0.4074 -0.2787 -0.2673
 2189SOL     OW 8527   5.335   0.712   6.043 -0.1313  0.9238  0.0638
 2189SOL    HW2 8528   5.325   0.777   6.112 -0.3179  1.1171 -0.1458
 2189SOL    HW3 8529   5.301   0.631   6.081  0.8525  0.7530  0.6125
 2189SOL    MW4 8530   5.329   0.710   6.057 -0.4897  0.3086  0.4710
 2190SOL     OW 8531   2.563   2.526   2.911  0.1516  0.0886 -0.3564
 2190SOL    HW2 8532   2.655   2.540   2.888 -0.1091  1.4166 -0.6573
 2190SOL    HW3 8533   2.518   2.521   2.826 -0.0927 -0.2962 -0.2066
 2190SOL    MW4 8534   2.569   2.527   2.897  0.3713 -0.1002 -0.3112
 2191SOL     OW 8535   4.359   3.630   0.340 -0.2095  0.4162  0.1963
 2191SOL    HW2 8536   4.339   3.719   0.312  1.0436  0.6203 -0.0817
 2191SOL    HW3 8537   4.445   3.636   0.382  1.4972 -1.1895 -2.7676
 2191SOL    MW4 8538   4.368   3.642   0.342 -0.3560  0.5609 -0.0617
 2192SOL     OW 8539   5.636   4.682   0.453  0.3686 -0.2167  0.0037
 2192SOL    HW2 8540   5.649   4.744   0.525 -0.4658  0.5434 -0.4852
 2192SOL    HW3 8541   5.543   4.687   0.433 -0.0546 -2.7135  0.8986
 2192SOL    MW4 8542   5.626   4.691   0.460  0.3277  0.0801 -0.3737
 2193SOL     OW 8543   4.887   1.723   4.100  0.4668  0.3105  0.0447
 2193SOL    HW2 8544   4.958   1.665   4.127  0.2408  0.4053  0.8712
 2193SOL    HW3 8545   4.814   1.701   4.158  0.0920  0.7920 -0.2339
 2193SOL    MW4 8546   4.887   1.712   4.111 -0.3870  0.3360  0.2159
 2194SOL     OW 8547   3.465   2.792   2.350  0.1324 -0.0876  0.0884
 2194SOL    HW2 8548   3.518   2.784   2.430 -0.2181 -0.0105  0.3334
 2194SOL    HW3 8549   3.468   2.885   2.329 -2.6262  0.5582  2.0256
 2194SOL    MW4 8550   3.472   2.803   2.358  0.2605 -0.3291  0.1613
 2195SOL     OW 8551   0.615   1.309   2.624 -0.1610 -0.0203 -0.4692
 2195SOL    HW2 8552   0.533   1.343   2.659  0.4740  0.8597  0.2194
 2195SOL    HW3 8553   0.591   1.266   2.542 -1.2512  0.5427 -0.4552
 2195SOL    MW4 8554   0.601   1.308   2.617 -0.3739  0.5251  0.2437
 2196SOL     OW 8555   1.401   6.026   1.540  0.0364 -0.4641 -0.1515
 2196SOL    HW2 8556   1.431   6.029   1.449  0.8218  1.9871  0.1058
 2196SOL    HW3 8557   1.463   5.967   1.584  1.5695  0.6865 -0.6510
 2196SOL    MW4 8558   1.413   6.019   1.534 -0.3995 -0.5194  0.1511
 2197SOL     OW 8559   2.789   3.842   1.483  0.2491  0.1901 -0.0615
 2197SOL    HW2 8560   2.755   3.913   1.429 -1.6314  0.5987  1.5788
 2197SOL    HW3 8561   2.714   3.785   1.500  1.1952 -0.9220  0.6190
 2197SOL    MW4 8562   2.775   3.844   1.478  0.0733 -0.5879 -0.0119
 2198SOL     OW 8563   0.225   5.727   0.904  0.6273  0.0741 -0.5618
 2198SOL    HW2 8564   0.153   5.774   0.862  0.0666 -0.5367 -0.3055
 2198SOL    HW3 8565   0.294   5.793   0.913 -0.5026  1.1604  0.7324
 2198SOL    MW4 8566   0.224   5.742   0.900  1.0455 -0.4028  0.6088
 2199SOL     OW 8567   6.274   3.409   4.642  0.0044 -0.0861  0.3538
 2199SOL    HW2 8568   6.347   3.462   4.611 -0.5987  0.3006 -0.4664
 2199SOL    HW3 8569   6.196   3.456   4.612 -0.6282  0.0720  2.1204
 2199SOL    MW4 8570   6.273   3.422   4.634 -0.1663 -0.5143  0.2987
 2200SOL     OW 8571   3.133   5.441   2.833  0.2738  0.3788 -0.2742
 2200SOL    HW2 8572   3.215   5.450   2.785 -0.0112 -0.3366 -0.9253
 2200SOL    HW3 8573   3.112   5.529   2.864 -0.2083  1.1415 -2.5911
 2200SOL    MW4 8574   3.141   5.453   2.831 -0.1657 -0.8595 -0.0404
 2201SOL     OW 8575   1.449   1.480   3.340  0.0196 -0.1894 -0.0752
 2201SOL    HW2 8576   1.386   1.408   3.349  0.9982 -1.1436 -0.5453
 2201SOL    HW3 8577   1.473   1.503   3.430 -1.0041  0.2168  0.1118
 2201SOL    MW4 8578   1.444   1.473   3.353 -0.2902  0.1076  0.1440
 2202SOL     OW 8579   3.081   1.973   0.685  0.0589  0.4925 -0.0927
 2202SOL    HW2 8580   3.114   2.063   0.690  0.5378  0.2670  2.3444
 2202SOL    HW3 8581   2.991   1.982   0.655  0.3655  1.7028 -0.7101
 2202SOL    MW4 8582   3.074   1.986   0.682  0.1580  0.8983 -0.2441
 2203SOL     OW 8583   1.780   2.584   4.673 -0.1926  0.3745  0.3950
 2203SOL    HW2 8584   1.712   2.652   4.673 -2.9193 -2.1107  1.8117
 2203SOL    HW3 8585   1.785   2.556   4.765  0.4301 -1.6471 -0.2137
 2203SOL    MW4 8586   1.772   2.589   4.685  0.0383  0.0702 -0.2724
 2204SOL     OW 8587   0.163   2.067   2.422 -0.0239  0.0507 -0.7629
 2204SOL    HW2 8588   0.230   2.100   2.482 -1.4311  1.1871  0.2752
 2204SOL    HW3 8589   0.185   2.107   2.338 -1.5859  3.8581  0.4132
 2204SOL    MW4 8590   0.175   2.077   2.419  0.0843  0.0852  0.6855
 2205SOL     OW 8591   5.833   5.728   6.455 -0.1913 -0.3028 -0.1110
 2205SOL    HW2 8592   5.880   5.717   6.538  1.6262  2.6796 -0.5801
 2205SOL    HW3 8593   5.764   5.792   6.475 -0.7250 -0.7330 -0.5628
 2205SOL    MW4 8594   5.830   5.735   6.469 -0.3208  0.2451  0.1423
 2206SOL     OW 8595   5.816   0.299   3.801  0.4747 -0.1278  0.2263
 2206SOL    HW2 8596   5.821   0.395   3.801  0.8738 -0.1320 -0.7662
 2206SOL    HW3 8597   5.723   0.280   3.817  0.2714  0.4486 -0.2296
 2206SOL    MW4 8598   5.804   0.309   3.803  0.8168 -0.0234 -0.2964
 2207SOL     OW 8599   1.362   4.544   1.191 -0.0008  0.1931 -0.0428
 2207SOL    HW2 8600   1.281   4.521   1.237 -0.5645 -0.2432 -1.2063
 2207SOL    HW3 8601   1.371   4.477   1.123  1.1184  0.4811 -0.1958
 2207SOL    MW4 8602   1.352   4.532   1.188  1.3873  0.2587  0.5810
 2208SOL     OW 8603   1.692   2.360   2.428 -0.5416  0.3173  0.3276
 2208SOL    HW2 8604   1.616   2.323   2.474 -0.2593  1.5164  1.8689
 2208SOL    HW3 8605   1.749   2.284   2.411 -1.9448 -0.5556 -0.6151
 2208SOL    MW4 8606   1.690   2.345   2.432 -0.4514 -0.1731  0.3528
 2209SOL     OW 8607   1.887   5.958   6.097 -0.2423 -0.8320  0.2525
 2209SOL    HW2 8608   1.859   5.877   6.055  1.5185 -0.6235 -1.4597
 2209SOL    HW3 8609   1.974   5.938   6.133 -0.0150  0.1300  0.2718
 2209SOL    MW4 8610   1.895   5.945   6.096  0.3704 -0.0916  0.4367
 2210SOL     OW 8611   0.825   0.305   3.672  0.3358 -0.0793  0.3319
 2210SOL    HW2 8612   0.778   0.239   3.723 -0.8186 -0.9601 -1.7871
 2210SOL    HW3 8613   0.821   0.274   3.582  0.4407  2.4943 -0.6414
 2210SOL    MW4 8614   0.818   0.292   3.667  0.3890 -0.1993 -0.2043
 2211SOL     OW 8615   1.701   3.417   2.343  0.2608 -0.4192  0.2036
 2211SOL    HW2 8616   1.771   3.407   2.278 -0.6109 -0.7125 -0.7235
 2211SOL    HW3 8617   1.740   3.386   2.425  1.0391 -1.1493 -0.4161
 2211SOL    MW4 8618   1.715   3.411   2.345 -0.0408 -0.8207  0.0990
 2212SOL     OW 8619   3.790   3.000   5.126  0.0996  0.1575 -0.2802
 2212SOL    HW2 8620   3.797   2.990   5.031 -4.3945  0.6238 -0.8809
 2212SOL    HW3 8621   3.786   3.094   5.141 -1.8200  0.0822 -0.0391
 2212SOL    MW4 8622   3.790   3.011   5.116 -0.7503  0.0937  0.2764
 2213SOL     OW 8623   1.939   1.691   6.133 -0.5804  0.0342  0.1719
 2213SOL    HW2 8624   1.987   1.646   6.063 -0.3868 -0.7018  0.7631
 2213SOL    HW3 8625   1.875   1.745   6.086 -1.2400 -1.3294 -0.5760
 2213SOL    MW4 8626   1.937   1.692   6.117 -0.2191  0.3557  0.5637
 2214SOL     OW 8627   1.975   4.982   2.729  0.0590 -0.2609 -0.5423
 2214SOL    HW2 8628   1.940   5.025   2.807 -0.6439  0.7280 -1.3765
 2214SOL    HW3 8629   2.048   5.038   2.702 -1.1858  0.7645 -1.9342
 2214SOL    MW4 8630   1.980   4.995   2.736  0.6356 -0.1630  0.0678
 2215SOL     OW 8631   4.814   4.032   4.172  0.7481 -0.2392  0.2853
 2215SOL    HW2 8632   4.869   4.035   4.250 -0.9233  1.3788  1.4704
 2215SOL    HW3 8633   4.765   4.114   4.174  0.1711 -0.4572 -2.1321
 2215SOL    MW4 8634   4.815   4.043   4.183  0.0124  0.2448 -0.1529
 2216SOL     OW 8635   0.727   0.788   5.411 -0.2295  0.6254 -0.3062
 2216SOL    HW2 8636   0.743   0.803   5.504  0.5349 -0.7620 -0.1834
 2216SOL    HW3 8637   0.797   0.728   5.384 -0.9368  0.3282 -1.5755
 2216SOL    MW4 8638   0.739   0.782   5.420 -0.3369 -0.7549 -0.2780
 2217SOL     OW 8639   4.215   0.227   5.696 -0.1283 -0.4010  0.2471
 2217SOL    HW2 8640   4.259   0.276   5.626  2.1737 -1.1788  1.0430
 2217SOL    HW3 8641   4.164   0.161   5.649  0.2866 -0.0470 -0.7433
 2217SOL    MW4 8642   4.214   0.225   5.680 -0.1147  0.2568 -0.0809
 2218SOL     OW 8643   2.611   5.262   1.490 -0.1428 -0.0877 -0.0136
 2218SOL    HW2 8644   2.607   5.357   1.486 -0.9141 -0.1410 -1.0783
 2218SOL    HW3 8645   2.684   5.243   1.549 -0.0396  1.1531  0.2852
 2218SOL    MW4 8646   2.620   5.272   1.497 -0.1114 -0.1869  0.0950
 2219SOL     OW 8647   4.445   5.957   3.892 -0.2933 -0.7397  0.9241
 2219SOL    HW2 8648   4.424   5.987   3.803 -0.3181  1.1271  1.5160
 2219SOL    HW3 8649   4.363   5.964   3.940  0.0743 -0.1651  1.4889
 2219SOL    MW4 8650   4.432   5.962   3.886 -0.3584 -0.0363 -0.1757
 2220SOL     OW 8651   6.005   6.346   5.289  0.1411 -0.0054 -0.6548
 2220SOL    HW2 8652   6.075   6.367   5.227 -0.5744  0.3005 -1.3745
 2220SOL    HW3 8653   5.949   6.284   5.242 -0.7802  0.7486 -0.5874
 2220SOL    MW4 8654   6.007   6.341   5.274 -0.5335  0.3745  0.3978
 2221SOL     OW 8655   1.521   5.100   4.999 -0.5682 -0.1276  0.3078
 2221SOL    HW2 8656   1.566   5.019   5.022  1.1565 -0.0822 -2.4314
 2221SOL    HW3 8657   1.443   5.071   4.951 -0.5496 -0.1671  0.3017
 2221SOL    MW4 8658   1.516   5.086   4.996  0.0568  0.7396 -0.9167
 2222SOL     OW 8659   6.266   5.362   6.272 -0.0120 -0.2764  0.2973
 2222SOL    HW2 8660   6.221   5.292   6.225  0.8654 -0.8073  0.2135
 2222SOL    HW3 8661   6.290   5.425   6.203 -1.3167  0.4060  0.4542
 2222SOL    MW4 8662   6.263   5.361   6.256  0.0232 -0.1286  0.5000
 2223SOL     OW 8663   0.955   6.359   0.338  0.4211 -0.5276 -0.2058
 2223SOL    HW2 8664   0.942   6.299   0.411 -0.7463  0.2232  0.2353
 2223SOL    HW3 8665   0.990   6.305   0.267  1.6234 -1.2610  0.9134
 2223SOL    MW4 8666   0.958   6.344   0.338 -0.3915 -0.2657 -0.0255
 2224SOL     OW 8667   0.539   2.489   4.077  0.3041 -1.3194 -0.1638
 2224SOL    HW2 8668   0.494   2.492   4.162  0.4114 -1.6590 -0.0969
 2224SOL    HW3 8669   0.516   2.573   4.036 -0.3259 -1.4520 -0.0944
 2224SOL    MW4 8670   0.530   2.501   4.083 -0.2128 -0.5483  0.5098
 2225SOL     OW 8671   4.234   1.974   5.642  0.0342  0.4301 -0.2011
 2225SOL    HW2 8672   4.213   2.047   5.584  1.9540 -0.2095 -1.8671
 2225SOL    HW3 8673   4.181   1.901   5.608 -1.7908  0.9563  1.3847
 2225SOL    MW4 8674   4.224   1.974   5.630  0.6791 -0.3529 -0.1717
 2226SOL     OW 8675   0.778   4.685   3.394 -0.0215 -0.0287 -0.5595
 2226SOL    HW2 8676   0.810   4.727   3.315 -1.4473 -1.1590 -1.7892
 2226SOL    HW3 8677   0.803   4.593   3.384  1.2997  0.0900  1.1479
 2226SOL    MW4 8678   0.786   4.678   3.383 -0.7984  0.0807 -0.0120
 2227SOL     OW 8679   5.770   5.150   2.397 -0.0897 -0.2222 -0.1118
 2227SOL    HW2 8680   5.773   5.092   2.474  2.8230 -1.3530 -0.9416
 2227SOL    HW3 8681   5.768   5.090   2.322 -2.1038  0.8596 -1.0070
 2227SOL    MW4 8682   5.770   5.134   2.397 -0.6373 -0.0412 -0.1377
 2228SOL     OW 8683   3.023   0.036   3.624  0.0211  0.0504 -0.3889
 2228SOL    HW2 8684   2.946  -0.019   3.636  0.4741 -0.9756 -1.8866
 2228SOL    HW3 8685   3.080  -0.014   3.566  1.5781  1.0291  0.2060
 2228SOL    MW4 8686   3.020   0.022   3.618 -0.2146 -0.0078  0.0741
 2229SOL     OW 8687   0.977   5.889   4.288 -0.3003 -0.0491 -0.0661
 2229SOL    HW2 8688   1.058   5.941   4.290  1.2422 -2.3264  1.9196
 2229SOL    HW3 8689   0.923   5.933   4.222  2.8752  1.0404 -2.2113
 2229SOL    MW4 8690   0.980   5.902   4.280 -0.2598  0.1779 -0.1570
 2230SOL     OW 8691   2.214   2.366   0.160  0.7202 -0.1216  0.3672
 2230SOL    HW2 8692   2.142   2.368   0.098  2.3809 -0.9486 -1.7143
 2230SOL    HW3 8693   2.214   2.454   0.199 -1.0038  0.0768 -0.0007
 2230SOL    MW4 8694   2.205   2.378   0.157 -0.0225 -0.7524  0.3907
 2231SOL     OW 8695   4.428   5.326   3.156  0.0597 -0.4888 -0.3409
 2231SOL    HW2 8696   4.391   5.251   3.109 -0.5142 -1.6079  1.7673
 2231SOL    HW3 8697   4.410   5.307   3.248  2.8197  0.6515  0.5161
 2231SOL    MW4 8698   4.420   5.313   3.162  0.6271  0.2712  0.0237
 2232SOL     OW 8699   2.539   4.631   3.359  0.1836  0.7094  1.3101
 2232SOL    HW2 8700   2.449   4.605   3.340  0.5513  0.3874 -0.1441
 2232SOL    HW3 8701   2.584   4.623   3.275  1.1331  2.7409  1.5816
 2232SOL    MW4 8702   2.533   4.626   3.345  0.0515 -0.0297  0.6056
 2233SOL     OW 8703   5.774   3.790   4.033 -0.4604 -0.2490 -0.2360
 2233SOL    HW2 8704   5.829   3.712   4.030 -0.7676 -0.5018  0.4423
 2233SOL    HW3 8705   5.778   3.826   3.945 -0.8285 -1.4035 -0.7466
 2233SOL    MW4 8706   5.782   3.784   4.021 -0.4536  0.0409 -0.4361
 2234SOL     OW 8707   0.912   6.385   6.075 -0.3485 -0.4271 -0.2497
 2234SOL    HW2 8708   0.987   6.444   6.085 -0.9467  0.2495  0.3292
 2234SOL    HW3 8709   0.889   6.359   6.164 -1.7245  0.5651 -0.2841
 2234SOL    MW4 8710   0.919   6.389   6.088  0.2274  0.0665 -0.0711
 2235SOL     OW 8711   0.540   4.720   0.604 -0.6227  0.6704 -0.7582
 2235SOL    HW2 8712   0.456   4.675   0.609  0.1795 -0.9022 -0.8936
 2235SOL    HW3 8713   0.594   4.679   0.671  0.5604  0.4999 -1.7704
 2235SOL    MW4 8714   0.536   4.709   0.613  0.0568  0.2807  0.0043
 2236SOL     OW 8715   4.648   0.579   0.827 -0.2165 -0.7157 -0.0509
 2236SOL    HW2 8716   4.681   0.616   0.745 -0.2759 -0.4957  0.0244
 2236SOL    HW3 8717   4.715   0.600   0.892 -0.3569 -0.5427  0.0377
 2236SOL    MW4 8718   4.661   0.586   0.825 -0.4133 -0.3095 -0.7483
 2237SOL     OW 8719   3.792   3.866   1.030  0.3696  0.2628 -0.5528
 2237SOL    HW2 8720   3.758   3.906   0.951 -0.3153 -1.8059 -1.3869
 2237SOL    HW3 8721   3.738   3.788   1.043 -0.3408  1.1195  2.6436
 2237SOL    MW4 8722   3.781   3.861   1.021 -0.1955  0.8272  0.2678
 2238SOL     OW 8723   6.342   4.878   3.504  0.2320  0.4157  0.2221
 2238SOL    HW2 8724   6.329   4.972   3.492  0.5374  0.5323  0.8059
 2238SOL    HW3 8725   6.386   4.850   3.423  0.2228  0.7897  0.0842
 2238SOL    MW4 8726   6.346   4.887   3.492 -0.1510  0.6951  0.8004
 2239SOL     OW 8727   1.895   4.481   2.113 -0.3775 -0.1469 -0.2900
 2239SOL    HW2 8728   1.943   4.527   2.044 -0.5359  1.5947  0.7150
 2239SOL    HW3 8729   1.944   4.400   2.127  0.1058 -0.1636 -1.8683
 2239SOL    MW4 8730   1.908   4.476   2.105 -0.0841  0.4342  0.1940
 2240SOL     OW 8731   2.633   4.641   4.635 -0.0805  0.1772  0.2242
 2240SOL    HW2 8732   2.705   4.580   4.651 -0.8645 -0.5880  0.9234
 2240SOL    HW3 8733   2.633   4.700   4.710 -0.2888  0.0614  0.3172
 2240SOL    MW4 8734   2.642   4.640   4.647 -0.5669 -0.0633 -0.1445
 2241SOL     OW 8735   5.633   0.446   4.188 -0.2734  0.0130 -0.4177
 2241SOL    HW2 8736   5.624   0.361   4.232 -0.3931  1.2628  2.1521
 2241SOL    HW3 8737   5.544   0.469   4.161 -0.2412 -0.6504 -1.1191
 2241SOL    MW4 8738   5.620   0.438   4.191  0.3920 -0.6694  0.3824
 2242SOL     OW 8739   1.704   1.926   2.391  0.0904  0.2944 -0.0162
 2242SOL    HW2 8740   1.750   1.906   2.310  1.4528  1.7761  0.3434
 2242SOL    HW3 8741   1.711   1.846   2.443  0.2224 -0.2734 -0.8876
 2242SOL    MW4 8742   1.711   1.913   2.387 -0.3259 -0.1190 -0.2907
 2243SOL     OW 8743   0.472   5.853   0.976  0.2975 -0.8098 -0.0420
 2243SOL    HW2 8744   0.508   5.928   1.025  0.3108  0.1932 -1.5304
 2243SOL    HW3 8745   0.549   5.804   0.947  0.2867 -1.4948  1.0231
 2243SOL    MW4 8746   0.487   5.856   0.979  0.4546 -0.1367  0.5350
 2244SOL     OW 8747   2.097   4.077   2.363  0.0199 -0.1548 -0.3559
 2244SOL    HW2 8748   2.183   4.096   2.325 -0.6086  0.3530 -1.5902
 2244SOL    HW3 8749   2.035   4.116   2.301 -1.1644 -1.9957 -0.4054
 2244SOL    MW4 8750   2.100   4.085   2.350 -0.0868  0.6903  0.5953
 2245SOL     OW 8751   5.087   1.827   4.392 -0.4136  0.0280 -0.0282
 2245SOL    HW2 8752   4.997   1.860   4.385 -0.1040  1.2787  1.4786
 2245SOL    HW3 8753   5.130   1.888   4.451  1.4385 -0.5755 -0.7050
 2245SOL    MW4 8754   5.081   1.840   4.399  0.8211  0.5676  0.3184
 2246SOL     OW 8755   4.535   2.819   1.021 -0.0046 -1.0100  0.4792
 2246SOL    HW2 8756   4.538   2.750   1.088 -0.5003 -1.7463 -0.2436
 2246SOL    HW3 8757   4.627   2.831   0.996  0.4052  0.4314  2.4127
 2246SOL    MW4 8758   4.548   2.812   1.027  0.2079 -0.3329  0.2929
 2247SOL     OW 8759   6.200   3.918   2.797  0.3064  0.5782 -1.1372
 2247SOL    HW2 8760   6.264   3.976   2.837  1.4857 -1.0840 -0.4955
 2247SOL    HW3 8761   6.169   3.862   2.868 -0.2731 -0.0549 -1.8616
 2247SOL    MW4 8762   6.204   3.918   2.811 -0.0909  0.6442 -0.0362
 2248SOL     OW 8763   0.798   1.559   3.729  0.2473  0.6648  0.7005
 2248SOL    HW2 8764   0.857   1.634   3.723  0.2443  0.6958  1.0041
 2248SOL    HW3 8765   0.847   1.487   3.690  0.1658  0.8695  0.2108
 2248SOL    MW4 8766   0.812   1.559   3.723 -0.4067  0.4272 -0.1031
 2249SOL     OW 8767   3.880   2.181   5.024 -0.0790 -0.1232  0.1800
 2249SOL    HW2 8768   3.808   2.203   4.964 -0.3148 -1.8396 -0.2344
 2249SOL    HW3 8769   3.931   2.115   4.977  0.0024 -1.1731  1.6505
 2249SOL    MW4 8770   3.877   2.175   5.010  0.4265 -0.3549 -0.3347
 2250SOL     OW 8771   4.030   0.332   2.110 -0.3116  0.6072 -0.0653
 2250SOL    HW2 8772   4.002   0.297   2.025  0.0544  0.4093 -0.1018
 2250SOL    HW3 8773   4.057   0.422   2.090  2.1076 -0.1889 -0.6166
 2250SOL    MW4 8774   4.030   0.339   2.096 -0.3711  0.2015  0.5075
 2251SOL     OW 8775   1.472   3.730   4.352 -0.2232 -0.3290  0.9250
 2251SOL    HW2 8776   1.482   3.735   4.447 -0.2558  0.9081  0.8819
 2251SOL    HW3 8777   1.559   3.705   4.320  0.5646  1.9569  1.1177
 2251SOL    MW4 8778   1.485   3.727   4.360 -0.2448 -0.0199  0.4956
 2252SOL     OW 8779   1.928   4.436   0.284 -0.0444 -0.3776 -0.1955
 2252SOL    HW2 8780   2.008   4.396   0.318  0.9406  2.5499  1.3669
 2252SOL    HW3 8781   1.857   4.388   0.326  1.0972  0.5384  3.1420
 2252SOL    MW4 8782   1.929   4.425   0.294 -0.2770  0.4670  0.0546
 2253SOL     OW 8783   6.096   4.546   5.040  0.2587  0.4786 -0.1901
 2253SOL    HW2 8784   6.191   4.536   5.034  0.1885  0.4729 -1.4238
 2253SOL    HW3 8785   6.076   4.529   5.132  1.2627 -1.3088 -0.2510
 2253SOL    MW4 8786   6.106   4.542   5.051 -0.0860 -0.3483  0.5410
 2254SOL     OW 8787   4.079   3.768   1.516 -0.4590 -0.2563  0.1950
 2254SOL    HW2 8788   4.172   3.753   1.535 -0.0660 -0.4426 -1.7093
 2254SOL    HW3 8789   4.036   3.761   1.601  1.2862 -0.0046  1.1491
 2254SOL    MW4 8790   4.086   3.765   1.530  0.3852 -0.0747  0.2739
 2255SOL     OW 8791   3.924   5.332   1.151 -0.0157 -0.3679  0.0562
 2255SOL    HW2 8792   3.984   5.328   1.226 -0.8226  0.3789  0.7611
 2255SOL    HW3 8793   3.838   5.350   1.189 -0.9642 -2.6313 -0.8141
 2255SOL    MW4 8794   3.921   5.333   1.166  0.1001 -0.3144 -0.1412
 2256SOL     OW 8795   1.491   5.301   0.569  0.3134 -0.0843  0.2360
 2256SOL    HW2 8796   1.556   5.371   0.565  0.1514  0.2153  1.9794
 2256SOL    HW3 8797   1.533   5.232   0.621 -0.2345 -0.5001  0.1434
 2256SOL    MW4 8798   1.505   5.301   0.576 -0.0485 -0.2623  0.4677
 2257SOL     OW 8799   2.840   3.754   3.796  0.0431  0.0576 -0.0838
 2257SOL    HW2 8800   2.831   3.675   3.849 -0.4896 -0.4055 -0.8475
 2257SOL    HW3 8801   2.915   3.799   3.833 -0.3514 -0.2276  1.1016
 2257SOL    MW4 8802   2.849   3.749   3.808  0.2228 -0.9235  0.2947
 2258SOL     OW 8803   1.947   2.202   2.275  0.5523 -0.0296 -0.9468
 2258SOL    HW2 8804   2.001   2.132   2.238  0.9232 -0.1827 -0.1333
 2258SOL    HW3 8805   1.929   2.173   2.364  0.5517  0.8369 -0.6642
 2258SOL    MW4 8806   1.952   2.189   2.282  0.6188 -0.0966 -0.3492
 2259SOL     OW 8807   3.647   3.611   1.356 -0.0876  0.1324 -0.1713
 2259SOL    HW2 8808   3.648   3.680   1.290  0.1734 -1.7651 -2.2572
 2259SOL    HW3 8809   3.735   3.573   1.353 -0.6587 -1.2474 -0.1407
 2259SOL    MW4 8810   3.659   3.615   1.347  0.0655  0.1038 -0.1739
 2260SOL     OW 8811   0.194   4.723   1.752  0.5650  0.2979  0.2285
 2260SOL    HW2 8812   0.206   4.697   1.661  0.5451 -0.4864  0.4493
 2260SOL    HW3 8813   0.247   4.661   1.803 -0.1002  0.1964  0.8123
 2260SOL    MW4 8814   0.203   4.712   1.747  0.3041 -0.0696 -0.3405
 2261SOL     OW 8815   1.635   3.468   5.624 -0.1197  0.8015  0.3366
 2261SOL    HW2 8816   1.654   3.377   5.648 -0.5968  0.5078 -0.3591
 2261SOL    HW3 8817   1.555   3.489   5.672  0.7575  1.3412  1.6143
 2261SOL    MW4 8818   1.627   3.459   5.634  0.5496  0.2539 -1.0209
 2262SOL     OW 8819   4.212   2.591   0.636 -0.3789 -0.1368  0.4242
 2262SOL    HW2 8820   4.277   2.648   0.678 -1.1559  0.1786  1.2302
 2262SOL    HW3 8821   4.240   2.502   0.661 -0.2314 -0.0069  0.7341
 2262SOL    MW4 8822   4.224   2.587   0.645  0.9885  0.6207 -0.4017
 2263SOL     OW 8823   5.367   1.700   4.491 -0.2410 -0.1757 -0.1261
 2263SOL    HW2 8824   5.323   1.703   4.406 -0.2875 -2.1241 -0.2110
 2263SOL    HW3 8825   5.402   1.788   4.503  0.1401  0.0329 -2.3540
 2263SOL    MW4 8826   5.366   1.712   4.481  0.0643 -0.6976 -0.3935
 2264SOL     OW 8827   0.495   1.775   1.888 -0.2155  0.0848  0.4823
 2264SOL    HW2 8828   0.537   1.689   1.882 -1.3742 -0.4753  0.0469
 2264SOL    HW3 8829   0.542   1.820   1.958  0.9828 -0.5677  0.1274
 2264SOL    MW4 8830   0.507   1.770   1.896 -0.6547 -0.8514 -0.2371
 2265SOL     OW 8831   1.540   3.713   3.605  0.0805 -0.1456  0.4730
 2265SOL    HW2 8832   1.473   3.710   3.537  1.2150 -4.1118 -0.8029
 2265SOL    HW3 8833   1.497   3.679   3.683 -0.3413  1.1218  0.8128
 2265SOL    MW4 8834   1.526   3.708   3.606 -0.3138 -0.2169 -0.3742
 2266SOL     OW 8835   1.755   4.838   6.217 -0.1233  0.0691  0.3309
 2266SOL    HW2 8836   1.730   4.805   6.303 -1.5436 -1.7917 -0.7422
 2266SOL    HW3 8837   1.822   4.777   6.187 -0.0533  0.3776 -0.1451
 2266SOL    MW4 8838   1.761   4.826   6.225  0.2792 -0.3758  0.4964
 2267SOL     OW 8839   5.306   3.672   6.163  0.9109 -0.2473 -0.2548
 2267SOL    HW2 8840   5.275   3.739   6.102  2.7534  0.8464 -0.0512
 2267SOL    HW3 8841   5.401   3.680   6.162  1.2092 -2.9024 -0.2329
 2267SOL    MW4 8842   5.314   3.682   6.155 -0.2244  0.1962  0.4081
 2268SOL     OW 8843   1.187   5.087   0.783  0.3508 -0.0243 -0.0080
 2268SOL    HW2 8844   1.126   5.088   0.708  0.2604 -0.2304  0.0606
 2268SOL    HW3 8845   1.271   5.060   0.745  0.4423  0.4366 -0.1336
 2268SOL    MW4 8846   1.190   5.083   0.768  0.2880  0.6334  0.3711
 2269SOL     OW 8847   6.144   1.400   3.543 -0.2964  0.5340  0.7817
 2269SOL    HW2 8848   6.106   1.440   3.465 -0.2314 -0.3835  0.2628
 2269SOL    HW3 8849   6.222   1.354   3.511 -1.5359 -1.8343  0.9358
 2269SOL    MW4 8850   6.149   1.399   3.529 -0.4434 -0.5860  0.2490
 2270SOL     OW 8851   3.104   1.690   4.153  0.2385 -0.1047  0.6108
 2270SOL    HW2 8852   3.177   1.750   4.138  0.9243 -1.2980 -1.0730
 2270SOL    HW3 8853   3.028   1.736   4.116  0.8010 -0.3168 -0.8803
 2270SOL    MW4 8854   3.104   1.704   4.146 -0.0648 -0.3846  0.1356
 2271SOL     OW 8855   5.502   3.279   0.719  0.6109 -0.3012  0.2772
 2271SOL    HW2 8856   5.428   3.268   0.659  1.6097  0.2918 -1.1338
 2271SOL    HW3 8857   5.532   3.190   0.737  0.2726 -0.4949 -0.1035
 2271SOL    MW4 8858   5.496   3.266   0.713  0.0908 -0.2860  0.0154
 2272SOL     OW 8859   0.876   3.358   1.418 -0.8428 -0.4077 -0.0346
 2272SOL    HW2 8860   0.952   3.413   1.399 -1.0120  0.1252  0.7680
 2272SOL    HW3 8861   0.912   3.282   1.463 -0.9481  0.7915  2.1958
 2272SOL    MW4 8862   0.891   3.355   1.421  0.4960 -0.5059 -0.1024
 2273SOL     OW 8863   5.994   5.660   3.366 -0.0800 -0.2310  0.2317
 2273SOL    HW2 8864   5.903   5.629   3.360 -0.2398 -0.2920  2.2493
 2273SOL    HW3 8865   6.044   5.583   3.390  0.4790 -0.1420 -0.6236
 2273SOL    MW4 8866   5.988   5.646   3.369  0.2373 -0.5676 -0.6069
 2274SOL     OW 8867   5.741   0.580   0.336  0.6339  0.9057  0.5090
 2274SOL    HW2 8868   5.754   0.567   0.430  2.4040 -3.0168 -0.0754
 2274SOL    HW3 8869   5.826   0.610   0.304  0.7872 -0.1428 -0.1075
 2274SOL    MW4 8870   5.754   0.582   0.344 -0.2883  0.1522 -0.5020
 2275SOL     OW 8871   4.420   0.993   4.732 -0.1514 -0.2135  0.6452
 2275SOL    HW2 8872   4.509   1.022   4.752  0.1871  0.8688 -2.0528
 2275SOL    HW3 8873   4.429   0.899   4.715  1.3909  0.4581 -3.4062
 2275SOL    MW4 8874   4.433   0.985   4.732  0.5490  0.3965 -0.2106
 2276SOL     OW 8875   5.061   5.914   2.821 -0.3570  0.3742 -0.1974
 2276SOL    HW2 8876   5.110   5.833   2.809  0.9015  0.9305  0.9388
 2276SOL    HW3 8877   5.019   5.904   2.906  0.8921  1.4130  0.5790
 2276SOL    MW4 8878   5.062   5.902   2.831  0.3036  0.2996 -0.4973
 2277SOL     OW 8879   0.349   2.321   5.140  0.0800 -0.0851 -0.5032
 2277SOL    HW2 8880   0.355   2.408   5.178  1.4705  1.1505 -3.2663
 2277SOL    HW3 8881   0.340   2.262   5.215  1.6908  2.2063  1.6343
 2277SOL    MW4 8882   0.349   2.324   5.155  0.2549  0.2416  0.3520
 2278SOL     OW 8883   5.134   3.257   1.813 -0.1094  0.7670 -0.0770
 2278SOL    HW2 8884   5.224   3.226   1.815 -0.9550 -2.3697 -2.7390
 2278SOL    HW3 8885   5.139   3.342   1.768  1.4886  0.7842  0.0696
 2278SOL    MW4 8886   5.146   3.264   1.807 -0.7107 -0.3966 -0.2271
 2279SOL     OW 8887   4.321   4.078   2.462 -0.7969  0.0303 -0.3874
 2279SOL    HW2 8888   4.253   4.016   2.489 -0.2842 -0.6626 -0.6694
 2279SOL    HW3 8889   4.382   4.080   2.536  1.7374 -3.4596 -2.1069
 2279SOL    MW4 8890   4.320   4.070   2.476 -0.1482  0.1887 -0.0631
 2280SOL     OW 8891   0.126   0.463   6.244  0.1826  0.2792 -0.1954
 2280SOL    HW2 8892   0.138   0.552   6.277 -0.8167  0.5069 -0.4106
 2280SOL    HW3 8893   0.036   0.462   6.210  0.2592 -0.7459 -0.3957
 2280SOL    MW4 8894   0.115   0.474   6.244 -0.3225 -0.1912 -0.4459
 2281SOL     OW 8895   4.476   6.265   5.988  0.2039  0.0545 -0.4587
 2281SOL    HW2 8896   4.551   6.207   5.976 -0.0490 -0.2373 -0.6549
 2281SOL    HW3 8897   4.425   6.224   6.058  0.0965  0.1132 -0.5023
 2281SOL    MW4 8898   4.479   6.252   5.996 -0.3695  0.3124  0.4988
 2282SOL     OW 8899   3.015   6.072   4.605  0.3419  0.4646 -0.4805
 2282SOL    HW2 8900   3.086   6.114   4.654 -0.3931  2.1874 -0.8369
 2282SOL    HW3 8901   3.049   6.060   4.517  0.9183 -0.6926 -0.1201
 2282SOL    MW4 8902   3.029   6.076   4.600  0.4537 -0.1079  0.2499
 2283SOL     OW 8903   2.470   1.172   2.603  0.3128  0.1366 -0.3048
 2283SOL    HW2 8904   2.438   1.258   2.630  1.7946  0.1062  1.8672
 2283SOL    HW3 8905   2.454   1.116   2.679  2.1071 -0.7257 -0.4976
 2283SOL    MW4 8906   2.464   1.176   2.617  0.0988 -0.7468 -0.6900
 2284SOL     OW 8907   1.430   2.220   1.901  0.1373 -0.2496 -1.0728
 2284SOL    HW2 8908   1.369   2.280   1.859 -0.6978 -0.7944 -0.6556
 2284SOL    HW3 8909   1.383   2.187   1.978  0.7940 -0.9899 -0.9783
 2284SOL    MW4 8910   1.416   2.224   1.905  0.6510 -1.3108 -0.1675
 2285SOL     OW 8911   1.975   1.189   2.953  0.5032  0.1019 -0.6110
 2285SOL    HW2 8912   1.920   1.141   2.891  1.0585  0.5331 -1.4540
 2285SOL    HW3 8913   1.938   1.168   3.039 -0.6997  0.0363 -1.1273
 2285SOL    MW4 8914   1.963   1.180   2.956 -0.3649 -0.3823 -0.3425
 2286SOL     OW 8915   3.278   0.163   3.202 -0.1004 -0.6186 -0.1935
 2286SOL    HW2 8916   3.194   0.186   3.243  0.1873 -0.1755  0.1511
 2286SOL    HW3 8917   3.254   0.100   3.134 -0.6213 -1.1284  0.4431
 2286SOL    MW4 8918   3.264   0.157   3.198 -0.4215  0.4432  0.5073
 2287SOL     OW 8919   1.031   4.708   0.144 -0.5392 -0.2168  0.0115
 2287SOL    HW2 8920   0.969   4.749   0.203 -0.0381  1.9803 -0.8886
 2287SOL    HW3 8921   0.991   4.624   0.121 -1.9227  0.0097  1.4365
 2287SOL    MW4 8922   1.018   4.702   0.149  0.2450 -0.2002  0.0936
 2288SOL     OW 8923   6.384   5.785   2.208  0.0865 -0.4874 -0.0785
 2288SOL    HW2 8924   6.405   5.854   2.144  1.2454 -0.8566 -0.1266
 2288SOL    HW3 8925   6.423   5.706   2.171  0.6476 -0.7389  1.0100
 2288SOL    MW4 8926   6.392   5.784   2.194  0.3011 -0.4526 -0.5204
 2289SOL     OW 8927   1.076   0.778   2.783 -0.5912 -0.0102  0.2745
 2289SOL    HW2 8928   1.040   0.692   2.762 -0.5969  0.2667 -0.9379
 2289SOL    HW3 8929   1.158   0.760   2.829  1.1332 -0.7670 -2.8232
 2289SOL    MW4 8930   1.082   0.764   2.786  0.2289 -0.1533  0.4888
 2290SOL     OW 8931   4.363   1.522   2.771 -0.0783  0.4887 -0.1363
 2290SOL    HW2 8932   4.402   1.495   2.855 -1.9557 -2.0973  0.0070
 2290SOL    HW3 8933   4.307   1.596   2.794  1.4750  1.5813  0.3483
 2290SOL    MW4 8934   4.361   1.528   2.785 -0.5765 -0.0687 -0.4161
 2291SOL     OW 8935   4.806   6.001   5.726  0.1513  0.2844 -0.4365
 2291SOL    HW2 8936   4.851   6.070   5.679  2.2697 -0.4075  0.4554
 2291SOL    HW3 8937   4.873   5.963   5.783 -2.3822  1.7373  4.0072
 2291SOL    MW4 8938   4.821   6.005   5.728  0.2801  0.0847  0.8088
 2292SOL     OW 8939   2.835   0.763   1.952 -0.2077  0.0998 -0.0928
 2292SOL    HW2 8940   2.828   0.820   2.028  0.5702  1.9831 -1.3722
 2292SOL    HW3 8941   2.748   0.764   1.912 -0.4613 -0.4414  0.4257
 2292SOL    MW4 8942   2.823   0.770   1.956  0.1256 -0.1600 -0.0360
 2293SOL     OW 8943   0.868   4.935   4.707  0.5786  0.3810  0.0216
 2293SOL    HW2 8944   0.941   4.875   4.695  0.8707  0.6450  0.4170
 2293SOL    HW3 8945   0.869   4.955   4.801 -0.3756 -0.0778  0.1341
 2293SOL    MW4 8946   0.878   4.930   4.718  0.0006 -0.1076 -0.5140
 2294SOL     OW 8947   0.834   3.617   4.553 -0.4461 -0.0464 -0.1342
 2294SOL    HW2 8948   0.776   3.548   4.586 -1.5731  0.2803 -1.3537
 2294SOL    HW3 8949   0.816   3.620   4.459  1.3841  0.2447 -0.5153
 2294SOL    MW4 8950   0.824   3.608   4.545 -0.2060  0.2363  0.5792
 2295SOL     OW 8951   5.990   4.324   1.976  0.2901  0.0602  0.0635
 2295SOL    HW2 8952   5.959   4.413   1.992  0.1730 -0.3524  2.7351
 2295SOL    HW3 8953   6.080   4.335   1.943  0.5671  1.1908  1.1200
 2295SOL    MW4 8954   5.998   4.337   1.974  0.0553 -0.1370 -0.1463
 2296SOL     OW 8955   2.972   3.249   5.154 -0.0426 -0.4287 -0.3549
 2296SOL    HW2 8956   2.891   3.285   5.190  1.2050  0.9641  1.2092
 2296SOL    HW3 8957   3.006   3.317   5.097  1.4451  0.2649  1.2571
 2296SOL    MW4 8958   2.966   3.262   5.151 -0.5298 -0.1215 -0.7019
 2297SOL     OW 8959   5.782   3.816   1.305 -0.1026 -0.3615  0.0119
 2297SOL    HW2 8960   5.857   3.763   1.276 -0.0503 -0.0204 -0.4919
 2297SOL    HW3 8961   5.780   3.890   1.244  1.5713  1.8011  2.3567
 2297SOL    MW4 8962   5.792   3.819   1.293 -0.7080 -0.3227  0.4848
 2298SOL     OW 8963   5.075   4.983   5.043  0.3400 -0.5987  0.2374
 2298SOL    HW2 8964   5.037   5.029   5.118  0.6165 -1.3827  0.8785
 2298SOL    HW3 8965   5.017   4.908   5.029 -0.5853  0.3608 -1.3288
 2298SOL    MW4 8966   5.063   4.979   5.051  0.2741 -0.0388 -0.5706
 2299SOL     OW 8967   3.313   0.786   4.562  0.6037 -0.3104 -0.3231
 2299SOL    HW2 8968   3.366   0.763   4.486 -0.9941  0.3355 -1.7116
 2299SOL    HW3 8969   3.319   0.882   4.567 -0.0899 -0.2637 -0.2655
 2299SOL    MW4 8970   3.321   0.796   4.553  0.0567  0.6546 -0.4355
 2300SOL     OW 8971   2.158   5.334   4.749 -0.0971  0.0298  0.2459
 2300SOL    HW2 8972   2.217   5.315   4.676  0.4441  0.3706  0.5877
 2300SOL    HW3 8973   2.164   5.256   4.804 -0.6484 -0.3056 -0.1601
 2300SOL    MW4 8974   2.166   5.321   4.747  0.7607  0.3681 -0.2966
 2301SOL     OW 8975   0.767   1.219   3.820 -0.6516  0.1641  0.1291
 2301SOL    HW2 8976   0.825   1.262   3.756 -0.8871  1.9554  1.0533
 2301SOL    HW3 8977   0.678   1.242   3.790 -0.9394 -2.0790 -0.9487
 2301SOL    MW4 8978   0.763   1.228   3.807 -0.0573 -0.0580 -0.0972
 2302SOL     OW 8979   5.359   4.926   4.333 -0.2542  0.4464 -0.1067
 2302SOL    HW2 8980   5.336   5.017   4.316  0.5528  0.6949  0.0630
 2302SOL    HW3 8981   5.433   4.909   4.275  0.9451  0.5435  1.3298
 2302SOL    MW4 8982   5.366   4.936   4.323 -0.8884  0.1642 -0.3427
 2303SOL     OW 8983   3.637   2.567   4.812  0.0700  0.3275  0.0620
 2303SOL    HW2 8984   3.648   2.635   4.745 -1.0447  0.4302 -0.0461
 2303SOL    HW3 8985   3.544   2.571   4.834  0.7327  1.6930  3.1114
 2303SOL    MW4 8986   3.626   2.577   4.806  0.2497  0.2865  0.2589
 2304SOL     OW 8987   3.484   5.119   3.845  0.2800  0.3883  0.2539
 2304SOL    HW2 8988   3.472   5.151   3.934 -1.7845 -0.4353  0.3186
 2304SOL    HW3 8989   3.511   5.028   3.855  1.8381  0.7906  0.0172
 2304SOL    MW4 8990   3.486   5.111   3.858  0.4472  0.0565  0.3157
 2305SOL     OW 8991   0.251   3.298   5.078  0.5818  0.2755  0.4322
 2305SOL    HW2 8992   0.201   3.337   5.150 -0.4906 -0.4865  0.1148
 2305SOL    HW3 8993   0.320   3.363   5.059 -1.6177  2.4546 -0.6508
 2305SOL    MW4 8994   0.254   3.312   5.085 -0.8676  0.3774  0.3834
 2306SOL     OW 8995   0.365   6.227   4.160 -0.3565 -0.0663  0.0667
 2306SOL    HW2 8996   0.334   6.309   4.122 -1.0061 -0.3955 -0.1268
 2306SOL    HW3 8997   0.454   6.218   4.126 -0.0738  0.8241  0.5280
 2306SOL    MW4 8998   0.373   6.237   4.150  0.1817 -0.7151  0.5026
 2307SOL     OW 8999   1.201   5.477   4.856  0.2627  0.1418  0.1510
 2307SOL    HW2 9000   1.174   5.464   4.948  1.2084 -0.7653  0.3168
 2307SOL    HW3 9001   1.201   5.572   4.845 -2.0677  0.2380  0.4048
 2307SOL    MW4 9002   1.197   5.488   4.867  0.2689  0.1242  0.1255
 2308SOL     OW 9003   2.799   6.120   6.324 -0.1951  0.0023 -0.4316
 2308SOL    HW2 9004   2.817   6.067   6.246  0.6699 -0.7055  0.2234
 2308SOL    HW3 9005   2.804   6.057   6.397 -0.1317  0.8127  0.2740
 2308SOL    MW4 9006   2.802   6.104   6.324 -0.0743  0.6864 -0.0564
 2309SOL     OW 9007   1.317   4.802   5.223 -0.3013  0.7028 -0.1431
 2309SOL    HW2 9008   1.375   4.751   5.279  0.5206  0.9022 -0.8068
 2309SOL    HW3 9009   1.320   4.758   5.138 -2.2973 -0.1788  0.1816
 2309SOL    MW4 9010   1.325   4.789   5.219  0.1626  0.0663 -0.2381
 2310SOL     OW 9011   5.367   4.566   2.186  0.3585 -0.3278  0.2667
 2310SOL    HW2 9012   5.312   4.638   2.155  0.5162 -0.9654 -1.6104
 2310SOL    HW3 9013   5.437   4.560   2.121 -0.2816 -2.9134 -0.2896
 2310SOL    MW4 9014   5.369   4.575   2.173 -0.2451 -0.4091  0.4237
 2311SOL     OW 9015   3.105   5.511   0.184 -0.1448  0.0442  0.1348
 2311SOL    HW2 9016   3.043   5.558   0.128  0.5906 -0.3776 -1.0756
 2311SOL    HW3 9017   3.075   5.420   0.179 -0.4080  0.0864  0.8935
 2311SOL    MW4 9018   3.093   5.505   0.176  0.2101  0.3392 -0.4551
 2312SOL     OW 9019   5.959   1.074   4.042 -0.0958  0.2503 -0.2020
 2312SOL    HW2 9020   5.922   0.986   4.048 -1.7930  0.9546  0.0190
 2312SOL    HW3 9021   5.887   1.128   4.012  0.6432  1.7575  0.6442
 2312SOL    MW4 9022   5.945   1.069   4.039  0.2057 -0.3245  0.0827
 2313SOL     OW 9023   1.106   4.707   4.034 -0.0818 -0.2412  0.2346
 2313SOL    HW2 9024   1.174   4.665   3.981 -0.4396  0.8503 -1.1369
 2313SOL    HW3 9025   1.149   4.784   4.071 -0.2629 -0.1777  0.3125
 2313SOL    MW4 9026   1.121   4.712   4.032  0.1127  0.3933 -0.1275
 2314SOL     OW 9027   2.872   2.169   2.131  0.5574  0.2931  0.2876
 2314SOL    HW2 9028   2.784   2.180   2.096 -0.0031 -0.2905  1.4488
 2314SOL    HW3 9029   2.894   2.078   2.110  1.3968  0.7644 -1.0505
 2314SOL    MW4 9030   2.864   2.158   2.123 -0.1584  0.1342 -0.1821
 2315SOL     OW 9031   3.207   2.829   3.238 -0.1776 -0.9981  0.0532
 2315SOL    HW2 9032   3.224   2.737   3.259  0.3797 -0.7818  0.5830
 2315SOL    HW3 9033   3.149   2.859   3.308  0.1758 -0.7741  0.2540
 2315SOL    MW4 9034   3.201   2.821   3.250  0.1749  0.5200 -0.5978
 2316SOL     OW 9035   2.072   5.296   2.232 -0.0696  0.2552 -0.1834
 2316SOL    HW2 9036   2.010   5.306   2.159  1.1192  0.2886 -1.2142
 2316SOL    HW3 9037   2.075   5.202   2.247 -0.8143  0.2968  0.2751
 2316SOL    MW4 9038   2.064   5.285   2.224 -0.0948  0.1751 -0.1488
 2317SOL     OW 9039   0.038   5.151   4.435  0.0937  0.0773 -0.5993
 2317SOL    HW2 9040   0.107   5.115   4.380  0.5656 -2.7482  1.5891
 2317SOL    HW3 9041  -0.043   5.113   4.401  0.0874  0.2134 -0.7398
 2317SOL    MW4 9042   0.036   5.141   4.424  0.1552  0.1229  0.4367
 2318SOL     OW 9043   5.353   4.264   1.980  0.2738  0.0085 -0.4462
 2318SOL    HW2 9044   5.324   4.185   1.935 -0.3109 -0.4994  0.7782
 2318SOL    HW3 9045   5.301   4.335   1.942 -0.0376 -0.3758 -0.7337
 2318SOL    MW4 9046   5.342   4.263   1.969  0.4130 -0.3038  0.1802
 2319SOL     OW 9047   6.125   5.767   3.136  0.4641  0.3246  0.2715
 2319SOL    HW2 9048   6.092   5.751   3.224  1.4910  2.6393  1.1376
 2319SOL    HW3 9049   6.129   5.679   3.096  1.6648 -1.0422  3.1145
 2319SOL    MW4 9050   6.121   5.753   3.142  0.2195 -0.3915  0.1807
 2320SOL     OW 9051   5.323   1.520   5.196 -0.2071  0.1807 -0.0200
 2320SOL    HW2 9052   5.266   1.523   5.119 -0.4509  0.0721  0.1553
 2320SOL    HW3 9053   5.383   1.593   5.184  0.7420 -0.7423 -1.0650
 2320SOL    MW4 9054   5.323   1.530   5.185  0.5221  0.3837 -0.0984
 2321SOL     OW 9055   2.592   3.230   4.525  0.0161 -0.1401 -0.2232
 2321SOL    HW2 9056   2.660   3.166   4.548  0.4160  0.3417 -0.0518
 2321SOL    HW3 9057   2.569   3.271   4.608 -3.0285 -2.6933  0.4131
 2321SOL    MW4 9058   2.598   3.227   4.539  0.1175 -0.1094  0.3364
 2322SOL     OW 9059   6.196   3.071   0.092  0.2266 -0.6675  0.4153
 2322SOL    HW2 9060   6.196   3.166   0.104 -3.7977 -0.4354 -0.0547
 2322SOL    HW3 9061   6.181   3.036   0.180 -0.6310 -0.7187  0.2498
 2322SOL    MW4 9062   6.194   3.079   0.105 -0.5568 -0.9093 -0.2285
 2323SOL     OW 9063   5.203   4.295   4.214  0.1431  0.3789  0.2733
 2323SOL    HW2 9064   5.213   4.380   4.170  1.4992 -1.4096 -3.2583
 2323SOL    HW3 9065   5.279   4.289   4.272  0.2980  1.3496  0.1859
 2323SOL    MW4 9066   5.215   4.306   4.216  0.2774 -0.0879  0.1794
 2324SOL     OW 9067   5.720   5.522   5.350 -0.2472 -0.7326 -0.3927
 2324SOL    HW2 9068   5.723   5.564   5.263 -2.1506 -1.0090 -0.6252
 2324SOL    HW3 9069   5.747   5.432   5.334  1.7748 -0.1991 -0.2500
 2324SOL    MW4 9070   5.724   5.516   5.336  0.5376 -0.4373  0.6545
 2325SOL     OW 9071   5.220   1.686   6.118  0.2654 -0.3881  0.6244
 2325SOL    HW2 9072   5.150   1.621   6.127  0.6360 -0.5443  2.8270
 2325SOL    HW3 9073   5.298   1.643   6.154  0.7997  0.8160  0.9568
 2325SOL    MW4 9074   5.221   1.672   6.124  0.3390  0.5371  0.0075
 2326SOL     OW 9075   1.716   2.279   2.767 -0.5429  0.8461  0.3080
 2326SOL    HW2 9076   1.626   2.285   2.735 -0.6180  1.9033  0.6947
 2326SOL    HW3 9077   1.725   2.352   2.828  0.7887  1.1770 -0.2575
 2326SOL    MW4 9078   1.705   2.290   2.771 -0.0245 -0.3931  0.1582
 2327SOL     OW 9079   4.319   2.312   0.666  0.4732 -0.0662  0.3725
 2327SOL    HW2 9080   4.233   2.296   0.627 -0.4771  1.3251  1.7923
 2327SOL    HW3 9081   4.326   2.248   0.737  0.9348 -0.6458 -0.1842
 2327SOL    MW4 9082   4.308   2.301   0.670  0.0621  0.0022 -0.4412
 2328SOL     OW 9083   0.996   2.927   2.903  0.1225  0.1594  0.4423
 2328SOL    HW2 9084   0.988   2.939   2.809 -3.1838 -1.5514  0.3943
 2328SOL    HW3 9085   0.966   3.010   2.940  0.0038  0.3042  0.0278
 2328SOL    MW4 9086   0.991   2.940   2.896  0.2215  0.0022 -0.0503
 2329SOL     OW 9087   6.153   3.982   2.120 -0.1259 -0.5043  0.2371
 2329SOL    HW2 9088   6.186   3.917   2.182 -1.2132 -1.2891  0.0221
 2329SOL    HW3 9089   6.092   4.035   2.172  0.5209  0.1697  0.3318
 2329SOL    MW4 9090   6.150   3.980   2.135 -0.5466  0.4577  0.4965
 2330SOL     OW 9091   5.055   1.077   0.523 -0.2543 -0.4487 -0.6624
 2330SOL    HW2 9092   5.057   1.107   0.432 -1.4994 -2.5466 -1.4589
 2330SOL    HW3 9093   5.145   1.086   0.553  0.2768 -0.1115 -2.2507
 2330SOL    MW4 9094   5.067   1.082   0.515  0.0053  0.3736 -0.2899
 2331SOL     OW 9095   5.225   2.482   6.401  0.3019  0.3244 -0.1391
 2331SOL    HW2 9096   5.264   2.549   6.457 -1.4633  2.7381 -1.6007
 2331SOL    HW3 9097   5.133   2.480   6.426  0.0632 -0.6341 -0.9980
 2331SOL    MW4 9098   5.218   2.490   6.411 -0.2759 -0.3849  0.4581
 2332SOL     OW 9099   0.757   2.423   0.832  0.6559 -0.0952 -0.0537
 2332SOL    HW2 9100   0.808   2.464   0.763  1.1090 -1.3240 -0.4841
 2332SOL    HW3 9101   0.669   2.460   0.822  1.1314  1.0434 -0.1517
 2332SOL    MW4 9102   0.752   2.433   0.821  0.8571  0.4376 -0.3957
 2333SOL     OW 9103   5.300   6.135   2.419 -0.0475  0.0023 -0.0552
 2333SOL    HW2 9104   5.339   6.166   2.501 -0.6346 -0.0939  0.2692
 2333SOL    HW3 9105   5.364   6.073   2.384 -0.0706 -0.4350  0.6594
 2333SOL    MW4 9106   5.313   6.131   2.425  0.1354  0.1496 -0.1851
 2334SOL     OW 9107   4.066   0.306   1.040 -0.0261  0.2514 -0.1905
 2334SOL    HW2 9108   4.158   0.291   1.020 -0.0830 -1.4976  0.6631
 2334SOL    HW3 9109   4.066   0.342   1.129 -0.1892 -0.1575 -0.0240
 2334SOL    MW4 9110   4.078   0.309   1.049  0.5102  0.3684  0.5955
 2335SOL     OW 9111   4.604   4.123   5.539 -0.1181  0.0525 -0.2296
 2335SOL    HW2 9112   4.585   4.059   5.470  1.8685 -0.4538 -0.3734
 2335SOL    HW3 9113   4.669   4.181   5.500  0.1665  0.4616  0.8388
 2335SOL    MW4 9114   4.610   4.122   5.525 -0.1459  0.2453  0.0640
 2336SOL     OW 9115   2.731   1.282   5.181  0.4305 -1.1372  0.0492
 2336SOL    HW2 9116   2.780   1.287   5.099 -1.9707  0.3145 -1.4190
 2336SOL    HW3 9117   2.684   1.198   5.176  1.3312 -1.7019  0.6460
 2336SOL    MW4 9118   2.732   1.271   5.170 -0.3883 -0.1080  0.4164
 2337SOL     OW 9119   3.706   3.700   3.058  0.0201  0.5339 -0.0890
 2337SOL    HW2 9120   3.794   3.711   3.022  0.1794 -1.4818 -0.3975
 2337SOL    HW3 9121   3.718   3.658   3.143 -0.6364  0.5584  0.0280
 2337SOL    MW4 9122   3.719   3.696   3.064  0.0204 -0.4933 -0.0533
 2338SOL     OW 9123   3.877   5.398   6.172 -1.1260  0.2345 -0.0849
 2338SOL    HW2 9124   3.796   5.392   6.221 -0.0163 -1.2304  1.7026
 2338SOL    HW3 9125   3.931   5.326   6.204  1.5786  2.1707  0.1649
 2338SOL    MW4 9126   3.874   5.388   6.183 -0.1855  0.0324  0.2736
 2339SOL     OW 9127   2.326   4.663   3.658 -0.2621 -0.3009  0.3180
 2339SOL    HW2 9128   2.306   4.581   3.703  1.1325 -0.0499  1.4725
 2339SOL    HW3 9129   2.414   4.649   3.622 -0.5080  0.2644 -0.5211
 2339SOL    MW4 9130   2.335   4.650   3.659  0.1882 -0.2438  0.2133
 2340SOL     OW 9131   5.608   0.128   4.673 -0.3735 -0.1038  0.4844
 2340SOL    HW2 9132   5.581   0.108   4.763 -1.8755  0.7069  0.2483
 2340SOL    HW3 9133   5.541   0.086   4.618  1.9516 -2.9434 -0.4516
 2340SOL    MW4 9134   5.595   0.120   4.677  0.1601 -0.2718  0.1506
 2341SOL     OW 9135   2.360   1.926   1.144 -0.2007  0.4046  0.3286
 2341SOL    HW2 9136   2.284   1.977   1.171 -1.0824  0.8700 -2.6833
 2341SOL    HW3 9137   2.325   1.841   1.117  0.4158  0.3584 -0.3754
 2341SOL    MW4 9138   2.346   1.922   1.144 -0.3046 -0.1041 -0.4121
 2342SOL     OW 9139   0.125   0.231   2.396 -0.1805 -0.3804  0.4412
 2342SOL    HW2 9140   0.179   0.309   2.405  0.5951 -0.7388 -0.8327
 2342SOL    HW3 9141   0.151   0.175   2.468  0.3735 -0.1017  0.4571
 2342SOL    MW4 9142   0.135   0.234   2.407  0.1558  0.4394 -0.2074
 2343SOL     OW 9143   0.376   2.887   2.739 -0.6677  0.0319 -0.5792
 2343SOL    HW2 9144   0.283   2.879   2.718 -0.5970  1.8291 -1.8667
 2343SOL    HW3 9145   0.412   2.937   2.666  1.5102 -1.3873 -0.5451
 2343SOL    MW4 9146   0.368   2.893   2.726 -0.2513 -0.0839 -0.5619
 2344SOL     OW 9147   1.573   5.805   3.404 -0.3195 -0.1442  0.1714
 2344SOL    HW2 9148   1.654   5.828   3.450  0.3569 -0.3926 -0.8457
 2344SOL    HW3 9149   1.537   5.889   3.377  0.4678 -0.0891 -0.7694
 2344SOL    MW4 9150   1.579   5.819   3.407  0.2103 -0.3779 -0.0866
 2345SOL     OW 9151   0.568   3.185   3.460  0.4584  0.5888  0.2538
 2345SOL    HW2 9152   0.580   3.114   3.396 -0.0598  0.1145  0.6784
 2345SOL    HW3 9153   0.474   3.183   3.479  0.2991  1.8966 -0.3127
 2345SOL    MW4 9154   0.557   3.175   3.454 -0.5406 -0.5778  0.0572
 2346SOL     OW 9155   1.229   1.253   1.208 -0.4547 -0.3812 -0.3770
 2346SOL    HW2 9156   1.294   1.218   1.269 -0.4220  0.4778  0.1057
 2346SOL    HW3 9157   1.158   1.189   1.209 -1.3307  0.4930  2.0802
 2346SOL    MW4 9158   1.229   1.240   1.216  0.1972  0.3244  0.2060
 2347SOL     OW 9159   5.187   6.408   1.546 -0.5060 -0.5136 -0.0306
 2347SOL    HW2 9160   5.209   6.370   1.631  0.3312  1.1008  0.5069
 2347SOL    HW3 9161   5.095   6.385   1.533 -0.1070 -2.4689  0.3701
 2347SOL    MW4 9162   5.178   6.400   1.556  0.1727 -0.0858  0.1058
 2348SOL     OW 9163   2.740   4.915   2.505  0.1795  0.3945 -0.4348
 2348SOL    HW2 9164   2.673   4.936   2.571  1.7468  3.1047  0.4435
 2348SOL    HW3 9165   2.822   4.913   2.554  1.5624  3.6078 -2.3150
 2348SOL    MW4 9166   2.742   4.917   2.520  0.2903  0.3834  0.2133
 2349SOL     OW 9167   1.563   4.098   4.778  0.2140 -0.2630  0.2696
 2349SOL    HW2 9168   1.533   4.186   4.756 -0.9637 -0.5263  0.7288
 2349SOL    HW3 9169   1.622   4.111   4.853 -1.3076  0.0202  1.4758
 2349SOL    MW4 9170   1.567   4.111   4.785 -0.4287 -0.0562  0.3573
 2350SOL     OW 9171   1.977   2.928   4.906  0.3185  0.3033  0.1598
 2350SOL    HW2 9172   2.020   3.013   4.920 -0.0051  0.7264 -1.2285
 2350SOL    HW3 9173   2.012   2.872   4.974  3.3583  0.5265 -1.0543
 2350SOL    MW4 9174   1.987   2.932   4.917 -0.4283 -0.1229  0.4606
 2351SOL     OW 9175   0.881   3.263   3.937  0.1525 -0.2917  0.0774
 2351SOL    HW2 9176   0.940   3.329   3.900  0.5228 -1.2961 -1.2089
 2351SOL    HW3 9177   0.798   3.277   3.891  0.4653 -1.2097 -0.8124
 2351SOL    MW4 9178   0.878   3.274   3.926 -0.3881  0.5607 -0.0913
 2352SOL     OW 9179   1.528   5.774   1.909 -0.3171  0.0326 -0.2803
 2352SOL    HW2 9180   1.469   5.850   1.916  0.8367  1.2355 -2.5191
 2352SOL    HW3 9181   1.542   5.747   2.000 -3.4471  0.3096  0.4020
 2352SOL    MW4 9182   1.522   5.781   1.922 -0.0183  0.1074  0.2456
 2353SOL     OW 9183   0.777   0.128   0.231 -0.3818 -0.1993  0.2270
 2353SOL    HW2 9184   0.687   0.099   0.242 -0.5414  0.5969  1.1809
 2353SOL    HW3 9185   0.830   0.056   0.264 -0.6611 -0.7183 -0.4515
 2353SOL    MW4 9186   0.772   0.115   0.237  0.0908  0.6097 -0.5118
 2354SOL     OW 9187   3.501   3.863   4.744  0.0093 -0.1217  0.4640
 2354SOL    HW2 9188   3.487   3.775   4.778  1.3504 -0.0165  1.3738
 2354SOL    HW3 9189   3.502   3.853   4.649 -2.2128 -0.6801  0.4343
 2354SOL    MW4 9190   3.499   3.850   4.736 -0.1920 -0.4104  0.0030
 2355SOL     OW 9191   2.858   5.622   0.131 -0.8189  0.2180  0.0750
 2355SOL    HW2 9192   2.805   5.554   0.091 -1.3538  1.2610 -1.0779
 2355SOL    HW3 9193   2.902   5.665   0.058  1.1003 -0.1683  0.9460
 2355SOL    MW4 9194   2.857   5.619   0.116  0.6446 -0.0660  0.3823
 2356SOL     OW 9195   1.807   4.309   0.843  0.6008 -0.4298 -0.5849
 2356SOL    HW2 9196   1.732   4.298   0.784  1.0822  2.8872 -2.0458
 2356SOL    HW3 9197   1.864   4.234   0.823 -1.4005 -2.0008 -0.7907
 2356SOL    MW4 9198   1.805   4.297   0.832  0.2751 -0.2701  0.2370
 2357SOL     OW 9199   0.925   5.562   0.715  0.0119  0.0498  0.4774
 2357SOL    HW2 9200   0.862   5.493   0.693  0.4153  0.7602 -3.8057
 2357SOL    HW3 9201   1.009   5.517   0.720 -0.0171 -0.0943 -0.1865
 2357SOL    MW4 9202   0.927   5.547   0.712  0.3634 -0.0181  0.0027
 2358SOL     OW 9203   2.288   3.665   1.260  0.3334 -0.3302  0.1459
 2358SOL    HW2 9204   2.267   3.757   1.276  0.8681 -0.2196  0.2146
 2358SOL    HW3 9205   2.244   3.644   1.178  2.2149  0.6943 -1.1963
 2358SOL    MW4 9206   2.279   3.674   1.251 -0.4345 -0.0583  0.1186
 2359SOL     OW 9207   3.506   4.831   5.561  0.2048  0.2453 -0.0697
 2359SOL    HW2 9208   3.531   4.883   5.637 -0.8286 -1.2036  1.3299
 2359SOL    HW3 9209   3.590   4.808   5.520  0.7637  1.3143  0.4227
 2359SOL    MW4 9210   3.521   4.835   5.566  0.6083  0.1020  0.1649
 2360SOL     OW 9211   0.534   3.365   0.326  0.5011 -0.6060  0.2692
 2360SOL    HW2 9212   0.446   3.360   0.289  1.0002 -0.0376 -1.0503
 2360SOL    HW3 9213   0.543   3.284   0.376 -0.7363 -0.7087  0.3580
 2360SOL    MW4 9214   0.524   3.353   0.327 -0.0295  0.2077 -0.2976
 2361SOL     OW 9215   2.467   0.944   1.138 -0.0399  0.3145  0.0357
 2361SOL    HW2 9216   2.388   0.989   1.108  0.4633  0.7360 -0.6688
 2361SOL    HW3 9217   2.501   0.901   1.060  1.3347  1.4894 -0.0552
 2361SOL    MW4 9218   2.461   0.944   1.124  0.5545  0.6530 -0.4468
 2362SOL     OW 9219   0.535   0.896   3.533 -0.4597 -0.4273  0.2666
 2362SOL    HW2 9220   0.622   0.934   3.549 -0.2923 -0.5553 -0.3054
 2362SOL    HW3 9221   0.476   0.950   3.585 -0.0731 -0.1418  0.4203
 2362SOL    MW4 9222   0.539   0.908   3.542 -0.4673 -0.0625 -0.2131
 2363SOL     OW 9223   3.207   0.104   5.137 -0.4781  0.3696 -0.1901
 2363SOL    HW2 9224   3.201   0.066   5.049 -2.0205 -0.0650  0.0684
 2363SOL    HW3 9225   3.230   0.195   5.123  0.0147  0.1306 -1.0001
 2363SOL    MW4 9226   3.210   0.111   5.124 -0.5255 -0.1194  0.4031
 2364SOL     OW 9227   1.775   0.993   0.257  0.0504 -0.5495  0.0333
 2364SOL    HW2 9228   1.764   0.921   0.195  1.0313 -0.3321 -0.4219
 2364SOL    HW3 9229   1.693   0.997   0.305 -0.7188 -0.7533 -1.2323
 2364SOL    MW4 9230   1.763   0.984   0.255 -0.1065 -0.4353 -0.0742
 2365SOL     OW 9231   5.302   2.194   0.035  0.4149 -0.0414 -0.1945
 2365SOL    HW2 9232   5.273   2.285   0.026  0.2258 -0.1031 -0.2272
 2365SOL    HW3 9233   5.281   2.171   0.126  0.8714  0.0861 -0.0543
 2365SOL    MW4 9234   5.295   2.203   0.046  0.3941  0.1783  0.2898
 2366SOL     OW 9235   0.257   3.654   0.358 -0.0088 -0.0070 -0.0771
 2366SOL    HW2 9236   0.178   3.622   0.401 -0.6823  0.6113 -0.8305
 2366SOL    HW3 9237   0.269   3.597   0.283  1.5313 -1.4962  1.2098
 2366SOL    MW4 9238   0.248   3.642   0.354  0.0515  0.2746  0.3879
 2367SOL     OW 9239   5.771   4.993   2.179  0.3950  0.1488 -0.5848
 2367SOL    HW2 9240   5.705   5.039   2.128  1.4279  3.0490  0.4793
 2367SOL    HW3 9241   5.837   4.966   2.114 -1.1227 -1.6821 -1.4774
 2367SOL    MW4 9242   5.771   4.995   2.164 -0.3086  0.2198  0.3074
 2368SOL     OW 9243   3.330   3.892   4.092  0.1626 -0.2243  0.6311
 2368SOL    HW2 9244   3.292   3.978   4.112 -0.6518 -0.3356 -0.3718
 2368SOL    HW3 9245   3.333   3.847   4.177  0.1328  0.6022  1.0842
 2368SOL    MW4 9246   3.325   3.897   4.106 -0.1347 -0.1426 -0.3874
 2369SOL     OW 9247   4.317   5.281   6.184 -0.5039 -0.7360 -0.2315
 2369SOL    HW2 9248   4.345   5.200   6.141 -0.7585 -1.1058  0.2907
 2369SOL    HW3 9249   4.295   5.340   6.112 -1.9716 -1.7018 -0.6205
 2369SOL    MW4 9250   4.318   5.278   6.169 -0.7779  0.5041 -0.3131
 2370SOL     OW 9251   2.178   3.523   5.185 -0.0903 -0.1887 -0.0709
 2370SOL    HW2 9252   2.133   3.603   5.210  0.4411 -0.4504  1.8114
 2370SOL    HW3 9253   2.116   3.453   5.206  0.6560 -0.4632  1.2927
 2370SOL    MW4 9254   2.163   3.524   5.191  0.3703 -0.0872 -0.6300
 2371SOL     OW 9255   3.277   1.747   2.995 -0.3076  0.0167  0.6898
 2371SOL    HW2 9256   3.372   1.748   2.978 -0.0949  1.3425  1.7899
 2371SOL    HW3 9257   3.254   1.654   2.993  0.8942 -0.2972 -0.2056
 2371SOL    MW4 9258   3.287   1.735   2.993 -0.0075 -0.3994  0.5185
 2372SOL     OW 9259   5.954   2.176   3.142  0.2534  0.6081 -0.5006
 2372SOL    HW2 9260   5.966   2.261   3.184 -1.0446  2.5568 -3.6433
 2372SOL    HW3 9261   5.860   2.172   3.122  0.4176 -1.2236 -1.1420
 2372SOL    MW4 9262   5.943   2.187   3.145  0.9569  0.1087  0.6799
 2373SOL     OW 9263   0.444   0.060   4.735 -0.2560  0.4781 -0.8551
 2373SOL    HW2 9264   0.457   0.099   4.648  0.2413  0.4428 -0.7977
 2373SOL    HW3 9265   0.526   0.077   4.781 -0.2945 -0.0371 -0.5958
 2373SOL    MW4 9266   0.457   0.067   4.730  0.1333  0.0359  0.0570
 2374SOL     OW 9267   3.224   4.834   4.509 -0.1088  0.0019  0.1215
 2374SOL    HW2 9268   3.242   4.768   4.576  1.8161  2.1341  1.8200
 2374SOL    HW3 9269   3.167   4.898   4.552 -0.4230  0.4562 -0.9151
 2374SOL    MW4 9270   3.219   4.834   4.523  0.5786 -0.1420  0.2546
 2375SOL     OW 9271   1.330   2.802   2.176 -0.5475 -0.2999 -0.1220
 2375SOL    HW2 9272   1.344   2.738   2.246 -0.0201  0.4064  0.4224
 2375SOL    HW3 9273   1.274   2.756   2.113 -1.1914 -0.8772  0.8455
 2375SOL    MW4 9274   1.324   2.787   2.177  0.3194 -0.1432  0.4097
 2376SOL     OW 9275   0.127   5.354   0.150 -0.0292  0.1608 -0.0566
 2376SOL    HW2 9276   0.107   5.339   0.058  1.1173  0.2763 -0.3438
 2376SOL    HW3 9277   0.181   5.433   0.150  0.8282 -0.4044  0.6053
 2376SOL    MW4 9278   0.131   5.363   0.138  0.8154  0.2049 -0.2826
 2377SOL     OW 9279   3.221   5.568   0.432  0.4511  0.0926 -0.4359
 2377SOL    HW2 9280   3.178   5.557   0.347 -0.0103  1.2591 -0.3672
 2377SOL    HW3 9281   3.150   5.593   0.491  0.8706 -0.1303  0.1692
 2377SOL    MW4 9282   3.206   5.570   0.429 -0.4460  0.4261 -0.1390
 2378SOL     OW 9283   0.670   4.283   0.401 -0.2160 -0.5467  1.0932
 2378SOL    HW2 9284   0.631   4.369   0.415 -1.0835 -0.7721  0.1602
 2378SOL    HW3 9285   0.599   4.229   0.366  1.0289 -0.7745 -1.3444
 2378SOL    MW4 9286   0.656   4.287   0.398  0.9213 -0.3441 -0.4070
 2379SOL     OW 9287   3.898   1.884   4.595 -0.4148  0.0982 -0.0239
 2379SOL    HW2 9288   3.934   1.945   4.531 -0.7072  0.1803 -0.1081
 2379SOL    HW3 9289   3.864   1.811   4.542  0.0297 -0.1934  0.0798
 2379SOL    MW4 9290   3.898   1.882   4.579  0.2295  0.5796 -0.1021
 2380SOL     OW 9291   4.828   0.135   5.839  0.0022  0.1441  0.5684
 2380SOL    HW2 9292   4.919   0.165   5.850  1.1223 -2.7418  0.1641
 2380SOL    HW3 9293   4.775   0.201   5.884  2.3692  1.3603  1.7733
 2380SOL    MW4 9294   4.833   0.148   5.846 -0.0054  0.2875 -0.2194
 2381SOL     OW 9295   1.549   6.346   5.978  0.1012  0.6661  0.2863
 2381SOL    HW2 9296   1.611   6.324   6.047  0.2158 -0.4027 -0.1318
 2381SOL    HW3 9297   1.555   6.441   5.969  0.7050  0.7188  1.1542
 2381SOL    MW4 9298   1.558   6.355   5.986 -0.3060 -0.4104  0.0379
 2382SOL     OW 9299   5.892   2.652   2.282 -0.2350  0.3901 -0.5547
 2382SOL    HW2 9300   5.798   2.668   2.284 -0.6342 -1.7515  0.5810
 2382SOL    HW3 9301   5.903   2.586   2.213  0.2430 -0.2515  0.1213
 2382SOL    MW4 9302   5.881   2.645   2.273 -0.1739  0.3018 -0.3094
 2383SOL     OW 9303   6.022   5.515   1.845 -0.2658  0.1497 -0.6954
 2383SOL    HW2 9304   6.092   5.480   1.899 -0.8273  0.0334 -0.0259
 2383SOL    HW3 9305   6.066   5.554   1.770  0.4754 -0.4179 -0.5637
 2383SOL    MW4 9306   6.037   5.515   1.842 -0.6990  0.0314 -0.2830
 2384SOL     OW 9307   2.366   2.553   2.712  0.3384  0.1570  0.1371
 2384SOL    HW2 9308   2.289   2.523   2.759 -0.3511  1.6654  0.0540
 2384SOL    HW3 9309   2.364   2.504   2.629  0.5101 -1.1292  0.8716
 2384SOL    MW4 9310   2.355   2.543   2.707  0.7370 -0.0084 -0.1958
 2385SOL     OW 9311   3.343   3.197   3.694  0.0372  0.3663  0.2190
 2385SOL    HW2 9312   3.393   3.237   3.623  0.1945  0.9302  0.6444
 2385SOL    HW3 9313   3.351   3.102   3.679  1.4279  0.4414  0.4123
 2385SOL    MW4 9314   3.350   3.190   3.683  0.4571 -0.4965  0.4685
 2386SOL     OW 9315   0.423   5.995   3.067 -0.2663 -0.3826 -0.0791
 2386SOL    HW2 9316   0.438   6.087   3.091 -0.2760  0.2944 -2.3852
 2386SOL    HW3 9317   0.339   5.974   3.106 -1.6256  1.5400 -1.7122
 2386SOL    MW4 9318   0.414   6.004   3.075 -0.0295  0.1392  0.1117
 2387SOL     OW 9319   5.490   0.865   5.329 -0.7477  0.0764 -0.3677
 2387SOL    HW2 9320   5.400   0.882   5.359 -0.8550  0.2005 -0.7517
 2387SOL    HW3 9321   5.543   0.932   5.373 -0.8291 -0.0437 -0.0808
 2387SOL    MW4 9322   5.485   0.876   5.339 -0.0321  0.3429  0.3399
 2388SOL     OW 9323   6.087   1.994   5.638 -0.4015 -0.2156 -0.3214
 2388SOL    HW2 9324   6.025   1.999   5.566 -1.6346  0.0242  0.7258
 2388SOL    HW3 9325   6.117   2.084   5.651  0.0739 -0.3067 -0.7161
 2388SOL    MW4 9326   6.083   2.007   5.630 -0.2330  0.0826 -0.0555
 2389SOL     OW 9327   2.765   1.310   6.124 -0.1311 -0.2517 -0.1609
 2389SOL    HW2 9328   2.802   1.332   6.209  1.4707 -2.2694 -0.2477
 2389SOL    HW3 9329   2.833   1.334   6.061 -1.0175  0.5811 -0.8293
 2389SOL    MW4 9330   2.779   1.316   6.127 -0.3084  0.2775 -0.1264
 2390SOL     OW 9331   2.970   4.198   5.956  0.4357 -0.5697  0.5320
 2390SOL    HW2 9332   2.903   4.167   6.016 -0.6050 -0.1065 -0.3533
 2390SOL    HW3 9333   3.002   4.279   5.995 -1.1772  0.4484 -0.1357
 2390SOL    MW4 9334   2.965   4.204   5.969  0.5068  0.1712  0.1351
 2391SOL     OW 9335   0.681   0.324   2.810  0.0985  0.0918  0.4283
 2391SOL    HW2 9336   0.627   0.382   2.755 -0.7496 -0.7002  0.3969
 2391SOL    HW3 9337   0.624   0.248   2.827  0.9068 -0.3693  1.1213
 2391SOL    MW4 9338   0.666   0.322   2.805 -0.7879 -0.2096  0.1620
 2392SOL     OW 9339   2.907   5.473   4.863 -0.3694  0.2313  0.2572
 2392SOL    HW2 9340   2.879   5.386   4.892 -0.9110 -0.0141 -0.9419
 2392SOL    HW3 9341   2.926   5.462   4.769  2.6703  0.6394  0.7031
 2392SOL    MW4 9342   2.906   5.460   4.854  0.9698 -0.3771 -0.2162
 2393SOL     OW 9343   2.130   2.381   1.301  0.3786  0.3107 -0.1273
 2393SOL    HW2 9344   2.120   2.287   1.312 -5.3122  0.5353 -0.4867
 2393SOL    HW3 9345   2.152   2.413   1.389  0.4715 -1.2094  0.4314
 2393SOL    MW4 9346   2.132   2.373   1.314  0.0166  0.2090  0.3030
 2394SOL     OW 9347   6.354   4.980   5.689  0.3228  0.0341 -0.4649
 2394SOL    HW2 9348   6.372   4.901   5.739 -1.1805 -0.9615 -1.3817
 2394SOL    HW3 9349   6.356   5.051   5.753  0.4023 -0.9302  0.6280
 2394SOL    MW4 9350   6.357   4.979   5.704  0.1787 -0.3748  0.4715
 2395SOL     OW 9351   5.243   3.094   2.385  0.0585 -0.1510  0.3695
 2395SOL    HW2 9352   5.307   3.150   2.341  0.3884 -1.4428 -0.8622
 2395SOL    HW3 9353   5.182   3.069   2.315 -0.1491 -1.2226  0.9157
 2395SOL    MW4 9354   5.243   3.098   2.370 -0.2300 -0.2729 -0.2259
 2396SOL     OW 9355   0.272   0.064   0.215  0.0558  0.1576  0.1270
 2396SOL    HW2 9356   0.195   0.110   0.248 -0.0784 -0.1784  0.2814
 2396SOL    HW3 9357   0.312   0.126   0.154  1.4307  1.6315  2.3735
 2396SOL    MW4 9358   0.267   0.079   0.212 -0.5181  0.7842  0.1225
 2397SOL     OW 9359   3.576   4.878   6.132  0.3400  0.6947  0.3613
 2397SOL    HW2 9360   3.627   4.827   6.070 -1.3677 -2.0586  1.0774
 2397SOL    HW3 9361   3.514   4.816   6.171 -0.1508  2.7462  3.2344
 2397SOL    MW4 9362   3.574   4.863   6.129 -0.2316 -0.0392 -0.1720
 2398SOL     OW 9363   0.084   1.337   4.702  0.1599  0.1699  1.3701
 2398SOL    HW2 9364   0.126   1.290   4.630 -0.6269  2.6142 -0.8395
 2398SOL    HW3 9365   0.007   1.285   4.722 -0.3129  0.0729 -0.5029
 2398SOL    MW4 9366   0.080   1.324   4.695  0.1981  0.1903  0.4898
 2399SOL     OW 9367   3.587   2.427   4.159  0.0053 -0.0482  0.4152
 2399SOL    HW2 9368   3.509   2.388   4.199 -0.1603 -0.6713 -0.4929
 2399SOL    HW3 9369   3.614   2.495   4.221 -2.5456  1.7542 -0.2825
 2399SOL    MW4 9370   3.580   2.431   4.173 -0.0823  0.1766  0.7989
 2400SOL     OW 9371   3.317   1.879   5.599  0.2266  0.2478  0.3066
 2400SOL    HW2 9372   3.316   1.788   5.569 -0.5598  0.4504 -0.3477
 2400SOL    HW3 9373   3.261   1.925   5.536  1.2981  1.3533  0.1231
 2400SOL    MW4 9374   3.309   1.873   5.587 -0.0870  0.0096 -0.1186
 2401SOL     OW 9375   5.522   2.445   0.212  0.2085  0.4165 -0.2550
 2401SOL    HW2 9376   5.587   2.482   0.273 -0.3002 -1.5672  1.5896
 2401SOL    HW3 9377   5.575   2.409   0.141  1.0243  0.2680  0.4093
 2401SOL    MW4 9378   5.538   2.445   0.211  0.3282 -0.5196  0.2307
 2402SOL     OW 9379   2.285   4.154   3.877  0.4843  0.4580 -0.1993
 2402SOL    HW2 9380   2.257   4.122   3.791  0.9338  0.8113 -0.4889
 2402SOL    HW3 9381   2.317   4.243   3.859  0.6458  0.5056  0.3239
 2402SOL    MW4 9382   2.286   4.162   3.863  0.2580  0.1151 -0.2385
 2403SOL     OW 9383   4.121   2.172   1.407  0.1210  0.1093  0.1681
 2403SOL    HW2 9384   4.161   2.200   1.324 -0.4381 -0.7771 -0.4149
 2403SOL    HW3 9385   4.154   2.235   1.471  1.0942  0.4209 -0.6006
 2403SOL    MW4 9386   4.131   2.184   1.404  0.1727 -0.4816 -0.4965
 2404SOL     OW 9387   1.802   4.970   5.376  0.4808 -0.4016  0.3289
 2404SOL    HW2 9388   1.713   4.981   5.410  0.3725 -0.5604  0.0937
 2404SOL    HW3 9389   1.849   4.923   5.445  0.8558  1.1882  1.2169
 2404SOL    MW4 9390   1.797   4.965   5.390  1.1189 -0.0865  0.0375
 2405SOL     OW 9391   6.165   5.017   4.067  0.1414  0.4658  0.3746
 2405SOL    HW2 9392   6.086   5.068   4.047  0.5382  1.1845  0.5840
 2405SOL    HW3 9393   6.197   4.988   3.982  0.7415  1.8625  0.0857
 2405SOL    MW4 9394   6.159   5.020   4.053  0.1605  0.1562 -0.4347
 2406SOL     OW 9395   4.535   1.302   1.955  0.3280 -0.1464  0.3080
 2406SOL    HW2 9396   4.572   1.391   1.960  0.8271 -0.2414 -1.0307
 2406SOL    HW3 9397   4.588   1.259   1.888 -1.3474 -0.7365 -0.6956
 2406SOL    MW4 9398   4.547   1.308   1.947 -0.6985 -0.5779  0.3918
 2407SOL     OW 9399   4.913   0.623   2.596  0.4012 -0.0579 -0.2025
 2407SOL    HW2 9400   4.901   0.541   2.644  2.0712  0.6901  1.5780
 2407SOL    HW3 9401   4.852   0.684   2.637  1.5444  0.4754  0.7260
 2407SOL    MW4 9402   4.903   0.620   2.608 -0.5606 -0.3476 -0.4401
 2408SOL     OW 9403   3.656   4.594   2.839 -0.4846 -0.5645  0.9647
 2408SOL    HW2 9404   3.578   4.633   2.801  0.4463  0.2845 -0.1705
 2408SOL    HW3 9405   3.645   4.604   2.933 -0.8952  1.2761  0.7636
 2408SOL    MW4 9406   3.644   4.601   2.846  0.7088  0.1281 -0.2875
 2409SOL     OW 9407   6.180   4.648   3.583  0.8210  0.3217 -0.1093
 2409SOL    HW2 9408   6.228   4.727   3.556  0.5742  0.5147  0.0058
 2409SOL    HW3 9409   6.218   4.624   3.667 -0.7153  1.7492  1.0658
 2409SOL    MW4 9410   6.191   4.656   3.590  0.8845  0.0658  0.1260
 2410SOL     OW 9411   0.976   1.718   6.214  0.0417 -0.0204  0.6591
 2410SOL    HW2 9412   1.072   1.712   6.216  0.1401  1.2598  0.6642
 2410SOL    HW3 9413   0.957   1.773   6.138 -0.7336 -0.8044  0.2792
 2410SOL    MW4 9414   0.986   1.724   6.205 -0.0933  0.6054 -0.9692
 2411SOL     OW 9415   3.927   3.375   0.971  0.3656 -0.1896  0.3623
 2411SOL    HW2 9416   3.836   3.349   0.963  0.1152  0.1157  1.9530
 2411SOL    HW3 9417   3.927   3.470   0.960  0.7095 -0.3377 -1.1144
 2411SOL    MW4 9418   3.915   3.384   0.969 -0.0857  0.5893 -0.3580
 2412SOL     OW 9419   3.761   2.694   4.602  0.0668  0.0403  0.4199
 2412SOL    HW2 9420   3.816   2.645   4.541 -1.3253 -0.3385 -0.5742
 2412SOL    HW3 9421   3.775   2.786   4.578 -1.3312 -0.1532 -1.2799
 2412SOL    MW4 9422   3.770   2.700   4.591  0.0332 -0.4800  0.0985
 2413SOL     OW 9423   5.770   3.511   5.012 -0.3979  0.1211 -0.4641
 2413SOL    HW2 9424   5.848   3.539   4.964 -0.9475  1.5569 -0.5772
 2413SOL    HW3 9425   5.799   3.437   5.065  0.6966 -0.2339 -1.5334
 2413SOL    MW4 9426   5.784   3.505   5.013 -0.1824  0.3958 -0.0268
 2414SOL     OW 9427   2.411   4.652   4.460 -0.0767  0.3319 -0.3082
 2414SOL    HW2 9428   2.339   4.624   4.516 -1.2869  0.9169 -1.5044
 2414SOL    HW3 9429   2.486   4.661   4.519 -0.9406 -0.4403  0.9405
 2414SOL    MW4 9430   2.411   4.650   4.475 -0.0785 -0.3089 -0.0691
 2415SOL     OW 9431   2.629   6.113   5.478 -0.3073 -0.3862 -0.1155
 2415SOL    HW2 9432   2.554   6.155   5.437 -1.1670  0.6678  2.3845
 2415SOL    HW3 9433   2.704   6.142   5.426 -1.2772  1.1618 -0.7123
 2415SOL    MW4 9434   2.629   6.122   5.466  0.0389 -0.5975  0.1042
 2416SOL     OW 9435   1.244   2.225   6.379  0.8744  0.2733 -0.6340
 2416SOL    HW2 9436   1.210   2.154   6.435 -1.4296  0.4668 -1.6765
 2416SOL    HW3 9437   1.310   2.269   6.433 -1.4657  0.6803  2.1179
 2416SOL    MW4 9438   1.248   2.221   6.393  0.4099  0.2643 -0.0535
 2417SOL     OW 9439   0.528   0.904   4.439  0.0317  0.5802  0.8674
 2417SOL    HW2 9440   0.502   0.996   4.437 -1.8519  0.0771  0.8523
 2417SOL    HW3 9441   0.549   0.883   4.348 -0.8167  0.6646  0.6456
 2417SOL    MW4 9442   0.527   0.913   4.427  0.5551  0.7111 -0.7224
 2418SOL     OW 9443   1.012   1.566   2.741  0.0841  0.4248  0.0879
 2418SOL    HW2 9444   1.102   1.534   2.740  0.9625  2.6897 -0.3784
 2418SOL    HW3 9445   1.001   1.605   2.828  0.9060  3.4301 -1.0335
 2418SOL    MW4 9446   1.022   1.567   2.753  0.1222  0.4665  0.0260
 2419SOL     OW 9447   2.328   3.187   2.506 -0.1270  0.6190  0.3710
 2419SOL    HW2 9448   2.416   3.201   2.471 -0.5105 -0.5272 -1.2006
 2419SOL    HW3 9449   2.337   3.197   2.600  1.7992  0.0128  0.2895
 2419SOL    MW4 9450   2.341   3.190   2.514  1.0140 -0.1964 -0.0470
 2420SOL     OW 9451   1.410   1.631   4.506  0.0053 -0.3384 -0.2355
 2420SOL    HW2 9452   1.393   1.542   4.475 -0.6846 -0.1313 -0.4813
 2420SOL    HW3 9453   1.501   1.648   4.481  0.0894 -0.9102 -0.3420
 2420SOL    MW4 9454   1.420   1.622   4.499  0.4467 -0.9016 -0.0892
 2421SOL     OW 9455   3.437   5.463   4.704 -0.0979 -0.3402 -0.0561
 2421SOL    HW2 9456   3.386   5.383   4.705  1.7245 -1.6071 -1.6152
 2421SOL    HW3 9457   3.504   5.450   4.772 -0.8724  0.6794  0.9521
 2421SOL    MW4 9458   3.439   5.451   4.713  0.5503  0.2498 -0.5349
 2422SOL     OW 9459   4.465   0.305   4.088  0.2440  0.3285 -0.7541
 2422SOL    HW2 9460   4.444   0.280   4.178 -3.0432 -0.3814 -1.5826
 2422SOL    HW3 9461   4.535   0.245   4.063  1.3501  0.6443  1.3052
 2422SOL    MW4 9462   4.472   0.294   4.097  0.5198  0.0028  0.6550
 2423SOL     OW 9463   2.421   0.923   1.723 -0.4324 -0.0201  0.6103
 2423SOL    HW2 9464   2.483   0.880   1.782  1.3227  0.3353 -0.8695
 2423SOL    HW3 9465   2.337   0.883   1.743  0.1801 -0.3079  2.9250
 2423SOL    MW4 9466   2.418   0.912   1.734  0.6516  0.0303  0.0490
 2424SOL     OW 9467   5.789   3.299   0.207 -0.5857 -0.4006 -0.1676
 2424SOL    HW2 9468   5.863   3.253   0.168  0.4951  1.6491 -0.6686
 2424SOL    HW3 9469   5.756   3.239   0.274 -0.7841 -2.8836 -2.3340
 2424SOL    MW4 9470   5.794   3.285   0.211  0.1193 -0.0075 -0.0426
 2425SOL     OW 9471   1.983   2.190   1.634  0.1507  0.0146  1.0050
 2425SOL    HW2 9472   1.917   2.123   1.615 -0.4934  0.1891  2.4524
 2425SOL    HW3 9473   1.956   2.226   1.719 -0.5696  3.3895 -0.4873
 2425SOL    MW4 9474   1.971   2.186   1.643  0.2514 -0.0072 -0.0123
 2426SOL     OW 9475   2.671   2.978   4.604  0.5943 -0.2145 -0.1781
 2426SOL    HW2 9476   2.674   2.901   4.547 -0.5260  0.1312 -0.7161
 2426SOL    HW3 9477   2.589   2.968   4.653  1.6960 -0.6995  1.6763
 2426SOL    MW4 9478   2.661   2.966   4.603  0.0838 -0.0951  0.2881
 2427SOL     OW 9479   3.341   5.222   1.244  0.1807 -0.6785  0.0424
 2427SOL    HW2 9480   3.307   5.152   1.188 -1.8817  0.3663 -0.0903
 2427SOL    HW3 9481   3.326   5.302   1.194  1.8096 -0.0283  0.5202
 2427SOL    MW4 9482   3.335   5.223   1.230 -0.1536  0.3481 -0.5755
 2428SOL     OW 9483   0.351   4.817   3.941 -0.0876  0.4349  0.4901
 2428SOL    HW2 9484   0.401   4.790   3.864  0.1990  2.6837 -0.1996
 2428SOL    HW3 9485   0.363   4.746   4.004  1.7760 -0.2980 -0.6113
 2428SOL    MW4 9486   0.359   4.804   3.939  0.5051  0.2344  0.4569
 2429SOL     OW 9487   0.208   4.413   0.965 -0.2609 -0.8596 -0.3957
 2429SOL    HW2 9488   0.303   4.398   0.957 -0.2208 -0.0111 -1.8671
 2429SOL    HW3 9489   0.169   4.326   0.955  0.3001 -1.0423 -1.0507
 2429SOL    MW4 9490   0.216   4.399   0.963 -0.5708 -0.0726 -0.1249
 2430SOL     OW 9491   2.290   0.478   6.300  0.1925  0.2280  0.3001
 2430SOL    HW2 9492   2.243   0.429   6.232  1.0377  0.1696 -0.2590
 2430SOL    HW3 9493   2.223   0.498   6.365 -0.6661  0.3769 -0.5938
 2430SOL    MW4 9494   2.275   0.474   6.299 -0.0602 -0.3651 -0.3476
 2431SOL     OW 9495   0.638   5.560   5.846  0.0964  0.1279 -0.1623
 2431SOL    HW2 9496   0.604   5.520   5.767  1.2397 -0.7235 -0.2450
 2431SOL    HW3 9497   0.563   5.564   5.905 -0.5993  0.1310 -1.0295
 2431SOL    MW4 9498   0.624   5.555   5.844  0.0066  0.0896 -0.4369
 2432SOL     OW 9499   0.049   1.692   3.965 -0.2846 -0.0430 -0.1159
 2432SOL    HW2 9500   0.055   1.740   4.048 -0.0382 -1.0308  0.4589
 2432SOL    HW3 9501   0.030   1.602   3.991  0.8012 -0.5802 -1.0733
 2432SOL    MW4 9502   0.047   1.686   3.979 -0.5012 -0.2169  0.2048
 2433SOL     OW 9503   6.059   1.121   2.194  0.3078  0.3751 -0.1288
 2433SOL    HW2 9504   6.028   1.087   2.111  0.6970  0.3225 -0.2562
 2433SOL    HW3 9505   5.992   1.095   2.257 -0.0214  0.4752 -0.4365
 2433SOL    MW4 9506   6.046   1.113   2.192 -0.4140 -0.2405 -0.4374
 2434SOL     OW 9507   3.640   5.687   5.443 -0.3382  0.2987  0.3412
 2434SOL    HW2 9508   3.732   5.692   5.467 -0.2440  0.0492  0.0456
 2434SOL    HW3 9509   3.623   5.768   5.396  0.2814 -0.5466 -1.4296
 2434SOL    MW4 9510   3.650   5.698   5.440 -0.0362  0.0765 -0.4146
 2435SOL     OW 9511   5.681   5.335   3.115 -0.3123 -0.1601 -0.4284
 2435SOL    HW2 9512   5.664   5.250   3.074  1.1543 -0.7991  0.2296
 2435SOL    HW3 9513   5.734   5.383   3.050 -0.8888  0.1465 -0.6776
 2435SOL    MW4 9514   5.686   5.330   3.101  0.0893 -0.5124 -0.4800
 2436SOL     OW 9515   1.085   0.381   4.771 -0.2985 -0.2564  0.0735
 2436SOL    HW2 9516   1.049   0.316   4.712 -0.4693 -0.2837  0.2080
 2436SOL    HW3 9517   1.141   0.332   4.831 -0.7496 -0.3390  0.4348
 2436SOL    MW4 9518   1.088   0.366   4.771  0.4889  0.5059 -0.1281
 2437SOL     OW 9519   5.319   3.485   4.409  0.7042 -0.5766 -0.5608
 2437SOL    HW2 9520   5.305   3.403   4.362 -0.4373 -0.4638 -0.4673
 2437SOL    HW3 9521   5.279   3.470   4.495  0.2541  0.1505 -0.6354
 2437SOL    MW4 9522   5.312   3.472   4.414 -0.3858  0.3210 -0.6996
 2438SOL     OW 9523   5.839   3.068   3.159 -0.3128  0.3468 -0.4433
 2438SOL    HW2 9524   5.926   3.027   3.159 -0.6122 -0.4137  1.8679
 2438SOL    HW3 9525   5.856   3.158   3.132  1.3646  0.4521  0.7914
 2438SOL    MW4 9526   5.853   3.075   3.155 -0.1963 -0.3607  0.0952
 2439SOL     OW 9527   5.344   1.882   3.239  0.0842  0.2899  0.0053
 2439SOL    HW2 9528   5.273   1.893   3.302  0.0109  1.2987 -0.2272
 2439SOL    HW3 9529   5.424   1.891   3.292  0.0446 -0.5148  0.2125
 2439SOL    MW4 9530   5.345   1.885   3.255  0.5655 -0.7572  0.3051
 2440SOL     OW 9531   2.692   0.463   2.960  0.7153  0.3613  0.0140
 2440SOL    HW2 9532   2.778   0.444   2.922  0.0609  0.0852 -1.3663
 2440SOL    HW3 9533   2.652   0.377   2.974 -0.5825  0.5030 -2.3515
 2440SOL    MW4 9534   2.698   0.449   2.957 -0.1916  0.0907  0.0572
 2441SOL     OW 9535   0.361   5.081   3.226 -0.2599 -0.2828 -0.7086
 2441SOL    HW2 9536   0.422   5.055   3.157 -0.5481 -0.1165 -1.0326
 2441SOL    HW3 9537   0.344   5.174   3.209  0.8395  0.1691  0.4908
 2441SOL    MW4 9538   0.366   5.090   3.215 -0.0456 -0.5163  0.6280
 2442SOL     OW 9539   1.892   5.391   4.852 -0.3104 -0.3132  0.1109
 2442SOL    HW2 9540   1.820   5.373   4.792  1.0829 -0.2566 -1.6579
 2442SOL    HW3 9541   1.971   5.381   4.799  0.9247  2.0281  1.3200
 2442SOL    MW4 9542   1.893   5.388   4.837 -0.0793 -0.0603  0.6965
 2443SOL     OW 9543   1.062   6.144   5.996  0.4795 -0.2790  0.0701
 2443SOL    HW2 9544   1.002   6.218   6.008 -0.4753 -1.1731  0.9575
 2443SOL    HW3 9545   1.119   6.147   6.073  1.8945  0.8039 -0.9572
 2443SOL    MW4 9546   1.062   6.154   6.008 -0.3303  0.0474 -0.0318
 2444SOL     OW 9547   1.198   1.642   3.907  0.2542  0.3273  0.1062
 2444SOL    HW2 9548   1.176   1.549   3.910 -2.5575  0.8827 -0.7076
 2444SOL    HW3 9549   1.193   1.670   3.998  0.5420 -0.1907  0.2874
 2444SOL    MW4 9550   1.195   1.633   3.919 -0.4426 -0.1224 -0.1433
 2445SOL     OW 9551   2.622   1.662   2.028 -0.1524  0.2337  0.1263
 2445SOL    HW2 9552   2.597   1.577   1.990 -1.0543  0.6482 -0.2399
 2445SOL    HW3 9553   2.545   1.689   2.078  0.4093  0.4926  0.8584
 2445SOL    MW4 9554   2.608   1.654   2.029 -0.0551 -0.1569 -0.5526
 2446SOL     OW 9555   5.999   2.054   6.085 -0.8805  0.0758 -0.0251
 2446SOL    HW2 9556   5.994   2.145   6.115  0.1514 -0.6166  2.4288
 2446SOL    HW3 9557   5.939   2.006   6.142 -0.6593 -0.9551 -0.6355
 2446SOL    MW4 9558   5.990   2.060   6.096  0.1745  0.1188 -0.2652
 2447SOL     OW 9559   1.404   4.842   1.034  0.4917  0.7223 -0.0810
 2447SOL    HW2 9560   1.483   4.800   1.068 -0.5792 -0.2374  1.3597
 2447SOL    HW3 9561   1.341   4.836   1.106 -1.3226  0.2561 -1.6267
 2447SOL    MW4 9562   1.406   4.836   1.048 -0.3530  0.0994 -0.0660
 2448SOL     OW 9563   0.683   1.741   2.420 -0.1198  0.1333 -0.0294
 2448SOL    HW2 9564   0.705   1.673   2.484  0.0980 -1.5927 -1.8539
 2448SOL    HW3 9565   0.764   1.791   2.408 -0.3648  0.9688  1.5482
 2448SOL    MW4 9566   0.696   1.739   2.427 -0.1688 -0.0615 -0.8733
 2449SOL     OW 9567   2.499   3.584   1.008  0.1671 -0.4545  0.2407
 2449SOL    HW2 9568   2.501   3.530   0.928  0.7958 -0.2473  0.1114
 2449SOL    HW3 9569   2.580   3.562   1.054 -0.5017 -1.0497  1.1515
 2449SOL    MW4 9570   2.510   3.574   1.003  0.3108  0.4714 -0.1443
 2450SOL     OW 9571   0.824   3.838   0.468 -0.0816 -0.0635  0.8468
 2450SOL    HW2 9572   0.810   3.743   0.475 -0.2273  0.0132  1.7015
 2450SOL    HW3 9573   0.912   3.846   0.430 -1.3750 -0.5300 -2.6161
 2450SOL    MW4 9574   0.834   3.826   0.464 -0.3793 -0.0764 -0.3092
 2451SOL     OW 9575   4.114   5.690   4.116 -0.2022 -0.5130 -0.1665
 2451SOL    HW2 9576   4.187   5.692   4.178 -0.7442  0.7501  0.4814
 2451SOL    HW3 9577   4.036   5.699   4.171 -0.6007  3.5018 -1.1031
 2451SOL    MW4 9578   4.113   5.691   4.132  0.8480  0.2445  0.6615
 2452SOL     OW 9579   4.874   1.471   4.694  0.8249 -0.1372 -0.3008
 2452SOL    HW2 9580   4.920   1.395   4.731 -0.6925 -1.1133 -0.2960
 2452SOL    HW3 9581   4.943   1.533   4.673  2.0876 -1.3150  0.1751
 2452SOL    MW4 9582   4.889   1.469   4.696 -0.3813 -0.2478  0.4157
 2453SOL     OW 9583   2.247   3.930   1.295  0.3827  0.4118 -0.0907
 2453SOL    HW2 9584   2.307   3.988   1.341 -0.5474  0.6831  0.8028
 2453SOL    HW3 9585   2.232   3.973   1.210 -0.5847  1.7005  0.6977
 2453SOL    MW4 9586   2.253   3.943   1.290  0.5155 -0.3636  0.4717
 2454SOL     OW 9587   3.854   3.076   0.306 -0.1499 -0.0598 -0.3601
 2454SOL    HW2 9588   3.811   3.096   0.390  1.0159  0.1509  0.2056
 2454SOL    HW3 9589   3.846   3.157   0.256  2.6974  1.2727  1.1277
 2454SOL    MW4 9590   3.847   3.089   0.311 -0.1768 -0.0102  0.2911
 2455SOL     OW 9591   0.611   1.978   2.063 -0.5985 -0.2439 -0.3111
 2455SOL    HW2 9592   0.572   2.017   2.141 -0.0859 -1.8716  0.8299
 2455SOL    HW3 9593   0.699   1.953   2.090 -0.0001  0.2042 -1.7765
 2455SOL    MW4 9594   0.617   1.980   2.077  0.1542  0.1705  0.5651
 2456SOL     OW 9595   1.348   5.567   4.604 -0.0051 -0.2997  0.2478
 2456SOL    HW2 9596   1.314   5.646   4.646  0.8314  0.1685  0.0739
 2456SOL    HW3 9597   1.393   5.520   4.674  1.1019  0.3161 -0.0257
 2456SOL    MW4 9598   1.349   5.572   4.619  0.1072 -0.1889  0.5920
 2457SOL     OW 9599   0.568   6.185   5.044  0.0731 -0.0298  0.3667
 2457SOL    HW2 9600   0.662   6.202   5.046  0.1719 -0.6246  1.0660
 2457SOL    HW3 9601   0.561   6.091   5.057 -0.5358 -0.3308 -1.7512
 2457SOL    MW4 9602   0.580   6.175   5.046 -0.7755 -0.2859 -0.1006
 2458SOL     OW 9603   3.531   1.092   1.718  0.4175  0.5153 -0.3007
 2458SOL    HW2 9604   3.457   1.077   1.659  0.5360 -1.8151  0.0601
 2458SOL    HW3 9605   3.596   1.027   1.692  0.9798  0.2875  1.5338
 2458SOL    MW4 9606   3.530   1.081   1.707  0.6267 -0.1698 -0.1212
 2459SOL     OW 9607   2.536   5.518   1.031 -0.2422  0.7630 -0.1245
 2459SOL    HW2 9608   2.510   5.563   1.112  0.5342  0.9968  0.0131
 2459SOL    HW3 9609   2.525   5.425   1.050 -1.0670  0.8614 -0.1156
 2459SOL    MW4 9610   2.531   5.512   1.044  0.5823 -0.4351  0.1378
 2460SOL     OW 9611   3.864   2.498   4.009 -0.3822 -0.1716 -0.2085
 2460SOL    HW2 9612   3.915   2.497   4.091 -1.7409  3.1776  0.8178
 2460SOL    HW3 9613   3.776   2.473   4.036 -0.3402 -1.4877 -1.1836
 2460SOL    MW4 9614   3.859   2.494   4.023  0.7955 -0.1473 -0.1791
 2461SOL     OW 9615   2.758   2.968   1.913 -0.1237  0.2712  0.4426
 2461SOL    HW2 9616   2.673   2.955   1.955 -0.4620  1.2947  0.1071
 2461SOL    HW3 9617   2.741   3.030   1.842  0.6486 -0.5609 -0.5076
 2461SOL    MW4 9618   2.744   2.975   1.909  0.3472  0.1341 -0.0604
 2462SOL     OW 9619   4.634   0.918   3.898  0.0856 -0.1256 -0.4995
 2462SOL    HW2 9620   4.720   0.958   3.892 -0.6461  1.6590  0.2200
 2462SOL    HW3 9621   4.620   0.877   3.813  1.3827  0.1033 -0.8322
 2462SOL    MW4 9622   4.643   0.918   3.886  0.4348 -0.3687 -0.1182
 2463SOL     OW 9623   3.692   2.302   4.722  0.2769 -0.2676  0.1470
 2463SOL    HW2 9624   3.774   2.330   4.682 -0.3012  0.3150 -0.6551
 2463SOL    HW3 9625   3.658   2.380   4.767  0.2490 -0.5575  0.6470
 2463SOL    MW4 9626   3.698   2.316   4.723  0.2251  0.5342  0.0853
 2464SOL     OW 9627   1.447   5.374   5.335 -0.0824  0.1368 -0.0960
 2464SOL    HW2 9628   1.370   5.430   5.345  0.9133  1.1553  2.5659
 2464SOL    HW3 9629   1.411   5.285   5.330 -1.4584  0.5665  1.3197
 2464SOL    MW4 9630   1.432   5.369   5.335  0.0083 -0.9784  0.6438
 2465SOL     OW 9631   4.474   0.453   2.928 -0.0517  0.8107 -0.3847
 2465SOL    HW2 9632   4.381   0.476   2.919 -0.1572  1.5468  1.8299
 2465SOL    HW3 9633   4.473   0.358   2.943 -0.3928  0.7315 -0.8690
 2465SOL    MW4 9634   4.462   0.443   2.929  0.6683  0.1135  0.7309
 2466SOL     OW 9635   3.824   2.206   1.446 -0.6887 -0.4469 -0.0472
 2466SOL    HW2 9636   3.895   2.241   1.392 -0.1212  0.0587  0.9887
 2466SOL    HW3 9637   3.760   2.173   1.383  0.5437 -1.0888 -1.0175
 2466SOL    MW4 9638   3.825   2.206   1.431 -0.6994 -0.7865  0.2920
 2467SOL     OW 9639   6.297   4.734   5.323  0.3859  0.4781 -0.0220
 2467SOL    HW2 9640   6.337   4.715   5.408  1.0506  1.2815 -0.1480
 2467SOL    HW3 9641   6.308   4.653   5.274  1.5054  0.5389  0.0905
 2467SOL    MW4 9642   6.304   4.721   5.328 -0.8286 -0.0241  0.3806
 2468SOL     OW 9643   2.949   6.248   5.984 -0.9334  0.2449  0.3337
 2468SOL    HW2 9644   2.887   6.281   6.049 -0.8771  0.5936  0.2127
 2468SOL    HW3 9645   2.965   6.323   5.927 -0.5989  0.0809  0.2144
 2468SOL    MW4 9646   2.943   6.263   5.985 -0.2255 -0.1274 -0.4815
 2469SOL     OW 9647   1.756   0.613   3.858 -0.6831 -0.4288  0.2304
 2469SOL    HW2 9648   1.727   0.593   3.769  2.7437 -0.6142 -1.0328
 2469SOL    HW3 9649   1.770   0.708   3.858 -1.1131 -0.3655  0.7192
 2469SOL    MW4 9650   1.754   0.623   3.846  0.6099  0.5400  0.3350
 2470SOL     OW 9651   2.156   1.223   2.648  0.1820  0.0690  0.2318
 2470SOL    HW2 9652   2.113   1.308   2.636 -0.9181 -0.5756 -0.5340
 2470SOL    HW3 9653   2.239   1.244   2.692 -1.1545  1.2957  2.3072
 2470SOL    MW4 9654   2.162   1.237   2.652  0.6177  0.1944 -0.2532
 2471SOL     OW 9655   6.342   6.297   4.029 -0.0102  0.3611 -1.0544
 2471SOL    HW2 9656   6.378   6.228   3.974 -0.2042 -0.5710 -0.0406
 2471SOL    HW3 9657   6.382   6.283   4.115  1.5763  2.7743 -1.2817
 2471SOL    MW4 9658   6.352   6.286   4.033 -0.1564 -0.0298 -0.2813
 2472SOL     OW 9659   1.673   6.135   3.951 -0.1715 -0.0204  0.2811
 2472SOL    HW2 9660   1.699   6.062   3.894 -0.0770  0.4477 -0.2911
 2472SOL    HW3 9661   1.739   6.136   4.020  1.0180  0.7830 -0.8241
 2472SOL    MW4 9662   1.685   6.125   3.952 -0.2971 -0.2154  0.2601
 2473SOL     OW 9663   1.191   3.671   3.109  0.1615 -0.2855 -0.1155
 2473SOL    HW2 9664   1.192   3.766   3.122 -0.4387 -0.4732  1.5458
 2473SOL    HW3 9665   1.268   3.653   3.055  0.7694  1.0473  0.2842
 2473SOL    MW4 9666   1.201   3.681   3.103 -0.1213 -0.0496  0.0272
 2474SOL     OW 9667   6.300   6.075   0.152 -0.1021  0.1092  0.1988
 2474SOL    HW2 9668   6.344   6.048   0.071  2.9434  0.3286  1.6473
 2474SOL    HW3 9669   6.214   6.035   0.147  0.3755 -0.7909 -2.6474
 2474SOL    MW4 9670   6.295   6.066   0.140 -0.1449  0.1579  0.2122
 2475SOL     OW 9671   0.743   2.952   1.394  0.0426  0.0496 -0.4636
 2475SOL    HW2 9672   0.723   2.859   1.383 -1.0421  0.3132 -0.7916
 2475SOL    HW3 9673   0.819   2.967   1.338 -0.4514 -0.4056 -1.2636
 2475SOL    MW4 9674   0.750   2.942   1.386 -0.1858 -0.0792  0.3252
 2476SOL     OW 9675   2.252   2.625   0.252 -0.5576 -0.8087 -0.1254
 2476SOL    HW2 9676   2.260   2.648   0.159  0.2551  1.6276  0.4896
 2476SOL    HW3 9677   2.165   2.654   0.277 -0.5591 -0.9409  0.0261
 2476SOL    MW4 9678   2.242   2.632   0.243  0.1136  0.2761  0.6454
 2477SOL     OW 9679   1.080   5.403   4.563 -0.7586 -0.2109  0.1422
 2477SOL    HW2 9680   1.126   5.363   4.489 -2.6584  0.3008 -1.4031
 2477SOL    HW3 9681   1.146   5.457   4.606  0.0035  0.9666 -2.3305
 2477SOL    MW4 9682   1.095   5.405   4.559 -0.0967  0.4284 -0.3570
 2478SOL     OW 9683   6.248   0.821   4.460 -0.2360 -0.0435 -0.1960
 2478SOL    HW2 9684   6.244   0.852   4.550 -0.2870  0.9888 -0.5461
 2478SOL    HW3 9685   6.285   0.893   4.410 -1.7979  0.0665 -1.2838
 2478SOL    MW4 9686   6.252   0.834   4.465  0.1247 -0.5294  0.7201
 2479SOL     OW 9687   4.673   5.843   1.391 -0.7617 -0.2896  0.1760
 2479SOL    HW2 9688   4.713   5.814   1.309 -1.2416 -0.0900 -0.1331
 2479SOL    HW3 9689   4.664   5.938   1.381 -0.3045 -0.1872  0.6917
 2479SOL    MW4 9690   4.677   5.852   1.379  0.5441  0.1060 -0.1911
 2480SOL     OW 9691   5.390   4.158   5.687 -0.6717  0.6259  0.0035
 2480SOL    HW2 9692   5.305   4.178   5.728 -0.9920  0.0179 -0.3410
 2480SOL    HW3 9693   5.367   4.132   5.598  0.0711  2.5701 -0.8023
 2480SOL    MW4 9694   5.376   4.157   5.681 -0.0598  0.1883 -0.0903
 2481SOL     OW 9695   1.376   3.250   4.495  0.3237 -0.4276 -0.3654
 2481SOL    HW2 9696   1.445   3.280   4.554 -1.3359  0.4838  1.1839
 2481SOL    HW3 9697   1.294   3.278   4.536 -0.9458 -0.2142 -2.8420
 2481SOL    MW4 9698   1.374   3.258   4.508 -0.0993 -0.1752 -0.2622
 2482SOL     OW 9699   1.203   1.596   2.990  0.3388  0.7819 -0.1052
 2482SOL    HW2 9700   1.282   1.634   2.951  1.6526 -0.3976  1.2848
 2482SOL    HW3 9701   1.213   1.611   3.084 -0.1669 -1.0262  0.2674
 2482SOL    MW4 9702   1.215   1.603   2.997 -0.0978  0.1752  0.0562
 2483SOL     OW 9703   0.118   1.242   1.023 -0.3536 -0.8186 -0.0214
 2483SOL    HW2 9704   0.144   1.171   0.963 -1.8335  0.3197 -2.1610
 2483SOL    HW3 9705   0.196   1.259   1.075  1.0186 -1.9695 -1.5720
 2483SOL    MW4 9706   0.132   1.235   1.022 -0.6995 -0.2467  0.7285
 2484SOL     OW 9707   4.368   2.546   5.714  0.3026  0.4206 -0.2069
 2484SOL    HW2 9708   4.452   2.575   5.751  1.9939 -0.6210 -2.9251
 2484SOL    HW3 9709   4.344   2.614   5.652  1.0180 -0.8719 -1.9808
 2484SOL    MW4 9710   4.376   2.559   5.711 -0.0977 -0.3230 -0.2272
 2485SOL     OW 9711   0.955   3.488   5.400  0.2485 -0.0958 -0.0868
 2485SOL    HW2 9712   0.959   3.415   5.462  0.0328  0.6759  0.8712
 2485SOL    HW3 9713   0.984   3.451   5.317  0.4928 -1.1780  0.4597
 2485SOL    MW4 9714   0.959   3.474   5.397  0.6134 -0.5604 -0.3155
 2486SOL     OW 9715   1.272   1.055   5.213  0.2564  0.0888  0.2687
 2486SOL    HW2 9716   1.344   1.092   5.265 -1.0033  2.0656  0.6896
 2486SOL    HW3 9717   1.210   1.022   5.277  0.1977 -0.5037 -0.0808
 2486SOL    MW4 9718   1.274   1.055   5.228 -0.0448 -0.3948 -0.2909
 2487SOL     OW 9719   3.369   5.996   1.234  0.3826 -0.0890 -0.3137
 2487SOL    HW2 9720   3.448   6.028   1.277 -0.6413  0.7430  1.0438
 2487SOL    HW3 9721   3.303   6.063   1.252 -0.1053  0.3916 -3.3661
 2487SOL    MW4 9722   3.371   6.009   1.242  0.8035 -0.6197 -0.3972
 2488SOL     OW 9723   2.665   5.806   2.651 -0.0755  0.3761 -0.0173
 2488SOL    HW2 9724   2.625   5.890   2.675 -0.3943  0.3191 -0.3407
 2488SOL    HW3 9725   2.612   5.774   2.578 -0.3662 -0.4252  0.5365
 2488SOL    MW4 9726   2.653   5.813   2.644  0.0843 -0.1890  0.2354
 2489SOL     OW 9727   1.237   0.965   2.989 -0.1472 -0.2659  0.7551
 2489SOL    HW2 9728   1.243   0.927   3.077  2.9200 -0.7090  0.4987
 2489SOL    HW3 9729   1.267   1.055   3.000  2.0853 -0.8434 -0.0041
 2489SOL    MW4 9730   1.242   0.971   3.002 -0.2101  0.0857  0.0812
 2490SOL     OW 9731   4.287   4.100   0.158 -0.6618  0.5900 -0.3788
 2490SOL    HW2 9732   4.250   4.021   0.199  1.1817 -0.3604 -0.4041
 2490SOL    HW3 9733   4.280   4.083   0.064  2.8019 -1.2725 -0.4845
 2490SOL    MW4 9734   4.281   4.087   0.151  0.3481  0.2860  0.1219
 2491SOL     OW 9735   6.320   0.160   6.227 -0.0007  0.0053 -0.2039
 2491SOL    HW2 9736   6.274   0.104   6.166  0.4702  0.1369 -0.6839
 2491SOL    HW3 9737   6.363   0.100   6.288 -0.1148 -0.1350 -0.2628
 2491SOL    MW4 9738   6.320   0.145   6.227 -0.7708 -0.2724  0.1324
 2492SOL     OW 9739   4.597   0.538   3.792 -0.1001  0.0927  0.0905
 2492SOL    HW2 9740   4.664   0.561   3.729 -0.8816  0.5000 -0.6086
 2492SOL    HW3 9741   4.624   0.580   3.873  1.3664 -1.1505  0.2862
 2492SOL    MW4 9742   4.609   0.546   3.794 -0.5695  0.1383 -0.3424
 2493SOL     OW 9743   2.829   4.814   3.637  0.2606 -0.1001 -0.0743
 2493SOL    HW2 9744   2.877   4.760   3.700 -0.3496 -1.0254 -0.3960
 2493SOL    HW3 9745   2.879   4.806   3.556 -0.1555 -0.6583 -0.2770
 2493SOL    MW4 9746   2.842   4.806   3.635  0.1525  0.3626  0.2729
 2494SOL     OW 9747   4.193   1.030   0.056  0.1115 -0.2530 -0.2831
 2494SOL    HW2 9748   4.208   0.936   0.053  1.3768 -0.0788 -0.1250
 2494SOL    HW3 9749   4.279   1.068   0.036  0.4987  0.8827  2.9366
 2494SOL    MW4 9750   4.207   1.023   0.053 -0.3471  0.0561 -0.1941
 2495SOL     OW 9751   0.439   0.439   4.407  0.0607 -0.3137 -0.7793
 2495SOL    HW2 9752   0.464   0.350   4.434 -0.1815 -0.5145 -1.2063
 2495SOL    HW3 9753   0.521   0.479   4.378  0.6099  0.3934  1.5127
 2495SOL    MW4 9754   0.453   0.432   4.407 -0.4662 -0.1637 -0.1366
 2496SOL     OW 9755   2.303   4.656   2.082  0.0684 -0.3282  0.0721
 2496SOL    HW2 9756   2.229   4.597   2.095  0.0092  0.0612  1.7058
 2496SOL    HW3 9757   2.306   4.708   2.162  2.0929 -0.3190  0.0292
 2496SOL    MW4 9758   2.294   4.655   2.094 -0.0544 -0.1006 -0.0216
 2497SOL     OW 9759   1.780   2.111   0.449  0.1191  0.6299 -0.1495
 2497SOL    HW2 9760   1.743   2.046   0.389  0.5238  0.2414  0.0090
 2497SOL    HW3 9761   1.818   2.058   0.520 -0.1849  1.0762  0.3475
 2497SOL    MW4 9762   1.780   2.095   0.451 -0.0203  0.5605 -0.2380
 2498SOL     OW 9763   4.288   2.333   4.941  0.0978 -0.2382 -0.4614
 2498SOL    HW2 9764   4.354   2.318   5.009  0.8656  0.1753 -1.0889
 2498SOL    HW3 9765   4.206   2.341   4.988  1.0344  3.8771  0.9382
 2498SOL    MW4 9766   4.286   2.332   4.956 -0.6201  0.2962 -0.2384
 2499SOL     OW 9767   1.380   0.915   1.144  0.0344  0.1132 -0.0161
 2499SOL    HW2 9768   1.336   0.902   1.060  0.4219 -0.5843 -0.1143
 2499SOL    HW3 9769   1.316   0.888   1.209 -0.2336  0.5662 -0.0885
 2499SOL    MW4 9770   1.366   0.910   1.141 -0.3167 -0.6249  0.2866
 2500SOL     OW 9771   5.264   1.168   4.912 -0.1147  0.0446 -0.0500
 2500SOL    HW2 9772   5.227   1.081   4.903  0.6916 -0.1623 -2.0215
 2500SOL    HW3 9773   5.301   1.170   5.000  0.5790 -1.9171 -0.2464
 2500SOL    MW4 9774   5.264   1.157   4.922 -0.6527  0.7426 -0.2406
 2501SOL     OW 9775   3.684   2.732   2.541  0.3239  0.2842 -0.7960
 2501SOL    HW2 9776   3.760   2.780   2.508  1.7573 -1.1719  0.2252
 2501SOL    HW3 9777   3.718   2.645   2.562 -1.8716 -0.7608 -1.2682
 2501SOL    MW4 9778   3.699   2.727   2.539 -0.1997  0.1829 -0.0369
 2502SOL     OW 9779   6.262   0.310   4.064  0.0856 -0.0084  0.1890
 2502SOL    HW2 9780   6.284   0.342   4.152  2.8086  0.1131 -0.4459
 2502SOL    HW3 9781   6.333   0.249   4.042 -0.4413  0.0849 -2.0007
 2502SOL    MW4 9782   6.274   0.306   4.073  0.0352  0.0702 -0.4482
 2503SOL     OW 9783   5.510   5.517   0.122 -0.6355 -0.2086 -0.6257
 2503SOL    HW2 9784   5.581   5.519   0.057 -0.8360  1.5278 -0.8161
 2503SOL    HW3 9785   5.502   5.424   0.145  2.1299 -0.3983 -0.1001
 2503SOL    MW4 9786   5.518   5.505   0.116 -0.6441 -0.3888 -0.1111
 2504SOL     OW 9787   3.285   4.017   4.830  0.1860  0.6163 -0.0993
 2504SOL    HW2 9788   3.279   4.090   4.768 -1.8441 -0.5055 -1.3234
 2504SOL    HW3 9789   3.364   3.969   4.803 -0.0894  0.7332 -1.1416
 2504SOL    MW4 9790   3.295   4.020   4.818  0.0106  0.5604 -0.7575
 2505SOL     OW 9791   0.244   1.861   6.124 -0.4001 -0.3319 -0.4033
 2505SOL    HW2 9792   0.217   1.867   6.033 -1.5653 -0.4145 -0.0811
 2505SOL    HW3 9793   0.170   1.894   6.174  0.3181 -0.0385  0.5136
 2505SOL    MW4 9794   0.231   1.866   6.119 -0.4603 -0.0156  0.1649
 2506SOL     OW 9795   3.999   1.980   1.853 -0.1586  0.2991  0.0539
 2506SOL    HW2 9796   3.929   1.993   1.790 -1.4471  1.4837  1.6288
 2506SOL    HW3 9797   3.976   2.038   1.927  0.0881 -2.5572  2.5580
 2506SOL    MW4 9798   3.987   1.990   1.855 -0.0873 -0.6165  0.5029
 2507SOL     OW 9799   0.464   3.462   4.997 -0.3801  0.7057  0.5190
 2507SOL    HW2 9800   0.515   3.416   4.931 -2.6353  0.1459 -0.9625
 2507SOL    HW3 9801   0.442   3.546   4.956  0.9797  1.7947  1.9288
 2507SOL    MW4 9802   0.467   3.467   4.983  0.2141  0.0834 -0.8013
 2508SOL     OW 9803   5.429   2.063   2.061 -0.2642  0.1495 -0.1034
 2508SOL    HW2 9804   5.347   2.014   2.060 -0.7586  0.9661 -0.0817
 2508SOL    HW3 9805   5.403   2.155   2.058  0.6975  0.4036 -1.8855
 2508SOL    MW4 9806   5.415   2.068   2.061  0.2088 -0.4022 -0.7866
 2509SOL     OW 9807   6.000   5.848   2.089  0.3441 -0.0547  0.5306
 2509SOL    HW2 9808   6.058   5.923   2.105 -0.0091  0.6195 -1.1867
 2509SOL    HW3 9809   6.052   5.789   2.034  0.3581 -0.7654  1.2776
 2509SOL    MW4 9810   6.015   5.850   2.084  0.3700  0.4661  0.5003
 2510SOL     OW 9811   4.031   1.900   5.917 -0.0501 -0.4614 -0.4646
 2510SOL    HW2 9812   3.993   1.922   5.832  0.1847  3.3630  0.2136
 2510SOL    HW3 9813   4.110   1.954   5.923 -0.0156 -0.6419  2.1191
 2510SOL    MW4 9814   4.036   1.910   5.907 -0.3334  0.4910 -0.1895
 2511SOL     OW 9815   0.877   3.800   6.389 -0.1893 -0.4714  0.2123
 2511SOL    HW2 9816   0.867   3.849   6.307 -0.0698  3.6599  2.4194
 2511SOL    HW3 9817   0.971   3.798   6.404 -0.2790  0.1046  0.9098
 2511SOL    MW4 9818   0.888   3.806   6.380 -0.3402 -0.2009 -0.0706
 2512SOL     OW 9819   3.952   3.704   2.709 -0.2144  0.3423 -0.4251
 2512SOL    HW2 9820   3.858   3.716   2.698 -0.0198 -0.1205 -3.5120
 2512SOL    HW3 9821   3.965   3.610   2.701  0.6827  0.5932 -2.7129
 2512SOL    MW4 9822   3.941   3.693   2.706  0.6200  0.0724  0.1943
 2513SOL     OW 9823   6.068   3.894   4.885 -0.3455  0.2113 -0.3876
 2513SOL    HW2 9824   6.135   3.954   4.917  0.8874 -0.6541 -1.2332
 2513SOL    HW3 9825   6.027   3.859   4.964 -0.0395  1.0188  0.1378
 2513SOL    MW4 9826   6.071   3.897   4.900 -0.8569 -0.7471 -0.7085
 2514SOL     OW 9827   3.435   3.817   0.647 -0.0358  0.2471 -0.4433
 2514SOL    HW2 9828   3.381   3.880   0.696 -0.5043  0.7589 -1.5837
 2514SOL    HW3 9829   3.462   3.753   0.713 -0.2598  1.1673  0.5809
 2514SOL    MW4 9830   3.432   3.817   0.663  0.1848 -0.7681  0.3912
 2515SOL     OW 9831   4.813   3.837   5.127  0.0206  0.5509  0.1094
 2515SOL    HW2 9832   4.814   3.750   5.165  1.7292  1.2996  2.0002
 2515SOL    HW3 9833   4.896   3.844   5.080 -1.4616  0.1339 -2.8570
 2515SOL    MW4 9834   4.824   3.827   5.126 -0.0179 -0.8274 -0.4574
 2516SOL     OW 9835   5.469   2.698   0.508 -0.5823  0.0150 -0.0239
 2516SOL    HW2 9836   5.378   2.729   0.505 -0.3347  1.4479  3.1400
 2516SOL    HW3 9837   5.516   2.758   0.451 -1.2924  0.8100  0.1891
 2516SOL    MW4 9838   5.463   2.710   0.500 -0.0023  0.4928 -0.3061
 2517SOL     OW 9839   4.077   5.802   0.638  0.0830  0.6651  0.6007
 2517SOL    HW2 9840   4.123   5.822   0.556  1.3146  2.5923  1.7012
 2517SOL    HW3 9841   3.986   5.789   0.611  0.7686 -0.6186 -1.2948
 2517SOL    MW4 9842   4.071   5.803   0.623 -0.1505 -0.2497 -0.6937
 2518SOL     OW 9843   1.125   2.478   4.008  0.3173 -0.5569 -0.0067
 2518SOL    HW2 9844   1.219   2.462   4.007  1.1429  3.2002  1.4668
 2518SOL    HW3 9845   1.096   2.444   4.093  1.0140  0.9420  0.8689
 2518SOL    MW4 9846   1.133   2.471   4.019 -0.7945 -0.2900 -0.1709
 2519SOL     OW 9847   5.497   0.844   1.062 -0.0350 -0.3264  0.6424
 2519SOL    HW2 9848   5.581   0.813   1.098  0.4899  0.2524 -0.0414
 2519SOL    HW3 9849   5.463   0.905   1.127 -0.5249 -1.4689  1.4799
 2519SOL    MW4 9850   5.504   0.848   1.075 -0.2086 -0.5135  0.2924
 2520SOL     OW 9851   2.057   3.047   0.397  0.4486 -0.5278 -0.3408
 2520SOL    HW2 9852   2.053   3.078   0.307  3.5813 -0.0959 -0.4739
 2520SOL    HW3 9853   2.059   3.127   0.450 -0.2866 -0.7554  0.0476
 2520SOL    MW4 9854   2.057   3.062   0.392 -0.0281  0.1029 -0.3173
 2521SOL     OW 9855   3.787   1.730   3.093  0.3389  0.4062 -0.2028
 2521SOL    HW2 9856   3.856   1.713   3.157 -0.4200 -0.6068  0.3691
 2521SOL    HW3 9857   3.707   1.741   3.145 -0.2872 -0.4069 -0.9550
 2521SOL    MW4 9858   3.786   1.729   3.109 -0.0317  0.3729 -0.2094
 2522SOL     OW 9859   6.275   0.075   1.898  0.2503  0.4618 -0.4039
 2522SOL    HW2 9860   6.282  -0.018   1.877 -1.7657 -0.2998  1.7584
 2522SOL    HW3 9861   6.197   0.105   1.852  1.0173  1.1785 -1.2740
 2522SOL    MW4 9862   6.265   0.067   1.889  0.2169 -0.7345 -0.0508
 2523SOL     OW 9863   6.116   1.178   0.960  0.0627  0.4685  0.5032
 2523SOL    HW2 9864   6.112   1.172   0.864 -1.8882  0.3469  0.5435
 2523SOL    HW3 9865   6.029   1.208   0.985  0.5184  0.4059  2.2611
 2523SOL    MW4 9866   6.104   1.181   0.950  0.0483  0.7958  0.2761
 2524SOL     OW 9867   2.031   4.172   4.017 -0.4639  0.2865 -0.0363
 2524SOL    HW2 9868   2.112   4.173   3.966  0.3714  2.2456  1.2353
 2524SOL    HW3 9869   2.049   4.110   4.088 -0.0118  0.8414  0.3363
 2524SOL    MW4 9870   2.044   4.164   4.020  0.3290  0.6816 -0.2043
 2525SOL     OW 9871   4.561   4.948   2.328  0.3703 -0.2329 -0.1610
 2525SOL    HW2 9872   4.508   4.893   2.270 -1.1113  1.0667 -0.1140
 2525SOL    HW3 9873   4.512   4.950   2.410 -0.1121  1.8262 -0.4396
 2525SOL    MW4 9874   4.547   4.941   2.331  0.5220 -0.2408  0.2131
 2526SOL     OW 9875   3.393   4.179   4.430  0.3007  0.0592 -0.1693
 2526SOL    HW2 9876   3.484   4.208   4.421  0.9607 -2.1736 -1.3469
 2526SOL    HW3 9877   3.367   4.210   4.516  1.9409  1.3260 -0.0692
 2526SOL    MW4 9878   3.402   4.187   4.440 -0.3897  0.5122 -0.3753
 2527SOL     OW 9879   3.327   5.620   2.063  0.6590 -0.4387  0.0081
 2527SOL    HW2 9880   3.261   5.639   1.996  0.2547  1.0319  0.7867
 2527SOL    HW3 9881   3.368   5.705   2.081  2.2088 -1.1864  0.1379
 2527SOL    MW4 9882   3.323   5.634   2.056  0.0331  0.2437  0.1972
 2528SOL     OW 9883   2.423   0.222   4.059 -0.2369  0.0603  0.1042
 2528SOL    HW2 9884   2.494   0.279   4.088  0.0607 -0.7158  0.9881
 2528SOL    HW3 9885   2.368   0.277   4.004 -1.2754  1.9005  2.7838
 2528SOL    MW4 9886   2.425   0.237   4.055  0.9063  0.2147  0.8141
 2529SOL     OW 9887   3.319   4.729   5.815  0.2177  0.6009  0.1876
 2529SOL    HW2 9888   3.369   4.733   5.896  1.3740 -0.9839 -0.3930
 2529SOL    HW3 9889   3.385   4.725   5.746 -0.7324  0.6299 -0.7537
 2529SOL    MW4 9890   3.334   4.729   5.817  0.5013 -0.1949  0.7183
 2530SOL     OW 9891   1.895   1.347   4.811 -0.0052 -0.3907 -0.3818
 2530SOL    HW2 9892   1.849   1.283   4.865  0.4709 -0.9041 -0.5627
 2530SOL    HW3 9893   1.946   1.293   4.750  2.6233  0.0699  1.2530
 2530SOL    MW4 9894   1.896   1.331   4.810 -0.3519  0.0286  0.0093
 2531SOL     OW 9895   1.893   6.353   3.223  0.3195 -0.3127  0.0526
 2531SOL    HW2 9896   1.907   6.337   3.130 -0.8110  0.7476 -0.3240
 2531SOL    HW3 9897   1.894   6.266   3.263  0.9187 -0.7705 -0.9292
 2531SOL    MW4 9898   1.895   6.339   3.216 -0.5050  0.2736 -0.3216
 2532SOL     OW 9899   0.315   3.918   4.897 -0.1458  0.3462 -0.7668
 2532SOL    HW2 9900   0.301   3.976   4.971  2.5954 -0.3372  0.4333
 2532SOL    HW3 9901   0.339   3.976   4.825 -0.7839  0.8914 -0.5464
 2532SOL    MW4 9902   0.317   3.933   4.897  0.3814 -0.0475 -0.1023
 2533SOL     OW 9903   2.127   4.713   5.878  0.2464  0.2825  0.2053
 2533SOL    HW2 9904   2.127   4.799   5.836  1.0090 -0.0544 -0.5335
 2533SOL    HW3 9905   2.044   4.708   5.924 -0.0169  1.2232 -0.1505
 2533SOL    MW4 9906   2.116   4.724   5.878 -0.5258  0.0468 -0.2344
 2534SOL     OW 9907   1.899   0.158   1.090 -0.2491 -0.0484 -0.4985
 2534SOL    HW2 9908   1.913   0.066   1.116 -0.3485 -0.2879 -1.2622
 2534SOL    HW3 9909   1.912   0.208   1.170  0.1032 -0.7109 -0.1343
 2534SOL    MW4 9910   1.903   0.152   1.104 -0.0467 -0.0486  0.0785
 2535SOL     OW 9911   6.374   3.799   3.145 -0.5044 -0.0590  0.7185
 2535SOL    HW2 9912   6.284   3.789   3.112 -0.6187 -0.0787  1.0284
 2535SOL    HW3 9913   6.363   3.814   3.239 -0.1435 -1.1503  0.9521
 2535SOL    MW4 9914   6.360   3.799   3.153  0.3738  0.3133 -0.2236
 2536SOL     OW 9915   6.150   2.928   5.845  0.0260  0.5070  0.1011
 2536SOL    HW2 9916   6.176   2.846   5.805  0.1458 -0.2139  1.5655
 2536SOL    HW3 9917   6.225   2.986   5.833  0.7808 -0.2855  0.8576
 2536SOL    MW4 9918   6.163   2.925   5.838  0.3757  0.3536 -0.6772
 2537SOL     OW 9919   4.710   5.821   4.834  0.1191  0.0464 -0.2630
 2537SOL    HW2 9920   4.676   5.787   4.751 -0.5536  0.6115 -0.2303
 2537SOL    HW3 9921   4.679   5.758   4.900 -1.9216  1.1461 -0.0882
 2537SOL    MW4 9922   4.701   5.808   4.832  0.2236 -0.1988 -0.5625
 2538SOL     OW 9923   0.275   3.988   1.210 -0.7717  0.1484  0.2251
 2538SOL    HW2 9924   0.190   4.024   1.185 -1.1185  0.2279  1.4756
 2538SOL    HW3 9925   0.319   4.060   1.255  0.5076  0.5333 -1.5244
 2538SOL    MW4 9926   0.270   4.002   1.212 -0.0491  0.2850  0.4967
 2539SOL     OW 9927   4.925   4.794   5.872  0.2672  0.1453  0.3159
 2539SOL    HW2 9928   5.012   4.762   5.893  0.0948  0.5998  1.8275
 2539SOL    HW3 9929   4.904   4.753   5.788  2.6044  1.3237 -0.9737
 2539SOL    MW4 9930   4.934   4.785   5.864  0.2161  0.3113 -0.9554
 2540SOL     OW 9931   5.370   0.338   3.662  0.0695  0.4754 -0.3833
 2540SOL    HW2 9932   5.449   0.377   3.625  0.9819 -0.4432  0.5186
 2540SOL    HW3 9933   5.356   0.386   3.744  0.0806  0.1821 -0.2094
 2540SOL    MW4 9934   5.378   0.349   3.668 -0.6992 -0.1265 -0.6545
 2541SOL     OW 9935   5.767   2.128   4.171  0.0077 -0.4986  0.1443
 2541SOL    HW2 9936   5.782   2.109   4.079 -1.7513  1.7655 -0.6990
 2541SOL    HW3 9937   5.790   2.047   4.217 -0.0542 -2.0206 -2.3705
 2541SOL    MW4 9938   5.772   2.115   4.165  0.4452  0.3829  0.4518
 2542SOL     OW 9939   0.115   5.254   2.998 -0.3500  0.5920 -0.1326
 2542SOL    HW2 9940   0.193   5.254   2.943  0.2964  0.4477  0.7519
 2542SOL    HW3 9941   0.149   5.261   3.088 -1.2666 -0.8344  0.3697
 2542SOL    MW4 9942   0.130   5.255   3.003  0.5314  0.0075 -0.2469
 2543SOL     OW 9943   4.252   3.938   0.656 -0.0451  0.1263 -0.1952
 2543SOL    HW2 9944   4.158   3.949   0.662 -0.4192 -1.7952 -1.5080
 2543SOL    HW3 9945   4.279   3.993   0.583 -0.4033 -0.4046 -0.7397
 2543SOL    MW4 9946   4.243   3.946   0.647 -0.6592  0.2495  0.2267
 2544SOL     OW 9947   4.169   3.867   0.248 -0.1864 -0.0276  0.3457
 2544SOL    HW2 9948   4.134   3.871   0.159  0.2676 -3.0198 -0.0679
 2544SOL    HW3 9949   4.098   3.829   0.299 -0.3398  1.4104  1.2467
 2544SOL    MW4 9950   4.155   3.863   0.243  0.1063 -0.0904 -0.0826
 2545SOL     OW 9951   0.208   0.978   3.122  0.5744 -0.1816 -0.3651
 2545SOL    HW2 9952   0.204   0.899   3.069 -1.4599 -1.4175  1.4421
 2545SOL    HW3 9953   0.281   0.963   3.181  1.0093 -0.1148 -0.8821
 2545SOL    MW4 9954   0.217   0.965   3.123  0.0339 -0.4706 -0.0783
 2546SOL     OW 9955   1.415   4.660   2.828 -0.3743  0.0346 -0.4034
 2546SOL    HW2 9956   1.393   4.632   2.917  0.4422  0.5759 -0.0218
 2546SOL    HW3 9957   1.413   4.579   2.777 -2.6401 -0.0530 -0.2984
 2546SOL    MW4 9958   1.412   4.646   2.833  0.2395  0.5679 -0.7291
 2547SOL     OW 9959   0.420   4.108   5.391  0.4965 -0.1763  0.0507
 2547SOL    HW2 9960   0.357   4.172   5.425  0.7183  0.2110 -0.2552
 2547SOL    HW3 9961   0.393   4.094   5.300  0.6439 -0.2729  0.0220
 2547SOL    MW4 9962   0.408   4.115   5.383  0.3077  0.2413 -0.4225
 2548SOL     OW 9963   6.151   1.862   1.007  0.3880  0.3304 -0.2692
 2548SOL    HW2 9964   6.211   1.891   0.939  0.5834  0.3898 -0.0745
 2548SOL    HW3 9965   6.175   1.914   1.084 -1.3035  1.9063 -0.7409
 2548SOL    MW4 9966   6.162   1.872   1.008  0.0950  0.0428  0.3125
 2549SOL     OW 9967   6.085   1.400   1.891 -0.1416  0.2553  0.2359
 2549SOL    HW2 9968   6.060   1.373   1.802  0.1962 -1.9595  0.7541
 2549SOL    HW3 9969   6.174   1.433   1.882  0.1960 -0.7388 -0.1353
 2549SOL    MW4 9970   6.093   1.401   1.878  0.4896  0.0410  0.4143
 2550SOL     OW 9971   0.639   3.367   3.807 -0.6926 -0.3219 -0.4810
 2550SOL    HW2 9972   0.633   3.452   3.851 -1.4822 -1.6476  2.1270
 2550SOL    HW3 9973   0.668   3.389   3.718  0.3700  2.5581  0.4511
 2550SOL    MW4 9974   0.642   3.381   3.801  0.1703  0.7310  0.5264
 2551SOL     OW 9975   3.927   0.315   4.099  0.1217 -0.3653 -0.1851
 2551SOL    HW2 9976   3.915   0.409   4.108 -0.1279 -0.4503  0.4311
 2551SOL    HW3 9977   4.018   0.304   4.073  0.1835  0.0408 -0.1431
 2551SOL    MW4 9978   3.937   0.326   4.097  0.2237  0.1163  0.0695
 2552SOL     OW 9979   0.720   5.512   2.796  0.2033 -0.1429 -0.0033
 2552SOL    HW2 9980   0.676   5.442   2.748  1.9916 -0.6619 -0.9822
 2552SOL    HW3 9981   0.813   5.496   2.781  0.7467  0.9693  1.8776
 2552SOL    MW4 9982   0.727   5.501   2.788 -0.3279  0.2381 -0.0006
 2553SOL     OW 9983   2.853   0.985   1.089 -0.1573 -0.2856 -0.3584
 2553SOL    HW2 9984   2.853   1.036   1.008 -0.7211  0.9376  0.3840
 2553SOL    HW3 9985   2.803   1.038   1.151  0.7859 -0.8993  0.9799
 2553SOL    MW4 9986   2.847   0.998   1.087 -0.2274 -0.2796 -0.2344
 2554SOL     OW 9987   2.397   3.846   5.672  0.1212  0.1035  0.6450
 2554SOL    HW2 9988   2.395   3.939   5.694  1.5352  0.6374 -1.1927
 2554SOL    HW3 9989   2.487   3.830   5.643 -0.6236 -1.2904 -1.1270
 2554SOL    MW4 9990   2.409   3.856   5.671  0.1326  0.2020  0.2191
 2555SOL     OW 9991   2.536   3.405   4.751  0.2291  0.2297 -0.0763
 2555SOL    HW2 9992   2.463   3.428   4.808  0.4033 -0.9333  0.6359
 2555SOL    HW3 9993   2.605   3.374   4.810  1.3152  1.3011 -0.7348
 2555SOL    MW4 9994   2.535   3.404   4.766  0.3167 -0.1593 -0.3117
 2556SOL     OW 9995   5.664   4.065   2.628 -0.2342 -0.1044  0.2172
 2556SOL    HW2 9996   5.668   4.158   2.605  1.8687 -0.3766 -0.7156
 2556SOL    HW3 9997   5.638   4.021   2.548 -0.1898 -0.4058  0.3655
 2556SOL    MW4 9998   5.661   4.071   2.615 -0.4287  0.5072 -0.0752
 2557SOL     OW 9999   5.393   5.671   5.757 -0.3102 -0.2996 -0.5988
 2557SOL    HW210000   5.349   5.639   5.677  1.3302 -2.2704 -0.8045
 2557SOL    HW310001   5.338   5.638   5.829 -0.1698 -1.1832 -0.8784
 2557SOL    MW410002   5.380   5.662   5.756 -0.6102  0.1181  0.5323
 2558SOL     OW10003   1.423   2.047   5.365  0.6482  0.1729  0.2409
 2558SOL    HW210004   1.514   2.040   5.336  0.3447 -0.0450 -0.6892
 2558SOL    HW310005   1.397   1.957   5.385  0.7019  0.2605  0.7016
 2558SOL    MW410006   1.432   2.034   5.364 -0.7096 -0.3703  0.4911
 2559SOL     OW10007   5.840   3.646   0.120 -0.2002 -0.4917 -0.5077
 2559SOL    HW210008   5.859   3.571   0.064  1.2804 -1.7667  1.5388
 2559SOL    HW310009   5.915   3.704   0.107  0.5284 -1.1420  0.6447
 2559SOL    MW410010   5.853   3.644   0.111  0.0378 -0.1397  0.3594
 2560SOL     OW10011   0.430   3.793   4.306 -0.0547 -0.2494  0.7169
 2560SOL    HW210012   0.437   3.773   4.212  0.7818 -0.6498  0.8476
 2560SOL    HW310013   0.373   3.869   4.311  0.6708  0.3750 -0.1983
 2560SOL    MW410014   0.423   3.800   4.294 -0.0805  0.1873  0.1340
 2561SOL     OW10015   0.288   5.985   2.274  0.4067  0.2539 -0.0207
 2561SOL    HW210016   0.283   5.901   2.229 -0.0489  0.3264 -0.1124
 2561SOL    HW310017   0.302   5.963   2.366 -0.6011  0.0450  0.0957
 2561SOL    MW410018   0.289   5.971   2.280 -0.3263  0.9994  0.5252
 2562SOL     OW10019   5.108   1.102   2.145 -0.2661  0.4573 -0.2512
 2562SOL    HW210020   5.140   1.028   2.093 -1.2302  1.0637 -1.7740
 2562SOL    HW310021   5.182   1.163   2.149  0.2630 -0.1994  0.3112
 2562SOL    MW410022   5.122   1.100   2.139  0.1257 -0.4696  0.4100
 2563SOL     OW10023   0.398   0.791   3.292 -1.2730  0.2368  0.4886
 2563SOL    HW210024   0.455   0.802   3.216 -1.5794  0.8226  0.3393
 2563SOL    HW310025   0.447   0.830   3.364 -1.6164  1.0322  0.2978
 2563SOL    MW410026   0.412   0.797   3.291  0.1011 -0.1831  0.0919
 2564SOL     OW10027   2.291   0.565   3.691 -0.4759 -0.1127  0.0850
 2564SOL    HW210028   2.250   0.593   3.610 -2.6166 -1.7002  0.5104
 2564SOL    HW310029   2.280   0.639   3.751  0.2830  0.7143 -0.7863
 2564SOL    MW410030   2.284   0.578   3.688  0.4435  0.0521  0.1062
 2565SOL     OW10031   5.885   5.369   3.840  0.3468  0.2760  0.1374
 2565SOL    HW210032   5.821   5.439   3.857 -1.3382 -1.1189 -0.2681
 2565SOL    HW310033   5.875   5.310   3.914  0.5815 -0.3878 -0.3589
 2565SOL    MW410034   5.875   5.371   3.852  0.1813 -0.6017 -0.4618
 2566SOL     OW10035   0.607   1.251   0.429 -0.2674  0.2154  0.1197
 2566SOL    HW210036   0.567   1.304   0.498 -1.0738 -0.2095 -0.0095
 2566SOL    HW310037   0.554   1.270   0.351  1.4692  1.8016 -0.7889
 2566SOL    MW410038   0.595   1.261   0.428  0.0646 -0.3407  0.5765
 2567SOL     OW10039   3.679   1.708   5.707  0.0452  0.1658 -0.0664
 2567SOL    HW210040   3.684   1.666   5.621 -0.5462  0.7591 -0.4109
 2567SOL    HW310041   3.659   1.638   5.768 -2.3380  0.0816 -0.8139
 2567SOL    MW410042   3.677   1.693   5.704  0.5126 -0.2252  0.1517
 2568SOL     OW10043   1.112   1.329   2.918  0.3037  0.1761  0.0539
 2568SOL    HW210044   1.037   1.314   2.860  1.2263  0.0964 -1.1632
 2568SOL    HW310045   1.116   1.424   2.927  1.4253  0.3640 -1.8292
 2568SOL    MW410046   1.103   1.340   2.912 -0.1395  0.4148 -0.1224
 2569SOL     OW10047   4.103   3.683   1.194 -0.0931  0.3918 -0.0853
 2569SOL    HW210048   4.049   3.648   1.124 -1.0406 -0.2468  0.9222
 2569SOL    HW310049   4.183   3.631   1.191 -0.7618 -0.6897  0.2552
 2569SOL    MW410050   4.106   3.671   1.184  0.4677 -0.1613 -0.4833
 2570SOL     OW10051   6.192   2.171   1.838 -0.0200 -0.4642  0.1089
 2570SOL    HW210052   6.161   2.190   1.749  0.5576  3.3203  0.5378
 2570SOL    HW310053   6.284   2.149   1.826 -0.2063 -1.0842 -0.2749
 2570SOL    MW410054   6.200   2.171   1.825  0.6254 -0.2858  0.3839
 2571SOL     OW10055   2.824   5.936   6.111  0.1310  0.1335  0.6203
 2571SOL    HW210056   2.741   5.975   6.084 -0.1807 -1.1663 -0.4413
 2571SOL    HW310057   2.805   5.843   6.120  1.5834 -0.2708 -0.1771
 2571SOL    MW410058   2.811   5.929   6.108 -0.1229  0.1770 -0.4330
 2572SOL     OW10059   1.837   4.705   5.958 -0.0584  0.2827 -0.4737
 2572SOL    HW210060   1.807   4.615   5.968 -0.2269  0.3541 -0.3274
 2572SOL    HW310061   1.771   4.747   5.903  0.4626  0.0935 -1.2716
 2572SOL    MW410062   1.825   4.699   5.952  0.1972 -0.3900  1.4932
 2573SOL     OW10063   5.963   3.156   1.445 -0.2193  0.7905  0.2543
 2573SOL    HW210064   5.943   3.074   1.399  1.0968 -0.5020  1.8419
 2573SOL    HW310065   6.043   3.137   1.494  1.1800  3.6076 -0.7053
 2573SOL    MW410066   5.971   3.143   1.445 -0.0629 -0.7681 -0.1698
 2574SOL     OW10067   4.519   0.398   4.535 -0.4305  0.4522 -0.2853
 2574SOL    HW210068   4.497   0.331   4.600 -1.2923  1.0455  0.0494
 2574SOL    HW310069   4.615   0.397   4.531 -0.4009 -0.1717  0.3746
 2574SOL    MW410070   4.529   0.389   4.543  0.8049 -0.3154 -0.0969
 2575SOL     OW10071   0.508   6.149   2.208 -0.3647  0.3347  0.1831
 2575SOL    HW210072   0.446   6.081   2.236  1.3040 -1.6042 -0.5720
 2575SOL    HW310073   0.501   6.149   2.112  0.8924 -0.0501  0.0751
 2575SOL    MW410074   0.499   6.140   2.199 -0.1184  0.0406  0.2932
 2576SOL     OW10075   2.170   3.488   3.318 -0.2837 -0.5000 -0.1951
 2576SOL    HW210076   2.244   3.428   3.309  1.0086  0.8661  0.6999
 2576SOL    HW310077   2.172   3.541   3.238  0.6900  0.5195  0.4662
 2576SOL    MW410078   2.180   3.487   3.306 -0.7463 -0.3475  0.5044
 2577SOL     OW10079   4.865   4.650   5.625 -0.0269 -0.9616  0.3287
 2577SOL    HW210080   4.921   4.702   5.567  0.5749 -1.7102  0.2220
 2577SOL    HW310081   4.890   4.559   5.608  0.8801 -1.1801  2.4514
 2577SOL    MW410082   4.876   4.645   5.616 -0.0851 -0.0661  0.4477
 2578SOL     OW10083   4.913   5.454   1.126 -0.4819  1.0191 -0.6492
 2578SOL    HW210084   4.936   5.432   1.036 -1.2603  0.2361 -0.6745
 2578SOL    HW310085   4.908   5.549   1.127  1.5111  1.1627 -0.9220
 2578SOL    MW410086   4.915   5.463   1.114  0.3293  0.2503 -0.4708
 2579SOL     OW10087   3.680   4.784   4.050 -0.0375  0.1214 -0.8524
 2579SOL    HW210088   3.727   4.866   4.065  0.4584 -0.4754  1.0055
 2579SOL    HW310089   3.637   4.764   4.133  0.6622 -2.0131 -0.9482
 2579SOL    MW410090   3.680   4.792   4.063  0.4092 -0.6459 -0.1457
 2580SOL     OW10091   3.347   3.860   3.118  0.2448  0.2610  0.1307
 2580SOL    HW210092   3.433   3.901   3.130  1.0727 -1.6088  0.9463
 2580SOL    HW310093   3.323   3.827   3.205 -1.3178  0.7311 -0.0819
 2580SOL    MW410094   3.355   3.861   3.131 -0.2146  0.3828 -0.8077
 2581SOL     OW10095   3.014   3.087   2.619 -0.3126 -0.0751  0.1765
 2581SOL    HW210096   3.083   3.106   2.555 -0.6241 -1.7148 -0.6801
 2581SOL    HW310097   3.060   3.078   2.703  0.4008 -0.3267 -0.2431
 2581SOL    MW410098   3.029   3.089   2.622 -0.1637  0.2778  0.0282
 2582SOL     OW10099   1.217   4.239   6.191  0.2536 -0.1463 -0.4127
 2582SOL    HW210100   1.255   4.327   6.193 -0.2523  0.0641  0.4926
 2582SOL    HW310101   1.162   4.239   6.113  0.4356  0.2640 -0.5469
 2582SOL    MW410102   1.215   4.251   6.181  0.2753  0.3244  0.0436
 2583SOL     OW10103   2.125   1.185   5.673  0.2401  0.1818  0.1686
 2583SOL    HW210104   2.150   1.272   5.642 -1.0409  0.7712  0.7203
 2583SOL    HW310105   2.046   1.164   5.623  0.7758 -0.8635 -0.2665
 2583SOL    MW410106   2.117   1.194   5.663  0.3055 -0.1245  0.5072
 2584SOL     OW10107   4.481   4.044   6.115  0.9610  0.4966  0.8611
 2584SOL    HW210108   4.466   4.126   6.162  2.6336 -0.0516  2.4706
 2584SOL    HW310109   4.542   4.067   6.045 -0.7488  1.1168 -0.4984
 2584SOL    MW410110   4.487   4.058   6.112 -0.0480  0.2751  0.1295
 2585SOL     OW10111   5.487   6.094   4.588  0.2492 -0.0644 -0.6407
 2585SOL    HW210112   5.544   6.023   4.617  1.8622  1.4507  0.0827
 2585SOL    HW310113   5.405   6.050   4.565  0.2149 -1.8835  2.3695
 2585SOL    MW410114   5.484   6.079   4.589  0.3054 -0.3352  0.2778
 2586SOL     OW10115   6.169   1.860   1.702 -0.3160 -0.5598  0.0035
 2586SOL    HW210116   6.244   1.832   1.754  0.1516  0.7273  0.0669
 2586SOL    HW310117   6.103   1.886   1.766  0.7827  2.4377  0.1093
 2586SOL    MW410118   6.170   1.860   1.717 -0.5877  0.2514  0.0348
 2587SOL     OW10119   4.248   1.254   1.922 -0.1957 -0.2915  0.0794
 2587SOL    HW210120   4.334   1.293   1.936 -1.0368  1.1220  1.5246
 2587SOL    HW310121   4.199   1.320   1.873  0.2342 -2.0736 -3.0606
 2587SOL    MW410122   4.253   1.268   1.917 -0.5048  0.0610  0.0361
 2588SOL     OW10123   4.213   4.911   5.298 -0.3157 -0.0433 -0.3015
 2588SOL    HW210124   4.158   4.946   5.368  0.4711  0.3000  0.1652
 2588SOL    HW310125   4.152   4.871   5.236 -1.1959  1.5878 -0.5215
 2588SOL    MW410126   4.198   4.910   5.299 -0.2097  0.4055 -0.2756
 2589SOL     OW10127   3.036   4.679   1.184  0.1453  0.8791  0.5742
 2589SOL    HW210128   2.960   4.725   1.220  1.2825  1.2126  2.6981
 2589SOL    HW310129   3.003   4.592   1.162 -0.6209  0.6252  2.5891
 2589SOL    MW410130   3.022   4.673   1.186 -0.6712 -0.1579  0.0316
 2590SOL     OW10131   3.376   2.799   4.391 -0.2680 -0.4405 -0.1601
 2590SOL    HW210132   3.335   2.798   4.478 -0.5926  1.2560 -0.2513
 2590SOL    HW310133   3.302   2.789   4.330 -0.5726  1.9941 -0.3049
 2590SOL    MW410134   3.361   2.798   4.394  0.0051 -0.2816 -0.3347
 2591SOL     OW10135   4.534   2.304   2.887  0.0107  0.1720  0.0223
 2591SOL    HW210136   4.513   2.293   2.980 -1.2515  0.7793 -0.1629
 2591SOL    HW310137   4.602   2.371   2.885 -0.2002  0.4055  0.4997
 2591SOL    MW410138   4.540   2.312   2.899  0.2586  0.4132  0.4272
 2592SOL     OW10139   5.658   4.514   0.072 -0.1285  0.0767  0.4077
 2592SOL    HW210140   5.737   4.475   0.034  0.6426  1.8941  0.0508
 2592SOL    HW310141   5.667   4.498   0.166  0.3002 -0.3618  0.2990
 2592SOL    MW410142   5.670   4.507   0.079 -0.4143  0.7483 -0.2534
 2593SOL     OW10143   2.438   0.693   1.390  0.6580  0.1482 -0.2837
 2593SOL    HW210144   2.514   0.695   1.332  0.0900  3.6557 -1.1030
 2593SOL    HW310145   2.474   0.713   1.477  0.8251  0.6903 -0.4742
 2593SOL    MW410146   2.453   0.696   1.394 -0.1061 -0.3408  0.6205
 2594SOL     OW10147   3.740   0.446   1.505  0.1890  0.4780 -0.4324
 2594SOL    HW210148   3.725   0.384   1.433 -0.7008  0.5515 -0.3221
 2594SOL    HW310149   3.666   0.432   1.564 -0.4877  2.2322 -0.8179
 2594SOL    MW410150   3.728   0.436   1.504  0.9338 -0.7579 -0.9536
 2595SOL     OW10151   5.595   0.242   3.261 -0.2498  0.7209 -0.2562
 2595SOL    HW210152   5.687   0.263   3.248 -0.0044  1.6487  2.4072
 2595SOL    HW310153   5.591   0.205   3.349 -1.9743 -2.6080 -1.5824
 2595SOL    MW410154   5.607   0.240   3.271 -0.1067 -0.5150 -0.8531
 2596SOL     OW10155   6.313   2.029   0.094  0.5441  0.4914  0.8508
 2596SOL    HW210156   6.308   2.079   0.175  1.2315  2.5291 -0.2695
 2596SOL    HW310157   6.287   2.092   0.026  1.2134 -0.7583 -0.6283
 2596SOL    MW410158   6.309   2.044   0.096  0.3204 -0.1945  0.4881
 2597SOL     OW10159   4.005   0.141   4.852 -0.0757 -0.2437 -0.7803
 2597SOL    HW210160   3.931   0.138   4.792 -0.5927 -1.8189 -0.1159
 2597SOL    HW310161   4.058   0.064   4.830  0.2884 -0.2488  0.0653
 2597SOL    MW410162   4.002   0.130   4.841  0.2863  0.1663  0.0982
 2598SOL     OW10163   4.130   3.847   3.112  0.0869 -0.0245  0.1778
 2598SOL    HW210164   4.061   3.799   3.065 -0.6538 -1.2180  2.3500
 2598SOL    HW310165   4.095   3.936   3.120  0.6273  0.4785 -2.2159
 2598SOL    MW410166   4.116   3.853   3.107 -0.3153 -0.4598 -0.1515
 2599SOL     OW10167   1.418   5.464   2.597  0.1312  0.4714  0.4179
 2599SOL    HW210168   1.480   5.516   2.648  3.0510 -0.1891 -2.2038
 2599SOL    HW310169   1.397   5.519   2.521 -2.0856  0.4227  0.9345
 2599SOL    MW410170   1.423   5.478   2.594 -0.4765 -0.3858 -0.0105
 2600SOL     OW10171   3.384   2.209   4.758 -0.1281 -0.2796 -0.4454
 2600SOL    HW210172   3.460   2.232   4.812 -0.7212  3.7102 -1.0022
 2600SOL    HW310173   3.313   2.200   4.822 -0.1159  0.8522 -0.2500
 2600SOL    MW410174   3.385   2.211   4.774  0.1505  0.0178  0.6338
 2601SOL     OW10175   3.261   0.356   2.185  0.0638 -0.0562  0.3727
 2601SOL    HW210176   3.284   0.359   2.277  1.8403 -1.2171  0.0248
 2601SOL    HW310177   3.242   0.264   2.168 -1.1829  0.2884 -0.2352
 2601SOL    MW410178   3.262   0.344   2.195 -0.1940 -0.0732 -0.6399
 2602SOL     OW10179   5.533   3.687   1.410 -0.1618 -0.0508  0.1108
 2602SOL    HW210180   5.526   3.729   1.495  0.2216 -0.8681  0.5647
 2602SOL    HW310181   5.614   3.722   1.373 -0.8186  1.0208 -0.3387
 2602SOL    MW410182   5.543   3.697   1.416 -0.2673  0.1450 -0.6669
 2603SOL     OW10183   2.611   2.769   3.999  0.4293  0.4679 -0.0923
 2603SOL    HW210184   2.672   2.719   4.053 -0.8879 -0.7720  0.2783
 2603SOL    HW310185   2.613   2.725   3.914 -0.5817 -0.1068  0.1735
 2603SOL    MW410186   2.620   2.757   3.995  0.0248 -0.7655  0.0147
 2604SOL     OW10187   3.747   0.966   1.937  0.0417  0.5747  0.3030
 2604SOL    HW210188   3.795   0.990   2.016  2.4569  3.1351 -1.6996
 2604SOL    HW310189   3.813   0.928   1.879 -1.9790 -2.7950 -0.0270
 2604SOL    MW410190   3.762   0.964   1.940 -0.1968  0.3516  0.5084
 2605SOL     OW10191   6.182   0.529   3.816  0.1349 -0.2404 -0.0925
 2605SOL    HW210192   6.166   0.435   3.828 -2.2318  0.0410 -0.4902
 2605SOL    HW310193   6.192   0.563   3.905 -2.9663 -0.3466  0.4196
 2605SOL    MW410194   6.181   0.521   3.829 -0.0369 -0.2672  0.3417
 2606SOL     OW10195   5.765   1.253   1.829  0.6792  0.2474  0.1075
 2606SOL    HW210196   5.836   1.274   1.768  1.4387  0.5819  1.0883
 2606SOL    HW310197   5.799   1.183   1.883  0.1203  0.1573  0.3505
 2606SOL    MW410198   5.779   1.247   1.828 -1.3110  0.3409 -0.2028
 2607SOL     OW10199   0.710   1.602   4.979 -0.2289  0.1236  0.1947
 2607SOL    HW210200   0.640   1.638   4.924  0.2619  1.9015  0.6983
 2607SOL    HW310201   0.782   1.664   4.970  0.4579 -0.4533  1.5254
 2607SOL    MW410202   0.710   1.615   4.971 -0.2041  0.7137 -0.2434
 2608SOL     OW10203   1.547   2.081   0.039 -0.2703 -0.5206  0.5475
 2608SOL    HW210204   1.510   2.037   0.115 -0.1895  0.3751  1.1179
 2608SOL    HW310205   1.526   2.023  -0.035 -0.6228 -1.2420  1.1990
 2608SOL    MW410206   1.540   2.067   0.039 -0.2316  0.2810  0.5282
 2609SOL     OW10207   2.273   2.577   2.223  0.0670 -0.4536  0.1810
 2609SOL    HW210208   2.259   2.538   2.137  1.5735 -2.7975  0.9093
 2609SOL    HW310209   2.188   2.573   2.266 -0.7050  0.7545 -1.1354
 2609SOL    MW410210   2.260   2.572   2.217  0.2314 -0.3489  0.2610
 2610SOL     OW10211   4.811   3.526   3.607 -0.1986  0.2009 -0.5255
 2610SOL    HW210212   4.878   3.566   3.552 -0.2698  0.4969 -0.3956
 2610SOL    HW310213   4.854   3.511   3.691 -1.0882  3.1568  0.5953
 2610SOL    MW410214   4.825   3.529   3.611 -0.0108 -0.3880  0.1190
 2611SOL     OW10215   2.737   5.397   6.412  0.0287 -0.6601 -0.3946
 2611SOL    HW210216   2.650   5.403   6.372  0.5016 -1.8931 -1.6983
 2611SOL    HW310217   2.738   5.310   6.454  0.1155 -0.0340  0.9592
 2611SOL    MW410218   2.726   5.386   6.412  0.3879 -0.3685 -0.7545
 2612SOL     OW10219   0.795   3.647   5.686 -0.1789 -0.0144 -0.0309
 2612SOL    HW210220   0.730   3.716   5.692 -0.0213  0.1704 -0.4290
 2612SOL    HW310221   0.770   3.596   5.609  0.5652  0.5017 -0.6310
 2612SOL    MW410222   0.783   3.649   5.677  0.7957  0.2576 -0.0454
 2613SOL     OW10223   5.548   1.769   3.797  0.2429  0.2647  0.3586
 2613SOL    HW210224   5.522   1.696   3.742  0.7847  0.4005 -0.0954
 2613SOL    HW310225   5.508   1.846   3.756  0.0867  0.2816  0.5438
 2613SOL    MW410226   5.539   1.770   3.784  0.1886 -0.5873 -0.0370
 2614SOL     OW10227   4.448   0.600   4.181  0.4680  0.6577  0.3977
 2614SOL    HW210228   4.413   0.639   4.102  0.8943  0.8103  0.2800
 2614SOL    HW310229   4.453   0.506   4.162 -0.0337  0.6108  0.4814
 2614SOL    MW410230   4.444   0.593   4.168  0.2765  0.0031  0.4148
 2615SOL     OW10231   5.313   0.074   1.995  0.5939  0.0642 -0.0378
 2615SOL    HW210232   5.399   0.116   2.003  2.1037 -2.8514  0.6274
 2615SOL    HW310233   5.309   0.046   1.903 -0.5679  1.8853 -0.5770
 2615SOL    MW410234   5.324   0.076   1.984  0.6025  0.8150  0.2755
 2616SOL     OW10235   5.908   3.973   0.307  0.1947 -0.3523  0.0653
 2616SOL    HW210236   5.816   3.998   0.320  0.1356 -0.5940  0.1276
 2616SOL    HW310237   5.924   3.907   0.375  0.8682  0.7876  1.0447
 2616SOL    MW410238   5.898   3.967   0.318 -0.1207  0.0974 -0.0175
 2617SOL     OW10239   5.455   3.619   5.051 -0.6024 -0.3242 -0.1873
 2617SOL    HW210240   5.408   3.700   5.070  0.0636  0.2971 -1.0642
 2617SOL    HW310241   5.417   3.587   4.969 -1.0549 -1.0613  0.3000
 2617SOL    MW410242   5.444   3.625   5.042  0.7328  0.8766 -0.1314
 2618SOL     OW10243   6.089   4.103   0.747 -0.1416  0.1201 -0.4060
 2618SOL    HW210244   6.048   4.024   0.784  1.8533 -0.9868 -0.4399
 2618SOL    HW310245   6.024   4.137   0.685 -1.0438 -1.5090 -0.4110
 2618SOL    MW410246   6.075   4.097   0.744  0.3343 -0.4951  0.1664
 2619SOL     OW10247   0.779   3.002   3.994  0.1433  0.2944  0.2491
 2619SOL    HW210248   0.829   3.080   3.968  0.1162  0.2354  0.0200
 2619SOL    HW310249   0.831   2.929   3.961  0.4742  0.1895  0.9825
 2619SOL    MW410250   0.793   3.003   3.986  0.7572 -0.2207 -0.1591
 2620SOL     OW10251   5.021   6.050   2.432  0.3585 -0.3234  0.3855
 2620SOL    HW210252   4.974   6.056   2.515  1.5336 -0.5055  1.0767
 2620SOL    HW310253   5.104   6.094   2.447  0.5001 -0.1590 -0.7703
 2620SOL    MW410254   5.026   6.056   2.445  0.5065  0.3663  0.2254
 2621SOL     OW10255   4.868   5.625   6.172 -0.3340 -0.6408  0.2061
 2621SOL    HW210256   4.910   5.711   6.164 -1.2050 -0.2435 -0.1811
 2621SOL    HW310257   4.922   5.578   6.236  1.3814 -0.5687 -1.1146
 2621SOL    MW410258   4.881   5.630   6.180 -0.3162  0.0963  0.1414
 2622SOL     OW10259   4.161   5.220   4.879 -0.3374  0.3815  0.5012
 2622SOL    HW210260   4.204   5.137   4.857  0.3440  0.6785  0.6918
 2622SOL    HW310261   4.110   5.242   4.801  0.2345  0.2675  0.0910
 2622SOL    MW410262   4.160   5.212   4.866 -0.8621 -0.0952  0.1653
 2623SOL     OW10263   1.263   1.356   5.272  0.4753 -0.7646  0.6199
 2623SOL    HW210264   1.238   1.267   5.247 -0.5011  0.1896 -2.2427
 2623SOL    HW310265   1.358   1.357   5.267  0.4337 -1.3276 -0.7321
 2623SOL    MW410266   1.272   1.345   5.268 -0.3861 -0.4363 -0.0767
 2624SOL     OW10267   2.304   3.075   4.001  0.2070  0.8716 -0.1001
 2624SOL    HW210268   2.242   3.086   4.073  0.2181  1.8394 -0.2278
 2624SOL    HW310269   2.384   3.043   4.044 -0.3723 -0.4355  0.0545
 2624SOL    MW410270   2.307   3.072   4.016  0.0230 -0.0146  0.2579
 2625SOL     OW10271   2.658   2.003   4.194 -0.0090  0.8778  0.1424
 2625SOL    HW210272   2.728   1.965   4.247 -0.5939 -1.3569 -0.5675
 2625SOL    HW310273   2.588   2.022   4.257 -0.0098 -0.0388  0.4305
 2625SOL    MW410274   2.658   2.000   4.209  0.0199 -0.2188  1.2595
 2626SOL     OW10275   1.485   0.536   1.510 -0.2924  0.0149 -0.0636
 2626SOL    HW210276   1.501   0.469   1.578 -0.5205 -0.0776 -0.0990
 2626SOL    HW310277   1.569   0.579   1.499  0.0334 -0.7074 -0.5133
 2626SOL    MW410278   1.498   0.533   1.518 -0.0288  0.8612 -0.4932
 2627SOL     OW10279   3.986   2.195   3.986 -0.1978  0.1065  0.2632
 2627SOL    HW210280   4.003   2.284   3.953  0.6666  0.1911  0.8887
 2627SOL    HW310281   3.905   2.203   4.036 -0.1983  0.5242  0.2028
 2627SOL    MW410282   3.978   2.208   3.988  0.6087 -0.1972 -0.3432
 2628SOL     OW10283   4.625   2.044   1.557  0.4865 -0.0856  0.2155
 2628SOL    HW210284   4.703   2.095   1.576  0.9423 -0.0598 -1.6157
 2628SOL    HW310285   4.565   2.105   1.514 -0.5801 -0.1012  1.6052
 2628SOL    MW410286   4.627   2.059   1.554 -0.8279 -0.6727  0.2658
 2629SOL     OW10287   6.333   1.204   2.219  0.0451 -0.0981 -0.3438
 2629SOL    HW210288   6.332   1.277   2.281  0.9025 -0.4866  0.1384
 2629SOL    HW310289   6.241   1.178   2.212  0.0225 -0.7037  1.5765
 2629SOL    MW410290   6.320   1.210   2.226  0.1093  0.7328  0.4439
 2630SOL     OW10291   5.866   2.710   1.403  0.4735 -0.2056  0.0275
 2630SOL    HW210292   5.917   2.666   1.335  1.6807  1.4198 -0.2024
 2630SOL    HW310293   5.778   2.675   1.395  0.7588 -0.5816 -1.9061
 2630SOL    MW410294   5.861   2.700   1.393 -0.0189 -0.0639  0.1730
 2631SOL     OW10295   2.190   0.088   1.245 -0.1296 -0.4117  0.0076
 2631SOL    HW210296   2.109   0.049   1.278 -0.8176  1.1283  0.2583
 2631SOL    HW310297   2.179   0.182   1.261  0.9200  0.0387 -1.6613
 2631SOL    MW410298   2.178   0.096   1.252 -0.6484 -0.0198 -0.6876
 2632SOL     OW10299   5.798   4.159   3.675  0.0516 -0.3326 -0.3196
 2632SOL    HW210300   5.718   4.185   3.722 -0.0988  1.3682 -1.4282
 2632SOL    HW310301   5.765   4.109   3.599  0.1004 -0.2977 -0.3631
 2632SOL    MW410302   5.783   4.155   3.671 -0.0077  0.0932  0.2009
 2633SOL     OW10303   4.399   0.708   1.572 -0.0308  0.0639 -0.7108
 2633SOL    HW210304   4.445   0.649   1.632  2.2661  0.6825 -1.7540
 2633SOL    HW310305   4.402   0.793   1.615  1.4534  0.4700 -1.5791
 2633SOL    MW410306   4.405   0.711   1.586 -0.2915  0.3642 -0.0623
 2634SOL     OW10307   2.785   3.335   2.398  0.3180  0.2367 -0.3374
 2634SOL    HW210308   2.872   3.332   2.358 -0.0699 -1.2501 -1.1544
 2634SOL    HW310309   2.765   3.428   2.406  1.2921  0.5942 -1.6972
 2634SOL    MW410310   2.794   3.347   2.393  0.2460 -0.6887 -0.6950
 2635SOL     OW10311   5.296   3.925   2.285 -0.0076 -0.2897  0.2153
 2635SOL    HW210312   5.208   3.895   2.264 -0.2830 -1.1999  2.3610
 2635SOL    HW310313   5.293   4.020   2.273 -1.9274 -0.0364  2.1070
 2635SOL    MW410314   5.284   3.934   2.281  1.1476 -0.3646 -0.1404
 2636SOL     OW10315   5.146   0.506   4.140  0.1271  0.2009 -0.2799
 2636SOL    HW210316   5.095   0.426   4.127  0.5791 -0.3519  1.1025
 2636SOL    HW310317   5.082   0.576   4.137 -0.7176 -0.4628  1.1396
 2636SOL    MW410318   5.131   0.505   4.138 -0.1088  0.3516 -0.0491
 2637SOL     OW10319   5.749   5.003   2.638 -0.3539 -0.0180  0.3504
 2637SOL    HW210320   5.676   5.056   2.671  0.3778  0.0437  1.9558
 2637SOL    HW310321   5.735   4.916   2.674  0.3672 -0.0038  0.6863
 2637SOL    MW410322   5.738   4.999   2.647  0.3583 -0.2272 -0.3025
 2638SOL     OW10323   4.721   4.045   2.374  0.2776 -0.1903 -0.3660
 2638SOL    HW210324   4.725   4.045   2.469  0.3831  0.0873 -0.3715
 2638SOL    HW310325   4.637   4.004   2.353 -0.6044  1.4345 -0.1232
 2638SOL    MW410326   4.710   4.039   2.383 -0.4449  0.7115  0.0269
 2639SOL     OW10327   2.793   1.541   0.990  0.2417 -0.1909 -0.3320
 2639SOL    HW210328   2.711   1.589   0.981 -0.2929 -1.0076  0.0425
 2639SOL    HW310329   2.854   1.587   0.932 -0.4992  0.3704 -0.6903
 2639SOL    MW410330   2.790   1.553   0.981 -0.7029  0.4800  0.2584
 2640SOL     OW10331   0.365   5.659   2.881 -0.1571 -0.5681 -0.0236
 2640SOL    HW210332   0.449   5.646   2.925 -1.5228 -1.3814  2.5464
 2640SOL    HW310333   0.367   5.751   2.852  1.0817 -0.1615  1.2270
 2640SOL    MW410334   0.376   5.670   2.883  0.4336  0.5108 -0.8643
 2641SOL     OW10335   1.173   2.152   2.337  0.0985  0.6525 -0.4323
 2641SOL    HW210336   1.233   2.133   2.409  0.5954  3.1243 -0.1039
 2641SOL    HW310337   1.219   2.122   2.259  0.8916  0.7026  0.0058
 2641SOL    MW410338   1.187   2.146   2.337 -0.0491  0.4955 -0.3479
 2642SOL     OW10339   3.466   2.221   0.333 -0.0201  0.2540 -0.2393
 2642SOL    HW210340   3.437   2.217   0.242 -1.5344 -1.2111  0.2641
 2642SOL    HW310341   3.437   2.138   0.371  2.8878 -0.3608  0.9382
 2642SOL    MW410342   3.458   2.209   0.326  0.9279 -0.0491 -0.3590
 2643SOL     OW10343   1.766   4.447   1.399 -0.2148  0.2940 -0.0963
 2643SOL    HW210344   1.791   4.516   1.338 -0.1099  0.0246 -0.3618
 2643SOL    HW310345   1.690   4.406   1.358 -0.3691  0.3477  0.1342
 2643SOL    MW410346   1.759   4.451   1.385 -0.6922 -0.3014 -0.6133
 2644SOL     OW10347   1.493   1.142   5.364  0.1919 -0.2812  0.3793
 2644SOL    HW210348   1.440   1.141   5.444 -1.5209  1.6405 -0.6372
 2644SOL    HW310349   1.527   1.231   5.358 -0.6072 -0.0531 -1.5672
 2644SOL    MW410350   1.491   1.153   5.374  0.1146  0.3227  0.4500
 2645SOL     OW10351   2.696   3.184   1.713 -0.3168 -0.0607 -0.4374
 2645SOL    HW210352   2.633   3.211   1.781  0.8485  2.0488 -0.1100
 2645SOL    HW310353   2.701   3.259   1.655  0.6484 -0.8662 -1.4172
 2645SOL    MW410354   2.688   3.198   1.715 -0.4276 -0.3287  0.2613
 2646SOL     OW10355   5.642   4.374   0.304 -0.5101 -0.3262  0.1947
 2646SOL    HW210356   5.550   4.385   0.281 -0.5829  0.6836  0.9073
 2646SOL    HW310357   5.659   4.280   0.290 -1.1687 -0.2309 -1.5899
 2646SOL    MW410358   5.632   4.363   0.299  0.3098  0.2056 -0.2494
 2647SOL     OW10359   3.094   5.838   2.178  0.5189  0.0933 -0.1165
 2647SOL    HW210360   3.185   5.867   2.174  0.4373  0.2903 -0.6206
 2647SOL    HW310361   3.044   5.918   2.192  0.3660  0.0817 -0.5810
 2647SOL    MW410362   3.100   5.852   2.179  0.0527 -0.0928 -0.3886
 2648SOL     OW10363   0.737   5.863   1.983  0.4347  0.4423  0.2010
 2648SOL    HW210364   0.657   5.883   1.935  0.3864  0.4552  0.2883
 2648SOL    HW310365   0.751   5.769   1.970  1.0890  0.6660 -0.8746
 2648SOL    MW410366   0.728   5.853   1.975 -1.0108  0.0802 -0.2537
 2649SOL     OW10367   0.121   1.574   2.143  0.6183 -0.6080 -0.2561
 2649SOL    HW210368   0.125   1.560   2.048  1.4135 -0.5040 -0.2405
 2649SOL    HW310369   0.038   1.533   2.169 -0.3432  0.6631 -1.2061
 2649SOL    MW410370   0.111   1.566   2.134 -0.2629  0.0020 -0.0936
 2650SOL     OW10371   6.019   1.878   5.884 -0.4572  0.6337  0.0990
 2650SOL    HW210372   6.033   1.945   5.951  3.8767 -0.3730  0.5181
 2650SOL    HW310373   6.051   1.919   5.803 -0.1023 -0.0811 -0.1286
 2650SOL    MW410374   6.025   1.892   5.882 -0.0681 -0.4043 -0.3053
 2651SOL     OW10375   3.720   3.536   2.121 -0.6462 -0.1194  0.2910
 2651SOL    HW210376   3.634   3.572   2.101 -1.0595 -1.8730 -1.2656
 2651SOL    HW310377   3.703   3.468   2.187  0.0396  1.8455  2.6446
 2651SOL    MW410378   3.706   3.532   2.127 -0.1901  0.8017 -1.1297
 2652SOL     OW10379   2.237   3.681   5.809  0.1284  0.3722  0.0515
 2652SOL    HW210380   2.284   3.623   5.870 -0.6811 -0.7333 -0.3405
 2652SOL    HW310381   2.301   3.748   5.787  0.4980  0.7419  2.0011
 2652SOL    MW410382   2.252   3.682   5.814  0.5387  0.0234  0.2520
 2653SOL     OW10383   5.965   6.222   2.424  0.2350 -0.2369 -0.3518
 2653SOL    HW210384   6.053   6.231   2.461  0.0507 -2.0357  0.6469
 2653SOL    HW310385   5.915   6.177   2.491 -0.8560 -1.2183 -1.7540
 2653SOL    MW410386   5.970   6.217   2.437 -0.5250  0.2985 -0.2287
 2654SOL     OW10387   3.763   5.635   1.035  0.2135  0.0589 -0.1583
 2654SOL    HW210388   3.827   5.672   1.095 -1.6420  0.0025  1.9894
 2654SOL    HW310389   3.729   5.558   1.081 -1.1351 -0.1182 -1.3761
 2654SOL    MW410390   3.767   5.630   1.049  0.6791  0.0355 -0.6216
 2655SOL     OW10391   5.206   5.143   2.707  0.0974  0.2339 -0.5591
 2655SOL    HW210392   5.298   5.119   2.698  0.2943  1.6689 -2.9696
 2655SOL    HW310393   5.158   5.062   2.686  0.8022 -0.0169 -1.2407
 2655SOL    MW410394   5.212   5.129   2.703 -0.4062  0.3384  0.7221
 2656SOL     OW10395   6.282   3.449   5.156 -0.0798  0.3777  0.6123
 2656SOL    HW210396   6.199   3.471   5.198 -0.8634  1.4117 -1.3577
 2656SOL    HW310397   6.262   3.374   5.099  0.3159  0.6582  0.0897
 2656SOL    MW410398   6.268   3.442   5.154 -0.2512 -0.1146 -0.1176
 2657SOL     OW10399   2.314   2.987   3.294 -0.2580  0.0617 -0.7906
 2657SOL    HW210400   2.235   3.021   3.253 -0.7958 -0.2969 -0.0710
 2657SOL    HW310401   2.374   3.061   3.296 -0.6437  0.3868 -1.1731
 2657SOL    MW410402   2.312   3.001   3.289 -0.7956 -0.2148  0.4095
 2658SOL     OW10403   1.714   5.468   4.511 -0.4299  0.1011 -0.3744
 2658SOL    HW210404   1.805   5.496   4.519 -0.8621  1.3540  0.4188
 2658SOL    HW310405   1.666   5.527   4.569 -1.8018 -0.2651 -1.1104
 2658SOL    MW410406   1.720   5.480   4.520  0.2406  0.2855 -0.1840
 2659SOL     OW10407   5.750   4.728   1.820 -0.0918 -0.4053 -0.6143
 2659SOL    HW210408   5.805   4.800   1.789  0.8468 -0.6099  0.4852
 2659SOL    HW310409   5.721   4.756   1.907 -0.2006 -1.1082 -0.4174
 2659SOL    MW410410   5.753   4.741   1.828 -0.9416 -0.0549 -0.2213
 2660SOL     OW10411   0.822   2.826   2.329  0.1533  0.2028  0.0732
 2660SOL    HW210412   0.746   2.768   2.322  0.0997  0.3702 -0.7691
 2660SOL    HW310413   0.845   2.847   2.239  1.3240  0.0092  0.3062
 2660SOL    MW410414   0.815   2.821   2.317 -0.1436  0.1186 -0.3659
 2661SOL     OW10415   1.529   2.782   3.215  0.1832 -0.4245 -0.0322
 2661SOL    HW210416   1.440   2.773   3.182  1.0008 -0.3216 -2.4343
 2661SOL    HW310417   1.567   2.695   3.207  0.4997 -0.3347  0.4419
 2661SOL    MW410418   1.522   2.770   3.210  0.2199 -0.2174  0.1532
 2662SOL     OW10419   4.161   4.509   4.944 -0.0644 -0.0541 -0.1014
 2662SOL    HW210420   4.148   4.414   4.942  1.8853 -0.3952  0.8058
 2662SOL    HW310421   4.182   4.528   5.036  1.7825  0.8929 -0.6763
 2662SOL    MW410422   4.162   4.499   4.956  0.2068  0.7379 -0.0812
 2663SOL     OW10423   4.270   5.687   4.995  0.0016 -0.4530  0.0796
 2663SOL    HW210424   4.351   5.664   5.040 -0.4263  1.5527  2.0327
 2663SOL    HW310425   4.201   5.680   5.061 -0.9205  0.9652 -0.6457
 2663SOL    MW410426   4.271   5.683   5.009  0.7468 -1.0030  0.2967
 2664SOL     OW10427   3.272   0.881   1.967 -0.6242  0.5420  0.1375
 2664SOL    HW210428   3.241   0.801   2.009  0.0573  1.3465  2.3050
 2664SOL    HW310429   3.195   0.916   1.922 -1.8375  0.3959  1.9997
 2664SOL    MW410430   3.258   0.875   1.966  0.0703 -0.1853  0.1726
 2665SOL     OW10431   0.968   2.341   3.363 -0.0812  0.3684 -0.2800
 2665SOL    HW210432   0.872   2.339   3.370 -0.0139 -0.0229  0.6637
 2665SOL    HW310433   0.986   2.300   3.278 -0.7266 -0.1985 -0.1623
 2665SOL    MW410434   0.957   2.335   3.352 -0.3160  0.2245 -0.2638
 2666SOL     OW10435   4.286   2.283   2.487  1.0695  0.1307  0.1276
 2666SOL    HW210436   4.198   2.317   2.469  2.0194  2.5260 -0.4941
 2666SOL    HW310437   4.294   2.206   2.430 -0.4902  0.0728 -0.0687
 2666SOL    MW410438   4.275   2.278   2.477  0.0895  0.5675  0.0796
 2667SOL     OW10439   2.710   5.359   4.530  0.0222  0.1413  0.2471
 2667SOL    HW210440   2.801   5.361   4.560  0.2712  1.2262 -0.5213
 2667SOL    HW310441   2.705   5.283   4.473  0.7191  0.6476 -0.5041
 2667SOL    MW410442   2.721   5.349   4.527 -0.2535 -0.3736  0.2599
 2668SOL     OW10443   0.216   0.583   5.166  0.3124 -0.4322  0.3209
 2668SOL    HW210444   0.267   0.532   5.102  0.6652  1.2427 -0.8156
 2668SOL    HW310445   0.282   0.632   5.214 -0.0556 -0.5849  0.9815
 2668SOL    MW410446   0.232   0.583   5.164  0.7266 -0.3639  0.2430
 2669SOL     OW10447   5.888   3.391   1.900 -0.8088  0.4510  0.1886
 2669SOL    HW210448   5.939   3.441   1.963  0.4830  1.2447 -1.4281
 2669SOL    HW310449   5.821   3.348   1.953 -0.7717  2.3327  1.8845
 2669SOL    MW410450   5.886   3.392   1.915  0.5801  0.3716 -0.8296
 2670SOL     OW10451   5.704   1.722   3.106 -0.1304 -0.0138 -0.2281
 2670SOL    HW210452   5.637   1.654   3.095 -0.7343  0.6418 -0.6804
 2670SOL    HW310453   5.662   1.802   3.077  1.5337  0.0866 -2.6379
 2670SOL    MW410454   5.690   1.723   3.101  0.1957  0.6183  0.0744
 2671SOL     OW10455   3.636   5.803   2.181  0.6767  0.1697  0.0347
 2671SOL    HW210456   3.666   5.742   2.249  1.7071 -0.1149 -0.6643
 2671SOL    HW310457   3.666   5.765   2.099 -0.8297  0.3455 -0.6415
 2671SOL    MW410458   3.644   5.790   2.179 -0.0826 -0.1188  0.2766
 2672SOL     OW10459   1.641   1.575   5.100  0.2915 -0.0534  0.1061
 2672SOL    HW210460   1.608   1.486   5.093 -0.9943  0.3081  1.0972
 2672SOL    HW310461   1.568   1.630   5.071  0.7239  0.7034  0.4202
 2672SOL    MW410462   1.627   1.571   5.095 -0.6851  0.0136  0.3350
 2673SOL     OW10463   5.640   2.310   2.753 -0.0047  0.1767 -0.2286
 2673SOL    HW210464   5.611   2.234   2.703  1.4874  0.2979 -1.3399
 2673SOL    HW310465   5.642   2.279   2.844 -1.2072 -0.5300 -0.4328
 2673SOL    MW410466   5.637   2.296   2.759  0.5710 -0.2311  0.2828
 2674SOL     OW10467   4.457   0.544   4.969  0.4969  0.3432 -0.3878
 2674SOL    HW210468   4.394   0.486   4.927 -0.7741  2.9328 -2.3751
 2674SOL    HW310469   4.511   0.487   5.024 -2.0649 -2.3127 -0.4327
 2674SOL    MW410470   4.456   0.529   4.971  0.0719 -0.3776  0.5029
 2675SOL     OW10471   0.525   0.514   5.597 -0.1936  0.8603  0.4512
 2675SOL    HW210472   0.431   0.514   5.577  0.2463  1.4836 -1.8917
 2675SOL    HW310473   0.551   0.606   5.591  1.1678  0.4085 -2.5227
 2675SOL    MW410474   0.516   0.526   5.594  0.3232 -0.4327  0.4768
 2676SOL     OW10475   1.358   0.276   1.385  0.1741  0.3892  0.1684
 2676SOL    HW210476   1.267   0.266   1.411 -0.1788  0.4937 -0.9851
 2676SOL    HW310477   1.360   0.355   1.332  0.8588  0.1473 -0.1872
 2676SOL    MW410478   1.347   0.285   1.382 -0.5144 -0.2121  0.5321
 2677SOL     OW10479   3.493   1.470   3.311  0.1163 -0.3257 -0.4103
 2677SOL    HW210480   3.541   1.449   3.230  1.0635 -2.4672  0.6226
 2677SOL    HW310481   3.402   1.450   3.290 -0.3439  2.8994 -2.1080
 2677SOL    MW410482   3.487   1.465   3.298 -0.7137  0.3390 -0.0246
 2678SOL     OW10483   0.562   5.265   2.669  0.0347  0.1105  0.0731
 2678SOL    HW210484   0.551   5.278   2.575  0.6368  2.1665  0.2334
 2678SOL    HW310485   0.478   5.230   2.699 -0.1484 -0.6005 -1.2194
 2678SOL    MW410486   0.549   5.262   2.661 -0.1908  0.4673  0.2297
 2679SOL     OW10487   3.511   6.414   4.442 -0.3149  0.3401 -0.4979
 2679SOL    HW210488   3.462   6.424   4.360 -1.4391  1.5793  0.2891
 2679SOL    HW310489   3.521   6.319   4.452 -1.9886  0.0628 -1.0350
 2679SOL    MW410490   3.506   6.402   4.432 -0.1707 -0.1781 -0.3293
 2680SOL     OW10491   6.338   1.637   5.719 -0.1963 -0.4478  0.4315
 2680SOL    HW210492   6.341   1.724   5.678  1.0345 -1.8138 -2.7072
 2680SOL    HW310493   6.380   1.649   5.804 -2.0472  2.4176  1.0621
 2680SOL    MW410494   6.344   1.650   5.724  0.0432  0.7511  0.0404
 2681SOL     OW10495   4.689   2.533   2.941  0.4833  0.3936 -0.0700
 2681SOL    HW210496   4.647   2.537   3.027  0.4210  0.9987 -0.1230
 2681SOL    HW310497   4.658   2.612   2.895  0.8772  0.3164 -0.4798
 2681SOL    MW410498   4.679   2.544   2.946  0.3981 -0.2867  0.2077
 2682SOL     OW10499   0.872   1.224   0.802  0.0266 -0.3741  0.5045
 2682SOL    HW210500   0.819   1.295   0.838  0.6231  0.5491 -0.3765
 2682SOL    HW310501   0.869   1.155   0.868 -1.5268 -0.0007  0.8647
 2682SOL    MW410502   0.865   1.224   0.815  0.0834 -0.4044  0.3931
 2683SOL     OW10503   4.154   0.610   0.738 -0.0589 -0.1194 -0.4308
 2683SOL    HW210504   4.169   0.661   0.818  0.6628  1.5106 -1.5620
 2683SOL    HW310505   4.093   0.541   0.765 -0.3421  0.7779  1.3716
 2683SOL    MW410506   4.148   0.608   0.752  0.8729  0.0541  0.0854
 2684SOL     OW10507   3.205   0.730   5.803  0.1269  0.2621  0.5867
 2684SOL    HW210508   3.214   0.651   5.750 -0.2255  0.5572  0.0820
 2684SOL    HW310509   3.124   0.770   5.773 -0.8476 -0.3032  2.3126
 2684SOL    MW410510   3.195   0.725   5.792  0.6495 -0.0113 -0.0783
 2685SOL     OW10511   3.422   0.040   3.456 -0.2106  0.2614 -0.1031
 2685SOL    HW210512   3.376  -0.040   3.483 -0.0471  0.3046  0.3184
 2685SOL    HW310513   3.433   0.032   3.361  0.2005 -0.4291 -0.0038
 2685SOL    MW410514   3.418   0.028   3.447 -0.2788  0.4473  0.4055
 2686SOL     OW10515   2.635   1.771   1.745 -0.1848 -0.5613 -0.3068
 2686SOL    HW210516   2.637   1.713   1.821  0.3148  0.6156  0.6107
 2686SOL    HW310517   2.704   1.737   1.687  0.9349 -0.1851  0.7712
 2686SOL    MW410518   2.645   1.758   1.747 -0.3649  0.6152  0.1657
 2687SOL     OW10519   0.277   5.514   4.100 -0.1550 -0.0436 -0.1020
 2687SOL    HW210520   0.280   5.478   4.012  3.9318 -2.4550  0.7974
 2687SOL    HW310521   0.344   5.583   4.101 -0.5476  0.3463  1.0056
 2687SOL    MW410522   0.286   5.519   4.089 -0.1224  0.0304 -0.1764
 2688SOL     OW10523   5.257   1.562   6.442 -0.7599  0.8101  0.3225
 2688SOL    HW210524   5.173   1.577   6.400 -1.1781  0.6342  1.0772
 2688SOL    HW310525   5.265   1.634   6.506 -0.1500  1.0587 -0.0204
 2688SOL    MW410526   5.247   1.574   6.445 -0.1428  0.0551 -0.1614
 2689SOL     OW10527   5.324   2.282   5.774 -0.1037 -0.3841 -0.8370
 2689SOL    HW210528   5.285   2.352   5.721 -0.6307 -0.5243 -0.6392
 2689SOL    HW310529   5.381   2.235   5.713 -1.0079 -0.7830 -1.3806
 2689SOL    MW410530   5.327   2.285   5.759 -0.0834 -0.0993 -0.3362
 2690SOL     OW10531   1.419   1.943   0.235 -0.0132 -0.3878 -0.0869
 2690SOL    HW210532   1.392   2.031   0.261 -1.9951 -1.0290  0.2166
 2690SOL    HW310533   1.346   1.887   0.261  0.8816 -2.0283 -0.9372
 2690SOL    MW410534   1.405   1.947   0.241 -0.1800 -0.7331 -0.2579
 2691SOL     OW10535   2.755   3.373   2.002  0.1530 -0.2046  0.1948
 2691SOL    HW210536   2.819   3.315   1.961 -0.0094  0.5940 -1.2539
 2691SOL    HW310537   2.805   3.420   2.069  1.6102  1.6596 -2.0480
 2691SOL    MW410538   2.770   3.372   2.005 -0.7294 -0.5603  0.3720
 2692SOL     OW10539   2.185   2.944   2.427 -0.3895  0.0581 -0.1370
 2692SOL    HW210540   2.250   2.883   2.461 -0.1946 -0.6375 -1.6643
 2692SOL    HW310541   2.231   3.029   2.425  1.0329 -0.6611 -2.4837
 2692SOL    MW410542   2.200   2.947   2.431  0.3692 -0.2949 -0.6828
 2693SOL     OW10543   2.248   5.724   3.455 -0.6291 -0.0523  0.4988
 2693SOL    HW210544   2.200   5.803   3.478 -1.2469 -0.5457  0.9649
 2693SOL    HW310545   2.275   5.737   3.365 -1.4291  0.3506  0.3044
 2693SOL    MW410546   2.245   5.736   3.446  0.0484 -0.0834 -0.1287
 2694SOL     OW10547   4.719   1.112   0.370  0.1508 -0.3790 -0.0166
 2694SOL    HW210548   4.662   1.188   0.383  0.6226  0.1925 -1.0934
 2694SOL    HW310549   4.682   1.044   0.426  0.0935  0.8339  1.5079
 2694SOL    MW410550   4.707   1.113   0.379  0.5240  0.4788 -0.1944
 2695SOL     OW10551   1.782   5.249   4.289 -0.0542  0.1773  0.5712
 2695SOL    HW210552   1.823   5.256   4.376 -2.1068  0.6323  1.5672
 2695SOL    HW310553   1.748   5.160   4.287  1.8244 -0.5736 -0.6977
 2695SOL    MW410554   1.783   5.238   4.300  0.5985  0.0692 -0.5929
 2696SOL     OW10555   5.750   4.226   1.833  0.2591  0.6650 -0.0762
 2696SOL    HW210556   5.838   4.250   1.860  1.0937 -0.6359 -1.5117
 2696SOL    HW310557   5.746   4.131   1.843 -0.9826  0.6926 -0.0471
 2696SOL    MW410558   5.761   4.217   1.838  0.1515  0.1113 -0.3509
 2697SOL     OW10559   2.218   0.491   2.529  0.1951 -0.0016  0.2530
 2697SOL    HW210560   2.260   0.533   2.604  0.7927  0.1532 -0.1651
 2697SOL    HW310561   2.205   0.562   2.466  0.4282 -0.2783 -0.1109
 2697SOL    MW410562   2.222   0.506   2.531 -0.5310 -0.4953 -0.5333
 2698SOL     OW10563   2.626   4.611   3.615  0.1933 -0.3173 -0.5757
 2698SOL    HW210564   2.622   4.603   3.520  2.0154 -0.2968 -0.6939
 2698SOL    HW310565   2.694   4.676   3.631  1.1424 -1.5649  0.7451
 2698SOL    MW410566   2.635   4.619   3.605 -0.0238  0.1707 -0.4291
 2699SOL     OW10567   3.090   1.707   1.414  0.1402 -0.3595  0.2559
 2699SOL    HW210568   3.115   1.706   1.321 -1.4575 -2.6370 -0.2392
 2699SOL    HW310569   3.127   1.626   1.449 -0.2192 -0.0738  1.3196
 2699SOL    MW410570   3.098   1.696   1.406  0.3143 -0.3380 -0.0269
 2700SOL     OW10571   0.469   1.791   3.009  0.3366 -0.0375  0.0961
 2700SOL    HW210572   0.498   1.812   2.920  0.3878  0.1222  0.1501
 2700SOL    HW310573   0.379   1.761   2.998  1.3047 -3.0716 -0.4081
 2700SOL    MW410574   0.461   1.790   2.996  0.0860  0.0949  0.6228
 2701SOL     OW10575   4.674   2.234   4.482 -0.0123  0.1669 -0.1062
 2701SOL    HW210576   4.627   2.158   4.516 -0.3704  0.6693  0.5446
 2701SOL    HW310577   4.767   2.211   4.492 -0.0666 -1.0619 -1.9197
 2701SOL    MW410578   4.680   2.221   4.487  0.8700 -0.4615  0.4890
 2702SOL     OW10579   0.866   4.832   1.958 -0.2630  0.1844 -0.4643
 2702SOL    HW210580   0.816   4.773   2.015 -0.7514  0.2833 -0.7837
 2702SOL    HW310581   0.865   4.789   1.872  1.2980 -0.4492 -0.1962
 2702SOL    MW410582   0.860   4.818   1.954 -0.4177 -0.4182 -0.6705
 2703SOL     OW10583   1.233   6.093   5.158  0.0136  0.1919  0.4679
 2703SOL    HW210584   1.160   6.068   5.215  0.6891 -0.9660  0.8484
 2703SOL    HW310585   1.263   6.011   5.120  0.0987  0.8472 -0.9662
 2703SOL    MW410586   1.227   6.079   5.160  0.3576 -0.4940 -0.5263
 2704SOL     OW10587   2.617   5.999   4.237 -0.2138 -0.6461 -0.0054
 2704SOL    HW210588   2.685   5.939   4.268 -0.4617 -0.0403  1.8258
 2704SOL    HW310589   2.613   6.067   4.305  0.1478  1.5370 -2.0300
 2704SOL    MW410590   2.626   6.000   4.250  0.1290 -0.1141 -0.9329
 2705SOL     OW10591   0.488   1.178   3.902 -0.2242 -0.0946  0.6503
 2705SOL    HW210592   0.464   1.129   3.981  0.1115 -0.6166  0.4298
 2705SOL    HW310593   0.437   1.258   3.908  0.2386  0.1520  1.7211
 2705SOL    MW410594   0.478   1.182   3.913 -0.0988 -0.0344 -0.2174
 2706SOL     OW10595   5.499   0.521   5.907  0.0773  0.5896  0.8513
 2706SOL    HW210596   5.581   0.512   5.955  0.3290  1.5853  0.6465
 2706SOL    HW310597   5.464   0.605   5.936 -0.7766  0.2591  0.7934
 2706SOL    MW410598   5.506   0.531   5.917 -0.3840  0.4819 -0.1057
 2707SOL     OW10599   1.433   4.355   4.737  0.0300  0.0982  0.2628
 2707SOL    HW210600   1.338   4.362   4.724  0.2784  0.2375 -1.9012
 2707SOL    HW310601   1.469   4.434   4.696  1.1643 -0.7556 -0.4718
 2707SOL    MW410602   1.425   4.367   4.730 -0.1030  0.1800 -0.2892
 2708SOL     OW10603   6.394   0.522   3.394 -0.0764 -0.0135 -0.4457
 2708SOL    HW210604   6.393   0.560   3.482 -0.8450  0.0167 -0.4600
 2708SOL    HW310605   6.487   0.507   3.375  0.0111 -1.4930  0.9947
 2708SOL    MW410606   6.406   0.525   3.403  0.5794 -0.6749 -0.2179
 2709SOL     OW10607   2.650   4.965   5.607 -0.3855  0.3501  0.8370
 2709SOL    HW210608   2.721   4.953   5.670 -0.2051 -0.0457  0.5722
 2709SOL    HW310609   2.631   4.876   5.576  0.1272  0.6123 -0.2963
 2709SOL    MW410610   2.657   4.951   5.611 -0.7199  0.8149 -0.5149
 2710SOL     OW10611   2.820   2.882   1.138 -0.4364  0.5313 -0.9577
 2710SOL    HW210612   2.769   2.955   1.173 -2.0014 -0.8611 -0.1681
 2710SOL    HW310613   2.798   2.879   1.045 -1.8274 -0.0062 -0.6394
 2710SOL    MW410614   2.810   2.891   1.130  0.0420  0.5048  0.5221
 2711SOL     OW10615   4.848   1.169   3.428 -0.4116 -0.1313 -0.4398
 2711SOL    HW210616   4.896   1.126   3.499  0.1239 -1.3917 -1.5164
 2711SOL    HW310617   4.912   1.180   3.358 -1.0121  0.7738 -0.8621
 2711SOL    MW410618   4.863   1.164   3.428 -0.1580  0.0398  0.2805
 2712SOL     OW10619   3.184   5.307   0.470 -0.2039  0.1284 -0.1185
 2712SOL    HW210620   3.145   5.284   0.555  0.8590  0.0241  0.3639
 2712SOL    HW310621   3.200   5.401   0.476  0.5356 -0.0021  0.0959
 2712SOL    MW410622   3.181   5.316   0.482  0.2345 -0.0181  0.0140
 2713SOL     OW10623   5.475   4.331   4.895  0.2780  0.6029  0.1438
 2713SOL    HW210624   5.432   4.260   4.942  0.2445 -0.1765 -1.0260
 2713SOL    HW310625   5.564   4.333   4.931  0.3954 -0.2911 -0.0651
 2713SOL    MW410626   5.481   4.322   4.905  0.0921 -0.2724  0.2085
 2714SOL     OW10627   3.373   1.601   5.531 -0.1255 -0.2337  0.4026
 2714SOL    HW210628   3.314   1.536   5.495  0.8505 -0.6530 -0.4804
 2714SOL    HW310629   3.369   1.587   5.626 -0.9372 -0.6671  0.3132
 2714SOL    MW410630   3.365   1.591   5.539  0.0268  0.6552  0.3070
 2715SOL     OW10631   0.902   2.215   2.242 -0.2353  0.6830  0.6302
 2715SOL    HW210632   0.921   2.256   2.158 -1.4179  0.8146  0.4076
 2715SOL    HW310633   0.987   2.203   2.283  0.2445  2.1939  0.1469
 2715SOL    MW410634   0.915   2.219   2.236 -0.3667  0.3103 -0.0857
 2716SOL     OW10635   0.179   4.548   5.031  0.5044  0.7178 -0.2841
 2716SOL    HW210636   0.179   4.643   5.045  1.6740  0.6841  0.0371
 2716SOL    HW310637   0.161   4.538   4.938 -2.0264  1.1397  0.0801
 2716SOL    MW410638   0.177   4.559   5.021 -0.2669 -0.4379 -0.2939
 2717SOL     OW10639   6.374   4.651   5.608 -0.0448 -0.2569  0.0989
 2717SOL    HW210640   6.294   4.599   5.600  0.0202 -0.5870  1.3165
 2717SOL    HW310641   6.399   4.642   5.700  1.6140 -0.4756 -0.3397
 2717SOL    MW410642   6.367   4.643   5.619  0.5604 -0.2344  0.0339
 2718SOL     OW10643   0.706   3.859   3.747  0.5860 -0.4571  0.4109
 2718SOL    HW210644   0.673   3.770   3.736  0.2264 -0.5112  1.7788
 2718SOL    HW310645   0.791   3.859   3.702 -0.4136 -0.8316 -1.5406
 2718SOL    MW410646   0.713   3.847   3.740 -0.0001  0.4734  0.0245
 2719SOL     OW10647   4.105   0.286   4.578  0.2911  0.3579  0.4852
 2719SOL    HW210648   4.028   0.335   4.550 -0.3208 -0.6102  0.4215
 2719SOL    HW310649   4.086   0.262   4.669  1.1124  1.2503  0.9056
 2719SOL    MW410650   4.092   0.289   4.586  0.2639  0.0455  0.3044
 2720SOL     OW10651   2.998   0.329   0.562 -0.0869  0.8671 -0.0291
 2720SOL    HW210652   3.046   0.412   0.556 -0.7627  1.2970  0.3155
 2720SOL    HW310653   2.951   0.336   0.645  0.3703 -0.1512  0.3248
 2720SOL    MW410654   2.998   0.341   0.573 -0.0331  1.0015 -0.3456
 2721SOL     OW10655   1.016   6.278   1.409  0.0916  0.4305 -0.0591
 2721SOL    HW210656   1.006   6.371   1.388  1.2706  0.6746  0.4064
 2721SOL    HW310657   1.087   6.248   1.353 -1.4092 -0.6509 -1.4867
 2721SOL    MW410658   1.024   6.287   1.399  0.0438 -0.2935 -0.4004
 2722SOL     OW10659   1.200   4.393   0.494  0.5289 -0.2989 -0.0981
 2722SOL    HW210660   1.229   4.473   0.450  1.5010 -0.0014  1.0367
 2722SOL    HW310661   1.104   4.393   0.485  0.5429  0.8626 -0.3157
 2722SOL    MW410662   1.191   4.403   0.487 -0.2954  0.0121  0.4965
 2723SOL     OW10663   4.489   4.121   1.945  0.1049  0.4559 -0.0155
 2723SOL    HW210664   4.432   4.163   1.880  0.4229 -0.0788 -0.6541
 2723SOL    HW310665   4.498   4.186   2.014 -2.8742 -0.1647  1.0872
 2723SOL    MW410666   4.483   4.135   1.945 -0.8009 -0.2425  0.2758
 2724SOL     OW10667   6.414   4.880   1.475 -0.6556 -0.2589 -0.0419
 2724SOL    HW210668   6.391   4.830   1.553  0.5219 -1.1817 -0.2569
 2724SOL    HW310669   6.449   4.814   1.414  0.5485  0.7698 -0.4867
 2724SOL    MW410670   6.415   4.864   1.477  0.0478 -0.3788 -0.6143
 2725SOL     OW10671   3.455   1.124   0.296 -0.5814 -0.0214 -0.1270
 2725SOL    HW210672   3.432   1.202   0.246 -0.5559  0.4514  0.5721
 2725SOL    HW310673   3.511   1.157   0.367 -0.0320 -0.7684 -0.2000
 2725SOL    MW410674   3.459   1.138   0.299  0.6639  0.4144  0.2284
 2726SOL     OW10675   3.215   3.740   1.013 -0.6551 -0.1220 -0.0602
 2726SOL    HW210676   3.134   3.703   0.977 -0.0679 -0.7174 -0.7838
 2726SOL    HW310677   3.255   3.669   1.061  0.1945 -0.2924 -0.9864
 2726SOL    MW410678   3.209   3.726   1.014  0.3547 -0.1387  0.7712
 2727SOL     OW10679   2.491   2.761   5.709  0.2753 -0.0693 -0.5562
 2727SOL    HW210680   2.561   2.822   5.687 -0.8835  0.7468 -2.1796
 2727SOL    HW310681   2.445   2.802   5.783 -0.5143  1.0928 -1.6551
 2727SOL    MW410682   2.494   2.774   5.716 -0.3800 -0.3209 -0.3542
 2728SOL     OW10683   4.216   1.198   2.220  0.5448  0.0729  0.3322
 2728SOL    HW210684   4.165   1.237   2.148 -0.5586 -0.7864  0.6269
 2728SOL    HW310685   4.293   1.160   2.177  0.5353  0.6695 -0.2273
 2728SOL    MW410686   4.220   1.198   2.205  0.3841  0.1220 -0.2172
 2729SOL     OW10687   4.682   5.552   0.432  0.3118 -0.4226 -0.3262
 2729SOL    HW210688   4.669   5.461   0.460  1.0696 -0.2417  0.6879
 2729SOL    HW310689   4.650   5.554   0.342 -0.4582 -1.4986 -0.0991
 2729SOL    MW410690   4.676   5.540   0.424 -0.2529 -0.1214 -0.6222
 2730SOL     OW10691   0.933   2.165   2.581 -0.1754  0.1680  0.1127
 2730SOL    HW210692   0.922   2.259   2.573 -0.2501  0.0037 -2.4374
 2730SOL    HW310693   1.023   2.148   2.555 -0.3240 -0.4985 -0.0111
 2730SOL    MW410694   0.943   2.175   2.576  0.1900  0.2286 -0.0019
 2731SOL     OW10695   6.117   6.420   3.812 -0.1892  0.1929 -0.1499
 2731SOL    HW210696   6.034   6.431   3.858 -0.6339  0.4586 -0.9874
 2731SOL    HW310697   6.092   6.415   3.719  0.7723  0.8316 -0.4573
 2731SOL    MW410698   6.103   6.421   3.806 -0.0259 -0.3639  0.1166
 2732SOL     OW10699   4.650   6.248   3.435  0.4401 -0.0170 -0.1205
 2732SOL    HW210700   4.711   6.186   3.475 -0.4252 -0.4884  0.5007
 2732SOL    HW310701   4.574   6.195   3.411 -0.7849  0.9506  1.4330
 2732SOL    MW410702   4.648   6.233   3.437  0.3735 -0.2395 -0.0895
 2733SOL     OW10703   1.387   5.904   3.655 -0.0526  0.3263 -0.3773
 2733SOL    HW210704   1.322   5.881   3.722  0.2804  2.3912  0.7711
 2733SOL    HW310705   1.353   5.866   3.574 -1.7480 -0.1880  0.5264
 2733SOL    MW410706   1.374   5.896   3.654  0.1230 -0.2297  0.3881
 2734SOL     OW10707   1.728   2.402   4.480 -0.4896  0.4505 -0.0024
 2734SOL    HW210708   1.731   2.424   4.574 -1.8515  1.0721 -0.0752
 2734SOL    HW310709   1.691   2.314   4.478 -2.5950  1.2730  0.0005
 2734SOL    MW410710   1.723   2.394   4.492 -0.2136 -0.2492 -0.0484
 2735SOL     OW10711   5.691   3.947   1.973  0.1008  0.2366 -0.2277
 2735SOL    HW210712   5.597   3.928   1.977 -0.4539  2.1916 -1.9764
 2735SOL    HW310713   5.718   3.953   2.065 -1.8043  0.9518  0.3425
 2735SOL    MW410714   5.682   3.945   1.986 -0.3535 -0.8141  0.2137
 2736SOL     OW10715   2.818   0.053   4.456  0.0257  0.0727 -0.3452
 2736SOL    HW210716   2.903   0.085   4.425 -0.8679  1.4546 -1.4885
 2736SOL    HW310717   2.838  -0.030   4.498  2.0678  0.7767  0.1974
 2736SOL    MW410718   2.832   0.046   4.457 -0.2444  0.2572 -0.0494
 2737SOL     OW10719   3.926   5.962   5.861  0.0730  0.6143  0.0238
 2737SOL    HW210720   3.898   6.042   5.818 -1.1297  0.6018  0.7356
 2737SOL    HW310721   3.852   5.902   5.851  0.7401 -0.2213 -0.0180
 2737SOL    MW410722   3.912   5.965   5.854 -0.1466  0.2541  0.5344
 2738SOL     OW10723   5.926   5.686   2.762  0.2209 -0.0654 -0.6317
 2738SOL    HW210724   5.993   5.624   2.734  1.3201  1.5749 -1.8373
 2738SOL    HW310725   5.851   5.666   2.707  0.2235 -0.9462 -0.3296
 2738SOL    MW410726   5.925   5.675   2.751 -0.2997  0.9924  0.1971
 2739SOL     OW10727   4.442   1.451   2.321  0.0715 -0.1448 -0.1344
 2739SOL    HW210728   4.449   1.356   2.317 -0.2119 -0.1806  0.2206
 2739SOL    HW310729   4.360   1.468   2.367 -0.6956  0.2668 -1.5552
 2739SOL    MW410730   4.432   1.441   2.326  0.3556  0.1821  0.0296
 2740SOL     OW10731   4.544   6.373   4.309  0.0718  0.6434  0.0204
 2740SOL    HW210732   4.522   6.465   4.299  1.3791  0.7628 -2.4838
 2740SOL    HW310733   4.461   6.330   4.329 -0.6865  2.2364  0.4289
 2740SOL    MW410734   4.530   6.379   4.310  0.0588  0.1790 -0.3111
 2741SOL     OW10735   5.274   0.174   4.258 -0.2294 -0.4121  0.2681
 2741SOL    HW210736   5.361   0.157   4.220 -1.0126  2.0841 -3.0358
 2741SOL    HW310737   5.287   0.253   4.310 -0.0660 -1.4865  1.9309
 2741SOL    MW410738   5.287   0.182   4.260  0.4923  0.0298 -0.5389
 2742SOL     OW10739   5.113   5.261   3.414 -0.6751  0.6149 -0.4261
 2742SOL    HW210740   5.027   5.232   3.444 -0.6377  1.2167  0.2953
 2742SOL    HW310741   5.143   5.191   3.356 -0.5066 -0.8621  1.3757
 2742SOL    MW410742   5.105   5.248   3.410  0.3767 -0.3076 -0.0954
 2743SOL     OW10743   2.199   5.748   4.971 -0.0776  0.3668  0.7616
 2743SOL    HW210744   2.132   5.685   4.997  0.4798  0.3925  2.3604
 2743SOL    HW310745   2.237   5.712   4.891 -0.4809 -0.7747  1.0762
 2743SOL    MW410746   2.195   5.735   4.964 -0.5261  0.0606 -0.4624
 2744SOL     OW10747   3.208   4.083   1.434 -0.0800 -0.4103  0.6788
 2744SOL    HW210748   3.191   4.030   1.356  0.6693 -0.8118  0.7761
 2744SOL    HW310749   3.290   4.048   1.469 -1.2226 -1.3253  2.5672
 2744SOL    MW410750   3.217   4.071   1.428 -0.0594 -0.1529  0.2327
 2745SOL     OW10751   1.466   5.671   0.491 -0.5571  0.3224 -0.4422
 2745SOL    HW210752   1.449   5.612   0.417  2.0781  1.1907 -1.8839
 2745SOL    HW310753   1.502   5.750   0.450 -0.3181  1.3779  1.7057
 2745SOL    MW410754   1.469   5.674   0.476 -0.1951  0.1373  0.3254
 2746SOL     OW10755   5.727   1.698   2.691 -0.2551  0.2940  0.6081
 2746SOL    HW210756   5.764   1.752   2.761  0.2105 -0.1944  0.7523
 2746SOL    HW310757   5.641   1.671   2.724  0.2693 -0.5628  1.3451
 2746SOL    MW410758   5.721   1.702   2.705 -0.7318  0.4429 -0.3916
 2747SOL     OW10759   3.757   6.292   4.108 -0.0314  0.3518 -0.5293
 2747SOL    HW210760   3.692   6.334   4.051  1.3183  0.5997 -1.9669
 2747SOL    HW310761   3.783   6.361   4.169 -1.7338 -0.0099  0.6492
 2747SOL    MW410762   3.752   6.307   4.108 -0.0466 -0.2718  0.8105
 2748SOL     OW10763   0.378   4.009   2.225  0.0050 -0.1645 -0.1310
 2748SOL    HW210764   0.445   4.074   2.249 -0.7803  0.7247 -0.2625
 2748SOL    HW310765   0.348   3.973   2.309 -0.3463  0.4798  0.0310
 2748SOL    MW410766   0.383   4.013   2.239 -0.4603  0.4834 -0.1219
 2749SOL     OW10767   2.151   5.386   1.371 -0.0739  0.2190 -0.0129
 2749SOL    HW210768   2.201   5.385   1.452  0.7379  0.2378 -0.4937
 2749SOL    HW310769   2.076   5.442   1.389  0.0818  0.1944  0.7280
 2749SOL    MW410770   2.148   5.393   1.384  0.0656  0.3506  0.1100
 2750SOL     OW10771   6.057   0.775   0.545 -0.6631  0.1594  0.3054
 2750SOL    HW210772   6.095   0.753   0.630 -0.7929  0.4003  0.4257
 2750SOL    HW310773   6.027   0.865   0.554  0.8546  0.7833 -0.5319
 2750SOL    MW410774   6.058   0.784   0.557 -0.1184 -0.6084  0.0142
 2751SOL     OW10775   2.666   4.452   0.595  0.3062 -0.9680 -0.0475
 2751SOL    HW210776   2.591   4.422   0.647  1.0240 -2.2711  0.2751
 2751SOL    HW310777   2.712   4.513   0.652 -0.3309 -0.3972 -0.1346
 2751SOL    MW410778   2.662   4.456   0.609  0.1085  0.4974  0.8066
 2752SOL     OW10779   1.440   0.668   3.965 -0.0660  0.2469  0.4304
 2752SOL    HW210780   1.505   0.706   4.025 -1.6311 -0.8033  2.9665
 2752SOL    HW310781   1.402   0.595   4.014 -2.9658  0.6456 -1.0196
 2752SOL    MW410782   1.443   0.663   3.980 -0.3056  0.7986  0.2035
 2753SOL     OW10783   5.928   0.885   3.233 -0.4248 -0.8177  0.1467
 2753SOL    HW210784   6.014   0.845   3.220  0.5352  0.0934  2.9917
 2753SOL    HW310785   5.919   0.948   3.162  2.0344  0.2312  0.6803
 2753SOL    MW410786   5.938   0.888   3.222  0.3037 -0.4028 -0.3533
 2754SOL     OW10787   4.691   5.153   2.169 -0.5058  0.2721 -0.2019
 2754SOL    HW210788   4.615   5.109   2.208 -1.6444 -0.9359 -3.4335
 2754SOL    HW310789   4.654   5.218   2.110  0.8233 -0.8795 -2.4645
 2754SOL    MW410790   4.676   5.156   2.166 -0.4042  0.1660  0.6241
 2755SOL     OW10791   0.441   5.039   4.832  0.3490 -0.0101  0.5163
 2755SOL    HW210792   0.349   5.013   4.839  0.1446  0.3308 -0.6008
 2755SOL    HW310793   0.479   4.974   4.772  0.8489 -0.1785  1.0155
 2755SOL    MW410794   0.434   5.027   4.825  0.3239 -0.6646  0.3735
 2756SOL     OW10795   2.704   5.640   4.496 -1.0221 -0.0737 -0.5175
 2756SOL    HW210796   2.788   5.683   4.499 -1.5698  1.2104  4.2480
 2756SOL    HW310797   2.724   5.547   4.508 -0.2613  0.1593  0.0462
 2756SOL    MW410798   2.717   5.633   4.498  0.7360 -0.1269 -0.0401
 2757SOL     OW10799   0.525   6.342   3.388  0.1275  0.2771 -0.3630
 2757SOL    HW210800   0.517   6.438   3.389 -2.4747  0.1310 -0.7417
 2757SOL    HW310801   0.581   6.323   3.464 -1.0139  2.0058  1.0201
 2757SOL    MW410802   0.531   6.352   3.398  0.5063  0.1854  0.0124
 2758SOL     OW10803   6.160   1.666   4.459  0.0521 -0.0930 -0.4148
 2758SOL    HW210804   6.156   1.717   4.378  0.3822  1.5935  0.5803
 2758SOL    HW310805   6.253   1.646   4.469 -0.0827 -0.9625 -0.8247
 2758SOL    MW410806   6.172   1.670   4.450  0.7816  0.4726  0.2271
 2759SOL     OW10807   6.383   4.216   4.164  0.0217  0.0071 -0.0732
 2759SOL    HW210808   6.427   4.282   4.110  0.6105  0.3956  0.8657
 2759SOL    HW310809   6.393   4.135   4.114  1.9281  0.0666  0.1389
 2759SOL    MW410810   6.390   4.214   4.150  0.0409 -0.7252 -0.1615
 2760SOL     OW10811   1.808   2.342   1.443 -0.4488 -0.2539 -0.4908
 2760SOL    HW210812   1.806   2.427   1.487  1.1193 -0.1498 -0.5822
 2760SOL    HW310813   1.877   2.293   1.488 -0.3992 -0.9797 -1.3266
 2760SOL    MW410814   1.817   2.347   1.455  0.3404  0.0198  0.2498
 2761SOL     OW10815   5.412   6.236   2.120 -0.0554  0.2381 -0.2825
 2761SOL    HW210816   5.346   6.283   2.069 -0.7018 -0.7789 -0.4039
 2761SOL    HW310817   5.380   6.146   2.124  1.0957 -0.1752  0.0500
 2761SOL    MW410818   5.399   6.230   2.114 -0.6958  0.5676  0.5419
 2762SOL     OW10819   1.505   4.252   1.458  0.1725 -0.1371 -0.4729
 2762SOL    HW210820   1.521   4.165   1.495 -0.6100  0.5927  1.7519
 2762SOL    HW310821   1.410   4.263   1.462  0.2956  0.9619 -0.3467
 2762SOL    MW410822   1.495   4.242   1.463 -0.6148 -0.4656 -0.0459
 2763SOL     OW10823   0.248   2.027   0.711 -0.0219 -0.1732 -0.6257
 2763SOL    HW210824   0.191   2.039   0.635 -0.5530  1.0085 -0.0725
 2763SOL    HW310825   0.336   2.049   0.678  0.0136 -1.2060 -1.2725
 2763SOL    MW410826   0.252   2.032   0.696 -0.0973  0.5017 -0.2816
 2764SOL     OW10827   2.822   3.099   3.037 -0.4439  0.3227  0.1923
 2764SOL    HW210828   2.749   3.125   2.979  0.2626 -0.5792 -1.1609
 2764SOL    HW310829   2.894   3.157   3.010 -0.2697  0.2848  0.5801
 2764SOL    MW410830   2.822   3.110   3.026  0.3572  0.5026  0.2900
 2765SOL     OW10831   5.524   1.771   4.777  0.1165  0.1502 -0.7366
 2765SOL    HW210832   5.585   1.817   4.720  1.6052 -0.6942  0.1185
 2765SOL    HW310833   5.565   1.774   4.864 -0.0239 -2.1938 -0.5179
 2765SOL    MW410834   5.537   1.778   4.781 -0.5002 -0.4539 -0.6851
 2766SOL     OW10835   1.708   5.403   0.358  1.2360  0.2999 -0.0041
 2766SOL    HW210836   1.717   5.312   0.330  0.8306 -0.1481  1.2910
 2766SOL    HW310837   1.744   5.405   0.446  1.1395  1.3799  0.0238
 2766SOL    MW410838   1.714   5.391   0.366  0.5776 -0.9245  0.4351
 2767SOL     OW10839   5.666   2.205   0.805  0.0733  0.0352 -0.3154
 2767SOL    HW210840   5.634   2.271   0.743 -3.0546 -0.5105  0.5220
 2767SOL    HW310841   5.671   2.124   0.753 -0.4960  0.0192 -0.3569
 2767SOL    MW410842   5.662   2.203   0.790 -0.1522 -0.0465  0.3207
 2768SOL     OW10843   1.871   3.193   1.471 -0.5175  0.2985 -0.2933
 2768SOL    HW210844   1.885   3.281   1.436 -0.2444  0.0654 -0.7805
 2768SOL    HW310845   1.946   3.142   1.439 -0.8919 -0.2159 -0.3670
 2768SOL    MW410846   1.883   3.198   1.462 -0.2072  0.1912 -0.5818
 2769SOL     OW10847   1.398   1.713   5.030 -0.4894  0.1684 -0.1626
 2769SOL    HW210848   1.394   1.706   4.935 -0.6975  1.4390 -0.2658
 2769SOL    HW310849   1.368   1.802   5.049  1.2420  0.5688  0.9650
 2769SOL    MW410850   1.394   1.724   5.020 -0.7016 -0.1909 -0.3050
 2770SOL     OW10851   3.483   0.739   5.935  0.0893  0.4907 -0.1882
 2770SOL    HW210852   3.489   0.834   5.944  0.5909  0.3231  1.5673
 2770SOL    HW310853   3.394   0.724   5.902  0.0449  1.5652 -0.5987
 2770SOL    MW410854   3.472   0.749   5.932 -0.1327 -0.0436 -0.2045
 2771SOL     OW10855   6.061   3.861   6.250  0.6739 -0.3665 -0.1876
 2771SOL    HW210856   6.101   3.848   6.336  0.9082  2.5485  0.2476
 2771SOL    HW310857   6.136   3.873   6.191  0.5204  0.4560 -0.2316
 2771SOL    MW410858   6.076   3.861   6.254  0.2369 -0.3792  0.1117
 2772SOL     OW10859   1.184   2.697   2.897 -0.0525 -0.1336  0.4439
 2772SOL    HW210860   1.132   2.621   2.870 -0.5221  0.8340 -1.5425
 2772SOL    HW310861   1.121   2.767   2.908  0.5565  0.3868  0.7069
 2772SOL    MW410862   1.169   2.696   2.895 -0.0838  0.0468  0.1750
 2773SOL     OW10863   5.326   2.694   3.374 -0.6815  1.1859  0.6900
 2773SOL    HW210864   5.364   2.663   3.456 -0.1999  0.7543  0.3089
 2773SOL    HW310865   5.361   2.783   3.364 -0.0947  0.9434  0.5481
 2773SOL    MW410866   5.336   2.702   3.384 -0.0234 -0.0757 -0.0481
 2774SOL     OW10867   1.965   5.626   5.521  0.3660  0.0978 -0.3034
 2774SOL    HW210868   2.009   5.581   5.450  0.6081  0.3100 -0.2911
 2774SOL    HW310869   2.020   5.702   5.539  0.1706  0.1857 -0.0631
 2774SOL    MW410870   1.978   5.630   5.514  0.2014 -0.0309  0.4846
 2775SOL     OW10871   0.379   6.250   2.790  0.0809 -0.0291 -0.7858
 2775SOL    HW210872   0.299   6.244   2.844 -0.5696  0.0903 -1.7178
 2775SOL    HW310873   0.391   6.162   2.755  0.4459 -0.0794 -0.5439
 2775SOL    MW410874   0.370   6.237   2.793  0.1304  0.3482 -0.3679
 2776SOL     OW10875   2.871   1.361   4.962 -0.0986 -0.6105 -0.2597
 2776SOL    HW210876   2.848   1.313   4.883 -2.0799  0.1666 -0.1970
 2776SOL    HW310877   2.906   1.444   4.930  3.9456 -2.1428 -0.3918
 2776SOL    MW410878   2.873   1.366   4.947 -0.0993  0.3469  0.2299
 2777SOL     OW10879   1.004   3.341   5.190  0.3005 -0.7485  0.5381
 2777SOL    HW210880   1.018   3.247   5.174 -0.8081 -0.6362 -1.3868
 2777SOL    HW310881   1.059   3.385   5.125  0.1325 -0.0991  0.8297
 2777SOL    MW410882   1.013   3.334   5.179 -0.1473 -0.1413  0.6739
 2778SOL     OW10883   1.046   3.891   5.157 -0.1583  0.0813 -0.5014
 2778SOL    HW210884   1.003   3.853   5.233 -0.1194 -1.7158 -1.3213
 2778SOL    HW310885   0.978   3.892   5.089  0.3946 -0.4545 -1.0800
 2778SOL    MW410886   1.031   3.886   5.158  0.0780  0.3200 -0.4815
 2779SOL     OW10887   3.017   3.368   4.031 -0.2589 -0.8849 -0.1245
 2779SOL    HW210888   3.070   3.358   3.952 -0.7420  0.4473 -0.6395
 2779SOL    HW310889   2.939   3.414   4.002 -1.3356 -2.0476  0.7946
 2779SOL    MW410890   3.014   3.373   4.017  0.3650 -0.7019 -0.4503
 2780SOL     OW10891   2.740   1.331   0.773 -0.0541 -0.1563 -0.0899
 2780SOL    HW210892   2.784   1.312   0.690  2.1056 -0.6452  1.1017
 2780SOL    HW310893   2.792   1.400   0.813  0.1524 -1.2974  1.7228
 2780SOL    MW410894   2.753   1.337   0.767  0.6362 -0.2862 -0.0525
 2781SOL     OW10895   2.461   5.005   5.800  0.0774  0.1284  0.0227
 2781SOL    HW210896   2.552   4.978   5.789 -0.2275 -1.0957  0.2605
 2781SOL    HW310897   2.434   4.962   5.881 -0.6311  0.7133  0.1013
 2781SOL    MW410898   2.469   4.996   5.809  0.3610 -0.4625  0.6464
 2782SOL     OW10899   4.886   3.310   5.066  0.0353  0.2260  0.0465
 2782SOL    HW210900   4.809   3.359   5.095  1.0303  1.4862  0.6513
 2782SOL    HW310901   4.864   3.219   5.083 -0.4135  0.7241  2.5033
 2782SOL    MW410902   4.873   3.305   5.072  0.0355 -0.3149  0.3579
 2783SOL     OW10903   5.691   3.563   3.785  0.3930 -0.3426 -0.2541
 2783SOL    HW210904   5.610   3.550   3.835 -0.0649  1.2328 -0.5277
 2783SOL    HW310905   5.727   3.475   3.774 -0.0074 -0.8410  1.9812
 2783SOL    MW410906   5.685   3.549   3.790 -0.4660  0.0049 -0.5875
 2784SOL     OW10907   0.921   2.426   2.546  0.1212  0.0663  0.6751
 2784SOL    HW210908   0.954   2.458   2.629 -0.6267  2.3017  0.1832
 2784SOL    HW310909   0.986   2.455   2.481  0.3293 -1.0159  0.3732
 2784SOL    MW410910   0.934   2.434   2.548 -0.0082  0.0078  1.1024
 2785SOL     OW10911   2.048   1.171   4.663 -0.0734  0.0268 -0.0187
 2785SOL    HW210912   2.002   1.118   4.597  0.2416  1.7925 -1.7569
 2785SOL    HW310913   2.084   1.107   4.725 -5.7796 -1.5655  2.3194
 2785SOL    MW410914   2.046   1.156   4.662 -0.7013  0.4206  0.9521
 2786SOL     OW10915   1.021   1.083   1.275 -0.1765  0.1086  0.3383
 2786SOL    HW210916   1.072   1.013   1.316  0.8393  1.9708  2.4810
 2786SOL    HW310917   0.993   1.138   1.348 -2.7672  0.8168 -1.0669
 2786SOL    MW410918   1.024   1.081   1.290  0.2315  0.3427  0.4005
 2787SOL     OW10919   4.944   6.197   5.599 -0.3846 -0.1423 -0.4807
 2787SOL    HW210920   5.012   6.231   5.658  0.2920 -1.1265 -0.6693
 2787SOL    HW310921   4.991   6.175   5.518 -0.9856 -0.4961 -0.7409
 2787SOL    MW410922   4.959   6.198   5.596 -0.1912 -0.7130 -0.5050
 2788SOL     OW10923   6.322   4.291   3.120 -0.0563  0.3945  0.3955
 2788SOL    HW210924   6.385   4.362   3.132  1.2836 -0.4325 -1.2755
 2788SOL    HW310925   6.238   4.329   3.143  0.9524  1.7281  2.0956
 2788SOL    MW410926   6.319   4.305   3.124 -0.3824 -0.3867  0.0147
 2789SOL     OW10927   4.444   4.720   5.283 -0.4617  0.9758 -0.1646
 2789SOL    HW210928   4.410   4.666   5.354 -1.5670 -0.5517 -1.7781
 2789SOL    HW310929   4.378   4.788   5.270 -0.9075  0.4531 -0.6181
 2789SOL    MW410930   4.431   4.722   5.291  0.6794  0.3546  0.1251
 2790SOL     OW10931   4.633   4.460   1.195  0.9275 -0.1497  0.2834
 2790SOL    HW210932   4.649   4.528   1.261  2.4211 -0.3264  0.1180
 2790SOL    HW310933   4.652   4.502   1.112 -1.4278  0.2204 -0.1428
 2790SOL    MW410934   4.637   4.475   1.193 -0.2069  0.1031 -0.2228
 2791SOL     OW10935   5.564   5.422   1.925 -0.5513  0.1147  0.2310
 2791SOL    HW210936   5.473   5.445   1.946 -0.6324 -0.9111  1.1368
 2791SOL    HW310937   5.559   5.383   1.838 -0.9007  0.5053  0.0721
 2791SOL    MW410938   5.551   5.420   1.917  0.3730  0.5666 -0.1870
 2792SOL     OW10939   5.897   4.843   1.030  0.4025 -0.4116  0.0201
 2792SOL    HW210940   5.904   4.758   1.075 -0.4912 -1.0916 -1.0469
 2792SOL    HW310941   5.911   4.908   1.098  0.5526 -1.4228  0.9821
 2792SOL    MW410942   5.899   4.840   1.045 -0.2119 -0.6558  0.3467
 2793SOL     OW10943   3.046   6.023   1.231 -1.0179 -0.1242  0.1790
 2793SOL    HW210944   2.963   6.051   1.269 -0.4188  1.2885  0.5366
 2793SOL    HW310945   3.068   5.942   1.277 -0.4307  1.3939  2.7918
 2793SOL    MW410946   3.038   6.016   1.242 -0.8947 -0.1459 -0.4392
 2794SOL     OW10947   1.079   0.480   3.632  0.1428 -0.2419 -0.3043
 2794SOL    HW210948   1.010   0.526   3.586  0.9190  0.6746 -0.5948
 2794SOL    HW310949   1.132   0.550   3.671 -0.0768 -0.9527  1.3892
 2794SOL    MW410950   1.077   0.495   3.631  0.0628  0.7005  0.2418
 2795SOL     OW10951   3.724   5.228   2.550 -0.2653  0.7279  0.3102
 2795SOL    HW210952   3.770   5.143   2.552 -0.5853  0.5617  0.7786
 2795SOL    HW310953   3.794   5.292   2.537 -0.1964  0.2795 -2.0791
 2795SOL    MW410954   3.739   5.225   2.548 -0.5089 -0.0421 -0.2247
 2796SOL     OW10955   5.745   4.725   2.723 -0.1522 -0.3529 -0.2352
 2796SOL    HW210956   5.799   4.678   2.786  0.0385  2.3493  1.7782
 2796SOL    HW310957   5.655   4.703   2.747 -0.0765  0.5458  0.9468
 2796SOL    MW410958   5.740   4.716   2.735  0.2129 -0.4491  0.3904
 2797SOL     OW10959   0.854   5.167   1.754 -0.1353 -0.1097 -0.4065
 2797SOL    HW210960   0.813   5.097   1.806 -1.8615  0.8375 -0.3986
 2797SOL    HW310961   0.933   5.127   1.718 -0.9805 -2.0229 -0.2679
 2797SOL    MW410962   0.859   5.152   1.756  0.4483  0.4340 -0.3486
 2798SOL     OW10963   0.436   1.949   4.863 -0.4738 -0.3082  0.1665
 2798SOL    HW210964   0.523   1.988   4.866 -0.7623  0.3042  1.4499
 2798SOL    HW310965   0.396   1.973   4.947 -1.8707 -0.5865 -0.3876
 2798SOL    MW410966   0.442   1.957   4.874  0.3664 -0.0765  0.0900
 2799SOL     OW10967   1.613   4.862   4.584 -0.1543  0.7292 -0.0602
 2799SOL    HW210968   1.621   4.895   4.495 -0.6013 -1.3213 -0.9319
 2799SOL    HW310969   1.577   4.935   4.634 -0.7259  1.6613 -1.7571
 2799SOL    MW410970   1.609   4.876   4.579  0.1908  0.4995 -0.4411
 2800SOL     OW10971   0.371   4.465   5.366 -0.6254  0.4298  0.1929
 2800SOL    HW210972   0.452   4.515   5.364 -0.5723  0.3705  0.7625
 2800SOL    HW310973   0.374   4.411   5.287  0.4531 -0.4431  0.7991
 2800SOL    MW410974   0.382   4.464   5.355  0.1672  0.1020 -0.4152
 2801SOL     OW10975   5.649   4.220   5.874  0.0205 -0.0516  0.0071
 2801SOL    HW210976   5.618   4.136   5.909 -2.7642  0.9930  0.2945
 2801SOL    HW310977   5.573   4.278   5.880  1.9711  2.6642  0.2487
 2801SOL    MW410978   5.635   4.216   5.879  1.0751  0.4526 -0.4042
 2802SOL     OW10979   2.598   6.389   1.616  0.3501  0.2146  0.2624
 2802SOL    HW210980   2.693   6.393   1.605  0.6855 -0.9388  2.2077
 2802SOL    HW310981   2.576   6.466   1.669  0.3015  0.1597  0.3234
 2802SOL    MW410982   2.608   6.399   1.622  0.0464 -0.3780  0.4682
 2803SOL     OW10983   2.376   4.116   2.285  0.5621 -0.7440  0.5696
 2803SOL    HW210984   2.458   4.087   2.244 -0.3996  0.2110 -2.3079
 2803SOL    HW310985   2.378   4.211   2.278 -1.9086 -0.7324 -2.3071
 2803SOL    MW410986   2.387   4.125   2.278  0.4418 -0.7103  0.3427
 2804SOL     OW10987   1.923   0.029   6.034  0.0250  0.2103 -0.2372
 2804SOL    HW210988   1.901  -0.040   6.097  1.7872  0.4992  0.7705
 2804SOL    HW310989   1.887   0.109   6.073  1.5431  0.4690  0.7211
 2804SOL    MW410990   1.915   0.031   6.048  0.9472  0.0131 -0.0650
 2805SOL     OW10991   1.833   3.215   3.010 -0.3167 -0.8818 -0.0350
 2805SOL    HW210992   1.788   3.148   3.062  1.2372 -1.4350  0.6564
 2805SOL    HW310993   1.858   3.282   3.074 -0.3215 -0.5062 -0.4275
 2805SOL    MW410994   1.831   3.215   3.025 -0.3018  0.0349 -0.2296
 2806SOL     OW10995   4.592   1.673   3.817 -0.1488 -0.5945 -0.1939
 2806SOL    HW210996   4.686   1.686   3.821 -0.4064  1.5195  0.1248
 2806SOL    HW310997   4.556   1.734   3.881 -1.8343  0.3056 -1.8870
 2806SOL    MW410998   4.600   1.682   3.826  0.5596 -0.1181 -0.3781
 2807SOL     OW10999   1.720   3.627   1.557 -0.8364  0.1027 -0.1256
 2807SOL    HW211000   1.628   3.613   1.534 -0.9185 -0.6288  0.5985
 2807SOL    HW311001   1.769   3.575   1.493 -0.9251  0.4738 -0.4976
 2807SOL    MW411002   1.714   3.618   1.545  0.0044  0.2648 -0.0403
 2808SOL     OW11003   0.954   1.158   3.111 -0.0742 -0.5094  0.1139
 2808SOL    HW211004   1.028   1.206   3.073 -0.9992  1.0299  0.1283
 2808SOL    HW311005   0.927   1.097   3.042 -0.9559  1.3920 -1.3436
 2808SOL    MW411006   0.960   1.156   3.097  0.0700 -0.6117 -0.6077
 2809SOL     OW11007   2.361   3.581   6.035  0.2742  0.4102  0.6531
 2809SOL    HW211008   2.448   3.561   6.067  0.4956  0.9770  0.4237
 2809SOL    HW311009   2.301   3.538   6.097  0.7145 -0.9727  0.1587
 2809SOL    MW411010   2.364   3.573   6.047  0.3497 -0.3246 -0.3929
 2810SOL     OW11011   5.742   5.511   1.100  0.4635  0.0722 -0.2039
 2810SOL    HW211012   5.686   5.476   1.030  0.2654  0.2107 -0.1163
 2810SOL    HW311013   5.681   5.546   1.164  0.6440 -0.1534  0.0936
 2810SOL    MW411014   5.727   5.511   1.099  0.5936  0.7792 -0.0567
 2811SOL     OW11015   6.087   4.066   2.588 -0.0726 -0.3470 -0.3934
 2811SOL    HW211016   6.131   4.045   2.670 -0.4558 -1.9929 -0.5809
 2811SOL    HW311017   6.020   4.131   2.612  1.1428  0.7137  0.2151
 2811SOL    MW411018   6.084   4.072   2.602  0.4368  0.5790  0.5335
 2812SOL     OW11019   1.770   1.449   2.215  0.0415  0.2524  0.0405
 2812SOL    HW211020   1.682   1.482   2.198 -0.4088 -0.3969  0.9821
 2812SOL    HW311021   1.763   1.407   2.301  1.1478 -0.2407 -0.0954
 2812SOL    MW411022   1.757   1.448   2.224 -0.1163 -0.3885 -0.2809
 2813SOL     OW11023   3.046   4.691   2.786  0.5694 -0.2758 -0.9683
 2813SOL    HW211024   3.125   4.688   2.839 -0.1144  1.1465  0.2081
 2813SOL    HW311025   3.071   4.650   2.703  1.9140 -1.7941  0.1153
 2813SOL    MW411026   3.059   4.685   2.782 -0.0460 -0.1249 -0.0436
 2814SOL     OW11027   6.222   1.240   1.505  0.0756 -0.0375 -0.6053
 2814SOL    HW211028   6.152   1.227   1.569  1.0324  0.7266  0.6459
 2814SOL    HW311029   6.178   1.233   1.420 -1.4222 -0.0365  0.1297
 2814SOL    MW411030   6.207   1.237   1.502 -0.2537  1.1675  0.4913
 2815SOL     OW11031   3.515   0.932   0.588  0.1244  0.6167  0.0203
 2815SOL    HW211032   3.541   0.913   0.678 -2.4676  0.2617  0.8007
 2815SOL    HW311033   3.508   0.846   0.547  1.8694  0.8123 -0.7305
 2815SOL    MW411034   3.517   0.918   0.595  0.2542 -0.7767 -0.1866
 2816SOL     OW11035   2.082   0.276   1.585  0.2216 -0.5917  0.6339
 2816SOL    HW211036   2.167   0.312   1.560 -0.6108  1.4423  0.5533
 2816SOL    HW311037   2.028   0.285   1.507 -0.3483 -0.9408  0.9858
 2816SOL    MW411038   2.086   0.282   1.572  0.7181  0.5260 -0.4333
 2817SOL     OW11039   2.340   0.518   0.314 -0.5899 -0.2979  0.4117
 2817SOL    HW211040   2.291   0.600   0.319 -0.8451 -0.2329 -1.9806
 2817SOL    HW311041   2.413   0.530   0.375 -3.0298 -0.1223  3.5145
 2817SOL    MW411042   2.343   0.531   0.323 -0.1672  0.6820  0.2436
 2818SOL     OW11043   5.578   0.704   1.852  0.3645 -0.1288  0.0891
 2818SOL    HW211044   5.581   0.769   1.922 -3.5496  0.4112 -0.0025
 2818SOL    HW311045   5.572   0.620   1.897 -0.3440  0.0851  0.4171
 2818SOL    MW411046   5.577   0.701   1.867  0.3143 -0.2064  0.4813
 2819SOL     OW11047   5.618   2.593   1.356  0.5821 -0.1341 -0.4462
 2819SOL    HW211048   5.625   2.521   1.419 -1.1250 -0.1477 -0.2049
 2819SOL    HW311049   5.621   2.551   1.270 -0.4699 -0.5327 -0.3058
 2819SOL    MW411050   5.619   2.578   1.353  0.3328 -0.3742 -0.0945
 2820SOL     OW11051   1.815   2.158   5.579 -0.3615 -0.1120 -0.0581
 2820SOL    HW211052   1.781   2.222   5.517  1.1129  1.0998  0.3132
 2820SOL    HW311053   1.879   2.107   5.529 -0.8423 -0.6643 -0.1120
 2820SOL    MW411054   1.819   2.160   5.564  0.9599  0.0345 -0.4677
 2821SOL     OW11055   2.690   3.640   2.756 -0.1341 -0.0880  0.1109
 2821SOL    HW211056   2.625   3.710   2.757 -0.5016 -0.3994  1.8035
 2821SOL    HW311057   2.774   3.684   2.761 -0.3233  0.2638  0.1931
 2821SOL    MW411058   2.692   3.655   2.757  0.7439 -1.4261 -0.0115
 2822SOL     OW11059   1.487   6.402   2.244  0.1731  0.1120 -0.4790
 2822SOL    HW211060   1.558   6.406   2.308 -0.6163 -3.5671  0.9242
 2822SOL    HW311061   1.436   6.482   2.258  1.7796  0.8826  1.2921
 2822SOL    MW411062   1.490   6.413   2.254  0.0476 -0.3795 -0.4554
 2823SOL     OW11063   5.436   0.842   4.731  0.5589 -0.2182  0.4266
 2823SOL    HW211064   5.427   0.936   4.718  0.8032 -0.0487  1.4127
 2823SOL    HW311065   5.428   0.829   4.825  0.6628 -1.1716  0.3220
 2823SOL    MW411066   5.434   0.852   4.741  0.3504  0.0819  0.3514
 2824SOL     OW11067   5.497   1.113   2.894  0.3684  0.1112 -0.1483
 2824SOL    HW211068   5.453   1.176   2.950 -0.5358 -1.2360  0.7194
 2824SOL    HW311069   5.480   1.144   2.805  0.2537  1.2700  0.2644
 2824SOL    MW411070   5.489   1.125   2.889 -0.0682  0.0863 -0.2248
 2825SOL     OW11071   3.199   5.482   0.759  0.2842  0.3532  0.0161
 2825SOL    HW211072   3.242   5.495   0.843 -0.8058  0.9976  0.5001
 2825SOL    HW311073   3.222   5.560   0.708  1.2165 -0.1922 -0.4216
 2825SOL    MW411074   3.208   5.494   0.763 -0.5033  0.0749 -0.0197
 2826SOL     OW11075   3.490   4.057   1.592  0.0677  0.3101 -0.1380
 2826SOL    HW211076   3.454   4.112   1.662 -0.2634  0.9172 -0.7695
 2826SOL    HW311077   3.567   4.016   1.631 -0.4648  0.1525  0.7740
 2826SOL    MW411078   3.495   4.059   1.607  0.1906  0.2985  0.3096
 2827SOL     OW11079   1.547   2.953   2.378 -0.9800 -0.6869  0.0248
 2827SOL    HW211080   1.514   2.863   2.380  0.9613 -1.4384  0.1521
 2827SOL    HW311081   1.609   2.954   2.305  0.4401 -0.0140  1.1951
 2827SOL    MW411082   1.551   2.941   2.369 -0.2952  0.6570  0.1679
 2828SOL     OW11083   3.997   5.458   5.924  0.1944 -0.9327 -0.0924
 2828SOL    HW211084   3.962   5.454   6.013  0.2561  1.3594  0.0898
 2828SOL    HW311085   4.092   5.458   5.936  0.1989  0.0365 -0.1089
 2828SOL    MW411086   4.005   5.457   5.937 -0.1294  0.4401  0.2944
 2829SOL     OW11087   5.499   1.726   5.183  0.4748 -0.0435  0.3492
 2829SOL    HW211088   5.557   1.724   5.260  3.0761 -2.2557 -1.4902
 2829SOL    HW311089   5.555   1.756   5.112 -1.2645 -0.2163 -1.1625
 2829SOL    MW411090   5.514   1.730   5.184 -0.1939  0.4258 -0.3136
 2830SOL     OW11091   3.323   1.507   2.280  0.6868 -0.3215  0.2588
 2830SOL    HW211092   3.236   1.531   2.311  0.7349  1.8182 -1.0638
 2830SOL    HW311093   3.380   1.578   2.311  1.3527 -0.0032 -1.5815
 2830SOL    MW411094   3.319   1.519   2.288  0.1838  0.3722  0.4571
 2831SOL     OW11095   3.648   6.359   1.295  0.0144  0.1744 -0.4063
 2831SOL    HW211096   3.574   6.385   1.240  0.9361  0.0984 -1.7341
 2831SOL    HW311097   3.711   6.430   1.284  0.8893 -0.6540 -0.7896
 2831SOL    MW411098   3.646   6.372   1.286  0.2021  0.1421  0.2494
 2832SOL     OW11099   3.717   5.742   6.361 -0.3543 -0.5200  0.2764
 2832SOL    HW211100   3.654   5.709   6.425  0.1308 -0.6735  0.6814
 2832SOL    HW311101   3.670   5.811   6.314 -1.1453 -1.3257 -0.1184
 2832SOL    MW411102   3.703   5.747   6.363  0.2687  0.3577  0.2001
 2833SOL     OW11103   0.925   1.656   3.431  0.2698  0.4286 -0.3653
 2833SOL    HW211104   0.957   1.602   3.359  0.9815  0.8624 -0.3880
 2833SOL    HW311105   0.937   1.746   3.401 -0.2806  0.6029 -0.0660
 2833SOL    MW411106   0.931   1.661   3.418 -0.3969  0.4634  0.4338
 2834SOL     OW11107   1.929   0.577   1.280  0.3461  0.1850 -0.0825
 2834SOL    HW211108   1.869   0.566   1.206  1.0575 -1.6647 -0.4306
 2834SOL    HW311109   2.000   0.631   1.245  0.5319 -0.4355 -0.6997
 2834SOL    MW411110   1.930   0.583   1.266 -0.0737 -0.2141 -0.1196
 2835SOL     OW11111   2.355   4.874   2.883  0.1288  0.1772  0.3170
 2835SOL    HW211112   2.270   4.835   2.864 -0.4544  0.0540  2.8188
 2835SOL    HW311113   2.400   4.807   2.935  0.4947  1.3965  1.6576
 2835SOL    MW411114   2.350   4.860   2.888  0.2590  0.3100 -0.1782
 2836SOL     OW11115   2.435   5.875   1.405  0.0373  0.4154  0.1834
 2836SOL    HW211116   2.358   5.932   1.401  0.5059  0.9842 -1.0358
 2836SOL    HW311117   2.473   5.894   1.491 -0.5234  1.0002  0.3137
 2836SOL    MW411118   2.430   5.885   1.416 -0.0184 -0.2564  0.2133
 2837SOL     OW11119   2.671   0.876   3.090 -0.3262  0.0361  0.6466
 2837SOL    HW211120   2.593   0.828   3.064 -0.3769  0.1370  0.6134
 2837SOL    HW311121   2.643   0.930   3.164 -0.0750 -0.5857  1.2068
 2837SOL    MW411122   2.657   0.876   3.096 -0.4102 -0.2049  0.0008
 2838SOL     OW11123   4.949   4.589   2.782 -0.3221 -0.5332 -0.3099
 2838SOL    HW211124   4.950   4.509   2.836 -0.6188 -0.0417  0.4377
 2838SOL    HW311125   5.036   4.627   2.794 -0.3835 -0.4304 -0.1952
 2838SOL    MW411126   4.961   4.583   2.791 -0.4736 -0.5177  0.3817
 2839SOL     OW11127   2.582   0.211   0.717  0.5454  0.3801 -0.1982
 2839SOL    HW211128   2.581   0.157   0.795  1.3763 -0.3009 -0.6506
 2839SOL    HW311129   2.602   0.150   0.646  0.3667  1.0873 -0.8648
 2839SOL    MW411130   2.584   0.196   0.718  0.0818  0.7587  0.2610
 2840SOL     OW11131   4.502   1.986   5.992  0.2472 -0.4975 -0.0079
 2840SOL    HW211132   4.474   1.920   5.929  0.6373 -0.3629 -0.3231
 2840SOL    HW311133   4.422   2.035   6.012 -0.6056 -2.5223  2.0341
 2840SOL    MW411134   4.488   1.984   5.986  0.2119 -0.4729  0.1345
 2841SOL     OW11135   1.767   4.447   4.933  0.1544 -0.2047 -0.1476
 2841SOL    HW211136   1.702   4.514   4.914 -0.4158 -0.3920  1.0633
 2841SOL    HW311137   1.831   4.492   4.990 -0.3436 -0.7160  0.8433
 2841SOL    MW411138   1.767   4.462   4.938 -0.5674 -0.1972  0.7087
 2842SOL     OW11139   2.152   5.017   3.085  0.0855 -0.0482  0.1174
 2842SOL    HW211140   2.211   4.973   3.024  0.2592  3.8528 -2.9412
 2842SOL    HW311141   2.207   5.039   3.161  1.4149 -0.3094 -0.7375
 2842SOL    MW411142   2.167   5.014   3.087 -0.4831  0.3565 -0.5584
 2843SOL     OW11143   4.808   2.145   6.261  0.2575  0.2631 -0.4834
 2843SOL    HW211144   4.875   2.201   6.223 -0.5955  1.4693 -0.2516
 2843SOL    HW311145   4.759   2.202   6.320 -1.7398 -0.2543 -1.5593
 2843SOL    MW411146   4.810   2.160   6.264 -0.3750 -0.4095 -0.3259
 2844SOL     OW11147   6.399   4.343   5.350  0.0408 -0.1383  0.5332
 2844SOL    HW211148   6.327   4.366   5.409  0.4308 -0.8899  1.3251
 2844SOL    HW311149   6.396   4.248   5.344  0.7856 -0.1550  0.3360
 2844SOL    MW411150   6.389   4.334   5.357 -0.0420 -0.2542 -0.5711
 2845SOL     OW11151   3.216   3.659   5.005 -0.1338 -0.0245 -0.5456
 2845SOL    HW211152   3.186   3.568   5.002  1.1417 -0.4511 -1.3264
 2845SOL    HW311153   3.240   3.673   5.097  0.8080 -0.9016 -0.6352
 2845SOL    MW411154   3.215   3.649   5.017  0.0876 -0.1158 -0.1087
 2846SOL     OW11155   1.487   6.038   4.806  0.1737 -0.3296 -0.2625
 2846SOL    HW211156   1.538   6.000   4.877 -1.8509 -1.5102  0.6438
 2846SOL    HW311157   1.464   6.125   4.837  0.7405 -0.1832 -0.2363
 2846SOL    MW411158   1.491   6.044   4.819  0.0709 -0.6584 -0.0312
 2847SOL     OW11159   0.890   2.898   1.632  0.6631  0.8236 -0.1516
 2847SOL    HW211160   0.822   2.898   1.564 -0.4287  0.6171  0.8920
 2847SOL    HW311161   0.937   2.816   1.619  1.5182  1.5130 -1.6304
 2847SOL    MW411162   0.887   2.887   1.621 -0.6974  1.0934 -0.2631
 2848SOL     OW11163   6.182   2.678   1.979 -0.2213  0.3525 -0.0233
 2848SOL    HW211164   6.093   2.677   1.945 -0.2209  1.2008 -0.0858
 2848SOL    HW311165   6.219   2.594   1.953 -1.0649 -0.0926  0.1845
 2848SOL    MW411166   6.175   2.667   1.971  0.3933  0.1127 -0.3039
 2849SOL     OW11167   5.665   3.427   1.217 -0.3391 -0.5080 -0.0464
 2849SOL    HW211168   5.640   3.507   1.171  1.0122 -1.7386 -3.2334
 2849SOL    HW311169   5.582   3.387   1.244 -1.1471  0.6853 -0.6804
 2849SOL    MW411170   5.651   3.432   1.215  0.2014 -0.0524  0.2049
 2850SOL     OW11171   4.770   5.104   4.532  0.0221  0.0167  0.1032
 2850SOL    HW211172   4.751   5.011   4.526  1.2805 -0.2593  0.1051
 2850SOL    HW311173   4.723   5.144   4.459  0.1975 -0.7356 -0.4203
 2850SOL    MW411174   4.761   5.097   4.522  0.0459 -0.4695  0.5682
 2851SOL     OW11175   0.597   3.044   0.092 -0.2353 -0.0346  0.4215
 2851SOL    HW211176   0.591   2.955   0.059  0.2284  0.5036 -1.1873
 2851SOL    HW311177   0.535   3.094   0.039  1.0261  0.9838 -0.1470
 2851SOL    MW411178   0.588   3.039   0.081  0.5331 -0.6355 -0.4566
 2852SOL     OW11179   2.479   3.393   2.142 -0.7216 -0.2460  0.0929
 2852SOL    HW211180   2.458   3.478   2.103 -1.3597  0.2167  1.3750
 2852SOL    HW311181   2.566   3.373   2.109 -0.4087  1.0854  0.0440
 2852SOL    MW411182   2.487   3.402   2.133 -0.1159  0.0072  0.0923
 2853SOL     OW11183   4.084   3.066   5.967 -0.2100  0.5013 -0.7466
 2853SOL    HW211184   4.076   3.154   5.929 -1.5158 -0.3340 -2.5232
 2853SOL    HW311185   4.004   3.021   5.941  1.2860 -1.8428 -1.5351
 2853SOL    MW411186   4.072   3.072   5.959  0.0592  0.1768  0.7534
 2854SOL     OW11187   5.855   3.870   2.840 -0.8473  0.5135  0.3702
 2854SOL    HW211188   5.907   3.799   2.803  2.2930  2.8736 -0.1623
 2854SOL    HW311189   5.799   3.900   2.768  0.3016  0.7343 -0.4512
 2854SOL    MW411190   5.854   3.865   2.826  0.1561 -0.2613  0.0308
 2855SOL     OW11191   6.343   1.898   5.646 -0.4020 -0.0764 -0.2476
 2855SOL    HW211192   6.254   1.929   5.630 -0.3578 -0.4954 -1.3520
 2855SOL    HW311193   6.392   1.925   5.569  0.9212  1.8952  1.1926
 2855SOL    MW411194   6.338   1.905   5.634  0.2872  0.9081  0.4365
 2856SOL     OW11195   3.274   1.578   5.816 -0.6163  0.0484  0.1566
 2856SOL    HW211196   3.259   1.606   5.907 -0.4148  2.1365 -0.3976
 2856SOL    HW311197   3.255   1.485   5.816 -1.0713  0.0936  2.2494
 2856SOL    MW411198   3.270   1.570   5.828 -0.1723  0.4688  0.2861
 2857SOL     OW11199   3.803   0.307   3.661 -0.1055 -0.8281 -0.1833
 2857SOL    HW211200   3.767   0.328   3.575 -0.1913 -1.9216 -0.4335
 2857SOL    HW311201   3.847   0.387   3.689 -0.0462 -0.4648 -1.2617
 2857SOL    MW411202   3.804   0.320   3.653  0.5169  0.1304  0.0741
 2858SOL     OW11203   2.171   2.416   1.568 -0.0149 -0.4638  0.4108
 2858SOL    HW211204   2.259   2.378   1.566 -0.3076 -1.1532  0.3408
 2858SOL    HW311205   2.118   2.350   1.612 -1.6158 -2.4582 -3.9615
 2858SOL    MW411206   2.176   2.403   1.574  0.8049  0.6145  0.1526
 2859SOL     OW11207   3.392   1.995   1.918  0.6846 -0.3489  0.4196
 2859SOL    HW211208   3.447   2.031   1.849  2.3600  0.2013  1.9545
 2859SOL    HW311209   3.368   1.907   1.887  3.7889 -1.2789  0.3253
 2859SOL    MW411210   3.396   1.988   1.905  0.0819 -0.0505  0.6491
 2860SOL     OW11211   6.337   1.502   1.896 -0.0651  0.3579 -0.2467
 2860SOL    HW211212   6.291   1.585   1.908  1.0650  1.0419 -0.4478
 2860SOL    HW311213   6.351   1.496   1.802  0.4067  0.2609 -0.1748
 2860SOL    MW411214   6.333   1.512   1.885 -0.7481  0.4197 -0.2513
 2861SOL     OW11215   5.297   1.769   0.197 -0.5310 -0.2697 -0.4666
 2861SOL    HW211216   5.302   1.824   0.119 -0.9884  1.0669  0.4094
 2861SOL    HW311217   5.219   1.800   0.243  0.1852 -0.4569  0.9296
 2861SOL    MW411218   5.287   1.780   0.193 -0.1762 -0.1634  0.4153
 2862SOL     OW11219   5.775   2.510   1.862 -0.2072  0.4728 -0.3464
 2862SOL    HW211220   5.832   2.484   1.790 -1.5160  0.8499 -1.5557
 2862SOL    HW311221   5.823   2.484   1.941  1.6183  0.7627 -1.2997
 2862SOL    MW411222   5.789   2.503   1.863 -0.2858  0.3122  0.5736
 2863SOL     OW11223   2.832   2.359   3.252  0.2131  0.4626  0.4404
 2863SOL    HW211224   2.895   2.364   3.180  0.3968  0.6765  0.6164
 2863SOL    HW311225   2.858   2.281   3.301  1.7300  1.7604  1.8050
 2863SOL    MW411226   2.844   2.350   3.249 -0.2582  0.2443 -0.0761
 2864SOL     OW11227   2.640   0.555   5.295  0.1371  0.5046  0.1814
 2864SOL    HW211228   2.705   0.585   5.232 -0.8414 -0.9395 -1.6255
 2864SOL    HW311229   2.626   0.630   5.353  1.9262  1.5004 -0.5909
 2864SOL    MW411230   2.646   0.569   5.294  0.2656 -0.1015 -0.2275
 2865SOL     OW11231   3.031   0.634   5.351  0.3410  0.0520 -0.2404
 2865SOL    HW211232   3.003   0.573   5.419  0.6111  0.6800  0.4443
 2865SOL    HW311233   3.094   0.584   5.299  1.2063  0.0138  0.8249
 2865SOL    MW411234   3.035   0.619   5.353  0.6185  0.4405  0.4863
 2866SOL     OW11235   4.310   4.093   3.949 -0.2526  0.2606 -0.0127
 2866SOL    HW211236   4.326   4.109   4.042  1.8181 -1.3484 -0.0284
 2866SOL    HW311237   4.329   4.176   3.906  1.4087  0.3201  0.7673
 2866SOL    MW411238   4.314   4.106   3.956 -0.4552  0.1406 -0.0402
 2867SOL     OW11239   5.652   4.645   3.582  0.4026  0.6271 -0.3914
 2867SOL    HW211240   5.696   4.562   3.602 -1.1082 -0.3312 -0.8225
 2867SOL    HW311241   5.686   4.671   3.496  1.8641  1.1750  0.3283
 2867SOL    MW411242   5.662   4.637   3.573 -0.5429  0.5040 -0.0396
 2868SOL     OW11243   6.235   3.339   0.232 -0.3372 -0.0902 -0.1958
 2868SOL    HW211244   6.262   3.428   0.211 -1.2553  0.3025  0.2733
 2868SOL    HW311245   6.173   3.348   0.304 -1.8082 -0.9657 -1.2966
 2868SOL    MW411246   6.231   3.352   0.239 -0.8567 -0.1810  0.2491
 2869SOL     OW11247   0.733   0.887   6.410  0.4913 -0.1677  0.3815
 2869SOL    HW211248   0.814   0.924   6.444  0.8443  0.6494 -1.2625
 2869SOL    HW311249   0.666   0.954   6.427  0.9495  0.8971 -1.7496
 2869SOL    MW411250   0.735   0.901   6.417 -1.0769  0.0443  0.4545
 2870SOL     OW11251   0.383   4.488   0.615 -0.0110  0.0310 -0.6842
 2870SOL    HW211252   0.449   4.418   0.622 -0.4557 -0.3547 -0.2515
 2870SOL    HW311253   0.301   4.446   0.641 -0.6182  0.2378 -2.1878
 2870SOL    MW411254   0.381   4.473   0.619 -0.5071 -0.4075  0.5228
 2871SOL     OW11255   0.711   0.014   1.956  0.1373 -0.0758  0.2255
 2871SOL    HW211256   0.753  -0.011   2.039  0.1783 -2.4635 -0.4259
 2871SOL    HW311257   0.648  -0.056   1.940 -0.7660  1.0069 -1.1588
 2871SOL    MW411258   0.708   0.001   1.965 -0.1035  0.5456 -0.1698
 2872SOL     OW11259   0.230   2.757   2.026 -0.0007 -0.4919 -0.3073
 2872SOL    HW211260   0.316   2.792   2.050 -0.4067  0.7421 -0.5480
 2872SOL    HW311261   0.191   2.729   2.109 -0.5951  1.8757  0.2846
 2872SOL    MW411262   0.236   2.758   2.040  0.8941  0.2376 -0.0115
 2873SOL     OW11263   3.460   6.330   2.802 -0.7448  0.3551 -0.4532
 2873SOL    HW211264   3.426   6.321   2.713 -1.3734 -1.8071 -0.0533
 2873SOL    HW311265   3.549   6.363   2.790  0.0612 -2.1059 -2.0890
 2873SOL    MW411266   3.467   6.333   2.789  0.5970  0.2300 -0.1966
 2874SOL     OW11267   5.523   3.943   3.721  1.1073  0.3386 -0.7993
 2874SOL    HW211268   5.504   3.921   3.630 -0.9963  0.2093 -0.3997
 2874SOL    HW311269   5.464   3.886   3.772  0.9945  1.5908  0.5503
 2874SOL    MW411270   5.513   3.932   3.716 -0.1909  0.4602  0.3336
 2875SOL     OW11271   0.518   5.839   1.335 -0.8847  0.1123 -0.3858
 2875SOL    HW211272   0.464   5.916   1.315  0.1611  0.7619 -0.8288
 2875SOL    HW311273   0.488   5.773   1.273 -0.1868  0.9439 -1.6567
 2875SOL    MW411274   0.507   5.841   1.324 -0.1011  0.1246  0.0246
 2876SOL     OW11275   1.637   3.201   0.739  0.4138 -0.0204 -0.2151
 2876SOL    HW211276   1.602   3.168   0.656 -3.2781 -0.3185  1.2716
 2876SOL    HW311277   1.665   3.123   0.786  1.3519  0.0257 -0.6918
 2876SOL    MW411278   1.636   3.187   0.734  0.4599 -0.7709 -0.1890
 2877SOL     OW11279   4.450   2.546   2.730 -0.7433 -0.0735 -0.3802
 2877SOL    HW211280   4.520   2.606   2.703 -1.2702  0.3154 -0.8879
 2877SOL    HW311281   4.451   2.550   2.826 -0.7658  0.7397 -0.4093
 2877SOL    MW411282   4.460   2.554   2.739 -0.6358 -0.0740 -0.1935
 2878SOL     OW11283   2.374   0.179   0.135 -0.4038  0.2189 -0.1302
 2878SOL    HW211284   2.443   0.245   0.130 -1.7045  1.5125 -2.3807
 2878SOL    HW311285   2.292   0.229   0.132 -1.5394 -1.2551  2.7226
 2878SOL    MW411286   2.372   0.194   0.134 -0.2976 -0.5686  0.0665
 2879SOL     OW11287   1.976   4.964   1.726  0.1541  0.4537  0.5302
 2879SOL    HW211288   2.021   4.947   1.643 -1.5970  1.3849 -0.6577
 2879SOL    HW311289   1.884   4.946   1.708 -0.2796  0.7729  2.2521
 2879SOL    MW411290   1.970   4.960   1.713 -0.2320 -0.0942 -0.2978
 2880SOL     OW11291   3.323   2.142   0.941 -0.0198  0.3407 -0.1231
 2880SOL    HW211292   3.326   2.205   1.013 -0.3333 -0.6676  0.7850
 2880SOL    HW311293   3.412   2.144   0.905  0.7392 -0.5565  1.5571
 2880SOL    MW411294   3.335   2.151   0.946 -0.5517  0.0578 -0.3050
 2881SOL     OW11295   5.258   1.280   3.381 -0.3173 -0.3717  0.3030
 2881SOL    HW211296   5.311   1.356   3.357  0.3884 -0.5176  1.3410
 2881SOL    HW311297   5.213   1.307   3.461 -0.7870 -0.7173  0.1546
 2881SOL    MW411298   5.259   1.294   3.389 -0.3760  0.6884 -0.8382
 2882SOL     OW11299   6.036   5.668   3.933  0.5140 -0.2169 -0.3737
 2882SOL    HW211300   5.995   5.662   3.846  0.3045  2.2208 -0.5160
 2882SOL    HW311301   5.962   5.667   3.994  0.4218  0.9415 -0.4375
 2882SOL    MW411302   6.021   5.667   3.930  0.3621 -0.0321 -0.0220
 2883SOL     OW11303   2.011   2.841   1.960 -0.2746 -0.3645 -0.0256
 2883SOL    HW211304   2.076   2.886   2.014 -0.9327  1.7008 -0.8536
 2883SOL    HW311305   2.035   2.861   1.870 -2.1652  0.7310 -0.3509
 2883SOL    MW411306   2.023   2.850   1.956  0.0156  0.0308 -0.6837
 2884SOL     OW11307   5.191   3.018   3.402  0.1647 -0.3987  0.2850
 2884SOL    HW211308   5.188   3.051   3.313  1.4060 -1.7809 -0.3153
 2884SOL    HW311309   5.155   3.089   3.456  2.2548  1.7398 -0.9415
 2884SOL    MW411310   5.186   3.032   3.398  0.1861 -0.0549  0.0677
 2885SOL     OW11311   0.900   6.137   0.493 -0.4446 -0.8984 -0.1430
 2885SOL    HW211312   0.878   6.154   0.585 -1.4688  0.1807 -0.5571
 2885SOL    HW311313   0.983   6.091   0.496 -1.8613 -3.6123  1.4785
 2885SOL    MW411314   0.908   6.133   0.506  0.2273 -0.3793 -0.1766
 2886SOL     OW11315   5.583   5.970   2.631 -0.1006 -0.5669 -0.2548
 2886SOL    HW211316   5.516   6.039   2.631 -1.5732 -1.9106 -1.5872
 2886SOL    HW311317   5.565   5.919   2.711 -1.2926 -1.4351 -1.0393
 2886SOL    MW411318   5.572   5.972   2.642 -0.5733  0.8035 -0.3068
 2887SOL     OW11319   4.030   0.650   5.143 -0.0080  0.3261 -0.0353
 2887SOL    HW211320   3.997   0.738   5.157 -2.8188 -0.2107 -2.3818
 2887SOL    HW311321   3.959   0.592   5.172 -0.2388 -0.9641 -2.7860
 2887SOL    MW411322   4.016   0.654   5.149 -0.2198 -0.4974  0.5619
 2888SOL     OW11323   2.699   1.961   4.601  0.9104 -0.4191  0.4088
 2888SOL    HW211324   2.715   2.046   4.641  3.1575 -0.8170  0.5128
 2888SOL    HW311325   2.723   1.898   4.669  1.9185 -1.1091 -0.5559
 2888SOL    MW411326   2.704   1.964   4.615  0.0464  0.4242 -1.0220
 2889SOL     OW11327   1.532   3.381   1.856 -0.4544  0.1088  0.8601
 2889SOL    HW211328   1.438   3.365   1.861 -0.7966  0.2106 -2.9254
 2889SOL    HW311329   1.571   3.294   1.868 -1.0026 -0.0021  2.0089
 2889SOL    MW411330   1.525   3.367   1.859 -0.0911 -0.1347 -0.3801
 2890SOL     OW11331   2.099   2.851   4.129 -0.6366  0.4361  0.2703
 2890SOL    HW211332   2.055   2.767   4.135 -1.4438  0.7481 -0.9475
 2890SOL    HW311333   2.190   2.832   4.153 -1.0103 -0.5832  0.9426
 2890SOL    MW411334   2.105   2.837   4.133  0.0980  0.4230  0.5700
 2891SOL     OW11335   1.017   1.338   6.200 -0.1281  0.1586 -0.0206
 2891SOL    HW211336   0.973   1.274   6.256 -1.5753 -0.5943 -1.9027
 2891SOL    HW311337   1.069   1.391   6.260 -0.2096 -1.7037  1.8001
 2891SOL    MW411338   1.018   1.337   6.215  0.2478 -0.0972  0.1357
 2892SOL     OW11339   2.227   0.087   3.016  0.0908  0.1332  0.3621
 2892SOL    HW211340   2.135   0.062   3.008  0.1144  0.4719 -1.3213
 2892SOL    HW311341   2.253   0.055   3.103 -1.6677  0.2767  0.9847
 2892SOL    MW411342   2.219   0.079   3.027  0.6716  0.1222 -0.4269
 2893SOL     OW11343   1.271   4.560   3.060 -0.1696  0.0481 -0.0551
 2893SOL    HW211344   1.182   4.577   3.028  0.0844 -0.0281 -0.8286
 2893SOL    HW311345   1.275   4.605   3.144 -1.0982 -0.3539  0.2300
 2893SOL    MW411346   1.260   4.568   3.067 -0.2657  0.1970 -0.0562
 2894SOL     OW11347   0.158   4.332   2.506 -0.2775 -0.2706  0.2491
 2894SOL    HW211348   0.100   4.405   2.484 -0.2469 -0.2032  0.3866
 2894SOL    HW311349   0.115   4.255   2.470 -0.1717 -0.1513 -0.1424
 2894SOL    MW411350   0.145   4.332   2.498  0.2033 -0.0473  0.0389
 2895SOL     OW11351   2.825   1.141   0.243 -0.1564 -0.7434  0.0532
 2895SOL    HW211352   2.777   1.140   0.161  0.8276 -0.1211 -0.5524
 2895SOL    HW311353   2.910   1.179   0.221  0.2102 -0.7737  1.3110
 2895SOL    MW411354   2.830   1.146   0.229 -0.1682  0.0172 -0.5770
 2896SOL     OW11355   1.628   3.043   4.177 -0.3415  0.1521  0.0267
 2896SOL    HW211356   1.544   3.021   4.137 -0.2454  1.1523 -0.7771
 2896SOL    HW311357   1.618   3.018   4.269 -0.3526 -2.7835 -0.6696
 2896SOL    MW411358   1.616   3.037   4.184 -0.0580  0.6621  0.2182
 2897SOL     OW11359   1.616   1.069   5.801  0.4089  0.0837  0.0991
 2897SOL    HW211360   1.666   1.146   5.774  0.9259  0.0788  1.0055
 2897SOL    HW311361   1.569   1.098   5.880  0.2752 -0.4050  0.1991
 2897SOL    MW411362   1.616   1.083   5.808  0.3670 -0.0848 -0.3289
 2898SOL     OW11363   5.706   0.534   3.179  0.2534 -0.3731  0.0493
 2898SOL    HW211364   5.787   0.492   3.208  0.4408  0.3088  0.5579
 2898SOL    HW311365   5.637   0.493   3.232  0.6179  1.0107  1.6892
 2898SOL    MW411366   5.708   0.523   3.190  0.4338  0.3546  0.4299
 2899SOL     OW11367   3.645   1.968   0.962 -0.0707 -0.0200 -0.2927
 2899SOL    HW211368   3.635   2.032   0.892 -2.7683  0.6124  0.5569
 2899SOL    HW311369   3.589   2.000   1.032 -2.1049 -3.6041 -0.0483
 2899SOL    MW411370   3.637   1.980   0.962 -0.3679 -0.2426 -0.1037
 2900SOL     OW11371   4.050   2.046   0.391  0.0439 -0.1664  0.2403
 2900SOL    HW211372   4.017   2.053   0.302 -1.9791  2.8177  1.0706
 2900SOL    HW311373   4.144   2.066   0.384  0.4150 -2.1722 -1.3902
 2900SOL    MW411374   4.058   2.050   0.378 -0.4690  0.0369 -0.9811
 2901SOL     OW11375   4.312   5.131   0.123 -0.2416  0.7112  0.0123
 2901SOL    HW211376   4.284   5.141   0.032  1.3609  2.4424 -0.3242
 2901SOL    HW311377   4.385   5.070   0.119 -0.2863  0.6469  0.1694
 2901SOL    MW411378   4.318   5.124   0.110 -0.1702  0.3870 -0.3076
 2902SOL     OW11379   2.480   1.775   5.779  0.3075 -0.0235  0.6667
 2902SOL    HW211380   2.528   1.808   5.703 -3.0479 -0.7484 -2.0162
 2902SOL    HW311381   2.518   1.821   5.854  3.2644  1.3623 -1.5081
 2902SOL    MW411382   2.491   1.785   5.779 -0.3929  0.0073 -0.1533
 2903SOL     OW11383   4.481   3.633   3.371  0.0298 -0.1912 -0.1021
 2903SOL    HW211384   4.477   3.662   3.280 -0.4070 -1.1311 -0.3960
 2903SOL    HW311385   4.439   3.703   3.421  2.3121  1.4273 -0.3159
 2903SOL    MW411386   4.475   3.646   3.366  0.4322 -0.3307  0.0547
 2904SOL     OW11387   6.292   0.622   2.592  0.3978  0.4551 -0.0901
 2904SOL    HW211388   6.287   0.597   2.499  2.8075  0.2401 -0.2261
 2904SOL    HW311389   6.319   0.542   2.637 -1.1654  0.4462  0.8956
 2904SOL    MW411390   6.295   0.608   2.585 -0.4022 -0.2640 -0.2762
 2905SOL     OW11391   5.772   1.377   3.477 -0.4684 -0.3692 -0.4908
 2905SOL    HW211392   5.773   1.463   3.437  0.1626 -0.2820 -0.3006
 2905SOL    HW311393   5.803   1.317   3.409  1.5130 -0.0953  0.1074
 2905SOL    MW411394   5.776   1.380   3.463 -0.2713 -0.6611  0.0252
 2906SOL     OW11395   3.184   0.129   0.305 -0.5676  0.5398  0.2112
 2906SOL    HW211396   3.259   0.117   0.363 -0.2045  2.5390  0.2189
 2906SOL    HW311397   3.107   0.113   0.360 -0.2163  2.0450  1.1677
 2906SOL    MW411398   3.184   0.125   0.320  0.1551  0.0776 -0.8404
 2907SOL     OW11399   3.507   1.539   4.528  0.4939  0.4399  0.3460
 2907SOL    HW211400   3.463   1.526   4.444 -0.0266 -0.1325  0.6987
 2907SOL    HW311401   3.484   1.462   4.579  1.8594  0.1579  0.5806
 2907SOL    MW411402   3.498   1.527   4.523 -0.6017  0.2465  0.0074
 2908SOL     OW11403   3.332   1.689   4.677 -0.3216  0.1263 -0.4301
 2908SOL    HW211404   3.330   1.779   4.646 -1.4924  0.8938  1.6338
 2908SOL    HW311405   3.400   1.647   4.625  2.7201  3.0766  0.7976
 2908SOL    MW411406   3.341   1.695   4.666  0.8979 -0.2134 -0.3367
 2909SOL     OW11407   1.210   1.147   6.116  0.0736 -0.2338 -0.3241
 2909SOL    HW211408   1.176   1.232   6.145  0.0936 -0.0355 -0.8552
 2909SOL    HW311409   1.237   1.103   6.196  2.1926  1.1615 -0.1867
 2909SOL    MW411410   1.209   1.153   6.130 -0.0230 -0.0246  0.3058
 2910SOL     OW11411   5.006   5.528   5.614  0.1410  0.4871  0.4813
 2910SOL    HW211412   5.100   5.547   5.613  0.0407  0.9756  0.2391
 2910SOL    HW311413   4.982   5.525   5.706  0.0513  2.0566  0.5215
 2910SOL    MW411414   5.016   5.530   5.626  0.1300 -0.2071 -0.3567
 2911SOL     OW11415   6.238   4.223   5.819  0.4635  0.3045  0.4627
 2911SOL    HW211416   6.280   4.162   5.758 -0.5644  0.1541 -0.1142
 2911SOL    HW311417   6.146   4.224   5.793  0.1415  0.8052  1.5540
 2911SOL    MW411418   6.231   4.215   5.807  0.0457 -0.4785  0.2332
 2912SOL     OW11419   5.827   5.993   3.919 -0.1266 -0.1481  0.5568
 2912SOL    HW211420   5.834   5.924   3.853  0.2673 -1.0521  1.5118
 2912SOL    HW311421   5.908   5.986   3.970  0.5876  1.9532 -0.1854
 2912SOL    MW411422   5.838   5.983   3.917  0.0576  0.7372 -0.1020
 2913SOL     OW11423   4.134   5.778   1.273  0.8997  0.4972  0.2516
 2913SOL    HW211424   4.163   5.736   1.354  0.9172  0.5933  0.2960
 2913SOL    HW311425   4.212   5.822   1.239  1.0666 -0.1415 -0.1988
 2913SOL    MW411426   4.148   5.778   1.279 -0.3280  0.0545 -0.1864
 2914SOL     OW11427   5.743   4.154   3.995  0.2545 -0.6016  0.3086
 2914SOL    HW211428   5.783   4.104   4.066  1.9003 -0.9860 -0.8548
 2914SOL    HW311429   5.668   4.198   4.037  1.0767 -0.9282  2.2309
 2914SOL    MW411430   5.738   4.153   4.010  0.5354  0.3665 -0.4008
 2915SOL     OW11431   0.169   2.507   1.895 -0.1307  0.1705  0.1187
 2915SOL    HW211432   0.200   2.580   1.949  1.3391 -0.0743 -0.3378
 2915SOL    HW311433   0.074   2.506   1.908  0.0911  0.4854  2.2216
 2915SOL    MW411434   0.161   2.517   1.904  0.0953 -0.2941  0.2082
 2916SOL     OW11435   1.791   1.649   0.696  0.0158  0.3206 -0.2362
 2916SOL    HW211436   1.866   1.620   0.748  0.1842 -2.7582 -2.0114
 2916SOL    HW311437   1.798   1.745   0.697  1.7514  0.3108  2.7277
 2916SOL    MW411438   1.802   1.658   0.703  0.0131 -0.0114 -0.7005
 2917SOL     OW11439   4.430   0.205   4.695 -0.4754 -0.1581  0.0183
 2917SOL    HW211440   4.467   0.151   4.764  2.1734 -0.3333 -1.4144
 2917SOL    HW311441   4.381   0.144   4.640 -0.6734 -0.4160  0.4774
 2917SOL    MW411442   4.428   0.190   4.697  0.4858  0.0895 -0.0284
 2918SOL     OW11443   6.353   1.316   4.273 -0.3446 -0.6721  0.0226
 2918SOL    HW211444   6.358   1.383   4.341 -1.8638 -0.1700 -0.3020
 2918SOL    HW311445   6.343   1.366   4.192 -0.4892 -1.2858 -0.3439
 2918SOL    MW411446   6.352   1.332   4.271  0.2712  0.2536  0.0137
 2919SOL     OW11447   1.711   0.965   5.382 -0.0833 -0.1831 -0.0434
 2919SOL    HW211448   1.629   1.015   5.381 -0.4230 -0.7141  0.6585
 2919SOL    HW311449   1.690   0.885   5.429 -0.1353 -2.0825 -3.0609
 2919SOL    MW411450   1.697   0.961   5.388 -0.3805 -0.0717 -0.3892
 2920SOL     OW11451   1.635   3.307   4.674 -0.4293 -0.0893  0.0419
 2920SOL    HW211452   1.601   3.298   4.763 -0.3979  0.0359  0.0672
 2920SOL    HW311453   1.650   3.401   4.664 -2.0572  0.1316 -0.6857
 2920SOL    MW411454   1.633   3.318   4.685 -0.1261  0.2263  0.1774
 2921SOL     OW11455   5.677   6.027   1.075  0.0067  0.6013 -0.4139
 2921SOL    HW211456   5.725   5.944   1.067 -0.9315  0.1474 -1.5312
 2921SOL    HW311457   5.728   6.077   1.139  0.8257 -0.6644 -0.0242
 2921SOL    MW411458   5.690   6.023   1.082 -0.0498 -0.5409  0.5141
 2922SOL     OW11459   3.733   1.324   2.733 -0.1349 -0.0156 -0.3152
 2922SOL    HW211460   3.663   1.381   2.765 -0.8739 -1.5417  0.8983
 2922SOL    HW311461   3.691   1.270   2.666 -0.2720 -1.2643  0.7525
 2922SOL    MW411462   3.718   1.325   2.728  0.4766  0.0350 -0.2166
 2923SOL     OW11463   3.310   4.151   0.625 -0.0386 -0.0506  0.4293
 2923SOL    HW211464   3.229   4.138   0.576  0.2393  1.9002 -0.6163
 2923SOL    HW311465   3.295   4.104   0.707 -0.8439 -2.6915 -1.0968
 2923SOL    MW411466   3.297   4.143   0.629  0.6498  0.4600  0.4264
 2924SOL     OW11467   1.448   4.967   3.075  0.1347 -0.1251 -0.1394
 2924SOL    HW211468   1.504   4.901   3.036  0.4404 -0.1724  0.3654
 2924SOL    HW311469   1.429   5.028   3.004  3.2421  1.5447  0.2647
 2924SOL    MW411470   1.453   4.966   3.060 -0.0091  0.0759 -0.1271
 2925SOL     OW11471   5.757   2.618   3.317 -0.8507 -0.1710  0.2157
 2925SOL    HW211472   5.757   2.609   3.222  0.9026 -0.6293  0.2185
 2925SOL    HW311473   5.793   2.705   3.333  0.0392 -0.5702  0.4550
 2925SOL    MW411474   5.762   2.628   3.307  0.1549  0.2695  0.0549
 2926SOL     OW11475   0.174   3.171   3.923  0.2700  0.5449  0.7238
 2926SOL    HW211476   0.113   3.145   3.854 -0.0391 -0.8083  1.4761
 2926SOL    HW311477   0.240   3.223   3.878 -1.1716  1.6735 -0.1845
 2926SOL    MW411478   0.175   3.174   3.908  0.2805 -0.6338  0.3678
 2927SOL     OW11479   0.157   2.634   1.619 -0.1128 -0.3906  0.1717
 2927SOL    HW211480   0.066   2.625   1.591 -0.1692 -0.2905  0.3185
 2927SOL    HW311481   0.156   2.707   1.681  0.1698 -0.0150 -0.2607
 2927SOL    MW411482   0.145   2.642   1.624 -0.0778  0.5406  0.3497
 2928SOL     OW11483   3.654   2.878   0.194  0.1513  0.3491  0.0633
 2928SOL    HW211484   3.564   2.911   0.190  0.2985  0.7484  0.0773
 2928SOL    HW311485   3.703   2.946   0.239  0.4579  0.1151  0.0861
 2928SOL    MW411486   3.648   2.891   0.199  0.1277 -0.1615  0.0472
 2929SOL     OW11487   3.858   3.569   2.405 -0.2515  0.2807  0.1448
 2929SOL    HW211488   3.781   3.562   2.461 -0.3200 -0.9162 -0.0732
 2929SOL    HW311489   3.843   3.648   2.354 -1.5174 -0.1305 -0.1613
 2929SOL    MW411490   3.846   3.578   2.406  0.1447  0.2922 -0.4245
 2930SOL     OW11491   1.850   6.178   0.443 -0.2067 -0.2281  0.4429
 2930SOL    HW211492   1.760   6.148   0.454 -0.3762  0.3265  0.6365
 2930SOL    HW311493   1.885   6.183   0.532  0.3248 -1.3245  0.3161
 2930SOL    MW411494   1.843   6.175   0.456  0.3467  0.1968 -0.3359
 2931SOL     OW11495   4.310   6.114   1.359 -0.2825 -0.2475 -0.2109
 2931SOL    HW211496   4.317   6.146   1.269 -2.2048 -4.0886 -1.9394
 2931SOL    HW311497   4.245   6.171   1.399  0.2092  1.2214 -1.3859
 2931SOL    MW411498   4.303   6.126   1.352  0.8007  0.6872 -0.5578
 2932SOL     OW11499   3.240   5.614   5.088 -0.7472  0.4906  0.1488
 2932SOL    HW211500   3.195   5.689   5.050  1.4014 -0.2318 -4.4879
 2932SOL    HW311501   3.326   5.649   5.115  0.9919 -0.3081 -3.6987
 2932SOL    MW411502   3.246   5.629   5.087  0.1291  0.4602  0.5668
 2933SOL     OW11503   1.973   1.703   5.782 -0.2408 -0.1669  0.3158
 2933SOL    HW211504   2.058   1.746   5.782 -1.2756  2.0456  1.0420
 2933SOL    HW311505   1.935   1.726   5.698 -0.3790 -0.5552  0.2740
 2933SOL    MW411506   1.979   1.712   5.771  0.2267  0.6734  0.0201
 2934SOL     OW11507   6.101   4.275   4.700  0.0494 -0.2118 -0.1289
 2934SOL    HW211508   6.177   4.217   4.702 -0.3137 -0.6845  0.1263
 2934SOL    HW311509   6.038   4.234   4.759 -0.3393  0.2669 -0.2059
 2934SOL    MW411510   6.103   4.262   4.708  0.2980  0.0446 -0.0543
 2935SOL     OW11511   4.087   3.227   0.804 -0.8160  0.0998  0.1100
 2935SOL    HW211512   4.007   3.249   0.851  0.7873  1.4328  2.4092
 2935SOL    HW311513   4.131   3.311   0.791  1.0364 -0.7582  0.5290
 2935SOL    MW411514   4.082   3.241   0.808  0.4541  0.0904 -0.1620
 2936SOL     OW11515   5.934   3.556   1.254  0.2339  0.4275  0.4423
 2936SOL    HW211516   5.840   3.538   1.257  0.7059 -3.0742 -0.9845
 2936SOL    HW311517   5.945   3.610   1.175 -0.4351 -0.5510 -0.3492
 2936SOL    MW411518   5.923   3.561   1.244 -0.7201 -0.2758  0.6737
 2937SOL     OW11519   3.683   4.267   1.878  0.1373 -0.1151  0.3069
 2937SOL    HW211520   3.670   4.172   1.874 -0.3734 -0.0186 -0.5878
 2937SOL    HW311521   3.595   4.304   1.867  0.3833  0.4612  0.2477
 2937SOL    MW411522   3.670   4.259   1.876 -0.0142  0.1162  0.3131
 2938SOL     OW11523   5.926   5.507   1.423  0.1557 -0.4319  0.5615
 2938SOL    HW211524   5.895   5.497   1.513 -1.8059  0.4587  0.0483
 2938SOL    HW311525   5.869   5.449   1.372 -1.3342  1.8070 -0.5150
 2938SOL    MW411526   5.914   5.498   1.428 -0.1505 -0.1894  0.0112
 2939SOL     OW11527   4.005   4.427   4.677  0.1361  0.1414 -0.0862
 2939SOL    HW211528   3.921   4.382   4.667  0.3752 -1.0102  2.3010
 2939SOL    HW311529   4.052   4.375   4.743  1.7717  2.0599  0.3518
 2939SOL    MW411530   4.000   4.414   4.685 -0.4785  0.2201  0.0064
 2940SOL     OW11531   5.028   6.406   3.425  0.1353  1.0111 -0.1428
 2940SOL    HW211532   4.981   6.485   3.402 -0.3832  0.7067 -0.1397
 2940SOL    HW311533   4.999   6.385   3.514 -0.2849  0.4218 -0.4111
 2940SOL    MW411534   5.018   6.413   3.434  0.0052  0.2000 -0.2281
 2941SOL     OW11535   2.224   4.057   3.631  0.0636  0.2939 -0.2876
 2941SOL    HW211536   2.295   4.020   3.578 -1.6291 -0.4334 -2.1981
 2941SOL    HW311537   2.150   3.997   3.617 -1.0784  1.2887  1.2218
 2941SOL    MW411538   2.224   4.044   3.622  0.1812 -0.4030  0.0309
 2942SOL     OW11539   1.581   2.023   5.626  0.1557  0.3517 -0.2801
 2942SOL    HW211540   1.664   2.061   5.598 -0.5299 -0.1677 -3.5183
 2942SOL    HW311541   1.515   2.076   5.580 -1.3026  0.4376  1.8046
 2942SOL    MW411542   1.583   2.035   5.616 -0.5620  0.3183  0.0318
 2943SOL     OW11543   0.415   3.672   0.057 -0.5804 -0.2757 -0.1477
 2943SOL    HW211544   0.440   3.751   0.009  0.3883 -0.1993  0.4445
 2943SOL    HW311545   0.479   3.667   0.129 -0.2475 -1.9300 -0.5291
 2943SOL    MW411546   0.427   3.682   0.060 -0.4272  0.0374  0.5517
 2944SOL     OW11547   1.728   4.222   2.595 -0.0200  0.6395  0.0784
 2944SOL    HW211548   1.689   4.265   2.671  0.5782  1.1029  0.1300
 2944SOL    HW311549   1.821   4.214   2.616  0.1916  0.9583 -0.6802
 2944SOL    MW411550   1.735   4.227   2.608  0.2332 -0.0475  0.4738
 2945SOL     OW11551   5.709   2.793   4.806  0.3182  0.1949  0.1697
 2945SOL    HW211552   5.733   2.759   4.720  1.9261 -1.0165  1.0446
 2945SOL    HW311553   5.721   2.888   4.798  2.0939 -0.0371 -0.4965
 2945SOL    MW411554   5.714   2.801   4.793 -0.1469 -0.7327  0.8755
 2946SOL     OW11555   2.457   3.473   0.729 -0.5446  0.2893 -0.0456
 2946SOL    HW211556   2.493   3.552   0.689 -1.2289  0.4335 -0.3838
 2946SOL    HW311557   2.362   3.486   0.730 -0.5983 -0.0427  0.9350
 2946SOL    MW411558   2.449   3.485   0.724  0.0050  0.2117  0.7574
 2947SOL     OW11559   1.863   2.542   2.952  0.1073  0.3848  0.0968
 2947SOL    HW211560   1.932   2.600   2.922 -1.0064  0.6672 -2.1210
 2947SOL    HW311561   1.908   2.477   3.006  2.1905  0.3035 -1.6199
 2947SOL    MW411562   1.878   2.541   2.955  0.0666  0.6884 -0.2218
 2948SOL     OW11563   1.120   4.939   1.945 -0.2999  0.3178  0.0790
 2948SOL    HW211564   1.108   5.021   1.992  0.3151 -0.2715  1.3118
 2948SOL    HW311565   1.034   4.899   1.942 -0.2958  0.2452  0.9364
 2948SOL    MW411566   1.107   4.944   1.951  0.6360  0.5190  0.2620
 2949SOL     OW11567   5.822   5.220   1.844  0.3836 -0.1258  0.0725
 2949SOL    HW211568   5.854   5.175   1.766  0.2547 -0.8739  0.4404
 2949SOL    HW311569   5.745   5.170   1.871 -0.7363  1.2569 -0.4191
 2949SOL    MW411570   5.816   5.208   1.837 -0.1904 -0.7326  0.3687
 2950SOL     OW11571   2.057   0.839   1.518  0.3433  0.0246 -0.1344
 2950SOL    HW211572   2.136   0.850   1.464 -0.3896 -0.7203 -1.3903
 2950SOL    HW311573   2.067   0.752   1.557  0.2037 -0.0183 -0.1951
 2950SOL    MW411574   2.069   0.829   1.516 -0.0687  0.3611 -0.3886
 2951SOL     OW11575   6.077   0.584   1.635  0.2810  0.0761  0.1893
 2951SOL    HW211576   5.997   0.610   1.681 -0.4577  0.8137 -1.4276
 2951SOL    HW311577   6.102   0.661   1.585  1.5413 -0.4227  0.0096
 2951SOL    MW411578   6.070   0.597   1.634 -0.0373  0.2045 -0.0082
 2952SOL     OW11579   4.136   3.967   1.107 -0.4025  0.1091 -0.4838
 2952SOL    HW211580   4.138   4.023   1.184  1.2005  0.5952 -0.8462
 2952SOL    HW311581   4.124   3.878   1.141  0.3371  0.3147  0.3311
 2952SOL    MW411582   4.135   3.963   1.121 -0.1074  0.6786 -0.4735
 2953SOL     OW11583   6.022   0.103   1.097  0.3789 -0.6418 -0.1994
 2953SOL    HW211584   6.020   0.101   1.001  0.9318 -1.6762 -0.2029
 2953SOL    HW311585   5.951   0.162   1.121  0.0090 -0.6422 -1.2448
 2953SOL    MW411586   6.012   0.111   1.087  0.1534 -0.3355  0.6557
 2954SOL     OW11587   5.449   5.732   4.595 -0.6105 -0.1174  0.0170
 2954SOL    HW211588   5.475   5.640   4.593 -1.1609 -0.2898  0.4120
 2954SOL    HW311589   5.531   5.781   4.601 -0.2768 -0.5521 -0.8340
 2954SOL    MW411590   5.463   5.726   4.595 -0.2713  0.1828 -0.2689
 2955SOL     OW11591   0.887   1.927   2.442 -0.8576  0.2099 -0.1296
 2955SOL    HW211592   0.960   1.873   2.474 -1.3791 -0.5539 -0.1962
 2955SOL    HW311593   0.886   2.002   2.501  0.4418  0.6134 -0.5748
 2955SOL    MW411594   0.897   1.929   2.454  0.3083 -0.4095  0.4749
 2956SOL     OW11595   0.414   3.173   6.353  0.2409  0.2013 -0.0734
 2956SOL    HW211596   0.421   3.238   6.283 -0.6172 -0.7767 -1.1063
 2956SOL    HW311597   0.349   3.209   6.413  0.9346  1.0196  0.1963
 2956SOL    MW411598   0.406   3.186   6.352 -0.3786  0.2061  0.1213
 2957SOL     OW11599   4.087   0.786   3.409  0.5141 -1.0221 -0.0287
 2957SOL    HW211600   4.133   0.764   3.328  0.3976 -0.0077 -0.3906
 2957SOL    HW311601   4.011   0.728   3.410 -0.5325  0.2277 -1.6434
 2957SOL    MW411602   4.083   0.775   3.398 -0.2779  0.2221  0.4921
 2958SOL     OW11603   1.440   3.324   0.032 -0.1488 -0.0776  0.1145
 2958SOL    HW211604   1.454   3.262  -0.040 -0.2117  1.1843 -1.0169
 2958SOL    HW311605   1.390   3.275   0.097  3.0415 -2.4695  1.0553
 2958SOL    MW411606   1.436   3.309   0.031  0.3639  0.3327 -0.4252
 2959SOL     OW11607   3.253   3.174   4.849  0.4436  0.0061  0.2748
 2959SOL    HW211608   3.228   3.083   4.859 -0.8372  0.2408 -0.4619
 2959SOL    HW311609   3.253   3.189   4.754 -2.2497  1.4520  0.3894
 2959SOL    MW411610   3.250   3.164   4.838  0.4407 -0.2649  0.1349
 2960SOL     OW11611   2.098   1.694   4.218 -0.4236  0.3645  0.2170
 2960SOL    HW211612   2.169   1.636   4.246  1.0100  2.7158  1.8224
 2960SOL    HW311613   2.022   1.664   4.268  0.8296  1.1120  2.7767
 2960SOL    MW411614   2.097   1.683   4.228  0.3341  0.4175 -0.0812
 2961SOL     OW11615   1.228   2.590   5.846 -0.2910  0.4417 -0.2243
 2961SOL    HW211616   1.314   2.585   5.887  1.2891  1.3303 -3.2009
 2961SOL    HW311617   1.195   2.676   5.870 -0.0022  0.4356  0.2150
 2961SOL    MW411618   1.235   2.600   5.855 -0.0935 -0.3234 -0.7598
 2962SOL     OW11619   0.619   1.831   5.180  0.0796  0.0051 -0.3868
 2962SOL    HW211620   0.671   1.866   5.253  0.1179 -1.3375  0.2617
 2962SOL    HW311621   0.684   1.805   5.115  0.1699 -0.5558 -0.0826
 2962SOL    MW411622   0.635   1.832   5.181  0.4266  0.2633 -0.6884
 2963SOL     OW11623   4.618   2.608   5.825 -0.4568  0.2462 -0.2088
 2963SOL    HW211624   4.629   2.687   5.879  1.2749 -0.3190  0.3457
 2963SOL    HW311625   4.632   2.536   5.887  1.0316 -0.4302 -1.2940
 2963SOL    MW411626   4.621   2.609   5.841  0.6442 -0.0997  0.2228
 2964SOL     OW11627   5.319   2.537   2.251 -0.4410  0.2361 -0.5964
 2964SOL    HW211628   5.349   2.614   2.203  0.6354  1.1806  1.4449
 2964SOL    HW311629   5.357   2.463   2.204  0.3939  1.1013 -1.3278
 2964SOL    MW411630   5.328   2.537   2.239 -0.1747 -0.0467 -0.1267
 2965SOL     OW11631   2.545   3.610   1.317  0.0729 -0.2826  0.0028
 2965SOL    HW211632   2.458   3.631   1.283 -0.5237 -0.1322  1.5706
 2965SOL    HW311633   2.538   3.620   1.412  1.3641 -1.8384  0.3208
 2965SOL    MW411634   2.533   3.614   1.325 -0.1378 -0.0567 -0.5315
 2966SOL     OW11635   3.518   6.349   1.571  0.0047  0.0617  0.5358
 2966SOL    HW211636   3.543   6.274   1.516  0.4022  0.0164  0.7733
 2966SOL    HW311637   3.554   6.425   1.526 -1.1194  0.2144 -0.1526
 2966SOL    MW411638   3.526   6.349   1.557 -0.2423  0.1419  0.0288
 2967SOL     OW11639   0.373   0.697   2.542  0.2912 -0.4121  0.6582
 2967SOL    HW211640   0.359   0.673   2.634 -0.2854 -0.4937  0.5494
 2967SOL    HW311641   0.338   0.623   2.492  0.1628 -0.1533  0.3617
 2967SOL    MW411642   0.367   0.684   2.547 -0.2073 -0.1524 -0.6892
 2968SOL     OW11643   4.961   0.954   2.365  0.5779  0.2053 -0.0617
 2968SOL    HW211644   4.980   0.977   2.456 -1.9338 -0.1563  0.6274
 2968SOL    HW311645   5.004   1.022   2.313  1.7764  0.5984  1.4052
 2968SOL    MW411646   4.969   0.966   2.370  0.2771 -0.7156 -0.3215
 2969SOL     OW11647   0.637   5.415   3.915 -0.4378  0.5754  0.1437
 2969SOL    HW211648   0.602   5.386   4.000  1.7643  0.9758  1.2724
 2969SOL    HW311649   0.701   5.348   3.892 -0.5224  0.8382 -0.8793
 2969SOL    MW411650   0.641   5.402   3.923  0.7759 -0.0565  0.4709
 2970SOL     OW11651   0.370   3.436   0.617  0.5129  0.0986  0.3318
 2970SOL    HW211652   0.435   3.492   0.660 -0.6202  1.0492  0.8771
 2970SOL    HW311653   0.340   3.487   0.542 -0.0084 -0.0788  0.4136
 2970SOL    MW411654   0.375   3.450   0.613 -0.3708 -0.6929  0.0879
 2971SOL     OW11655   4.121   4.812   2.087  0.3241  0.2622 -0.2798
 2971SOL    HW211656   4.171   4.879   2.041  0.8044 -0.7029 -1.1897
 2971SOL    HW311657   4.059   4.779   2.022  2.2788 -2.4657 -0.9045
 2971SOL    MW411658   4.119   4.817   2.073  0.1031  0.2156  0.8051
 2972SOL     OW11659   1.578   5.690   1.323 -0.1535 -0.2514 -0.3487
 2972SOL    HW211660   1.504   5.646   1.366  0.1440 -1.0616 -0.6443
 2972SOL    HW311661   1.580   5.778   1.362 -1.2299 -0.2410 -0.2905
 2972SOL    MW411662   1.568   5.696   1.334 -0.2567  0.2140 -0.3502
 2973SOL     OW11663   4.576   0.388   6.292 -0.7032 -0.1314 -0.2145
 2973SOL    HW211664   4.551   0.302   6.257 -0.0351  0.3477 -1.9357
 2973SOL    HW311665   4.662   0.406   6.254 -0.6594  1.1514  0.4307
 2973SOL    MW411666   4.584   0.379   6.283 -0.2340  0.1960 -0.1154
 2974SOL     OW11667   1.427   3.344   3.893  0.4641  0.7729 -0.4583
 2974SOL    HW211668   1.440   3.434   3.863  2.1529  0.7913  0.2177
 2974SOL    HW311669   1.504   3.297   3.862  0.6666  0.0663  1.0398
 2974SOL    MW411670   1.439   3.349   3.885  0.4026 -0.1746  0.5283
 2975SOL     OW11671   6.230   6.364   0.092 -0.0949  0.4497 -0.3630
 2975SOL    HW211672   6.315   6.406   0.077 -0.4098  1.4462  0.4907
 2975SOL    HW311673   6.252   6.278   0.130  0.5361  1.0739  0.7445
 2975SOL    MW411674   6.244   6.358   0.095  0.5881 -0.0885 -0.0780
 2976SOL     OW11675   1.562   6.112   4.319 -0.2135 -0.3967  0.1276
 2976SOL    HW211676   1.513   6.088   4.240  1.9613 -2.0532 -0.8258
 2976SOL    HW311677   1.653   6.119   4.290  0.5630 -0.3506  2.3649
 2976SOL    MW411678   1.568   6.110   4.304 -0.5348  0.5626  0.4513
 2977SOL     OW11679   3.755   3.547   5.929 -0.2315  0.0982  0.0952
 2977SOL    HW211680   3.770   3.497   5.849  0.4256 -0.2777  0.4443
 2977SOL    HW311681   3.735   3.635   5.898  2.5613  0.6404 -0.5040
 2977SOL    MW411682   3.755   3.552   5.915  0.1838  0.1567 -0.4395
 2978SOL     OW11683   5.043   4.171   3.227 -1.0783  0.1540 -0.5037
 2978SOL    HW211684   5.003   4.213   3.302 -2.4828 -0.0224 -1.1174
 2978SOL    HW311685   5.037   4.077   3.246  1.9959  0.1366  0.8401
 2978SOL    MW411686   5.037   4.164   3.239 -0.4902  1.0536  1.1299
 2979SOL     OW11687   0.351   4.617   3.578 -0.1526  0.8181 -0.1907
 2979SOL    HW211688   0.264   4.653   3.596 -0.8049 -0.7220 -0.0912
 2979SOL    HW311689   0.411   4.670   3.631 -0.9554  2.2585 -0.6936
 2979SOL    MW411690   0.347   4.629   3.588 -0.1767 -0.3027 -0.1140
 2980SOL     OW11691   1.272   1.105   4.352 -0.0913 -0.5445  0.7271
 2980SOL    HW211692   1.229   1.053   4.419 -1.0940 -0.7780 -0.0833
 2980SOL    HW311693   1.215   1.099   4.276  0.9739 -0.1999 -0.1272
 2980SOL    MW411694   1.259   1.098   4.351  0.9050  0.2506  1.1790
 2981SOL     OW11695   0.840   1.211   2.810  0.7619 -0.7093 -0.1901
 2981SOL    HW211696   0.872   1.124   2.788 -1.1900 -1.5946  0.2908
 2981SOL    HW311697   0.761   1.222   2.757 -0.5974 -0.4193  1.7741
 2981SOL    MW411698   0.834   1.201   2.800  0.1783 -0.2160 -0.0527
 2982SOL     OW11699   3.966   2.622   3.625 -0.3718 -0.1805 -0.2655
 2982SOL    HW211700   3.947   2.686   3.694  0.1218 -0.4921  0.1658
 2982SOL    HW311701   4.022   2.557   3.668  1.0054  0.2826 -1.2919
 2982SOL    MW411702   3.971   2.622   3.640  0.3370 -0.1327 -0.2587
 2983SOL     OW11703   0.568   5.656   2.159 -0.2601  0.3170 -0.1534
 2983SOL    HW211704   0.572   5.603   2.079  1.5191 -1.4297  1.0072
 2983SOL    HW311705   0.641   5.717   2.150 -0.8412  0.9939 -0.3980
 2983SOL    MW411706   0.578   5.657   2.147 -0.5947 -0.2849  0.5367
 2984SOL     OW11707   0.235   1.201   6.187  0.6656  0.3272  0.2125
 2984SOL    HW211708   0.286   1.269   6.143  0.2582  0.5028  0.0078
 2984SOL    HW311709   0.299   1.132   6.206  0.3509 -1.1861 -3.4747
 2984SOL    MW411710   0.250   1.201   6.184 -0.5364  0.8784 -0.3215
 2985SOL     OW11711   0.517   0.005   1.071 -0.1655 -0.5361  0.6053
 2985SOL    HW211712   0.487  -0.059   1.007 -0.7742  0.0214  0.3221
 2985SOL    HW311713   0.506  -0.039   1.155  1.0970 -1.4598  0.3309
 2985SOL    MW411714   0.512  -0.009   1.073 -0.6537  0.0389  0.2536
 2986SOL     OW11715   5.575   0.313   6.173 -0.5086 -0.0244  0.3507
 2986SOL    HW211716   5.632   0.369   6.120 -0.3616 -0.7681 -0.3029
 2986SOL    HW311717   5.616   0.311   6.259  0.2595 -0.2507 -0.0104
 2986SOL    MW411718   5.588   0.320   6.177  0.4322 -0.2157  0.1497
 2987SOL     OW11719   2.826   5.963   2.436  0.4755  0.0935  0.1570
 2987SOL    HW211720   2.920   5.967   2.417  0.6917  0.4820  1.2161
 2987SOL    HW311721   2.822   5.945   2.530 -0.4832  2.7161  0.6989
 2987SOL    MW411722   2.838   5.961   2.446 -0.1012  0.0113 -0.4411
 2988SOL     OW11723   1.940   3.334   2.194  0.5503  0.5017 -0.4119
 2988SOL    HW211724   1.981   3.413   2.159  2.3258  0.7396  1.9078
 2988SOL    HW311725   1.992   3.314   2.272 -1.1447 -1.7833  0.2167
 2988SOL    MW411726   1.953   3.342   2.200 -0.2761 -0.3892  1.1718
 2989SOL     OW11727   0.606   5.404   1.404  0.0564 -0.1230  0.2444
 2989SOL    HW211728   0.638   5.489   1.372 -1.0108  0.6867  1.2476
 2989SOL    HW311729   0.647   5.340   1.346  1.1785  1.0492 -0.3084
 2989SOL    MW411730   0.616   5.407   1.392 -0.4701  0.2041  0.4904
 2990SOL     OW11731   4.912   5.442   4.998  0.0920  0.3711  0.0565
 2990SOL    HW211732   4.864   5.360   5.014  0.5846  0.2508  1.0188
 2990SOL    HW311733   4.984   5.439   5.061  0.4921  1.2449 -0.3573
 2990SOL    MW411734   4.915   5.431   5.009 -0.7142  0.4013 -0.6643
 2991SOL     OW11735   3.533   3.960   3.669  0.0054 -0.4500  0.5149
 2991SOL    HW211736   3.495   3.889   3.721  3.3045 -3.3450 -0.5852
 2991SOL    HW311737   3.534   3.927   3.579  1.9278  0.8029 -0.0042
 2991SOL    MW411738   3.528   3.946   3.664  0.1987  0.3767 -0.0773
 2992SOL     OW11739   5.830   4.596   4.286 -0.0995 -0.4130  0.3931
 2992SOL    HW211740   5.797   4.634   4.204 -0.4228 -0.2599  0.5916
 2992SOL    HW311741   5.904   4.541   4.259 -0.1851 -0.3404  0.0025
 2992SOL    MW411742   5.836   4.594   4.271  0.5409  0.2602 -0.8499
 2993SOL     OW11743   1.133   5.229   1.020 -0.0198  0.1633  0.4090
 2993SOL    HW211744   1.140   5.223   0.924  0.8095  0.3350  0.4470
 2993SOL    HW311745   1.220   5.204   1.051 -0.7369 -1.5148  1.2090
 2993SOL    MW411746   1.146   5.225   1.011  0.0364 -0.0760  0.4177
 2994SOL     OW11747   2.693   2.820   6.190 -0.0366  0.0053  0.4178
 2994SOL    HW211748   2.655   2.891   6.138  0.3599  0.7941  1.1906
 2994SOL    HW311749   2.784   2.814   6.159 -0.0081 -0.0185  0.5066
 2994SOL    MW411750   2.700   2.828   6.179  0.3102  0.8087  0.5809
 2995SOL     OW11751   5.092   1.125   2.844  0.1097 -0.5094  0.7271
 2995SOL    HW211752   5.012   1.126   2.791  1.1452 -1.1206 -0.9538
 2995SOL    HW311753   5.100   1.215   2.876  0.4495  0.4956 -1.8818
 2995SOL    MW411754   5.083   1.137   2.841 -0.0674 -0.4619 -0.1338
 2996SOL     OW11755   1.423   5.540   3.017 -0.1479 -0.1730  0.3873
 2996SOL    HW211756   1.394   5.488   3.092 -0.8920 -1.4513 -0.7345
 2996SOL    HW311757   1.342   5.561   2.970  0.3151  0.5255 -0.1114
 2996SOL    MW411758   1.408   5.536   3.021 -0.5935  0.4541  0.1520
 2997SOL     OW11759   3.924   0.288   5.240 -0.0445  0.0194 -0.7335
 2997SOL    HW211760   3.892   0.375   5.216 -0.4052 -0.1629 -0.9309
 2997SOL    HW311761   3.898   0.278   5.332 -1.0055 -0.3165 -1.0269
 2997SOL    MW411762   3.916   0.298   5.249  0.5387  0.0384  0.2011
 2998SOL     OW11763   4.619   1.820   6.285  0.0066  0.0198 -0.1399
 2998SOL    HW211764   4.646   1.804   6.376  0.0211  1.7771  0.2056
 2998SOL    HW311765   4.541   1.766   6.274 -0.5565  0.4799  1.2502
 2998SOL    MW411766   4.612   1.811   6.296 -0.2962 -0.3636 -0.0561
 2999SOL     OW11767   2.920   0.446   3.938 -0.0479 -0.3323 -0.1637
 2999SOL    HW211768   2.936   0.375   4.000 -0.3764 -0.0486  0.2441
 2999SOL    HW311769   2.923   0.526   3.990 -1.4844 -0.1759 -0.2997
 2999SOL    MW411770   2.923   0.447   3.953 -0.4384 -1.0773  0.2625
 3000SOL     OW11771   2.108   1.063   1.675 -0.1643 -0.1353 -0.0242
 3000SOL    HW211772   2.114   0.979   1.629 -0.0265  0.3844 -0.9893
 3000SOL    HW311773   2.088   1.127   1.606 -1.5698  0.4446  0.8852
 3000SOL    MW411774   2.106   1.060   1.660  0.3317 -0.0305  0.7287
 3001SOL     OW11775   4.815   2.697   5.470  0.1401 -0.1110  0.1178
 3001SOL    HW211776   4.854   2.609   5.468 -0.8206 -0.5424 -1.1211
 3001SOL    HW311777   4.890   2.756   5.466  0.7757 -0.8817  0.3779
 3001SOL    MW411778   4.830   2.693   5.469 -0.1986  0.0210 -0.3236
 3002SOL     OW11779   3.106   5.267   1.401 -0.2125  0.6531  0.2157
 3002SOL    HW211780   3.131   5.208   1.471  0.9558  0.5039 -0.3079
 3002SOL    HW311781   3.177   5.261   1.337 -1.0510  1.0885 -0.7971
 3002SOL    MW411782   3.119   5.259   1.402 -0.2907 -0.1573 -0.3684
 3003SOL     OW11783   3.738   4.562   1.280 -0.0440  0.3458 -0.0075
 3003SOL    HW211784   3.712   4.522   1.197  1.3331 -0.3517 -0.1293
 3003SOL    HW311785   3.824   4.526   1.298 -0.3232  0.4684  1.7517
 3003SOL    MW411786   3.746   4.552   1.272 -0.5804  0.2469 -0.5227
 3004SOL     OW11787   1.653   2.677   2.756  0.6884  0.1687  0.0887
 3004SOL    HW211788   1.732   2.640   2.794  1.3425  0.1668 -1.2061
 3004SOL    HW311789   1.657   2.652   2.663 -2.0998 -2.0188  0.4300
 3004SOL    MW411790   1.664   2.669   2.748  0.1312 -0.5554 -0.1959
 3005SOL     OW11791   0.296   0.457   2.395 -0.4019 -0.1032 -0.3380
 3005SOL    HW211792   0.354   0.425   2.326  1.3651  1.9780  0.0961
 3005SOL    HW311793   0.242   0.523   2.351  0.8320  1.3373  0.2281
 3005SOL    MW411794   0.296   0.462   2.380 -0.5316  0.0788 -0.6773
 3006SOL     OW11795   0.764   5.963   1.323 -0.1797  0.1614  0.1251
 3006SOL    HW211796   0.682   5.914   1.324 -0.1589  0.1335  0.4350
 3006SOL    HW311797   0.775   5.994   1.413 -0.2288  0.7993 -0.0824
 3006SOL    MW411798   0.755   5.960   1.335  1.0460  0.2377  0.0484
 3007SOL     OW11799   4.882   1.181   0.724 -0.2140 -0.3678 -0.3857
 3007SOL    HW211800   4.950   1.170   0.658 -0.4610 -1.2480 -0.5015
 3007SOL    HW311801   4.927   1.221   0.798 -0.0061  0.9498 -1.1961
 3007SOL    MW411802   4.897   1.185   0.725  0.6128 -0.2313  0.4977
 3008SOL     OW11803   3.952   6.058   3.480  0.8254 -0.1601  0.1123
 3008SOL    HW211804   3.994   6.076   3.564  1.5537 -0.6187 -0.1388
 3008SOL    HW311805   3.861   6.085   3.492 -0.1698 -3.7665  2.3990
 3008SOL    MW411806   3.946   6.064   3.493  0.4902 -0.2388  0.0578
 3009SOL     OW11807   2.939   2.127   4.060  0.0622  0.0369  0.2691
 3009SOL    HW211808   3.012   2.189   4.065  0.2654 -0.1316 -0.5565
 3009SOL    HW311809   2.870   2.169   4.112  1.0226 -0.2256  1.8261
 3009SOL    MW411810   2.939   2.141   4.067  0.1816 -1.0043 -0.5936
 3010SOL     OW11811   3.482   6.271   0.242 -0.7361  0.3013  0.2654
 3010SOL    HW211812   3.490   6.196   0.301 -2.0747  0.5465  0.8065
 3010SOL    HW311813   3.508   6.346   0.295  1.6630  0.1633 -0.5924
 3010SOL    MW411814   3.486   6.271   0.257  0.0371  0.3888 -0.3392
 3011SOL     OW11815   4.093   6.253   1.500 -0.2361 -0.7189  0.6603
 3011SOL    HW211816   4.029   6.198   1.455 -0.2322 -1.2235  1.2506
 3011SOL    HW311817   4.055   6.270   1.586 -0.4090  0.5429  0.3588
 3011SOL    MW411818   4.080   6.248   1.506 -0.0126 -0.2963 -0.4243
 3012SOL     OW11819   0.365   5.680   5.125  0.0040  0.0502  0.0303
 3012SOL    HW211820   0.357   5.718   5.037 -0.0846  3.0895  1.2192
 3012SOL    HW311821   0.441   5.622   5.119 -0.2984 -0.2041 -2.1408
 3012SOL    MW411822   0.374   5.678   5.112  0.5728 -0.7852 -0.4672
 3013SOL     OW11823   1.811   5.655   4.097  0.1137 -0.1971  0.3189
 3013SOL    HW211824   1.766   5.570   4.106 -0.6321  0.2839  1.2643
 3013SOL    HW311825   1.817   5.668   4.002 -0.2658 -1.0431  0.1638
 3013SOL    MW411826   1.806   5.645   4.086 -0.1812 -0.7020  0.4065
 3014SOL     OW11827   1.721   3.246   0.148  1.0444  0.2923  0.1577
 3014SOL    HW211828   1.719   3.208   0.235  1.7174  3.1744  1.5763
 3014SOL    HW311829   1.633   3.284   0.136  1.1236  0.3774 -0.1867
 3014SOL    MW411830   1.709   3.246   0.158  0.1932 -0.4507  0.1384
 3015SOL     OW11831   1.707   2.771   0.733  0.1682 -0.0936 -0.2463
 3015SOL    HW211832   1.712   2.679   0.760 -0.0669  0.1460  0.6714
 3015SOL    HW311833   1.787   2.786   0.683 -0.2873 -1.0637 -1.2904
 3015SOL    MW411834   1.719   2.761   0.730  0.1685 -0.2603  0.3628
 3016SOL     OW11835   5.877   0.103   3.166 -0.2018  0.7252  0.6763
 3016SOL    HW211836   5.969   0.087   3.187  0.0959 -1.4810 -1.8014
 3016SOL    HW311837   5.877   0.126   3.074 -2.2546 -2.3610 -0.2732
 3016SOL    MW411838   5.889   0.104   3.157  0.6771  0.7171  0.3065
 3017SOL     OW11839   1.071   2.715   0.844  0.0548 -0.0303 -0.1336
 3017SOL    HW211840   1.159   2.704   0.880 -0.2352  0.8731  0.9195
 3017SOL    HW311841   1.060   2.810   0.835  0.2778 -0.1783 -3.1424
 3017SOL    MW411842   1.081   2.726   0.848 -0.1306 -0.5861 -0.2148
 3018SOL     OW11843   2.654   3.936   3.729  0.1707  0.3556  0.0367
 3018SOL    HW211844   2.718   3.873   3.763  0.1017  0.6830  0.7964
 3018SOL    HW311845   2.580   3.930   3.789  0.0839  1.0141  0.0030
 3018SOL    MW411846   2.653   3.927   3.742 -0.1695 -0.2495 -0.1779
 3019SOL     OW11847   4.064   3.465   5.525 -0.3159 -0.2217 -0.0576
 3019SOL    HW211848   4.105   3.451   5.439 -2.3071  0.8414 -1.2683
 3019SOL    HW311849   4.065   3.378   5.566  1.3490 -0.6017 -0.8018
 3019SOL    MW411850   4.070   3.452   5.519 -0.0538  0.1931  1.0276
 3020SOL     OW11851   0.196   5.359   1.869 -0.6155 -0.2601 -0.5190
 3020SOL    HW211852   0.197   5.332   1.777 -1.2603 -1.0528 -0.3042
 3020SOL    HW311853   0.125   5.424   1.874 -1.0960 -0.7805 -0.4401
 3020SOL    MW411854   0.186   5.364   1.857  0.7992  1.0889  0.1877
 3021SOL     OW11855   5.011   3.032   1.696  0.3803 -0.4975 -0.0773
 3021SOL    HW211856   5.042   3.099   1.757  0.6611 -1.1849  0.5466
 3021SOL    HW311857   4.999   3.079   1.613  2.1729  0.0038 -0.0979
 3021SOL    MW411858   5.013   3.047   1.693  0.5668 -0.5391 -0.2766
 3022SOL     OW11859   1.507   4.440   0.286 -0.2582 -0.2736  0.2356
 3022SOL    HW211860   1.512   4.516   0.228  0.8678 -1.3147 -1.0807
 3022SOL    HW311861   1.427   4.395   0.261 -0.5506  0.0771  0.5273
 3022SOL    MW411862   1.497   4.444   0.275 -0.3452  0.8264 -0.3042
 3023SOL     OW11863   0.430   2.059   6.216 -0.5731 -0.3529 -0.2051
 3023SOL    HW211864   0.374   1.987   6.184 -1.5290  0.0196  0.5638
 3023SOL    HW311865   0.400   2.136   6.167 -0.3227 -0.2615 -0.2148
 3023SOL    MW411866   0.418   2.060   6.205  0.2195 -0.2973  0.3298
 3024SOL     OW11867   0.495   5.877   3.441  0.2546 -1.1749 -0.2897
 3024SOL    HW211868   0.416   5.842   3.399 -0.2670 -0.6859  0.2722
 3024SOL    HW311869   0.560   5.878   3.371 -0.0602 -2.1322 -0.6194
 3024SOL    MW411870   0.493   5.873   3.426 -0.7049 -0.5750  0.4406
 3025SOL     OW11871   0.150   1.864   2.163  0.2962  0.4304  0.3577
 3025SOL    HW211872   0.182   1.911   2.087  1.4463  1.1166  1.2300
 3025SOL    HW311873   0.164   1.772   2.142 -1.1250  0.4942 -0.9912
 3025SOL    MW411874   0.156   1.858   2.150 -0.2659  0.6844 -0.0706
 3026SOL     OW11875   2.746   0.869   2.188  0.4469 -0.7025  0.7804
 3026SOL    HW211876   2.823   0.881   2.243 -0.0366  0.3662  1.2460
 3026SOL    HW311877   2.696   0.800   2.231  0.0959  0.0942  1.6678
 3026SOL    MW411878   2.750   0.861   2.201  0.0004  0.5070 -0.5108
 3027SOL     OW11879   1.139   0.294   1.589  0.4453  0.1370  0.0509
 3027SOL    HW211880   1.176   0.239   1.659  2.8627 -0.5671 -1.6156
 3027SOL    HW311881   1.153   0.384   1.619 -1.0004 -0.1066  1.5861
 3027SOL    MW411882   1.146   0.298   1.602 -0.2020  1.0168 -0.2015
 3028SOL     OW11883   4.247   5.564   1.571 -0.2494 -0.1018 -0.0312
 3028SOL    HW211884   4.291   5.634   1.619  1.0350 -0.1042 -1.1541
 3028SOL    HW311885   4.295   5.558   1.488 -1.5749 -0.9875 -0.7677
 3028SOL    MW411886   4.259   5.573   1.566  0.3042 -0.6048  0.3623
 3029SOL     OW11887   5.200   3.119   3.130 -0.2647  0.5358  0.3365
 3029SOL    HW211888   5.186   3.040   3.079  0.0022 -0.8607  2.3172
 3029SOL    HW311889   5.279   3.158   3.093  0.2096 -0.7023 -0.0098
 3029SOL    MW411890   5.209   3.114   3.119 -0.2744  0.4399 -0.1478
 3030SOL     OW11891   6.396   1.280   0.345 -0.3179 -0.0381 -0.5539
 3030SOL    HW211892   6.306   1.265   0.318 -0.0793 -0.5392 -1.1057
 3030SOL    HW311893   6.446   1.212   0.299  0.4800  0.9327 -1.1618
 3030SOL    MW411894   6.391   1.269   0.335  0.5979 -0.3475  0.4651
 3031SOL     OW11895   3.848   5.051   6.284  0.0915 -0.4563  0.2353
 3031SOL    HW211896   3.872   5.045   6.376 -0.8779  0.8670  0.6019
 3031SOL    HW311897   3.853   4.961   6.252  1.8125 -0.7458  1.2071
 3031SOL    MW411898   3.852   5.038   6.292  0.5275 -0.1350  0.4160
 3032SOL     OW11899   0.831   4.974   5.634 -0.2948  0.5017  0.2276
 3032SOL    HW211900   0.874   4.890   5.617 -0.2451  1.1320 -3.7072
 3032SOL    HW311901   0.903   5.037   5.636 -0.5543  0.8063 -0.0251
 3032SOL    MW411902   0.846   4.971   5.632 -0.1370 -0.0021 -0.2837
 3033SOL     OW11903   5.048   3.897   5.000 -0.2611 -0.6777 -0.0153
 3033SOL    HW211904   5.069   3.911   4.908 -1.0627 -1.3898 -0.3216
 3033SOL    HW311905   5.052   3.985   5.039 -0.7581 -0.2392 -0.9078
 3033SOL    MW411906   5.051   3.911   4.993 -0.2065 -0.0912  0.6392
 3034SOL     OW11907   5.299   3.275   4.650 -0.7015  0.2533 -0.4872
 3034SOL    HW211908   5.263   3.202   4.701 -0.7694  0.0947 -0.7621
 3034SOL    HW311909   5.389   3.251   4.633  0.6318  2.0539  2.9493
 3034SOL    MW411910   5.306   3.262   4.655  0.2265 -0.3401  0.4412
 3035SOL     OW11911   2.706   4.169   3.878  0.3455  0.0784  0.2354
 3035SOL    HW211912   2.674   4.088   3.839  0.4765 -0.1601  0.6151
 3035SOL    HW311913   2.768   4.140   3.945  0.5051  0.4973  0.2691
 3035SOL    MW411914   2.710   4.154   3.882  0.5362  0.1114 -0.3688
 3036SOL     OW11915   2.059   3.507   3.840 -0.1120  0.0591 -0.1328
 3036SOL    HW211916   2.119   3.440   3.873 -1.6687 -1.6564 -0.5622
 3036SOL    HW311917   2.076   3.509   3.745 -1.7101 -1.6218 -0.5299
 3036SOL    MW411918   2.069   3.498   3.832  0.2453 -0.5372  0.1687
 3037SOL     OW11919   2.628   1.570   5.875 -0.4765 -0.4512 -0.2357
 3037SOL    HW211920   2.586   1.553   5.959  1.5223  2.4256  1.4952
 3037SOL    HW311921   2.588   1.651   5.843 -0.2142 -0.7449 -1.3763
 3037SOL    MW411922   2.617   1.578   5.882  0.6370 -0.2669 -0.3024
 3038SOL     OW11923   2.191   5.173   2.598 -0.0877  0.5381 -0.3283
 3038SOL    HW211924   2.264   5.121   2.563 -0.1604  0.3592 -0.2155
 3038SOL    HW311925   2.232   5.231   2.663 -0.1474 -0.0753  0.2726
 3038SOL    MW411926   2.206   5.174   2.602  0.0546 -0.3119  1.3094
 3039SOL     OW11927   4.150   5.716   0.892 -0.5481  0.3532 -0.4067
 3039SOL    HW211928   4.140   5.715   0.797 -0.4137 -0.4429 -0.4195
 3039SOL    HW311929   4.145   5.624   0.918  2.7452  0.1518 -0.0292
 3039SOL    MW411930   4.148   5.704   0.883  0.3296 -0.5892 -0.0353
 3040SOL     OW11931   3.520   3.410   3.179 -0.7426  0.1999 -0.2787
 3040SOL    HW211932   3.496   3.461   3.257 -0.4040 -0.6642  0.4120
 3040SOL    HW311933   3.599   3.362   3.205 -0.2207  0.4280 -1.3979
 3040SOL    MW411934   3.527   3.411   3.193  0.6148  1.2186 -0.1840
 3041SOL     OW11935   4.389   1.585   1.728 -0.0491  0.2279 -0.2148
 3041SOL    HW211936   4.379   1.579   1.823  1.1529 -0.9456 -0.1350
 3041SOL    HW311937   4.360   1.500   1.696  1.3641 -0.0793 -0.7174
 3041SOL    MW411938   4.383   1.573   1.737 -0.1069 -0.4382  0.3693
 3042SOL     OW11939   1.445   0.237   3.191 -0.0198 -0.0362  0.5038
 3042SOL    HW211940   1.508   0.166   3.177 -1.5908 -1.7805  1.8369
 3042SOL    HW311941   1.361   0.193   3.199 -1.3177  2.1503 -0.2242
 3042SOL    MW411942   1.442   0.222   3.190 -0.2467  0.5589  0.3885
 3043SOL     OW11943   0.156   3.925   4.279 -0.1420  0.9844  0.7933
 3043SOL    HW211944   0.121   3.926   4.368 -1.2773  1.9634  0.3763
 3043SOL    HW311945   0.079   3.940   4.224  0.5932  0.7281 -0.3258
 3043SOL    MW411946   0.141   3.927   4.283  0.3953  0.9933  1.0217
 3044SOL     OW11947   5.905   0.643   2.521 -0.5398 -0.2865  0.1300
 3044SOL    HW211948   5.966   0.666   2.592 -1.0308  0.9527  0.1810
 3044SOL    HW311949   5.894   0.548   2.529  1.3613 -0.5649  0.1205
 3044SOL    MW411950   5.912   0.634   2.532  0.1390  0.0903  0.1254
 3045SOL     OW11951   2.808   3.519   3.925 -0.3335  0.5141  0.0723
 3045SOL    HW211952   2.757   3.523   4.006  0.1333  1.2016  0.3391
 3045SOL    HW311953   2.779   3.438   3.883 -0.8073  0.3079  0.7730
 3045SOL    MW411954   2.797   3.509   3.930 -0.0932  0.0350  0.6002
 3046SOL     OW11955   4.774   4.896   2.862  0.2250  0.0065  0.5433
 3046SOL    HW211956   4.699   4.947   2.831  0.4590  0.1270  0.1701
 3046SOL    HW311957   4.735   4.823   2.910 -0.1428 -0.0866  0.1142
 3046SOL    MW411958   4.759   4.893   2.864  0.3737 -0.2125 -0.0891
 3047SOL     OW11959   1.717   4.331   0.434  0.3196 -0.1288  0.2224
 3047SOL    HW211960   1.638   4.364   0.392  0.3216 -1.4400 -0.8859
 3047SOL    HW311961   1.708   4.235   0.430  2.2241 -0.3112 -0.4669
 3047SOL    MW411962   1.705   4.323   0.428  0.2642  0.0878 -0.3409
 3048SOL     OW11963   1.483   1.745   5.340 -0.5653  0.6262 -0.0403
 3048SOL    HW211964   1.501   1.671   5.282 -2.3271 -0.8642  1.1665
 3048SOL    HW311965   1.544   1.813   5.313  0.4688 -0.9281 -1.8506
 3048SOL    MW411966   1.493   1.744   5.329 -0.1432 -0.2101 -0.1669
 3049SOL     OW11967   2.754   3.427   5.220 -0.3334  0.3946  0.1734
 3049SOL    HW211968   2.724   3.406   5.309 -2.2559 -0.6763 -0.6730
 3049SOL    HW311969   2.676   3.462   5.177  0.0639 -0.8615 -1.6401
 3049SOL    MW411970   2.740   3.429   5.226 -0.1172  0.0956  0.3316
 3050SOL     OW11971   3.991   3.338   0.517  0.0743 -0.2542  0.6667
 3050SOL    HW211972   4.062   3.402   0.525 -1.1645  1.1920  0.5795
 3050SOL    HW311973   4.020   3.264   0.571  2.4962 -0.5803 -0.8888
 3050SOL    MW411974   4.004   3.337   0.525  0.2544 -0.3719 -0.2587
 3051SOL     OW11975   3.295   5.887   3.844 -0.6995  0.4095  0.0863
 3051SOL    HW211976   3.252   5.874   3.928  0.1090 -0.6948  0.3602
 3051SOL    HW311977   3.258   5.819   3.787  1.7267 -1.7125  0.7895
 3051SOL    MW411978   3.285   5.876   3.847  0.1560  0.3497 -0.4315
 3052SOL     OW11979   5.216   1.139   5.744 -0.3262  0.3766  0.3118
 3052SOL    HW211980   5.151   1.070   5.761  0.8299 -0.9558 -0.4061
 3052SOL    HW311981   5.291   1.113   5.798  0.0466  1.2313  0.2125
 3052SOL    MW411982   5.217   1.126   5.754  0.0515  0.1572 -0.7504
 3053SOL     OW11983   5.289   5.574   5.504 -0.1548  0.4453 -0.3123
 3053SOL    HW211984   5.264   5.624   5.426  0.6498  0.0525 -0.8391
 3053SOL    HW311985   5.369   5.529   5.478  0.1050  0.2861  0.7459
 3053SOL    MW411986   5.296   5.575   5.490  0.2603  0.2513  0.2999
 3054SOL     OW11987   3.166   0.828   0.293 -0.1017 -0.2870 -0.7061
 3054SOL    HW211988   3.200   0.754   0.244 -0.6586 -0.5690 -0.6804
 3054SOL    HW311989   3.243   0.874   0.325  0.2593 -1.6020  0.3925
 3054SOL    MW411990   3.180   0.825   0.291  0.0783 -0.4933  0.7276
 3055SOL     OW11991   5.456   3.519   1.932 -0.1353  0.2466 -0.0221
 3055SOL    HW211992   5.539   3.557   1.960  0.5557 -2.7583  2.5669
 3055SOL    HW311993   5.392   3.554   1.994 -0.3326  0.5049 -0.3657
 3055SOL    MW411994   5.458   3.529   1.944  0.1595 -0.6088 -0.2714
 3056SOL     OW11995   1.801   1.755   4.665 -0.2367  0.4349  0.2778
 3056SOL    HW211996   1.895   1.773   4.675  0.0643 -0.5530 -0.5586
 3056SOL    HW311997   1.784   1.681   4.724 -0.5078  0.6661  0.4909
 3056SOL    MW411998   1.811   1.747   4.674 -0.5745 -0.0873  0.1595
 3057SOL     OW11999   3.975   0.630   1.761  0.1884  0.1524  0.5878
 3057SOL    HW212000   3.894   0.637   1.710 -1.2354 -2.6171  2.1970
 3057SOL    HW312001   3.946   0.599   1.847  2.9193 -0.1673  1.4790
 3057SOL    MW412002   3.961   0.627   1.766  0.7220 -0.1361  0.1242
 3058SOL     OW12003   1.545   5.917   2.797 -0.9798 -0.1889 -0.0301
 3058SOL    HW212004   1.494   5.992   2.829  1.8023  1.8435 -0.0222
 3058SOL    HW312005   1.544   5.927   2.702  0.8137  0.9655  0.0262
 3058SOL    MW412006   1.538   5.928   2.789 -0.0018 -0.3500  0.2455
 3059SOL     OW12007   3.881   3.345   3.917 -0.3671  0.6890 -0.2682
 3059SOL    HW212008   3.843   3.419   3.870  0.0219  0.6046 -0.7322
 3059SOL    HW312009   3.976   3.355   3.905 -0.3378 -0.2932 -0.9810
 3059SOL    MW412010   3.889   3.356   3.909  0.6183 -0.1325 -0.3317
 3060SOL     OW12011   1.621   5.037   4.067  0.1948 -0.4793 -0.0094
 3060SOL    HW212012   1.703   5.071   4.031  1.3629 -3.4527 -0.4550
 3060SOL    HW312013   1.600   4.963   4.011 -1.5929 -1.1801  1.4990
 3060SOL    MW412014   1.629   5.032   4.055  0.2066 -0.3159 -0.6140
 3061SOL     OW12015   1.650   5.028   6.046 -0.0067  0.0556 -0.2375
 3061SOL    HW212016   1.684   4.979   6.121 -1.9100  1.6415  1.8067
 3061SOL    HW312017   1.719   5.092   6.026  1.1471 -1.3180 -0.8996
 3061SOL    MW412018   1.664   5.030   6.053  0.0527  0.0679 -0.8422
 3062SOL     OW12019   0.441   3.341   6.125  0.1184 -0.1021  0.1789
 3062SOL    HW212020   0.366   3.307   6.077 -0.5234 -1.8785  2.2895
 3062SOL    HW312021   0.516   3.326   6.067 -0.8189 -0.5103 -0.9696
 3062SOL    MW412022   0.441   3.335   6.111  0.1791 -0.0607 -0.2332
 3063SOL     OW12023   4.610   0.712   4.791  0.1257  0.3872  0.0991
 3063SOL    HW212024   4.687   0.661   4.768 -0.8493 -0.8127 -0.6205
 3063SOL    HW312025   4.556   0.653   4.844 -0.0835  1.3722  1.0260
 3063SOL    MW412026   4.613   0.698   4.795 -0.4289  0.2640  0.3309
 3064SOL     OW12027   0.115   1.280   1.467  0.3246 -0.6370 -0.3152
 3064SOL    HW212028   0.093   1.186   1.462 -0.2513 -0.5497  0.3419
 3064SOL    HW312029   0.087   1.315   1.382  2.1697 -1.3564 -1.2793
 3064SOL    MW412030   0.108   1.272   1.455 -0.2954  0.4650  0.3387
 3065SOL     OW12031   1.139   2.713   4.150 -0.4167  0.0562  0.2735
 3065SOL    HW212032   1.061   2.711   4.205  1.3601 -1.9383  2.9119
 3065SOL    HW312033   1.138   2.629   4.103 -0.8650  0.8978 -1.2974
 3065SOL    MW412034   1.128   2.702   4.151 -0.7061  0.0216 -0.5283
 3066SOL     OW12035   4.804   5.606   3.584  0.3236 -0.3907 -0.4649
 3066SOL    HW212036   4.891   5.578   3.612 -0.4742 -0.3201  2.4109
 3066SOL    HW312037   4.745   5.538   3.617 -1.0019  1.2379  0.6920
 3066SOL    MW412038   4.808   5.593   3.592  0.2366  0.4849 -0.1142
 3067SOL     OW12039   6.276   2.543   2.272  0.1245 -0.0713  0.3432
 3067SOL    HW212040   6.267   2.461   2.223 -0.4989  0.4586 -0.4600
 3067SOL    HW312041   6.238   2.609   2.214 -0.0660  0.6679  1.2988
 3067SOL    MW412042   6.270   2.540   2.258  0.1166  0.3109  0.4780
 3068SOL     OW12043   0.232   0.425   3.840  0.1104 -0.9672 -0.5195
 3068SOL    HW212044   0.286   0.350   3.867 -1.5412 -1.3033  2.2541
 3068SOL    HW312045   0.204   0.465   3.922  0.0494  2.1353 -1.9119
 3068SOL    MW412046   0.236   0.420   3.854  0.2815 -0.4601 -0.2045
 3069SOL     OW12047   4.522   5.055   4.743  0.5132 -0.5930 -0.0160
 3069SOL    HW212048   4.441   5.093   4.777  0.5597 -2.0080  1.8185
 3069SOL    HW312049   4.507   5.048   4.649 -0.9054  0.5120  0.0829
 3069SOL    MW412050   4.509   5.059   4.735 -0.3934  0.3259 -0.5057
 3070SOL     OW12051   3.000   3.069   3.732  0.0298 -0.1574 -0.2688
 3070SOL    HW212052   2.915   3.032   3.756  0.3851 -0.8604 -0.0559
 3070SOL    HW312053   2.980   3.156   3.696 -0.6006  0.6505  1.8776
 3070SOL    MW412054   2.987   3.076   3.731  0.5568 -0.0111 -0.4133
 3071SOL     OW12055   5.279   1.099   1.400  0.0122  0.1900 -0.3206
 3071SOL    HW212056   5.261   1.177   1.347 -0.1149  0.4007  0.0305
 3071SOL    HW312057   5.207   1.097   1.463  0.2648  0.0431 -0.0391
 3071SOL    MW412058   5.267   1.109   1.401 -0.2382  0.0792  0.6252
 3072SOL     OW12059   6.118   0.946   3.604 -0.1455  0.2205 -0.1758
 3072SOL    HW212060   6.114   0.856   3.571  0.7202  0.1696 -0.1718
 3072SOL    HW312061   6.029   0.964   3.636 -0.1018 -0.9694  0.7027
 3072SOL    MW412062   6.106   0.936   3.604 -0.6395  0.2262  0.1877
 3073SOL     OW12063   6.015   2.801   3.715  0.4899  0.0814  0.2802
 3073SOL    HW212064   5.937   2.841   3.753  0.3647 -0.0158  0.1265
 3073SOL    HW312065   6.026   2.719   3.762  1.5018  0.8882  1.5084
 3073SOL    MW412066   6.006   2.796   3.726 -0.1759 -0.0216  0.1650
 3074SOL     OW12067   1.723   3.571   4.666  0.0757 -0.1950  0.7186
 3074SOL    HW212068   1.756   3.547   4.752  1.1970  0.3215  0.4500
 3074SOL    HW312069   1.795   3.552   4.606 -0.4509  0.0785 -0.0219
 3074SOL    MW412070   1.737   3.565   4.669 -0.4621 -0.2455  0.1391
 3075SOL     OW12071   3.963   5.605   6.339  0.0587 -0.5873  0.0825
 3075SOL    HW212072   3.932   5.540   6.276  0.0405 -0.8665  0.3783
 3075SOL    HW312073   3.888   5.664   6.350  0.3757  0.0026 -0.8590
 3075SOL    MW412074   3.949   5.604   6.332  0.2896  0.0746 -0.2292
 3076SOL     OW12075   5.817   1.422   1.447  0.3145  0.9102  0.1726
 3076SOL    HW212076   5.766   1.364   1.391 -0.5552 -0.0661  1.8918
 3076SOL    HW312077   5.780   1.509   1.432 -0.6565  0.4857  0.0524
 3076SOL    MW412078   5.805   1.426   1.438  0.5306 -0.4680  0.5952
 3077SOL     OW12079   2.211   1.146   6.143 -0.1228 -0.0520  0.2562
 3077SOL    HW212080   2.274   1.191   6.088 -1.8189  2.0595 -0.1015
 3077SOL    HW312081   2.155   1.098   6.082 -1.9302  2.1948  0.0109
 3077SOL    MW412082   2.212   1.145   6.128 -0.2200 -0.4981 -1.2027
 3078SOL     OW12083   2.082   0.460   5.784  0.1705 -0.0130 -0.0039
 3078SOL    HW212084   2.020   0.532   5.790  0.8280  0.6279 -0.6004
 3078SOL    HW312085   2.028   0.383   5.769 -0.5465  0.3437  0.6666
 3078SOL    MW412086   2.067   0.460   5.783  0.0190  0.2292  0.0574
 3079SOL     OW12087   4.078   1.486   2.119  0.4185 -0.0779 -0.3621
 3079SOL    HW212088   4.049   1.576   2.133  0.6077  0.1679 -1.4598
 3079SOL    HW312089   4.170   1.495   2.092  0.5113 -0.6178 -0.2315
 3079SOL    MW412090   4.087   1.499   2.118  0.1419 -0.3117  0.0662
 3080SOL     OW12091   1.718   1.417   2.497  0.1505  0.0421 -0.1335
 3080SOL    HW212092   1.628   1.450   2.500  0.2105  0.2375 -0.4284
 3080SOL    HW312093   1.732   1.377   2.582 -0.0792  0.3748  0.0625
 3080SOL    MW412094   1.708   1.416   2.508  0.7245 -0.2109 -0.3366
 3081SOL     OW12095   3.424   4.141   5.715 -0.2844 -0.0912  0.3625
 3081SOL    HW212096   3.336   4.102   5.712  0.0171 -0.7932  0.4667
 3081SOL    HW312097   3.408   4.235   5.716 -1.0106 -0.1934 -0.6267
 3081SOL    MW412098   3.410   4.148   5.715  0.5067  0.2499 -0.2252
 3082SOL     OW12099   0.688   4.970   1.148 -0.3250  0.2844  0.7017
 3082SOL    HW212100   0.781   4.946   1.152 -0.7193 -1.3117  1.0332
 3082SOL    HW312101   0.685   5.060   1.179  0.8471 -0.4685  3.3532
 3082SOL    MW412102   0.700   4.979   1.153 -0.2451  0.0128 -0.0482
 3083SOL     OW12103   4.098   4.168   1.653  0.1440  0.0853 -0.4352
 3083SOL    HW212104   4.034   4.233   1.624 -0.3897 -0.9669 -1.7379
 3083SOL    HW312105   4.159   4.217   1.708 -0.8871  1.4357 -0.4454
 3083SOL    MW412106   4.098   4.183   1.656  0.3254  0.6256  0.0718
 3084SOL     OW12107   1.609   5.733   0.995 -0.6085 -0.0448  0.7339
 3084SOL    HW212108   1.582   5.652   1.038 -0.5526 -0.2454  0.3932
 3084SOL    HW312109   1.656   5.782   1.063 -0.5767 -0.3284  0.9188
 3084SOL    MW412110   1.611   5.729   1.010 -0.7503  0.3520  0.2182
 3085SOL     OW12111   0.139   1.174   4.485  0.3525  0.4405  0.3094
 3085SOL    HW212112   0.064   1.192   4.429  1.5917  0.2227 -1.4950
 3085SOL    HW312113   0.130   1.081   4.507  0.3362  0.2968 -0.2835
 3085SOL    MW412114   0.128   1.164   4.481 -0.2440 -0.0514  0.1818
 3086SOL     OW12115   2.946   3.633   3.160 -1.1642  0.0296 -0.0058
 3086SOL    HW212116   2.925   3.552   3.113 -1.6223 -1.3679  2.4230
 3086SOL    HW312117   2.865   3.684   3.156 -1.3805 -0.3263 -0.2865
 3086SOL    MW412118   2.933   3.629   3.153  0.1335 -0.2816  0.3332
 3087SOL     OW12119   4.291   1.904   1.969 -0.2546 -0.3920  0.2378
 3087SOL    HW212120   4.330   1.991   1.965  0.4797 -0.7073  0.3699
 3087SOL    HW312121   4.213   1.914   2.023 -0.8362  0.4229 -0.7154
 3087SOL    MW412122   4.286   1.916   1.975  0.2034 -0.1871 -0.3567
 3088SOL     OW12123   0.496   5.916   1.880  0.0591 -0.1544 -0.7981
 3088SOL    HW212124   0.498   5.900   1.786  0.6927  3.1608 -1.4754
 3088SOL    HW312125   0.416   5.968   1.893  1.1608  1.3832  0.0634
 3088SOL    MW412126   0.486   5.920   1.869 -0.1864 -0.1386 -0.2408
 3089SOL     OW12127   5.225   2.989   2.007  0.1486  0.7752 -0.0249
 3089SOL    HW212128   5.277   3.069   2.000  0.4430  0.6063  0.2356
 3089SOL    HW312129   5.219   2.955   1.918  2.1334 -0.2664  0.2026
 3089SOL    MW412130   5.231   2.995   1.995  0.3400  0.3832  0.1899
 3090SOL     OW12131   0.133   4.293   0.653  0.6968 -0.1349 -0.8409
 3090SOL    HW212132   0.047   4.319   0.686  0.5495  1.3599 -2.2560
 3090SOL    HW312133   0.182   4.269   0.731  0.0733  2.3159  0.4301
 3090SOL    MW412134   0.128   4.293   0.667  0.1059  0.6266 -0.0876
 3091SOL     OW12135   1.179   0.854   1.352  0.0709  0.7705  0.2766
 3091SOL    HW212136   1.114   0.797   1.393  1.2714 -0.7450  0.1636
 3091SOL    HW312137   1.221   0.899   1.425  1.3678 -1.0031  0.6831
 3091SOL    MW412138   1.176   0.852   1.367 -0.0837  0.1330 -0.3034
 3092SOL     OW12139   3.971   0.506   0.069  0.0605 -0.1003 -0.0622
 3092SOL    HW212140   3.952   0.599   0.081  2.4279  0.6628 -1.6056
 3092SOL    HW312141   3.936   0.486  -0.018 -1.4946 -1.0251  0.7273
 3092SOL    MW412142   3.964   0.515   0.059 -0.0906 -0.2227  0.8033
 3093SOL     OW12143   4.073   1.418   5.321  0.0968 -0.2100  1.1603
 3093SOL    HW212144   4.134   1.385   5.255  0.0520 -0.3169  1.1717
 3093SOL    HW312145   4.046   1.340   5.369  0.3812 -0.0924  1.5195
 3093SOL    MW412146   4.078   1.404   5.319  0.2355  0.0450 -0.3690
 3094SOL     OW12147   1.673   4.267   5.489  0.0586 -0.1185  0.2169
 3094SOL    HW212148   1.699   4.355   5.515  0.2055 -0.4690  1.2972
 3094SOL    HW312149   1.584   4.277   5.454  0.3239  0.5507 -0.2744
 3094SOL    MW412150   1.664   4.280   5.488 -0.5307 -0.2052  0.3034
 3095SOL     OW12151   3.824   3.170   3.682  0.3040 -0.7488 -0.3089
 3095SOL    HW212152   3.892   3.193   3.619  0.4538 -0.6312 -0.1077
 3095SOL    HW312153   3.819   3.245   3.741 -1.6871  0.3164 -1.7009
 3095SOL    MW412154   3.832   3.183   3.682  0.0435  0.6879 -0.2092
 3096SOL     OW12155   4.217   1.045   3.168 -0.1396 -0.1690  0.5169
 3096SOL    HW212156   4.241   1.131   3.136 -0.6813  0.9838  2.9906
 3096SOL    HW312157   4.297   1.010   3.207 -0.2271 -0.2646  0.6109
 3096SOL    MW412158   4.230   1.051   3.169  0.2740 -0.4762 -0.4511
 3097SOL     OW12159   5.009   4.447   3.788 -0.9083  0.3212  0.2626
 3097SOL    HW212160   4.937   4.438   3.726  0.5518  0.4010 -1.5113
 3097SOL    HW312161   5.016   4.360   3.829 -0.3049 -0.5046 -1.5158
 3097SOL    MW412162   5.000   4.434   3.785  0.0090  0.3978 -0.0494
 3098SOL     OW12163   0.715   4.583   3.930 -0.3831 -0.3139  0.0980
 3098SOL    HW212164   0.788   4.634   3.895  0.5866 -0.9837  1.0624
 3098SOL    HW312165   0.676   4.640   3.996 -0.7687  0.0568 -0.4394
 3098SOL    MW412166   0.719   4.597   3.934 -0.7946 -0.5624  0.0393
 3099SOL     OW12167   3.704   6.413   0.397 -0.2868  0.1354 -0.0170
 3099SOL    HW212168   3.763   6.371   0.335  0.3106 -0.6631  1.0518
 3099SOL    HW312169   3.710   6.359   0.476 -1.5519  0.7185  0.5080
 3099SOL    MW412170   3.713   6.400   0.399  0.0986  0.1663  0.0142
 3100SOL     OW12171   2.168   2.353   6.017  0.1374 -0.4373  0.4180
 3100SOL    HW212172   2.206   2.285   6.072  0.5568 -0.0761  0.5739
 3100SOL    HW312173   2.189   2.326   5.927  0.0755 -0.6498  0.4676
 3100SOL    MW412174   2.176   2.340   6.012  0.4429 -0.4019 -0.2125
 3101SOL     OW12175   0.065   1.110   0.142 -0.5399  0.4501  0.9101
 3101SOL    HW212176   0.092   1.189   0.094 -0.2837  0.5534  1.2250
 3101SOL    HW312177   0.006   1.065   0.082 -0.3793  0.6839  0.5746
 3101SOL    MW412178   0.061   1.115   0.128 -0.4764 -0.2114  0.6435
 3102SOL     OW12179   5.825   1.037   2.337  0.5514 -0.0996  0.1178
 3102SOL    HW212180   5.766   1.091   2.285 -0.0122 -0.2347  0.6022
 3102SOL    HW312181   5.792   0.948   2.324  0.7107 -0.1855  0.3129
 3102SOL    MW412182   5.813   1.032   2.328  0.4162  0.5679 -0.0297
 3103SOL     OW12183   2.377   0.815   3.446 -0.2201  0.4391  0.3927
 3103SOL    HW212184   2.317   0.741   3.447 -1.3111  1.1286 -3.1823
 3103SOL    HW312185   2.462   0.777   3.467 -0.9338 -1.6436 -0.2666
 3103SOL    MW412186   2.380   0.800   3.449 -0.8332  0.1004  0.5193
 3104SOL     OW12187   0.478   5.175   5.923 -0.4103 -0.3009 -0.3093
 3104SOL    HW212188   0.422   5.227   5.865 -0.3452  2.0453  1.5807
 3104SOL    HW312189   0.515   5.108   5.866 -0.3295  1.8347 -2.9845
 3104SOL    MW412190   0.475   5.173   5.908  0.4050 -0.4295  0.3227
 3105SOL     OW12191   5.606   2.847   2.759  0.4596  0.1695  0.1570
 3105SOL    HW212192   5.572   2.881   2.677  1.6227  0.2990 -0.2813
 3105SOL    HW312193   5.561   2.763   2.770  0.0367  0.3114 -0.4248
 3105SOL    MW412194   5.595   2.840   2.750 -0.0957 -0.3314 -0.1123
 3106SOL     OW12195   5.932   2.746   1.911 -0.7919 -0.3320 -0.1162
 3106SOL    HW212196   5.905   2.830   1.873 -4.2853 -1.2611  0.0465
 3106SOL    HW312197   5.888   2.680   1.858  0.1905 -2.0059  1.0556
 3106SOL    MW412198   5.923   2.749   1.899 -0.1982 -0.3726  0.2001
 3107SOL     OW12199   1.440   3.712   2.941 -0.1411 -0.2168 -0.7435
 3107SOL    HW212200   1.369   3.753   2.892  0.3981 -0.2202 -1.5484
 3107SOL    HW312201   1.500   3.681   2.873  0.8748  0.2310 -0.0652
 3107SOL    MW412202   1.438   3.713   2.925 -0.4355  0.2404  0.2203
 3108SOL     OW12203   4.679   1.099   5.409 -0.4715 -0.0868  0.6938
 3108SOL    HW212204   4.698   1.009   5.385  0.2442  0.2522 -0.0266
 3108SOL    HW312205   4.716   1.109   5.497 -0.3801 -0.4323  0.6937
 3108SOL    MW412206   4.686   1.089   5.418  0.9823  1.1075  0.3233
 3109SOL     OW12207   3.725   0.229   0.770 -0.0966  0.0387 -0.0488
 3109SOL    HW212208   3.781   0.292   0.815  1.7770 -1.2737 -0.4357
 3109SOL    HW312209   3.745   0.241   0.677 -1.2481  0.2237 -0.2985
 3109SOL    MW412210   3.735   0.239   0.764  0.0786 -0.6200 -0.2007
 3110SOL     OW12211   0.429   2.594   3.149  0.1934 -0.1806 -0.2933
 3110SOL    HW212212   0.393   2.533   3.213  1.2346 -0.1977  0.2946
 3110SOL    HW312213   0.407   2.556   3.064  2.1316 -2.2220  0.0340
 3110SOL    MW412214   0.421   2.581   3.147  0.0799  0.0822 -0.2054
 3111SOL     OW12215   4.089   1.753   5.478 -0.1118 -0.6009 -0.0185
 3111SOL    HW212216   4.139   1.800   5.411  1.1090 -2.8928 -0.8206
 3111SOL    HW312217   4.001   1.791   5.474  1.0481  2.3426  0.1997
 3111SOL    MW412218   4.084   1.764   5.469 -0.5948  0.3174  0.3310
 3112SOL     OW12219   3.642   3.354   1.040  0.2408  0.2078  0.5816
 3112SOL    HW212220   3.546   3.351   1.048  0.1926 -0.5620 -0.1424
 3112SOL    HW312221   3.671   3.277   1.089  0.4745  0.2587  0.5213
 3112SOL    MW412222   3.633   3.343   1.048  0.0277 -0.3647 -0.3499
 3113SOL     OW12223   1.713   4.806   2.587  0.0462 -0.1923  0.6399
 3113SOL    HW212224   1.621   4.783   2.578  0.5145 -1.3295 -1.8399
 3113SOL    HW312225   1.754   4.728   2.625  0.0759  0.2091  1.4703
 3113SOL    MW412226   1.706   4.793   2.591  0.3095  0.8331  0.2006
 3114SOL     OW12227   4.016   2.522   2.774  0.9143  0.1173 -0.0419
 3114SOL    HW212228   3.952   2.456   2.799 -1.3793  2.5697  1.1033
 3114SOL    HW312229   4.076   2.476   2.716 -1.1319 -2.6783 -0.1686
 3114SOL    MW412230   4.015   2.507   2.769  0.4360  0.7152  0.5423
 3115SOL     OW12231   5.481   3.113   1.580  0.0585 -0.5305  0.4107
 3115SOL    HW212232   5.516   3.198   1.607  1.0366  0.0543 -2.3811
 3115SOL    HW312233   5.556   3.054   1.580 -0.3388 -1.0565  0.9407
 3115SOL    MW412234   5.495   3.116   1.584  0.1353  0.5190  0.1263
 3116SOL     OW12235   1.874   2.088   2.530 -0.0462 -0.3981  0.0365
 3116SOL    HW212236   1.821   2.020   2.489 -0.0595 -0.5572  0.3129
 3116SOL    HW312237   1.824   2.114   2.608  1.0018 -1.6685  1.1915
 3116SOL    MW412238   1.861   2.082   2.535  0.3155 -0.4161 -0.7580
 3117SOL     OW12239   2.480   1.078   5.161 -0.2125 -0.6435 -0.4072
 3117SOL    HW212240   2.449   0.989   5.178 -2.0971  0.1406  0.5655
 3117SOL    HW312241   2.406   1.122   5.121  0.7575  0.4709 -1.0466
 3117SOL    MW412242   2.466   1.072   5.158  0.0058 -0.5837  0.2227
 3118SOL     OW12243   2.842   6.378   6.408  0.2917 -0.3935  0.8139
 3118SOL    HW212244   2.816   6.288   6.389 -0.4452 -0.0411  0.1085
 3118SOL    HW312245   2.770   6.414   6.461  0.7553 -0.3287  1.4089
 3118SOL    MW412246   2.829   6.371   6.413  0.2948  0.0972  0.2087
 3119SOL     OW12247   5.661   1.054   0.694  0.5438 -0.3517  0.1595
 3119SOL    HW212248   5.637   1.077   0.784  1.1567  0.3165  0.1634
 3119SOL    HW312249   5.621   1.123   0.640 -0.3713 -1.1022 -0.1569
 3119SOL    MW412250   5.652   1.066   0.698 -0.3317  0.1195  0.0202
 3120SOL     OW12251   1.061   4.391   2.214  0.6504  0.7990  0.4106
 3120SOL    HW212252   1.143   4.397   2.264  1.0330  0.0310 -0.1056
 3120SOL    HW312253   1.018   4.313   2.247 -0.0600  1.4109  0.9398
 3120SOL    MW412254   1.066   4.382   2.225 -0.6665  0.1376 -0.2813
 3121SOL     OW12255   4.629   3.321   0.244 -0.2916  0.1348  0.5426
 3121SOL    HW212256   4.541   3.316   0.281 -1.3861  0.4771 -1.8336
 3121SOL    HW312257   4.634   3.248   0.182  0.5740  0.9249 -0.3591
 3121SOL    MW412258   4.618   3.311   0.241 -0.1599  0.1361  0.1475
 3122SOL     OW12259   4.515   0.006   4.904 -0.4204 -0.0564  0.5403
 3122SOL    HW212260   4.603   0.011   4.867 -0.8492 -0.3743 -0.5608
 3122SOL    HW312261   4.527  -0.033   4.991  0.5613  0.2808  0.5586
 3122SOL    MW412262   4.528   0.001   4.911  0.0537 -0.1207 -0.1411
 3123SOL     OW12263   6.036   6.093   3.559  0.7089  0.2601 -0.0493
 3123SOL    HW212264   6.038   6.187   3.540  2.4718  0.2402 -0.1247
 3123SOL    HW312265   6.037   6.051   3.473 -2.5106  0.0844 -0.1404
 3123SOL    MW412266   6.036   6.100   3.545 -0.2549 -0.0501 -0.2175
 3124SOL     OW12267   1.472   2.475   4.935 -0.2728 -0.0729 -0.1006
 3124SOL    HW212268   1.448   2.474   4.843 -0.5291  0.3750 -0.0427
 3124SOL    HW312269   1.410   2.536   4.975 -0.7931 -0.9929  0.5381
 3124SOL    MW412270   1.461   2.483   4.928 -0.1136 -0.5780 -0.1194
 3125SOL     OW12271   3.471   3.420   1.491 -0.2604  0.0607 -0.1975
 3125SOL    HW212272   3.394   3.476   1.498  0.1543  0.4537  2.1265
 3125SOL    HW312273   3.533   3.470   1.438 -1.3426  0.0213 -1.5254
 3125SOL    MW412274   3.469   3.434   1.485  0.2310 -0.6266 -0.1077
 3126SOL     OW12275   4.957   6.351   3.701 -0.7547  0.2112  0.7175
 3126SOL    HW212276   4.866   6.334   3.722 -0.5385  0.1492  1.6232
 3126SOL    HW312277   5.006   6.283   3.748 -0.3795 -1.4071 -1.7784
 3126SOL    MW412278   4.952   6.339   3.710  0.0871 -0.5353  0.2491
 3127SOL     OW12279   1.554   0.769   3.571 -0.3918 -0.7089 -0.0298
 3127SOL    HW212280   1.474   0.811   3.540 -1.0877 -0.7129  1.6567
 3127SOL    HW312281   1.585   0.826   3.642  0.7209 -1.0836 -0.1916
 3127SOL    MW412282   1.548   0.782   3.576  0.3304 -0.7391 -0.2201
 3128SOL     OW12283   5.942   4.027   4.658  0.3861 -0.1384 -0.1934
 3128SOL    HW212284   5.923   3.956   4.597  0.7952  0.1092 -0.6062
 3128SOL    HW312285   5.989   3.985   4.730  0.1457 -0.3795 -0.1750
 3128SOL    MW412286   5.946   4.012   4.660  0.3282  0.3372  0.0626
 3129SOL     OW12287   3.162   1.399   5.077  0.0949  0.0946 -0.1453
 3129SOL    HW212288   3.122   1.390   4.990  1.4519 -1.9805 -0.6191
 3129SOL    HW312289   3.088   1.412   5.136 -1.0745 -1.0213 -1.3005
 3129SOL    MW412290   3.147   1.400   5.073  0.6365 -0.0207  0.7850
 3130SOL     OW12291   3.538   1.078   5.320  0.3962  0.1915 -0.1583
 3130SOL    HW212292   3.584   1.008   5.275 -1.4902  0.3708 -2.5969
 3130SOL    HW312293   3.519   1.142   5.252 -3.0145  0.3149  0.6978
 3130SOL    MW412294   3.541   1.077   5.305  0.0527  0.4657  0.3137
 3131SOL     OW12295   0.445   2.455   3.707 -0.0915 -0.2742  0.2670
 3131SOL    HW212296   0.467   2.509   3.783  0.7504 -0.1498 -0.0475
 3131SOL    HW312297   0.528   2.445   3.660 -0.0508 -2.4761  0.7100
 3131SOL    MW412298   0.459   2.461   3.711 -0.4891 -0.5213 -0.0706
 3132SOL     OW12299   3.546   4.840   4.995  0.2066  0.1758 -0.3386
 3132SOL    HW212300   3.491   4.902   5.043 -0.9486  0.5711 -2.0761
 3132SOL    HW312301   3.607   4.806   5.060 -1.3446  0.6011  1.4051
 3132SOL    MW412302   3.547   4.844   5.010 -0.0492 -0.5900  0.2993
 3133SOL     OW12303   4.681   1.369   0.667 -0.5308  0.4345 -0.2670
 3133SOL    HW212304   4.742   1.305   0.703  0.0504  1.2296  0.1964
 3133SOL    HW312305   4.672   1.344   0.575 -0.0860 -0.1308 -0.1650
 3133SOL    MW412306   4.688   1.357   0.660 -1.0943 -0.0765  0.3866
 3134SOL     OW12307   6.349   1.237   4.967  0.5468  0.1789 -0.2674
 3134SOL    HW212308   6.319   1.150   4.942 -0.8394  0.6390 -0.2870
 3134SOL    HW312309   6.441   1.239   4.943  0.9202 -1.7073  0.8411
 3134SOL    MW412310   6.357   1.226   4.961 -0.0326  0.2590 -0.1622
 3135SOL     OW12311   2.980   3.916   3.272  0.3149  0.5700  0.0539
 3135SOL    HW212312   2.917   3.934   3.202  0.8626  1.0702 -0.3166
 3135SOL    HW312313   2.930   3.865   3.336 -0.4803  0.9823 -0.2188
 3135SOL    MW412314   2.965   3.911   3.271 -0.1645  0.3694  0.1624
 3136SOL     OW12315   4.800   0.319   0.864  0.1002  0.0278 -0.3478
 3136SOL    HW212316   4.759   0.403   0.844  0.2212  0.6580  1.7829
 3136SOL    HW312317   4.893   0.340   0.875  0.1444 -0.3877  0.1048
 3136SOL    MW412318   4.807   0.333   0.863  0.1028  0.2849 -0.1123
 3137SOL     OW12319   5.043   0.657   6.294 -0.6016 -0.5854  0.5001
 3137SOL    HW212320   5.105   0.730   6.287 -0.3632 -0.8002  0.3511
 3137SOL    HW312321   4.993   0.661   6.213 -0.2745 -0.8675  0.2789
 3137SOL    MW412322   5.045   0.667   6.283  0.6129  0.5244 -0.3518
 3138SOL     OW12323   5.927   4.081   1.600  0.2209 -0.2819  0.4170
 3138SOL    HW212324   5.951   3.992   1.573  0.2013  0.1706 -1.1905
 3138SOL    HW312325   5.918   4.130   1.518  1.3260  1.4996  1.2880
 3138SOL    MW412326   5.929   4.076   1.585  0.4250  0.4952 -0.3073
 3139SOL     OW12327   6.326   3.867   6.157 -0.7145  0.6296 -0.5736
 3139SOL    HW212328   6.390   3.826   6.215 -0.8488  0.8667 -0.2515
 3139SOL    HW312329   6.370   3.946   6.126 -0.1449 -0.1498 -1.8365
 3139SOL    MW412330   6.341   3.872   6.160  0.2845 -0.2652 -0.4878
 3140SOL     OW12331   0.791   0.388   4.090  0.1243 -0.1712  0.6265
 3140SOL    HW212332   0.869   0.378   4.035  0.3172  2.6325  0.2757
 3140SOL    HW312333   0.728   0.433   4.034 -1.0404 -0.5976  1.5608
 3140SOL    MW412334   0.793   0.392   4.075  0.7951  0.2155  0.2555
 3141SOL     OW12335   5.906   1.974   5.413  0.9301 -0.4952 -0.1040
 3141SOL    HW212336   5.921   2.017   5.329  0.6862  0.3424  0.2627
 3141SOL    HW312337   5.811   1.968   5.420  0.9481 -0.5386  0.1220
 3141SOL    MW412338   5.895   1.979   5.403  0.0252 -0.1744 -0.4616
 3142SOL     OW12339   1.313   1.614   5.964  0.1690  0.1836 -0.5366
 3142SOL    HW212340   1.232   1.564   5.959 -0.2723  0.6599  1.0847
 3142SOL    HW312341   1.290   1.700   5.929  0.3265 -0.0563 -1.2444
 3142SOL    MW412342   1.299   1.619   5.959  0.2967  0.3161  0.4300
 3143SOL     OW12343   2.943   3.275   1.472 -0.5835 -0.2692 -0.4529
 3143SOL    HW212344   2.926   3.276   1.377  0.0658  0.9421 -0.5833
 3143SOL    HW312345   2.924   3.185   1.499 -0.3642 -0.7517 -1.8083
 3143SOL    MW412346   2.938   3.263   1.463  0.4650 -0.0089 -0.0251
 3144SOL     OW12347   1.386   2.094   3.010 -0.4246 -0.3423  0.7444
 3144SOL    HW212348   1.363   2.021   3.067 -3.0422  0.7181  1.2000
 3144SOL    HW312349   1.435   2.154   3.067 -0.0854 -0.7990  0.9371
 3144SOL    MW412350   1.389   2.092   3.025  0.4932 -0.5522  0.0019
 3145SOL     OW12351   3.895   4.322   0.165  0.1514  0.0375  0.6597
 3145SOL    HW212352   3.816   4.341   0.216 -1.4351  0.9741 -1.9796
 3145SOL    HW312353   3.922   4.407   0.130  0.8859 -0.6318 -0.4543
 3145SOL    MW412354   3.888   4.336   0.167  0.0275  0.1811  0.3156
 3146SOL     OW12355   4.610   5.175   1.497 -0.0504 -0.0395  0.3150
 3146SOL    HW212356   4.680   5.147   1.437  1.7209 -0.0897  2.2686
 3146SOL    HW312357   4.547   5.103   1.495 -0.3653  0.2399 -1.9015
 3146SOL    MW412358   4.611   5.161   1.489  0.2161  0.0395 -0.1910
 3147SOL     OW12359   5.398   1.899   5.803 -0.1902  0.1126 -0.3466
 3147SOL    HW212360   5.480   1.850   5.811  0.9343  1.8036 -0.8978
 3147SOL    HW312361   5.417   1.966   5.737 -2.1523  0.3245 -0.7531
 3147SOL    MW412362   5.412   1.901   5.795  0.8800 -0.1564 -0.3462
 3148SOL     OW12363   5.232   0.021   3.730 -0.6739  0.8790  0.4822
 3148SOL    HW212364   5.137   0.005   3.728 -0.4800 -0.3660  0.1059
 3148SOL    HW312365   5.263  -0.010   3.645  0.5612 -2.3868  1.9485
 3148SOL    MW412366   5.224   0.015   3.718 -0.3931 -0.3673 -0.5782
 3149SOL     OW12367   2.037   4.514   5.658 -0.9181 -0.1451 -0.4788
 3149SOL    HW212368   2.108   4.452   5.648 -0.4283  0.2696  0.3011
 3149SOL    HW312369   2.068   4.576   5.724 -1.1875  1.2099 -1.5622
 3149SOL    MW412370   2.051   4.514   5.665  0.5628 -0.0244  0.3459
 3150SOL     OW12371   0.373   4.409   4.483 -0.3357 -0.0854  0.7210
 3150SOL    HW212372   0.368   4.501   4.460 -3.1511  0.8882  4.3727
 3150SOL    HW312373   0.372   4.363   4.398  1.3858  3.1220 -1.2150
 3150SOL    MW412374   0.372   4.415   4.469  0.3005  0.4699 -0.0720
 3151SOL     OW12375   1.548   2.113   1.050 -0.0100  0.0693 -0.2282
 3151SOL    HW212376   1.548   2.170   0.973 -1.6632 -0.3519 -0.5820
 3151SOL    HW312377   1.596   2.162   1.117 -0.2583  1.3009 -0.9285
 3151SOL    MW412378   1.555   2.127   1.049 -0.4830  0.5951  0.1527
 3152SOL     OW12379   4.462   1.214   2.456  0.1675 -0.6624  0.7128
 3152SOL    HW212380   4.538   1.166   2.423  0.9762  0.2790  1.1600
 3152SOL    HW312381   4.388   1.180   2.405  0.7585 -2.1074  0.7564
 3152SOL    MW412382   4.462   1.203   2.445 -0.7023 -0.3157  0.2417
 3153SOL     OW12383   0.987   0.004   3.905 -0.4317  0.0392 -0.4213
 3153SOL    HW212384   0.968  -0.021   3.814  1.4124 -0.1692 -0.7937
 3153SOL    HW312385   0.983   0.099   3.905 -1.5315  0.0097 -0.4320
 3153SOL    MW412386   0.984   0.013   3.893  0.2942 -0.4524 -0.5075
 3154SOL     OW12387   5.821   4.880   3.065  0.2163 -0.0708  0.0615
 3154SOL    HW212388   5.726   4.869   3.057  0.3493 -0.7399 -0.7093
 3154SOL    HW312389   5.855   4.791   3.071  0.7525  0.1851  0.9714
 3154SOL    MW412390   5.813   4.867   3.065 -0.1059  0.6863 -0.8281
 3155SOL     OW12391   0.006   2.249   4.326 -0.5450 -0.5072 -0.1945
 3155SOL    HW212392  -0.004   2.279   4.236  0.2084 -2.2068 -0.8908
 3155SOL    HW312393   0.058   2.317   4.368 -1.3530  0.5700 -0.8693
 3155SOL    MW412394   0.012   2.262   4.320  0.0730  0.3544  0.0237
 3156SOL     OW12395   4.038   4.401   0.419 -0.5105  0.2033  0.0587
 3156SOL    HW212396   4.004   4.359   0.498 -1.0994  1.2172  0.3704
 3156SOL    HW312397   3.994   4.356   0.347  0.7061 -1.3391  0.2305
 3156SOL    MW412398   4.027   4.390   0.420  0.2925 -0.0499 -0.1403
 3157SOL     OW12399   2.291   4.564   4.033 -0.3342 -0.1368 -0.7922
 3157SOL    HW212400   2.310   4.503   4.105  0.2494  0.6260 -0.2700
 3157SOL    HW312401   2.352   4.637   4.048 -1.8051  1.1281 -0.7074
 3157SOL    MW412402   2.302   4.566   4.045 -0.5157  0.4028 -0.5144
 3158SOL     OW12403   5.619   6.239   5.104  0.2603 -0.2385 -0.0350
 3158SOL    HW212404   5.621   6.218   5.011  0.8450 -1.4795  0.2359
 3158SOL    HW312405   5.622   6.335   5.107 -1.3705 -0.1000 -1.3156
 3158SOL    MW412406   5.620   6.249   5.092  0.0964 -0.3783  0.1965
 3159SOL     OW12407   5.076   2.049   5.853  0.2676 -0.0805 -0.0447
 3159SOL    HW212408   5.167   2.080   5.851  1.2980 -2.7547  1.1736
 3159SOL    HW312409   5.029   2.111   5.798  2.9757  0.9489 -1.3832
 3159SOL    MW412410   5.082   2.061   5.845 -0.1253  0.5833  0.4047
 3160SOL     OW12411   1.212   1.008   5.822 -0.5995  0.2949  0.7566
 3160SOL    HW212412   1.211   1.015   5.918  0.5616 -1.1748  0.9094
 3160SOL    HW312413   1.133   1.054   5.794 -1.2062  0.3642  2.4513
 3160SOL    MW412414   1.201   1.015   5.831 -0.3432  0.2775  0.3585
 3161SOL     OW12415   5.261   0.124   5.578  0.0848 -0.3161  0.0525
 3161SOL    HW212416   5.195   0.194   5.579  0.2027 -0.1002  3.3505
 3161SOL    HW312417   5.341   0.167   5.606  0.8955 -1.2393 -0.7848
 3161SOL    MW412418   5.263   0.139   5.582  0.3846 -0.0930  0.3652
 3162SOL     OW12419   3.342   0.802   1.707 -0.5720  0.3871 -0.5391
 3162SOL    HW212420   3.331   0.885   1.661  2.1018  0.8368 -0.5507
 3162SOL    HW312421   3.327   0.823   1.799  0.9526  1.1477 -0.4314
 3162SOL    MW412422   3.339   0.816   1.713 -0.1934  0.1660  0.0603
 3163SOL     OW12423   6.050   3.720   3.371 -0.1405 -0.1685 -0.1921
 3163SOL    HW212424   6.064   3.809   3.339  0.1251 -0.2172 -0.2175
 3163SOL    HW312425   6.098   3.716   3.454 -1.1520  0.0757  0.4135
 3163SOL    MW412426   6.058   3.731   3.377  0.2705 -0.3480  0.0386
 3164SOL     OW12427   1.682   3.282   3.788  0.0125 -0.0174  0.1052
 3164SOL    HW212428   1.722   3.229   3.858 -0.1903  1.0948  1.0985
 3164SOL    HW312429   1.702   3.372   3.813 -0.1496  0.4030 -1.2448
 3164SOL    MW412430   1.690   3.287   3.801  0.5661  0.0644 -0.4834
 3165SOL     OW12431   0.057   2.824   5.952 -0.9467  0.2572 -0.0046
 3165SOL    HW212432   0.152   2.826   5.949 -0.9327 -0.1107  0.1417
 3165SOL    HW312433   0.029   2.871   5.874 -0.6454  0.8126  0.2173
 3165SOL    MW412434   0.066   2.830   5.941  0.5004 -0.0478 -0.1495
 3166SOL     OW12435   2.993   0.913   0.497  0.1590 -0.5632  0.2410
 3166SOL    HW212436   3.074   0.929   0.447  0.2734 -2.1598 -0.1463
 3166SOL    HW312437   2.927   0.897   0.430 -0.3866  0.2248  0.5725
 3166SOL    MW412438   2.995   0.913   0.481 -0.0326  0.0914  0.1055
 3167SOL     OW12439   1.050   2.659   1.568  0.0772  0.1456  0.2053
 3167SOL    HW212440   1.120   2.635   1.508  0.8451 -0.2535  1.2398
 3167SOL    HW312441   1.027   2.577   1.613 -0.0472  0.5494  0.9025
 3167SOL    MW412442   1.056   2.645   1.566  0.0572  0.6352  0.0440
 3168SOL     OW12443   3.955   1.890   2.872 -0.0378  0.3930  0.7578
 3168SOL    HW212444   3.918   1.846   2.950 -1.7355 -0.1978 -0.3141
 3168SOL    HW312445   4.050   1.884   2.884 -0.2300  0.6482  2.9488
 3168SOL    MW412446   3.962   1.883   2.884  0.4884  0.7985 -0.4266
 3169SOL     OW12447   3.234   6.275   3.496 -0.6653 -0.1061  0.3215
 3169SOL    HW212448   3.272   6.252   3.411 -1.3771  0.3129 -0.1171
 3169SOL    HW312449   3.225   6.191   3.542  0.1812 -0.2835  0.1899
 3169SOL    MW412450   3.238   6.261   3.491 -0.5070 -0.3686  0.1224
 3170SOL     OW12451   0.770   2.743   0.868  0.0020  0.0759  0.3452
 3170SOL    HW212452   0.702   2.722   0.932  0.7677  1.7963  1.8034
 3170SOL    HW312453   0.737   2.709   0.785 -1.2981 -1.6820  1.5369
 3170SOL    MW412454   0.757   2.736   0.865  0.5300  0.0769 -0.0859
 3171SOL     OW12455   4.214   6.103   4.767  0.1898  0.2521  0.5545
 3171SOL    HW212456   4.125   6.131   4.745  0.7618  0.2674 -2.0017
 3171SOL    HW312457   4.207   6.069   4.857 -2.4609 -0.1051  0.2791
 3171SOL    MW412458   4.201   6.102   4.776  0.5744 -0.3408  0.1975
 3172SOL     OW12459   4.837   1.890   3.117  0.0803  0.1864 -0.3635
 3172SOL    HW212460   4.774   1.935   3.174  0.2711  3.2903 -2.3933
 3172SOL    HW312461   4.854   1.952   3.046  3.9854 -1.2819 -0.9438
 3172SOL    MW412462   4.831   1.904   3.115  0.0572  0.6303 -0.1764
 3173SOL     OW12463   1.484   4.355   5.073 -0.2669  0.0301 -0.0759
 3173SOL    HW212464   1.508   4.393   5.157 -1.7299 -1.5761  1.1264
 3173SOL    HW312465   1.568   4.331   5.033  0.4668  1.0960  0.7717
 3173SOL    MW412466   1.499   4.357   5.079  0.3225  0.5005 -0.4079
 3174SOL     OW12467   2.886   1.638   3.061  0.3857 -0.1663 -0.2643
 3174SOL    HW212468   2.871   1.637   2.966  0.8496 -0.6937 -0.3340
 3174SOL    HW312469   2.851   1.722   3.090 -1.1322 -0.6256 -0.6774
 3174SOL    MW412470   2.879   1.649   3.052  0.1178  0.2433 -0.0728
 3175SOL     OW12471   1.037   5.124   5.495  0.3210 -0.4501  0.0830
 3175SOL    HW212472   1.039   5.030   5.479 -0.6993 -0.6786  1.1909
 3175SOL    HW312473   1.125   5.146   5.524  1.4213 -0.5232 -2.8520
 3175SOL    MW412474   1.049   5.115   5.496  0.0586  0.1655 -0.1306
 3176SOL     OW12475   4.282   3.554   0.072 -0.5125 -0.0500 -0.0113
 3176SOL    HW212476   4.188   3.557   0.091 -0.3603 -2.4282  1.5538
 3176SOL    HW312477   4.324   3.581   0.153  0.1475 -0.5911 -0.1585
 3176SOL    MW412478   4.275   3.558   0.085 -0.8213 -0.0452  0.1673
 3177SOL     OW12479   1.956   5.760   4.653  0.1049 -0.0020  0.4338
 3177SOL    HW212480   1.977   5.827   4.589 -0.8849 -0.4573 -0.3996
 3177SOL    HW312481   1.972   5.677   4.608 -0.3908 -0.3255  0.8322
 3177SOL    MW412482   1.961   5.758   4.639 -0.0764  0.1085 -0.1274
 3178SOL     OW12483   2.033   1.415   2.401  0.5197 -0.0198  0.5310
 3178SOL    HW212484   2.025   1.504   2.366  1.0988  0.2192  1.0072
 3178SOL    HW312485   2.126   1.395   2.393  0.4594 -0.4161  0.8389
 3178SOL    MW412486   2.044   1.424   2.395  0.1873  0.4955 -0.3554
 3179SOL     OW12487   5.979   1.447   6.170 -0.4104  0.1634  0.1434
 3179SOL    HW212488   6.072   1.470   6.170 -0.3545 -0.0374 -0.8905
 3179SOL    HW312489   5.940   1.504   6.104 -1.5746  2.2613  2.4951
 3179SOL    MW412490   5.986   1.457   6.161 -0.0828  0.1498 -0.0992
 3180SOL     OW12491   6.355   5.750   1.368  0.0083 -0.5058  0.2508
 3180SOL    HW212492   6.294   5.818   1.340 -0.3362 -1.4147 -1.2854
 3180SOL    HW312493   6.373   5.772   1.460 -3.2462 -0.6307  1.0614
 3180SOL    MW412494   6.349   5.762   1.377 -0.4813  0.0116 -0.7367
 3181SOL     OW12495   5.738   3.165   3.412 -0.0480  0.7038 -0.7319
 3181SOL    HW212496   5.753   3.101   3.343  0.9734 -0.4516  0.4946
 3181SOL    HW312497   5.644   3.182   3.408 -0.8413 -2.5655  0.2228
 3181SOL    MW412498   5.728   3.159   3.403 -0.1337  0.7603  0.0928
 3182SOL     OW12499   2.635   0.968   0.611  0.2251  0.4808  0.4761
 3182SOL    HW212500   2.575   0.977   0.537  0.8071  0.3215 -0.0273
 3182SOL    HW312501   2.699   1.039   0.598 -0.0013  0.8187  1.1522
 3182SOL    MW412502   2.636   0.979   0.599  0.2266 -0.5053  0.3635
 3183SOL     OW12503   0.642   0.659   0.647 -0.1116  1.0543 -0.1392
 3183SOL    HW212504   0.618   0.583   0.699  1.3926 -0.9072 -2.0773
 3183SOL    HW312505   0.735   0.673   0.667  0.6730 -0.0973 -2.4554
 3183SOL    MW412506   0.651   0.651   0.656  0.0971 -0.0892 -0.5633
 3184SOL     OW12507   5.903   1.712   4.812  0.4049  0.4466  0.4896
 3184SOL    HW212508   5.902   1.759   4.729  0.1789  0.8667  0.7257
 3184SOL    HW312509   5.995   1.691   4.827  0.3652 -0.2997 -0.2341
 3184SOL    MW412510   5.915   1.715   4.803  0.2426 -0.2927  0.0409
 3185SOL     OW12511   6.212   2.703   5.721  0.3982  0.7402  0.7774
 3185SOL    HW212512   6.276   2.638   5.751  0.3238  0.3344  0.0717
 3185SOL    HW312513   6.127   2.660   5.734  0.4251 -0.6668 -2.6519
 3185SOL    MW412514   6.209   2.688   5.727  0.2184  0.5550 -0.2772
 3186SOL     OW12515   5.856   1.428   4.853  0.2800 -0.5418 -0.2997
 3186SOL    HW212516   5.937   1.379   4.848  0.1621 -0.9904  1.5623
 3186SOL    HW312517   5.883   1.520   4.844  0.9379 -0.7187 -0.1853
 3186SOL    MW412518   5.870   1.434   4.851 -0.1650  0.6760  0.6887
 3187SOL     OW12519   3.390   6.269   2.551  1.0000  0.1681 -0.4587
 3187SOL    HW212520   3.413   6.177   2.539  2.3284  0.5178 -0.7896
 3187SOL    HW312521   3.409   6.310   2.467  0.2735  0.7254 -0.3622
 3187SOL    MW412522   3.396   6.262   2.538  0.1779 -0.4357 -0.0814
 3188SOL     OW12523   6.017   2.057   2.915  0.0171  0.3455 -0.4405
 3188SOL    HW212524   6.007   2.093   3.003  0.4881 -1.3963  0.3745
 3188SOL    HW312525   5.978   2.123   2.857 -1.0171  1.1759  1.1301
 3188SOL    MW412526   6.010   2.071   2.919  0.6042  0.2208  0.2783
 3189SOL     OW12527   1.863   2.668   5.168 -0.7891 -0.1287  0.5808
 3189SOL    HW212528   1.874   2.637   5.257  1.0646  1.6587  1.0482
 3189SOL    HW312529   1.798   2.738   5.175 -0.7357 -0.0719  0.5184
 3189SOL    MW412530   1.856   2.673   5.180  0.8708 -0.5400 -0.1262
 3190SOL     OW12531   6.026   4.406   4.241  0.1955  0.0348  0.3322
 3190SOL    HW212532   6.041   4.334   4.179  0.5765 -0.4950  1.0156
 3190SOL    HW312533   5.982   4.365   4.315  0.8435  0.4088  0.9359
 3190SOL    MW412534   6.022   4.391   4.243  0.3443  0.0783 -0.0549
 3191SOL     OW12535   5.522   5.293   1.356  0.4663  0.3503  0.1102
 3191SOL    HW212536   5.516   5.328   1.445  0.4116 -0.5317  0.4718
 3191SOL    HW312537   5.465   5.349   1.304  1.0083  1.2800  0.4987
 3191SOL    MW412538   5.514   5.305   1.361  0.1971  0.1831 -0.0200
 3192SOL     OW12539   6.235   1.047   4.285  0.2834  0.4043 -0.3085
 3192SOL    HW212540   6.243   1.142   4.277  0.0879  0.4024 -0.5373
 3192SOL    HW312541   6.144   1.033   4.311  0.0621  0.2329 -1.1353
 3192SOL    MW412542   6.224   1.057   4.287  0.1716  0.5867  0.0716
 3193SOL     OW12543   5.699   5.835   1.422  0.9327 -0.0403 -0.2436
 3193SOL    HW212544   5.658   5.916   1.393 -0.3802 -0.0525  1.4670
 3193SOL    HW312545   5.656   5.767   1.370  1.2775  0.2449 -0.9169
 3193SOL    MW412546   5.688   5.836   1.411  0.0744 -0.2399  0.2542
 3194SOL     OW12547   1.543   3.896   3.197 -0.6396  0.0765  0.4885
 3194SOL    HW212548   1.562   3.987   3.220  2.0521 -0.4612  0.7422
 3194SOL    HW312549   1.623   3.849   3.218 -1.9163 -2.3623  0.2365
 3194SOL    MW412550   1.556   3.902   3.203  0.0495  0.0079  0.7791
 3195SOL     OW12551   5.026   2.510   1.907  0.3036 -0.1199 -0.0030
 3195SOL    HW212552   4.991   2.493   1.994  2.5005 -1.5318  0.6897
 3195SOL    HW312553   5.113   2.471   1.908  1.1851  1.5623 -2.2030
 3195SOL    MW412554   5.033   2.503   1.918 -0.7243 -0.0812  0.0693
 3196SOL     OW12555   5.346   1.509   0.896  0.9564  0.1407  0.3396
 3196SOL    HW212556   5.347   1.426   0.849 -0.6696  0.7771 -0.8872
 3196SOL    HW312557   5.375   1.486   0.984 -0.1943 -1.8645  0.2532
 3196SOL    MW412558   5.350   1.495   0.901  0.3825  0.0322 -0.6359
 3197SOL     OW12559   4.229   4.190   3.071  0.4833 -0.2151  0.1538
 3197SOL    HW212560   4.224   4.157   2.981  0.0134 -0.6975  0.3493
 3197SOL    HW312561   4.308   4.151   3.107  1.1515  0.6756 -0.3185
 3197SOL    MW412562   4.238   4.180   3.064  0.0837  0.4607 -0.5491
 3198SOL     OW12563   3.395   2.222   5.544 -0.0542 -0.1922  0.9977
 3198SOL    HW212564   3.327   2.203   5.480  0.9470 -1.9462  0.3600
 3198SOL    HW312565   3.354   2.205   5.629 -0.6252 -0.4654  0.6725
 3198SOL    MW412566   3.381   2.217   5.547  0.2895 -0.1498  0.2383
 3199SOL     OW12567   1.557   4.050   0.950 -0.1866 -0.0309  0.2276
 3199SOL    HW212568   1.541   3.955   0.951  0.8925 -0.2208  0.7487
 3199SOL    HW312569   1.558   4.073   0.857 -1.2740 -0.3810  0.1214
 3199SOL    MW412570   1.555   4.040   0.938  0.7441 -0.3161 -0.1831
 3200SOL     OW12571   5.339   5.967   0.519  0.5466 -0.4744 -0.6794
 3200SOL    HW212572   5.253   5.985   0.556  0.0552 -1.7017 -1.1823
 3200SOL    HW312573   5.374   5.896   0.572  1.4803  0.3512 -0.1588
 3200SOL    MW412574   5.332   5.960   0.531 -0.0978 -0.3665  0.4904
 3201SOL     OW12575   0.117   4.584   6.269  0.3146 -0.1165 -0.9423
 3201SOL    HW212576   0.178   4.513   6.290  0.0835  0.3313  1.4752
 3201SOL    HW312577   0.146   4.657   6.323 -1.0369  0.8268 -1.4403
 3201SOL    MW412578   0.129   4.585   6.279  0.2089 -0.3232 -0.3115
 3202SOL     OW12579   4.615   2.827   4.861 -0.2966  0.3175 -0.0406
 3202SOL    HW212580   4.534   2.873   4.836  0.7781  2.2344 -0.1820
 3202SOL    HW312581   4.636   2.860   4.948 -0.0419 -0.7511  0.3227
 3202SOL    MW412582   4.607   2.837   4.869  0.4471 -0.1710  0.5862
 3203SOL     OW12583   4.396   5.017   0.464 -0.0837  0.2132  0.1463
 3203SOL    HW212584   4.487   5.000   0.442 -0.1627  0.6493 -0.5942
 3203SOL    HW312585   4.347   4.948   0.419 -0.1551  0.3020  0.0874
 3203SOL    MW412586   4.401   5.006   0.455 -0.1721 -0.2156 -0.0932
 3204SOL     OW12587   2.969   0.076   5.733  0.3586 -0.0664  0.1118
 3204SOL    HW212588   2.940   0.167   5.732  1.5893  0.4855 -3.8638
 3204SOL    HW312589   2.889   0.024   5.732 -0.6628  1.2502 -3.8573
 3204SOL    MW412590   2.955   0.081   5.733  0.6129 -0.4804  0.3535
 3205SOL     OW12591   5.809   4.418   3.891 -0.0589 -0.4564 -0.1335
 3205SOL    HW212592   5.791   4.407   3.798  1.4944 -1.9646 -0.2897
 3205SOL    HW312593   5.791   4.333   3.930  2.4171 -0.8246  0.3761
 3205SOL    MW412594   5.804   4.406   3.884 -0.2832 -0.2287 -0.0299
 3206SOL     OW12595   0.541   0.071   3.031  0.0675  0.1663 -0.0504
 3206SOL    HW212596   0.536  -0.018   3.065 -1.8205  0.1765 -0.2131
 3206SOL    HW312597   0.531   0.060   2.936  2.2811  0.3864 -0.3607
 3206SOL    MW412598   0.539   0.058   3.023 -0.2334  0.1252 -0.3620
 3207SOL     OW12599   5.930   6.184   4.638 -0.1950  0.0878 -0.2954
 3207SOL    HW212600   5.993   6.255   4.654 -0.0463 -0.2393  0.6368
 3207SOL    HW312601   5.867   6.192   4.710  0.7111 -1.6933  0.7436
 3207SOL    MW412602   5.930   6.195   4.649  0.1591  0.0180 -0.1501
 3208SOL     OW12603   2.048   3.708   4.618 -0.3346  0.8956 -0.1383
 3208SOL    HW212604   1.996   3.627   4.618 -0.2314  0.8068 -1.5081
 3208SOL    HW312605   2.124   3.687   4.672 -0.2194  0.0209 -0.6278
 3208SOL    MW412606   2.051   3.694   4.626 -0.4720 -0.2954  0.4693
 3209SOL     OW12607   3.020   4.386   1.097 -0.0943  0.4565  0.0612
 3209SOL    HW212608   3.041   4.304   1.053  2.4472  1.4514 -0.7696
 3209SOL    HW312609   3.055   4.376   1.185 -0.8635  0.2405  0.3527
 3209SOL    MW412610   3.027   4.374   1.103 -0.3182  0.6633 -0.1867
 3210SOL     OW12611   1.729   1.805   5.928  0.1325 -0.0878 -0.6640
 3210SOL    HW212612   1.693   1.765   5.849 -0.3078  1.9622 -1.5657
 3210SOL    HW312613   1.659   1.860   5.961  1.4715  1.8142 -0.8638
 3210SOL    MW412614   1.715   1.807   5.922  0.2604  0.2140  0.0769
 3211SOL     OW12615   1.587   1.968   5.015  0.7830 -0.2384 -0.0099
 3211SOL    HW212616   1.607   1.989   4.923 -2.1468  0.0840 -0.6679
 3211SOL    HW312617   1.492   1.982   5.022  0.9527 -0.0984  3.1296
 3211SOL    MW412618   1.577   1.973   5.003  0.2235 -0.2482  0.5266
 3212SOL     OW12619   1.816   5.274   0.829 -0.2667  0.0166  0.5878
 3212SOL    HW212620   1.755   5.348   0.822  0.2860  0.3891 -0.5941
 3212SOL    HW312621   1.760   5.197   0.837 -0.8721  0.4324  0.4117
 3212SOL    MW412622   1.801   5.274   0.829  0.2174  0.3112 -0.7493
 3213SOL     OW12623   5.581   2.332   1.518  0.6348 -0.2038  0.1452
 3213SOL    HW212624   5.510   2.274   1.489  0.3828  0.3405 -0.3328
 3213SOL    HW312625   5.585   2.318   1.613  0.1139 -0.4912  0.1289
 3213SOL    MW412626   5.572   2.322   1.527  0.3206 -0.6659  0.2428
 3214SOL     OW12627   4.656   0.072   4.064  0.5269 -0.3229 -0.0596
 3214SOL    HW212628   4.623  -0.010   4.101 -1.3232 -0.2097 -1.3255
 3214SOL    HW312629   4.695   0.047   3.980  1.4950 -0.1114  0.3141
 3214SOL    MW412630   4.657   0.058   4.058  0.0331 -0.0778 -0.0009
 3215SOL     OW12631   0.292   2.486   2.392 -0.6807 -0.1045  0.4960
 3215SOL    HW212632   0.339   2.496   2.474 -0.5699  0.2147  0.3991
 3215SOL    HW312633   0.212   2.438   2.414  0.0643 -1.3703  0.5199
 3215SOL    MW412634   0.288   2.481   2.405 -0.7177  0.3667  0.0267
 3216SOL     OW12635   3.458   0.977   0.924 -0.0495  0.6328 -0.1739
 3216SOL    HW212636   3.425   1.048   0.869 -0.6769  0.4059 -0.1003
 3216SOL    HW312637   3.380   0.944   0.970  0.4050  0.5855  0.5778
 3216SOL    MW412638   3.443   0.982   0.923  0.1752  0.3580  0.0546
 3217SOL     OW12639   1.413   5.809   0.131  0.2402 -0.0980 -0.0158
 3217SOL    HW212640   1.407   5.891   0.082 -1.5599  0.2293  0.6653
 3217SOL    HW312641   1.471   5.829   0.204 -0.2153  0.6016  0.1654
 3217SOL    MW412642   1.420   5.822   0.134 -0.0928 -0.3417  0.0779
 3218SOL     OW12643   1.024   3.157   0.124 -0.0168  0.4265  0.1135
 3218SOL    HW212644   1.002   3.064   0.118 -0.8371  0.6264 -0.1970
 3218SOL    HW312645   1.116   3.159   0.147  0.6462 -0.4535 -2.2115
 3218SOL    MW412646   1.033   3.145   0.127 -0.2818 -0.0765  0.1612
 3219SOL     OW12647   2.413   1.604   5.294 -0.5672  0.8194 -0.1960
 3219SOL    HW212648   2.329   1.560   5.280  0.7736 -1.2417 -2.5408
 3219SOL    HW312649   2.462   1.587   5.214  2.0942  1.9717  1.0880
 3219SOL    MW412650   2.408   1.596   5.282 -0.5487 -0.1086  0.4941
 3220SOL     OW12651   1.039   6.352   0.072  0.3016 -0.1051 -0.3498
 3220SOL    HW212652   0.966   6.337   0.012 -0.2020 -1.5807  0.5740
 3220SOL    HW312653   1.078   6.265   0.084  2.1741  0.6323 -0.7425
 3220SOL    MW412654   1.035   6.338   0.065  0.3081 -0.4050 -0.0513
 3221SOL     OW12655   5.302   4.033   1.829  0.0021 -0.0137 -0.3757
 3221SOL    HW212656   5.246   3.955   1.832 -1.1684  0.6774 -2.4279
 3221SOL    HW312657   5.348   4.026   1.745 -0.1522  1.5034 -0.6164
 3221SOL    MW412658   5.301   4.022   1.818 -0.2101 -0.2009 -0.2238
 3222SOL     OW12659   4.454   3.324   4.469 -0.4424  0.2538  0.9923
 3222SOL    HW212660   4.547   3.313   4.488  0.5551  2.7399 -1.5836
 3222SOL    HW312661   4.418   3.235   4.466  1.7658 -0.7446  2.2758
 3222SOL    MW412662   4.461   3.311   4.471  0.0524 -0.4162  0.4357
 3223SOL     OW12663   2.965   2.683   2.721  0.2541 -0.1621  0.0107
 3223SOL    HW212664   2.976   2.601   2.768 -1.2799 -0.1740  0.4120
 3223SOL    HW312665   2.872   2.702   2.728  0.0763  0.2221 -2.4059
 3223SOL    MW412666   2.954   2.675   2.728 -0.0658 -0.5005 -0.0204
 3224SOL     OW12667   3.186   1.082   1.074 -0.2397  0.1100  0.3339
 3224SOL    HW212668   3.101   1.124   1.062  0.2584  1.3430  0.9233
 3224SOL    HW312669   3.165   0.989   1.088 -1.3442  0.0238 -1.4934
 3224SOL    MW412670   3.172   1.075   1.075  0.1736  0.3624  0.1890
 3225SOL     OW12671   5.326   4.828   3.241 -0.2039  0.3943  0.1265
 3225SOL    HW212672   5.417   4.826   3.213 -0.2981  0.4037 -0.1789
 3225SOL    HW312673   5.331   4.841   3.336  0.0910  1.6388 -0.0412
 3225SOL    MW412674   5.339   4.830   3.250 -0.2963  0.1704  0.1026
 3226SOL     OW12675   5.670   2.977   3.601  0.1673  0.4204 -0.0873
 3226SOL    HW212676   5.586   2.934   3.585  0.7282 -1.2677  1.2789
 3226SOL    HW312677   5.687   3.026   3.520 -1.7494  0.2048 -0.6801
 3226SOL    MW412678   5.661   2.978   3.588  0.0360 -0.0922  0.3928
 3227SOL     OW12679   3.328   3.599   2.590  0.2888  0.0133 -0.2663
 3227SOL    HW212680   3.302   3.661   2.657 -0.1506 -1.4633  1.0004
 3227SOL    HW312681   3.411   3.634   2.556 -0.2787  1.6072 -0.0881
 3227SOL    MW412682   3.336   3.611   2.594  0.4334 -0.1770  0.1559
 3228SOL     OW12683   3.869   1.170   5.997  0.0019  0.2033 -0.1959
 3228SOL    HW212684   3.869   1.259   6.031  1.1409  0.3666 -0.5994
 3228SOL    HW312685   3.794   1.128   6.039  0.6103  0.7647  1.5009
 3228SOL    MW412686   3.859   1.176   6.007  0.5989  0.1056  0.0642
 3229SOL     OW12687   0.304   5.062   5.647  0.1078  0.4349 -0.0788
 3229SOL    HW212688   0.251   5.023   5.578 -0.1748 -0.0133  0.3855
 3229SOL    HW312689   0.382   5.094   5.602  0.3127 -0.5976 -0.4918
 3229SOL    MW412690   0.308   5.061   5.632  0.2289 -0.0648  0.4608
 3230SOL     OW12691   5.546   0.197   4.262  0.2008  0.0305 -0.1579
 3230SOL    HW212692   5.611   0.128   4.250  1.0093  0.9073 -1.1209
 3230SOL    HW312693   5.504   0.177   4.345  0.5976 -1.4584 -0.2879
 3230SOL    MW412694   5.549   0.185   4.271 -1.4377  0.2364 -0.1613
 3231SOL     OW12695   5.225   4.599   2.922 -0.3565  0.3713  0.1525
 3231SOL    HW212696   5.218   4.508   2.893 -0.2115  0.7492 -1.1440
 3231SOL    HW312697   5.319   4.613   2.935 -0.2592  0.6310 -0.7316
 3231SOL    MW412698   5.236   4.589   2.920  0.0780 -0.0161  0.5060
 3232SOL     OW12699   1.747   2.175   2.080  0.2913 -0.4893  0.3286
 3232SOL    HW212700   1.803   2.178   2.158 -0.5354 -0.8392  0.9555
 3232SOL    HW312701   1.692   2.098   2.093  0.3074 -0.6831 -0.7268
 3232SOL    MW412702   1.747   2.165   2.092  0.6217  0.3427  0.0216
 3233SOL     OW12703   1.987   6.112   0.225  0.1967  0.0356  0.0562
 3233SOL    HW212704   1.930   6.114   0.302 -0.3438  1.0997 -0.3470
 3233SOL    HW312705   2.044   6.188   0.236  0.6543 -0.2685 -0.2017
 3233SOL    MW412706   1.987   6.123   0.237  0.1997  0.4569  0.6086
 3234SOL     OW12707   2.302   3.276   5.451  0.0214 -0.0548 -0.4529
 3234SOL    HW212708   2.279   3.192   5.410 -0.6562  0.3542 -0.9278
 3234SOL    HW312709   2.218   3.315   5.475  0.3517  0.3058  0.1517
 3234SOL    MW412710   2.288   3.270   5.449  0.2238 -0.0820 -0.0810
 3235SOL     OW12711   5.780   0.129   3.585 -0.6039 -0.3295 -0.0386
 3235SOL    HW212712   5.799   0.178   3.665  1.0641  0.9522 -1.1633
 3235SOL    HW312713   5.687   0.108   3.592 -0.8237  0.9754  1.5791
 3235SOL    MW412714   5.770   0.133   3.596 -0.3958  0.2673  0.4270
 3236SOL     OW12715   5.250   5.324   1.642  0.5783  0.0747 -0.2329
 3236SOL    HW212716   5.214   5.304   1.729  0.0994 -0.6122 -0.5747
 3236SOL    HW312717   5.183   5.378   1.600  0.6451  0.1006 -0.3070
 3236SOL    MW412718   5.236   5.328   1.648  0.1644  0.0574  0.1694
 3237SOL     OW12719   2.483   2.361   0.293  0.3205  0.1428  0.6680
 3237SOL    HW212720   2.515   2.436   0.343  0.5946  0.0578  0.6228
 3237SOL    HW312721   2.398   2.390   0.259  0.1786  0.2353  1.0953
 3237SOL    MW412722   2.476   2.375   0.295  0.0087  0.4727 -0.7339
 3238SOL     OW12723   2.231   4.057   5.168 -0.3171  0.5128 -0.2471
 3238SOL    HW212724   2.289   4.125   5.132  1.6043 -0.3642  1.0124
 3238SOL    HW312725   2.244   4.063   5.262 -1.8110 -0.1749  0.0149
 3238SOL    MW412726   2.241   4.067   5.175  0.3091 -0.0025 -0.2314
 3239SOL     OW12727   5.166   5.681   3.929 -0.1885 -0.3276 -0.6323
 3239SOL    HW212728   5.138   5.715   4.014 -0.5496 -1.5249 -0.2551
 3239SOL    HW312729   5.251   5.640   3.947 -0.8556 -1.7453 -0.5325
 3239SOL    MW412730   5.174   5.680   3.942 -0.1022  0.0881  0.3126
 3240SOL     OW12731   0.946   1.015   1.007 -0.8464  0.3058  0.3664
 3240SOL    HW212732   1.029   1.007   0.960 -1.1771 -1.0375 -0.0168
 3240SOL    HW312733   0.971   1.046   1.094 -0.1731  2.2389 -0.4556
 3240SOL    MW412734   0.960   1.018   1.012  0.1562  0.4280  0.4081
 3241SOL     OW12735   4.846   3.502   4.402  0.0772  0.1951 -0.7142
 3241SOL    HW212736   4.793   3.562   4.454  1.5488  0.7067  0.2532
 3241SOL    HW312737   4.816   3.414   4.427 -1.7333  0.4698 -1.7572
 3241SOL    MW412738   4.835   3.498   4.412  0.8969 -0.1006  0.2772
 3242SOL     OW12739   4.255   1.732   3.831  0.1698 -0.2432 -0.2808
 3242SOL    HW212740   4.268   1.703   3.741  2.8380 -0.0210 -0.0317
 3242SOL    HW312741   4.264   1.827   3.828  2.7807 -0.3991  0.5066
 3242SOL    MW412742   4.258   1.741   3.819  0.0440 -0.3973 -0.0947
 3243SOL     OW12743   2.665   5.527   2.071  0.1945 -0.1273  0.0128
 3243SOL    HW212744   2.756   5.531   2.100 -0.1201  0.7823  0.9371
 3243SOL    HW312745   2.630   5.448   2.114  0.3136  0.0259  0.4009
 3243SOL    MW412746   2.672   5.517   2.081 -0.0392  0.6532  0.4002
 3244SOL     OW12747   4.559   3.417   3.531  0.1914 -0.2110  0.0721
 3244SOL    HW212748   4.549   3.467   3.451 -0.7230 -0.1282  0.2312
 3244SOL    HW312749   4.634   3.457   3.575  0.6218 -0.1828 -0.6727
 3244SOL    MW412750   4.568   3.429   3.527 -0.4079 -0.0944 -0.2510
 3245SOL     OW12751   5.507   5.257   4.549 -0.2073 -1.2300 -0.0209
 3245SOL    HW212752   5.551   5.174   4.532 -0.3669 -1.3841  0.3145
 3245SOL    HW312753   5.575   5.324   4.537 -0.1387 -1.3888 -0.5370
 3245SOL    MW412754   5.521   5.255   4.545 -0.0567  0.0728 -0.0417
 3246SOL     OW12755   0.902   3.508   2.484  0.0629  0.1787 -0.7229
 3246SOL    HW212756   0.963   3.559   2.430  0.5819 -1.1971 -1.4827
 3246SOL    HW312757   0.816   3.540   2.460  0.4128  1.2620 -0.5828
 3246SOL    MW412758   0.899   3.519   2.474  0.4809  0.1253 -0.3927
 3247SOL     OW12759   1.735   2.014   1.548  0.0022  0.3577 -0.0046
 3247SOL    HW212760   1.672   2.042   1.482  0.6553  2.4391  0.1659
 3247SOL    HW312761   1.699   2.046   1.630  0.7642  0.6628  0.2202
 3247SOL    MW412762   1.722   2.022   1.550  1.0067  0.5252  0.1174
 3248SOL     OW12763   3.992   5.169   4.329  0.0177 -0.4380  0.3918
 3248SOL    HW212764   3.899   5.185   4.341  0.2314 -0.3985  2.4139
 3248SOL    HW312765   4.016   5.111   4.402  1.5999 -0.3198  0.0052
 3248SOL    MW412766   3.983   5.163   4.340  0.1954  0.7327 -0.5210
 3249SOL     OW12767   6.082   0.676   2.738 -0.0694 -0.4813  0.2859
 3249SOL    HW212768   6.052   0.593   2.774  1.2767 -0.4912  1.4827
 3249SOL    HW312769   6.161   0.653   2.688 -0.0096 -0.0084  0.1615
 3249SOL    MW412770   6.089   0.662   2.737 -0.3447 -0.3896  0.4506
 3250SOL     OW12771   3.139   1.677   3.674 -0.9815 -0.8855 -0.4739
 3250SOL    HW212772   3.087   1.703   3.598  0.6798  1.4107 -0.9438
 3250SOL    HW312773   3.223   1.648   3.637  0.2665  1.3417  0.4282
 3250SOL    MW412774   3.143   1.677   3.659 -0.3076 -0.2745 -0.1276
 3251SOL     OW12775   6.247   3.717   0.423  0.4156  0.6665  0.0938
 3251SOL    HW212776   6.287   3.776   0.359 -0.1525 -0.6499 -1.5510
 3251SOL    HW312777   6.300   3.637   0.418  0.2576  0.4862  1.1726
 3251SOL    MW412778   6.259   3.714   0.414 -0.1597  0.7013  0.5486
 3252SOL     OW12779   5.820   2.665   0.216 -0.2178  0.0095  0.0246
 3252SOL    HW212780   5.830   2.579   0.176  2.2325 -0.3014  1.1341
 3252SOL    HW312781   5.818   2.726   0.142 -1.0566 -0.9001 -0.7295
 3252SOL    MW412782   5.821   2.662   0.201 -0.3602  0.4970 -0.1078
 3253SOL     OW12783   4.274   0.688   3.236  0.3047  0.6469  0.9124
 3253SOL    HW212784   4.359   0.686   3.192 -0.1642  0.5878 -0.0138
 3253SOL    HW312785   4.296   0.685   3.329  1.3421  1.3811  0.7180
 3253SOL    MW412786   4.288   0.687   3.242  0.6728  0.2343  0.3132
 3254SOL     OW12787   0.099   0.640   1.994  0.3189  0.1192 -0.2357
 3254SOL    HW212788   0.135   0.723   1.963  0.3167  0.8206  1.5182
 3254SOL    HW312789   0.005   0.655   2.001  0.6089  1.1760  3.2268
 3254SOL    MW412790   0.092   0.653   1.991 -0.4785 -0.3997  0.2395
 3255SOL     OW12791   0.210   4.781   0.075 -0.5605  0.0923 -0.2746
 3255SOL    HW212792   0.167   4.857   0.036 -2.6202 -0.9984 -0.2377
 3255SOL    HW312793   0.285   4.764   0.018 -1.4288  0.7273 -1.6413
 3255SOL    MW412794   0.214   4.789   0.062  0.4453  0.3608 -0.1848
 3256SOL     OW12795   4.435   1.184   2.746 -0.5055 -0.0344 -0.1423
 3256SOL    HW212796   4.428   1.200   2.651 -0.2123  0.7411 -0.0370
 3256SOL    HW312797   4.465   1.093   2.752 -1.0667 -0.2785 -0.7813
 3256SOL    MW412798   4.438   1.174   2.734 -0.0630 -0.3136 -0.1432
 3257SOL     OW12799   2.227   3.843   6.115  0.6328 -0.4101  0.1450
 3257SOL    HW212800   2.285   3.844   6.192  0.4454  1.0972  0.3077
 3257SOL    HW312801   2.236   3.755   6.079  1.6827 -0.7565  1.1806
 3257SOL    MW412802   2.236   3.832   6.121  0.1705 -0.4028  0.3284
 3258SOL     OW12803   3.350   1.007   4.931 -0.0322 -0.3881 -0.1943
 3258SOL    HW212804   3.426   0.952   4.911 -0.4006 -0.8883 -0.2532
 3258SOL    HW312805   3.385   1.077   4.986  0.3997 -0.8440  0.1222
 3258SOL    MW412806   3.365   1.009   4.936 -0.2773 -0.2387  0.2534
 3259SOL     OW12807   2.429   4.394   2.311  0.7547  0.0213  0.2577
 3259SOL    HW212808   2.401   4.453   2.381  2.0198  0.1802  0.6597
 3259SOL    HW312809   2.511   4.357   2.343  0.6967 -0.8949 -0.5987
 3259SOL    MW412810   2.436   4.397   2.325  0.7501  0.2363  0.0996
 3260SOL     OW12811   2.104   4.389   5.224 -0.2079 -0.0199  0.4042
 3260SOL    HW212812   2.137   4.356   5.141  1.7348 -1.0936  1.5009
 3260SOL    HW312813   2.055   4.316   5.261  1.7202 -0.8039  1.5878
 3260SOL    MW412814   2.102   4.375   5.218 -0.1701 -0.0433  0.1340
 3261SOL     OW12815   3.035   2.715   4.005  0.3473 -0.0527 -0.2133
 3261SOL    HW212816   2.972   2.719   3.933 -1.2482  1.6611  1.1656
 3261SOL    HW312817   3.092   2.791   3.991  0.3504 -0.0039  0.0618
 3261SOL    MW412818   3.034   2.726   3.993  0.0656 -0.1184  0.8918
 3262SOL     OW12819   4.529   5.937   6.347  0.5743  0.0422  0.4412
 3262SOL    HW212820   4.492   5.985   6.274  0.6810 -0.1201  0.2804
 3262SOL    HW312821   4.571   5.861   6.308  3.9216  1.8215  0.2071
 3262SOL    MW412822   4.530   5.934   6.333 -0.4751  0.1550  0.6637
 3263SOL     OW12823   5.168   1.015   0.981 -0.1670 -0.1833 -0.2040
 3263SOL    HW212824   5.208   0.967   1.054  0.3509 -0.3535 -0.5904
 3263SOL    HW312825   5.099   1.068   1.022  0.9508  0.7076  0.6134
 3263SOL    MW412826   5.164   1.016   0.996  0.0826  0.2121  0.3624
 3264SOL     OW12827   5.663   2.022   0.086  0.0817 -0.0850  0.0535
 3264SOL    HW212828   5.582   2.004   0.133  1.4651 -0.1704  2.6090
 3264SOL    HW312829   5.652   2.111   0.052 -0.9593  0.0075  0.5859
 3264SOL    MW412830   5.651   2.031   0.087 -0.5594  0.0878 -0.3036
 3265SOL     OW12831   0.937   6.254   1.881  0.1529 -0.7026 -0.1462
 3265SOL    HW212832   0.898   6.170   1.859 -0.8631  0.4182 -3.1954
 3265SOL    HW312833   0.862   6.312   1.895  0.7804 -0.5537  3.7917
 3265SOL    MW412834   0.922   6.251   1.880 -0.4824  0.4903  0.0833
 3266SOL     OW12835   2.819   1.336   1.191 -0.1666  0.6206 -0.0835
 3266SOL    HW212836   2.736   1.294   1.214 -0.1627 -0.8566 -2.4194
 3266SOL    HW312837   2.796   1.400   1.124  0.2525  2.3077  1.3129
 3266SOL    MW412838   2.805   1.339   1.185  0.0526 -0.3845 -0.4285
 3267SOL     OW12839   4.982   5.269   6.185  0.4249  0.1480  0.3938
 3267SOL    HW212840   5.023   5.215   6.253  0.5325  2.0548  1.9380
 3267SOL    HW312841   4.892   5.280   6.215 -0.4494 -1.4917 -1.4162
 3267SOL    MW412842   4.975   5.263   6.198  0.3126  0.3012 -0.3512
 3268SOL     OW12843   4.968   4.003   2.026 -0.3945 -0.7358 -0.1774
 3268SOL    HW212844   5.011   3.937   2.081  0.1135 -1.2147 -1.1368
 3268SOL    HW312845   4.879   3.970   2.014 -0.1082 -1.3158 -0.7519
 3268SOL    MW412846   4.962   3.990   2.032  0.1050  0.3580  0.7238
 3269SOL     OW12847   1.995   1.376   3.380 -0.6256  0.0404  0.1301
 3269SOL    HW212848   1.957   1.428   3.310 -2.5307 -0.4987  0.6968
 3269SOL    HW312849   1.920   1.338   3.425  0.5730 -0.3382  1.9241
 3269SOL    MW412850   1.980   1.378   3.377  0.0196  0.1696 -0.8939
 3270SOL     OW12851   0.846   2.391   5.562 -0.5538  0.2809 -0.3401
 3270SOL    HW212852   0.863   2.469   5.509 -0.0400 -0.1785 -0.8644
 3270SOL    HW312853   0.779   2.419   5.624 -0.4982  1.0933 -0.6290
 3270SOL    MW412854   0.840   2.405   5.563  0.1504 -0.2351  0.1800
 3271SOL     OW12855   1.990   2.427   1.036  0.1283  0.3297  0.1242
 3271SOL    HW212856   2.049   2.387   0.973 -0.0586 -1.0795  0.8126
 3271SOL    HW312857   2.029   2.410   1.121 -0.6768  0.3943  0.5188
 3271SOL    MW412858   2.003   2.420   1.039 -0.3022  0.0990 -0.1058
 3272SOL     OW12859   3.724   3.317   3.363 -0.5044 -0.5052 -0.4478
 3272SOL    HW212860   3.798   3.262   3.335 -1.1467  0.1330 -3.8781
 3272SOL    HW312861   3.681   3.265   3.432  1.3636 -2.2746 -0.4933
 3272SOL    MW412862   3.728   3.303   3.368 -0.4747 -0.1484  0.4279
 3273SOL     OW12863   5.504   4.612   2.880 -0.2191  0.2153 -0.1653
 3273SOL    HW212864   5.514   4.529   2.928 -0.4876  0.1691 -0.1848
 3273SOL    HW312865   5.462   4.586   2.797  1.0098  0.1829 -0.7958
 3273SOL    MW412866   5.500   4.598   2.875  0.0563 -0.8650  0.4903
 3274SOL     OW12867   5.163   2.379   3.137 -0.1250 -0.8331 -0.5812
 3274SOL    HW212868   5.194   2.454   3.087 -0.6181  0.0325  0.3715
 3274SOL    HW312869   5.240   2.350   3.187 -0.3514  0.1320  0.3545
 3274SOL    MW412870   5.177   2.385   3.137 -0.3299 -0.0745 -0.4174
 3275SOL     OW12871   4.880   0.596   1.614 -0.1009 -0.2847  0.3699
 3275SOL    HW212872   4.894   0.505   1.588 -1.0171 -0.3245 -0.0198
 3275SOL    HW312873   4.830   0.635   1.542  1.5450  0.9499 -0.1717
 3275SOL    MW412874   4.875   0.589   1.601  0.2158 -0.4400 -0.8339
 3276SOL     OW12875   0.967   0.624   5.372 -0.5000 -0.3100 -0.0792
 3276SOL    HW212876   0.945   0.536   5.403 -2.1274 -0.3286 -1.1716
 3276SOL    HW312877   1.035   0.611   5.306 -1.1760 -0.8376 -0.6899
 3276SOL    MW412878   0.973   0.611   5.368  0.0072 -0.5333  0.2647
 3277SOL     OW12879   2.085   0.264   1.853  0.4455 -0.5026 -0.1588
 3277SOL    HW212880   1.990   0.260   1.865  0.6340 -2.0300  1.1463
 3277SOL    HW312881   2.097   0.273   1.759 -0.9959 -0.9467 -0.4136
 3277SOL    MW412882   2.074   0.265   1.843  0.0116  0.7842  0.2839
 3278SOL     OW12883   3.292   0.106   1.493 -0.4194 -0.1246  0.1114
 3278SOL    HW212884   3.354   0.169   1.457 -0.6183 -0.5369 -0.9892
 3278SOL    HW312885   3.347   0.031   1.519 -0.4444 -0.4915 -0.8654
 3278SOL    MW412886   3.308   0.104   1.492 -0.0431 -0.3058  0.4768
 3279SOL     OW12887   3.362   4.530   0.706 -0.1997  0.1925  0.2657
 3279SOL    HW212888   3.285   4.501   0.756  0.4419  0.1293  1.2377
 3279SOL    HW312889   3.359   4.625   0.711  0.1927  0.1785  0.9653
 3279SOL    MW412890   3.351   4.539   0.713  0.6582  0.3894  0.4866
 3280SOL     OW12891   4.473   6.078   4.684 -0.1189  0.2093  0.1595
 3280SOL    HW212892   4.385   6.086   4.720 -0.5664 -1.0068 -0.6125
 3280SOL    HW312893   4.531   6.081   4.760 -0.9520 -1.0980  0.8717
 3280SOL    MW412894   4.469   6.080   4.698  0.3651 -1.0770 -0.0500
 3281SOL     OW12895   5.654   4.075   0.526 -0.1228 -0.5398  0.7171
 3281SOL    HW212896   5.672   3.981   0.534  2.1798 -0.1491  0.7799
 3281SOL    HW312897   5.729   4.118   0.568 -0.4481  1.3382 -0.5027
 3281SOL    MW412898   5.666   4.068   0.533 -0.3215 -0.7268  0.1681
 3282SOL     OW12899   3.275   2.808   5.948  0.0057 -0.1900  0.1236
 3282SOL    HW212900   3.367   2.829   5.961  0.7835 -2.6626 -0.7645
 3282SOL    HW312901   3.247   2.864   5.876  0.0755  2.2739  1.9055
 3282SOL    MW412902   3.284   2.818   5.940  0.4858 -0.4064 -0.7870
 3283SOL     OW12903   2.404   0.344   3.557  0.5326 -0.2630  0.0757
 3283SOL    HW212904   2.357   0.409   3.609  0.7365  0.6595 -0.8651
 3283SOL    HW312905   2.384   0.366   3.466  0.3292 -1.7360 -0.2621
 3283SOL    MW412906   2.395   0.355   3.552  0.3292 -0.2948 -0.6650
 3284SOL     OW12907   0.398   5.700   6.410  0.1123 -0.1094  0.2807
 3284SOL    HW212908   0.315   5.719   6.365 -0.1422  2.7494  1.7054
 3284SOL    HW312909   0.455   5.666   6.342 -1.9969 -1.5772 -0.8786
 3284SOL    MW412910   0.394   5.698   6.395  0.1891  0.3034 -1.2602
 3285SOL     OW12911   1.736   0.323   4.838 -0.0571 -0.0863 -0.8939
 3285SOL    HW212912   1.789   0.354   4.764  1.5536 -0.9392 -0.1636
 3285SOL    HW312913   1.721   0.230   4.819 -1.5721  0.1971 -1.2144
 3285SOL    MW412914   1.741   0.315   4.826 -0.5020  0.1283 -0.4613
 3286SOL     OW12915   1.237   0.773   5.650 -0.0950 -0.2842 -0.0597
 3286SOL    HW212916   1.303   0.716   5.689 -0.3432 -0.0406  0.7432
 3286SOL    HW312917   1.234   0.849   5.708  0.2674  0.5789 -1.1374
 3286SOL    MW412918   1.245   0.775   5.663  0.6145  0.0093  0.4661
 3287SOL     OW12919   2.163   0.913   5.525  0.3173 -0.8574 -0.3469
 3287SOL    HW212920   2.244   0.866   5.545 -0.6028 -1.9224  1.1217
 3287SOL    HW312921   2.164   0.989   5.584  0.1660 -0.9887 -0.1714
 3287SOL    MW412922   2.173   0.917   5.535  0.4937  0.6894  0.5811
 3288SOL     OW12923   4.036   4.946   3.853  0.3737  0.0679 -0.1945
 3288SOL    HW212924   4.112   4.889   3.869  0.6492  1.0713  2.5671
 3288SOL    HW312925   4.074   5.032   3.834 -0.0682  0.2275 -0.3595
 3288SOL    MW412926   4.051   4.950   3.853  0.3992  0.0743 -0.6970
 3289SOL     OW12927   4.598   0.151   2.306 -0.1753  0.2233 -0.7554
 3289SOL    HW212928   4.585   0.059   2.281  3.1275 -0.3311 -0.8431
 3289SOL    HW312929   4.685   0.173   2.273  0.5750  2.3248  2.2632
 3289SOL    MW412930   4.607   0.142   2.298  0.7152  0.2857 -0.3891
 3290SOL     OW12931   5.024   2.767   4.911 -0.1188 -0.0049  0.2088
 3290SOL    HW212932   4.934   2.751   4.941 -0.5048 -1.1280 -1.3990
 3290SOL    HW312933   5.013   2.831   4.840  0.3529 -0.1331  0.0211
 3290SOL    MW412934   5.010   2.773   4.905 -0.3836 -0.2366 -0.4972
 3291SOL     OW12935   5.439   5.558   3.978 -0.2295 -0.2431 -0.3335
 3291SOL    HW212936   5.534   5.551   3.968  0.1179  2.6573 -0.0668
 3291SOL    HW312937   5.412   5.476   4.018  2.3306 -0.7156  0.5911
 3291SOL    MW412938   5.448   5.546   3.982  0.3065 -0.3188  0.1290
 3292SOL     OW12939   1.967   3.914   4.799 -0.3584  0.0502 -0.0449
 3292SOL    HW212940   2.004   3.843   4.746 -0.7067  0.2066 -0.5063
 3292SOL    HW312941   1.879   3.883   4.822 -0.8890  0.7402 -1.0823
 3292SOL    MW412942   1.960   3.901   4.795  0.2746 -0.0252 -0.3170
 3293SOL     OW12943   5.204   5.280   5.427  0.7120 -0.1308 -0.2751
 3293SOL    HW212944   5.169   5.327   5.503  0.0203 -2.2548  0.8067
 3293SOL    HW312945   5.299   5.279   5.442  0.4423 -2.6773  2.0066
 3293SOL    MW412946   5.212   5.286   5.439  0.2381  0.2078 -0.0320
 3294SOL     OW12947   3.617   2.030   3.034  0.3826 -0.0420 -0.1190
 3294SOL    HW212948   3.604   2.072   2.949  0.2432 -0.2271 -0.1913
 3294SOL    HW312949   3.704   2.057   3.062 -0.4796  2.0077  0.8051
 3294SOL    MW412950   3.626   2.039   3.027 -0.0799  0.0189  0.4417
 3295SOL     OW12951   0.029   4.113   1.316  0.1659 -0.3077  0.6792
 3295SOL    HW212952   0.048   4.078   1.403  0.2227 -0.7693  0.4836
 3295SOL    HW312953  -0.020   4.194   1.333  0.1681 -0.4000  1.1386
 3295SOL    MW412954   0.025   4.119   1.330  0.3588 -0.5079 -0.1385
 3296SOL     OW12955   1.294   5.416   1.299  0.4950 -0.4891  0.3322
 3296SOL    HW212956   1.210   5.432   1.257  0.8356  1.3222  0.2766
 3296SOL    HW312957   1.294   5.322   1.318 -1.3851 -0.5804  0.0342
 3296SOL    MW412958   1.283   5.406   1.296  0.0059 -0.4766  0.0144
 3297SOL     OW12959   2.522   1.463   6.104 -0.6335  0.1203 -0.6203
 3297SOL    HW212960   2.605   1.417   6.118  0.6284  1.5060 -2.9191
 3297SOL    HW312961   2.469   1.402   6.052 -0.3625 -0.1087 -0.6300
 3297SOL    MW412962   2.526   1.449   6.099 -0.2125 -0.4812 -0.2890
 3298SOL     OW12963   5.085   1.050   1.570 -0.3913  0.1095 -0.1956
 3298SOL    HW212964   5.071   0.956   1.578 -2.2348  0.1672 -1.8611
 3298SOL    HW312965   5.140   1.073   1.645 -1.5566 -1.9494  1.3926
 3298SOL    MW412966   5.091   1.041   1.581 -0.1527 -0.2987  0.1532
 3299SOL     OW12967   4.391   4.524   0.858  0.1468  0.3796 -0.2807
 3299SOL    HW212968   4.434   4.475   0.788 -0.0082 -1.8707  1.1122
 3299SOL    HW312969   4.459   4.582   0.891  0.4924  0.7845 -1.6440
 3299SOL    MW412970   4.406   4.525   0.853 -0.2051  0.5858  0.8097
 3300SOL     OW12971   0.425   1.987   5.506 -0.6254  0.5180 -0.2592
 3300SOL    HW212972   0.431   1.984   5.602 -1.9656  0.0930 -0.1634
 3300SOL    HW312973   0.511   1.956   5.476 -1.1916 -2.5027  0.8474
 3300SOL    MW412974   0.437   1.982   5.515  0.5190  0.1579 -0.1385
 3301SOL     OW12975   1.065   1.620   4.766  0.2489 -0.3201 -0.2510
 3301SOL    HW212976   1.148   1.588   4.800 -0.1955 -0.3398  0.8522
 3301SOL    HW312977   1.002   1.550   4.787 -0.3881  0.4842  0.5966
 3301SOL    MW412978   1.068   1.606   4.773  0.2176 -0.0760 -0.5435
 3302SOL     OW12979   3.525   2.775   5.657  0.1166  0.5344  0.2296
 3302SOL    HW212980   3.470   2.814   5.589  0.8162 -0.0708 -0.7246
 3302SOL    HW312981   3.612   2.767   5.616  0.8951  1.3274  1.6388
 3302SOL    MW412982   3.530   2.779   5.642  0.5112  0.4589 -0.4387
 3303SOL     OW12983   5.381   2.346   4.818 -0.0839 -0.0767 -0.3358
 3303SOL    HW212984   5.291   2.355   4.850  0.5003  3.7312  0.7485
 3303SOL    HW312985   5.373   2.298   4.736 -3.1553  0.4282 -0.4401
 3303SOL    MW412986   5.368   2.341   4.811 -0.3775  0.0260  0.0663
 3304SOL     OW12987   4.456   4.769   5.918  0.0613 -0.1676  0.8047
 3304SOL    HW212988   4.489   4.748   5.831  0.9137  0.9620  0.8346
 3304SOL    HW312989   4.366   4.798   5.904 -0.2002 -1.1187  0.4528
 3304SOL    MW412990   4.449   4.770   5.905  0.0228 -0.6879 -0.4810
 3305SOL     OW12991   1.089   4.071   0.722 -0.4553  0.0471 -0.3237
 3305SOL    HW212992   1.040   4.118   0.654  0.1399  1.1187 -0.0343
 3305SOL    HW312993   1.099   4.135   0.793  0.5376 -0.4568  0.0095
 3305SOL    MW412994   1.084   4.086   0.723  0.3364 -0.4634  0.1014
 3306SOL     OW12995   4.269   4.768   3.850  0.0480 -0.1670 -0.2625
 3306SOL    HW212996   4.242   4.695   3.907  1.4590  0.5096  1.3429
 3306SOL    HW312997   4.348   4.802   3.891 -1.2988  3.1740 -0.1233
 3306SOL    MW412998   4.276   4.763   3.863  0.6271  0.1059 -0.7666
 3307SOL     OW12999   2.352   5.263   5.830 -0.4324 -0.2369 -0.0195
 3307SOL    HW213000   2.400   5.182   5.847  2.7030  2.0358  3.1572
 3307SOL    HW313001   2.276   5.258   5.888  0.1450 -0.6169  0.7279
 3307SOL    MW413002   2.348   5.252   5.840 -0.2553 -0.0731  0.7807
 3308SOL     OW13003   5.573   4.719   4.456 -0.7851  0.2618 -0.6169
 3308SOL    HW213004   5.482   4.704   4.478 -0.5521 -1.4372 -0.6739
 3308SOL    HW313005   5.577   4.709   4.361 -0.6327  0.9710 -0.6960
 3308SOL    MW413006   5.562   4.716   4.446 -0.1988  0.2614  0.0781
 3309SOL     OW13007   0.297   0.995   6.416  0.2662 -0.0315  0.0914
 3309SOL    HW213008   0.378   1.000   6.467  0.7874 -1.1127 -0.5844
 3309SOL    HW313009   0.227   0.993   6.481  0.9396 -2.1315  0.8177
 3309SOL    MW413010   0.298   0.995   6.431 -0.0076  0.8179 -0.4647
 3310SOL     OW13011   2.115   2.502   5.263 -0.0019  0.1718  0.1449
 3310SOL    HW213012   2.136   2.451   5.185 -0.0244  1.4220 -0.7037
 3310SOL    HW313013   2.187   2.483   5.324 -1.2800 -2.8346  0.9030
 3310SOL    MW413014   2.128   2.492   5.261 -0.2018  0.3922  0.1419
 3311SOL     OW13015   2.390   0.961   4.771 -0.0688 -0.2624  0.1583
 3311SOL    HW213016   2.475   0.933   4.806  0.4510 -0.4782 -1.2023
 3311SOL    HW313017   2.399   1.056   4.759 -1.3634  0.4162  3.4994
 3311SOL    MW413018   2.403   0.970   4.774 -0.4699  0.5862 -0.1363
 3312SOL     OW13019   0.747   5.224   1.230  0.1404 -0.3984  1.0169
 3312SOL    HW213020   0.738   5.296   1.168 -0.6038  0.0091  1.5815
 3312SOL    HW313021   0.830   5.240   1.274  0.1474 -0.0737  0.8885
 3312SOL    MW413022   0.756   5.235   1.228 -0.2989  0.4468  0.1110
 3313SOL     OW13023   2.348   1.064   0.536  0.1591 -0.2413  0.2304
 3313SOL    HW213024   2.404   1.137   0.561  0.1355  0.0574 -0.5496
 3313SOL    HW313025   2.325   1.022   0.618  0.6600  0.2710  0.6423
 3313SOL    MW413026   2.353   1.068   0.550  0.3030  0.1396  0.2190
 3314SOL     OW13027   5.588   0.518   2.786 -0.4572 -0.0295 -0.3413
 3314SOL    HW213028   5.577   0.596   2.841  0.5701 -1.0481  1.4224
 3314SOL    HW313029   5.594   0.446   2.849 -0.3133 -1.3945 -1.8720
 3314SOL    MW413030   5.588   0.519   2.802 -0.2325  0.1692 -0.1000
 3315SOL     OW13031   2.293   0.570   3.150 -0.4798  0.1084 -0.0097
 3315SOL    HW213032   2.247   0.605   3.226  0.0073 -0.7478  0.6909
 3315SOL    HW313033   2.243   0.491   3.126 -0.3344  0.0903 -0.2550
 3315SOL    MW413034   2.281   0.564   3.156 -0.1362 -0.3363 -0.7529
 3316SOL     OW13035   6.232   6.419   0.428 -0.1108 -0.2377 -0.2097
 3316SOL    HW213036   6.293   6.362   0.381  0.8097  0.8334 -0.3573
 3316SOL    HW313037   6.231   6.385   0.517  1.5614  0.3528  0.0722
 3316SOL    MW413038   6.240   6.407   0.434  0.4312 -0.1416  0.5983
 3317SOL     OW13039   2.709   5.994   2.040  0.1964 -0.8866  0.3467
 3317SOL    HW213040   2.715   5.931   2.112  0.1723 -1.4348 -0.1232
 3317SOL    HW313041   2.615   6.004   2.024  0.2179 -2.2602 -0.8757
 3317SOL    MW413042   2.697   5.987   2.048 -0.3156  0.0504 -0.0606
 3318SOL     OW13043   0.491   5.509   5.619 -0.2114  0.1411 -0.0456
 3318SOL    HW213044   0.450   5.509   5.532  0.9710  0.9365 -0.6385
 3318SOL    HW313045   0.563   5.446   5.611 -0.7030 -0.5297  0.6844
 3318SOL    MW413046   0.495   5.501   5.606 -0.3927 -0.5460  0.1898
 3319SOL     OW13047   6.348   3.126   5.913  0.7486  0.0026  0.2458
 3319SOL    HW213048   6.359   3.125   6.008 -1.2810 -0.2013  0.5261
 3319SOL    HW313049   6.424   3.174   5.880  1.2981  0.3970  1.9877
 3319SOL    MW413050   6.359   3.132   5.921  0.2856  0.5365 -0.2797
 3320SOL     OW13051   1.695   5.859   0.724  0.1737 -0.4793 -0.3708
 3320SOL    HW213052   1.777   5.808   0.728  0.4160 -0.0707 -0.0768
 3320SOL    HW313053   1.646   5.831   0.802  0.0054 -0.7646 -0.5760
 3320SOL    MW413054   1.699   5.848   0.735  0.3044 -0.0442 -0.0767
 3321SOL     OW13055   3.951   2.369   2.418  0.4559 -0.3789 -0.4461
 3321SOL    HW213056   3.979   2.280   2.397 -0.7683 -0.2281 -3.0827
 3321SOL    HW313057   3.997   2.425   2.355  0.5006  0.7864  0.5625
 3321SOL    MW413058   3.961   2.365   2.407  0.2875  0.0887 -0.4667
 3322SOL     OW13059   0.755   2.867   4.675 -0.1368  0.2812  0.2331
 3322SOL    HW213060   0.720   2.855   4.587 -1.3880  1.6278  0.5249
 3322SOL    HW313061   0.798   2.952   4.672 -0.4428  0.4665  1.0105
 3322SOL    MW413062   0.756   2.876   4.663  0.1339 -0.0206 -0.5138
 3323SOL     OW13063   2.392   3.029   5.867  1.1419 -0.7989  0.0888
 3323SOL    HW213064   2.381   3.124   5.874  2.8765 -0.5077 -0.7783
 3323SOL    HW313065   2.303   2.995   5.877  0.5034  0.8891  0.5945
 3323SOL    MW413066   2.379   3.037   5.869  0.3059 -0.3926 -0.1844
 3324SOL     OW13067   1.863   3.704   0.397 -0.3063  0.0524 -0.5545
 3324SOL    HW213068   1.946   3.705   0.351 -0.6568 -2.2363 -1.3549
 3324SOL    HW313069   1.808   3.643   0.347 -0.6070 -2.8794  2.9439
 3324SOL    MW413070   1.867   3.696   0.384  0.2185  0.1001 -0.2499
 3325SOL     OW13071   4.711   3.464   1.030  0.1350  0.3491  0.2026
 3325SOL    HW213072   4.665   3.402   0.974 -1.9374  1.7298  0.2715
 3325SOL    HW313073   4.803   3.454   1.006 -0.4149 -0.9217 -1.5906
 3325SOL    MW413074   4.717   3.455   1.020 -0.5298 -0.5159  0.0212
 3326SOL     OW13075   5.981   3.820   5.123 -0.1692 -0.3048 -0.0025
 3326SOL    HW213076   5.888   3.808   5.107 -0.2170 -0.9872  0.6923
 3326SOL    HW313077   5.989   3.910   5.155 -0.6266 -0.3169  0.1573
 3326SOL    MW413078   5.970   3.830   5.125  0.6779  0.1640  0.0411
 3327SOL     OW13079   5.068   3.651   1.210  0.1953  0.3293  0.0078
 3327SOL    HW213080   5.029   3.603   1.137  3.3951 -2.2351 -0.2500
 3327SOL    HW313081   5.039   3.603   1.288 -0.2677  0.8168  0.1397
 3327SOL    MW413082   5.059   3.638   1.211  0.1203 -0.3337  0.5802
 3328SOL     OW13083   4.250   3.067   0.969  0.2632 -0.2646  0.1334
 3328SOL    HW213084   4.206   3.142   0.929  1.2220  0.7115  0.8461
 3328SOL    HW313085   4.342   3.078   0.946  0.5477 -0.7174  1.0096
 3328SOL    MW413086   4.256   3.078   0.961 -0.2804  0.3859 -0.3290
 3329SOL     OW13087   4.913   2.264   5.723  0.2031 -0.1972  0.5569
 3329SOL    HW213088   4.934   2.355   5.703  2.4469 -0.2600  2.2636
 3329SOL    HW313089   4.942   2.214   5.647 -0.7980  0.4669 -0.2750
 3329SOL    MW413090   4.919   2.269   5.711 -0.5953 -0.4488  0.2333
 3330SOL     OW13091   3.080   4.665   4.143 -0.0763 -0.2089  0.2133
 3330SOL    HW213092   3.109   4.754   4.163  2.0143 -0.6204 -0.7167
 3330SOL    HW313093   3.009   4.677   4.079  1.0757  0.8119 -0.9573
 3330SOL    MW413094   3.075   4.678   4.137 -0.1777 -0.0723 -0.0243
 3331SOL     OW13095   4.501   6.394   2.743  0.5359  0.3459  0.8481
 3331SOL    HW213096   4.570   6.404   2.677  0.1931  3.4070  0.8019
 3331SOL    HW313097   4.468   6.305   2.729 -0.6330  1.2245 -4.3383
 3331SOL    MW413098   4.505   6.384   2.732 -0.5543 -0.2705  0.7682
 3332SOL     OW13099   4.765   1.107   1.971  0.4937  0.4508  0.0474
 3332SOL    HW213100   4.824   1.034   1.991  1.3666  1.6485  2.1864
 3332SOL    HW313101   4.821   1.184   1.972 -0.7052  1.3574 -0.4122
 3332SOL    MW413102   4.780   1.108   1.974 -0.7086 -0.0979  1.3333
 3333SOL     OW13103   4.638   5.089   2.732  0.7093 -0.0554  1.0845
 3333SOL    HW213104   4.681   5.162   2.688 -1.5288  1.0203  0.5204
 3333SOL    HW313105   4.575   5.130   2.792 -1.4716 -1.4153 -0.1278
 3333SOL    MW413106   4.635   5.104   2.734  0.4007 -0.0645 -0.0358
 3334SOL     OW13107   6.287   0.041   1.208 -0.1788  0.4526 -0.1827
 3334SOL    HW213108   6.200   0.063   1.176 -0.4057 -2.2726 -1.6622
 3334SOL    HW313109   6.298  -0.052   1.188  1.9746 -0.0193  2.5413
 3334SOL    MW413110   6.277   0.032   1.201 -0.0736 -1.2322  0.0159
 3335SOL     OW13111   6.202   1.820   3.295 -0.0389 -0.3365  0.0836
 3335SOL    HW213112   6.152   1.899   3.314  1.7809  0.9364 -0.1659
 3335SOL    HW313113   6.224   1.783   3.380 -0.7438 -0.4846  0.2039
 3335SOL    MW413114   6.198   1.826   3.309 -0.2204 -0.0208  0.2669
 3336SOL     OW13115   4.187   4.958   1.415  0.0556  0.0177 -0.1654
 3336SOL    HW213116   4.174   5.025   1.348  0.8381  1.1567  0.8037
 3336SOL    HW313117   4.103   4.953   1.461 -0.6490 -1.0986 -1.4498
 3336SOL    MW413118   4.174   4.966   1.412  0.6004 -0.3956 -0.2745
 3337SOL     OW13119   5.471   0.827   3.367 -0.1634  0.5675 -0.3006
 3337SOL    HW213120   5.424   0.872   3.296 -0.8077 -0.8791 -0.8170
 3337SOL    HW313121   5.561   0.823   3.336 -0.8076 -2.0866 -2.1959
 3337SOL    MW413122   5.477   0.833   3.354  0.4222  0.0047 -0.6389
 3338SOL     OW13123   5.811   3.252   2.598 -0.4534  0.3991 -0.3193
 3338SOL    HW213124   5.742   3.252   2.530 -1.1087  0.2218  0.3335
 3338SOL    HW313125   5.799   3.170   2.644  0.2245  0.3586 -0.2152
 3338SOL    MW413126   5.800   3.241   2.595  0.1035  0.3128 -0.5678
 3339SOL     OW13127   6.228   4.544   2.905  0.3642 -0.0621  0.1305
 3339SOL    HW213128   6.241   4.490   2.827 -1.0198  1.2350 -1.0537
 3339SOL    HW313129   6.203   4.629   2.872  0.1449  0.6587  2.0100
 3339SOL    MW413130   6.227   4.548   2.890  0.5076  0.3319 -0.4443
 3340SOL     OW13131   0.695   4.051   3.992 -0.9206  0.0753  0.1066
 3340SOL    HW213132   0.664   4.141   3.986 -0.3180  0.2624 -0.2846
 3340SOL    HW313133   0.686   4.017   3.903  0.3893  0.2753 -0.1202
 3340SOL    MW413134   0.690   4.058   3.979  0.0398  0.0138  0.2887
 3341SOL     OW13135   4.468   3.973   5.329 -0.2383 -0.5088  0.4116
 3341SOL    HW213136   4.381   4.012   5.340 -0.3872 -0.1880 -1.6014
 3341SOL    HW313137   4.475   3.954   5.236  2.1205  0.1042  0.3942
 3341SOL    MW413138   4.457   3.976   5.318  0.4692  0.6233 -0.1654
 3342SOL     OW13139   3.066   4.540   2.566  0.3577 -0.5656 -0.0656
 3342SOL    HW213140   3.063   4.615   2.507 -0.0950  0.2527  0.9682
 3342SOL    HW313141   3.151   4.500   2.550  0.6127  0.1809 -0.6161
 3342SOL    MW413142   3.077   4.545   2.557  0.3312  0.6760  0.1560
 3343SOL     OW13143   2.303   3.476   4.922  0.0673  0.6629  0.6154
 3343SOL    HW213144   2.235   3.415   4.894 -0.4339  1.3067  0.3807
 3343SOL    HW313145   2.285   3.492   5.015  1.2367 -0.8461  1.1355
 3343SOL    MW413146   2.292   3.470   4.930  0.3511 -0.1618 -0.4090
 3344SOL     OW13147   1.149   0.964   4.538  0.2249  0.5216 -0.5287
 3344SOL    HW213148   1.073   1.021   4.552 -0.1973 -0.2448  0.4336
 3344SOL    HW313149   1.212   0.993   4.604  0.1576  0.1360 -0.2947
 3344SOL    MW413150   1.147   0.976   4.549 -0.1786  0.1277 -0.5934
 3345SOL     OW13151   0.055   5.352   0.923  0.6835 -0.4375 -0.3569
 3345SOL    HW213152   0.021   5.442   0.926 -0.8927 -1.0049 -0.2333
 3345SOL    HW313153   0.108   5.350   0.844 -0.9401  0.0641 -1.5131
 3345SOL    MW413154   0.057   5.364   0.913 -0.3345  0.1849  0.0215
 3346SOL     OW13155   4.962   3.313   3.185 -0.0236  0.0242 -0.2384
 3346SOL    HW213156   5.015   3.240   3.152  1.9176  1.5376 -0.6368
 3346SOL    HW313157   4.965   3.303   3.280 -0.1945 -0.6857 -0.3011
 3346SOL    MW413158   4.969   3.302   3.193  0.4267 -0.7276  0.1392
 3347SOL     OW13159   2.207   3.436   6.225  0.3955 -0.0564  0.1989
 3347SOL    HW213160   2.250   3.371   6.281  0.1429 -0.7690 -0.4158
 3347SOL    HW313161   2.165   3.384   6.157  1.2889  0.8178 -1.0761
 3347SOL    MW413162   2.207   3.420   6.223 -0.8165  0.0520  0.3594
 3348SOL     OW13163   5.476   0.013   2.847  0.4843  0.0653  0.5835
 3348SOL    HW213164   5.417   0.063   2.790 -0.3340 -0.1485  1.2223
 3348SOL    HW313165   5.432   0.012   2.932  0.4649 -1.7479  0.5796
 3348SOL    MW413166   5.462   0.020   2.850 -0.4944 -0.1301  0.3453
 3349SOL     OW13167   1.580   0.789   5.853  0.1966 -0.0624 -0.4556
 3349SOL    HW213168   1.531   0.727   5.799 -0.4618 -0.1225  0.2089
 3349SOL    HW313169   1.514   0.851   5.884  0.7370  0.5665 -0.5349
 3349SOL    MW413170   1.565   0.789   5.850  0.2725  0.1185  0.1804
 3350SOL     OW13171   6.299   5.877   4.650 -0.2743  0.7208  0.0975
 3350SOL    HW213172   6.266   5.796   4.690  0.2959 -0.0774 -1.0213
 3350SOL    HW313173   6.220   5.928   4.631 -0.6543  0.3051  0.5259
 3350SOL    MW413174   6.284   5.873   4.653  0.7771 -0.0616  0.1571
 3351SOL     OW13175   1.261   4.074   5.754 -0.2853 -0.3122  0.0373
 3351SOL    HW213176   1.342   4.119   5.728 -0.5298  1.1475  1.6003
 3351SOL    HW313177   1.218   4.135   5.814 -1.0463 -2.3383  1.6667
 3351SOL    MW413178   1.266   4.088   5.758  0.3301  0.0979  0.1902
 3352SOL     OW13179   0.826   5.841   2.727  0.2676  0.3943 -1.2368
 3352SOL    HW213180   0.781   5.786   2.663 -0.0008 -0.0810 -0.6515
 3352SOL    HW313181   0.878   5.902   2.674  1.1923 -0.9186 -1.9115
 3352SOL    MW413182   0.827   5.841   2.711 -0.2155 -0.1401 -0.6787
 3353SOL     OW13183   3.481   3.277   5.933  0.4620 -0.0973  0.2397
 3353SOL    HW213184   3.462   3.257   5.841 -0.8704 -0.3480  0.5505
 3353SOL    HW313185   3.425   3.217   5.982  1.5696 -0.3458  1.2303
 3353SOL    MW413186   3.471   3.266   5.927  0.0119  0.0095  0.3385
 3354SOL     OW13187   1.932   4.577   5.112 -0.2269 -0.4147 -0.1516
 3354SOL    HW213188   1.975   4.627   5.043 -0.9792  0.1855 -0.2039
 3354SOL    HW313189   2.001   4.522   5.149  0.0224 -1.4690 -2.0048
 3354SOL    MW413190   1.947   4.576   5.107 -0.0975  0.0479 -0.1347
 3355SOL     OW13191   2.577   4.646   0.845 -0.0126  0.4414 -0.8667
 3355SOL    HW213192   2.570   4.662   0.939 -0.8451 -0.6271 -0.7228
 3355SOL    HW313193   2.670   4.659   0.826  0.5195 -0.9793  0.4618
 3355SOL    MW413194   2.588   4.650   0.855  0.1541 -0.0938 -0.3466
 3356SOL     OW13195   2.557   1.331   3.304  0.0286  0.2131  0.6698
 3356SOL    HW213196   2.610   1.378   3.369 -0.7059  0.7721  0.8753
 3356SOL    HW313197   2.588   1.364   3.219  0.4327  0.0849  0.7692
 3356SOL    MW413198   2.568   1.342   3.301 -0.0367  0.1305  0.0968
 3357SOL     OW13199   3.534   4.909   1.589  0.1278 -0.4581 -0.1982
 3357SOL    HW213200   3.499   4.990   1.552  0.4311  0.1854  0.8936
 3357SOL    HW313201   3.599   4.879   1.525 -0.1084  0.0620 -0.6837
 3357SOL    MW413202   3.538   4.915   1.576 -0.4968 -0.5361  0.5922
 3358SOL     OW13203   2.138   2.354   4.886 -0.0945 -0.2495 -0.0352
 3358SOL    HW213204   2.172   2.290   4.949  0.6790 -0.7822 -0.9758
 3358SOL    HW313205   2.182   2.436   4.911 -0.4424 -0.2581  0.6396
 3358SOL    MW413206   2.149   2.356   4.898  0.9940  1.0233 -0.5571
 3359SOL     OW13207   2.010   3.709   1.633  0.3177 -0.6832 -0.1332
 3359SOL    HW213208   2.005   3.804   1.637 -0.4711 -0.7579  1.3157
 3359SOL    HW313209   1.943   3.679   1.695  1.7202 -2.1589  0.7423
 3359SOL    MW413210   2.001   3.717   1.642 -0.0132  0.3778  0.2777
 3360SOL     OW13211   5.512   5.851   2.891  0.8620 -0.1872 -0.7710
 3360SOL    HW213212   5.582   5.819   2.948  0.4483  0.6299  0.2243
 3360SOL    HW313213   5.432   5.835   2.941  0.6321  2.5336 -0.1086
 3360SOL    MW413214   5.510   5.844   2.905 -0.5935  0.0292 -0.0217
 3361SOL     OW13215   3.791   0.611   3.906 -0.4671 -0.3275 -0.1611
 3361SOL    HW213216   3.720   0.625   3.844  0.1034 -0.6467 -0.9026
 3361SOL    HW313217   3.747   0.592   3.989 -1.2418 -0.8656 -0.6827
 3361SOL    MW413218   3.776   0.610   3.909  0.5579 -0.1163 -0.0849
 3362SOL     OW13219   1.599   1.368   0.703 -0.0195 -0.3712  0.4213
 3362SOL    HW213220   1.522   1.391   0.650 -1.1345  0.2377  2.1924
 3362SOL    HW313221   1.650   1.448   0.706 -1.3026  0.4469  2.3620
 3362SOL    MW413222   1.595   1.382   0.696  0.1717 -0.0003  0.5585
 3363SOL     OW13223   3.577   6.121   5.677 -0.4253 -0.4692 -0.0020
 3363SOL    HW213224   3.556   6.154   5.590  0.0719 -0.6389 -0.1888
 3363SOL    HW313225   3.671   6.138   5.687 -0.4162 -0.7328  0.3777
 3363SOL    MW413226   3.587   6.128   5.667 -0.5594  0.1801 -0.6575
 3364SOL     OW13227   6.041   2.557   6.347  0.4871 -0.1975  0.1699
 3364SOL    HW213228   5.974   2.513   6.400 -1.0570  2.4783  0.6208
 3364SOL    HW313229   6.095   2.604   6.411  1.7735 -0.9633 -0.3224
 3364SOL    MW413230   6.040   2.557   6.362  0.2445  0.4208  0.0741
 3365SOL     OW13231   4.191   1.093   4.233  0.4798  0.1954  0.1969
 3365SOL    HW213232   4.233   1.010   4.254  1.5459  0.2527 -1.5713
 3365SOL    HW313233   4.253   1.139   4.177 -0.2976  2.0038  0.7189
 3365SOL    MW413234   4.204   1.088   4.229  0.1679  0.2428 -0.4427
 3366SOL     OW13235   5.734   0.266   2.338 -0.9473 -0.2285 -0.3180
 3366SOL    HW213236   5.777   0.181   2.345 -1.0503 -0.3554 -1.1057
 3366SOL    HW313237   5.779   0.309   2.264 -1.8605 -0.1824 -0.8554
 3366SOL    MW413238   5.746   0.261   2.329 -0.2926 -0.4420 -0.0979
 3367SOL     OW13239   0.479   2.878   2.165  0.1868  0.3370 -0.4200
 3367SOL    HW213240   0.506   2.967   2.145  2.7661  0.2504  2.0468
 3367SOL    HW313241   0.543   2.823   2.118 -0.2853 -0.1754 -0.4802
 3367SOL    MW413242   0.491   2.882   2.156  0.3715 -0.4886  0.0953
 3368SOL     OW13243   5.524   6.247   6.232  0.5542  0.0838 -0.4335
 3368SOL    HW213244   5.489   6.182   6.294 -0.9952 -1.4442 -2.7366
 3368SOL    HW313245   5.599   6.285   6.277  0.3786 -1.9539  1.7929
 3368SOL    MW413246   5.529   6.243   6.246  0.1851 -0.6733  0.4301
 3369SOL     OW13247   5.196   1.004   2.626 -0.4244 -0.4662 -0.3600
 3369SOL    HW213248   5.201   1.087   2.577 -1.5466 -0.3035 -0.2343
 3369SOL    HW313249   5.162   1.029   2.712  0.7367 -0.8667  0.2325
 3369SOL    MW413250   5.192   1.018   2.631  0.9061 -0.3359 -0.5590
 3370SOL     OW13251   5.873   1.599   1.816 -0.3832  0.0618  0.0007
 3370SOL    HW213252   5.928   1.548   1.875 -1.3697 -0.1023  0.8265
 3370SOL    HW313253   5.916   1.594   1.731 -0.2205 -1.8053  0.1478
 3370SOL    MW413254   5.886   1.591   1.813  0.3823  0.0607 -0.0726
 3371SOL     OW13255   3.797   5.019   1.955  0.6254  0.0044 -0.0088
 3371SOL    HW213256   3.804   4.924   1.953 -0.6416 -0.1016 -0.2075
 3371SOL    HW313257   3.766   5.039   2.044 -1.9922 -0.0394 -0.8218
 3371SOL    MW413258   3.794   5.009   1.967  0.3743 -0.3702 -0.4261
 3372SOL     OW13259   1.359   4.450   0.737  0.0161  0.2441 -0.4907
 3372SOL    HW213260   1.295   4.426   0.670  0.7253 -1.3733 -0.6326
 3372SOL    HW313261   1.324   4.531   0.775 -1.7932 -0.2633 -0.9625
 3372SOL    MW413262   1.346   4.458   0.733  0.8715  0.5271 -0.0286
 3373SOL     OW13263   5.621   4.171   3.371  0.3112 -0.2095  0.3284
 3373SOL    HW213264   5.535   4.182   3.412  0.0623 -0.8551 -0.0110
 3373SOL    HW313265   5.603   4.125   3.289  1.0586 -0.9660  0.5809
 3373SOL    MW413266   5.608   4.167   3.365  0.4414  0.0191  0.5126
 3374SOL     OW13267   5.971   4.917   1.994 -0.0972  0.4604 -0.6563
 3374SOL    HW213268   6.064   4.937   2.009 -0.0235 -0.5551  0.4212
 3374SOL    HW313269   5.958   4.931   1.900  1.4496 -0.4651 -1.0505
 3374SOL    MW413270   5.982   4.922   1.983 -0.6087  0.1432  0.3365
 3375SOL     OW13271   1.023   4.514   1.959 -0.5413  0.6563 -0.0794
 3375SOL    HW213272   1.051   4.456   2.030 -1.0879 -0.2632 -0.6022
 3375SOL    HW313273   1.095   4.576   1.949 -0.5832  1.0118  1.4873
 3375SOL    MW413274   1.036   4.514   1.967 -0.4233 -0.2022 -0.6985
 3376SOL     OW13275   4.180   1.441   4.136  0.3132  0.4581  0.2048
 3376SOL    HW213276   4.157   1.397   4.218 -0.1462  0.8280  0.2782
 3376SOL    HW313277   4.101   1.489   4.111  0.4096  0.2706 -0.5094
 3376SOL    MW413278   4.166   1.441   4.143  0.3092 -0.3936 -0.1054
 3377SOL     OW13279   4.384   3.767   3.146 -0.4364 -0.6407  0.2246
 3377SOL    HW213280   4.290   3.787   3.140 -1.0477 -2.8385  1.4719
 3377SOL    HW313281   4.426   3.853   3.156 -2.3044  0.3857 -0.2390
 3377SOL    MW413282   4.377   3.781   3.146 -0.4107  0.7055 -0.3197
 3378SOL     OW13283   5.360   4.139   3.884 -0.1828  0.5829 -0.0248
 3378SOL    HW213284   5.284   4.112   3.936  0.0714 -1.3535 -0.5620
 3378SOL    HW313285   5.408   4.057   3.869  0.6521  1.3607 -1.8459
 3378SOL    MW413286   5.356   4.124   3.889  0.0967  0.3591  0.5440
 3379SOL     OW13287   2.614   0.080   3.836 -0.9403  0.5669  0.4397
 3379SOL    HW213288   2.554   0.043   3.901  0.3758  0.6555  1.7404
 3379SOL    HW313289   2.696   0.034   3.850 -0.6242  0.5830 -1.1927
 3379SOL    MW413290   2.617   0.069   3.846 -0.1894 -0.1441 -0.0760
 3380SOL     OW13291   1.966   3.445   4.561  0.0416 -0.3255 -0.1122
 3380SOL    HW213292   2.015   3.423   4.482 -0.8104 -0.7400 -0.5430
 3380SOL    HW313293   2.010   3.397   4.631  0.2736 -0.6562 -0.4824
 3380SOL    MW413294   1.978   3.436   4.560  0.4433 -0.5877 -0.2624
 3381SOL     OW13295   3.847   2.415   3.363  0.0630  0.1679  0.0132
 3381SOL    HW213296   3.757   2.389   3.383 -0.6307  0.8444 -1.9839
 3381SOL    HW313297   3.901   2.345   3.400 -1.2800 -0.3596  1.0632
 3381SOL    MW413298   3.842   2.403   3.370 -0.1351  0.1261 -0.4393
 3382SOL     OW13299   3.580   2.406   0.555  0.0065  0.0794 -0.5336
 3382SOL    HW213300   3.553   2.348   0.484 -0.9892 -0.0959 -0.0325
 3382SOL    HW313301   3.609   2.485   0.511  0.2574 -0.3639 -1.1763
 3382SOL    MW413302   3.580   2.409   0.540  0.3321 -0.2237 -0.9471
 3383SOL     OW13303   5.457   5.196   3.837  0.0604  0.0426 -0.5631
 3383SOL    HW213304   5.426   5.282   3.810  0.3314  0.5426  0.7009
 3383SOL    HW313305   5.492   5.208   3.925  1.2380 -1.1036 -0.8374
 3383SOL    MW413306   5.457   5.209   3.845  0.0213  0.1294 -0.6099
 3384SOL     OW13307   4.413   0.673   3.482 -0.3889 -0.1952  0.1319
 3384SOL    HW213308   4.474   0.709   3.547 -0.7353 -0.6294  0.7119
 3384SOL    HW313309   4.415   0.578   3.498 -1.3729 -0.1957  0.3049
 3384SOL    MW413310   4.421   0.665   3.493 -0.1349  0.2302  0.2796
 3385SOL     OW13311   5.451   2.612   2.867 -0.2573 -0.1073  0.4522
 3385SOL    HW213312   5.396   2.686   2.890  0.8543  0.5374  1.1130
 3385SOL    HW313313   5.523   2.614   2.930  0.6486 -0.7906 -0.5101
 3385SOL    MW413314   5.453   2.622   2.878  0.3029 -0.1441  0.3927
 3386SOL     OW13315   6.233   0.906   1.262  0.1091  0.5076  0.1302
 3386SOL    HW213316   6.218   1.000   1.259 -1.1461  0.3069 -1.4653
 3386SOL    HW313317   6.209   0.875   1.174  0.4726 -1.2975  0.6222
 3386SOL    MW413318   6.228   0.914   1.250 -0.5030  0.6529  0.0724
 3387SOL     OW13319   0.599   5.528   0.637  0.3557  0.3578  0.4127
 3387SOL    HW213320   0.636   5.448   0.674 -0.7663 -0.3702 -0.0010
 3387SOL    HW313321   0.627   5.529   0.546 -3.6602 -2.3224 -1.1657
 3387SOL    MW413322   0.607   5.518   0.630 -0.2303  0.1154 -0.1502
 3388SOL     OW13323   5.897   0.987   1.615  0.5158 -0.4134  0.3644
 3388SOL    HW213324   5.958   0.924   1.578 -2.2365 -2.6138 -0.8219
 3388SOL    HW313325   5.816   0.938   1.626 -0.9132  2.1406  2.4798
 3388SOL    MW413326   5.894   0.972   1.612 -0.1435 -0.3055 -0.8877
 3389SOL     OW13327   6.169   2.954   5.207 -0.3536 -0.1440  0.2567
 3389SOL    HW213328   6.147   2.861   5.211  0.5668 -0.3363  1.3290
 3389SOL    HW313329   6.094   2.998   5.248 -0.8934 -0.3846 -0.4539
 3389SOL    MW413330   6.156   2.947   5.213 -0.0800 -0.6036  0.1765
 3390SOL     OW13331   3.800   2.970   1.744 -0.8961  0.9108  0.1934
 3390SOL    HW213332   3.769   3.059   1.728  0.2829  1.6082  1.4958
 3390SOL    HW313333   3.768   2.949   1.832 -1.9603 -0.3334 -0.4788
 3390SOL    MW413334   3.792   2.979   1.754 -0.5714  0.6092 -0.5822
 3391SOL     OW13335   2.588   2.599   0.432  0.1366 -0.5983  0.2171
 3391SOL    HW213336   2.674   2.641   0.433  0.4425 -1.1617 -0.8677
 3391SOL    HW313337   2.538   2.645   0.499  2.2542 -2.3130  3.2119
 3391SOL    MW413338   2.593   2.610   0.441  0.3194  0.2682 -0.5118
 3392SOL     OW13339   4.764   6.115   1.689 -0.1966  0.1680 -0.2801
 3392SOL    HW213340   4.671   6.128   1.674 -0.8394 -0.2553  2.6478
 3392SOL    HW313341   4.798   6.203   1.707 -0.4616  0.1209  0.4963
 3392SOL    MW413342   4.756   6.128   1.689  0.0604  0.4235 -0.1843
 3393SOL     OW13343   4.845   2.956   1.990 -0.0841  0.2835 -0.0292
 3393SOL    HW213344   4.794   2.965   1.909 -1.1170 -0.2061  0.5554
 3393SOL    HW313345   4.807   3.020   2.050  1.9499  2.0734 -0.5047
 3393SOL    MW413346   4.833   2.965   1.987 -0.0285 -0.0742 -0.4466
 3394SOL     OW13347   1.037   2.373   0.084 -0.4931  0.2144  0.2935
 3394SOL    HW213348   0.943   2.365   0.066 -0.2342  0.7063 -1.5198
 3394SOL    HW313349   1.076   2.300   0.036  0.0006 -0.5229  1.7708
 3394SOL    MW413350   1.030   2.362   0.075 -0.4585  0.2533  0.5940
 3395SOL     OW13351   5.282   1.092   1.771  0.1401 -0.1592  0.5624
 3395SOL    HW213352   5.280   1.160   1.837  2.0454  0.0088  0.4980
 3395SOL    HW313353   5.362   1.108   1.722 -1.4238  0.0318 -2.1645
 3395SOL    MW413354   5.292   1.103   1.773 -0.7930 -0.0829 -0.0320
 3396SOL     OW13355   4.635   5.002   5.554 -0.6596 -0.4828 -0.2216
 3396SOL    HW213356   4.566   5.036   5.498  0.6148  1.0666 -0.9230
 3396SOL    HW313357   4.594   4.929   5.601 -2.6686  0.2162 -0.7919
 3396SOL    MW413358   4.621   4.997   5.553  0.3049  0.5078  0.3305
 3397SOL     OW13359   3.090   5.043   4.622  0.5546 -0.1717  0.2084
 3397SOL    HW213360   3.140   5.087   4.691 -1.0267 -1.0727  2.0257
 3397SOL    HW313361   3.001   5.035   4.658 -1.1226  1.6905 -2.9597
 3397SOL    MW413362   3.085   5.048   4.636  0.4393 -0.3069  0.3411
 3398SOL     OW13363   4.137   3.000   3.461  0.2502 -0.1615  0.1407
 3398SOL    HW213364   4.198   3.067   3.430  0.6015 -1.0334 -1.1374
 3398SOL    HW313365   4.193   2.931   3.497  0.1982 -1.6237 -2.3371
 3398SOL    MW413366   4.152   3.000   3.461  0.0906 -0.4255  0.4676
 3399SOL     OW13367   3.216   4.796   2.085 -0.1799  0.1993  0.4762
 3399SOL    HW213368   3.297   4.823   2.044  0.6352 -0.3936  1.6239
 3399SOL    HW313369   3.167   4.877   2.098  0.0915  0.5225 -0.5046
 3399SOL    MW413370   3.220   4.810   2.081  0.2578  0.3607 -0.1239
 3400SOL     OW13371   5.819   3.795   6.101 -0.2749 -0.0749  0.3908
 3400SOL    HW213372   5.891   3.821   6.157  0.0797 -0.9143  0.3416
 3400SOL    HW313373   5.860   3.769   6.019 -0.7256  0.4567 -0.0091
 3400SOL    MW413374   5.834   3.795   6.097 -0.0675 -0.0534  0.4725
 3401SOL     OW13375   2.866   0.583   0.834 -0.2473  0.1245  0.3940
 3401SOL    HW213376   2.794   0.621   0.783 -0.0528 -1.6484 -1.3228
 3401SOL    HW313377   2.853   0.617   0.922 -1.8705  1.6307 -0.3498
 3401SOL    MW413378   2.855   0.593   0.839  0.4173 -0.4054  0.3546
 3402SOL     OW13379   4.986   4.925   2.648 -0.6944  0.1115  0.2806
 3402SOL    HW213380   4.917   4.926   2.714 -1.9181  1.0894 -0.9549
 3402SOL    HW313381   4.949   4.973   2.574  1.1938  0.3763 -0.5532
 3402SOL    MW413382   4.972   4.932   2.647  0.0164 -0.2285  0.2015
 3403SOL     OW13383   4.046   2.581   2.266 -0.1376 -0.8238 -0.0278
 3403SOL    HW213384   4.050   2.585   2.171  0.9008  0.1200  0.0399
 3403SOL    HW313385   3.973   2.638   2.289  0.1353 -0.3908 -0.2229
 3403SOL    MW413386   4.037   2.589   2.257  0.7947 -0.0816  0.5884
 3404SOL     OW13387   6.324   2.781   4.973  0.0937  0.1173  0.1508
 3404SOL    HW213388   6.354   2.852   4.916 -0.5486 -0.2147 -0.6103
 3404SOL    HW313389   6.367   2.799   5.057  1.1930  0.5194 -0.4703
 3404SOL    MW413390   6.334   2.793   4.977  0.1519 -0.2794 -0.5321
 3405SOL     OW13391   2.662   6.107   3.513  0.0219  0.4886  0.1034
 3405SOL    HW213392   2.691   6.027   3.470 -0.9588  1.2139 -2.1141
 3405SOL    HW313393   2.663   6.173   3.443 -0.0941  2.1850  1.6283
 3405SOL    MW413394   2.666   6.105   3.498  0.5741 -0.0145 -0.4660
 3406SOL     OW13395   3.448   1.356   1.384  0.4027 -0.0943 -0.2021
 3406SOL    HW213396   3.534   1.359   1.426  1.3930  2.6607 -2.1604
 3406SOL    HW313397   3.388   1.393   1.448  0.9809 -0.3983  0.5255
 3406SOL    MW413398   3.451   1.361   1.398 -0.2014  0.0718  0.0544
 3407SOL     OW13399   0.496   5.048   3.956  0.1029  0.4304 -0.0657
 3407SOL    HW213400   0.569   5.003   3.913 -0.3777 -0.4683  0.0265
 3407SOL    HW313401   0.428   4.981   3.963 -0.2876  0.9155  0.9505
 3407SOL    MW413402   0.497   5.033   3.951  0.6174 -0.2840 -0.4435
 3408SOL     OW13403   3.625   0.965   0.142  0.0094  0.0107  0.2006
 3408SOL    HW213404   3.684   1.028   0.102  1.0506 -0.7165  0.5634
 3408SOL    HW313405   3.563   1.018   0.193  0.9060  0.7334  0.5556
 3408SOL    MW413406   3.624   0.980   0.144  0.7304 -0.3124 -0.4555
 3409SOL     OW13407   2.154   5.480   6.326  0.6038  0.0461 -0.4712
 3409SOL    HW213408   2.154   5.552   6.390 -1.9766 -1.1277  1.0022
 3409SOL    HW313409   2.132   5.522   6.243 -3.8167  0.7970  0.8450
 3409SOL    MW413410   2.151   5.495   6.323 -0.4145  0.2822  0.2306
 3410SOL     OW13411   4.906   4.467   6.201  0.4201 -0.0502  0.1071
 3410SOL    HW213412   4.957   4.433   6.275 -1.3705 -0.8452  1.0414
 3410SOL    HW313413   4.915   4.562   6.206  3.1957 -0.1875 -0.8331
 3410SOL    MW413414   4.914   4.475   6.211  0.1574  0.0849  0.2947
 3411SOL     OW13415   2.560   4.993   1.424 -0.2426  0.3601 -0.2241
 3411SOL    HW213416   2.606   4.949   1.496  0.6827 -0.0075 -1.0230
 3411SOL    HW313417   2.582   5.085   1.434 -0.7287  0.4218  0.3913
 3411SOL    MW413418   2.569   4.999   1.435 -0.0980 -0.2277  0.3431
 3412SOL     OW13419   0.056   5.699   4.129 -0.1110 -0.1667 -0.0280
 3412SOL    HW213420  -0.007   5.687   4.057 -0.1606 -2.1370  0.3100
 3412SOL    HW313421   0.110   5.621   4.128  0.7234  0.3521  1.2980
 3412SOL    MW413422   0.055   5.687   4.119  0.1493  0.0239 -0.4661
 3413SOL     OW13423   3.339   0.643   1.475 -0.2439 -0.4210  0.1836
 3413SOL    HW213424   3.340   0.677   1.564 -0.9568 -0.5597  0.2477
 3413SOL    HW313425   3.415   0.684   1.433 -0.8431  0.9294  0.3752
 3413SOL    MW413426   3.349   0.653   1.481  0.4105  0.3232 -0.5525
 3414SOL     OW13427   0.853   1.450   4.821 -0.2802 -0.1622 -0.0472
 3414SOL    HW213428   0.903   1.401   4.886 -0.6989  0.4046  0.7150
 3414SOL    HW313429   0.789   1.501   4.872  0.3554  1.4380 -0.7643
 3414SOL    MW413430   0.851   1.450   4.836  0.6748  0.1998 -0.0964
 3415SOL     OW13431   0.182   1.130   5.231  0.5319 -0.1688  0.4216
 3415SOL    HW213432   0.253   1.067   5.218  0.2881 -0.3484 -0.0600
 3415SOL    HW313433   0.187   1.188   5.155  0.7836  0.4245  0.8879
 3415SOL    MW413434   0.192   1.129   5.219  0.6264  0.0007 -0.5486
 3416SOL     OW13435   5.002   5.854   4.732 -0.6014  0.1969 -0.0780
 3416SOL    HW213436   4.921   5.856   4.782  0.4233  2.2326  1.6876
 3416SOL    HW313437   4.979   5.893   4.648 -1.5439  0.3320  0.2279
 3416SOL    MW413438   4.988   5.859   4.728  0.0888 -0.2411  0.2431
 3417SOL     OW13439   4.232   3.740   5.671 -0.3327 -0.1918  0.2814
 3417SOL    HW213440   4.303   3.801   5.690 -1.7913  1.8382 -0.5072
 3417SOL    HW313441   4.154   3.781   5.706 -1.6526 -0.7073 -1.8483
 3417SOL    MW413442   4.231   3.753   5.678  0.0361  0.1018  0.8584
 3418SOL     OW13443   5.711   1.274   2.179 -0.1675 -0.0414 -0.1573
 3418SOL    HW213444   5.661   1.313   2.107  0.6033  0.2558 -0.5492
 3418SOL    HW313445   5.745   1.349   2.228 -0.2266 -0.2383  0.1900
 3418SOL    MW413446   5.709   1.289   2.176 -0.4466 -0.1661 -0.3227
 3419SOL     OW13447   3.007   5.687   6.327 -0.6238  0.2196 -0.6470
 3419SOL    HW213448   3.068   5.622   6.292 -1.1241 -0.1515 -0.8458
 3419SOL    HW313449   2.931   5.682   6.269 -0.8067  0.7428 -0.4587
 3419SOL    MW413450   3.005   5.678   6.315  0.1640  0.6605 -0.2090
 3420SOL     OW13451   0.533   1.043   0.135  0.3472  0.3260  0.0610
 3420SOL    HW213452   0.598   1.027   0.204 -2.4673  0.4022  2.9588
 3420SOL    HW313453   0.496   1.129   0.156 -1.7119 -0.3523 -0.5157
 3420SOL    MW413454   0.537   1.052   0.147 -0.3420 -0.2369  0.3319
 3421SOL     OW13455   2.284   2.520   3.901  0.4705 -0.0826  0.5618
 3421SOL    HW213456   2.358   2.468   3.930  2.3014  1.7372 -0.5515
 3421SOL    HW313457   2.258   2.481   3.818  0.5204 -0.4088  0.7002
 3421SOL    MW413458   2.290   2.508   3.894  0.5075  0.6618 -0.5883
 3422SOL     OW13459   4.862   2.212   4.821 -0.4362 -0.4504  0.1654
 3422SOL    HW213460   4.849   2.130   4.774 -0.7395 -1.2580  1.6160
 3422SOL    HW313461   4.851   2.189   4.913  0.6628  0.9750  0.6901
 3422SOL    MW413462   4.859   2.198   4.827  0.0041  0.6858  0.0954
 3423SOL     OW13463   5.050   2.827   5.510 -0.0443 -0.1796 -0.1946
 3423SOL    HW213464   5.082   2.886   5.442 -0.5514 -0.8439 -1.0185
 3423SOL    HW313465   5.105   2.846   5.586  0.7078  0.3765 -0.8700
 3423SOL    MW413466   5.061   2.837   5.511 -0.1181  0.2499  0.4527
 3424SOL     OW13467   3.979   1.894   5.242  0.0522  0.3958  0.3431
 3424SOL    HW213468   3.912   1.858   5.184 -0.1565 -2.0819  1.9857
 3424SOL    HW313469   3.943   1.979   5.268 -1.1057  0.3584 -0.9819
 3424SOL    MW413470   3.965   1.901   5.238 -0.3430 -0.5709  0.0669
 3425SOL     OW13471   5.043   4.885   3.382  0.2412 -0.0079 -0.0504
 3425SOL    HW213472   5.013   4.816   3.322 -1.5688 -0.4312  1.2775
 3425SOL    HW313473   5.076   4.953   3.324  1.9404 -1.8637 -1.4335
 3425SOL    MW413474   5.044   4.885   3.366 -0.1270  0.2815  0.6272
 3426SOL     OW13475   0.260   6.047   1.870 -0.3130  0.2834 -0.3307
 3426SOL    HW213476   0.301   6.123   1.912 -0.2603 -0.9659  2.0451
 3426SOL    HW313477   0.182   6.029   1.923 -0.4645 -1.1449 -0.9952
 3426SOL    MW413478   0.255   6.055   1.883  0.1010  0.1948 -0.1298
 3427SOL     OW13479   0.814   0.886   4.057  0.2871  0.5320  0.2469
 3427SOL    HW213480   0.788   0.902   3.966 -0.0910  3.3447  0.7590
 3427SOL    HW313481   0.744   0.832   4.092  1.9564 -3.3622 -1.8405
 3427SOL    MW413482   0.801   0.881   4.049 -0.6618  0.1733 -0.4204
 3428SOL     OW13483   4.473   0.857   1.183  0.1058 -0.0935 -0.3938
 3428SOL    HW213484   4.520   0.888   1.261 -0.8304 -0.2208  0.2382
 3428SOL    HW313485   4.425   0.780   1.213 -1.9263  1.0584 -0.5248
 3428SOL    MW413486   4.473   0.851   1.197 -0.2802  0.0183 -0.5757
 3429SOL     OW13487   1.507   4.143   0.158 -0.0600 -0.6005 -0.5367
 3429SOL    HW213488   1.483   4.052   0.178 -0.4958  0.0454  2.2556
 3429SOL    HW313489   1.426   4.192   0.171  0.6294  0.4347 -0.0976
 3429SOL    MW413490   1.493   4.137   0.163 -0.2698 -0.5234  0.5588
 3430SOL     OW13491   1.351   1.113   0.168 -0.4373  0.0816  0.4118
 3430SOL    HW213492   1.281   1.152   0.219 -0.2423  1.9885 -0.6655
 3430SOL    HW313493   1.425   1.107   0.228 -0.9614 -0.1117  1.0365
 3430SOL    MW413494   1.351   1.118   0.182  0.5048 -0.1170  0.0004
 3431SOL     OW13495   5.710   1.406   6.002  0.5196  0.4140 -0.0944
 3431SOL    HW213496   5.623   1.370   6.022  0.9135 -0.3127  0.3474
 3431SOL    HW313497   5.718   1.483   6.059  0.6860 -0.2840  0.8414
 3431SOL    MW413498   5.699   1.411   6.012 -0.4148 -0.5741  0.3988
 3432SOL     OW13499   2.881   5.714   4.992  0.1085  0.2081  0.1104
 3432SOL    HW213500   2.791   5.744   4.977 -0.2351 -0.4059  0.8633
 3432SOL    HW313501   2.883   5.626   4.954  0.7205  0.6448 -0.8911
 3432SOL    MW413502   2.869   5.706   4.985  0.2782 -0.5402  0.3581
 3433SOL     OW13503   3.562   6.026   0.409  0.3894  0.1733 -0.3016
 3433SOL    HW213504   3.658   6.024   0.409  0.3991  0.2331 -1.1304
 3433SOL    HW313505   3.537   5.988   0.325 -0.2789  1.0643 -0.5311
 3433SOL    MW413506   3.572   6.021   0.398 -0.0175  0.0054  0.0563
 3434SOL     OW13507   2.332   5.561   2.950  0.5105  0.3135  0.2073
 3434SOL    HW213508   2.238   5.564   2.935  0.3542  1.0907  1.2361
 3434SOL    HW313509   2.342   5.502   3.025  0.8601  0.0997 -0.0057
 3434SOL    MW413510   2.321   5.553   2.958 -0.4655 -0.0190  0.3549
 3435SOL     OW13511   1.073   1.914   1.771 -0.3734 -0.7162  0.3086
 3435SOL    HW213512   1.102   1.930   1.681 -0.5441  2.3823  0.7050
 3435SOL    HW313513   1.127   1.840   1.800  0.3626 -1.1712 -2.0228
 3435SOL    MW413514   1.084   1.907   1.763 -0.2343  0.0308 -0.9482
 3436SOL     OW13515   2.435   4.404   1.366 -0.2590 -0.0154 -0.4919
 3436SOL    HW213516   2.363   4.466   1.357 -1.2891 -1.0723  0.1853
 3436SOL    HW313517   2.440   4.359   1.282 -0.0457  0.4066 -0.7073
 3436SOL    MW413518   2.426   4.406   1.354  0.0012 -0.2958  0.1498
 3437SOL     OW13519   1.251   2.383   3.376 -0.1803  0.4725  0.4082
 3437SOL    HW213520   1.310   2.455   3.401 -1.2701  1.3730  0.5050
 3437SOL    HW313521   1.164   2.423   3.378 -0.6245 -0.2538 -1.7566
 3437SOL    MW413522   1.247   2.398   3.379 -0.3279 -0.1335 -0.3304
 3438SOL     OW13523   4.390   4.203   0.899 -0.0367  0.2006 -0.1321
 3438SOL    HW213524   4.400   4.247   0.983 -1.6932  0.2092  0.0935
 3438SOL    HW313525   4.373   4.111   0.921 -3.6850  0.7164 -0.2156
 3438SOL    MW413526   4.389   4.196   0.913 -0.0471  0.4515  0.2428
 3439SOL     OW13527   3.495   6.119   4.380 -0.0875 -0.4808  0.2345
 3439SOL    HW213528   3.447   6.041   4.408 -0.9838 -0.3613 -0.8861
 3439SOL    HW313529   3.450   6.147   4.300 -1.1161  2.3797  1.6541
 3439SOL    MW413530   3.483   6.112   4.373 -0.1647 -0.1641  0.2179
 3440SOL     OW13531   1.849   2.070   5.045  0.0960  0.4647  0.5919
 3440SOL    HW213532   1.754   2.061   5.053  0.1468 -1.1576 -0.1027
 3440SOL    HW313533   1.862   2.139   4.980 -0.5495  2.0805  2.1286
 3440SOL    MW413534   1.838   2.078   5.037 -0.3147 -0.0097 -0.3410
 3441SOL     OW13535   2.643   2.501   2.585  0.0782  0.6893  0.9116
 3441SOL    HW213536   2.574   2.512   2.519  0.0652  1.1853  1.0066
 3441SOL    HW313537   2.722   2.485   2.534  0.1248  1.3710  0.7635
 3441SOL    MW413538   2.644   2.500   2.570  0.1402  0.1375  0.3949
 3442SOL     OW13539   5.786   5.843   2.300  0.4195  0.3792 -0.0788
 3442SOL    HW213540   5.828   5.868   2.383 -0.7099 -0.6406  0.8424
 3442SOL    HW313541   5.859   5.828   2.240  1.4985 -1.8473  1.6002
 3442SOL    MW413542   5.802   5.844   2.303 -0.2669 -0.0474  0.8379
 3443SOL     OW13543   0.164   3.207   5.732  0.0013  0.2606  0.2519
 3443SOL    HW213544   0.248   3.176   5.699 -0.7895 -0.5715 -1.0518
 3443SOL    HW313545   0.134   3.271   5.666 -0.8347 -0.1850  0.1863
 3443SOL    MW413546   0.171   3.212   5.719 -0.2954 -0.2098 -0.2639
 3444SOL     OW13547   1.487   1.378   3.963 -0.2467  0.2441  0.1119
 3444SOL    HW213548   1.482   1.439   3.889 -0.3792 -0.3770 -0.4058
 3444SOL    HW313549   1.453   1.427   4.037 -0.3182  0.8111 -0.2875
 3444SOL    MW413550   1.482   1.392   3.963 -0.0498  0.6311  0.3430
 3445SOL     OW13551   1.282   3.860   1.434  0.3988  0.3905  0.0923
 3445SOL    HW213552   1.270   3.882   1.342 -0.6596  1.1345  0.3874
 3445SOL    HW313553   1.338   3.930   1.468  1.6093 -0.4164 -0.1868
 3445SOL    MW413554   1.288   3.873   1.426  0.7573  0.2828  0.0042
 3446SOL     OW13555   5.408   3.279   2.235 -0.2772  0.1780  0.0582
 3446SOL    HW213556   5.388   3.371   2.221 -0.9196  0.2661  1.4048
 3446SOL    HW313557   5.413   3.242   2.147 -2.6750  0.9574 -0.4824
 3446SOL    MW413558   5.406   3.286   2.222 -0.3815 -0.0362 -0.1992
 3447SOL     OW13559   1.835   1.471   5.890  0.1478 -0.4356  0.0150
 3447SOL    HW213560   1.866   1.552   5.848  2.0507 -0.8843  0.4593
 3447SOL    HW313561   1.740   1.480   5.892  0.0939  0.4825 -2.6119
 3447SOL    MW413562   1.826   1.483   5.885 -0.7098  0.3551 -0.4560
 3448SOL     OW13563   4.204   3.065   6.216 -0.4856  0.2681 -0.5829
 3448SOL    HW213564   4.161   3.069   6.131 -2.8913  1.2609  0.5811
 3448SOL    HW313565   4.221   3.157   6.239  1.1953 -0.0331 -0.4329
 3448SOL    MW413566   4.201   3.078   6.208 -0.0459 -0.0179 -0.3240
 3449SOL     OW13567   6.112   0.341   0.542  0.0883  0.1948 -0.7571
 3449SOL    HW213568   6.164   0.385   0.475  1.2586 -2.1301 -1.4611
 3449SOL    HW313569   6.056   0.281   0.494  0.8691 -1.4481  0.2910
 3449SOL    MW413570   6.111   0.339   0.527 -0.1989  0.1632 -0.2390
 3450SOL     OW13571   5.868   0.740   4.555 -0.8315 -0.2637  0.0501
 3450SOL    HW213572   5.940   0.771   4.611 -0.3506  1.1528 -1.2999
 3450SOL    HW313573   5.810   0.693   4.615  0.6858 -0.5590  1.3650
 3450SOL    MW413574   5.870   0.738   4.571  0.2584  0.4434  0.0066
 3451SOL     OW13575   4.622   4.568   4.437 -0.0628 -0.2181  0.8506
 3451SOL    HW213576   4.654   4.559   4.526 -0.6626 -1.4238  0.9724
 3451SOL    HW313577   4.696   4.542   4.382 -0.1613 -0.9585  1.0575
 3451SOL    MW413578   4.636   4.563   4.441  0.1955  0.3104 -0.1837
 3452SOL     OW13579   0.839   6.308   2.199  0.1660 -0.3582 -0.4178
 3452SOL    HW213580   0.854   6.384   2.256  0.0552  0.6668 -1.6983
 3452SOL    HW313581   0.926   6.289   2.163  0.0051 -0.1572 -0.9155
 3452SOL    MW413582   0.853   6.316   2.202  0.1707 -0.6400  0.2523
 3453SOL     OW13583   2.371   2.396   3.421 -0.0454 -0.3249  0.3715
 3453SOL    HW213584   2.336   2.319   3.376 -1.0991  0.2265  0.2226
 3453SOL    HW313585   2.414   2.446   3.352 -0.0654 -0.3838  0.3156
 3453SOL    MW413586   2.372   2.392   3.406  0.2132 -0.6469  0.0017
 3454SOL     OW13587   3.187   5.308   3.170 -0.0355 -0.1972  0.2976
 3454SOL    HW213588   3.139   5.374   3.220 -1.2182 -0.4063 -0.5350
 3454SOL    HW313589   3.121   5.269   3.112  0.9606 -1.0906 -0.2598
 3454SOL    MW413590   3.172   5.311   3.169 -0.1471  0.1129  0.2904
 3455SOL     OW13591   5.242   5.975   4.474  0.1951 -0.3085  0.1226
 3455SOL    HW213592   5.209   5.886   4.478  0.4141 -0.3404  1.6243
 3455SOL    HW313593   5.289   5.980   4.390  1.0598 -1.9120  0.4807
 3455SOL    MW413594   5.244   5.964   4.463 -0.3894  0.2956  0.5612
 3456SOL     OW13595   6.416   3.439   2.459 -0.6273  0.5632 -0.4836
 3456SOL    HW213596   6.510   3.461   2.459 -0.6876  1.0503  1.5950
 3456SOL    HW313597   6.414   3.344   2.457 -0.0855  0.5439 -0.3528
 3456SOL    MW413598   6.428   3.430   2.459 -0.2414  0.3204  0.0047
 3457SOL     OW13599   1.019   5.426   1.181 -0.6757 -0.4872  0.1544
 3457SOL    HW213600   1.063   5.352   1.138  0.1289 -0.4421  0.8621
 3457SOL    HW313601   1.039   5.502   1.126  0.5707 -0.3825  0.7268
 3457SOL    MW413602   1.027   5.426   1.168  0.3967 -0.2594  0.5952
 3458SOL     OW13603   5.131   1.723   5.521  0.4947  0.4319  0.0240
 3458SOL    HW213604   5.103   1.633   5.506 -1.2900  0.8905  0.3506
 3458SOL    HW313605   5.122   1.736   5.616 -0.1569  1.2086 -0.1312
 3458SOL    MW413606   5.126   1.713   5.532  0.7131 -0.2590  0.1362
 3459SOL     OW13607   5.073   6.142   3.837 -0.0385  0.6210 -0.3601
 3459SOL    HW213608   5.150   6.092   3.812  1.3995  2.1719  0.7301
 3459SOL    HW313609   5.000   6.094   3.799  1.2805 -1.9119  0.1079
 3459SOL    MW413610   5.074   6.129   3.829  0.1217  0.3368 -0.1226
 3460SOL     OW13611   1.867   0.876   4.838 -0.4397 -0.0517  0.4288
 3460SOL    HW213612   1.820   0.876   4.922 -0.4162  4.2193  0.6619
 3460SOL    HW313613   1.831   0.950   4.790  0.1892 -1.8028 -3.0574
 3460SOL    MW413614   1.856   0.886   4.843 -0.1317  0.0634  0.6671
 3461SOL     OW13615   5.428   2.749   3.817  0.2630 -0.0103  0.0434
 3461SOL    HW213616   5.456   2.698   3.741  0.3562 -0.9366  0.6920
 3461SOL    HW313617   5.507   2.762   3.868 -0.1433 -1.1792  1.0195
 3461SOL    MW413618   5.442   2.744   3.814  0.1560 -0.2664 -0.5606
 3462SOL     OW13619   0.104   1.304   2.718  0.6146  0.1344  0.4608
 3462SOL    HW213620   0.086   1.360   2.793  1.0118  1.0546 -0.1181
 3462SOL    HW313621   0.115   1.217   2.756 -0.1325  0.4124  1.3601
 3462SOL    MW413622   0.103   1.300   2.733  0.5856 -0.3083  0.1740
 3463SOL     OW13623   2.429   0.659   4.137  0.7067  0.4552 -0.6058
 3463SOL    HW213624   2.506   0.701   4.176  1.1780 -0.1582 -0.8746
 3463SOL    HW313625   2.462   0.616   4.059  0.3497 -0.9189 -0.0281
 3463SOL    MW413626   2.443   0.659   4.132 -0.1360  0.7878  0.4358
 3464SOL     OW13627   6.208   5.500   1.454  0.0293  0.5190  0.2488
 3464SOL    HW213628   6.236   5.579   1.408  0.1485 -0.5957 -1.6910
 3464SOL    HW313629   6.113   5.498   1.443 -0.0144  0.5446  0.5888
 3464SOL    MW413630   6.199   5.510   1.447 -0.1467  0.3300 -0.0992
 3465SOL     OW13631   4.539   0.710   0.446  0.1399 -0.4062 -0.4000
 3465SOL    HW213632   4.550   0.735   0.354 -1.2590 -0.0601 -0.5050
 3465SOL    HW313633   4.484   0.780   0.483 -0.7293 -1.4135  0.2652
 3465SOL    MW413634   4.533   0.723   0.439  0.9569  0.0225 -0.2795
 3466SOL     OW13635   3.177   3.442   5.452  0.4212  0.0452  0.8607
 3466SOL    HW213636   3.162   3.508   5.383  0.2746 -1.3945 -0.5388
 3466SOL    HW313637   3.272   3.437   5.461  0.5109 -0.7683 -0.2981
 3466SOL    MW413638   3.187   3.450   5.444 -0.2144 -0.3037  0.5494
 3467SOL     OW13639   4.303   5.470   2.370  0.5725  0.0969  0.6311
 3467SOL    HW213640   4.314   5.454   2.276 -1.5586  0.0279  0.3495
 3467SOL    HW313641   4.375   5.529   2.393  1.0421  0.2315 -1.0825
 3467SOL    MW413642   4.314   5.476   2.361  0.1976 -0.2112  0.1137
 3468SOL     OW13643   2.056   3.994   0.179  0.2276 -0.3373 -0.0019
 3468SOL    HW213644   2.120   4.033   0.119 -0.6549 -0.4881 -1.0814
 3468SOL    HW313645   2.014   3.925   0.127 -0.1733 -0.8502  0.9843
 3468SOL    MW413646   2.059   3.990   0.164  0.0970 -0.4339 -0.7560
 3469SOL     OW13647   1.838   5.172   5.063  0.2310 -0.1185  0.6827
 3469SOL    HW213648   1.886   5.237   5.011  0.0262 -1.0313 -0.6816
 3469SOL    HW313649   1.767   5.223   5.103 -0.0782  0.4799 -0.5602
 3469SOL    MW413650   1.835   5.188   5.061 -0.4854 -0.6493  0.5222
 3470SOL     OW13651   1.540   6.367   2.894 -0.6416  0.6417 -0.2999
 3470SOL    HW213652   1.622   6.362   2.845 -0.8658 -0.9565 -0.5693
 3470SOL    HW313653   1.567   6.372   2.986 -0.1691 -1.9757 -0.2106
 3470SOL    MW413654   1.555   6.367   2.900  0.4832  0.5840  0.3401
 3471SOL     OW13655   4.317   2.429   4.526  0.4912 -0.3751 -0.1422
 3471SOL    HW213656   4.323   2.501   4.463  0.9827  0.1147  0.4410
 3471SOL    HW313657   4.225   2.426   4.551  0.4844  0.1322 -0.0958
 3471SOL    MW413658   4.306   2.438   4.521 -0.2322 -0.3354  0.7150
 3472SOL     OW13659   3.792   4.134   5.565  0.0793 -0.1186 -0.0475
 3472SOL    HW213660   3.773   4.041   5.571  0.0505 -0.0933  0.3187
 3472SOL    HW313661   3.847   4.152   5.641  2.0097 -0.2763 -1.3320
 3472SOL    MW413662   3.796   4.124   5.576 -0.2670 -0.3446  0.1931
 3473SOL     OW13663   1.633   1.819   3.441  0.4812  0.0478 -0.1938
 3473SOL    HW213664   1.614   1.902   3.485  0.0270 -0.4171  0.5226
 3473SOL    HW313665   1.725   1.802   3.461  0.9041  0.9306 -1.3103
 3473SOL    MW413666   1.642   1.828   3.450 -0.1388  0.1875 -0.3994
 3474SOL     OW13667   0.413   0.006   2.328 -0.5197 -0.2144 -0.2769
 3474SOL    HW213668   0.469  -0.063   2.290  1.9875  0.4195  1.9201
 3474SOL    HW313669   0.362  -0.040   2.395  0.6204 -0.1470  0.6861
 3474SOL    MW413670   0.414  -0.009   2.332  0.5290 -0.0456 -0.1595
 3475SOL     OW13671   2.829   3.320   4.828  0.4733 -0.0894  0.1548
 3475SOL    HW213672   2.906   3.341   4.880  0.0386 -0.7292  1.0712
 3475SOL    HW313673   2.782   3.254   4.879 -1.6242  1.5657  0.5120
 3475SOL    MW413674   2.833   3.314   4.841  0.1310 -0.2362 -0.3207
 3476SOL     OW13675   0.375   4.345   5.129 -0.1252  0.1818 -0.2966
 3476SOL    HW213676   0.312   4.391   5.073 -0.2552 -0.7208 -0.9130
 3476SOL    HW313677   0.453   4.334   5.073 -0.8753 -2.3008 -0.9746
 3476SOL    MW413678   0.377   4.350   5.114 -0.0427 -0.0009 -0.1397
 3477SOL     OW13679   0.664   3.694   4.993 -0.0098 -0.0627  0.0497
 3477SOL    HW213680   0.737   3.748   4.963  0.7906 -1.8084 -1.3446
 3477SOL    HW313681   0.704   3.611   5.019 -1.3323 -0.4696  0.8860
 3477SOL    MW413682   0.679   3.691   4.992  0.1577  0.0446  0.0977
 3478SOL     OW13683   0.401   5.102   0.844  0.1305  0.4366 -0.8473
 3478SOL    HW213684   0.425   5.174   0.786 -2.0625  0.7864 -1.4218
 3478SOL    HW313685   0.385   5.144   0.929  0.1172  0.4418 -0.8523
 3478SOL    MW413686   0.402   5.117   0.848 -0.4269 -0.0592 -0.1862
 3479SOL     OW13687   1.288   0.158   2.659  0.0800  0.3336 -0.2652
 3479SOL    HW213688   1.370   0.199   2.687 -0.3615  1.1956 -0.2315
 3479SOL    HW313689   1.306   0.064   2.666 -0.1034  0.4350  3.2798
 3479SOL    MW413690   1.301   0.151   2.664 -0.0538  0.6907  0.1605
 3480SOL     OW13691   6.249   1.268   6.260  0.4946  0.5103 -0.0817
 3480SOL    HW213692   6.175   1.210   6.275 -0.6186  2.2154  1.3444
 3480SOL    HW313693   6.247   1.286   6.166 -0.8380  0.4472 -0.0785
 3480SOL    MW413694   6.239   1.263   6.250  0.0823  0.4128 -0.1681
 3481SOL     OW13695   3.538   2.553   4.426 -0.3111  0.1430  0.5160
 3481SOL    HW213696   3.612   2.582   4.479  1.1196 -0.5547 -1.0366
 3481SOL    HW313697   3.493   2.633   4.401  1.4628  0.8168 -0.6916
 3481SOL    MW413698   3.542   2.567   4.430 -0.2700 -0.8274 -0.2026
 3482SOL     OW13699   5.412   2.696   4.309 -0.0617  0.8660 -0.0647
 3482SOL    HW213700   5.393   2.672   4.400  1.7101  0.5410  0.2474
 3482SOL    HW313701   5.326   2.699   4.267 -0.8052 -0.3282  1.2868
 3482SOL    MW413702   5.398   2.693   4.315 -0.3783  0.2156 -0.3014
 3483SOL     OW13703   3.104   2.945   4.879 -0.5787  0.8078 -0.4011
 3483SOL    HW213704   3.012   2.968   4.869 -1.2895 -1.8596 -0.7152
 3483SOL    HW313705   3.118   2.942   4.974 -0.8492  1.0205 -0.3537
 3483SOL    MW413706   3.094   2.948   4.891  0.4702  0.3879  0.4763
 3484SOL     OW13707   0.372   4.812   2.858 -0.1174 -0.0161  0.2488
 3484SOL    HW213708   0.277   4.808   2.862 -0.0271 -1.8235  2.2282
 3484SOL    HW313709   0.402   4.766   2.937  2.4215 -2.5257 -1.9516
 3484SOL    MW413710   0.363   4.805   2.869  0.6236  0.3707  0.3303
 3485SOL     OW13711   3.203   1.999   3.684  0.3420  0.0895 -0.5179
 3485SOL    HW213712   3.111   1.982   3.703 -0.0714  1.5816 -1.0410
 3485SOL    HW313713   3.249   1.919   3.711 -0.9855 -0.3337  0.5695
 3485SOL    MW413714   3.197   1.986   3.690  0.2959 -0.4396  0.4954
 3486SOL     OW13715   0.911   1.794   4.917 -0.5165  0.0044 -0.2105
 3486SOL    HW213716   0.928   1.784   5.010  0.4433  1.6320 -0.1857
 3486SOL    HW313717   0.992   1.766   4.874 -0.4748  0.5155 -0.4758
 3486SOL    MW413718   0.924   1.789   4.923 -0.1207 -0.5624 -0.3186
 3487SOL     OW13719   1.105   3.323   4.721  0.8317 -0.0450 -0.2760
 3487SOL    HW213720   1.051   3.359   4.792  2.7912  0.8303  0.8556
 3487SOL    HW313721   1.111   3.394   4.657  1.4466  0.2220  0.0738
 3487SOL    MW413722   1.098   3.337   4.722 -0.2578 -0.0523 -0.6299
 3488SOL     OW13723   1.910   0.804   1.963 -0.3136  0.4979 -0.1818
 3488SOL    HW213724   1.890   0.807   2.056  1.2245 -0.5905  0.2127
 3488SOL    HW313725   1.843   0.747   1.926 -1.0411  1.0808  0.2042
 3488SOL    MW413726   1.898   0.797   1.970 -0.0839 -0.1061 -0.3217
 3489SOL     OW13727   4.483   3.923   2.307  0.0239 -0.4636  0.2524
 3489SOL    HW213728   4.422   3.979   2.355 -0.8471 -0.9991 -0.2080
 3489SOL    HW313729   4.480   3.839   2.353  0.2076 -0.5783  0.0575
 3489SOL    MW413730   4.475   3.920   2.319 -0.3216 -0.4671 -0.2518
 3490SOL     OW13731   3.823   3.356   4.759 -0.1350  0.5295 -0.2367
 3490SOL    HW213732   3.756   3.359   4.691  0.1845  0.2510 -0.5641
 3490SOL    HW313733   3.890   3.298   4.725 -2.0152 -3.5164  2.1967
 3490SOL    MW413734   3.823   3.349   4.746 -0.1233 -0.4843  0.2561
 3491SOL     OW13735   2.847   0.306   0.793  0.1873 -0.1030  0.3825
 3491SOL    HW213736   2.854   0.393   0.831 -0.4510 -0.3169  1.0246
 3491SOL    HW313737   2.761   0.305   0.750  0.1719 -0.4267  0.4174
 3491SOL    MW413738   2.837   0.317   0.792  0.0768 -0.0542  0.0081
 3492SOL     OW13739   2.640   0.731   1.563  0.3296 -0.1265  0.0811
 3492SOL    HW213740   2.669   0.822   1.570  0.1699 -0.1313  0.8332
 3492SOL    HW313741   2.717   0.684   1.531  0.6511  0.1414  0.4522
 3492SOL    MW413742   2.654   0.737   1.559 -0.2227 -0.2925 -0.3079
 3493SOL     OW13743   0.908   2.140   2.851 -0.1303 -0.1437 -0.1495
 3493SOL    HW213744   0.916   2.153   2.757  0.8839 -1.3164 -0.2561
 3493SOL    HW313745   0.868   2.054   2.860 -2.9725  1.1347  0.5167
 3493SOL    MW413746   0.904   2.130   2.840 -0.5848 -1.0225  0.0205
 3494SOL     OW13747   0.540   3.795   2.577  0.5954  0.5008 -0.0380
 3494SOL    HW213748   0.592   3.834   2.648  1.4707 -0.1063 -0.3341
 3494SOL    HW313749   0.476   3.739   2.622  3.5474 -2.9691  0.3020
 3494SOL    MW413750   0.538   3.793   2.593 -0.3067  0.3411 -0.3688
 3495SOL     OW13751   3.149   2.149   4.918  0.3999  0.0459 -0.4142
 3495SOL    HW213752   3.189   2.081   4.972  1.3148  1.4904  0.7856
 3495SOL    HW313753   3.088   2.101   4.861 -0.0320 -1.6338  1.3429
 3495SOL    MW413754   3.146   2.134   4.917 -0.7242 -0.2611 -0.3493
 3496SOL     OW13755   4.859   0.213   5.029 -0.2856  0.1166  0.3909
 3496SOL    HW213756   4.831   0.125   5.055 -0.2979  0.6767  2.4021
 3496SOL    HW313757   4.792   0.271   5.064  0.3426  1.0272  0.1216
 3496SOL    MW413758   4.847   0.209   5.037 -0.3159  0.7948 -0.0098
 3497SOL     OW13759   2.582   3.229   0.743 -0.8083 -0.0141 -0.3859
 3497SOL    HW213760   2.531   3.309   0.752  0.8274  1.2542 -1.8765
 3497SOL    HW313761   2.671   3.258   0.722  0.0848 -2.1939  0.0211
 3497SOL    MW413762   2.587   3.243   0.742  0.2707 -0.2561  0.2165
 3498SOL     OW13763   0.111   4.481   4.313 -0.1487  0.2755 -0.0139
 3498SOL    HW213764   0.161   4.514   4.238 -0.3643  1.2107  0.2458
 3498SOL    HW313765   0.024   4.461   4.277  0.8535 -3.2111 -0.9212
 3498SOL    MW413766   0.106   4.483   4.298 -0.0631  0.2439 -0.3571
 3499SOL     OW13767   3.884   4.402   2.018  0.5086  0.3562 -0.1023
 3499SOL    HW213768   3.804   4.365   1.980  1.3742 -0.2670 -1.3904
 3499SOL    HW313769   3.944   4.329   2.024  1.2504  0.9693  0.1299
 3499SOL    MW413770   3.881   4.388   2.014  0.0206  0.1403  0.5232
 3500SOL     OW13771   5.511   5.873   1.792  0.5277  0.3735  0.0595
 3500SOL    HW213772   5.541   5.792   1.750  1.2274  0.5250  0.2536
 3500SOL    HW313773   5.530   5.942   1.728  2.2972  0.7055  0.8900
 3500SOL    MW413774   5.517   5.871   1.778 -0.1010  0.4099 -0.3255
 3501SOL     OW13775   0.459   5.449   3.725 -0.2525  0.0463 -0.0620
 3501SOL    HW213776   0.522   5.422   3.792 -0.8350  0.4425  0.6654
 3501SOL    HW313777   0.501   5.427   3.642  0.3261 -0.8033  0.4431
 3501SOL    MW413778   0.473   5.443   3.723  0.7972 -0.3236  0.1834
 3502SOL     OW13779   4.127   5.523   4.359  0.2458 -0.0767 -0.0054
 3502SOL    HW213780   4.135   5.478   4.275  2.1518 -2.1865  1.2161
 3502SOL    HW313781   4.205   5.578   4.365 -0.0699  0.3552  0.2348
 3502SOL    MW413782   4.138   5.525   4.349 -0.4866  0.0752  0.2913
 3503SOL     OW13783   5.828   3.240   5.077  0.4921 -0.7518  0.0209
 3503SOL    HW213784   5.880   3.218   5.154 -0.6050  0.6423  1.2353
 3503SOL    HW313785   5.754   3.180   5.080  0.1803 -0.3555  0.3654
 3503SOL    MW413786   5.825   3.229   5.087  0.2223  0.2912  0.2731
 3504SOL     OW13787   4.579   5.780   5.342  0.1549 -1.4362 -0.3347
 3504SOL    HW213788   4.566   5.720   5.269  1.3364 -1.0274 -0.9212
 3504SOL    HW313789   4.638   5.733   5.401  2.2729 -0.4113 -1.4800
 3504SOL    MW413790   4.585   5.766   5.340 -0.5194 -0.2253 -0.1426
 3505SOL     OW13791   5.127   4.817   0.126 -0.4297 -0.4016 -0.1361
 3505SOL    HW213792   5.119   4.866   0.208 -0.1589 -0.3922 -0.1134
 3505SOL    HW313793   5.218   4.787   0.125 -0.6292 -1.0099 -0.0948
 3505SOL    MW413794   5.138   4.820   0.137  0.8423  0.5419  0.5071
 3506SOL     OW13795   5.472   5.601   2.773 -0.3956  0.0375 -0.1547
 3506SOL    HW213796   5.485   5.689   2.809  2.0727  0.0836 -0.9386
 3506SOL    HW313797   5.433   5.551   2.845  1.2474  0.9770  1.4808
 3506SOL    MW413798   5.469   5.606   2.788 -0.3026 -0.3440 -0.3803
 3507SOL     OW13799   5.604   0.385   1.193 -0.3840  0.1616 -0.0833
 3507SOL    HW213800   5.543   0.403   1.121  0.2646  0.0889 -0.6699
 3507SOL    HW313801   5.686   0.361   1.149  0.5572  1.8527  0.6610
 3507SOL    MW413802   5.607   0.384   1.177  0.0832  0.4096 -0.1023
 3508SOL     OW13803   1.538   3.973   3.943  0.2337  0.3996 -0.1569
 3508SOL    HW213804   1.577   4.032   4.008 -2.4966  1.2579  0.8577
 3508SOL    HW313805   1.612   3.925   3.906  2.3045  2.6338  0.8250
 3508SOL    MW413806   1.553   3.975   3.946  0.2439 -0.2665 -0.4966
 3509SOL     OW13807   6.132   3.996   4.353  0.4752 -0.6760  0.6712
 3509SOL    HW213808   6.131   3.924   4.416 -1.5559 -0.4508  0.9670
 3509SOL    HW313809   6.092   4.069   4.400 -0.6509 -0.3702 -0.6829
 3509SOL    MW413810   6.126   3.996   4.368  0.3835 -0.7895 -0.1013
 3510SOL     OW13811   6.376   6.174   5.861  1.2312  0.2524  0.7809
 3510SOL    HW213812   6.354   6.135   5.777  1.2880  0.3659  0.7133
 3510SOL    HW313813   6.416   6.258   5.839  0.7416  0.5282  0.9428
 3510SOL    MW413814   6.378   6.180   5.847 -0.2990 -0.0228 -0.9029
 3511SOL     OW13815   6.330   5.228   1.827 -0.1283  0.3455 -0.3248
 3511SOL    HW213816   6.424   5.213   1.829 -0.2776 -0.5982  0.0618
 3511SOL    HW313817   6.310   5.244   1.735  0.2221 -0.8003 -0.6161
 3511SOL    MW413818   6.339   5.228   1.815  0.0137 -0.2638 -0.2832
 3512SOL     OW13819   5.223   4.517   4.783 -0.3859 -0.3782 -0.5083
 3512SOL    HW213820   5.143   4.569   4.785 -0.7864 -0.9906 -0.3017
 3512SOL    HW313821   5.277   4.559   4.717 -0.2172  0.9951  0.4621
 3512SOL    MW413822   5.219   4.529   4.774  0.3590  0.0903 -0.1422
 3513SOL     OW13823   5.955   1.706   0.311 -0.4214  0.1131  0.3848
 3513SOL    HW213824   5.886   1.746   0.257  0.1708  1.9704  0.9160
 3513SOL    HW313825   5.997   1.643   0.253  0.4479  2.3103 -1.5624
 3513SOL    MW413826   5.951   1.703   0.296  0.0160  0.0654  0.0724
 3514SOL     OW13827   4.287   3.620   2.637 -0.0153  0.4302 -0.1370
 3514SOL    HW213828   4.198   3.639   2.610  0.0862  0.5837 -0.3728
 3514SOL    HW313829   4.307   3.687   2.703  0.7364  1.9328 -1.7884
 3514SOL    MW413830   4.278   3.632   2.642  0.1456  0.5477 -0.0199
 3515SOL     OW13831   3.036   0.051   1.889  0.1067  0.4336 -0.4345
 3515SOL    HW213832   3.077   0.055   1.975 -1.7514 -0.1997  0.5181
 3515SOL    HW313833   3.076   0.123   1.840 -0.2511  2.1130  1.6129
 3515SOL    MW413834   3.047   0.061   1.894 -0.2466  0.2073  0.1097
 3516SOL     OW13835   4.593   3.079   1.485  0.0914  0.1790  0.3210
 3516SOL    HW213836   4.507   3.117   1.506 -0.5206 -1.1639  0.3695
 3516SOL    HW313837   4.578   3.029   1.405  0.2588 -1.8873  1.5270
 3516SOL    MW413838   4.579   3.078   1.477  0.0359 -0.0470 -0.1797
 3517SOL     OW13839   1.697   1.460   2.790 -0.0838 -0.2934  0.0986
 3517SOL    HW213840   1.777   1.510   2.808 -0.4654  0.5172 -0.4116
 3517SOL    HW313841   1.626   1.521   2.808 -0.5571 -0.5952 -0.7196
 3517SOL    MW413842   1.698   1.475   2.795  0.0413  0.4121  0.2863
 3518SOL     OW13843   0.283   4.360   6.320  0.7606 -0.0699  0.5766
 3518SOL    HW213844   0.370   4.384   6.285  1.3857 -1.2643  1.2531
 3518SOL    HW313845   0.298   4.344   6.413 -0.2978  0.1770  0.7992
 3518SOL    MW413846   0.297   4.361   6.327 -1.0372 -0.1213 -0.4143
 3519SOL     OW13847   5.378   0.908   0.376  0.2256  0.2343 -0.3065
 3519SOL    HW213848   5.305   0.873   0.326 -0.8143  0.0031  1.3012
 3519SOL    HW313849   5.372   0.865   0.461  0.0903  2.7791  1.0719
 3519SOL    MW413850   5.368   0.898   0.381 -0.1263  0.0128 -0.1970
 3520SOL     OW13851   3.421   0.171   0.564  0.3910  0.4441  0.2990
 3520SOL    HW213852   3.357   0.211   0.623 -0.9668 -0.4993 -0.4703
 3520SOL    HW313853   3.434   0.083   0.600 -1.7371 -0.7757 -1.6180
 3520SOL    MW413854   3.414   0.165   0.577  0.6229 -0.3793  0.5259
 3521SOL     OW13855   1.075   4.030   1.508  0.3903  0.1210  0.1600
 3521SOL    HW213856   1.141   3.963   1.490 -1.7102 -1.9155 -0.3349
 3521SOL    HW313857   1.035   4.002   1.591 -1.0982  0.2642 -0.4888
 3521SOL    MW413858   1.079   4.018   1.517  0.1833 -0.0389  0.0688
 3522SOL     OW13859   5.248   5.756   5.303  0.3248 -0.1718  0.5233
 3522SOL    HW213860   5.201   5.787   5.225  1.4177  0.9537  0.2823
 3522SOL    HW313861   5.314   5.823   5.319 -0.2393 -0.0963  2.7729
 3522SOL    MW413862   5.250   5.769   5.295  0.6472 -0.0130  0.5121
 3523SOL     OW13863   5.980   1.171   4.338 -0.0141  0.0569  0.2312
 3523SOL    HW213864   5.978   1.184   4.243 -0.1868  0.7280  0.3202
 3523SOL    HW313865   5.984   1.260   4.374  2.4100 -0.2125  0.8091
 3523SOL    MW413866   5.981   1.185   4.330  0.1243  0.2415 -0.1651
 3524SOL     OW13867   3.445   4.828   3.890  0.0551 -0.0391  0.2878
 3524SOL    HW213868   3.486   4.815   3.804  0.8103  0.5702  0.5421
 3524SOL    HW313869   3.511   4.798   3.953 -0.0450  0.5752  0.6910
 3524SOL    MW413870   3.459   4.822   3.887  0.5005  0.0430 -0.1123
 3525SOL     OW13871   5.215   3.213   0.593 -0.5228  0.0590 -0.1373
 3525SOL    HW213872   5.261   3.211   0.509  0.7644 -0.7843  0.5440
 3525SOL    HW313873   5.209   3.306   0.615  1.1064  0.2006 -0.1582
 3525SOL    MW413874   5.220   3.225   0.585  0.0810 -0.6004  0.2156
 3526SOL     OW13875   2.088   4.796   4.982 -0.2388  0.5155  0.0817
 3526SOL    HW213876   2.072   4.838   5.067  0.4030  0.6044  0.1634
 3526SOL    HW313877   2.173   4.753   4.992 -1.4687 -2.0063  0.4621
 3526SOL    MW413878   2.097   4.796   4.995 -0.2334  0.3543  0.8779
 3527SOL     OW13879   3.366   2.840   5.439 -0.2525 -0.3852 -0.9277
 3527SOL    HW213880   3.343   2.931   5.419 -0.1439  0.2795  1.6104
 3527SOL    HW313881   3.285   2.791   5.429 -0.8638  0.4342 -0.0877
 3527SOL    MW413882   3.352   2.846   5.435  0.7187  0.0746 -0.8101
 3528SOL     OW13883   5.669   3.067   6.373 -0.0711 -0.2463 -0.2109
 3528SOL    HW213884   5.670   3.035   6.283 -1.8390 -0.4561 -0.1957
 3528SOL    HW313885   5.587   3.115   6.380  1.8539  3.3469  0.1218
 3528SOL    MW413886   5.658   3.069   6.363 -0.0136  0.1816 -0.3476
 3529SOL     OW13887   3.704   6.033   0.742 -0.8483 -0.5372 -0.3638
 3529SOL    HW213888   3.774   5.987   0.789 -1.0370  1.6309  2.3407
 3529SOL    HW313889   3.748   6.079   0.671  0.0121 -1.4596 -0.4357
 3529SOL    MW413890   3.719   6.033   0.739  0.3265  0.1238 -0.0944
 3530SOL     OW13891   3.891   1.587   1.544  0.3118  0.1673  0.1099
 3530SOL    HW213892   3.838   1.653   1.587 -1.0633  0.7224 -2.2733
 3530SOL    HW313893   3.977   1.628   1.532  0.5060  0.2456  1.6018
 3530SOL    MW413894   3.895   1.601   1.548  0.1975  0.5894  0.2536
 3531SOL     OW13895   4.400   2.246   3.419  0.7064  0.7667 -0.6981
 3531SOL    HW213896   4.443   2.258   3.335  1.4671 -0.5137 -0.5161
 3531SOL    HW313897   4.423   2.324   3.469  0.0998  1.6221 -1.7232
 3531SOL    MW413898   4.409   2.258   3.415  0.4138  0.1426 -0.4017
 3532SOL     OW13899   2.054   1.813   0.505 -0.5526 -0.1887  0.4410
 3532SOL    HW213900   1.996   1.742   0.475 -2.4020  1.6557 -0.5789
 3532SOL    HW313901   2.097   1.844   0.426  0.5401 -0.3797  0.9445
 3532SOL    MW413902   2.052   1.807   0.491  0.0472  0.3849 -0.2865
 3533SOL     OW13903   3.624   1.662   0.538 -0.1789 -0.2113 -0.5500
 3533SOL    HW213904   3.673   1.743   0.549  0.2642 -0.6566  1.0060
 3533SOL    HW313905   3.669   1.616   0.468  3.1963 -1.6320  2.2654
 3533SOL    MW413906   3.636   1.666   0.530  0.2895 -0.4829  0.5615
 3534SOL     OW13907   0.334   4.316   0.165  0.2058  0.0446 -0.3442
 3534SOL    HW213908   0.265   4.319   0.230 -1.0377 -2.2757 -1.4167
 3534SOL    HW313909   0.379   4.233   0.181  2.8877  1.4896  0.3597
 3534SOL    MW413910   0.331   4.305   0.176  0.3753  0.6379 -0.4756
 3535SOL     OW13911   1.546   2.979   3.432 -0.5941  0.4843 -0.4233
 3535SOL    HW213912   1.511   2.925   3.361 -0.5218 -0.1226 -0.0102
 3535SOL    HW313913   1.475   3.040   3.452 -1.1162 -0.1877 -0.1572
 3535SOL    MW413914   1.532   2.980   3.425  0.0445 -0.2325  0.4576
 3536SOL     OW13915   3.232   5.232   4.763 -0.1986 -0.5398 -0.1712
 3536SOL    HW213916   3.186   5.279   4.833 -2.0023  0.4481 -1.9195
 3536SOL    HW313917   3.296   5.177   4.809 -1.1534  0.2212  2.2215
 3536SOL    MW413918   3.234   5.231   4.779 -0.5653 -0.1898  0.2911
 3537SOL     OW13919   2.333   0.456   4.356 -0.4001 -0.3084 -0.3011
 3537SOL    HW213920   2.282   0.391   4.308  0.7002 -0.7654 -0.9056
 3537SOL    HW313921   2.371   0.511   4.288 -0.8844  0.6468  0.1844
 3537SOL    MW413922   2.332   0.455   4.341  0.1863  0.1442  0.3364
 3538SOL     OW13923   2.088   0.385   2.143  0.0472 -0.6729 -0.5001
 3538SOL    HW213924   2.024   0.398   2.212 -1.2528 -4.5199 -0.7118
 3538SOL    HW313925   2.038   0.390   2.062  1.2647  2.2185 -1.1931
 3538SOL    MW413926   2.073   0.387   2.141  0.5267  0.0090 -0.1205
 3539SOL     OW13927   1.635   4.748   5.736 -0.4392 -0.0096  0.1757
 3539SOL    HW213928   1.716   4.791   5.708 -0.5521 -0.1767 -0.4027
 3539SOL    HW313929   1.584   4.819   5.777  0.1951 -0.0035  0.9757
 3539SOL    MW413930   1.639   4.763   5.738  0.1123  0.0437  0.5924
 3540SOL     OW13931   2.250   3.323   1.201 -0.0194  0.0155 -0.5722
 3540SOL    HW213932   2.284   3.410   1.222  0.7341 -0.4487  0.1715
 3540SOL    HW313933   2.319   3.281   1.151  0.8547 -1.1542  1.4701
 3540SOL    MW413934   2.263   3.329   1.197 -0.3183 -0.2823 -0.2672
 3541SOL     OW13935   3.959   6.067   2.846  0.1415 -0.0916 -0.0199
 3541SOL    HW213936   3.870   6.090   2.872  0.1243  1.0530 -1.0377
 3541SOL    HW313937   4.002   6.041   2.928  0.3520  4.2307  1.5073
 3541SOL    MW413938   3.953   6.067   2.860 -0.0390  0.2543 -0.2510
 3542SOL     OW13939   4.695   3.174   3.438 -0.0763 -0.3298  0.1628
 3542SOL    HW213940   4.640   3.241   3.478 -1.3529 -0.5569 -1.1567
 3542SOL    HW313941   4.784   3.206   3.453 -0.6236  1.3625  0.0820
 3542SOL    MW413942   4.700   3.187   3.446  0.4274 -0.5038  0.0825
 3543SOL     OW13943   0.422   2.370   1.068 -0.1756 -0.0081 -0.5116
 3543SOL    HW213944   0.515   2.362   1.088 -0.3205  0.3965  0.4023
 3543SOL    HW313945   0.389   2.429   1.135 -1.3904 -1.3609  0.1324
 3543SOL    MW413946   0.430   2.377   1.080  0.1381 -0.2563  0.1580
 3544SOL     OW13947   1.337   3.387   3.164  0.6680 -0.1924 -0.1249
 3544SOL    HW213948   1.336   3.292   3.171  0.7844 -0.0785  2.0358
 3544SOL    HW313949   1.429   3.409   3.148  0.8658 -0.3891  0.6987
 3544SOL    MW413950   1.349   3.377   3.162 -0.0115 -0.5139 -0.4283
 3545SOL     OW13951   1.929   0.278   1.351 -0.7384 -0.1494 -0.4679
 3545SOL    HW213952   1.944   0.371   1.335  0.0837 -0.1128  0.4305
 3545SOL    HW313953   1.834   0.268   1.346 -0.9757  1.0485  0.9613
 3545SOL    MW413954   1.918   0.289   1.348 -0.5530 -0.7274 -0.3435
 3546SOL     OW13955   3.129   1.157   3.461 -0.0502  0.4469  0.4677
 3546SOL    HW213956   3.106   1.140   3.552 -1.5150 -0.4848 -0.0431
 3546SOL    HW313957   3.048   1.190   3.421  1.1039  2.8527 -0.0428
 3546SOL    MW413958   3.115   1.159   3.468 -0.5513 -0.8727 -0.5336
 3547SOL     OW13959   0.053   3.413   2.805  0.1420  0.0505 -0.6274
 3547SOL    HW213960   0.115   3.365   2.750 -0.8898 -0.8209 -1.0596
 3547SOL    HW313961  -0.033   3.391   2.770 -0.4530  0.9324  0.2036
 3547SOL    MW413962   0.050   3.404   2.793  0.1821  0.0841 -0.3790
 3548SOL     OW13963   3.532   5.743   3.692  0.0962 -0.5066 -0.3719
 3548SOL    HW213964   3.472   5.785   3.754  0.8414 -0.6558  0.4621
 3548SOL    HW313965   3.576   5.675   3.743  1.3409 -0.0687 -0.8334
 3548SOL    MW413966   3.530   5.740   3.707 -0.0430  0.1711 -0.3920
 3549SOL     OW13967   1.980   4.479   6.257 -0.4481  0.3252 -0.2673
 3549SOL    HW213968   2.035   4.401   6.256 -0.3667  0.3762  0.0551
 3549SOL    HW313969   1.918   4.466   6.185  0.4795  0.6287 -1.1420
 3549SOL    MW413970   1.979   4.467   6.247  0.0787 -0.3048 -0.2853
 3550SOL     OW13971   2.559   2.754   3.515 -0.1669 -0.3194 -0.8367
 3550SOL    HW213972   2.576   2.708   3.597  1.4667  1.6447  0.0266
 3550SOL    HW313973   2.514   2.834   3.541 -1.9203 -0.8271 -2.1576
 3550SOL    MW413974   2.556   2.759   3.529  0.1705  0.2584  0.2643
 3551SOL     OW13975   0.379   1.969   3.201 -0.2249  0.3907  0.0739
 3551SOL    HW213976   0.416   1.904   3.141 -0.8349 -0.0192  0.1463
 3551SOL    HW313977   0.414   1.946   3.287 -0.2431  0.3129  0.0598
 3551SOL    MW413978   0.389   1.958   3.204 -0.6378 -0.4768  0.2238
 3552SOL     OW13979   0.510   0.511   6.427  0.1319  0.1031 -0.0114
 3552SOL    HW213980   0.463   0.476   6.502 -0.4688 -0.7648 -0.7717
 3552SOL    HW313981   0.454   0.492   6.352  1.6744 -0.9801 -0.9569
 3552SOL    MW413982   0.496   0.504   6.427  0.1609  0.1860  0.0083
 3553SOL     OW13983   4.239   5.223   2.503 -0.0003 -1.0460 -0.3049
 3553SOL    HW213984   4.262   5.313   2.481 -0.0502 -0.8720  0.3536
 3553SOL    HW313985   4.253   5.174   2.421  1.8371 -0.7872 -0.1841
 3553SOL    MW413986   4.244   5.228   2.489 -0.4107 -0.3074 -0.4940
 3554SOL     OW13987   3.837   5.010   4.069 -0.2915  0.6762  0.3184
 3554SOL    HW213988   3.820   5.105   4.069  0.5628  0.8757  1.9816
 3554SOL    HW313989   3.909   4.998   4.009 -0.6031  1.0375 -0.1357
 3554SOL    MW413990   3.844   5.021   4.061 -0.3788 -0.6553 -0.0489
 3555SOL     OW13991   1.956   4.177   4.378  0.5438 -0.4013 -0.5185
 3555SOL    HW213992   1.908   4.160   4.459  1.3854 -1.8828 -0.3062
 3555SOL    HW313993   1.904   4.245   4.334  0.3823  0.8642  1.5026
 3555SOL    MW413994   1.943   4.184   4.383 -0.3487  0.2880 -0.6505
 3556SOL     OW13995   4.445   4.902   2.595 -0.5006 -0.1388  0.0551
 3556SOL    HW213996   4.476   4.819   2.632 -1.8979 -0.7403 -0.0659
 3556SOL    HW313997   4.500   4.969   2.635 -1.6637 -0.7845  2.9365
 3556SOL    MW413998   4.456   4.900   2.605 -0.8191 -0.2449  0.2879
 3557SOL     OW13999   5.321   5.957   2.095 -0.3967  0.2682  1.0307
 3557SOL    HW214000   5.391   5.893   2.109  0.3005  1.0233  1.0856
 3557SOL    HW314001   5.242   5.912   2.124 -0.1048 -0.9939 -0.0201
 3557SOL    MW414002   5.320   5.943   2.101 -0.4729 -0.1166  0.1325
 3558SOL     OW14003   0.377   4.834   1.156 -0.3100  0.7799  0.0450
 3558SOL    HW214004   0.409   4.793   1.076 -2.0465  1.2299 -0.9296
 3558SOL    HW314005   0.414   4.922   1.155  0.3808  0.4964  0.2055
 3558SOL    MW414006   0.386   4.840   1.145  0.7283  0.0096  0.1006
 3559SOL     OW14007   1.195   4.495   5.605  0.5209  0.1479  0.3226
 3559SOL    HW214008   1.288   4.499   5.627  0.7930  0.4186 -0.7778
 3559SOL    HW314009   1.184   4.410   5.562  0.1841 -0.0207  0.7286
 3559SOL    MW414010   1.206   4.485   5.602 -0.0256 -0.0327  1.0467
 3560SOL     OW14011   3.032   0.400   0.285  0.2301 -0.6982 -0.3322
 3560SOL    HW214012   2.992   0.330   0.336  0.1585 -0.4549 -0.0529
 3560SOL    HW314013   3.050   0.470   0.349  1.8361 -1.1139 -0.2797
 3560SOL    MW414014   3.029   0.400   0.300 -0.8107  0.0155  0.4974
 3561SOL     OW14015   3.429   4.704   2.694 -0.4087  0.4154  0.0014
 3561SOL    HW214016   3.399   4.627   2.646  3.0036 -1.2918  0.3187
 3561SOL    HW314017   3.368   4.713   2.767 -1.5136 -1.3254 -0.6605
 3561SOL    MW414018   3.417   4.695   2.697  0.3344  0.3209  0.5242
 3562SOL     OW14019   5.468   1.627   2.788  0.1313  0.1723  0.6923
 3562SOL    HW214020   5.423   1.575   2.722 -0.3827  0.9396  0.4342
 3562SOL    HW314021   5.428   1.600   2.871  0.7340 -0.7438  0.7131
 3562SOL    MW414022   5.457   1.616   2.790 -0.1006 -0.0173 -0.6140
 3563SOL     OW14023   2.061   4.620   1.938 -0.2584  0.3201  0.3926
 3563SOL    HW214024   2.122   4.690   1.914  0.7002 -0.1427  1.3921
 3563SOL    HW314025   2.080   4.550   1.875  0.3935  0.1054  0.8190
 3563SOL    MW414026   2.071   4.620   1.926  0.2748  0.3000  0.5499
 3564SOL     OW14027   0.484   5.866   5.981  0.4769 -0.2167 -0.5085
 3564SOL    HW214028   0.405   5.912   6.009  0.9110  2.4169 -3.0622
 3564SOL    HW314029   0.556   5.926   6.003  1.4330 -1.1266 -1.0340
 3564SOL    MW414030   0.483   5.880   5.987 -0.0955 -0.3900  0.6594
 3565SOL     OW14031   5.886   6.261   2.907 -0.5947 -0.7125  0.0292
 3565SOL    HW214032   5.830   6.301   2.840  0.1699  1.1900  0.4458
 3565SOL    HW314033   5.939   6.197   2.859 -1.2447 -0.6038 -0.8680
 3565SOL    MW414034   5.886   6.258   2.892 -0.2859  0.0122 -0.2268
 3566SOL     OW14035   1.541   2.303   3.180  0.0726  0.1003 -0.0483
 3566SOL    HW214036   1.495   2.265   3.254  2.1636 -0.3283  1.1090
 3566SOL    HW314037   1.614   2.243   3.163  0.5655  1.0203 -1.4218
 3566SOL    MW414038   1.544   2.290   3.187 -0.4278  0.4628 -0.1010
 3567SOL     OW14039   4.668   6.412   1.500  0.3011  0.2651 -0.3743
 3567SOL    HW214040   4.614   6.441   1.573  0.9042 -2.8071  1.4644
 3567SOL    HW314041   4.636   6.463   1.425 -1.6262  2.1927  1.6009
 3567SOL    MW414042   4.657   6.423   1.499 -0.2911 -0.1961  0.1795
 3568SOL     OW14043   4.660   3.721   5.466  0.2014  0.4295 -0.1681
 3568SOL    HW214044   4.725   3.748   5.531  0.8750  0.4313 -0.8282
 3568SOL    HW314045   4.629   3.804   5.427  0.4514  0.3831 -0.4672
 3568SOL    MW414046   4.664   3.736   5.469  0.5150 -0.1906  0.2957
 3569SOL     OW14047   5.787   5.491   2.913 -0.2425 -0.1458 -0.3086
 3569SOL    HW214048   5.844   5.546   2.859 -1.9752  1.3453 -0.7180
 3569SOL    HW314049   5.739   5.437   2.849  0.0495 -0.7448 -0.0288
 3569SOL    MW414050   5.788   5.491   2.897  0.0777 -0.2275  1.2661
 3570SOL     OW14051   4.250   5.449   5.265 -0.4721  0.5700 -0.5600
 3570SOL    HW214052   4.220   5.503   5.338  0.3313  0.0507  0.1778
 3570SOL    HW314053   4.338   5.481   5.246 -0.2935  0.0554 -0.6341
 3570SOL    MW414054   4.257   5.460   5.272  0.4426  0.2833  0.4328
 3571SOL     OW14055   3.672   0.545   4.653  0.2191  0.2254  0.1560
 3571SOL    HW214056   3.741   0.610   4.671 -0.4840  0.4999  2.0284
 3571SOL    HW314057   3.591   0.588   4.678 -0.3865 -0.9438  0.2879
 3571SOL    MW414058   3.671   0.559   4.659  0.3453 -0.2743  0.1701
 3572SOL     OW14059   2.392   4.276   1.130  0.0708  0.0072  0.4622
 3572SOL    HW214060   2.459   4.215   1.099  0.2455 -1.2546  3.0665
 3572SOL    HW314061   2.312   4.223   1.136 -0.5930  0.8952 -0.3538
 3572SOL    MW414062   2.391   4.261   1.127 -0.3983 -0.2830 -0.1650
 3573SOL     OW14063   5.975   2.433   2.079 -0.9170 -0.2246 -0.0563
 3573SOL    HW214064   6.069   2.415   2.084 -0.4756  1.9075  0.1888
 3573SOL    HW314065   5.934   2.357   2.121  0.7851 -0.4341  1.3491
 3573SOL    MW414066   5.982   2.421   2.085 -0.1668 -0.2000  0.2512
 3574SOL     OW14067   2.088   4.763   2.833 -0.5250 -0.2305 -0.4220
 3574SOL    HW214068   2.051   4.840   2.789 -0.7191  0.3951  0.8042
 3574SOL    HW314069   2.108   4.703   2.761 -0.4562  0.9160 -1.4024
 3574SOL    MW414070   2.086   4.766   2.817  0.5822 -0.2291 -0.0000
 3575SOL     OW14071   3.955   1.947   0.731 -0.1631  0.1931 -0.4190
 3575SOL    HW214072   3.919   1.874   0.781 -0.9922  0.2337 -0.9250
 3575SOL    HW314073   3.915   2.025   0.770  0.4484  0.3501 -0.1035
 3575SOL    MW414074   3.945   1.948   0.743  0.2124 -0.2208  0.5261
 3576SOL     OW14075   2.149   4.554   4.585  0.3025 -0.4645 -0.2344
 3576SOL    HW214076   2.141   4.481   4.524  0.3203 -0.9850  0.3775
 3576SOL    HW314077   2.059   4.575   4.610  0.1447  0.9112 -1.7613
 3576SOL    MW414078   2.136   4.547   4.580 -0.5394  0.5500 -0.4188
 3577SOL     OW14079   1.606   3.322   4.967  0.0830 -0.0086 -0.1064
 3577SOL    HW214080   1.544   3.393   4.984  0.2677  0.0656  0.2657
 3577SOL    HW314081   1.593   3.261   5.040 -0.4453 -0.6180 -0.7026
 3577SOL    MW414082   1.596   3.323   4.979 -0.4940  0.2937  0.2128
 3578SOL     OW14083   0.476   5.045   6.374 -0.4239 -0.0760  0.0668
 3578SOL    HW214084   0.417   5.026   6.301  0.1939  0.4594 -0.5798
 3578SOL    HW314085   0.554   4.992   6.356 -0.5993 -0.6099  0.8019
 3578SOL    MW414086   0.478   5.035   6.362  0.6550  0.2330  0.0822
 3579SOL     OW14087   5.909   4.245   0.598  1.1204 -0.1845  0.3872
 3579SOL    HW214088   5.959   4.244   0.516 -0.2024 -0.5169 -0.4425
 3579SOL    HW314089   5.903   4.338   0.621  0.2924  0.0293 -0.6606
 3579SOL    MW414090   5.915   4.257   0.590 -0.1500  0.2687 -0.8496
 3580SOL     OW14091   1.230   4.837   1.243  0.0208  0.7929 -0.1848
 3580SOL    HW214092   1.230   4.826   1.338  2.3773  1.6812 -0.0233
 3580SOL    HW314093   1.139   4.859   1.222 -0.4868  0.8960  1.8897
 3580SOL    MW414094   1.218   4.838   1.253 -0.2852 -0.0766  0.1265
 3581SOL     OW14095   5.017   3.841   0.761  0.2568  0.0898  0.3484
 3581SOL    HW214096   4.992   3.800   0.678  0.2002  0.7332  0.0407
 3581SOL    HW314097   5.039   3.931   0.738  1.5611 -0.0838  0.8225
 3581SOL    MW414098   5.017   3.847   0.747  0.3935 -0.4210 -0.7829
 3582SOL     OW14099   3.218   3.156   2.456  0.0888  0.0434 -0.3429
 3582SOL    HW214100   3.274   3.091   2.414  1.6505 -1.3296  3.4284
 3582SOL    HW314101   3.278   3.223   2.488 -0.5208 -0.4617  2.0972
 3582SOL    MW414102   3.233   3.156   2.455 -0.4573  0.5511 -0.0278
 3583SOL     OW14103   5.978   0.258   4.108 -0.1902 -0.7805 -0.1864
 3583SOL    HW214104   6.073   0.267   4.099 -0.4210  0.8319 -1.5602
 3583SOL    HW314105   5.958   0.173   4.068  0.6115 -0.8414 -0.4762
 3583SOL    MW414106   5.988   0.248   4.102 -0.7047  0.2018  0.4329
 3584SOL     OW14107   3.753   5.955   2.431  0.2337 -0.9417 -0.3668
 3584SOL    HW214108   3.783   5.981   2.344  0.9033  0.6399  0.2962
 3584SOL    HW314109   3.800   5.874   2.449  1.6245 -0.2340 -0.6889
 3584SOL    MW414110   3.763   5.948   2.422 -0.4602  0.2983  0.5570
 3585SOL     OW14111   3.197   3.076   1.556  0.0274 -0.0985 -0.5541
 3585SOL    HW214112   3.212   3.080   1.461 -1.1094  0.2554 -0.7312
 3585SOL    HW314113   3.107   3.046   1.564  0.5958 -1.5969  0.4517
 3585SOL    MW414114   3.187   3.073   1.544  0.1186  0.4803 -0.7963
 3586SOL     OW14115   4.891   0.847   2.100  0.3814  0.3962 -0.3357
 3586SOL    HW214116   4.913   0.861   2.192 -0.0797  1.1169 -0.3293
 3586SOL    HW314117   4.964   0.794   2.066  0.4272 -0.0925  0.4968
 3586SOL    MW414118   4.904   0.842   2.107 -0.4942 -0.4377 -0.3009
 3587SOL     OW14119   4.025   1.915   1.374  0.3071 -0.7759  0.5806
 3587SOL    HW214120   4.065   1.996   1.406  0.3563 -0.2700 -0.7077
 3587SOL    HW314121   4.001   1.934   1.283 -3.4802 -0.8083  1.4174
 3587SOL    MW414122   4.027   1.928   1.366 -0.0262 -0.4160  0.0134
 3588SOL     OW14123   5.381   2.147   1.430  0.0164  0.3558 -0.1580
 3588SOL    HW214124   5.303   2.130   1.378  0.5707  0.5392 -1.0601
 3588SOL    HW314125   5.352   2.135   1.521 -1.2399  1.1402 -0.4278
 3588SOL    MW414126   5.367   2.143   1.435 -0.0310  0.3536  0.0562
 3589SOL     OW14127   0.011   1.414   1.245  0.0360  0.3326  0.1246
 3589SOL    HW214128  -0.000   1.506   1.267 -0.0771  0.4309 -0.3469
 3589SOL    HW314129   0.025   1.413   1.150  0.0584 -0.1321  0.1304
 3589SOL    MW414130   0.012   1.426   1.235  0.1310 -0.5050 -0.4922
 3590SOL     OW14131   6.309   6.059   5.634 -0.4701  1.0507 -0.0192
 3590SOL    HW214132   6.235   6.091   5.582 -0.5400  1.0221  0.0636
 3590SOL    HW314133   6.379   6.047   5.570 -0.0579  2.5262  0.1172
 3590SOL    MW414134   6.308   6.062   5.619  0.2456  0.4756  0.3247
 3591SOL     OW14135   4.450   0.483   0.088  0.4018 -0.1302 -0.4696
 3591SOL    HW214136   4.467   0.424   0.161  0.6515  0.6343  0.0998
 3591SOL    HW314137   4.502   0.448   0.016 -0.1509 -1.1110 -0.4025
 3591SOL    MW414138   4.459   0.471   0.088  0.0957  0.8327 -0.3555
 3592SOL     OW14139   2.820   4.800   6.097  0.3900 -0.1799  0.0017
 3592SOL    HW214140   2.750   4.826   6.157  0.0652  0.4565 -0.6401
 3592SOL    HW314141   2.899   4.835   6.137  0.1623  0.3321  0.0150
 3592SOL    MW414142   2.821   4.808   6.110 -0.3459  0.3733 -0.7318
 3593SOL     OW14143   4.938   1.866   2.143  0.3308  0.3829 -0.5007
 3593SOL    HW214144   4.894   1.806   2.204  1.0401 -0.2602 -0.6150
 3593SOL    HW314145   4.866   1.905   2.093 -0.2608  0.8771  0.6996
 3593SOL    MW414146   4.923   1.863   2.144  0.4516  0.0736  0.1198
 3594SOL     OW14147   1.440   6.026   1.262 -0.2364  0.2871 -0.0398
 3594SOL    HW214148   1.516   6.037   1.204 -0.1975 -0.9951 -0.2798
 3594SOL    HW314149   1.393   5.951   1.224 -0.3784 -0.3892  1.4165
 3594SOL    MW414150   1.443   6.017   1.249 -0.0548 -0.3434  0.1198
 3595SOL     OW14151   2.924   2.639   4.668 -0.1493 -0.0227  0.2762
 3595SOL    HW214152   2.944   2.722   4.626  0.8095 -0.4624 -0.1668
 3595SOL    HW314153   2.975   2.639   4.749  1.3956 -0.9504 -0.6350
 3595SOL    MW414154   2.933   2.650   4.673 -0.1640 -0.6780 -0.6939
 3596SOL     OW14155   2.857   5.151   1.600  0.3980 -0.3343 -0.4152
 3596SOL    HW214156   2.911   5.117   1.530 -0.2923 -1.2843 -0.5147
 3596SOL    HW314157   2.878   5.096   1.676  0.4372  0.0560 -0.1393
 3596SOL    MW414158   2.867   5.139   1.601  0.0459  0.5928 -0.3769
 3597SOL     OW14159   5.324   3.903   6.419 -0.3116 -0.3801 -0.3500
 3597SOL    HW214160   5.315   3.988   6.462 -1.7362  0.3150 -1.8886
 3597SOL    HW314161   5.395   3.860   6.466 -0.9029  0.8248  1.8070
 3597SOL    MW414162   5.332   3.909   6.431  0.9492  0.0777  0.4924
 3598SOL     OW14163   1.426   0.128   3.958  0.6219 -0.0396  0.0027
 3598SOL    HW214164   1.452   0.190   4.027  0.0985  2.4913 -1.9245
 3598SOL    HW314165   1.362   0.176   3.906  0.3714 -2.1526 -1.7729
 3598SOL    MW414166   1.421   0.142   3.960 -0.1641 -0.3565  0.1899
 3599SOL     OW14167   0.682   1.403   3.034 -0.5065  0.1697  0.0139
 3599SOL    HW214168   0.607   1.400   2.974  0.6725 -0.1808 -1.5129
 3599SOL    HW314169   0.750   1.353   2.989  0.8196  0.9321  1.1045
 3599SOL    MW414170   0.681   1.396   3.020  0.0407  0.1149  0.3112
 3600SOL     OW14171   5.892   0.857   5.154  0.0517 -0.3025 -0.2172
 3600SOL    HW214172   5.984   0.868   5.132  0.0041  0.2006 -0.1934
 3600SOL    HW314173   5.858   0.947   5.159  0.3125 -0.2729  2.9204
 3600SOL    MW414174   5.900   0.870   5.152  0.1204  0.4752  0.0924
 3601SOL     OW14175   3.621   3.769   0.099 -0.4995  0.0363 -0.1408
 3601SOL    HW214176   3.643   3.835   0.165 -1.2237  0.7274 -0.5703
 3601SOL    HW314177   3.582   3.697   0.149  3.8704 -1.9780  0.9026
 3601SOL    MW414178   3.619   3.768   0.114  0.2524  0.4186  0.0723
 3602SOL     OW14179   6.057   0.243   4.663 -0.8027  0.6209 -0.0632
 3602SOL    HW214180   6.023   0.250   4.574  0.6397 -1.2797 -0.8280
 3602SOL    HW314181   6.152   0.251   4.654 -0.4089 -1.9050  0.9336
 3602SOL    MW414182   6.065   0.245   4.650  0.1478 -0.2092 -0.1427
 3603SOL     OW14183   2.232   1.174   1.914  0.4427 -0.1011  0.2792
 3603SOL    HW214184   2.187   1.136   1.839 -0.0874  1.1083 -0.0386
 3603SOL    HW314185   2.270   1.099   1.960 -0.0794 -0.9453 -0.6341
 3603SOL    MW414186   2.231   1.159   1.910  0.2580  0.2242 -0.3038
 3604SOL     OW14187   1.172   5.682   0.147  0.1361  0.0872  0.2042
 3604SOL    HW214188   1.167   5.639   0.232 -3.3955  1.2421  0.7576
 3604SOL    HW314189   1.233   5.755   0.160  1.2644 -0.9877  1.0771
 3604SOL    MW414190   1.179   5.686   0.160 -0.3510  0.0536  0.2988
 3605SOL     OW14191   6.100   2.920   4.500  0.1990 -0.0968  0.3235
 3605SOL    HW214192   6.193   2.939   4.486  0.3620  1.1433  2.5675
 3605SOL    HW314193   6.100   2.857   4.573 -0.7171  0.7757  1.1026
 3605SOL    MW414194   6.112   2.914   4.508  0.5107 -0.1424  0.5143
 3606SOL     OW14195   5.591   3.339   1.680 -0.4845 -0.1704 -0.0994
 3606SOL    HW214196   5.648   3.369   1.610 -0.8290  1.2771  0.2223
 3606SOL    HW314197   5.544   3.417   1.709  0.2248 -0.5665  2.2875
 3606SOL    MW414198   5.592   3.353   1.674 -0.0956 -0.4714  0.0278
 3607SOL     OW14199   0.054   1.026   1.449 -0.0905  0.1744 -0.3740
 3607SOL    HW214200  -0.039   1.046   1.439 -0.2649 -0.5305 -0.2239
 3607SOL    HW314201   0.081   0.988   1.366 -0.3746 -1.2360  0.1479
 3607SOL    MW414202   0.046   1.024   1.437  0.0640  0.0084 -0.0881
 3608SOL     OW14203   0.680   5.204   2.160 -0.3655  0.3753 -0.1078
 3608SOL    HW214204   0.646   5.252   2.234 -1.1567  1.8033 -1.3452
 3608SOL    HW314205   0.712   5.271   2.100  0.5673 -0.7463 -0.9220
 3608SOL    MW414206   0.680   5.219   2.162 -0.4452 -0.3835 -0.1709
 3609SOL     OW14207   6.254   2.105   2.547  0.1723  0.6590  0.0530
 3609SOL    HW214208   6.245   2.069   2.635  1.4620  2.8163  1.1503
 3609SOL    HW314209   6.301   2.038   2.498  0.7141  0.0004  1.4193
 3609SOL    MW414210   6.259   2.092   2.552 -0.0696 -0.6451 -0.3909
 3610SOL     OW14211   0.225   3.019   5.018  0.1214 -0.0508 -0.0640
 3610SOL    HW214212   0.172   2.969   5.080  0.8939 -0.0157  0.6450
 3610SOL    HW314213   0.218   3.109   5.048 -0.2364  0.0983 -0.5818
 3610SOL    MW414214   0.217   3.024   5.030 -0.2313  0.5391 -0.1941
 3611SOL     OW14215   4.026   5.359   0.358 -0.2418  0.1171 -0.0621
 3611SOL    HW214216   4.075   5.405   0.426  1.0767 -0.0683 -0.8598
 3611SOL    HW314217   4.037   5.413   0.280 -2.5948  0.8768  0.0506
 3611SOL    MW414218   4.034   5.372   0.357  0.0155  0.3113  0.3653
 3612SOL     OW14219   4.534   5.948   2.351  0.6936  0.4966  0.0944
 3612SOL    HW214220   4.458   5.901   2.318  1.5637 -2.0021  1.3201
 3612SOL    HW314221   4.561   6.005   2.280  1.2562 -3.0306 -2.8539
 3612SOL    MW414222   4.528   5.949   2.337  0.1341  0.8912  0.6961
 3613SOL     OW14223   4.099   1.341   3.048 -0.2942  0.3830 -0.2017
 3613SOL    HW214224   4.020   1.324   3.099 -0.4755 -1.1682 -0.9556
 3613SOL    HW314225   4.074   1.411   2.988 -0.9477  0.2262 -0.1213
 3613SOL    MW414226   4.085   1.348   3.047 -0.1617 -0.2242  0.4615
 3614SOL     OW14227   3.139   2.052   5.411 -0.2096 -0.2447  0.1170
 3614SOL    HW214228   3.070   2.004   5.365  0.6231 -0.6120 -0.7721
 3614SOL    HW314229   3.107   2.143   5.414 -0.6083 -0.3585 -0.5301
 3614SOL    MW414230   3.125   2.058   5.405 -0.2572 -0.1508  0.2227
 3615SOL     OW14231   3.786   2.627   0.197 -0.3129 -0.0310 -0.1481
 3615SOL    HW214232   3.759   2.715   0.169 -1.4009  0.0401  1.0501
 3615SOL    HW314233   3.859   2.642   0.257  1.3365 -0.1305 -2.0313
 3615SOL    MW414234   3.792   2.641   0.201 -0.4173  0.2064  0.8534
 3616SOL     OW14235   2.411   2.696   5.208 -0.5897  0.3635  0.3768
 3616SOL    HW214236   2.484   2.729   5.260  0.5704 -1.0034 -0.3183
 3616SOL    HW314237   2.445   2.617   5.166 -2.4336 -0.2284 -0.0874
 3616SOL    MW414238   2.425   2.690   5.209  0.0662 -0.7216 -0.1623
 3617SOL     OW14239   3.173   1.168   5.220  0.9830  0.4787 -0.1310
 3617SOL    HW214240   3.185   1.089   5.167 -2.4045 -0.0500 -0.3899
 3617SOL    HW314241   3.171   1.240   5.157  0.0228  0.2136 -0.4323
 3617SOL    MW414242   3.174   1.167   5.205  0.7190  0.3845 -0.2586
 3618SOL     OW14243   4.735   3.608   2.561 -0.2003 -0.2447 -0.0595
 3618SOL    HW214244   4.830   3.594   2.563 -0.2535 -0.8242 -0.7591
 3618SOL    HW314245   4.699   3.534   2.610 -0.2688  0.3610  0.8215
 3618SOL    MW414246   4.743   3.596   2.567  0.7134 -0.4314 -0.1618
 3619SOL     OW14247   0.804   3.656   2.921  0.0081 -0.4245 -0.0022
 3619SOL    HW214248   0.880   3.644   2.864  0.7002  0.5309  0.6911
 3619SOL    HW314249   0.756   3.729   2.882  0.9359  0.8036  1.0538
 3619SOL    MW414250   0.808   3.664   2.908  0.0393  0.2163  0.1389
 3620SOL     OW14251   4.375   2.770   2.092 -0.0351 -0.0627 -0.0360
 3620SOL    HW214252   4.368   2.865   2.081 -0.0631 -0.1039 -0.3877
 3620SOL    HW314253   4.469   2.752   2.084 -0.1688 -0.2314 -1.4105
 3620SOL    MW414254   4.386   2.780   2.089 -0.3429  0.4984  0.1095
 3621SOL     OW14255   1.020   4.087   0.266 -0.5215 -0.8392 -0.7289
 3621SOL    HW214256   1.106   4.129   0.264 -1.1079  0.6738  1.6952
 3621SOL    HW314257   1.036   4.003   0.309 -0.6286  0.8295  2.9008
 3621SOL    MW414258   1.034   4.081   0.271 -0.4458  0.4416 -0.3858
 3622SOL     OW14259   5.238   4.831   0.728 -0.0087 -0.4875 -0.4624
 3622SOL    HW214260   5.324   4.792   0.715 -0.1567 -1.0581  0.2270
 3622SOL    HW314261   5.184   4.761   0.766  0.2080  0.8051  2.5026
 3622SOL    MW414262   5.242   4.817   0.731 -0.3698  0.0666  0.1171
 3623SOL     OW14263   5.537   4.653   1.665 -0.1501  0.0277  0.2683
 3623SOL    HW214264   5.615   4.686   1.710 -0.4995 -0.1294  1.0140
 3623SOL    HW314265   5.494   4.597   1.730  0.2303 -1.6102 -0.8364
 3623SOL    MW414266   5.541   4.650   1.680  0.3440 -0.0570 -0.1767
 3624SOL     OW14267   2.374   6.388   4.302 -0.0021  0.5009 -0.1834
 3624SOL    HW214268   2.352   6.403   4.394  1.2725 -0.9818  0.3942
 3624SOL    HW314269   2.457   6.433   4.289  0.6165 -0.5859 -0.1506
 3624SOL    MW414270   2.382   6.396   4.313 -0.0015  0.4221  0.1511
 3625SOL     OW14271   5.381   6.057   3.834  0.0051  0.0534  0.2070
 3625SOL    HW214272   5.387   5.994   3.906 -1.0722  1.0057  1.1643
 3625SOL    HW314273   5.467   6.099   3.833  0.7313 -1.3647 -0.4267
 3625SOL    MW414274   5.393   6.054   3.843 -0.3994 -0.0950 -0.2531
 3626SOL     OW14275   4.055   0.596   5.928  0.7712 -0.2619  0.2354
 3626SOL    HW214276   4.026   0.515   5.886  0.6984  0.4319 -1.0976
 3626SOL    HW314277   4.123   0.569   5.990  0.2978 -1.4000  0.2730
 3626SOL    MW414278   4.060   0.582   5.931  0.5891  0.1601  0.1476
 3627SOL     OW14279   4.186   5.946   4.475  0.5371 -0.3613  0.2338
 3627SOL    HW214280   4.104   5.979   4.437  1.4604  0.5672 -1.0279
 3627SOL    HW314281   4.213   5.876   4.416  1.6020  0.6014 -0.4633
 3627SOL    MW414282   4.178   5.941   4.462 -0.1659 -0.3732  0.0249
 3628SOL     OW14283   1.316   4.215   3.457 -0.1623 -0.4307  0.1490
 3628SOL    HW214284   1.312   4.265   3.375  1.8243 -0.9220 -0.2978
 3628SOL    HW314285   1.267   4.268   3.520  0.7586  1.4362 -0.6356
 3628SOL    MW414286   1.309   4.229   3.454  0.6451 -0.5394 -0.7940
 3629SOL     OW14287   4.488   1.789   2.125 -0.5991 -0.1756 -0.5747
 3629SOL    HW214288   4.490   1.783   2.220 -1.0068 -2.4863 -0.6570
 3629SOL    HW314289   4.401   1.824   2.105  0.0963  1.9814 -0.1107
 3629SOL    MW414290   4.477   1.793   2.135  0.4038  0.4723 -0.0833
 3630SOL     OW14291   4.938   5.628   0.532  0.3315  0.0807 -0.4128
 3630SOL    HW214292   5.003   5.580   0.482 -0.3230 -1.1494 -0.1077
 3630SOL    HW314293   4.854   5.588   0.509 -0.2682  1.2488 -0.3495
 3630SOL    MW414294   4.935   5.617   0.523  0.0150  0.2681 -0.7559
 3631SOL     OW14295   1.133   2.467   4.519 -0.0511  0.0315 -0.1976
 3631SOL    HW214296   1.213   2.423   4.547  0.4272  0.5555 -0.7046
 3631SOL    HW314297   1.164   2.545   4.473 -0.8763  0.7054  0.3781
 3631SOL    MW414298   1.148   2.471   4.516  0.1443 -0.2909 -0.1556
 3632SOL     OW14299   4.364   4.120   4.220  0.7661  0.1493  0.0523
 3632SOL    HW214300   4.382   4.205   4.261  1.4298 -0.4642  1.0553
 3632SOL    HW314301   4.284   4.089   4.263  0.7170  0.0932 -0.0772
 3632SOL    MW414302   4.356   4.127   4.231 -0.3398  0.2440 -0.1464
 3633SOL     OW14303   5.430   1.241   5.214 -0.0647 -0.6241  0.4395
 3633SOL    HW214304   5.385   1.225   5.297 -0.9781  0.0947  0.1008
 3633SOL    HW314305   5.395   1.325   5.183  1.6687  0.0708  0.2473
 3633SOL    MW414306   5.419   1.250   5.221  0.4054 -0.1953  0.1183
 3634SOL     OW14307   3.896   2.052   6.316 -0.0765 -0.0698  0.4701
 3634SOL    HW214308   3.925   2.071   6.227 -0.6628  0.7370  0.4478
 3634SOL    HW314309   3.801   2.040   6.309  0.1355 -2.4383  0.5829
 3634SOL    MW414310   3.887   2.053   6.304  0.1866 -0.4548  0.3359
 3635SOL     OW14311   4.388   2.985   0.164  0.6032 -0.2262  0.5095
 3635SOL    HW214312   4.372   2.908   0.110 -0.8479 -0.7094  1.5423
 3635SOL    HW314313   4.446   3.040   0.112 -1.3447 -0.2852 -1.9089
 3635SOL    MW414314   4.393   2.982   0.150  0.0477 -0.6616  0.2548
 3636SOL     OW14315   3.340   5.038   0.727 -0.3580  0.3650  0.1978
 3636SOL    HW214316   3.363   4.983   0.652  2.4949  0.7694  0.6492
 3636SOL    HW314317   3.424   5.065   0.763 -1.6571  1.9357  2.2833
 3636SOL    MW414318   3.354   5.035   0.722 -0.1170  0.8189 -0.5169
 3637SOL     OW14319   3.488   1.692   1.318  0.2884  0.0995 -0.2305
 3637SOL    HW214320   3.532   1.613   1.348  0.8865  0.4485 -0.1735
 3637SOL    HW314321   3.557   1.759   1.315 -0.2035  0.6164 -0.2828
 3637SOL    MW414322   3.503   1.691   1.322 -0.1555 -0.2522  0.1995
 3638SOL     OW14323   4.275   0.018   4.547 -0.1461  0.1252  0.0743
 3638SOL    HW214324   4.302  -0.071   4.525 -0.4771 -0.2575  1.1538
 3638SOL    HW314325   4.179   0.016   4.537 -0.1523  0.3562  0.1011
 3638SOL    MW414326   4.266   0.006   4.543  0.5122  0.4011 -0.4851
 3639SOL     OW14327   4.797   6.328   6.019 -0.3075  0.0905  0.2060
 3639SOL    HW214328   4.809   6.393   5.949 -0.6120 -0.1305 -0.0524
 3639SOL    HW314329   4.712   6.289   6.001 -0.2730 -0.1458  0.5579
 3639SOL    MW414330   4.788   6.332   6.007 -0.2188  0.2827  0.5312
 3640SOL     OW14331   2.158   4.266   4.946  0.0801 -0.2848  0.5967
 3640SOL    HW214332   2.249   4.241   4.932  1.6153  3.2899  2.6798
 3640SOL    HW314333   2.111   4.231   4.871  3.0166 -2.7917 -0.2601
 3640SOL    MW414334   2.163   4.258   4.934  0.5453 -0.0456  0.1813
 3641SOL     OW14335   0.554   5.293   2.383 -0.5928  0.4465  0.4480
 3641SOL    HW214336   0.518   5.382   2.389 -1.7580 -0.0900  2.2972
 3641SOL    HW314337   0.481   5.239   2.354 -0.0898 -0.0475  0.0649
 3641SOL    MW414338   0.540   5.298   2.380 -0.4471  0.4408  0.7959
 3642SOL     OW14339   1.666   4.218   5.952  0.1116  0.0279 -0.1078
 3642SOL    HW214340   1.615   4.156   6.004 -0.2552 -1.6914 -2.3202
 3642SOL    HW314341   1.747   4.171   5.931  1.7073  1.8880  1.4861
 3642SOL    MW414342   1.670   4.204   5.956 -0.3175  0.0122 -0.2119
 3643SOL     OW14343   5.882   2.694   6.082  0.0130  0.4177 -0.9416
 3643SOL    HW214344   5.850   2.644   6.158  0.4530  0.7370 -0.5372
 3643SOL    HW314345   5.972   2.716   6.105  0.5785 -0.5925 -2.1281
 3643SOL    MW414346   5.889   2.690   6.095  0.4416 -0.3199  0.3612
 3644SOL     OW14347   3.913   1.876   5.648  0.0503  0.4853 -0.4808
 3644SOL    HW214348   3.884   1.967   5.647 -0.2215  0.4157  0.2187
 3644SOL    HW314349   3.831   1.825   5.651  0.2036  0.2304 -0.6288
 3644SOL    MW414350   3.898   1.881   5.649  0.2132 -0.6820  0.2244
 3645SOL     OW14351   0.499   2.988   3.961 -0.9311  0.0031 -0.0824
 3645SOL    HW214352   0.481   3.058   4.022  1.2728  2.4749 -2.0335
 3645SOL    HW314353   0.594   2.984   3.956 -0.9818 -2.8698 -0.4174
 3645SOL    MW414354   0.509   2.996   3.968 -0.4164 -0.2300 -0.0133
 3646SOL     OW14355   1.528   3.767   0.995 -0.1336  0.4570 -0.6386
 3646SOL    HW214356   1.458   3.702   1.006 -0.4809  0.7669 -0.9733
 3646SOL    HW314357   1.559   3.784   1.084 -0.1135 -0.0838 -0.5369
 3646SOL    MW414358   1.522   3.761   1.008  0.0324 -0.1166  0.5982
 3647SOL     OW14359   3.412   1.513   5.128  0.2027  0.1411 -0.7308
 3647SOL    HW214360   3.412   1.587   5.188  0.2613  0.7275 -1.4458
 3647SOL    HW314361   3.319   1.499   5.106  0.0355 -0.9600  0.5542
 3647SOL    MW414362   3.399   1.521   5.133  0.0284  0.0356 -0.2592
 3648SOL     OW14363   2.147   3.760   0.376  0.1790 -0.5119  0.0728
 3648SOL    HW214364   2.134   3.846   0.336  0.0991 -0.1312  0.8972
 3648SOL    HW314365   2.242   3.753   0.386  0.2353 -0.7953 -0.5557
 3648SOL    MW414366   2.158   3.770   0.372 -0.1244 -0.2088 -0.6055
 3649SOL     OW14367   0.707   5.744   4.906 -0.2382  0.3790  0.1211
 3649SOL    HW214368   0.737   5.661   4.867  1.3769  0.9116  0.1332
 3649SOL    HW314369   0.788   5.788   4.932 -1.1807  0.6445  2.8708
 3649SOL    MW414370   0.722   5.739   4.904  0.2529  0.2602  0.3094
 3650SOL     OW14371   0.946   3.946   4.283 -0.3836  0.1084  0.0708
 3650SOL    HW214372   0.931   4.036   4.311 -0.9059  0.2937 -0.7797
 3650SOL    HW314373   0.860   3.913   4.259 -0.1177 -0.4372 -0.1580
 3650SOL    MW414374   0.933   3.953   4.284 -0.1901 -0.2504  0.0903
 3651SOL     OW14375   0.392   4.052   1.830  0.1025 -0.1842 -0.3559
 3651SOL    HW214376   0.300   4.028   1.842  0.6651 -2.6938 -0.5189
 3651SOL    HW314377   0.439   3.999   1.894  1.4473  1.3904  0.0388
 3651SOL    MW414378   0.386   4.042   1.840  0.1173 -0.2640 -0.4983
 3652SOL     OW14379   0.214   1.618   4.591  0.1614 -0.4967  0.2658
 3652SOL    HW214380   0.286   1.558   4.609  0.7746  0.2245  0.2631
 3652SOL    HW314381   0.178   1.639   4.677  1.4687  0.9623  0.5129
 3652SOL    MW414382   0.219   1.613   4.605  0.0300  0.4033  0.7245
 3653SOL     OW14383   1.751   0.474   4.164  0.2683  0.2290 -0.4484
 3653SOL    HW214384   1.819   0.408   4.151 -0.6746 -0.6932 -0.7412
 3653SOL    HW314385   1.796   0.557   4.146  1.4955 -0.2907  0.0455
 3653SOL    MW414386   1.766   0.477   4.160  0.8387 -0.4508  0.3238
 3654SOL     OW14387   1.343   3.783   0.736 -0.0201 -0.0405 -0.7733
 3654SOL    HW214388   1.287   3.784   0.814  1.4229 -1.8314  0.3875
 3654SOL    HW314389   1.295   3.729   0.674  0.6720 -2.2911  0.5221
 3654SOL    MW414390   1.329   3.776   0.738 -0.1909  0.1493 -0.3295
 3655SOL     OW14391   1.185   1.482   0.801  0.1756 -0.1122  0.8800
 3655SOL    HW214392   1.101   1.495   0.844 -0.8478  0.8850 -1.2951
 3655SOL    HW314393   1.225   1.409   0.848 -0.9359  0.7479  3.3401
 3655SOL    MW414394   1.180   1.474   0.813  0.1127  0.4841  0.1457
 3656SOL     OW14395   3.834   6.027   0.343  0.5174 -0.3248  0.3564
 3656SOL    HW214396   3.833   5.967   0.268 -3.3093 -0.2784  0.1883
 3656SOL    HW314397   3.828   6.114   0.303 -1.8987 -0.3127  0.5718
 3656SOL    MW414398   3.833   6.031   0.328  0.0635 -0.2823 -0.1306
 3657SOL     OW14399   0.466   0.368   2.195 -0.5339 -0.2302 -0.0617
 3657SOL    HW214400   0.428   0.435   2.138  2.0390 -1.1912 -3.1831
 3657SOL    HW314401   0.432   0.286   2.161  1.3172 -0.8569 -0.4714
 3657SOL    MW414402   0.456   0.366   2.183  0.4298  0.0768 -0.4632
 3658SOL     OW14403   0.042   1.987   6.293  0.0470  0.6593 -0.1881
 3658SOL    HW214404   0.002   1.975   6.379  1.4523  0.1991  0.4313
 3658SOL    HW314405   0.055   2.082   6.285  4.7512  0.5875  2.5509
 3658SOL    MW414406   0.039   1.998   6.303 -0.1145  0.2509 -0.2265
 3659SOL     OW14407   5.661   6.340   3.216 -0.7414  0.0330 -0.8182
 3659SOL    HW214408   5.580   6.384   3.191 -1.5543 -1.0884 -0.2703
 3659SOL    HW314409   5.731   6.392   3.176 -1.4458  3.1613  1.6403
 3659SOL    MW414410   5.660   6.353   3.207  0.1543  0.2780  0.4467
 3660SOL     OW14411   0.331   5.153   0.194 -0.3788  0.2247  0.0486
 3660SOL    HW214412   0.342   5.135   0.101  1.5960  0.9370  0.1012
 3660SOL    HW314413   0.265   5.223   0.197 -0.2375  0.4069 -0.8297
 3660SOL    MW414414   0.324   5.160   0.182  0.2674 -0.6547 -0.4325
 3661SOL     OW14415   1.316   1.317   1.649 -0.3169  0.2852 -0.3861
 3661SOL    HW214416   1.312   1.245   1.711  1.3413 -0.3843 -1.0269
 3661SOL    HW314417   1.253   1.294   1.581 -0.3340 -0.1818 -0.2116
 3661SOL    MW414418   1.307   1.305   1.648 -0.0765  0.6149  0.5495
 3662SOL     OW14419   1.721   6.416   4.498  0.0853  0.7981  0.6694
 3662SOL    HW214420   1.801   6.406   4.446 -1.6235 -1.1318 -1.8662
 3662SOL    HW314421   1.705   6.328   4.534  0.0226  1.5906  2.7281
 3662SOL    MW414422   1.729   6.403   4.496 -0.2914  0.0266  0.0447
 3663SOL     OW14423   5.583   3.469   5.270  0.4836 -0.1498 -0.2791
 3663SOL    HW214424   5.544   3.518   5.198 -0.8709 -1.1297 -0.2606
 3663SOL    HW314425   5.659   3.521   5.297  1.1281  0.1653 -2.4877
 3663SOL    MW414426   5.588   3.482   5.264  0.1727 -0.0311 -0.3141
 3664SOL     OW14427   0.567   0.571   4.616  0.7413  0.8492 -0.2675
 3664SOL    HW214428   0.521   0.528   4.544  0.5230 -1.4558  1.1746
 3664SOL    HW314429   0.660   0.568   4.591  0.7574 -0.7407 -0.0926
 3664SOL    MW414430   0.573   0.565   4.603 -0.5337 -0.1876 -0.4977
 3665SOL     OW14431   4.150   1.873   6.349  0.1212  0.1186 -0.5536
 3665SOL    HW214432   4.095   1.826   6.287  0.8938 -1.0264 -0.4077
 3665SOL    HW314433   4.090   1.905   6.416 -0.8173  1.8696 -2.1243
 3665SOL    MW414434   4.135   1.871   6.350 -0.7116  0.1256  0.0035
 3666SOL     OW14435   4.515   5.373   4.451  0.4719  0.0866 -0.2248
 3666SOL    HW214436   4.457   5.302   4.478  1.6789 -0.3342  1.4280
 3666SOL    HW314437   4.464   5.453   4.470  0.5960 -0.2512  1.8410
 3666SOL    MW414438   4.500   5.374   4.457  0.0357 -0.0897 -0.0005
 3667SOL     OW14439   5.105   3.550   5.262  1.1213  0.2523  0.6472
 3667SOL    HW214440   5.109   3.548   5.166 -1.6021 -0.6294  0.4595
 3667SOL    HW314441   5.013   3.534   5.282  1.1706  2.6473  3.3900
 3667SOL    MW414442   5.093   3.547   5.252  0.2314 -0.0960  0.2412
 3668SOL     OW14443   1.913   0.644   3.025 -0.3673 -0.0909  0.2338
 3668SOL    HW214444   1.981   0.596   2.977  0.1699 -0.0416  0.9275
 3668SOL    HW314445   1.838   0.644   2.966 -0.2433 -1.4162  0.0310
 3668SOL    MW414446   1.912   0.637   3.011 -0.2048  0.1674  0.5098
 3669SOL     OW14447   1.357   3.735   3.405 -0.1579 -0.0302  0.2216
 3669SOL    HW214448   1.408   3.793   3.348 -0.7654  0.4819  0.1885
 3669SOL    HW314449   1.297   3.690   3.345 -0.6616  0.3605  0.4287
 3669SOL    MW414450   1.356   3.737   3.389 -0.4687  0.2583 -0.2993
 3670SOL     OW14451   3.272   1.964   4.637  0.0263  0.5186  0.2069
 3670SOL    HW214452   3.299   2.041   4.687  0.5748  0.3855  0.1212
 3670SOL    HW314453   3.211   1.998   4.572 -0.6208  0.7084  0.9017
 3670SOL    MW414454   3.267   1.979   4.635 -0.7513 -0.1976  0.2972
 3671SOL     OW14455   0.353   3.018   3.318  0.7221 -0.5718 -0.5847
 3671SOL    HW214456   0.405   2.959   3.374 -1.4338 -2.1357 -0.0837
 3671SOL    HW314457   0.379   2.994   3.229  1.1821 -1.0245 -0.3389
 3671SOL    MW414458   0.363   3.007   3.314 -0.1112 -0.0365 -0.0853
 3672SOL     OW14459   6.130   6.120   5.417 -0.3346 -0.2939  0.3830
 3672SOL    HW214460   6.064   6.184   5.390 -0.6765 -0.9541 -0.3756
 3672SOL    HW314461   6.181   6.104   5.338 -0.4740 -1.2125  0.4743
 3672SOL    MW414462   6.128   6.127   5.403 -0.7940  0.6145 -0.3195
 3673SOL     OW14463   6.280   3.631   4.953  0.2194  0.2657  0.3434
 3673SOL    HW214464   6.188   3.638   4.926  0.4699  0.1973 -0.5588
 3673SOL    HW314465   6.282   3.554   5.009  0.0025 -0.7299 -0.9522
 3673SOL    MW414466   6.268   3.622   4.956 -0.4349  0.1275 -0.3408
 3674SOL     OW14467   0.936   4.764   3.193 -0.3153  0.1311  0.1913
 3674SOL    HW214468   0.956   4.858   3.196  2.3054 -0.2820 -1.3543
 3674SOL    HW314469   0.876   4.755   3.118 -0.8286  0.5688  0.5360
 3674SOL    MW414470   0.931   4.775   3.183 -0.2762  0.2842  0.2221
 3675SOL     OW14471   1.100   1.586   0.154 -0.1571 -0.1864 -0.0655
 3675SOL    HW214472   1.153   1.556   0.080  0.5817 -0.8006  0.6994
 3675SOL    HW314473   1.112   1.519   0.221 -1.9384 -0.3562  0.1312
 3675SOL    MW414474   1.109   1.573   0.153 -0.3935  0.8205 -0.6031
 3676SOL     OW14475   5.183   1.754   2.348 -0.1024  0.0854 -0.1160
 3676SOL    HW214476   5.182   1.810   2.426 -0.7986 -1.0587  0.7326
 3676SOL    HW314477   5.225   1.808   2.281 -0.3775  1.4713  0.7638
 3676SOL    MW414478   5.188   1.769   2.349 -0.7450 -0.2650 -0.3790
 3677SOL     OW14479   3.797   4.521   0.664 -0.4116 -0.6610 -0.1408
 3677SOL    HW214480   3.877   4.572   0.675 -0.3042 -0.6963 -0.7344
 3677SOL    HW314481   3.760   4.550   0.581 -1.1392 -0.4831  0.2351
 3677SOL    MW414482   3.802   4.531   0.655 -0.0576  0.2772  0.4577
 3678SOL     OW14483   4.749   0.397   5.575  0.3962  0.1282 -0.2599
 3678SOL    HW214484   4.689   0.450   5.628  0.2767 -0.8800  0.6408
 3678SOL    HW314485   4.713   0.309   5.580  2.6083 -0.7608  1.3398
 3678SOL    MW414486   4.736   0.393   5.582  0.2938  0.3630  0.6655
 3679SOL     OW14487   5.700   2.744   4.530  0.9360 -0.2270 -0.2167
 3679SOL    HW214488   5.771   2.720   4.471  1.8423 -1.3741  1.2565
 3679SOL    HW314489   5.634   2.676   4.517  0.8438 -0.1076 -0.3763
 3679SOL    MW414490   5.701   2.732   4.521  0.2495 -0.5882  0.3005
 3680SOL     OW14491   5.944   1.627   0.596  0.7027 -0.8145  0.4805
 3680SOL    HW214492   5.916   1.672   0.517  0.1521 -0.0117  1.1188
 3680SOL    HW314493   6.039   1.638   0.598  0.5191  0.8891  0.9486
 3680SOL    MW414494   5.953   1.634   0.586 -0.8658 -0.1007  0.3976
 3681SOL     OW14495   5.660   6.376   4.085 -0.7380  0.0117 -0.3311
 3681SOL    HW214496   5.650   6.286   4.118 -1.1724  0.5047  0.9273
 3681SOL    HW314497   5.594   6.383   4.016  0.0942 -0.9977 -1.2666
 3681SOL    MW414498   5.650   6.365   4.081  0.2185 -0.1680 -0.1039
 3682SOL     OW14499   3.978   3.296   5.104 -0.4584  0.6346 -0.4132
 3682SOL    HW214500   3.905   3.358   5.105 -0.1381  1.0140 -0.1103
 3682SOL    HW314501   4.016   3.305   5.017 -0.5075  0.7630 -0.4216
 3682SOL    MW414502   3.974   3.305   5.093  0.3381 -0.0031  0.4740
 3683SOL     OW14503   1.681   6.395   3.859 -0.3240  0.2665 -0.4560
 3683SOL    HW214504   1.658   6.303   3.866 -0.3824  0.3236  0.2515
 3683SOL    HW314505   1.598   6.442   3.867 -0.1179  0.4361  1.1280
 3683SOL    MW414506   1.667   6.389   3.861  0.4421  0.1733 -0.8489
 3684SOL     OW14507   1.341   0.516   1.271 -0.2678  0.0135 -0.5004
 3684SOL    HW214508   1.409   0.542   1.334  0.3084 -0.4204 -0.9334
 3684SOL    HW314509   1.259   0.537   1.315  0.0276 -2.3646  1.4040
 3684SOL    MW414510   1.339   0.522   1.285  0.1196 -0.0561 -0.6127
 3685SOL     OW14511   5.123   2.197   2.818  0.1413 -0.5852  0.1515
 3685SOL    HW214512   5.047   2.254   2.814 -0.3804 -1.1469  1.5622
 3685SOL    HW314513   5.197   2.256   2.829 -0.2383 -0.1164  0.2163
 3685SOL    MW414514   5.123   2.212   2.819 -0.4041 -0.2369  0.4759
 3686SOL     OW14515   5.947   0.274   4.404  0.5311  0.4334  0.3359
 3686SOL    HW214516   5.936   0.260   4.310  3.3410 -0.0968 -0.0052
 3686SOL    HW314517   5.953   0.369   4.414  0.7328  0.4711 -0.1051
 3686SOL    MW414518   5.947   0.285   4.393  0.0112 -0.3375 -0.3359
 3687SOL     OW14519   6.414   4.778   5.873 -0.2279  0.2760 -0.4568
 3687SOL    HW214520   6.467   4.707   5.911 -0.0069 -0.2948 -1.7416
 3687SOL    HW314521   6.380   4.826   5.948  2.0233  0.6029  0.4522
 3687SOL    MW414522   6.417   4.775   5.888  0.5954 -0.4224  1.0474
 3688SOL     OW14523   2.406   2.165   1.367  0.8572  0.2337  0.1888
 3688SOL    HW214524   2.464   2.179   1.292  0.5088 -2.2593 -0.6476
 3688SOL    HW314525   2.450   2.098   1.420  0.4250  0.9331  1.4872
 3688SOL    MW414526   2.419   2.158   1.364 -0.7159 -0.2152 -0.6011
 3689SOL     OW14527   2.402   0.058   6.325  0.3312  0.6548 -0.1678
 3689SOL    HW214528   2.462   0.121   6.284 -1.6653  2.1681 -0.9264
 3689SOL    HW314529   2.385   0.094   6.412  1.0848 -0.1791  0.3384
 3689SOL    MW414530   2.408   0.071   6.331 -0.0703  0.4412 -0.0477
 3690SOL     OW14531   3.399   0.422   4.535 -0.6041  0.3176  0.2425
 3690SOL    HW214532   3.400   0.469   4.619 -0.0135 -0.4999  0.7034
 3690SOL    HW314533   3.379   0.331   4.559 -0.3162  0.0562 -0.4890
 3690SOL    MW414534   3.396   0.416   4.549 -0.8670  0.3475 -0.4842
 3691SOL     OW14535   5.146   5.556   0.370 -1.0748  0.4877  0.3508
 3691SOL    HW214536   5.199   5.617   0.319  1.6361 -0.7976  1.4499
 3691SOL    HW314537   5.203   5.528   0.441 -2.3606 -2.9080  0.2137
 3691SOL    MW414538   5.161   5.560   0.373 -0.4130 -0.2447 -0.0398
 3692SOL     OW14539   1.635   4.675   4.852 -0.6846 -0.0167 -0.8077
 3692SOL    HW214540   1.671   4.708   4.769 -0.8806  0.3657 -0.7450
 3692SOL    HW314541   1.628   4.753   4.907  0.8731 -0.4874  0.1130
 3692SOL    MW414542   1.639   4.690   4.848  0.2477  0.2177 -0.1511
 3693SOL     OW14543   4.216   4.901   5.902  0.5911  0.2877  0.1875
 3693SOL    HW214544   4.196   4.944   5.819  1.3605 -1.2562 -0.8590
 3693SOL    HW314545   4.152   4.935   5.964 -0.5918  0.7909 -1.2736
 3693SOL    MW414546   4.205   4.911   5.899  0.2443 -0.2810 -0.2662
 3694SOL     OW14547   0.929   1.763   1.360 -0.4037 -0.2152  0.4440
 3694SOL    HW214548   0.885   1.680   1.376 -0.3649 -0.3847 -0.2908
 3694SOL    HW314549   0.930   1.772   1.264  0.0142  0.4012  0.4978
 3694SOL    MW414550   0.923   1.754   1.349 -0.2573  0.1850  0.4302
 3695SOL     OW14551   2.808   1.358   2.413 -0.1636 -0.0892  0.5098
 3695SOL    HW214552   2.767   1.296   2.352  0.9096  1.4904 -1.9374
 3695SOL    HW314553   2.902   1.343   2.403  0.0549 -0.2553  2.3676
 3695SOL    MW414554   2.815   1.348   2.404  0.1567  0.2242 -0.5590
 3696SOL     OW14555   2.910   2.093   4.777  0.1435 -0.0250  0.9858
 3696SOL    HW214556   2.947   2.073   4.690 -1.1460 -0.0669  0.4247
 3696SOL    HW314557   2.890   2.187   4.773 -0.8180 -0.2278  0.8765
 3696SOL    MW414558   2.912   2.103   4.765  0.3851 -0.2846 -0.8176
 3697SOL     OW14559   0.793   0.358   5.946  0.3670 -0.3916  0.3108
 3697SOL    HW214560   0.730   0.421   5.911  1.7777  1.4198  0.8942
 3697SOL    HW314561   0.739   0.283   5.971 -1.5477  1.0010  0.6358
 3697SOL    MW414562   0.778   0.356   5.944  0.2363  0.3088 -0.0605
 3698SOL     OW14563   5.654   2.197   3.037  0.5560  0.1397 -0.1957
 3698SOL    HW214564   5.619   2.254   3.104 -2.1623  0.1742 -1.5293
 3698SOL    HW314565   5.615   2.111   3.055  1.0850 -0.2333 -0.7866
 3698SOL    MW414566   5.645   2.193   3.048 -0.4597 -0.5996 -0.5898
 3699SOL     OW14567   2.286   0.592   5.318 -0.1992 -0.2170 -0.7633
 3699SOL    HW214568   2.333   0.532   5.260  1.6082  0.6134 -0.2363
 3699SOL    HW314569   2.196   0.558   5.320  0.4115 -2.0241 -1.6174
 3699SOL    MW414570   2.280   0.580   5.311  0.7119 -0.3633 -0.0754
 3700SOL     OW14571   3.740   2.679   2.246  0.0817 -0.8742 -0.3531
 3700SOL    HW214572   3.666   2.666   2.305 -0.4259 -0.9716 -1.0053
 3700SOL    HW314573   3.726   2.617   2.175 -0.6197  0.8706 -1.8150
 3700SOL    MW414574   3.729   2.669   2.244 -0.0948 -0.0664  0.3672
 3701SOL     OW14575   2.846   5.392   5.401 -0.2553 -0.1862  0.4485
 3701SOL    HW214576   2.913   5.382   5.334  0.7000 -0.3409  1.4141
 3701SOL    HW314577   2.792   5.313   5.393 -0.2518 -0.1327 -0.2208
 3701SOL    MW414578   2.847   5.381   5.391  0.2164 -0.2341  0.0573
 3702SOL     OW14579   4.327   0.263   0.964 -0.0261 -0.2245 -0.2806
 3702SOL    HW214580   4.374   0.303   1.037 -1.2407 -0.4784  0.6724
 3702SOL    HW314581   4.353   0.315   0.887 -0.0961  1.1870  0.6113
 3702SOL    MW414582   4.337   0.275   0.963 -0.0909  0.3859  0.3632
 3703SOL     OW14583   1.375   5.096   1.136 -0.1319  0.5687 -0.0900
 3703SOL    HW214584   1.385   5.015   1.085  0.6340  0.0928  0.7833
 3703SOL    HW314585   1.465   5.120   1.159 -0.4381  1.0169  0.6534
 3703SOL    MW414586   1.388   5.088   1.132 -0.2102 -0.6403 -0.0057
 3704SOL     OW14587   4.288   1.001   6.104  0.8858 -0.0950  0.1972
 3704SOL    HW214588   4.259   0.933   6.164  0.4264 -1.0338 -1.0277
 3704SOL    HW314589   4.373   1.030   6.138  1.0362 -1.2072  0.7944
 3704SOL    MW414590   4.296   0.996   6.116  0.4529  0.2177 -0.0934
 3705SOL     OW14591   2.734   6.371   3.021 -0.0775 -0.4069  0.1861
 3705SOL    HW214592   2.806   6.407   3.074  0.9331 -2.1579  0.0574
 3705SOL    HW314593   2.683   6.318   3.083  0.2804 -1.2965 -0.2677
 3705SOL    MW414594   2.737   6.369   3.037 -0.0497  0.1592 -0.0490
 3706SOL     OW14595   6.388   3.549   1.696  0.3964 -0.0745  0.1599
 3706SOL    HW214596   6.352   3.629   1.657  0.9207  0.6024  1.0344
 3706SOL    HW314597   6.329   3.480   1.667  0.4868  0.4605 -1.4543
 3706SOL    MW414598   6.375   3.551   1.687 -0.4413  0.0575  0.6236
 3707SOL     OW14599   3.236   5.486   1.219  0.0625  0.3496 -0.2045
 3707SOL    HW214600   3.145   5.503   1.195 -0.1437 -0.0835  0.2321
 3707SOL    HW314601   3.264   5.565   1.266 -0.4902  0.0104  0.7349
 3707SOL    MW414602   3.228   5.498   1.222  0.0688  0.2984 -0.2038
 3708SOL     OW14603   4.143   6.176   4.193 -0.4196 -0.2538  0.2086
 3708SOL    HW214604   4.170   6.257   4.150 -1.0073  0.3494  0.9385
 3708SOL    HW314605   4.207   6.164   4.263 -0.3160 -0.4291  0.0816
 3708SOL    MW414606   4.155   6.185   4.196 -0.0182 -0.0551 -0.5038
 3709SOL     OW14607   1.025   2.569   5.067 -0.5611  0.5903  0.1831
 3709SOL    HW214608   1.034   2.497   5.129 -0.6516  0.8789  0.5323
 3709SOL    HW314609   1.029   2.527   4.981 -1.1680  0.1056  0.3904
 3709SOL    MW414610   1.027   2.554   5.064  0.2329 -0.4956 -0.1843
 3710SOL     OW14611   3.144   3.916   1.214  0.2606 -0.0194  0.3559
 3710SOL    HW214612   3.089   3.974   1.161  0.2652  0.4074  0.8139
 3710SOL    HW314613   3.170   3.847   1.154  0.2185  0.4274 -0.1877
 3710SOL    MW414614   3.140   3.915   1.199  0.4455 -0.3821  0.0808
 3711SOL     OW14615   1.304   1.700   1.580 -0.3284  0.7403 -0.3277
 3711SOL    HW214616   1.353   1.683   1.499 -0.9071  0.3266 -0.5956
 3711SOL    HW314617   1.237   1.763   1.555 -0.0420  1.1878  0.0058
 3711SOL    MW414618   1.302   1.706   1.566 -0.4326 -0.2199  0.0001
 3712SOL     OW14619   5.250   6.114   2.864  0.4945  0.1473 -0.1074
 3712SOL    HW214620   5.288   6.095   2.949 -2.0842 -0.6136  0.9441
 3712SOL    HW314621   5.190   6.042   2.847  0.0069  0.9290 -2.0036
 3712SOL    MW414622   5.247   6.102   2.873 -0.7657  0.1177  0.6633
 3713SOL     OW14623   3.414   2.125   3.569  0.3895 -0.2946  0.0434
 3713SOL    HW214624   3.365   2.192   3.521 -0.4506  0.7481  2.2487
 3713SOL    HW314625   3.349   2.060   3.595  0.6244 -0.2456  0.7726
 3713SOL    MW414626   3.399   2.125   3.566 -0.7100  0.2600 -0.5822
 3714SOL     OW14627   0.461   4.725   0.920 -0.1665 -0.2748  0.1214
 3714SOL    HW214628   0.523   4.788   0.883 -1.2663  1.3513  0.9293
 3714SOL    HW314629   0.376   4.748   0.881 -0.9232 -0.0016  1.8400
 3714SOL    MW414630   0.458   4.737   0.910 -0.0518 -0.0721 -0.5687
 3715SOL     OW14631   4.406   3.057   3.608  0.7500  0.3829  0.1661
 3715SOL    HW214632   4.322   3.051   3.653  0.8680  0.1403  0.3578
 3715SOL    HW314633   4.394   3.126   3.543 -0.3314 -1.1672 -1.3628
 3715SOL    MW414634   4.394   3.065   3.605 -0.2976 -0.1646  0.1121
 3716SOL     OW14635   4.491   0.182   5.237 -0.1360 -0.2951  0.3072
 3716SOL    HW214636   4.398   0.181   5.214 -0.0254  0.1129 -0.1642
 3716SOL    HW314637   4.499   0.117   5.306 -0.8070 -0.2087  0.4747
 3716SOL    MW414638   4.480   0.174   5.243 -0.4878  0.5799  0.0027
 3717SOL     OW14639   5.678   3.184   1.908  0.6085 -0.5166 -0.4240
 3717SOL    HW214640   5.670   3.256   1.845  1.0769  0.5753  0.7097
 3717SOL    HW314641   5.756   3.136   1.879  2.8962  1.9373  1.0927
 3717SOL    MW414642   5.687   3.187   1.896 -0.4769 -0.0926 -0.0093
 3718SOL     OW14643   3.082   3.194   5.806  0.5832 -0.0552 -0.6312
 3718SOL    HW214644   3.024   3.261   5.843  0.2973 -0.6897  0.0768
 3718SOL    HW314645   3.069   3.202   5.711  0.8758  1.1770 -0.5883
 3718SOL    MW414646   3.073   3.204   5.798 -0.7838  0.4571 -0.2131
 3719SOL     OW14647   2.817   5.297   6.166 -0.2963 -0.5348  0.0166
 3719SOL    HW214648   2.806   5.357   6.239  0.5686 -0.7541  0.3390
 3719SOL    HW314649   2.883   5.234   6.196  0.0436 -0.6505 -0.9298
 3719SOL    MW414650   2.824   5.296   6.179  0.7161  0.1122 -0.4248
 3720SOL     OW14651   4.168   3.051   3.782 -1.1042 -0.2929  0.2139
 3720SOL    HW214652   4.163   3.086   3.871  0.5041  0.9345 -0.1247
 3720SOL    HW314653   4.107   3.106   3.732 -0.6269  0.2387  0.2110
 3720SOL    MW414654   4.159   3.063   3.787 -0.1458 -0.0647 -0.2039
 3721SOL     OW14655   5.322   5.457   6.385  0.2514  0.1637 -0.9200
 3721SOL    HW214656   5.391   5.499   6.437  0.7309 -0.9165 -0.6451
 3721SOL    HW314657   5.248   5.450   6.445  0.4297 -0.0752 -0.7253
 3721SOL    MW414658   5.321   5.462   6.400 -0.3002  0.3761 -0.2473
 3722SOL     OW14659   0.338   6.036   3.612 -0.0110  0.3503 -0.2633
 3722SOL    HW214660   0.269   5.972   3.629  0.9612 -0.5941  0.2459
 3722SOL    HW314661   0.401   5.989   3.556 -0.0771  1.4008 -1.2646
 3722SOL    MW414662   0.337   6.021   3.607  0.3961 -0.2753  0.6416
 3723SOL     OW14663   2.549   0.746   1.891  0.1202 -0.0954  0.0462
 3723SOL    HW214664   2.523   0.666   1.846 -1.5712  0.5199 -0.1339
 3723SOL    HW314665   2.495   0.748   1.970 -0.1717  1.0748 -0.1649
 3723SOL    MW414666   2.539   0.736   1.896  0.0201  0.1282  0.2047
 3724SOL     OW14667   2.493   3.246   1.448 -0.5354  0.2504 -0.5276
 3724SOL    HW214668   2.476   3.159   1.486  0.3689  0.4621  0.4293
 3724SOL    HW314669   2.415   3.297   1.470  0.0683  0.4458  1.3832
 3724SOL    MW414670   2.480   3.241   1.456 -0.1270 -0.7419  0.0906
 3725SOL     OW14671   4.613   4.321   0.428  0.3980  0.1728  1.0254
 3725SOL    HW214672   4.691   4.339   0.375  0.6992 -1.1506  0.9822
 3725SOL    HW314673   4.540   4.355   0.377  0.8305  0.2217  0.4301
 3725SOL    MW414674   4.614   4.327   0.414  0.3065  0.1171 -0.0995
 3726SOL     OW14675   2.778   0.739   5.818 -0.0550 -0.2971 -0.2299
 3726SOL    HW214676   2.797   0.831   5.803  0.2514 -0.6686 -2.4187
 3726SOL    HW314677   2.737   0.737   5.905 -0.6308  1.9557 -0.3911
 3726SOL    MW414678   2.775   0.751   5.828  0.1565 -0.2010 -0.6389
 3727SOL     OW14679   1.380   3.528   4.727 -0.0692 -0.1817  0.1520
 3727SOL    HW214680   1.419   3.598   4.674  2.1013 -0.4338  1.3399
 3727SOL    HW314681   1.285   3.545   4.722  0.3733  2.9247  0.5110
 3727SOL    MW414682   1.372   3.539   4.719  0.0421  0.6322  0.0809
 3728SOL     OW14683   4.904   1.402   3.144  0.0314 -0.1201  0.5530
 3728SOL    HW214684   4.869   1.491   3.152  0.1276 -0.0843  0.5824
 3728SOL    HW314685   4.830   1.349   3.115  0.1088  0.0775 -0.0281
 3728SOL    MW414686   4.890   1.407   3.141  0.0246  0.0984 -0.5506
 3729SOL     OW14687   3.108   1.066   3.073 -0.1424  0.3255 -0.6004
 3729SOL    HW214688   3.102   1.012   3.152  0.0797  0.9568 -0.1387
 3729SOL    HW314689   3.022   1.106   3.064 -0.1228  0.3702 -0.5906
 3729SOL    MW414690   3.096   1.064   3.082  0.5034  0.0890  0.0527
 3730SOL     OW14691   0.892   2.447   1.068  0.2735  0.6600  0.0019
 3730SOL    HW214692   0.840   2.440   0.988  1.6062  0.2455 -0.8565
 3730SOL    HW314693   0.926   2.537   1.067  0.7209  0.4886 -0.1698
 3730SOL    MW414694   0.889   2.458   1.058 -0.1105 -0.2715  1.1132
 3731SOL     OW14695   6.040   0.131   1.764  0.2181 -0.2811  0.8477
 3731SOL    HW214696   6.072   0.178   1.687 -0.2005 -0.4248  0.5827
 3731SOL    HW314697   6.002   0.050   1.729 -0.3114 -0.1787  1.1684
 3731SOL    MW414698   6.039   0.126   1.749  0.4569 -0.4180 -0.0976
 3732SOL     OW14699   2.890   2.226   5.872 -0.0409 -0.0644 -0.2597
 3732SOL    HW214700   2.952   2.227   5.945 -0.0241 -0.3885 -0.2713
 3732SOL    HW314701   2.863   2.135   5.864 -1.7886  0.3095  0.8170
 3732SOL    MW414702   2.895   2.214   5.881  0.9625 -0.1679 -0.3836
 3733SOL     OW14703   4.657   2.739   2.070 -0.4292 -0.6515  0.1250
 3733SOL    HW214704   4.725   2.796   2.032 -2.0279  0.3990 -1.2891
 3733SOL    HW314705   4.651   2.767   2.161 -2.4903  2.9739 -0.9300
 3733SOL    MW414706   4.665   2.750   2.077  0.2809  0.6113 -0.3399
 3734SOL     OW14707   5.186   3.641   0.890  0.0001  0.3127 -0.0247
 3734SOL    HW214708   5.264   3.695   0.903 -0.1970  0.8397 -0.8698
 3734SOL    HW314709   5.120   3.703   0.856 -0.6991 -0.1725  0.4288
 3734SOL    MW414710   5.188   3.656   0.887 -0.3786 -0.0165  0.2075
 3735SOL     OW14711   3.577   0.247   5.090  0.3169  0.0501 -0.2702
 3735SOL    HW214712   3.665   0.210   5.095 -0.2903 -1.4941 -0.4304
 3735SOL    HW314713   3.536   0.203   5.015 -1.1421 -0.5336  0.8204
 3735SOL    MW414714   3.583   0.236   5.081  0.4475 -0.3129  0.3267
 3736SOL     OW14715   3.072   0.114   0.824  0.1573 -0.5795 -0.1446
 3736SOL    HW214716   2.987   0.158   0.822  0.0030 -0.7506  1.4074
 3736SOL    HW314717   3.058   0.036   0.878  2.0292  1.1198  3.0757
 3736SOL    MW414718   3.059   0.109   0.831  0.0766 -0.2337  1.0020
 3737SOL     OW14719   1.739   1.449   1.878  0.6468 -0.2339 -0.1474
 3737SOL    HW214720   1.677   1.437   1.805 -3.7474  0.6033  3.0527
 3737SOL    HW314721   1.755   1.360   1.910  1.9566 -0.5337 -1.4990
 3737SOL    MW414722   1.733   1.436   1.872 -0.1703 -0.4379  0.4438
 3738SOL     OW14723   5.853   1.441   3.778 -0.5202 -0.3046 -0.3081
 3738SOL    HW214724   5.837   1.355   3.818 -2.8364 -0.6114 -1.7122
 3738SOL    HW314725   5.840   1.426   3.684 -0.4247  1.4788 -0.6236
 3738SOL    MW414726   5.849   1.427   3.771  0.0108 -0.2189 -0.6094
 3739SOL     OW14727   5.016   3.467   3.799  0.0206 -0.1031  0.2936
 3739SOL    HW214728   4.942   3.427   3.845 -0.8549 -1.6254 -2.2525
 3739SOL    HW314729   5.076   3.394   3.784  1.2277  0.7661  0.7123
 3739SOL    MW414730   5.014   3.452   3.803  0.2682 -1.0155 -0.0081
 3740SOL     OW14731   3.813   4.653   4.378  0.3843  0.6024 -0.1256
 3740SOL    HW214732   3.726   4.678   4.348 -0.1339 -1.0795 -0.1084
 3740SOL    HW314733   3.860   4.626   4.299  1.4854  2.9688 -0.3847
 3740SOL    MW414734   3.808   4.653   4.364 -0.7023 -0.8430  0.6020
 3741SOL     OW14735   2.319   2.998   3.717 -0.3507 -0.2826  0.0900
 3741SOL    HW214736   2.295   2.969   3.805 -0.0774  0.7539  0.5269
 3741SOL    HW314737   2.257   3.068   3.697 -0.2715 -0.3639 -0.4627
 3741SOL    MW414738   2.308   3.003   3.726 -0.0899 -0.3737 -0.1187
 3742SOL     OW14739   5.385   1.579   2.465 -0.1040  0.3047 -0.2485
 3742SOL    HW214740   5.451   1.588   2.396 -0.6474  1.3785 -0.6621
 3742SOL    HW314741   5.309   1.627   2.431  0.4334  3.1434  2.1370
 3742SOL    MW414742   5.384   1.587   2.451  0.3267  0.3384  0.0177
 3743SOL     OW14743   2.458   1.915   1.526 -0.1684  0.0955 -0.0736
 3743SOL    HW214744   2.377   1.944   1.567  0.6020  2.2101  0.1204
 3743SOL    HW314745   2.525   1.927   1.595  0.4372 -0.9240 -0.4512
 3743SOL    MW414746   2.456   1.920   1.541  0.2807  0.0103  0.6762
 3744SOL     OW14747   1.546   5.693   6.279  0.3096  0.4391  0.6303
 3744SOL    HW214748   1.493   5.768   6.251 -0.1742  0.3582  1.2982
 3744SOL    HW314749   1.629   5.732   6.307  0.9402  0.4895 -1.1768
 3744SOL    MW414750   1.550   5.708   6.279  0.6501  0.0452  0.1249
 3745SOL     OW14751   4.955   1.320   2.036  0.0496 -0.6034  0.4437
 3745SOL    HW214752   5.031   1.264   2.050 -1.2891 -2.3819  1.0369
 3745SOL    HW314753   4.972   1.398   2.090  2.0430 -0.2864 -0.5648
 3745SOL    MW414754   4.967   1.323   2.045 -0.8299 -0.4341  0.0573
 3746SOL     OW14755   2.649   1.421   3.052  0.2673  0.3075  0.4786
 3746SOL    HW214756   2.696   1.338   3.043  0.1855  0.4758 -1.9072
 3746SOL    HW314757   2.718   1.486   3.062  0.4687  0.2598 -0.4982
 3746SOL    MW414758   2.664   1.418   3.052  0.1377  0.6027  0.1767
 3747SOL     OW14759   3.992   1.743   6.144 -0.2049 -0.3278 -0.4015
 3747SOL    HW214760   4.044   1.663   6.136  0.9363  0.2014  1.3696
 3747SOL    HW314761   4.006   1.789   6.061  2.1669 -0.2226 -0.0122
 3747SOL    MW414762   4.000   1.738   6.132  0.1286  0.5170 -0.5840
 3748SOL     OW14763   0.358   0.444   4.947  0.3668  0.5684 -0.3467
 3748SOL    HW214764   0.437   0.472   4.992  0.9458 -0.2805 -0.8117
 3748SOL    HW314765   0.363   0.348   4.947 -0.9762  0.4758  0.1746
 3748SOL    MW414766   0.369   0.435   4.953 -0.0683 -0.1179 -0.0714
 3749SOL     OW14767   3.914   0.694   4.691  0.7603  0.0847 -0.4924
 3749SOL    HW214768   3.985   0.666   4.749  1.1714 -0.2176 -1.1423
 3749SOL    HW314769   3.951   0.763   4.637  0.3134  0.5148 -0.2640
 3749SOL    MW414770   3.928   0.699   4.692  0.1489  0.0971 -0.4949
 3750SOL     OW14771   4.336   2.032   2.343  0.2046 -0.3673  0.3785
 3750SOL    HW214772   4.341   1.937   2.353  0.3333 -0.6445 -1.7870
 3750SOL    HW314773   4.418   2.056   2.299  0.8514  0.9859  2.1977
 3750SOL    MW414774   4.347   2.023   2.338 -0.3637 -0.1508 -0.0415
 3751SOL     OW14775   3.749   1.379   0.498  0.0235 -0.2182 -0.6614
 3751SOL    HW214776   3.766   1.417   0.584  1.5262 -0.4588 -0.8407
 3751SOL    HW314777   3.779   1.289   0.505 -1.8635 -0.8986 -0.7930
 3751SOL    MW414778   3.755   1.373   0.510 -0.3983  0.0610  0.2204
 3752SOL     OW14779   1.622   6.418   0.622 -0.2567 -0.0715  0.1872
 3752SOL    HW214780   1.613   6.481   0.693  1.8050  1.4706 -0.8172
 3752SOL    HW314781   1.710   6.433   0.587 -0.2933 -2.4131 -1.1687
 3752SOL    MW414782   1.632   6.428   0.627 -0.1016  0.0218 -0.3006
 3753SOL     OW14783   2.445   5.662   5.559  0.2476 -0.2061  0.0053
 3753SOL    HW214784   2.513   5.603   5.591  1.1367  1.6955  1.9260
 3753SOL    HW314785   2.488   5.711   5.488  0.7559  0.6186  0.8575
 3753SOL    MW414786   2.460   5.661   5.554 -0.1328 -0.2911  0.2252
 3754SOL     OW14787   5.591   5.306   4.817  0.7591  0.2867 -0.0531
 3754SOL    HW214788   5.549   5.256   4.747 -0.4825  1.5225 -0.2198
 3754SOL    HW314789   5.535   5.294   4.893  2.7089 -2.0223  1.1765
 3754SOL    MW414790   5.578   5.298   4.818  0.0706 -0.2360  0.3472
 3755SOL     OW14791   6.289   2.037   2.844 -0.0086 -0.1336  0.6408
 3755SOL    HW214792   6.336   1.965   2.886 -0.1310 -1.3457 -1.1886
 3755SOL    HW314793   6.204   2.039   2.886 -0.7194 -2.3783 -0.5310
 3755SOL    MW414794   6.284   2.028   2.855  0.1032  0.3761  0.2477
 3756SOL     OW14795   1.792   3.831   5.876  0.5082 -0.4892 -0.2473
 3756SOL    HW214796   1.813   3.920   5.850 -2.9460  0.8994  1.1033
 3756SOL    HW314797   1.722   3.804   5.817 -0.1130 -1.3532  0.8428
 3756SOL    MW414798   1.785   3.839   5.865 -0.1075  0.0509 -0.2251
 3757SOL     OW14799   0.991   6.244   4.339  0.0272 -0.4667 -0.4082
 3757SOL    HW214800   1.066   6.230   4.397 -0.2803  0.4229  0.2255
 3757SOL    HW314801   1.028   6.243   4.251  0.4390 -2.2997 -0.2607
 3757SOL    MW414802   1.006   6.242   4.335  0.7668 -0.0862  0.3606
 3758SOL     OW14803   3.105   0.685   4.719 -0.1777  0.2497  0.4311
 3758SOL    HW214804   3.105   0.595   4.686  2.3865 -0.3211  1.6985
 3758SOL    HW314805   3.168   0.731   4.664  0.9665  0.3682  1.7776
 3758SOL    MW414806   3.113   0.679   4.708  0.5802 -0.0353  0.2693
 3759SOL     OW14807   1.685   0.211   5.254 -0.0277  0.2739 -0.4033
 3759SOL    HW214808   1.729   0.137   5.212 -0.0714  1.8446 -3.4968
 3759SOL    HW314809   1.599   0.177   5.279  0.6234 -1.1748 -0.0216
 3759SOL    MW414810   1.680   0.197   5.251  0.0537 -0.2248 -0.0669
 3760SOL     OW14811   4.408   4.571   5.571  0.6737 -0.8211  0.6837
 3760SOL    HW214812   4.414   4.476   5.583 -0.2471 -0.9414  0.2540
 3760SOL    HW314813   4.318   4.592   5.594  0.7487 -0.1133  0.3401
 3760SOL    MW414814   4.397   4.561   5.575 -0.3293  0.2802 -0.7378
 3761SOL     OW14815   3.909   2.312   1.163 -0.5917 -0.2914 -0.5762
 3761SOL    HW214816   4.002   2.329   1.155 -0.3260 -1.9367 -1.1886
 3761SOL    HW314817   3.875   2.388   1.211  1.2658 -0.3080  0.8602
 3761SOL    MW414818   3.917   2.325   1.168  0.2799  0.3772 -0.3136
 3762SOL     OW14819   2.614   6.221   1.844 -0.3198  0.3797 -0.3902
 3762SOL    HW214820   2.577   6.140   1.808 -0.0096  0.6833 -1.4212
 3762SOL    HW314821   2.622   6.279   1.769  0.1013  1.1351  0.2276
 3762SOL    MW414822   2.610   6.218   1.830 -0.1047  0.1310 -0.7513
 3763SOL     OW14823   4.085   5.438   3.896 -0.8433  0.0508  0.3231
 3763SOL    HW214824   4.046   5.525   3.895 -0.9064  0.0481 -2.0313
 3763SOL    HW314825   4.123   5.430   3.983 -1.9576  1.9061  1.0414
 3763SOL    MW414826   4.085   5.448   3.907 -0.0709  0.0844  0.3996
 3764SOL     OW14827   4.754   6.145   0.728  0.3477 -0.0525  0.1687
 3764SOL    HW214828   4.663   6.171   0.738  0.7027  1.7961 -0.9736
 3764SOL    HW314829   4.769   6.143   0.634  0.7283 -3.3905  0.1745
 3764SOL    MW414830   4.744   6.148   0.717  0.0515  0.1903  0.4517
 3765SOL     OW14831   1.764   3.905   1.681 -0.2679  0.3129  0.1659
 3765SOL    HW214832   1.796   3.925   1.593  0.3772  1.1733  0.5831
 3765SOL    HW314833   1.741   3.812   1.677 -1.3817  0.6145 -1.2365
 3765SOL    MW414834   1.765   3.895   1.669  0.4336  0.8687  0.2406
 3766SOL     OW14835   6.285   2.694   4.163  0.5373 -0.4649  0.1416
 3766SOL    HW214836   6.273   2.783   4.131  0.4227 -0.3489  0.4987
 3766SOL    HW314837   6.201   2.651   4.150  0.5016 -0.4291  0.2555
 3766SOL    MW414838   6.273   2.700   4.157 -0.2812 -0.2763  0.0807
 3767SOL     OW14839   3.219   3.711   2.284  0.1260  0.4005  0.0636
 3767SOL    HW214840   3.300   3.719   2.333  0.6948 -1.9292 -0.3882
 3767SOL    HW314841   3.157   3.672   2.346  0.5186 -1.4643 -0.6446
 3767SOL    MW414842   3.221   3.707   2.299 -0.2622 -0.0341  0.0897
 3768SOL     OW14843   2.387   4.451   4.260  0.3567  0.1558  0.3719
 3768SOL    HW214844   2.409   4.519   4.325 -0.2159  1.0599 -0.3595
 3768SOL    HW314845   2.320   4.398   4.303 -0.9118  1.4773  0.1058
 3768SOL    MW414846   2.381   4.453   4.274  0.3034 -0.1791  0.3284
 3769SOL     OW14847   2.171   1.926   0.262 -0.0595  0.3527  0.1789
 3769SOL    HW214848   2.129   2.011   0.265 -0.2197  0.3648 -1.3939
 3769SOL    HW314849   2.120   1.876   0.199 -0.8406 -1.4277  2.1092
 3769SOL    MW414850   2.159   1.930   0.254 -0.2244 -0.4402 -0.0994
 3770SOL     OW14851   4.439   3.651   2.037 -0.1675  0.2402 -0.5884
 3770SOL    HW214852   4.527   3.671   2.069 -0.3763 -1.4258  1.2496
 3770SOL    HW314853   4.434   3.555   2.036 -2.5175  0.2354  1.2624
 3770SOL    MW414854   4.450   3.641   2.041 -0.5030  0.1170 -0.0707
 3771SOL     OW14855   2.132   1.007   4.892 -0.2156  0.1422  0.0566
 3771SOL    HW214856   2.052   0.959   4.872 -0.1754 -1.4651  3.0999
 3771SOL    HW314857   2.203   0.949   4.863 -0.1373  0.5163 -0.5177
 3771SOL    MW414858   2.131   0.993   4.886  0.2925  0.4330  0.1532
 3772SOL     OW14859   3.420   4.944   3.093  0.3480  0.0166  0.0296
 3772SOL    HW214860   3.491   5.004   3.117  0.6393 -0.4570  0.3690
 3772SOL    HW314861   3.396   4.901   3.175 -0.8479  0.7109  0.0540
 3772SOL    MW414862   3.426   4.946   3.107 -0.6993 -0.4857  0.2101
 3773SOL     OW14863   4.957   3.082   1.012 -0.1297 -0.1021  0.4445
 3773SOL    HW214864   4.972   2.988   1.012 -0.3085 -0.1523 -0.9655
 3773SOL    HW314865   5.041   3.121   1.035  0.5982 -0.5487 -1.3539
 3773SOL    MW414866   4.970   3.075   1.015  0.1228  0.2451 -0.2494
 3774SOL     OW14867   3.762   3.893   4.508  0.1518 -0.0000 -0.2620
 3774SOL    HW214868   3.833   3.955   4.526 -0.8756  0.3570  3.2735
 3774SOL    HW314869   3.802   3.807   4.521  0.6554  0.0161 -1.5063
 3774SOL    MW414870   3.777   3.890   4.512  0.4171 -0.5829 -0.5291
 3775SOL     OW14871   2.689   2.743   2.726  0.1811  0.4874 -0.2040
 3775SOL    HW214872   2.626   2.760   2.795  2.4154 -0.4945  2.2603
 3775SOL    HW314873   2.653   2.668   2.678 -1.8560  1.7729 -0.8186
 3775SOL    MW414874   2.676   2.735   2.729 -0.3377 -0.0352  0.2145
 3776SOL     OW14875   1.804   0.125   3.407  0.0516 -0.4360  0.0528
 3776SOL    HW214876   1.757   0.077   3.475  0.3044 -0.4463  0.2232
 3776SOL    HW314877   1.837   0.058   3.348  1.0630 -0.5456  0.7086
 3776SOL    MW414878   1.802   0.110   3.408  0.2092 -0.6510 -0.4295
 3777SOL     OW14879   0.829   0.980   1.613 -0.2348  0.1144  0.4072
 3777SOL    HW214880   0.748   1.026   1.593 -0.1197 -0.3624 -1.3423
 3777SOL    HW314881   0.825   0.900   1.560  0.3297 -1.0724  2.0725
 3777SOL    MW414882   0.818   0.976   1.603 -0.1908  0.1515  0.0159
 3778SOL     OW14883   4.788   2.172   5.950 -0.2676 -0.3314 -0.0905
 3778SOL    HW214884   4.818   2.204   5.865  0.7414 -3.3926 -1.0271
 3778SOL    HW314885   4.862   2.184   6.008 -1.1514  2.3124  0.6339
 3778SOL    MW414886   4.802   2.178   5.946  0.3705  0.5099  0.4080
 3779SOL     OW14887   2.195   4.809   3.390 -0.8265 -0.6084  0.2034
 3779SOL    HW214888   2.238   4.796   3.474  0.4954 -1.1090 -0.5196
 3779SOL    HW314889   2.208   4.902   3.371  0.6223 -0.8984 -0.3409
 3779SOL    MW414890   2.203   4.820   3.399 -0.2693  0.3776  0.3455
 3780SOL     OW14891   0.880   1.962   0.532  0.2156 -0.4523 -0.0154
 3780SOL    HW214892   0.914   2.038   0.578 -1.2929 -0.0404  0.4937
 3780SOL    HW314893   0.942   1.892   0.552  1.5358  0.5757 -0.3581
 3780SOL    MW414894   0.893   1.962   0.541  0.3568  0.3764 -0.2469
 3781SOL     OW14895   1.201   4.361   3.782 -0.2018  0.3907 -0.8676
 3781SOL    HW214896   1.134   4.296   3.798  0.3898  0.4150  2.3772
 3781SOL    HW314897   1.231   4.387   3.870  3.1890  1.2346 -2.1236
 3781SOL    MW414898   1.196   4.356   3.796 -0.4857 -0.0794 -0.5930
 3782SOL     OW14899   3.783   1.492   3.420 -0.2160 -0.1404  0.1791
 3782SOL    HW214900   3.854   1.432   3.442  0.8347  1.2799  0.8095
 3782SOL    HW314901   3.823   1.555   3.360 -0.6499  1.2618  1.3125
 3782SOL    MW414902   3.798   1.492   3.415  0.0813  0.5068  0.0553
 3783SOL     OW14903   1.031   0.409   3.941 -0.0208 -0.1794 -0.5918
 3783SOL    HW214904   1.085   0.446   4.011 -1.2831 -1.2481  1.0139
 3783SOL    HW314905   1.093   0.392   3.870  1.3361  0.8074  0.3017
 3783SOL    MW414906   1.046   0.411   3.941  0.3091  0.0473  0.1248
 3784SOL     OW14907   1.148   5.408   0.669  0.4890 -0.3141 -0.2414
 3784SOL    HW214908   1.226   5.408   0.724  0.4771 -1.4496 -0.1983
 3784SOL    HW314909   1.161   5.333   0.610 -0.3406 -0.2148 -0.5578
 3784SOL    MW414910   1.160   5.398   0.668  0.1631  0.4969 -0.0387
 3785SOL     OW14911   0.338   0.651   0.510 -0.3439 -0.0364  0.0186
 3785SOL    HW214912   0.395   0.728   0.509 -0.6032  0.1595  0.1707
 3785SOL    HW314913   0.259   0.679   0.463 -0.1410 -0.4402 -0.5608
 3785SOL    MW414914   0.335   0.665   0.504  0.4882  0.6266 -0.3696
 3786SOL     OW14915   0.926   0.015   4.788 -0.2463 -0.4729  0.3336
 3786SOL    HW214916   0.953  -0.000   4.878  0.8640  0.8304  0.2510
 3786SOL    HW314917   0.839   0.055   4.795  0.3402  0.7540  0.9042
 3786SOL    MW414918   0.918   0.018   4.800 -0.9160  0.2357  0.4317
 3787SOL     OW14919   4.448   4.316   6.209  0.2880  0.1775  0.1881
 3787SOL    HW214920   4.513   4.370   6.162  0.8026 -1.3352 -0.9225
 3787SOL    HW314921   4.364   4.346   6.174  0.6418 -0.6784 -1.5299
 3787SOL    MW414922   4.445   4.327   6.198  0.1993 -0.1008 -0.1253
 3788SOL     OW14923   2.529   0.302   4.862 -0.1991 -0.1204 -1.0612
 3788SOL    HW214924   2.444   0.308   4.819 -0.8528  0.6123  0.2771
 3788SOL    HW314925   2.544   0.390   4.896  2.2037  0.4346 -3.2291
 3788SOL    MW414926   2.520   0.314   4.861 -0.7936 -0.4037  0.0554
 3789SOL     OW14927   4.352   1.537   2.060 -0.6435  0.1456  0.7103
 3789SOL    HW214928   4.389   1.494   2.137  0.5332  0.6657  0.4404
 3789SOL    HW314929   4.368   1.630   2.074 -0.7992  0.2801  0.0309
 3789SOL    MW414930   4.359   1.543   2.072  0.1331 -0.0973 -0.1984
 3790SOL     OW14931   6.317   4.047   4.666 -0.1360  0.2843  0.1716
 3790SOL    HW214932   6.381   3.991   4.623 -2.0478 -1.6475 -0.3363
 3790SOL    HW314933   6.345   4.051   4.757  0.7549 -0.4365 -0.0622
 3790SOL    MW414934   6.329   4.040   4.672 -0.1836  0.6060  0.3462
 3791SOL     OW14935   5.304   0.385   4.460 -0.0202  0.0056  0.1647
 3791SOL    HW214936   5.257   0.362   4.540  0.0438  0.7168  0.4135
 3791SOL    HW314937   5.387   0.423   4.490 -0.6733  1.8237 -0.1448
 3791SOL    MW414938   5.309   0.387   4.475 -0.2160  0.4478 -0.4373
 3792SOL     OW14939   5.575   5.443   0.465  0.2013 -0.6574 -0.2919
 3792SOL    HW214940   5.567   5.353   0.433 -0.2061 -0.7118 -0.0446
 3792SOL    HW314941   5.643   5.439   0.532  1.3100 -0.4819 -1.3605
 3792SOL    MW414942   5.583   5.431   0.469  0.0006 -0.1355 -0.0322
 3793SOL     OW14943   2.152   1.944   2.917 -0.5374  0.3767  0.3917
 3793SOL    HW214944   2.097   1.928   2.841  0.7143  1.9030 -0.9184
 3793SOL    HW314945   2.217   2.008   2.887  1.5949 -0.8749  1.9893
 3793SOL    MW414946   2.154   1.950   2.903  0.4170  0.1253  0.0362
 3794SOL     OW14947   4.497   0.155   6.125 -1.0881  0.5660 -0.2709
 3794SOL    HW214948   4.501   0.067   6.161 -1.2283  0.8329  0.4148
 3794SOL    HW314949   4.413   0.160   6.080 -1.9174  0.9143  1.2354
 3794SOL    MW414950   4.487   0.144   6.124  0.0994 -0.0793 -0.2750
 3795SOL     OW14951   0.818   4.499   5.516 -0.1472  0.1007  0.1413
 3795SOL    HW214952   0.743   4.558   5.515  1.6406  2.6143  2.0731
 3795SOL    HW314953   0.888   4.549   5.474  1.1787 -1.0484  0.8849
 3795SOL    MW414954   0.818   4.513   5.510  0.1153  0.0067  0.1856
 3796SOL     OW14955   5.498   3.874   2.826  0.5142  0.1549 -0.2296
 3796SOL    HW214956   5.478   3.813   2.897 -0.2571  0.9067  0.2296
 3796SOL    HW314957   5.510   3.819   2.749  0.9468 -0.6506  0.3914
 3796SOL    MW414958   5.497   3.859   2.825 -0.0556 -0.2997 -0.4418
 3797SOL     OW14959   0.726   4.068   5.875  0.1264 -0.5745  0.3290
 3797SOL    HW214960   0.800   4.108   5.830  0.1663 -0.1513  0.7598
 3797SOL    HW314961   0.699   3.997   5.818 -1.6120  1.6241 -1.7739
 3797SOL    MW414962   0.732   4.064   5.862  0.2989 -0.3458 -0.6018
 3798SOL     OW14963   1.559   6.252   0.135 -0.0823 -0.3309 -0.1596
 3798SOL    HW214964   1.546   6.277   0.227  0.4621  2.4332 -0.7561
 3798SOL    HW314965   1.652   6.227   0.130 -0.1665 -0.6918  0.0869
 3798SOL    MW414966   1.570   6.252   0.147 -0.0001 -0.1602 -0.4690
 3799SOL     OW14967   3.532   2.962   5.198  0.5879 -0.1031 -0.2759
 3799SOL    HW214968   3.619   2.986   5.168  0.7680 -0.2887  0.0964
 3799SOL    HW314969   3.489   3.046   5.216  1.2075 -0.0374  0.9975
 3799SOL    MW414970   3.537   2.976   5.196  0.0172  0.1771 -0.0351
 3800SOL     OW14971   2.355   4.952   6.053 -0.1211 -0.1372  0.7455
 3800SOL    HW214972   2.262   4.970   6.043  0.1479  0.7236 -0.3626
 3800SOL    HW314973   2.391   5.033   6.088  0.0940 -0.7578  2.0246
 3800SOL    MW414974   2.348   4.965   6.056 -0.6474 -0.1735  0.8632
 3801SOL     OW14975   4.376   1.915   1.230  0.6680  0.2615  0.3870
 3801SOL    HW214976   4.393   1.829   1.269  1.7589 -0.1117 -0.8489
 3801SOL    HW314977   4.338   1.895   1.145 -0.4495  1.0473  0.6804
 3801SOL    MW414978   4.373   1.901   1.224  0.0963 -0.0528  0.0122
 3802SOL     OW14979   1.695   4.889   1.670 -0.0537  0.6073 -0.2000
 3802SOL    HW214980   1.629   4.912   1.736 -0.8953 -0.6641 -0.5608
 3802SOL    HW314981   1.646   4.883   1.588  0.5674 -0.0568 -0.5304
 3802SOL    MW414982   1.680   4.891   1.668  0.1128  0.2209  0.1499
 3803SOL     OW14983   1.673   1.926   5.271  0.3400  0.1878  0.2217
 3803SOL    HW214984   1.666   1.939   5.177  1.2469  2.8500  0.4253
 3803SOL    HW314985   1.766   1.911   5.287  0.3503  0.7220  0.7444
 3803SOL    MW414986   1.685   1.926   5.261 -0.2216 -0.1609 -0.1242
 3804SOL     OW14987   4.622   1.408   6.038  0.8811  0.3673  0.2773
 3804SOL    HW214988   4.607   1.456   5.956 -0.5067  0.7109  0.6999
 3804SOL    HW314989   4.610   1.316   6.014 -0.9124  0.5493  0.3314
 3804SOL    MW414990   4.618   1.402   6.024 -0.5340  0.1317 -0.3555
 3805SOL     OW14991   4.371   1.272   0.798  0.2568 -0.2492  0.2530
 3805SOL    HW214992   4.386   1.366   0.805  3.3626 -0.5825 -0.6685
 3805SOL    HW314993   4.344   1.260   0.707  2.1086 -0.4347 -0.3059
 3805SOL    MW414994   4.369   1.283   0.787 -0.1392  0.1889  0.0618
 3806SOL     OW14995   0.713   5.589   3.467  0.2533 -0.3838 -0.1506
 3806SOL    HW214996   0.773   5.515   3.479 -0.4112 -0.6847  1.5211
 3806SOL    HW314997   0.697   5.622   3.555  1.8475  2.8714 -0.9366
 3806SOL    MW414998   0.719   5.583   3.480  0.1169 -0.0115  0.1269
 3807SOL     OW14999   0.940   3.852   0.790  0.2025 -0.2085  0.8636
 3807SOL    HW215000   0.999   3.924   0.768 -0.4730 -0.0576 -0.5850
 3807SOL    HW315001   0.882   3.845   0.714 -0.6648 -1.3436  1.6027
 3807SOL    MW415002   0.940   3.860   0.777 -0.0100  0.2405 -0.7243
 3808SOL     OW15003   2.787   1.956   5.842 -0.2454  0.4291 -0.2934
 3808SOL    HW215004   2.725   1.916   5.902 -0.2454  0.1319 -0.4898
 3808SOL    HW315005   2.873   1.922   5.868 -0.2998 -0.0910 -0.7713
 3808SOL    MW415006   2.790   1.946   5.853  0.1389  0.2871  0.8182
 3809SOL     OW15007   0.553   3.881   6.051 -0.6406  0.4268 -0.0125
 3809SOL    HW215008   0.645   3.875   6.023 -0.6101 -1.8682  0.3785
 3809SOL    HW315009   0.556   3.868   6.146 -1.4959 -2.1882 -0.2740
 3809SOL    MW415010   0.566   3.878   6.060  0.0730 -0.7921 -0.1813
 3810SOL     OW15011   3.012   0.423   1.993  0.2439  0.0316  0.4774
 3810SOL    HW215012   3.035   0.332   1.973 -0.4538 -0.5402  2.0742
 3810SOL    HW315013   2.916   0.426   1.985  0.4271  1.3738 -2.2589
 3810SOL    MW415014   3.002   0.411   1.989 -0.0279  0.0293  0.0078
 3811SOL     OW15015   4.228   6.364   4.864 -0.0286 -0.4199 -0.0705
 3811SOL    HW215016   4.319   6.394   4.870 -0.0974 -0.0476 -0.7900
 3811SOL    HW315017   4.234   6.281   4.816 -0.1812  0.2551 -1.3005
 3811SOL    MW415018   4.241   6.357   4.858 -0.6232  0.1515  0.0060
 3812SOL     OW15019   6.224   5.248   1.553  0.0534 -0.2873 -0.1153
 3812SOL    HW215020   6.300   5.214   1.505 -0.4551  0.0349 -1.1742
 3812SOL    HW315021   6.215   5.338   1.522  0.1605  0.1892  1.1647
 3812SOL    MW415022   6.233   5.255   1.542 -0.0507  0.2498  0.0540
 3813SOL     OW15023   5.221   1.329   1.269  0.2074  0.2941 -0.2300
 3813SOL    HW215024   5.184   1.351   1.355  1.5671  1.4776  0.0923
 3813SOL    HW315025   5.150   1.286   1.223 -0.4850 -0.6305  1.5878
 3813SOL    MW415026   5.207   1.326   1.275  0.2709  0.3097  0.2563
 3814SOL     OW15027   2.626   4.421   3.826  0.1987  0.2286 -0.1391
 3814SOL    HW215028   2.626   4.421   3.730 -0.6202 -0.5599 -0.1541
 3814SOL    HW315029   2.645   4.330   3.850  0.1038  0.3594  0.4480
 3814SOL    MW415030   2.629   4.409   3.817 -0.3171 -0.1072 -0.2442
 3815SOL     OW15031   3.940   5.420   2.481 -0.1995  0.0837 -0.4123
 3815SOL    HW215032   3.977   5.398   2.395  0.1608 -0.4632 -0.1228
 3815SOL    HW315033   4.014   5.456   2.530 -0.3928  0.3429 -0.3068
 3815SOL    MW415034   3.955   5.422   2.476  0.3962 -0.5974 -0.1715
 3816SOL     OW15035   6.001   6.366   3.560 -0.2613 -0.4613  0.4899
 3816SOL    HW215036   6.064   6.418   3.511 -0.1020  0.4622  1.6407
 3816SOL    HW315037   5.924   6.422   3.567 -1.7832 -2.0679 -2.0489
 3816SOL    MW415038   5.999   6.380   3.555 -0.5083  0.5057 -0.1556
 3817SOL     OW15039   4.463   2.244   5.158  0.3475 -0.7821  0.0686
 3817SOL    HW215040   4.427   2.301   5.227  0.3428 -1.1058  0.3361
 3817SOL    HW315041   4.432   2.157   5.180 -0.1824 -0.7947 -0.7094
 3817SOL    MW415042   4.454   2.240   5.170 -0.3910  0.2228 -0.3950
 3818SOL     OW15043   2.430   2.807   2.007 -0.7313  0.2745  0.1642
 3818SOL    HW215044   2.410   2.726   1.961  0.1109  0.3634 -0.3655
 3818SOL    HW315045   2.344   2.839   2.036 -1.2323 -0.0423 -0.8982
 3818SOL    MW415046   2.416   2.800   2.005 -0.3724  0.5273  0.4185
 3819SOL     OW15047   1.996   6.370   3.753 -0.4344 -0.3892  0.5520
 3819SOL    HW215048   1.989   6.387   3.847  1.3845  0.2099  0.6156
 3819SOL    HW315049   1.978   6.276   3.745 -1.1394 -0.3466  1.4167
 3819SOL    MW415050   1.993   6.359   3.764  0.1279 -0.0683  0.1525
 3820SOL     OW15051   4.977   1.386   0.905  0.5708 -0.0948 -0.6415
 3820SOL    HW215052   5.046   1.422   0.849  0.7563 -0.1261 -0.4363
 3820SOL    HW315053   4.951   1.458   0.962  1.8985 -0.5992  0.7115
 3820SOL    MW415054   4.983   1.400   0.905 -0.1565  0.3711 -0.0153
 3821SOL     OW15055   0.068   5.869   0.305  0.1004  0.2726 -0.2065
 3821SOL    HW215056   0.042   5.824   0.385  0.1642 -2.3252 -1.5487
 3821SOL    HW315057  -0.012   5.908   0.272 -0.0001  1.0397  0.8808
 3821SOL    MW415058   0.054   5.868   0.311  0.2277  0.5620 -0.0299
 3822SOL     OW15059   2.428   3.406   5.213  0.0293 -0.2875 -0.2521
 3822SOL    HW215060   2.348   3.441   5.172 -0.2060 -2.0903 -1.4715
 3822SOL    HW315061   2.398   3.371   5.297 -0.1543  0.4664 -0.0011
 3822SOL    MW415062   2.413   3.406   5.218  0.0646 -0.4785  0.0059
 3823SOL     OW15063   0.514   3.896   6.340 -0.1950  0.1360  0.1436
 3823SOL    HW215064   0.473   3.979   6.320  0.3946  0.2717 -0.5510
 3823SOL    HW315065   0.565   3.912   6.419 -0.9082  0.1484  0.6086
 3823SOL    MW415066   0.515   3.909   6.347 -0.4784 -0.0320  0.5663
 3824SOL     OW15067   6.076   6.323   6.254 -0.3200 -0.6741  0.9454
 3824SOL    HW215068   6.001   6.269   6.281 -1.6939  1.6039  2.0445
 3824SOL    HW315069   6.126   6.338   6.334  1.6906 -2.5746  0.1340
 3824SOL    MW415070   6.072   6.318   6.268 -0.3865 -0.5612 -0.0515
 3825SOL     OW15071   5.851   3.325   3.727 -0.5172 -0.7082 -0.1129
 3825SOL    HW215072   5.888   3.355   3.643  1.1320 -1.4484  0.3156
 3825SOL    HW315073   5.767   3.286   3.703 -1.3933  1.5502 -1.0560
 3825SOL    MW415074   5.845   3.324   3.713 -0.5394 -0.2059  0.1626
 3826SOL     OW15075   1.976  -0.002   2.968 -0.3078 -0.1862  0.2307
 3826SOL    HW215076   1.984  -0.062   2.893 -0.1175 -1.2036  1.0435
 3826SOL    HW315077   1.920   0.069   2.936 -0.1940 -0.5767 -0.8897
 3826SOL    MW415078   1.970  -0.001   2.954 -0.4357 -0.2127  0.2793
 3827SOL     OW15079   0.821   2.737   5.921 -0.1839  0.0279 -0.2856
 3827SOL    HW215080   0.789   2.796   5.990 -1.5444 -1.4947  0.4669
 3827SOL    HW315081   0.914   2.759   5.912 -0.6933  2.4763 -0.2868
 3827SOL    MW415082   0.829   2.747   5.929 -0.7780  0.0943  0.0439
 3828SOL     OW15083   4.396   1.550   0.399 -0.2940 -0.0519  0.0987
 3828SOL    HW215084   4.459   1.486   0.432 -0.7003 -0.5868 -0.1508
 3828SOL    HW315085   4.442   1.634   0.405  0.3520 -0.4014  0.1543
 3828SOL    MW415086   4.410   1.552   0.404 -0.3420  0.3188  0.1053
 3829SOL     OW15087   4.898   1.981   3.671  0.7358 -0.0449  0.3346
 3829SOL    HW215088   4.993   1.995   3.670  1.3336 -3.2452 -1.4019
 3829SOL    HW315089   4.887   1.895   3.711 -1.2889 -0.4672 -0.9904
 3829SOL    MW415090   4.909   1.971   3.676  0.3057 -0.2757  0.5796
 3830SOL     OW15091   2.333   1.505   5.769 -0.1431  0.1927 -0.0916
 3830SOL    HW215092   2.282   1.552   5.703 -0.9004 -1.5019 -0.7564
 3830SOL    HW315093   2.419   1.546   5.766 -0.4043  0.6951 -1.5374
 3830SOL    MW415094   2.338   1.517   5.760 -0.4867  0.2437 -0.5765
 3831SOL     OW15095   3.398   0.673   5.469 -1.4091 -0.3684  0.4324
 3831SOL    HW215096   3.464   0.665   5.538 -0.3628  0.0485 -0.4884
 3831SOL    HW315097   3.321   0.628   5.503 -1.0461  0.1855  2.0327
 3831SOL    MW415098   3.397   0.666   5.482 -0.4299 -0.8211 -0.1629
 3832SOL     OW15099   1.818   5.877   3.517  0.4537  0.2648  0.3570
 3832SOL    HW215100   1.871   5.798   3.527  0.1988 -0.0900 -0.8490
 3832SOL    HW315101   1.782   5.894   3.604  0.1415 -1.2109  0.5437
 3832SOL    MW415102   1.820   5.869   3.529  0.3873  0.7116  0.5097
 3833SOL     OW15103   6.329   0.284   4.614  0.8810 -0.4195  0.3777
 3833SOL    HW215104   6.413   0.238   4.621  1.5349 -0.0747 -3.1646
 3833SOL    HW315105   6.328   0.317   4.524 -2.5487  0.6663  0.6917
 3833SOL    MW415106   6.340   0.282   4.603 -0.3541  0.3894  0.0327
 3834SOL     OW15107   6.315   1.908   0.802 -0.1899  0.0187 -0.4014
 3834SOL    HW215108   6.403   1.925   0.833 -0.6485 -0.7214  1.4628
 3834SOL    HW315109   6.326   1.842   0.733  0.7140  0.0038 -0.2527
 3834SOL    MW415110   6.328   1.901   0.797  0.2873 -0.2247  0.5168
 3835SOL     OW15111   0.183   0.732   6.283  0.1116 -0.1143 -0.4494
 3835SOL    HW215112   0.237   0.716   6.205  2.2659 -0.3744  1.0093
 3835SOL    HW315113   0.204   0.821   6.309 -1.3380  0.3215 -0.6496
 3835SOL    MW415114   0.193   0.742   6.276 -0.0858 -0.2547  0.8259
 3836SOL     OW15115   6.370   0.359   2.101 -0.3360  0.3373 -0.3456
 3836SOL    HW215116   6.316   0.286   2.133 -1.7989  1.5898  0.1225
 3836SOL    HW315117   6.312   0.410   2.046 -0.1994  2.7297  1.5984
 3836SOL    MW415118   6.355   0.356   2.098  0.3326  0.0007  0.5901
 3837SOL     OW15119   0.027   1.543   0.471  0.0537  0.2885  0.4040
 3837SOL    HW215120   0.086   1.514   0.541 -1.3359 -0.3349  1.3730
 3837SOL    HW315121   0.022   1.468   0.412  0.2027  0.3312  0.3364
 3837SOL    MW415122   0.034   1.529   0.473  0.5155 -0.5241  0.0539
 3838SOL     OW15123   0.386   0.411   0.220  0.3088  0.9096 -0.2751
 3838SOL    HW215124   0.437   0.398   0.300  0.6334  1.1463 -0.4393
 3838SOL    HW315125   0.297   0.385   0.243  0.5679  0.1621 -0.0767
 3838SOL    MW415126   0.381   0.406   0.233 -0.0250 -0.0425 -1.2365
 3839SOL     OW15127   1.782   5.106   2.550 -0.5597 -0.7157 -0.1911
 3839SOL    HW215128   1.850   5.158   2.509 -0.8312 -0.5466 -0.4345
 3839SOL    HW315129   1.827   5.028   2.583  0.1507  0.4056  1.6283
 3839SOL    MW415130   1.797   5.102   2.549 -0.7354  0.2980  0.2770
 3840SOL     OW15131   2.483   0.456   5.993  0.3349  0.0474  0.0573
 3840SOL    HW215132   2.482   0.528   6.056 -0.2028  0.2235 -0.1479
 3840SOL    HW315133   2.553   0.480   5.932  0.4142  0.2071  0.2078
 3840SOL    MW415134   2.492   0.469   5.993  0.6326  0.1089  0.4819
 3841SOL     OW15135   1.293   5.105   3.951  0.1096 -0.1137 -0.5715
 3841SOL    HW215136   1.322   5.054   3.875 -0.2694 -0.1502 -0.6919
 3841SOL    HW315137   1.302   5.045   4.025 -1.7710 -0.8905 -0.9153
 3841SOL    MW415138   1.298   5.091   3.951  0.1691  0.2148  0.6705
 3842SOL     OW15139   2.932   1.204   2.078  0.1030 -0.0013  0.3797
 3842SOL    HW215140   2.871   1.196   2.152  0.2671  1.2905  0.6763
 3842SOL    HW315141   3.006   1.252   2.113  0.9788 -0.9000 -0.1911
 3842SOL    MW415142   2.934   1.209   2.093 -0.0515  0.5450  0.0681
 3843SOL     OW15143   0.844   1.141   3.368 -0.1082  0.0533  0.1952
 3843SOL    HW215144   0.896   1.138   3.287 -0.5454 -1.9079 -0.0561
 3843SOL    HW315145   0.754   1.154   3.337 -0.1399  0.4258  0.4441
 3843SOL    MW415146   0.839   1.142   3.353  0.0810  0.1707 -0.2317
 3844SOL     OW15147   2.611   0.588   2.718  0.1576 -0.3628  0.1356
 3844SOL    HW215148   2.642   0.679   2.716  0.5339 -0.4497  1.2428
 3844SOL    HW315149   2.643   0.554   2.802  0.9623 -1.8599 -0.7331
 3844SOL    MW415150   2.619   0.596   2.729  0.4145 -0.5091 -0.1929
 3845SOL     OW15151   3.877   4.053   3.501 -0.1501 -0.7846 -0.2714
 3845SOL    HW215152   3.871   4.146   3.479  0.7334 -0.7395 -0.3636
 3845SOL    HW315153   3.796   4.034   3.548 -1.5871 -0.6102 -2.5227
 3845SOL    MW415154   3.866   4.063   3.505  0.0301  0.3573  0.9533
 3846SOL     OW15155   0.235   0.075   3.528 -0.2487  0.0265 -0.6483
 3846SOL    HW215156   0.178   0.127   3.584  0.3692  0.2714 -0.2422
 3846SOL    HW315157   0.200  -0.014   3.535  0.3607 -0.1105  0.8415
 3846SOL    MW415158   0.223   0.070   3.536 -0.2829  0.2956 -0.3299
 3847SOL     OW15159   5.615   4.928   4.198 -0.5868  0.3944  0.2280
 3847SOL    HW215160   5.595   5.021   4.184  1.3950  0.8287  0.0625
 3847SOL    HW315161   5.581   4.885   4.119 -0.4205  1.1595 -0.2791
 3847SOL    MW415162   5.608   4.935   4.185  0.2900 -0.0071  0.6963
 3848SOL     OW15163   1.979   5.250   0.151 -0.2597 -0.0233 -0.4113
 3848SOL    HW215164   1.899   5.229   0.199  0.4740 -0.3015  0.6997
 3848SOL    HW315165   1.985   5.345   0.154 -1.3464  0.1356 -1.8420
 3848SOL    MW415166   1.969   5.260   0.157 -0.3299 -0.1407 -0.7183
 3849SOL     OW15167   6.308   4.253   4.431  0.8283  0.7458 -1.0205
 3849SOL    HW215168   6.313   4.166   4.471  1.0861  1.4949  0.6458
 3849SOL    HW315169   6.341   4.240   4.342 -0.6320 -1.1588 -1.3601
 3849SOL    MW415170   6.313   4.240   4.425  0.2358 -0.2923 -0.2392
 3850SOL     OW15171   0.514   2.193   3.843 -0.2490 -0.0028 -0.2094
 3850SOL    HW215172   0.466   2.231   3.769 -1.6729  0.8614  1.1063
 3850SOL    HW315173   0.462   2.215   3.920  1.0582 -1.0951  1.0554
 3850SOL    MW415174   0.501   2.201   3.843 -0.6599 -0.0506  0.3000
 3851SOL     OW15175   4.753   2.323   2.251 -0.3477 -0.6371  0.1387
 3851SOL    HW215176   4.823   2.269   2.213 -0.1998 -0.3093 -0.0554
 3851SOL    HW315177   4.779   2.336   2.342 -0.3188 -0.7853  0.1524
 3851SOL    MW415178   4.766   2.317   2.258  0.3943 -0.0520 -0.1712
 3852SOL     OW15179   1.912   3.704   0.944 -0.6303 -0.4590  0.2810
 3852SOL    HW215180   1.995   3.682   0.986 -0.3829  1.1450  0.6892
 3852SOL    HW315181   1.892   3.628   0.889  1.3404 -0.6831 -0.1860
 3852SOL    MW415182   1.920   3.691   0.942  0.1486 -0.2286  0.2486
 3853SOL     OW15183   4.132   1.678   2.740 -0.3709  0.0588 -0.2369
 3853SOL    HW215184   4.069   1.612   2.769  0.5673 -0.7955 -0.1257
 3853SOL    HW315185   4.077   1.748   2.704 -1.3943 -0.5871  0.0124
 3853SOL    MW415186   4.116   1.679   2.739  0.0128 -0.0889  0.0084
 3854SOL     OW15187   4.491   1.085   2.147  0.1540 -0.1821  0.1616
 3854SOL    HW215188   4.554   1.060   2.215  0.9503 -0.3366 -0.6102
 3854SOL    HW315189   4.542   1.137   2.084 -0.7405  0.6077  0.0621
 3854SOL    MW415190   4.506   1.088   2.147 -0.0679  0.1776 -0.1267
 3855SOL     OW15191   3.758   3.561   0.578 -0.6777  0.0814 -0.1332
 3855SOL    HW215192   3.756   3.467   0.592 -0.8771 -0.3357 -2.4859
 3855SOL    HW315193   3.670   3.591   0.597 -1.2430 -0.6230 -1.4812
 3855SOL    MW415194   3.746   3.553   0.582 -0.4729 -0.7097 -0.6434
 3856SOL     OW15195   2.171   3.620   2.429 -0.0397 -0.2487 -0.0228
 3856SOL    HW215196   2.265   3.633   2.418 -0.2417  0.0190 -1.6617
 3856SOL    HW315197   2.157   3.527   2.412 -0.2032 -0.0518 -1.0779
 3856SOL    MW415198   2.182   3.610   2.425  0.2828 -0.1538 -0.2054
 3857SOL     OW15199   1.525   3.894   0.277  0.2661 -0.1790 -0.3407
 3857SOL    HW215200   1.571   3.865   0.199  1.9588  0.8007  0.2323
 3857SOL    HW315201   1.595   3.915   0.339 -1.0171 -0.4924  1.2820
 3857SOL    MW415202   1.540   3.893   0.275  0.8535  0.3663 -0.4732
 3858SOL     OW15203   3.733   5.554   3.829  0.1489  0.3156  0.0392
 3858SOL    HW215204   3.689   5.485   3.779  1.1271 -0.6944  0.5228
 3858SOL    HW315205   3.683   5.561   3.910  0.6345 -0.5853  0.4368
 3858SOL    MW415206   3.721   5.546   3.833  0.0471  0.4592 -0.0554
 3859SOL     OW15207   5.842   2.824   5.084  0.2595  0.1455 -0.5305
 3859SOL    HW215208   5.826   2.800   4.993 -0.8388  1.4544 -0.7071
 3859SOL    HW315209   5.757   2.817   5.127  0.8989 -1.1646  0.5921
 3859SOL    MW415210   5.829   2.820   5.077  0.0354  0.0023 -0.1926
 3860SOL     OW15211   2.705   5.938   5.739  0.2256 -0.2647 -0.0057
 3860SOL    HW215212   2.770   6.006   5.724  0.3064 -0.4374 -0.4753
 3860SOL    HW315213   2.671   5.955   5.827 -0.9686  1.3963 -0.7235
 3860SOL    MW415214   2.709   5.949   5.749  0.2371  0.3723  0.6463
 3861SOL     OW15215   6.420   3.177   2.493  0.2925  0.1128  0.1502
 3861SOL    HW215216   6.385   3.148   2.577 -0.2930 -1.4245 -0.5900
 3861SOL    HW315217   6.424   3.098   2.439  0.4511  1.0862 -1.3501
 3861SOL    MW415218   6.416   3.163   2.497 -0.4517  0.0808 -0.2115
 3862SOL     OW15219   5.013   3.185   0.310  0.0675  0.1619 -0.2326
 3862SOL    HW215220   5.098   3.144   0.294 -0.0209  0.0348 -0.3841
 3862SOL    HW315221   4.984   3.148   0.394  0.1455  0.1796 -0.1976
 3862SOL    MW415222   5.020   3.174   0.319  0.1834  0.1911  0.0620
 3863SOL     OW15223   3.193   0.406   5.998 -0.1833  0.2993  0.5374
 3863SOL    HW215224   3.178   0.356   6.078 -0.0668  0.4677  0.6655
 3863SOL    HW315225   3.106   0.430   5.968 -0.3287 -1.0175 -0.2009
 3863SOL    MW415226   3.180   0.402   6.005 -0.0783  0.0016 -0.1504
 3864SOL     OW15227   1.470   4.737   0.215 -0.0577  0.3870 -0.4415
 3864SOL    HW215228   1.544   4.749   0.155 -1.1675  1.8750 -1.6113
 3864SOL    HW315229   1.500   4.773   0.298  1.2458 -1.0095 -0.2572
 3864SOL    MW415230   1.484   4.743   0.218  0.7191 -0.3459 -0.2058
 3865SOL     OW15231   6.236   5.631   0.179 -0.0207  0.0630  0.4506
 3865SOL    HW215232   6.289   5.624   0.100 -2.0084 -1.0606 -0.8759
 3865SOL    HW315233   6.165   5.691   0.154  0.9193  2.1553  2.4115
 3865SOL    MW415234   6.233   5.638   0.165 -0.4112 -0.2653  0.0215
 3866SOL     OW15235   0.090   5.141   2.366 -0.3164 -0.1140 -0.3701
 3866SOL    HW215236   0.014   5.105   2.321 -1.0896 -0.7237  1.3479
 3866SOL    HW315237   0.079   5.236   2.359 -3.0425 -0.0456  2.5259
 3866SOL    MW415238   0.079   5.149   2.359  0.1861 -0.2905 -0.1425
 3867SOL     OW15239   2.944   0.286   5.239 -0.3008  0.2753  0.2935
 3867SOL    HW215240   2.857   0.306   5.273 -1.0382  0.1897 -1.4677
 3867SOL    HW315241   2.938   0.302   5.145  1.6573  0.4770  0.1609
 3867SOL    MW415242   2.932   0.291   5.231 -0.1451  0.0059  0.6194
 3868SOL     OW15243   4.867   0.196   2.248 -0.2648  0.0550 -0.1878
 3868SOL    HW215244   4.937   0.205   2.184  1.0091  0.5611  1.2166
 3868SOL    HW315245   4.895   0.249   2.322 -1.7018 -0.4737  0.7860
 3868SOL    MW415246   4.880   0.204   2.249  0.2485  0.2725  0.2752
 3869SOL     OW15247   5.047   1.442   2.523 -0.0159  0.4137  0.3639
 3869SOL    HW215248   5.069   1.535   2.511 -2.6748  0.7651 -2.8442
 3869SOL    HW315249   4.976   1.442   2.587  0.4134  0.4909  0.8494
 3869SOL    MW415250   5.041   1.454   2.530 -0.2895 -0.1948 -0.0025
 3870SOL     OW15251   5.456   1.951   2.327 -0.6721 -0.0438  0.4983
 3870SOL    HW215252   5.544   1.975   2.354  0.2238 -1.3137 -1.1062
 3870SOL    HW315253   5.444   1.993   2.242 -0.1798 -2.5980 -0.9675
 3870SOL    MW415254   5.466   1.959   2.319 -0.5501  0.3092 -0.3263
 3871SOL     OW15255   3.852   0.778   0.150  0.4979  0.1179 -0.4195
 3871SOL    HW215256   3.783   0.835   0.183 -0.7363 -1.0324 -0.8999
 3871SOL    HW315257   3.849   0.790   0.055  1.5952  0.7354 -0.3856
 3871SOL    MW415258   3.842   0.787   0.142 -0.0818 -0.4893 -0.4957
 3872SOL     OW15259   1.340   0.745   6.264 -0.0618 -0.3469 -0.3833
 3872SOL    HW215260   1.251   0.742   6.227  0.5845 -2.0734 -1.9377
 3872SOL    HW315261   1.375   0.658   6.248  2.2049  0.5374 -0.4890
 3872SOL    MW415262   1.333   0.733   6.257 -0.0913 -0.1525  0.7683
 3873SOL     OW15263   0.770   4.223   0.133  0.0963  0.2008  0.0552
 3873SOL    HW215264   0.743   4.242   0.223  0.4578  1.2498 -0.0403
 3873SOL    HW315265   0.864   4.208   0.139 -0.0948 -1.1063  0.0411
 3873SOL    MW415266   0.779   4.223   0.146 -0.3290  0.2183 -0.2065
 3874SOL     OW15267   3.513   0.612   5.202 -0.0182  0.4356  0.8609
 3874SOL    HW215268   3.467   0.621   5.285 -0.4383 -0.2782  0.7095
 3874SOL    HW315269   3.444   0.616   5.136  0.1507 -0.4061  0.6221
 3874SOL    MW415270   3.498   0.614   5.204 -0.3552 -0.3891 -0.4210
 3875SOL     OW15271   0.112   0.125   1.123  0.2610  0.2347  0.6198
 3875SOL    HW215272   0.026   0.090   1.143 -0.0432 -0.0594 -1.0222
 3875SOL    HW315273   0.167   0.047   1.106  0.6747  0.4335  1.0341
 3875SOL    MW415274   0.108   0.110   1.123 -0.1291 -0.3136  0.0717
 3876SOL     OW15275   2.953   3.319   6.232 -0.2534 -0.1015 -0.3166
 3876SOL    HW215276   2.918   3.273   6.308  1.4727  0.3812  0.8140
 3876SOL    HW315277   2.998   3.251   6.181  0.4003 -0.0693  0.2063
 3876SOL    MW415278   2.954   3.304   6.235 -0.3205 -0.0542  0.0753
 3877SOL     OW15279   4.245   4.582   2.546 -0.1841  0.2659  0.1390
 3877SOL    HW215280   4.229   4.497   2.587 -0.8399 -0.5786 -1.7491
 3877SOL    HW315281   4.338   4.598   2.559 -0.1107 -0.5812  0.7953
 3877SOL    MW415282   4.255   4.573   2.553  0.4128 -0.6337  0.3087
 3878SOL     OW15283   2.492   6.232   1.397 -0.4971  0.4444  0.2675
 3878SOL    HW215284   2.553   6.263   1.465 -1.4428  2.1256  0.4019
 3878SOL    HW315285   2.427   6.181   1.444  0.6116 -1.1310  0.1594
 3878SOL    MW415286   2.492   6.230   1.412 -0.0661  0.6618 -0.1605
 3879SOL     OW15287   4.455   2.495   4.782  0.3566  0.0064  0.1712
 3879SOL    HW215288   4.396   2.455   4.846  0.5499 -0.2464  0.1925
 3879SOL    HW315289   4.436   2.448   4.700 -1.3436  1.6817 -0.4670
 3879SOL    MW415290   4.444   2.483   4.780 -0.4370 -0.0082  0.0197
 3880SOL     OW15291   1.638   5.461   4.179 -0.4016  0.3461 -0.2406
 3880SOL    HW215292   1.568   5.428   4.123 -1.6324  1.6609  0.4813
 3880SOL    HW315293   1.676   5.382   4.219 -1.8789 -0.3507 -0.1637
 3880SOL    MW415294   1.634   5.446   4.177  0.0863 -0.5286  0.4168
 3881SOL     OW15295   5.300   2.011   5.121  0.1218  0.2798  0.6983
 3881SOL    HW215296   5.311   2.106   5.116  1.3843  0.0756 -1.5096
 3881SOL    HW315297   5.246   1.989   5.045  0.8409 -0.8869  0.5000
 3881SOL    MW415298   5.294   2.021   5.111 -0.2713 -0.3921 -0.0729
 3882SOL     OW15299   3.777   2.907   4.436  0.0716 -0.1831  0.3467
 3882SOL    HW215300   3.750   2.841   4.372  0.9471 -0.7160  0.5182
 3882SOL    HW315301   3.702   2.967   4.441  0.0384 -0.0285 -1.2945
 3882SOL    MW415302   3.763   2.907   4.428  0.0474  0.0052 -0.0542
 3883SOL     OW15303   0.928   0.633   3.454 -0.4398  0.1668  0.1420
 3883SOL    HW215304   0.895   0.580   3.382 -0.1182  2.1374 -1.5284
 3883SOL    HW315305   0.947   0.718   3.415 -1.6219  1.7993  2.8200
 3883SOL    MW415306   0.926   0.637   3.440  1.1409 -0.4620 -0.3885
 3884SOL     OW15307   2.503   0.399   2.315  0.3519 -0.4719 -0.3913
 3884SOL    HW215308   2.588   0.381   2.274  0.7570  1.1980 -0.3903
 3884SOL    HW315309   2.509   0.492   2.340  0.0720 -1.2999  3.2898
 3884SOL    MW415310   2.515   0.409   2.312  0.0529  0.3364 -0.1546
 3885SOL     OW15311   2.526   6.380   5.967 -0.2402  0.5256  0.4519
 3885SOL    HW215312   2.472   6.460   5.968  0.8219  1.2774 -0.1436
 3885SOL    HW315313   2.581   6.388   6.045 -0.3627  0.2100  0.5705
 3885SOL    MW415314   2.526   6.392   5.978  0.8687  0.1226 -0.4979
 3886SOL     OW15315   4.259   5.431   3.663 -0.0502 -0.3719  0.1106
 3886SOL    HW215316   4.185   5.477   3.623  1.3599  1.8867 -0.0726
 3886SOL    HW315317   4.240   5.431   3.756 -0.9597 -1.1839 -0.0501
 3886SOL    MW415318   4.247   5.437   3.670  0.2496 -0.1427  0.0530
 3887SOL     OW15319   1.951   3.554   0.627  0.3487 -0.3750 -0.4810
 3887SOL    HW215320   1.954   3.543   0.532  0.7511 -1.5392 -0.3521
 3887SOL    HW315321   1.949   3.648   0.640 -0.1213 -0.2043 -1.6548
 3887SOL    MW415322   1.951   3.565   0.616 -0.0200  0.1551  0.2479
 3888SOL     OW15323   0.590   0.455   0.441 -0.4119 -0.3248  0.1286
 3888SOL    HW215324   0.583   0.522   0.509 -1.4938 -0.8413  0.5489
 3888SOL    HW315325   0.605   0.504   0.360 -1.1079  0.4346  0.4442
 3888SOL    MW415326   0.591   0.470   0.439  0.0693 -0.4439  0.3957
 3889SOL     OW15327   0.418   2.882   3.020  0.1452 -0.4776 -0.1261
 3889SOL    HW215328   0.411   2.882   2.925 -0.5058 -1.1637 -0.0891
 3889SOL    HW315329   0.381   2.798   3.047  0.9945 -0.6037  0.6896
 3889SOL    MW415330   0.412   2.871   3.011 -0.2615  0.1471  0.0727
 3890SOL     OW15331   6.376   0.553   1.548 -0.0328 -0.0365  0.0895
 3890SOL    HW215332   6.305   0.544   1.484 -0.5256 -0.2108  0.6441
 3890SOL    HW315333   6.453   0.575   1.496 -0.4731  0.0580 -0.5367
 3890SOL    MW415334   6.377   0.554   1.533 -1.1619 -0.5235 -0.3088
 3891SOL     OW15335   3.353   5.898   2.276  0.1705  0.6171  0.1566
 3891SOL    HW215336   3.432   5.868   2.231  0.9512 -0.1344  1.9306
 3891SOL    HW315337   3.384   5.929   2.360 -1.5156 -0.6253  1.3060
 3891SOL    MW415338   3.367   5.898   2.281  0.2829 -0.1430  0.1050
 3892SOL     OW15339   2.710   5.316   0.682  0.3588 -0.0167 -0.4066
 3892SOL    HW215340   2.665   5.401   0.679  2.1698  1.1492  1.9267
 3892SOL    HW315341   2.773   5.319   0.610 -0.7492 -0.1387 -1.4053
 3892SOL    MW415342   2.712   5.328   0.672 -0.2879  0.1093  0.0474
 3893SOL     OW15343   0.642   4.994   1.980  0.4407  0.2399 -0.2749
 3893SOL    HW215344   0.715   4.932   1.979 -0.5951 -1.2258  2.6584
 3893SOL    HW315345   0.662   5.052   2.054 -0.8701  0.4032 -0.0210
 3893SOL    MW415346   0.654   4.993   1.990 -0.4774  0.0750 -0.1900
 3894SOL     OW15347   6.178   4.433   5.502  0.7210 -0.1701 -0.6813
 3894SOL    HW215348   6.113   4.464   5.439 -0.9427 -0.1343  0.9494
 3894SOL    HW315349   6.127   4.415   5.581  2.5455 -1.3415  0.2877
 3894SOL    MW415350   6.162   4.435   5.504 -0.8192 -0.3396  0.2169
 3895SOL     OW15351   5.565   2.239   1.200 -0.3037  0.0482 -0.4280
 3895SOL    HW215352   5.496   2.229   1.266  0.1603 -1.4173 -0.1259
 3895SOL    HW315353   5.525   2.209   1.118 -0.8723  1.8450 -0.8441
 3895SOL    MW415354   5.551   2.233   1.198 -0.6366  0.3680  0.2332
 3896SOL     OW15355   2.788   5.748   1.303 -0.5450 -0.3080  0.3290
 3896SOL    HW215356   2.752   5.685   1.366  0.9260 -0.7268  0.8005
 3896SOL    HW315357   2.878   5.762   1.333 -0.2578  0.5646 -0.8850
 3896SOL    MW415358   2.795   5.741   1.316  0.1040  0.0200  0.0444
 3897SOL     OW15359   6.150   3.545   2.549  0.3839  0.1445  0.0972
 3897SOL    HW215360   6.236   3.573   2.518 -0.9215  2.7962 -1.4890
 3897SOL    HW315361   6.129   3.469   2.495  1.2832  0.1207 -0.2372
 3897SOL    MW415362   6.158   3.539   2.538 -0.6479 -0.1593  0.1282
 3898SOL     OW15363   5.438   1.645   3.536 -0.7068  0.2307 -0.2836
 3898SOL    HW215364   5.438   1.554   3.509 -0.9932  0.1968 -0.1662
 3898SOL    HW315365   5.348   1.664   3.560 -0.7812  0.7281 -0.9174
 3898SOL    MW415366   5.426   1.636   3.536 -0.0646  0.3358  0.3380
 3899SOL     OW15367   0.907   4.153   3.434 -0.1686 -0.3493  0.5038
 3899SOL    HW215368   0.942   4.122   3.351 -0.0127 -1.1987  0.8717
 3899SOL    HW315369   0.924   4.082   3.496 -0.2479  0.2792  1.2756
 3899SOL    MW415370   0.914   4.140   3.431 -0.5990  0.0391  0.2070
 3900SOL     OW15371   0.609   1.168   3.200  0.3128  0.0835 -0.3985
 3900SOL    HW215372   0.536   1.191   3.257 -0.4747 -0.9607 -0.9530
 3900SOL    HW315373   0.624   1.248   3.148  0.6544  0.8402  0.8168
 3900SOL    MW415374   0.601   1.182   3.201  0.3110  0.7383  0.5055
 3901SOL     OW15375   2.979   3.635   6.061 -0.1345 -0.2001  0.6350
 3901SOL    HW215376   2.916   3.689   6.013 -0.5447 -0.9854  0.2698
 3901SOL    HW315377   2.975   3.668   6.151 -0.6406  0.1374  0.4912
 3901SOL    MW415378   2.970   3.646   6.067 -0.4860 -0.3212 -0.0038
 3902SOL     OW15379   5.421   2.667   5.411  0.6002 -0.0722  0.1063
 3902SOL    HW215380   5.341   2.641   5.366  0.4058 -1.0001  0.9451
 3902SOL    HW315381   5.468   2.722   5.348 -0.3839 -0.0585 -0.6322
 3902SOL    MW415382   5.417   2.671   5.397 -0.2340 -0.4953 -0.2408
 3903SOL     OW15383   3.265   1.009   0.491  0.3039  0.1038 -0.6588
 3903SOL    HW215384   3.344   0.986   0.540  1.0985  2.3469 -0.7782
 3903SOL    HW315385   3.295   1.071   0.425 -1.5777  1.0742 -0.6620
 3903SOL    MW415386   3.279   1.014   0.489  0.2195  0.9039 -0.1808
 3904SOL     OW15387   1.726   4.240   2.306  0.6558 -0.1923  0.0832
 3904SOL    HW215388   1.673   4.173   2.264 -1.0464  1.2987 -0.2589
 3904SOL    HW315389   1.708   4.232   2.399  2.7863 -2.0941  0.4320
 3904SOL    MW415390   1.717   4.230   2.313 -0.3369  0.8356  0.0406
 3905SOL     OW15391   2.226   2.370   3.661  0.1851  0.1344  0.3503
 3905SOL    HW215392   2.152   2.430   3.646 -1.7165 -1.9539  0.7754
 3905SOL    HW315393   2.287   2.390   3.590 -0.9358  1.7439 -0.2266
 3905SOL    MW415394   2.224   2.381   3.649 -0.1021 -0.2233 -0.2265
 3906SOL     OW15395   4.086   3.856   3.491 -0.0111 -0.0968  0.2816
 3906SOL    HW215396   4.061   3.794   3.422 -0.1669 -0.0852  0.3270
 3906SOL    HW315397   4.008   3.912   3.502  0.3022  0.4282 -0.1069
 3906SOL    MW415398   4.072   3.855   3.483  0.5918  0.4348 -0.5492
 3907SOL     OW15399   4.367   4.078   1.337 -0.6641 -1.0785 -0.0033
 3907SOL    HW215400   4.279   4.074   1.375 -0.6607 -2.1571 -0.0929
 3907SOL    HW315401   4.424   4.037   1.402 -0.7104 -3.2746 -1.2588
 3907SOL    MW415402   4.363   4.072   1.351 -0.2849  0.1606 -0.3683
 3908SOL     OW15403   1.365   1.147   3.742  0.5264  0.7983 -0.3155
 3908SOL    HW215404   1.294   1.208   3.724  1.0212  0.9751 -1.7987
 3908SOL    HW315405   1.380   1.154   3.836 -3.2597 -1.2923  0.6325
 3908SOL    MW415406   1.358   1.156   3.752 -0.5106  0.8489 -0.1431
 3909SOL     OW15407   1.494   3.389   4.249  0.0244 -0.2272 -0.1657
 3909SOL    HW215408   1.423   3.339   4.210 -0.5293  1.2146 -1.0398
 3909SOL    HW315409   1.500   3.355   4.339 -1.4536 -0.6939 -0.2182
 3909SOL    MW415410   1.485   3.378   4.256  0.0761 -0.2451  0.5367
 3910SOL     OW15411   5.058   2.916   4.071 -0.1756 -0.7079 -0.1352
 3910SOL    HW215412   5.142   2.954   4.094 -0.7559  0.4121  0.1911
 3910SOL    HW315413   5.061   2.905   3.976  0.0251  0.1061 -0.2273
 3910SOL    MW415414   5.069   2.919   4.062 -0.0027  0.0619  0.3894
 3911SOL     OW15415   1.807   5.784   6.309 -0.6426 -0.0448  0.5614
 3911SOL    HW215416   1.822   5.839   6.232  2.2227  0.3831  1.2857
 3911SOL    HW315417   1.823   5.695   6.277 -0.5539  0.0268  0.3988
 3911SOL    MW415418   1.811   5.779   6.294  0.6085  0.1540  0.4961
 3912SOL     OW15419   4.430   1.121   4.036 -0.4450 -0.2503 -0.1930
 3912SOL    HW215420   4.480   1.048   4.000  0.6272 -0.4936  1.6371
 3912SOL    HW315421   4.464   1.198   3.990  0.7053 -0.5647  0.0936
 3912SOL    MW415422   4.441   1.122   4.025  0.6696  0.2245 -0.0167
 3913SOL     OW15423   2.560   3.941   2.174  0.1405 -0.3427  0.0986
 3913SOL    HW215424   2.516   3.865   2.137 -2.1362  0.5063  0.8782
 3913SOL    HW315425   2.647   3.940   2.135 -0.7567 -1.7699 -2.0326
 3913SOL    MW415426   2.566   3.931   2.164 -0.1022  0.0613  0.0595
 3914SOL     OW15427   5.593   0.761   4.055  0.2765  0.5631  0.0767
 3914SOL    HW215428   5.672   0.740   4.106  0.0865 -1.5496 -0.4115
 3914SOL    HW315429   5.522   0.716   4.100 -0.7614  2.7259  0.6988
 3914SOL    MW415430   5.594   0.752   4.067 -0.5271  0.3542  0.8116
 3915SOL     OW15431   5.875   3.244   0.653  0.2791  0.7828  0.4555
 3915SOL    HW215432   5.905   3.312   0.714  0.8062 -0.5314  1.7269
 3915SOL    HW315433   5.956   3.204   0.620  0.0003 -0.6219  1.3838
 3915SOL    MW415434   5.889   3.248   0.657 -0.3578  0.6206  0.0860
 3916SOL     OW15435   4.409   5.233   2.151  0.6169 -0.2052 -0.4535
 3916SOL    HW215436   4.395   5.260   2.061  0.8549  0.0826 -0.4021
 3916SOL    HW315437   4.341   5.167   2.167 -0.4321  0.8699 -0.3490
 3916SOL    MW415438   4.398   5.228   2.141  0.4088 -0.2767 -0.4710
 3917SOL     OW15439   5.964   3.130   5.278  0.4079  0.2872  0.2213
 3917SOL    HW215440   6.016   3.209   5.293  0.9775 -0.0994  0.3102
 3917SOL    HW315441   5.889   3.140   5.337  1.1751  0.1259  1.2573
 3917SOL    MW415442   5.961   3.142   5.288 -0.2144 -0.0734 -0.4220
 3918SOL     OW15443   3.682   2.196   5.939  0.6939  0.3409 -0.8032
 3918SOL    HW215444   3.673   2.150   5.856  2.3071  0.0096 -0.8152
 3918SOL    HW315445   3.630   2.144   6.001  2.3277 -1.4763 -0.8534
 3918SOL    MW415446   3.674   2.183   5.936 -0.2688  0.3372 -0.7083
 3919SOL     OW15447   5.858   1.854   3.505  0.4611  0.4815 -0.0574
 3919SOL    HW215448   5.912   1.916   3.456  0.3439  0.3746 -0.3257
 3919SOL    HW315449   5.902   1.844   3.589 -0.2947  2.0703  0.5729
 3919SOL    MW415450   5.871   1.861   3.510  0.8175 -0.4726 -0.0904
 3920SOL     OW15451   5.879   3.792   4.498  0.0495 -0.0560  0.0668
 3920SOL    HW215452   5.806   3.827   4.447  0.3929  0.5927  0.0104
 3920SOL    HW315453   5.936   3.749   4.433 -0.7308 -1.3995  0.2215
 3920SOL    MW415454   5.877   3.791   4.483  0.7290 -0.5315 -0.1495
 3921SOL     OW15455   5.585   3.873   0.882  0.5129 -0.0211  0.3516
 3921SOL    HW215456   5.497   3.892   0.915  0.1231 -3.6985  1.9240
 3921SOL    HW315457   5.570   3.814   0.808  1.6626  0.0479  0.0492
 3921SOL    MW415458   5.572   3.868   0.876 -0.1784 -0.6435  0.3120
 3922SOL     OW15459   1.009   5.962   4.731 -0.4100 -0.2463  0.4143
 3922SOL    HW215460   0.956   6.041   4.745  0.5906  0.4864  0.1639
 3922SOL    HW315461   0.957   5.908   4.672 -1.6037 -0.2859  1.4485
 3922SOL    MW415462   0.995   5.965   4.725  0.5993 -0.3910  0.1288
 3923SOL     OW15463   0.518   4.548   1.819  0.2027 -0.8034  0.2624
 3923SOL    HW215464   0.491   4.596   1.897  1.3229  1.2126 -0.5207
 3923SOL    HW315465   0.471   4.465   1.825 -1.3467  0.1177  2.0073
 3923SOL    MW415466   0.508   4.544   1.830 -0.1803  0.4535  0.3952
 3924SOL     OW15467   2.116   4.711   6.285 -0.2068  0.2277  0.3211
 3924SOL    HW215468   2.076   4.629   6.257 -0.2697  0.4120 -0.1484
 3924SOL    HW315469   2.113   4.709   6.380 -0.9608  0.0547  0.2952
 3924SOL    MW415470   2.111   4.700   6.294 -0.2617  0.1525  0.0863
 3925SOL     OW15471   3.466   1.942   5.826  0.3407 -0.6736  0.1105
 3925SOL    HW215472   3.401   1.990   5.878  0.4164  1.7005 -1.8108
 3925SOL    HW315473   3.418   1.910   5.750  0.8520 -1.4566  0.1015
 3925SOL    MW415474   3.451   1.944   5.823  0.5132 -0.3874  0.2201
 3926SOL     OW15475   4.083   1.703   1.809  0.0394  1.1142  0.0540
 3926SOL    HW215476   4.120   1.791   1.814 -0.8191  1.6470 -1.8325
 3926SOL    HW315477   4.018   1.700   1.879 -1.6284  2.9100 -1.2894
 3926SOL    MW415478   4.080   1.714   1.819  0.2642 -0.1653 -0.3237
 3927SOL     OW15479   2.646   2.764   3.146 -0.3525  0.6988 -0.3932
 3927SOL    HW215480   2.716   2.727   3.091 -1.5204 -0.0501 -1.4324
 3927SOL    HW315481   2.587   2.806   3.084 -0.2660  2.3537  0.5779
 3927SOL    MW415482   2.648   2.765   3.131 -0.3706 -0.0776  0.2919
 3928SOL     OW15483   0.506   5.553   3.290 -0.6350 -0.5487  0.1660
 3928SOL    HW215484   0.567   5.579   3.359 -1.0591 -0.1253  0.3841
 3928SOL    HW315485   0.549   5.580   3.209 -1.3582  1.5245  0.4039
 3928SOL    MW415486   0.520   5.560   3.288  0.4881 -0.8231  0.2137
 3929SOL     OW15487   1.451   4.406   4.234 -0.5469  0.2151 -0.0241
 3929SOL    HW215488   1.524   4.352   4.205 -0.0401  1.3688 -0.9791
 3929SOL    HW315489   1.379   4.383   4.175 -1.0590 -1.1154  1.0863
 3929SOL    MW415490   1.451   4.396   4.222  0.8073  0.4337  0.3529
 3930SOL     OW15491   3.310   0.457   2.448  0.2736  0.2520  0.8212
 3930SOL    HW215492   3.248   0.521   2.412 -0.3779 -0.7657  0.0716
 3930SOL    HW315493   3.266   0.423   2.526 -0.6252 -1.1854 -0.2448
 3930SOL    MW415494   3.296   0.461   2.453  0.1923 -0.4470 -0.2821
 3931SOL     OW15495   1.233   4.893   5.701  0.3460 -0.0076  0.1791
 3931SOL    HW215496   1.296   4.838   5.655  2.4606  0.8565  1.8364
 3931SOL    HW315497   1.152   4.841   5.703  1.5592 -2.0307 -0.3381
 3931SOL    MW415498   1.231   4.879   5.695 -0.3059  0.2075  0.0318
 3932SOL     OW15499   2.929   5.737   0.857  0.1529 -0.0735  0.7117
 3932SOL    HW215500   2.943   5.677   0.931 -0.1850 -1.5686 -0.3985
 3932SOL    HW315501   2.834   5.737   0.845  0.2426 -0.1583  0.0135
 3932SOL    MW415502   2.918   5.729   0.865  0.2033  0.0470 -0.1440
 3933SOL     OW15503   5.193   4.069   4.801  0.9213  0.4351  0.0198
 3933SOL    HW215504   5.184   4.014   4.723 -0.2561  1.7330 -0.8050
 3933SOL    HW315505   5.150   4.151   4.778  1.6011  1.2955  1.6306
 3933SOL    MW415506   5.186   4.073   4.788  0.1079 -0.1952  0.2201
 3934SOL     OW15507   6.375   4.819   4.110  0.1887  0.3280 -0.0660
 3934SOL    HW215508   6.436   4.860   4.048  0.2551  2.1265  1.1359
 3934SOL    HW315509   6.417   4.828   4.195 -0.6506 -0.6394  0.4753
 3934SOL    MW415510   6.389   4.825   4.113 -0.4376 -0.7337 -0.5091
 3935SOL     OW15511   0.927   1.567   4.319 -0.2935  0.2806  0.5214
 3935SOL    HW215512   0.915   1.630   4.248  0.5883 -1.5050 -1.3103
 3935SOL    HW315513   0.986   1.611   4.380 -0.0520  1.4094 -0.4804
 3935SOL    MW415514   0.933   1.581   4.318 -0.0098 -0.2875 -0.2233
 3936SOL     OW15515   1.008   2.849   4.947  1.0244 -0.0912  0.3181
 3936SOL    HW215516   0.920   2.813   4.958  1.0865 -0.4232 -0.2691
 3936SOL    HW315517   1.059   2.777   4.909  0.9736  0.8244 -1.5747
 3936SOL    MW415518   1.003   2.835   4.944 -0.3421 -0.7340  0.0057
 3937SOL     OW15519   1.759   6.043   5.769  0.4595 -0.2877  0.0702
 3937SOL    HW215520   1.791   6.015   5.855 -0.5591  1.2170  0.9773
 3937SOL    HW315521   1.768   6.138   5.769 -0.5646 -0.1603 -1.0574
 3937SOL    MW415522   1.764   6.052   5.780 -0.7811 -0.1519 -0.2428
 3938SOL     OW15523   1.513   1.425   0.286 -0.3656  0.6721 -0.2728
 3938SOL    HW215524   1.467   1.419   0.202 -1.4937  2.5267  0.1548
 3938SOL    HW315525   1.444   1.428   0.351  0.5095 -1.8879  0.8958
 3938SOL    MW415526   1.498   1.425   0.283  0.2646 -0.2507 -0.6385
 3939SOL     OW15527   2.988   5.899   5.269  0.1601 -0.3777 -0.2973
 3939SOL    HW215528   2.931   5.827   5.242 -0.2272  0.5676 -2.1127
 3939SOL    HW315529   2.936   5.978   5.254  1.0101  0.3670  0.5535
 3939SOL    MW415530   2.973   5.900   5.264 -0.1499 -0.1565  0.3049
 3940SOL     OW15531   2.927   3.698   1.915  0.2214 -0.2308  0.4691
 3940SOL    HW215532   2.909   3.663   1.828 -1.0656  1.4240  0.0158
 3940SOL    HW315533   3.011   3.743   1.906 -0.0769  0.2446 -0.0520
 3940SOL    MW415534   2.936   3.700   1.902  0.1270 -0.4876 -0.2336
 3941SOL     OW15535   1.222   4.914   2.812 -0.0507 -0.1071 -0.2293
 3941SOL    HW215536   1.213   4.932   2.718  0.0036 -1.3779 -0.4998
 3941SOL    HW315537   1.294   4.851   2.817  1.8974  2.0758  0.9547
 3941SOL    MW415538   1.230   4.908   2.800 -0.2057 -0.7424 -0.4007
 3942SOL     OW15539   1.969   2.089   4.641  0.8207 -0.1424  0.5093
 3942SOL    HW215540   1.920   2.125   4.715  0.4816 -0.3379  0.3877
 3942SOL    HW315541   1.988   2.164   4.586  0.2614 -0.1239  0.3376
 3942SOL    MW415542   1.965   2.104   4.644  0.2160  0.3728 -0.5064
 3943SOL     OW15543   5.421   5.351   5.046 -0.3376  0.5486 -0.0494
 3943SOL    HW215544   5.444   5.442   5.030  1.1189  0.1246 -0.5939
 3943SOL    HW315545   5.490   5.319   5.104  1.0039 -0.9884 -2.3319
 3943SOL    MW415546   5.433   5.359   5.051  0.3794  0.2304  0.2800
 3944SOL     OW15547   3.816   2.146   5.299  0.6938 -0.1642 -0.5438
 3944SOL    HW215548   3.791   2.232   5.331 -0.5361  0.2238 -2.4142
 3944SOL    HW315549   3.819   2.155   5.204 -1.5416 -2.6585 -0.9764
 3944SOL    MW415550   3.813   2.158   5.291 -0.2653  0.1389 -0.6891
 3945SOL     OW15551   6.213   5.830   1.049 -0.0999  0.2167 -0.2646
 3945SOL    HW215552   6.281   5.773   1.014 -0.6805 -1.1172  0.7060
 3945SOL    HW315553   6.164   5.775   1.110 -2.1496  1.0981 -1.0228
 3945SOL    MW415554   6.216   5.816   1.053  0.1215  0.1943  0.1811
 3946SOL     OW15555   1.296   0.717   0.303  0.1921  0.9229 -0.2318
 3946SOL    HW215556   1.341   0.641   0.341 -1.4212  0.5021  0.9328
 3946SOL    HW315557   1.354   0.746   0.232  0.9117 -1.3166 -0.6418
 3946SOL    MW415558   1.310   0.711   0.298 -0.1460  0.4660  0.0302
 3947SOL     OW15559   0.579   4.316   0.724 -0.1048  0.8731  0.2264
 3947SOL    HW215560   0.633   4.246   0.686 -0.4163  0.6384  0.2169
 3947SOL    HW315561   0.519   4.271   0.783  0.2198  1.2158  0.8249
 3947SOL    MW415562   0.579   4.301   0.727  0.1220 -0.5213 -0.2441
 3948SOL     OW15563   0.605   1.123   5.601 -0.4224 -0.0661 -0.0089
 3948SOL    HW215564   0.660   1.182   5.549 -0.3042 -1.6345 -1.7675
 3948SOL    HW315565   0.623   1.147   5.692  3.1022 -0.4030 -0.4714
 3948SOL    MW415566   0.615   1.134   5.606  0.0629  0.3647  0.1035
 3949SOL     OW15567   4.632   4.176   4.828  0.3038  0.4161  0.3486
 3949SOL    HW215568   4.536   4.183   4.832  0.0463 -1.9880  0.2848
 3949SOL    HW315569   4.648   4.128   4.746  1.6616  1.6847 -0.1678
 3949SOL    MW415570   4.621   4.171   4.817  0.0837  0.1492  0.2788
 3950SOL     OW15571   4.097   4.729   2.756  0.0400  0.7229  0.6377
 3950SOL    HW215572   4.012   4.729   2.712 -0.4738  1.0932  1.6168
 3950SOL    HW315573   4.154   4.680   2.696 -1.4183 -1.6542  1.0557
 3950SOL    MW415574   4.093   4.722   2.742 -0.0983 -0.0247 -0.4901
 3951SOL     OW15575   2.177   1.585   0.339 -0.0772 -0.0028  0.1788
 3951SOL    HW215576   2.085   1.590   0.365  0.5370  1.6647  2.3604
 3951SOL    HW315577   2.180   1.632   0.255 -1.4851 -1.9226 -1.0344
 3951SOL    MW415578   2.165   1.592   0.331  0.2204  0.5035  0.0101
 3952SOL     OW15579   5.378   2.305   4.249 -0.1452  0.4496 -0.0140
 3952SOL    HW215580   5.441   2.376   4.253  0.5658 -0.1498 -0.1903
 3952SOL    HW315581   5.309   2.329   4.310  1.1115  0.3100  1.5206
 3952SOL    MW415582   5.377   2.317   4.257  0.2750  0.2791 -0.4911
 3953SOL     OW15583   5.687   3.138   0.431  0.2319 -0.0188  0.0540
 3953SOL    HW215584   5.729   3.196   0.495 -0.3172  1.0293 -0.5008
 3953SOL    HW315585   5.594   3.161   0.435  0.1156 -0.3097 -0.7211
 3953SOL    MW415586   5.681   3.149   0.440  0.5043 -0.0345 -0.2288
 3954SOL     OW15587   1.061   2.965   0.771 -0.3218 -0.1384  0.1406
 3954SOL    HW215588   0.988   2.980   0.710 -0.6005 -2.3855 -0.1529
 3954SOL    HW315589   1.134   2.940   0.714 -0.6243 -2.4029  0.6773
 3954SOL    MW415590   1.061   2.964   0.755  0.1451  0.2496  0.1872
 3955SOL     OW15591   2.173   6.326   2.065 -0.7128  0.3796  0.3581
 3955SOL    HW215592   2.175   6.410   2.111 -1.1647 -0.2728  1.6125
 3955SOL    HW315593   2.265   6.301   2.057 -0.5819  0.9447  0.0547
 3955SOL    MW415594   2.185   6.334   2.070 -0.1799  0.0371  0.2252
 3956SOL     OW15595   5.091   0.220   2.072 -0.2518 -0.9996  0.0211
 3956SOL    HW215596   5.138   0.263   2.143 -1.7910 -0.5193  0.8051
 3956SOL    HW315597   5.148   0.148   2.045  1.1637 -0.1004  0.5074
 3956SOL    MW415598   5.104   0.216   2.078 -0.4045 -0.5199 -0.1177
 3957SOL     OW15599   1.732   4.669   5.303 -0.4905  0.1000 -0.1298
 3957SOL    HW215600   1.746   4.644   5.394 -1.1423 -0.7580 -0.2526
 3957SOL    HW315601   1.816   4.651   5.260  0.4247  2.2106  0.6191
 3957SOL    MW415602   1.745   4.663   5.309 -0.0823  0.1399  0.0109
 3958SOL     OW15603   5.761   4.010   6.392 -0.0113  0.1113 -0.2824
 3958SOL    HW215604   5.817   4.080   6.360  0.3489  0.1991  0.5135
 3958SOL    HW315605   5.715   3.979   6.315  2.2536 -1.0058 -1.2664
 3958SOL    MW415606   5.762   4.015   6.378  0.2131  0.0490 -0.1028
 3959SOL     OW15607   1.415   3.853   2.565 -0.2824 -0.0800  0.0812
 3959SOL    HW215608   1.503   3.891   2.575  0.1859 -1.4309  1.6067
 3959SOL    HW315609   1.403   3.844   2.471  1.8360 -1.1469 -0.1488
 3959SOL    MW415610   1.425   3.857   2.554 -0.1109  0.0503 -0.2887
 3960SOL     OW15611   0.077   0.803   2.635  0.3957 -0.1242  0.1359
 3960SOL    HW215612   0.048   0.870   2.696 -0.6074 -1.1554  0.8493
 3960SOL    HW315613  -0.004   0.757   2.611  0.6746  0.5311 -2.3501
 3960SOL    MW415614   0.062   0.805   2.640  0.1878  0.4190  0.2595
 3961SOL     OW15615   2.335   4.434   2.944 -0.1662 -0.4997  0.1232
 3961SOL    HW215616   2.341   4.368   3.013 -1.3894  0.1252  0.8567
 3961SOL    HW315617   2.241   4.452   2.935  0.0891  0.6181 -0.5553
 3961SOL    MW415618   2.323   4.428   2.952  0.3880 -0.3733 -1.2980
 3962SOL     OW15619   5.867   1.596   5.191  0.3855 -0.1222 -0.1734
 3962SOL    HW215620   5.816   1.633   5.119  2.3020 -0.0037 -1.5177
 3962SOL    HW315621   5.883   1.505   5.165 -0.7553 -0.7567  1.1769
 3962SOL    MW415622   5.862   1.589   5.178  0.0756  0.5314  0.1035
 3963SOL     OW15623   2.994   5.040   5.669 -0.1631 -0.4073 -0.2956
 3963SOL    HW215624   3.063   5.043   5.735  2.1488 -1.8774 -2.4597
 3963SOL    HW315625   3.033   5.079   5.591 -1.5485 -1.7895 -1.7703
 3963SOL    MW415626   3.008   5.046   5.667  0.3395 -0.3371  0.5671
 3964SOL     OW15627   2.414   5.788   5.847  0.0677  0.2537  0.2465
 3964SOL    HW215628   2.432   5.840   5.769  0.0619  1.7455  1.1880
 3964SOL    HW315629   2.453   5.703   5.829  0.8761  0.8561 -1.0050
 3964SOL    MW415630   2.422   5.784   5.835 -0.1169 -0.7563 -0.0323
 3965SOL     OW15631   5.915   3.477   0.853  0.2189 -0.2029 -0.4989
 3965SOL    HW215632   5.886   3.396   0.896  1.0151 -0.2399 -0.0074
 3965SOL    HW315633   5.841   3.503   0.798 -0.5278 -0.5833  0.3026
 3965SOL    MW415634   5.901   3.470   0.851  0.0466 -0.2276 -0.4559
 3966SOL     OW15635   2.423   2.666   0.678  0.6515 -0.0318  0.3030
 3966SOL    HW215636   2.440   2.757   0.701 -1.4195  0.1199  1.4789
 3966SOL    HW315637   2.330   2.664   0.654  1.1361 -1.4781 -1.7455
 3966SOL    MW415638   2.413   2.677   0.678 -0.4132 -0.3669  0.3997
 3967SOL     OW15639   3.300   1.066   4.560 -0.0232  0.2357 -0.0709
 3967SOL    HW215640   3.241   1.099   4.492 -0.4752 -1.0963 -0.3531
 3967SOL    HW315641   3.242   1.042   4.632  0.0740 -1.7101 -0.6081
 3967SOL    MW415642   3.285   1.068   4.561  0.3698 -0.2588  0.7884
 3968SOL     OW15643   3.668   0.869   1.560  0.2284  0.1085  0.1489
 3968SOL    HW215644   3.718   0.791   1.536 -1.5194 -0.9113 -0.3839
 3968SOL    HW315645   3.730   0.941   1.550  1.5974 -1.0839 -0.3897
 3968SOL    MW415646   3.683   0.868   1.556 -0.0148  0.1973  0.2367
 3969SOL     OW15647   4.606   4.255   3.066  0.0588 -0.1657  0.4431
 3969SOL    HW215648   4.673   4.192   3.039  0.0325  0.6086 -1.6103
 3969SOL    HW315649   4.650   4.311   3.129  1.8059  1.0622 -1.7358
 3969SOL    MW415650   4.621   4.254   3.070  0.2084 -0.6165  0.0250
 3970SOL     OW15651   4.687   4.284   4.209  0.7461  0.2424  0.0373
 3970SOL    HW215652   4.749   4.357   4.211  0.6075  0.4397 -1.4502
 3970SOL    HW315653   4.606   4.319   4.246  0.9825  0.5409  0.2703
 3970SOL    MW415654   4.685   4.298   4.214 -0.0655 -0.2848 -0.5683
 3971SOL     OW15655   2.143   4.930   4.646  0.0218  0.2798  0.0731
 3971SOL    HW215656   2.057   4.898   4.674 -0.4019 -0.1823 -1.6722
 3971SOL    HW315657   2.171   4.988   4.717 -1.5194  0.0798  0.8837
 3971SOL    MW415658   2.135   4.934   4.659  0.0864  0.2305 -0.0575
 3972SOL     OW15659   2.166   5.142   4.240  0.4063 -0.1235  0.1471
 3972SOL    HW215660   2.261   5.129   4.244  0.5667  0.3785 -1.3985
 3972SOL    HW315661   2.137   5.079   4.173 -0.2064  0.3706 -0.0549
 3972SOL    MW415662   2.175   5.132   4.231  0.5672 -0.0003 -0.2195
 3973SOL     OW15663   3.600   5.436   4.471 -0.0138 -0.8125 -0.0177
 3973SOL    HW215664   3.541   5.442   4.546  0.9326  0.1389  0.6791
 3973SOL    HW315665   3.577   5.510   4.416  0.5227 -0.4493  0.2480
 3973SOL    MW415666   3.589   5.446   4.474 -0.0002  0.4122 -0.4054
 3974SOL     OW15667   6.207   3.701   3.839 -0.1580 -0.8222 -0.8394
 3974SOL    HW215668   6.219   3.622   3.892  2.7944 -0.0483 -0.1521
 3974SOL    HW315669   6.162   3.762   3.898  2.3521 -0.2536  0.6342
 3974SOL    MW415670   6.202   3.698   3.854  0.6831 -0.7400 -0.0942
 3975SOL     OW15671   1.620   3.999   5.494  0.2579 -0.4105  0.3729
 3975SOL    HW215672   1.702   3.958   5.467  0.2977 -0.4436  0.5426
 3975SOL    HW315673   1.639   4.093   5.496  0.2946 -0.4186  0.4167
 3975SOL    MW415674   1.633   4.006   5.491  0.7342  0.3099 -0.2476
 3976SOL     OW15675   0.971   0.510   2.349  0.3060  0.2092 -0.2924
 3976SOL    HW215676   1.008   0.436   2.397  3.0376  1.1297 -0.8280
 3976SOL    HW315677   0.965   0.480   2.259 -0.5868 -0.0235 -0.1668
 3976SOL    MW415678   0.975   0.496   2.344  0.0417  0.2794  0.3367
 3977SOL     OW15679   6.127   5.685   1.653 -0.1635  0.5528 -0.3303
 3977SOL    HW215680   6.161   5.632   1.581 -0.6484 -0.2426  0.0088
 3977SOL    HW315681   6.061   5.741   1.613  0.7419  1.3221 -0.7948
 3977SOL    MW415682   6.123   5.685   1.639  0.0979 -0.5418  0.7034
 3978SOL     OW15683   4.431   0.608   1.316  0.4754  0.4439 -0.6123
 3978SOL    HW215684   4.340   0.595   1.288  0.4959  0.2247 -0.5803
 3978SOL    HW315685   4.425   0.632   1.408  0.4572  0.2631 -0.5648
 3978SOL    MW415686   4.418   0.609   1.324 -0.1848  0.2066  0.0691
 3979SOL     OW15687   5.993   4.408   5.717 -0.0470 -0.3144  0.9331
 3979SOL    HW215688   5.972   4.360   5.797  1.5365  0.2840  1.7507
 3979SOL    HW315689   5.985   4.500   5.742 -0.5020 -0.1104  0.1012
 3979SOL    MW415690   5.989   4.414   5.731 -0.1871 -0.2571 -0.3838
 3980SOL     OW15691   5.578   5.782   5.582 -0.2788 -0.0927 -0.4711
 3980SOL    HW215692   5.528   5.735   5.649  0.8632  0.4317  0.7835
 3980SOL    HW315693   5.667   5.749   5.591 -0.0233  0.2873 -1.4720
 3980SOL    MW415694   5.583   5.772   5.592  0.5774  0.3534 -0.4208
 3981SOL     OW15695   5.871   0.515   4.044  0.2698  0.0103  0.0675
 3981SOL    HW215696   5.794   0.491   4.096 -0.4314  2.0078  0.0257
 3981SOL    HW315697   5.936   0.449   4.067 -1.9275 -2.8321 -1.2123
 3981SOL    MW415698   5.869   0.503   4.054 -0.2738 -0.1543 -0.6136
 3982SOL     OW15699   3.254   6.063   4.798  0.4795 -0.1963 -0.2330
 3982SOL    HW215700   3.206   6.005   4.857  0.8631 -0.0785  0.1957
 3982SOL    HW315701   3.316   6.005   4.753 -0.0668 -0.3544 -0.8085
 3982SOL    MW415702   3.256   6.048   4.800  0.2288 -0.0241  0.2111
 3983SOL     OW15703   0.994   6.066   3.934 -0.0921  0.5136  0.2347
 3983SOL    HW215704   1.030   6.137   3.988  0.7474 -0.4028  0.9245
 3983SOL    HW315705   0.915   6.039   3.980  0.2224  0.2273  0.6142
 3983SOL    MW415706   0.989   6.072   3.947 -0.0499  0.6198 -0.2016
 3984SOL     OW15707   1.802   0.932   1.482 -0.2797  0.1007  0.2180
 3984SOL    HW215708   1.896   0.913   1.484 -0.2571  0.1861  0.0358
 3984SOL    HW315709   1.790   1.000   1.548 -0.0641  0.7229 -0.3673
 3984SOL    MW415710   1.813   0.939   1.491  0.0983  0.0099  0.4145
 3985SOL     OW15711   3.005   4.456   4.305 -0.0439  0.5969  0.4185
 3985SOL    HW215712   3.004   4.500   4.390  1.3597  1.2567  0.1242
 3985SOL    HW315713   3.055   4.515   4.248 -1.5313  0.5159 -1.0753
 3985SOL    MW415714   3.011   4.470   4.308  0.3944  0.4630  0.6996
 3986SOL     OW15715   5.659   4.440   0.598 -0.0854  0.5048  0.2771
 3986SOL    HW215716   5.701   4.380   0.537 -0.5969  0.5244 -0.0992
 3986SOL    HW315717   5.644   4.520   0.548 -0.6069  0.4829  0.3879
 3986SOL    MW415718   5.663   4.442   0.584  0.0734 -0.4742  0.2123
 3987SOL     OW15719   5.290   6.409   6.164  0.4602 -0.4840 -0.0472
 3987SOL    HW215720   5.308   6.450   6.080 -0.3762  0.9154  0.4299
 3987SOL    HW315721   5.375   6.372   6.191  1.2320  0.8315 -0.5573
 3987SOL    MW415722   5.304   6.409   6.157 -1.2882  1.0353 -0.3556
 3988SOL     OW15723   3.626   5.480   6.288  0.4611  0.3156 -0.3529
 3988SOL    HW215724   3.577   5.398   6.285  0.3139  0.4111 -0.5514
 3988SOL    HW315725   3.606   5.517   6.373  0.2191  0.3363 -0.4188
 3988SOL    MW415726   3.617   5.474   6.299 -0.2310 -0.3731  0.3577
 3989SOL     OW15727   4.852   1.151   1.448 -0.0278 -0.5848 -0.0337
 3989SOL    HW215728   4.938   1.140   1.489 -0.1901 -1.5075  0.0858
 3989SOL    HW315729   4.812   1.064   1.453 -1.5503  0.1425  1.2221
 3989SOL    MW415730   4.858   1.138   1.454  0.2977  0.0515 -0.5158
 3990SOL     OW15731   0.415   4.058   4.150 -0.2275 -0.4638  0.2633
 3990SOL    HW215732   0.331   4.021   4.123 -0.5567 -0.1881  0.8882
 3990SOL    HW315733   0.470   4.053   4.072 -1.0257 -0.0663 -0.3364
 3990SOL    MW415734   0.411   4.053   4.136 -0.4574  0.0979  0.1731
 3991SOL     OW15735   3.871   1.304   1.625  0.1615 -0.5449 -0.0864
 3991SOL    HW215736   3.781   1.312   1.657 -0.3628 -0.5872 -1.4916
 3991SOL    HW315737   3.883   1.381   1.569  0.5312 -1.2561 -0.9913
 3991SOL    MW415738   3.861   1.315   1.622 -0.2894 -0.0739 -0.2234
 3992SOL     OW15739   4.736   3.796   5.752 -0.0869  0.0955 -0.3299
 3992SOL    HW215740   4.815   3.758   5.790  0.3825  1.1469 -0.1996
 3992SOL    HW315741   4.747   3.890   5.765 -0.7263  0.3551 -1.5392
 3992SOL    MW415742   4.748   3.804   5.758  0.1240 -0.0982  0.2519
 3993SOL     OW15743   0.109   5.874   3.685 -0.7247  0.2142  0.2446
 3993SOL    HW215744   0.023   5.878   3.644 -1.9183 -0.7504  2.5016
 3993SOL    HW315745   0.152   5.799   3.643 -1.6059 -0.2938  0.2427
 3993SOL    MW415746   0.103   5.865   3.674 -0.3926 -0.6460 -0.0532
 3994SOL     OW15747   6.403   1.508   4.492  0.1202 -0.2162  0.0468
 3994SOL    HW215748   6.399   1.448   4.567 -1.6198 -0.1045  0.1009
 3994SOL    HW315749   6.486   1.554   4.502 -0.1497 -0.0606  2.0271
 3994SOL    MW415750   6.413   1.506   4.503 -0.1029  0.4835  0.0513
 3995SOL     OW15751   3.033   1.541   2.347  0.4721  0.0385 -0.6670
 3995SOL    HW215752   3.003   1.589   2.424  0.8399  0.7384 -0.9535
 3995SOL    HW315753   2.987   1.581   2.274  0.5099 -0.2878 -0.8732
 3995SOL    MW415754   3.023   1.552   2.348  0.0695  0.8755  0.8217
 3996SOL     OW15755   1.542   1.709   4.086  0.8940  0.2433 -0.5086
 3996SOL    HW215756   1.525   1.803   4.078 -0.7926 -0.0850 -1.3312
 3996SOL    HW315757   1.576   1.698   4.174  1.0684  1.6222 -0.3783
 3996SOL    MW415758   1.544   1.720   4.096 -0.3599 -0.0022 -0.0077
 3997SOL     OW15759   2.796   1.639   3.872  0.9449 -0.0945 -0.3976
 3997SOL    HW215760   2.727   1.656   3.808  1.6782 -1.8760 -1.7492
 3997SOL    HW315761   2.791   1.544   3.888 -0.0305  0.3880  3.2177
 3997SOL    MW415762   2.786   1.629   3.866  0.4416  0.0269  0.1861
 3998SOL     OW15763   2.892   6.240   1.931  0.0209  0.0215  0.0759
 3998SOL    HW215764   2.923   6.312   1.875 -1.1949  1.0102  0.6284
 3998SOL    HW315765   2.808   6.214   1.892 -0.2773 -0.0595  0.7641
 3998SOL    MW415766   2.885   6.246   1.918  0.3328 -0.0558  0.1015
 3999SOL     OW15767   5.431   4.017   1.594 -0.0284 -0.5234  0.1834
 3999SOL    HW215768   5.515   3.974   1.579  0.4628  0.3715  0.2932
 3999SOL    HW315769   5.451   4.110   1.593 -0.7360 -0.3196  1.9426
 3999SOL    MW415770   5.445   4.024   1.592  0.6642  0.1154 -0.0965
 4000SOL     OW15771   1.859   4.417   4.253 -0.3209 -0.0440 -0.6827
 4000SOL    HW215772   1.861   4.431   4.158  0.5956  1.5847 -0.4629
 4000SOL    HW315773   1.766   4.420   4.275 -0.5969 -1.1215 -1.5923
 4000SOL    MW415774   1.847   4.419   4.243  0.1743  0.2177 -0.2698
 4001SOL     OW15775   3.138   4.380   5.355 -0.5913 -0.4301  0.2205
 4001SOL    HW215776   3.194   4.302   5.347 -0.0985 -0.1219  0.5479
 4001SOL    HW315777   3.074   4.356   5.422 -0.0088 -0.3196  0.8360
 4001SOL    MW415778   3.137   4.366   5.363 -0.0911  0.2705  0.1835
 4002SOL     OW15779   1.953   5.226   5.372 -0.2727 -0.1339 -0.2453
 4002SOL    HW215780   2.030   5.198   5.323  0.1261 -1.3723  1.0212
 4002SOL    HW315781   1.893   5.152   5.369 -1.3353  0.7224 -1.0005
 4002SOL    MW415782   1.955   5.213   5.365 -0.5034 -1.0334 -0.0129
 4003SOL     OW15783   1.625   5.274   3.533 -0.5314 -0.4150  0.3333
 4003SOL    HW215784   1.630   5.268   3.629  0.4565  1.2416  0.4166
 4003SOL    HW315785   1.613   5.367   3.516 -0.1423 -0.6309 -1.1888
 4003SOL    MW415786   1.624   5.286   3.544 -0.1835  0.1113  0.1774
 4004SOL     OW15787   5.195   3.308   2.775 -0.2763 -0.3997 -0.2685
 4004SOL    HW215788   5.148   3.322   2.692 -0.1202 -0.3230 -0.3451
 4004SOL    HW315789   5.212   3.397   2.807 -1.2604 -0.4299  0.3741
 4004SOL    MW415790   5.191   3.322   2.768  0.3678 -0.1006 -0.3671
 4005SOL     OW15791   6.312   4.741   1.044 -0.3348 -0.1320 -0.8526
 4005SOL    HW215792   6.374   4.763   1.113  1.1606  0.0130 -2.2004
 4005SOL    HW315793   6.362   4.689   0.982 -1.9639 -1.2848 -1.2681
 4005SOL    MW415794   6.327   4.737   1.045 -0.3536 -1.0006  0.5468
 4006SOL     OW15795   1.988   3.812   2.512  0.0896  0.0717  0.2570
 4006SOL    HW215796   2.032   3.888   2.474 -0.4150 -0.3751 -1.2869
 4006SOL    HW315797   2.052   3.741   2.506 -0.4392 -0.3257 -1.0432
 4006SOL    MW415798   2.002   3.812   2.506 -0.1209  0.2544  0.0171
 4007SOL     OW15799   3.999   3.649   2.045 -0.1006  0.3160 -0.0840
 4007SOL    HW215800   3.911   3.620   2.069 -0.1787  1.6514  1.4558
 4007SOL    HW315801   4.001   3.645   1.950 -1.5956 -0.3718 -0.1136
 4007SOL    MW415802   3.987   3.645   2.036  0.0223 -0.1417 -0.7658
 4008SOL     OW15803   4.265   4.780   0.365  0.5022 -0.0292  0.3814
 4008SOL    HW215804   4.178   4.740   0.370 -0.0531  0.9357 -0.9502
 4008SOL    HW315805   4.297   4.757   0.278  0.9988  0.7489  0.3485
 4008SOL    MW415806   4.258   4.771   0.355  0.1323  0.5209 -0.0587
 4009SOL     OW15807   4.154   4.569   3.993 -0.3001  0.2126 -0.5698
 4009SOL    HW215808   4.171   4.478   4.017  0.8005  0.0704 -1.7486
 4009SOL    HW315809   4.063   4.584   4.018  0.1319 -0.5082  1.6703
 4009SOL    MW415810   4.144   4.559   3.999  1.0581 -0.2626  0.4816
 4010SOL     OW15811   5.150   0.413   1.869  0.1307  0.4347 -0.0391
 4010SOL    HW215812   5.123   0.348   1.934  1.0205 -0.8484 -0.9068
 4010SOL    HW315813   5.170   0.362   1.791 -0.4597  1.9028 -1.1836
 4010SOL    MW415814   5.149   0.398   1.868 -0.4445  0.0819 -0.0282
 4011SOL     OW15815   2.481   2.752   1.154 -0.5993  0.2818  0.8605
 4011SOL    HW215816   2.545   2.692   1.115  0.3935  1.6175  0.3669
 4011SOL    HW315817   2.440   2.796   1.080 -0.6746  0.8480  1.2282
 4011SOL    MW415818   2.484   2.750   1.139 -0.4833  0.1321  0.7616
 4012SOL     OW15819   4.397   0.949   0.297  0.2796  0.1133  0.3303
 4012SOL    HW215820   4.419   0.860   0.268 -0.9640  0.2177 -1.0785
 4012SOL    HW315821   4.303   0.945   0.318 -0.2419  1.4584 -1.4753
 4012SOL    MW415822   4.387   0.937   0.296  0.1227  0.6733  0.5366
 4013SOL     OW15823   5.572   5.142   5.900  0.6914  0.1187  0.2112
 4013SOL    HW215824   5.597   5.100   5.817  0.0255  0.3156 -0.1050
 4013SOL    HW315825   5.641   5.118   5.961  0.6578 -0.9237 -0.1265
 4013SOL    MW415826   5.584   5.133   5.897  0.7088  0.1221 -0.0150
 4014SOL     OW15827   2.763   4.033   1.701 -0.2283  0.6248  0.0587
 4014SOL    HW215828   2.727   4.119   1.680  2.2748  1.4314 -1.3583
 4014SOL    HW315829   2.739   3.978   1.626 -0.4304  0.5272  0.1931
 4014SOL    MW415830   2.755   4.037   1.688  0.8064 -0.1434 -0.1075
 4015SOL     OW15831   4.913   4.753   5.082  0.1787  0.4786 -0.1271
 4015SOL    HW215832   4.943   4.743   5.173 -0.2276 -0.9237 -0.1310
 4015SOL    HW315833   4.818   4.736   5.086  0.5109 -2.0023 -1.1420
 4015SOL    MW415834   4.904   4.750   5.095 -0.2677 -0.0975 -0.6126
 4016SOL     OW15835   4.443   0.944   3.326 -0.7298  0.2720 -0.0483
 4016SOL    HW215836   4.533   0.964   3.352 -0.9784  1.1513  0.1673
 4016SOL    HW315837   4.440   0.848   3.321  0.3584  0.2475 -0.5651
 4016SOL    MW415838   4.454   0.934   3.329  0.1632 -0.3980 -0.2409
 4017SOL     OW15839   1.552   5.843   4.444 -0.5481 -0.1798 -0.4506
 4017SOL    HW215840   1.647   5.846   4.439 -0.5365 -0.6607 -0.5382
 4017SOL    HW315841   1.523   5.828   4.354 -0.7982  1.8527 -0.7512
 4017SOL    MW415842   1.561   5.841   4.432  0.2685 -0.2955  0.0893
 4018SOL     OW15843   6.133   2.787   6.126  0.6328 -0.3193 -0.1950
 4018SOL    HW215844   6.134   2.846   6.051 -0.1722 -0.1878 -0.1116
 4018SOL    HW315845   6.220   2.796   6.164  0.6773  0.4745 -0.4530
 4018SOL    MW415846   6.145   2.796   6.121  0.0169  0.0353  0.2385
 4019SOL     OW15847   0.669   6.088   0.205 -0.7258  0.0313  0.7316
 4019SOL    HW215848   0.756   6.058   0.230 -1.2452 -0.5894  1.8932
 4019SOL    HW315849   0.637   6.019   0.146  0.5046  1.5022 -1.8187
 4019SOL    MW415850   0.676   6.075   0.200  0.0913 -0.5547 -0.1685
 4020SOL     OW15851   1.257   3.228   1.334  1.0801 -0.1190  0.3532
 4020SOL    HW215852   1.291   3.174   1.406  3.8373 -0.8798 -1.3463
 4020SOL    HW315853   1.325   3.294   1.320 -0.1638  1.0226 -0.5242
 4020SOL    MW415854   1.271   3.230   1.342 -0.0230  0.0196  0.0125
 4021SOL     OW15855   5.911   5.159   5.672 -0.0160  0.5321 -0.0234
 4021SOL    HW215856   5.947   5.206   5.746  2.6565  0.7677 -1.3331
 4021SOL    HW315857   5.957   5.074   5.673 -1.1435 -0.1114 -0.4939
 4021SOL    MW415858   5.922   5.154   5.682  0.2704  0.2230  0.3542
 4022SOL     OW15859   3.156   2.345   5.332 -0.2205  0.2915 -0.1932
 4022SOL    HW215860   3.080   2.343   5.273  0.1205  0.4940 -0.6523
 4022SOL    HW315861   3.223   2.392   5.282  0.9204 -1.7095 -0.6527
 4022SOL    MW415862   3.155   2.351   5.317 -0.4578  0.5876  0.0561
 4023SOL     OW15863   5.856   2.292   1.411  0.2143  0.3048 -0.0014
 4023SOL    HW215864   5.763   2.283   1.429  0.8677 -1.2145  3.2612
 4023SOL    HW315865   5.889   2.347   1.482  1.8804  0.4520 -0.8458
 4023SOL    MW415866   5.848   2.298   1.423 -0.2208  0.2916 -1.0217
 4024SOL     OW15867   2.003   0.540   3.992 -0.1644  0.0379 -0.1101
 4024SOL    HW215868   1.928   0.564   3.937  0.7056  2.8069 -0.2513
 4024SOL    HW315869   2.072   0.517   3.929 -0.1142  0.0797 -0.0701
 4024SOL    MW415870   2.002   0.540   3.976 -0.1764 -0.2400  0.2911
 4025SOL     OW15871   5.157   6.136   0.066  0.4316 -0.3697  0.3667
 4025SOL    HW215872   5.161   6.040   0.069  0.3908 -0.3586  1.0280
 4025SOL    HW315873   5.142   6.157  -0.026  0.0565 -1.0118  0.2772
 4025SOL    MW415874   5.156   6.126   0.055  0.6450  0.4559  0.3954
 4026SOL     OW15875   5.013   5.878   6.101  0.4172 -0.1206  0.3301
 4026SOL    HW215876   5.100   5.913   6.121  0.1788 -0.2456  1.6859
 4026SOL    HW315877   5.012   5.870   6.006  1.1544  1.7576  0.1242
 4026SOL    MW415878   5.025   5.881   6.091  0.4976  0.1798 -0.1809
 4027SOL     OW15879   5.859   2.866   3.392 -0.7168 -0.0043 -0.0216
 4027SOL    HW215880   5.953   2.871   3.411 -0.7592  0.9088 -0.0120
 4027SOL    HW315881   5.817   2.894   3.473 -0.9666  0.7804 -0.4154
 4027SOL    MW415882   5.866   2.870   3.405 -0.1583  0.8923  0.0976
 4028SOL     OW15883   0.057   1.887   3.522  0.9308  0.5632  0.1924
 4028SOL    HW215884   0.084   1.851   3.437 -1.8742  0.1288 -0.5907
 4028SOL    HW315885   0.113   1.842   3.586  1.5865 -0.7475 -1.2510
 4028SOL    MW415886   0.068   1.876   3.519 -0.5468 -0.4501  0.4086
 4029SOL     OW15887   5.112   3.498   2.265  0.5046 -0.6827  0.2251
 4029SOL    HW215888   5.055   3.462   2.197  2.6381 -1.8468 -1.0585
 4029SOL    HW315889   5.111   3.432   2.334  1.4340 -1.4630 -0.4719
 4029SOL    MW415890   5.104   3.485   2.265 -0.5114 -0.5750  0.1786
 4030SOL     OW15891   3.753   2.758   4.194 -0.6464 -0.2400 -0.1221
 4030SOL    HW215892   3.836   2.788   4.156 -1.0602  0.3705 -0.5602
 4030SOL    HW315893   3.686   2.794   4.136 -1.4014  2.1739  2.0754
 4030SOL    MW415894   3.755   2.767   4.182  0.5462 -0.1779  0.2643
 4031SOL     OW15895   0.457   4.608   5.959 -0.6118 -0.5573  0.2314
 4031SOL    HW215896   0.523   4.677   5.964  0.2958 -1.3681 -0.4656
 4031SOL    HW315897   0.472   4.565   5.875 -0.7089 -2.0720  0.9539
 4031SOL    MW415898   0.467   4.612   5.949 -0.3883 -0.7088 -0.1691
 4032SOL     OW15899   0.873   0.003   2.744  0.5637 -0.1795 -0.1259
 4032SOL    HW215900   0.778   0.007   2.749  0.6044 -0.3694  2.5888
 4032SOL    HW315901   0.902   0.092   2.763  0.8883 -0.5247  1.1671
 4032SOL    MW415902   0.864   0.015   2.747 -0.0686 -0.1437 -0.4379
 4033SOL     OW15903   1.024   5.484   5.624 -0.1721 -0.4037  0.4171
 4033SOL    HW215904   0.965   5.476   5.548  0.1780  2.1186 -0.2152
 4033SOL    HW315905   0.987   5.556   5.675  1.6135  0.3508  0.6938
 4033SOL    MW415906   1.011   5.492   5.620 -0.1929 -0.2864 -0.0759
 4034SOL     OW15907   0.890   1.103   2.318  0.8534  0.3207 -0.5026
 4034SOL    HW215908   0.870   1.183   2.366 -2.0144  0.4049 -1.5790
 4034SOL    HW315909   0.866   1.032   2.378  1.7775  0.2998 -0.1521
 4034SOL    MW415910   0.884   1.104   2.332  0.2558  0.4589 -1.0391
 4035SOL     OW15911   3.650   3.298   2.329  0.5419 -0.3363  0.1907
 4035SOL    HW215912   3.725   3.252   2.366  0.0257 -1.6567 -0.3470
 4035SOL    HW315913   3.600   3.329   2.405  0.8492 -0.7583  0.5673
 4035SOL    MW415914   3.653   3.296   2.344 -0.1639  0.2795 -0.4169
 4036SOL     OW15915   2.576   4.249   3.353 -0.6425  0.2497 -0.1769
 4036SOL    HW215916   2.523   4.315   3.307 -1.3677 -0.1031  0.1358
 4036SOL    HW315917   2.616   4.297   3.425 -1.5279  0.2645  0.3174
 4036SOL    MW415918   2.574   4.264   3.356 -0.1512  0.7348  0.5081
 4037SOL     OW15919   3.308   1.895   6.197  0.2301  0.1059 -0.1937
 4037SOL    HW215920   3.223   1.939   6.200 -0.3266 -0.9618  1.6639
 4037SOL    HW315921   3.332   1.883   6.289  2.6867  0.8636 -0.6628
 4037SOL    MW415922   3.300   1.899   6.210  0.1659  0.0439  0.6349
 4038SOL     OW15923   5.017   2.457   3.363  0.2148 -0.0655 -0.4830
 4038SOL    HW215924   5.075   2.414   3.300  0.0988  0.2302 -0.7973
 4038SOL    HW315925   4.979   2.530   3.314 -0.1575 -0.0511 -0.1741
 4038SOL    MW415926   5.020   2.461   3.348  0.3894 -0.4167 -0.3925
 4039SOL     OW15927   0.797   3.249   0.246 -0.3962 -0.5698 -0.1049
 4039SOL    HW215928   0.737   3.176   0.232  0.8099 -1.2653 -2.0360
 4039SOL    HW315929   0.872   3.230   0.189 -0.0801  2.2155 -0.7529
 4039SOL    MW415930   0.799   3.237   0.236  0.2134 -0.4588 -0.4321
 4040SOL     OW15931   3.726   1.508   0.751 -0.1490 -0.0399  0.0384
 4040SOL    HW215932   3.661   1.561   0.706 -0.5796 -1.1061 -0.6333
 4040SOL    HW315933   3.676   1.456   0.814  0.1907 -0.1289  0.2408
 4040SOL    MW415934   3.711   1.508   0.754  0.5937 -0.4277  0.5270
 4041SOL     OW15935   1.714   0.537   3.555  0.2730  0.0688 -0.3099
 4041SOL    HW215936   1.720   0.471   3.486  0.3896  0.9288 -1.1595
 4041SOL    HW315937   1.635   0.587   3.533 -0.4137 -0.4472  0.9312
 4041SOL    MW415938   1.705   0.535   3.543 -0.0475  0.4006  0.3594
 4042SOL     OW15939   4.031   2.411   4.221  0.4144 -0.2674 -0.3984
 4042SOL    HW215940   4.119   2.374   4.223  0.0354 -1.4173 -2.4542
 4042SOL    HW315941   3.974   2.337   4.241 -0.1395  0.4604  0.8825
 4042SOL    MW415942   4.035   2.396   4.224  0.1629 -0.1464 -0.3068
 4043SOL     OW15943   1.918   6.135   3.400 -0.1879  0.6426 -0.6166
 4043SOL    HW215944   1.857   6.195   3.443 -1.9889 -0.6385 -1.2880
 4043SOL    HW315945   1.909   6.053   3.448 -0.1806 -0.0175 -1.7231
 4043SOL    MW415946   1.909   6.132   3.412 -0.2528  0.8290 -0.1323
 4044SOL     OW15947   5.035   1.479   3.805  0.0058 -0.0284 -0.3622
 4044SOL    HW215948   5.098   1.504   3.873  1.0370 -1.5882 -0.6789
 4044SOL    HW315949   4.963   1.437   3.853 -1.0675  2.1609  0.0426
 4044SOL    MW415950   5.034   1.476   3.820 -0.0476 -0.3312  0.3185
 4045SOL     OW15951   1.383   2.640   2.692  0.0242 -0.2460 -0.0855
 4045SOL    HW215952   1.469   2.670   2.722  0.0182 -0.4102  0.0930
 4045SOL    HW315953   1.323   2.664   2.762 -0.0660 -0.1930 -0.1800
 4045SOL    MW415954   1.386   2.647   2.705 -0.5133 -0.3192  0.0384
 4046SOL     OW15955   5.389   0.655   1.293 -0.7326 -0.3325  0.0226
 4046SOL    HW215956   5.377   0.602   1.214 -1.2077 -0.5196  0.2214
 4046SOL    HW315957   5.346   0.738   1.272  1.2817  0.5572 -0.8599
 4046SOL    MW415958   5.382   0.659   1.279  0.6607 -0.4580  0.0537
 4047SOL     OW15959   6.277   2.436   4.968 -0.9048  0.1712  0.2383
 4047SOL    HW215960   6.305   2.526   4.951 -0.4286 -0.1835 -0.9858
 4047SOL    HW315961   6.358   2.386   4.977 -1.1644 -0.1516  0.8455
 4047SOL    MW415962   6.291   2.441   4.967  0.3130 -0.4290  0.3715
 4048SOL     OW15963   1.898   2.980   5.443 -0.3453 -0.0746 -0.4588
 4048SOL    HW215964   1.971   2.943   5.491  0.5578  0.2947 -1.4976
 4048SOL    HW315965   1.866   3.052   5.498  0.0448 -0.2668  0.0220
 4048SOL    MW415966   1.903   2.985   5.456 -0.6976 -0.5005 -0.2855
 4049SOL     OW15967   1.069   3.540   0.695 -0.4590  0.5597  0.0673
 4049SOL    HW215968   0.983   3.558   0.658 -0.6230 -0.4058 -0.0565
 4049SOL    HW315969   1.129   3.539   0.620 -0.6337 -0.4471 -0.0771
 4049SOL    MW415970   1.066   3.542   0.680 -0.3847  0.4777 -0.2335
 4050SOL     OW15971   6.233   6.023   2.660  0.3821 -0.3312  0.1083
 4050SOL    HW215972   6.189   6.046   2.742  2.8506  1.4383  1.0614
 4050SOL    HW315973   6.246   5.928   2.666 -1.1107 -0.5299  0.8578
 4050SOL    MW415974   6.229   6.013   2.672  0.6942 -0.1449  0.3065
 4051SOL     OW15975   1.492   3.771   1.797 -0.2424  0.5329  0.2034
 4051SOL    HW215976   1.491   3.683   1.760  1.1331  0.8750 -0.7204
 4051SOL    HW315977   1.571   3.772   1.852 -1.0889  0.7166  1.4492
 4051SOL    MW415978   1.502   3.760   1.800 -0.1630 -0.0633 -0.2262
 4052SOL     OW15979   4.897   6.208   0.191  0.1260  0.3781  0.2832
 4052SOL    HW215980   4.913   6.162   0.273  1.6111  0.0117 -0.1875
 4052SOL    HW315981   4.963   6.174   0.131 -0.3866  1.2710 -0.8144
 4052SOL    MW415982   4.908   6.198   0.194 -1.1155  0.2453 -0.4230
 4053SOL     OW15983   2.848   4.064   3.578 -0.2357  0.5533 -0.0468
 4053SOL    HW215984   2.774   4.033   3.630  0.2458 -1.4239 -0.4642
 4053SOL    HW315985   2.853   4.003   3.505 -0.1568  2.5635 -1.8312
 4053SOL    MW415986   2.839   4.052   3.575  0.8193  0.0894 -0.4391
 4054SOL     OW15987   2.700   3.396   1.531 -0.2386 -0.2014 -0.2770
 4054SOL    HW215988   2.786   3.356   1.518 -0.4404 -0.7985  0.2235
 4054SOL    HW315989   2.638   3.336   1.490 -0.4132  0.3272 -0.8167
 4054SOL    MW415990   2.703   3.383   1.524 -0.2866  0.7003 -0.3379
 4055SOL     OW15991   2.843   6.256   2.459  0.7517 -0.1951  0.4534
 4055SOL    HW215992   2.850   6.160   2.465 -0.0815 -0.4141 -1.3069
 4055SOL    HW315993   2.808   6.283   2.544  2.6127 -1.2330  1.6178
 4055SOL    MW415994   2.839   6.247   2.471 -0.3795 -0.0397 -0.3076
 4056SOL     OW15995   5.708   1.765   0.210  0.0015  0.1292 -0.3990
 4056SOL    HW215996   5.645   1.721   0.152 -1.9819  0.6602  1.2495
 4056SOL    HW315997   5.684   1.857   0.205  0.4268  0.2968  0.5360
 4056SOL    MW415998   5.697   1.771   0.201 -0.6564 -0.3372  0.1604
 4057SOL     OW15999   6.267   0.975   4.913 -0.1230 -0.3603 -0.6434
 4057SOL    HW216000   6.217   0.928   4.980 -4.2827 -0.9606 -3.7723
 4057SOL    HW316001   6.327   0.910   4.877  0.6320 -0.6031  0.9629
 4057SOL    MW416002   6.269   0.960   4.917  0.2661  0.1208  0.1007
 4058SOL     OW16003   1.158   2.357   6.033  0.3388  0.4951 -0.1067
 4058SOL    HW216004   1.131   2.408   6.109 -0.6881 -0.2205  0.0226
 4058SOL    HW316005   1.171   2.422   5.964 -1.1927  0.9230 -0.0183
 4058SOL    MW416006   1.156   2.372   6.034  0.1144  0.5485 -0.5800
 4059SOL     OW16007   5.045   0.063   4.427 -0.2158  0.2269  0.4512
 4059SOL    HW216008   5.129   0.107   4.415 -0.1159  0.2364  1.1225
 4059SOL    HW316009   4.980   0.125   4.394 -0.0627  0.8045  1.2129
 4059SOL    MW416010   5.048   0.077   4.421 -0.3541 -0.3002  0.3109
 4060SOL     OW16011   4.268   0.383   4.878 -0.0493 -0.3678  0.3676
 4060SOL    HW216012   4.271   0.335   4.795 -0.6591 -1.2340  0.8322
 4060SOL    HW316013   4.202   0.451   4.864 -1.5778 -1.7271  0.7469
 4060SOL    MW416014   4.260   0.386   4.865 -0.1369  0.2885  0.4507
 4061SOL     OW16015   3.542   5.515   1.400  0.4594  0.1707 -0.0702
 4061SOL    HW216016   3.507   5.492   1.487  0.2534 -0.4894 -0.3192
 4061SOL    HW316017   3.480   5.579   1.365  0.7427  0.7163  0.4197
 4061SOL    MW416018   3.529   5.520   1.407  0.2487  0.2422 -0.6980
 4062SOL     OW16019   3.504   4.679   1.061  0.2096 -0.3392 -0.3539
 4062SOL    HW216020   3.593   4.653   1.038  0.8106  1.5004 -0.2581
 4062SOL    HW316021   3.465   4.706   0.978 -0.3159 -1.2491 -0.4132
 4062SOL    MW416022   3.511   4.679   1.047  0.0528 -0.3534  0.4298
 4063SOL     OW16023   4.226   1.584   2.477  0.3137  0.3504 -0.1049
 4063SOL    HW216024   4.170   1.507   2.490  0.0749  0.4641 -0.4580
 4063SOL    HW316025   4.218   1.633   2.559 -0.9937  0.9411 -0.5688
 4063SOL    MW416026   4.218   1.580   2.490  0.1129 -0.0386  0.4313
 4064SOL     OW16027   4.798   0.182   3.122 -0.2671  0.4506 -0.3489
 4064SOL    HW216028   4.844   0.209   3.201 -1.9998 -0.1593  0.9432
 4064SOL    HW316029   4.779   0.089   3.135 -0.2404  0.2337 -1.6826
 4064SOL    MW416030   4.801   0.173   3.134 -0.0263 -0.0341 -0.5263
 4065SOL     OW16031   4.560   4.899   3.908  0.0504  0.2792  0.1073
 4065SOL    HW216032   4.545   4.968   3.844 -0.3494 -0.7866 -0.9759
 4065SOL    HW316033   4.558   4.818   3.858 -1.0051 -0.6550  1.5506
 4065SOL    MW416034   4.558   4.898   3.893  0.3597  0.3266  0.2042
 4066SOL     OW16035   5.659   5.250   6.402 -0.0013  0.1773 -0.5296
 4066SOL    HW216036   5.588   5.235   6.339  0.1937  0.4173 -0.8136
 4066SOL    HW316037   5.702   5.330   6.370  0.3999  0.0308 -0.3640
 4066SOL    MW416038   5.655   5.259   6.389 -0.7728  0.0699  0.0434
 4067SOL     OW16039   5.534   1.649   1.577  0.0680  0.2910  0.1916
 4067SOL    HW216040   5.475   1.709   1.531 -0.7269 -1.7537 -1.6572
 4067SOL    HW316041   5.613   1.646   1.524 -0.5678 -1.5293 -0.7441
 4067SOL    MW416042   5.536   1.657   1.564 -0.2509  0.1324 -0.2507
 4068SOL     OW16043   1.089   4.649   2.327 -0.0276  0.8353 -0.4446
 4068SOL    HW216044   1.048   4.586   2.269  0.1150  0.0862  0.2485
 4068SOL    HW316045   1.028   4.657   2.401 -0.4338  2.1274 -0.8984
 4068SOL    MW416046   1.076   4.642   2.329 -0.4150  0.1081  0.1430
 4069SOL     OW16047   1.541   4.164   3.289 -0.0768 -0.1972  0.0838
 4069SOL    HW216048   1.453   4.180   3.323 -0.3972  0.8773 -1.1626
 4069SOL    HW316049   1.564   4.245   3.242  0.8564 -1.0974 -1.0928
 4069SOL    MW416050   1.533   4.177   3.287  0.0421  0.0620 -0.0328
 4070SOL     OW16051   5.748   1.478   4.608  0.5109  0.0873  0.3831
 4070SOL    HW216052   5.697   1.409   4.565 -1.8550  2.0585 -0.1683
 4070SOL    HW316053   5.770   1.441   4.693  0.2873 -1.7407 -0.3001
 4070SOL    MW416054   5.744   1.464   4.613 -0.5463 -0.1983  0.3671
 4071SOL     OW16055   3.573   3.928   1.280 -0.1614 -0.4684 -0.0520
 4071SOL    HW216056   3.590   3.973   1.198 -0.2219  0.1213  0.2505
 4071SOL    HW316057   3.660   3.907   1.314 -0.1347 -0.6432 -0.2267
 4071SOL    MW416058   3.587   3.931   1.274 -0.2782  0.7829 -0.1127
 4072SOL     OW16059   5.110   1.507   0.715  0.2847  0.0378  0.1799
 4072SOL    HW216060   5.194   1.516   0.760  1.0004  1.7907 -1.3857
 4072SOL    HW316061   5.133   1.466   0.631 -0.9950 -2.9935  1.1461
 4072SOL    MW416062   5.124   1.503   0.710 -0.3986 -0.4072 -0.1273
 4073SOL     OW16063   4.071   3.588   5.956 -0.2947 -0.1972  0.2046
 4073SOL    HW216064   3.980   3.560   5.971 -0.5385  0.3026 -0.3090
 4073SOL    HW316065   4.115   3.568   6.038 -0.9663 -0.0800  0.6075
 4073SOL    MW416066   4.065   3.582   5.969 -0.0174 -0.0971  0.0885
 4074SOL     OW16067   2.958   5.550   2.189 -0.3211 -0.1935  0.2287
 4074SOL    HW216068   3.005   5.633   2.176 -0.5202 -0.3340 -1.7042
 4074SOL    HW316069   3.025   5.483   2.180 -0.7046 -0.3719 -2.1094
 4074SOL    MW416070   2.973   5.552   2.186 -0.1833 -0.1737  0.0605
 4075SOL     OW16071   3.292   3.812   2.773  0.8556 -0.1999 -0.0750
 4075SOL    HW216072   3.222   3.825   2.836  0.7684  0.8941 -0.3815
 4075SOL    HW316073   3.364   3.866   2.806  0.2726  1.6813 -1.7212
 4075SOL    MW416074   3.292   3.821   2.786 -0.0416 -0.3988 -0.3573
 4076SOL     OW16075   4.060   4.251   3.726  0.2615 -0.1011 -0.0238
 4076SOL    HW216076   4.045   4.172   3.779 -0.5725  2.2047  3.5516
 4076SOL    HW316077   4.153   4.271   3.738  1.1562 -1.7854 -3.0951
 4076SOL    MW416078   4.070   4.243   3.735 -0.3919  0.1520 -0.1391
 4077SOL     OW16079   5.035   0.491   4.479  0.0116 -0.3429  0.3893
 4077SOL    HW216080   5.124   0.465   4.452  0.1946  0.1849  0.4759
 4077SOL    HW316081   5.001   0.540   4.404 -1.1470 -2.5919 -0.6774
 4077SOL    MW416082   5.042   0.494   4.465 -0.0553  0.2018 -0.1305
 4078SOL     OW16083   3.524   3.967   5.196 -0.5933  0.0345 -0.1935
 4078SOL    HW216084   3.499   4.035   5.134 -2.4066 -1.0088 -0.6512
 4078SOL    HW316085   3.511   4.007   5.282  0.1968  0.8753 -0.4445
 4078SOL    MW416086   3.519   3.981   5.200 -0.0465  0.0319  0.6174
 4079SOL     OW16087   2.769   2.233   5.477 -0.2141 -0.0480 -0.2302
 4079SOL    HW216088   2.848   2.257   5.524 -1.0784  0.7814  0.8307
 4079SOL    HW316089   2.698   2.269   5.529 -1.3521 -1.5307 -0.6867
 4079SOL    MW416090   2.770   2.241   5.490  0.0178 -0.3144  0.5390
 4080SOL     OW16091   1.359   2.566   0.547 -0.0363 -0.2009 -0.1353
 4080SOL    HW216092   1.323   2.560   0.459 -0.9482 -2.3066  0.3115
 4080SOL    HW316093   1.315   2.496   0.596  1.5411 -0.0690  1.5982
 4080SOL    MW416094   1.349   2.556   0.542 -0.3101 -0.1380  0.0736
 4081SOL     OW16095   6.229   5.417   2.026 -0.1115 -0.2172 -0.0141
 4081SOL    HW216096   6.161   5.362   2.065 -2.2611  0.4250 -2.6079
 4081SOL    HW316097   6.261   5.366   1.952  0.3897  0.5623 -0.3404
 4081SOL    MW416098   6.224   5.403   2.022  0.1239  0.3937 -0.0833
 4082SOL     OW16099   3.098   5.893   3.520 -0.0644 -0.3094  0.0772
 4082SOL    HW216100   3.138   5.904   3.433 -0.3814  0.2301 -0.0042
 4082SOL    HW316101   3.139   5.814   3.555 -0.4060 -0.9094 -0.8343
 4082SOL    MW416102   3.109   5.884   3.513 -0.0245  0.3218 -0.5021
 4083SOL     OW16103   2.425   2.623   1.782  0.0334 -0.2765 -0.4458
 4083SOL    HW216104   2.362   2.631   1.710  1.1536 -0.6992 -1.5219
 4083SOL    HW316105   2.510   2.617   1.738  0.6649 -1.5388  0.8769
 4083SOL    MW416106   2.428   2.623   1.766 -0.0729  0.0491 -0.3053
 4084SOL     OW16107   4.036   0.096   1.409 -0.3266  0.1559  0.1659
 4084SOL    HW216108   4.059   0.011   1.446  0.8763 -0.4710 -1.8713
 4084SOL    HW316109   4.012   0.077   1.319  0.7677  2.0648 -0.5843
 4084SOL    MW416110   4.036   0.083   1.402 -0.0731  0.2134 -0.0520
 4085SOL     OW16111   1.142   3.080   2.243  0.4742  0.6553 -0.6826
 4085SOL    HW216112   1.209   3.083   2.310  0.9850  2.2977 -1.2255
 4085SOL    HW316113   1.090   3.160   2.257 -1.2806 -0.4799 -0.3830
 4085SOL    MW416114   1.144   3.091   2.253 -0.0633 -0.6364  0.1878
 4086SOL     OW16115   2.189   6.202   6.197  0.0853 -0.0845  0.3234
 4086SOL    HW216116   2.262   6.216   6.136  0.6742  1.1515  1.2724
 4086SOL    HW316117   2.156   6.115   6.175  0.8076 -0.0089 -1.2045
 4086SOL    MW416118   2.195   6.192   6.186 -0.0826 -0.2477 -0.4333
 4087SOL     OW16119   5.130   6.384   2.825 -0.3814 -0.3638  0.0528
 4087SOL    HW216120   5.128   6.373   2.729  0.5320  0.0369 -0.0125
 4087SOL    HW316121   5.155   6.298   2.858 -0.1466 -0.3533 -0.0971
 4087SOL    MW416122   5.133   6.371   2.816  0.3084  0.4876 -0.2247
 4088SOL     OW16123   4.776   5.978   5.319  0.1955 -0.2279  0.0126
 4088SOL    HW216124   4.695   5.928   5.323  1.0206 -1.5522  0.9242
 4088SOL    HW316125   4.757   6.059   5.367 -0.3069 -0.9529  1.0591
 4088SOL    MW416126   4.763   5.982   5.326  0.5879  0.2539  0.2500
 4089SOL     OW16127   2.025   1.360   1.779 -0.3076  0.2677  0.3190
 4089SOL    HW216128   2.014   1.270   1.810  2.1355 -0.6143 -1.1022
 4089SOL    HW316129   2.116   1.382   1.799 -0.9197  2.5771  0.8934
 4089SOL    MW416130   2.036   1.351   1.786 -0.0223 -0.3444 -0.0542
 4090SOL     OW16131   3.939   2.082   2.419 -0.3267 -0.0067  0.5578
 4090SOL    HW216132   3.894   2.067   2.335  0.4818 -1.4112  0.3491
 4090SOL    HW316133   3.868   2.097   2.481 -1.0840 -1.3695  0.0756
 4090SOL    MW416134   3.924   2.082   2.416  0.0759 -0.2150 -0.1924
 4091SOL     OW16135   5.081   6.397   4.691  0.2301 -0.0910  0.2933
 4091SOL    HW216136   5.051   6.399   4.600 -0.1916 -0.9250  0.4055
 4091SOL    HW316137   5.176   6.391   4.685  0.1544 -1.0499 -0.1109
 4091SOL    MW416138   5.089   6.396   4.678  0.2129 -0.4036  0.4911
 4092SOL     OW16139   1.682   0.960   3.016 -0.3850 -0.3822  0.2844
 4092SOL    HW216140   1.601   0.939   2.970 -1.1737  1.2879  0.8297
 4092SOL    HW316141   1.681   1.056   3.024  1.0867 -0.4180  1.3050
 4092SOL    MW416142   1.672   0.970   3.011  0.9273 -0.2029  0.2580
 4093SOL     OW16143   0.869   5.309   5.374  0.2318 -0.4549 -0.2720
 4093SOL    HW216144   0.827   5.269   5.298 -0.8530  1.8015 -0.9447
 4093SOL    HW316145   0.921   5.238   5.413 -0.3768 -2.0652 -2.2249
 4093SOL    MW416146   0.871   5.294   5.369 -0.0363  0.0584 -0.1893
 4094SOL     OW16147   2.438   3.864   2.449  0.1670 -0.0517 -0.7574
 4094SOL    HW216148   2.474   3.909   2.373 -1.1829  1.7071 -0.4402
 4094SOL    HW316149   2.363   3.918   2.475  0.4591 -0.7022  1.6981
 4094SOL    MW416150   2.433   3.877   2.442  0.1173  0.3275  0.0824
 4095SOL     OW16151   2.457   4.008   3.450 -0.1664 -0.2971 -0.2364
 4095SOL    HW216152   2.413   4.051   3.377  0.8730 -0.8530 -1.2289
 4095SOL    HW316153   2.522   4.072   3.479 -0.1920 -0.2965 -0.1802
 4095SOL    MW416154   2.460   4.022   3.444 -0.6268 -0.1065 -0.1392
 4096SOL     OW16155   5.922   4.598   2.049  0.3865  0.3528 -0.3822
 4096SOL    HW216156   5.826   4.595   2.057  0.4630 -0.8202  0.4532
 4096SOL    HW316157   5.942   4.689   2.027 -0.8086  1.0909  1.3430
 4096SOL    MW416158   5.912   4.609   2.047 -0.1657 -0.4893  0.0473
 4097SOL     OW16159   0.967   5.436   3.414  0.8800  0.1155 -0.1232
 4097SOL    HW216160   1.011   5.500   3.469  0.0038  0.3790  0.2884
 4097SOL    HW316161   0.967   5.475   3.327 -1.9060  1.9191  0.5645
 4097SOL    MW416162   0.973   5.449   3.410 -0.0109 -0.1290 -0.0145
 4098SOL     OW16163   4.182   5.182   3.842 -0.3399 -0.6542 -0.0380
 4098SOL    HW216164   4.181   5.165   3.748 -3.1931 -1.2203  0.0203
 4098SOL    HW316165   4.154   5.273   3.850  1.9017  0.0847  0.2593
 4098SOL    MW416166   4.178   5.192   3.830  0.2812  0.2740  0.0961
 4099SOL     OW16167   0.462   4.891   1.696  0.0194  0.5144 -0.0974
 4099SOL    HW216168   0.556   4.894   1.675  0.1524 -1.2445  0.0265
 4099SOL    HW316169   0.459   4.901   1.791  0.0422  0.9872 -0.1449
 4099SOL    MW416170   0.474   4.892   1.706 -0.1290 -0.0802  0.4322
 4100SOL     OW16171   2.563   2.253   2.327  0.1782  0.5823  0.1782
 4100SOL    HW216172   2.583   2.276   2.236 -0.3172 -0.0943 -0.1088
 4100SOL    HW316173   2.648   2.233   2.366  0.1627 -2.8926 -1.1915
 4100SOL    MW416174   2.577   2.254   2.320  0.5000  0.2471  0.1997
 4101SOL     OW16175   2.548   6.061   3.801  0.4793  0.0612  0.6899
 4101SOL    HW216176   2.592   6.098   3.725 -0.1741  0.9310  0.7111
 4101SOL    HW316177   2.581   6.112   3.875  0.5784 -0.3005  0.8954
 4101SOL    MW416178   2.558   6.073   3.801 -0.1755  0.6571  0.4732
 4102SOL     OW16179   5.252   4.555   4.157  0.2026 -0.0606  0.2068
 4102SOL    HW216180   5.253   4.573   4.063 -0.4355  0.4550  0.2915
 4102SOL    HW316181   5.344   4.562   4.183  0.3589 -0.0057 -0.3437
 4102SOL    MW416182   5.264   4.559   4.148  0.1021  0.3394 -0.2851
 4103SOL     OW16183   1.148   4.690   6.116  0.1152  1.0056  0.0417
 4103SOL    HW216184   1.172   4.693   6.208  1.0911 -0.9646 -0.0823
 4103SOL    HW316185   1.058   4.656   6.116  1.3331 -2.7378  0.2921
 4103SOL    MW416186   1.139   4.686   6.128  0.5248  0.1704  0.6528
 4104SOL     OW16187   0.964   5.192   3.591  0.3759 -0.0671  0.0536
 4104SOL    HW216188   1.030   5.135   3.551  0.3884 -0.5266  0.7122
 4104SOL    HW316189   0.944   5.256   3.523 -0.9775 -1.9193 -1.3799
 4104SOL    MW416190   0.970   5.193   3.576  0.6016 -0.5471  0.0625
 4105SOL     OW16191   0.423   6.033   5.364 -0.1606 -0.1538 -0.0752
 4105SOL    HW216192   0.353   6.098   5.364 -0.9074 -0.8381  2.6608
 4105SOL    HW316193   0.378   5.949   5.349  0.3038 -0.4301  0.0395
 4105SOL    MW416194   0.408   6.030   5.362 -0.1210 -0.2620 -0.0896
 4106SOL     OW16195   0.075   5.435   4.966  0.1854 -0.0503  0.0235
 4106SOL    HW216196  -0.008   5.395   4.943  0.7001 -0.8621 -0.4929
 4106SOL    HW316197   0.100   5.485   4.889 -0.3597  1.1264  0.5953
 4106SOL    MW416198   0.068   5.436   4.953  0.1281  0.1642 -0.2273
 4107SOL     OW16199   1.482   3.229   2.220  0.3647  0.2796 -0.3977
 4107SOL    HW216200   1.543   3.295   2.253 -1.4887  1.0577  1.7071
 4107SOL    HW316201   1.503   3.149   2.269 -0.2464  0.5371  0.2986
 4107SOL    MW416202   1.493   3.227   2.231  0.1748 -0.7357  0.5628
 4108SOL     OW16203   1.756   0.571   1.063  0.4616 -0.4570 -0.1172
 4108SOL    HW216204   1.724   0.481   1.053 -1.0990  0.0955 -0.3691
 4108SOL    HW316205   1.691   0.613   1.119  0.6722  0.7646 -0.7576
 4108SOL    MW416206   1.744   0.565   1.069  0.3560  0.5098  0.9562
 4109SOL     OW16207   2.349   5.484   3.574 -0.1295 -0.2836 -0.5238
 4109SOL    HW216208   2.321   5.569   3.539 -1.1049 -0.7918 -0.9985
 4109SOL    HW316209   2.378   5.504   3.663  0.8870  0.7606 -1.0561
 4109SOL    MW416210   2.349   5.498   3.581 -0.0179  0.3160  0.1973
 4110SOL     OW16211   2.303   3.645   0.117  0.0367  0.3208  0.3243
 4110SOL    HW216212   2.226   3.589   0.109  0.7783 -0.6911  0.1172
 4110SOL    HW316213   2.284   3.701   0.192 -1.4952  1.0600 -0.5614
 4110SOL    MW416214   2.290   3.645   0.126 -0.8717  0.3693  0.0108
 4111SOL     OW16215   4.211   3.510   0.567  0.2725 -0.1013  0.1958
 4111SOL    HW216216   4.179   3.585   0.618  0.3960 -0.8243  1.3605
 4111SOL    HW316217   4.284   3.546   0.515  0.1700  0.6356  0.5457
 4111SOL    MW416218   4.216   3.525   0.567 -0.1876 -0.3397  0.1330
 4112SOL     OW16219   2.408   4.130   1.435 -0.7380 -0.1882  0.3764
 4112SOL    HW216220   2.376   4.127   1.525 -0.1508  2.0160  0.7179
 4112SOL    HW316221   2.390   4.219   1.406  0.3012 -0.4528 -1.2257
 4112SOL    MW416222   2.402   4.141   1.443  0.3217 -0.8671 -0.0960
 4113SOL     OW16223   5.270   4.669   1.785 -0.1114  0.6917 -0.1287
 4113SOL    HW216224   5.264   4.594   1.844 -0.7904  1.3616  0.6782
 4113SOL    HW316225   5.191   4.663   1.731  0.5485  0.0344 -1.0507
 4113SOL    MW416226   5.258   4.658   1.786 -0.2782  0.5330 -0.1555
 4114SOL     OW16227   4.720   5.403   3.109  0.4860 -0.4945  0.3109
 4114SOL    HW216228   4.749   5.452   3.185  2.1445 -0.5181 -0.2710
 4114SOL    HW316229   4.632   5.372   3.132 -0.2456  1.9161  1.0695
 4114SOL    MW416230   4.712   5.406   3.122 -0.1083 -0.3599 -0.2028
 4115SOL     OW16231   0.536   1.951   2.515 -0.2842  0.0525 -0.6596
 4115SOL    HW216232   0.567   2.029   2.468 -0.0589  0.3824  0.0240
 4115SOL    HW316233   0.600   1.883   2.494  0.6946  0.6224  0.4234
 4115SOL    MW416234   0.548   1.952   2.506  0.0593  1.1535  0.4235
 4116SOL     OW16235   3.562   0.589   0.792  0.3339 -0.5792 -0.1833
 4116SOL    HW216236   3.605   0.536   0.725  0.9693  0.5434 -0.7002
 4116SOL    HW316237   3.605   0.674   0.786  0.1626 -0.3411  1.4209
 4116SOL    MW416238   3.573   0.593   0.782  0.1545 -0.0773 -0.4717
 4117SOL     OW16239   0.910   4.473   0.079 -0.1229 -0.4264  0.2470
 4117SOL    HW216240   0.851   4.434   0.144  0.1310 -1.9535 -0.4028
 4117SOL    HW316241   0.861   4.470  -0.003  0.2014 -0.0523  0.0338
 4117SOL    MW416242   0.896   4.468   0.077 -0.0420 -0.3798 -0.4057
 4118SOL     OW16243   3.892   0.076   0.033 -0.2510  0.0565  0.1639
 4118SOL    HW216244   3.855   0.158   0.066 -0.0530 -0.0933  0.7788
 4118SOL    HW316245   3.985   0.094   0.023 -0.4246  0.3274 -1.0498
 4118SOL    MW416246   3.899   0.089   0.036  0.3256  0.2568  0.5294
 4119SOL     OW16247   3.191   0.230   1.738  0.2050  0.4261  0.1981
 4119SOL    HW216248   3.254   0.297   1.764  0.9519 -0.5215  0.9119
 4119SOL    HW316249   3.223   0.198   1.653  0.0264  0.7455  0.0088
 4119SOL    MW416250   3.204   0.235   1.730 -0.2064 -0.1860  0.2198
 4120SOL     OW16251   0.279   5.669   3.628 -0.1089 -0.1022  0.2697
 4120SOL    HW216252   0.369   5.682   3.659 -0.3846  0.0757  1.0280
 4120SOL    HW316253   0.285   5.677   3.533  0.2566  2.7100  0.4380
 4120SOL    MW416254   0.292   5.672   3.620  0.7859 -0.0088 -0.0514
 4121SOL     OW16255   3.657   0.583   0.221  0.7366  0.1195  0.3386
 4121SOL    HW216256   3.619   0.578   0.133 -0.5326  3.2784  0.5695
 4121SOL    HW316257   3.727   0.647   0.213 -0.9676  2.3729  1.9922
 4121SOL    MW416258   3.661   0.591   0.208 -0.4921 -0.0184 -0.1267
 4122SOL     OW16259   5.381   6.053   3.123 -0.4995  0.2283 -0.0390
 4122SOL    HW216260   5.468   6.062   3.084 -0.3346 -0.1722  0.2257
 4122SOL    HW316261   5.364   5.959   3.122  0.1469  0.0279  2.2114
 4122SOL    MW416262   5.390   6.042   3.118 -0.2348  0.8220  0.2295
 4123SOL     OW16263   4.918   5.435   2.831  0.1315  0.6888  0.0791
 4123SOL    HW216264   4.935   5.381   2.908  2.0762 -0.3429 -0.9723
 4123SOL    HW316265   4.842   5.394   2.789  1.1786 -0.9145 -0.3525
 4123SOL    MW416266   4.910   5.423   2.836  0.1398  0.0137 -0.0429
 4124SOL     OW16267   5.046   0.275   5.521  0.1805  0.1722 -0.0568
 4124SOL    HW216268   4.982   0.321   5.576  1.1032  0.2958  0.9487
 4124SOL    HW316269   5.053   0.328   5.442 -0.7135  0.3288 -0.0419
 4124SOL    MW416270   5.038   0.288   5.518  0.2793 -0.3906 -0.4501
 4125SOL     OW16271   6.017   0.744   6.405 -0.5688  0.0337  0.0808
 4125SOL    HW216272   6.112   0.752   6.414 -0.4740  0.7518 -1.2509
 4125SOL    HW316273   6.003   0.654   6.376 -0.3824 -0.3307  1.0763
 4125SOL    MW416274   6.028   0.733   6.402  0.0306  0.5158  0.1857
 4126SOL     OW16275   5.974   5.558   5.799 -0.4790 -0.3201 -0.3149
 4126SOL    HW216276   5.927   5.601   5.871 -1.1459 -1.5547  0.0004
 4126SOL    HW316277   5.929   5.589   5.720  0.4156  1.2426 -0.2639
 4126SOL    MW416278   5.962   5.568   5.798  0.3882 -0.5823 -0.1799
 4127SOL     OW16279   2.271   4.863   3.851 -0.2458  0.2184  0.4798
 4127SOL    HW216280   2.280   4.948   3.807  0.2016  0.2856  0.6976
 4127SOL    HW316281   2.293   4.799   3.783  1.4433  0.3581  0.8531
 4127SOL    MW416282   2.275   4.866   3.836 -0.4445  0.6049 -0.6421
 4128SOL     OW16283   0.852   1.625   6.444 -0.2653  0.0466  0.2750
 4128SOL    HW216284   0.925   1.594   6.497 -0.4920 -0.0901  0.5099
 4128SOL    HW316285   0.892   1.680   6.377  0.0161  0.2687  0.6251
 4128SOL    MW416286   0.867   1.628   6.442 -0.2976 -0.0802  0.0644
 4129SOL     OW16287   3.400   5.088   5.057  0.2569 -0.2959  0.4310
 4129SOL    HW216288   3.456   5.117   5.129  0.5549 -0.8290  0.4249
 4129SOL    HW316289   3.311   5.112   5.084  0.5436  1.1925  0.1263
 4129SOL    MW416290   3.396   5.095   5.070 -0.0607 -0.5004  0.6506
 4130SOL     OW16291   1.715   5.978   3.730 -0.1472  0.1573  0.1866
 4130SOL    HW216292   1.647   6.038   3.698 -0.0679 -1.2250 -2.8996
 4130SOL    HW316293   1.666   5.903   3.766 -0.2138  0.6338  1.1341
 4130SOL    MW416294   1.699   5.976   3.731 -0.2807  0.2458 -0.2503
 4131SOL     OW16295   0.107   2.650   2.260 -0.3798  0.2485  0.2252
 4131SOL    HW216296   0.024   2.608   2.280 -0.7053  0.9833  0.4454
 4131SOL    HW316297   0.173   2.594   2.301 -0.8017 -0.0633  0.4795
 4131SOL    MW416298   0.105   2.637   2.268  0.0160  0.5592 -0.2820
 4132SOL     OW16299   5.845   0.808   1.020 -0.8433 -0.3882  0.2846
 4132SOL    HW216300   5.829   0.753   0.944 -1.8318 -1.4374  1.2264
 4132SOL    HW316301   5.866   0.747   1.090 -1.1417  0.4712  1.1455
 4132SOL    MW416302   5.846   0.793   1.019  0.4802 -0.2339  0.4537
 4133SOL     OW16303   5.423   5.764   0.699 -0.3242  0.2475 -0.3392
 4133SOL    HW216304   5.508   5.760   0.743  0.0088  0.6786 -0.9246
 4133SOL    HW316305   5.360   5.780   0.769  0.1027  0.1307  0.0738
 4133SOL    MW416306   5.426   5.765   0.714 -0.1102  0.0292 -0.1062
 4134SOL     OW16307   3.648   6.307   5.965 -0.0281  0.0821  0.0263
 4134SOL    HW216308   3.718   6.288   5.903 -1.3402 -0.1778 -1.4301
 4134SOL    HW316309   3.693   6.342   6.042  1.7979 -1.3147 -0.3398
 4134SOL    MW416310   3.663   6.309   5.967 -0.2917  0.2878 -0.7247
 4135SOL     OW16311   1.100   5.944   0.928 -0.0228 -0.5996  1.0640
 4135SOL    HW216312   1.049   6.020   0.953 -0.9175 -0.8125 -0.0210
 4135SOL    HW316313   1.053   5.907   0.853  1.5338 -1.0081  0.2385
 4135SOL    MW416314   1.088   5.949   0.921  0.4968 -0.5656  0.8972
 4136SOL     OW16315   1.241   6.324   1.012 -0.0556  0.2632  0.0921
 4136SOL    HW216316   1.313   6.388   1.009  0.3709 -0.2319 -1.2228
 4136SOL    HW316317   1.233   6.294   0.921  0.5679 -2.4381  0.8603
 4136SOL    MW416318   1.250   6.329   0.999 -0.0364  0.3805 -0.3181
 4137SOL     OW16319   3.041   3.884   3.946  0.0986  0.3300 -0.4528
 4137SOL    HW216320   2.977   3.945   3.981  0.5034  1.4753 -1.6088
 4137SOL    HW316321   3.055   3.820   4.015 -1.9893  0.2795 -0.0360
 4137SOL    MW416322   3.035   3.884   3.960  0.1857 -0.1781 -0.1177
 4138SOL     OW16323   6.279   1.383   2.567  0.2108  0.6319 -0.7831
 4138SOL    HW216324   6.299   1.476   2.578  0.2451  0.6296 -0.8272
 4138SOL    HW316325   6.355   1.338   2.603 -0.2234  0.6086  0.1267
 4138SOL    MW416326   6.292   1.389   2.573 -0.5268  0.5866  0.0178
 4139SOL     OW16327   4.912   0.966   3.890 -0.0286  0.0280  0.2514
 4139SOL    HW216328   4.976   1.026   3.927  0.5818 -0.2634 -0.3171
 4139SOL    HW316329   4.937   0.880   3.922 -1.2636  0.1143  1.5651
 4139SOL    MW416330   4.923   0.963   3.899  0.1244 -0.1410 -0.5471
 4140SOL     OW16331   1.262   0.301   3.817 -0.2196  0.3738  0.3918
 4140SOL    HW216332   1.208   0.260   3.750  0.4928 -1.2744  0.7735
 4140SOL    HW316333   1.321   0.359   3.769  0.1179 -0.6022 -0.3958
 4140SOL    MW416334   1.263   0.303   3.802  0.2443 -0.1085 -0.3716
 4141SOL     OW16335   0.284   4.396   3.781 -0.5740  0.4752  0.1332
 4141SOL    HW216336   0.350   4.327   3.785 -0.4478  0.5710 -0.2722
 4141SOL    HW316337   0.318   4.458   3.717 -1.2178  0.3460 -0.3483
 4141SOL    MW416338   0.297   4.395   3.773 -0.2791 -0.4559  0.7402
 4142SOL     OW16339   3.360   3.533   6.164  0.4819 -0.0324  0.4616
 4142SOL    HW216340   3.330   3.501   6.079 -1.3220  3.1968 -0.3078
 4142SOL    HW316341   3.454   3.546   6.153  0.6400 -1.6482 -0.3020
 4142SOL    MW416342   3.368   3.531   6.151  0.7627 -0.5716 -0.4258
 4143SOL     OW16343   1.814   6.307   5.787 -0.2660  0.0054  0.1715
 4143SOL    HW216344   1.898   6.288   5.829  0.4968  2.0865 -0.2717
 4143SOL    HW316345   1.757   6.337   5.859 -0.2435 -0.2319  0.2896
 4143SOL    MW416346   1.817   6.308   5.802 -0.2718 -0.0235 -0.3669
 4144SOL     OW16347   2.146   1.506   3.942 -0.3580 -0.3931  1.0735
 4144SOL    HW216348   2.095   1.558   4.004 -0.5567  0.3384  0.3183
 4144SOL    HW316349   2.088   1.436   3.914 -0.0360 -1.1589  2.2214
 4144SOL    MW416350   2.132   1.504   3.947  0.1816  0.6877  0.0596
 4145SOL     OW16351   6.241   2.015   4.866 -0.4883  0.0832  0.5250
 4145SOL    HW216352   6.199   1.993   4.950 -0.5494  0.5754  0.6250
 4145SOL    HW316353   6.170   2.048   4.812 -0.1843  1.2033  0.7946
 4145SOL    MW416354   6.226   2.016   4.870  0.1560  0.0088 -0.0055
 4146SOL     OW16355   4.735   3.680   2.137  0.6114  0.5245  0.7326
 4146SOL    HW216356   4.730   3.746   2.068 -1.1342  0.2437  0.5286
 4146SOL    HW316357   4.757   3.729   2.216  1.6135  0.9973  0.1723
 4146SOL    MW416358   4.737   3.695   2.139  0.5551 -0.5411  0.1785
 4147SOL     OW16359   5.290   2.392   0.382 -0.2215 -0.3937  0.0799
 4147SOL    HW216360   5.228   2.460   0.353  0.2829  0.7033  1.4789
 4147SOL    HW316361   5.376   2.425   0.355  0.0866 -0.1615  1.3080
 4147SOL    MW416362   5.293   2.406   0.374 -0.2914  0.1510 -0.5619
 4148SOL     OW16363   2.626   5.809   4.866  0.2454 -0.3373  0.8114
 4148SOL    HW216364   2.628   5.870   4.793 -0.3728 -0.1024  0.9851
 4148SOL    HW316365   2.586   5.859   4.938  1.2478 -0.4117  1.4506
 4148SOL    MW416366   2.621   5.824   4.866 -0.0114  0.0501  0.7173
 4149SOL     OW16367   2.379   4.592   6.217  0.0287  0.1572  0.2065
 4149SOL    HW216368   2.307   4.642   6.256  1.1757  0.7532  1.6990
 4149SOL    HW316369   2.360   4.591   6.124 -1.6566  0.6939  0.4983
 4149SOL    MW416370   2.367   4.599   6.210  0.1014  0.1831 -0.3886
 4150SOL     OW16371   6.035   4.613   1.143  0.0868  0.1026 -0.1317
 4150SOL    HW216372   6.113   4.667   1.136  1.2255 -1.5994 -1.0693
 4150SOL    HW316373   6.017   4.608   1.237 -1.3317  3.7614 -0.0509
 4150SOL    MW416374   6.043   4.619   1.154  0.6584  0.3572 -0.1290
 4151SOL     OW16375   4.543   1.784   4.046 -0.2704  0.3606 -0.3740
 4151SOL    HW216376   4.539   1.691   4.068 -2.0216  0.4872 -0.0014
 4151SOL    HW316377   4.455   1.817   4.065  0.5003  2.2495  0.1581
 4151SOL    MW416378   4.531   1.776   4.052 -0.6017  0.3441 -0.6414
 4152SOL     OW16379   3.764   2.908   4.832  0.5161  0.0611  0.1463
 4152SOL    HW216380   3.760   2.831   4.889  0.5653 -0.5052 -0.5993
 4152SOL    HW316381   3.841   2.894   4.777  0.4242  0.5583 -0.1154
 4152SOL    MW416382   3.773   2.896   4.832 -0.1648  0.3994  0.5656
 4153SOL     OW16383   5.420   0.459   2.556  0.6376  0.5133 -0.4962
 4153SOL    HW216384   5.499   0.462   2.611  0.5982  0.4185 -0.4338
 4153SOL    HW316385   5.434   0.383   2.499  1.2238  1.3137 -1.4449
 4153SOL    MW416386   5.433   0.449   2.556 -0.0446  0.9958  0.0368
 4154SOL     OW16387   1.794   5.063   4.812 -0.6771  0.4591  0.3144
 4154SOL    HW216388   1.787   5.101   4.900 -0.3166  0.7642  0.2100
 4154SOL    HW316389   1.717   5.096   4.765 -0.4223  0.9727  0.2554
 4154SOL    MW416390   1.783   5.072   4.818 -0.0693 -0.1996  0.0593
 4155SOL     OW16391   0.694   4.885   2.581  0.8529  0.1336  0.3483
 4155SOL    HW216392   0.726   4.970   2.613  1.2932 -0.1305  0.6133
 4155SOL    HW316393   0.718   4.883   2.489 -1.2578  1.3101 -0.3085
 4155SOL    MW416394   0.701   4.896   2.573 -0.4459 -0.2950  0.8546
 4156SOL     OW16395   3.204   2.861   0.351  0.2194  0.6412 -0.0310
 4156SOL    HW216396   3.262   2.894   0.283 -1.3603 -1.9093 -2.8890
 4156SOL    HW316397   3.116   2.869   0.314 -0.6759 -1.4696  1.4136
 4156SOL    MW416398   3.200   2.866   0.337 -0.5300  0.2989 -0.6980
 4157SOL     OW16399   0.218   5.493   2.711 -0.0168 -0.3124 -0.2569
 4157SOL    HW216400   0.275   5.553   2.759  1.3935 -1.1939 -0.7521
 4157SOL    HW316401   0.270   5.413   2.700 -0.8591 -0.7022 -1.8634
 4157SOL    MW416402   0.232   5.490   2.716  0.0141 -0.4020 -0.2124
 4158SOL     OW16403   0.689   0.588   1.187  0.8624 -0.0992  0.7334
 4158SOL    HW216404   0.720   0.661   1.134 -0.9590  0.3702  0.2639
 4158SOL    HW316405   0.638   0.628   1.258 -3.4640 -0.8356 -1.6231
 4158SOL    MW416406   0.687   0.603   1.190  0.4391 -0.0590  0.0207
 4159SOL     OW16407   4.496   5.163   5.765 -1.0391  0.1450  0.1901
 4159SOL    HW216408   4.487   5.246   5.718 -0.0261  0.6004  0.7733
 4159SOL    HW316409   4.568   5.118   5.720 -1.2666 -0.2041  0.1738
 4159SOL    MW416410   4.505   5.168   5.753 -0.0316 -0.2206  0.3869
 4160SOL     OW16411   0.650   5.835   3.168  0.1381 -0.3733 -0.1387
 4160SOL    HW216412   0.566   5.871   3.139 -0.3143 -0.8167  0.6038
 4160SOL    HW316413   0.715   5.895   3.130 -0.6036  1.5926  1.4966
 4160SOL    MW416414   0.647   5.848   3.159  0.0711  0.6376 -0.6694
 4161SOL     OW16415   0.794   1.372   2.366 -0.0816  0.8866 -0.4316
 4161SOL    HW216416   0.721   1.357   2.307 -0.4525  0.7818  0.0425
 4161SOL    HW316417   0.755   1.416   2.442  0.1475 -0.1769  0.3248
 4161SOL    MW416418   0.779   1.376   2.368  0.7103  0.3782  0.0055
 4162SOL     OW16419   3.993   0.506   3.731  0.2482 -0.2086  0.5391
 4162SOL    HW216420   4.080   0.467   3.740 -0.9683 -3.4287 -0.5302
 4162SOL    HW316421   3.977   0.549   3.816  2.8991  0.6650  0.6775
 4162SOL    MW416422   4.002   0.507   3.744 -0.4036  0.5706 -0.6756
 4163SOL     OW16423   1.322   1.035   4.758 -0.3891 -0.5820 -0.5737
 4163SOL    HW216424   1.292   0.968   4.819  1.0787 -0.5454  0.2301
 4163SOL    HW316425   1.404   1.001   4.724 -0.3355  0.1837 -1.2235
 4163SOL    MW416426   1.329   1.022   4.762 -0.5284 -0.0943  0.3672
 4164SOL     OW16427   5.312   3.028   0.233  0.7103 -0.0417 -0.6614
 4164SOL    HW216428   5.252   3.013   0.161 -0.0460 -2.9810  0.4422
 4164SOL    HW316429   5.396   2.994   0.203  0.1588 -2.2359  0.0918
 4164SOL    MW416430   5.315   3.022   0.220  0.2939 -0.0093 -0.1025
 4165SOL     OW16431   0.796   5.661   3.977 -0.0102  0.7314  0.0828
 4165SOL    HW216432   0.747   5.580   3.991  1.2815 -0.3092 -1.0596
 4165SOL    HW316433   0.868   5.657   4.040  1.7301 -0.5168 -1.8269
 4165SOL    MW416434   0.799   5.650   3.987  0.0171  0.3443 -0.0666
 4166SOL     OW16435   2.460   0.850   2.482  0.2684 -0.4197  0.2452
 4166SOL    HW216436   2.428   0.937   2.459  0.1152 -0.4000  0.5341
 4166SOL    HW316437   2.391   0.812   2.536 -0.3629 -1.3026 -1.1186
 4166SOL    MW416438   2.447   0.856   2.486  0.6415  0.1119 -0.1489
 4167SOL     OW16439   4.716   2.695   0.294 -0.2095 -0.2122  0.6230
 4167SOL    HW216440   4.661   2.764   0.332 -1.2971 -0.5689 -0.2325
 4167SOL    HW316441   4.657   2.620   0.285  0.3968 -0.5872 -0.4093
 4167SOL    MW416442   4.701   2.694   0.297  0.1271  0.2166  0.2070
 4168SOL     OW16443   0.026   3.040   3.722 -0.0713 -0.0725  0.0769
 4168SOL    HW216444   0.049   3.042   3.629  1.1657  0.4167  0.3725
 4168SOL    HW316445   0.047   2.951   3.750  0.2677 -0.0048  0.0472
 4168SOL    MW416446   0.032   3.029   3.713  0.3461  0.5555 -0.2048
 4169SOL     OW16447   3.752   5.316   1.638  0.2767  0.2466 -1.0565
 4169SOL    HW216448   3.769   5.263   1.560 -1.6883 -1.1497 -0.6316
 4169SOL    HW316449   3.704   5.257   1.697 -0.1289  1.8778  0.3405
 4169SOL    MW416450   3.748   5.301   1.636 -0.0721  0.2722  0.2652
 4170SOL     OW16451   5.480   3.470   3.530 -0.0816  0.4923 -0.3395
 4170SOL    HW216452   5.523   3.388   3.555  1.3691  0.6666 -2.0891
 4170SOL    HW316453   5.464   3.515   3.613  2.0582 -0.1457  0.4806
 4170SOL    MW416454   5.484   3.465   3.544  0.0236 -0.2039  0.5721
 4171SOL     OW16455   4.192   0.416   3.210 -0.9644  0.0331  0.3277
 4171SOL    HW216456   4.201   0.511   3.211  0.8450 -0.1026  0.6637
 4171SOL    HW316457   4.280   0.383   3.229 -1.6731 -1.7082  0.8292
 4171SOL    MW416458   4.204   0.424   3.213  0.0466  0.4988  0.0142
 4172SOL     OW16459   5.306   4.676   4.560 -0.2049  0.0459  0.2770
 4172SOL    HW216460   5.231   4.677   4.501 -1.2739 -0.3261  1.5756
 4172SOL    HW316461   5.302   4.760   4.606 -0.3236 -0.3037  0.9269
 4172SOL    MW416462   5.296   4.687   4.558 -0.0227 -0.2926  0.4127
 4173SOL     OW16463   5.597   3.773   0.069  0.6405 -0.3508 -0.1058
 4173SOL    HW216464   5.685   3.739   0.084  0.2076 -1.2302  0.4671
 4173SOL    HW316465   5.562   3.790   0.156  0.3950  0.4161 -0.3450
 4173SOL    MW416466   5.604   3.771   0.082 -0.3614 -0.1531  0.0099
 4174SOL     OW16467   4.455   5.642   0.551  0.0755 -0.3258  0.1970
 4174SOL    HW216468   4.460   5.731   0.516  0.5293 -0.0946  0.8351
 4174SOL    HW316469   4.528   5.596   0.510 -0.9914 -0.8059 -1.2204
 4174SOL    MW416470   4.465   5.648   0.541  0.2462 -0.0227  0.0863
 4175SOL     OW16471   4.351   2.624   5.318 -0.4131 -0.3399  0.7950
 4175SOL    HW216472   4.429   2.676   5.335  0.1050 -0.5843 -0.6235
 4175SOL    HW316473   4.350   2.613   5.223 -0.3911 -3.0554  1.0335
 4175SOL    MW416474   4.361   2.629   5.307  0.2525 -0.4181  0.1778
 4176SOL     OW16475   1.611   5.506   3.416 -0.0294  0.6249  0.4912
 4176SOL    HW216476   1.667   5.480   3.343  0.7995 -2.3910  2.0371
 4176SOL    HW316477   1.599   5.601   3.405  0.2133  0.3669 -3.3498
 4176SOL    MW416478   1.617   5.515   3.405  0.5422  0.0617  0.0738
 4177SOL     OW16479   0.958   4.880   1.122 -0.5596  0.1341  0.3020
 4177SOL    HW216480   0.935   4.789   1.141  1.0587 -0.1784  0.8963
 4177SOL    HW316481   0.990   4.879   1.031 -2.2839  0.4786 -0.3478
 4177SOL    MW416482   0.959   4.868   1.112 -0.2558 -0.1659  0.0307
 4178SOL     OW16483   4.875   3.227   0.787 -0.3776 -0.0732  0.0312
 4178SOL    HW216484   4.952   3.282   0.772  1.0901 -2.3560 -1.3221
 4178SOL    HW316485   4.900   3.170   0.860 -1.4524  0.2862  0.7017
 4178SOL    MW416486   4.889   3.227   0.795 -0.2304 -0.5306 -0.1029
 4179SOL     OW16487   4.735   3.633   4.132  0.4745 -0.1011 -0.7367
 4179SOL    HW216488   4.759   3.607   4.221 -0.8228 -0.1976 -0.3926
 4179SOL    HW316489   4.809   3.685   4.101 -0.2067  2.4259  1.4661
 4179SOL    MW416490   4.748   3.636   4.139 -0.4060 -0.6929  0.1284
 4180SOL     OW16491   4.643   5.611   0.164 -0.1565  0.3763 -0.3914
 4180SOL    HW216492   4.617   5.700   0.188  0.3263 -0.0448  1.8732
 4180SOL    HW316493   4.644   5.612   0.068 -2.4152  2.1311 -0.4838
 4180SOL    MW416494   4.640   5.623   0.154  0.4973  0.0026 -0.3572
 4181SOL     OW16495   1.843   0.926   5.894  0.3929  0.1090 -0.2118
 4181SOL    HW216496   1.824   0.840   5.858 -0.7630  0.6993 -1.0584
 4181SOL    HW316497   1.775   0.983   5.859  1.5577  1.5321 -0.2515
 4181SOL    MW416498   1.832   0.922   5.885  0.2171 -0.1228  0.1729
 4182SOL     OW16499   2.164   1.916   2.423 -0.3817 -0.3099  0.1288
 4182SOL    HW216500   2.201   2.000   2.449  1.0255 -0.7298 -0.3971
 4182SOL    HW316501   2.228   1.852   2.455 -1.7622 -1.2400  1.1248
 4182SOL    MW416502   2.177   1.919   2.431  0.7770 -0.3480 -0.5044
 4183SOL     OW16503   4.180   1.573   1.038  0.3347  0.1652 -0.7210
 4183SOL    HW216504   4.160   1.665   1.056 -1.0256 -0.4388  1.1996
 4183SOL    HW316505   4.186   1.568   0.942 -2.6513  1.7087 -1.1155
 4183SOL    MW416506   4.178   1.585   1.028 -0.3088 -0.7169  0.0195
 4184SOL     OW16507   0.271   3.211   4.512 -0.2424 -0.5063  0.2875
 4184SOL    HW216508   0.294   3.124   4.480  1.6817 -0.1179  0.4832
 4184SOL    HW316509   0.337   3.269   4.474 -0.5978  0.6368  1.3300
 4184SOL    MW416510   0.283   3.207   4.503  0.0021  0.7400  0.5914
 4185SOL     OW16511   3.234   2.730   2.510  0.0791  0.0964  0.6276
 4185SOL    HW216512   3.306   2.763   2.456 -0.4090  0.2500  0.0474
 4185SOL    HW316513   3.249   2.769   2.596 -0.1763  1.4292  0.1029
 4185SOL    MW416514   3.245   2.740   2.514  0.6301 -0.1479  0.0263
 4186SOL     OW16515   0.445   5.883   0.632 -0.2494  0.2158  0.3728
 4186SOL    HW216516   0.537   5.880   0.607 -0.1152 -0.4559  0.9203
 4186SOL    HW316517   0.446   5.875   0.728 -0.8978 -0.3729  0.3366
 4186SOL    MW416518   0.457   5.881   0.641 -0.0789  0.6861  0.0039
 4187SOL     OW16519   2.252   0.397   3.915 -0.5244  0.1723  0.3023
 4187SOL    HW216520   2.297   0.463   3.862 -0.8353  0.3269  0.2294
 4187SOL    HW316521   2.197   0.349   3.852  0.2686 -0.6537  0.2227
 4187SOL    MW416522   2.251   0.399   3.900 -0.2310  0.0399 -0.4716
 4188SOL     OW16523   5.645   4.888   5.218  0.1329  0.4018 -0.2501
 4188SOL    HW216524   5.616   4.804   5.183 -0.7692  0.7843 -0.4636
 4188SOL    HW316525   5.664   4.871   5.310 -1.4177  0.2518  0.0705
 4188SOL    MW416526   5.644   4.875   5.225 -0.3753  0.3394  0.0620
 4189SOL     OW16527   2.304   2.872   0.405 -0.0737  0.4468 -0.0696
 4189SOL    HW216528   2.236   2.932   0.375  0.5923  0.5066 -1.5265
 4189SOL    HW316529   2.316   2.811   0.332  0.6537 -0.2474  0.6117
 4189SOL    MW416530   2.297   2.872   0.391 -0.3865 -0.1403 -0.0421
 4190SOL     OW16531   2.216   3.933   3.275  0.3548  0.1795 -0.4968
 4190SOL    HW216532   2.145   3.909   3.335 -0.2604  1.7137 -0.5826
 4190SOL    HW316533   2.286   3.871   3.296  0.0497  0.4742  1.6093
 4190SOL    MW416534   2.216   3.921   3.286 -0.0835 -0.8479  0.0782
 4191SOL     OW16535   1.308   5.305   3.303  0.1385  0.1600 -0.2869
 4191SOL    HW216536   1.340   5.232   3.357  0.0156 -0.1499 -0.6274
 4191SOL    HW316537   1.310   5.380   3.362 -1.4536 -0.4609  0.6291
 4191SOL    MW416538   1.313   5.305   3.318  0.1488  0.1357  0.1452
 4192SOL     OW16539   0.391   5.633   1.166 -0.7679 -0.4895  0.2434
 4192SOL    HW216540   0.400   5.543   1.133 -2.6417 -1.0541  1.1465
 4192SOL    HW316541   0.387   5.687   1.087  0.2691 -1.1887 -0.3126
 4192SOL    MW416542   0.391   5.628   1.151 -0.0603  0.7876  0.0554
 4193SOL     OW16543   3.504   1.820   0.331 -0.7347  0.0293 -0.5093
 4193SOL    HW216544   3.546   1.761   0.393  1.4313  1.5815 -0.3851
 4193SOL    HW316545   3.440   1.868   0.384 -1.1884 -0.8790 -0.2130
 4193SOL    MW416546   3.501   1.819   0.346 -0.2843  0.1200  0.6842
 4194SOL     OW16547   1.098   5.517   3.679  0.1729  0.2976 -0.0522
 4194SOL    HW216548   1.173   5.541   3.624  0.0880 -1.9461 -1.2748
 4194SOL    HW316549   1.137   5.492   3.763  0.5361  1.4303  0.1332
 4194SOL    MW416550   1.113   5.516   3.683  0.0876  0.2075  0.9367
 4195SOL     OW16551   0.136   2.477   3.027  0.2365  0.2577 -0.3373
 4195SOL    HW216552   0.050   2.478   2.985 -0.3464  0.1873  0.8059
 4195SOL    HW316553   0.193   2.433   2.964 -0.5298  0.4157 -1.1681
 4195SOL    MW416554   0.132   2.472   3.013  0.2681  0.2543  0.5967
 4196SOL     OW16555   4.802   5.717   4.217  0.6904 -0.3573  0.6024
 4196SOL    HW216556   4.707   5.718   4.200  0.7766 -1.1110  0.0236
 4196SOL    HW316557   4.815   5.642   4.275  1.2952 -2.2501 -1.8014
 4196SOL    MW416558   4.791   5.707   4.222 -0.3084  0.5924  0.3374
 4197SOL     OW16559   0.702   0.541   2.620 -0.4245 -0.1652  0.0234
 4197SOL    HW216560   0.652   0.622   2.606 -0.5868 -0.3588 -0.5308
 4197SOL    HW316561   0.701   0.498   2.535 -0.3148 -0.7395  0.3136
 4197SOL    MW416562   0.695   0.546   2.607 -0.0478  0.1483  0.2265
 4198SOL     OW16563   6.017   4.247   5.000  0.2638 -0.3119 -0.2836
 4198SOL    HW216564   5.924   4.248   4.980  0.1290  1.1728  0.2786
 4198SOL    HW316565   6.043   4.339   5.000  1.0800 -0.4466  2.4025
 4198SOL    MW416566   6.009   4.259   4.997 -0.1612  0.5729 -0.5458
 4199SOL     OW16567   4.229   3.690   4.026  0.0870 -0.2480 -0.3898
 4199SOL    HW216568   4.305   3.706   4.082  0.7625 -1.6224 -0.8601
 4199SOL    HW316569   4.263   3.695   3.937 -0.6415  0.2936 -0.6534
 4199SOL    MW416570   4.244   3.693   4.022 -0.0053 -0.1813  0.1459
 4200SOL     OW16571   1.851   0.950   2.789 -0.6166 -0.3609 -0.0265
 4200SOL    HW216572   1.784   0.940   2.856 -2.3450  1.7576 -1.3209
 4200SOL    HW316573   1.806   0.933   2.707  0.0748  2.0578 -1.0103
 4200SOL    MW416574   1.836   0.947   2.787  0.2536 -0.2967 -0.3423
 4201SOL     OW16575   2.314   2.479   5.490 -0.1197  0.2246 -0.4815
 4201SOL    HW216576   2.284   2.431   5.567  2.8936 -0.3882  0.4509
 4201SOL    HW316577   2.307   2.571   5.514 -0.3347  0.0719  0.0453
 4201SOL    MW416578   2.309   2.485   5.503  0.6499  0.2969 -0.2560
 4202SOL     OW16579   6.403   5.838   1.645  0.0536  0.3814  0.9827
 4202SOL    HW216580   6.324   5.784   1.649  0.6603 -0.5601  0.6433
 4202SOL    HW316581   6.460   5.802   1.712  1.8053 -1.6676 -1.4194
 4202SOL    MW416582   6.400   5.827   1.654 -0.6126  0.0792 -0.1308
 4203SOL     OW16583   1.996   1.288   6.257  0.3442  0.4083 -0.1305
 4203SOL    HW216584   1.993   1.349   6.183  1.0425  1.1955  0.4710
 4203SOL    HW316585   2.069   1.229   6.236  0.2581  0.3539 -0.2789
 4203SOL    MW416586   2.005   1.288   6.245  0.0552  0.7239 -0.4802
 4204SOL     OW16587   3.374   2.383   6.070  0.0127 -0.5001 -0.1353
 4204SOL    HW216588   3.376   2.442   5.995  0.0530 -0.6609 -0.2612
 4204SOL    HW316589   3.281   2.365   6.084 -0.3321  2.2720  2.0147
 4204SOL    MW416590   3.362   2.388   6.062 -0.3840 -0.2506 -0.2263
 4205SOL     OW16591   3.630   3.597   2.571  0.0010 -0.3690 -0.1433
 4205SOL    HW216592   3.637   3.664   2.639 -0.0706  0.2682 -0.7523
 4205SOL    HW316593   3.625   3.514   2.619 -0.6694  0.1146  0.6496
 4205SOL    MW416594   3.630   3.594   2.586 -0.6391 -0.6203 -0.6097
 4206SOL     OW16595   4.575   1.915   5.086  0.1216 -0.3716  0.0628
 4206SOL    HW216596   4.501   1.856   5.066 -1.5799  1.2713  1.1696
 4206SOL    HW316597   4.620   1.872   5.159  1.3951 -2.2592 -1.7251
 4206SOL    MW416598   4.571   1.901   5.093  0.3912 -0.1472  0.3479
 4207SOL     OW16599   2.331   5.070   3.303  0.2243  0.1790  0.1138
 4207SOL    HW216600   2.415   5.052   3.344  0.2688  0.5589  0.1970
 4207SOL    HW316601   2.286   5.128   3.365 -0.3136 -0.4500  0.3193
 4207SOL    MW416602   2.336   5.075   3.316 -0.6498 -0.4806 -0.0280
 4208SOL     OW16603   5.120   3.733   3.775 -0.1683 -0.0491  0.9775
 4208SOL    HW216604   5.116   3.741   3.680  0.6076 -0.2166  0.9300
 4208SOL    HW316605   5.115   3.639   3.792  2.4171 -0.2369  0.9518
 4208SOL    MW416606   5.119   3.722   3.765  0.5640  0.1636 -0.4896
 4209SOL     OW16607   1.521   4.697   2.244 -0.0052  0.3191 -0.0025
 4209SOL    HW216608   1.455   4.761   2.217  0.0194 -0.2299 -1.5067
 4209SOL    HW316609   1.603   4.729   2.207  0.4107  0.4958  1.0376
 4209SOL    MW416610   1.523   4.709   2.235 -0.6928 -0.2267 -0.6335
 4210SOL     OW16611   4.949   5.266   3.062 -0.2090 -0.4690  0.1028
 4210SOL    HW216612   4.933   5.172   3.073  1.1713 -0.5482  1.6581
 4210SOL    HW316613   4.862   5.305   3.068 -0.6111 -1.4819  1.4664
 4210SOL    MW416614   4.935   5.259   3.064 -0.3793 -0.2057 -0.4616
 4211SOL     OW16615   0.527   3.009   5.099  0.1568  0.2426  0.0021
 4211SOL    HW216616   0.536   2.993   5.005 -0.6402 -2.4423  0.2946
 4211SOL    HW316617   0.432   3.014   5.113  0.2802  0.8484  0.6428
 4211SOL    MW416618   0.516   3.008   5.088 -0.7321 -0.5173 -0.0106
 4212SOL     OW16619   6.035   5.979   4.531 -0.2704  0.3974  0.2072
 4212SOL    HW216620   6.001   6.048   4.587  0.7510  0.1392  1.1625
 4212SOL    HW316621   6.080   6.025   4.460  1.0978  0.7338  1.2665
 4212SOL    MW416622   6.037   5.994   4.529 -0.4258  0.1562  0.2534
 4213SOL     OW16623   3.257   3.572   1.414 -0.5697  0.1659  0.6532
 4213SOL    HW216624   3.169   3.610   1.413 -0.7558 -0.2704 -0.2299
 4213SOL    HW316625   3.314   3.646   1.435 -1.1351  0.4730  1.1370
 4213SOL    MW416626   3.253   3.587   1.417 -0.3559 -0.0656 -0.5203
 4214SOL     OW16627   4.555   4.432   2.857  0.4253 -0.4821 -0.8125
 4214SOL    HW216628   4.558   4.377   2.935 -1.5685  0.1405 -0.2309
 4214SOL    HW316629   4.618   4.392   2.797  1.6681 -1.2486  0.9200
 4214SOL    MW416630   4.563   4.420   2.859  0.0798  0.4023  0.2113
 4215SOL     OW16631   4.110   1.632   5.743  0.3774 -0.0031  0.2061
 4215SOL    HW216632   4.102   1.699   5.810  0.6835  0.5769 -0.3356
 4215SOL    HW316633   4.076   1.672   5.664  4.6251  1.1955 -1.2699
 4215SOL    MW416634   4.104   1.646   5.742 -0.0497  1.0073 -0.8830
 4216SOL     OW16635   0.976   1.771   3.763  0.3225  0.3547 -0.0575
 4216SOL    HW216636   0.995   1.865   3.768 -0.1846  0.3940  2.0051
 4216SOL    HW316637   1.037   1.731   3.825 -0.2443 -0.5348 -0.0575
 4216SOL    MW416638   0.986   1.778   3.772  0.0065  0.1048  0.0578
 4217SOL     OW16639   3.143   2.799   0.991 -0.0958 -0.0636 -0.7092
 4217SOL    HW216640   3.190   2.820   1.071  1.0612 -0.8408 -1.1556
 4217SOL    HW316641   3.123   2.884   0.952 -1.5218  0.3505  0.8525
 4217SOL    MW416642   3.147   2.813   0.996  0.1203 -0.3423  0.0215
 4218SOL     OW16643   5.080   2.192   2.488  0.4311  0.4589  0.0609
 4218SOL    HW216644   5.165   2.153   2.504  0.2688 -0.1223 -0.4715
 4218SOL    HW316645   5.046   2.147   2.410 -0.1790  0.9713  0.0180
 4218SOL    MW416646   5.086   2.181   2.480 -0.4141 -0.1567 -1.0813
 4219SOL     OW16647   6.261   2.269   2.175  0.6231 -0.0213 -0.2223
 4219SOL    HW216648   6.336   2.247   2.119  2.1015 -1.0240  1.9937
 4219SOL    HW316649   6.214   2.186   2.185 -1.4035  0.7759 -2.3043
 4219SOL    MW416650   6.265   2.255   2.169 -0.2470 -0.4345 -0.1051
 4220SOL     OW16651   6.018   4.544   4.723 -0.4612  0.0567  0.1528
 4220SOL    HW216652   6.048   4.459   4.691  1.1536 -0.0827  1.8989
 4220SOL    HW316653   6.016   4.535   4.818  1.1174  2.3454  0.4919
 4220SOL    MW416654   6.022   4.531   4.731  0.4502  0.0509 -0.1937
 4221SOL     OW16655   0.591   3.583   6.287  0.3781 -0.5400  0.7942
 4221SOL    HW216656   0.503   3.611   6.312  0.0073 -0.5738 -0.3929
 4221SOL    HW316657   0.612   3.512   6.348  0.2011  0.4485  2.0358
 4221SOL    MW416658   0.582   3.577   6.298 -0.3050 -0.3189  0.2066
 4222SOL     OW16659   4.279   3.824   6.014 -0.4396  0.2234 -0.8731
 4222SOL    HW216660   4.195   3.779   6.001 -1.0773  1.5863 -1.7687
 4222SOL    HW316661   4.300   3.809   6.106 -1.3570 -0.6549 -0.7829
 4222SOL    MW416662   4.271   3.816   6.024  0.2878  0.4050 -0.4204
 4223SOL     OW16663   2.389   0.965   6.221 -0.2509  0.6347 -0.1181
 4223SOL    HW216664   2.470   1.013   6.205 -0.1782  0.3107 -0.7596
 4223SOL    HW316665   2.320   1.026   6.198 -0.1703  0.6236 -0.3869
 4223SOL    MW416666   2.391   0.979   6.216 -0.6340 -0.2127 -0.6467
 4224SOL     OW16667   4.250   2.966   1.229  0.1679  0.1034 -0.2767
 4224SOL    HW216668   4.259   2.979   1.134 -1.5342 -0.4314 -0.5510
 4224SOL    HW316669   4.156   2.972   1.245  0.2531 -1.4867  1.1166
 4224SOL    MW416670   4.239   2.968   1.218  0.2303  0.3929  0.1041
 4225SOL     OW16671   1.345   5.955   4.574  0.4799 -0.3756 -0.3401
 4225SOL    HW216672   1.382   5.977   4.659  0.6548  0.2902 -0.5794
 4225SOL    HW316673   1.417   5.916   4.526  1.3921  2.2817 -1.3377
 4225SOL    MW416674   1.359   5.953   4.579  0.6930 -0.3484 -0.3347
 4226SOL     OW16675   1.258   5.344   5.839 -0.3521 -0.0773  0.2380
 4226SOL    HW216676   1.347   5.373   5.859 -1.5052  2.2771  2.6780
 4226SOL    HW316677   1.233   5.289   5.914 -1.2176 -0.0698 -0.0270
 4226SOL    MW416678   1.266   5.340   5.852  0.1067  0.2252 -0.0531
 4227SOL     OW16679   1.574   2.303   0.819  0.0245 -0.5312  0.1633
 4227SOL    HW216680   1.575   2.333   0.728  1.5718 -1.6746 -0.2223
 4227SOL    HW316681   1.641   2.357   0.862  0.1362 -0.8214  0.3497
 4227SOL    MW416682   1.583   2.314   0.813 -0.6148 -0.0308  0.1001
 4228SOL     OW16683   0.737   0.359   5.246 -0.1888  0.6160 -0.6437
 4228SOL    HW216684   0.809   0.388   5.191  1.1766  2.2588  1.8465
 4228SOL    HW316685   0.670   0.427   5.236 -0.3793  0.3782 -1.0262
 4228SOL    MW416686   0.737   0.372   5.237 -0.0942  0.4652 -0.1902
 4229SOL     OW16687   4.069   4.005   3.866  0.2886 -0.0315  0.3552
 4229SOL    HW216688   4.010   4.003   3.941 -0.3522  0.5164 -0.1113
 4229SOL    HW316689   4.154   4.029   3.902 -0.1479  0.8588  0.8343
 4229SOL    MW416690   4.072   4.008   3.880 -1.0523 -0.0615 -0.1967
 4230SOL     OW16691   1.464   3.359   2.723  0.1306  0.2918  0.1500
 4230SOL    HW216692   1.514   3.439   2.713  2.5162 -0.7270  2.6970
 4230SOL    HW316693   1.402   3.360   2.649  0.6446  3.9521 -0.4097
 4230SOL    MW416694   1.462   3.369   2.712  0.2435 -0.3187 -0.3288
 4231SOL     OW16695   1.342   1.895   3.195 -0.7196  0.4794  0.2672
 4231SOL    HW216696   1.435   1.870   3.194 -0.8740 -0.1158 -0.7917
 4231SOL    HW316697   1.335   1.956   3.268  0.4377  0.2704  0.5858
 4231SOL    MW416698   1.354   1.899   3.205  0.2307  0.1784 -0.0550
 4232SOL     OW16699   5.070   1.053   6.073 -0.0131 -0.4631 -0.6795
 4232SOL    HW216700   5.135   1.122   6.087  0.1260 -0.2131 -2.3527
 4232SOL    HW316701   4.998   1.075   6.131 -0.4555  1.7603 -1.9606
 4232SOL    MW416702   5.069   1.065   6.082 -0.1868 -0.0773 -0.0146
 4233SOL     OW16703   6.393   3.561   1.992 -0.3828  0.3030 -0.4955
 4233SOL    HW216704   6.402   3.548   1.898  0.2187  0.6833 -0.4927
 4233SOL    HW316705   6.481   3.548   2.027 -0.5131  0.6219 -0.0425
 4233SOL    MW416706   6.406   3.557   1.984 -0.6665  0.1634  0.0767
 4234SOL     OW16707   0.680   5.309   3.179  0.1732 -1.3127  1.0523
 4234SOL    HW216708   0.641   5.388   3.217 -1.1498 -1.8241  0.7835
 4234SOL    HW316709   0.625   5.288   3.104  2.5200 -0.5393 -1.0417
 4234SOL    MW416710   0.668   5.317   3.174 -0.1597 -0.4085 -0.3066
 4235SOL     OW16711   0.407   3.096   0.364 -0.0664 -0.0608 -0.0958
 4235SOL    HW216712   0.467   3.033   0.322  0.2548 -1.1848  1.9142
 4235SOL    HW316713   0.336   3.107   0.301  1.1781 -0.3875 -1.6221
 4235SOL    MW416714   0.406   3.089   0.350  0.5349 -0.0119 -0.4882
 4236SOL     OW16715   4.727   4.222   1.483 -0.5196  0.0153 -0.0710
 4236SOL    HW216716   4.682   4.138   1.491 -0.6595  0.0988  0.0401
 4236SOL    HW316717   4.739   4.235   1.389 -1.8854  0.5944 -0.1911
 4236SOL    MW416718   4.723   4.212   1.472 -0.0949  0.5000 -0.6299
 4237SOL     OW16719   5.354   5.773   1.411 -0.0981  0.3287 -0.8480
 4237SOL    HW216720   5.266   5.736   1.414  0.4452 -1.0773  2.4598
 4237SOL    HW316721   5.346   5.858   1.455  0.2806 -0.1469  0.1737
 4237SOL    MW416722   5.341   5.780   1.418  0.4246  0.3944 -0.8114
 4238SOL     OW16723   3.658   0.850   4.011 -0.2225 -0.3701  0.1770
 4238SOL    HW216724   3.733   0.807   3.971  0.2537 -0.4360  1.1252
 4238SOL    HW316725   3.674   0.944   3.998 -0.4329 -0.4148 -0.4197
 4238SOL    MW416726   3.670   0.857   4.004  0.2069  0.3520  0.9556
 4239SOL     OW16727   0.398   0.493   6.172 -0.6096 -0.1815 -0.5022
 4239SOL    HW216728   0.388   0.546   6.093 -0.7676  0.0356 -0.3396
 4239SOL    HW316729   0.308   0.481   6.203 -0.5426 -0.2082 -0.3193
 4239SOL    MW416730   0.384   0.498   6.166  0.1778  0.0750 -0.1095
 4240SOL     OW16731   4.959   2.202   1.854 -0.5053 -0.2331  0.3324
 4240SOL    HW216732   4.866   2.216   1.837 -0.5295  1.2099  1.4458
 4240SOL    HW316733   4.983   2.129   1.797 -1.6877  1.0541 -2.0069
 4240SOL    MW416734   4.950   2.195   1.844 -0.5241  0.2785  0.1709
 4241SOL     OW16735   1.185   6.138   3.535  0.4094  0.1429  0.2756
 4241SOL    HW216736   1.099   6.110   3.567  0.3973 -1.0441 -0.7255
 4241SOL    HW316737   1.213   6.206   3.596 -0.2050 -1.0750  1.9558
 4241SOL    MW416738   1.177   6.144   3.547 -0.0129 -0.4328  0.0661
 4242SOL     OW16739   5.117   6.080   5.410  0.5000  0.0994  0.2798
 4242SOL    HW216740   5.132   6.158   5.357  0.8950 -0.2915 -0.1902
 4242SOL    HW316741   5.114   6.008   5.348  1.8142 -0.4753  0.8232
 4242SOL    MW416742   5.119   6.081   5.395 -0.0534  0.8335  0.1331
 4243SOL     OW16743   3.081   0.747   4.275 -0.1474 -0.3076  0.1708
 4243SOL    HW216744   3.026   0.781   4.345 -0.1147  0.3655 -0.1257
 4243SOL    HW316745   3.160   0.715   4.320 -0.4234 -0.5225  0.5068
 4243SOL    MW416746   3.084   0.747   4.290  0.2476  0.3148  0.3306
 4244SOL     OW16747   2.077   5.914   0.717 -0.6018 -0.2336  0.1074
 4244SOL    HW216748   2.143   5.911   0.786  0.0380  1.7432 -0.3713
 4244SOL    HW316749   2.047   6.005   0.716 -0.5233 -0.1726 -2.2603
 4244SOL    MW416750   2.082   5.926   0.726 -0.3316  0.1021  0.3178
 4245SOL     OW16751   5.170   1.409   5.671 -0.1113  0.8955  0.3272
 4245SOL    HW216752   5.197   1.321   5.696  0.9379  0.7441 -1.2116
 4245SOL    HW316753   5.160   1.405   5.576  0.6205  2.6089  0.1399
 4245SOL    MW416754   5.172   1.397   5.662  0.1148 -0.2117 -0.0369
 4246SOL     OW16755   6.166   2.570   0.901 -0.5559  0.2078  0.3011
 4246SOL    HW216756   6.261   2.583   0.906 -0.2738 -1.8421  1.3254
 4246SOL    HW316757   6.131   2.658   0.884  1.5229  0.9624 -0.4586
 4246SOL    MW416758   6.174   2.584   0.900  0.4275  0.0572  0.7074
 4247SOL     OW16759   0.271   5.795   5.402  0.4649 -0.7863 -0.0811
 4247SOL    HW216760   0.338   5.791   5.470 -1.6097 -0.4148  2.1333
 4247SOL    HW316761   0.295   5.726   5.340  2.4956 -1.0644  0.9227
 4247SOL    MW416762   0.283   5.786   5.402  0.0245 -0.3448 -0.1211
 4248SOL     OW16763   3.923   4.033   0.154  0.5202  0.1914 -0.5633
 4248SOL    HW216764   3.918   4.128   0.165 -2.6222 -0.0757  1.7866
 4248SOL    HW316765   3.963   4.001   0.235  2.3060 -0.5086 -1.6712
 4248SOL    MW416766   3.927   4.041   0.166 -0.4748 -0.8828 -0.0199
 4249SOL     OW16767   3.712   4.367   3.649  0.1497  0.2751  0.3778
 4249SOL    HW216768   3.763   4.430   3.701 -0.6133  1.3066 -0.0779
 4249SOL    HW316769   3.639   4.343   3.706  0.1019  0.2864  0.3211
 4249SOL    MW416770   3.709   4.372   3.664  0.4222  0.1568 -0.1869
 4250SOL     OW16771   1.704   1.516   6.168 -0.5900  0.1000 -0.4562
 4250SOL    HW216772   1.785   1.558   6.140 -1.1177  1.1164 -0.5148
 4250SOL    HW316773   1.643   1.534   6.096 -1.0213 -0.1526 -0.1513
 4250SOL    MW416774   1.707   1.524   6.155  0.3930  0.8587  0.1824
 4251SOL     OW16775   0.482   4.176   5.957  0.1986 -0.4283 -0.5363
 4251SOL    HW216776   0.428   4.157   6.034  1.1029  3.9324  1.4652
 4251SOL    HW316777   0.563   4.128   5.972  0.7727  1.1180  1.9558
 4251SOL    MW416778   0.485   4.167   5.969 -0.5096 -0.3308  0.6311
 4252SOL     OW16779   4.349   1.438   1.213  0.1244 -0.3618  0.3156
 4252SOL    HW216780   4.290   1.471   1.144 -0.1107  1.0183  1.1460
 4252SOL    HW316781   4.292   1.386   1.270  0.0834 -0.5404  0.1127
 4252SOL    MW416782   4.333   1.435   1.211  0.4366  0.1059  0.2468
 4253SOL     OW16783   2.826   4.750   1.554  0.1433 -0.6373  0.3991
 4253SOL    HW216784   2.904   4.745   1.610 -0.7213 -1.0517  1.5935
 4253SOL    HW316785   2.762   4.798   1.606 -0.5283 -0.5969 -0.4452
 4253SOL    MW416786   2.828   4.756   1.568 -0.3787  0.1377  0.3953
 4254SOL     OW16787   0.798   3.311   0.526 -0.2514 -0.4388  0.1018
 4254SOL    HW216788   0.812   3.293   0.433  0.6308  2.1514 -0.3460
 4254SOL    HW316789   0.720   3.261   0.549  0.0564 -1.8822 -1.7716
 4254SOL    MW416790   0.790   3.302   0.517 -0.3580 -0.0198 -0.6130
 4255SOL     OW16791   4.830   5.069   1.360  0.4098 -0.2253 -0.0118
 4255SOL    HW216792   4.868   5.154   1.340  1.0985 -0.7168 -0.8567
 4255SOL    HW316793   4.823   5.025   1.276 -0.1985 -0.9084  0.3822
 4255SOL    MW416794   4.834   5.074   1.347  0.5180 -0.0238  0.2167
 4256SOL     OW16795   2.724   3.901   1.927  0.1899  0.4616  0.0502
 4256SOL    HW216796   2.792   3.835   1.939  1.4428  1.2388 -2.2187
 4256SOL    HW316797   2.751   3.950   1.849 -2.5331  1.3582 -0.4491
 4256SOL    MW416798   2.737   3.899   1.918  0.0549  0.0933 -0.9617
 4257SOL     OW16799   2.478   5.179   6.145 -0.1180 -0.2864 -0.6916
 4257SOL    HW216800   2.566   5.208   6.121 -0.2640  0.9240  0.1681
 4257SOL    HW316801   2.458   5.226   6.226 -1.7545 -0.1296 -1.1516
 4257SOL    MW416802   2.487   5.189   6.152  0.2507 -0.2974 -0.1772
 4258SOL     OW16803   5.384   0.685   2.090 -0.1738 -0.3467 -0.3944
 4258SOL    HW216804   5.387   0.596   2.057  2.4353 -0.5983  0.2537
 4258SOL    HW316805   5.412   0.678   2.182  2.2099  1.2627 -0.8911
 4258SOL    MW416806   5.388   0.672   2.098  0.2118  0.8033  0.4126
 4259SOL     OW16807   0.317   5.562   0.203 -0.0592  0.6614  0.2921
 4259SOL    HW216808   0.322   5.631   0.269 -0.1103  1.7985 -0.8560
 4259SOL    HW316809   0.350   5.603   0.123 -2.1138  0.0230 -0.9469
 4259SOL    MW416810   0.322   5.576   0.201  0.6094 -0.3572 -0.1848
 4260SOL     OW16811   4.439   2.682   4.386 -0.4834  0.2823  0.0615
 4260SOL    HW216812   4.366   2.743   4.381 -0.5138  0.1881 -0.8107
 4260SOL    HW316813   4.500   2.711   4.319 -1.2225 -1.5587 -1.5080
 4260SOL    MW416814   4.438   2.694   4.377  0.0931 -0.5474 -0.5591
 4261SOL     OW16815   4.862   2.710   2.731 -0.4693  0.0334  0.0796
 4261SOL    HW216816   4.850   2.745   2.818 -1.6124 -0.0901 -0.0133
 4261SOL    HW316817   4.938   2.652   2.738  0.8806  1.8014  0.4254
 4261SOL    MW416818   4.870   2.707   2.743  0.3664 -0.0414 -0.6107
 4262SOL     OW16819   5.453   6.328   4.401 -0.5907 -0.1565 -0.0870
 4262SOL    HW216820   5.498   6.249   4.430  0.5190  0.2314 -0.6461
 4262SOL    HW316821   5.397   6.299   4.329  0.4991 -0.3228 -0.9079
 4262SOL    MW416822   5.452   6.314   4.395  0.5872  0.3766 -1.2293
 4263SOL     OW16823   1.060   2.571   2.303  0.3766 -0.3492 -0.2770
 4263SOL    HW216824   1.139   2.527   2.273 -0.8255 -0.5761 -3.4114
 4263SOL    HW316825   1.092   2.653   2.341  2.2185 -1.3633  0.4915
 4263SOL    MW416826   1.075   2.576   2.304  0.5341 -0.0113 -0.5321
 4264SOL     OW16827   3.926   6.346   3.896  0.3155 -0.0974  0.2828
 4264SOL    HW216828   4.005   6.389   3.926 -0.7203  2.0595  0.1139
 4264SOL    HW316829   3.886   6.310   3.975  0.5338  0.4274  0.6305
 4264SOL    MW416830   3.931   6.347   3.910  0.6382  0.1216 -0.4294
 4265SOL     OW16831   5.735   3.381   6.104 -0.5465  0.0558 -0.2891
 4265SOL    HW216832   5.750   3.421   6.018  1.7230 -1.7342 -0.7986
 4265SOL    HW316833   5.665   3.318   6.088 -2.2328  1.7647 -0.0751
 4265SOL    MW416834   5.727   3.378   6.090 -0.5210  0.3038  0.5192
 4266SOL     OW16835   2.157   0.505   4.558 -0.2486  0.0765 -0.1276
 4266SOL    HW216836   2.212   0.503   4.480  0.4860 -0.9902  0.3842
 4266SOL    HW316837   2.190   0.579   4.609  0.3912 -0.2404 -0.0648
 4266SOL    MW416838   2.169   0.514   4.555 -0.2348  0.3080  0.0185
 4267SOL     OW16839   2.747   5.841   3.822  0.1768 -0.1655 -0.0666
 4267SOL    HW216840   2.739   5.766   3.763  1.3730  0.2748 -0.8247
 4267SOL    HW316841   2.657   5.866   3.841 -0.2343 -1.4011 -0.3087
 4267SOL    MW416842   2.734   5.834   3.817  0.3007  0.0954  0.2048
 4268SOL     OW16843   5.579   2.488   4.260  0.5046  0.2115 -0.2216
 4268SOL    HW216844   5.640   2.485   4.334  2.1401 -1.9619 -1.5350
 4268SOL    HW316845   5.529   2.569   4.274  2.8448  1.4992  1.5717
 4268SOL    MW416846   5.580   2.498   4.272  0.2960  0.6900  0.4028
 4269SOL     OW16847   3.464   5.174   1.479 -0.0282 -0.6842  0.5751
 4269SOL    HW216848   3.419   5.191   1.396 -0.1843 -2.8444  0.1565
 4269SOL    HW316849   3.513   5.254   1.497 -0.3531  0.0043 -1.3825
 4269SOL    MW416850   3.465   5.187   1.471  0.4313 -0.0764 -0.0949
 4270SOL     OW16851   4.887   1.740   0.256 -0.2701  0.2682  0.5126
 4270SOL    HW216852   4.956   1.786   0.304  1.4655  0.2818 -1.8484
 4270SOL    HW316853   4.874   1.659   0.306  2.7282 -0.5506  0.1663
 4270SOL    MW416854   4.894   1.735   0.269 -0.1310  0.6744  0.1366
 4271SOL     OW16855   1.919   5.669   1.019  0.0815 -0.5381  0.0035
 4271SOL    HW216856   1.868   5.750   1.020 -0.2886 -0.7747  0.1512
 4271SOL    HW316857   1.999   5.690   1.066  0.8186  0.2913 -1.5232
 4271SOL    MW416858   1.923   5.683   1.025  0.6113 -0.0938 -0.1106
 4272SOL     OW16859   0.016   6.285   0.311 -0.4125 -0.1710 -0.0116
 4272SOL    HW216860   0.047   6.219   0.249 -0.3991  0.5108 -0.7520
 4272SOL    HW316861   0.092   6.302   0.367 -0.1322 -0.1303 -0.3943
 4272SOL    MW416862   0.030   6.279   0.310 -0.0915 -0.0832  0.6077
 4273SOL     OW16863   3.544   2.331   1.713 -0.4502  0.0246  0.1130
 4273SOL    HW216864   3.448   2.336   1.708 -0.4217  0.0092 -0.4669
 4273SOL    HW316865   3.571   2.418   1.741 -0.5588  0.4124 -0.9291
 4273SOL    MW416866   3.535   2.343   1.716  0.1442 -0.0574 -0.1401
 4274SOL     OW16867   3.319   0.417   0.274  0.5737  0.4503  0.6001
 4274SOL    HW216868   3.377   0.349   0.241  0.2655  0.4958 -0.0625
 4274SOL    HW316869   3.232   0.376   0.273  0.7007  0.0128  2.6017
 4274SOL    MW416870   3.315   0.403   0.270  0.5911 -0.6880  0.4035
 4275SOL     OW16871   4.623   3.071   2.892  0.3064 -0.4885  0.4579
 4275SOL    HW216872   4.637   3.080   2.986  0.4485  2.0626  0.2563
 4275SOL    HW316873   4.708   3.091   2.853  0.5518 -2.6095 -0.2487
 4275SOL    MW416874   4.636   3.075   2.899  0.3538 -0.3191  0.5568
 4276SOL     OW16875   2.935   5.290   2.598 -0.0192 -0.3881  0.0271
 4276SOL    HW216876   2.894   5.245   2.672 -0.5896  0.8175  0.4574
 4276SOL    HW316877   2.945   5.380   2.627  0.2798 -0.0231 -1.1582
 4276SOL    MW416878   2.931   5.296   2.611  0.2308 -0.3744 -0.0290
 4277SOL     OW16879   3.436   0.278   1.302 -0.1979  0.1798  0.3308
 4277SOL    HW216880   3.420   0.203   1.245  1.9107 -0.4094  0.4337
 4277SOL    HW316881   3.384   0.349   1.264 -2.0362 -1.2506  0.0917
 4277SOL    MW416882   3.427   0.278   1.290  0.0220  0.4967  0.2807
 4278SOL     OW16883   5.266   4.675   6.131 -0.0434 -0.3007  0.3479
 4278SOL    HW216884   5.206   4.615   6.087  1.0103 -2.2036  1.3749
 4278SOL    HW316885   5.211   4.747   6.159 -1.5065 -1.1197 -0.3024
 4278SOL    MW416886   5.251   4.677   6.129 -0.2777 -0.0522 -0.4590
 4279SOL     OW16887   3.246   1.955   1.248 -0.2296 -0.3507 -0.3638
 4279SOL    HW216888   3.202   1.878   1.212 -0.3503  0.4507 -2.0597
 4279SOL    HW316889   3.186   2.027   1.231 -0.2201  0.1192  1.4026
 4279SOL    MW416890   3.233   1.954   1.241 -0.3267  0.6316  0.0325
 4280SOL     OW16891   3.884   0.577   4.230 -0.0085 -0.6188 -0.2928
 4280SOL    HW216892   3.864   0.528   4.310  0.2187  0.1300  0.2265
 4280SOL    HW316893   3.980   0.576   4.225  0.1026  1.5093  0.8259
 4280SOL    MW416894   3.894   0.570   4.240 -0.2533  0.3330 -0.2412
 4281SOL     OW16895   5.410   3.150   5.685  0.7363 -0.8796  0.2320
 4281SOL    HW216896   5.383   3.191   5.767  0.0839 -1.2673  0.2180
 4281SOL    HW316897   5.386   3.214   5.618  1.6287 -0.3907  0.3600
 4281SOL    MW416898   5.403   3.164   5.687  0.2311  0.2719 -0.0736
 4282SOL     OW16899   2.232   4.611   2.497 -0.0932 -0.4326 -0.0551
 4282SOL    HW216900   2.140   4.587   2.489  0.6473 -3.1964 -1.7610
 4282SOL    HW316901   2.267   4.549   2.562  0.8234 -0.3579 -0.4642
 4282SOL    MW416902   2.225   4.600   2.504 -0.0293  0.2762 -0.2375
 4283SOL     OW16903   6.001   5.937   4.987  0.2813 -0.5406  0.1894
 4283SOL    HW216904   5.961   5.988   5.058  2.0660 -0.4428  1.2060
 4283SOL    HW316905   6.056   6.000   4.941  0.4752 -0.9802 -0.1823
 4283SOL    MW416906   6.003   5.952   4.991  0.0930  0.1208  0.1281
 4284SOL     OW16907   1.091   3.118   1.966  0.2769 -0.1735  0.1115
 4284SOL    HW216908   1.134   3.049   1.916  0.6984 -1.8479  2.5703
 4284SOL    HW316909   1.137   3.118   2.050 -1.1582  1.6131  0.9627
 4284SOL    MW416910   1.103   3.108   1.971  0.5117  0.1646  0.2637
 4285SOL     OW16911   5.148   3.517   1.653 -0.0726  0.1012  0.3280
 4285SOL    HW216912   5.128   3.610   1.661 -0.6725 -0.0372  0.5079
 4285SOL    HW316913   5.234   3.514   1.611 -0.7962  0.6998 -1.2715
 4285SOL    MW416914   5.157   3.529   1.649 -0.3012  0.7256  0.2825
 4286SOL     OW16915   5.765   0.172   0.149  0.7147  0.6523  0.3394
 4286SOL    HW216916   5.800   0.184   0.237 -2.0084 -0.0041  1.5981
 4286SOL    HW316917   5.769   0.259   0.110  1.4753  1.0532  1.2739
 4286SOL    MW416918   5.770   0.185   0.155 -0.2818 -0.2752  0.6300
 4287SOL     OW16919   4.876   2.902   2.942 -0.1836  0.3236  0.7085
 4287SOL    HW216920   4.853   2.928   3.031  2.0239  1.0990  1.1318
 4287SOL    HW316921   4.921   2.979   2.905  1.4245 -0.9027 -0.0480
 4287SOL    MW416922   4.879   2.916   2.949 -0.2442 -0.4491 -0.2055
 4288SOL     OW16923   2.174   0.276   4.232  0.4814 -0.4155  0.5164
 4288SOL    HW216924   2.238   0.256   4.164  0.4584  0.7221  0.1460
 4288SOL    HW316925   2.090   0.281   4.186  0.7252  2.3167  0.2377
 4288SOL    MW416926   2.171   0.274   4.217 -0.3549  0.2961 -0.3746
 4289SOL     OW16927   5.716   2.276   5.122 -0.1087 -0.1725 -0.0178
 4289SOL    HW216928   5.680   2.357   5.159 -1.0733 -1.3572  1.8097
 4289SOL    HW316929   5.739   2.299   5.032 -1.2157  1.8741  0.1495
 4289SOL    MW416930   5.714   2.290   5.115  0.9338 -0.0521 -0.0411
 4290SOL     OW16931   4.386   1.532   4.007 -0.2208 -0.1161 -0.3844
 4290SOL    HW216932   4.317   1.492   4.059 -0.4438  0.8599  0.0829
 4290SOL    HW316933   4.340   1.579   3.937  0.0105 -0.1829 -0.5851
 4290SOL    MW416934   4.371   1.533   4.004  0.7788  0.3074 -0.0075
 4291SOL     OW16935   6.038   0.596   6.026  0.3046 -0.1941  0.0654
 4291SOL    HW216936   6.015   0.684   6.055 -4.0114 -0.6944 -1.2028
 4291SOL    HW316937   6.063   0.606   5.935  2.5702 -0.0651  0.6315
 4291SOL    MW416938   6.038   0.609   6.018 -0.0310 -0.6630  0.2245
 4292SOL     OW16939   2.439   2.015   2.268  0.1630 -0.8497 -0.1072
 4292SOL    HW216940   2.449   1.984   2.358 -1.1755  1.1861  0.7918
 4292SOL    HW316941   2.486   2.098   2.265  1.2277 -1.4493 -1.6702
 4292SOL    MW416942   2.447   2.022   2.279  0.3894  0.1344 -0.1338
 4293SOL     OW16943   2.269   1.425   2.065 -0.5357 -0.1340  0.0635
 4293SOL    HW216944   2.270   1.358   1.997 -2.4597 -0.2579  0.1204
 4293SOL    HW316945   2.196   1.482   2.042 -0.0610  0.9080  1.0242
 4293SOL    MW416946   2.260   1.424   2.053 -0.2195  0.4202  0.2398
 4294SOL     OW16947   2.622   2.023   0.471  0.9771  0.2303 -0.2767
 4294SOL    HW216948   2.599   1.983   0.386 -0.7600 -1.5210  0.9196
 4294SOL    HW316949   2.545   2.074   0.495  1.0705 -0.0410  0.6478
 4294SOL    MW416950   2.609   2.024   0.463  0.6173  0.0482 -0.6687
 4295SOL     OW16951   3.634   0.395   3.452 -0.5903  0.3259  0.4862
 4295SOL    HW216952   3.622   0.471   3.395  0.3969 -0.2294 -0.4873
 4295SOL    HW316953   3.546   0.360   3.462 -0.5670 -1.0642 -2.8583
 4295SOL    MW416954   3.621   0.401   3.446 -0.2640  0.1062 -0.5319
 4296SOL     OW16955   2.633   2.355   2.061 -0.1756 -0.1063  0.3095
 4296SOL    HW216956   2.677   2.433   2.095 -1.6815  1.0154 -0.2116
 4296SOL    HW316957   2.658   2.351   1.969  0.6021 -0.7860  0.5287
 4296SOL    MW416958   2.642   2.364   2.053 -0.1477  0.0817  0.8827
 4297SOL     OW16959   5.235   6.131   1.220  0.0649 -0.4009 -0.1464
 4297SOL    HW216960   5.214   6.200   1.157  1.4037  0.9625  0.8268
 4297SOL    HW316961   5.153   6.116   1.267 -0.8805 -1.2351 -1.9505
 4297SOL    MW416962   5.221   6.138   1.218 -0.0612  0.2097  0.0893
 4298SOL     OW16963   3.214   6.289   0.184 -0.4378 -0.0782  0.3385
 4298SOL    HW216964   3.194   6.378   0.212  0.3064  0.0260  0.5653
 4298SOL    HW316965   3.309   6.290   0.169 -0.3891 -0.9012  0.5863
 4298SOL    MW416966   3.224   6.301   0.186 -1.4318 -1.2438 -0.6390
 4299SOL     OW16967   1.580   4.184   4.131 -0.0094 -0.0359  0.2201
 4299SOL    HW216968   1.644   4.129   4.177  1.1683  0.4761 -0.7473
 4299SOL    HW316969   1.497   4.139   4.145  0.3413 -0.1316  2.4480
 4299SOL    MW416970   1.578   4.171   4.139  0.7636 -0.5819 -0.1927
 4300SOL     OW16971   3.340   3.217   2.099  0.1091  0.5169  0.2819
 4300SOL    HW216972   3.305   3.306   2.110 -1.1512  0.0622  0.0928
 4300SOL    HW316973   3.276   3.173   2.043  0.3580 -0.7118  0.9335
 4300SOL    MW416974   3.327   3.223   2.093 -0.3657  0.5123 -0.1722
 4301SOL     OW16975   2.370   5.708   6.127 -0.2929 -0.0214 -0.6043
 4301SOL    HW216976   2.319   5.644   6.076  2.0868 -1.8923 -0.7751
 4301SOL    HW316977   2.396   5.774   6.062 -1.6175  0.4653 -0.6921
 4301SOL    MW416978   2.367   5.709   6.112  0.2598 -0.0281  0.0874
 4302SOL     OW16979   1.955   3.987   3.814 -0.0062  0.0893 -0.2554
 4302SOL    HW216980   1.951   4.033   3.897 -1.1774  0.4913 -0.5244
 4302SOL    HW316981   1.997   3.903   3.835 -0.4574  0.1106  0.7683
 4302SOL    MW416982   1.960   3.982   3.828  0.0331  0.1806 -0.7158
 4303SOL     OW16983   0.025   0.011   5.785  0.1241  0.4164  0.4265
 4303SOL    HW216984   0.058   0.072   5.851 -0.9296  0.2331  1.1529
 4303SOL    HW316985   0.042   0.054   5.701  1.6084  0.5879  0.7912
 4303SOL    MW416986   0.031   0.024   5.782 -0.1246  0.0084  0.1178
 4304SOL     OW16987   4.844   2.563   4.201  0.4752  0.3043  1.2094
 4304SOL    HW216988   4.789   2.548   4.278 -0.2704 -0.1966  0.5889
 4304SOL    HW316989   4.835   2.483   4.149  1.4231  0.4047  0.8716
 4304SOL    MW416990   4.836   2.550   4.204 -0.4419 -0.1514  0.5049
 4305SOL     OW16991   0.093   5.171   1.121  0.0865  0.5742  0.0516
 4305SOL    HW216992   0.085   5.261   1.088  1.0680  1.8528  2.9439
 4305SOL    HW316993   0.032   5.120   1.067 -3.8998  3.7670  1.0024
 4305SOL    MW416994   0.084   5.176   1.109  0.2202 -0.1609  0.4824
 4306SOL     OW16995   0.428   4.348   4.211 -0.2676 -0.1123  0.2359
 4306SOL    HW216996   0.520   4.346   4.186 -0.1117  1.1691  0.6259
 4306SOL    HW316997   0.400   4.257   4.207  1.4357 -0.7385  1.6603
 4306SOL    MW416998   0.436   4.336   4.207  0.3583  0.0741  0.0091
 4307SOL     OW16999   2.183   6.159   4.684  0.1249  0.1891  0.5419
 4307SOL    HW217000   2.174   6.128   4.774  0.0790 -0.7422  0.2357
 4307SOL    HW317001   2.098   6.138   4.644  0.1907  0.4798  0.2500
 4307SOL    MW417002   2.170   6.152   4.690  0.6170 -0.4444  0.0898
 4308SOL     OW17003   6.271   2.620   2.755  0.0570 -0.5722  0.3894
 4308SOL    HW217004   6.358   2.597   2.722 -0.5290 -1.1959 -0.7754
 4308SOL    HW317005   6.286   2.700   2.806  1.6302 -1.7521  1.9104
 4308SOL    MW417006   6.285   2.628   2.758 -0.3978 -0.1174  0.1541
 4309SOL     OW17007   2.114   0.154   0.874  0.1530  0.0079 -0.0372
 4309SOL    HW217008   2.059   0.194   0.941  1.8273  1.9123  0.3042
 4309SOL    HW317009   2.159   0.083   0.920  0.8492  0.9254  0.7609
 4309SOL    MW417010   2.113   0.150   0.889  0.0670  0.2547 -0.0166
 4310SOL     OW17011   4.635   5.111   3.330  0.3183 -0.0359 -0.1961
 4310SOL    HW217012   4.702   5.109   3.400  0.0326 -1.6727  0.0758
 4310SOL    HW317013   4.577   5.182   3.355 -0.2363 -1.0880  1.7291
 4310SOL    MW417014   4.636   5.120   3.343 -0.2126  0.4112  0.1604
 4311SOL     OW17015   2.723   2.365   0.894 -0.3194 -0.3261  0.0221
 4311SOL    HW217016   2.659   2.315   0.945  0.1680 -0.9854  0.0042
 4311SOL    HW317017   2.808   2.339   0.930  0.0087 -0.5443 -0.8944
 4311SOL    MW417018   2.726   2.355   0.905 -0.4418  0.3037  0.6711
 4312SOL     OW17019   4.390   3.694   1.520  0.2324  0.4839 -0.3260
 4312SOL    HW217020   4.437   3.735   1.592 -0.9812 -0.5387  1.1047
 4312SOL    HW317021   4.417   3.744   1.442 -0.6354  3.5737  1.1809
 4312SOL    MW417022   4.400   3.706   1.519  0.6388 -0.0777  0.3336
 4313SOL     OW17023   0.367   3.709   0.787  0.4887  0.1033 -0.0916
 4313SOL    HW217024   0.356   3.741   0.697 -0.2829 -1.4727 -0.5910
 4313SOL    HW317025   0.371   3.789   0.840  2.8573  1.1585 -1.6793
 4313SOL    MW417026   0.366   3.724   0.782  0.0876  0.1494  0.7389
 4314SOL     OW17027   4.699   0.115   6.410 -0.6201 -0.6786 -0.6413
 4314SOL    HW217028   4.745   0.032   6.400 -0.0135 -0.5907  1.1303
 4314SOL    HW317029   4.767   0.181   6.412 -1.1223 -0.0711 -2.3930
 4314SOL    MW417030   4.714   0.113   6.409  0.5512 -0.1977  0.0238
 4315SOL     OW17031   1.219   0.135   0.057  0.3594  0.1616 -0.1925
 4315SOL    HW217032   1.154   0.188   0.012  0.2719  1.7126  1.6410
 4315SOL    HW317033   1.169   0.065   0.099 -0.0197  0.7122  0.2983
 4315SOL    MW417034   1.204   0.133   0.057 -0.2005  0.9404 -0.3579
 4316SOL     OW17035   2.146   1.619   1.371  0.2792 -0.5078 -0.1361
 4316SOL    HW217036   2.229   1.619   1.419  0.1414 -0.7802  0.1061
 4316SOL    HW317037   2.083   1.581   1.432 -0.3799  1.1470  0.2632
 4316SOL    MW417038   2.149   1.614   1.385 -0.1806  1.2990 -0.3961
 4317SOL     OW17039   0.629   4.131   3.459  0.1174  0.7410 -0.1334
 4317SOL    HW217040   0.599   4.040   3.469  0.7832  0.7392  2.3713
 4317SOL    HW317041   0.725   4.124   3.456  0.1569  1.3326 -0.3236
 4317SOL    MW417042   0.638   4.118   3.460  0.1337  0.0873  0.4163
 4318SOL     OW17043   2.880   0.787   4.527 -0.5421  0.1030 -0.1668
 4318SOL    HW217044   2.940   0.751   4.592 -3.5510 -0.4732  2.5169
 4318SOL    HW317045   2.819   0.715   4.509 -1.1686  1.0083 -1.8765
 4318SOL    MW417046   2.880   0.773   4.533  0.4800 -0.2177  0.2225
 4319SOL     OW17047   1.317   1.906   1.287 -0.2634 -0.3105 -0.2331
 4319SOL    HW217048   1.348   1.816   1.286 -0.1038 -0.2571 -0.1448
 4319SOL    HW317049   1.275   1.918   1.202 -1.1282 -0.7572  0.1293
 4319SOL    MW417050   1.316   1.896   1.276  0.0141 -0.4066  0.3154
 4320SOL     OW17051   3.224   6.273   1.797  0.0251 -0.4003  0.4429
 4320SOL    HW217052   3.157   6.341   1.795 -0.7781 -1.1675  0.1326
 4320SOL    HW317053   3.301   6.315   1.834 -0.0560  1.0131 -0.9408
 4320SOL    MW417054   3.225   6.287   1.802  0.4888 -0.3638 -0.5318
 4321SOL     OW17055   4.999   0.312   1.497  0.8106  0.1881  0.5140
 4321SOL    HW217056   5.058   0.259   1.549  1.1240 -0.8756 -0.8620
 4321SOL    HW317057   5.054   0.382   1.462  0.6263  0.8280  1.4677
 4321SOL    MW417058   5.014   0.315   1.499  0.1984 -0.0379 -0.7824
 4322SOL     OW17059   3.305   5.756   0.752  0.0914 -0.2383 -0.2877
 4322SOL    HW217060   3.342   5.773   0.666  0.6798  0.6790  0.1252
 4322SOL    HW317061   3.381   5.740   0.809 -0.2987 -1.0567  0.0214
 4322SOL    MW417062   3.320   5.756   0.748  0.2052 -0.1014 -0.9189
 4323SOL     OW17063   2.718   1.636   2.476 -0.1215  0.0245  0.2859
 4323SOL    HW217064   2.633   1.639   2.431 -0.3870  0.4278  0.8010
 4323SOL    HW317065   2.761   1.558   2.441 -0.7919 -0.3007  0.1717
 4323SOL    MW417066   2.712   1.627   2.465  0.3966 -0.6250  0.3617
 4324SOL     OW17067   1.100   1.683   4.500  0.3378  0.2845 -0.2447
 4324SOL    HW217068   1.101   1.655   4.592  0.3935 -0.9305 -0.6002
 4324SOL    HW317069   1.190   1.709   4.482  0.2783  0.7502  0.0970
 4324SOL    MW417070   1.112   1.683   4.510  0.3679  0.3740 -0.4615
 4325SOL     OW17071   4.232   1.270   3.777 -0.2711  0.0138  0.9254
 4325SOL    HW217072   4.255   1.194   3.724 -0.2312 -0.5807  1.7655
 4325SOL    HW317073   4.144   1.250   3.811 -0.9995  1.1264 -0.2232
 4325SOL    MW417074   4.223   1.257   3.775 -0.3540 -0.1623  0.2831
 4326SOL     OW17075   5.296   6.107   3.388 -0.4085  0.0385 -0.5844
 4326SOL    HW217076   5.200   6.100   3.381 -0.5036  1.1978 -0.5961
 4326SOL    HW317077   5.325   6.118   3.297 -0.3986  1.1680 -0.4476
 4326SOL    MW417078   5.287   6.107   3.375  0.0216 -0.4995  0.2586
 4327SOL     OW17079   3.212   3.430   2.837 -0.1702  0.0933 -0.1060
 4327SOL    HW217080   3.208   3.511   2.889 -1.9622 -0.5768  0.8623
 4327SOL    HW317081   3.176   3.455   2.752 -0.8486  0.2837  0.2339
 4327SOL    MW417082   3.207   3.444   2.833  0.0498  0.0283  0.1566
 4328SOL     OW17083   2.600   4.643   1.154  0.3562 -0.4588 -0.4422
 4328SOL    HW217084   2.651   4.704   1.207  0.6322 -0.2577 -0.9288
 4328SOL    HW317085   2.510   4.674   1.160  0.5429  0.2051 -0.9624
 4328SOL    MW417086   2.595   4.655   1.162  0.3162 -0.0314  0.0124
 4329SOL     OW17087   3.133   5.998   4.331 -0.1290 -0.2256  0.4192
 4329SOL    HW217088   3.038   5.992   4.332 -0.2743  0.0164 -2.7887
 4329SOL    HW317089   3.152   6.088   4.307  0.9483 -0.1610  1.4107
 4329SOL    MW417090   3.123   6.009   4.328 -0.4158  0.4933 -0.0117
 4330SOL     OW17091   0.203   1.143   2.151 -0.3567  0.4793 -0.2009
 4330SOL    HW217092   0.289   1.121   2.187 -0.7123  2.0963  1.8120
 4330SOL    HW317093   0.142   1.123   2.222 -1.7749 -1.1576 -1.7738
 4330SOL    MW417094   0.206   1.137   2.165 -0.4217 -0.2963 -0.1016
 4331SOL     OW17095   5.370   3.464   1.473 -0.6301 -0.5343 -0.3371
 4331SOL    HW217096   5.344   3.400   1.406 -3.0572  0.9681 -0.9504
 4331SOL    HW317097   5.438   3.516   1.430 -0.2527 -1.2588 -0.6467
 4331SOL    MW417098   5.376   3.462   1.458  0.1955  0.4621 -0.0332
 4332SOL     OW17099   1.076   2.053   0.103  0.2044  0.3770  0.0920
 4332SOL    HW217100   1.026   2.091   0.175  0.8264 -0.6620  1.0995
 4332SOL    HW317101   1.010   2.035   0.036 -0.3917  1.3037  0.4100
 4332SOL    MW417102   1.061   2.056   0.104  0.3095 -0.1286 -0.4087
 4333SOL     OW17103   5.850   5.029   6.318 -0.6910  0.0440  0.3819
 4333SOL    HW217104   5.853   4.951   6.374  0.5226  0.2084  0.5763
 4333SOL    HW317105   5.786   5.086   6.361 -0.3839 -0.1733  1.1472
 4333SOL    MW417106   5.842   5.026   6.331 -0.1690  0.1180  0.4864
 4334SOL     OW17107   5.890   4.541   6.190  0.4692 -0.2539  0.1698
 4334SOL    HW217108   5.879   4.466   6.249  0.3173 -0.2619  0.1317
 4334SOL    HW317109   5.801   4.561   6.160  0.3169  0.7943  1.2460
 4334SOL    MW417110   5.877   4.534   6.194 -0.0659 -0.0295 -0.3969
 4335SOL     OW17111   5.110   3.998   2.726  0.5329  0.1701 -0.0188
 4335SOL    HW217112   5.061   3.973   2.805 -1.6947  0.4784 -1.2180
 4335SOL    HW317113   5.120   3.916   2.677  1.8677 -0.0119  0.5212
 4335SOL    MW417114   5.105   3.984   2.730 -0.0969 -0.1360 -0.4028
 4336SOL     OW17115   3.230   6.307   4.611  0.3136  0.1550  0.1307
 4336SOL    HW217116   3.185   6.376   4.660  0.4631  0.6178 -0.3712
 4336SOL    HW317117   3.276   6.256   4.678  0.9643  1.1037  0.4359
 4336SOL    MW417118   3.230   6.310   4.626  0.1494  0.0982 -0.0764
 4337SOL     OW17119   6.148   6.384   1.511 -0.1370  0.2740  0.5429
 4337SOL    HW217120   6.182   6.424   1.431  1.0569 -1.0536  0.3375
 4337SOL    HW317121   6.215   6.320   1.536 -1.5386 -0.9545  1.3233
 4337SOL    MW417122   6.161   6.380   1.503  0.0230  0.0181  0.0776
 4338SOL     OW17123   4.680   4.911   5.978 -0.0772  0.7032 -0.8543
 4338SOL    HW217124   4.597   4.868   5.955  0.5686 -1.5529  0.7135
 4338SOL    HW317125   4.747   4.846   5.957  0.8902  0.4619  2.4857
 4338SOL    MW417126   4.678   4.897   5.972  0.2241  0.1852  0.6157
 4339SOL     OW17127   2.170   0.226   2.618 -0.4973 -0.4981  0.5110
 4339SOL    HW217128   2.185   0.306   2.568 -1.5793 -0.2087  0.6312
 4339SOL    HW317129   2.147   0.256   2.705  1.1085 -1.0004  1.1533
 4339SOL    MW417130   2.169   0.241   2.623  0.2174 -0.8389 -0.4025
 4340SOL     OW17131   5.359   0.757   4.471 -0.1936 -0.5420  0.2071
 4340SOL    HW217132   5.398   0.782   4.554  2.4657  0.0353 -1.1260
 4340SOL    HW317133   5.345   0.839   4.424 -0.2599 -0.9405 -0.4919
 4340SOL    MW417134   5.362   0.771   4.476 -0.5158 -0.2094  0.2939
 4341SOL     OW17135   6.292   0.816   0.292  0.1783  0.5239 -0.3257
 4341SOL    HW217136   6.271   0.821   0.386 -1.5615 -0.7564 -0.6151
 4341SOL    HW317137   6.241   0.887   0.252  0.5563  0.7711 -0.3752
 4341SOL    MW417138   6.283   0.826   0.299  0.9973 -0.3501 -0.1562
 4342SOL     OW17139   5.764   3.973   2.225 -0.1144 -0.7203  0.1397
 4342SOL    HW217140   5.768   4.069   2.226 -1.5130 -0.6367  0.0148
 4342SOL    HW317141   5.846   3.945   2.265  0.8486  0.5009 -0.8680
 4342SOL    MW417142   5.775   3.982   2.230 -0.3255 -0.5192  0.0064
 4343SOL     OW17143   1.035   4.724   4.644 -0.2590  0.0238  0.5924
 4343SOL    HW217144   1.106   4.689   4.590 -0.1547 -0.0948  0.8082
 4343SOL    HW317145   0.956   4.679   4.611 -0.0688 -0.7539  1.1568
 4343SOL    MW417146   1.034   4.713   4.632 -0.3223 -0.0403  0.0728
 4344SOL     OW17147   2.868   0.606   3.164 -0.3885 -0.3502  0.3293
 4344SOL    HW217148   2.927   0.531   3.159  0.1869  0.0561  0.8634
 4344SOL    HW317149   2.806   0.593   3.092 -0.8925 -1.8434  0.9963
 4344SOL    MW417150   2.867   0.594   3.154 -0.2809 -0.3652  0.0207
 4345SOL     OW17151   3.087   2.927   2.267 -0.1549  0.3857 -0.0576
 4345SOL    HW217152   3.067   2.876   2.346 -1.0412  0.2401 -0.3615
 4345SOL    HW317153   3.140   2.867   2.213  1.4095  0.8778  0.8841
 4345SOL    MW417154   3.091   2.912   2.270  0.3917 -0.2389  0.4192
 4346SOL     OW17155   5.312   5.205   4.307 -0.9043 -0.8115 -0.3200
 4346SOL    HW217156   5.295   5.228   4.399  2.9605  0.7117  0.2341
 4346SOL    HW317157   5.257   5.266   4.257 -1.2993 -0.0110  1.0252
 4346SOL    MW417158   5.302   5.216   4.313  0.2526  0.0347  0.0232
 4347SOL     OW17159   5.287   6.291   1.784 -0.6427  0.7953  0.4901
 4347SOL    HW217160   5.263   6.199   1.793 -2.2391  1.2683  1.3004
 4347SOL    HW317161   5.380   6.289   1.759 -0.6728 -1.0195  0.4098
 4347SOL    MW417162   5.296   6.279   1.782  0.0001 -0.7762  0.3971
 4348SOL     OW17163   0.312   0.091   6.200  0.2791 -0.5103  0.0854
 4348SOL    HW217164   0.243   0.128   6.144  1.0541 -0.0692 -0.5890
 4348SOL    HW317165   0.359   0.030   6.143  4.2006  3.4218 -1.4362
 4348SOL    MW417166   0.309   0.088   6.185 -0.0165 -0.3087 -0.1702
 4349SOL     OW17167   1.874   5.601   2.051  0.3393 -0.4404 -0.2342
 4349SOL    HW217168   1.788   5.612   2.011  0.1823  0.1107  0.2374
 4349SOL    HW317169   1.931   5.660   2.002  0.3868 -0.5927 -0.3622
 4349SOL    MW417170   1.870   5.610   2.039 -0.0670 -0.0510  0.2054
 4350SOL     OW17171   0.396   3.530   3.204  0.0586  0.2923  0.0489
 4350SOL    HW217172   0.347   3.448   3.210 -1.0331  0.8788 -0.6635
 4350SOL    HW317173   0.486   3.502   3.186 -0.1490 -0.7705  0.5741
 4350SOL    MW417174   0.402   3.515   3.203  0.0797 -0.8655 -0.3310
 4351SOL     OW17175   6.008   2.246   3.572 -0.1930 -0.0734 -0.2259
 4351SOL    HW217176   6.061   2.317   3.534  0.0952  0.9466  1.9512
 4351SOL    HW317177   5.919   2.264   3.542  0.1009  0.3442 -0.8816
 4351SOL    MW417178   6.003   2.258   3.563 -0.6281 -0.6060  0.3414
 4352SOL     OW17179   4.751   5.722   3.824 -0.6303 -0.1752 -0.1475
 4352SOL    HW217180   4.790   5.665   3.890  0.7595  0.8548 -0.0357
 4352SOL    HW317181   4.761   5.674   3.742 -0.8275 -0.7226  0.1387
 4352SOL    MW417182   4.757   5.708   3.822 -0.0565  0.8868 -0.3154
 4353SOL     OW17183   4.683   5.200   1.799  0.3965 -0.3062  0.3632
 4353SOL    HW217184   4.672   5.196   1.704  1.4087 -0.8456  0.2481
 4353SOL    HW317185   4.775   5.222   1.811  0.1391  0.3328  1.2283
 4353SOL    MW417186   4.693   5.202   1.788  0.0834  0.1264  0.4570
 4354SOL     OW17187   1.027   6.026   3.010  0.2381  0.1528 -0.3586
 4354SOL    HW217188   1.088   6.100   3.003  0.5878 -0.1252 -0.2661
 4354SOL    HW317189   1.060   5.961   2.949  0.2593 -0.1535 -0.0254
 4354SOL    MW417190   1.040   6.027   3.001 -0.6654  0.0601  0.4827
 4355SOL     OW17191   6.250   0.239   0.171  0.0121 -0.1051 -0.0247
 4355SOL    HW217192   6.327   0.202   0.213  0.0788  1.0253  0.8968
 4355SOL    HW317193   6.206   0.164   0.130  0.8410 -0.9670  0.6313
 4355SOL    MW417194   6.254   0.224   0.171  0.1929 -0.4445  0.2565
 4356SOL     OW17195   2.833   4.386   5.760  0.2362  0.4222  0.0261
 4356SOL    HW217196   2.837   4.383   5.856 -0.5141 -1.8939  0.0406
 4356SOL    HW317197   2.921   4.358   5.732 -0.7931 -3.3950  0.1413
 4356SOL    MW417198   2.845   4.382   5.769 -0.0116  0.4151 -0.3497
 4357SOL     OW17199   2.792   3.029   5.251  0.0404 -0.6801 -0.1162
 4357SOL    HW217200   2.781   2.951   5.195  0.2974  0.0487 -1.2173
 4357SOL    HW317201   2.839   3.091   5.196  0.0529  0.1759  0.8374
 4357SOL    MW417202   2.796   3.027   5.236  0.0774  0.1193 -0.2760
 4358SOL     OW17203   2.040   2.526   2.020  0.3927 -0.2533  0.8263
 4358SOL    HW217204   2.019   2.446   1.972  0.2005  1.2590 -1.8273
 4358SOL    HW317205   2.006   2.597   1.964  0.1413  1.6839  3.2657
 4358SOL    MW417206   2.033   2.525   2.006  0.5832  0.0240  0.5065
 4359SOL     OW17207   3.993   4.706   0.666 -1.0694 -0.1026  0.0197
 4359SOL    HW217208   3.964   4.797   0.664  0.1074  0.2884  0.4094
 4359SOL    HW317209   4.027   4.690   0.578  3.6060  1.5210  1.2376
 4359SOL    MW417210   3.993   4.716   0.654 -0.2156 -0.2980  0.0452
 4360SOL     OW17211   3.055   2.145   1.146  0.7705 -0.1592 -0.3444
 4360SOL    HW217212   3.025   2.173   1.233  0.9844  1.4861 -0.7739
 4360SOL    HW317213   2.980   2.097   1.110  0.0707  0.5441  0.1268
 4360SOL    MW417214   3.041   2.143   1.153 -0.1168  0.0393  0.6432
 4361SOL     OW17215   1.507   3.097   1.144  0.1481 -0.5669  0.3640
 4361SOL    HW217216   1.543   3.063   1.062 -0.3719 -1.3694  0.4533
 4361SOL    HW317217   1.518   3.025   1.206 -3.1357 -1.5676 -0.0307
 4361SOL    MW417218   1.513   3.083   1.141  0.7478 -0.0283 -0.1823
 4362SOL     OW17219   1.155   2.992   6.141 -0.2217 -0.3808 -0.4756
 4362SOL    HW217220   1.124   3.079   6.166  0.9146  0.2216 -1.0738
 4362SOL    HW317221   1.128   2.935   6.213  1.2234  0.9186  1.1975
 4362SOL    MW417222   1.147   2.996   6.154 -0.5691  0.3028 -0.2650
 4363SOL     OW17223   4.052   2.841   0.967 -0.3283 -0.3428  0.2440
 4363SOL    HW217224   3.995   2.869   0.895  0.8936 -0.9579 -1.0107
 4363SOL    HW317225   4.100   2.920   0.991 -1.4961  0.1260  1.1571
 4363SOL    MW417226   4.051   2.855   0.960 -0.6106 -0.2681  0.1610
 4364SOL     OW17227   4.717   4.801   5.346  0.0528  0.4494 -0.2023
 4364SOL    HW217228   4.626   4.772   5.340 -0.1047  0.8694  0.1276
 4364SOL    HW317229   4.716   4.873   5.409  0.4821  0.9966 -0.8043
 4364SOL    MW417230   4.705   4.807   5.354 -0.2245  0.0237  0.2735
 4365SOL     OW17231   0.702   0.328   5.534  0.7517  0.3504 -0.4211
 4365SOL    HW217232   0.634   0.394   5.544  0.1271 -0.4224  0.6817
 4365SOL    HW317233   0.714   0.320   5.439 -1.8147 -0.5860 -0.7559
 4365SOL    MW417234   0.695   0.336   5.523  1.1538 -0.0407 -0.2062
 4366SOL     OW17235   2.351   5.370   2.780  0.1645  0.1132  0.2890
 4366SOL    HW217236   2.420   5.393   2.718 -0.5590  0.2133 -0.4890
 4366SOL    HW317237   2.350   5.442   2.842 -0.6487  1.1832 -0.9149
 4366SOL    MW417238   2.360   5.382   2.780  0.5885  1.3399  0.3786
 4367SOL     OW17239   3.410   4.760   2.307  0.0903 -0.1221 -0.1049
 4367SOL    HW217240   3.393   4.839   2.255 -1.7308 -0.3470  0.0812
 4367SOL    HW317241   3.346   4.696   2.275  1.3283 -1.4324 -0.0241
 4367SOL    MW417242   3.399   4.762   2.296 -0.2867  0.5201 -0.0305
 4368SOL     OW17243   0.875   0.478   6.200  0.3579  0.2239 -0.7643
 4368SOL    HW217244   0.838   0.432   6.125  0.1448  0.6267 -0.9087
 4368SOL    HW317245   0.807   0.540   6.226  0.0142 -0.6094  0.4029
 4368SOL    MW417246   0.861   0.480   6.193  0.4184  0.0673  0.2198
 4369SOL     OW17247   5.774   3.368   1.467 -0.4469  0.4134  0.0638
 4369SOL    HW217248   5.829   3.289   1.462  2.5166  2.3803 -0.7950
 4369SOL    HW317249   5.749   3.385   1.376 -0.9943  0.5435  0.2357
 4369SOL    MW417250   5.778   3.360   1.454  0.4892 -0.1045 -0.4353
 4370SOL     OW17251   6.170   1.077   3.866  0.0398 -0.1452 -0.0469
 4370SOL    HW217252   6.134   1.026   3.794 -0.1985  2.1047 -1.6226
 4370SOL    HW317253   6.104   1.073   3.934 -1.0122 -0.0507 -1.0390
 4370SOL    MW417254   6.157   1.070   3.865  0.1247 -0.1676  0.7822
 4371SOL     OW17255   6.270   5.388   5.641  0.1247  0.1363 -0.2834
 4371SOL    HW217256   6.339   5.422   5.585  1.2526 -0.7326  0.5443
 4371SOL    HW317257   6.219   5.465   5.667  1.2270  0.8854 -0.3028
 4371SOL    MW417258   6.272   5.402   5.637 -0.2446 -0.1596 -0.0630
 4372SOL     OW17259   1.900   2.531   5.441  0.3057  0.1373 -0.0372
 4372SOL    HW217260   1.922   2.511   5.531 -0.8941  1.3898  0.5797
 4372SOL    HW317261   1.984   2.536   5.395  0.8877 -1.2244  0.8262
 4372SOL    MW417262   1.914   2.529   5.447  0.1775 -0.1943  0.2234
 4373SOL     OW17263   0.107   6.224   1.371 -0.3681  0.5616  0.1952
 4373SOL    HW217264   0.029   6.206   1.319 -1.0747  0.0520  1.3899
 4373SOL    HW317265   0.165   6.150   1.355 -1.4142 -0.6242  1.6388
 4373SOL    MW417266   0.105   6.212   1.362  0.2525 -0.2568  0.1382
 4374SOL     OW17267   3.333   0.282   2.729 -1.0705 -0.1271  0.0493
 4374SOL    HW217268   3.393   0.317   2.796 -0.4714  0.0051 -0.5498
 4374SOL    HW317269   3.389   0.265   2.653 -1.7780 -0.0790 -0.4910
 4374SOL    MW417270   3.349   0.285   2.728  0.3290  0.7730  0.2881
 4375SOL     OW17271   1.366   2.978   5.830 -0.0582  0.3374  0.4496
 4375SOL    HW217272   1.293   2.920   5.852  0.2010 -0.3552 -0.4709
 4375SOL    HW317273   1.435   2.919   5.801  0.6504  1.0351  0.6958
 4375SOL    MW417274   1.365   2.962   5.829  0.7192 -0.2899 -0.1896
 4376SOL     OW17275   4.682   6.034   5.996 -0.0427  0.3052  0.0267
 4376SOL    HW217276   4.728   5.988   6.066 -1.3212  0.4532  0.9999
 4376SOL    HW317277   4.749   6.049   5.929  1.0816 -0.3330  0.9726
 4376SOL    MW417278   4.697   6.030   5.996 -0.1146  0.1832 -0.0236
 4377SOL     OW17279   5.856   2.827   6.402 -0.0324  0.3249 -0.3852
 4377SOL    HW217280   5.807   2.872   6.334  0.1954 -0.4315 -1.0594
 4377SOL    HW317281   5.922   2.776   6.355  0.6037  0.3602  0.4388
 4377SOL    MW417282   5.859   2.826   6.387  0.2311  0.0454 -0.3485
 4378SOL     OW17283   5.105   6.377   2.526 -0.1616 -0.1917 -0.0150
 4378SOL    HW217284   5.065   6.463   2.514 -0.3505  0.0463  1.9975
 4378SOL    HW317285   5.195   6.387   2.494 -0.0643  0.8807  0.5570
 4378SOL    MW417286   5.112   6.389   2.520  0.4677 -0.2659 -0.0407
 4379SOL     OW17287   0.373   5.070   1.952 -0.1420  0.5291  0.5554
 4379SOL    HW217288   0.462   5.040   1.973  0.3896  0.4166 -1.5538
 4379SOL    HW317289   0.385   5.127   1.876 -1.9085  0.0891 -0.1040
 4379SOL    MW417290   0.387   5.073   1.944  0.7197  0.1384 -0.1003
 4380SOL     OW17291   4.401   1.175   6.358  0.2267 -0.0723 -0.6349
 4380SOL    HW217292   4.401   1.270   6.346  0.1334 -0.1001 -0.8553
 4380SOL    HW317293   4.474   1.144   6.305  1.0417 -0.0054  0.4190
 4380SOL    MW417294   4.410   1.183   6.350 -0.1841  0.4039  0.5115
 4381SOL     OW17295   0.322   0.993   2.614 -0.1071 -0.2114 -0.2937
 4381SOL    HW217296   0.296   1.028   2.529 -0.0380  2.5347  0.7354
 4381SOL    HW317297   0.333   0.899   2.599  0.9903  0.3326 -3.5637
 4381SOL    MW417298   0.320   0.985   2.601  0.1522 -0.1668  0.4365
 4382SOL     OW17299   0.610   5.585   3.046 -0.5004  0.6066 -0.1341
 4382SOL    HW217300   0.654   5.551   2.968  1.0278  0.3023  0.8362
 4382SOL    HW317301   0.660   5.662   3.071  0.6765 -0.7425  2.0187
 4382SOL    MW417302   0.622   5.590   3.039 -0.4703 -0.5902  0.1739
 4383SOL     OW17303   3.047   1.603   6.058  0.5519 -0.6617  0.1472
 4383SOL    HW217304   2.989   1.611   6.134 -0.4053 -0.8263 -0.5498
 4383SOL    HW317305   3.133   1.630   6.091 -0.3169  1.6764  0.6675
 4383SOL    MW417306   3.051   1.607   6.073  0.0368 -0.0217  0.3013
 4384SOL     OW17307   6.376   3.217   1.877  0.1525 -0.5820 -0.5802
 4384SOL    HW217308   6.280   3.219   1.874  0.1071 -2.3578 -1.1933
 4384SOL    HW317309   6.402   3.185   1.791  1.3714  0.8688 -0.7926
 4384SOL    MW417310   6.366   3.213   1.865 -0.0647  0.3104 -0.1152
 4385SOL     OW17311   1.311   5.526   3.483 -0.2821  0.2775  0.0332
 4385SOL    HW217312   1.287   5.618   3.472  0.4749  0.4297 -0.4788
 4385SOL    HW317313   1.407   5.526   3.478 -0.1217 -0.2689  2.2049
 4385SOL    MW417314   1.321   5.538   3.481 -0.1485  0.3742 -0.2212
 4386SOL     OW17315   2.780   5.788   1.870 -0.1020 -0.0791  0.2803
 4386SOL    HW217316   2.766   5.865   1.925  0.9226  2.2145 -2.4579
 4386SOL    HW317317   2.722   5.721   1.908  0.1109  1.4665  3.6940
 4386SOL    MW417318   2.770   5.789   1.882  0.2839 -0.0608  0.2500
 4387SOL     OW17319   4.204   4.289   2.320 -0.4020  1.0637  0.0025
 4387SOL    HW217320   4.255   4.234   2.379  1.3572  0.6548 -1.7814
 4387SOL    HW317321   4.135   4.231   2.286  0.3017  0.4712 -0.4454
 4387SOL    MW417322   4.201   4.274   2.323  0.0979  0.4476 -0.5056
 4388SOL     OW17323   3.050   0.056   2.350  0.6293  0.3047  0.2883
 4388SOL    HW217324   2.971   0.019   2.309  2.2778 -2.4489 -0.7403
 4388SOL    HW317325   3.027   0.066   2.442 -0.9900 -0.2162 -0.0223
 4388SOL    MW417326   3.037   0.052   2.357  0.6200 -0.4229 -0.4406
 4389SOL     OW17327   6.160   5.717   2.392  0.3928  0.1252 -0.5802
 4389SOL    HW217328   6.214   5.731   2.314  0.5481 -1.3234 -0.7482
 4389SOL    HW317329   6.219   5.738   2.465  0.9045 -0.5556 -0.7903
 4389SOL    MW417330   6.175   5.722   2.391 -0.4090  1.2504  0.4416
 4390SOL     OW17331   4.913   4.066   3.625 -0.0023 -0.4169 -0.0626
 4390SOL    HW217332   4.861   3.989   3.604 -0.8529  0.7134 -2.4761
 4390SOL    HW317333   4.895   4.082   3.718 -3.3150 -0.6398 -0.5391
 4390SOL    MW417334   4.903   4.058   3.635  0.1690  0.3999  0.6967
 4391SOL     OW17335   4.399   5.246   1.842  0.6586  0.5778  0.0828
 4391SOL    HW217336   4.494   5.238   1.851  0.6508  0.0429 -0.2769
 4391SOL    HW317337   4.383   5.238   1.748  0.2290  0.3415  0.1753
 4391SOL    MW417338   4.409   5.244   1.831 -0.0247 -0.0489  0.1730
 4392SOL     OW17339   4.667   1.315   5.215  0.6038 -0.2616  0.0773
 4392SOL    HW217340   4.709   1.239   5.255  1.4874 -0.3232 -0.9186
 4392SOL    HW317341   4.678   1.385   5.279  0.3114 -0.8090  0.7438
 4392SOL    MW417342   4.674   1.314   5.229  0.0497  0.5431 -0.1289
 4393SOL     OW17343   3.789   0.700   4.950 -0.2563 -0.1050  0.1171
 4393SOL    HW217344   3.848   0.754   5.002  0.6040 -0.8955 -0.0246
 4393SOL    HW317345   3.834   0.687   4.867 -0.5547 -0.8394  0.0596
 4393SOL    MW417346   3.802   0.705   4.946 -0.2962 -0.5817  0.0814
 4394SOL     OW17347   5.357   5.955   5.845  0.1178  0.2186  0.3640
 4394SOL    HW217348   5.367   5.868   5.807  1.5619  0.8134 -0.7066
 4394SOL    HW317349   5.384   6.015   5.776 -0.5268  1.5264  1.1916
 4394SOL    MW417350   5.362   5.952   5.831  0.0404 -0.1048  0.0307
 4395SOL     OW17351   6.154   0.285   5.921  0.5711  0.2033 -0.4042
 4395SOL    HW217352   6.195   0.295   5.835 -0.7018 -2.2609 -1.3652
 4395SOL    HW317353   6.159   0.191   5.940 -2.3499  0.1480  0.5564
 4395SOL    MW417354   6.160   0.274   5.912  0.1640 -0.2074 -0.2537
 4396SOL     OW17355   4.623   6.133   1.342  0.6051 -0.3769  0.1564
 4396SOL    HW217356   4.647   6.210   1.395  0.4285 -0.5925  0.5544
 4396SOL    HW317357   4.528   6.126   1.351  0.4451  0.1525 -0.9796
 4396SOL    MW417358   4.614   6.143   1.350 -0.2135 -0.0872  0.4127
 4397SOL     OW17359   2.680   2.452   3.706  0.2117  0.2206  0.2997
 4397SOL    HW217360   2.740   2.386   3.742 -0.6257 -0.5594  0.3032
 4397SOL    HW317361   2.680   2.435   3.612 -1.1373 -0.7885  0.4492
 4397SOL    MW417362   2.688   2.441   3.698 -0.5095  0.0861  0.1669
 4398SOL     OW17363   2.979   3.594   4.416 -0.0699  0.4265  0.6745
 4398SOL    HW217364   2.896   3.599   4.463  0.1660  3.7763  0.9977
 4398SOL    HW317365   3.045   3.616   4.482  1.0430 -1.5549  0.2751
 4398SOL    MW417366   2.977   3.598   4.431 -0.4135  0.0522 -0.1679
 4399SOL     OW17367   3.432   3.707   4.457 -0.0440  0.7084  0.0515
 4399SOL    HW217368   3.507   3.707   4.398  0.2609  0.6292  0.4389
 4399SOL    HW317369   3.388   3.790   4.440  0.3537  0.9303  0.1047
 4399SOL    MW417370   3.436   3.718   4.447 -0.1582 -0.0108  0.4106
 4400SOL     OW17371   4.865   4.736   0.084 -0.6160  0.0504 -0.0435
 4400SOL    HW217372   4.827   4.731  -0.004  0.4072 -0.9708 -0.4494
 4400SOL    HW317373   4.953   4.770   0.070  0.0821 -1.5160  0.3988
 4400SOL    MW417374   4.872   4.740   0.070 -0.8369  0.2741 -0.3560
 4401SOL     OW17375   3.285   4.569   5.486 -0.2993  0.0594  0.0098
 4401SOL    HW217376   3.217   4.509   5.456 -0.0496 -0.3783  0.3019
 4401SOL    HW317377   3.238   4.650   5.508 -0.5808  0.1264 -0.7967
 4401SOL    MW417378   3.270   4.572   5.485  0.2250  0.7605  0.1004
 4402SOL     OW17379   1.117   6.281   2.155  0.3899 -0.0488  0.0445
 4402SOL    HW217380   1.136   6.301   2.063 -0.0933 -1.1230 -0.3005
 4402SOL    HW317381   1.184   6.217   2.179  1.4421  1.3196  0.9039
 4402SOL    MW417382   1.129   6.275   2.146  0.2556 -0.3821 -0.5032
 4403SOL     OW17383   1.655   2.631   1.186  0.1185  0.5326  0.0315
 4403SOL    HW217384   1.598   2.561   1.220 -1.5940  2.2487  0.9061
 4403SOL    HW317385   1.734   2.626   1.240  0.1415 -0.8775 -0.1002
 4403SOL    MW417386   1.658   2.621   1.197 -0.6990 -0.2919  0.1053
 4404SOL     OW17387   1.484   1.221   5.997  0.1558 -0.2551 -0.2429
 4404SOL    HW217388   1.524   1.234   6.083  0.7086  0.0507 -0.5367
 4404SOL    HW317389   1.411   1.161   6.013  1.4404 -1.8037  0.1257
 4404SOL    MW417390   1.480   1.215   6.011 -0.3085 -0.1704 -0.1996
 4405SOL     OW17391   2.563   4.933   3.436 -0.2247 -0.4488 -0.3833
 4405SOL    HW217392   2.565   4.923   3.531 -2.1242  1.8265 -0.0216
 4405SOL    HW317393   2.533   4.848   3.404 -1.1673 -0.7536  1.2007
 4405SOL    MW417394   2.559   4.920   3.444 -0.4225 -0.0227 -0.2001
 4406SOL     OW17395   6.382   2.160   5.179  0.0541 -0.4680  0.2768
 4406SOL    HW217396   6.325   2.090   5.148 -0.3320 -0.7758  1.6070
 4406SOL    HW317397   6.433   2.186   5.102 -0.9224 -1.1087 -0.6187
 4406SOL    MW417398   6.381   2.154   5.165  0.4110 -0.2619  0.3256
 4407SOL     OW17399   1.731   6.053   5.488 -0.1194 -0.1727 -0.4147
 4407SOL    HW217400   1.758   5.969   5.451  0.4130  0.1157 -0.6877
 4407SOL    HW317401   1.745   6.044   5.582 -1.0698 -0.7573 -0.3205
 4407SOL    MW417402   1.736   6.041   5.496 -0.6466 -0.2468  0.5515
 4408SOL     OW17403   0.778   0.157   4.212 -0.4460  0.0383  0.1011
 4408SOL    HW217404   0.757   0.177   4.303 -0.7740 -0.0527  0.0473
 4408SOL    HW317405   0.793   0.243   4.172 -1.2610  0.1510  0.0118
 4408SOL    MW417406   0.777   0.171   4.219 -0.2288 -0.0671  0.1080
 4409SOL     OW17407   2.478   0.774   0.899 -0.6661  0.3698 -0.5542
 4409SOL    HW217408   2.552   0.736   0.853  0.4253 -0.7394  1.9143
 4409SOL    HW317409   2.422   0.700   0.920 -1.8327  1.0343 -1.2612
 4409SOL    MW417410   2.481   0.760   0.896  0.4151 -0.8718  0.1256
 4410SOL     OW17411   4.395   6.413   0.971 -0.0080  0.2016  0.3202
 4410SOL    HW217412   4.333   6.357   1.017 -0.2860  0.2739  0.0352
 4410SOL    HW317413   4.350   6.498   0.964  0.4710  0.5130  0.8953
 4410SOL    MW417414   4.381   6.417   0.976 -0.2117 -0.0921 -0.1445
 4411SOL     OW17415   3.612   3.685   5.209  0.8145 -0.1772 -0.0061
 4411SOL    HW217416   3.606   3.652   5.119 -0.0336 -0.4213  0.1317
 4411SOL    HW317417   3.606   3.780   5.201 -1.4669 -0.2832 -0.0628
 4411SOL    MW417418   3.611   3.693   5.196  0.2251  0.1929  0.3123
 4412SOL     OW17419   6.346   5.993   3.960 -0.5097 -0.1860 -0.1193
 4412SOL    HW217420   6.297   6.035   3.889 -1.4543 -0.7030  0.2090
 4412SOL    HW317421   6.357   5.903   3.930 -1.2528 -0.5084  0.5499
 4412SOL    MW417422   6.341   5.987   3.946  1.2954  0.1448  0.3688
 4413SOL     OW17423   1.461   6.300   0.413 -0.2993  0.3294  0.2356
 4413SOL    HW217424   1.379   6.264   0.447 -0.1201  0.0977  0.4268
 4413SOL    HW317425   1.501   6.343   0.488  0.9957 -1.7854  0.8343
 4413SOL    MW417426   1.455   6.301   0.428 -0.1028 -0.0447 -0.5238
 4414SOL     OW17427   1.543   1.832   1.011 -0.5708 -0.6142  0.0066
 4414SOL    HW217428   1.541   1.919   1.051 -1.3342 -1.0568  0.9473
 4414SOL    HW317429   1.633   1.801   1.026 -0.6209 -0.4488  0.6843
 4414SOL    MW417430   1.555   1.840   1.018  0.1394  0.2672 -0.3283
 4415SOL     OW17431   4.526   0.238   2.565 -0.1307  0.4839  0.0294
 4415SOL    HW217432   4.557   0.201   2.483  0.4473  2.0427 -0.4915
 4415SOL    HW317433   4.431   0.224   2.563  0.0276 -0.6147 -0.2939
 4415SOL    MW417434   4.517   0.231   2.554  0.1900  0.0838 -0.2283
 4416SOL     OW17435   2.466   3.963   3.956  0.1846 -0.2535  0.7019
 4416SOL    HW217436   2.385   4.007   3.932  0.1389 -0.5750  0.2422
 4416SOL    HW317437   2.479   3.985   4.048  0.7101  1.5655  0.2358
 4416SOL    MW417438   2.457   3.971   3.965 -0.6093 -0.4156 -0.1631
 4417SOL     OW17439   3.081   4.250   2.229 -0.6827  0.0637  0.8962
 4417SOL    HW217440   3.134   4.222   2.155 -1.7388 -0.0299  0.1589
 4417SOL    HW317441   3.089   4.345   2.229  0.1645  0.0027  1.3221
 4417SOL    MW417442   3.089   4.259   2.220 -0.0950  0.2954 -0.4671
 4418SOL     OW17443   5.100   0.121   6.377 -1.0527  0.2876 -0.2815
 4418SOL    HW217444   5.195   0.121   6.365 -0.9872  0.8204  0.2079
 4418SOL    HW317445   5.070   0.041   6.333 -0.4343  0.3713 -0.8728
 4418SOL    MW417446   5.109   0.110   6.369 -0.1181  0.5716  0.0889
 4419SOL     OW17447   5.021   3.597   2.555 -0.1220  0.3551 -0.2774
 4419SOL    HW217448   5.073   3.520   2.532  0.1686  0.1945  0.8625
 4419SOL    HW317449   5.076   3.671   2.530  0.7627  0.1893  1.0581
 4419SOL    MW417450   5.035   3.597   2.549 -0.0191  0.0184 -0.4752
 4420SOL     OW17451   2.138   1.877   3.503  0.0495 -0.4688  0.3757
 4420SOL    HW217452   2.196   1.857   3.576  0.5597 -1.2881 -0.2277
 4420SOL    HW317453   2.162   1.966   3.476 -1.2820  0.5099  2.2181
 4420SOL    MW417454   2.149   1.886   3.509  0.1466  0.2289 -0.5471
 4421SOL     OW17455   5.095   5.658   1.360  0.1185 -0.2713 -0.4093
 4421SOL    HW217456   5.026   5.708   1.316  0.5887 -1.3058 -2.4639
 4421SOL    HW317457   5.050   5.613   1.432 -1.3191 -0.7268 -1.5365
 4421SOL    MW417458   5.080   5.659   1.364  0.5346  0.4632  0.1470
 4422SOL     OW17459   3.621   6.337   5.452 -0.3888  0.1931 -0.3599
 4422SOL    HW217460   3.550   6.399   5.438  0.2905  0.9381 -0.5885
 4422SOL    HW317461   3.693   6.390   5.486 -0.4127 -0.8031  1.3378
 4422SOL    MW417462   3.621   6.352   5.454 -0.0709  0.4206 -0.2456
 4423SOL     OW17463   2.682   1.974   0.837 -0.3677 -0.0403  0.0177
 4423SOL    HW217464   2.602   2.026   0.846 -0.6499 -0.1466 -1.5409
 4423SOL    HW317465   2.716   1.998   0.750  0.4140 -1.1819 -0.0069
 4423SOL    MW417466   2.676   1.984   0.826  0.2672  0.3003 -0.5631
 4424SOL     OW17467   3.878   0.078   5.879 -0.5360  0.2097 -0.5502
 4424SOL    HW217468   3.829   0.121   5.950  0.4322  1.7772 -0.7741
 4424SOL    HW317469   3.957   0.046   5.921 -0.4210  0.2410 -0.7438
 4424SOL    MW417470   3.882   0.080   5.894 -0.5788  0.5223  0.2880
 4425SOL     OW17471   3.115   0.008   6.396  0.2260 -0.2546 -0.2931
 4425SOL    HW217472   3.149  -0.066   6.445  1.6087  0.2938 -0.3631
 4425SOL    HW317473   3.020   0.001   6.404  0.3604 -1.4177  0.5833
 4425SOL    MW417474   3.107  -0.003   6.403  0.1525 -0.2630 -0.2792
 4426SOL     OW17475   4.003   5.738   3.355 -0.1932  0.1712  1.0564
 4426SOL    HW217476   4.033   5.689   3.279 -1.4708 -1.7193  1.6784
 4426SOL    HW317477   3.935   5.797   3.321  0.7956  0.9630  0.4169
 4426SOL    MW417478   3.998   5.739   3.341 -0.2739 -0.0676  0.0553
 4427SOL     OW17479   2.961   5.643   5.810 -0.6811  0.0349 -0.3582
 4427SOL    HW217480   2.927   5.591   5.883  0.2885  0.0645  0.1305
 4427SOL    HW317481   3.012   5.581   5.758 -0.6593  0.1957 -0.5283
 4427SOL    MW417482   2.963   5.628   5.813  0.2244 -0.2261  0.0613
 4428SOL     OW17483   2.954   0.137   3.211 -0.2008  0.2555 -0.0999
 4428SOL    HW217484   2.994   0.217   3.175 -0.8247  0.2861 -0.7549
 4428SOL    HW317485   2.912   0.166   3.291 -1.5426  0.8815 -0.9985
 4428SOL    MW417486   2.954   0.151   3.217  0.2323  0.2807 -0.2069
 4429SOL     OW17487   5.245   4.690   5.212 -0.2903  0.2918 -0.1399
 4429SOL    HW217488   5.156   4.708   5.243 -0.2378  0.6186 -0.1705
 4429SOL    HW317489   5.254   4.595   5.216  0.0411  0.3633  1.7963
 4429SOL    MW417490   5.235   4.680   5.217  0.5454  0.0157  0.1291
 4430SOL     OW17491   2.550   1.326   4.160  0.0961  0.5917  0.4625
 4430SOL    HW217492   2.595   1.384   4.221 -0.7158  1.1176  0.5700
 4430SOL    HW317493   2.483   1.381   4.119 -2.6333 -0.9124  2.6360
 4430SOL    MW417494   2.547   1.341   4.162 -0.2139 -0.4891  0.0189
 4431SOL     OW17495   6.402   5.607   0.977 -0.1641 -0.3883  0.3824
 4431SOL    HW217496   6.485   5.651   0.962 -0.5413  0.4270  0.6665
 4431SOL    HW317497   6.407   5.574   1.066 -0.1321 -0.3757  0.3851
 4431SOL    MW417498   6.413   5.608   0.987 -0.3745  0.0506  0.2124
 4432SOL     OW17499   5.765   2.959   6.101 -0.0936  0.0626 -0.0244
 4432SOL    HW217500   5.783   2.866   6.089  0.7919  0.4711 -2.7082
 4432SOL    HW317501   5.696   2.978   6.037  1.6754  1.7152 -1.5692
 4432SOL    MW417502   5.759   2.950   6.091  0.3891 -0.3709  0.3930
 4433SOL     OW17503   3.463   3.581   0.509 -0.3746  0.2461  0.3870
 4433SOL    HW217504   3.471   3.577   0.414  1.0611  0.5635  0.4727
 4433SOL    HW317505   3.434   3.671   0.526  0.5160  0.5681  0.2889
 4433SOL    MW417506   3.460   3.593   0.499 -0.2546 -0.1795  0.1531
 4434SOL     OW17507   1.682   2.151   4.373 -0.1195 -0.2182 -0.4476
 4434SOL    HW217508   1.595   2.123   4.401  0.3565 -0.6157  0.6549
 4434SOL    HW317509   1.664   2.222   4.311 -1.2207  0.1949  0.3033
 4434SOL    MW417510   1.668   2.157   4.368  0.0113 -0.3686 -0.2745
 4435SOL     OW17511   3.748   4.342   4.012 -0.3746 -0.3596  0.0711
 4435SOL    HW217512   3.801   4.312   4.086  1.2611  0.3733 -0.7550
 4435SOL    HW317513   3.661   4.357   4.049 -0.5937 -3.4482  1.0882
 4435SOL    MW417514   3.744   4.340   4.026 -0.0385  0.0986 -0.8162
 4436SOL     OW17515   4.573   2.467   0.375 -0.4358  0.6527 -0.1345
 4436SOL    HW217516   4.588   2.441   0.465 -0.1851 -0.9027 -0.6049
 4436SOL    HW317517   4.486   2.436   0.354 -0.4660  0.9432 -0.4601
 4436SOL    MW417518   4.564   2.460   0.384 -0.1947 -0.4920  0.5013
 4437SOL     OW17519   1.397   3.797   4.090  0.8965 -0.3178  0.2110
 4437SOL    HW217520   1.448   3.853   4.031  0.0989 -0.0843 -0.2620
 4437SOL    HW317521   1.460   3.770   4.157  1.6031  0.1059 -0.2690
 4437SOL    MW417522   1.412   3.801   4.091 -0.6212  0.1956 -0.5473
 4438SOL     OW17523   5.736   4.399   3.081 -0.5470 -0.6748  0.6652
 4438SOL    HW217524   5.643   4.376   3.078 -1.0225  1.0926  0.6876
 4438SOL    HW317525   5.759   4.394   3.174 -0.5490 -1.2982  0.6392
 4438SOL    MW417526   5.727   4.395   3.093 -0.6443  0.0174 -0.4603
 4439SOL     OW17527   0.646   6.017   3.729  0.2530 -0.0573 -0.1466
 4439SOL    HW217528   0.723   5.963   3.710  0.4501  0.7986 -2.0479
 4439SOL    HW317529   0.572   5.962   3.702  0.3532 -0.0601 -0.4287
 4439SOL    MW417530   0.647   6.003   3.723  0.0737  0.2106 -0.5741
 4440SOL     OW17531   5.641   3.474   2.990 -0.2075  0.7778  0.1319
 4440SOL    HW217532   5.710   3.468   2.923  1.4499  0.8904  1.7733
 4440SOL    HW317533   5.630   3.568   3.005  0.0656  0.7298  0.6467
 4440SOL    MW417534   5.648   3.485   2.983  0.0398  0.2581  0.4764
 4441SOL     OW17535   4.649   2.220   0.274 -0.0408 -0.3822 -0.5565
 4441SOL    HW217536   4.620   2.300   0.317 -1.8531 -1.6055  0.6019
 4441SOL    HW317537   4.660   2.246   0.182 -0.5054  1.2059 -0.2005
 4441SOL    MW417538   4.647   2.234   0.267 -0.2701  0.3556  0.0021
 4442SOL     OW17539   1.431   2.066   5.832 -0.1388 -0.1524 -0.3523
 4442SOL    HW217540   1.493   2.040   5.763 -0.7077  0.3838 -1.0788
 4442SOL    HW317541   1.460   2.153   5.859 -1.0612  0.4785 -1.3096
 4442SOL    MW417542   1.443   2.074   5.826  0.3981 -0.0223  0.3882
 4443SOL     OW17543   0.747   2.162   0.738  0.6026  0.3299 -0.0472
 4443SOL    HW217544   0.735   2.245   0.784  0.0557 -0.6952  1.7515
 4443SOL    HW317545   0.842   2.149   0.737  0.6537  0.6562  0.2335
 4443SOL    MW417546   0.758   2.172   0.744 -0.0710  0.1653 -0.6860
 4444SOL     OW17547   0.388   3.940   3.750  0.1029  0.1719 -0.2224
 4444SOL    HW217548   0.454   3.895   3.697 -0.5466 -0.2602 -0.6785
 4444SOL    HW317549   0.410   3.917   3.840  0.1441 -0.5509 -0.4160
 4444SOL    MW417550   0.400   3.931   3.755 -0.0149 -0.1836  0.3041
 4445SOL     OW17551   6.282   6.066   5.179  0.3492  0.5827 -0.0873
 4445SOL    HW217552   6.363   6.116   5.188  1.8841 -1.8343  0.5122
 4445SOL    HW317553   6.295   6.013   5.101 -0.2681 -0.4335  0.4763
 4445SOL    MW417554   6.295   6.066   5.170 -0.2272 -0.5509 -0.0348
 4446SOL     OW17555   1.227   4.631   0.937  0.0836  0.2194 -0.1493
 4446SOL    HW217556   1.278   4.633   1.019 -1.3561 -0.8473  0.8202
 4446SOL    HW317557   1.150   4.578   0.958 -1.8487  2.3793 -1.3417
 4446SOL    MW417558   1.224   4.624   0.951  0.1702 -0.2536 -0.2602
 4447SOL     OW17559   5.126   5.392   0.150  0.5246 -0.3456 -0.1147
 4447SOL    HW217560   5.135   5.297   0.158 -1.0508 -0.6468 -1.3085
 4447SOL    HW317561   5.121   5.423   0.241 -1.4016 -1.7318  0.3325
 4447SOL    MW417562   5.126   5.383   0.163  0.0560 -0.0130  0.2783
 4448SOL     OW17563   4.274   3.454   0.851  0.0673 -0.0460 -0.6456
 4448SOL    HW217564   4.278   3.543   0.815  2.0380  0.1380 -0.0676
 4448SOL    HW317565   4.246   3.467   0.942  1.9027  0.1866 -0.0730
 4448SOL    MW417566   4.271   3.468   0.859 -0.7126 -0.0379  0.0060
 4449SOL     OW17567   3.469   5.872   0.197 -0.1479 -0.0941  0.0959
 4449SOL    HW217568   3.461   5.923   0.116 -0.5732 -0.7373 -0.2719
 4449SOL    HW317569   3.379   5.862   0.228 -0.2008 -1.6089 -0.4616
 4449SOL    MW417570   3.456   5.878   0.190 -0.1222 -0.0328 -0.3114
 4450SOL     OW17571   3.561   5.475   5.655  0.5508  0.0720  0.1933
 4450SOL    HW217572   3.552   5.507   5.565 -0.5926 -0.7406  0.0001
 4450SOL    HW317573   3.649   5.503   5.681  0.6158  0.9834 -0.9001
 4450SOL    MW417574   3.571   5.483   5.647 -0.0942 -0.0566 -0.0913
 4451SOL     OW17575   1.948   3.327   4.146 -0.2608  0.4484 -0.5940
 4451SOL    HW217576   2.027   3.359   4.190  0.7381  1.7112 -3.1052
 4451SOL    HW317577   1.881   3.330   4.214  1.6093  0.2017  1.3906
 4451SOL    MW417578   1.950   3.332   4.161  0.3786 -0.3241 -0.0242
 4452SOL     OW17579   3.065   3.279   0.229 -0.4553 -0.0635  0.1789
 4452SOL    HW217580   3.134   3.313   0.286  0.3914  0.1502 -0.9403
 4452SOL    HW317581   3.034   3.356   0.181 -2.9819  0.2583  2.1555
 4452SOL    MW417582   3.070   3.294   0.230 -0.7489  0.5579 -0.6193
 4453SOL     OW17583   3.850   0.076   4.236 -0.0162 -0.2899 -0.5331
 4453SOL    HW217584   3.856   0.142   4.166 -0.9874  0.8005  0.3587
 4453SOL    HW317585   3.785   0.112   4.296 -0.5360 -2.0653  0.0208
 4453SOL    MW417586   3.842   0.090   4.235 -0.3635  0.0647  0.8659
 4454SOL     OW17587   4.289   5.719   1.835 -0.3664 -0.4898  0.3827
 4454SOL    HW217588   4.207   5.669   1.833  0.2538 -1.5608  0.5375
 4454SOL    HW317589   4.357   5.652   1.823  0.4713  0.4082  0.0189
 4454SOL    MW417590   4.287   5.703   1.833  0.4162 -0.1268 -0.0582
 4455SOL     OW17591   3.281   0.896   5.347 -0.0936  0.2199 -0.1510
 4455SOL    HW217592   3.356   0.951   5.369 -0.6277  0.7352  0.4199
 4455SOL    HW317593   3.304   0.809   5.380 -0.0325  0.5316  0.6367
 4455SOL    MW417594   3.294   0.892   5.354  0.8115  0.4623  0.5652
 4456SOL     OW17595   4.417   1.402   4.562 -0.3570 -0.3388  0.8410
 4456SOL    HW217596   4.338   1.383   4.512  0.4397  0.2267 -0.6958
 4456SOL    HW317597   4.485   1.351   4.519  0.3487  0.1436  1.3666
 4456SOL    MW417598   4.415   1.393   4.550  0.0221 -0.4283 -0.0394
 4457SOL     OW17599   1.842   3.468   4.909  0.3791 -0.6609  0.4774
 4457SOL    HW217600   1.857   3.540   4.970  1.4100  0.3722 -0.9327
 4457SOL    HW317601   1.773   3.416   4.950 -0.4294  1.1424  1.5211
 4457SOL    MW417602   1.835   3.470   4.922 -0.1040 -0.3135 -0.4463
 4458SOL     OW17603   5.158   3.323   6.378 -0.3481 -0.7137  0.7323
 4458SOL    HW217604   5.165   3.339   6.284  0.8942 -0.5038  0.8487
 4458SOL    HW317605   5.168   3.410   6.418 -0.4584 -0.8577  1.0742
 4458SOL    MW417606   5.160   3.337   6.371  0.0933  0.0391  0.5473
 4459SOL     OW17607   2.285   0.662   4.954  0.0846 -0.0701 -0.3843
 4459SOL    HW217608   2.272   0.712   5.035 -0.0047 -0.9684  0.1690
 4459SOL    HW317609   2.205   0.610   4.945 -0.7697  1.4078 -2.0930
 4459SOL    MW417610   2.272   0.662   4.964 -0.1940 -0.3623 -0.1300
 4460SOL     OW17611   3.700   3.400   2.744 -0.5568  0.0611  0.4429
 4460SOL    HW217612   3.619   3.416   2.791  0.0197 -2.4829  2.5148
 4460SOL    HW317613   3.698   3.306   2.724  0.4486  0.5325 -2.4081
 4460SOL    MW417614   3.689   3.390   2.747 -0.0273  0.2153 -0.1370
 4461SOL     OW17615   5.211   0.572   5.521 -0.4097 -0.2089 -0.5599
 4461SOL    HW217616   5.306   0.581   5.522 -0.2972 -0.8596  2.0754
 4461SOL    HW317617   5.194   0.500   5.459  0.9168 -0.8065 -0.2687
 4461SOL    MW417618   5.221   0.563   5.513 -0.2243 -0.1873 -0.1632
 4462SOL     OW17619   3.465   1.996   0.685  0.2020 -0.0705 -0.0433
 4462SOL    HW217620   3.471   1.911   0.728  0.2312 -0.5256 -0.9124
 4462SOL    HW317621   3.551   2.010   0.647 -0.3101 -0.4938 -1.4141
 4462SOL    MW417622   3.477   1.987   0.686 -0.4287 -0.1196  0.4732
 4463SOL     OW17623   1.703   0.760   0.113  0.3514  0.4880 -0.2705
 4463SOL    HW217624   1.702   0.688   0.177  1.3573 -0.0086 -0.7785
 4463SOL    HW317625   1.617   0.800   0.121  0.0779 -0.2234  0.6525
 4463SOL    MW417626   1.692   0.756   0.123  0.1006 -0.7293  0.6512
 4464SOL     OW17627   6.012   3.554   2.086  0.1575 -0.9083 -0.2343
 4464SOL    HW217628   5.934   3.553   2.141 -0.1367  0.5465 -0.5834
 4464SOL    HW317629   6.085   3.540   2.147 -0.2251 -0.0948  0.4195
 4464SOL    MW417630   6.012   3.552   2.101  0.3934  0.6571  0.3567
 4465SOL     OW17631   3.787   3.363   3.051 -0.2235  0.4735 -0.0876
 4465SOL    HW217632   3.753   3.275   3.069 -1.6890  0.6877 -1.5845
 4465SOL    HW317633   3.715   3.408   3.007 -0.0900  2.9579  1.9617
 4465SOL    MW417634   3.773   3.357   3.048  0.1302 -0.4284  0.6839
 4466SOL     OW17635   5.202   2.025   4.536 -0.2933 -0.0270 -0.6188
 4466SOL    HW217636   5.293   2.025   4.506 -0.5308  0.4127 -1.3570
 4466SOL    HW317637   5.206   1.991   4.626  0.5804 -0.1283 -0.6931
 4466SOL    MW417638   5.214   2.020   4.544 -0.5507  0.2635 -0.3293
 4467SOL     OW17639   0.130   0.848   4.308  0.1687  0.0361  0.1624
 4467SOL    HW217640   0.109   0.887   4.393  0.3575 -0.2518  0.3434
 4467SOL    HW317641   0.129   0.921   4.247  2.2970  0.6592  0.7987
 4467SOL    MW417642   0.127   0.862   4.311 -1.0321 -0.0201  0.5483
 4468SOL     OW17643   4.930   3.724   1.618  0.9072 -0.0927  0.2214
 4468SOL    HW217644   4.931   3.797   1.680 -1.1947  0.5352 -0.4179
 4468SOL    HW317645   4.906   3.764   1.535  1.1213 -1.3240 -0.4429
 4468SOL    MW417646   4.927   3.739   1.615  0.2572 -0.1367 -0.3146
 4469SOL     OW17647   4.901   1.831   0.836  0.1052  0.3019  0.3148
 4469SOL    HW217648   4.836   1.839   0.767 -0.2646 -1.2031  0.4451
 4469SOL    HW317649   4.985   1.849   0.793 -0.1846  0.0036 -0.3820
 4469SOL    MW417650   4.904   1.834   0.821  0.3416  0.1211  0.5941
 4470SOL     OW17651   2.596   2.307   3.076 -0.3384  0.5965  0.2719
 4470SOL    HW217652   2.572   2.352   2.995  0.4453  0.9688  0.2430
 4470SOL    HW317653   2.674   2.352   3.107  0.4171 -0.6744  0.2922
 4470SOL    MW417654   2.603   2.319   3.069  0.8818 -0.1749  0.3818
 4471SOL     OW17655   1.697   6.295   3.537 -0.2026 -0.0786  0.6643
 4471SOL    HW217656   1.717   6.335   3.622 -0.1705 -0.4461  0.8300
 4471SOL    HW317657   1.622   6.238   3.554  0.1717 -0.6072  0.5747
 4471SOL    MW417658   1.690   6.293   3.551  0.1281  0.4027  0.7498
 4472SOL     OW17659   4.660   5.439   2.083 -0.0202  0.1130 -0.4982
 4472SOL    HW217660   4.694   5.465   2.169 -1.0123  0.8327 -0.3022
 4472SOL    HW317661   4.687   5.511   2.025 -0.1305  0.0744 -0.5971
 4472SOL    MW417662   4.668   5.452   2.087 -0.0081  0.6500  0.3045
 4473SOL     OW17663   1.417   2.499   4.068 -0.0794  0.2012  0.7311
 4473SOL    HW217664   1.449   2.538   3.986  0.9484 -0.3291  0.8587
 4473SOL    HW317665   1.454   2.554   4.137 -1.7150  1.2108  0.8437
 4473SOL    MW417666   1.426   2.511   4.066  0.2537 -0.2668  0.1501
 4474SOL     OW17667   6.115   3.366   0.506  0.2074  0.1533  0.1467
 4474SOL    HW217668   6.028   3.406   0.499 -0.8340 -1.7339  1.2103
 4474SOL    HW317669   6.158   3.414   0.576 -0.0266  1.0066 -0.2811
 4474SOL    MW417670   6.109   3.377   0.514  0.5581  0.6388 -0.0684
 4475SOL     OW17671   2.016   2.206   3.744  0.2873  0.4755  0.0453
 4475SOL    HW217672   2.041   2.123   3.783 -0.0699  0.7961  1.0027
 4475SOL    HW317673   2.098   2.244   3.712  0.5512  0.0572  0.2230
 4475SOL    MW417674   2.030   2.200   3.745  0.4825  0.0317 -0.5133
 4476SOL     OW17675   3.971   4.963   0.561  0.4522  0.5076  0.3325
 4476SOL    HW217676   4.019   4.982   0.480 -0.1069 -0.8197 -0.3445
 4476SOL    HW317677   4.000   5.030   0.622  0.3400  2.0052 -1.1818
 4476SOL    MW417678   3.981   4.974   0.558 -0.2641 -0.0786 -0.1420
 4477SOL     OW17679   5.889   0.104   4.882 -0.1809  0.0638 -0.7910
 4477SOL    HW217680   5.890   0.114   4.787 -0.6505 -1.0462 -0.9321
 4477SOL    HW317681   5.976   0.131   4.911  1.0464 -2.4339 -1.8709
 4477SOL    MW417682   5.900   0.109   4.873 -0.5860 -0.1773 -0.2746
 4478SOL     OW17683   1.270   3.536   6.265  0.1460 -0.6683  0.1499
 4478SOL    HW217684   1.278   3.573   6.354  0.8408 -0.9870  0.2226
 4478SOL    HW317685   1.339   3.470   6.260 -0.1591 -0.9451 -0.4892
 4478SOL    MW417686   1.280   3.533   6.276 -0.4633  0.8322  0.0873
 4479SOL     OW17687   6.250   4.694   4.721 -0.6600  0.6145  0.8509
 4479SOL    HW217688   6.245   4.759   4.791 -0.5814  0.8918  0.6055
 4479SOL    HW317689   6.174   4.638   4.734  0.0457 -0.1328  1.9286
 4479SOL    MW417690   6.239   4.695   4.732  0.3689  0.0612 -0.0500
 4480SOL     OW17691   3.888   5.206   3.581  0.0292  0.0552  0.4003
 4480SOL    HW217692   3.869   5.196   3.488 -3.3791 -0.6551  1.0239
 4480SOL    HW317693   3.958   5.272   3.585 -0.2967  0.7167 -2.5998
 4480SOL    MW417694   3.895   5.213   3.569  0.3146 -0.1434  0.0766
 4481SOL     OW17695   5.023   0.231   0.354 -0.2504  0.5882 -0.2097
 4481SOL    HW217696   4.940   0.274   0.334  0.2832  1.5693 -0.3863
 4481SOL    HW317697   5.025   0.154   0.297  0.3891  2.3108 -2.6694
 4481SOL    MW417698   5.013   0.227   0.344 -0.3316 -0.2691  0.4481
 4482SOL     OW17699   2.826   4.660   0.679  0.3303  0.0816  0.7653
 4482SOL    HW217700   2.907   4.618   0.651 -0.4135  0.0087 -1.4646
 4482SOL    HW317701   2.815   4.734   0.619 -1.0271  0.3534  1.3177
 4482SOL    MW417702   2.835   4.664   0.668 -0.4246 -0.1517 -0.1772
 4483SOL     OW17703   3.928   3.117   3.306  0.8208 -0.0913 -0.2683
 4483SOL    HW217704   3.995   3.093   3.370  0.2282  0.5090  0.5990
 4483SOL    HW317705   3.971   3.107   3.221  1.6299 -0.8692  0.2186
 4483SOL    MW417706   3.942   3.112   3.303 -0.0988  0.5780  0.0395
 4484SOL     OW17707   3.108   0.511   1.556  0.2674  0.0207  0.0876
 4484SOL    HW217708   3.199   0.529   1.534  0.7990 -1.0871  1.2601
 4484SOL    HW317709   3.100   0.538   1.648 -0.4440 -0.3638  0.1473
 4484SOL    MW417710   3.119   0.517   1.565 -0.2616  0.3386  0.0319
 4485SOL     OW17711   3.640   2.074   5.646  0.3316  0.1272  0.2903
 4485SOL    HW217712   3.590   2.137   5.594  1.7314  2.2056  1.3301
 4485SOL    HW317713   3.574   2.035   5.704 -0.4422  1.3715  0.2995
 4485SOL    MW417714   3.624   2.077   5.647 -0.2586 -0.7492  0.5197
 4486SOL     OW17715   4.463   1.472   3.011 -0.5028 -0.2534 -0.3904
 4486SOL    HW217716   4.536   1.485   3.071  1.7708 -0.9374 -2.8208
 4486SOL    HW317717   4.439   1.380   3.021  0.0400 -0.4299 -0.6543
 4486SOL    MW417718   4.469   1.462   3.020 -0.5985  0.1863 -1.1971
 4487SOL     OW17719   0.286   6.182   3.378 -0.2796  0.0686 -0.0250
 4487SOL    HW217720   0.273   6.169   3.471 -0.5186  0.1358 -0.0473
 4487SOL    HW317721   0.375   6.217   3.370  0.2177 -1.1235  0.0661
 4487SOL    MW417722   0.296   6.185   3.389 -0.1656 -0.1510 -0.0113
 4488SOL     OW17723   3.050   5.184   6.287  0.0086  0.4343 -0.3120
 4488SOL    HW217724   3.040   5.166   6.380 -0.1164  2.3722  0.0796
 4488SOL    HW317725   3.143   5.169   6.269  0.1757  0.7714  0.2803
 4488SOL    MW417726   3.061   5.179   6.297  0.1865 -0.0793  0.0922
 4489SOL     OW17727   2.519   6.121   2.989 -0.0345 -0.1915  0.0969
 4489SOL    HW217728   2.541   6.088   2.902  0.5089  1.2389 -0.3217
 4489SOL    HW317729   2.476   6.205   2.974  0.2229  0.1686  1.2148
 4489SOL    MW417730   2.516   6.127   2.976 -0.6915 -0.1447  0.5647
 4490SOL     OW17731   3.008   1.704   2.575  0.2196  0.1511  0.1487
 4490SOL    HW217732   3.100   1.681   2.565 -0.0895 -0.5593 -1.3258
 4490SOL    HW317733   2.999   1.790   2.535 -0.1330 -0.7023 -1.7042
 4490SOL    MW417734   3.019   1.712   2.568 -0.0311 -0.5638  0.2978
 4491SOL     OW17735   1.210   3.825   2.750 -0.1589 -0.2199  0.4792
 4491SOL    HW217736   1.266   3.824   2.673 -0.7496  1.0749 -0.0049
 4491SOL    HW317737   1.149   3.753   2.737 -0.5328  0.2658 -0.4854
 4491SOL    MW417738   1.209   3.816   2.738  0.0519  0.1270  0.9590
 4492SOL     OW17739   4.573   2.116   2.188 -0.0274  0.4177  0.0968
 4492SOL    HW217740   4.637   2.055   2.151 -0.8025  0.4843 -1.4619
 4492SOL    HW317741   4.624   2.196   2.206  0.2480  0.7073 -1.7628
 4492SOL    MW417742   4.588   2.119   2.185 -0.1918  0.0895 -0.0315
 4493SOL     OW17743   4.800   2.000   1.097  0.1194 -0.4088  0.4606
 4493SOL    HW217744   4.852   1.942   1.041  1.2318  0.5354  0.4702
 4493SOL    HW317745   4.776   1.946   1.172 -0.0328 -1.2361 -0.1720
 4493SOL    MW417746   4.804   1.986   1.100  0.4198 -0.1379  0.0764
 4494SOL     OW17747   1.400   2.617   3.441 -0.1812  0.3290 -0.0061
 4494SOL    HW217748   1.480   2.573   3.470 -0.0088  0.2440 -0.5873
 4494SOL    HW317749   1.354   2.640   3.521  1.1308  1.7243  0.3930
 4494SOL    MW417750   1.405   2.614   3.455 -0.6549  0.1160  0.5218
 4495SOL     OW17751   6.066   0.731   2.303  0.6154  0.4074  0.1944
 4495SOL    HW217752   6.124   0.799   2.338  0.6919  0.2375  0.4065
 4495SOL    HW317753   6.024   0.694   2.381  1.3280 -0.4637  0.1787
 4495SOL    MW417754   6.068   0.735   2.318 -0.3082  0.5388  0.2617
 4496SOL     OW17755   4.550   4.872   4.491  0.2255 -0.5820  0.4695
 4496SOL    HW217756   4.572   4.857   4.400  0.2448 -1.9514  0.6899
 4496SOL    HW317757   4.603   4.810   4.540 -0.4081 -0.4501  1.3556
 4496SOL    MW417758   4.560   4.862   4.486 -0.5115 -0.4894 -0.3691
 4497SOL     OW17759   4.977   4.689   4.803  0.0878 -0.1684 -0.2490
 4497SOL    HW217760   4.970   4.717   4.894  0.6648 -0.5557 -0.0871
 4497SOL    HW317761   4.978   4.771   4.753  1.5604  0.1195  0.2104
 4497SOL    MW417762   4.976   4.704   4.808  0.2074 -0.0817 -0.7456
 4498SOL     OW17763   5.729   1.762   5.013 -0.2069  0.0961 -0.3211
 4498SOL    HW217764   5.798   1.758   4.947 -0.2448  0.0801 -0.3597
 4498SOL    HW317765   5.730   1.853   5.043  0.8063 -0.2412  0.7320
 4498SOL    MW417766   5.738   1.774   5.008 -0.0491 -0.2540  0.1396
 4499SOL     OW17767   5.564   2.251   6.385  0.1244  0.5133 -0.0855
 4499SOL    HW217768   5.539   2.309   6.314  1.1390  0.5793 -0.4135
 4499SOL    HW317769   5.482   2.229   6.429 -0.3381  1.7677 -0.2773
 4499SOL    MW417770   5.550   2.256   6.382 -0.0120  0.1938 -0.2520
 4500SOL     OW17771   4.925   3.191   1.471 -0.4985  0.4186 -0.3264
 4500SOL    HW217772   4.850   3.222   1.522 -1.9293 -0.6927 -1.6565
 4500SOL    HW317773   4.886   3.153   1.392  1.5662  1.0273 -1.7168
 4500SOL    MW417774   4.910   3.190   1.467  0.1636  0.2970  0.2363
 4501SOL     OW17775   3.328   1.035   1.544  0.5583  0.1796  0.1916
 4501SOL    HW217776   3.344   1.033   1.450 -0.1217  0.1283  0.0746
 4501SOL    HW317777   3.236   1.059   1.553 -0.2609 -2.8229  0.7504
 4501SOL    MW417778   3.318   1.038   1.533 -0.8365 -0.0232  0.2067
 4502SOL     OW17779   4.808   4.104   2.915  0.2397 -0.2687 -0.3281
 4502SOL    HW217780   4.851   4.025   2.947  0.5582  0.4119  0.9916
 4502SOL    HW317781   4.872   4.174   2.932 -0.2424  0.3499 -1.0010
 4502SOL    MW417782   4.822   4.103   2.921 -0.2120  0.2033 -0.0679
 4503SOL     OW17783   5.811   0.429   5.043  0.6286  0.0196  0.2583
 4503SOL    HW217784   5.864   0.428   4.963 -0.6783 -1.3400 -0.6350
 4503SOL    HW317785   5.837   0.350   5.090 -0.6579 -0.7042 -0.2318
 4503SOL    MW417786   5.822   0.419   5.039 -0.3212 -0.0704  0.0469
 4504SOL     OW17787   5.829   3.471   5.833  0.1784  0.2291 -0.2251
 4504SOL    HW217788   5.756   3.517   5.792  0.9454  0.1107 -1.7842
 4504SOL    HW317789   5.816   3.379   5.811  1.1129  0.2825 -1.0364
 4504SOL    MW417790   5.818   3.465   5.825 -0.1126  0.3827  0.0500
 4505SOL     OW17791   4.898   1.251   2.348  0.1037 -0.1937  0.8597
 4505SOL    HW217792   4.941   1.254   2.262  0.1728  0.8398  0.9224
 4505SOL    HW317793   4.958   1.297   2.406 -1.1737  1.4976  0.8977
 4505SOL    MW417794   4.912   1.257   2.344  0.3395 -0.6530 -0.0004
 4506SOL     OW17795   2.463   3.883   5.128 -0.3931 -0.0475  1.0353
 4506SOL    HW217796   2.392   3.947   5.119 -0.2050  0.4106  2.5716
 4506SOL    HW317797   2.431   3.821   5.194 -0.3764 -1.2992 -0.0845
 4506SOL    MW417798   2.449   3.883   5.135 -0.1838 -0.5323  0.1925
 4507SOL     OW17799   1.835   2.900   1.393  0.1984  0.2533  0.4811
 4507SOL    HW217800   1.846   2.968   1.327  0.2335 -0.2170 -0.0049
 4507SOL    HW317801   1.740   2.888   1.399  0.1763  0.6013  0.8324
 4507SOL    MW417802   1.824   2.907   1.385 -0.0609 -0.5996  0.2823
 4508SOL     OW17803   1.635   3.158   5.513  0.0000 -0.0944 -0.2325
 4508SOL    HW217804   1.615   3.070   5.480 -0.8898  0.2774 -0.6938
 4508SOL    HW317805   1.559   3.183   5.565 -0.3553  0.9514 -1.2218
 4508SOL    MW417806   1.622   3.149   5.515  0.2987 -0.4774  0.0863
 4509SOL     OW17807   1.846   1.790   1.654  0.2245 -0.4124  0.0256
 4509SOL    HW217808   1.804   1.870   1.624 -1.3233 -1.2620 -0.1674
 4509SOL    HW317809   1.805   1.771   1.738  0.0588 -1.3774 -0.2636
 4509SOL    MW417810   1.835   1.798   1.661 -0.3114  0.6069 -0.6242
 4510SOL     OW17811   5.060   2.571   2.322 -0.3268  0.0726 -0.4144
 4510SOL    HW217812   5.144   2.542   2.286 -0.3453 -0.5729  0.0501
 4510SOL    HW317813   5.003   2.578   2.245  0.4643  1.7084 -0.9034
 4510SOL    MW417814   5.064   2.568   2.307  0.3438 -0.0152 -0.0908
 4511SOL     OW17815   5.348   2.980   0.912  0.5726  0.2091 -0.4954
 4511SOL    HW217816   5.439   3.000   0.892  0.5547  0.1381 -0.6445
 4511SOL    HW317817   5.313   3.062   0.949  0.3934  0.5753 -1.4518
 4511SOL    MW417818   5.355   2.994   0.914 -0.0487  0.0064 -0.1976
 4512SOL     OW17819   2.878   5.446   3.771  0.6650 -0.0354 -0.1628
 4512SOL    HW217820   2.923   5.362   3.759 -2.5795 -1.9903  0.3714
 4512SOL    HW317821   2.924   5.487   3.844  0.1527 -3.1045  2.0947
 4512SOL    MW417822   2.890   5.440   3.779  0.3998 -0.6700  0.1976
 4513SOL     OW17823   1.771   1.691   2.553 -0.4264 -0.0089 -0.5524
 4513SOL    HW217824   1.764   1.703   2.648 -0.0909 -2.4519 -0.1543
 4513SOL    HW317825   1.747   1.599   2.538  0.4277  0.0527 -2.7153
 4513SOL    MW417826   1.767   1.680   2.563  0.2012  0.3738 -0.0702
 4514SOL     OW17827   5.558   2.905   0.159  0.1208  0.2974  0.1184
 4514SOL    HW217828   5.608   2.965   0.102  1.6486 -0.2794  0.8048
 4514SOL    HW317829   5.619   2.880   0.228 -1.7751  1.2569  2.2870
 4514SOL    MW417830   5.573   2.910   0.160  0.6073 -0.7260 -0.1109
 4515SOL     OW17831   1.252   4.751   0.596 -0.0552 -0.1078 -0.2701
 4515SOL    HW217832   1.264   4.695   0.519 -0.0604  0.8287 -0.9779
 4515SOL    HW317833   1.167   4.725   0.632 -0.0787 -0.5221 -0.6193
 4515SOL    MW417834   1.242   4.740   0.590 -0.3712 -0.0230  0.2358
 4516SOL     OW17835   0.961   3.222   2.427 -0.3939  0.5495 -0.3731
 4516SOL    HW217836   0.875   3.187   2.406 -0.9189  1.7700 -0.2936
 4516SOL    HW317837   0.947   3.315   2.441  0.9074  0.7341 -0.1644
 4516SOL    MW417838   0.948   3.229   2.426 -0.3729 -0.7281  0.3965
 4517SOL     OW17839   0.540   6.198   0.419  0.4396  0.0433  0.5173
 4517SOL    HW217840   0.513   6.283   0.385 -0.0044 -0.0015  0.7498
 4517SOL    HW317841   0.574   6.151   0.343 -0.3653  0.0117  0.1739
 4517SOL    MW417842   0.541   6.203   0.405 -0.0847  0.0800  0.2567
 4518SOL     OW17843   4.426   0.969   1.646 -0.3921 -0.1641  0.2933
 4518SOL    HW217844   4.479   1.042   1.678  1.2447 -0.9481 -0.5316
 4518SOL    HW317845   4.358   1.011   1.593 -0.8131  0.8749  1.5694
 4518SOL    MW417846   4.424   0.984   1.643 -0.3715 -0.5348  0.7043
 4519SOL     OW17847   3.578   6.041   1.856 -0.0078  0.1534 -0.3752
 4519SOL    HW217848   3.581   6.130   1.821 -1.3959 -0.3492 -1.8993
 4519SOL    HW317849   3.658   6.032   1.907 -0.0345  2.4049  0.1481
 4519SOL    MW417850   3.589   6.051   1.858  0.5631 -0.3838 -0.1244
 4520SOL     OW17851   5.348   0.600   6.435  0.0333  0.0099 -0.4008
 4520SOL    HW217852   5.349   0.514   6.478 -1.9998  0.0775 -0.1376
 4520SOL    HW317853   5.307   0.584   6.351  1.2302  0.4457 -1.0971
 4520SOL    MW417854   5.343   0.586   6.430  0.2973  0.3656 -0.1891
 4521SOL     OW17855   0.183   4.456   5.768 -0.6181 -0.0381 -0.0573
 4521SOL    HW217856   0.220   4.470   5.855 -0.3558  1.2761 -0.3572
 4521SOL    HW317857   0.215   4.529   5.716  0.4794 -1.5871 -1.6909
 4521SOL    MW417858   0.192   4.467   5.773  0.1243  0.4458  0.5675
 4522SOL     OW17859   3.239   1.821   3.402 -0.1913 -0.7703 -0.4302
 4522SOL    HW217860   3.276   1.833   3.314  1.1135 -1.1835  0.0353
 4522SOL    HW317861   3.315   1.827   3.460 -0.9574 -1.1031  0.6225
 4522SOL    MW417862   3.254   1.823   3.398  0.7829  0.4057  0.3682
 4523SOL     OW17863   3.102   2.080   6.215  0.0624 -0.2583  0.3486
 4523SOL    HW217864   3.031   2.028   6.253 -0.7776 -1.2092 -2.3299
 4523SOL    HW317865   3.127   2.140   6.285 -3.1841 -0.0462  1.4931
 4523SOL    MW417866   3.096   2.081   6.229  0.0856 -0.4094 -0.4136
 4524SOL     OW17867   3.446   6.075   0.654 -1.0199 -0.1129  0.2409
 4524SOL    HW217868   3.467   6.064   0.562 -1.4884  1.0864 -0.0320
 4524SOL    HW317869   3.531   6.069   0.699 -0.9214 -1.8650 -0.1121
 4524SOL    MW417870   3.460   6.073   0.648 -0.5510 -0.5374 -0.4519
 4525SOL     OW17871   6.311   2.987   1.359 -0.4476  0.0688 -0.4158
 4525SOL    HW217872   6.274   2.977   1.272 -0.2222  2.4369 -0.8560
 4525SOL    HW317873   6.329   3.081   1.367  1.1253 -0.3241  1.5432
 4525SOL    MW417874   6.309   2.998   1.349  0.1282 -0.0870  0.0362
 4526SOL     OW17875   0.959   0.276   2.774 -0.0736 -0.4988  0.0459
 4526SOL    HW217876   1.004   0.309   2.852 -0.8533 -1.3842  0.8971
 4526SOL    HW317877   0.867   0.297   2.789 -0.5621 -2.7182  0.4962
 4526SOL    MW417878   0.953   0.283   2.786  0.2417 -0.0537 -0.0610
 4527SOL     OW17879   5.079   3.558   3.124  0.0155 -0.3258  0.1831
 4527SOL    HW217880   5.046   3.469   3.133 -0.7937 -0.1223 -0.6329
 4527SOL    HW317881   5.070   3.578   3.031  2.6927 -0.3233 -0.1479
 4527SOL    MW417882   5.073   3.549   3.113 -0.1090 -0.2476 -0.1916
 4528SOL     OW17883   3.948   3.942   0.632  0.2723 -0.3445  0.7371
 4528SOL    HW217884   3.962   3.990   0.551  0.8987 -0.4326  0.7930
 4528SOL    HW317885   3.871   3.984   0.672 -0.5771 -0.8631 -0.3176
 4528SOL    MW417886   3.939   3.954   0.627 -0.0351 -0.0653 -0.0068
 4529SOL     OW17887   0.105   4.325   4.623  0.1118 -0.0492 -0.1902
 4529SOL    HW217888   0.034   4.285   4.573 -0.2788  0.1242  0.2212
 4529SOL    HW317889   0.166   4.358   4.556 -0.7835  0.8746 -0.5656
 4529SOL    MW417890   0.104   4.324   4.607  0.1285 -0.4984  0.4994
 4530SOL     OW17891   3.122   0.150   4.669 -0.0404 -0.2613 -0.1715
 4530SOL    HW217892   3.091   0.241   4.664  0.0724 -0.2404 -0.5317
 4530SOL    HW317893   3.217   0.158   4.673 -0.0439 -0.3546  0.1244
 4530SOL    MW417894   3.130   0.163   4.669  0.1230  0.2363  0.2922
 4531SOL     OW17895   5.278   2.951   1.710  0.3985 -0.1154 -0.0764
 4531SOL    HW217896   5.335   3.007   1.656  0.9225 -1.5625 -1.0893
 4531SOL    HW317897   5.191   2.960   1.671  0.4797 -0.0051 -0.2329
 4531SOL    MW417898   5.274   2.960   1.698 -0.2259 -0.2414  0.0044
 4532SOL     OW17899   0.825   2.192   4.182 -0.2470 -0.6231 -0.5159
 4532SOL    HW217900   0.800   2.234   4.100 -0.4677  1.0803  0.3752
 4532SOL    HW317901   0.913   2.225   4.200 -0.1921 -0.9985 -0.0786
 4532SOL    MW417902   0.834   2.202   4.174  0.3047 -0.1845 -0.3759
 4533SOL     OW17903   4.107   4.758   2.371 -0.0629  0.4160 -0.4602
 4533SOL    HW217904   4.127   4.761   2.277 -0.6612  0.4203 -0.5911
 4533SOL    HW317905   4.173   4.700   2.408  0.3701  0.6626 -0.8357
 4533SOL    MW417906   4.118   4.751   2.363  0.6766 -0.4126  0.2550
 4534SOL     OW17907   5.498   5.818   1.046  0.1588  0.1396  0.5311
 4534SOL    HW217908   5.410   5.850   1.026  0.7738  0.9019 -1.1483
 4534SOL    HW317909   5.550   5.897   1.054  1.4292 -0.3055 -2.2690
 4534SOL    MW417910   5.493   5.833   1.044  0.1707 -0.1615  0.0768
 4535SOL     OW17911   0.567   3.831   4.554  0.0846 -0.0479  0.2942
 4535SOL    HW217912   0.522   3.790   4.480 -0.0641 -0.0610  0.3923
 4535SOL    HW317913   0.542   3.779   4.630  1.6888 -1.1655  0.1118
 4535SOL    MW417914   0.558   3.819   4.554  0.4540  0.6328  0.0633
 4536SOL     OW17915   4.664   1.021   2.354  0.2813  0.1727  0.3550
 4536SOL    HW217916   4.692   0.930   2.363  1.0231  0.4205  0.6189
 4536SOL    HW317917   4.744   1.069   2.332 -0.3338  0.5724 -1.0795
 4536SOL    MW417918   4.678   1.016   2.352 -0.5659  0.4916 -0.0908
 4537SOL     OW17919   6.188   3.023   3.817  0.2771  0.3743  0.2632
 4537SOL    HW217920   6.283   3.021   3.803  0.1656 -0.1998 -0.4537
 4537SOL    HW317921   6.155   2.943   3.775 -0.4811  0.3663  0.8542
 4537SOL    MW417922   6.196   3.012   3.810  0.3563 -0.1992 -0.0584
 4538SOL     OW17923   1.695   4.982   4.337  0.3324  0.1699  0.6055
 4538SOL    HW217924   1.672   4.987   4.244  0.1229  1.0084  0.6984
 4538SOL    HW317925   1.790   4.967   4.337  0.2829 -0.1769  0.2591
 4538SOL    MW417926   1.705   4.981   4.325 -0.7480 -0.1579  0.1435
 4539SOL     OW17927   3.737   6.165   2.666  0.0343 -0.6926  0.2024
 4539SOL    HW217928   3.832   6.171   2.678 -0.1342  1.5100  0.8290
 4539SOL    HW317929   3.723   6.185   2.573  0.0258  2.3560  0.7696
 4539SOL    MW417930   3.748   6.168   2.655  0.7229  0.3959  0.0348
 4540SOL     OW17931   2.698   3.023   2.638 -0.2666 -0.0275 -0.1398
 4540SOL    HW217932   2.793   3.016   2.639 -0.2282  0.1612 -1.1706
 4540SOL    HW317933   2.667   2.932   2.645  0.0092 -0.1459 -0.4154
 4540SOL    MW417934   2.706   3.010   2.639  0.8108  0.3921 -0.3796
 4541SOL     OW17935   2.045   3.748   3.970  0.3450  0.4212 -0.1386
 4541SOL    HW217936   2.066   3.665   3.925  1.7027  0.3219  0.6122
 4541SOL    HW317937   2.014   3.721   4.056  0.3471  0.6866 -0.0557
 4541SOL    MW417938   2.044   3.733   3.975 -0.5721  0.3184  0.1510
 4542SOL     OW17939   0.692   0.606   0.210  0.7097  0.1568 -0.1345
 4542SOL    HW217940   0.642   0.541   0.161  1.2252 -1.4368  1.3305
 4542SOL    HW317941   0.783   0.584   0.194  0.9069 -0.9312  2.0635
 4542SOL    MW417942   0.697   0.595   0.202  0.4201  1.2858 -0.9047
 4543SOL     OW17943   5.271   5.969   6.115  0.1600  0.1147 -0.2452
 4543SOL    HW217944   5.335   5.921   6.168 -2.2061 -1.8007  1.1027
 4543SOL    HW317945   5.302   5.959   6.025  0.6759 -2.6497  0.1323
 4543SOL    MW417946   5.284   5.961   6.110  0.0628  0.1112 -0.2399
 4544SOL     OW17947   0.807   4.527   2.350 -0.1792  0.1534 -0.6386
 4544SOL    HW217948   0.792   4.483   2.266  1.0997 -0.7751 -0.4125
 4544SOL    HW317949   0.745   4.485   2.409  1.3018 -1.7607 -0.3270
 4544SOL    MW417950   0.797   4.515   2.347  0.3058 -0.3716 -0.0579
 4545SOL     OW17951   5.943   1.824   4.566 -0.2969  0.2147  0.2152
 4545SOL    HW217952   6.015   1.775   4.525 -0.7950  0.7023 -1.3184
 4545SOL    HW317953   5.984   1.904   4.598  0.0005  0.0731  0.1962
 4545SOL    MW417954   5.958   1.828   4.565  0.2331 -0.1811 -0.0824
 4546SOL     OW17955   6.358   1.015   5.576  0.0851 -0.2440  0.0512
 4546SOL    HW217956   6.395   0.963   5.504 -1.1505  0.5770 -1.2270
 4546SOL    HW317957   6.434   1.058   5.615  0.6138  1.5900 -2.6503
 4546SOL    MW417958   6.373   1.014   5.571 -0.6808  0.0207 -0.4227
 4547SOL     OW17959   4.625   1.988   3.263 -0.8335  0.3285  0.0063
 4547SOL    HW217960   4.620   1.988   3.359  0.0021 -1.5998  0.1167
 4547SOL    HW317961   4.547   1.940   3.235 -1.4369  1.4816 -0.3469
 4547SOL    MW417962   4.614   1.981   3.272  0.3798 -0.2607  0.4439
 4548SOL     OW17963   1.188   3.744   0.984 -0.2387 -0.0306  0.0014
 4548SOL    HW217964   1.101   3.704   0.983  0.0600 -0.6931 -0.0236
 4548SOL    HW317965   1.248   3.670   0.989  0.3193  0.4352  0.2766
 4548SOL    MW417966   1.184   3.729   0.985  0.3776  0.5780  0.0256
 4549SOL     OW17967   4.411   1.091   5.535  0.0738 -0.2219  0.1013
 4549SOL    HW217968   4.489   1.041   5.557 -0.3409 -0.5821  0.7755
 4549SOL    HW317969   4.384   1.131   5.618  0.1831  0.8216 -0.3502
 4549SOL    MW417970   4.418   1.090   5.549  0.2189 -0.1648 -0.3482
 4550SOL     OW17971   0.064   5.473   1.259  0.0990 -0.0593  0.6857
 4550SOL    HW217972   0.038   5.537   1.326 -0.4049  0.0742  0.3678
 4550SOL    HW317973   0.038   5.388   1.296  0.2835 -0.0313  0.8798
 4550SOL    MW417974   0.057   5.470   1.273  0.3475 -0.5134  0.1586
 4551SOL     OW17975   0.480   5.717   4.170 -0.1599  0.2697  0.0064
 4551SOL    HW217976   0.547   5.678   4.226  0.6640  0.0786 -1.0653
 4551SOL    HW317977   0.407   5.735   4.228  0.1600 -1.1246  0.8913
 4551SOL    MW417978   0.479   5.714   4.185 -0.5339  0.1732  0.1565
 4552SOL     OW17979   1.683   2.029   4.740 -0.0680  0.1159 -0.3561
 4552SOL    HW217980   1.690   2.113   4.696  0.7846 -0.0468 -0.5465
 4552SOL    HW317981   1.742   1.971   4.692  0.8941 -0.0686  0.9810
 4552SOL    MW417982   1.692   2.032   4.728  0.2794 -0.3720 -0.2865
 4553SOL     OW17983   4.930   6.385   1.444  0.4648 -0.0786  0.0433
 4553SOL    HW217984   4.928   6.413   1.353  0.3212 -0.6095 -0.1208
 4553SOL    HW317985   4.848   6.417   1.482 -0.7308 -2.0764 -0.6976
 4553SOL    MW417986   4.919   6.393   1.437 -0.2802 -0.3424 -0.3638
 4554SOL     OW17987   0.824   5.799   6.219  0.6132 -0.5706  0.7471
 4554SOL    HW217988   0.895   5.776   6.158  1.4409 -0.3791  1.6163
 4554SOL    HW317989   0.832   5.893   6.230 -0.3305 -0.4114  0.2000
 4554SOL    MW417990   0.835   5.808   6.212  0.1750  0.0818 -0.4573
 4555SOL     OW17991   0.622   4.124   4.367 -0.1693 -0.3843 -0.2679
 4555SOL    HW217992   0.711   4.156   4.360  0.0815 -0.9949  0.0510
 4555SOL    HW317993   0.590   4.120   4.277  0.6998 -1.7391 -0.5447
 4555SOL    MW417994   0.629   4.127   4.354 -0.4104  0.1762 -0.3368
 4556SOL     OW17995   2.140   5.890   5.789 -0.3132  0.0985  0.3338
 4556SOL    HW217996   2.222   5.845   5.808 -0.2034 -0.6476 -1.6418
 4556SOL    HW317997   2.075   5.821   5.785 -0.9974  0.6502  1.5672
 4556SOL    MW417998   2.142   5.875   5.791 -0.1055 -0.8908  0.7954
 4557SOL     OW17999   1.454   5.437   1.069  0.3313  0.2357 -0.5937
 4557SOL    HW218000   1.512   5.367   1.100 -1.5039 -1.0132  0.2566
 4557SOL    HW318001   1.388   5.445   1.138 -0.6192  1.4466 -1.5966
 4557SOL    MW418002   1.453   5.429   1.082  0.7482 -0.1931  0.3922
 4558SOL     OW18003   6.098   2.316   5.445  0.3912 -0.3263  0.1588
 4558SOL    HW218004   6.161   2.294   5.514  1.3075  0.1907 -0.4815
 4558SOL    HW318005   6.151   2.360   5.378 -0.6110 -0.1427 -0.5339
 4558SOL    MW418006   6.114   2.319   5.446 -0.0172  0.5125  0.1685
 4559SOL     OW18007   3.394   0.297   3.508  0.4587  0.2875  0.1110
 4559SOL    HW218008   3.403   0.205   3.481  1.1074 -0.3193  2.2661
 4559SOL    HW318009   3.299   0.309   3.517  0.3677 -0.1459 -0.1908
 4559SOL    MW418010   3.382   0.287   3.505 -0.0943  0.0833 -0.6459
 4560SOL     OW18011   5.055   0.263   2.467 -0.2263  0.0029 -0.1270
 4560SOL    HW218012   5.110   0.296   2.397 -2.0168  1.6408 -0.8712
 4560SOL    HW318013   5.096   0.295   2.548  0.7442 -0.1448 -0.5600
 4560SOL    MW418014   5.067   0.272   2.469 -0.2282 -0.0364  0.5261
 4561SOL     OW18015   5.116   0.335   5.039 -0.3334 -0.0792  0.1070
 4561SOL    HW218016   5.037   0.283   5.021  1.6145 -2.5509 -2.1805
 4561SOL    HW318017   5.148   0.361   4.953  0.7885  1.8590  1.0412
 4561SOL    MW418018   5.110   0.331   5.025  0.1975 -0.6338 -0.0846
 4562SOL     OW18019   4.617   5.677   6.291  0.0622  0.3049 -0.4079
 4562SOL    HW218020   4.705   5.649   6.265 -0.1252  0.5870 -1.3802
 4562SOL    HW318021   4.558   5.620   6.242 -0.3023  0.8179 -0.5775
 4562SOL    MW418022   4.621   5.666   6.281  0.3194  1.2208  0.1375
 4563SOL     OW18023   3.884   4.711   1.939 -0.0508  0.5914  1.0280
 4563SOL    HW218024   3.930   4.680   1.861  0.9326 -0.8823  2.1476
 4563SOL    HW318025   3.797   4.672   1.933 -0.3682  1.3927  0.1353
 4563SOL    MW418026   3.879   4.702   1.928  0.2862  0.0194  0.0526
 4564SOL     OW18027   2.717   0.285   5.432 -0.1194  0.7439 -0.0876
 4564SOL    HW218028   2.661   0.208   5.428 -0.9569  1.3388  0.0404
 4564SOL    HW318029   2.669   0.352   5.384  0.8402  1.0496 -0.6498
 4564SOL    MW418030   2.703   0.283   5.425 -0.1803 -0.3809 -0.5708
 4565SOL     OW18031   0.662   0.124   4.883  0.8492  0.2684 -0.0833
 4565SOL    HW218032   0.672   0.217   4.863  0.5573  0.6393  1.3312
 4565SOL    HW318033   0.660   0.120   4.979  1.9224 -1.3125 -0.0722
 4565SOL    MW418034   0.663   0.135   4.893 -0.1771  0.6472 -0.0630
 4566SOL     OW18035   4.641   4.077   0.260 -0.1625 -0.2269  0.2460
 4566SOL    HW218036   4.642   4.165   0.298  0.0992 -1.2635  2.8338
 4566SOL    HW318037   4.556   4.071   0.217  0.1303  1.5381 -0.6929
 4566SOL    MW418038   4.630   4.088   0.259 -0.2579 -0.2883 -0.8355
 4567SOL     OW18039   0.946   0.334   2.115 -0.1828 -0.5208 -0.4494
 4567SOL    HW218040   1.039   0.314   2.114  0.3136  1.4990  0.0238
 4567SOL    HW318041   0.924   0.356   2.025  0.2423  0.6564 -0.2883
 4567SOL    MW418042   0.955   0.334   2.103 -0.7241 -0.3091  0.7380
 4568SOL     OW18043   4.128   4.464   2.883  0.0821 -0.0813 -0.7625
 4568SOL    HW218044   4.051   4.432   2.836 -1.1238 -0.9876  1.6438
 4568SOL    HW318045   4.133   4.557   2.862 -0.5516 -0.3990 -2.4207
 4568SOL    MW418046   4.119   4.472   2.874 -0.2837  0.2615 -0.2907
 4569SOL     OW18047   2.342   4.231   3.136 -0.1432 -0.3995  0.7379
 4569SOL    HW218048   2.288   4.165   3.178  0.4235 -1.3097  0.0667
 4569SOL    HW318049   2.412   4.182   3.093 -0.8295  0.4724 -1.4903
 4569SOL    MW418050   2.344   4.216   3.136 -0.1483  0.1981 -0.0549
 4570SOL     OW18051   0.271   4.870   5.848  0.0112  0.3488 -0.9252
 4570SOL    HW218052   0.180   4.880   5.875  1.1871  0.7508  3.7386
 4570SOL    HW318053   0.284   4.939   5.783 -2.6500  1.1036 -0.7967
 4570SOL    MW418054   0.261   4.881   5.843 -0.5121  0.2565  0.4306
 4571SOL     OW18055   6.311   1.490   2.283  0.3305 -0.2985 -0.3655
 4571SOL    HW218056   6.240   1.460   2.227  0.4438 -1.0161 -0.1305
 4571SOL    HW318057   6.287   1.461   2.371  0.6422 -0.0555 -0.1955
 4571SOL    MW418058   6.299   1.482   2.287 -0.1423 -0.1382 -0.0693
 4572SOL     OW18059   2.196   4.989   0.760 -0.2455  0.1256 -0.2040
 4572SOL    HW218060   2.154   5.031   0.685 -0.6357  1.0285  0.5061
 4572SOL    HW318061   2.284   5.028   0.762 -0.6780  1.0841  0.5796
 4572SOL    MW418062   2.202   4.999   0.750 -1.0979  0.0540 -0.1145
 4573SOL     OW18063   5.487   1.968   0.310  0.1205  0.2161  0.0329
 4573SOL    HW218064   5.462   1.878   0.294  0.6339  0.0132  0.3333
 4573SOL    HW318065   5.543   1.964   0.388  0.2986  0.7685 -0.0600
 4573SOL    MW418066   5.491   1.956   0.318 -0.2332  0.3292  0.3502
 4574SOL     OW18067   0.921   3.375   3.341  0.0930 -0.1481 -0.0385
 4574SOL    HW218068   0.950   3.297   3.387  0.4720 -0.3284 -0.5741
 4574SOL    HW318069   0.990   3.439   3.358  1.7712 -1.1006 -2.7480
 4574SOL    MW418070   0.934   3.373   3.350 -0.1057 -0.1832  0.0533
 4575SOL     OW18071   2.603   1.898   1.246  0.5010  0.3135  0.1700
 4575SOL    HW218072   2.510   1.909   1.226  0.6654  0.9977 -0.2263
 4575SOL    HW318073   2.605   1.885   1.341 -0.0034  0.2186  0.1718
 4575SOL    MW418074   2.591   1.898   1.256  0.3437  0.3161  0.0622
 4576SOL     OW18075   3.888   4.374   1.636  0.2290  0.3596  0.7128
 4576SOL    HW218076   3.826   4.348   1.568  0.6326  1.0271  0.0871
 4576SOL    HW318077   3.844   4.348   1.718 -0.8667  0.7894  0.2850
 4576SOL    MW418078   3.874   4.367   1.638 -0.0067  0.1097 -0.0505
 4577SOL     OW18079   5.879   3.907   3.802 -0.1558 -0.0782  1.2893
 4577SOL    HW218080   5.834   3.991   3.792 -1.0065 -0.6444  0.2285
 4577SOL    HW318081   5.841   3.851   3.735  0.6988 -1.1981  1.7116
 4577SOL    MW418082   5.868   3.911   3.792 -0.2379  0.2662 -0.0595
 4578SOL     OW18083   5.081   1.882   0.410  0.3105 -0.0322  0.6487
 4578SOL    HW218084   5.094   1.892   0.504 -0.8797  0.3117  0.7944
 4578SOL    HW318085   5.061   1.970   0.379  1.1973 -0.0523 -0.0256
 4578SOL    MW418086   5.080   1.895   0.419 -0.4387 -0.3400  0.4594
 4579SOL     OW18087   1.299   3.780   5.093  0.4107  0.5196 -0.3384
 4579SOL    HW218088   1.331   3.778   5.183  0.9921 -0.0686 -0.5475
 4579SOL    HW318089   1.212   3.818   5.099  0.8162  1.3573  0.3552
 4579SOL    MW418090   1.292   3.785   5.105  0.7335  0.3276 -0.1525
 4580SOL     OW18091   5.952   2.153   5.224  0.4487  0.2752 -0.3208
 4580SOL    HW218092   5.879   2.191   5.175  0.5300  0.2678 -0.4472
 4580SOL    HW318093   6.012   2.226   5.237 -0.0602  0.5260  0.6864
 4580SOL    MW418094   5.950   2.168   5.219  0.0384  0.1766  0.2434
 4581SOL     OW18095   5.374   1.173   3.923  0.3745 -0.2685 -0.6527
 4581SOL    HW218096   5.405   1.254   3.882  0.5714  0.8260  1.4803
 4581SOL    HW318097   5.431   1.105   3.889  0.1506  0.4362 -2.5844
 4581SOL    MW418098   5.385   1.175   3.913  0.0689 -0.1993  0.0285
 4582SOL     OW18099   0.456   1.680   0.572 -0.5378  0.3555  0.6532
 4582SOL    HW218100   0.502   1.758   0.541  0.2718  0.5083  2.1512
 4582SOL    HW318101   0.525   1.614   0.581 -1.3681 -0.9294 -1.6439
 4582SOL    MW418102   0.471   1.681   0.569  0.3694  0.1288  0.0381
 4583SOL     OW18103   1.368   4.150   2.660 -0.4562  0.2173 -0.2262
 4583SOL    HW218104   1.416   4.085   2.710  1.0925  0.9137 -0.7566
 4583SOL    HW318105   1.276   4.123   2.667 -0.1125 -0.5568  1.6657
 4583SOL    MW418106   1.362   4.138   2.667 -0.1475  0.1905  0.4463
 4584SOL     OW18107   3.488   3.283   6.304 -0.1483  0.5266 -0.0570
 4584SOL    HW218108   3.475   3.359   6.248  0.5799 -1.8850 -3.8939
 4584SOL    HW318109   3.583   3.277   6.314 -0.1260 -0.3464 -0.6384
 4584SOL    MW418110   3.499   3.292   6.298  0.1213  0.2191 -0.0608
 4585SOL     OW18111   0.032   3.184   2.160 -0.0648  0.2136 -0.4919
 4585SOL    HW218112   0.095   3.112   2.163  0.4309  0.6074 -1.3391
 4585SOL    HW318113  -0.000   3.185   2.070 -1.5050 -0.1518 -0.0191
 4585SOL    MW418114   0.036   3.175   2.149  0.0303 -0.6373 -0.0207
 4586SOL     OW18115   3.010   5.671   0.595  0.4056  0.2289  0.3421
 4586SOL    HW218116   2.939   5.713   0.547 -2.4208 -2.8894  1.4433
 4586SOL    HW318117   2.995   5.696   0.686  2.6226  1.8995  0.3424
 4586SOL    MW418118   2.999   5.680   0.601  0.2718 -0.3220 -0.1040
 4587SOL     OW18119   0.925   0.203   1.449  0.7264  0.2884  0.2371
 4587SOL    HW218120   1.001   0.233   1.498  1.8045 -1.8491 -0.0254
 4587SOL    HW318121   0.951   0.210   1.357  0.9208 -1.1466  0.1654
 4587SOL    MW418122   0.938   0.208   1.443  0.6155  0.2777 -0.3722
 4588SOL     OW18123   3.555   4.713   4.281  0.0823 -0.1332  0.2544
 4588SOL    HW218124   3.514   4.797   4.306  2.9695  1.2968  0.5756
 4588SOL    HW318125   3.487   4.668   4.232 -1.8106  2.1387  0.5680
 4588SOL    MW418126   3.540   4.718   4.278 -0.3956  0.5685 -0.5744
 4589SOL     OW18127   1.785   3.753   3.210  0.4996  0.2790  0.1995
 4589SOL    HW218128   1.710   3.698   3.187 -0.6610  1.8894 -0.0666
 4589SOL    HW318129   1.799   3.738   3.303  0.4823 -0.7609  0.0416
 4589SOL    MW418130   1.777   3.744   3.219  0.2966  1.4042  0.4763
 4590SOL     OW18131   1.383   5.541   4.310 -0.0631  0.3183 -0.0000
 4590SOL    HW218132   1.469   5.506   4.288 -0.8322 -1.1423 -0.8587
 4590SOL    HW318133   1.383   5.547   4.406  0.4394 -1.2481  0.1207
 4590SOL    MW418134   1.394   5.537   4.320 -0.5638  0.3190 -0.0624
 4591SOL     OW18135   5.075   1.299   3.597  0.2633  0.4243 -0.2069
 4591SOL    HW218136   5.099   1.346   3.677  0.2297  0.3699 -0.1651
 4591SOL    HW318137   4.987   1.330   3.577  0.2386  0.3741 -0.1756
 4591SOL    MW418138   5.067   1.310   3.605 -0.1003  0.1604 -0.6915
 4592SOL     OW18139   1.924   1.533   4.417  0.6547  0.2013 -0.2508
 4592SOL    HW218140   1.898   1.442   4.407  1.3917 -0.1605  0.9150
 4592SOL    HW318141   1.891   1.558   4.504  1.8672  0.5121  0.1524
 4592SOL    MW418142   1.916   1.525   4.427 -0.0235  0.5700  0.0420
 4593SOL     OW18143   4.853   4.329   4.784  0.7480  0.3501  0.0953
 4593SOL    HW218144   4.791   4.261   4.809  2.6491 -2.0867 -1.4031
 4593SOL    HW318145   4.855   4.388   4.860 -2.3049 -0.1938  0.7288
 4593SOL    MW418146   4.845   4.328   4.798  0.2014  0.2462  0.1710
 4594SOL     OW18147   3.828   2.512   1.350 -0.0007  0.4579  0.5941
 4594SOL    HW218148   3.882   2.540   1.424  2.6316  0.3653 -1.1591
 4594SOL    HW318149   3.850   2.574   1.280  3.2685 -3.4360 -2.3276
 4594SOL    MW418150   3.838   2.524   1.351 -0.0152 -0.1244 -0.6294
 4595SOL     OW18151   3.557   0.838   4.861  0.1170  0.1043  0.3663
 4595SOL    HW218152   3.514   0.760   4.826  1.6072 -0.1005 -1.1480
 4595SOL    HW318153   3.629   0.803   4.914  0.3857  0.4503  0.2302
 4595SOL    MW418154   3.561   0.823   4.863  0.2600  0.4182  0.5843
 4596SOL     OW18155   3.982   2.821   0.056  0.4252 -0.5581 -0.1823
 4596SOL    HW218156   3.993   2.808   0.150  0.9977 -0.4606 -0.2360
 4596SOL    HW318157   3.947   2.737   0.025 -0.9702 -0.1960  0.2952
 4596SOL    MW418158   3.979   2.808   0.064 -0.1063  0.3644  0.0718
 4597SOL     OW18159   3.607   5.018   3.460  0.4866 -0.1770  0.2728
 4597SOL    HW218160   3.535   5.072   3.427  0.6431 -1.3721 -2.2734
 4597SOL    HW318161   3.566   4.958   3.521 -0.8927 -1.2528 -1.6065
 4597SOL    MW418162   3.592   5.018   3.463  0.0324  0.4033  0.0207
 4598SOL     OW18163   4.635   2.670   3.722  0.4009 -0.3256  0.0189
 4598SOL    HW218164   4.666   2.760   3.715 -0.9133  0.0206 -2.2997
 4598SOL    HW318165   4.604   2.648   3.634 -0.7960 -2.4969  0.9017
 4598SOL    MW418166   4.635   2.679   3.710  0.0299 -0.4841 -0.1014
 4599SOL     OW18167   0.531   4.757   3.745 -0.5661  0.6063  0.1930
 4599SOL    HW218168   0.603   4.722   3.796 -0.1541 -0.0889 -0.8321
 4599SOL    HW318169   0.572   4.820   3.686 -1.2589  2.7009  1.8217
 4599SOL    MW418170   0.546   4.761   3.744  0.1974 -0.2117 -0.2435
 4600SOL     OW18171   5.119   3.061   6.017  0.2330  0.1852 -0.6635
 4600SOL    HW218172   5.173   3.136   5.992 -0.2451  0.8471  0.1848
 4600SOL    HW318173   5.181   2.992   6.038  0.8245  1.1104  0.8612
 4600SOL    MW418174   5.134   3.062   6.017  1.0880  0.1120 -0.8053
 4601SOL     OW18175   6.091   1.244   5.346 -0.0806  0.4505 -0.0290
 4601SOL    HW218176   6.016   1.280   5.298 -0.4787 -0.6158 -0.2309
 4601SOL    HW318177   6.160   1.237   5.280 -0.3307 -0.1357 -0.2262
 4601SOL    MW418178   6.091   1.248   5.331 -0.2859  0.0825 -0.1255
 4602SOL     OW18179   4.592   0.989   0.613  0.3506 -0.2446 -0.0092
 4602SOL    HW218180   4.511   0.945   0.637 -0.4112 -0.2532 -2.3126
 4602SOL    HW318181   4.642   0.994   0.694 -0.1236 -4.0463  0.6803
 4602SOL    MW418182   4.588   0.984   0.627 -0.1359  0.0499 -0.8160
 4603SOL     OW18183   2.591   3.268   6.161  0.5685  0.1147 -0.0495
 4603SOL    HW218184   2.651   3.239   6.231  0.5086 -0.0447 -0.0630
 4603SOL    HW318185   2.604   3.363   6.156  0.9263  0.0627 -0.1517
 4603SOL    MW418186   2.600   3.277   6.170 -0.0386 -0.2108 -0.0010
 4604SOL     OW18187   6.054   4.384   3.109  0.2256  0.1164 -0.2807
 4604SOL    HW218188   6.015   4.301   3.081  1.8775 -1.3198  1.4188
 4604SOL    HW318189   6.104   4.413   3.033  0.8285 -1.2585 -0.4574
 4604SOL    MW418190   6.056   4.377   3.096  0.0829 -0.0956  0.1530
 4605SOL     OW18191   4.569   4.064   1.125  0.1657  0.3956 -0.1533
 4605SOL    HW218192   4.519   4.065   1.207  0.0875  0.9392 -0.2027
 4605SOL    HW318193   4.508   4.029   1.060  0.8145 -1.8865  0.3673
 4605SOL    MW418194   4.555   4.059   1.127 -0.6989  1.1077  0.4330
 4606SOL     OW18195   4.364   3.534   5.494  0.1408  0.2640  0.1484
 4606SOL    HW218196   4.312   3.531   5.575 -0.3963 -0.4566 -0.2106
 4606SOL    HW318197   4.448   3.570   5.521  0.2609 -0.7371  1.1953
 4606SOL    MW418198   4.368   3.538   5.509  0.2747  0.7811  0.2972
 4607SOL     OW18199   3.583   2.459   3.616  0.3796  0.3935  0.3100
 4607SOL    HW218200   3.635   2.534   3.586  0.2325  0.1554 -0.5725
 4607SOL    HW318201   3.569   2.407   3.537 -1.3433  0.5344  0.4916
 4607SOL    MW418202   3.588   2.462   3.601 -0.4179  0.3398 -0.3615
 4608SOL     OW18203   2.209   1.823   5.849 -0.9517 -0.3239 -0.1616
 4608SOL    HW218204   2.217   1.894   5.913 -2.3240 -1.5973  1.5279
 4608SOL    HW318205   2.299   1.804   5.822 -0.2927  0.0495  1.6617
 4608SOL    MW418206   2.221   1.829   5.854  0.2650 -0.3216  0.8120
 4609SOL     OW18207   2.396   0.803   3.032  0.7832  0.2550 -0.3716
 4609SOL    HW218208   2.342   0.878   3.055  1.7840  1.0842 -0.6639
 4609SOL    HW318209   2.352   0.728   3.072 -0.6946  0.8691 -0.8012
 4609SOL    MW418210   2.383   0.803   3.040  0.1986 -0.0403  0.4276
 4610SOL     OW18211   0.358   4.398   2.916  0.4169 -0.3049 -0.6379
 4610SOL    HW218212   0.361   4.490   2.940 -1.4283 -0.3767 -0.0015
 4610SOL    HW318213   0.320   4.353   2.992 -2.0432 -1.0470 -2.1526
 4610SOL    MW418214   0.353   4.404   2.929 -0.2890 -0.0976  0.4509
 4611SOL     OW18215   3.369   2.654   0.877  0.0198  0.3076 -0.3820
 4611SOL    HW218216   3.329   2.609   0.802  0.1867  1.5537 -1.2383
 4611SOL    HW318217   3.299   2.708   0.913 -0.0061 -0.1412  0.2586
 4611SOL    MW418218   3.354   2.655   0.872 -0.6012 -0.2453 -0.2163
 4612SOL     OW18219   0.418   3.144   5.636  0.0535  0.4297 -0.1334
 4612SOL    HW218220   0.446   3.053   5.634  0.0871  0.4438 -0.5282
 4612SOL    HW318221   0.492   3.193   5.599  0.0117  0.6080  0.0186
 4612SOL    MW418222   0.431   3.139   5.631 -0.2878 -0.2434  0.4499
 4613SOL     OW18223   0.505   4.004   1.531 -0.0198  0.3221  0.2532
 4613SOL    HW218224   0.505   4.065   1.457  1.4572  0.0857  0.0343
 4613SOL    HW318225   0.433   4.035   1.587  0.2269  1.8234 -0.2046
 4613SOL    MW418226   0.496   4.016   1.529  0.1306 -0.1526 -0.6602
 4614SOL     OW18227   2.251   1.902   0.758  0.2335  0.5875 -0.7755
 4614SOL    HW218228   2.194   1.967   0.716 -0.6170  0.2204 -0.2224
 4614SOL    HW318229   2.193   1.854   0.817  1.1870  0.4152  0.0585
 4614SOL    MW418230   2.236   1.905   0.760  0.1391  0.5714 -0.0667
 4615SOL     OW18231   0.202   0.841   1.596 -0.1333  0.0541 -0.3055
 4615SOL    HW218232   0.211   0.770   1.532  0.5757  1.0087 -1.2948
 4615SOL    HW318233   0.160   0.912   1.547  1.3067  1.1491 -0.0046
 4615SOL    MW418234   0.198   0.841   1.581  0.5032 -0.3317 -0.6411
 4616SOL     OW18235   5.122   0.721   5.858  0.2618  0.4375  0.0175
 4616SOL    HW218236   5.206   0.734   5.902 -1.1479 -0.3433  3.3275
 4616SOL    HW318237   5.132   0.637   5.813  2.0870  1.7134 -2.1270
 4616SOL    MW418238   5.134   0.711   5.858 -0.2016  0.4833  0.2636
 4617SOL     OW18239   5.508   2.354   0.611  0.1220  0.2143  0.0748
 4617SOL    HW218240   5.443   2.423   0.619  1.5055  1.5301  0.6074
 4617SOL    HW318241   5.569   2.386   0.544 -1.0705 -2.1188 -2.2901
 4617SOL    MW418242   5.508   2.368   0.604 -0.2216 -0.2722 -0.4072
 4618SOL     OW18243   4.918   3.958   1.760 -0.3919  0.1799  0.1680
 4618SOL    HW218244   4.965   3.993   1.836  0.2146  1.4325 -0.7459
 4618SOL    HW318245   4.942   4.017   1.688 -2.1491 -0.0797 -0.6750
 4618SOL    MW418246   4.927   3.970   1.761 -0.1671 -0.4075 -0.5650
 4619SOL     OW18247   6.224   4.502   3.347 -0.0966 -0.0677  0.6361
 4619SOL    HW218248   6.222   4.574   3.284 -1.8072 -0.3092  0.3847
 4619SOL    HW318249   6.213   4.544   3.432 -1.5296 -0.0438  0.4560
 4619SOL    MW418250   6.222   4.517   3.350  0.2129 -0.1855  0.0409
 4620SOL     OW18251   3.618   2.861   1.105 -0.1329 -0.2442 -0.1750
 4620SOL    HW218252   3.535   2.868   1.151 -0.5747  0.2715 -1.0251
 4620SOL    HW318253   3.594   2.857   1.012  0.8372  1.8582 -0.5769
 4620SOL    MW418254   3.604   2.861   1.098 -0.1398  0.1774  0.1189
 4621SOL     OW18255   4.895   5.252   3.818 -0.0178 -0.1382 -0.3655
 4621SOL    HW218256   4.934   5.165   3.827 -2.8000 -1.4356  0.1913
 4621SOL    HW318257   4.964   5.305   3.777  2.9260 -1.6907  2.1230
 4621SOL    MW418258   4.909   5.248   3.814 -0.5259 -0.2790  0.5616
 4622SOL     OW18259   2.400   1.437   0.400 -0.5508  0.3654  0.1880
 4622SOL    HW218260   2.319   1.488   0.403  0.6517  2.3952 -0.0361
 4622SOL    HW318261   2.398   1.393   0.316 -1.2813  0.6614  0.0415
 4622SOL    MW418262   2.389   1.438   0.390  0.1928 -0.1826 -0.5357
 4623SOL     OW18263   6.199   4.866   2.330 -0.0641  0.2324  0.3650
 4623SOL    HW218264   6.166   4.953   2.308  1.3448  1.0992  1.5255
 4623SOL    HW318265   6.267   4.849   2.264 -1.4701 -0.7771 -0.9104
 4623SOL    MW418266   6.203   4.875   2.318  0.3166 -0.2510  0.6972
 4624SOL     OW18267   1.014   1.913   3.387 -0.9551  0.4822  0.1654
 4624SOL    HW218268   1.039   1.938   3.298  0.5129 -2.0111 -0.2026
 4624SOL    HW318269   1.033   1.991   3.440  1.5357  0.8840 -1.1653
 4624SOL    MW418270   1.020   1.927   3.382  0.0579  0.1432 -0.3270
 4625SOL     OW18271   0.772   4.751   4.369 -0.6161  0.6395  0.2972
 4625SOL    HW218272   0.767   4.842   4.401  0.9075  0.6545  0.5764
 4625SOL    HW318273   0.762   4.697   4.448  0.1182  0.6209  0.3919
 4625SOL    MW418274   0.770   4.756   4.384  0.3477  0.6844 -0.1619
 4626SOL     OW18275   0.329   3.624   3.484 -0.0131  0.1003  0.0143
 4626SOL    HW218276   0.280   3.700   3.453 -1.7183 -0.6933  0.5733
 4626SOL    HW318277   0.342   3.570   3.407 -0.3121  0.1836 -0.0968
 4626SOL    MW418278   0.324   3.627   3.470 -0.0024  0.3899  0.1973
 4627SOL     OW18279   0.637   3.357   6.438 -0.1775 -0.0122  0.2946
 4627SOL    HW218280   0.638   3.333   6.530  1.8309 -1.6020 -0.0841
 4627SOL    HW318281   0.651   3.274   6.391 -0.7547  0.8155 -1.4391
 4627SOL    MW418282   0.639   3.343   6.444  0.4987  0.3219  0.5122
 4628SOL     OW18283   2.528   2.976   1.532  0.0021 -0.1793  0.0001
 4628SOL    HW218284   2.593   3.002   1.597 -0.6623  0.5387  0.3971
 4628SOL    HW318285   2.575   2.917   1.473  0.7051 -0.5667  0.9287
 4628SOL    MW418286   2.543   2.971   1.533 -0.2035 -0.5642  0.0513
 4629SOL     OW18287   5.213   0.491   0.595 -0.0638 -0.3198  0.2160
 4629SOL    HW218288   5.185   0.507   0.505  0.4043  0.8145  0.2576
 4629SOL    HW318289   5.159   0.549   0.648  0.7153  0.1327  0.5196
 4629SOL    MW418290   5.202   0.501   0.590  0.2161  0.1524  0.7764
 4630SOL     OW18291   1.355   6.079   0.042  0.4075  0.3825  0.2395
 4630SOL    HW218292   1.292   6.103   0.110 -0.1592 -0.8108  0.1602
 4630SOL    HW318293   1.425   6.143   0.050 -1.3896  2.5951 -0.4927
 4630SOL    MW418294   1.356   6.091   0.052  0.5758  0.1382  0.2482
 4631SOL     OW18295   0.132   2.538   6.359 -0.3880  0.4047  0.2785
 4631SOL    HW218296   0.223   2.552   6.386 -0.1244 -1.3359  0.4145
 4631SOL    HW318297   0.127   2.574   6.270  0.3374  0.8412  0.4130
 4631SOL    MW418298   0.143   2.544   6.351 -0.1832 -0.0853 -0.1125
 4632SOL     OW18299   3.055   5.603   3.918  0.0427 -0.0715  0.0362
 4632SOL    HW218300   3.133   5.586   3.971  0.8403  0.1630 -1.0224
 4632SOL    HW318301   3.015   5.680   3.958  0.0248 -0.5417  0.9399
 4632SOL    MW418302   3.060   5.611   3.930  0.1087  0.1367 -0.0896
 4633SOL     OW18303   2.000   4.191   2.707 -0.4793 -0.2314  0.1351
 4633SOL    HW218304   2.073   4.177   2.648 -0.7287  0.0260 -0.2401
 4633SOL    HW318305   1.998   4.113   2.762  1.7382  0.9006  1.9765
 4633SOL    MW418306   2.009   4.179   2.707  0.2777 -0.5167 -0.4300
 4634SOL     OW18307   4.538   1.288   3.236  0.3480 -0.1538 -0.6430
 4634SOL    HW218308   4.466   1.316   3.292  0.4881 -0.8604 -0.0936
 4634SOL    HW318309   4.506   1.209   3.193  0.8639 -0.5846 -0.2424
 4634SOL    MW418310   4.524   1.281   3.237  0.0325 -0.0571 -0.2622
 4635SOL     OW18311   5.105   0.725   4.688  0.0408  0.0101  0.2102
 4635SOL    HW218312   5.024   0.674   4.684 -1.2531  1.8006  1.5979
 4635SOL    HW318313   5.170   0.666   4.726 -1.3101 -0.7521  1.4347
 4635SOL    MW418314   5.103   0.711   4.693  0.2419 -0.2588 -0.8309
 4636SOL     OW18315   0.586   2.786   6.405 -0.7141 -0.2969 -0.1586
 4636SOL    HW218316   0.550   2.833   6.330 -0.8332  0.4933  0.3792
 4636SOL    HW318317   0.598   2.696   6.374 -0.2169  0.1449 -1.3017
 4636SOL    MW418318   0.583   2.780   6.391  0.0605  0.3659 -0.1849
 4637SOL     OW18319   5.559   3.211   4.550  0.4280  0.5996  0.3662
 4637SOL    HW218320   5.565   3.271   4.476  1.3711  1.3867  1.0606
 4637SOL    HW318321   5.585   3.126   4.514 -3.7550 -0.1703 -1.3685
 4637SOL    MW418322   5.563   3.208   4.535 -0.4847  0.2157  0.3575
 4638SOL     OW18323   0.288   2.604   5.135  0.3670 -0.6548 -0.7906
 4638SOL    HW218324   0.379   2.628   5.152 -0.2817  1.5118  0.0078
 4638SOL    HW318325   0.241   2.687   5.136 -1.7252 -1.7675 -0.5316
 4638SOL    MW418326   0.294   2.618   5.138 -0.0814  0.1327  0.0874
 4639SOL     OW18327   3.433   2.476   2.931  0.7873  0.0625  0.2456
 4639SOL    HW218328   3.349   2.449   2.968  1.2874  0.5261  1.7940
 4639SOL    HW318329   3.421   2.569   2.910  0.3841 -0.2874 -1.1871
 4639SOL    MW418330   3.420   2.485   2.933  0.0618  0.3670  0.4109
 4640SOL     OW18331   2.835   1.899   4.355 -0.1525 -0.7898 -0.1495
 4640SOL    HW218332   2.773   1.903   4.428 -0.0082  0.1919 -0.0563
 4640SOL    HW318333   2.877   1.814   4.362  0.7845 -0.2178  1.6976
 4640SOL    MW418334   2.832   1.889   4.365 -0.4460  0.2236  0.1059
 4641SOL     OW18335   2.658   2.803   1.367 -0.1966 -0.2604 -0.1761
 4641SOL    HW218336   2.744   2.823   1.332 -0.2552  0.9571  0.3254
 4641SOL    HW318337   2.602   2.794   1.290  0.5345 -1.9775 -0.5466
 4641SOL    MW418338   2.662   2.804   1.353  0.3831 -0.1509 -0.0112
 4642SOL     OW18339   5.724   5.502   6.348  0.2884 -0.0039 -0.3342
 4642SOL    HW218340   5.680   5.536   6.270 -0.1495 -1.2579 -0.6483
 4642SOL    HW318341   5.765   5.579   6.387 -0.7272  0.8979 -0.9885
 4642SOL    MW418342   5.724   5.517   6.343  0.2481 -0.5477 -0.1711
 4643SOL     OW18343   0.251   0.267   0.544  0.3317 -0.7849  0.3001
 4643SOL    HW218344   0.342   0.239   0.557  0.5008 -1.8455 -2.5012
 4643SOL    HW318345   0.202   0.185   0.542  0.3131 -0.8967 -4.4899
 4643SOL    MW418346   0.257   0.252   0.546 -0.1905 -0.0375 -0.1258
 4644SOL     OW18347   0.384   1.997   0.967  0.5051 -0.0867 -0.7352
 4644SOL    HW218348   0.480   1.996   0.970  0.4877 -0.7736  0.9183
 4644SOL    HW318349   0.362   1.932   0.900  1.1932  0.1863 -1.2374
 4644SOL    MW418350   0.394   1.988   0.959  0.0587  0.2278  0.0230
 4645SOL     OW18351   5.611   3.025   0.800  0.0260 -0.1595  0.0443
 4645SOL    HW218352   5.606   2.931   0.781 -1.4182 -0.8986  3.4017
 4645SOL    HW318353   5.694   3.034   0.847  0.9348  0.6101 -1.6321
 4645SOL    MW418354   5.622   3.014   0.804  0.2444  0.0454  0.5464
 4646SOL     OW18355   0.690   1.920   5.441 -0.1546 -0.5823  0.0312
 4646SOL    HW218356   0.695   1.845   5.500  2.2206 -0.4439  0.0963
 4646SOL    HW318357   0.742   1.988   5.483  1.5424 -0.4388 -2.1170
 4646SOL    MW418358   0.698   1.919   5.454 -0.0311  0.2976  0.3351
 4647SOL     OW18359   2.170   1.518   3.553  0.3131 -0.1224 -0.2075
 4647SOL    HW218360   2.112   1.465   3.498  1.2344 -0.2814 -1.0503
 4647SOL    HW318361   2.231   1.559   3.491  0.2708  1.1080  0.5299
 4647SOL    MW418362   2.170   1.516   3.538  0.4896 -0.3619 -0.0530
 4648SOL     OW18363   3.774   3.845   2.260 -0.2715  0.3029 -0.0400
 4648SOL    HW218364   3.823   3.917   2.301  1.3500 -0.4601 -0.5649
 4648SOL    HW318365   3.805   3.843   2.170 -1.1335 -0.3476 -0.3353
 4648SOL    MW418366   3.784   3.854   2.254  0.0698  0.2614 -0.2833
 4649SOL     OW18367   4.347   0.426   5.540 -0.1153 -0.0769 -0.5123
 4649SOL    HW218368   4.395   0.417   5.457  0.2143  0.5746 -0.3941
 4649SOL    HW318369   4.260   0.455   5.514 -0.7864 -2.1891 -0.8037
 4649SOL    MW418370   4.342   0.428   5.525  0.0912 -0.5243  0.0562
 4650SOL     OW18371   5.606   1.797   4.087 -0.6940  0.0368  0.2787
 4650SOL    HW218372   5.514   1.806   4.111 -0.8961  2.6804 -1.0781
 4650SOL    HW318373   5.605   1.787   3.991  0.4093 -1.4302  0.3803
 4650SOL    MW418374   5.594   1.797   4.077 -0.2564 -0.0030  0.1642
 4651SOL     OW18375   0.682   6.287   5.935 -0.3835 -0.1513  0.5839
 4651SOL    HW218376   0.667   6.281   5.841  1.3177 -0.2815  0.2911
 4651SOL    HW318377   0.777   6.301   5.944 -0.6762  1.0745  2.2324
 4651SOL    MW418378   0.693   6.288   5.924  0.0997  0.3928 -0.2998
 4652SOL     OW18379   5.538   1.261   6.439  0.7374 -0.5119  0.1008
 4652SOL    HW218380   5.618   1.253   6.491  1.7858  1.0363 -1.1526
 4652SOL    HW318381   5.558   1.215   6.358 -0.7143 -2.5211  0.8318
 4652SOL    MW418382   5.551   1.254   6.435 -0.2050 -0.2541  0.0640
 4653SOL     OW18383   3.601   4.898   0.219 -0.0374 -0.3281  0.5191
 4653SOL    HW218384   3.572   4.897   0.311 -0.6980 -1.6821  0.3171
 4653SOL    HW318385   3.662   4.825   0.213  0.2122 -0.0743 -0.0761
 4653SOL    MW418386   3.605   4.889   0.231 -0.1373  0.4715 -0.1773
 4654SOL     OW18387   4.375   6.005   0.753 -0.5582  0.2358 -0.2488
 4654SOL    HW218388   4.280   6.018   0.749 -0.4905  0.8792  0.1341
 4654SOL    HW318389   4.398   5.967   0.668 -0.8874  1.8581 -1.1093
 4654SOL    MW418390   4.366   6.002   0.741 -0.0595 -0.0744 -0.3661
 4655SOL     OW18391   1.523   3.965   2.879 -0.2646 -0.3913  0.9956
 4655SOL    HW218392   1.512   3.885   2.930 -2.2139 -1.3740 -0.7944
 4655SOL    HW318393   1.559   3.935   2.795 -2.8826  0.2203 -0.4570
 4655SOL    MW418394   1.526   3.950   2.874  0.5231 -0.5827  0.0335
 4656SOL     OW18395   5.187   0.987   5.197 -0.2963 -0.3011 -0.1335
 4656SOL    HW218396   5.256   0.985   5.130  0.2737 -0.2527  0.4456
 4656SOL    HW318397   5.106   0.975   5.148  0.0278  0.7316 -0.9494
 4656SOL    MW418398   5.185   0.985   5.182  0.6167  0.2101  0.5733
 4657SOL     OW18399   5.220   2.846   0.413  0.1123  0.2295  0.3167
 4657SOL    HW218400   5.205   2.902   0.489  2.1912 -0.3770  1.2593
 4657SOL    HW318401   5.237   2.906   0.341  0.0783  0.8185  0.8000
 4657SOL    MW418402   5.220   2.861   0.413  0.9685  0.0900 -0.3976
 4658SOL     OW18403   6.113   4.218   4.069 -0.6462 -0.2078 -0.0477
 4658SOL    HW218404   6.201   4.233   4.104 -0.5256 -0.7240 -0.1226
 4658SOL    HW318405   6.104   4.280   3.997  0.3538 -1.3687 -1.2305
 4658SOL    MW418406   6.123   4.228   4.064  0.5077  0.1452  0.1610
 4659SOL     OW18407   5.657   5.073   1.657 -0.0128  0.6292 -0.7251
 4659SOL    HW218408   5.680   5.050   1.567  1.3032 -3.4276  0.4464
 4659SOL    HW318409   5.574   5.027   1.673  0.5389  0.0221  0.5353
 4659SOL    MW418410   5.649   5.064   1.647 -0.2117 -0.5751  0.3482
 4660SOL     OW18411   4.238   3.497   4.489  0.7970  0.1431  0.3805
 4660SOL    HW218412   4.313   3.437   4.491  0.1720 -0.6753  2.1435
 4660SOL    HW318413   4.168   3.447   4.448  0.1486 -0.5838  2.2431
 4660SOL    MW418414   4.238   3.483   4.484 -0.1551 -0.5799 -0.2071
 4661SOL     OW18415   0.709   6.028   5.994  0.4265  0.5485 -0.2708
 4661SOL    HW218416   0.766   5.998   5.923  0.7710  1.0315 -0.2029
 4661SOL    HW318417   0.708   6.123   5.985 -0.6187  0.5275 -0.4619
 4661SOL    MW418418   0.717   6.037   5.983 -0.6370  0.2216 -0.2000
 4662SOL     OW18419   5.827   5.898   3.238 -0.5444 -0.0303 -0.2039
 4662SOL    HW218420   5.796   5.953   3.166 -3.4116 -1.7992 -0.4826
 4662SOL    HW318421   5.767   5.918   3.310 -1.4438 -2.4029 -0.2103
 4662SOL    MW418422   5.815   5.908   3.238 -0.5390 -0.4387  0.1723
 4663SOL     OW18423   5.049   4.129   5.141 -0.1478  0.1266 -0.1859
 4663SOL    HW218424   5.091   4.202   5.096  0.1702 -0.6318 -1.1404
 4663SOL    HW318425   4.955   4.150   5.138 -0.1309  0.0846 -1.2054
 4663SOL    MW418426   5.042   4.141   5.135 -0.5445 -0.2818  0.3637
 4664SOL     OW18427   3.118   2.896   5.143  0.2216  1.0903  1.1939
 4664SOL    HW218428   3.129   2.809   5.181  2.0973 -0.0070 -1.4876
 4664SOL    HW318429   3.174   2.952   5.196  2.6531 -0.3483  0.3662
 4664SOL    MW418430   3.127   2.892   5.155 -0.1410  0.5147 -0.3648
 4665SOL     OW18431   1.305   6.053   0.667 -0.0493  0.1311  0.0667
 4665SOL    HW218432   1.320   5.983   0.731  2.2934  1.1823  0.7573
 4665SOL    HW318433   1.219   6.089   0.690 -0.0866 -0.7417  1.4088
 4665SOL    MW418434   1.295   6.048   0.678 -0.5009  0.3158  0.5858
 4666SOL     OW18435   0.695   4.577   1.502  0.7702  0.7054  0.4646
 4666SOL    HW218436   0.638   4.645   1.466 -0.2022  0.3412  1.2707
 4666SOL    HW318437   0.700   4.597   1.595 -2.2588 -2.1107  1.4353
 4666SOL    MW418438   0.688   4.589   1.509 -0.0353 -0.1602 -0.1528
 4667SOL     OW18439   5.915   5.485   4.372 -1.1699 -0.7610 -0.3800
 4667SOL    HW218440   5.974   5.540   4.424 -2.5497  0.4785 -0.0607
 4667SOL    HW318441   5.967   5.408   4.349  0.5428  0.2845 -0.1001
 4667SOL    MW418442   5.929   5.482   4.376 -0.1467  0.2691  0.2688
 4668SOL     OW18443   5.574   3.412   6.431 -0.4926  0.2878 -0.3623
 4668SOL    HW218444   5.658   3.367   6.443  0.4608  2.4359  1.7137
 4668SOL    HW318445   5.587   3.465   6.353 -0.0484  0.3103 -0.2804
 4668SOL    MW418446   5.587   3.413   6.423  0.2812  0.2433  0.2817
 4669SOL     OW18447   5.644   5.663   1.645  0.1671 -0.1140  0.2494
 4669SOL    HW218448   5.718   5.604   1.657 -1.2852 -2.1927 -0.4965
 4669SOL    HW318449   5.666   5.715   1.568  0.3490 -1.5859 -0.7279
 4669SOL    MW418450   5.657   5.662   1.636 -0.3322 -0.0114  0.2542
 4670SOL     OW18451   4.029   2.508   0.042  0.1226 -0.5709  0.3413
 4670SOL    HW218452   3.947   2.485   0.086 -0.8868 -0.2998 -1.2923
 4670SOL    HW318453   4.060   2.425   0.005 -1.6116 -0.1060 -2.4656
 4670SOL    MW418454   4.022   2.494   0.043 -0.5865 -0.1553 -0.3911
 4671SOL     OW18455   3.288   5.119   2.907 -0.2742 -0.2010  0.3407
 4671SOL    HW218456   3.210   5.123   2.963 -0.5712 -1.6557  0.0859
 4671SOL    HW318457   3.354   5.076   2.962  0.0341  0.0955  0.2045
 4671SOL    MW418458   3.286   5.114   2.922 -0.2327 -0.1918  0.2534
 4672SOL     OW18459   0.390   4.315   2.636  0.0022 -0.1639  0.2606
 4672SOL    HW218460   0.315   4.345   2.584  0.6022 -0.2127 -0.6410
 4672SOL    HW318461   0.395   4.378   2.708 -0.1658  0.5517 -0.3400
 4672SOL    MW418462   0.381   4.327   2.639 -0.5613  0.2612  0.0419
 4673SOL     OW18463   3.261   2.251   5.786  0.2121 -0.1781  0.0643
 4673SOL    HW218464   3.228   2.317   5.847 -1.0390  0.9555 -1.7301
 4673SOL    HW318465   3.231   2.167   5.823 -0.5958  0.4785  0.9575
 4673SOL    MW418466   3.252   2.248   5.799  0.7185 -0.0396 -0.5954
 4674SOL     OW18467   1.314   0.725   3.169 -0.0011  0.4532 -0.3569
 4674SOL    HW218468   1.409   0.738   3.168 -0.1095  1.4884  0.8228
 4674SOL    HW318469   1.298   0.661   3.099  1.4941  0.6654 -0.9302
 4674SOL    MW418470   1.325   0.718   3.159 -0.3475  0.4118  0.4383
 4675SOL     OW18471   5.926   6.376   0.095 -0.0910  0.1427 -0.4174
 4675SOL    HW218472   6.016   6.385   0.129 -0.0349 -0.2595 -0.4584
 4675SOL    HW318473   5.884   6.458   0.120  0.4213  0.5324 -0.8075
 4675SOL    MW418474   5.932   6.388   0.103  0.2528 -0.4529  0.6472
 4676SOL     OW18475   3.687   3.571   4.903 -0.2795 -0.0826 -0.2158
 4676SOL    HW218476   3.609   3.567   4.848  0.2688  1.6709 -1.1690
 4676SOL    HW318477   3.750   3.512   4.861 -0.9752 -1.3907  0.4772
 4676SOL    MW418478   3.685   3.562   4.890 -0.2871 -0.1050 -0.1033
 4677SOL     OW18479   5.369   4.414   5.240 -0.1293 -0.2159  0.5229
 4677SOL    HW218480   5.308   4.398   5.312  0.0297 -0.1285  0.6790
 4677SOL    HW318481   5.322   4.386   5.162 -0.3209 -0.2689  0.6564
 4677SOL    MW418482   5.355   4.408   5.239  0.0260  0.6382  0.3284
 4678SOL     OW18483   3.435   6.004   6.385  0.4050  0.1587  0.2462
 4678SOL    HW218484   3.443   6.083   6.331 -0.1649  0.3223  0.3925
 4678SOL    HW318485   3.404   5.936   6.325  0.6539  0.1094  0.1733
 4678SOL    MW418486   3.432   6.005   6.370 -0.3886  0.2300  0.8895
 4679SOL     OW18487   1.172   6.336   1.701 -0.3781 -0.7613 -0.3178
 4679SOL    HW218488   1.156   6.291   1.617 -1.5463  0.4719 -0.7896
 4679SOL    HW318489   1.100   6.309   1.757  0.2185 -1.3143  0.2004
 4679SOL    MW418490   1.161   6.327   1.697  0.1184  0.3804  0.4934
 4680SOL     OW18491   4.989   2.961   4.687 -0.1245  0.0340  0.1614
 4680SOL    HW218492   4.900   2.994   4.696 -0.2240 -0.3786  0.7380
 4680SOL    HW318493   5.040   3.012   4.750 -0.4164 -1.3879  1.6056
 4680SOL    MW418494   4.984   2.972   4.696 -0.0267 -0.8282 -0.3614
 4681SOL     OW18495   4.718   4.678   3.530 -0.6745  0.3429  0.0182
 4681SOL    HW218496   4.754   4.765   3.549 -1.3279  0.2553  1.8236
 4681SOL    HW318497   4.674   4.688   3.446  2.7002  0.6907 -1.8679
 4681SOL    MW418498   4.717   4.691   3.521 -0.1819  0.4106  0.4965
 4682SOL     OW18499   6.409   5.493   3.771  0.4995 -0.0665 -0.0641
 4682SOL    HW218500   6.410   5.548   3.692  1.0168  1.4071  0.9228
 4682SOL    HW318501   6.335   5.434   3.758 -0.4079  1.2047 -0.9720
 4682SOL    MW418502   6.400   5.492   3.759  0.1673 -0.0875  0.9530
 4683SOL     OW18503   1.404   2.590   5.323  0.4267  0.3786  0.2056
 4683SOL    HW218504   1.490   2.611   5.360  0.5202  0.9392 -0.3066
 4683SOL    HW318505   1.344   2.596   5.398  1.0969 -2.1904  1.0633
 4683SOL    MW418506   1.407   2.594   5.338 -0.0704 -0.3440 -0.6906
 4684SOL     OW18507   3.322   2.274   2.360 -0.0323  0.4749  0.3173
 4684SOL    HW218508   3.302   2.276   2.267  2.3326 -1.4608 -0.3532
 4684SOL    HW318509   3.267   2.342   2.399 -0.3200  2.0453 -2.6160
 4684SOL    MW418510   3.312   2.283   2.353 -0.2441  0.0201 -0.1333
 4685SOL     OW18511   5.480   6.180   0.416  0.4113  1.0192 -0.1390
 4685SOL    HW218512   5.420   6.110   0.440  0.5699  1.0522  0.3542
 4685SOL    HW318513   5.434   6.228   0.347 -0.0784  0.9789  0.1591
 4685SOL    MW418514   5.466   6.177   0.410 -0.1733  0.2963  0.0833
 4686SOL     OW18515   4.850   0.099   2.651 -0.6708  0.0045  0.3666
 4686SOL    HW218516   4.850   0.133   2.741 -2.3866  0.2225  0.3172
 4686SOL    HW318517   4.886   0.171   2.599  0.6163 -0.2301  0.8730
 4686SOL    MW418518   4.855   0.113   2.656  0.3173 -0.3330  0.3216
 4687SOL     OW18519   1.581   5.972   2.520 -0.2247  0.2256 -0.4353
 4687SOL    HW218520   1.670   6.007   2.528 -0.1323 -0.2976  1.0691
 4687SOL    HW318521   1.528   6.049   2.496  0.4700  0.7558 -0.3131
 4687SOL    MW418522   1.586   5.987   2.518 -0.0239 -0.3772 -0.9588
 4688SOL     OW18523   6.056   1.596   5.895  0.1954  0.1758  0.1991
 4688SOL    HW218524   6.000   1.565   5.824  0.5570  1.2290 -0.5771
 4688SOL    HW318525   6.046   1.691   5.894  0.5797  0.2420  1.2602
 4688SOL    MW418526   6.047   1.604   5.886 -0.1106  0.0068 -0.0058
 4689SOL     OW18527   4.633   4.917   1.845  0.3446 -0.2526  0.4478
 4689SOL    HW218528   4.678   4.850   1.794 -0.7066 -2.0895  1.7918
 4689SOL    HW318529   4.669   5.000   1.814 -0.7469 -1.1480 -3.7458
 4689SOL    MW418530   4.644   4.919   1.834  0.2626  0.0793  0.5355
 4690SOL     OW18531   2.551   2.643   4.915 -0.2017 -0.3569  0.1867
 4690SOL    HW218532   2.580   2.552   4.921  1.6509  0.2164  0.7790
 4690SOL    HW318533   2.455   2.638   4.911 -0.1137 -2.3456 -0.6542
 4690SOL    MW418534   2.542   2.631   4.915  0.0439  0.3745 -0.0501
 4691SOL     OW18535   2.568   5.538   0.593 -0.3044  0.4446 -0.0886
 4691SOL    HW218536   2.610   5.568   0.512 -0.6396 -2.1081 -1.3134
 4691SOL    HW318537   2.478   5.517   0.567 -1.0127  1.4423  1.4423
 4691SOL    MW418538   2.562   5.539   0.579 -0.1337 -0.7347  0.6317
 4692SOL     OW18539   0.814   0.873   4.487  0.4967  0.2722 -0.4570
 4692SOL    HW218540   0.720   0.855   4.490  0.4555  0.5451 -0.0699
 4692SOL    HW318541   0.820   0.968   4.478  0.7252  0.1609 -1.6964
 4692SOL    MW418542   0.802   0.883   4.486  0.7118  0.2758  0.1527
 4693SOL     OW18543   4.580   2.375   1.601  0.2567 -0.7166 -0.3164
 4693SOL    HW218544   4.508   2.321   1.631  2.2864 -3.0012  0.7751
 4693SOL    HW318545   4.608   2.424   1.678 -0.2250  0.3463 -0.7926
 4693SOL    MW418546   4.574   2.375   1.615  0.4938 -0.5562 -0.5998
 4694SOL     OW18547   0.409   5.117   3.501 -0.0847 -0.0267  0.2285
 4694SOL    HW218548   0.331   5.131   3.554 -0.4162 -1.0837  0.0410
 4694SOL    HW318549   0.388   5.155   3.416  0.2724  1.2525  0.6947
 4694SOL    MW418550   0.396   5.124   3.497 -0.7590  0.3251 -0.2217
 4695SOL     OW18551   5.598   5.369   2.315  0.5618  0.1994 -0.8202
 4695SOL    HW218552   5.643   5.294   2.353 -0.1300 -0.8885 -2.0690
 4695SOL    HW318553   5.510   5.337   2.296 -1.2084  2.5546  2.5285
 4695SOL    MW418554   5.592   5.355   2.317  0.2875  0.3988 -0.1297
 4696SOL     OW18555   4.946   3.273   3.519  0.1443  0.4027 -0.1195
 4696SOL    HW218556   4.951   3.365   3.545 -1.4984  0.7899 -0.9888
 4696SOL    HW318557   4.940   3.225   3.602  1.7126  0.9915  0.3638
 4696SOL    MW418558   4.946   3.279   3.534  0.2715  0.1027  0.4207
 4697SOL     OW18559   3.411   3.814   1.783 -0.3569  0.2539 -0.2034
 4697SOL    HW218560   3.323   3.838   1.812 -0.3620  0.0367 -0.0348
 4697SOL    HW318561   3.406   3.720   1.768 -0.0537  0.1717  0.1794
 4697SOL    MW418562   3.399   3.805   1.785 -0.4114  0.0082 -0.0026
 4698SOL     OW18563   5.315   3.030   4.122  0.4111 -0.4567  0.5562
 4698SOL    HW218564   5.272   3.100   4.172 -0.8318 -1.4723  0.9609
 4698SOL    HW318565   5.388   3.002   4.177  0.0349 -0.4623  1.0633
 4698SOL    MW418566   5.319   3.036   4.136  0.3540  0.0840 -0.1995
 4699SOL     OW18567   5.822   3.212   5.721  0.1174  0.5986  0.0881
 4699SOL    HW218568   5.872   3.181   5.797  1.2682  0.5165 -0.6778
 4699SOL    HW318569   5.759   3.142   5.704 -2.3045  1.8802  2.7767
 4699SOL    MW418570   5.820   3.198   5.729  0.1306 -0.7546 -0.5225
 4700SOL     OW18571   4.086   4.770   5.087 -0.4801  0.0241  0.1903
 4700SOL    HW218572   4.103   4.697   5.146  2.1510 -1.6748 -2.4216
 4700SOL    HW318573   4.020   4.736   5.026 -1.8571  1.1532  0.9737
 4700SOL    MW418574   4.079   4.756   5.087 -0.0764  0.1698  0.1634
 4701SOL     OW18575   4.421   5.391   3.958  0.0030 -0.1717  0.2437
 4701SOL    HW218576   4.507   5.386   3.998  0.1590  0.6051  0.0239
 4701SOL    HW318577   4.423   5.472   3.906 -1.0535  0.1889  0.7311
 4701SOL    MW418578   4.432   5.401   3.956  0.0564  0.2517 -0.6968
 4702SOL     OW18579   1.978   0.304   5.076 -0.4316  0.2037 -0.4495
 4702SOL    HW218580   2.002   0.356   5.153 -1.4742  1.6499 -1.0543
 4702SOL    HW318581   1.886   0.326   5.060 -0.4992 -0.7843 -1.5724
 4702SOL    MW418582   1.969   0.314   5.084 -0.0273  0.1367  0.1189
 4703SOL     OW18583   3.823   3.231   5.768  0.4367 -0.0048  0.3641
 4703SOL    HW218584   3.771   3.162   5.726  0.2506 -0.2683  1.0129
 4703SOL    HW318585   3.803   3.223   5.861 -1.0382  2.1091  0.3201
 4703SOL    MW418586   3.814   3.221   5.775 -0.2133 -0.4288 -0.0366
 4704SOL     OW18587   1.603   0.249   3.694 -0.6449  0.2178 -0.5250
 4704SOL    HW218588   1.596   0.343   3.675  0.3365  0.5316  0.5196
 4704SOL    HW318589   1.688   0.240   3.737 -1.3932 -0.9108  0.7957
 4704SOL    MW418590   1.614   0.260   3.697 -0.2160 -0.4328  0.2162
 4705SOL     OW18591   0.684   3.004   0.842  0.0194 -0.0589 -0.0955
 4705SOL    HW218592   0.604   3.007   0.894 -0.5266  0.3404 -0.9355
 4705SOL    HW318593   0.715   2.913   0.850 -0.8280 -0.3640 -0.2066
 4705SOL    MW418594   0.678   2.992   0.850  0.2272  0.3511  0.1097
 4706SOL     OW18595   5.659   0.720   6.387 -0.3691 -0.7594 -0.2129
 4706SOL    HW218596   5.580   0.704   6.439 -0.6388  1.6591  0.2347
 4706SOL    HW318597   5.729   0.724   6.452 -0.3864  0.2369 -0.2460
 4706SOL    MW418598   5.658   0.719   6.403 -0.4281  0.0023 -0.8944
 4707SOL     OW18599   2.976   2.891   4.577 -0.2798 -0.3287 -0.3418
 4707SOL    HW218600   3.071   2.880   4.582 -0.3460 -0.8365 -0.1246
 4707SOL    HW318601   2.958   2.903   4.483 -0.1543 -1.8531 -0.5988
 4707SOL    MW418602   2.986   2.891   4.565  0.3066 -0.2758  0.4712
 4708SOL     OW18603   4.919   0.486   2.316 -0.3803 -0.0861  0.3031
 4708SOL    HW218604   4.893   0.493   2.408 -1.2425 -0.2701  0.0858
 4708SOL    HW318605   4.993   0.546   2.307 -2.8253  3.2124  0.1949
 4708SOL    MW418606   4.925   0.495   2.327 -0.7745  0.2311 -0.4094
 4709SOL     OW18607   2.736   3.771   3.054 -0.1823 -0.9090 -0.0476
 4709SOL    HW218608   2.796   3.747   2.983  0.4091 -1.4220  0.5998
 4709SOL    HW318609   2.650   3.745   3.023  0.1889 -2.0081 -0.2163
 4709SOL    MW418610   2.733   3.764   3.041 -0.0351 -0.6938  0.0589
 4710SOL     OW18611   3.376   3.224   1.063  0.6154 -0.3267 -0.3409
 4710SOL    HW218612   3.295   3.260   1.027  1.0007  0.0664 -0.8115
 4710SOL    HW318613   3.416   3.176   0.991  1.0504 -0.1043 -0.2502
 4710SOL    MW418614   3.370   3.222   1.049  0.0102  1.0531  0.4892
 4711SOL     OW18615   3.863   3.872   5.377  0.4155 -0.0166 -0.1461
 4711SOL    HW218616   3.849   3.786   5.338  0.3017  0.9420 -2.4049
 4711SOL    HW318617   3.821   3.933   5.316  0.9741  1.6849  1.0873
 4711SOL    MW418618   3.856   3.869   5.364 -0.7468 -0.4976  0.1360
 4712SOL     OW18619   4.211   0.261   4.021  0.4660 -0.5963  0.3459
 4712SOL    HW218620   4.215   0.300   3.934  0.1269 -1.1482  0.0792
 4712SOL    HW318621   4.294   0.287   4.062  0.8112 -0.6641 -0.2833
 4712SOL    MW418622   4.223   0.269   4.015  0.0531  0.3402  0.0635
 4713SOL     OW18623   1.422   3.295   5.258  0.1516 -0.3890 -0.4875
 4713SOL    HW218624   1.370   3.286   5.178 -0.1764 -1.1008 -0.2099
 4713SOL    HW318625   1.462   3.209   5.270  0.5539 -0.1551 -0.1241
 4713SOL    MW418626   1.420   3.282   5.249 -0.2817 -0.4098  0.6840
 4714SOL     OW18627   3.228   2.954   4.105  0.3368  0.4300 -0.4092
 4714SOL    HW218628   3.237   2.928   4.013 -0.0423 -1.0503 -0.0389
 4714SOL    HW318629   3.162   3.024   4.104  0.6324  0.7149 -1.2954
 4714SOL    MW418630   3.221   2.960   4.093  0.3074 -0.5386  0.1993
 4715SOL     OW18631   0.940   3.129   3.103 -0.2014 -0.0391 -0.3353
 4715SOL    HW218632   0.921   3.223   3.099 -0.2490  0.0568  1.3006
 4715SOL    HW318633   0.860   3.091   3.140  0.4292 -0.4848  0.5970
 4715SOL    MW418634   0.927   3.137   3.108 -0.1853  0.0304 -0.5551
 4716SOL     OW18635   1.668   0.152   5.626 -0.2834 -0.5486  0.3249
 4716SOL    HW218636   1.698   0.228   5.576  0.5954 -0.4309  1.0105
 4716SOL    HW318637   1.684   0.077   5.568  1.3420 -0.4884  0.6375
 4716SOL    MW418638   1.674   0.152   5.612  0.2011 -0.6223  0.2443
 4717SOL     OW18639   5.741   5.309   2.720  0.1006 -0.0510  0.0167
 4717SOL    HW218640   5.831   5.297   2.690 -0.1188  1.7281 -1.6215
 4717SOL    HW318641   5.694   5.342   2.643 -1.5821  0.5777  1.2274
 4717SOL    MW418642   5.746   5.312   2.706  0.4080  0.3551  0.2554
 4718SOL     OW18643   2.718   6.364   5.683 -0.1007  0.2192  0.1958
 4718SOL    HW218644   2.672   6.350   5.766 -1.3117 -1.4835 -0.7092
 4718SOL    HW318645   2.767   6.284   5.669  1.8052  1.3187  0.2507
 4718SOL    MW418646   2.718   6.352   5.692  0.2038 -0.5332 -0.3895
 4719SOL     OW18647   3.917   1.134   4.211 -0.0564 -0.1193  0.2394
 4719SOL    HW218648   3.908   1.041   4.190 -0.3704  0.4366 -2.5307
 4719SOL    HW318649   4.011   1.150   4.212  0.0087 -0.0531 -1.8394
 4719SOL    MW418650   3.928   1.124   4.208  1.0313 -0.1932  0.0292
 4720SOL     OW18651   2.538   3.041   3.567  0.1677  0.1217 -0.1568
 4720SOL    HW218652   2.550   3.136   3.561  1.1110  0.1474  1.4268
 4720SOL    HW318653   2.463   3.030   3.625  0.5070 -0.0977  0.2425
 4720SOL    MW418654   2.530   3.052   3.574 -0.0037  0.2805  0.4557
 4721SOL     OW18655   4.327   5.612   3.283 -0.2785 -0.3541  0.5930
 4721SOL    HW218656   4.383   5.620   3.206  0.0917  1.1161  0.9810
 4721SOL    HW318657   4.248   5.567   3.251  0.6925 -1.5962 -0.1686
 4721SOL    MW418658   4.324   5.607   3.269 -0.4955  0.2076  0.2060
 4722SOL     OW18659   3.619   3.643   1.064  0.0307 -0.2674 -0.1829
 4722SOL    HW218660   3.645   3.551   1.072  0.8311 -0.0936 -0.7199
 4722SOL    HW318661   3.525   3.643   1.086  0.0954 -1.1569  0.1295
 4722SOL    MW418662   3.610   3.631   1.068  0.4917 -0.1645 -0.1211
 4723SOL     OW18663   2.621   2.626   0.894 -0.2246  0.7436 -0.4566
 4723SOL    HW218664   2.529   2.601   0.881 -0.8487  2.4299  0.4405
 4723SOL    HW318665   2.668   2.542   0.898 -1.3103 -0.1235 -3.3675
 4723SOL    MW418666   2.615   2.612   0.893 -0.0700  0.0280 -0.2684
 4724SOL     OW18667   2.503   2.761   2.342  0.3651 -0.6528  0.1025
 4724SOL    HW218668   2.572   2.805   2.293  2.6227 -0.8476  2.8142
 4724SOL    HW318669   2.447   2.721   2.276  1.2311  1.8223 -2.3116
 4724SOL    MW418670   2.505   2.762   2.327 -0.0586  0.1663  0.7713
 4725SOL     OW18671   3.615   4.320   4.813 -0.0162 -0.0744  0.3160
 4725SOL    HW218672   3.701   4.320   4.855  0.5367  0.0879 -0.7682
 4725SOL    HW318673   3.582   4.409   4.828 -0.3249 -0.3414  1.3358
 4725SOL    MW418674   3.622   4.332   4.821 -0.4986  0.5595  0.2406
 4726SOL     OW18675   2.474   5.499   5.850 -0.1084  0.3291  0.0494
 4726SOL    HW218676   2.425   5.417   5.851  0.7859 -0.2424  2.1887
 4726SOL    HW318677   2.542   5.486   5.783 -0.5066 -0.3222 -0.2334
 4726SOL    MW418678   2.476   5.487   5.841  0.0305 -0.4407 -0.3344
 4727SOL     OW18679   0.147   0.115   4.690  0.5974  0.3236 -0.1638
 4727SOL    HW218680   0.231   0.143   4.726  0.4941  1.7893 -0.9704
 4727SOL    HW318681   0.161   0.025   4.663  1.7076  0.3381  0.3163
 4727SOL    MW418682   0.160   0.107   4.691 -0.0714 -0.3598  0.3410
 4728SOL     OW18683   2.846   0.619   6.241  0.2267 -0.1043 -0.2602
 4728SOL    HW218684   2.928   0.652   6.205  0.1801 -0.0672 -0.3299
 4728SOL    HW318685   2.778   0.663   6.192  0.1630 -0.7945 -0.8090
 4728SOL    MW418686   2.848   0.629   6.230  0.4105 -0.2253 -0.0035
 4729SOL     OW18687   4.866   1.145   0.136 -0.8695  0.2326 -0.3626
 4729SOL    HW218688   4.803   1.146   0.208  0.1120  1.3586  0.5135
 4729SOL    HW318689   4.948   1.117   0.176  0.0555  2.2892 -0.6806
 4729SOL    MW418690   4.868   1.141   0.151  0.2547  0.2030 -0.0750
 4730SOL     OW18691   2.966   4.404   3.773  0.1095  0.0589 -0.3115
 4730SOL    HW218692   2.971   4.369   3.684 -0.9998 -1.4951  0.1919
 4730SOL    HW318693   2.877   4.385   3.802  0.7556 -0.4618  1.5067
 4730SOL    MW418694   2.955   4.397   3.765 -0.0463  0.1970  0.4792
 4731SOL     OW18695   4.523   4.796   3.300 -0.1913 -0.6349 -0.2196
 4731SOL    HW218696   4.542   4.858   3.230 -0.8670  1.1222  1.0689
 4731SOL    HW318697   4.427   4.792   3.303 -0.1646 -1.1526  0.2246
 4731SOL    MW418698   4.513   4.804   3.291  0.0209  0.1816 -1.6413
 4732SOL     OW18699   5.109   0.862   4.228  0.1912 -0.1649  0.0536
 4732SOL    HW218700   5.083   0.946   4.264 -0.7462 -0.7249  0.7275
 4732SOL    HW318701   5.205   0.866   4.224  0.2172  0.5048  1.1384
 4732SOL    MW418702   5.118   0.874   4.232 -0.1498  0.5798 -0.2102
 4733SOL     OW18703   1.484   0.291   1.640 -0.3589 -0.1488  0.1243
 4733SOL    HW218704   1.447   0.284   1.552  0.7922  0.8698 -0.4741
 4733SOL    HW318705   1.413   0.264   1.699 -2.4241  2.6076 -0.8994
 4733SOL    MW418706   1.470   0.286   1.637 -0.0931 -0.4820 -0.6523
 4734SOL     OW18707   4.252   1.759   3.477  0.2684  0.0938 -0.1102
 4734SOL    HW218708   4.162   1.777   3.508  0.0033 -0.1544 -0.7315
 4734SOL    HW318709   4.272   1.672   3.512  0.1900  0.0585 -0.1537
 4734SOL    MW418710   4.242   1.750   3.486 -0.4369 -0.0337  0.4016
 4735SOL     OW18711   4.883   3.773   6.214 -0.0715  0.0769  0.0833
 4735SOL    HW218712   4.853   3.697   6.262  0.4814  1.1236  2.2088
 4735SOL    HW318713   4.826   3.845   6.243  2.5382  1.5052  2.0985
 4735SOL    MW418714   4.872   3.773   6.224  0.2913 -0.8072  0.6385
 4736SOL     OW18715   4.430   2.740   1.277  0.2189 -0.0334 -0.1170
 4736SOL    HW218716   4.399   2.830   1.277 -3.0671 -0.9654  2.3743
 4736SOL    HW318717   4.505   2.741   1.338 -1.1201  0.7237  1.6023
 4736SOL    MW418718   4.436   2.752   1.285  0.0514 -0.2135  0.1612
 4737SOL     OW18719   4.177   3.330   6.388  0.7648  0.4357  0.4776
 4737SOL    HW218720   4.105   3.312   6.448  2.1177 -0.3503  1.9409
 4737SOL    HW318721   4.229   3.396   6.433  0.7092  1.3663 -0.7912
 4737SOL    MW418722   4.174   3.336   6.402  0.0280 -0.0361 -0.0910
 4738SOL     OW18723   3.184   4.271   3.946  0.1637  0.0490 -0.6865
 4738SOL    HW218724   3.131   4.219   3.886 -0.1179  0.7743 -1.0751
 4738SOL    HW318725   3.170   4.362   3.918  0.7837  0.3222 -0.1304
 4738SOL    MW418726   3.175   4.276   3.934 -0.0003  0.0312  0.7474
 4739SOL     OW18727   4.019   5.290   2.252 -0.4438 -0.0238  0.1345
 4739SOL    HW218728   4.076   5.354   2.210  0.1370 -0.5068  0.1648
 4739SOL    HW318729   3.942   5.286   2.195  0.9808 -1.8239 -1.8480
 4739SOL    MW418730   4.017   5.298   2.239 -0.3711 -0.0022 -0.0276
 4740SOL     OW18731   2.672   4.471   1.484 -0.0967 -0.1016 -0.0872
 4740SOL    HW218732   2.591   4.461   1.433 -0.3948  0.5298  0.2542
 4740SOL    HW318733   2.678   4.564   1.503  0.8874 -0.0960 -0.3757
 4740SOL    MW418734   2.662   4.482   1.480 -0.0864  0.0557  0.1585
 4741SOL     OW18735   5.631   0.445   3.552  0.4619 -0.5593  0.3150
 4741SOL    HW218736   5.698   0.400   3.501  0.0769 -1.3217  0.4805
 4741SOL    HW318737   5.681   0.505   3.608  1.0418 -1.4392  0.7613
 4741SOL    MW418738   5.647   0.447   3.552  0.4334 -0.2339  0.2569
 4742SOL     OW18739   4.778   2.312   4.066 -1.2179  0.1075  0.3860
 4742SOL    HW218740   4.862   2.274   4.091 -1.4304  0.0729  1.0643
 4742SOL    HW318741   4.769   2.293   3.973 -1.0373 -0.9580  0.5810
 4742SOL    MW418742   4.788   2.305   4.057  0.7196  0.0977  0.4512
 4743SOL     OW18743   6.213   2.467   5.241  0.4880 -0.0878 -0.1561
 4743SOL    HW218744   6.153   2.541   5.244  0.1455 -0.3935  0.7000
 4743SOL    HW318745   6.218   2.444   5.148 -2.3189 -1.3384 -0.1078
 4743SOL    MW418746   6.206   2.473   5.229 -0.0629  0.1310 -0.1068
 4744SOL     OW18747   4.975   2.869   1.432 -0.2566  0.2697 -0.3806
 4744SOL    HW218748   4.921   2.938   1.393  0.3479  0.8653 -0.1747
 4744SOL    HW318749   4.966   2.882   1.526 -0.9982 -0.6161 -0.3072
 4744SOL    MW418750   4.966   2.879   1.439  0.4348 -0.0937 -0.3103
 4745SOL     OW18751   3.152   3.382   3.781  0.4638 -1.0614 -0.0299
 4745SOL    HW218752   3.217   3.317   3.755  1.8292  0.5653 -0.8690
 4745SOL    HW318753   3.076   3.364   3.726  1.8294 -0.2650 -2.3223
 4745SOL    MW418754   3.150   3.371   3.771 -0.1049  0.7778  0.1399
 4746SOL     OW18755   2.828   6.408   2.144 -0.1575 -0.5871  0.2516
 4746SOL    HW218756   2.847   6.357   2.065 -0.4426 -1.4993  0.7499
 4746SOL    HW318757   2.752   6.364   2.182 -1.4541  1.2132 -0.1527
 4746SOL    MW418758   2.821   6.395   2.139  0.0683 -0.2466  0.2541
 4747SOL     OW18759   4.894   4.719   3.196 -0.1626 -0.2595  0.1447
 4747SOL    HW218760   4.980   4.679   3.181  0.7322  0.8830  1.9817
 4747SOL    HW318761   4.887   4.787   3.128  0.9369  0.4613  0.7344
 4747SOL    MW418762   4.904   4.723   3.185 -0.1666  0.3628 -0.3789
 4748SOL     OW18763   1.871   5.734   0.422  0.6426  0.4980  0.2281
 4748SOL    HW218764   1.873   5.672   0.494  1.3966  0.2721  0.0256
 4748SOL    HW318765   1.943   5.794   0.440 -0.3588  1.6248  0.6705
 4748SOL    MW418766   1.881   5.734   0.434  0.4895 -0.5729  0.1086
 4749SOL     OW18767   1.975   0.993   4.463 -0.3460 -0.2151 -0.6413
 4749SOL    HW218768   2.070   0.999   4.455 -0.0954 -0.2754  1.7567
 4749SOL    HW318769   1.957   0.900   4.472 -0.5922 -0.1684 -0.6492
 4749SOL    MW418770   1.985   0.982   4.463  0.3692  0.3455  0.0264
 4750SOL     OW18771   4.481   2.279   6.210  0.2866 -0.0164  0.5406
 4750SOL    HW218772   4.493   2.343   6.280 -2.3484 -0.4115  1.4403
 4750SOL    HW318773   4.422   2.214   6.247  0.1925 -1.1549 -1.4977
 4750SOL    MW418774   4.475   2.279   6.224  0.6462  0.5377 -0.1236
 4751SOL     OW18775   6.029   0.616   1.179  0.6297 -0.0448  0.0686
 4751SOL    HW218776   5.968   0.635   1.251  0.1770  0.0692 -0.3406
 4751SOL    HW318777   6.105   0.577   1.222  0.3484 -0.0135  0.6065
 4751SOL    MW418778   6.031   0.613   1.194 -0.3065 -0.0078 -0.6928
 4752SOL     OW18779   4.869   3.072   0.548  0.3101 -0.3538  0.1103
 4752SOL    HW218780   4.902   2.995   0.595  3.3111  1.6719  1.6864
 4752SOL    HW318781   4.867   3.141   0.615 -0.7950  1.3187 -1.5597
 4752SOL    MW418782   4.873   3.071   0.563  0.0822  0.1633 -0.1751
 4753SOL     OW18783   1.003   4.745   5.667  0.2762 -0.2359 -0.1734
 4753SOL    HW218784   1.045   4.728   5.583 -1.2635 -0.0492 -1.0174
 4753SOL    HW318785   1.006   4.661   5.713  1.0578 -0.3589 -0.4457
 4753SOL    MW418786   1.009   4.732   5.662 -0.2604 -0.1641 -0.1611
 4754SOL     OW18787   5.591   3.861   4.487 -0.0578 -0.2757  0.2540
 4754SOL    HW218788   5.611   3.775   4.450 -1.1510 -0.5538  0.2664
 4754SOL    HW318789   5.528   3.899   4.426  2.8786  2.0027 -1.6667
 4754SOL    MW418790   5.585   3.855   4.474 -0.4536 -1.2522 -0.1486
 4755SOL     OW18791   0.137   3.985   0.619  0.3696  0.4605  0.1883
 4755SOL    HW218792   0.120   4.079   0.633 -0.2476  0.4744 -0.6226
 4755SOL    HW318793   0.051   3.946   0.605  0.6848 -0.1091 -0.2057
 4755SOL    MW418794   0.124   3.993   0.619 -0.3212 -0.0971 -0.5807
 4756SOL     OW18795   4.916   2.635   3.135  0.1023 -0.0870  0.4980
 4756SOL    HW218796   4.859   2.711   3.148 -1.5859 -1.1999 -0.0679
 4756SOL    HW318797   4.878   2.589   3.061  0.6025 -1.9105  1.3193
 4756SOL    MW418798   4.903   2.639   3.127 -0.0047  0.3073 -0.1189
 4757SOL     OW18799   4.054   3.421   2.988  0.1992 -0.1164 -0.1142
 4757SOL    HW218800   3.972   3.377   3.011  0.7507 -1.2078 -0.2168
 4757SOL    HW318801   4.046   3.440   2.895 -0.9548  2.0212  0.3372
 4757SOL    MW418802   4.042   3.418   2.979  0.5117 -0.0628 -0.3316
 4758SOL     OW18803   4.662   3.665   4.520  0.2593 -0.1872  0.0071
 4758SOL    HW218804   4.627   3.617   4.595 -0.6175  1.0270  0.4150
 4758SOL    HW318805   4.662   3.757   4.549  3.2176 -0.0147 -0.2109
 4758SOL    MW418806   4.658   3.671   4.534 -0.3448  0.0059  0.3474
 4759SOL     OW18807   5.721   4.449   5.346 -0.3394 -0.3117  0.1224
 4759SOL    HW218808   5.683   4.532   5.318 -1.0728 -1.0313 -1.1210
 4759SOL    HW318809   5.724   4.455   5.441 -0.3086  1.1664  0.0477
 4759SOL    MW418810   5.716   4.461   5.354  0.0697 -0.2185 -0.0561
 4760SOL     OW18811   2.563   5.578   3.239  0.3950 -0.3025  0.0554
 4760SOL    HW218812   2.477   5.536   3.240 -0.2059  0.7591 -2.2881
 4760SOL    HW318813   2.554   5.652   3.298  0.1153 -0.9060  0.7935
 4760SOL    MW418814   2.550   5.582   3.247 -0.2319 -0.2770  0.1120
 4761SOL     OW18815   5.359   5.184   2.306 -0.9914 -0.1051 -0.5078
 4761SOL    HW218816   5.316   5.231   2.378 -3.3621 -0.9695 -1.2815
 4761SOL    HW318817   5.369   5.095   2.338  0.5389  0.1098 -0.2672
 4761SOL    MW418818   5.355   5.179   2.320  0.3886  0.1294  0.3246
 4762SOL     OW18819   2.637   3.367   5.486 -0.2090  0.1560 -0.0054
 4762SOL    HW218820   2.679   3.285   5.512 -2.3159 -1.6501 -1.8881
 4762SOL    HW318821   2.568   3.381   5.550 -0.3131  0.0780 -0.1012
 4762SOL    MW418822   2.634   3.358   5.498 -0.0092  0.3849  0.3213
 4763SOL     OW18823   6.361   1.803   3.042 -0.7227 -0.0303  0.1931
 4763SOL    HW218824   6.298   1.828   3.110 -0.6183  0.3716  0.1464
 4763SOL    HW318825   6.317   1.734   2.993 -1.1061  0.2015  0.2027
 4763SOL    MW418826   6.347   1.797   3.045  0.3729 -0.2790 -0.0313
 4764SOL     OW18827   6.032   4.245   2.238 -0.0995 -0.0446  0.1323
 4764SOL    HW218828   6.078   4.316   2.283  1.0807 -0.5084 -0.3004
 4764SOL    HW318829   6.015   4.279   2.150  1.9949 -0.8439 -0.6484
 4764SOL    MW418830   6.036   4.259   2.233 -0.0031 -0.5102  0.6301
 4765SOL     OW18831   4.170   1.253   6.077  0.1054  0.0868  0.0667
 4765SOL    HW218832   4.185   1.309   6.153  2.5984  0.4098 -0.5554
 4765SOL    HW318833   4.238   1.185   6.084 -0.1658 -0.3720 -1.3900
 4765SOL    MW418834   4.181   1.252   6.088  0.2896  0.1329  0.0716
 4766SOL     OW18835   1.039   2.543   6.232 -0.1028 -0.2891 -0.4328
 4766SOL    HW218836   1.044   2.488   6.310  0.0299  1.1476  0.6088
 4766SOL    HW318837   0.960   2.513   6.187 -0.4009 -0.8951  0.4587
 4766SOL    MW418838   1.029   2.532   6.237  0.6268  0.2727 -0.0208
 4767SOL     OW18839   1.272   1.943   0.759  0.9069  0.3248 -0.3968
 4767SOL    HW218840   1.243   1.857   0.729  1.0011  0.6100 -1.3275
 4767SOL    HW318841   1.367   1.942   0.750  1.0464  0.0704  0.8517
 4767SOL    MW418842   1.280   1.932   0.754  0.5049  0.2454 -0.1953
 4768SOL     OW18843   6.226   5.401   4.894  0.3180  0.0000 -0.3158
 4768SOL    HW218844   6.155   5.381   4.954 -1.0817  1.5785 -1.3603
 4768SOL    HW318845   6.201   5.358   4.812  2.0759 -1.9179  0.0593
 4768SOL    MW418846   6.213   5.393   4.891 -0.3752 -0.0558  0.2401
 4769SOL     OW18847   5.688   1.921   4.614  0.2672 -0.1001 -0.2866
 4769SOL    HW218848   5.770   1.887   4.577  0.8387  1.7695 -0.8679
 4769SOL    HW318849   5.626   1.919   4.542 -0.0741 -1.0566  0.0216
 4769SOL    MW418850   5.691   1.916   4.600 -0.5498  0.4449  0.2161
 4770SOL     OW18851   3.025   5.702   4.481 -0.3373  0.1136  0.7141
 4770SOL    HW218852   3.095   5.691   4.417 -0.6663  2.9727 -0.2853
 4770SOL    HW318853   3.071   5.712   4.565  0.1981 -1.8020  0.6820
 4770SOL    MW418854   3.040   5.702   4.484  0.3694  0.2526 -0.8932
 4771SOL     OW18855   4.593   1.292   3.902 -0.1786  0.2534 -0.8546
 4771SOL    HW218856   4.557   1.376   3.927 -1.9238 -1.3675  2.8021
 4771SOL    HW318857   4.688   1.303   3.908 -0.4178  1.6224  0.9100
 4771SOL    MW418858   4.601   1.304   3.906  0.3580  0.5036 -0.7140
 4772SOL     OW18859   2.338   6.065   2.306 -0.4101 -0.0559  0.2378
 4772SOL    HW218860   2.399   6.125   2.350 -1.2468  1.7260 -0.9157
 4772SOL    HW318861   2.362   6.070   2.213 -0.9917 -0.9374  0.0272
 4772SOL    MW418862   2.349   6.074   2.299 -0.0665 -0.4001  0.0096
 4773SOL     OW18863   2.991   1.248   3.923  0.1425 -0.3380  0.4397
 4773SOL    HW218864   2.900   1.271   3.941  0.0798 -0.3712  0.1765
 4773SOL    HW318865   3.038   1.331   3.927  0.0264 -0.2577  0.1345
 4773SOL    MW418866   2.985   1.262   3.926  0.1113  0.1450 -0.1801
 4774SOL     OW18867   2.397   1.412   1.148  0.3421 -0.3233 -0.5506
 4774SOL    HW218868   2.360   1.497   1.127  1.3398  0.6474  1.3250
 4774SOL    HW318869   2.485   1.432   1.180 -0.3729 -1.6959  2.6627
 4774SOL    MW418870   2.404   1.426   1.149 -0.7731  0.1245  0.5456
 4775SOL     OW18871   5.635   6.122   3.057  0.5018  0.0057  0.6320
 4775SOL    HW218872   5.694   6.150   2.987 -0.5405  0.6226 -0.0262
 4775SOL    HW318873   5.638   6.192   3.121  1.3608 -0.5022  1.1663
 4775SOL    MW418874   5.643   6.135   3.056 -0.0767 -0.0494  0.2404
 4776SOL     OW18875   5.551   1.935   3.025  0.1178  0.0123  0.3188
 4776SOL    HW218876   5.525   1.944   2.933  0.9037 -0.2878  0.0553
 4776SOL    HW318877   5.469   1.942   3.074 -0.5563 -1.5794 -0.5078
 4776SOL    MW418878   5.537   1.937   3.019 -0.3909 -0.0850 -0.6647
 4777SOL     OW18879   0.634   1.578   1.138  0.9280 -0.4389 -0.6271
 4777SOL    HW218880   0.583   1.655   1.163 -0.9225 -1.3983 -1.2357
 4777SOL    HW318881   0.696   1.566   1.210  1.0616  1.4119 -0.3777
 4777SOL    MW418882   0.635   1.587   1.150  0.2141  0.5690 -0.4704
 4778SOL     OW18883   1.444   3.322   6.143 -0.0759  0.9466 -0.1587
 4778SOL    HW218884   1.516   3.355   6.090 -1.1181  0.6691 -1.8388
 4778SOL    HW318885   1.373   3.308   6.080 -1.6783  1.4334  1.4438
 4778SOL    MW418886   1.444   3.325   6.128  0.4727  0.4770 -0.0282
 4779SOL     OW18887   0.555   5.533   1.905  0.2995 -0.0301  0.0728
 4779SOL    HW218888   0.509   5.586   1.840  1.1686  2.2953  1.2359
 4779SOL    HW318889   0.489   5.472   1.937 -0.3504 -0.7022 -2.3775
 4779SOL    MW418890   0.540   5.532   1.901  0.2982  0.8271 -0.1418
 4780SOL     OW18891   1.190   1.363   3.877 -0.1284  0.1068  0.2644
 4780SOL    HW218892   1.138   1.283   3.876 -0.9629  0.6329  0.2059
 4780SOL    HW318893   1.272   1.338   3.919 -1.4061 -0.1640  2.8416
 4780SOL    MW418894   1.194   1.349   3.883 -0.7837  0.1972  0.2931
 4781SOL     OW18895   4.921   0.936   5.462 -0.4448  0.2888 -0.1147
 4781SOL    HW218896   4.853   0.897   5.516 -0.0587  0.4668  0.5048
 4781SOL    HW318897   4.955   0.863   5.410  0.4023 -0.2741  1.1701
 4781SOL    MW418898   4.917   0.921   5.462  0.1817 -0.2499  0.2764
 4782SOL     OW18899   0.876   2.602   3.290  0.3709 -0.4682  0.1424
 4782SOL    HW218900   0.916   2.519   3.317  0.7440 -0.4095 -0.2176
 4782SOL    HW318901   0.928   2.668   3.337 -0.4438 -0.4659  1.0746
 4782SOL    MW418902   0.888   2.600   3.300 -0.0291  0.3373  0.2271
 4783SOL     OW18903   1.831   0.235   2.896  0.2324 -0.6739 -0.0388
 4783SOL    HW218904   1.751   0.260   2.850  0.1607 -1.4109 -0.3195
 4783SOL    HW318905   1.837   0.298   2.968  0.2577  0.3976 -0.9416
 4783SOL    MW418906   1.821   0.247   2.900 -0.2979  0.6783  0.0754
 4784SOL     OW18907   3.983   0.732   2.333  0.2377 -0.1333  0.4484
 4784SOL    HW218908   3.942   0.651   2.363 -0.1290  0.3729  1.3579
 4784SOL    HW318909   3.943   0.800   2.387 -1.0034  0.9307 -1.7122
 4784SOL    MW418910   3.972   0.730   2.344 -0.3825 -0.1678  0.3008
 4785SOL     OW18911   3.343   2.846   1.175  0.0488  0.4815 -0.4855
 4785SOL    HW218912   3.337   2.929   1.223  0.7427  0.1712  0.1329
 4785SOL    HW318913   3.336   2.778   1.242 -0.1337  0.0334 -0.9513
 4785SOL    MW418914   3.341   2.848   1.190 -0.2769  0.4788  0.3893
 4786SOL     OW18915   0.267   3.888   3.356 -0.1996  0.2398  0.7002
 4786SOL    HW218916   0.228   3.921   3.275  1.1439  0.3771  0.0965
 4786SOL    HW318917   0.224   3.938   3.425  0.8410  2.3814 -0.1165
 4786SOL    MW418918   0.256   3.899   3.355 -0.1267 -0.8666 -0.8486
 4787SOL     OW18919   3.105   1.197   0.687 -0.7484  0.0047 -0.2621
 4787SOL    HW218920   3.021   1.184   0.643 -0.0143  0.3536 -1.8089
 4787SOL    HW318921   3.160   1.241   0.623  0.6039 -0.1353  0.7557
 4787SOL    MW418922   3.101   1.201   0.673  0.0982 -0.0897 -0.7743
 4788SOL     OW18923   3.441   3.068   2.321 -0.2310 -0.3751 -0.7779
 4788SOL    HW218924   3.394   3.092   2.241  0.8259 -0.8286 -1.5693
 4788SOL    HW318925   3.504   3.139   2.334 -1.3383  0.4183  0.4843
 4788SOL    MW418926   3.443   3.080   2.312  0.4880 -0.8865 -0.2085
 4789SOL     OW18927   2.092   2.093   5.177 -0.4181 -0.2307 -0.0110
 4789SOL    HW218928   2.129   2.013   5.141 -1.3476 -0.8917  0.4605
 4789SOL    HW318929   2.002   2.096   5.144 -0.5136  0.4234  0.2781
 4789SOL    MW418930   2.085   2.083   5.168  0.0772 -0.2381 -0.5055
 4790SOL     OW18931   5.841   3.352   3.148 -0.6450 -0.2201  0.9189
 4790SOL    HW218932   5.787   3.406   3.091 -1.0929 -1.4729  0.1201
 4790SOL    HW318933   5.916   3.408   3.170 -0.0847  0.0797 -1.4746
 4790SOL    MW418934   5.844   3.367   3.144  0.0515  0.6387  0.1955
 4791SOL     OW18935   6.195   2.731   0.108  0.0580  0.2174 -0.6150
 4791SOL    HW218936   6.145   2.714   0.188  2.6095  0.5553  1.1754
 4791SOL    HW318937   6.191   2.827   0.098 -1.5357  0.0618 -1.8517
 4791SOL    MW418938   6.188   2.742   0.117  0.4892 -0.4392  0.6757
 4792SOL     OW18939   1.670   3.961   2.639  0.0106 -0.3506  0.0874
 4792SOL    HW218940   1.693   4.053   2.625  0.2407 -0.3350  0.5666
 4792SOL    HW318941   1.747   3.923   2.682 -0.2963 -0.6401  0.3808
 4792SOL    MW418942   1.683   3.968   2.643  0.2569  0.2025  0.6576
 4793SOL     OW18943   1.301   3.125   2.454 -0.0118  0.0150 -0.0382
 4793SOL    HW218944   1.320   3.086   2.540 -1.6058 -0.2303  0.2250
 4793SOL    HW318945   1.271   3.214   2.474 -0.2555  0.0058 -0.3523
 4793SOL    MW418946   1.300   3.132   2.468 -0.6604  0.1145  0.5488
 4794SOL     OW18947   2.645   5.970   4.632 -0.4007 -0.1754 -0.3067
 4794SOL    HW218948   2.679   6.038   4.690  0.9348 -0.3481 -0.8380
 4794SOL    HW318949   2.565   6.006   4.596  0.2728  1.1017 -0.5584
 4794SOL    MW418950   2.639   5.984   4.635 -0.0582 -0.0530 -0.1271
 4795SOL     OW18951   4.651   4.494   1.475  0.2219  0.1636 -0.2140
 4795SOL    HW218952   4.573   4.515   1.528 -0.5164 -0.9215 -0.8170
 4795SOL    HW318953   4.656   4.398   1.478 -0.1545  0.0189 -2.5003
 4795SOL    MW418954   4.641   4.484   1.482 -0.1891  0.4246  0.5662
 4796SOL     OW18955   6.340   3.939   4.138 -0.5557 -0.1511 -0.7166
 4796SOL    HW218956   6.274   3.946   4.207 -0.0979 -0.3846 -0.2516
 4796SOL    HW318957   6.290   3.919   4.059 -1.0234 -0.5545 -0.3238
 4796SOL    MW418958   6.325   3.937   4.136 -0.4366  0.7394 -0.3133
 4797SOL     OW18959   5.210   2.538   0.834  0.7876  0.1825  0.1265
 4797SOL    HW218960   5.131   2.589   0.847  0.7044  0.3429 -0.8676
 4797SOL    HW318961   5.185   2.472   0.769  1.0622 -0.7341  0.9332
 4797SOL    MW418962   5.197   2.536   0.827  0.6069 -1.0410  0.3497
 4798SOL     OW18963   0.796   3.032   4.276  0.3706  0.1594 -0.6273
 4798SOL    HW218964   0.872   3.076   4.313 -2.9845  4.4868  2.0657
 4798SOL    HW318965   0.817   3.022   4.183  4.2055  0.7807 -0.0123
 4798SOL    MW418966   0.809   3.036   4.269 -0.1385 -0.0747 -0.2435
 4799SOL     OW18967   2.615   4.225   5.678  0.3084  0.0079  0.0526
 4799SOL    HW218968   2.575   4.279   5.610  0.6297  1.7121  1.1572
 4799SOL    HW318969   2.694   4.273   5.703 -0.5415  0.2107  2.6247
 4799SOL    MW418970   2.621   4.238   5.672 -0.1520  0.1709  0.1909
 4800SOL     OW18971   4.183   2.698   5.505 -0.6311  0.1708 -0.3033
 4800SOL    HW218972   4.246   2.682   5.435 -0.1615 -0.3486  0.2240
 4800SOL    HW318973   4.195   2.790   5.527 -1.0577  0.4404 -1.1677
 4800SOL    MW418974   4.193   2.708   5.499 -0.0013 -0.3135  0.0905
 4801SOL     OW18975   2.431   4.307   0.737  0.5403 -0.2483  0.2426
 4801SOL    HW218976   2.454   4.226   0.691 -0.5141 -0.7712  0.5994
 4801SOL    HW318977   2.364   4.347   0.683  0.7339  0.1643  0.3021
 4801SOL    MW418978   2.425   4.302   0.724 -0.1230 -0.3268 -0.5078
 4802SOL     OW18979   3.549   2.434   1.463 -0.4268 -0.6894 -0.3013
 4802SOL    HW218980   3.637   2.426   1.427 -0.2036  2.3790 -0.6832
 4802SOL    HW318981   3.555   2.396   1.551  1.0130 -1.3698 -0.6673
 4802SOL    MW418982   3.561   2.428   1.470 -0.0075 -0.2122 -0.3973
 4803SOL     OW18983   5.362   4.013   6.137 -0.5537 -0.6424  0.0402
 4803SOL    HW218984   5.457   4.002   6.135 -0.3144  1.1810 -1.3143
 4803SOL    HW318985   5.335   3.982   6.223  1.4536  0.1884  1.0183
 4803SOL    MW418986   5.371   4.007   6.148 -0.3038 -0.0412 -0.6275
 4804SOL     OW18987   5.774   5.070   0.531 -0.4388 -0.1515 -0.5190
 4804SOL    HW218988   5.818   5.121   0.599 -0.5704 -0.0091 -0.5396
 4804SOL    HW318989   5.770   4.981   0.567 -2.6894  0.3921  0.7551
 4804SOL    MW418990   5.779   5.065   0.545  0.4440  0.5307 -0.3491
 4805SOL     OW18991   1.326   2.185   0.352 -0.2599 -0.3774  0.6225
 4805SOL    HW218992   1.251   2.244   0.353  0.1998  0.2312  0.2197
 4805SOL    HW318993   1.369   2.200   0.436  1.2711  1.7747 -0.4387
 4805SOL    MW418994   1.322   2.195   0.363 -0.4556  0.3485 -0.6568
 4806SOL     OW18995   3.938   5.935   2.212 -0.0040 -0.1293  0.3735
 4806SOL    HW218996   4.011   5.997   2.222  0.3836 -0.1398 -1.7650
 4806SOL    HW318997   3.980   5.849   2.211  0.0498 -0.1214 -1.1279
 4806SOL    MW418998   3.953   5.932   2.213 -0.2715 -0.2363  0.3025
 4807SOL     OW18999   2.881   0.444   3.653 -0.0576  0.5072  0.3701
 4807SOL    HW219000   2.789   0.419   3.657  0.0522 -0.0086 -0.2031
 4807SOL    HW319001   2.906   0.457   3.745 -0.4324 -0.3708  0.6076
 4807SOL    MW419002   2.872   0.442   3.666 -0.0444 -0.4392  0.0572
 4808SOL     OW19003   3.039   0.965   1.779  0.4135 -0.1119  0.3035
 4808SOL    HW219004   2.966   0.907   1.801 -1.3773  2.0461  0.3547
 4808SOL    HW319005   3.049   0.955   1.684  0.3022 -0.6916  0.3487
 4808SOL    MW419006   3.031   0.956   1.769  0.5108  0.0107  0.2476
 4809SOL     OW19007   1.442   2.367   2.769 -0.1186 -0.3767  0.1953
 4809SOL    HW219008   1.422   2.457   2.741 -0.2112 -0.9270 -1.6125
 4809SOL    HW319009   1.372   2.346   2.831 -2.1500 -0.3844 -1.9817
 4809SOL    MW419010   1.430   2.376   2.774  0.3443 -0.1837 -0.2151
 4810SOL     OW19011   6.154   1.634   4.847  0.6212  0.1910 -0.0773
 4810SOL    HW219012   6.169   1.638   4.942 -2.0550  1.0545  0.3924
 4810SOL    HW319013   6.160   1.541   4.826 -1.0593 -0.3127  1.4299
 4810SOL    MW419014   6.157   1.622   4.857  0.1966 -0.4538  0.2386
 4811SOL     OW19015   4.973   4.708   5.336  0.8019  0.8076  0.1906
 4811SOL    HW219016   4.942   4.621   5.364  1.3883  0.7534  0.6982
 4811SOL    HW319017   4.895   4.764   5.342  0.0308  0.0161 -1.6063
 4811SOL    MW419018   4.958   4.704   5.341  0.3683 -0.4946  0.4983
 4812SOL     OW19019   3.109   0.394   3.493 -0.0826 -0.3069 -0.3110
 4812SOL    HW219020   3.118   0.470   3.437  0.2751 -0.6040 -0.6596
 4812SOL    HW319021   3.042   0.419   3.557 -0.0417  0.2555 -0.4872
 4812SOL    MW419022   3.101   0.407   3.494 -0.5825  0.6567  0.7904
 4813SOL     OW19023   1.150   5.580   0.418 -0.0810  0.3897 -0.0112
 4813SOL    HW219024   1.174   5.605   0.507 -0.8184 -1.1800  0.6610
 4813SOL    HW319025   1.176   5.488   0.411 -0.7738  0.2618 -1.1385
 4813SOL    MW419026   1.156   5.571   0.429  0.0263 -0.7766  0.0657
 4814SOL     OW19027   4.109   5.376   1.770  0.0791 -0.0635 -0.2956
 4814SOL    HW219028   4.069   5.289   1.768  1.2580 -0.6682  0.8837
 4814SOL    HW319029   4.189   5.367   1.718 -0.5721  0.7684 -1.4958
 4814SOL    MW419030   4.114   5.363   1.763 -0.0785  0.5204 -0.7906
 4815SOL     OW19031   0.828   4.122   2.861  0.5012 -0.1705 -0.0183
 4815SOL    HW219032   0.815   4.214   2.837 -1.7584 -0.5324 -0.4128
 4815SOL    HW319033   0.845   4.123   2.955 -1.1242  0.5903  0.3034
 4815SOL    MW419034   0.829   4.134   2.870  0.1101 -0.4593  0.0725
 4816SOL     OW19035   3.512   1.682   2.435  0.2946  0.2354 -0.0367
 4816SOL    HW219036   3.562   1.758   2.466  0.7524 -0.0206 -0.1270
 4816SOL    HW319037   3.580   1.619   2.409 -0.0704  0.5327 -1.8092
 4816SOL    MW419038   3.528   1.683   2.436 -0.3071  0.3061  0.1414
 4817SOL     OW19039   0.373   5.482   0.825 -0.3015 -0.1396 -0.2021
 4817SOL    HW219040   0.333   5.567   0.841 -1.8690 -0.9648  0.4343
 4817SOL    HW319041   0.424   5.495   0.745 -0.9702  1.2413 -0.4457
 4817SOL    MW419042   0.375   5.495   0.816  0.1776 -0.0698 -0.3809
 4818SOL     OW19043   0.895   0.567   4.861 -0.0768  0.3041  0.2547
 4818SOL    HW219044   0.959   0.502   4.832 -1.6235 -0.5474 -1.4353
 4818SOL    HW319045   0.876   0.618   4.783 -3.0248 -0.8660  0.0640
 4818SOL    MW419046   0.901   0.565   4.847 -0.0204  0.1824  0.1869
 4819SOL     OW19047   4.573   6.402   0.377 -0.4440  0.1255 -0.1824
 4819SOL    HW219048   4.488   6.413   0.334 -0.3773  1.6691  0.0416
 4819SOL    HW319049   4.624   6.477   0.349  1.0538 -1.0656 -0.7384
 4819SOL    MW419050   4.568   6.413   0.368  0.1302  0.0092  0.1696
 4820SOL     OW19051   3.361   1.802   3.816 -0.1556 -0.1656 -0.2891
 4820SOL    HW219052   3.349   1.864   3.887  0.6186 -0.9444  0.5539
 4820SOL    HW319053   3.456   1.792   3.809 -0.2371 -0.4213 -1.1474
 4820SOL    MW419054   3.372   1.809   3.824  0.6288 -0.5144 -0.0461
 4821SOL     OW19055   0.227   0.398   4.577  0.2566 -0.8100  0.4875
 4821SOL    HW219056   0.311   0.399   4.532  0.7856 -1.2157  1.4304
 4821SOL    HW319057   0.201   0.306   4.578 -0.8045 -0.5572 -0.8474
 4821SOL    MW419058   0.235   0.386   4.571  0.8668 -0.3223  0.9443
 4822SOL     OW19059   5.740   3.013   4.423 -0.0686 -0.4218 -0.1510
 4822SOL    HW219060   5.731   2.936   4.480 -0.3688 -0.9900 -0.9481
 4822SOL    HW319061   5.802   3.069   4.469 -1.2301 -0.2928  1.3595
 4822SOL    MW419062   5.747   3.010   4.437  0.1962 -0.0691  0.4395
 4823SOL     OW19063   0.332   1.520   4.946 -0.6261  0.0047 -0.2583
 4823SOL    HW219064   0.272   1.586   4.980  1.0628  1.3077  0.3408
 4823SOL    HW319065   0.397   1.570   4.895  0.5265 -1.2162 -0.0535
 4823SOL    MW419066   0.333   1.536   4.943  0.3376  0.2395  0.3801
 4824SOL     OW19067   4.661   0.093   5.613  0.0890 -0.1579 -0.1732
 4824SOL    HW219068   4.708   0.099   5.696  0.5506 -0.9673 -0.3559
 4824SOL    HW319069   4.725   0.053   5.553 -0.3911 -0.0118 -0.7875
 4824SOL    MW419070   4.676   0.088   5.616 -0.2411  0.1657  0.2594
 4825SOL     OW19071   1.464   4.599   5.345  0.1529 -0.7351 -0.2716
 4825SOL    HW219072   1.554   4.604   5.312  0.5065 -0.7327  0.6558
 4825SOL    HW319073   1.464   4.654   5.423 -0.7131 -0.5735 -0.3745
 4825SOL    MW419074   1.476   4.607   5.351 -0.3253 -0.3625 -0.1137
 4826SOL     OW19075   3.329   3.099   1.318 -0.0743 -0.2850  0.5560
 4826SOL    HW219076   3.407   3.116   1.371  0.0485  1.0437 -0.0127
 4826SOL    HW319077   3.344   3.148   1.237 -2.1509  1.2823  1.0421
 4826SOL    MW419078   3.341   3.107   1.314  0.3997 -0.7596  0.2830
 4827SOL     OW19079   3.097   1.740   1.124  0.2382  0.6476 -0.8755
 4827SOL    HW219080   3.142   1.787   1.053  1.5766  0.4105 -0.2215
 4827SOL    HW319081   3.133   1.652   1.121  0.3804  0.6572  0.1346
 4827SOL    MW419082   3.108   1.735   1.115 -0.2421 -0.5470 -0.1640
 4828SOL     OW19083   4.295   0.841   0.615  0.5476 -0.0184  0.1231
 4828SOL    HW219084   4.265   0.759   0.656  2.7444 -1.1601 -0.4134
 4828SOL    HW319085   4.226   0.861   0.551  0.7240 -2.4619 -0.9829
 4828SOL    MW419086   4.282   0.833   0.612  0.5487  0.3220  0.1031
 4829SOL     OW19087   1.742   1.154   6.454 -0.1710  0.5342  0.5920
 4829SOL    HW219088   1.830   1.140   6.420  0.9918  2.7790  2.4011
 4829SOL    HW319089   1.736   1.095   6.528  0.2838  1.1659  1.1488
 4829SOL    MW419090   1.753   1.144   6.459 -0.4890 -0.1935  0.0336
 4830SOL     OW19091   3.647   0.329   4.815 -0.6019  0.4998 -0.0050
 4830SOL    HW219092   3.656   0.345   4.909  2.0848 -0.7204  0.0488
 4830SOL    HW319093   3.658   0.415   4.775  0.6898  0.7015  0.7337
 4830SOL    MW419094   3.650   0.342   4.822  0.2773  0.3681  0.2156
 4831SOL     OW19095   1.315   5.145   5.616  0.0696 -0.5812  0.1647
 4831SOL    HW219096   1.280   5.063   5.652  2.1445 -1.6604 -0.1733
 4831SOL    HW319097   1.313   5.206   5.690  1.3430 -1.8489  1.2861
 4831SOL    MW419098   1.310   5.142   5.630 -0.1846  0.0735  0.4690
 4832SOL     OW19099   0.047   5.889   0.779  0.5088  0.3386 -0.6382
 4832SOL    HW219100  -0.048   5.878   0.773  0.7364 -1.4430 -1.7359
 4832SOL    HW319101   0.072   5.931   0.697  0.7890 -0.1446 -0.8015
 4832SOL    MW419102   0.038   5.893   0.768  0.4902 -0.3288  0.0327
 4833SOL     OW19103   5.886   2.616   2.598 -0.8013  0.3334 -0.4839
 4833SOL    HW219104   5.974   2.592   2.571 -0.1221 -1.2172  2.6820
 4833SOL    HW319105   5.829   2.581   2.529  0.8702 -1.4464 -1.0293
 4833SOL    MW419106   5.890   2.609   2.585  0.5554  0.3103 -0.2081
 4834SOL     OW19107   2.649   6.185   4.027  0.3594  0.1268 -0.0889
 4834SOL    HW219108   2.638   6.122   4.099  1.1161  1.3425  1.1434
 4834SOL    HW319109   2.571   6.241   4.032  1.0650  1.0794  0.7238
 4834SOL    MW419110   2.637   6.184   4.037 -0.0296 -0.3630  0.7315
 4835SOL     OW19111   2.209   3.578   3.030 -0.5239  0.0974  0.1636
 4835SOL    HW219112   2.157   3.648   2.991  0.4860  0.2507 -0.9691
 4835SOL    HW319113   2.300   3.602   3.012 -0.1436 -1.3594 -0.0261
 4835SOL    MW419114   2.214   3.590   3.023  0.1230  0.1527 -0.5421
 4836SOL     OW19115   6.004   0.085   0.806 -0.1312  0.6035  0.2497
 4836SOL    HW219116   6.093   0.091   0.770  0.3244  1.1431  1.3924
 4836SOL    HW319117   5.967   0.008   0.765  1.2967 -0.3253  0.6247
 4836SOL    MW419118   6.011   0.076   0.796  0.1865 -0.8108  0.0309
 4837SOL     OW19119   2.544   3.698   1.579 -0.5154  0.1762  0.1270
 4837SOL    HW219120   2.571   3.618   1.625  3.4091 -0.6052 -3.0397
 4837SOL    HW319121   2.509   3.754   1.648 -0.6897 -3.1118  2.9817
 4837SOL    MW419122   2.543   3.695   1.594  0.4616 -0.2100 -0.1798
 4838SOL     OW19123   5.172   3.490   0.630  0.0693 -0.3158 -0.1459
 4838SOL    HW219124   5.229   3.515   0.557 -0.8366 -1.3283 -1.2529
 4838SOL    HW319125   5.219   3.519   0.708  0.3548  2.2227 -1.1741
 4838SOL    MW419126   5.186   3.497   0.630  0.3130 -0.0863 -0.0333
 4839SOL     OW19127   0.220   3.956   0.247 -0.3447  0.0510 -0.8605
 4839SOL    HW219128   0.312   3.978   0.257 -0.4616  0.7279 -1.2300
 4839SOL    HW319129   0.212   3.869   0.287  0.3856  0.1164 -0.5510
 4839SOL    MW419130   0.231   3.947   0.254  0.5976 -0.0598  0.2757
 4840SOL     OW19131   4.275   0.216   5.970  0.4117 -0.3804  0.0014
 4840SOL    HW219132   4.303   0.240   5.882  3.3992 -0.4582  0.7974
 4840SOL    HW319133   4.247   0.125   5.964  0.7601 -0.4347 -0.8457
 4840SOL    MW419134   4.275   0.207   5.958 -0.0335  0.0982  0.1051
 4841SOL     OW19135   2.151   3.407   4.336  0.0184 -0.3425  0.5187
 4841SOL    HW219136   2.182   3.317   4.327  2.7798  0.5089  0.4597
 4841SOL    HW319137   2.188   3.453   4.261 -2.1866  0.6930 -0.0107
 4841SOL    MW419138   2.160   3.401   4.325 -0.2184  0.4201  0.4070
 4842SOL     OW19139   4.710   5.262   4.303 -0.2504  0.4689  0.0865
 4842SOL    HW219140   4.634   5.310   4.336 -1.1076 -0.5975 -0.3169
 4842SOL    HW319141   4.723   5.295   4.214  0.4924  1.4860  0.5485
 4842SOL    MW419142   4.702   5.273   4.296  0.4372 -0.0419 -0.4324
 4843SOL     OW19143   3.310   5.735   5.988  0.2920 -0.0951  0.5348
 4843SOL    HW219144   3.399   5.717   6.019  0.9206 -0.7249 -1.4696
 4843SOL    HW319145   3.306   5.694   5.902 -0.4906  3.5775 -1.3989
 4843SOL    MW419146   3.321   5.727   5.981  0.5767  0.1441  0.5321
 4844SOL     OW19147   0.952   2.725   1.093 -0.1570 -0.0013 -0.2098
 4844SOL    HW219148   0.976   2.809   1.133 -0.6023  0.4093 -0.7770
 4844SOL    HW319149   0.921   2.749   1.005  0.7696 -0.8822 -0.7895
 4844SOL    MW419150   0.951   2.739   1.087  0.1322 -0.2356  0.3881
 4845SOL     OW19151   2.228   4.334   5.599  0.5093 -0.3063  0.2547
 4845SOL    HW219152   2.265   4.331   5.511 -1.6045 -0.9772 -0.6822
 4845SOL    HW319153   2.277   4.268   5.648  1.0115 -0.6695 -0.7184
 4845SOL    MW419154   2.239   4.325   5.594 -0.2877  0.0916 -0.2734
 4846SOL     OW19155   5.925   3.524   1.640  0.3429  0.1979  0.7860
 4846SOL    HW219156   5.891   3.475   1.715  0.5135 -1.3479 -0.1051
 4846SOL    HW319157   5.883   3.484   1.564 -1.6440  3.2213  0.0985
 4846SOL    MW419158   5.915   3.512   1.640  0.0421  0.3207  0.0284
 4847SOL     OW19159   0.330   0.027   4.363 -0.2648  0.1291  0.2693
 4847SOL    HW219160   0.237   0.047   4.370 -0.2720  0.2320 -0.1160
 4847SOL    HW319161   0.336  -0.067   4.382 -0.5771 -0.1024 -0.7314
 4847SOL    MW419162   0.319   0.017   4.367  0.1131  0.0250 -0.1573
 4848SOL     OW19163   3.751   1.789   1.656 -0.2510 -0.2019  0.2610
 4848SOL    HW219164   3.755   1.774   1.750  2.0464  1.5806  0.5383
 4848SOL    HW319165   3.745   1.884   1.647 -2.7951 -0.4323 -1.4289
 4848SOL    MW419166   3.751   1.800   1.667 -0.6269 -0.5666  0.3698
 4849SOL     OW19167   5.352   3.921   0.999  0.0477  0.6472  0.5031
 4849SOL    HW219168   5.304   4.001   1.021  1.2116  1.7631 -0.8030
 4849SOL    HW319169   5.339   3.864   1.074 -2.4104  1.2920  0.6555
 4849SOL    MW419170   5.344   3.924   1.012 -0.0831 -0.5962 -0.1997
 4850SOL     OW19171   1.037   6.251   2.580  0.2297  0.4347  0.1769
 4850SOL    HW219172   1.108   6.260   2.643  0.8790 -1.3944 -0.2303
 4850SOL    HW319173   0.961   6.288   2.625  0.8899  0.0726  1.6605
 4850SOL    MW419174   1.036   6.257   2.595 -0.1265  0.0726 -0.1933
 4851SOL     OW19175   0.230   2.157   5.829  0.1544 -0.1020  0.7333
 4851SOL    HW219176   0.321   2.130   5.823  0.0619 -0.1345 -0.9161
 4851SOL    HW319177   0.180   2.076   5.824  0.0138  0.0018  0.3651
 4851SOL    MW419178   0.235   2.143   5.827 -0.7255 -0.0999  0.2965
 4852SOL     OW19179   4.907   5.293   4.706  0.2005 -0.0560  0.1881
 4852SOL    HW219180   4.870   5.225   4.651  0.6454  0.1716 -0.4034
 4852SOL    HW319181   4.869   5.278   4.793 -1.1920  0.1253 -0.3700
 4852SOL    MW419182   4.897   5.282   4.710 -0.0709 -0.2173  0.7885
 4853SOL     OW19183   1.784   1.265   4.356  0.7955 -0.2912 -0.7307
 4853SOL    HW219184   1.697   1.272   4.394  0.3535 -1.9268 -1.3482
 4853SOL    HW319185   1.814   1.177   4.380  1.8446 -0.1271 -1.3833
 4853SOL    MW419186   1.776   1.254   4.364 -0.3200  0.1805 -0.2739
 4854SOL     OW19187   5.974   4.126   3.023  0.2129  0.3153  0.2989
 4854SOL    HW219188   5.903   4.075   2.983  1.4282  0.6405 -2.4983
 4854SOL    HW319189   6.013   4.068   3.088 -1.8553 -0.2625  1.0978
 4854SOL    MW419190   5.970   4.112   3.026  0.3568 -0.4972  1.0489
 4855SOL     OW19191   1.053   4.636   4.278 -0.2751  0.2031  0.1782
 4855SOL    HW219192   0.966   4.674   4.290 -0.3133  0.5152 -0.9362
 4855SOL    HW319193   1.076   4.659   4.188  0.6849 -0.4393  0.2517
 4855SOL    MW419194   1.044   4.644   4.267 -0.2006 -0.1018 -0.3472
 4856SOL     OW19195   0.229   2.408   1.429 -0.7836  0.3322  0.3294
 4856SOL    HW219196   0.292   2.421   1.499 -1.6495  0.7185  1.0471
 4856SOL    HW319197   0.245   2.480   1.368 -1.2009  1.0120  1.0158
 4856SOL    MW419198   0.239   2.419   1.430 -0.3709 -0.5601  0.6741
 4857SOL     OW19199   0.232   0.517   5.525  0.1697 -0.5297 -0.2042
 4857SOL    HW219200   0.237   0.451   5.456 -0.1124 -1.7393  0.8966
 4857SOL    HW319201   0.138   0.523   5.546  0.4294 -1.7308  1.4905
 4857SOL    MW419202   0.220   0.509   5.518 -0.6183 -0.5614 -0.3028
 4858SOL     OW19203   5.168   3.214   1.341  0.2757 -0.0003  0.3408
 4858SOL    HW219204   5.230   3.144   1.364  1.2538  0.9499  0.6451
 4858SOL    HW319205   5.085   3.186   1.381  0.1160 -1.9485 -1.1616
 4858SOL    MW419206   5.165   3.201   1.349  0.2770  0.0349 -0.6304
 4859SOL     OW19207   6.256   4.965   1.935 -0.2228  0.3079 -0.2173
 4859SOL    HW219208   6.340   4.930   1.964 -0.8960 -0.6245  0.6950
 4859SOL    HW319209   6.276   5.053   1.903  1.3216 -0.4712 -1.4556
 4859SOL    MW419210   6.269   4.972   1.935  0.0974 -0.2804 -0.5104
 4860SOL     OW19211   5.084   5.937   5.821  0.1987  0.3612  0.5981
 4860SOL    HW219212   5.062   6.024   5.855  1.2452  0.6369  0.5758
 4860SOL    HW319213   5.179   5.931   5.826  0.4833  0.5525 -2.5954
 4860SOL    MW419214   5.093   5.948   5.826  0.2544 -0.0480 -0.2215
 4861SOL     OW19215   5.161   0.533   1.401  0.4792 -0.3107 -0.5024
 4861SOL    HW219216   5.145   0.592   1.475 -0.7230 -0.8697 -0.2922
 4861SOL    HW319217   5.252   0.550   1.376  1.2175 -0.7342  1.6714
 4861SOL    MW419218   5.171   0.543   1.407  0.2052 -0.4166  0.7013
 4862SOL     OW19219   2.259   1.720   3.726 -0.0759  0.0857 -0.1188
 4862SOL    HW219220   2.211   1.647   3.687  1.3404 -0.6021 -0.6345
 4862SOL    HW319221   2.350   1.704   3.703  0.2143  2.3916 -0.8540
 4862SOL    MW419222   2.265   1.708   3.718  0.0063  0.8876  0.1093
 4863SOL     OW19223   3.180   0.934   3.306  0.4636  0.4022 -0.0599
 4863SOL    HW219224   3.274   0.953   3.302  0.5245  0.3493  0.8356
 4863SOL    HW319225   3.147   0.997   3.371  0.0568 -0.2496  0.3683
 4863SOL    MW419226   3.188   0.945   3.314 -0.5806  0.4183  0.3646
 4864SOL     OW19227   5.725   1.893   2.483  0.5427 -0.7772  0.2177
 4864SOL    HW219228   5.809   1.881   2.439  0.5694 -1.9339  0.5431
 4864SOL    HW319229   5.732   1.840   2.563  0.0582  0.3249  1.0131
 4864SOL    MW419230   5.737   1.884   2.488  0.4742 -0.7146  0.1644
 4865SOL     OW19231   1.407   5.493   0.806  0.4531 -0.0299  0.2689
 4865SOL    HW219232   1.424   5.484   0.900  0.1514 -0.7968  0.2644
 4865SOL    HW319233   1.452   5.417   0.767  0.1222 -0.0180 -0.1406
 4865SOL    MW419234   1.415   5.482   0.813 -0.1304  0.0973 -0.2560
 4866SOL     OW19235   3.484   0.834   2.912 -0.3409  0.2248  0.1213
 4866SOL    HW219236   3.526   0.834   2.826  1.0992 -0.7860  0.7861
 4866SOL    HW319237   3.494   0.924   2.943  0.9961  0.1092  0.0857
 4866SOL    MW419238   3.491   0.846   2.905  0.0763  0.0853 -0.6220
 4867SOL     OW19239   4.823   3.051   1.263 -0.2983 -0.3376  0.0101
 4867SOL    HW219240   4.730   3.042   1.246 -0.4416  1.2107 -0.1758
 4867SOL    HW319241   4.863   3.058   1.176 -0.2894  1.2025  0.1113
 4867SOL    MW419242   4.816   3.051   1.249 -0.1425 -0.4430 -0.2435
 4868SOL     OW19243   5.575   6.029   2.355 -0.0351  1.1614 -0.3725
 4868SOL    HW219244   5.637   5.978   2.303  0.6391  3.4218 -1.9531
 4868SOL    HW319245   5.582   5.994   2.443  1.4322 -0.4620 -1.0881
 4868SOL    MW419246   5.584   6.017   2.360  0.1604 -0.2738 -0.0297
 4869SOL     OW19247   4.005   0.867   4.041  0.5006  0.7775 -0.2294
 4869SOL    HW219248   4.067   0.925   3.997  0.2504  1.4001  0.2269
 4869SOL    HW319249   4.047   0.846   4.125  0.2546  0.9038 -0.0755
 4869SOL    MW419250   4.019   0.872   4.047 -0.2124 -0.3483 -0.2667
 4870SOL     OW19251   0.972   4.651   2.594  0.4854  0.0043 -0.1004
 4870SOL    HW219252   1.031   4.582   2.624  1.0386 -1.0083 -3.1760
 4870SOL    HW319253   0.894   4.605   2.563 -0.6652  1.0923  1.0588
 4870SOL    MW419254   0.970   4.636   2.594 -0.6010 -0.0332 -0.3735
 4871SOL     OW19255   5.540   3.222   5.125 -0.2604  0.1870  0.3622
 4871SOL    HW219256   5.529   3.274   5.046 -1.0613 -1.1579 -0.4576
 4871SOL    HW319257   5.576   3.283   5.190  0.3520  1.3277 -1.0049
 4871SOL    MW419258   5.543   3.237   5.123  0.3543  0.4695  0.6026
 4872SOL     OW19259   1.524   1.923   2.810 -0.3079  0.1131 -0.1841
 4872SOL    HW219260   1.456   1.958   2.868 -0.4332 -1.5617  0.7290
 4872SOL    HW319261   1.605   1.935   2.859 -0.3195 -0.6017  0.0166
 4872SOL    MW419262   1.525   1.930   2.824 -0.7043  0.2376 -0.2284
 4873SOL     OW19263   4.309   5.228   1.573  0.0358  0.1237  0.2017
 4873SOL    HW219264   4.231   5.226   1.518 -0.0911  2.6573  0.1613
 4873SOL    HW319265   4.360   5.151   1.546 -1.8338 -0.8944 -0.6361
 4873SOL    MW419266   4.306   5.217   1.562  0.4733  0.3064  0.9109
 4874SOL     OW19267   1.849   6.409   0.297 -0.5332 -0.5607  0.1178
 4874SOL    HW219268   1.841   6.329   0.349  1.0017 -1.1296 -0.4383
 4874SOL    HW319269   1.941   6.411   0.272 -0.3595  1.8235  0.7613
 4874SOL    MW419270   1.860   6.398   0.300  0.6636 -0.0852 -0.7808
 4875SOL     OW19271   3.247   3.357   0.432 -0.6838 -0.0837  0.4691
 4875SOL    HW219272   3.265   3.451   0.437  1.3699 -0.5030  2.3842
 4875SOL    HW319273   3.219   3.333   0.521 -0.4592 -1.4076  0.2026
 4875SOL    MW419274   3.245   3.366   0.445  0.4514  0.0729 -0.0419
 4876SOL     OW19275   0.073   0.380   5.850  0.0399 -0.3117  0.0878
 4876SOL    HW219276   0.002   0.372   5.787 -1.5285 -0.6665  1.8439
 4876SOL    HW319277   0.075   0.474   5.872 -0.0600 -0.3407  0.2231
 4876SOL    MW419278   0.064   0.391   5.845 -0.0925 -0.1754 -0.2343
 4877SOL     OW19279   4.521   2.032   4.655  0.3107  0.4561 -0.5241
 4877SOL    HW219280   4.515   1.938   4.638  0.4289  0.4995 -0.8035
 4877SOL    HW319281   4.472   2.044   4.736  1.0660  0.0169  0.0066
 4877SOL    MW419282   4.514   2.021   4.663 -0.0544  0.3684  0.5193
 4878SOL     OW19283   4.727   5.341   2.619 -1.1290 -0.2200 -0.1322
 4878SOL    HW219284   4.670   5.314   2.547 -1.3966 -1.1573  0.4069
 4878SOL    HW319285   4.673   5.398   2.673 -0.7327  0.9946 -0.9937
 4878SOL    MW419286   4.712   5.345   2.616 -0.0320  0.2486 -0.1755
 4879SOL     OW19287   5.442   4.364   2.994 -0.1892 -0.3858 -0.1074
 4879SOL    HW219288   5.437   4.295   2.928 -2.2912  0.6507 -1.1417
 4879SOL    HW319289   5.385   4.333   3.065 -0.4010 -0.1238 -0.1623
 4879SOL    MW419290   5.434   4.351   2.995 -0.1771 -0.3168  0.3285
 4880SOL     OW19291   2.268   4.784   1.804 -0.2104  0.0336 -0.2911
 4880SOL    HW219292   2.310   4.752   1.724  0.6577  1.3643 -0.4101
 4880SOL    HW319293   2.338   4.783   1.869 -0.0941  1.7890 -0.3481
 4880SOL    MW419294   2.283   4.780   1.802 -0.1221 -0.2999  0.4241
 4881SOL     OW19295   1.109   1.886   4.044 -0.6189 -0.0475 -0.4188
 4881SOL    HW219296   1.016   1.870   4.059 -0.7039  1.4214  0.8695
 4881SOL    HW319297   1.111   1.940   3.965 -0.7862 -0.6706 -0.8608
 4881SOL    MW419298   1.097   1.891   4.035  0.2976  0.1890 -0.3782
 4882SOL     OW19299   0.740   0.765   1.433  0.4227  0.1126 -0.2394
 4882SOL    HW219300   0.663   0.722   1.470 -0.4038  2.1039  0.5556
 4882SOL    HW319301   0.808   0.698   1.432 -0.8473 -1.2405  0.6418
 4882SOL    MW419302   0.738   0.751   1.438 -0.1346  0.2344  0.0532
 4883SOL     OW19303   1.732   3.672   2.499  0.3966 -0.2824 -0.2881
 4883SOL    HW219304   1.742   3.595   2.443 -1.5651 -0.2303 -0.7814
 4883SOL    HW319305   1.811   3.724   2.483  1.3287 -1.7498 -0.6176
 4883SOL    MW419306   1.744   3.669   2.489 -0.3602 -0.3388  0.2929
 4884SOL     OW19307   4.840   2.025   2.422 -0.0185  0.2974  0.1447
 4884SOL    HW219308   4.877   2.016   2.510 -1.3083 -2.9343  0.4974
 4884SOL    HW319309   4.749   2.051   2.437 -0.5420 -1.2725 -0.0818
 4884SOL    MW419310   4.833   2.027   2.436  0.0710 -0.0669  0.1112
 4885SOL     OW19311   4.514   2.868   3.955  0.5003  0.1412  0.5193
 4885SOL    HW219312   4.437   2.823   3.920  1.0586 -0.1022 -0.4101
 4885SOL    HW319313   4.562   2.897   3.878  2.4292 -1.5068  1.0166
 4885SOL    MW419314   4.510   2.866   3.940  0.3814 -0.0717  0.0832
 4886SOL     OW19315   1.679   0.362   3.344  0.2127 -0.1788 -0.9967
 4886SOL    HW219316   1.588   0.354   3.317 -0.0389 -0.8541  0.0275
 4886SOL    HW319317   1.708   0.273   3.361  0.3117  0.1981  1.0510
 4886SOL    MW419318   1.671   0.349   3.343 -0.0169 -0.0065 -0.1586
 4887SOL     OW19319   5.864   1.399   5.769 -0.1207 -0.2835  0.1069
 4887SOL    HW219320   5.923   1.323   5.773 -0.6123 -0.6423  1.1468
 4887SOL    HW319321   5.820   1.399   5.855 -0.4416  0.9322 -0.0420
 4887SOL    MW419322   5.866   1.389   5.781 -0.2996 -0.3491 -0.1051
 4888SOL     OW19323   3.483   4.927   2.022 -0.4085 -0.3247  0.0122
 4888SOL    HW219324   3.431   5.002   1.991  0.6120 -0.2341 -1.5797
 4888SOL    HW319325   3.546   4.965   2.083  1.6526  0.5927 -2.5217
 4888SOL    MW419326   3.484   4.942   2.026  0.2546  0.0483  0.7460
 4889SOL     OW19327   4.043   0.649   2.086  0.0433 -0.5841  0.7940
 4889SOL    HW219328   4.001   0.679   2.166  0.3682  1.4825  0.2366
 4889SOL    HW319329   4.127   0.696   2.083  0.2914 -1.0575 -0.4733
 4889SOL    MW419330   4.049   0.659   2.096 -0.5509  0.1178  0.0935
 4890SOL     OW19331   3.903   3.506   1.343 -0.2775  0.3224  0.2212
 4890SOL    HW219332   3.911   3.416   1.311 -0.2515  0.6815 -0.8092
 4890SOL    HW319333   3.981   3.550   1.310 -0.4629  0.8152  0.4326
 4890SOL    MW419334   3.915   3.500   1.335 -0.1667  0.6035 -0.2510
 4891SOL     OW19335   1.181   5.318   4.298 -0.1207  0.6832  0.0162
 4891SOL    HW219336   1.259   5.373   4.295  1.4079 -1.3642 -0.4134
 4891SOL    HW319337   1.143   5.326   4.210  1.8787 -1.2213 -1.1456
 4891SOL    MW419338   1.186   5.326   4.286  0.0416 -0.0261  0.3831
 4892SOL     OW19339   5.623   1.223   4.514 -0.3122  0.2083 -0.5161
 4892SOL    HW219340   5.555   1.219   4.446  0.1259  0.4584 -0.9794
 4892SOL    HW319341   5.683   1.152   4.491  0.0762  0.5781 -0.6527
 4892SOL    MW419342   5.622   1.213   4.502  0.0932  0.3654 -0.3174
 4893SOL     OW19343   6.133   0.469   0.971  0.4224 -0.0602  0.0341
 4893SOL    HW219344   6.144   0.544   0.912 -0.6209 -0.7642 -1.1228
 4893SOL    HW319345   6.151   0.503   1.058 -0.3725  1.6272 -0.4294
 4893SOL    MW419346   6.137   0.483   0.974  0.5531  0.5808 -0.2204
 4894SOL     OW19347   0.300   5.474   5.382  0.0688 -0.2340  0.3261
 4894SOL    HW219348   0.302   5.423   5.301  1.1374  1.2270 -0.6156
 4894SOL    HW319349   0.207   5.487   5.400 -0.2270  1.0235 -1.7600
 4894SOL    MW419350   0.288   5.469   5.374 -0.9652 -0.2648 -0.1543
 4895SOL     OW19351   6.357   5.286   5.253  0.4490 -0.5310  0.0340
 4895SOL    HW219352   6.428   5.224   5.272  0.7001 -0.7278 -1.4013
 4895SOL    HW319353   6.283   5.254   5.304  1.0967 -0.9292  0.7546
 4895SOL    MW419354   6.357   5.273   5.262  0.0180 -0.0569 -0.5793
 4896SOL     OW19355   4.294   0.182   1.343  0.9788  0.4588  0.5126
 4896SOL    HW219356   4.320   0.231   1.421  1.1498 -0.1803  0.8657
 4896SOL    HW319357   4.222   0.126   1.373  2.4494 -1.3815  0.7775
 4896SOL    MW419358   4.288   0.181   1.357  0.3270 -0.0214 -0.2018
 4897SOL     OW19359   1.610   5.855   0.354  0.3720  0.1081 -0.1527
 4897SOL    HW219360   1.690   5.802   0.360  0.8264  0.7681 -0.2002
 4897SOL    HW319361   1.623   5.925   0.418  0.5864  1.1730 -1.3109
 4897SOL    MW419362   1.623   5.857   0.363  0.2448  0.1428  0.7380
 4898SOL     OW19363   0.242   0.821   0.716  0.9670  0.5141 -0.1899
 4898SOL    HW219364   0.305   0.756   0.684  0.9437  0.6240 -0.4615
 4898SOL    HW319365   0.239   0.887   0.647 -0.4326 -0.1373 -0.7962
 4898SOL    MW419366   0.250   0.821   0.702 -0.0646  0.6802  0.0239
 4899SOL     OW19367   0.661   3.590   3.983 -0.3039  0.6080 -0.2114
 4899SOL    HW219368   0.668   3.547   4.068 -0.9481  3.7508  1.5889
 4899SOL    HW319369   0.749   3.620   3.963  0.4171 -2.3241 -2.0807
 4899SOL    MW419370   0.673   3.588   3.991 -0.4608 -0.2222 -0.6306
 4900SOL     OW19371   2.092   0.515   2.823  0.3103 -0.8362 -0.2144
 4900SOL    HW219372   2.171   0.560   2.793 -0.2084 -0.4221 -0.9819
 4900SOL    HW319373   2.123   0.455   2.891  1.1646 -0.0724  0.0863
 4900SOL    MW419374   2.107   0.513   2.828  0.5365 -0.0387  0.4826
 4901SOL     OW19375   2.605   0.667   3.496  0.2252  0.2207  0.4291
 4901SOL    HW219376   2.588   0.586   3.448 -0.3299 -0.3899  1.6005
 4901SOL    HW319377   2.684   0.703   3.456 -1.5949  1.1450 -2.6888
 4901SOL    MW419378   2.613   0.661   3.485  0.3902 -0.0086  0.3328
 4902SOL     OW19379   1.262   5.791   3.888 -0.4800 -0.0182  0.2768
 4902SOL    HW219380   1.265   5.864   3.950 -0.5956 -0.0012  0.2633
 4902SOL    HW319381   1.169   5.782   3.866 -0.1970  1.6566 -1.9176
 4902SOL    MW419382   1.250   5.799   3.894  0.1130 -0.0782 -0.3436
 4903SOL     OW19383   1.130   1.918   1.487  0.3025 -0.1690  0.1408
 4903SOL    HW219384   1.056   1.869   1.451  0.4011  0.6608 -1.2578
 4903SOL    HW319385   1.200   1.906   1.422  1.7993 -1.8103  1.9092
 4903SOL    MW419386   1.130   1.910   1.474  0.5129 -0.0202 -0.3400
 4904SOL     OW19387   5.422   2.971   5.060  0.1821 -0.4444  0.3296
 4904SOL    HW219388   5.473   2.950   4.982 -1.9422  0.5938 -1.4412
 4904SOL    HW319389   5.458   3.055   5.090 -0.5175  0.3438 -0.9696
 4904SOL    MW419390   5.434   2.980   5.054  0.3062  0.4280  0.2863
 4905SOL     OW19391   3.909   2.232   2.792  0.2164  0.5782  0.2797
 4905SOL    HW219392   4.000   2.204   2.800  0.4291  0.6264 -1.7039
 4905SOL    HW319393   3.874   2.182   2.719 -0.6895  2.1980 -0.4484
 4905SOL    MW419394   3.916   2.222   2.784 -0.5807  0.3533  0.2130
 4906SOL     OW19395   2.539   2.358   3.950 -0.2826 -0.3148  0.5582
 4906SOL    HW219396   2.587   2.391   3.874 -1.5520  0.2995 -0.0066
 4906SOL    HW319397   2.607   2.334   4.013  0.7791 -0.3828 -0.5759
 4906SOL    MW419398   2.554   2.359   3.948  0.5374 -0.1624  0.2709
 4907SOL     OW19399   0.283   5.356   3.219 -0.0829  0.2555  0.0834
 4907SOL    HW219400   0.235   5.367   3.301 -1.1411 -0.4682 -0.4218
 4907SOL    HW319401   0.359   5.414   3.228 -0.6552  0.8630  1.1964
 4907SOL    MW419402   0.287   5.365   3.231 -0.1739  0.4823  0.4825
 4908SOL     OW19403   5.241   2.923   1.388 -0.3433  0.3836  0.2284
 4908SOL    HW219404   5.148   2.901   1.393 -0.1757 -0.4836 -0.3751
 4908SOL    HW319405   5.265   2.908   1.297  0.6321 -0.4467  0.6034
 4908SOL    MW419406   5.232   2.918   1.377 -0.0610 -0.1697 -0.0340
 4909SOL     OW19407   0.587   5.890   0.058  0.1490 -0.2998 -0.7103
 4909SOL    HW219408   0.520   5.823   0.043 -0.0505 -0.1063 -0.6867
 4909SOL    HW319409   0.670   5.843   0.049  0.0220 -1.0042  1.3412
 4909SOL    MW419410   0.589   5.875   0.055  0.1635  0.4137  0.4540
 4910SOL     OW19411   4.511   0.566   1.804 -0.1345 -0.2495  0.5345
 4910SOL    HW219412   4.550   0.484   1.772  0.4195  0.9380 -2.0928
 4910SOL    HW319413   4.565   0.590   1.879  1.7393 -0.6846 -0.6003
 4910SOL    MW419414   4.524   0.558   1.810  0.0827 -0.2644  0.1950
 4911SOL     OW19415   6.096   3.918   5.644  0.0736 -0.1239 -1.0119
 4911SOL    HW219416   6.029   3.977   5.607 -1.8842 -2.2472 -1.0718
 4911SOL    HW319417   6.177   3.943   5.600 -0.4730  2.9647 -0.5218
 4911SOL    MW419418   6.098   3.929   5.633 -0.3516  0.6955  0.6294
 4912SOL     OW19419   1.631   5.680   4.690 -0.1843  0.0126  0.2316
 4912SOL    HW219420   1.716   5.720   4.675  0.6554 -2.5198 -2.8945
 4912SOL    HW319421   1.576   5.714   4.619 -0.3974 -1.7433 -0.4918
 4912SOL    MW419422   1.635   5.690   4.679 -0.2610  0.1194 -1.0414
 4913SOL     OW19423   0.751   5.436   1.045  0.1562 -0.5219  0.3266
 4913SOL    HW219424   0.847   5.431   1.046  0.1374 -1.8063 -1.2070
 4913SOL    HW319425   0.733   5.530   1.044  1.3093 -0.2039  2.5232
 4913SOL    MW419426   0.761   5.448   1.045 -0.2692 -0.1018 -0.1447
 4914SOL     OW19427   4.272   4.848   4.524  0.4299 -0.0736 -0.2778
 4914SOL    HW219428   4.367   4.857   4.514  0.3425  1.5054  0.1031
 4914SOL    HW319429   4.262   4.776   4.587  1.3953  0.1355  0.1451
 4914SOL    MW419430   4.283   4.840   4.531  0.0311 -0.7189  0.8058
 4915SOL     OW19431   3.438   1.226   3.735 -0.5601  0.0890  0.5676
 4915SOL    HW219432   3.427   1.312   3.775  1.7971  0.7476 -0.0057
 4915SOL    HW319433   3.467   1.245   3.645  0.2914 -1.2836  0.5194
 4915SOL    MW419434   3.441   1.240   3.728  0.4833  0.5824 -0.1547
 4916SOL     OW19435   1.826   2.613   3.445  0.0828 -0.5570  0.4065
 4916SOL    HW219436   1.899   2.622   3.383  1.1195 -2.3059  1.2996
 4916SOL    HW319437   1.772   2.543   3.408  0.1563 -0.8980  0.9300
 4916SOL    MW419438   1.829   2.605   3.432 -0.3301 -0.2264  0.4897
 4917SOL     OW19439   5.164   1.713   3.627  0.0598  0.6238  0.1884
 4917SOL    HW219440   5.156   1.750   3.715 -1.3770  3.4177 -0.9871
 4917SOL    HW319441   5.077   1.676   3.608  0.1541  0.6258 -0.2674
 4917SOL    MW419442   5.151   1.713   3.636  0.0390 -0.5122 -0.1572
 4918SOL     OW19443   5.979   5.878   5.418 -0.3448  0.1652  0.6287
 4918SOL    HW219444   6.017   5.818   5.354 -0.4457 -0.5715  1.2490
 4918SOL    HW319445   6.038   5.954   5.417 -0.8222  0.5696 -0.9635
 4918SOL    MW419446   5.991   5.880   5.409 -0.3802  0.2440  0.0728
 4919SOL     OW19447   5.642   3.988   6.031  0.1447 -0.2299 -0.2814
 4919SOL    HW219448   5.600   3.931   5.966 -0.1215 -1.1211  0.6266
 4919SOL    HW319449   5.718   3.937   6.061  0.0832  0.0229  0.3164
 4919SOL    MW419450   5.647   3.974   6.027  0.7716  0.6150 -0.3513
 4920SOL     OW19451   2.425   3.810   0.388 -0.4659 -0.0627 -0.0354
 4920SOL    HW219452   2.510   3.770   0.370  0.5166  1.7776  0.1752
 4920SOL    HW319453   2.435   3.900   0.357 -2.0806  0.4133  0.7436
 4920SOL    MW419454   2.438   3.817   0.381 -0.4423 -0.9476  0.2011
 4921SOL     OW19455   4.821   6.034   3.470  0.0824 -0.4802  0.9040
 4921SOL    HW219456   4.743   5.985   3.442 -0.8308  0.8946  0.9105
 4921SOL    HW319457   4.836   6.005   3.560  0.5933 -1.9659  0.3620
 4921SOL    MW419458   4.812   6.024   3.479 -0.6699  0.3898 -0.0885
 4922SOL     OW19459   1.940   0.286   4.057 -0.2020  0.2493  0.2270
 4922SOL    HW219460   1.885   0.253   3.985 -1.1830 -1.4566  1.6830
 4922SOL    HW319461   1.973   0.369   4.025  0.4807 -1.0302 -2.7400
 4922SOL    MW419462   1.937   0.292   4.043 -0.3936  0.1476 -0.0177
 4923SOL     OW19463   6.321   2.399   1.383 -0.1660 -0.1693  0.3155
 4923SOL    HW219464   6.412   2.368   1.391  0.0457  0.2780 -0.3068
 4923SOL    HW319465   6.303   2.393   1.289 -1.4830 -2.2314  0.6459
 4923SOL    MW419466   6.331   2.394   1.372  0.0708 -0.1937 -0.2633
 4924SOL     OW19467   2.693   0.752   6.080  0.2701  0.2704 -0.0232
 4924SOL    HW219468   2.702   0.847   6.086 -0.3348  0.4458 -1.6301
 4924SOL    HW319469   2.606   0.733   6.116  0.7280  0.2094  1.0968
 4924SOL    MW419470   2.683   0.762   6.086  0.2802  0.3092 -0.5240
 4925SOL     OW19471   2.342   0.077   2.411  0.1765  0.3246  0.1355
 4925SOL    HW219472   2.307   0.140   2.474  1.2881  1.5411 -0.4142
 4925SOL    HW319473   2.280   0.078   2.338 -0.7692 -0.5996  0.9102
 4925SOL    MW419474   2.329   0.085   2.410  0.0296 -0.0729  0.0214
 4926SOL     OW19475   5.153   5.283   0.630 -0.2432 -0.0685 -0.6374
 4926SOL    HW219476   5.206   5.361   0.611  0.1849 -0.7316 -2.4046
 4926SOL    HW319477   5.216   5.211   0.630 -0.5612 -0.3993  1.4747
 4926SOL    MW419478   5.168   5.284   0.627  0.3626  0.1464  0.3999
 4927SOL     OW19479   0.703   4.655   2.727  0.6450  0.9421  0.6362
 4927SOL    HW219480   0.700   4.741   2.686  1.2654  0.4490 -0.4904
 4927SOL    HW319481   0.717   4.673   2.820  0.9534  2.0527  0.3877
 4927SOL    MW419482   0.705   4.669   2.734  0.1171  0.2265  0.5142
 4928SOL     OW19483   2.841   2.613   3.010  0.7391  0.1366  0.1193
 4928SOL    HW219484   2.885   2.549   2.954  0.4889 -1.2600  1.4735
 4928SOL    HW319485   2.913   2.665   3.046  1.0889 -0.5007  0.3555
 4928SOL    MW419486   2.857   2.612   3.007 -0.0182  0.1255 -0.0040
 4929SOL     OW19487   3.002   1.265   6.268 -0.0713  0.3048  0.6456
 4929SOL    HW219488   2.977   1.181   6.231 -0.1025  0.4660  0.2882
 4929SOL    HW319489   3.010   1.250   6.362  0.1365 -0.1429  0.5546
 4929SOL    MW419490   2.999   1.252   6.275 -0.1994  0.3424  0.3188
 4930SOL     OW19491   5.080   0.010   0.187  0.4879  0.0952 -0.0946
 4930SOL    HW219492   5.087   0.041   0.097 -2.6175  0.2409 -0.4108
 4930SOL    HW319493   5.029  -0.071   0.181 -0.4750  0.5174  1.5495
 4930SOL    MW419494   5.074   0.003   0.174 -0.5467  0.4697 -0.3221
 4931SOL     OW19495   2.926   3.011   1.588  0.2113 -0.4020 -0.4034
 4931SOL    HW219496   2.963   2.994   1.501  0.1725 -0.8155 -0.3411
 4931SOL    HW319497   2.940   2.929   1.636  0.6057 -0.0391  0.1136
 4931SOL    MW419498   2.933   2.998   1.583 -0.1585 -0.3537  0.2079
 4932SOL     OW19499   2.362   3.287   3.308 -0.1360 -0.3104 -0.4962
 4932SOL    HW219500   2.435   3.340   3.276 -0.9027  1.5734  0.6469
 4932SOL    HW319501   2.371   3.288   3.403 -1.8419  0.3360 -0.2945
 4932SOL    MW419502   2.373   3.294   3.316 -0.5338  0.3784 -0.3492
 4933SOL     OW19503   5.632   2.789   4.012 -0.6847 -0.3287  0.4349
 4933SOL    HW219504   5.682   2.856   3.966  1.1417 -0.1077  2.5544
 4933SOL    HW319505   5.611   2.830   4.097 -1.0436 -1.8302  1.0946
 4933SOL    MW419506   5.636   2.804   4.017  0.2596  0.7081 -0.5018
 4934SOL     OW19507   0.190   0.323   2.770  0.1147  0.4709 -0.6646
 4934SOL    HW219508   0.218   0.252   2.713 -1.2135 -1.0539  0.4752
 4934SOL    HW319509   0.102   0.346   2.739 -0.6136 -0.3634  0.6887
 4934SOL    MW419510   0.182   0.317   2.759  0.4607  0.0514 -0.4701
 4935SOL     OW19511   3.657   6.065   2.159 -0.0514 -0.2755 -0.1470
 4935SOL    HW219512   3.563   6.079   2.147 -0.2163 -0.1088  1.1224
 4935SOL    HW319513   3.665   5.970   2.172  0.0198 -0.3477 -0.6931
 4935SOL    MW419514   3.646   6.054   2.159  0.4184  0.0440  0.6567
 4936SOL     OW19515   2.951   5.800   3.253 -0.4267  0.0543  0.3165
 4936SOL    HW219516   2.934   5.855   3.177  1.4606  0.4931  0.1428
 4936SOL    HW319517   2.882   5.822   3.316 -1.5834  0.2115 -0.9709
 4936SOL    MW419518   2.940   5.810   3.251 -0.5158 -0.6505  0.1391
 4937SOL     OW19519   3.131   2.861   1.893  0.3625 -0.1651 -0.0390
 4937SOL    HW219520   3.142   2.954   1.915  0.0997 -0.3029  0.7367
 4937SOL    HW319521   3.177   2.815   1.964  1.2056 -0.6240 -0.8654
 4937SOL    MW419522   3.139   2.867   1.905  0.4985 -0.0424 -0.2526
 4938SOL     OW19523   5.595   0.153   2.055 -0.7003 -0.3392 -0.2535
 4938SOL    HW219524   5.614   0.086   2.121 -1.0810  0.4716  0.7076
 4938SOL    HW319525   5.670   0.150   1.995  0.5328  0.0865  1.2097
 4938SOL    MW419526   5.607   0.144   2.056 -0.3110 -0.1250  0.0506
 4939SOL     OW19527   6.015   1.980   1.947  0.3214 -0.1736 -0.5749
 4939SOL    HW219528   6.090   2.037   1.930 -0.2356  0.3447 -1.4069
 4939SOL    HW319529   5.943   2.020   1.898 -0.7871 -0.0315  1.0681
 4939SOL    MW419530   6.016   1.993   1.938  0.3646 -0.0232  0.3445
 4940SOL     OW19531   4.647   4.424   5.747 -0.1260 -0.2452  0.6459
 4940SOL    HW219532   4.559   4.394   5.723  0.5302 -1.1317 -0.8229
 4940SOL    HW319533   4.646   4.430   5.842 -1.5687 -0.9062  0.6962
 4940SOL    MW419534   4.635   4.421   5.756 -0.0856 -0.0307 -0.9638
 4941SOL     OW19535   0.963   2.766   5.277 -0.2457 -0.2242 -0.1645
 4941SOL    HW219536   1.041   2.821   5.271 -0.9515  0.8595  0.3123
 4941SOL    HW319537   0.962   2.716   5.195  0.4421  0.4330 -0.5817
 4941SOL    MW419538   0.973   2.767   5.265 -0.0040 -0.3565 -0.2755
 4942SOL     OW19539   0.776   2.272   5.274 -0.1750  0.3347  0.4151
 4942SOL    HW219540   0.714   2.288   5.204  0.0032 -0.3849  0.0798
 4942SOL    HW319541   0.728   2.295   5.354 -0.2577  1.4898  0.0451
 4942SOL    MW419542   0.761   2.277   5.276 -0.2309 -0.6273 -0.7596
 4943SOL     OW19543   1.985   5.865   2.357  0.5415 -0.2765  0.3251
 4943SOL    HW219544   2.071   5.832   2.384 -0.2345 -0.5235  2.7315
 4943SOL    HW319545   1.932   5.787   2.345 -0.0923 -0.0958  1.7156
 4943SOL    MW419546   1.990   5.851   2.359 -0.1362 -0.1717  0.2402
 4944SOL     OW19547   4.942   2.179   4.508  0.1110 -0.0728 -0.5390
 4944SOL    HW219548   4.935   2.230   4.589 -1.1690  0.5357 -1.0134
 4944SOL    HW319549   5.018   2.121   4.523  2.0781  2.4184 -0.2517
 4944SOL    MW419550   4.951   2.178   4.521  0.1459  0.1131  0.7032
 4945SOL     OW19551   0.032   2.015   5.431 -0.3447 -0.7085  0.0635
 4945SOL    HW219552   0.062   1.931   5.396 -2.4386 -1.6770  0.4768
 4945SOL    HW319553  -0.015   2.056   5.358 -1.7485 -1.1956  0.6621
 4945SOL    MW419554   0.030   2.009   5.417 -0.0394  0.0107 -0.3595
 4946SOL     OW19555   2.595   1.884   6.017  0.4851 -0.0631  0.1551
 4946SOL    HW219556   2.564   1.875   6.107  1.7722  1.4080  0.7971
 4946SOL    HW319557   2.593   1.979   6.001  0.4244 -0.2911 -1.3100
 4946SOL    MW419558   2.591   1.896   6.027 -0.4823 -0.2674 -0.1551
 4947SOL     OW19559   1.062   5.247   4.060 -0.1088  0.1295 -0.3407
 4947SOL    HW219560   1.007   5.174   4.089  1.6541 -0.4014  1.9338
 4947SOL    HW319561   1.136   5.205   4.016  1.3164  0.4208  1.6681
 4947SOL    MW419562   1.065   5.232   4.058 -0.5648  0.1392 -0.8182
 4948SOL     OW19563   2.807   4.132   6.219 -0.1299 -0.7434  0.6965
 4948SOL    HW219564   2.825   4.039   6.233  0.4175 -0.7622 -0.0572
 4948SOL    HW319565   2.713   4.140   6.229 -0.0746 -1.2100  1.6992
 4948SOL    MW419566   2.797   4.121   6.222 -0.1053  0.1443  0.3774
 4949SOL     OW19567   3.805   4.845   1.310 -0.6097  0.1236  0.3314
 4949SOL    HW219568   3.784   4.753   1.299 -1.0367  0.3005 -0.3544
 4949SOL    HW319569   3.767   4.889   1.234  0.7553  0.6868 -0.0570
 4949SOL    MW419570   3.797   4.839   1.299 -0.2100  0.4188 -0.1885
 4950SOL     OW19571   5.076   4.677   2.300 -0.0344  0.0692 -0.3209
 4950SOL    HW219572   4.985   4.685   2.330  0.7504  0.6548  2.1563
 4950SOL    HW319573   5.093   4.583   2.300 -0.5632 -0.0346 -0.6374
 4950SOL    MW419574   5.066   4.665   2.304  0.9848  0.7970  0.1233
 4951SOL     OW19575   1.128   5.035   4.383 -0.4110 -0.6279 -0.1240
 4951SOL    HW219576   1.036   5.021   4.408 -0.6732 -1.2216 -1.3862
 4951SOL    HW319577   1.137   5.131   4.381 -0.8205 -0.5603  0.6095
 4951SOL    MW419578   1.117   5.046   4.386 -0.0177  0.0089  0.1717
 4952SOL     OW19579   2.786   6.392   5.036 -0.6316 -0.7274  0.4228
 4952SOL    HW219580   2.698   6.392   5.074 -1.0612 -1.0556 -0.5323
 4952SOL    HW319581   2.845   6.406   5.111 -1.3407 -2.8209  1.4320
 4952SOL    MW419582   2.782   6.394   5.051 -0.3601 -0.1727  0.3178
 4953SOL     OW19583   1.623   0.148   0.251 -0.2930  0.7206  0.3861
 4953SOL    HW219584   1.700   0.091   0.251 -0.5596  0.3104  1.7347
 4953SOL    HW319585   1.579   0.130   0.168 -1.2353 -2.2871  1.3861
 4953SOL    MW419586   1.627   0.138   0.240  0.4365 -0.0213  0.5038
 4954SOL     OW19587   3.901   3.596   5.348  0.2676 -0.0751 -0.4508
 4954SOL    HW219588   3.970   3.576   5.284 -0.4931 -2.5946 -0.5771
 4954SOL    HW319589   3.939   3.572   5.433  0.0924  0.0902 -0.3237
 4954SOL    MW419590   3.915   3.590   5.351 -0.1151  0.6685 -0.0687
 4955SOL     OW19591   2.367   0.391   2.077  0.3988  0.1479  0.0592
 4955SOL    HW219592   2.414   0.388   2.160 -0.2944 -0.6000  0.4316
 4955SOL    HW319593   2.274   0.392   2.101  0.0984 -2.4186 -0.7087
 4955SOL    MW419594   2.361   0.391   2.091 -0.0772  0.2151  0.4104
 4956SOL     OW19595   0.291   3.870   2.484 -0.0303  0.2517  0.3063
 4956SOL    HW219596   0.261   3.932   2.550 -0.5496  0.8481 -0.4672
 4956SOL    HW319597   0.385   3.859   2.501 -0.2882 -0.1072  1.5352
 4956SOL    MW419598   0.300   3.877   2.495 -0.6218  0.5078  0.1223
 4957SOL     OW19599   6.010   2.337   6.162  0.1471  0.7222 -0.7328
 4957SOL    HW219600   6.027   2.401   6.231  0.3766 -0.1390  0.0373
 4957SOL    HW319601   5.919   2.351   6.138  0.2152  1.3846 -0.6263
 4957SOL    MW419602   6.000   2.347   6.168  0.0738 -0.5885  0.3416
 4958SOL     OW19603   6.421   2.439   4.120 -0.1502  0.2490  0.3535
 4958SOL    HW219604   6.514   2.462   4.119  0.1303 -0.8152 -1.2758
 4958SOL    HW319605   6.376   2.523   4.129  0.9540  0.8233  0.6698
 4958SOL    MW419606   6.428   2.453   4.121 -0.2201  0.0989  0.0272
 4959SOL     OW19607   6.104   2.495   2.952 -0.6854  0.3150 -0.0910
 4959SOL    HW219608   6.172   2.520   2.889 -0.6416 -0.8615 -0.5441
 4959SOL    HW319609   6.056   2.425   2.908 -2.4637  1.3729  0.0563
 4959SOL    MW419610   6.106   2.489   2.938  0.2234 -0.2350  0.3344
 4960SOL     OW19611   1.070   5.608   0.986  0.1791 -0.5375 -0.4028
 4960SOL    HW219612   1.010   5.569   0.922 -0.1832  0.1611 -0.4998
 4960SOL    HW319613   1.041   5.699   0.993  1.6004 -0.0159 -0.8983
 4960SOL    MW419614   1.058   5.615   0.978  0.5722 -0.4583  0.2437
 4961SOL     OW19615   1.923   6.089   2.192  0.7197 -0.1003 -0.6106
 4961SOL    HW219616   2.000   6.120   2.144  1.4584 -1.6422 -0.4954
 4961SOL    HW319617   1.960   6.033   2.261 -0.4437  0.2449  0.3125
 4961SOL    MW419618   1.938   6.086   2.195 -0.5932  0.0681 -0.1029
 4962SOL     OW19619   2.716   0.757   4.182  0.0708  0.1222 -0.5796
 4962SOL    HW219620   2.714   0.709   4.264 -0.8614 -0.5135 -0.9566
 4962SOL    HW319621   2.801   0.737   4.144  0.2404 -0.1065 -0.0796
 4962SOL    MW419622   2.727   0.748   4.188 -0.0547  0.2164  0.0696
 4963SOL     OW19623   0.452   2.875   1.780  0.3765  0.0586  0.0855
 4963SOL    HW219624   0.533   2.924   1.795  0.7829 -0.3564 -0.6304
 4963SOL    HW319625   0.384   2.924   1.826  0.6520  1.6336 -1.1099
 4963SOL    MW419626   0.454   2.888   1.788 -0.2837  0.1398 -0.3882
 4964SOL     OW19627   3.706   3.693   1.630  0.2250  0.1828 -0.3064
 4964SOL    HW219628   3.668   3.674   1.545  0.3688  0.1644 -0.3665
 4964SOL    HW319629   3.717   3.789   1.631 -0.4445  0.2613 -0.0267
 4964SOL    MW419630   3.703   3.703   1.619 -0.4824 -0.1877  0.3580
 4965SOL     OW19631   6.027   5.186   4.379 -0.3141 -0.1849  0.3949
 4965SOL    HW219632   6.100   5.125   4.375 -0.9466 -0.9660  0.5912
 4965SOL    HW319633   5.964   5.146   4.438 -0.0071  1.4898  1.9584
 4965SOL    MW419634   6.028   5.173   4.386  0.6171 -0.3268 -0.5031
 4966SOL     OW19635   6.211   0.477   0.322  0.2363 -0.8306 -0.3277
 4966SOL    HW219636   6.132   0.529   0.305  1.2113  1.1037  0.7021
 4966SOL    HW319637   6.205   0.404   0.261 -1.8510 -0.2055 -0.9644
 4966SOL    MW419638   6.200   0.474   0.312  0.2391 -0.5057  0.3637
 4967SOL     OW19639   5.491   0.124   0.425  0.4270 -0.3926  0.9597
 4967SOL    HW219640   5.424   0.062   0.397 -0.7475  1.1648  0.1502
 4967SOL    HW319641   5.482   0.127   0.520 -0.4137 -0.5004  0.8946
 4967SOL    MW419642   5.481   0.116   0.434 -0.5222  0.2053 -0.2558
 4968SOL     OW19643   1.584   4.057   2.153 -0.2182 -0.5968 -0.1792
 4968SOL    HW219644   1.501   4.098   2.132 -0.1088  0.6401  1.5342
 4968SOL    HW319645   1.625   4.040   2.069 -0.4935  2.4422 -1.0486
 4968SOL    MW419646   1.579   4.060   2.139 -0.3845  0.6679  0.1909
 4969SOL     OW19647   1.158   2.082   4.442  0.7800 -0.0036  0.1163
 4969SOL    HW219648   1.090   2.020   4.465  1.2758 -0.5890  0.0337
 4969SOL    HW319649   1.211   2.090   4.521  0.5084  0.5978  0.2428
 4969SOL    MW419650   1.156   2.075   4.455 -0.5595  0.2845  0.0117
 4970SOL     OW19651   5.008   4.153   6.247  0.0597  0.0402  0.0509
 4970SOL    HW219652   5.036   4.081   6.304  1.6352  0.1102 -0.5978
 4970SOL    HW319653   5.061   4.228   6.275  1.5481 -0.1520 -2.0496
 4970SOL    MW419654   5.018   4.153   6.258 -0.1535  0.4582  0.1711
 4971SOL     OW19655   1.545   4.607   3.152  0.1036 -0.5985  0.2444
 4971SOL    HW219656   1.483   4.658   3.203 -0.2809 -1.8573  1.0665
 4971SOL    HW319657   1.630   4.626   3.192 -0.1896 -1.5583  1.3826
 4971SOL    MW419658   1.548   4.616   3.164 -0.7428 -0.0885 -0.0141
 4972SOL     OW19659   5.797   1.871   4.283  0.2464  0.3812 -0.4229
 4972SOL    HW219660   5.744   1.836   4.211 -0.1834 -0.8583  0.4633
 4972SOL    HW319661   5.777   1.814   4.357 -1.2886  3.1675  1.4338
 4972SOL    MW419662   5.787   1.859   4.283  0.4421  0.2615  0.2791
 4973SOL     OW19663   2.573   5.995   6.029  0.1974  0.2664 -0.0879
 4973SOL    HW219664   2.533   5.985   6.116 -0.9394 -0.5046 -0.6756
 4973SOL    HW319665   2.515   6.055   5.983  1.6715  1.9810  0.1722
 4973SOL    MW419666   2.560   6.002   6.035  0.0961  0.4687  0.0928
 4974SOL     OW19667   4.252   1.922   1.696  0.1778 -0.1548 -0.1842
 4974SOL    HW219668   4.169   1.955   1.730  1.2989  1.5505  1.0551
 4974SOL    HW319669   4.299   1.890   1.773  1.5250  0.9216 -0.5088
 4974SOL    MW419670   4.248   1.922   1.710  0.2433  0.2379  0.1013
 4975SOL     OW19671   2.848   2.661   3.790  1.0921 -0.1084  0.6256
 4975SOL    HW219672   2.919   2.674   3.727  1.3678 -2.0648  0.4833
 4975SOL    HW319673   2.796   2.589   3.754 -0.2497  0.4360  1.3694
 4975SOL    MW419674   2.850   2.654   3.777 -0.3882  0.6738  0.0320
 4976SOL     OW19675   4.763   0.463   0.326 -0.1411  0.1248 -0.3555
 4976SOL    HW219676   4.768   0.532   0.261  1.3761  0.6471  0.2861
 4976SOL    HW319677   4.777   0.507   0.410 -0.7527 -0.7325  0.2206
 4976SOL    MW419678   4.766   0.478   0.329 -0.1240  0.1941 -0.2960
 4977SOL     OW19679   2.450   3.680   2.087  0.3977  0.1730  0.1909
 4977SOL    HW219680   2.471   3.662   2.178 -0.1397  2.0384  0.7281
 4977SOL    HW319681   2.357   3.705   2.088  0.5929  1.0051 -0.7255
 4977SOL    MW419682   2.440   3.681   2.099 -0.5904  0.5947 -0.1850
 4978SOL     OW19683   4.277   0.245   0.548  0.0467 -0.6019  0.5249
 4978SOL    HW219684   4.200   0.300   0.558 -1.3014 -2.0224 -1.2592
 4978SOL    HW319685   4.346   0.290   0.596 -1.9400  0.5949  2.4047
 4978SOL    MW419686   4.276   0.258   0.556 -0.1432 -0.7105  0.1684
 4979SOL     OW19687   0.362   3.357   3.810 -0.0227 -0.5790  0.0922
 4979SOL    HW219688   0.458   3.351   3.812 -0.0094 -0.1868  0.5368
 4979SOL    HW319689   0.343   3.449   3.824 -0.3539  0.0830 -3.5874
 4979SOL    MW419690   0.372   3.368   3.812  0.4322  0.6101 -0.0348
 4980SOL     OW19691   2.896   5.389   0.491 -0.1990  0.5256  0.1419
 4980SOL    HW219692   2.977   5.351   0.456  0.3151  1.4357  0.2838
 4980SOL    HW319693   2.926   5.450   0.559 -1.0468  0.4318  0.6141
 4980SOL    MW419694   2.911   5.392   0.495 -0.5760 -0.4462 -0.3588
 4981SOL     OW19695   4.370   2.807   2.621 -0.4651 -0.0499 -0.2268
 4981SOL    HW219696   4.356   2.791   2.527 -0.7673  1.7593 -0.5279
 4981SOL    HW319697   4.398   2.723   2.655  0.8546 -0.4686 -2.1753
 4981SOL    MW419698   4.372   2.794   2.613  0.3417  0.4216  0.2551
 4982SOL     OW19699   4.892   5.043   2.356  0.0331 -0.1118  0.4151
 4982SOL    HW219700   4.959   5.071   2.293 -0.6502  0.0111 -0.2722
 4982SOL    HW319701   4.815   5.094   2.333 -0.9796 -1.8695 -0.2836
 4982SOL    MW419702   4.891   5.054   2.345 -0.7259 -1.1494  0.8764
 4983SOL     OW19703   5.142   3.325   5.413 -0.7732 -0.1374 -0.3597
 4983SOL    HW219704   5.048   3.308   5.414 -0.7707 -0.3445 -1.5747
 4983SOL    HW319705   5.152   3.399   5.353  0.0429 -1.8315 -2.4611
 4983SOL    MW419706   5.131   3.332   5.405 -0.3265 -0.0726 -0.2240
 4984SOL     OW19707   2.342   5.208   2.177  0.0060 -0.7159 -0.6885
 4984SOL    HW219708   2.262   5.259   2.172  0.1504 -0.3012  0.7628
 4984SOL    HW319709   2.327   5.133   2.120 -0.1786  0.9523 -2.9495
 4984SOL    MW419710   2.330   5.205   2.169  0.1738 -0.2650  0.1464
 4985SOL     OW19711   5.997   5.290   2.629  0.2542 -0.3409  0.0475
 4985SOL    HW219712   6.002   5.345   2.550  1.2124 -2.0034 -1.0998
 4985SOL    HW319713   6.039   5.343   2.697  1.1519  0.3707 -1.0190
 4985SOL    MW419714   6.003   5.305   2.628  0.0428  0.3201 -0.0264
 4986SOL     OW19715   3.384   2.898   3.653 -0.3500  0.5130 -0.0648
 4986SOL    HW219716   3.476   2.896   3.679 -0.6465  0.3490  1.0332
 4986SOL    HW319717   3.364   2.809   3.624 -0.7792 -0.1416  2.0562
 4986SOL    MW419718   3.393   2.886   3.653  0.2594  0.2824 -0.1843
 4987SOL     OW19719   4.253   6.183   5.849  0.6937 -0.4802  0.7121
 4987SOL    HW219720   4.255   6.220   5.761  0.5199 -2.0925 -0.0043
 4987SOL    HW319721   4.329   6.222   5.893 -0.0520  1.4987  0.3868
 4987SOL    MW419722   4.263   6.193   5.843 -0.0142  0.0164  0.1643
 4988SOL     OW19723   3.851   4.725   3.100  0.2235 -0.1291  0.1507
 4988SOL    HW219724   3.792   4.729   3.175  0.2154  0.5608  0.1148
 4988SOL    HW319725   3.855   4.632   3.077  0.7604 -0.4345  1.4166
 4988SOL    MW419726   3.844   4.713   3.107 -0.1853  0.3938  0.5193
 4989SOL     OW19727   5.642   1.674   4.456  0.1122 -0.4099 -0.0241
 4989SOL    HW219728   5.660   1.605   4.519  0.6066 -0.7471 -0.5305
 4989SOL    HW319729   5.547   1.675   4.449  0.0931 -0.9056  0.1298
 4989SOL    MW419730   5.632   1.665   4.464 -0.7457  0.5842  0.1814
 4990SOL     OW19731   2.284   0.031   5.130 -0.6075  0.0744 -0.1212
 4990SOL    HW219732   2.350   0.092   5.163 -0.8663  0.8147 -0.9471
 4990SOL    HW319733   2.242   0.077   5.057 -1.8105 -0.5095  0.1706
 4990SOL    MW419734   2.287   0.045   5.125  0.1218 -0.3000 -0.1699
 4991SOL     OW19735   2.675   0.564   4.923  0.5960 -0.2799 -0.5126
 4991SOL    HW219736   2.747   0.558   4.986  0.8079 -1.1446 -0.8261
 4991SOL    HW319737   2.663   0.658   4.910 -1.0142  0.0742  2.5459
 4991SOL    MW419738   2.683   0.576   4.930 -0.1497 -0.1484 -0.0437
 4992SOL     OW19739   3.243   0.514   4.338 -0.1855 -0.2593  0.0362
 4992SOL    HW219740   3.308   0.551   4.277 -1.2589  1.0561 -0.3605
 4992SOL    HW319741   3.295   0.480   4.411  1.0138 -0.2289 -0.7694
 4992SOL    MW419742   3.259   0.514   4.339  0.3145  0.1258  0.5460
 4993SOL     OW19743   4.023   4.671   0.387  0.3759 -0.1768 -0.2013
 4993SOL    HW219744   4.041   4.577   0.383  1.1029 -0.0332 -0.3477
 4993SOL    HW319745   3.956   4.685   0.321  1.1579 -0.3952 -1.0577
 4993SOL    MW419746   4.016   4.660   0.378 -0.3015 -0.2376 -0.1071
 4994SOL     OW19747   0.196   4.435   1.255  0.2974 -0.3283  0.0349
 4994SOL    HW219748   0.282   4.397   1.271  0.2451 -0.8245 -0.7895
 4994SOL    HW319749   0.182   4.423   1.161 -0.7277 -0.3807  0.1839
 4994SOL    MW419750   0.205   4.428   1.245  0.2086  0.2705  0.0640
 4995SOL     OW19751   5.177   0.372   2.695 -0.3303 -0.0390 -0.6807
 4995SOL    HW219752   5.133   0.429   2.758 -1.1582 -1.7879  0.4257
 4995SOL    HW319753   5.264   0.410   2.684 -0.8173  1.3530  0.0701
 4995SOL    MW419754   5.183   0.384   2.702  0.0989  0.3521 -0.2598
 4996SOL     OW19755   0.325   4.609   4.148 -0.7740 -0.2482  0.0631
 4996SOL    HW219756   0.358   4.519   4.142  0.6123  0.3088 -1.4219
 4996SOL    HW319757   0.362   4.642   4.230 -1.0016 -0.9138  0.4409
 4996SOL    MW419758   0.334   4.601   4.158 -0.1874  0.3232 -0.5249
 4997SOL     OW19759   4.193   3.010   0.662 -0.7516  0.5534 -0.0319
 4997SOL    HW219760   4.152   3.085   0.706  0.7768  1.0853  0.5771
 4997SOL    HW319761   4.228   3.047   0.581  1.8512  1.0925  1.2162
 4997SOL    MW419762   4.192   3.025   0.657  0.1425  0.1519  0.9037
 4998SOL     OW19763   0.805   1.043   0.572 -0.3078  0.1137  0.3038
 4998SOL    HW219764   0.809   1.113   0.638  0.7633 -0.7507  1.1810
 4998SOL    HW319765   0.721   1.057   0.528 -0.7689  1.0820  1.4364
 4998SOL    MW419766   0.794   1.054   0.575 -0.7857  0.0994  0.6429
 4999SOL     OW19767   5.282   4.907   3.516  0.0508 -0.3226  0.4076
 4999SOL    HW219768   5.270   4.978   3.579  0.4854 -0.4281  0.6063
 4999SOL    HW319769   5.194   4.892   3.480 -0.3017 -0.6253  1.3687
 4999SOL    MW419770   5.269   4.914   3.519 -0.2385 -0.6215 -0.2519
 5000SOL     OW19771   1.593   1.993   6.081  0.6175 -0.2245  0.8706
 5000SOL    HW219772   1.659   2.054   6.112 -1.0450  1.2502  1.6562
 5000SOL    HW319773   1.516   2.047   6.062  0.0250 -1.6962 -1.3193
 5000SOL    MW419774   1.591   2.008   6.083 -0.2307 -0.3009  0.1248
 5001SOL     OW19775   3.842   0.031   5.589 -0.3077  0.0906  0.2827
 5001SOL    HW219776   3.846   0.043   5.684  0.6032 -0.4259  0.3145
 5001SOL    HW319777   3.930   0.054   5.559 -0.5332  0.0425 -0.4115
 5001SOL    MW419778   3.854   0.036   5.598 -0.1658  0.2470 -0.5922
 5002SOL     OW19779   0.822   2.980   0.594  0.4518 -0.3239  0.2150
 5002SOL    HW219780   0.765   3.006   0.666  0.7449  0.5210  0.1492
 5002SOL    HW319781   0.829   2.885   0.602 -2.4932 -0.7246 -0.9207
 5002SOL    MW419782   0.816   2.971   0.605  0.1789  0.1873 -0.0192
 5003SOL     OW19783   4.260   6.302   5.575 -0.3627 -0.1700  0.1642
 5003SOL    HW219784   4.329   6.358   5.538 -0.4766  0.0073  0.2162
 5003SOL    HW319785   4.251   6.230   5.513  0.0860 -0.3571  0.3179
 5003SOL    MW419786   4.268   6.300   5.562  0.2382 -0.2975 -0.4757
 5004SOL     OW19787   3.683   5.809   5.890  0.4539  0.0304 -0.2984
 5004SOL    HW219788   3.638   5.794   5.806  0.4632 -0.0566 -0.2872
 5004SOL    HW319789   3.667   5.730   5.941  0.3431  0.1336 -0.1706
 5004SOL    MW419790   3.675   5.797   5.885 -0.4011 -0.0099  0.3248
 5005SOL     OW19791   2.757   4.400   1.927  0.0157 -0.1325 -0.7573
 5005SOL    HW219792   2.780   4.328   1.986 -0.8621 -0.8374 -1.2501
 5005SOL    HW319793   2.723   4.357   1.849 -3.3587  0.7458  0.0417
 5005SOL    MW419794   2.756   4.385   1.925 -0.4787  0.7303 -0.1184
 5006SOL     OW19795   6.369   6.423   2.857  0.2944 -0.6278 -0.7223
 5006SOL    HW219796   6.396   6.335   2.830  0.1644 -0.8741 -0.0826
 5006SOL    HW319797   6.449   6.464   2.890  0.3640 -0.4869 -1.0622
 5006SOL    MW419798   6.383   6.417   2.858 -0.6586 -0.4335 -0.0108
 5007SOL     OW19799   5.741   4.605   4.903 -0.4712 -0.2651  0.0824
 5007SOL    HW219800   5.800   4.660   4.955  0.7352 -1.1510 -0.2981
 5007SOL    HW319801   5.684   4.667   4.858 -1.5206  0.5485  2.3574
 5007SOL    MW419802   5.741   4.620   4.904  0.0529  0.0957 -0.0257
 5008SOL     OW19803   3.386   2.739   2.938  0.1102 -0.2162 -0.4264
 5008SOL    HW219804   3.387   2.806   3.007  2.7237  0.3689 -0.9019
 5008SOL    HW319805   3.468   2.753   2.891  0.0795 -2.8685 -1.4314
 5008SOL    MW419806   3.397   2.750   2.941 -0.5092  0.3265  0.5782
 5009SOL     OW19807   2.132   6.157   2.543 -0.2674  0.1891  0.5134
 5009SOL    HW219808   2.061   6.094   2.543 -2.1952  2.1913 -1.2673
 5009SOL    HW319809   2.183   6.136   2.464  0.0428 -0.0962  0.7852
 5009SOL    MW419810   2.130   6.146   2.533 -0.4198  0.2900 -0.6068
 5010SOL     OW19811   1.363   0.297   0.226  0.2859 -0.0259 -0.1014
 5010SOL    HW219812   1.320   0.264   0.148  0.8357 -0.3989 -0.2530
 5010SOL    HW319813   1.424   0.228   0.251  0.5240  0.3320  0.3294
 5010SOL    MW419814   1.365   0.284   0.219  0.0688 -0.1720 -0.5712
 5011SOL     OW19815   1.080   2.059   5.364  0.2606 -0.2008  0.0568
 5011SOL    HW219816   1.132   1.978   5.365 -0.0419 -0.3943  1.1729
 5011SOL    HW319817   1.009   2.041   5.303  1.1534 -0.1432 -1.0380
 5011SOL    MW419818   1.077   2.046   5.356  0.2309  0.0993 -0.7343
 5012SOL     OW19819   3.235   4.651   5.109 -0.1026 -0.2899 -0.7075
 5012SOL    HW219820   3.309   4.590   5.113 -1.1873 -1.6758 -0.7118
 5012SOL    HW319821   3.259   4.723   5.167  0.5232 -1.5528  0.6675
 5012SOL    MW419822   3.248   4.652   5.117  0.1583  0.3313  0.0938
 5013SOL     OW19823   2.378   4.360   6.378  0.0470 -0.0222 -0.3537
 5013SOL    HW219824   2.402   4.430   6.318  1.3373  0.0783  0.2476
 5013SOL    HW319825   2.379   4.400   6.465  1.3428 -0.8850  0.0575
 5013SOL    MW419826   2.381   4.374   6.381  0.1919 -0.6845 -0.0265
 5014SOL     OW19827   1.522   1.142   4.226 -0.5857  0.1822 -0.4018
 5014SOL    HW219828   1.568   1.062   4.201  0.6542  1.2953 -1.9424
 5014SOL    HW319829   1.442   1.112   4.270  1.2327 -1.8323  1.7367
 5014SOL    MW419830   1.517   1.128   4.228  0.4640 -0.0114  0.1654
 5015SOL     OW19831   0.935   1.628   5.427 -0.1424 -0.0308  0.0253
 5015SOL    HW219832   0.869   1.562   5.445  0.1987 -0.9178 -1.7837
 5015SOL    HW319833   1.014   1.597   5.471 -0.0117 -0.8139 -0.7349
 5015SOL    MW419834   0.937   1.615   5.435  0.0024  0.0607  0.5165
 5016SOL     OW19835   5.737   1.179   3.873 -0.3690 -0.0249 -0.2750
 5016SOL    HW219836   5.781   1.138   3.798 -0.3292 -0.1013 -0.2106
 5016SOL    HW319837   5.661   1.123   3.889  0.0500 -0.4575  0.2320
 5016SOL    MW419838   5.732   1.166   3.865 -0.3443  0.1372  0.5561
 5017SOL     OW19839   2.580   3.162   2.841 -0.1640  0.0052  0.6023
 5017SOL    HW219840   2.611   3.126   2.758  0.1387  0.6541  0.4220
 5017SOL    HW319841   2.488   3.137   2.846  0.1072 -1.0151  0.6200
 5017SOL    MW419842   2.572   3.154   2.831 -0.0918 -0.6322  0.5393
 5018SOL     OW19843   4.535   2.997   2.462  0.7225  0.0943  0.3382
 5018SOL    HW219844   4.487   2.927   2.505  0.6073  0.5258  0.9230
 5018SOL    HW319845   4.587   2.953   2.395 -2.5842 -0.1437 -2.3293
 5018SOL    MW419846   4.536   2.982   2.459  0.3524 -0.3234 -0.1506
 5019SOL     OW19847   1.415   0.576   5.733  0.4748  0.1976  0.1427
 5019SOL    HW219848   1.419   0.505   5.669  2.0757 -1.9556  2.4411
 5019SOL    HW319849   1.346   0.550   5.794 -0.6756  1.9536 -0.3296
 5019SOL    MW419850   1.406   0.563   5.733  0.1059 -0.0639 -0.4754
 5020SOL     OW19851   3.011   3.516   3.404 -0.4277  0.3361 -0.8087
 5020SOL    HW219852   2.987   3.590   3.459  0.7249  0.1519 -0.0370
 5020SOL    HW319853   2.996   3.546   3.315  0.5344  1.6766 -0.5288
 5020SOL    MW419854   3.006   3.529   3.400 -0.3089  0.0868  0.1334
 5021SOL     OW19855   4.241   0.961   5.349  0.1842  0.5322  0.1487
 5021SOL    HW219856   4.304   1.016   5.396 -1.5753  1.0919  1.9938
 5021SOL    HW319857   4.161   0.967   5.400 -1.3782 -0.2302 -2.0507
 5021SOL    MW419858   4.239   0.969   5.362 -0.2082  0.1091 -0.3141
 5022SOL     OW19859   1.499   3.003   5.058  0.7766  0.0648  0.1134
 5022SOL    HW219860   1.569   2.952   5.018  0.4167 -0.9245  0.7068
 5022SOL    HW319861   1.498   2.976   5.150 -0.4407 -0.0391  0.0965
 5022SOL    MW419862   1.508   2.993   5.065  0.3439 -0.0852 -0.1377
 5023SOL     OW19863   1.344   2.403   0.948  0.3716 -0.6324  0.0128
 5023SOL    HW219864   1.371   2.480   0.897  2.8134 -2.3866 -1.5731
 5023SOL    HW319865   1.396   2.331   0.912 -0.6908 -2.7721  2.4328
 5023SOL    MW419866   1.354   2.404   0.936  0.1204  0.1704 -0.3233
 5024SOL     OW19867   1.038   4.253   6.413 -0.3411 -0.3294  0.2076
 5024SOL    HW219868   0.994   4.338   6.408  0.0852 -0.0626  0.8603
 5024SOL    HW319869   1.088   4.246   6.332 -0.5754 -0.0744  0.0399
 5024SOL    MW419870   1.039   4.263   6.402  0.3143  0.0678 -0.0135
 5025SOL     OW19871   0.220   4.289   5.510 -0.0954 -0.7162 -0.0150
 5025SOL    HW219872   0.278   4.357   5.476 -2.0659  0.8705 -0.3979
 5025SOL    HW319873   0.142   4.295   5.455 -0.3003 -3.4189 -0.1367
 5025SOL    MW419874   0.218   4.299   5.498 -0.1348 -0.2449 -0.0134
 5026SOL     OW19875   3.187   4.466   6.162  0.7908 -0.2062  0.0550
 5026SOL    HW219876   3.246   4.400   6.124 -2.3304 -1.8074 -2.4507
 5026SOL    HW319877   3.152   4.513   6.087  0.9253  2.6806  1.6565
 5026SOL    MW419878   3.190   4.463   6.147  0.6353 -0.1072 -0.6289
 5027SOL     OW19879   4.674   2.358   1.217 -0.3255  0.0196  0.2165
 5027SOL    HW219880   4.613   2.428   1.194  0.0409  0.3357  0.2049
 5027SOL    HW319881   4.627   2.307   1.283  0.2025  1.4762  1.7737
 5027SOL    MW419882   4.659   2.360   1.223 -0.1437  0.0015 -0.0089
 5028SOL     OW19883   5.911   5.167   4.055  0.6644  0.4975  0.1540
 5028SOL    HW219884   5.866   5.090   4.018  1.0022  0.8177 -0.9591
 5028SOL    HW319885   5.919   5.147   4.148 -1.4424  0.2676  0.3299
 5028SOL    MW419886   5.906   5.154   4.062  0.4605  0.1126  0.2941
 5029SOL     OW19887   1.204   0.740   4.339 -0.0231  0.7071 -0.2714
 5029SOL    HW219888   1.177   0.826   4.371  1.4023  0.8257  0.7418
 5029SOL    HW319889   1.196   0.745   4.244 -2.3836  1.0688 -0.1080
 5029SOL    MW419890   1.199   0.752   4.331  0.0318  0.0384  0.7390
 5030SOL     OW19891   4.871   2.327   2.808 -0.2411 -0.1721  0.2865
 5030SOL    HW219892   4.856   2.416   2.842 -0.0324 -0.5971  1.5248
 5030SOL    HW319893   4.849   2.334   2.715 -0.8346  1.0301  0.4889
 5030SOL    MW419894   4.866   2.340   2.800  0.1517  0.0592  0.3530
 5031SOL     OW19895   6.288   0.482   6.081 -0.3998 -0.6184 -0.0426
 5031SOL    HW219896   6.241   0.409   6.040 -0.5244 -0.1119 -0.8249
 5031SOL    HW319897   6.225   0.554   6.081  0.1983 -0.0693 -0.6713
 5031SOL    MW419898   6.273   0.482   6.075  0.1971  0.4271  0.0658
 5032SOL     OW19899   3.270   0.817   1.130  0.0578  0.4467 -0.7811
 5032SOL    HW219900   3.302   0.753   1.066  0.5464  2.1165 -2.2926
 5032SOL    HW319901   3.212   0.767   1.187  1.4339 -1.5998 -1.0839
 5032SOL    MW419902   3.266   0.802   1.129 -0.7668 -0.0554 -0.4116
 5033SOL     OW19903   4.041   6.205   1.023 -0.0562  0.0746 -0.1028
 5033SOL    HW219904   4.057   6.161   0.940 -0.2441  0.1515 -0.1807
 5033SOL    HW319905   4.013   6.293   0.998  0.7506  0.3914  0.0569
 5033SOL    MW419906   4.040   6.211   1.009  0.1122  0.4488 -0.2634
 5034SOL     OW19907   1.872   4.855   5.627  0.8053 -0.2976 -0.2434
 5034SOL    HW219908   1.915   4.929   5.671 -0.7185 -0.3652  1.4767
 5034SOL    HW319909   1.944   4.804   5.590  2.4579 -1.0496  3.5104
 5034SOL    MW419910   1.887   4.858   5.628  0.1760  0.1803  0.3434
 5035SOL     OW19911   2.968   1.880   6.365  0.6833  0.1621  0.3864
 5035SOL    HW219912   3.011   1.914   6.443  1.4456  0.4552 -0.1349
 5035SOL    HW319913   2.966   1.785   6.377 -0.9771  0.3170  1.6163
 5035SOL    MW419914   2.974   1.872   6.377 -0.1625  0.4976  0.4937
 5036SOL     OW19915   0.136   6.338   3.206  0.0836 -0.2982 -0.2370
 5036SOL    HW219916   0.193   6.414   3.214 -0.0911 -0.2358  0.5629
 5036SOL    HW319917   0.181   6.268   3.253  0.2362 -0.6961 -0.9523
 5036SOL    MW419918   0.149   6.339   3.213 -0.2118  0.4303  0.8652
 5037SOL     OW19919   1.081   1.000   1.987  0.0666 -0.1432 -0.3856
 5037SOL    HW219920   1.016   1.048   1.935  3.4135  2.4251 -2.5637
 5037SOL    HW319921   1.067   0.908   1.963 -1.6118  0.4891 -2.1514
 5037SOL    MW419922   1.070   0.994   1.977 -0.7420  0.1806 -0.0189
 5038SOL     OW19923   6.295   2.610   1.619  0.2591  0.0439 -0.5754
 5038SOL    HW219924   6.206   2.646   1.613  0.5630  0.8565 -0.3094
 5038SOL    HW319925   6.299   2.544   1.549 -0.4876  0.1292 -0.7066
 5038SOL    MW419926   6.284   2.606   1.609  0.0149  0.3176  0.3496
 5039SOL     OW19927   0.821   1.793   1.768 -0.2000  0.3073  0.1489
 5039SOL    HW219928   0.894   1.848   1.799 -0.2992  0.6409 -0.2090
 5039SOL    HW319929   0.848   1.766   1.680  0.2831 -0.9988  0.6605
 5039SOL    MW419930   0.834   1.796   1.761  0.2497 -0.2760  0.2461
 5040SOL     OW19931   4.850   4.945   2.022  0.0006 -0.6919 -0.2502
 5040SOL    HW219932   4.832   4.991   2.104  0.9867  1.4582 -1.1457
 5040SOL    HW319933   4.763   4.930   1.983 -0.4286 -1.0830  0.8240
 5040SOL    MW419934   4.836   4.949   2.028  0.4584  0.3006  0.0237
 5041SOL     OW19935   0.603   4.288   4.975  0.2002  0.3897 -0.3812
 5041SOL    HW219936   0.665   4.225   5.010 -0.5708  0.8404  1.9926
 5041SOL    HW319937   0.555   4.241   4.907 -0.3676 -1.6269  1.3332
 5041SOL    MW419938   0.605   4.274   4.971  0.9094  0.0572  0.3232
 5042SOL     OW19939   3.168   1.328   4.774 -0.8965  0.1831 -0.6930
 5042SOL    HW219940   3.149   1.235   4.785 -2.1520  0.7356  3.0419
 5042SOL    HW319941   3.264   1.333   4.776 -0.7850 -1.0341 -1.6570
 5042SOL    MW419942   3.178   1.316   4.776  0.1029  0.2945 -0.0616
 5043SOL     OW19943   4.991   4.104   1.490  0.5654  0.2434 -0.3163
 5043SOL    HW219944   4.898   4.127   1.495  0.2041 -1.2243 -0.0167
 5043SOL    HW319945   5.036   4.180   1.527 -0.5353  0.7940 -0.0731
 5043SOL    MW419946   4.985   4.117   1.495 -0.1455  0.0672 -0.1580
 5044SOL     OW19947   3.709   3.128   1.164 -0.0367 -0.4086 -0.2645
 5044SOL    HW219948   3.674   3.123   1.254 -0.3664  2.1963 -0.1669
 5044SOL    HW319949   3.689   3.043   1.126 -0.4103 -1.3809  1.9543
 5044SOL    MW419950   3.701   3.116   1.171  0.1682 -0.0131  0.1878
 5045SOL     OW19951   3.016   3.014   3.445 -0.6798  0.4009 -0.3079
 5045SOL    HW219952   3.008   3.033   3.538  0.5298  0.7029 -0.2484
 5045SOL    HW319953   2.926   3.003   3.415 -1.0890  0.3206  0.8845
 5045SOL    MW419954   3.003   3.015   3.453 -0.2568 -0.1196 -0.3727
 5046SOL     OW19955   5.740   3.467   4.637 -0.5967 -0.4619 -0.2787
 5046SOL    HW219956   5.687   3.523   4.581 -1.5864 -0.6243  0.4703
 5046SOL    HW319957   5.678   3.405   4.674  0.1642 -0.8106  0.4405
 5046SOL    MW419958   5.725   3.466   4.634 -0.1411  0.0252  0.0358
 5047SOL     OW19959   1.780   0.905   3.853 -0.3239  0.3545  0.3568
 5047SOL    HW219960   1.819   0.928   3.768  0.0600  1.6988  0.8690
 5047SOL    HW319961   1.732   0.983   3.879  1.7013  0.9846  2.5681
 5047SOL    MW419962   1.779   0.918   3.845  0.0071  0.0937 -0.0808
 5048SOL     OW19963   0.948   1.641   5.797  0.4476  0.5112  0.1392
 5048SOL    HW219964   0.920   1.708   5.859  1.6006  1.8242 -0.6902
 5048SOL    HW319965   1.018   1.683   5.746  1.2167 -1.3279 -0.4166
 5048SOL    MW419966   0.954   1.656   5.798  0.5989  0.1344 -0.2362
 5049SOL     OW19967   4.583   3.966   4.321 -0.0438  0.5709 -0.3711
 5049SOL    HW219968   4.656   3.992   4.264  0.0247 -0.6764 -0.8850
 5049SOL    HW319969   4.508   4.015   4.287 -0.0555 -0.3442 -1.7297
 5049SOL    MW419970   4.583   3.976   4.309  0.2922 -0.4023  0.4123
 5050SOL     OW19971   5.537   3.770   4.188 -0.1835  0.3536  0.1354
 5050SOL    HW219972   5.626   3.775   4.151 -0.0302  1.4546  0.6095
 5050SOL    HW319973   5.516   3.677   4.188  0.9611  0.0817 -0.0327
 5050SOL    MW419974   5.546   3.759   4.183  0.0411 -0.0010  0.4467
 5051SOL     OW19975   3.562   5.210   4.831  0.0579  0.1927  0.2768
 5051SOL    HW219976   3.543   5.237   4.921 -1.4698  3.0318 -0.7731
 5051SOL    HW319977   3.605   5.125   4.840 -3.1131 -1.3561  3.5323
 5051SOL    MW419978   3.565   5.202   4.844  0.0255  0.1658  0.0398
 5052SOL     OW19979   2.243   0.027   3.797  0.2772 -0.3149 -0.0657
 5052SOL    HW219980   2.297  -0.005   3.724  1.0108  1.8793 -0.5505
 5052SOL    HW319981   2.173  -0.038   3.805  0.6744 -1.0764 -2.1476
 5052SOL    MW419982   2.241   0.014   3.788  0.4261 -0.3075 -0.5036
 5053SOL     OW19983   5.918   0.461   4.775 -0.2718 -0.2642  0.3142
 5053SOL    HW219984   5.827   0.437   4.757 -0.2841  0.0503 -0.0659
 5053SOL    HW319985   5.969   0.383   4.753 -0.2227  0.2814 -1.7644
 5053SOL    MW419986   5.913   0.448   4.769  0.1720 -0.1219  0.0076
 5054SOL     OW19987   4.632   4.505   6.073  0.0590  0.6237  0.9344
 5054SOL    HW219988   4.660   4.597   6.065  1.8705 -0.0018 -0.7376
 5054SOL    HW319989   4.708   4.461   6.112 -0.3685 -0.3455  0.6847
 5054SOL    MW419990   4.646   4.511   6.077  0.4963  0.2319 -0.1814
 5055SOL     OW19991   3.727   4.072   3.852 -0.0847 -0.0836 -0.3336
 5055SOL    HW219992   3.679   4.054   3.771  1.0649  1.4255 -1.4063
 5055SOL    HW319993   3.707   4.164   3.872  0.7184 -0.0427  0.3556
 5055SOL    MW419994   3.718   4.082   3.844  0.1995 -0.4030 -0.1676
 5056SOL     OW19995   5.052   4.946   5.527 -0.3549 -0.3156 -0.1261
 5056SOL    HW219996   5.067   4.952   5.433  0.9415 -1.2101 -0.0035
 5056SOL    HW319997   5.138   4.927   5.564 -0.9150 -0.3792  1.2038
 5056SOL    MW419998   5.065   4.944   5.519  0.3670  0.4160  0.3099
 5057SOL     OW19999   0.879   4.195   4.404  0.0593  0.3904  0.1716
 5057SOL    HW220000   0.946   4.243   4.356  0.4236 -0.4828 -0.1889
 5057SOL    HW320001   0.904   4.206   4.496  0.2124  0.7815  0.0871
 5057SOL    MW420002   0.891   4.203   4.410  0.0672 -0.0812 -0.2271
 5058SOL     OW20003   6.301   1.685   3.521 -0.0729  0.3594 -0.3920
 5058SOL    HW220004   6.365   1.755   3.533 -1.5194  1.6213  0.2599
 5058SOL    HW320005   6.270   1.666   3.609 -1.8027  0.9689 -0.8267
 5058SOL    MW420006   6.305   1.692   3.534  0.2852  0.5001 -0.3459
 5059SOL     OW20007   2.376   1.693   0.126  0.3530 -0.1612  0.7594
 5059SOL    HW220008   2.294   1.713   0.079  0.9082  0.8077  0.1628
 5059SOL    HW320009   2.357   1.612   0.174 -0.5463 -0.6777 -0.4039
 5059SOL    MW420010   2.363   1.685   0.126  0.2657 -0.1956  0.3734
 5060SOL     OW20011   4.515   4.917   0.113  0.0828 -0.5964  0.1533
 5060SOL    HW220012   4.551   4.917   0.024  1.9017  1.1535  0.8300
 5060SOL    HW320013   4.587   4.889   0.169 -0.7158 -0.6214  1.2032
 5060SOL    MW420014   4.529   4.913   0.108 -0.6297 -0.1264  0.5072
 5061SOL     OW20015   4.729   5.959   4.370  0.0341  0.4235  0.3004
 5061SOL    HW220016   4.775   5.885   4.329 -0.8099  0.7728 -1.3486
 5061SOL    HW320017   4.797   6.025   4.382  0.0952  0.8213 -1.8327
 5061SOL    MW420018   4.744   5.958   4.366 -0.4880 -0.2127  0.1340
 5062SOL     OW20019   3.031   5.154   0.133  0.9568 -0.6296  0.1932
 5062SOL    HW220020   3.054   5.061   0.129  0.8695 -0.6033 -1.9575
 5062SOL    HW320021   2.936   5.156   0.134  0.9597 -0.5560  0.5130
 5062SOL    MW420022   3.022   5.142   0.133 -0.0770 -0.6734 -0.1057
 5063SOL     OW20023   1.902   3.391   5.877  0.1370 -0.2108 -0.2874
 5063SOL    HW220024   1.825   3.429   5.919 -0.9736 -0.9577 -1.5561
 5063SOL    HW320025   1.946   3.465   5.835 -1.1327 -0.0484 -1.4083
 5063SOL    MW420026   1.898   3.406   5.877 -0.6715 -0.1270 -0.0993
 5064SOL     OW20027   5.102   1.574   4.269  0.6903  0.1858  0.4831
 5064SOL    HW220028   5.076   1.513   4.339 -0.9547  0.1507 -0.1294
 5064SOL    HW320029   5.119   1.656   4.314 -0.2926  0.1482  0.9455
 5064SOL    MW420030   5.101   1.577   4.284  0.2345 -0.0510  0.8931
 5065SOL     OW20031   2.196   2.337   5.742  0.0514  0.3681 -0.1109
 5065SOL    HW220032   2.175   2.249   5.709  0.1352  0.3910 -0.2233
 5065SOL    HW320033   2.113   2.372   5.772  0.2650 -0.4347  1.5612
 5065SOL    MW420034   2.182   2.330   5.742  0.0028 -0.2345  0.0158
 5066SOL     OW20035   3.467   0.394   1.622  0.1661  0.1811 -1.0424
 5066SOL    HW220036   3.422   0.448   1.557 -1.7843 -0.5795 -0.4216
 5066SOL    HW320037   3.440   0.431   1.706  1.9951  0.6445 -0.6299
 5066SOL    MW420038   3.457   0.406   1.624  0.0870  0.4949  0.2622
 5067SOL     OW20039   2.674   4.284   2.391  0.1856 -0.2738 -0.1732
 5067SOL    HW220040   2.679   4.196   2.428 -2.2516  0.1822  1.4355
 5067SOL    HW320041   2.730   4.337   2.447 -1.9298  0.0219  1.7877
 5067SOL    MW420042   2.682   4.279   2.403 -0.1718  0.1317 -0.2166
 5068SOL     OW20043   1.483   1.850   6.289 -0.2974  0.0707 -0.0339
 5068SOL    HW220044   1.522   1.887   6.210  0.6266  2.4799  1.4359
 5068SOL    HW320045   1.557   1.818   6.340 -0.3767  2.2312  1.5856
 5068SOL    MW420046   1.498   1.851   6.286 -0.6319 -0.0777 -0.0183
 5069SOL     OW20047   1.495   5.760   4.158  0.5499 -0.2945 -0.0904
 5069SOL    HW220048   1.532   5.740   4.072  4.0158 -0.2465  1.2605
 5069SOL    HW320049   1.482   5.674   4.199  0.7599 -0.2541  0.0598
 5069SOL    MW420050   1.498   5.746   4.152  0.5834 -0.4091  1.0442
 5070SOL     OW20051   3.856   4.186   4.925 -0.0672 -0.3557 -0.2562
 5070SOL    HW220052   3.948   4.212   4.916  0.0249 -0.6166 -0.0517
 5070SOL    HW320053   3.848   4.108   4.871 -0.6780  0.8647 -2.0346
 5070SOL    MW420054   3.867   4.179   4.917  0.0117 -0.5822  0.0069
 5071SOL     OW20055   2.526   2.299   5.765 -0.5711 -0.2199  0.3058
 5071SOL    HW220056   2.587   2.369   5.741 -0.5912 -0.7038 -1.3025
 5071SOL    HW320057   2.443   2.343   5.779 -0.4037  0.1695  0.0917
 5071SOL    MW420058   2.523   2.314   5.764  0.0100  0.0610 -0.1611
 5072SOL     OW20059   3.777   5.061   4.672  0.0059  0.4666  0.2532
 5072SOL    HW220060   3.787   5.033   4.763  0.9180  0.1635  0.0656
 5072SOL    HW320061   3.855   5.029   4.628 -0.0564  1.2820 -0.4735
 5072SOL    MW420062   3.788   5.053   4.678  0.4166  0.0024 -0.6088
 5073SOL     OW20063   4.894   3.330   4.777  0.3610 -0.2897  0.1766
 5073SOL    HW220064   4.810   3.374   4.761  0.8462  0.5308 -0.1972
 5073SOL    HW320065   4.892   3.307   4.870 -0.5260 -0.8313  0.0315
 5073SOL    MW420066   4.883   3.333   4.787  0.5123 -0.4874  0.8005
 5074SOL     OW20067   0.130   0.526   0.897 -0.0671 -0.2167 -0.0593
 5074SOL    HW220068   0.103   0.582   0.825 -0.4723  1.4255  1.2881
 5074SOL    HW320069   0.112   0.437   0.867 -3.9350  0.5604 -0.5259
 5074SOL    MW420070   0.124   0.522   0.884  0.6717 -0.5322  0.3412
 5075SOL     OW20071   2.916   3.774   2.813 -0.2607 -0.0350  0.0189
 5075SOL    HW220072   2.983   3.712   2.784 -0.0120  0.7341 -1.1546
 5075SOL    HW320073   2.956   3.819   2.888 -0.7596 -1.7973  1.4017
 5075SOL    MW420074   2.930   3.772   2.819 -0.1179 -0.1624 -0.0023
 5076SOL     OW20075   2.760   4.527   6.142 -0.5817 -0.3293 -0.0835
 5076SOL    HW220076   2.799   4.513   6.228 -1.4083  1.7141  0.7005
 5076SOL    HW320077   2.743   4.621   6.139  0.0512 -0.2296 -2.7729
 5076SOL    MW420078   2.763   4.538   6.153 -0.3412 -0.0171  0.9182
 5077SOL     OW20079   2.497   0.729   4.447 -0.5345  0.0479  0.0407
 5077SOL    HW220080   2.431   0.726   4.517 -1.4809  0.1013 -0.8350
 5077SOL    HW320081   2.529   0.819   4.448 -2.3331  0.7478 -1.1939
 5077SOL    MW420082   2.493   0.741   4.457  0.5566 -0.6276 -0.0345
 5078SOL     OW20083   6.401   2.799   6.217  0.2127  0.9975  0.2794
 5078SOL    HW220084   6.431   2.827   6.131  0.6393  0.8339  0.3692
 5078SOL    HW320085   6.393   2.704   6.210 -0.8795  1.0962  0.0809
 5078SOL    MW420086   6.404   2.790   6.205  0.1257  0.0715 -0.1015
 5079SOL     OW20087   1.648   1.685   4.347  1.0424 -0.0866  0.0585
 5079SOL    HW220088   1.698   1.760   4.380  1.4000 -1.4864  3.1312
 5079SOL    HW320089   1.715   1.624   4.314  0.8294  0.4718 -1.4768
 5079SOL    MW420090   1.664   1.687   4.347  0.3806 -0.3849  0.2323
 5080SOL     OW20091   6.268   0.838   5.766  0.1217 -0.4636 -0.4559
 5080SOL    HW220092   6.190   0.876   5.807 -0.0620 -0.0683 -1.1552
 5080SOL    HW320093   6.301   0.907   5.709  1.1393 -0.5383  0.0237
 5080SOL    MW420094   6.262   0.852   5.764  0.4536 -0.1106 -0.8132
 5081SOL     OW20095   6.159   4.638   4.029 -0.2020  0.1308 -0.0558
 5081SOL    HW220096   6.204   4.612   3.948  0.6903 -0.4896  0.6134
 5081SOL    HW320097   6.224   4.688   4.077 -0.7102  0.4471  0.3096
 5081SOL    MW420098   6.174   4.641   4.024  0.0935  0.1908 -0.6976
 5082SOL     OW20099   0.343   2.977   2.404  0.1561  0.0611 -0.9806
 5082SOL    HW220100   0.410   3.004   2.467 -0.2532  2.4242 -1.4854
 5082SOL    HW320101   0.390   2.926   2.339  0.9808 -0.4911  0.0217
 5082SOL    MW420102   0.358   2.974   2.404 -0.5412  0.3465 -0.3683
 5083SOL     OW20103   4.569   2.215   4.228  0.5382 -0.1382  0.0487
 5083SOL    HW220104   4.614   2.224   4.312  1.0945 -0.2253 -0.2334
 5083SOL    HW320105   4.626   2.261   4.166 -0.2926  0.6530 -0.1359
 5083SOL    MW420106   4.583   2.222   4.231  0.5126  0.8380 -0.2050
 5084SOL     OW20107   1.727   0.978   6.163 -0.1436  0.4604  0.1371
 5084SOL    HW220108   1.785   1.000   6.236  0.0758  2.0812 -0.4963
 5084SOL    HW320109   1.787   0.956   6.091 -0.3542 -0.0441  0.1064
 5084SOL    MW420110   1.743   0.978   6.163  0.2950  0.4086  0.1272
 5085SOL     OW20111   1.397   1.100   5.621  0.2494 -0.1331 -0.2202
 5085SOL    HW220112   1.317   1.089   5.672  0.7867  0.2638  0.7169
 5085SOL    HW320113   1.467   1.069   5.677  0.8606  0.3636 -0.6839
 5085SOL    MW420114   1.395   1.095   5.635  0.5530 -0.2807  0.3561
 5086SOL     OW20115   4.634   3.358   2.648  0.5841  0.0981 -0.0616
 5086SOL    HW220116   4.651   3.264   2.641  0.0545  0.0511 -0.8032
 5086SOL    HW320117   4.549   3.364   2.691 -1.0401  0.0939 -2.9635
 5086SOL    MW420118   4.625   3.347   2.652 -0.2918  0.3964  0.1390
 5087SOL     OW20119   1.903   6.124   4.674  0.0263 -1.0738  0.0824
 5087SOL    HW220120   1.875   6.055   4.734 -1.3622  0.4156  1.2520
 5087SOL    HW320121   1.824   6.145   4.624  0.0964  0.3925  0.5381
 5087SOL    MW420122   1.889   6.118   4.676  0.4139  0.5916  0.5348
 5088SOL     OW20123   3.334   1.904   1.509 -0.2189 -0.6406 -0.0962
 5088SOL    HW220124   3.290   1.928   1.427 -0.2363 -0.0162  0.0927
 5088SOL    HW320125   3.352   1.810   1.499 -1.8556 -0.9915 -0.0630
 5088SOL    MW420126   3.330   1.895   1.497 -0.5276  0.1924  0.0454
 5089SOL     OW20127   5.485   4.830   6.193 -0.1053 -0.2564 -0.0104
 5089SOL    HW220128   5.443   4.889   6.130  0.6277 -0.1817 -0.4408
 5089SOL    HW320129   5.423   4.758   6.203 -0.9827  0.5378  0.4631
 5089SOL    MW420130   5.471   4.828   6.186 -0.2960  0.2772  0.5060
 5090SOL     OW20131   4.711   3.786   3.096 -0.1957 -0.0696  0.0151
 5090SOL    HW220132   4.728   3.811   3.005  2.3936  1.0232  0.7154
 5090SOL    HW320133   4.703   3.691   3.093 -0.9065  0.0040 -1.4315
 5090SOL    MW420134   4.712   3.777   3.083  0.8227 -0.8362 -0.5311
 5091SOL     OW20135   2.017   2.356   2.659  0.1897  0.1815 -0.4150
 5091SOL    HW220136   1.922   2.342   2.659  0.0852  0.7787  0.2190
 5091SOL    HW320137   2.034   2.406   2.579 -0.4378  2.3314  0.6905
 5091SOL    MW420138   2.006   2.361   2.649 -0.3244  0.5077 -0.1484
 5092SOL     OW20139   4.376   0.734   5.478  0.2519  0.0412  0.2057
 5092SOL    HW220140   4.316   0.799   5.441 -0.9929  0.0414  2.0629
 5092SOL    HW320141   4.331   0.702   5.556  2.4324 -0.4105  1.3584
 5092SOL    MW420142   4.362   0.738   5.484  0.4542  0.1890  0.2319
 5093SOL     OW20143   0.823   3.170   2.809 -0.0603  0.1367  0.2968
 5093SOL    HW220144   0.785   3.088   2.779 -2.1798  1.3397 -0.4790
 5093SOL    HW320145   0.778   3.189   2.892 -2.6761  2.4557 -1.4805
 5093SOL    MW420146   0.812   3.162   2.816 -0.3767  0.3410  0.3585
 5094SOL     OW20147   1.373   4.090   4.490 -0.3129 -0.4986  0.3626
 5094SOL    HW220148   1.315   4.053   4.556  0.4365 -2.4314  0.0021
 5094SOL    HW320149   1.456   4.044   4.502  0.2407  0.0651 -1.0525
 5094SOL    MW420150   1.377   4.079   4.500  0.7391  0.2069 -0.0108
 5095SOL     OW20151   5.728   2.503   6.263 -0.0819 -0.1538  0.4361
 5095SOL    HW220152   5.713   2.436   6.197 -0.9697 -0.1970  0.6680
 5095SOL    HW320153   5.664   2.571   6.242  0.7898  0.6136  0.2207
 5095SOL    MW420154   5.717   2.503   6.251 -0.1244 -0.2145  0.6521
 5096SOL     OW20155   3.304   0.141   3.990  0.6826 -0.7579  0.6302
 5096SOL    HW220156   3.253   0.060   4.002 -1.7502  0.8160  1.7930
 5096SOL    HW320157   3.280   0.172   3.903 -0.0106 -0.2802  0.9788
 5096SOL    MW420158   3.294   0.134   3.980  0.3834  0.3051  0.3538
 5097SOL     OW20159   5.753   0.006   2.731 -0.3139  0.2898 -0.1886
 5097SOL    HW220160   5.753   0.028   2.637 -0.0951 -0.3025 -0.3303
 5097SOL    HW320161   5.660  -0.000   2.753 -0.5488  4.1087  0.5443
 5097SOL    MW420162   5.741   0.008   2.721 -1.0142 -0.1269  0.7463
 5098SOL     OW20163   5.925   5.942   0.710 -0.1629 -0.0638 -0.3353
 5098SOL    HW220164   5.900   6.013   0.769 -2.7858 -0.9291 -0.2812
 5098SOL    HW320165   5.961   5.987   0.633  1.9599  1.1231  1.2096
 5098SOL    MW420166   5.927   5.958   0.708  0.0558  1.0879  0.4353
 5099SOL     OW20167   5.599   1.537   0.079 -0.8151  0.3159 -0.0010
 5099SOL    HW220168   5.551   1.456   0.059 -0.0299 -0.4268  1.0386
 5099SOL    HW320169   5.690   1.518   0.057 -0.8081  1.3671 -0.9705
 5099SOL    MW420170   5.605   1.524   0.073 -0.7254  0.4493 -0.4060
 5100SOL     OW20171   6.194   2.932   2.502  1.0524  0.1316 -0.3684
 5100SOL    HW220172   6.229   2.865   2.443 -0.8794 -0.8403 -0.4976
 5100SOL    HW320173   6.101   2.912   2.509  0.5877  2.2253  0.3981
 5100SOL    MW420174   6.187   2.921   2.495  0.4282  0.7592 -0.0723
 5101SOL     OW20175   6.101   4.376   3.838  0.2184  0.6106 -0.4941
 5101SOL    HW220176   6.010   4.404   3.835 -0.0956  0.1512  2.2618
 5101SOL    HW320177   6.104   4.300   3.780 -1.1430  0.6152 -0.6095
 5101SOL    MW420178   6.089   4.370   3.830 -0.1391  0.2383 -0.1667
 5102SOL     OW20179   2.484   2.048   3.210  0.2533  0.2501  0.2747
 5102SOL    HW220180   2.530   2.130   3.195 -1.7507  1.1473 -1.3571
 5102SOL    HW320181   2.494   1.998   3.129 -0.9797  0.1471  0.1661
 5102SOL    MW420182   2.491   2.052   3.198 -0.2379 -0.7065 -0.3747
 5103SOL     OW20183   4.009   3.871   5.783  0.1774  0.4197  0.6450
 5103SOL    HW220184   3.918   3.866   5.756  0.4369  0.4636 -0.2941
 5103SOL    HW320185   4.010   3.933   5.855 -0.6426 -0.1895  1.1886
 5103SOL    MW420186   3.997   3.878   5.789  0.0161  0.0652  0.6595
 5104SOL     OW20187   1.551   3.829   5.730 -0.6542  0.0187 -0.2758
 5104SOL    HW220188   1.579   3.875   5.651  2.8491 -0.6524  0.4157
 5104SOL    HW320189   1.533   3.899   5.793  3.2516  0.7286  0.3297
 5104SOL    MW420190   1.552   3.845   5.728 -0.8463  0.2088  0.2368
 5105SOL     OW20191   4.702   1.250   2.793  0.4570 -0.1491 -0.0558
 5105SOL    HW220192   4.608   1.242   2.777 -0.0065  0.7727  1.9347
 5105SOL    HW320193   4.729   1.327   2.743  0.6275 -1.5670 -2.2739
 5105SOL    MW420194   4.693   1.259   2.785  0.3472  0.3982  0.3939
 5106SOL     OW20195   4.478   3.820   0.042  0.0442  0.0050  0.5758
 5106SOL    HW220196   4.520   3.735   0.052 -0.1863 -0.2226 -0.3520
 5106SOL    HW320197   4.542   3.874  -0.004 -1.0737 -0.7068 -1.9712
 5106SOL    MW420198   4.492   3.816   0.038 -0.4841  0.5321  0.1615
 5107SOL     OW20199   4.756   1.237   4.955 -0.1495 -0.1315  0.1665
 5107SOL    HW220200   4.702   1.254   5.033 -0.4614 -2.3265  0.4841
 5107SOL    HW320201   4.694   1.209   4.888  0.2092  1.0077 -0.6768
 5107SOL    MW420202   4.741   1.236   4.957 -0.2259 -0.3786 -0.4554
 5108SOL     OW20203   4.717   1.586   5.350  0.4108 -0.2372 -0.3018
 5108SOL    HW220204   4.775   1.581   5.426  0.0602  1.4130  0.1009
 5108SOL    HW320205   4.739   1.668   5.307 -0.9224 -0.0787 -0.7272
 5108SOL    MW420206   4.727   1.596   5.354  0.2362 -0.0872 -0.2142
 5109SOL     OW20207   0.681   2.926   5.305 -0.4460  0.1617 -0.6169
 5109SOL    HW220208   0.650   2.959   5.220  0.4142  1.3945 -0.4781
 5109SOL    HW320209   0.767   2.887   5.286  0.8839  2.5877  0.0199
 5109SOL    MW420210   0.689   2.925   5.291  0.1462  0.4307  0.4081
 5110SOL     OW20211   0.104   3.898   3.610 -0.5941 -0.2884 -0.4166
 5110SOL    HW220212   0.192   3.935   3.617 -0.6398 -0.4616  1.4178
 5110SOL    HW320213   0.049   3.958   3.660 -1.4024 -0.5776 -0.9483
 5110SOL    MW420214   0.108   3.911   3.617  0.1522  0.1048 -0.2312
 5111SOL     OW20215   2.205   3.150   4.300 -0.1638  0.0494 -0.1118
 5111SOL    HW220216   2.128   3.095   4.317 -0.2379  0.1617 -0.0879
 5111SOL    HW320217   2.270   3.120   4.363 -0.2484  0.0768 -0.0115
 5111SOL    MW420218   2.203   3.139   4.310 -0.0776  0.2027 -0.0791
 5112SOL     OW20219   4.169   1.378   1.418  0.0520  0.0672  0.0035
 5112SOL    HW220220   4.156   1.473   1.421  1.8358  0.4211 -1.3576
 5112SOL    HW320221   4.229   1.359   1.490  2.3762  0.5732 -1.6754
 5112SOL    MW420222   4.175   1.388   1.428 -0.0416 -0.7567 -0.2820
 5113SOL     OW20223   4.792   0.348   4.489  0.3493 -0.2987  0.4003
 5113SOL    HW220224   4.873   0.397   4.500 -0.5630  1.2640  0.4755
 5113SOL    HW320225   4.795   0.315   4.399  1.0858 -0.3164  0.4262
 5113SOL    MW420226   4.803   0.350   4.479 -0.0123 -0.2218 -0.2847
 5114SOL     OW20227   4.152   4.093   2.782  0.4843  0.5808 -0.5237
 5114SOL    HW220228   4.151   4.164   2.718 -1.2572  0.0166 -1.1728
 5114SOL    HW320229   4.063   4.090   2.816  0.4616 -1.4057 -0.6591
 5114SOL    MW420230   4.140   4.102   2.778  0.9005  0.8451  0.6228
 5115SOL     OW20231   0.718   2.332   3.964  0.1868  0.2782  0.5977
 5115SOL    HW220232   0.666   2.401   4.005  0.7194  0.6737  0.6160
 5115SOL    HW320233   0.655   2.264   3.941 -0.5730  1.4457 -0.8773
 5115SOL    MW420234   0.703   2.332   3.967 -0.0226  0.3770 -0.2739
 5116SOL     OW20235   0.643   3.418   3.133 -0.4700 -0.2577  0.6288
 5116SOL    HW220236   0.736   3.437   3.141 -0.3167 -0.8999  0.3918
 5116SOL    HW320237   0.639   3.334   3.087 -1.1871  0.6132 -1.0204
 5116SOL    MW420238   0.654   3.410   3.128  0.2966 -0.2876  0.2078
 5117SOL     OW20239   3.686   3.188   0.755 -0.3515 -0.1148  0.4094
 5117SOL    HW220240   3.635   3.268   0.769 -1.7084 -0.8411 -0.2003
 5117SOL    HW320241   3.665   3.161   0.666 -1.8714 -2.4637  1.3966
 5117SOL    MW420242   3.677   3.195   0.745 -0.3089 -0.2118 -0.4459
 5118SOL     OW20243   3.891   4.243   4.252  0.1650 -0.1962 -0.2821
 5118SOL    HW220244   3.853   4.260   4.338  0.3237  2.8763 -0.7019
 5118SOL    HW320245   3.981   4.275   4.259  0.2147 -0.0003 -1.5625
 5118SOL    MW420246   3.898   4.249   4.264 -0.1987 -0.1250 -0.2058
 5119SOL     OW20247   3.012   3.134   4.152  0.4881 -0.3991  1.0741
 5119SOL    HW220248   2.975   3.175   4.230  1.0369  0.1346  1.0591
 5119SOL    HW320249   3.009   3.202   4.085  0.3374 -0.7482  0.7237
 5119SOL    MW420250   3.007   3.148   4.154 -0.0457  0.0204 -0.5117
 5120SOL     OW20251   0.906   0.419   0.680  0.0761 -0.8127  0.7587
 5120SOL    HW220252   0.841   0.368   0.728 -1.2832  1.2044  1.2138
 5120SOL    HW320253   0.916   0.374   0.596 -1.2286 -1.6869  1.0522
 5120SOL    MW420254   0.899   0.407   0.675 -0.0552  0.3918 -0.7324
 5121SOL     OW20255   1.038   1.128   3.903 -0.4006  0.2951  0.2888
 5121SOL    HW220256   1.043   1.109   3.996  1.6326 -0.7989  0.0170
 5121SOL    HW320257   0.945   1.124   3.882 -0.8877  0.5593  2.2515
 5121SOL    MW420258   1.027   1.125   3.912 -0.4610  0.2770  0.5807
 5122SOL     OW20259   3.166   2.464   2.567 -0.3238  0.2360 -0.2345
 5122SOL    HW220260   3.177   2.559   2.557  0.2801  0.2090  0.1348
 5122SOL    HW320261   3.254   2.431   2.585 -0.6789 -0.2545  0.6725
 5122SOL    MW420262   3.179   2.473   2.568 -0.0265  0.4141 -0.4808
 5123SOL     OW20263   4.301   3.002   1.822 -0.0104 -0.1226 -0.2134
 5123SOL    HW220264   4.363   3.047   1.880  0.9053 -0.3974 -0.9658
 5123SOL    HW320265   4.233   3.067   1.806  0.5864  0.5288 -0.1706
 5123SOL    MW420266   4.300   3.017   1.828  0.1434  0.7107 -0.3979
 5124SOL     OW20267   4.590   3.773   0.564 -0.7604 -0.2158  0.6487
 5124SOL    HW220268   4.654   3.707   0.537 -1.3375 -1.2623  1.7560
 5124SOL    HW320269   4.634   3.856   0.547  0.9966 -0.9025  1.5238
 5124SOL    MW420270   4.604   3.775   0.558  0.5328 -0.1518 -0.0778
 5125SOL     OW20271   2.848   3.277   0.392 -0.1111 -0.0179 -0.0702
 5125SOL    HW220272   2.773   3.272   0.333  1.4186 -0.8225 -2.0695
 5125SOL    HW320273   2.924   3.257   0.336  1.4295 -0.9632  2.2077
 5125SOL    MW420274   2.848   3.274   0.376  0.3367 -0.1163  0.6016
 5126SOL     OW20275   5.270   6.015   1.544  0.1586 -0.0057  0.5720
 5126SOL    HW220276   5.233   6.013   1.632 -0.3037  0.0122  0.3783
 5126SOL    HW320277   5.207   6.065   1.492  0.1427 -0.5045  0.0982
 5126SOL    MW420278   5.257   6.021   1.549  0.0817 -0.0940  0.3837
 5127SOL     OW20279   4.505   4.510   3.335 -0.3048  0.5815 -0.0628
 5127SOL    HW220280   4.446   4.489   3.262 -0.5970 -1.2511  0.6468
 5127SOL    HW320281   4.509   4.605   3.336 -1.2555  0.6734 -1.7141
 5127SOL    MW420282   4.498   4.520   3.325  0.0459  0.3485 -0.1067
 5128SOL     OW20283   1.067   3.228   6.275  0.0858  0.2700 -0.4498
 5128SOL    HW220284   1.071   3.323   6.269  0.7969  0.3234  0.6615
 5128SOL    HW320285   1.053   3.210   6.368  1.9305 -0.7522 -0.3275
 5128SOL    MW420286   1.066   3.238   6.286 -0.3601 -0.5913  0.3353
 5129SOL     OW20287   3.609   2.359   6.219 -0.0021  0.4095 -0.0565
 5129SOL    HW220288   3.610   2.388   6.310 -1.5874 -0.4916  0.2873
 5129SOL    HW320289   3.528   2.396   6.183  0.2230  0.1157 -0.8906
 5129SOL    MW420290   3.599   2.368   6.226 -0.1998 -0.2328  0.5963
 5130SOL     OW20291   5.739   0.769   2.326 -0.7452  0.6189  0.0429
 5130SOL    HW220292   5.657   0.718   2.329 -0.8313  0.6143 -1.7775
 5130SOL    HW320293   5.802   0.713   2.372 -0.8890 -1.1159 -1.7119
 5130SOL    MW420294   5.736   0.755   2.333 -0.0654  0.0579  0.1855
 5131SOL     OW20295   2.361   0.304   5.429 -0.1984  0.2445  0.0468
 5131SOL    HW220296   2.432   0.285   5.368 -1.2045  0.6147 -1.2833
 5131SOL    HW320297   2.378   0.248   5.505  1.4177  0.2297 -0.3013
 5131SOL    MW420298   2.372   0.294   5.431  0.1476  0.0555  0.2345
 5132SOL     OW20299   0.965   3.924   3.606 -0.1073  0.3935 -0.1384
 5132SOL    HW220300   1.034   3.919   3.541  1.4183  2.2209  1.2114
 5132SOL    HW320301   1.001   3.981   3.674 -2.2543 -0.0885  1.5051
 5132SOL    MW420302   0.979   3.931   3.607  0.3171  0.2406  0.4262
 5133SOL     OW20303   2.635   0.337   3.709  0.1564 -0.0410 -0.1265
 5133SOL    HW220304   2.570   0.337   3.638  1.6888  0.7590 -1.5877
 5133SOL    HW320305   2.629   0.249   3.747 -0.1751 -0.7519 -1.7472
 5133SOL    MW420306   2.625   0.325   3.705 -0.0611  0.5255 -0.1834
 5134SOL     OW20307   4.829   0.456   6.143  1.0325 -0.5026 -0.6850
 5134SOL    HW220308   4.900   0.402   6.178 -0.9012 -2.6776  0.1665
 5134SOL    HW320309   4.785   0.399   6.079  0.1726  0.8423 -1.3277
 5134SOL    MW420310   4.832   0.441   6.139  0.1043  0.4056  0.1347
 5135SOL     OW20311   3.025   0.707   2.822 -0.2631  0.0936  0.2900
 5135SOL    HW220312   3.086   0.778   2.841 -2.2735  1.8022  0.6531
 5135SOL    HW320313   2.955   0.748   2.771 -1.7484 -1.4957  0.9657
 5135SOL    MW420314   3.024   0.722   2.818  0.3949 -0.4949 -0.0312
 5136SOL     OW20315   5.845   5.302   0.204 -0.0702  0.0219  0.8184
 5136SOL    HW220316   5.926   5.310   0.154 -0.0642  2.7037  1.1129
 5136SOL    HW320317   5.777   5.286   0.138  0.0609  2.6480 -0.0716
 5136SOL    MW420318   5.847   5.301   0.189  0.4445 -0.3996  0.7385
 5137SOL     OW20319   2.062   4.689   3.796 -0.3425  0.7001 -0.5558
 5137SOL    HW220320   1.984   4.742   3.809  0.6066  1.8197  0.9991
 5137SOL    HW320321   2.132   4.737   3.841  1.0542 -0.7290 -1.0642
 5137SOL    MW420322   2.061   4.702   3.804  0.2851 -0.2098  0.9289
 5138SOL     OW20323   5.718   0.841   2.702  0.0495 -0.5127 -0.6297
 5138SOL    HW220324   5.721   0.753   2.665 -1.3629 -0.6945 -0.3884
 5138SOL    HW320325   5.666   0.891   2.639 -1.3615 -0.5300  0.4712
 5138SOL    MW420326   5.711   0.836   2.689  0.3934 -0.0865 -0.0862
 5139SOL     OW20327   3.918   1.799   2.097  0.1420 -0.0650  0.5179
 5139SOL    HW220328   3.917   1.893   2.079  1.3727 -0.1141  0.0519
 5139SOL    HW320329   3.982   1.789   2.168 -0.5384 -0.4761  1.0794
 5139SOL    MW420330   3.927   1.810   2.104 -0.0426  0.1643 -0.1020
 5140SOL     OW20331   1.865   1.860   2.165  0.1308  0.1152  0.2590
 5140SOL    HW220332   1.814   1.819   2.095  0.8687  0.5657 -0.5547
 5140SOL    HW320333   1.896   1.787   2.218  0.6533 -0.3179 -0.6385
 5140SOL    MW420334   1.862   1.845   2.163 -0.7976 -0.6914  0.0701
 5141SOL     OW20335   5.005   6.127   3.300 -0.3774  0.3335 -0.1569
 5141SOL    HW220336   4.942   6.087   3.360 -0.9903  0.5278 -0.6588
 5141SOL    HW320337   4.991   6.222   3.311 -0.7783  0.3654 -0.8955
 5141SOL    MW420338   4.995   6.135   3.309 -0.0772 -0.2120 -0.0566
 5142SOL     OW20339   2.500   1.706   4.460  0.2498 -0.5271 -0.0680
 5142SOL    HW220340   2.525   1.793   4.428 -0.4313 -0.9779 -1.9171
 5142SOL    HW320341   2.562   1.689   4.531 -0.0530  1.7464  0.8327
 5142SOL    MW420342   2.512   1.716   4.465 -0.4197  0.0235 -0.1487
 5143SOL     OW20343   1.406   6.137   2.906  0.4735  0.0480  0.1907
 5143SOL    HW220344   1.329   6.157   2.960 -0.3098 -0.4351 -0.7130
 5143SOL    HW320345   1.449   6.222   2.894 -0.7707  0.5937 -0.5533
 5143SOL    MW420346   1.401   6.151   2.912 -0.5080 -0.0257  0.1879
 5144SOL     OW20347   3.002   4.651   4.506  0.5646 -0.0401 -0.0116
 5144SOL    HW220348   2.922   4.693   4.474 -0.6606 -1.0252  1.6000
 5144SOL    HW320349   3.073   4.708   4.475 -0.9250  2.4815  0.9380
 5144SOL    MW420350   3.001   4.664   4.498 -0.7621 -0.5236 -0.1065
 5145SOL     OW20351   0.421   1.250   1.093  0.1647 -0.2677  0.1163
 5145SOL    HW220352   0.481   1.271   1.165 -0.8170 -0.6466  1.0643
 5145SOL    HW320353   0.456   1.170   1.055  1.2203  0.4431 -0.4479
 5145SOL    MW420354   0.434   1.242   1.097 -0.2922 -0.2303 -0.2394
 5146SOL     OW20355   4.975   2.791   5.872 -0.1985  0.2658 -0.1322
 5146SOL    HW220356   4.966   2.789   5.967  0.7507 -2.4086 -0.0253
 5146SOL    HW320357   4.897   2.838   5.842 -1.0821  0.2169  1.8996
 5146SOL    MW420358   4.964   2.797   5.880 -0.0301 -0.2410  0.2587
 5147SOL     OW20359   3.064   1.763   0.460  0.1013  0.1831 -0.0669
 5147SOL    HW220360   3.086   1.833   0.521  0.0952 -2.3075  3.0183
 5147SOL    HW320361   3.145   1.714   0.449 -0.1748 -0.0434 -1.2700
 5147SOL    MW420362   3.078   1.766   0.466  0.0700  0.5900  0.2187
 5148SOL     OW20363   2.839   0.015   0.939 -0.3774  0.2340  0.4438
 5148SOL    HW220364   2.817  -0.070   0.901 -0.9491  0.5770 -0.0137
 5148SOL    HW320365   2.763   0.070   0.920 -0.2505  0.6928  1.2261
 5148SOL    MW420366   2.826   0.011   0.931  0.3203  0.5980  0.0745
 5149SOL     OW20367   5.541   1.703   2.244 -0.4427  0.3037  0.5339
 5149SOL    HW220368   5.608   1.747   2.191 -0.0360 -1.2809 -0.3217
 5149SOL    HW320369   5.502   1.774   2.296  2.5171  1.2193  1.7918
 5149SOL    MW420370   5.545   1.718   2.244  0.4912  0.3262  0.2171
 5150SOL     OW20371   1.731   2.617   2.502 -0.4034 -0.2077 -0.1078
 5150SOL    HW220372   1.788   2.669   2.445 -2.3377 -0.5027 -2.4751
 5150SOL    HW320373   1.722   2.533   2.457 -0.7817 -1.0461  1.4698
 5150SOL    MW420374   1.737   2.613   2.488 -0.4141 -0.0670 -0.1981
 5151SOL     OW20375   5.067   4.238   1.251 -0.1909  0.8918 -0.2438
 5151SOL    HW220376   4.978   4.223   1.219 -0.6012 -0.1083  1.2776
 5151SOL    HW320377   5.076   4.180   1.326  2.2354 -0.0614 -1.1677
 5151SOL    MW420378   5.056   4.228   1.257  0.0918 -0.5748 -0.4916
 5152SOL     OW20379   1.343   2.932   0.668 -0.4048  0.3763 -0.0943
 5152SOL    HW220380   1.363   2.839   0.656 -1.1608  0.0654  0.8960
 5152SOL    HW320381   1.413   2.978   0.621  0.6115 -0.6872  0.3274
 5152SOL    MW420382   1.355   2.926   0.660 -0.4236 -0.1268  0.4675
 5153SOL     OW20383   0.742   6.313   5.324 -0.3483 -0.0374  0.0701
 5153SOL    HW220384   0.827   6.342   5.358 -0.6461 -2.2255  3.1477
 5153SOL    HW320385   0.720   6.376   5.255  1.8214  3.1229  2.0236
 5153SOL    MW420386   0.750   6.326   5.320  0.3657  0.1329  0.2200
 5154SOL     OW20387   5.041   3.053   2.200 -0.0646  0.1317  0.4829
 5154SOL    HW220388   5.023   2.963   2.224  2.5615 -0.3473  0.9806
 5154SOL    HW320389   5.066   3.049   2.108  0.2028  0.3194  0.5445
 5154SOL    MW420390   5.042   3.041   2.191  0.4758  0.4215 -0.1237
 5155SOL     OW20391   3.416   3.243   5.220 -0.5110  0.2023 -0.0293
 5155SOL    HW220392   3.406   3.300   5.143  0.9048 -0.7654 -0.9866
 5155SOL    HW320393   3.472   3.293   5.279  1.4132 -0.4512 -1.2180
 5155SOL    MW420394   3.422   3.257   5.217 -0.2597 -0.0599  0.3233
 5156SOL     OW20395   1.789   2.934   5.174  0.5634 -0.1442 -0.0125
 5156SOL    HW220396   1.853   2.970   5.114  0.5980  1.4921  0.9374
 5156SOL    HW320397   1.826   2.949   5.261 -1.3386  1.4630  0.5945
 5156SOL    MW420398   1.802   2.941   5.178  0.6221 -0.1724 -0.3456
 5157SOL     OW20399   4.733   1.732   5.968 -0.2360 -0.1269 -0.5635
 5157SOL    HW220400   4.673   1.669   5.929  1.4668 -1.1191 -1.7587
 5157SOL    HW320401   4.819   1.688   5.964  0.9303  2.0422 -0.9278
 5157SOL    MW420402   4.737   1.718   5.963 -0.0594 -0.0966 -0.1212
 5158SOL     OW20403   0.282   2.584   1.191  0.5351  0.0021  0.0827
 5158SOL    HW220404   0.277   2.674   1.224  0.2544  0.4868 -1.2242
 5158SOL    HW320405   0.241   2.588   1.105  0.4692 -1.4009  0.0296
 5158SOL    MW420406   0.276   2.596   1.184  0.5959 -0.1174 -0.6074
 5159SOL     OW20407   1.754   2.494   4.955 -0.7224 -0.0988  0.0403
 5159SOL    HW220408   1.792   2.536   5.032 -0.7379 -3.4739  2.1295
 5159SOL    HW320409   1.659   2.502   4.967 -0.7170  0.1397 -0.0850
 5159SOL    MW420410   1.746   2.501   4.967  0.0258 -0.3308  0.3245
 5160SOL     OW20411   2.929   4.722   4.755  0.1049  0.7898 -0.1611
 5160SOL    HW220412   3.012   4.757   4.786  0.3230  1.9150 -1.8663
 5160SOL    HW320413   2.949   4.688   4.668 -1.2018  1.0338 -0.5733
 5160SOL    MW420414   2.942   4.722   4.748  0.2507 -0.0989 -0.3827
 5161SOL     OW20415   0.202   1.034   0.527 -0.3327 -0.2651  0.3959
 5161SOL    HW220416   0.112   1.061   0.546 -0.6239 -1.4963  0.8445
 5161SOL    HW320417   0.193   0.967   0.459  0.4338  1.2479 -1.3020
 5161SOL    MW420418   0.189   1.029   0.520  0.2345  0.5475 -0.2626
 5162SOL     OW20419   3.329   1.723   1.852 -0.2960  0.0456 -0.2538
 5162SOL    HW220420   3.323   1.652   1.917  0.1697  0.1968 -0.0410
 5162SOL    HW320421   3.411   1.705   1.806  0.3925  1.0548  0.5342
 5162SOL    MW420422   3.339   1.711   1.855 -0.1474 -0.0797  0.2877
 5163SOL     OW20423   3.954   2.925   0.571 -0.4257 -1.1926 -0.1348
 5163SOL    HW220424   4.041   2.962   0.589 -0.9654  0.3565 -0.5122
 5163SOL    HW320425   3.898   2.964   0.639 -1.1198 -0.8702 -0.8722
 5163SOL    MW420426   3.958   2.935   0.583 -0.0992  0.0740 -0.1366
 5164SOL     OW20427   4.807   2.658   5.059 -0.0964  0.2065 -0.1552
 5164SOL    HW220428   4.734   2.720   5.058 -1.4114 -1.2551  1.0377
 5164SOL    HW320429   4.774   2.581   5.013  1.0591 -0.1170 -0.4826
 5164SOL    MW420430   4.793   2.656   5.053  0.4706 -0.1629 -0.0372
 5165SOL     OW20431   1.125   4.144   5.219  0.2311 -0.3686  0.2803
 5165SOL    HW220432   1.086   4.057   5.211  2.0535 -1.2755  0.7241
 5165SOL    HW320433   1.136   4.173   5.128 -2.6977  0.5873  0.1044
 5165SOL    MW420434   1.121   4.136   5.206  0.5949 -0.0190 -0.8789
 5166SOL     OW20435   3.370   2.610   4.127  0.0939  0.9323 -0.2466
 5166SOL    HW220436   3.428   2.685   4.118  1.1722 -0.0808 -2.6321
 5166SOL    HW320437   3.425   2.541   4.163 -0.6678  1.0125  1.1226
 5166SOL    MW420438   3.385   2.611   4.130 -0.2682  0.0217 -0.2652
 5167SOL     OW20439   0.508   1.207   5.855 -0.1446  0.5074 -0.1165
 5167SOL    HW220440   0.483   1.138   5.916  1.7255 -0.0419  0.0902
 5167SOL    HW320441   0.592   1.239   5.888  0.6156  0.6338 -2.0218
 5167SOL    MW420442   0.516   1.202   5.867 -0.5667  0.7842  0.2958
 5168SOL     OW20443   3.432   2.851   4.922  0.1467  0.2310 -0.0796
 5168SOL    HW220444   3.485   2.879   4.997  1.6265 -1.1876 -0.5486
 5168SOL    HW320445   3.457   2.911   4.852 -0.8185  1.1969  0.3699
 5168SOL    MW420446   3.442   2.862   4.923 -0.3495  0.4001 -0.1989
 5169SOL     OW20447   0.520   0.442   0.778 -0.1654  0.3292 -0.0029
 5169SOL    HW220448   0.438   0.401   0.750 -0.0608  0.4429 -0.4933
 5169SOL    HW320449   0.499   0.483   0.862 -0.7070  0.6583 -0.2913
 5169SOL    MW420450   0.506   0.442   0.785 -1.0066 -0.2278  0.7838
 5170SOL     OW20451   3.349   5.298   4.335  0.0567  0.3235  0.0870
 5170SOL    HW220452   3.385   5.260   4.416 -1.1694  1.7105  1.3446
 5170SOL    HW320453   3.255   5.277   4.339 -0.1070  0.8741 -0.7264
 5170SOL    MW420454   3.341   5.290   4.346  0.1984  0.2510 -0.7488
 5171SOL     OW20455   1.475   2.411   1.210  0.2368 -0.1966  0.2627
 5171SOL    HW220456   1.428   2.420   1.127  0.6962  0.5327  0.0715
 5171SOL    HW320457   1.549   2.354   1.190  3.5247  4.0500 -1.3074
 5171SOL    MW420458   1.479   2.404   1.196  0.6208 -0.2181  0.4501
 5172SOL     OW20459   2.045   1.946   3.190 -0.5575  0.1853 -0.1964
 5172SOL    HW220460   2.053   1.855   3.219  1.0537  0.6972  1.1314
 5172SOL    HW320461   2.051   1.942   3.095 -0.9716 -1.1278 -0.1812
 5172SOL    MW420462   2.047   1.934   3.181 -0.0115 -0.1496 -0.3290
 5173SOL     OW20463   2.730   0.944   4.699 -0.0348 -0.2626 -0.4292
 5173SOL    HW220464   2.663   0.951   4.632  1.2564 -0.6049 -1.8100
 5173SOL    HW320465   2.790   0.877   4.666  1.1946  0.3180  0.5586
 5173SOL    MW420466   2.729   0.936   4.686 -0.0422  0.8169 -0.2032
 5174SOL     OW20467   0.157   2.746   2.925  0.2796  0.5863  0.0579
 5174SOL    HW220468   0.152   2.651   2.933  1.6473  0.5051  0.1913
 5174SOL    HW320469   0.130   2.764   2.835 -1.4887  0.2318  0.4804
 5174SOL    MW420470   0.153   2.736   2.914 -0.0537  0.1371 -0.1537
 5175SOL     OW20471   0.242   4.879   0.341 -0.0848  0.3729  0.4391
 5175SOL    HW220472   0.256   4.858   0.249 -1.2024 -1.7070  0.6832
 5175SOL    HW320473   0.200   4.966   0.340  1.6237  1.2343 -0.8544
 5175SOL    MW420474   0.238   4.888   0.329 -0.5213  0.4993 -0.2663
 5176SOL     OW20475   6.250   6.147   0.568 -0.1280  0.2376  0.1128
 5176SOL    HW220476   6.338   6.114   0.546  0.0244  0.0039  1.0542
 5176SOL    HW320477   6.240   6.129   0.661 -0.7142  1.3344  0.2812
 5176SOL    MW420478   6.261   6.141   0.577 -0.0094  0.3763 -0.2149
 5177SOL     OW20479   0.642   1.498   0.685  0.1448  0.1295  0.0386
 5177SOL    HW220480   0.709   1.488   0.617  0.0900 -1.0634  0.1363
 5177SOL    HW320481   0.690   1.495   0.767 -0.0415 -1.0176  0.1180
 5177SOL    MW420482   0.657   1.496   0.687 -0.5220  0.5258  0.5774
 5178SOL     OW20483   2.267   2.317   0.925  0.0954 -0.1041  0.5477
 5178SOL    HW220484   2.315   2.235   0.921 -1.7112 -1.2048  0.1578
 5178SOL    HW320485   2.308   2.366   0.996  1.3858 -1.2103  0.5980
 5178SOL    MW420486   2.279   2.313   0.934 -0.4210 -0.1299  0.1447
 5179SOL     OW20487   2.061   0.974   5.267  0.1706  0.1011  0.1353
 5179SOL    HW220488   2.001   0.909   5.232  1.2342  0.0800 -1.7801
 5179SOL    HW320489   2.078   0.945   5.357 -1.4569 -0.7156  0.2263
 5179SOL    MW420490   2.055   0.962   5.274 -0.3016 -0.3192 -0.6888
 5180SOL     OW20491   5.415   4.817   5.805 -0.9244 -0.1838  0.4011
 5180SOL    HW220492   5.394   4.884   5.871 -1.9441 -1.1329  1.0767
 5180SOL    HW320493   5.343   4.754   5.811 -0.9191 -0.4311 -1.4690
 5180SOL    MW420494   5.402   4.818   5.815  0.0138 -0.1540 -0.9979
 5181SOL     OW20495   6.098   0.309   1.537 -0.4447 -0.0605  0.1182
 5181SOL    HW220496   6.104   0.384   1.595  0.0644 -0.2319  0.2957
 5181SOL    HW320497   6.188   0.291   1.511 -0.5724 -0.5453 -0.0050
 5181SOL    MW420498   6.111   0.316   1.541  0.5555 -0.1657  0.6261
 5182SOL     OW20499   0.986   3.947   6.175  0.0605 -0.2315 -0.6184
 5182SOL    HW220500   0.955   3.885   6.109 -0.3085 -1.6749  0.8383
 5182SOL    HW320501   0.920   4.016   6.176 -2.3515 -2.3602  1.1679
 5182SOL    MW420502   0.973   3.948   6.166 -0.2806 -0.7741  0.1360
 5183SOL     OW20503   4.812   5.569   3.306  0.5627  0.3402 -0.4240
 5183SOL    HW220504   4.902   5.548   3.283  0.2658 -2.1939  0.4108
 5183SOL    HW320505   4.810   5.567   3.402 -0.4672 -0.2034 -0.4380
 5183SOL    MW420506   4.823   5.566   3.316 -0.5644 -0.2900 -0.4403
 5184SOL     OW20507   5.992   2.167   0.756  0.5554 -0.0604  0.0273
 5184SOL    HW220508   6.085   2.175   0.775  0.5226 -1.4408  0.8939
 5184SOL    HW320509   5.950   2.237   0.806  1.0351 -0.0017  0.3458
 5184SOL    MW420510   5.999   2.178   0.765 -0.4706  0.3275  0.0384
 5185SOL     OW20511   4.516   2.488   6.403 -0.1954 -0.1120 -0.3747
 5185SOL    HW220512   4.519   2.584   6.398  0.0984 -0.1049 -0.0917
 5185SOL    HW320513   4.461   2.469   6.478  2.1789 -0.1142  1.4907
 5185SOL    MW420514   4.509   2.498   6.412 -0.4514  0.0232  0.2161
 5186SOL     OW20515   0.947   5.985   2.528 -0.2914  0.2865 -0.4198
 5186SOL    HW220516   0.987   6.068   2.555 -2.6896  0.7869  2.0901
 5186SOL    HW320517   0.882   6.010   2.464 -0.7127  0.3054  0.0109
 5186SOL    MW420518   0.944   6.000   2.523 -0.0810  0.3942  0.0766
 5187SOL     OW20519   1.303   3.694   5.655 -0.2492 -0.2127 -0.0382
 5187SOL    HW220520   1.392   3.718   5.682  1.4390 -1.1250 -4.0470
 5187SOL    HW320521   1.279   3.760   5.591 -2.6648  0.1112  1.0845
 5187SOL    MW420522   1.312   3.706   5.650  0.3449  0.1869  0.2059
 5188SOL     OW20523   0.569   0.505   5.884 -0.2185 -0.9204  0.1946
 5188SOL    HW220524   0.515   0.438   5.925 -2.2959  1.3675  1.4837
 5188SOL    HW320525   0.547   0.499   5.791 -0.2886 -2.0609  0.2706
 5188SOL    MW420526   0.559   0.495   5.877  0.1212  0.5014  0.4016
 5189SOL     OW20527   1.890   1.710   5.137  0.3387 -0.0769  0.1205
 5189SOL    HW220528   1.794   1.714   5.132  0.2946 -1.0590  0.0418
 5189SOL    HW320529   1.918   1.704   5.045  0.4784  0.1708  0.1457
 5189SOL    MW420530   1.881   1.710   5.124  0.3510  0.5547  0.3506
 5190SOL     OW20531   0.108   1.947   1.014 -0.1614  0.3194  0.1753
 5190SOL    HW220532   0.204   1.953   1.021 -0.3056  2.0577  1.1398
 5190SOL    HW320533   0.076   1.960   1.103 -1.3379  1.2144 -0.3465
 5190SOL    MW420534   0.117   1.949   1.026 -0.1085 -0.9932  0.0724
 5191SOL     OW20535   1.550   3.780   2.325 -0.2222 -0.3568  0.5445
 5191SOL    HW220536   1.620   3.740   2.377 -0.8122 -1.0508  0.8269
 5191SOL    HW320537   1.587   3.861   2.293  1.3248 -1.5006 -0.7167
 5191SOL    MW420538   1.564   3.785   2.328  0.1588  0.3835 -0.3568
 5192SOL     OW20539   1.029   3.240   4.271  0.5635 -0.2661  0.3259
 5192SOL    HW220540   1.083   3.233   4.193 -1.4551 -3.4326 -0.9568
 5192SOL    HW320541   1.058   3.168   4.327  0.0430  0.2146  1.2379
 5192SOL    MW420542   1.040   3.230   4.268  0.4491 -0.4056  0.0473
 5193SOL     OW20543   5.978   1.851   2.374 -0.1205  0.3385  0.0024
 5193SOL    HW220544   5.983   1.795   2.297 -2.1516  0.5716 -0.3515
 5193SOL    HW320545   5.999   1.794   2.448  0.5278 -0.2042 -0.5974
 5193SOL    MW420546   5.982   1.836   2.374 -0.1308  0.1104 -0.5672
 5194SOL     OW20547   3.069   5.751   5.508 -0.2118 -0.0834 -0.1180
 5194SOL    HW220548   3.029   5.815   5.449 -1.8369  0.6509  1.7023
 5194SOL    HW320549   3.008   5.744   5.582  1.1046 -1.9524  0.8795
 5194SOL    MW420550   3.056   5.758   5.510 -0.8140 -0.1417  0.2156
 5195SOL     OW20551   3.224   0.473   3.857 -0.2416 -0.0597  0.4132
 5195SOL    HW220552   3.136   0.483   3.893 -0.4634  1.7070 -0.5215
 5195SOL    HW320553   3.224   0.384   3.821 -1.0651 -0.6900  1.8702
 5195SOL    MW420554   3.212   0.463   3.857 -0.1532  0.0665  0.4559
 5196SOL     OW20555   0.966   1.469   3.207 -0.6990 -0.3190  0.6455
 5196SOL    HW220556   0.973   1.519   3.126  1.3155  0.8991  1.4959
 5196SOL    HW320557   0.872   1.454   3.217 -1.1836  1.2668 -0.8535
 5196SOL    MW420558   0.954   1.474   3.197 -0.1256 -0.1312  0.7605
 5197SOL     OW20559   1.668   2.998   3.097  0.4786 -0.0540  0.0267
 5197SOL    HW220560   1.643   2.991   3.005  0.4558  1.3729 -0.1004
 5197SOL    HW320561   1.618   2.929   3.141  0.4649 -0.7266 -1.0125
 5197SOL    MW420562   1.658   2.988   3.090  0.3549 -0.8189  0.3531
 5198SOL     OW20563   4.246   0.387   2.440  0.2493  0.4748 -0.1440
 5198SOL    HW220564   4.218   0.447   2.509 -1.4330 -0.2300 -0.1467
 5198SOL    HW320565   4.335   0.414   2.418 -0.9306  4.0047 -1.2512
 5198SOL    MW420566   4.254   0.398   2.446  0.6530  0.6837 -0.1949
 5199SOL     OW20567   6.158   5.092   4.822 -0.5736  0.3311  1.0983
 5199SOL    HW220568   6.114   5.146   4.888 -1.0384 -1.3902  2.2845
 5199SOL    HW320569   6.087   5.054   4.770 -0.2460  0.9827  0.1414
 5199SOL    MW420570   6.143   5.094   4.824 -0.4352  0.1060 -0.4179
 5200SOL     OW20571   4.059   2.270   0.560  0.1198  0.0655 -0.1249
 5200SOL    HW220572   4.061   2.177   0.540  0.7391 -0.5835  2.5684
 5200SOL    HW320573   3.991   2.278   0.627  2.7712  0.7561  2.7100
 5200SOL    MW420574   4.050   2.259   0.566  0.0435  0.0753  0.1802
 5201SOL     OW20575   2.092   3.816   5.282 -0.1178 -0.1266 -0.3625
 5201SOL    HW220576   2.157   3.858   5.338 -0.7281 -0.7375  0.8643
 5201SOL    HW320577   2.065   3.884   5.221  1.3012  0.2677 -0.5749
 5201SOL    MW420578   2.097   3.830   5.282  0.6197 -0.2688 -0.3612
 5202SOL     OW20579   2.249   5.455   5.607  1.1571  0.2646 -0.6214
 5202SOL    HW220580   2.322   5.502   5.649  0.1755 -0.6756  2.4350
 5202SOL    HW320581   2.248   5.369   5.649 -2.7160  0.8221  0.9329
 5202SOL    MW420582   2.258   5.450   5.618 -0.0732 -0.3780  0.8394
 5203SOL     OW20583   3.143   3.934   2.101 -0.2858 -0.1873  0.5716
 5203SOL    HW220584   3.222   3.986   2.117  2.1316 -3.2142 -0.5859
 5203SOL    HW320585   3.147   3.864   2.166 -0.9532 -1.5025 -0.7603
 5203SOL    MW420586   3.154   3.932   2.112 -0.4765  0.0180 -0.2326
 5204SOL     OW20587   0.896   5.026   5.949  0.8858 -0.4550 -0.7445
 5204SOL    HW220588   0.981   4.991   5.924  0.8069 -0.2445 -1.3376
 5204SOL    HW320589   0.887   5.105   5.896  1.5589  1.1224  1.3443
 5204SOL    MW420590   0.906   5.032   5.939  0.0468  0.2344 -0.3571
 5205SOL     OW20591   4.964   3.122   6.291 -0.5732  0.1231 -0.4241
 5205SOL    HW220592   4.992   3.117   6.199 -0.9593  0.2096 -0.5471
 5205SOL    HW320593   5.022   3.187   6.330 -0.2232 -0.1169 -0.5399
 5205SOL    MW420594   4.975   3.129   6.284  0.5973 -0.0949 -0.2053
 5206SOL     OW20595   1.920   0.582   6.092 -0.0295 -0.0521 -0.2247
 5206SOL    HW220596   1.990   0.516   6.094 -0.7105 -0.7896  1.1243
 5206SOL    HW320597   1.892   0.585   6.001  2.0895  0.6424 -0.9102
 5206SOL    MW420598   1.926   0.574   6.080 -0.2687 -0.4904 -0.4208
 5207SOL     OW20599   2.739   0.995   1.518  0.3953  0.2111 -0.5655
 5207SOL    HW220600   2.734   1.004   1.423 -1.6779  0.5327 -0.4767
 5207SOL    HW320601   2.708   1.079   1.552  1.1349  0.1084  0.3989
 5207SOL    MW420602   2.734   1.007   1.510  0.4934 -0.0546  0.0384
 5208SOL     OW20603   2.476   2.645   6.191  0.7045 -0.3548  0.6824
 5208SOL    HW220604   2.545   2.712   6.186  1.7052 -1.4404 -0.8413
 5208SOL    HW320605   2.522   2.563   6.205 -0.3320 -1.0324  0.2801
 5208SOL    MW420606   2.491   2.643   6.192 -0.1372 -0.1508  0.0787
 5209SOL     OW20607   3.938   0.753   0.618  0.0615  0.6540 -0.3044
 5209SOL    HW220608   4.018   0.710   0.647 -0.7712  0.0299  1.2138
 5209SOL    HW320609   3.901   0.695   0.552  0.7883  0.8939 -0.9333
 5209SOL    MW420610   3.944   0.740   0.613  0.1249  0.0720 -0.1432
 5210SOL     OW20611   0.154   0.971   2.390  0.3393  0.1242 -0.3354
 5210SOL    HW220612   0.181   0.907   2.323 -0.9410  0.3525 -1.1087
 5210SOL    HW320613   0.116   0.917   2.459  1.0068 -0.0692 -0.1132
 5210SOL    MW420614   0.153   0.955   2.390 -0.2611 -0.4536 -0.5170
 5211SOL     OW20615   2.716   3.844   4.200 -0.4748  0.2339  0.3944
 5211SOL    HW220616   2.642   3.905   4.206 -1.0422 -0.2286 -1.3303
 5211SOL    HW320617   2.680   3.768   4.154  1.1173  0.0522 -0.5959
 5211SOL    MW420618   2.701   3.842   4.195 -0.7421  0.2950  0.8567
 5212SOL     OW20619   6.109   3.106   0.624 -0.3237  0.5116 -0.4611
 5212SOL    HW220620   6.085   3.108   0.717 -0.9458  1.0247 -0.6263
 5212SOL    HW320621   6.147   3.192   0.608  1.5613 -0.2395 -0.2390
 5212SOL    MW420622   6.111   3.117   0.634  0.4943 -0.2963  0.3086
 5213SOL     OW20623   5.838   4.357   3.356 -0.4624  0.2022  0.5509
 5213SOL    HW220624   5.918   4.305   3.368 -0.9627 -0.3985  1.4089
 5213SOL    HW320625   5.767   4.296   3.374 -1.1310  0.7121 -0.2865
 5213SOL    MW420626   5.839   4.342   3.360 -0.0302 -0.1018 -0.3544
 5214SOL     OW20627   0.677   2.223   1.898  0.9033  0.5059  0.2350
 5214SOL    HW220628   0.765   2.188   1.911  0.5667 -0.1942  0.6403
 5214SOL    HW320629   0.620   2.146   1.894  0.3215  0.9426 -0.1821
 5214SOL    MW420630   0.681   2.208   1.899  0.5986  0.0458  0.1604
 5215SOL     OW20631   2.396   0.777   5.592 -0.7760  0.3951 -0.1729
 5215SOL    HW220632   2.387   0.795   5.685  0.7921  1.0083 -0.1062
 5215SOL    HW320633   2.371   0.685   5.582  2.5569 -0.8300  1.5012
 5215SOL    MW420634   2.391   0.767   5.603  0.1969 -0.0875 -0.0377
 5216SOL     OW20635   2.949   5.909   1.682  0.3823 -0.0019  0.5017
 5216SOL    HW220636   2.882   5.871   1.739  0.3915 -0.0859  0.4560
 5216SOL    HW320637   3.015   5.944   1.742  0.4261 -0.1520  0.5417
 5216SOL    MW420638   2.949   5.909   1.697  0.1535 -0.2987 -0.7235
 5217SOL     OW20639   2.707   0.411   3.343  0.3033  0.1418  0.0610
 5217SOL    HW220640   2.748   0.474   3.282 -0.4159  0.7070  0.1495
 5217SOL    HW320641   2.631   0.378   3.295  0.9402 -1.0275 -0.1625
 5217SOL    MW420642   2.703   0.415   3.328 -0.0029 -0.0822 -0.5552
 5218SOL     OW20643   4.726   3.591   1.731  0.3638 -0.2831  0.4121
 5218SOL    HW220644   4.725   3.509   1.683  1.3938  0.5789 -1.1732
 5218SOL    HW320645   4.790   3.645   1.685 -0.8255  1.6713  0.9291
 5218SOL    MW420646   4.734   3.588   1.718 -0.6169 -0.4431  0.9544
 5219SOL     OW20647   3.922   5.891   0.883 -0.2731  0.1259 -0.3764
 5219SOL    HW220648   3.993   5.827   0.888  0.4007  0.7377 -1.5822
 5219SOL    HW320649   3.886   5.894   0.971  1.2958 -0.1037  0.3033
 5219SOL    MW420650   3.927   5.883   0.895  0.3418  1.2034 -0.6648
 5220SOL     OW20651   2.777   5.700   5.618 -0.3249  0.3222 -0.1742
 5220SOL    HW220652   2.832   5.675   5.693 -2.1164  0.0529  1.1057
 5220SOL    HW320653   2.737   5.783   5.644 -1.7683 -0.2850 -0.3718
 5220SOL    MW420654   2.779   5.708   5.631  0.2846  0.1603  0.1245
 5221SOL     OW20655   1.097   4.267   0.917  0.2612 -0.3889  0.1718
 5221SOL    HW220656   1.069   4.210   0.988 -1.8689 -0.4320 -0.6333
 5221SOL    HW320657   1.191   4.281   0.933 -0.0012 -0.9375  2.5714
 5221SOL    MW420658   1.106   4.262   0.928 -0.0496  0.3870 -0.0397
 5222SOL     OW20659   2.380   3.301   5.931 -0.2004 -0.4953  0.5880
 5222SOL    HW220660   2.411   3.343   5.851  1.9036 -2.7990  0.0692
 5222SOL    HW320661   2.419   3.352   6.002 -0.1116  0.1490  0.0787
 5222SOL    MW420662   2.389   3.313   5.930  0.1928  0.3630 -0.6168
 5223SOL     OW20663   1.002   3.512   5.852  0.1970  0.3690 -0.2618
 5223SOL    HW220664   1.046   3.583   5.898  0.3861  1.5822 -2.2038
 5223SOL    HW320665   0.932   3.555   5.803 -0.3989 -0.9465 -0.6101
 5223SOL    MW420666   0.999   3.527   5.852 -0.0713 -0.3391 -0.3555
 5224SOL     OW20667   1.484   0.465   4.827 -0.2534  0.5928 -0.1194
 5224SOL    HW220668   1.570   0.423   4.819 -0.8951 -0.9433  0.6567
 5224SOL    HW320669   1.450   0.433   4.911 -1.4868  1.3788 -0.2998
 5224SOL    MW420670   1.491   0.456   4.837 -0.2379  0.0336  0.2087
 5225SOL     OW20671   1.590   1.610   3.137 -0.5937  0.0426  0.1529
 5225SOL    HW220672   1.591   1.704   3.157 -0.1213  0.2412 -0.7185
 5225SOL    HW320673   1.535   1.571   3.205  1.3905  0.5656  2.1542
 5225SOL    MW420674   1.583   1.618   3.148 -0.3147 -0.2957 -0.1774
 5226SOL     OW20675   1.603   0.837   4.150 -0.1711 -0.1590 -0.5390
 5226SOL    HW220676   1.683   0.805   4.109 -0.2944 -1.3373  0.0665
 5226SOL    HW320677   1.607   0.803   4.240 -1.7191 -1.0033 -0.7390
 5226SOL    MW420678   1.614   0.828   4.157 -0.3763  0.3994 -0.5731
 5227SOL     OW20679   1.726   6.415   2.019 -0.1945  0.0474  0.1533
 5227SOL    HW220680   1.779   6.339   1.993 -0.4181 -0.4375  1.0817
 5227SOL    HW320681   1.636   6.387   2.006 -0.3965 -0.7291  2.6637
 5227SOL    MW420682   1.721   6.401   2.014  0.6950 -0.1008 -0.4746
 5228SOL     OW20683   3.087   0.673   1.294 -0.4072  0.4403  0.0098
 5228SOL    HW220684   3.116   0.597   1.244 -1.6654  0.8700 -1.4634
 5228SOL    HW320685   3.123   0.659   1.382  0.2785 -1.3037 -0.4968
 5228SOL    MW420686   3.096   0.661   1.299  0.2727  0.3388  0.0936
 5229SOL     OW20687   4.022   6.212   3.269 -0.0143 -0.1067 -0.2006
 5229SOL    HW220688   3.942   6.260   3.247 -0.0478 -0.2318 -0.3563
 5229SOL    HW320689   3.996   6.154   3.341 -0.2417 -0.6352 -0.6967
 5229SOL    MW420690   4.008   6.211   3.275  0.1001 -0.1523 -0.0037
 5230SOL     OW20691   5.962   3.893   2.410  0.1942 -0.4769 -0.6624
 5230SOL    HW220692   6.002   3.960   2.465 -1.4704  0.4593 -0.5454
 5230SOL    HW320693   6.036   3.839   2.380  1.4093  0.6046  0.3032
 5230SOL    MW420694   5.977   3.894   2.413  0.2406 -0.0597 -0.3053
 5231SOL     OW20695   5.868   4.216   1.341  0.0860  0.7070 -0.6823
 5231SOL    HW220696   5.887   4.279   1.271  0.8864  1.2949  0.0413
 5231SOL    HW320697   5.792   4.254   1.387  0.8438  1.4118  0.0319
 5231SOL    MW420698   5.860   4.229   1.338  0.4022 -0.4944  0.5358
 5232SOL     OW20699   6.361   2.929   0.861  0.0604 -0.2691 -0.3162
 5232SOL    HW220700   6.413   2.973   0.794  2.4196  2.3707  2.9070
 5232SOL    HW320701   6.415   2.855   0.889 -0.3431 -0.6092 -0.4114
 5232SOL    MW420702   6.375   2.925   0.856 -0.8279  0.1156 -0.0230
 5233SOL     OW20703   2.253   1.182   2.961 -0.3071  0.3346  0.0869
 5233SOL    HW220704   2.170   1.170   2.915  0.4754  0.0176 -1.2957
 5233SOL    HW320705   2.238   1.142   3.047 -1.6241  0.4235 -0.0775
 5233SOL    MW420706   2.240   1.175   2.966  0.4538  0.4140 -1.0429
 5234SOL     OW20707   1.267   1.021   6.365 -0.2049  0.9234 -0.3712
 5234SOL    HW220708   1.294   1.076   6.439  0.6525  0.8004 -0.5861
 5234SOL    HW320709   1.180   0.989   6.390 -0.1374  1.2879  0.3577
 5234SOL    MW420710   1.259   1.024   6.378 -0.3803  0.4923 -0.0423
 5235SOL     OW20711   1.590   1.252   0.954 -0.4201  0.2272 -0.2985
 5235SOL    HW220712   1.604   1.265   0.860  0.2977  0.7245 -0.1284
 5235SOL    HW320713   1.622   1.164   0.971  0.0546  0.3772 -0.4040
 5235SOL    MW420714   1.596   1.242   0.944 -0.1613 -0.2785 -0.2429
 5236SOL     OW20715   1.815   6.152   4.200  0.3319  0.1772  0.2332
 5236SOL    HW220716   1.900   6.137   4.160 -0.0631  0.7091 -0.8484
 5236SOL    HW320717   1.809   6.248   4.208  0.0913  0.1126  0.8600
 5236SOL    MW420718   1.825   6.163   4.196 -0.7564  0.1242  0.4106
 5237SOL     OW20719   2.147   4.426   2.235  0.0845 -0.4940 -0.3006
 5237SOL    HW220720   2.132   4.368   2.159 -0.8763  0.5038 -0.9027
 5237SOL    HW320721   2.242   4.431   2.243  0.2407  0.1235 -2.0563
 5237SOL    MW420722   2.158   4.419   2.226  0.4218  0.0448  0.4295
 5238SOL     OW20723   3.853   6.171   5.677 -0.1202  0.2966 -1.0322
 5238SOL    HW220724   3.856   6.106   5.607 -4.6342 -0.0446 -1.2059
 5238SOL    HW320725   3.863   6.255   5.633  1.0840 -0.0383 -1.4434
 5238SOL    MW420726   3.855   6.174   5.662  0.1302  0.0154  0.5706
 5239SOL     OW20727   4.241   2.203   0.156 -0.9259 -0.1707 -0.3087
 5239SOL    HW220728   4.185   2.208   0.079 -1.7072 -0.6813  0.2182
 5239SOL    HW320729   4.322   2.161   0.124 -1.0836 -0.0141 -0.9276
 5239SOL    MW420730   4.245   2.198   0.141  0.8789  0.4350  0.0816
 5240SOL     OW20731   5.361   3.507   4.826  0.4746  0.8052 -0.1382
 5240SOL    HW220732   5.371   3.579   4.763 -1.7740  1.3764  0.0943
 5240SOL    HW320733   5.319   3.438   4.776  1.2910  0.1706  0.0331
 5240SOL    MW420734   5.357   3.508   4.811 -0.1507 -0.3738  0.1668
 5241SOL     OW20735   3.088   1.213   0.114 -0.0977 -0.0811  0.4751
 5241SOL    HW220736   3.167   1.268   0.106  0.6047 -0.9228  1.4191
 5241SOL    HW320737   3.122   1.124   0.116 -1.0865 -0.4509  0.8728
 5241SOL    MW420738   3.103   1.209   0.113  0.0904  0.2048 -0.3199
 5242SOL     OW20739   5.066   6.341   5.268  0.8102  0.7180  0.1916
 5242SOL    HW220740   5.123   6.410   5.235 -0.8661  2.1302  0.0714
 5242SOL    HW320741   4.998   6.332   5.201 -0.2839  0.6176  1.2729
 5242SOL    MW420742   5.065   6.349   5.255 -0.4750 -0.5796  0.0989
 5243SOL     OW20743   2.201   4.711   0.143 -0.1537 -0.2398 -0.6129
 5243SOL    HW220744   2.145   4.717   0.221 -0.9399  0.7266 -1.2147
 5243SOL    HW320745   2.256   4.790   0.148  2.4822 -2.0338  0.8952
 5243SOL    MW420746   2.201   4.722   0.154 -0.1355  0.4649 -0.6535
 5244SOL     OW20747   1.961   0.842   0.490 -0.1478 -0.0144  0.3369
 5244SOL    HW220748   1.870   0.871   0.497 -0.1714 -0.4276  2.2507
 5244SOL    HW320749   1.956   0.761   0.439 -0.7670  0.2762 -0.0832
 5244SOL    MW420750   1.948   0.835   0.484  0.0070  0.1197 -0.5320
 5245SOL     OW20751   0.371   6.209   3.832  0.0435 -0.1450  0.3555
 5245SOL    HW220752   0.354   6.139   3.769  1.4806  0.0485 -0.2996
 5245SOL    HW320753   0.452   6.183   3.876 -0.2438  0.3644  1.2027
 5245SOL    MW420754   0.380   6.197   3.829  0.3184 -0.8574 -0.1595
 5246SOL     OW20755   2.034   5.920   4.434  0.1789  0.1473 -0.0108
 5246SOL    HW220756   2.095   5.847   4.437  1.4362  1.1759  0.4830
 5246SOL    HW320757   1.957   5.885   4.389  1.3196 -1.0448 -1.1245
 5246SOL    MW420758   2.032   5.906   4.428 -0.0890 -0.3715 -0.1389
 5247SOL     OW20759   2.386   2.819   2.597  0.0909  0.3609 -0.0046
 5247SOL    HW220760   2.363   2.736   2.640 -2.3544 -0.2044 -2.1815
 5247SOL    HW320761   2.438   2.793   2.521  1.5065  1.0810  0.6844
 5247SOL    MW420762   2.390   2.804   2.593  0.2394 -0.1047  0.4514
 5248SOL     OW20763   3.104   5.186   4.390  0.0091  0.2124  0.5078
 5248SOL    HW220764   3.107   5.120   4.320  0.0248  0.0391  0.6708
 5248SOL    HW320765   3.116   5.135   4.471 -2.5787  0.0468  0.8661
 5248SOL    MW420766   3.106   5.170   4.392 -0.6828 -0.0763 -0.1276
 5249SOL     OW20767   3.154   4.279   1.880  0.5049  0.3352  0.0948
 5249SOL    HW220768   3.113   4.206   1.834  1.2331 -0.3125  0.4540
 5249SOL    HW320769   3.214   4.238   1.942 -1.7842  1.0719  3.0194
 5249SOL    MW420770   3.157   4.264   1.882  0.0577  0.5128  0.2720
 5250SOL     OW20771   0.280   2.141   5.343  0.1285 -0.1138  0.1240
 5250SOL    HW220772   0.320   2.079   5.405 -0.5361  0.2199  0.9053
 5250SOL    HW320773   0.186   2.130   5.355 -0.0072  1.0842  0.3372
 5250SOL    MW420774   0.273   2.132   5.353 -0.0214 -0.4099  0.4227
 5251SOL     OW20775   1.544   1.410   5.400  0.2058 -0.3333  0.3506
 5251SOL    HW220776   1.508   1.430   5.486 -0.2713  0.8195 -0.0954
 5251SOL    HW320777   1.631   1.449   5.399  0.9144 -1.8384  0.9013
 5251SOL    MW420778   1.550   1.418   5.411  0.2992  0.0918  0.2788
 5252SOL     OW20779   2.477   1.227   4.704  0.3450  0.7052 -0.3390
 5252SOL    HW220780   2.567   1.200   4.717  0.5883  0.1744 -2.6752
 5252SOL    HW320781   2.465   1.226   4.609 -2.6133 -0.9758 -0.0774
 5252SOL    MW420782   2.487   1.224   4.693 -0.5832 -0.4169 -0.3320
 5253SOL     OW20783   2.156   3.539   1.463  0.1567  0.3026  0.0656
 5253SOL    HW220784   2.122   3.598   1.530  2.3310 -0.6856  2.1933
 5253SOL    HW320785   2.199   3.596   1.400  1.4385  1.1069  1.6082
 5253SOL    MW420786   2.157   3.554   1.463 -0.2544 -0.2318 -0.4285
 5254SOL     OW20787   1.891   3.428   0.887  0.3235  0.6039 -0.1258
 5254SOL    HW220788   1.977   3.389   0.905  0.3606  0.7665  0.0590
 5254SOL    HW320789   1.842   3.416   0.969  1.0180  2.7659  0.6883
 5254SOL    MW420790   1.896   3.421   0.901  0.5111 -0.0842  0.7309
 5255SOL     OW20791   5.459   3.896   3.457 -0.0962  0.1255 -0.0569
 5255SOL    HW220792   5.482   3.809   3.423 -0.0609 -0.4364  1.3391
 5255SOL    HW320793   5.363   3.899   3.450 -0.3382 -0.9747  1.9411
 5255SOL    MW420794   5.449   3.885   3.451  0.7750  0.3465 -0.4892
 5256SOL     OW20795   4.014   0.852   4.469  0.0949  0.5804 -0.4226
 5256SOL    HW220796   4.059   0.931   4.496 -1.3674  0.5504  2.4813
 5256SOL    HW320797   4.078   0.805   4.415  2.3727  1.9469  0.9275
 5256SOL    MW420798   4.028   0.856   4.465  0.2701 -0.3528  0.8729
 5257SOL     OW20799   2.264   5.596   4.728  0.0013  0.0500 -0.8138
 5257SOL    HW220800   2.214   5.515   4.738 -0.0006  0.2272  0.9372
 5257SOL    HW320801   2.349   5.576   4.766  0.4091  0.5197 -1.4650
 5257SOL    MW420802   2.268   5.583   4.734 -0.1747  0.4029  0.2256
 5258SOL     OW20803   5.301   2.740   4.587 -0.1504  0.2536  0.0242
 5258SOL    HW220804   5.245   2.806   4.545  1.2523  1.7024  0.3397
 5258SOL    HW320805   5.240   2.678   4.625 -1.5449  1.4786 -0.1213
 5258SOL    MW420806   5.286   2.741   4.587  0.0763 -0.4157  0.0371
 5259SOL     OW20807   3.047   0.380   3.084 -0.0188 -0.2092  0.1684
 5259SOL    HW220808   3.018   0.372   2.994 -1.6136 -2.1723  0.7778
 5259SOL    HW320809   3.129   0.430   3.079  0.1743 -0.6627 -2.3816
 5259SOL    MW420810   3.054   0.386   3.072 -0.0982  0.2713  0.1899
 5260SOL     OW20811   5.326   1.723   4.216 -0.1336 -0.4762 -0.9158
 5260SOL    HW220812   5.308   1.630   4.198  0.5849 -0.4713 -1.6992
 5260SOL    HW320813   5.273   1.771   4.153 -1.2876 -0.3056  0.1501
 5260SOL    MW420814   5.317   1.717   4.206  0.1525  0.1073  0.2233
 5261SOL     OW20815   2.240   3.218   2.137 -0.0224  0.0540 -0.6445
 5261SOL    HW220816   2.176   3.278   2.101 -1.9173 -2.8621 -2.5495
 5261SOL    HW320817   2.325   3.257   2.115 -1.1432  1.5168 -2.6717
 5261SOL    MW420818   2.243   3.231   2.129 -0.1358 -0.1375  0.0856
 5262SOL     OW20819   3.675   1.439   2.316 -0.3023 -0.2176 -0.2611
 5262SOL    HW220820   3.708   1.392   2.240  1.4701  0.8388 -0.1933
 5262SOL    HW320821   3.606   1.382   2.351 -0.0584 -1.4670 -1.7130
 5262SOL    MW420822   3.671   1.425   2.311 -0.2787 -0.2243  0.1262
 5263SOL     OW20823   3.585   1.347   0.941  0.3988  0.4183 -0.1520
 5263SOL    HW220824   3.612   1.274   0.997  0.6806  0.3314 -0.3942
 5263SOL    HW320825   3.541   1.408   1.000  0.4379  0.1967  0.1095
 5263SOL    MW420826   3.583   1.345   0.956  0.5978 -0.0995 -0.0195
 5264SOL     OW20827   3.570   0.640   5.687 -0.6811  0.4894  0.3438
 5264SOL    HW220828   3.657   0.674   5.666 -0.6849  0.6101  0.5237
 5264SOL    HW320829   3.550   0.677   5.773 -0.4948 -0.3387  0.7481
 5264SOL    MW420830   3.579   0.649   5.695 -0.0641  0.0762  0.7542
 5265SOL     OW20831   2.631   3.038   5.999 -0.0627  0.2926 -0.4642
 5265SOL    HW220832   2.642   3.113   6.058 -1.2090 -0.1887  0.3989
 5265SOL    HW320833   2.551   3.057   5.951 -0.7778 -0.7045  0.2947
 5265SOL    MW420834   2.622   3.051   6.000  0.2219  0.3269 -0.6304
 5266SOL     OW20835   3.952   1.394   1.071 -0.4402  0.3183 -0.2406
 5266SOL    HW220836   3.878   1.453   1.057 -0.3859  0.1518 -1.4116
 5266SOL    HW320837   4.029   1.450   1.067 -0.4383  0.3045 -0.4315
 5266SOL    MW420838   3.952   1.409   1.068  0.0748 -0.3785 -0.6680
 5267SOL     OW20839   5.179   0.393   5.302  0.4671 -0.2918 -0.3355
 5267SOL    HW220840   5.260   0.341   5.312  0.7373  0.1169 -0.3788
 5267SOL    HW320841   5.156   0.383   5.210  1.1613  0.5968 -0.6163
 5267SOL    MW420842   5.187   0.385   5.291  0.0601 -0.1279  0.8089
 5268SOL     OW20843   5.165   1.932   1.038 -0.0668 -0.1252 -0.3698
 5268SOL    HW220844   5.252   1.901   1.013  0.4116  1.2554 -0.4822
 5268SOL    HW320845   5.137   1.872   1.107 -0.0703 -2.0633 -1.9698
 5268SOL    MW420846   5.173   1.920   1.044 -0.0075 -0.1794 -0.3464
 5269SOL     OW20847   3.449   1.750   4.922  0.3006  0.2281 -0.2883
 5269SOL    HW220848   3.466   1.674   4.977  0.8024  0.8518  0.4322
 5269SOL    HW320849   3.413   1.713   4.841  0.1553 -0.7416  0.2027
 5269SOL    MW420850   3.446   1.735   4.919 -0.1499 -0.3852 -0.3770
 5270SOL     OW20851   1.141   2.946   3.396 -0.8792 -0.3316  0.3202
 5270SOL    HW220852   1.052   2.973   3.420 -0.9374 -0.3721  0.1533
 5270SOL    HW320853   1.154   2.984   3.309 -0.4360  0.3540  0.6778
 5270SOL    MW420854   1.131   2.955   3.388 -0.1451  0.0923 -0.2522
 5271SOL     OW20855   2.511   0.925   0.341  0.4617 -0.1572  0.2369
 5271SOL    HW220856   2.476   1.012   0.322  1.3027 -0.1062 -1.1472
 5271SOL    HW320857   2.433   0.873   0.364 -0.4727  0.1513 -2.0193
 5271SOL    MW420858   2.496   0.930   0.342  1.3450  0.1481 -0.0129
 5272SOL     OW20859   3.243   4.820   3.527  0.1352 -0.6329 -0.8148
 5272SOL    HW220860   3.255   4.743   3.581 -0.3307  0.1249  0.4125
 5272SOL    HW320861   3.298   4.805   3.450  2.0600 -1.0570  0.5767
 5272SOL    MW420862   3.251   4.808   3.524  0.1920  0.4349  0.3507
 5273SOL     OW20863   5.440   1.451   0.368  0.0097  0.6458  0.5029
 5273SOL    HW220864   5.474   1.468   0.281 -1.8337  0.9698 -0.2028
 5273SOL    HW320865   5.468   1.527   0.420  0.1558  1.0101 -0.1021
 5273SOL    MW420866   5.448   1.463   0.364 -0.0978  0.0642  0.0712
 5274SOL     OW20867   3.118   5.064   5.075 -0.0761 -0.0363  0.2703
 5274SOL    HW220868   3.024   5.057   5.095 -0.6942 -0.1820 -2.2816
 5274SOL    HW320869   3.136   4.989   5.018  0.9841  1.2734 -1.2158
 5274SOL    MW420870   3.108   5.053   5.070 -0.3992 -0.1170  0.2187
 5275SOL     OW20871   1.977   3.618   5.771 -0.0343 -0.3588 -0.5176
 5275SOL    HW220872   1.908   3.678   5.800  0.4258 -0.0920  0.0316
 5275SOL    HW320873   2.058   3.665   5.789  0.3051 -0.8703 -0.7223
 5275SOL    MW420874   1.978   3.632   5.777 -0.3047  0.3409  0.5743
 5276SOL     OW20875   5.177   5.131   6.316 -0.2151  0.1160 -0.9411
 5276SOL    HW220876   5.186   5.135   6.412  0.4888  0.3057 -1.0074
 5276SOL    HW320877   5.263   5.158   6.283 -0.4667  0.0928 -1.6305
 5276SOL    MW420878   5.189   5.135   6.325  0.0513 -0.3867 -0.2078
 5277SOL     OW20879   0.112   2.838   1.307 -0.6450 -0.2997 -0.0901
 5277SOL    HW220880   0.150   2.853   1.221  0.0928 -1.0732  0.0780
 5277SOL    HW320881   0.035   2.895   1.311 -0.1136  0.4947 -0.8697
 5277SOL    MW420882   0.107   2.847   1.296 -1.1691 -0.0815  0.3472
 5278SOL     OW20883   3.269   2.242   2.064 -0.1047 -0.0201 -0.4276
 5278SOL    HW220884   3.185   2.274   2.029  0.4197  0.1177 -1.6184
 5278SOL    HW320885   3.292   2.169   2.006  0.6131 -0.0361 -0.1240
 5278SOL    MW420886   3.261   2.237   2.052 -0.1436 -0.3293 -0.1049
 5279SOL     OW20887   2.043   3.974   4.223  0.2715  0.4060 -0.1307
 5279SOL    HW220888   2.014   4.039   4.287 -1.9925 -2.0073  1.4834
 5279SOL    HW320889   2.104   3.918   4.271 -1.3034 -1.3201 -0.0053
 5279SOL    MW420890   2.047   3.975   4.238 -0.1445  0.3722  0.3786
 5280SOL     OW20891   1.530   4.435   2.156 -0.3569 -0.2318  0.8661
 5280SOL    HW220892   1.528   4.529   2.175  1.2251  0.0432 -0.1213
 5280SOL    HW320893   1.612   4.404   2.195 -0.1061 -0.8736 -0.1178
 5280SOL    MW420894   1.540   4.443   2.163  0.2269  0.0867 -0.0036
 5281SOL     OW20895   3.380   0.563   4.067  0.3696 -0.6128 -0.2618
 5281SOL    HW220896   3.329   0.536   3.991  0.9872  0.4475 -1.0761
 5281SOL    HW320897   3.384   0.659   4.060  1.7334 -0.6136  0.2660
 5281SOL    MW420898   3.374   0.572   4.056  0.1169  0.1049  0.0236
 5282SOL     OW20899   3.112   4.803   5.481 -0.0886  0.5118  0.0565
 5282SOL    HW220900   3.164   4.856   5.420  2.3303  0.5821  2.0173
 5282SOL    HW320901   3.106   4.856   5.560 -1.4919 -0.3477  0.5562
 5282SOL    MW420902   3.118   4.817   5.483 -0.9908 -0.7924  0.3083
 5283SOL     OW20903   5.978   1.277   1.641  0.0798 -0.4311 -0.1168
 5283SOL    HW220904   5.943   1.193   1.610  0.4371  0.1953 -2.3845
 5283SOL    HW320905   5.941   1.342   1.581 -0.3479  1.0917  1.7172
 5283SOL    MW420906   5.968   1.274   1.629  0.6662 -0.2778  0.1016
 5284SOL     OW20907   4.125   2.439   3.792  0.2984  0.3344 -0.3390
 5284SOL    HW220908   4.150   2.363   3.739 -0.0430 -0.2387  0.3024
 5284SOL    HW320909   4.199   2.452   3.851 -0.0668 -0.1514  0.2432
 5284SOL    MW420910   4.138   2.430   3.793  0.0352  0.1167  0.3753
 5285SOL     OW20911   0.756   2.470   1.950 -0.3508 -0.2679 -0.3773
 5285SOL    HW220912   0.697   2.512   1.888  1.9735 -1.3504 -3.5988
 5285SOL    HW320913   0.733   2.377   1.944  0.1077 -0.4189  0.1703
 5285SOL    MW420914   0.745   2.463   1.941 -0.2921 -0.7111 -0.2181
 5286SOL     OW20915   1.844   5.467   5.234  0.6668  0.2339  0.8421
 5286SOL    HW220916   1.762   5.441   5.193  1.6485 -0.7886 -0.5584
 5286SOL    HW320917   1.867   5.394   5.291  1.8505 -0.6919 -0.7281
 5286SOL    MW420918   1.836   5.454   5.236 -0.0600  0.4764 -0.4983
 5287SOL     OW20919   0.550   3.224   0.564  0.0087 -0.1849  0.7727
 5287SOL    HW220920   0.505   3.308   0.569  0.4293  0.1308 -0.3607
 5287SOL    HW320921   0.494   3.171   0.507  0.4703 -0.1869  0.3212
 5287SOL    MW420922   0.537   3.228   0.557  0.3521 -0.8250 -0.3712
 5288SOL     OW20923   3.497   5.742   5.132  0.4817 -0.3082 -0.0813
 5288SOL    HW220924   3.527   5.829   5.106  0.9156 -0.5438 -0.3674
 5288SOL    HW320925   3.575   5.687   5.129  0.8528 -0.1356  2.7866
 5288SOL    MW420926   3.511   5.746   5.128  0.3095  0.4243  0.0393
 5289SOL     OW20927   4.509   6.041   4.211  0.1597 -0.3268 -0.0891
 5289SOL    HW220928   4.544   6.096   4.140 -0.4567 -1.2635 -1.1594
 5289SOL    HW320929   4.586   6.004   4.253  0.5273 -0.4743 -0.8680
 5289SOL    MW420930   4.524   6.044   4.207 -0.2547  0.0734 -0.5742
 5290SOL     OW20931   0.459   5.381   1.060 -0.1203 -0.2781  0.5567
 5290SOL    HW220932   0.424   5.404   0.974 -0.6926  1.2763  1.1752
 5290SOL    HW320933   0.554   5.390   1.050 -0.2059  0.2345  0.1752
 5290SOL    MW420934   0.467   5.385   1.048  0.2295  0.4350  0.6951
 5291SOL     OW20935   6.134   0.814   1.520  0.1667 -0.8822  0.4599
 5291SOL    HW220936   6.212   0.833   1.572  0.1739  1.8761 -0.4201
 5291SOL    HW320937   6.162   0.825   1.429 -1.1516 -0.0683  0.1144
 5291SOL    MW420938   6.148   0.818   1.515  0.2604  0.3983 -0.0749
 5292SOL     OW20939   2.888   2.468   2.432  0.2210  0.6502 -0.1768
 5292SOL    HW220940   2.983   2.484   2.432 -0.0384  2.3716  0.3627
 5292SOL    HW320941   2.859   2.495   2.345  0.0668  1.3002  0.0688
 5292SOL    MW420942   2.897   2.474   2.421  0.5357 -0.3640 -0.2709
 5293SOL     OW20943   1.600   0.768   3.228  0.4794 -0.0107 -0.2639
 5293SOL    HW220944   1.650   0.738   3.303 -0.8026 -0.6397  0.3615
 5293SOL    HW320945   1.656   0.834   3.187 -0.0782  2.8416  3.0953
 5293SOL    MW420946   1.614   0.773   3.232 -0.0704  0.4843  0.6242
 5294SOL     OW20947   3.033   5.811   1.409 -0.5584 -0.3753  0.0461
 5294SOL    HW220948   2.995   5.851   1.487  0.5153  0.9703 -0.0920
 5294SOL    HW320949   3.105   5.756   1.443 -0.9314 -0.8399  0.0961
 5294SOL    MW420950   3.038   5.809   1.424  0.3892 -0.2817 -0.3982
 5295SOL     OW20951   1.375   0.504   2.601 -0.0577 -0.2488  0.0624
 5295SOL    HW220952   1.314   0.523   2.530  0.9589 -0.5624 -0.9152
 5295SOL    HW320953   1.425   0.428   2.571 -0.1214 -0.8674  1.4394
 5295SOL    MW420954   1.374   0.496   2.588  0.1857  0.5033  0.9072
 5296SOL     OW20955   3.086   0.642   0.566  0.5142  0.1675  0.8417
 5296SOL    HW220956   3.164   0.641   0.622  0.0633  0.4513  1.4903
 5296SOL    HW320957   3.071   0.735   0.549 -0.4007  0.1986  1.7544
 5296SOL    MW420958   3.095   0.654   0.571 -0.3145  0.1207  0.0624
 5297SOL     OW20959   3.670   0.842   5.262 -0.4014  0.4474  0.2921
 5297SOL    HW220960   3.678   0.822   5.355 -2.3299 -0.0923  0.3903
 5297SOL    HW320961   3.629   0.763   5.224 -0.4482  0.9928 -0.8387
 5297SOL    MW420962   3.665   0.829   5.269 -0.8362 -0.4859 -0.9208
 5298SOL     OW20963   5.639   4.090   0.213 -0.5327 -0.2088  0.6693
 5298SOL    HW220964   5.684   4.051   0.139  0.2195 -0.5030  1.2574
 5298SOL    HW320965   5.592   4.018   0.254 -1.0862 -0.0132  0.3847
 5298SOL    MW420966   5.639   4.075   0.209  0.2465  0.5411 -0.1034
 5299SOL     OW20967   4.029   6.091   2.531  0.8054  0.3746 -0.1723
 5299SOL    HW220968   4.015   6.185   2.523  0.4289  0.4301  0.9363
 5299SOL    HW320969   3.949   6.052   2.495 -0.4920  0.5907  2.2472
 5299SOL    MW420970   4.017   6.098   2.525 -0.1260  0.1981  0.7873
 5300SOL     OW20971   0.090   2.892   2.403  0.1696 -0.5047 -0.0223
 5300SOL    HW220972   0.178   2.931   2.407  0.3695 -0.9081 -0.4002
 5300SOL    HW320973   0.102   2.811   2.354 -0.6016 -0.0355 -1.0246
 5300SOL    MW420974   0.104   2.886   2.397 -0.0066  0.4558  0.4342
 5301SOL     OW20975   4.626   2.020   5.546  0.0851  0.0899  0.0857
 5301SOL    HW220976   4.661   1.968   5.619 -2.1160  0.5889  1.6028
 5301SOL    HW320977   4.600   2.103   5.586  0.4851  1.1066 -1.6606
 5301SOL    MW420978   4.627   2.024   5.561 -0.3871 -0.1266 -0.2815
 5302SOL     OW20979   2.778   6.235   4.592  0.1907 -0.0814 -0.6222
 5302SOL    HW220980   2.815   6.147   4.580  2.0099  0.7712 -1.6316
 5302SOL    HW320981   2.700   6.235   4.538  1.2819 -0.4718 -2.2758
 5302SOL    MW420982   2.773   6.223   4.584  0.4052  0.0701 -0.4889
 5303SOL     OW20983   1.807   4.569   2.782 -0.0693 -0.2944  0.3747
 5303SOL    HW220984   1.743   4.498   2.788 -0.9338  0.5199  1.1023
 5303SOL    HW320985   1.822   4.595   2.873  1.1640 -0.3324  0.2032
 5303SOL    MW420986   1.801   4.563   2.795  0.3715  0.3726  0.0814
 5304SOL     OW20987   2.796   2.956   4.868  0.4567 -0.1083 -0.2151
 5304SOL    HW220988   2.763   2.890   4.930  0.6695  0.2520  0.2841
 5304SOL    HW320989   2.764   2.926   4.783 -0.0081 -0.5026  0.0899
 5304SOL    MW420990   2.787   2.943   4.865 -0.1312 -0.0024  0.0385
 5305SOL     OW20991   6.418   1.208   0.619  0.4614  0.3878  0.1906
 5305SOL    HW220992   6.410   1.241   0.530 -1.3276  2.4095  1.0121
 5305SOL    HW320993   6.482   1.267   0.661  1.4782 -0.6992  0.2087
 5305SOL    MW420994   6.426   1.220   0.613  0.0185  0.4806 -0.4096
 5306SOL     OW20995   4.358   1.488   0.138  0.0147  0.0273  0.5422
 5306SOL    HW220996   4.350   1.501   0.232  1.8695  0.7011  0.6598
 5306SOL    HW320997   4.451   1.505   0.119 -0.2498 -0.3491 -1.3656
 5306SOL    MW420998   4.369   1.492   0.148 -0.3706  0.1524  0.4533
 5307SOL     OW20999   3.392   4.895   6.427 -0.3524  0.0134 -0.6533
 5307SOL    HW221000   3.398   4.976   6.377  1.2562  0.5737  0.3405
 5307SOL    HW321001   3.473   4.893   6.478 -1.7173 -0.6825  1.6445
 5307SOL    MW421002   3.403   4.905   6.427  0.0072  0.1463 -0.1590
 5308SOL     OW21003   0.140   3.392   5.521  0.1020  0.7716  0.4845
 5308SOL    HW221004   0.151   3.421   5.431  0.0347  0.2854  0.3189
 5308SOL    HW321005   0.211   3.436   5.569  0.9061  0.0554 -0.0307
 5308SOL    MW421006   0.151   3.402   5.516 -0.0766  0.4393 -0.0840
 5309SOL     OW21007   3.237   3.061   5.325 -0.1569  0.0744 -0.0361
 5309SOL    HW221008   3.174   3.107   5.380  0.5585  0.1079  0.7789
 5309SOL    HW321009   3.280   3.130   5.274  1.3748  0.4453  1.6562
 5309SOL    MW421010   3.234   3.076   5.325 -0.9168  0.4912 -0.5255
 5310SOL     OW21011   5.989   1.379   2.637 -0.6586 -0.3610  0.4804
 5310SOL    HW221012   5.968   1.337   2.720 -2.2033 -1.2826 -0.3182
 5310SOL    HW321013   6.082   1.361   2.623  0.1764  1.5410  2.9141
 5310SOL    MW421014   5.998   1.371   2.646 -0.2290  0.6013 -0.0984
 5311SOL     OW21015   5.368   1.547   2.096  0.4012 -0.3187 -0.2014
 5311SOL    HW221016   5.371   1.488   2.172  0.7728  0.3568  0.3241
 5311SOL    HW321017   5.424   1.620   2.121 -0.5353  0.5486 -0.6011
 5311SOL    MW421018   5.376   1.549   2.109  0.4093  0.7383 -0.0296
 5312SOL     OW21019   5.684   3.067   4.814  0.0190  0.0973  0.0276
 5312SOL    HW221020   5.771   3.107   4.814 -0.1404  0.4513  0.2538
 5312SOL    HW321021   5.624   3.140   4.832 -0.4429  0.0764 -1.3262
 5312SOL    MW421022   5.687   3.082   4.817  0.1877 -0.7312  0.2084
 5313SOL     OW21023   3.170   6.126   5.615 -0.4103  0.2929  0.2634
 5313SOL    HW221024   3.138   6.213   5.591 -0.5807 -0.1573 -1.2023
 5313SOL    HW321025   3.212   6.093   5.536 -0.3963 -0.9894  0.7856
 5313SOL    MW421026   3.171   6.134   5.602 -0.6549 -0.7076  0.1597
 5314SOL     OW21027   0.709   1.150   2.111 -0.1748  0.4894  0.0896
 5314SOL    HW221028   0.663   1.228   2.143 -1.4799 -0.9499  1.9175
 5314SOL    HW321029   0.777   1.133   2.177 -0.5883 -0.4852  0.2890
 5314SOL    MW421030   0.712   1.158   2.124 -0.4259  0.3339  0.0022
 5315SOL     OW21031   6.351   2.347   0.171  0.4852  0.1178  0.3381
 5315SOL    HW221032   6.364   2.415   0.237  0.9325  0.2007  0.1663
 5315SOL    HW321033   6.439   2.313   0.154  0.2420 -0.6504  0.5788
 5315SOL    MW421034   6.364   2.352   0.177 -0.2096  0.4377 -0.0117
 5316SOL     OW21035   3.982   5.680   3.784  0.0578  0.2138  0.4897
 5316SOL    HW221036   3.895   5.639   3.788  0.2977 -0.3958 -0.3691
 5316SOL    HW321037   3.971   5.762   3.831 -0.6823 -0.3881  1.4176
 5316SOL    MW421038   3.969   5.685   3.791 -0.6030 -0.4663  0.0524
 5317SOL     OW21039   5.341   1.721   0.717 -0.2409  0.0910 -0.1041
 5317SOL    HW221040   5.348   1.643   0.772 -1.3835  0.1636  0.1755
 5317SOL    HW321041   5.370   1.793   0.773 -1.3525  0.1584  0.4185
 5317SOL    MW421042   5.346   1.720   0.731 -0.3886  0.1909 -0.4878
 5318SOL     OW21043   3.544   0.178   2.512 -0.0445  0.0354  0.2197
 5318SOL    HW221044   3.530   0.142   2.425 -1.2446  1.0238 -0.0265
 5318SOL    HW321045   3.579   0.265   2.497 -0.7285  0.4023  0.7055
 5318SOL    MW421046   3.547   0.184   2.499 -0.0108 -0.4935  0.1848
 5319SOL     OW21047   4.137   6.316   0.365 -0.1774  0.0477  0.2307
 5319SOL    HW221048   4.197   6.344   0.296 -0.0624  0.5542  0.5293
 5319SOL    HW321049   4.180   6.342   0.446  0.1368 -1.4125  0.5456
 5319SOL    MW421050   4.150   6.323   0.367 -0.0967 -0.1946  0.3684
 5320SOL     OW21051   2.572   0.082   3.445  0.5120 -0.0169  0.5803
 5320SOL    HW221052   2.510   0.155   3.453  0.3848 -0.0548  0.0441
 5320SOL    HW321053   2.658   0.124   3.443  0.3890  0.2569 -0.9984
 5320SOL    MW421054   2.575   0.098   3.446 -0.0814  0.2143 -0.0198
 5321SOL     OW21055   0.626   4.823   6.038 -0.3843  0.5997  0.1684
 5321SOL    HW221056   0.632   4.879   5.961  0.1496  0.6842  0.2675
 5321SOL    HW321057   0.568   4.869   6.098 -0.3392  0.8103  0.0483
 5321SOL    MW421058   0.619   4.836   6.036  0.2189  0.2428  0.0794
 5322SOL     OW21059   5.533   4.841   3.949 -0.4333 -0.6249  0.1397
 5322SOL    HW221060   5.608   4.887   3.912  0.5320 -0.1027  2.5199
 5322SOL    HW321061   5.457   4.885   3.912  0.4651  1.9706  1.1298
 5322SOL    MW421062   5.533   4.853   3.939  0.5294  0.1940 -0.2819
 5323SOL     OW21063   1.060   2.102   1.131 -0.0032  0.5196  0.0202
 5323SOL    HW221064   1.079   2.014   1.097 -0.6303  0.5271 -0.3786
 5323SOL    HW321065   1.092   2.161   1.063 -2.0296  0.5155 -1.0270
 5323SOL    MW421066   1.067   2.098   1.117  0.0711  0.0578  0.0242
 5324SOL     OW21067   2.940   5.274   2.946  0.1209 -0.2303  0.0330
 5324SOL    HW221068   2.898   5.339   3.003 -1.7330 -0.9492 -0.4473
 5324SOL    HW321069   3.017   5.319   2.911 -0.1048  1.0731  1.1328
 5324SOL    MW421070   2.945   5.289   2.949 -0.3032 -0.1310  0.0937
 5325SOL     OW21071   0.611   2.293   5.064  0.1067  0.5794 -0.2418
 5325SOL    HW221072   0.639   2.334   4.982 -0.0449  1.5272  0.1617
 5325SOL    HW321073   0.516   2.300   5.063  0.0325 -0.3783 -0.4695
 5325SOL    MW421074   0.602   2.299   5.053  0.3303 -0.1703  0.3897
 5326SOL     OW21075   5.980   4.278   2.783  0.1113 -0.2551 -0.0152
 5326SOL    HW221076   5.954   4.367   2.808 -2.5886 -0.7125 -0.8546
 5326SOL    HW321077   5.986   4.230   2.866  1.4086  0.6396  0.4267
 5326SOL    MW421078   5.977   4.283   2.797 -0.3136 -0.3458  0.1094
 5327SOL     OW21079   3.547   2.840   4.038  0.1181 -0.2909  0.1117
 5327SOL    HW221080   3.474   2.901   4.051  0.2848  0.0902 -0.6889
 5327SOL    HW321081   3.578   2.858   3.949  1.7406  0.1420  0.7300
 5327SOL    MW421082   3.541   2.850   4.028 -0.6206  0.4408 -0.9332
 5328SOL     OW21083   2.950   5.610   1.657 -0.9817  0.0136  0.3034
 5328SOL    HW221084   2.942   5.569   1.743 -2.5302 -1.3435 -0.4180
 5328SOL    HW321085   2.969   5.702   1.675 -0.5803 -0.3818  2.0649
 5328SOL    MW421086   2.952   5.616   1.671 -0.3675  0.5780 -0.1729
 5329SOL     OW21087   5.102   6.307   1.031  0.5386 -0.2786 -0.1413
 5329SOL    HW221088   5.166   6.376   1.019 -0.5373  0.6709 -0.5939
 5329SOL    HW321089   5.049   6.308   0.951 -0.3917 -0.6458  0.4439
 5329SOL    MW421090   5.103   6.316   1.019 -0.2662  0.3140  0.1314
 5330SOL     OW21091   5.744   1.982   1.154 -0.4963 -0.1702  0.3923
 5330SOL    HW221092   5.680   2.052   1.163 -1.0514 -0.5705 -0.3060
 5330SOL    HW321093   5.790   2.002   1.072  0.6735  0.4274  1.1748
 5330SOL    MW421094   5.742   1.994   1.144  0.0521 -0.3132 -0.5726
 5331SOL     OW21095   4.687   3.793   2.801 -0.3506 -0.2791 -0.1771
 5331SOL    HW221096   4.686   3.880   2.761 -1.1037 -0.6604 -1.0250
 5331SOL    HW321097   4.710   3.734   2.730 -0.3775 -0.8403  0.2708
 5331SOL    MW421098   4.690   3.797   2.787 -0.0575 -0.1607 -0.8063
 5332SOL     OW21099   4.494   5.821   1.977 -0.1604 -0.1347 -0.0120
 5332SOL    HW221100   4.489   5.895   2.037  0.8018  0.2586 -0.3978
 5332SOL    HW321101   4.403   5.802   1.953 -0.4910  0.2007  0.9522
 5332SOL    MW421102   4.482   5.828   1.982 -0.2172  0.4075  0.2841
 5333SOL     OW21103   5.495   6.296   5.836  0.5335 -0.1005 -0.5424
 5333SOL    HW221104   5.453   6.366   5.885 -0.7601 -0.1789 -1.4774
 5333SOL    HW321105   5.547   6.249   5.900 -1.3369 -0.3991  0.8343
 5333SOL    MW421106   5.496   6.299   5.851 -0.7155  0.3147 -0.4700
 5334SOL     OW21107   5.539   0.190   3.814  0.3585 -0.1363 -0.6857
 5334SOL    HW221108   5.472   0.257   3.804 -0.0206 -0.2947  0.5681
 5334SOL    HW321109   5.489   0.111   3.837  1.0432  0.2844  2.7469
 5334SOL    MW421110   5.523   0.188   3.816  0.4741  0.4310 -0.3255
 5335SOL     OW21111   6.047   1.908   0.055  0.4720  0.2859 -0.0968
 5335SOL    HW221112   6.025   1.989   0.101 -0.5603 -0.7098  1.2652
 5335SOL    HW321113   6.122   1.872   0.103 -1.0675 -1.1294  1.3832
 5335SOL    MW421114   6.054   1.914   0.067 -0.0995  0.2994  1.0113
 5336SOL     OW21115   5.841   5.218   1.005 -0.4561  0.4471 -0.4536
 5336SOL    HW221116   5.773   5.153   1.020 -1.0110  0.7430 -1.5798
 5336SOL    HW321117   5.863   5.210   0.913  0.2713  1.0945 -0.3511
 5336SOL    MW421118   5.835   5.209   0.995  0.0385 -0.5036 -0.1280
 5337SOL     OW21119   5.965   3.716   5.885  0.2649  0.0251  0.2360
 5337SOL    HW221120   5.923   3.631   5.895 -0.9617  0.5486 -0.2234
 5337SOL    HW321121   5.927   3.752   5.805  2.3715  0.1161 -0.7768
 5337SOL    MW421122   5.954   3.710   5.876  0.4207 -0.0400  0.7545
 5338SOL     OW21123   4.484   6.403   5.417  0.1416  0.3461 -0.0813
 5338SOL    HW221124   4.536   6.323   5.413 -0.6093 -0.1583 -0.0403
 5338SOL    HW321125   4.523   6.454   5.488  0.1332 -0.3472  0.4256
 5338SOL    MW421126   4.496   6.399   5.426 -0.7076  0.3003 -0.0492
 5339SOL     OW21127   6.302   6.341   4.483  0.2605  0.4165  0.3682
 5339SOL    HW221128   6.271   6.266   4.431 -1.6669  1.7930 -0.6175
 5339SOL    HW321129   6.368   6.305   4.541 -1.0266 -2.1796  0.3513
 5339SOL    MW421130   6.307   6.326   4.483 -0.5810  0.2135 -0.0394
 5340SOL     OW21131   1.672   1.215   3.194  0.5609  0.5526  0.0631
 5340SOL    HW221132   1.701   1.306   3.195 -0.2404  0.8985 -1.9622
 5340SOL    HW321133   1.748   1.165   3.225  1.4073  1.8172  0.1154
 5340SOL    MW421134   1.686   1.221   3.198 -0.0999  0.1408 -0.1947
 5341SOL     OW21135   6.185   2.417   0.634 -0.0981  0.1941 -0.0369
 5341SOL    HW221136   6.224   2.341   0.678 -1.5806  0.5091  1.9775
 5341SOL    HW321137   6.170   2.480   0.705  1.1545  2.4633 -1.6585
 5341SOL    MW421138   6.188   2.415   0.649 -0.0424  0.6290 -0.2395
 5342SOL     OW21139   0.406   2.770   4.421 -0.0028 -0.0065  0.0314
 5342SOL    HW221140   0.354   2.842   4.386  2.2744  2.2831  0.9870
 5342SOL    HW321141   0.372   2.756   4.509 -0.2595  0.1326 -0.0460
 5342SOL    MW421142   0.395   2.777   4.428  0.0668 -0.1003  0.2562
 5343SOL     OW21143   2.276   4.472   3.276  0.1086  0.0771  0.4244
 5343SOL    HW221144   2.250   4.440   3.362 -0.2643 -1.5299 -0.2569
 5343SOL    HW321145   2.280   4.394   3.221  2.3481  0.7917 -0.5397
 5343SOL    MW421146   2.273   4.458   3.280 -0.3673  0.5096  0.0296
 5344SOL     OW21147   5.722   5.009   4.941 -0.7817  0.2971  0.5640
 5344SOL    HW221148   5.690   4.997   5.030 -3.3154 -0.3278 -0.3363
 5344SOL    HW321149   5.643   5.030   4.890  0.7958  2.2642 -1.2724
 5344SOL    MW421150   5.707   5.010   4.946  0.0818 -0.3335 -0.4987
 5345SOL     OW21151   3.387   5.142   2.334 -0.3225  0.1332  0.2830
 5345SOL    HW221152   3.444   5.100   2.398 -0.4669 -1.8976 -0.8007
 5345SOL    HW321153   3.305   5.093   2.340 -1.0102  1.2255 -0.0600
 5345SOL    MW421154   3.384   5.130   2.343 -0.0829  0.2597  0.4367
 5346SOL     OW21155   4.393   1.315   1.607  0.4775  0.0632  0.6260
 5346SOL    HW221156   4.465   1.318   1.669  0.2704  1.9409  0.8371
 5346SOL    HW321157   4.435   1.310   1.521  0.8412  0.0952  0.8025
 5346SOL    MW421158   4.408   1.315   1.604  0.6469 -0.5467  0.2912
 5347SOL     OW21159   3.651   3.777   2.783 -0.5581 -0.6719 -0.1125
 5347SOL    HW221160   3.644   3.746   2.873 -0.3807 -0.9763 -0.2039
 5347SOL    HW321161   3.610   3.864   2.784 -1.2637 -1.0011  0.0913
 5347SOL    MW421162   3.645   3.785   2.795 -0.0345 -0.1788 -0.0268
 5348SOL     OW21163   0.662   1.565   3.439 -0.7815  0.6172 -0.2878
 5348SOL    HW221164   0.743   1.616   3.443  0.3064 -0.9914 -0.7953
 5348SOL    HW321165   0.630   1.578   3.349  0.8539 -1.5045 -1.2486
 5348SOL    MW421166   0.668   1.574   3.427  0.7064  0.0871 -1.1445
 5349SOL     OW21167   0.807   4.580   1.788  0.5927  0.0765 -0.1852
 5349SOL    HW221168   0.718   4.562   1.818  0.6545 -0.0927 -0.1084
 5349SOL    HW321169   0.861   4.573   1.866  0.4202  2.0663  0.1815
 5349SOL    MW421170   0.802   4.577   1.802  0.6769 -0.2831  0.7364
 5350SOL     OW21171   3.432   0.826   3.854 -0.1854 -0.8249 -0.4303
 5350SOL    HW221172   3.518   0.864   3.871 -1.0011  0.2750  1.7341
 5350SOL    HW321173   3.373   0.901   3.852 -1.2088 -1.6254 -0.9506
 5350SOL    MW421174   3.436   0.841   3.856 -0.1158 -0.0313  0.1990
 5351SOL     OW21175   5.163   6.185   6.234  0.3517 -0.8491 -0.8272
 5351SOL    HW221176   5.206   6.118   6.181  3.3148  0.2477 -0.0233
 5351SOL    HW321177   5.187   6.268   6.193  2.2457 -0.0002  1.6965
 5351SOL    MW421178   5.172   6.187   6.222 -0.6357  0.1890 -0.0786
 5352SOL     OW21179   1.482   6.201   0.875 -0.0717  0.0083 -0.4600
 5352SOL    HW221180   1.461   6.201   0.782 -0.6857  0.6436 -0.3359
 5352SOL    HW321181   1.436   6.125   0.910 -0.6179  0.2944 -0.5299
 5352SOL    MW421182   1.473   6.191   0.868  0.0429 -0.1186  0.7211
 5353SOL     OW21183   6.300   5.162   2.857 -0.1282 -0.1122 -0.2700
 5353SOL    HW221184   6.266   5.239   2.810 -0.5117  0.2835  0.6326
 5353SOL    HW321185   6.380   5.193   2.899 -1.1988  0.3320  1.5559
 5353SOL    MW421186   6.306   5.176   2.856 -0.5662  0.1661 -0.3501
 5354SOL     OW21187   4.128   2.679   4.081  0.5703  0.2782 -0.1810
 5354SOL    HW221188   4.195   2.614   4.062 -0.7143 -0.9542 -0.7047
 5354SOL    HW321189   4.049   2.644   4.040 -0.7305  0.9544  1.6402
 5354SOL    MW421190   4.126   2.666   4.073 -0.2287 -0.3029 -0.0895
 5355SOL     OW21191   0.999   0.246   6.321 -0.1703  0.3101  0.1247
 5355SOL    HW221192   0.907   0.218   6.321 -0.3832  0.9723 -0.9289
 5355SOL    HW321193   0.997   0.335   6.286  0.9659 -0.0059 -0.8023
 5355SOL    MW421194   0.986   0.254   6.316 -0.5872 -0.1857 -0.0940
 5356SOL     OW21195   6.139   5.763   4.295 -0.2986 -0.4293 -0.0819
 5356SOL    HW221196   6.226   5.795   4.269 -0.4034  0.6418  0.8624
 5356SOL    HW321197   6.078   5.826   4.256 -0.6954 -1.3603 -1.0188
 5356SOL    MW421198   6.143   5.775   4.286 -0.5339 -0.2331 -0.7641
 5357SOL     OW21199   1.149   0.155   0.402  0.1896  0.7817  0.4422
 5357SOL    HW221200   1.197   0.191   0.328  0.4172 -0.3138  0.0312
 5357SOL    HW321201   1.103   0.079   0.365 -1.3502  1.4128  0.9634
 5357SOL    MW421202   1.149   0.150   0.387  0.1842 -0.8241  0.6514
 5358SOL     OW21203   1.966   4.572   1.216  0.2047  0.3157 -0.2139
 5358SOL    HW221204   2.045   4.558   1.163  0.9604  0.9456  0.7079
 5358SOL    HW321205   1.966   4.667   1.233 -0.1817  0.1614  0.6676
 5358SOL    MW421206   1.977   4.583   1.211 -0.0273  0.3791 -0.5248
 5359SOL     OW21207   4.562   1.099   0.930  0.2675 -0.5069 -0.0560
 5359SOL    HW221208   4.585   1.164   0.996 -0.1534 -0.6865  0.2678
 5359SOL    HW321209   4.507   1.147   0.868  1.1453 -0.1850 -0.6065
 5359SOL    MW421210   4.557   1.114   0.930 -0.0075  0.2525 -0.1299
 5360SOL     OW21211   3.418   4.950   4.328 -0.7544 -0.0949  0.0385
 5360SOL    HW221212   3.457   5.006   4.396 -0.9477  0.8406 -0.6013
 5360SOL    HW321213   3.332   4.928   4.362 -0.6260 -0.1141  0.3577
 5360SOL    MW421214   3.412   4.955   4.341 -0.6367  0.4378 -0.2551
 5361SOL     OW21215   4.941   3.428   6.025 -0.1075  0.2673  0.0253
 5361SOL    HW221216   4.867   3.454   6.079  0.7552 -1.8577  2.4493
 5361SOL    HW321217   4.911   3.352   5.976 -0.0164  0.3595 -0.1734
 5361SOL    MW421218   4.927   3.422   6.026  0.1133 -0.3384  0.1774
 5362SOL     OW21219   4.468   0.564   2.243  0.1814  0.1412  0.4260
 5362SOL    HW221220   4.437   0.604   2.162  1.8659  0.2680 -0.1953
 5362SOL    HW321221   4.506   0.480   2.215 -1.1393 -0.8328  1.4012
 5362SOL    MW421222   4.469   0.558   2.228  0.1333 -0.0594  0.5450
 5363SOL     OW21223   1.583   1.389   1.654  0.0898  0.1199 -0.3081
 5363SOL    HW221224   1.490   1.374   1.665  0.0370  0.7930  0.2282
 5363SOL    HW321225   1.621   1.301   1.647 -0.5792 -0.1552 -0.5632
 5363SOL    MW421226   1.576   1.376   1.654  0.6242 -1.0133 -0.1501
 5364SOL     OW21227   2.055   6.153   5.845 -0.4474  0.3610  0.2129
 5364SOL    HW221228   2.065   6.073   5.794 -2.8816 -0.1138  0.3482
 5364SOL    HW321229   2.044   6.124   5.935 -0.2123  0.9246  0.4286
 5364SOL    MW421230   2.055   6.139   5.850  0.3220  0.1509 -0.6550
 5365SOL     OW21231   5.407   4.446   6.398  0.1092  0.0191 -0.4264
 5365SOL    HW221232   5.404   4.399   6.315 -2.3526 -0.1773 -0.2836
 5365SOL    HW321233   5.500   4.447   6.421  0.8993  0.1944 -3.2189
 5365SOL    MW421234   5.419   4.440   6.390 -0.1557 -0.3626 -0.6406
 5366SOL     OW21235   2.526   2.613   4.397  0.8240  0.0023 -0.1257
 5366SOL    HW221236   2.571   2.615   4.481  1.6627 -2.1676 -0.4490
 5366SOL    HW321237   2.494   2.523   4.389 -0.8034  0.6308 -1.3601
 5366SOL    MW421238   2.527   2.601   4.407 -0.0614  0.0157 -0.1152
 5367SOL     OW21239   4.251   4.787   0.785  0.1888 -0.0145 -0.6240
 5367SOL    HW221240   4.287   4.700   0.806 -0.7180 -0.7049 -1.8207
 5367SOL    HW321241   4.165   4.769   0.748 -0.6015  1.5044  0.4089
 5367SOL    MW421242   4.245   4.773   0.783 -0.3099 -0.0255 -0.2315
 5368SOL     OW21243   5.040   1.757   2.605  0.2161 -0.3105  0.2817
 5368SOL    HW221244   5.018   1.845   2.635  1.0051  0.3039 -0.8752
 5368SOL    HW321245   4.991   1.747   2.524 -0.5458 -1.2857  0.8482
 5368SOL    MW421246   5.031   1.767   2.598  0.5656 -0.3459 -0.2965
 5369SOL     OW21247   3.526   4.663   3.078  0.1564  0.5179 -0.0744
 5369SOL    HW221248   3.530   4.756   3.103  2.0284  0.8092 -1.2641
 5369SOL    HW321249   3.567   4.617   3.152 -0.4500  0.6557  0.3568
 5369SOL    MW421250   3.532   4.669   3.091 -0.2715  0.3610 -0.0625
 5370SOL     OW21251   2.467   1.559   0.674  0.1266 -0.3352 -0.1101
 5370SOL    HW221252   2.457   1.634   0.615  0.3371 -0.4816 -0.3308
 5370SOL    HW321253   2.504   1.597   0.754 -1.2280  0.0585  0.3711
 5370SOL    MW421254   2.471   1.574   0.677 -0.1497  0.1363  0.1107
 5371SOL     OW21255   3.563   4.787   3.635 -0.3630  0.2933  0.0334
 5371SOL    HW221256   3.656   4.806   3.647 -0.6284  1.6712  0.0908
 5371SOL    HW321257   3.561   4.702   3.590  0.9768  1.1856 -1.8284
 5371SOL    MW421258   3.575   4.778   3.631 -0.0232  0.4718  0.4198
 5372SOL     OW21259   6.051   1.653   2.705  0.4788  0.5597  0.3071
 5372SOL    HW221260   6.010   1.571   2.677  1.4689  0.8968 -2.5652
 5372SOL    HW321261   5.984   1.698   2.757 -0.0936 -1.9885  1.9419
 5372SOL    MW421262   6.037   1.648   2.708  0.8134  0.1103 -0.6673
 5373SOL     OW21263   5.912   4.897   4.422 -0.3011  0.0501 -0.6608
 5373SOL    HW221264   5.851   4.869   4.353 -0.7420 -1.7480  0.3653
 5373SOL    HW321265   5.985   4.836   4.415  0.0707  0.4284 -0.1311
 5373SOL    MW421266   5.914   4.885   4.412 -0.0953  0.0018 -0.5547
 5374SOL     OW21267   5.961   5.667   4.860 -0.4503  0.2273  0.1929
 5374SOL    HW221268   5.946   5.748   4.907  0.1227  0.6273 -0.2966
 5374SOL    HW321269   6.056   5.657   4.857 -0.4873 -1.7044  2.3096
 5374SOL    MW421270   5.971   5.676   4.866 -0.0235 -0.3592  0.1248
 5375SOL     OW21271   5.052   0.245   4.100  0.5817 -0.1057 -0.5065
 5375SOL    HW221272   5.131   0.205   4.134  0.7914  0.4107 -0.3684
 5375SOL    HW321273   5.055   0.230   4.006  1.2212  0.5429 -0.5995
 5375SOL    MW421274   5.063   0.238   4.092  0.0637 -0.2753  0.2328
 5376SOL     OW21275   1.718   3.020   1.669  0.3516  0.4290  0.0296
 5376SOL    HW221276   1.754   3.030   1.757  1.4352  0.4173 -0.4034
 5376SOL    HW321277   1.779   2.961   1.625 -0.4232  0.0771 -0.6021
 5376SOL    MW421278   1.731   3.013   1.675  0.0190 -0.2358 -0.0103
 5377SOL     OW21279   5.932   3.356   3.465  0.6749  0.8857  0.1611
 5377SOL    HW221280   6.018   3.313   3.469  0.3126  0.2113  1.0404
 5377SOL    HW321281   5.876   3.293   3.421  0.7529  1.5832 -0.9906
 5377SOL    MW421282   5.936   3.342   3.460 -0.3165 -0.5017 -0.3006
 5378SOL     OW21283   1.029   2.472   2.789  0.0312  0.1057  0.1067
 5378SOL    HW221284   0.965   2.486   2.858  0.5162 -0.7850  0.7537
 5378SOL    HW321285   1.081   2.397   2.818  2.2986  1.6237  0.2854
 5378SOL    MW421286   1.028   2.464   2.802  0.0825  0.0192 -0.2922
 5379SOL     OW21287   0.437   0.830   4.680 -0.1555  0.0151 -0.3170
 5379SOL    HW221288   0.472   0.741   4.692  1.6959  0.6794 -0.4979
 5379SOL    HW321289   0.466   0.855   4.592  2.0450  1.8947  0.8242
 5379SOL    MW421290   0.446   0.821   4.670  0.2775  0.5269  0.1151
 5380SOL     OW21291   4.341   6.145   1.926  0.2997 -0.2638 -1.0399
 5380SOL    HW221292   4.307   6.234   1.916 -0.5210 -0.6091 -1.4383
 5380SOL    HW321293   4.397   6.132   1.849  0.1259 -0.2157 -1.1760
 5380SOL    MW421294   4.344   6.155   1.914 -0.3332  0.0998  0.9182
 5381SOL     OW21295   4.168   1.144   0.984  0.0982  0.3299 -0.3913
 5381SOL    HW221296   4.222   1.215   0.949  0.5736 -0.7497 -1.9368
 5381SOL    HW321297   4.175   1.074   0.919 -1.4135 -0.6549  0.4487
 5381SOL    MW421298   4.176   1.144   0.971  0.1983 -0.1290 -0.2411
 5382SOL     OW21299   5.755   0.733   5.898 -0.2026 -0.3084  0.0877
 5382SOL    HW221300   5.752   0.828   5.906 -1.4320 -0.1187 -1.8056
 5382SOL    HW321301   5.742   0.717   5.804 -0.1090 -2.3432  0.3773
 5382SOL    MW421302   5.753   0.743   5.887  0.3795 -0.2633  0.3094
 5383SOL     OW21303   3.065   3.437   1.898 -0.0372  0.0669 -0.2872
 5383SOL    HW221304   3.059   3.406   1.807  0.4609  0.6363 -0.5209
 5383SOL    HW321305   3.011   3.515   1.900 -1.2639 -0.7685  0.2958
 5383SOL    MW421306   3.057   3.443   1.886  0.0374  0.6279 -0.2450
 5384SOL     OW21307   1.402   6.209   2.460 -0.5759  0.2182  0.1896
 5384SOL    HW221308   1.451   6.283   2.424 -1.4583  0.9528  0.4678
 5384SOL    HW321309   1.337   6.188   2.394 -0.8702  0.2422  0.4681
 5384SOL    MW421310   1.400   6.216   2.447  0.1646 -0.4372  0.5757
 5385SOL     OW21311   6.428   3.317   4.093  0.1133  0.0320 -0.0990
 5385SOL    HW221312   6.497   3.272   4.043  0.1187 -0.9372  0.7589
 5385SOL    HW321313   6.419   3.266   4.173  0.2703  1.6812  1.0253
 5385SOL    MW421314   6.436   3.304   4.097  0.0883  0.3773 -0.6420
 5386SOL     OW21315   0.176   4.628   6.001  0.0801  0.6084  0.4036
 5386SOL    HW221316   0.271   4.634   5.994  0.2031  0.3069  1.5741
 5386SOL    HW321317   0.159   4.618   6.095 -1.1191  0.8619  0.2374
 5386SOL    MW421318   0.186   4.627   6.013 -0.2128  0.3298 -0.0553
 5387SOL     OW21319   3.276   4.517   3.322 -0.1942  0.3849 -0.5645
 5387SOL    HW221320   3.311   4.428   3.328  1.7065  1.0815 -0.4679
 5387SOL    HW321321   3.199   4.510   3.265 -0.2292 -1.3538 -0.3264
 5387SOL    MW421322   3.270   4.505   3.315 -0.1601  0.2740  0.4370
 5388SOL     OW21323   2.958   3.400   3.014  0.1944  0.5703 -0.2177
 5388SOL    HW221324   3.046   3.390   2.977 -0.5154 -0.4664 -1.7481
 5388SOL    HW321325   2.899   3.381   2.941 -1.3098  0.3120  1.0037
 5388SOL    MW421326   2.962   3.397   2.999  0.3186 -0.6168  0.1128
 5389SOL     OW21327   0.974   1.929   4.568 -0.0830  0.1365  0.3170
 5389SOL    HW221328   0.990   1.840   4.537 -1.5117 -0.7076  1.8524
 5389SOL    HW321329   0.881   1.931   4.588 -0.0990  2.0321  0.2259
 5389SOL    MW421330   0.964   1.918   4.566  0.2066  0.2738  0.4056
 5390SOL     OW21331   6.209   2.270   6.365 -0.2657 -0.0430  0.3482
 5390SOL    HW221332   6.231   2.329   6.293 -0.2621 -2.4931 -1.7966
 5390SOL    HW321333   6.258   2.306   6.440  1.2064  1.6001 -1.2726
 5390SOL    MW421334   6.219   2.283   6.365 -0.1322 -1.1271 -0.0791
 5391SOL     OW21335   1.188   6.189   6.243 -0.0304  0.1459  0.1289
 5391SOL    HW221336   1.240   6.133   6.301  0.5060 -1.1488 -1.5250
 5391SOL    HW321337   1.227   6.276   6.253  1.4702 -0.4981  0.0928
 5391SOL    MW421338   1.200   6.193   6.252  0.4814  0.1247  0.3866
 5392SOL     OW21339   1.524   0.702   2.467 -0.0697 -0.2331 -0.5113
 5392SOL    HW221340   1.489   0.636   2.527 -3.4029  1.5355 -0.2652
 5392SOL    HW321341   1.549   0.653   2.390  1.3993 -2.2061  1.1217
 5392SOL    MW421342   1.522   0.687   2.465 -0.4194 -0.1241  0.1815
 5393SOL     OW21343   4.276   1.371   5.034  0.3031 -0.4809  0.4660
 5393SOL    HW221344   4.243   1.284   5.056  0.2833  0.0832  2.8752
 5393SOL    HW321345   4.279   1.371   4.938 -1.5595 -2.4284  0.3255
 5393SOL    MW421346   4.272   1.359   5.024 -0.4049 -0.4952 -0.2387
 5394SOL     OW21347   1.674   4.645   4.160 -0.9891 -0.3780 -0.1018
 5394SOL    HW221348   1.593   4.672   4.205 -1.0178  1.4488 -1.1344
 5394SOL    HW321349   1.744   4.680   4.215 -0.9848  0.1520 -0.4291
 5394SOL    MW421350   1.672   4.653   4.173  0.4087  0.0212  0.2537
 5395SOL     OW21351   5.909   4.549   2.869 -0.4217 -0.5547  0.6427
 5395SOL    HW221352   5.874   4.537   2.957 -0.9477  0.3517  0.5663
 5395SOL    HW321353   5.970   4.622   2.876 -0.1040 -0.7894  0.3519
 5395SOL    MW421354   5.912   4.557   2.881  0.4932  0.3367  0.3123
 5396SOL     OW21355   2.967   1.108   4.152  0.2076 -0.9646 -0.7102
 5396SOL    HW221356   2.877   1.077   4.163  0.1299 -1.0646 -1.5051
 5396SOL    HW321357   2.972   1.133   4.060  1.1095 -1.3555 -0.7838
 5396SOL    MW421358   2.956   1.107   4.141 -0.3386  0.6429  0.3395
 5397SOL     OW21359   0.412   1.891   4.534  0.4847 -0.0042 -0.0045
 5397SOL    HW221360   0.337   1.939   4.499  1.2630  1.2564  0.0048
 5397SOL    HW321361   0.375   1.811   4.570 -1.0268  1.1590  1.1446
 5397SOL    MW421362   0.397   1.887   4.534 -0.1150  1.1879  0.1086
 5398SOL     OW21363   5.768   1.009   5.926 -0.0847 -0.3719 -0.2575
 5398SOL    HW221364   5.682   1.040   5.897  0.5358  1.2685 -0.4546
 5398SOL    HW321365   5.802   1.081   5.979  0.0283 -2.1409  2.1950
 5398SOL    MW421366   5.761   1.023   5.929 -0.1201  0.1167 -0.3003
 5399SOL     OW21367   1.068   0.955   5.361 -0.0025 -0.1278  0.7703
 5399SOL    HW221368   1.076   0.861   5.379  1.1490 -0.2390 -0.2212
 5399SOL    HW321369   1.020   0.960   5.279 -0.0078  0.1503  0.7882
 5399SOL    MW421370   1.063   0.943   5.352 -0.3254  0.6150 -0.3264
 5400SOL     OW21371   3.015   2.502   6.323  1.0462  0.7122  0.6780
 5400SOL    HW221372   3.055   2.577   6.281 -1.5942  2.2062  0.6156
 5400SOL    HW321373   2.994   2.533   6.411 -0.2933  0.1701  0.5709
 5400SOL    MW421374   3.017   2.516   6.329  0.7119 -0.1324  0.1988
 5401SOL     OW21375   3.486   5.217   2.084  0.6718 -0.1990 -0.0196
 5401SOL    HW221376   3.577   5.220   2.113  0.6615 -0.3852  0.0301
 5401SOL    HW321377   3.437   5.190   2.161  0.7946 -2.0735 -0.5431
 5401SOL    MW421378   3.492   5.214   2.098  0.0632 -0.8037 -0.4502
 5402SOL     OW21379   2.126   2.764   5.086 -0.0568 -0.3304  0.2273
 5402SOL    HW221380   2.073   2.703   5.137  0.7691  0.7336  2.4890
 5402SOL    HW321381   2.203   2.780   5.141  0.9556  0.8138 -1.4308
 5402SOL    MW421382   2.129   2.758   5.100 -0.0130 -0.3826 -0.3835
 5403SOL     OW21383   4.834   4.162   6.006  0.2921  0.5559  0.0748
 5403SOL    HW221384   4.845   4.150   6.101 -0.1780 -0.2433  0.0312
 5403SOL    HW321385   4.913   4.125   5.968 -0.2240 -0.5726  0.0688
 5403SOL    MW421386   4.846   4.156   6.014  0.3818  0.2021  0.0145
 5404SOL     OW21387   5.113   1.074   6.421  0.3017 -0.0822 -0.9188
 5404SOL    HW221388   5.154   1.016   6.485  1.3163  0.9808 -0.5702
 5404SOL    HW321389   5.148   1.161   6.441 -1.2576  0.6938 -1.3504
 5404SOL    MW421390   5.123   1.078   6.432 -0.3625  0.0890 -0.2727
 5405SOL     OW21391   5.206   0.869   3.568 -0.2318 -0.3938  0.1590
 5405SOL    HW221392   5.210   0.829   3.481 -1.0310  0.7325 -0.4195
 5405SOL    HW321393   5.126   0.922   3.567  1.4327  2.3045  0.3937
 5405SOL    MW421394   5.196   0.871   3.557  0.4916  0.3127 -0.7262
 5406SOL     OW21395   3.172   0.427   5.209  0.1396 -0.2809  0.2307
 5406SOL    HW221396   3.245   0.395   5.262  0.2176 -2.3957 -1.0550
 5406SOL    HW321397   3.099   0.371   5.232 -0.3445  0.0266 -0.5039
 5406SOL    MW421398   3.172   0.416   5.219 -0.3289 -0.1427  0.3002
 5407SOL     OW21399   1.229   6.002   4.270  0.4098  0.2382 -0.1230
 5407SOL    HW221400   1.265   5.997   4.358 -0.0021  0.2282  0.0456
 5407SOL    HW321401   1.305   6.022   4.214  0.7663 -0.3327  0.1541
 5407SOL    MW421402   1.244   6.004   4.274 -0.1047  0.0135  0.2898
 5408SOL     OW21403   6.363   4.861   0.593 -0.2080  0.2404  1.0387
 5408SOL    HW221404   6.414   4.930   0.635  0.8166  1.1955 -1.5811
 5408SOL    HW321405   6.427   4.796   0.566 -0.6621  0.1469  0.1085
 5408SOL    MW421406   6.378   4.862   0.595 -0.6170 -0.3190  0.3801
 5409SOL     OW21407   1.423   6.364   3.330 -0.2660 -0.1000 -0.4284
 5409SOL    HW221408   1.417   6.429   3.400 -1.2577 -2.0073  1.4184
 5409SOL    HW321409   1.332   6.338   3.314  0.0900 -0.9719 -1.1577
 5409SOL    MW421410   1.410   6.369   3.337 -0.2837  0.3575  0.0650
 5410SOL     OW21411   0.772   3.961   5.348 -0.5866  0.7248 -0.2494
 5410SOL    HW221412   0.826   3.902   5.402  0.7218 -0.2449 -2.4843
 5410SOL    HW321413   0.707   3.903   5.308 -0.0366  0.9693 -1.5438
 5410SOL    MW421414   0.771   3.945   5.350  0.2603  0.2759 -0.2385
 5411SOL     OW21415   1.060   2.312   2.019  0.6655  0.1374 -0.1255
 5411SOL    HW221416   1.072   2.358   1.936 -0.9283 -1.0204 -1.0385
 5411SOL    HW321417   1.140   2.331   2.068  1.4218  1.2643 -1.7116
 5411SOL    MW421418   1.072   2.321   2.015 -0.5526  0.1155  0.2791
 5412SOL     OW21419   1.802   5.908   1.066 -0.0783  0.7161  0.4505
 5412SOL    HW221420   1.890   5.929   1.098  0.2805 -2.2358  1.6963
 5412SOL    HW321421   1.754   5.990   1.073  2.2994  2.1874  0.6195
 5412SOL    MW421422   1.807   5.922   1.071 -0.1373 -0.4201  0.0574
 5413SOL     OW21423   1.404   0.155   5.675  0.2375 -0.1002  0.4114
 5413SOL    HW221424   1.492   0.137   5.642  0.8338  2.5255  0.3056
 5413SOL    HW321425   1.417   0.180   5.766 -0.0634  2.0459 -0.0600
 5413SOL    MW421426   1.417   0.156   5.682 -0.1690 -0.0353  0.5053
 5414SOL     OW21427   5.610   1.024   2.523  0.3525  0.1024  0.2889
 5414SOL    HW221428   5.597   1.107   2.568  2.5713  0.3960  0.5167
 5414SOL    HW321429   5.696   1.033   2.480  0.1513 -1.6679 -0.5860
 5414SOL    MW421430   5.620   1.036   2.523 -0.0053  0.0879 -0.6066
 5415SOL     OW21431   5.343   4.512   0.908 -0.1462 -0.6650  0.1577
 5415SOL    HW221432   5.421   4.553   0.946 -1.7983  1.6124  1.3300
 5415SOL    HW321433   5.377   4.456   0.838  2.4876  0.5311  0.3625
 5415SOL    MW421434   5.358   4.510   0.904 -0.1856  0.8000 -0.1872
 5416SOL     OW21435   3.154   3.876   1.819  0.3253 -0.0411 -0.4371
 5416SOL    HW221436   3.154   3.910   1.909  0.9901  0.4926 -0.6295
 5416SOL    HW321437   3.105   3.941   1.769 -0.5135 -0.6090 -0.3751
 5416SOL    MW421438   3.147   3.889   1.825  0.0829  0.6052  0.5310
 5417SOL     OW21439   2.420   2.864   4.360  0.8933 -0.2320 -0.7359
 5417SOL    HW221440   2.474   2.916   4.300  0.0085  0.5104 -0.9143
 5417SOL    HW321441   2.435   2.773   4.332  1.3602  0.0207 -1.3527
 5417SOL    MW421442   2.429   2.859   4.348 -0.1341  0.3096  0.0518
 5418SOL     OW21443   4.568   5.937   0.953 -0.0975  0.7746  0.8143
 5418SOL    HW221444   4.597   6.020   0.990 -1.5313  1.5892  0.2149
 5418SOL    HW321445   4.501   5.961   0.889 -0.6182 -0.8491  0.6880
 5418SOL    MW421446   4.563   5.951   0.949 -0.2059 -0.0660  0.0218
 5419SOL     OW21447   4.994   4.704   1.206  0.0048  0.0396  0.4499
 5419SOL    HW221448   5.036   4.777   1.253 -0.1781 -0.5016  1.4856
 5419SOL    HW321449   4.926   4.746   1.154 -0.2670  0.6005  1.2298
 5419SOL    MW421450   4.991   4.719   1.206 -0.3320 -0.4085  0.4288
 5420SOL     OW21451   0.681   4.516   5.192 -0.5786  0.3056  0.9559
 5420SOL    HW221452   0.734   4.537   5.269  0.4452 -1.0537  0.6696
 5420SOL    HW321453   0.643   4.430   5.212 -0.8084  0.2257  0.2060
 5420SOL    MW421454   0.683   4.507   5.205  0.1414  0.5500 -0.3860
 5421SOL     OW21455   5.727   3.534   0.647  0.2092  0.0388  0.1832
 5421SOL    HW221456   5.698   3.445   0.664  0.1129  0.2192  1.0081
 5421SOL    HW321457   5.745   3.536   0.553  0.4055 -0.8993  0.1942
 5421SOL    MW421458   5.725   3.523   0.637  0.7024 -0.3820  0.6523
 5422SOL     OW21459   3.085   3.192   5.536 -0.5604 -0.0897 -0.3989
 5422SOL    HW221460   2.994   3.162   5.525 -1.0537  0.8001  0.9662
 5422SOL    HW321461   3.087   3.279   5.497 -0.1802 -0.2668 -0.7818
 5422SOL    MW421462   3.073   3.199   5.530  0.7166  0.0737 -0.0508
 5423SOL     OW21463   3.636   0.484   6.369  0.2572 -0.6354  0.2326
 5423SOL    HW221464   3.621   0.576   6.350  1.0709 -0.6848 -0.7037
 5423SOL    HW321465   3.711   0.460   6.315  0.0806 -1.8402  0.4952
 5423SOL    MW421466   3.644   0.493   6.360  0.3929  0.4955 -0.3199
 5424SOL     OW21467   5.251   3.922   3.069  0.1806 -0.1505  0.0480
 5424SOL    HW221468   5.275   3.829   3.072 -0.7216 -0.4533 -1.3672
 5424SOL    HW321469   5.334   3.968   3.077  0.6980 -1.0840  0.2642
 5424SOL    MW421470   5.265   3.915   3.071  0.0086  0.0058 -0.2068
 5425SOL     OW21471   0.018   0.658   0.677  0.8234 -0.1295  0.1112
 5425SOL    HW221472   0.044   0.605   0.602 -0.1725 -2.6193  1.4395
 5425SOL    HW321473   0.090   0.721   0.687  2.2083 -1.3844 -1.3410
 5425SOL    MW421474   0.031   0.660   0.668 -0.4168  0.0395  0.2802
 5426SOL     OW21475   5.317   5.403   0.972 -0.2857 -0.0072  0.4732
 5426SOL    HW221476   5.276   5.480   0.932 -0.0875  0.4801  1.1693
 5426SOL    HW321477   5.316   5.422   1.066  1.1065 -0.1844  0.5438
 5426SOL    MW421478   5.312   5.416   0.979 -0.0896 -0.1785  0.3988
 5427SOL     OW21479   6.098   4.256   3.434 -0.3572 -0.7274  0.3213
 5427SOL    HW221480   6.178   4.206   3.416  0.8419 -0.2068  3.5156
 5427SOL    HW321481   6.119   4.346   3.408  0.4469 -0.4486  1.8123
 5427SOL    MW421482   6.111   4.261   3.428  0.7626  0.5224  0.5401
 5428SOL     OW21483   1.873   4.624   4.598 -0.3136  0.3995  0.0659
 5428SOL    HW221484   1.870   4.649   4.505  1.0136  1.6056  0.3223
 5428SOL    HW321485   1.865   4.707   4.645  0.5446 -0.0454  1.0123
 5428SOL    MW421486   1.871   4.638   4.592 -0.1910  0.1936 -0.2235
 5429SOL     OW21487   2.733   2.930   5.720  0.2063 -0.4624  0.0203
 5429SOL    HW221488   2.710   2.947   5.812 -0.5459  1.3084 -0.4597
 5429SOL    HW321489   2.804   2.866   5.725  0.2050 -0.3733  1.8485
 5429SOL    MW421490   2.739   2.924   5.733 -0.1426  0.2308  0.2029
 5430SOL     OW21491   5.259   5.626   1.668 -0.1996  0.1808 -0.0391
 5430SOL    HW221492   5.315   5.684   1.616 -0.3781  1.1750  0.8426
 5430SOL    HW321493   5.316   5.553   1.690  0.4257  0.6353 -0.0923
 5430SOL    MW421494   5.274   5.624   1.664 -0.2414  0.0286 -0.4815
 5431SOL     OW21495   5.618   4.002   5.681  0.1434  0.0282 -0.7714
 5431SOL    HW221496   5.534   4.049   5.681  0.4572  0.6181 -1.9339
 5431SOL    HW321497   5.683   4.070   5.701  0.3107 -0.5407  0.7480
 5431SOL    MW421498   5.616   4.017   5.684  0.4225 -0.3390 -0.8688
 5432SOL     OW21499   0.492   4.190   1.314  0.6798 -0.1576 -0.2115
 5432SOL    HW221500   0.580   4.180   1.279  0.3355  2.1512 -1.9839
 5432SOL    HW321501   0.492   4.277   1.355 -1.6201  1.6031 -3.4801
 5432SOL    MW421502   0.503   4.200   1.315 -0.4438 -0.0354  0.1805
 5433SOL     OW21503   2.751   4.874   0.477  0.1739 -0.1865 -0.2594
 5433SOL    HW221504   2.683   4.938   0.500  0.2232 -0.2597  0.0838
 5433SOL    HW321505   2.703   4.803   0.433  0.0650 -0.1073 -0.2683
 5433SOL    MW421506   2.735   4.873   0.474  0.0853 -0.0286 -0.2622
 5434SOL     OW21507   1.783   2.927   2.185 -0.3245 -0.2482 -0.4043
 5434SOL    HW221508   1.793   3.006   2.132  0.7825  0.9734  1.5178
 5434SOL    HW321509   1.817   2.856   2.130 -0.0475  0.8057 -1.6357
 5434SOL    MW421510   1.789   2.928   2.170 -0.3702 -0.0290  0.6322
 5435SOL     OW21511   6.132   0.184   4.966 -0.6185 -0.1510  0.3839
 5435SOL    HW221512   6.200   0.245   4.938 -1.8392  0.5703 -1.1682
 5435SOL    HW321513   6.146   0.173   5.060  1.4697  0.1652  0.1505
 5435SOL    MW421514   6.143   0.190   4.975 -0.4396  0.0254  0.1339
 5436SOL     OW21515   0.441   1.084   0.665 -0.3395 -0.0863  0.6741
 5436SOL    HW221516   0.361   1.072   0.613 -0.8557 -0.4804  1.5413
 5436SOL    HW321517   0.425   1.164   0.715 -1.5852 -1.8537  3.2748
 5436SOL    MW421518   0.428   1.093   0.665 -0.2084  0.3210 -0.1175
 5437SOL     OW21519   4.118   4.321   0.823 -0.7004 -0.7328  0.0484
 5437SOL    HW221520   4.047   4.296   0.883 -0.7003 -1.0299 -0.0747
 5437SOL    HW321521   4.197   4.292   0.868 -0.5533  0.7000  0.7597
 5437SOL    MW421522   4.119   4.314   0.837 -0.1111  0.4555  0.0136
 5438SOL     OW21523   6.073   0.668   3.596  0.3915  0.0145  0.2543
 5438SOL    HW221524   6.105   0.612   3.525  1.3768  0.9615 -0.0711
 5438SOL    HW321525   6.096   0.621   3.676 -1.9168 -1.7249  0.0158
 5438SOL    MW421526   6.080   0.654   3.597 -0.5071 -0.3742  0.2406
 5439SOL     OW21527   0.869   2.922   2.073  0.5252 -0.2583 -0.0380
 5439SOL    HW221528   0.936   2.987   2.052  0.8613 -0.6515 -0.2007
 5439SOL    HW321529   0.912   2.838   2.060 -0.3469 -0.5402 -1.3276
 5439SOL    MW421530   0.883   2.920   2.069 -0.4741  0.2185  0.1408
 5440SOL     OW21531   1.565   4.363   6.382  0.2672 -0.1456  0.3870
 5440SOL    HW221532   1.656   4.390   6.393  0.6375 -1.7194  1.6008
 5440SOL    HW321533   1.539   4.331   6.469 -1.6268  0.7677  0.2079
 5440SOL    MW421534   1.573   4.362   6.395 -0.0395 -0.0946 -0.1780
 5441SOL     OW21535   5.851   1.252   1.023 -0.4034  0.0649 -0.5485
 5441SOL    HW221536   5.858   1.305   0.943  1.3857 -1.6167 -1.5804
 5441SOL    HW321537   5.793   1.180   0.999  1.7484 -1.5870 -1.0757
 5441SOL    MW421538   5.844   1.249   1.009  0.6002  0.1015 -0.2010
 5442SOL     OW21539   1.965   4.828   1.222 -0.0343 -0.4608  0.1909
 5442SOL    HW221540   1.901   4.889   1.187  0.5809 -0.5171 -1.0703
 5442SOL    HW321541   1.976   4.855   1.314 -2.2782 -0.8380  0.6223
 5442SOL    MW421542   1.958   4.839   1.230  0.7799 -0.3160 -0.4569
 5443SOL     OW21543   0.095   2.853   2.678 -0.4563  0.1452  0.3683
 5443SOL    HW221544   0.036   2.925   2.698  2.3447  2.6219  0.4960
 5443SOL    HW321545   0.097   2.849   2.583 -1.7086 -0.8323  0.3539
 5443SOL    MW421546   0.088   2.862   2.668  0.1253 -0.4848  1.1112
 5444SOL     OW21547   3.227   1.517   0.751  0.0059 -0.5775 -0.0125
 5444SOL    HW221548   3.218   1.474   0.666 -1.9095  0.3438 -0.3382
 5444SOL    HW321549   3.206   1.449   0.815 -2.0266 -0.4472 -0.4774
 5444SOL    MW421550   3.223   1.503   0.749 -0.3694  0.4226  0.6135
 5445SOL     OW21551   3.687   5.195   4.311  0.2428  0.5186  0.4517
 5445SOL    HW221552   3.616   5.189   4.247 -1.9394 -1.4546  2.8171
 5445SOL    HW321553   3.653   5.255   4.378  2.0787  1.8329  0.2656
 5445SOL    MW421554   3.673   5.202   4.312 -0.6781 -0.4813  0.0206
 5446SOL     OW21555   0.587   0.492   3.940 -0.4054  0.2903  0.3763
 5446SOL    HW221556   0.520   0.424   3.926  0.5774 -0.7039  0.3494
 5446SOL    HW321557   0.646   0.483   3.866 -0.3188  1.2698  0.3186
 5446SOL    MW421558   0.586   0.482   3.929  0.3638 -0.0507 -0.0236
 5447SOL     OW21559   0.198   2.402   5.412 -0.4825 -0.2830 -0.4200
 5447SOL    HW221560   0.270   2.465   5.411 -1.2376  0.5903 -0.2696
 5447SOL    HW321561   0.240   2.318   5.391  0.5787  0.2067 -0.3144
 5447SOL    MW421562   0.213   2.399   5.409  0.7724 -0.1731 -0.1201
 5448SOL     OW21563   2.719   5.135   5.391 -0.0403 -0.2483  0.2555
 5448SOL    HW221564   2.707   5.074   5.463 -0.4685  1.2048  1.4686
 5448SOL    HW321565   2.639   5.126   5.338 -0.9727  0.5335  1.4578
 5448SOL    MW421566   2.707   5.126   5.393  0.2731  0.3948  0.1943
 5449SOL     OW21567   6.348   1.447   4.021 -0.5640 -0.5034  0.5141
 5449SOL    HW221568   6.365   1.392   3.945  1.2631 -0.4024  0.7925
 5449SOL    HW321569   6.255   1.467   4.017 -0.6172 -1.0002 -1.3496
 5449SOL    MW421570   6.338   1.443   4.011 -0.9597 -0.3295 -0.1314
 5450SOL     OW21571   2.402   2.062   0.907  0.5791  0.2292 -0.6498
 5450SOL    HW221572   2.392   2.019   0.992 -0.5280  0.9031 -0.4223
 5450SOL    HW321573   2.362   2.001   0.845  0.9042 -0.0195 -0.6157
 5450SOL    MW421574   2.395   2.048   0.910  0.1548 -0.0970 -0.6221
 5451SOL     OW21575   3.735   6.300   2.394 -0.0629  0.3984  0.1097
 5451SOL    HW221576   3.657   6.345   2.364  1.0860  1.9119 -0.7586
 5451SOL    HW321577   3.794   6.301   2.318  1.6991  1.4684  1.4155
 5451SOL    MW421578   3.733   6.306   2.380  0.2880  0.6547 -0.1884
 5452SOL     OW21579   3.083   1.897   3.154 -0.1158  0.1111 -0.4597
 5452SOL    HW221580   3.026   1.831   3.194 -0.4273  0.6105 -0.0739
 5452SOL    HW321581   3.131   1.849   3.086 -0.5601 -0.4460 -0.3869
 5452SOL    MW421582   3.082   1.882   3.150 -0.0780 -0.1424 -0.0477
 5453SOL     OW21583   3.577   3.785   3.447 -0.7905 -0.5858  0.3154
 5453SOL    HW221584   3.485   3.757   3.442 -0.7468 -0.5885 -0.7835
 5453SOL    HW321585   3.626   3.704   3.455 -0.7988 -0.6997 -0.6672
 5453SOL    MW421586   3.571   3.771   3.447 -0.0417 -0.0814 -0.0919
 5454SOL     OW21587   2.469   5.606   0.172  0.1742 -0.1803  0.1952
 5454SOL    HW221588   2.374   5.619   0.170  0.0692 -0.7872  0.9120
 5454SOL    HW321589   2.496   5.611   0.080 -0.3913  1.1236  0.0822
 5454SOL    MW421590   2.460   5.608   0.159 -0.0871 -0.0245 -0.3146
 5455SOL     OW21591   0.849   0.161   2.310  0.4840  0.1260 -0.1616
 5455SOL    HW221592   0.875   0.220   2.240  0.7891 -0.7731 -0.8172
 5455SOL    HW321593   0.927   0.153   2.365  0.2804  0.7371  0.2288
 5455SOL    MW421594   0.863   0.168   2.308  0.9906  0.2625 -0.5278
 5456SOL     OW21595   6.206   5.778   5.639  0.2969  0.2524  0.1787
 5456SOL    HW221596   6.241   5.866   5.627 -0.3345  0.3383 -1.2387
 5456SOL    HW321597   6.241   5.749   5.723 -0.7093  2.4305  1.4229
 5456SOL    MW421598   6.215   5.785   5.648  0.1124 -0.0016  0.2844
 5457SOL     OW21599   5.604   5.119   0.784 -0.1224 -0.2660 -0.2599
 5457SOL    HW221600   5.622   5.070   0.864 -0.5178 -5.4035 -2.8824
 5457SOL    HW321601   5.680   5.103   0.728 -0.7702  1.3813 -1.7086
 5457SOL    MW421602   5.616   5.110   0.787 -0.0711 -0.0393  0.0995
 5458SOL     OW21603   4.143   3.798   5.388  0.5790 -0.7379  0.1911
 5458SOL    HW221604   4.175   3.766   5.472  1.9482  1.0854  0.4480
 5458SOL    HW321605   4.054   3.828   5.406 -0.1423 -2.8189  0.2978
 5458SOL    MW421606   4.136   3.798   5.401  0.2869  0.2841 -0.8186
 5459SOL     OW21607   6.212   5.739   1.935  0.1477 -0.4332 -0.0535
 5459SOL    HW221608   6.191   5.707   1.848  1.7636 -0.2200 -0.5533
 5459SOL    HW321609   6.259   5.666   1.977 -0.3090 -0.4095  0.5161
 5459SOL    MW421610   6.216   5.725   1.929  0.7991  0.1255  0.2311
 5460SOL     OW21611   6.156   6.007   1.357 -0.2915 -0.0805  0.0071
 5460SOL    HW221612   6.081   5.955   1.386  0.5580 -1.3582 -0.0503
 5460SOL    HW321613   6.185   6.053   1.436 -0.3832 -0.5352  0.3094
 5460SOL    MW421614   6.150   6.006   1.372 -0.3380  0.3322  0.1071
 5461SOL     OW21615   5.036   3.592   3.399 -0.4395  0.8366  0.2782
 5461SOL    HW221616   5.042   3.687   3.410 -0.8070  0.6548  2.6051
 5461SOL    HW321617   5.060   3.577   3.308 -0.5129  3.1694 -0.1920
 5461SOL    MW421618   5.040   3.603   3.388  0.0544 -0.3098 -0.1078
 5462SOL     OW21619   4.014   0.955   5.511  0.1870  0.3558 -0.0654
 5462SOL    HW221620   4.023   1.045   5.542 -0.5099  0.2159  0.5695
 5462SOL    HW321621   4.036   0.901   5.587  3.9996 -0.1280 -1.3048
 5462SOL    MW421622   4.018   0.960   5.525  0.0345  0.0597 -0.3645
 5463SOL     OW21623   1.413   2.604   3.790 -0.2185 -0.4436  0.0189
 5463SOL    HW221624   1.490   2.656   3.767  0.1784 -1.3097 -0.6807
 5463SOL    HW321625   1.339   2.657   3.761  0.1240  0.2315  0.3608
 5463SOL    MW421626   1.413   2.618   3.783  0.1644 -0.4740  0.1805
 5464SOL     OW21627   0.059   0.916   4.574  0.7145  0.3553 -0.0207
 5464SOL    HW221628  -0.012   0.859   4.603 -0.2747  2.2361  1.4316
 5464SOL    HW321629   0.114   0.928   4.651  0.4369  1.9872 -0.0367
 5464SOL    MW421630   0.057   0.910   4.588  0.2212 -0.3479  0.4132
 5465SOL     OW21631   4.375   1.039   3.570 -0.6236  0.7182 -1.0028
 5465SOL    HW221632   4.425   1.120   3.568  1.1151 -0.2696 -0.0181
 5465SOL    HW321633   4.404   0.992   3.491  3.1461 -1.5142  1.4032
 5465SOL    MW421634   4.385   1.043   3.559 -0.1633  0.5306 -0.3704
 5466SOL     OW21635   5.279   1.536   3.943 -0.3976 -0.6060 -0.6210
 5466SOL    HW221636   5.342   1.496   3.883 -0.6356 -0.0516 -1.2462
 5466SOL    HW321637   5.288   1.630   3.929 -0.1502 -0.4429  0.5319
 5466SOL    MW421638   5.289   1.543   3.934  0.2094 -0.0387  0.2733
 5467SOL     OW21639   6.092   0.270   3.762 -0.5172  0.6262  0.2656
 5467SOL    HW221640   6.000   0.278   3.788 -0.6202 -1.1699  0.6317
 5467SOL    HW321641   6.116   0.181   3.789  1.2231  0.9269 -0.1782
 5467SOL    MW421642   6.083   0.259   3.769  0.2630  0.1631 -0.6417
 5468SOL     OW21643   1.371   5.118   2.869 -0.1572 -0.7294 -0.0987
 5468SOL    HW221644   1.310   5.050   2.841 -0.9497 -0.0802  0.0201
 5468SOL    HW321645   1.456   5.090   2.834 -0.5697 -1.5050 -0.5012
 5468SOL    MW421646   1.374   5.105   2.860 -0.0167 -0.0774 -0.3273
 5469SOL     OW21647   1.489   0.765   4.429 -0.1423  0.3764 -0.1713
 5469SOL    HW221648   1.402   0.727   4.420 -0.4762 -0.2784  3.8892
 5469SOL    HW321649   1.549   0.690   4.430  0.2189  0.6514 -0.7362
 5469SOL    MW421650   1.486   0.750   4.428  0.3364  0.7560 -0.1199
 5470SOL     OW21651   2.661   4.772   5.352 -0.7481  0.6424 -0.0928
 5470SOL    HW221652   2.665   4.794   5.259  0.2544  1.2087  0.0697
 5470SOL    HW321653   2.738   4.719   5.368 -0.7588  0.7888  0.4785
 5470SOL    MW421654   2.671   4.768   5.342 -0.5762  0.3031 -0.2285
 5471SOL     OW21655   1.564   2.356   2.192 -0.2362 -0.4930  0.0462
 5471SOL    HW221656   1.614   2.361   2.273  1.8173  2.0310 -1.2583
 5471SOL    HW321657   1.610   2.291   2.138  0.0321 -0.1550 -0.1327
 5471SOL    MW421658   1.576   2.348   2.195  0.0439  0.3878 -0.5272
 5472SOL     OW21659   2.999   1.245   1.822 -0.4923 -0.4608 -0.6282
 5472SOL    HW221660   3.002   1.152   1.799  1.2845 -0.6336  0.1217
 5472SOL    HW321661   2.976   1.247   1.914  1.6782 -0.3338 -0.0362
 5472SOL    MW421662   2.997   1.233   1.831  0.1893  0.0415 -0.2391
 5473SOL     OW21663   2.432   5.831   4.106 -0.2193  0.4422  0.0482
 5473SOL    HW221664   2.427   5.765   4.175  1.0535  0.4260  0.1524
 5473SOL    HW321665   2.479   5.904   4.146 -1.7031  1.4662 -0.0414
 5473SOL    MW421666   2.438   5.832   4.120  0.1585 -0.9493 -0.6887
 5474SOL     OW21667   4.206   5.408   5.639  0.1618 -0.0704 -1.0298
 5474SOL    HW221668   4.300   5.393   5.634  0.3046 -0.5462  1.5759
 5474SOL    HW321669   4.195   5.501   5.617  1.5628  0.6241  0.9504
 5474SOL    MW421670   4.217   5.418   5.635 -0.2731  0.1513 -0.3312
 5475SOL     OW21671   3.412   1.255   6.052 -0.2710  0.9262  0.1493
 5475SOL    HW221672   3.446   1.343   6.034 -0.4463  1.0473  0.4090
 5475SOL    HW321673   3.318   1.267   6.062 -0.3126  0.6853  0.0451
 5475SOL    MW421674   3.404   1.269   6.051 -0.1453  0.0064 -0.0632
 5476SOL     OW21675   5.756   4.314   4.920  0.2749 -0.2351 -0.5931
 5476SOL    HW221676   5.751   4.398   4.875 -3.0443 -0.7844 -1.5207
 5476SOL    HW321677   5.739   4.249   4.852  0.3743 -1.5001  0.5434
 5476SOL    MW421678   5.753   4.316   4.905  0.0024  0.0984  0.6306
 5477SOL     OW21679   2.662   6.191   2.244 -0.5385 -0.0120 -0.2834
 5477SOL    HW221680   2.743   6.196   2.294 -1.5782 -0.6502  1.5242
 5477SOL    HW321681   2.676   6.120   2.181  1.2141  1.5818 -1.8102
 5477SOL    MW421682   2.674   6.182   2.242 -0.1687 -0.4232  0.0892
 5478SOL     OW21683   0.556   0.545   5.111  0.2633 -0.1238  0.4587
 5478SOL    HW221684   0.630   0.604   5.097  1.3450 -1.0296  2.1025
 5478SOL    HW321685   0.498   0.594   5.169 -0.7024  0.7587 -1.1699
 5478SOL    MW421686   0.558   0.559   5.116 -0.6426 -0.5767 -0.2816
 5479SOL     OW21687   2.266   6.208   0.041  0.7714  0.5712 -0.0094
 5479SOL    HW221688   2.361   6.202   0.045  0.6448 -2.6917  0.5390
 5479SOL    HW321689   2.247   6.216  -0.053  1.5450  0.6395 -0.1664
 5479SOL    MW421690   2.276   6.208   0.029 -0.2373 -0.2224  0.0528
 5480SOL     OW21691   6.086   4.854   1.512  0.0653 -0.1677 -0.4457
 5480SOL    HW221692   6.093   4.939   1.469 -0.0130 -1.1670 -2.5602
 5480SOL    HW321693   6.156   4.853   1.577 -0.9646  2.1192  0.7952
 5480SOL    MW421694   6.096   4.865   1.515 -0.5957 -0.5904  0.2929
 5481SOL     OW21695   5.685   4.152   2.912  0.4449  0.4691  0.0078
 5481SOL    HW221696   5.737   4.231   2.927  1.3010  0.0612 -0.7454
 5481SOL    HW321697   5.683   4.142   2.817 -1.3639  0.6827 -0.0195
 5481SOL    MW421698   5.692   4.161   2.902  0.2005  0.4901  0.1343
 5482SOL     OW21699   5.771   5.965   1.893 -0.0557  0.2874  0.0003
 5482SOL    HW221700   5.806   5.898   1.952 -1.8337  0.4363  1.3126
 5482SOL    HW321701   5.682   5.935   1.873 -0.6965  1.9559  0.1746
 5482SOL    MW421702   5.764   5.952   1.898 -0.3021  0.5159 -0.5556
 5483SOL     OW21703   1.994   2.577   4.161 -0.3094 -0.2781 -0.0754
 5483SOL    HW221704   2.068   2.572   4.222  1.1222  0.1833 -1.6661
 5483SOL    HW321705   2.005   2.501   4.104 -0.8400  0.0089 -0.5690
 5483SOL    MW421706   2.005   2.567   4.162 -0.3987 -0.2417  0.5499
 5484SOL     OW21707   3.458   3.653   5.431  0.5405 -0.4000  0.0999
 5484SOL    HW221708   3.520   3.657   5.358 -1.0017  0.7721 -1.2239
 5484SOL    HW321709   3.482   3.727   5.487 -0.2204  0.6298 -0.9082
 5484SOL    MW421710   3.469   3.663   5.429  0.3290 -0.4258  0.4117
 5485SOL     OW21711   5.144   5.497   6.180 -0.0694  0.1179  0.2112
 5485SOL    HW221712   5.114   5.406   6.174  1.6844 -0.4840  0.0153
 5485SOL    HW321713   5.207   5.497   6.252  1.5004  0.6871 -1.1032
 5485SOL    MW421714   5.148   5.485   6.189 -0.1865  0.7226 -0.0899
 5486SOL     OW21715   2.593   6.079   0.955  0.1556 -0.0170  0.8352
 5486SOL    HW221716   2.603   6.012   1.022 -0.8144 -0.0265  0.9841
 5486SOL    HW321717   2.552   6.153   1.001 -2.1408 -0.6432 -0.0743
 5486SOL    MW421718   2.589   6.080   0.970 -0.0328 -0.0783  0.1306
 5487SOL     OW21719   0.360   1.952   5.150 -0.0178  0.2890  0.3890
 5487SOL    HW221720   0.348   2.026   5.209  0.4314  1.8984 -1.4292
 5487SOL    HW321721   0.453   1.928   5.160 -0.3466 -0.6394  1.5747
 5487SOL    MW421722   0.371   1.958   5.159  0.1054 -0.8250 -0.4893
 5488SOL     OW21723   3.361   4.458   1.183 -0.4153  0.4490 -0.2237
 5488SOL    HW221724   3.444   4.426   1.149  0.5209  1.4898  0.9630
 5488SOL    HW321725   3.360   4.551   1.160 -1.2771  0.4498 -0.2421
 5488SOL    MW421726   3.371   4.466   1.175 -0.0786  0.4218 -0.4681
 5489SOL     OW21727   5.381   0.338   0.079  0.1998  0.4268 -0.1180
 5489SOL    HW221728   5.397   0.245   0.064 -0.3961  0.1205  1.0547
 5489SOL    HW321729   5.430   0.358   0.159 -0.0582  1.0177 -0.1037
 5489SOL    MW421730   5.390   0.328   0.088 -0.4279 -0.6113  0.0905
 5490SOL     OW21731   1.038   2.359   4.252 -0.1492 -0.0323 -0.0616
 5490SOL    HW221732   1.061   2.395   4.337  2.3562  0.1298 -0.7244
 5490SOL    HW321733   1.107   2.295   4.234  1.0072  1.8686 -3.1078
 5490SOL    MW421734   1.050   2.355   4.261  0.5755 -0.5621  0.5319
 5491SOL     OW21735   6.261   4.384   1.945  0.4354 -0.4220  0.1067
 5491SOL    HW221736   6.328   4.443   1.981 -0.7037  0.6385  0.5692
 5491SOL    HW321737   6.292   4.296   1.967  0.2163  0.1205  3.0389
 5491SOL    MW421738   6.274   4.380   1.953 -0.9515  0.5198  0.6085
 5492SOL     OW21739   0.164   2.436   4.444 -0.0499 -0.1429  0.1486
 5492SOL    HW221740   0.087   2.491   4.456 -0.0243 -0.3898  1.6672
 5492SOL    HW321741   0.198   2.423   4.533  1.7925  0.0211 -0.4898
 5492SOL    MW421742   0.158   2.442   4.457  0.1079 -0.5015  0.3323
 5493SOL     OW21743   1.203   5.142   1.371  0.2051 -0.2018 -0.1706
 5493SOL    HW221744   1.232   5.113   1.284  2.0462  0.5001  0.1575
 5493SOL    HW321745   1.267   5.104   1.431  0.9470  2.0129  0.5462
 5493SOL    MW421746   1.215   5.133   1.367  0.6987  0.3705  0.1621
 5494SOL     OW21747   2.206   4.017   2.607  0.3354  0.0302 -0.2957
 5494SOL    HW221748   2.285   4.070   2.597  0.6252 -0.5066 -0.9160
 5494SOL    HW321749   2.162   4.023   2.523  0.3665 -0.6948 -0.3707
 5494SOL    MW421750   2.211   4.025   2.595 -0.0833 -0.6325  0.1459
 5495SOL     OW21751   1.722   0.862   2.569 -0.5611 -0.2927 -0.1230
 5495SOL    HW221752   1.656   0.801   2.536 -1.3098 -0.2441  1.2216
 5495SOL    HW321753   1.727   0.930   2.502 -2.0971 -0.1311 -0.1049
 5495SOL    MW421754   1.714   0.863   2.556 -0.3254 -0.3226 -0.3354
 5496SOL     OW21755   6.105   3.223   1.859  0.6048  0.0124  0.0420
 5496SOL    HW221756   6.036   3.286   1.881 -0.4575 -1.4113  0.9494
 5496SOL    HW321757   6.099   3.156   1.927  0.5859 -1.9354 -1.8023
 5496SOL    MW421758   6.095   3.223   1.871 -0.2111  0.0390 -0.0095
 5497SOL     OW21759   1.730   1.748   6.366 -0.2438 -0.5514 -0.8453
 5497SOL    HW221760   1.766   1.696   6.294  2.1903  0.1605 -0.2279
 5497SOL    HW321761   1.779   1.720   6.443 -1.7739 -0.2354  0.2918
 5497SOL    MW421762   1.741   1.737   6.366 -0.1756  0.5960 -0.1881
 5498SOL     OW21763   4.879   5.503   4.376 -0.3962  0.0442 -0.1502
 5498SOL    HW221764   4.915   5.506   4.465  1.1335  1.7233 -0.7696
 5498SOL    HW321765   4.821   5.427   4.376  0.4785 -0.6848  1.9361
 5498SOL    MW421766   4.876   5.493   4.388  0.0140 -0.7289  0.6314
 5499SOL     OW21767   4.307   5.911   1.554  0.1202 -0.3576 -0.5806
 5499SOL    HW221768   4.368   5.837   1.552  0.3511 -0.1728 -0.4724
 5499SOL    HW321769   4.337   5.968   1.482 -1.4061 -1.4192 -2.1407
 5499SOL    MW421770   4.319   5.909   1.544 -0.2753  0.8551  0.1072
 5500SOL     OW21771   5.866   1.798   2.893 -0.2560 -0.6182 -0.0807
 5500SOL    HW221772   5.832   1.776   2.980 -0.6525 -0.0802 -0.0941
 5500SOL    HW321773   5.907   1.884   2.904  1.8073 -1.5533  0.1082
 5500SOL    MW421774   5.867   1.806   2.906  0.5060 -0.2406  0.4108
 5501SOL     OW21775   4.255   0.754   2.406 -0.2773 -0.0718 -0.0355
 5501SOL    HW221776   4.170   0.723   2.375  0.2386 -0.3781 -1.2043
 5501SOL    HW321777   4.319   0.709   2.351  0.6809 -0.2333  1.1549
 5501SOL    MW421778   4.252   0.744   2.395  0.0202 -0.2748 -0.2676
 5502SOL     OW21779   6.118   1.913   3.711 -0.2623  0.1980 -0.2295
 5502SOL    HW221780   6.079   1.932   3.796 -1.6666 -1.4403 -0.4475
 5502SOL    HW321781   6.152   1.823   3.720 -2.8575 -1.1141 -2.1263
 5502SOL    MW421782   6.117   1.903   3.723 -0.4994 -0.3452 -0.2404
 5503SOL     OW21783   1.935   0.665   2.489  0.4845 -0.1935 -0.1196
 5503SOL    HW221784   1.910   0.618   2.569  0.5764 -0.6304 -0.3479
 5503SOL    HW321785   1.893   0.751   2.498  0.3369 -0.3083  0.3098
 5503SOL    MW421786   1.926   0.670   2.501 -0.5395 -0.1426  0.1759
 5504SOL     OW21787   1.927   5.556   0.212  0.0616 -0.3175  0.1618
 5504SOL    HW221788   1.849   5.507   0.236  0.0866 -0.0694  0.7742
 5504SOL    HW321789   1.935   5.624   0.280  0.7558 -0.2858  0.0592
 5504SOL    MW421790   1.918   5.559   0.224  0.1494 -0.4079 -0.3423
 5505SOL     OW21791   0.715   3.485   1.613 -0.6395 -0.2038  0.5605
 5505SOL    HW221792   0.762   3.454   1.536 -1.2486  0.7015 -0.1954
 5505SOL    HW321793   0.713   3.409   1.672  0.0674 -0.8258 -0.1883
 5505SOL    MW421794   0.721   3.471   1.611 -0.2429 -0.9857  0.2374
 5506SOL     OW21795   1.831   5.447   3.712 -0.1315 -0.4036 -0.4412
 5506SOL    HW221796   1.832   5.486   3.624  0.8684  0.7263  0.0472
 5506SOL    HW321797   1.922   5.429   3.731 -0.2764 -0.0956  0.5943
 5506SOL    MW421798   1.843   5.450   3.703  0.0411 -0.1073 -0.3806
 5507SOL     OW21799   6.217   0.015   5.973  0.0433  0.4172  0.3115
 5507SOL    HW221800   6.291   0.030   5.914  0.4064  0.7569  0.8483
 5507SOL    HW321801   6.205  -0.080   5.972 -0.0478  0.4240 -0.4122
 5507SOL    MW421802   6.225   0.004   5.965  0.1039  0.1737  0.1857
 5508SOL     OW21803   6.088   3.023   2.037  0.4353 -0.5719 -0.4325
 5508SOL    HW221804   6.115   3.027   2.129  1.1131 -0.8724 -0.6117
 5508SOL    HW321805   5.996   2.999   2.040  0.6166 -1.2062  0.1501
 5508SOL    MW421806   6.079   3.021   2.050 -0.2497 -0.5771 -0.2166
 5509SOL     OW21807   4.047   2.690   5.084 -0.1543  0.4537 -0.1215
 5509SOL    HW221808   3.966   2.712   5.038 -0.0044 -0.4620 -0.8545
 5509SOL    HW321809   4.047   2.595   5.089  0.5345  0.4703  0.5294
 5509SOL    MW421810   4.036   2.681   5.079 -0.7391 -0.3612  0.1304
 5510SOL     OW21811   4.704   5.495   2.341 -0.2816  0.0477  0.1169
 5510SOL    HW221812   4.773   5.523   2.401 -0.8566  1.4844  0.1395
 5510SOL    HW321813   4.703   5.400   2.348  0.1135  0.1462  1.8741
 5510SOL    MW421814   4.713   5.486   2.349 -0.2065 -0.4318  0.0795
 5511SOL     OW21815   5.692   5.118   2.933  0.0192  0.3432 -0.2157
 5511SOL    HW221816   5.737   5.156   2.858  0.1555 -0.7445 -0.7050
 5511SOL    HW321817   5.755   5.059   2.972  0.4354  1.8985  1.6204
 5511SOL    MW421818   5.706   5.115   2.928  0.0863  0.3834 -0.0922
 5512SOL     OW21819   3.927   2.026   1.121  0.0865 -0.1250  0.6238
 5512SOL    HW221820   3.920   2.121   1.126  2.6363  0.3431 -2.1364
 5512SOL    HW321821   3.858   2.000   1.060 -0.8520 -0.1536  1.6616
 5512SOL    MW421822   3.917   2.035   1.114 -0.3953 -0.3479 -0.1253
 5513SOL     OW21823   3.525   5.363   0.795  0.2896  0.2618 -0.1660
 5513SOL    HW221824   3.484   5.352   0.709 -0.4325 -2.1426  0.4212
 5513SOL    HW321825   3.471   5.430   0.838 -0.3501  0.2896 -0.9771
 5513SOL    MW421826   3.513   5.371   0.789 -0.6634  0.0822 -0.0700
 5514SOL     OW21827   2.072   5.011   0.031  0.4540 -0.3817  0.1982
 5514SOL    HW221828   2.053   5.101   0.059 -0.1921 -0.3551 -0.3238
 5514SOL    HW321829   2.043   5.007  -0.060  2.6435 -0.4322 -0.5539
 5514SOL    MW421830   2.066   5.023   0.023 -0.2677 -0.3501 -0.4750
 5515SOL     OW21831   2.022   4.582   3.408  0.0391  0.4284  0.5044
 5515SOL    HW221832   2.030   4.579   3.504 -0.6160  0.1213  0.5560
 5515SOL    HW321833   2.080   4.653   3.381  0.9159 -0.0732  1.0540
 5515SOL    MW421834   2.030   4.591   3.417 -0.2297 -0.8852 -0.9985
 5516SOL     OW21835   5.495   0.076   0.077 -0.6272  0.1579 -0.5488
 5516SOL    HW221836   5.531   0.040  -0.004  0.9902 -2.2109  1.0877
 5516SOL    HW321837   5.568   0.123   0.117 -0.7527 -0.5074  0.5015
 5516SOL    MW421838   5.509   0.078   0.071  0.2539 -0.2495 -0.0522
 5517SOL     OW21839   2.520   4.439   5.452  0.1935  0.6399 -0.5206
 5517SOL    HW221840   2.451   4.494   5.416 -1.1830 -1.8925 -2.0392
 5517SOL    HW321841   2.563   4.401   5.375  1.5930  0.1880  0.4466
 5517SOL    MW421842   2.517   4.441   5.437 -0.6622 -0.2973  0.8172
 5518SOL     OW21843   1.821   3.972   0.961 -0.1631 -0.1040  0.1283
 5518SOL    HW221844   1.727   3.989   0.952 -0.5071 -0.3142  2.6098
 5518SOL    HW321845   1.832   3.882   0.932 -0.1491  0.7673 -2.9343
 5518SOL    MW421846   1.810   3.963   0.956  0.1958  0.4464 -0.4907
 5519SOL     OW21847   0.305   1.473   3.353  0.1852  0.4837 -0.3799
 5519SOL    HW221848   0.216   1.458   3.384 -0.2285  1.0789 -1.2576
 5519SOL    HW321849   0.295   1.507   3.264  1.2997  0.1989 -0.6343
 5519SOL    MW421850   0.292   1.476   3.346  0.0547  0.4043  0.1251
 5520SOL     OW21851   6.047   3.107   0.913  0.3894 -0.3041 -0.6538
 5520SOL    HW221852   5.958   3.138   0.925  0.5961  1.4372 -2.9233
 5520SOL    HW321853   6.101   3.186   0.920  1.4487 -0.8734 -1.9749
 5520SOL    MW421854   6.043   3.122   0.916  0.7853 -0.0053 -0.2072
 5521SOL     OW21855   4.556   2.533   3.163  0.4543 -0.6631  0.0049
 5521SOL    HW221856   4.482   2.583   3.128 -1.1410 -2.6160  0.4128
 5521SOL    HW321857   4.572   2.572   3.249 -1.3982 -1.3851  0.7353
 5521SOL    MW421858   4.548   2.545   3.169 -0.2223  0.4485  0.2120
 5522SOL     OW21859   2.381   6.099   3.216 -0.4368  0.5121 -0.1923
 5522SOL    HW221860   2.430   6.106   3.298 -2.0261 -1.6961  1.0886
 5522SOL    HW321861   2.446   6.112   3.147  1.2450  0.9609  1.3998
 5522SOL    MW421862   2.396   6.102   3.218  0.2896  0.0784  0.2252
 5523SOL     OW21863   1.011   3.163   1.561  0.3525 -0.5681 -0.4970
 5523SOL    HW221864   0.990   3.069   1.564  1.2453 -0.8119  3.3373
 5523SOL    HW321865   1.107   3.166   1.558  0.5080  0.0183  2.0692
 5523SOL    MW421866   1.021   3.151   1.561  0.1355 -0.0606  0.0071
 5524SOL     OW21867   3.929   5.042   2.406  0.4046  0.0580 -0.2497
 5524SOL    HW221868   3.981   5.104   2.355  0.1609  0.1226 -0.4220
 5524SOL    HW321869   3.953   4.956   2.370  2.2830 -0.1530  1.3455
 5524SOL    MW421870   3.940   5.039   2.394  0.1954 -0.3539  0.5929
 5525SOL     OW21871   0.364   4.905   6.120  0.3714 -0.0840  0.0950
 5525SOL    HW221872   0.347   4.827   6.173 -0.8320  0.0688 -0.0546
 5525SOL    HW321873   0.338   4.880   6.032  0.8434  0.1947 -0.1243
 5525SOL    MW421874   0.359   4.891   6.116  0.5679  0.0416 -0.6823
 5526SOL     OW21875   4.747   2.871   0.841  0.7665  0.3695  0.1931
 5526SOL    HW221876   4.685   2.925   0.793  0.1314  1.2965  1.9571
 5526SOL    HW321877   4.719   2.781   0.824  0.1255  0.7008 -0.5597
 5526SOL    MW421878   4.735   2.867   0.832 -0.3587 -0.6447 -0.5358
 5527SOL     OW21879   1.666   3.575   1.998  0.2841  0.0447  0.5567
 5527SOL    HW221880   1.642   3.491   1.959  1.5256  0.1736 -0.5471
 5527SOL    HW321881   1.600   3.590   2.066 -0.4540 -1.4000  0.1877
 5527SOL    MW421882   1.654   3.566   2.002 -0.4736 -0.2640  0.0528
 5528SOL     OW21883   3.436   5.725   0.506 -0.2579 -0.2074 -0.2787
 5528SOL    HW221884   3.482   5.763   0.431  0.3520 -3.2374 -1.5600
 5528SOL    HW321885   3.382   5.656   0.469  0.3697 -2.0994  2.0852
 5528SOL    MW421886   3.435   5.721   0.491 -0.4956  0.5979  0.5539
 5529SOL     OW21887   1.900   4.218   5.316  0.0405  0.0663 -0.8807
 5529SOL    HW221888   1.820   4.233   5.366  1.0417 -0.9415  1.1485
 5529SOL    HW321889   1.876   4.152   5.251 -0.2458 -2.1728  1.3582
 5529SOL    MW421890   1.886   4.211   5.314 -0.9055  0.4743  0.3637
 5530SOL     OW21891   4.674   4.613   0.959  0.1443 -0.2366 -0.1678
 5530SOL    HW221892   4.650   4.704   0.939 -1.8507 -0.0542  2.4617
 5530SOL    HW321893   4.713   4.581   0.879 -1.1548  2.2709 -1.9637
 5530SOL    MW421894   4.676   4.621   0.946 -0.1251  0.0290  0.3624
 5531SOL     OW21895   1.725   6.229   6.169  0.0242 -0.4120 -0.0873
 5531SOL    HW221896   1.738   6.252   6.261 -1.3680  0.0336  0.0213
 5531SOL    HW321897   1.778   6.150   6.157  0.3643 -0.3822  1.0502
 5531SOL    MW421898   1.734   6.222   6.180 -0.3706 -0.6559  0.5098
 5532SOL     OW21899   6.063   1.192   5.819 -0.0041 -0.9071 -0.2185
 5532SOL    HW221900   6.096   1.254   5.884 -2.0688  0.4073 -0.3181
 5532SOL    HW321901   6.107   1.217   5.738  2.2957 -2.3088  0.4928
 5532SOL    MW421902   6.073   1.204   5.817  0.0541 -0.1751  0.3970
 5533SOL     OW21903   2.620   5.187   4.124 -0.0340 -0.2108  0.2140
 5533SOL    HW221904   2.565   5.117   4.159  0.5001 -0.4792  0.5382
 5533SOL    HW321905   2.645   5.156   4.037  0.2386 -0.4496  0.3743
 5533SOL    MW421906   2.616   5.173   4.117 -0.4171  0.3294 -0.5309
 5534SOL     OW21907   0.486   1.620   3.835  0.1168  0.1908 -0.1363
 5534SOL    HW221908   0.494   1.716   3.830 -1.0313  0.2557 -0.9667
 5534SOL    HW321909   0.573   1.588   3.812  0.8952  1.0437  1.4418
 5534SOL    MW421910   0.499   1.629   3.832 -0.8683 -0.0644  0.4559
 5535SOL     OW21911   3.850   2.231   0.767 -0.1897 -0.1366 -0.1970
 5535SOL    HW221912   3.846   2.321   0.800  0.3242 -0.2070  0.0688
 5535SOL    HW321913   3.770   2.221   0.715  0.8592  1.2549 -2.2308
 5535SOL    MW421914   3.839   2.241   0.764  0.4710  0.4133 -0.2042
 5536SOL     OW21915   5.555   3.903   2.426  0.2414 -0.0249  0.6051
 5536SOL    HW221916   5.631   3.926   2.372  1.4568  0.9756  2.6002
 5536SOL    HW321917   5.480   3.909   2.368  1.6156 -0.4648 -1.3033
 5536SOL    MW421918   5.555   3.907   2.411 -0.0401  0.5586 -0.3878
 5537SOL     OW21919   1.449   3.521   5.875 -0.3822  0.1152 -0.4246
 5537SOL    HW221920   1.366   3.473   5.870 -0.0028 -0.4851 -1.2000
 5537SOL    HW321921   1.434   3.589   5.941 -1.5854  0.2053 -0.7688
 5537SOL    MW421922   1.436   3.524   5.883  0.4364 -0.4375 -0.6288
 5538SOL     OW21923   5.335   2.351   2.834  0.8302 -0.5912  0.1370
 5538SOL    HW221924   5.400   2.310   2.776  0.9134 -0.3061  0.0246
 5538SOL    HW321925   5.372   2.438   2.853 -0.8187  0.7346 -2.2179
 5538SOL    MW421926   5.349   2.357   2.829  0.1908  0.1976 -0.1241
 5539SOL     OW21927   0.234   4.691   2.406 -0.6354  0.1204 -0.2692
 5539SOL    HW221928   0.293   4.719   2.476 -1.0586  0.5272 -0.0694
 5539SOL    HW321929   0.214   4.771   2.358 -0.7240 -0.0784 -0.5699
 5539SOL    MW421930   0.239   4.705   2.409 -0.3739 -0.6491  0.3410
 5540SOL     OW21931   4.594   0.784   2.040 -0.1428  0.2315  0.2834
 5540SOL    HW221932   4.579   0.876   2.020  0.9867  0.1999 -0.8272
 5540SOL    HW321933   4.679   0.783   2.085 -0.6831 -0.1615  1.3334
 5540SOL    MW421934   4.603   0.796   2.044  0.6585  0.3618  0.1404
 5541SOL     OW21935   1.499   0.809   0.812 -0.6043  0.8840  0.3688
 5541SOL    HW221936   1.479   0.738   0.874 -1.3267  0.5831 -0.1951
 5541SOL    HW321937   1.413   0.845   0.789 -0.4734  0.1732 -1.3986
 5541SOL    MW421938   1.485   0.804   0.817 -0.2342 -0.1943  0.2288
 5542SOL     OW21939   4.068   3.753   3.737 -0.0551 -0.2542 -0.1980
 5542SOL    HW221940   4.075   3.845   3.763 -0.9485  0.1461 -1.2921
 5542SOL    HW321941   4.047   3.756   3.644 -1.6907 -1.5246  0.0818
 5542SOL    MW421942   4.066   3.765   3.728 -0.2164  0.2997 -0.3264
 5543SOL     OW21943   2.299   4.640   0.770  0.0514 -0.5253 -0.3007
 5543SOL    HW221944   2.392   4.630   0.788 -0.3938 -1.9174  1.4867
 5543SOL    HW321945   2.274   4.558   0.727 -1.0538 -1.8798  2.7019
 5543SOL    MW421946   2.308   4.628   0.767 -0.0175  0.5529 -0.0732
 5544SOL     OW21947   5.001   6.289   0.767  0.5767 -0.7639 -0.3372
 5544SOL    HW221948   5.015   6.366   0.712  0.8565  1.0655  2.1277
 5544SOL    HW321949   4.913   6.259   0.746  0.4551  0.2372 -1.3211
 5544SOL    MW421950   4.991   6.295   0.757 -0.0254 -0.3566 -0.0398
 5545SOL     OW21951   0.028   3.496   3.270  0.0707 -0.2321 -0.7916
 5545SOL    HW221952   0.014   3.434   3.198 -1.0144 -0.5452 -0.3250
 5545SOL    HW321953  -0.012   3.578   3.240 -1.7445 -0.7806  0.0403
 5545SOL    MW421954   0.021   3.499   3.257 -0.3682 -0.0090 -0.4683
 5546SOL     OW21955   2.358   2.396   1.940 -0.1787  0.3829  0.3098
 5546SOL    HW221956   2.438   2.405   1.991  0.4533  0.6616 -0.7088
 5546SOL    HW321957   2.366   2.461   1.870 -0.8896 -0.1826 -0.3209
 5546SOL    MW421958   2.370   2.406   1.938 -0.0602  0.1026 -0.1457
 5547SOL     OW21959   4.205   3.737   2.193 -0.1813 -0.4905 -0.2491
 5547SOL    HW221960   4.283   3.698   2.153  0.5026  0.4668  0.1127
 5547SOL    HW321961   4.138   3.731   2.125  0.7393  0.3668 -1.2727
 5547SOL    MW421962   4.206   3.731   2.178 -0.3767 -0.6253 -0.2600
 5548SOL     OW21963   0.246   0.556   3.342  0.2515 -1.0094 -0.1739
 5548SOL    HW221964   0.289   0.639   3.324 -1.4923  0.1387  0.6876
 5548SOL    HW321965   0.304   0.513   3.405  0.3872  0.2856  0.6198
 5548SOL    MW421966   0.259   0.561   3.348  0.3240 -0.1120  0.8844
 5549SOL     OW21967   3.906   0.603   3.481 -0.1401 -0.0263  0.1785
 5549SOL    HW221968   3.935   0.514   3.458  0.8851  0.6421 -1.2477
 5549SOL    HW321969   3.935   0.614   3.572  1.8969 -0.3350 -0.3698
 5549SOL    MW421970   3.914   0.593   3.490  0.1023 -0.3842  0.3819
 5550SOL     OW21971   1.318   0.765   5.396  0.1167 -0.0891 -0.2777
 5550SOL    HW221972   1.304   0.793   5.486 -0.6419  0.5789 -0.5876
 5550SOL    HW321973   1.287   0.675   5.393 -0.6404  0.1629 -0.0648
 5550SOL    MW421974   1.312   0.757   5.407 -0.5177 -0.4551 -0.4608
 5551SOL     OW21975   6.240   1.115   2.612  0.1724  0.2534 -0.2425
 5551SOL    HW221976   6.228   1.210   2.604  1.1315  0.5071  0.9733
 5551SOL    HW321977   6.154   1.081   2.637 -0.5457  0.5801 -2.0792
 5551SOL    MW421978   6.227   1.123   2.614  0.0779  0.0294  0.3126
 5552SOL     OW21979   5.118   0.935   4.882 -0.3344 -0.5784 -0.1587
 5552SOL    HW221980   5.110   0.875   4.808 -0.2731  0.8468 -1.3632
 5552SOL    HW321981   5.027   0.950   4.910 -0.3874 -0.7865 -0.2120
 5552SOL    MW421982   5.105   0.929   4.876 -0.3469 -0.2832 -0.3039
 5553SOL     OW21983   4.896   0.539   3.124  0.2580 -0.2544 -0.2959
 5553SOL    HW221984   4.975   0.485   3.117  1.2623  1.2439 -1.2060
 5553SOL    HW321985   4.913   0.613   3.066 -0.3450  1.8748  2.0506
 5553SOL    MW421986   4.909   0.542   3.116  0.1054 -0.2369  0.5327
 5554SOL     OW21987   5.359   0.940   3.140  0.1239  0.2429 -0.9775
 5554SOL    HW221988   5.263   0.950   3.138  0.0214  0.1855  0.9883
 5554SOL    HW321989   5.387   0.958   3.051 -1.8246 -0.8591 -1.8791
 5554SOL    MW421990   5.350   0.944   3.128  0.0046  0.7902 -0.2423
 5555SOL     OW21991   4.281   6.344   2.303 -0.4340  0.5477 -0.8552
 5555SOL    HW221992   4.269   6.419   2.361  0.0102 -0.0063 -0.0275
 5555SOL    HW321993   4.372   6.317   2.317 -1.6455 -2.6604  2.0196
 5555SOL    MW421994   4.291   6.350   2.312  0.1757  0.3144  0.3977
 5556SOL     OW21995   0.864   0.610   4.561  0.2107 -0.4923  0.0154
 5556SOL    HW221996   0.878   0.698   4.526 -0.4392 -1.0040 -1.6327
 5556SOL    HW321997   0.951   0.570   4.560  0.2746 -0.3510 -0.6563
 5556SOL    MW421998   0.877   0.616   4.556  0.2580 -0.0590  1.3690
 5557SOL     OW21999   4.735   3.546   0.478  0.3017 -0.7933 -0.0367
 5557SOL    HW222000   4.723   3.476   0.543  0.2818 -1.5278 -0.8230
 5557SOL    HW322001   4.796   3.511   0.415 -1.5011 -1.0428 -1.7400
 5557SOL    MW422002   4.741   3.532   0.479 -0.0710  0.0823 -0.0231
 5558SOL     OW22003   3.616   3.814   5.909  0.0194  0.2562  0.0571
 5558SOL    HW222004   3.619   3.909   5.896 -3.4416  0.3078 -1.3136
 5558SOL    HW322005   3.582   3.804   5.998  1.0109  0.2335  0.4514
 5558SOL    MW422006   3.612   3.825   5.919 -0.2287 -0.4476  0.0298
 5559SOL     OW22007   3.261   5.097   2.634  0.1395  0.1533 -0.0551
 5559SOL    HW222008   3.338   5.053   2.596  0.7141  1.8090 -0.8897
 5559SOL    HW322009   3.275   5.092   2.729  1.1062  0.1310 -0.1902
 5559SOL    MW422010   3.273   5.090   2.641 -0.5507 -0.0076 -0.2628
 5560SOL     OW22011   3.518   3.869   5.591 -0.3361 -0.0912  0.1909
 5560SOL    HW222012   3.479   3.874   5.678  1.6371  0.1931  1.1219
 5560SOL    HW322013   3.611   3.850   5.607  0.2938  0.9821 -1.7853
 5560SOL    MW422014   3.525   3.868   5.605 -0.1589  0.1783  0.0899
 5561SOL     OW22015   4.906   0.285   4.754 -0.7451  0.2195  0.2690
 5561SOL    HW222016   4.852   0.273   4.833  0.7589  0.0651  1.3120
 5561SOL    HW322017   4.849   0.257   4.682 -1.8134 -0.6343  1.4009
 5561SOL    MW422018   4.891   0.279   4.755  0.7898  0.2253 -0.1159
 5562SOL     OW22019   5.048   3.920   1.210  0.9107 -0.0315  0.2457
 5562SOL    HW222020   4.991   3.948   1.139  0.1538  0.3389  0.9785
 5562SOL    HW322021   5.042   3.824   1.209 -0.2347  0.0159  0.6977
 5562SOL    MW422022   5.039   3.911   1.201  0.1694  0.0174 -0.2910
 5563SOL     OW22023   2.631   1.502   5.429  0.1481  0.0063 -0.2045
 5563SOL    HW222024   2.567   1.539   5.369  0.9415  1.2467 -0.3252
 5563SOL    HW322025   2.689   1.575   5.451 -0.2085 -0.3314  2.2093
 5563SOL    MW422026   2.631   1.516   5.424  0.7658 -0.2398 -0.6694
 5564SOL     OW22027   3.508   2.067   1.678 -0.4553  0.0199  0.1953
 5564SOL    HW222028   3.433   2.038   1.626 -1.5803 -0.9750  2.2228
 5564SOL    HW322029   3.494   2.161   1.691 -0.2139  0.2525 -1.1726
 5564SOL    MW422030   3.496   2.076   1.673 -0.1500  0.1801 -0.6044
 5565SOL     OW22031   2.721   4.833   3.045  0.0948 -0.0947 -0.4111
 5565SOL    HW222032   2.631   4.804   3.060  0.0619 -0.7867 -1.8258
 5565SOL    HW322033   2.716   4.929   3.047 -0.5922 -0.1339 -0.0937
 5565SOL    MW422034   2.709   4.842   3.047  0.5903 -0.1057 -0.6113
 5566SOL     OW22035   0.488   1.159   5.331  0.0012  0.3597  0.0325
 5566SOL    HW222036   0.517   1.090   5.272  0.2350  0.2221  0.3013
 5566SOL    HW322037   0.537   1.142   5.412  0.4948  1.1806 -0.0851
 5566SOL    MW422038   0.498   1.148   5.334  0.6528 -0.3525 -0.8079
 5567SOL     OW22039   5.191   3.413   6.122  0.5458  0.3601 -0.4444
 5567SOL    HW222040   5.099   3.434   6.107  0.0041 -0.3972  1.4819
 5567SOL    HW322041   5.231   3.497   6.148 -0.0993  0.3166  0.7549
 5567SOL    MW422042   5.184   3.427   6.124  0.1940 -0.3351 -0.4915
 5568SOL     OW22043   3.674   0.255   0.472  0.0495  0.6767  0.0430
 5568SOL    HW222044   3.704   0.171   0.439  2.1312  0.2569  2.6625
 5568SOL    HW322045   3.583   0.240   0.498  0.4976 -0.9141  0.7925
 5568SOL    MW422046   3.666   0.242   0.471 -0.5250  0.4740 -0.5596
 5569SOL     OW22047   2.759   5.109   3.396 -0.0988  0.0181  0.0531
 5569SOL    HW222048   2.689   5.046   3.416  0.3259 -0.6122 -0.4178
 5569SOL    HW322049   2.721   5.194   3.419 -0.1820 -0.5042  2.0623
 5569SOL    MW422050   2.745   5.112   3.402  0.2866 -0.6638  0.4139
 5570SOL     OW22051   3.656   6.321   4.776  0.5420 -0.1580  0.3706
 5570SOL    HW222052   3.717   6.383   4.737  1.6161 -1.7215 -0.5888
 5570SOL    HW322053   3.654   6.248   4.714  0.8744 -1.9401  2.3237
 5570SOL    MW422054   3.664   6.319   4.763  0.0281  0.5454  0.3238
 5571SOL     OW22055   5.883   1.522   6.417  0.2487  0.8629 -0.3176
 5571SOL    HW222056   5.878   1.617   6.411  0.1554  0.8057 -1.3394
 5571SOL    HW322057   5.929   1.495   6.337  1.7237  0.1545  0.7096
 5571SOL    MW422058   5.889   1.531   6.405  0.8709 -0.1406 -0.1934
 5572SOL     OW22059   2.650   1.069   5.572  0.1309  0.1246 -0.1915
 5572SOL    HW222060   2.600   1.143   5.537  0.3912  0.8190  0.8714
 5572SOL    HW322061   2.736   1.077   5.530 -0.2793 -0.4201 -1.1662
 5572SOL    MW422062   2.655   1.080   5.562  0.1233 -0.0679 -1.0202
 5573SOL     OW22063   3.002   2.235   1.394 -0.3728  0.3302  0.3798
 5573SOL    HW222064   2.961   2.316   1.424  0.6629  0.8757  0.3803
 5573SOL    HW322065   3.094   2.244   1.421 -0.3843 -1.1505  0.9920
 5573SOL    MW422066   3.009   2.247   1.401 -0.4800 -0.3370 -0.2593
 5574SOL     OW22067   3.002   5.938   0.171  0.4571  0.3173  0.6151
 5574SOL    HW222068   3.047   5.942   0.086 -0.8704 -2.1145 -0.3157
 5574SOL    HW322069   3.066   5.898   0.230  1.2482  1.6356  0.6718
 5574SOL    MW422070   3.016   5.933   0.167  0.1782 -0.0645 -0.0569
 5575SOL     OW22071   0.743   1.902   2.855 -0.3912 -0.5216 -0.6822
 5575SOL    HW222072   0.731   1.826   2.797 -0.7773  0.3651 -1.8139
 5575SOL    HW322073   0.673   1.962   2.830  0.1139  0.3595 -0.0488
 5575SOL    MW422074   0.732   1.900   2.844 -0.4558 -0.6126 -0.4667
 5576SOL     OW22075   2.324   3.740   4.028  0.0045  0.1304  0.3637
 5576SOL    HW222076   2.375   3.816   4.001  1.0029 -1.0195 -1.1868
 5576SOL    HW322077   2.232   3.768   4.019  0.3038  1.7329  1.7352
 5576SOL    MW422078   2.318   3.754   4.023  0.2339 -0.2488 -0.3310
 5577SOL     OW22079   1.075   5.794   1.552 -0.1891 -0.5497 -0.1622
 5577SOL    HW222080   1.118   5.829   1.630  0.7319  0.0549 -0.9146
 5577SOL    HW322081   1.021   5.867   1.520  0.3182 -0.4026 -0.7114
 5577SOL    MW422082   1.074   5.808   1.558 -0.0708  0.0150 -0.1265
 5578SOL     OW22083   1.067   5.369   2.238 -0.2533  0.2548  0.0471
 5578SOL    HW222084   1.160   5.390   2.242  0.0288 -1.1272  1.2633
 5578SOL    HW322085   1.051   5.312   2.313 -1.9112 -0.2135 -0.6068
 5578SOL    MW422086   1.077   5.365   2.249 -0.5679  0.1490  0.1311
 5579SOL     OW22087   4.888   3.429   0.262  0.1302  0.0834  0.3422
 5579SOL    HW222088   4.806   3.389   0.237  0.1635 -0.3286  0.8641
 5579SOL    HW322089   4.948   3.356   0.277  0.9237  0.3996 -1.0824
 5579SOL    MW422090   4.885   3.414   0.261 -0.5706  0.2471  0.0258
 5580SOL     OW22091   6.252   5.024   4.341 -0.1248 -0.1497 -0.2207
 5580SOL    HW222092   6.221   5.014   4.251 -1.9713 -0.3368  0.3834
 5580SOL    HW322093   6.236   4.939   4.381  3.0499 -0.9182 -0.3086
 5580SOL    MW422094   6.246   5.012   4.335 -0.4766 -0.8266  0.0081
 5581SOL     OW22095   4.566   4.678   6.368 -0.1195  0.1849 -0.1015
 5581SOL    HW222096   4.502   4.690   6.298  0.0823 -0.6443 -0.4325
 5581SOL    HW322097   4.562   4.584   6.388  1.6390 -0.0522 -0.7398
 5581SOL    MW422098   4.557   4.667   6.362 -0.0439 -0.4784 -0.3585
 5582SOL     OW22099   1.105   0.163   0.843 -0.3739  0.1360 -0.2211
 5582SOL    HW222100   1.172   0.173   0.776 -1.3561 -0.3859 -1.3262
 5582SOL    HW322101   1.033   0.119   0.798 -0.3559 -1.9813  1.6522
 5582SOL    MW422102   1.104   0.158   0.828  0.1607 -0.1180 -0.7737
 5583SOL     OW22103   3.849   3.846   1.322 -0.5188 -0.2738  0.1205
 5583SOL    HW222104   3.857   3.856   1.227  0.6398  1.4578  0.3623
 5583SOL    HW322105   3.919   3.786   1.346 -1.1229 -1.1126 -0.1483
 5583SOL    MW422106   3.859   3.839   1.313 -0.3088  0.6493  0.3581
 5584SOL     OW22107   0.140   4.192   4.873  0.3030  0.1747 -0.1724
 5584SOL    HW222108   0.117   4.229   4.788  0.5293  0.9925  0.1108
 5584SOL    HW322109   0.059   4.193   4.923  0.7211  2.4132  0.5915
 5584SOL    MW422110   0.126   4.197   4.869  0.5434  0.2907 -0.1406
 5585SOL     OW22111   2.727   5.009   5.880 -0.2846 -0.4493 -0.2132
 5585SOL    HW222112   2.757   4.978   5.965 -1.3894  0.7074  0.6261
 5585SOL    HW322113   2.776   5.089   5.865  0.6601 -1.1678 -1.1798
 5585SOL    MW422114   2.737   5.015   5.889 -0.2620 -0.2891  0.7259
 5586SOL     OW22115   2.097   5.557   6.067  0.4468 -0.0842  0.0413
 5586SOL    HW222116   2.003   5.558   6.081  0.4271  0.5085 -0.1032
 5586SOL    HW322117   2.108   5.579   5.974  0.7590  0.6280  0.2447
 5586SOL    MW422118   2.086   5.560   6.057 -0.3342  0.1466 -0.3653
 5587SOL     OW22119   4.552   0.338   2.084 -0.3130 -0.0196 -0.0340
 5587SOL    HW222120   4.641   0.365   2.059 -0.4967  0.4936 -0.1512
 5587SOL    HW322121   4.562   0.248   2.114  0.3630  0.2458  0.5753
 5587SOL    MW422122   4.565   0.330   2.085  0.2775 -0.1178  0.1206
 5588SOL     OW22123   4.007   4.165   2.117  0.5248 -0.1658 -0.3371
 5588SOL    HW222124   4.092   4.123   2.101  0.8227 -0.8845  2.6263
 5588SOL    HW322125   3.979   4.132   2.202 -2.8974 -0.1592 -1.2867
 5588SOL    MW422126   4.014   4.155   2.126 -0.2784  0.4026  0.0638
 5589SOL     OW22127   1.019   4.554   2.912  0.6207 -0.2098 -0.9700
 5589SOL    HW222128   0.983   4.640   2.889 -0.4040 -0.6308 -0.9856
 5589SOL    HW322129   1.061   4.524   2.832 -1.6720 -1.0313 -1.9377
 5589SOL    MW422130   1.020   4.561   2.898  0.4480 -0.0845 -0.1002
 5590SOL     OW22131   3.401   5.090   5.435  0.4225  0.2172 -0.2089
 5590SOL    HW222132   3.443   5.012   5.471 -0.1255  0.5574  1.2295
 5590SOL    HW322133   3.430   5.162   5.492  1.3068  1.1671 -1.7887
 5590SOL    MW422134   3.410   5.089   5.448  0.0252  0.2018  0.3317
 5591SOL     OW22135   0.125   4.681   0.501 -0.4030 -0.6309  0.4066
 5591SOL    HW222136   0.170   4.737   0.438  1.0200 -0.4613  1.5136
 5591SOL    HW322137   0.070   4.624   0.448  1.8023 -1.4799 -1.1492
 5591SOL    MW422138   0.124   4.681   0.486  0.0462  0.0576 -0.0789
 5592SOL     OW22139   6.106   0.238   5.254 -0.1794  0.6561 -0.8416
 5592SOL    HW222140   6.097   0.321   5.300 -1.7931  0.0689 -0.0479
 5592SOL    HW322141   6.021   0.196   5.262 -0.4572  0.3331 -4.0530
 5592SOL    MW422142   6.094   0.244   5.261  0.4043  0.0635 -0.0524
 5593SOL     OW22143   5.207   0.886   1.222  0.1851  0.0137  0.0322
 5593SOL    HW222144   5.116   0.859   1.239  0.4588  0.2437  2.2082
 5593SOL    HW322145   5.224   0.954   1.287  1.8147  0.2274 -0.5768
 5593SOL    MW422146   5.197   0.891   1.233 -0.5821  0.4561 -0.3944
 5594SOL     OW22147   4.417   4.016   2.733 -0.1696 -0.0333  0.2988
 5594SOL    HW222148   4.326   4.043   2.745 -0.6916 -1.4170 -0.3784
 5594SOL    HW322149   4.427   3.938   2.787  0.8763  0.5677  1.0205
 5594SOL    MW422150   4.406   4.009   2.742  0.3184 -0.6794 -0.3491
 5595SOL     OW22151   5.124   3.674   5.698 -0.3106  0.3716  0.2824
 5595SOL    HW222152   5.133   3.720   5.781  0.9234 -1.6879  1.3693
 5595SOL    HW322153   5.104   3.743   5.634  1.1270  2.3335  1.8409
 5595SOL    MW422154   5.122   3.689   5.701  0.0146 -0.1727 -0.2208
 5596SOL     OW22155   4.798   3.399   2.880  0.2295  0.4323  0.1312
 5596SOL    HW222156   4.739   3.395   2.805 -1.0835  0.9643  1.1058
 5596SOL    HW322157   4.742   3.418   2.954  1.4751 -0.2954  1.3083
 5596SOL    MW422158   4.783   3.401   2.880  0.4516 -0.0115  0.0174
 5597SOL     OW22159   3.950   6.169   4.710 -0.0763 -0.2150  0.4532
 5597SOL    HW222160   3.923   6.219   4.633 -0.8774 -0.1693  0.7583
 5597SOL    HW322161   3.891   6.094   4.712  0.1171 -0.3586  0.8741
 5597SOL    MW422162   3.939   6.166   4.700 -0.0399  0.1017  0.2096
 5598SOL     OW22163   1.957   6.338   1.276  0.1060  0.2405  0.1103
 5598SOL    HW222164   1.912   6.387   1.345 -1.5474  0.0696 -0.7877
 5598SOL    HW322165   1.906   6.258   1.267  1.2550 -0.4701 -0.2158
 5598SOL    MW422166   1.944   6.334   1.284 -0.3645 -0.3817  0.0476
 5599SOL     OW22167   2.419   4.060   0.267  0.3570 -0.5144 -0.8221
 5599SOL    HW222168   2.506   4.062   0.227  0.3778  0.0379 -0.7551
 5599SOL    HW322169   2.360   4.085   0.196  0.5247  1.8698 -0.1907
 5599SOL    MW422170   2.423   4.064   0.252  0.6141 -0.6778 -0.4477
 5600SOL     OW22171   0.090   5.684   4.494  0.2728 -0.4327 -0.0693
 5600SOL    HW222172   0.033   5.756   4.464 -0.3354 -0.2462  1.4269
 5600SOL    HW322173   0.051   5.606   4.456 -0.5069 -0.2126  0.2498
 5600SOL    MW422174   0.077   5.684   4.485 -0.1978 -0.8842 -0.0205
 5601SOL     OW22175   3.826   4.671   2.647 -0.4949  0.6453  0.0146
 5601SOL    HW222176   3.770   4.687   2.570  0.8216 -2.6605 -1.8643
 5601SOL    HW322177   3.764   4.649   2.717 -1.7551 -1.7936 -1.6897
 5601SOL    MW422178   3.810   4.670   2.646 -0.1706 -0.4014 -0.1230
 5602SOL     OW22179   3.186   3.631   3.006  0.4153  0.1961 -0.0245
 5602SOL    HW222180   3.111   3.625   3.065 -0.4251 -1.3693 -1.1794
 5602SOL    HW322181   3.238   3.704   3.041 -1.6670  1.4147  0.7436
 5602SOL    MW422182   3.183   3.640   3.019 -0.0148  0.0430  0.6642
 5603SOL     OW22183   0.490   4.669   3.360  0.1558 -0.1778 -0.2373
 5603SOL    HW222184   0.442   4.656   3.442  0.3077 -0.4350 -0.1876
 5603SOL    HW322185   0.582   4.673   3.386  0.1427  0.5603 -0.3077
 5603SOL    MW422186   0.496   4.668   3.374 -0.3549 -0.3637 -0.3590
 5604SOL     OW22187   6.116   0.993   4.679  0.6530  0.3825 -0.1442
 5604SOL    HW222188   6.023   1.004   4.699  0.7228  1.3154 -0.3177
 5604SOL    HW322189   6.158   0.988   4.765  0.5963  1.3246 -0.0549
 5604SOL    MW422190   6.109   0.994   4.693  0.3136 -0.3823  0.1151
 5605SOL     OW22191   0.340   2.905   5.492 -0.1608  0.1460  0.0489
 5605SOL    HW222192   0.424   2.860   5.483 -0.1041  0.3715 -0.6626
 5605SOL    HW322193   0.275   2.835   5.486 -0.0873  0.1645 -1.4169
 5605SOL    MW422194   0.343   2.889   5.490  0.4416  0.3102 -0.2969
 5606SOL     OW22195   3.102   3.630   4.147  0.1905 -0.2174  0.0110
 5606SOL    HW222196   3.064   3.634   4.235  1.1021 -1.4665  0.4993
 5606SOL    HW322197   3.095   3.537   4.122  0.8185 -0.0575 -0.8304
 5606SOL    MW422198   3.096   3.618   4.155 -0.1670 -0.2174  0.3661
 5607SOL     OW22199   2.541   1.911   6.281 -0.7725  0.6562 -0.2298
 5607SOL    HW222200   2.447   1.903   6.298 -1.1462  1.3270 -1.8037
 5607SOL    HW322201   2.581   1.838   6.329 -2.1655 -0.0228 -0.0636
 5607SOL    MW422202   2.534   1.900   6.289  0.0844 -0.5556  0.1426
 5608SOL     OW22203   1.008   0.635   1.433 -0.4542 -0.2090  0.0696
 5608SOL    HW222204   1.022   0.590   1.349  1.3480 -1.6786  1.0831
 5608SOL    HW322205   0.976   0.566   1.492  2.3714 -0.2759  1.6702
 5608SOL    MW422206   1.005   0.620   1.429  0.5511 -0.6629 -0.5067
 5609SOL     OW22207   2.541   1.051   3.256 -0.3275 -0.6645  0.2007
 5609SOL    HW222208   2.513   1.136   3.290 -0.5653 -1.0243  0.9162
 5609SOL    HW322209   2.472   0.991   3.282  0.0426 -1.1567  0.0517
 5609SOL    MW422210   2.528   1.054   3.264  0.0889  0.5161  0.4979
 5610SOL     OW22211   4.719   0.169   0.260 -0.2133 -1.1917  0.3666
 5610SOL    HW222212   4.715   0.131   0.172  0.4508  0.9290 -0.6418
 5610SOL    HW322213   4.759   0.255   0.247 -1.7548 -0.0764  2.4935
 5610SOL    MW422214   4.724   0.176   0.246  0.3258 -0.1300  0.3676
 5611SOL     OW22215   0.508   0.149   0.603 -0.0615 -0.3309  0.2721
 5611SOL    HW222216   0.464   0.137   0.688 -0.0556  0.2662  0.3629
 5611SOL    HW322217   0.587   0.198   0.623 -0.7813  1.0848 -0.2571
 5611SOL    MW422218   0.512   0.154   0.617 -0.3490 -0.3718  0.5823
 5612SOL     OW22219   1.698   0.642   1.837  0.6584  0.4210 -0.0749
 5612SOL    HW222220   1.722   0.570   1.778  1.6833  0.8044 -0.1447
 5612SOL    HW322221   1.606   0.659   1.817 -0.1423 -2.0268  1.1787
 5612SOL    MW422222   1.689   0.635   1.826 -0.1622 -0.3076  0.0822
 5613SOL     OW22223   0.863   2.525   3.801 -0.2290 -0.5874  0.4757
 5613SOL    HW222224   0.809   2.531   3.722  0.3115 -0.5831  0.1028
 5613SOL    HW322225   0.816   2.463   3.858  0.0264 -1.5936 -0.3805
 5613SOL    MW422226   0.850   2.517   3.798 -0.2064  0.1038  0.6219
 5614SOL     OW22227   0.704   1.956   4.278 -0.0807  0.4184 -0.1117
 5614SOL    HW222228   0.618   1.952   4.237 -0.1813 -0.4041  0.1741
 5614SOL    HW322229   0.741   2.039   4.248 -1.2269  1.0896  0.2626
 5614SOL    MW422230   0.698   1.967   4.269 -0.6567 -0.0482  0.7417
 5615SOL     OW22231   4.182   1.110   5.103  0.3601  0.2524  0.0994
 5615SOL    HW222232   4.170   1.039   5.040  0.4071  0.3878 -0.0638
 5615SOL    HW322233   4.225   1.069   5.178  0.6214  0.1599 -0.0991
 5615SOL    MW422234   4.186   1.095   5.104  0.1072 -0.4577 -0.2558
 5616SOL     OW22235   3.156   0.932   0.772 -0.2287 -0.0702 -0.4417
 5616SOL    HW222236   3.170   0.943   0.678 -0.6694  3.7416 -0.2197
 5616SOL    HW322237   3.126   1.018   0.802 -1.9625 -1.6442  2.9032
 5616SOL    MW422238   3.154   0.945   0.764  0.3385 -0.2260  0.0605
 5617SOL     OW22239   1.968   1.134   2.395  0.2972 -0.6064  0.3320
 5617SOL    HW222240   1.990   1.124   2.302  1.0341 -1.2680  0.5663
 5617SOL    HW322241   2.007   1.218   2.419 -1.1741  0.3013 -0.2987
 5617SOL    MW422242   1.976   1.144   2.386 -0.0955 -0.1535  0.2666
 5618SOL     OW22243   3.845   2.665   1.107  0.1740  0.1379 -0.3673
 5618SOL    HW222244   3.772   2.723   1.128  0.4994  0.8639 -1.1837
 5618SOL    HW322245   3.920   2.724   1.097  0.7242 -0.5297 -0.2115
 5618SOL    MW422246   3.845   2.681   1.108  0.3056  0.0897  0.0067
 5619SOL     OW22247   1.307   5.886   5.420  0.0098  0.3457  0.6370
 5619SOL    HW222248   1.307   5.980   5.402  1.6874  0.6346  1.8401
 5619SOL    HW322249   1.394   5.856   5.392 -0.6008 -0.9216 -0.0033
 5619SOL    MW422250   1.319   5.894   5.414 -0.5213 -0.4783  0.3959
 5620SOL     OW22251   1.946   5.203   4.595  0.1125  0.0619 -0.0682
 5620SOL    HW222252   1.908   5.168   4.676  0.8025  0.1489  0.2973
 5620SOL    HW322253   1.982   5.126   4.550 -1.0399 -0.1190 -0.7325
 5620SOL    MW422254   1.945   5.188   4.600 -0.0352  0.1412 -0.0473
 5621SOL     OW22255   0.684   1.946   6.241  0.1457  0.3743 -0.5855
 5621SOL    HW222256   0.604   1.997   6.229  0.0708 -0.3461 -4.3619
 5621SOL    HW322257   0.673   1.870   6.184  2.1694 -1.5372  1.3755
 5621SOL    MW422258   0.672   1.942   6.232 -0.2204  0.5287  0.2612
 5622SOL     OW22259   3.093   6.336   1.421 -0.4428 -0.0342  0.5807
 5622SOL    HW222260   3.168   6.395   1.421 -1.0610  0.8110 -0.5825
 5622SOL    HW322261   3.046   6.358   1.340 -1.2945 -1.3674  0.6783
 5622SOL    MW422262   3.097   6.346   1.410  0.0156 -0.3003  0.4618
 5623SOL     OW22263   4.886   2.793   6.157  0.2144  0.1947  0.5755
 5623SOL    HW222264   4.854   2.703   6.155  0.3593  0.1447  0.4245
 5623SOL    HW322265   4.849   2.830   6.236 -0.1281  0.1058  0.4586
 5623SOL    MW422266   4.877   2.786   6.167 -0.0317  0.0869  0.0287
 5624SOL     OW22267   3.435   1.329   2.456 -0.5706  0.4490  0.3982
 5624SOL    HW222268   3.386   1.349   2.536  0.5363  0.5440  1.0671
 5624SOL    HW322269   3.390   1.379   2.388 -0.5144  1.7454  1.2685
 5624SOL    MW422270   3.423   1.338   2.458 -0.2046 -0.3195 -0.1364
 5625SOL     OW22271   3.226   5.143   3.610  0.3544  0.0300 -0.3410
 5625SOL    HW222272   3.270   5.062   3.582 -0.3802 -0.6594  0.4600
 5625SOL    HW322273   3.286   5.182   3.673  0.0384 -0.6897  0.4241
 5625SOL    MW422274   3.240   5.138   3.615 -0.1140  0.2237 -0.4237
 5626SOL     OW22275   5.401   4.316   1.573  0.4482  0.1556 -0.2929
 5626SOL    HW222276   5.310   4.318   1.604  0.1633 -1.2369 -0.9196
 5626SOL    HW322277   5.395   4.334   1.479  1.0814  2.2899  0.0448
 5626SOL    MW422278   5.388   4.318   1.565  0.2128  0.3573  0.5445
 5627SOL     OW22279   5.236   5.982   4.843 -0.1594 -0.1087  0.0567
 5627SOL    HW222280   5.268   5.891   4.847 -1.3200 -0.5418 -0.0516
 5627SOL    HW322281   5.152   5.975   4.798  1.0528  1.4010 -2.7015
 5627SOL    MW422282   5.229   5.969   4.838 -0.4916  0.5838 -0.7157
 5628SOL     OW22283   4.176   0.466   2.939  0.0651 -0.3378  0.2502
 5628SOL    HW222284   4.185   0.455   3.034  3.9189  2.6379  0.4562
 5628SOL    HW322285   4.107   0.531   2.929  0.6206  0.4000  1.1401
 5628SOL    MW422286   4.168   0.473   2.950  0.3054  0.6270 -0.4319
 5629SOL     OW22287   4.551   4.904   4.232  0.2154 -0.1779  0.2644
 5629SOL    HW222288   4.483   4.966   4.205  0.5645  0.0067 -0.1960
 5629SOL    HW322289   4.536   4.828   4.176  1.1673  0.3431 -0.7215
 5629SOL    MW422290   4.540   4.902   4.221 -0.1770 -0.3910 -0.0010
 5630SOL     OW22291   5.887   6.304   1.735 -0.4140  0.1043 -0.0265
 5630SOL    HW222292   5.916   6.226   1.687 -2.4660  0.2114 -1.6101
 5630SOL    HW322293   5.891   6.279   1.827  0.7298 -1.2248 -0.4112
 5630SOL    MW422294   5.891   6.290   1.741  0.3544 -0.1679 -0.3360
 5631SOL     OW22295   1.880   4.938   1.988  0.3396 -0.0522  0.3370
 5631SOL    HW222296   1.891   4.847   2.015  0.7982  0.2237  1.1223
 5631SOL    HW322297   1.923   4.944   1.903  1.5621 -0.2558  0.9223
 5631SOL    MW422298   1.887   4.927   1.980 -0.0582  0.3819 -0.1140
 5632SOL     OW22299   5.882   5.152   4.603 -0.4637  0.2835  0.0046
 5632SOL    HW222300   5.896   5.081   4.666 -0.1393  0.1289 -0.2377
 5632SOL    HW322301   5.883   5.232   4.656 -0.2898  0.1481  0.2102
 5632SOL    MW422302   5.884   5.153   4.618  0.0912 -0.1555  0.8728
 5633SOL     OW22303   5.556   3.239   3.687 -0.5998  0.1628 -0.3853
 5633SOL    HW222304   5.524   3.240   3.777  2.9079  0.9280  1.0008
 5633SOL    HW322305   5.551   3.147   3.661  0.5100 -0.5021  1.5270
 5633SOL    MW422306   5.551   3.227   3.695 -0.1811 -0.3504  0.3904
 5634SOL     OW22307   3.734   3.216   6.047  0.4847 -0.1754  0.3555
 5634SOL    HW222308   3.736   3.250   6.137  1.4286  2.0416 -0.4332
 5634SOL    HW322309   3.654   3.254   6.010  0.8479  0.1178 -0.1432
 5634SOL    MW422310   3.723   3.226   6.054  0.1793 -0.4166 -0.2098
 5635SOL     OW22311   0.720   2.003   4.842  0.4897 -0.1535  0.2730
 5635SOL    HW222312   0.788   1.937   4.856  0.7678 -0.1638 -1.0290
 5635SOL    HW322313   0.701   1.999   4.749 -1.1871 -0.0219  0.5690
 5635SOL    MW422314   0.726   1.994   4.832  0.7655  0.0109 -0.5062
 5636SOL     OW22315   3.189   2.413   3.068  0.1687  0.0102 -0.4084
 5636SOL    HW222316   3.210   2.469   3.144 -2.5577  0.6662 -0.0500
 5636SOL    HW322317   3.212   2.325   3.097  2.9516  0.6327 -0.3699
 5636SOL    MW422318   3.195   2.409   3.082  0.1707 -0.2069 -0.1120
 5637SOL     OW22319   0.773   5.575   4.668 -0.7342 -0.4988  0.3233
 5637SOL    HW222320   0.758   5.494   4.618  1.1984 -0.7520  0.0353
 5637SOL    HW322321   0.790   5.641   4.601  1.1816 -0.6864  0.5483
 5637SOL    MW422322   0.774   5.573   4.652  0.2247 -0.1687 -0.5307
 5638SOL     OW22323   0.163   1.856   2.891  0.1526 -0.1491 -0.3410
 5638SOL    HW222324   0.086   1.813   2.928 -1.0177  0.3759 -2.0570
 5638SOL    HW322325   0.185   1.803   2.814  1.1643  0.0502 -0.1982
 5638SOL    MW422326   0.156   1.843   2.886  0.1615 -0.1374  0.2150
 5639SOL     OW22327   6.259   2.897   1.834  0.5587 -0.1176 -0.1648
 5639SOL    HW222328   6.249   2.803   1.850 -0.2984 -0.2725 -1.4540
 5639SOL    HW322329   6.228   2.938   1.914  1.7913 -0.9386  0.7661
 5639SOL    MW422330   6.253   2.890   1.847  0.1225  0.2203  0.0198
 5640SOL     OW22331   2.042   0.922   3.917  1.0593 -0.2992 -0.2812
 5640SOL    HW222332   2.090   1.003   3.902  0.6245 -0.3104 -1.9015
 5640SOL    HW322333   1.952   0.942   3.890  0.8557 -1.2108 -0.3127
 5640SOL    MW422334   2.036   0.935   3.912  0.0722  0.1699 -0.0666
 5641SOL     OW22335   3.357   3.535   1.136 -0.0602  0.6585  0.0397
 5641SOL    HW222336   3.306   3.464   1.098 -0.7649  2.1167 -1.8878
 5641SOL    HW322337   3.334   3.534   1.229 -1.4010 -0.4879 -0.2688
 5641SOL    MW422338   3.347   3.525   1.144 -0.3973 -0.4110 -0.5854
 5642SOL     OW22339   4.096   2.127   4.798 -0.3140 -0.3176 -0.3504
 5642SOL    HW222340   4.189   2.129   4.821  0.3016 -0.4800 -2.5710
 5642SOL    HW322341   4.069   2.037   4.814  0.2009 -0.5390 -0.6998
 5642SOL    MW422342   4.105   2.115   4.803 -0.3288 -0.2642 -0.1585
 5643SOL     OW22343   3.212   1.298   2.654  0.3533  0.2498  0.3775
 5643SOL    HW222344   3.140   1.351   2.689  0.0642  1.0047 -1.2552
 5643SOL    HW322345   3.194   1.294   2.560  0.7056 -2.2621  0.3578
 5643SOL    MW422346   3.200   1.305   2.646 -0.1126  0.6652 -0.0109
 5644SOL     OW22347   0.386   1.501   1.290 -0.7410 -0.5040 -0.5029
 5644SOL    HW222348   0.435   1.499   1.208 -1.5660 -1.4187 -0.9965
 5644SOL    HW322349   0.297   1.474   1.266 -0.9898 -0.8334  0.6965
 5644SOL    MW422350   0.381   1.497   1.276  0.1731 -0.0432  0.1138
 5645SOL     OW22351   5.470   0.307   5.269 -0.4188 -0.1212 -0.1591
 5645SOL    HW222352   5.481   0.330   5.177  0.9326 -0.9282 -0.2316
 5645SOL    HW322353   5.546   0.347   5.312 -1.5718  1.1075  0.7882
 5645SOL    MW422354   5.482   0.315   5.262 -0.0354 -0.2166 -0.2438
 5646SOL     OW22355   4.486   5.568   5.190  0.6548 -0.2585 -0.1948
 5646SOL    HW222356   4.528   5.552   5.106  0.5045 -1.4452 -0.0539
 5646SOL    HW322357   4.529   5.507   5.250  1.0233  0.8351  0.6870
 5646SOL    MW422358   4.497   5.558   5.187  0.4307  0.1759 -0.4557
 5647SOL     OW22359   4.029   3.918   1.771 -0.6287  0.7436 -0.0361
 5647SOL    HW222360   4.105   3.860   1.783 -1.2246  0.2447  1.4657
 5647SOL    HW322361   4.066   3.999   1.737  0.2991 -0.2673 -1.6091
 5647SOL    MW422362   4.044   3.921   1.768 -0.1421 -0.0407 -0.0912
 5648SOL     OW22363   0.708   3.111   2.369 -0.0079  0.7463 -0.2259
 5648SOL    HW222364   0.743   3.022   2.368  2.0303  1.4502  1.1523
 5648SOL    HW322365   0.643   3.111   2.439  0.6031  0.5205  0.3542
 5648SOL    MW422366   0.704   3.100   2.378  0.2276  0.2830  0.4092
 5649SOL     OW22367   5.636   3.651   2.090 -0.7868 -0.1776  0.5877
 5649SOL    HW222368   5.547   3.684   2.104 -1.0422  0.1716 -1.5161
 5649SOL    HW322369   5.683   3.724   2.050  0.1019 -0.7488  0.5579
 5649SOL    MW422370   5.630   3.665   2.087 -0.0022  0.1624  0.2522
 5650SOL     OW22371   5.972   4.947   3.483  0.3926 -0.0141  0.1184
 5650SOL    HW222372   5.949   4.867   3.531 -0.2232  0.6191  0.9109
 5650SOL    HW322373   5.954   5.017   3.545  1.2276  0.7249 -0.4667
 5650SOL    MW422374   5.966   4.945   3.498  0.6682  1.0399 -0.0579
 5651SOL     OW22375   3.953   6.009   4.342 -0.2457  0.4858 -0.4122
 5651SOL    HW222376   4.010   6.046   4.275 -0.7815  1.9599 -0.0873
 5651SOL    HW322377   3.867   6.002   4.300 -0.1809 -0.3151 -0.4345
 5651SOL    MW422378   3.949   6.013   4.328  0.1543  0.1577 -0.3012
 5652SOL     OW22379   1.469   5.444   4.815  0.3405  0.1150 -0.0124
 5652SOL    HW222380   1.378   5.432   4.839  0.9450 -2.2174  1.4692
 5652SOL    HW322381   1.500   5.517   4.868 -0.4984  0.5837 -0.1531
 5652SOL    MW422382   1.461   5.452   4.825 -0.1912  0.3287 -1.0378
 5653SOL     OW22383   2.128   5.430   3.745 -0.1607  0.3792  0.5747
 5653SOL    HW222384   2.161   5.436   3.656  1.9677 -1.9118  1.0935
 5653SOL    HW322385   2.146   5.516   3.783 -1.7814  1.6359 -1.3338
 5653SOL    MW422386   2.135   5.442   3.738  0.2115  0.4703  0.4558
 5654SOL     OW22387   3.759   6.022   1.566 -0.2188 -0.0979  0.2544
 5654SOL    HW222388   3.833   5.963   1.556  0.1690  0.4294 -0.0296
 5654SOL    HW322389   3.781   6.075   1.643  0.0318  0.5324 -0.2422
 5654SOL    MW422390   3.771   6.021   1.575  0.5462 -0.3835 -0.5890
 5655SOL     OW22391   1.833   1.486   3.167  0.1442  0.8828 -0.4386
 5655SOL    HW222392   1.906   1.537   3.131  0.0017  1.9408  0.6960
 5655SOL    HW322393   1.757   1.543   3.157 -0.3673  0.1587 -0.7614
 5655SOL    MW422394   1.833   1.500   3.161  0.0566  0.5535  0.2634
 5656SOL     OW22395   5.423   5.241   6.253  0.0412 -0.3070  0.2035
 5656SOL    HW222396   5.444   5.283   6.170 -0.0799  0.3762  0.5087
 5656SOL    HW322397   5.386   5.312   6.307 -0.9345 -0.9830  0.4479
 5656SOL    MW422398   5.421   5.256   6.250 -0.1234 -0.2023 -0.5554
 5657SOL     OW22399   0.607   4.219   6.326 -0.4753 -0.2005 -0.0081
 5657SOL    HW222400   0.675   4.242   6.391 -1.4742  0.2621  0.9082
 5657SOL    HW322401   0.575   4.303   6.294 -1.1851 -0.3867  0.1873
 5657SOL    MW422402   0.612   4.233   6.331 -0.1015 -0.3020  0.4769
 5658SOL     OW22403   4.702   5.738   2.985 -0.7603  0.1456  0.2030
 5658SOL    HW222404   4.674   5.799   3.052 -0.4878  1.6263 -0.9894
 5658SOL    HW322405   4.692   5.652   3.026 -2.1203  0.8980  1.5650
 5658SOL    MW422406   4.697   5.734   2.999  0.0346  0.0867  0.5086
 5659SOL     OW22407   4.582   2.855   5.945 -0.5077  0.4283  0.0023
 5659SOL    HW222408   4.558   2.858   6.037 -2.2726  1.5484 -0.4329
 5659SOL    HW322409   4.498   2.864   5.898  0.5057  1.8005 -1.6890
 5659SOL    MW422410   4.568   2.857   5.951  0.4676 -0.0364  0.3839
 5660SOL     OW22411   2.823   3.782   4.923  0.1013 -0.3646 -0.6528
 5660SOL    HW222412   2.909   3.807   4.889  0.3723 -0.4283 -0.0315
 5660SOL    HW322413   2.827   3.804   5.016 -0.7704  0.1747 -0.7379
 5660SOL    MW422414   2.835   3.788   4.931 -0.2904  0.4459  0.2417
 5661SOL     OW22415   4.350   2.071   4.860  0.1950  0.7859  0.1161
 5661SOL    HW222416   4.316   2.005   4.920  0.6741 -1.5206 -2.0218
 5661SOL    HW322417   4.346   2.153   4.910 -1.7974 -0.5638  2.3511
 5661SOL    MW422418   4.345   2.073   4.875 -0.5687 -0.0560 -0.2049
 5662SOL     OW22419   3.362   0.484   0.539 -0.2162  0.1789 -0.2301
 5662SOL    HW222420   3.354   0.444   0.452  1.9631 -0.3260 -0.2682
 5662SOL    HW322421   3.317   0.423   0.597 -0.7268 -0.0558 -0.8481
 5662SOL    MW422422   3.355   0.470   0.535 -0.5031 -0.0675 -0.0041
 5663SOL     OW22423   6.231   1.091   3.395  0.4460 -0.4661  0.8845
 5663SOL    HW222424   6.196   1.048   3.473 -0.4254 -2.5568 -0.5380
 5663SOL    HW322425   6.298   1.030   3.364  0.0506 -0.2106 -0.5328
 5663SOL    MW422426   6.235   1.077   3.401 -0.3265 -0.1722  0.3012
 5664SOL     OW22427   6.271   1.328   3.783 -0.1760 -0.2420  0.2232
 5664SOL    HW222428   6.224   1.251   3.816  1.0208 -1.1396 -0.0874
 5664SOL    HW322429   6.209   1.369   3.722 -1.0435 -0.6296  0.8251
 5664SOL    MW422430   6.257   1.323   3.779  0.4400  0.4087  0.0879
 5665SOL     OW22431   4.880   0.047   5.449  0.4666 -0.8181  0.2999
 5665SOL    HW222432   4.947  -0.019   5.428  1.1455 -0.7612  2.0846
 5665SOL    HW322433   4.930   0.128   5.461  0.2103 -0.8916  2.2036
 5665SOL    MW422434   4.896   0.049   5.448  0.9666  0.0745  0.0148
 5666SOL     OW22435   2.945   2.898   0.263 -0.0558 -0.2141 -0.1329
 5666SOL    HW222436   2.877   2.843   0.301  1.2325 -1.4097  0.5264
 5666SOL    HW322437   2.916   2.987   0.280 -1.3514 -0.6960  0.2897
 5666SOL    MW422438   2.932   2.902   0.270 -0.3259  0.8730 -0.2422
 5667SOL     OW22439   0.509   1.388   1.541 -0.0202  0.0276 -0.0186
 5667SOL    HW222440   0.433   1.353   1.587  0.4921 -2.2940 -0.7923
 5667SOL    HW322441   0.482   1.393   1.450  1.1165 -2.2225 -0.5529
 5667SOL    MW422442   0.496   1.384   1.535 -0.2329 -0.4181 -0.2224
 5668SOL     OW22443   0.613   3.863   5.710  0.3355  0.0844  0.7331
 5668SOL    HW222444   0.664   3.895   5.636 -0.0828 -1.5423 -0.2973
 5668SOL    HW322445   0.522   3.880   5.687  0.2731  2.1135  2.1563
 5668SOL    MW422446   0.608   3.869   5.697  0.0545  0.0158  0.5942
 5669SOL     OW22447   1.988   4.969   4.401 -0.4937  0.4742 -0.1693
 5669SOL    HW222448   2.028   4.935   4.482 -0.4616 -1.2212 -0.8603
 5669SOL    HW322449   2.058   5.019   4.360  0.1433 -0.3283 -0.1038
 5669SOL    MW422450   2.003   4.971   4.406  0.3361 -0.1318  0.3399
 5670SOL     OW22451   3.992   2.208   5.653 -0.0773  0.0940  0.0546
 5670SOL    HW222452   4.027   2.269   5.717 -1.4592  0.9396  0.0458
 5670SOL    HW322453   4.065   2.194   5.592  1.2792 -0.7640  1.7749
 5670SOL    MW422454   4.006   2.214   5.653 -0.2961  0.2354 -0.5955
 5671SOL     OW22455   4.966   3.635   2.845  0.6667  0.3505 -0.0689
 5671SOL    HW222456   4.910   3.559   2.859 -0.1920  0.9709 -0.0794
 5671SOL    HW322457   5.002   3.622   2.757  2.9383 -1.5426  1.0260
 5671SOL    MW422458   4.964   3.624   2.835 -0.2350 -0.4394 -0.2309
 5672SOL     OW22459   0.512   0.961   3.059  0.2516 -0.5340 -0.0761
 5672SOL    HW222460   0.452   1.007   3.000 -0.0512 -0.4994  0.2554
 5672SOL    HW322461   0.549   1.030   3.114 -1.3055 -0.8158  1.4150
 5672SOL    MW422462   0.509   0.976   3.058 -0.8751  0.2593 -0.4061
 5673SOL     OW22463   5.032   2.423   1.623  0.0182  0.3041  0.0969
 5673SOL    HW222464   5.042   2.496   1.563 -1.2103 -0.0059 -0.5254
 5673SOL    HW322465   5.019   2.464   1.709  0.2556  0.7849 -0.0934
 5673SOL    MW422466   5.031   2.438   1.626 -0.0200 -0.5265 -0.2886
 5674SOL     OW22467   3.535   5.448   0.537 -0.7125 -0.3334 -0.1219
 5674SOL    HW222468   3.543   5.543   0.535 -0.7944 -0.3156  0.2425
 5674SOL    HW322469   3.605   5.416   0.480  0.2000 -0.0964  0.8371
 5674SOL    MW422470   3.545   5.456   0.530 -0.4002  0.4645  0.4590
 5675SOL     OW22471   2.389   1.808   4.705  0.5005 -0.0078  0.2825
 5675SOL    HW222472   2.433   1.774   4.626  3.1205 -0.8327  1.9614
 5675SOL    HW322473   2.399   1.903   4.699  1.6554 -0.1285  0.1321
 5675SOL    MW422474   2.396   1.816   4.694  0.6840  0.2560  0.5534
 5676SOL     OW22475   6.093   3.294   2.491 -0.4286 -0.1007  0.0218
 5676SOL    HW222476   6.129   3.238   2.422 -0.1659  1.8527 -1.5320
 5676SOL    HW322477   6.002   3.266   2.500 -0.2656 -0.8623 -0.5994
 5676SOL    MW422478   6.086   3.283   2.483  0.0802  0.2775 -0.6023
 5677SOL     OW22479   5.220   4.172   1.008  0.4612 -0.7043  0.3082
 5677SOL    HW222480   5.162   4.187   1.082  0.4086  1.4874 -0.1082
 5677SOL    HW322481   5.305   4.204   1.037  0.0413  1.9888 -1.1034
 5677SOL    MW422482   5.223   4.178   1.021  0.2334  0.6529 -0.0446
 5678SOL     OW22483   5.848   0.134   5.348 -0.3219 -0.2424 -0.2157
 5678SOL    HW222484   5.904   0.057   5.337 -0.9044 -0.5156 -1.4475
 5678SOL    HW322485   5.779   0.124   5.282  0.0843  1.7711 -1.0435
 5678SOL    MW422486   5.846   0.123   5.338  0.6987 -0.1184 -0.3612
 5679SOL     OW22487   5.480   0.980   5.084  0.4688 -0.3543  0.1827
 5679SOL    HW222488   5.517   0.929   5.156  0.0745 -0.4283  0.3349
 5679SOL    HW322489   5.472   1.068   5.119 -2.2393 -0.9072  1.1858
 5679SOL    MW422490   5.484   0.985   5.098  0.3686  0.0834  0.1310
 5680SOL     OW22491   3.821   5.318   2.792 -0.0331  0.2143 -0.3355
 5680SOL    HW222492   3.760   5.297   2.721 -1.0230  0.4516  0.4138
 5680SOL    HW322493   3.908   5.300   2.755 -0.5152  0.3133 -1.5946
 5680SOL    MW422494   3.824   5.313   2.777  0.3154 -0.2594 -0.3823
 5681SOL     OW22495   3.164   5.261   3.902 -0.1561  0.4309  0.0794
 5681SOL    HW222496   3.076   5.241   3.933  0.8812 -0.4476  2.7920
 5681SOL    HW322497   3.209   5.176   3.900  1.4544  1.1612  1.8354
 5681SOL    MW422498   3.158   5.247   3.906  0.5238 -0.1751 -1.0059
 5682SOL     OW22499   4.829   6.126   4.694 -0.2783  0.0193 -0.0006
 5682SOL    HW222500   4.788   6.112   4.779 -1.0901 -0.9275 -0.5270
 5682SOL    HW322501   4.764   6.176   4.644  0.3619  0.9369  0.0526
 5682SOL    MW422502   4.815   6.131   4.698  0.3564  0.4587 -0.1116
 5683SOL     OW22503   1.147   5.521   2.868 -0.6870  0.0631  0.0531
 5683SOL    HW222504   1.166   5.450   2.929 -0.2082 -0.1650 -0.3623
 5683SOL    HW322505   1.120   5.477   2.787 -0.2428  0.3449 -0.2545
 5683SOL    MW422506   1.146   5.506   2.865  0.5319  0.4336  0.2009
 5684SOL     OW22507   2.342   0.197   5.875  0.7264  0.1587 -0.0684
 5684SOL    HW222508   2.377   0.284   5.896  0.1430  0.3293  0.2123
 5684SOL    HW322509   2.291   0.172   5.952  0.9715 -0.4816 -0.1076
 5684SOL    MW422510   2.340   0.205   5.888 -0.0543  1.0365  0.0752
 5685SOL     OW22511   1.837   5.845   3.142  0.6419 -0.2048 -0.2257
 5685SOL    HW222512   1.778   5.918   3.162  1.8044  0.3456  1.5037
 5685SOL    HW322513   1.779   5.772   3.120 -0.7040  0.3916  1.1307
 5685SOL    MW422514   1.822   5.845   3.142  0.5608 -0.1120  0.1428
 5686SOL     OW22515   5.760   4.118   0.913 -0.1823  0.1895  0.3651
 5686SOL    HW222516   5.779   4.200   0.869  1.3290 -0.6770 -0.7040
 5686SOL    HW322517   5.687   4.080   0.864  0.1011  0.2119 -0.0781
 5686SOL    MW422518   5.753   4.124   0.901  0.4257 -0.6462 -0.1383
 5687SOL     OW22519   0.296   3.265   3.242  0.1815 -0.9313  0.1174
 5687SOL    HW222520   0.250   3.232   3.165 -0.4709 -1.1107  0.5750
 5687SOL    HW322521   0.333   3.187   3.283  1.3980 -0.7266 -0.5603
 5687SOL    MW422522   0.295   3.250   3.237  0.1477  0.0449  0.2970
 5688SOL     OW22523   4.805   3.600   5.265 -0.2766  0.1987  0.1971
 5688SOL    HW222524   4.734   3.557   5.217 -0.7449 -0.0071  1.0604
 5688SOL    HW322525   4.767   3.623   5.349  0.4012  0.9894  0.3043
 5688SOL    MW422526   4.791   3.597   5.269 -0.2781 -0.6297 -0.1350
 5689SOL     OW22527   2.262   3.959   5.444 -0.1271  0.0688 -0.2766
 5689SOL    HW222528   2.190   4.001   5.492 -1.4076 -1.8256 -0.4626
 5689SOL    HW322529   2.315   3.917   5.512  0.3150  0.6684 -0.2309
 5689SOL    MW422530   2.260   3.959   5.459  0.1593  0.5814  0.4829
 5690SOL     OW22531   4.706   2.826   2.333 -0.0406  0.3097 -0.0299
 5690SOL    HW222532   4.686   2.771   2.408 -0.0344  1.1545  0.6123
 5690SOL    HW322533   4.801   2.837   2.335 -0.0137  0.1245 -0.3080
 5690SOL    MW422534   4.716   2.820   2.343 -0.2042 -0.5237  0.4052
 5691SOL     OW22535   4.810   2.632   4.670  0.3041 -0.1592 -0.1482
 5691SOL    HW222536   4.747   2.598   4.733 -1.5571  1.9699 -0.7419
 5691SOL    HW322537   4.788   2.588   4.588  0.2463 -0.1477 -0.1388
 5691SOL    MW422538   4.799   2.622   4.667  0.4588 -0.6374  0.0736
 5692SOL     OW22539   0.252   2.136   3.521 -0.2338 -0.1790  0.4378
 5692SOL    HW222540   0.319   2.069   3.506  0.1655  0.3995 -0.5403
 5692SOL    HW322541   0.171   2.097   3.490  0.1801  0.1343 -1.1479
 5692SOL    MW422542   0.250   2.122   3.515 -0.2263  0.1414 -0.1193
 5693SOL     OW22543   5.384   3.691   3.078 -0.0682 -0.0054  0.7457
 5693SOL    HW222544   5.435   3.689   3.159 -0.6953  0.5650  1.1592
 5693SOL    HW322545   5.307   3.638   3.097  0.3231 -0.8209  0.1392
 5693SOL    MW422546   5.381   3.683   3.091 -0.1120  0.4906 -0.4617
 5694SOL     OW22547   1.856   0.622   5.800 -0.1723  0.1504 -0.5135
 5694SOL    HW222548   1.793   0.557   5.769 -0.8745  0.1663  0.8153
 5694SOL    HW322549   1.898   0.655   5.721 -1.3011 -0.4122 -1.3625
 5694SOL    MW422550   1.853   0.618   5.786 -0.3136  0.3855  0.1376
 5695SOL     OW22551   6.301   5.264   4.075 -0.0540 -0.1732  0.4315
 5695SOL    HW222552   6.249   5.184   4.083 -0.4849  0.1653  1.1237
 5695SOL    HW322553   6.262   5.324   4.138 -0.1125  0.7978 -0.5125
 5695SOL    MW422554   6.289   5.261   4.084  0.1253 -0.4424 -0.0044
 5696SOL     OW22555   6.353   1.769   0.231 -0.2099 -0.6314 -0.1068
 5696SOL    HW222556   6.333   1.702   0.167  0.2473 -0.2536 -0.6613
 5696SOL    HW322557   6.368   1.848   0.179 -1.6028  0.1238  0.5816
 5696SOL    MW422558   6.352   1.771   0.216 -0.1873 -0.2576  0.8168
 5697SOL     OW22559   6.125   1.608   5.560  0.4413 -0.2493 -0.8908
 5697SOL    HW222560   6.197   1.640   5.614  0.4057 -0.0658 -0.9513
 5697SOL    HW322561   6.112   1.517   5.589 -0.1502  0.1075  0.0126
 5697SOL    MW422562   6.133   1.600   5.571 -0.3677  0.1932  0.1730
 5698SOL     OW22563   5.158   2.173   0.869 -0.0149  0.3075  0.0288
 5698SOL    HW222564   5.240   2.173   0.918  0.7003 -2.0462 -0.9924
 5698SOL    HW322565   5.122   2.086   0.883 -1.1073  0.4773 -1.4816
 5698SOL    MW422566   5.164   2.161   0.877  0.3739 -0.1964 -0.0030
 5699SOL     OW22567   0.924   5.932   5.828 -0.7837  0.3127  0.1060
 5699SOL    HW222568   0.954   5.957   5.741  0.7646 -1.8684 -0.0653
 5699SOL    HW322569   0.984   5.978   5.888 -0.8531  0.5734 -0.0221
 5699SOL    MW422570   0.936   5.942   5.825  0.5341  0.6296  0.2843
 5700SOL     OW22571   1.673   5.170   5.721  0.2028 -0.3282  0.2774
 5700SOL    HW222572   1.643   5.245   5.774  1.6464 -0.2445  1.0320
 5700SOL    HW322573   1.687   5.207   5.634  1.3390  0.4194  0.7515
 5700SOL    MW422574   1.671   5.185   5.717 -0.1967 -0.3272  0.5683
 5701SOL     OW22575   4.306   2.982   5.591  1.0094 -0.7027 -0.7817
 5701SOL    HW222576   4.300   2.953   5.682 -0.0783  2.3783  0.2789
 5701SOL    HW322577   4.400   2.995   5.577  1.0663  1.8489  1.1231
 5701SOL    MW422578   4.318   2.980   5.601  0.2487  0.0250  0.4241
 5702SOL     OW22579   5.162   0.383   3.448  0.5607  0.2547  0.2755
 5702SOL    HW222580   5.242   0.368   3.499  0.8929  0.4491 -0.1767
 5702SOL    HW322581   5.194   0.399   3.358  0.0327  0.6012  0.1458
 5702SOL    MW422582   5.177   0.383   3.443  0.0373  0.2000 -0.1652
 5703SOL     OW22583   0.745   2.929   2.706 -0.2192  0.0554 -0.3478
 5703SOL    HW222584   0.741   2.839   2.740  0.3574  0.4832  0.8844
 5703SOL    HW322585   0.834   2.937   2.670 -1.1021 -0.6927 -2.9150
 5703SOL    MW422586   0.756   2.918   2.706  0.1653  0.3333 -0.0477
 5704SOL     OW22587   6.343   0.739   4.762 -0.9558  0.2174  0.0994
 5704SOL    HW222588   6.262   0.688   4.770 -1.1260  0.5098  0.2640
 5704SOL    HW322589   6.411   0.682   4.798 -1.3301  0.5631  1.3925
 5704SOL    MW422590   6.341   0.725   4.768  0.0986 -0.4718 -0.0403
 5705SOL     OW22591   2.457   5.536   3.841 -0.3265  0.2915  0.1424
 5705SOL    HW222592   2.536   5.517   3.892  0.8816  1.0331 -1.3588
 5705SOL    HW322593   2.438   5.628   3.860  0.4011  0.7103 -1.0203
 5705SOL    MW422594   2.465   5.546   3.850  0.1541  0.3842 -0.4245
 5706SOL     OW22595   3.850   1.182   2.421  0.1393 -0.0209 -0.2315
 5706SOL    HW222596   3.901   1.111   2.459  0.6966  0.4340 -0.0996
 5706SOL    HW322597   3.767   1.180   2.468  0.6533  0.2605  0.7357
 5706SOL    MW422598   3.846   1.173   2.432  0.6267  0.4997  0.3436
 5707SOL     OW22599   5.703   4.404   0.885 -0.2132  0.5672 -0.1401
 5707SOL    HW222600   5.616   4.364   0.885  0.0865 -0.1733 -1.6045
 5707SOL    HW322601   5.714   4.436   0.795  1.4585 -0.3779 -0.3083
 5707SOL    MW422602   5.693   4.403   0.873 -0.1045 -0.3520  0.0531
 5708SOL     OW22603   4.071   5.997   6.112 -0.3257  0.8846 -0.0803
 5708SOL    HW222604   4.043   6.006   6.021  1.2922  1.3505 -0.5802
 5708SOL    HW322605   4.098   5.906   6.121  1.1047  1.2250 -0.6025
 5708SOL    MW422606   4.071   5.986   6.101  0.1254 -0.1761 -0.0642
 5709SOL     OW22607   5.030   2.282   4.214 -1.0981 -0.4875 -0.1825
 5709SOL    HW222608   5.015   2.188   4.224  1.5918 -0.8632  1.2088
 5709SOL    HW322609   5.094   2.288   4.143 -1.1865  0.3205 -0.1979
 5709SOL    MW422610   5.036   2.270   4.206  0.5455  0.5910  0.1209
 5710SOL     OW22611   4.404   5.566   2.107 -0.1916  0.3972 -0.3739
 5710SOL    HW222612   4.488   5.521   2.118 -0.8275 -1.5127 -2.5989
 5710SOL    HW322613   4.427   5.659   2.100  2.0468 -0.2216 -2.9373
 5710SOL    MW422614   4.418   5.573   2.108 -0.8936  0.5452 -0.2552
 5711SOL     OW22615   4.515   5.738   1.592 -0.1349 -0.1783  0.1450
 5711SOL    HW222616   4.556   5.732   1.506 -0.7050 -0.2233 -0.1263
 5711SOL    HW322617   4.569   5.800   1.640  1.2870 -1.5432  0.3857
 5711SOL    MW422618   4.528   5.745   1.587 -0.2258 -0.4966  1.0628
 5712SOL     OW22619   0.097   5.277   6.310 -0.6395  0.5166 -0.6735
 5712SOL    HW222620   0.011   5.308   6.282  0.2563  2.1957 -1.7082
 5712SOL    HW322621   0.126   5.220   6.238 -0.9991 -0.3349 -0.1649
 5712SOL    MW422622   0.089   5.273   6.297  0.4695  0.1734  0.1100
 5713SOL     OW22623   6.351   4.928   6.112  0.2623  0.4240 -0.2059
 5713SOL    HW222624   6.345   4.904   6.204 -1.8622 -0.3473 -0.5078
 5713SOL    HW322625   6.417   4.997   6.110  1.9164 -0.9910  1.5678
 5713SOL    MW422626   6.359   4.934   6.124  0.2280  0.3497 -0.0403
 5714SOL     OW22627   0.981   0.997   5.021 -0.1685 -0.2652 -0.2335
 5714SOL    HW222628   1.070   0.975   4.993 -0.8024 -1.0750 -1.7298
 5714SOL    HW322629   0.927   0.982   4.944 -2.1082 -3.0704  1.4670
 5714SOL    MW422630   0.986   0.992   5.007 -0.3996  0.1718  0.0860
 5715SOL     OW22631   5.508   2.106   5.630 -0.0124 -0.0926 -0.2133
 5715SOL    HW222632   5.522   2.051   5.553 -1.0452  0.7507 -1.0499
 5715SOL    HW322633   5.594   2.115   5.670  0.0989 -2.7393  0.2851
 5715SOL    MW422634   5.521   2.100   5.625  0.2620  0.1033  0.6137
 5716SOL     OW22635   3.806   2.513   0.866 -0.4639 -0.1208 -0.0511
 5716SOL    HW222636   3.842   2.558   0.942  0.3344 -1.1503  0.2130
 5716SOL    HW322637   3.860   2.543   0.793 -0.6010  0.1305 -0.0495
 5716SOL    MW422638   3.818   2.523   0.866 -0.4504  0.0543  0.3841
 5717SOL     OW22639   2.585   2.861   5.377 -0.1166  0.4039 -0.5195
 5717SOL    HW222640   2.653   2.804   5.415 -1.5819 -1.1373 -0.1053
 5717SOL    HW322641   2.629   2.903   5.303  1.0687 -1.2322 -0.8186
 5717SOL    MW422642   2.600   2.859   5.373 -0.1434 -0.0886  0.6210
 5718SOL     OW22643   4.281   2.759   0.392 -0.2357  0.2120  0.3161
 5718SOL    HW222644   4.372   2.788   0.388 -1.0648  3.0456 -0.1836
 5718SOL    HW322645   4.260   2.756   0.485 -0.4854  2.8271  0.4158
 5718SOL    MW422646   4.290   2.763   0.403  0.2085 -0.2614 -0.0200
 5719SOL     OW22647   1.183   3.973   3.431 -0.6375  0.0130  0.7294
 5719SOL    HW222648   1.217   4.061   3.448 -1.1741 -0.0280  2.1763
 5719SOL    HW322649   1.251   3.914   3.463 -1.1216 -0.0725  1.6443
 5719SOL    MW422650   1.196   3.977   3.438  0.0093  0.3056 -0.3298
 5720SOL     OW22651   1.911   2.079   1.078 -0.2949 -0.4255 -0.1838
 5720SOL    HW222652   1.995   2.123   1.088  1.0912 -2.7768 -0.8442
 5720SOL    HW322653   1.876   2.113   0.996  0.1858  0.2872 -0.1008
 5720SOL    MW422654   1.917   2.089   1.068 -0.0330 -0.1346 -0.0105
 5721SOL     OW22655   2.366   3.583   3.620  0.4113 -0.2675 -0.3297
 5721SOL    HW222656   2.458   3.582   3.594  0.7897 -0.4495  0.9335
 5721SOL    HW322657   2.366   3.623   3.707 -0.6021 -1.0453  0.0504
 5721SOL    MW422658   2.378   3.589   3.628 -0.0873 -0.0319 -0.1381
 5722SOL     OW22659   5.021   5.132   4.100  0.1105 -0.3448  0.4673
 5722SOL    HW222660   4.936   5.095   4.077  0.5387 -0.1219 -1.5914
 5722SOL    HW322661   5.015   5.146   4.195 -1.1431 -2.8725  0.8554
 5722SOL    MW422662   5.009   5.129   4.110  0.0192  0.2116 -0.6092
 5723SOL     OW22663   2.557   4.037   1.115  0.6198  0.0789  0.0819
 5723SOL    HW222664   2.600   4.056   1.198  1.4124  1.9037 -0.6903
 5723SOL    HW322665   2.621   4.063   1.048 -0.0601 -1.1788 -1.1157
 5723SOL    MW422666   2.571   4.043   1.117  0.3550  0.2952  0.1151
 5724SOL     OW22667   2.660   1.046   6.080 -0.2423 -0.3598  0.1696
 5724SOL    HW222668   2.683   1.136   6.102 -1.7295 -0.0951  0.8022
 5724SOL    HW322669   2.637   1.049   5.987 -0.5861 -0.0147  0.2646
 5724SOL    MW422670   2.660   1.058   6.071  0.6595  0.7484  0.5328
 5725SOL     OW22671   0.805   1.595   2.021 -0.0433 -0.5289 -0.8339
 5725SOL    HW222672   0.883   1.546   1.994  0.0323 -0.2772 -1.0773
 5725SOL    HW322673   0.840   1.674   2.062 -0.1490  0.5970 -2.7682
 5725SOL    MW422674   0.820   1.599   2.023  0.3898 -0.0810 -0.6440
 5726SOL     OW22675   1.820   3.284   3.562  0.3671 -0.2815 -0.3230
 5726SOL    HW222676   1.813   3.193   3.533 -0.8004 -0.9054  1.7389
 5726SOL    HW322677   1.768   3.288   3.642  1.2583  1.9620  0.2230
 5726SOL    MW422678   1.812   3.272   3.568 -0.3842 -0.2725  0.2349
 5727SOL     OW22679   1.474   2.409   5.591 -0.0670  0.3328  0.2474
 5727SOL    HW222680   1.536   2.412   5.519 -0.1075  2.3265  0.2367
 5727SOL    HW322681   1.420   2.488   5.579 -1.3560 -0.3466  1.3325
 5727SOL    MW422682   1.475   2.420   5.580  0.3355 -0.0317 -0.6008
 5728SOL     OW22683   5.560   3.615   1.054  0.6567 -0.3585 -0.0772
 5728SOL    HW222684   5.474   3.632   1.093  0.4619 -0.6742 -0.3661
 5728SOL    HW322685   5.591   3.702   1.028  0.0324 -0.3355 -0.7799
 5728SOL    MW422686   5.553   3.629   1.056 -0.2836 -0.3790  0.1975
 5729SOL     OW22687   0.477   1.627   2.287 -0.3858 -0.1418  0.0011
 5729SOL    HW222688   0.559   1.659   2.324 -0.2100  0.7594 -1.1183
 5729SOL    HW322689   0.412   1.695   2.307  0.2958  1.8143 -3.6469
 5729SOL    MW422690   0.479   1.640   2.295  0.3818 -0.2906  0.3257
 5730SOL     OW22691   1.302   3.166   0.191 -0.3925 -0.0292 -0.3329
 5730SOL    HW222692   1.324   3.073   0.186 -3.3987 -0.8591 -0.3543
 5730SOL    HW322693   1.287   3.182   0.284 -0.9413  0.1378 -0.4475
 5730SOL    MW422694   1.303   3.156   0.202  0.5077 -0.3585  0.6461
 5731SOL     OW22695   3.379   5.911   1.986  0.1116  0.3834  0.0540
 5731SOL    HW222696   3.460   5.939   1.942  0.4738 -1.1853 -0.3297
 5731SOL    HW322697   3.311   5.918   1.918  0.3210 -0.2289 -0.2313
 5731SOL    MW422698   3.381   5.916   1.971  0.4561  0.0199  0.2463
 5732SOL     OW22699   3.629   4.454   5.802 -0.1171 -0.4693  0.5451
 5732SOL    HW222700   3.720   4.481   5.791 -0.8083  1.3332 -1.4839
 5732SOL    HW322701   3.625   4.418   5.891  2.9270 -2.3504  0.0560
 5732SOL    MW422702   3.640   4.453   5.812  0.0465 -0.3948  0.3164
 5733SOL     OW22703   1.599   0.745   1.213  0.4151  0.3159  0.2321
 5733SOL    HW222704   1.620   0.762   1.305 -1.7161 -1.0666  1.0484
 5733SOL    HW322705   1.534   0.812   1.191  0.2277  0.0715  0.0347
 5733SOL    MW422706   1.593   0.756   1.222 -0.0022 -0.5140  0.0124
 5734SOL     OW22707   6.411   0.899   5.327 -0.5052 -0.5174 -0.1227
 5734SOL    HW222708   6.484   0.839   5.344 -0.8221 -0.3099  2.2469
 5734SOL    HW322709   6.453   0.979   5.297  0.3640 -0.1673  1.8665
 5734SOL    MW422710   6.426   0.901   5.325 -0.0011 -0.2286  0.0909
 5735SOL     OW22711   5.691   4.321   2.503  0.0441 -0.8073  0.1410
 5735SOL    HW222712   5.718   4.413   2.501  0.3358 -0.8716  0.8941
 5735SOL    HW322713   5.607   4.320   2.459  0.7725 -0.4339 -1.3243
 5735SOL    MW422714   5.684   4.333   2.497 -0.3282  0.3890  0.5315
 5736SOL     OW22715   5.819   2.084   1.752  0.0167 -0.1970 -0.6656
 5736SOL    HW222716   5.753   2.014   1.751 -0.2061 -0.0438  0.8256
 5736SOL    HW322717   5.768   2.164   1.766  0.4186  0.0583 -0.6694
 5736SOL    MW422718   5.803   2.085   1.754 -0.2219  0.2978 -0.0762
 5737SOL     OW22719   4.107   3.859   2.473  0.4428 -0.2083  0.3067
 5737SOL    HW222720   4.082   3.849   2.565 -0.9206 -2.1598 -0.1991
 5737SOL    HW322721   4.142   3.773   2.448  0.3693  0.1413 -1.1073
 5737SOL    MW422722   4.108   3.846   2.481  0.0323  0.0900  0.0931
 5738SOL     OW22723   2.704   1.129   2.219  0.2258  0.5561 -0.5316
 5738SOL    HW222724   2.668   1.151   2.133 -1.1811 -0.4319 -0.2207
 5738SOL    HW322725   2.715   1.034   2.216  0.1791  0.5194  0.3701
 5738SOL    MW422726   2.701   1.120   2.207 -0.1606 -0.2213 -0.4643
 5739SOL     OW22727   4.854   4.733   6.226  0.1621 -0.1946  0.3705
 5739SOL    HW222728   4.930   4.789   6.209  1.2221 -1.7402 -0.2290
 5739SOL    HW322729   4.778   4.787   6.202  1.2657 -0.1540 -3.8185
 5739SOL    MW422730   4.854   4.748   6.220  0.4193  0.3094 -0.9942
 5740SOL     OW22731   5.627   5.514   4.573 -0.1228 -0.0088 -0.1502
 5740SOL    HW222732   5.643   5.536   4.665 -1.1893  0.8818 -0.1683
 5740SOL    HW322733   5.708   5.538   4.528  0.9661 -1.7670  0.7323
 5740SOL    MW422734   5.640   5.520   4.579 -0.1475  0.2670  0.0305
 5741SOL     OW22735   0.696   2.268   3.383  0.2225  0.3608  0.1188
 5741SOL    HW222736   0.699   2.183   3.427 -0.3405 -0.1679 -0.8230
 5741SOL    HW322737   0.624   2.260   3.321  0.1490  1.5454  0.0366
 5741SOL    MW422738   0.687   2.255   3.380  0.2286  0.1692  0.6369
 5742SOL     OW22739   0.134   6.150   2.991 -0.0973 -0.3719  0.1805
 5742SOL    HW222740   0.113   6.068   3.036 -1.0376 -0.2689 -0.0536
 5742SOL    HW322741   0.109   6.218   3.054  2.4807 -0.2401  1.1735
 5742SOL    MW422742   0.128   6.148   3.005 -0.2018  0.5145 -0.0506
 5743SOL     OW22743   2.063   1.557   2.640 -0.0550 -0.0599 -0.4104
 5743SOL    HW222744   2.154   1.580   2.619  0.5601 -1.4029  0.6268
 5743SOL    HW322745   2.031   1.511   2.562  0.8356 -1.3162 -0.0732
 5743SOL    MW422746   2.071   1.554   2.627 -0.5986 -0.3602 -0.2899
 5744SOL     OW22747   4.887   4.705   3.839 -0.5789  0.2158 -0.2802
 5744SOL    HW222748   4.958   4.643   3.819 -0.9020 -0.1001 -0.4669
 5744SOL    HW322749   4.890   4.714   3.935  1.0348  1.8084 -0.4163
 5744SOL    MW422750   4.897   4.698   3.849  0.4096 -0.1583  0.0477
 5745SOL     OW22751   2.550   0.085   2.693 -0.5896  0.4656 -0.2967
 5745SOL    HW222752   2.550   0.157   2.630  1.0309 -0.1238 -1.0266
 5745SOL    HW322753   2.633   0.041   2.679 -1.3008 -1.2195  0.5303
 5745SOL    MW422754   2.561   0.089   2.683  0.5488  0.4525 -0.0062
 5746SOL     OW22755   3.257   5.059   1.029  0.6866 -0.3488 -0.0056
 5746SOL    HW222756   3.263   5.129   0.965  1.6617  1.2889  1.7584
 5746SOL    HW322757   3.191   4.999   0.994  1.4802  0.2296 -2.6793
 5746SOL    MW422758   3.249   5.060   1.016  0.1036 -0.1912 -0.4700
 5747SOL     OW22759   0.309   5.917   2.539  0.4485  0.1261 -0.2987
 5747SOL    HW222760   0.398   5.886   2.519  0.6706  0.2573  0.4683
 5747SOL    HW322761   0.307   5.926   2.634 -0.7589 -1.0033 -0.1799
 5747SOL    MW422762   0.321   5.914   2.549  0.2710 -0.8245 -0.1439
 5748SOL     OW22763   1.279   6.072   2.257 -0.0051  0.0238  0.2720
 5748SOL    HW222764   1.364   6.033   2.237 -0.8404 -1.8292  0.1210
 5748SOL    HW322765   1.225   5.998   2.286 -1.6469  1.1028  0.1026
 5748SOL    MW422766   1.283   6.057   2.259  0.5560 -0.5894 -0.0368
 5749SOL     OW22767   2.849   0.871   6.407  0.4494 -0.2770 -0.0744
 5749SOL    HW222768   2.877   0.901   6.320  0.1524 -0.6326 -0.2941
 5749SOL    HW322769   2.810   0.785   6.391  1.0946 -0.6867  0.5246
 5749SOL    MW422770   2.848   0.864   6.393  0.1877 -0.3773 -0.2041
 5750SOL     OW22771   4.278   4.541   2.239  0.6653 -0.6089 -0.2268
 5750SOL    HW222772   4.374   4.537   2.235  0.6042 -1.3090 -1.4079
 5750SOL    HW322773   4.252   4.462   2.285  0.6111 -1.0028 -0.9241
 5750SOL    MW422774   4.287   4.530   2.244  0.1521  0.3513 -0.0140
 5751SOL     OW22775   4.623   4.703   5.048 -0.2427  0.4261 -0.4149
 5751SOL    HW222776   4.574   4.687   5.128  0.3497  0.9595  0.0652
 5751SOL    HW322777   4.580   4.648   4.982  0.2677 -1.3257  0.6258
 5751SOL    MW422778   4.611   4.694   5.050 -0.1766  0.9101  0.2885
 5752SOL     OW22779   0.579   2.800   5.796  0.3033 -0.1818 -0.0912
 5752SOL    HW222780   0.518   2.804   5.869 -2.0971 -1.2151 -1.8956
 5752SOL    HW322781   0.663   2.776   5.836 -0.8833 -0.6557  2.2998
 5752SOL    MW422782   0.582   2.797   5.811  0.0333 -0.5080 -0.2959
 5753SOL     OW22783   3.849   2.460   6.104 -0.5100  0.5080  1.0244
 5753SOL    HW222784   3.767   2.427   6.140 -0.4990  1.6768  2.1519
 5753SOL    HW322785   3.856   2.549   6.137  1.4966  0.2421  1.4245
 5753SOL    MW422786   3.839   2.467   6.113 -0.0474 -0.6401  0.4959
 5754SOL     OW22787   2.954   2.857   4.286 -0.8817  0.6834  0.3045
 5754SOL    HW222788   2.976   2.908   4.208 -0.3449 -0.7903 -0.5442
 5754SOL    HW322789   2.894   2.789   4.254 -0.2026 -0.2948  1.0446
 5754SOL    MW422790   2.949   2.855   4.272  0.4509 -0.2080  0.5725
 5755SOL     OW22791   4.979   5.324   1.370 -0.2446 -0.0336  0.4194
 5755SOL    HW222792   4.980   5.376   1.451  0.4318 -0.1620  0.4946
 5755SOL    HW322793   4.943   5.383   1.304  0.9224  0.6802  0.4092
 5755SOL    MW422794   4.974   5.339   1.372  0.0515 -0.4770  0.0866
 5756SOL     OW22795   3.632   2.773   2.808 -0.7477  0.2700 -0.5008
 5756SOL    HW222796   3.646   2.769   2.714 -0.1016  0.1172 -0.4014
 5756SOL    HW322797   3.719   2.789   2.845 -0.9979  0.3468  0.0648
 5756SOL    MW422798   3.645   2.774   2.801 -0.3640 -0.5405 -0.5110
 5757SOL     OW22799   3.321   6.167   5.828 -0.0382  0.4202  0.2317
 5757SOL    HW222800   3.268   6.148   5.751  0.2969  1.1605 -0.1910
 5757SOL    HW322801   3.411   6.172   5.794 -0.0242  1.9841  0.4449
 5757SOL    MW422802   3.326   6.165   5.813 -0.3866  0.2091 -0.2443
 5758SOL     OW22803   4.474   1.898   2.824 -0.6303 -0.2708 -0.2186
 5758SOL    HW222804   4.521   1.819   2.796  2.3735  1.5473 -0.7227
 5758SOL    HW322805   4.454   1.944   2.743 -1.4366  0.0099  0.1291
 5758SOL    MW422806   4.477   1.894   2.810 -0.0994 -0.1043  0.5527
 5759SOL     OW22807   4.330   2.570   1.892  0.5863 -0.4885  0.4198
 5759SOL    HW222808   4.326   2.607   1.804  1.0150 -1.8764 -0.2131
 5759SOL    HW322809   4.344   2.645   1.949  1.6935  0.2929 -0.8265
 5759SOL    MW422810   4.331   2.585   1.888  0.2353 -0.3158  0.2458
 5760SOL     OW22811   2.028   2.388   3.982  0.5797 -0.3637 -0.2187
 5760SOL    HW222812   1.998   2.319   3.923  1.5621 -0.9719 -0.0205
 5760SOL    HW322813   2.117   2.407   3.954  0.6633  0.1295  0.3603
 5760SOL    MW422814   2.036   2.381   3.971 -0.5510  0.4812  0.2392
 5761SOL     OW22815   0.071   0.580   4.322 -0.1242  0.7904  0.4248
 5761SOL    HW222816   0.137   0.546   4.383 -0.1312  0.5550  0.3040
 5761SOL    HW322817   0.089   0.673   4.317 -0.1769  0.8282  0.8560
 5761SOL    MW422818   0.082   0.588   4.329 -0.4372  0.6364  0.6031
 5762SOL     OW22819   0.858   4.423   3.330 -0.3586 -0.0432 -0.3395
 5762SOL    HW222820   0.846   4.348   3.387 -0.7027  1.4718  1.6984
 5762SOL    HW322821   0.921   4.394   3.264 -1.3580 -2.4482 -0.3279
 5762SOL    MW422822   0.865   4.409   3.329  0.1616 -0.7783 -0.7847
 5763SOL     OW22823   1.846   6.405   1.528  0.4706  0.0781 -0.1538
 5763SOL    HW222824   1.791   6.471   1.569  0.3726  0.1049 -0.3288
 5763SOL    HW322825   1.805   6.321   1.549  1.8012 -0.1090  1.9752
 5763SOL    MW422826   1.834   6.403   1.536  0.4486  0.1888 -0.1782
 5764SOL     OW22827   0.050   5.796   2.483 -0.6752  0.0797  0.2245
 5764SOL    HW222828   0.133   5.842   2.495 -1.2700  1.2128  0.1399
 5764SOL    HW322829   0.020   5.822   2.396 -0.6008 -1.1800 -0.1819
 5764SOL    MW422830   0.057   5.806   2.473 -0.0166 -0.5501 -0.0528
 5765SOL     OW22831   3.994   1.198   1.281 -0.3047 -0.2762 -0.0987
 5765SOL    HW222832   4.052   1.262   1.323 -0.9510  0.1347  0.1803
 5765SOL    HW322833   3.955   1.150   1.353 -0.5866 -0.3088 -0.2727
 5765SOL    MW422834   3.997   1.200   1.296  0.3613 -0.1849 -0.0430
 5766SOL     OW22835   2.653   1.067   6.456 -0.5126  0.3261  0.1479
 5766SOL    HW222836   2.571   1.029   6.486 -0.8563  1.7912  1.2073
 5766SOL    HW322837   2.711   0.992   6.443 -1.6845 -0.6567  0.4331
 5766SOL    MW422838   2.650   1.052   6.458 -0.1715  0.2241 -0.6176
 5767SOL     OW22839   1.170   1.831   0.233  0.5031  0.2527  0.3834
 5767SOL    HW222840   1.140   1.900   0.174 -3.5998 -0.8039  0.9012
 5767SOL    HW322841   1.141   1.750   0.192  2.1454 -0.9410  1.4475
 5767SOL    MW422842   1.162   1.829   0.220 -0.0261  0.2297 -0.4287
 5768SOL     OW22843   2.831   5.241   5.745 -0.5674 -0.0680 -0.1325
 5768SOL    HW222844   2.871   5.166   5.700 -1.1802  0.1147 -0.9980
 5768SOL    HW322845   2.883   5.316   5.717 -0.0756 -0.1348  0.5813
 5768SOL    MW422846   2.843   5.241   5.736 -0.2030  0.0153  0.4308
 5769SOL     OW22847   6.314   5.738   5.908 -0.5747  0.3828  0.4956
 5769SOL    HW222848   6.359   5.689   5.977  0.8426  0.0907 -0.5828
 5769SOL    HW322849   6.252   5.793   5.954 -0.1614 -0.3159  1.9543
 5769SOL    MW422850   6.312   5.739   5.923  0.2914  0.2588  0.4943
 5770SOL     OW22851   1.322   3.143   3.487 -0.2430  0.2026  0.4966
 5770SOL    HW222852   1.260   3.074   3.463 -0.2336  0.2799  0.2514
 5770SOL    HW322853   1.322   3.142   3.583  0.7344 -1.0449  0.5196
 5770SOL    MW422854   1.314   3.134   3.496  0.6700  0.1355  0.4510
 5771SOL     OW22855   3.000   2.252   5.629 -0.0362  0.2572 -0.4657
 5771SOL    HW222856   3.094   2.264   5.646 -0.0872 -0.0723  0.0747
 5771SOL    HW322857   2.962   2.239   5.715 -0.8173  1.9004 -0.5381
 5771SOL    MW422858   3.008   2.252   5.642 -0.0609  0.4431 -0.0209
 5772SOL     OW22859   4.101   0.454   1.567 -0.2374  0.5765  0.2571
 5772SOL    HW222860   4.051   0.507   1.629 -0.9646 -0.0129  0.1912
 5772SOL    HW322861   4.066   0.366   1.578  0.0696  0.3508 -0.5429
 5772SOL    MW422862   4.090   0.450   1.577  0.2095 -0.0471 -0.3482
 5773SOL     OW22863   4.673   2.743   1.401 -0.7280  0.2170  0.0465
 5773SOL    HW222864   4.728   2.681   1.353 -0.8973  0.2057 -0.1328
 5773SOL    HW322865   4.694   2.727   1.493 -1.0766 -0.3966  0.0235
 5773SOL    MW422866   4.683   2.733   1.407  0.4933  0.2123  0.3387
 5774SOL     OW22867   0.227   3.343   0.859  0.1056 -0.1530 -0.6999
 5774SOL    HW222868   0.284   3.384   0.794  0.4569 -0.4329 -0.5725
 5774SOL    HW322869   0.194   3.416   0.911 -1.0164  0.1874 -1.8438
 5774SOL    MW422870   0.231   3.358   0.857  0.1330 -0.1498  0.2920
 5775SOL     OW22871   3.850   0.215   1.910 -0.0446 -0.3968  0.4364
 5775SOL    HW222872   3.817   0.296   1.872  0.8295 -0.3185 -0.1928
 5775SOL    HW322873   3.896   0.172   1.838 -0.9453 -1.7200  0.6147
 5775SOL    MW422874   3.852   0.220   1.895 -0.0291 -0.1082  0.7234
 5776SOL     OW22875   0.121   4.973   1.889  0.2976 -0.1694 -0.1628
 5776SOL    HW222876   0.199   5.009   1.931  0.9652 -0.6060 -1.0049
 5776SOL    HW322877   0.149   4.888   1.855 -0.9166 -0.9564  0.7215
 5776SOL    MW422878   0.135   4.966   1.890 -0.4267  0.3035 -0.0697
 5777SOL     OW22879   2.791   2.074   3.350 -0.0162 -0.0901  0.6410
 5777SOL    HW222880   2.714   2.101   3.400  0.6051 -0.2135  1.6937
 5777SOL    HW322881   2.862   2.076   3.413  1.2692  1.9505 -0.7633
 5777SOL    MW422882   2.790   2.078   3.365 -0.0188 -0.0325 -0.6267
 5778SOL     OW22883   4.067   1.590   5.062 -0.5700 -0.6466 -0.5416
 5778SOL    HW222884   4.018   1.593   5.144 -1.9891 -1.3156 -1.3231
 5778SOL    HW322885   4.135   1.525   5.078  0.8806  1.1467  0.9545
 5778SOL    MW422886   4.069   1.582   5.075  0.4307 -0.0912 -0.3337
 5779SOL     OW22887   5.862   2.398   0.891  0.3182 -0.3117 -0.3220
 5779SOL    HW222888   5.894   2.381   0.980  0.4146 -2.3584 -0.7182
 5779SOL    HW322889   5.791   2.335   0.878 -1.5048  1.7077 -0.7868
 5779SOL    MW422890   5.857   2.388   0.901  0.0417  0.7775 -0.3019
 5780SOL     OW22891   3.147   5.975   0.550 -0.1218 -0.1973  0.4199
 5780SOL    HW222892   3.055   5.952   0.546 -0.2125 -0.1538  1.9031
 5780SOL    HW322893   3.153   6.060   0.508 -0.6060 -0.5829 -0.4492
 5780SOL    MW422894   3.136   5.983   0.544 -0.5356  0.1764 -0.4091
 5781SOL     OW22895   2.583   6.310   5.221  0.0952  0.0899  0.5660
 5781SOL    HW222896   2.568   6.354   5.305 -0.3358  2.3446 -0.6245
 5781SOL    HW322897   2.500   6.268   5.201 -0.5632  1.4839  0.2303
 5781SOL    MW422898   2.570   6.310   5.229  0.0353 -0.3911  0.0177
 5782SOL     OW22899   4.598   4.279   0.726 -0.3202 -0.0912  0.3107
 5782SOL    HW222900   4.522   4.239   0.769 -0.4127  0.2256  0.4447
 5782SOL    HW322901   4.564   4.310   0.642 -0.6340  1.0859  0.8374
 5782SOL    MW422902   4.583   4.278   0.721  0.5397 -0.7263  0.4231
 5783SOL     OW22903   1.713   1.610   0.213 -0.1525  0.3660  0.1489
 5783SOL    HW222904   1.638   1.565   0.251  0.5406  0.0915  1.2538
 5783SOL    HW322905   1.776   1.540   0.196  0.9361  0.8561  1.8740
 5783SOL    MW422906   1.712   1.595   0.216  0.1521  0.3385  0.5395
 5784SOL     OW22907   0.706   4.174   2.549 -0.4930 -0.3327 -0.0361
 5784SOL    HW222908   0.642   4.201   2.483 -2.4283 -1.3980  1.2902
 5784SOL    HW322909   0.653   4.144   2.623  1.4934  2.3794  2.7653
 5784SOL    MW422910   0.691   4.173   2.550 -0.6533 -0.4107  0.5397
 5785SOL     OW22911   5.251   1.248   2.484 -0.2376  0.1220  0.0325
 5785SOL    HW222912   5.301   1.249   2.403 -0.4164 -0.4809 -0.0885
 5785SOL    HW322913   5.203   1.331   2.484  1.2928  1.0532  0.4966
 5785SOL    MW422914   5.251   1.259   2.473  1.1628 -0.0538  0.3752
 5786SOL     OW22915   4.208   4.128   3.478 -0.2843  0.3729  0.6605
 5786SOL    HW222916   4.160   4.050   3.505 -2.0285  0.3127 -2.1927
 5786SOL    HW322917   4.159   4.201   3.516 -0.6071  0.1946  0.5874
 5786SOL    MW422918   4.196   4.127   3.487 -0.6129 -0.6036  0.0080
 5787SOL     OW22919   1.746   5.376   1.641 -0.9647  0.4604 -0.0180
 5787SOL    HW222920   1.733   5.311   1.573  0.3955 -2.1070  1.9857
 5787SOL    HW322921   1.805   5.334   1.704 -0.7663  3.2945  1.9095
 5787SOL    MW422922   1.752   5.362   1.640 -0.0422 -0.5147  0.1761
 5788SOL     OW22923   2.376   1.757   2.125 -0.0791  0.0215  0.3038
 5788SOL    HW222924   2.306   1.741   2.061 -1.9331 -1.5157  2.4986
 5788SOL    HW322925   2.359   1.845   2.158  0.4019  0.5078 -0.7046
 5788SOL    MW422926   2.364   1.766   2.121 -0.1973  0.2842  0.2797
 5789SOL     OW22927   3.502   2.544   5.879 -0.4279 -0.2537  0.3860
 5789SOL    HW222928   3.496   2.625   5.829 -0.5645  0.2994  1.2651
 5789SOL    HW322929   3.554   2.485   5.824  1.9058  1.2825  0.7800
 5789SOL    MW422930   3.508   2.547   5.865  0.6581 -0.0165  0.0837
 5790SOL     OW22931   6.144   5.192   5.443  0.1043 -0.0602 -0.5223
 5790SOL    HW222932   6.200   5.234   5.508  1.2081  1.8899 -2.6118
 5790SOL    HW322933   6.055   5.212   5.472  0.4480 -1.5258  1.7757
 5790SOL    MW422934   6.140   5.200   5.455 -0.3059  0.1954 -0.1165
 5791SOL     OW22935   2.877   2.772   1.770 -0.6668  0.0212 -0.4727
 5791SOL    HW222936   2.970   2.783   1.789 -0.0493  0.9579 -3.5473
 5791SOL    HW322937   2.832   2.820   1.840  1.1008 -0.5413  1.1234
 5791SOL    MW422938   2.883   2.779   1.782  0.0159  0.4269  0.6462
 5792SOL     OW22939   1.081   1.489   1.544 -0.4574  0.2358 -0.1225
 5792SOL    HW222940   1.175   1.486   1.559 -0.5232  0.7428  0.4070
 5792SOL    HW322941   1.072   1.512   1.451 -0.0633 -0.8456 -0.4414
 5792SOL    MW422942   1.092   1.491   1.534  0.0867  0.1140  0.5151
 5793SOL     OW22943   0.285   3.561   4.363  0.1527  0.1114  0.3898
 5793SOL    HW222944   0.319   3.649   4.349 -0.7001  0.2346 -1.2177
 5793SOL    HW322945   0.362   3.504   4.359  0.5211  0.6405 -0.2073
 5793SOL    MW422946   0.300   3.565   4.361 -0.1036 -0.3891 -0.5350
 5794SOL     OW22947   1.233   1.702   4.192  0.2291  0.2418  0.1016
 5794SOL    HW222948   1.192   1.782   4.159  0.2907  0.1235 -0.2608
 5794SOL    HW322949   1.326   1.711   4.170  0.0335 -0.5059 -1.0959
 5794SOL    MW422950   1.240   1.714   4.185  0.0594 -0.3592  0.2616
 5795SOL     OW22951   1.657   2.810   1.905 -0.2476  0.0070  0.1516
 5795SOL    HW222952   1.647   2.755   1.982 -2.6847 -0.4011 -0.3956
 5795SOL    HW322953   1.596   2.883   1.918 -0.6995 -0.0539 -1.3606
 5795SOL    MW422954   1.648   2.813   1.917  0.5227 -1.0199 -0.4964
 5796SOL     OW22955   1.472   3.970   5.939  0.3899 -0.8973  0.8138
 5796SOL    HW222956   1.386   3.992   5.902  1.4458 -1.1321 -2.0475
 5796SOL    HW322957   1.452   3.918   6.017 -2.0416  0.3221  1.1032
 5796SOL    MW422958   1.458   3.966   5.944  0.2960 -0.2055 -0.0459
 5797SOL     OW22959   0.054   6.007   2.063 -0.1503 -0.1432 -0.3414
 5797SOL    HW222960   0.013   6.088   2.031  3.2908  1.4327 -1.2059
 5797SOL    HW322961   0.088   6.030   2.149  0.8383 -0.6469 -0.5862
 5797SOL    MW422962   0.053   6.021   2.070 -0.0061 -0.1900 -0.7492
 5798SOL     OW22963   2.131   0.740   1.131  0.1843 -0.1763 -0.0308
 5798SOL    HW222964   2.183   0.800   1.186 -0.1152 -0.8796  1.0687
 5798SOL    HW322965   2.197   0.688   1.085  0.4782 -0.5158  0.7418
 5798SOL    MW422966   2.147   0.741   1.132  0.2067 -0.0867  0.1568
 5799SOL     OW22967   0.719   1.485   4.478  0.3643  0.4392  0.0084
 5799SOL    HW222968   0.796   1.509   4.425  0.8229  1.6418  1.1694
 5799SOL    HW322969   0.645   1.493   4.417  0.9919  0.6637 -0.7450
 5799SOL    MW422970   0.719   1.489   4.463 -0.4505  0.0948 -0.3682
 5800SOL     OW22971   3.034   4.049   0.987  0.0158 -0.0185  0.3422
 5800SOL    HW222972   3.114   4.025   0.940  0.4123  1.3917  0.2726
 5800SOL    HW322973   2.979   3.970   0.982  0.6657 -0.4054 -1.1706
 5800SOL    MW422974   3.037   4.035   0.980 -0.1748 -0.4686 -0.2587
 5801SOL     OW22975   1.013   0.968   0.314 -0.3459  0.1618  0.1381
 5801SOL    HW222976   1.047   0.900   0.256 -0.7655  0.1049 -0.0494
 5801SOL    HW322977   0.918   0.955   0.312 -0.3806  0.3314  0.6257
 5801SOL    MW422978   1.005   0.957   0.306  0.3171 -0.3373  0.0042
 5802SOL     OW22979   2.655   5.202   2.486  0.6975  0.4012 -0.4596
 5802SOL    HW222980   2.724   5.173   2.545  0.4044  0.3193 -0.1547
 5802SOL    HW322981   2.628   5.287   2.521  0.6849  0.4627 -0.6151
 5802SOL    MW422982   2.661   5.210   2.498 -0.0238  0.0097 -0.2942
 5803SOL     OW22983   1.727   3.817   3.824  0.5051  0.1380  0.6850
 5803SOL    HW222984   1.810   3.861   3.801  0.5759 -1.1034 -1.7366
 5803SOL    HW322985   1.682   3.807   3.740 -2.6538  1.6905  2.0314
 5803SOL    MW422986   1.732   3.822   3.810  0.0747 -0.2012 -0.2080
 5804SOL     OW22987   3.744   3.428   5.193 -0.2992  0.2795 -0.1356
 5804SOL    HW222988   3.772   3.505   5.243  0.7005 -1.2275  1.7395
 5804SOL    HW322989   3.700   3.464   5.117  2.2198  2.7619 -0.5682
 5804SOL    MW422990   3.742   3.443   5.190  0.2437  0.0193 -0.1121
 5805SOL     OW22991   3.873   5.825   0.164 -0.1979 -0.8110 -0.3378
 5805SOL    HW222992   3.817   5.815   0.087 -1.2200 -0.2734  0.3159
 5805SOL    HW322993   3.852   5.749   0.218 -1.1229 -0.0548  0.4010
 5805SOL    MW422994   3.863   5.813   0.161  0.4109  0.5438 -0.1887
 5806SOL     OW22995   3.325   5.409   6.379 -0.1331  0.5169  0.2411
 5806SOL    HW222996   3.390   5.476   6.402  2.1622 -1.2386 -0.7471
 5806SOL    HW322997   3.271   5.452   6.312  0.4210  1.8017  0.5717
 5806SOL    MW422998   3.326   5.424   6.373 -0.7259  0.5166  0.3207
 5807SOL     OW22999   0.650   2.648   2.150  0.3282 -0.0264  0.9587
 5807SOL    HW223000   0.697   2.675   2.071 -0.2906 -2.4380 -0.3037
 5807SOL    HW323001   0.624   2.558   2.134 -1.3500 -0.0422  3.2366
 5807SOL    MW423002   0.653   2.640   2.138 -0.4226 -0.7638  0.2713
 5808SOL     OW23003   2.680   4.094   1.366 -0.3172  0.0328 -0.4442
 5808SOL    HW223004   2.599   4.124   1.406  0.5496  1.2155  0.4577
 5808SOL    HW323005   2.745   4.161   1.387  0.9737 -1.0140 -0.9097
 5808SOL    MW423006   2.678   4.106   1.374 -0.4772  0.1995  0.3669
 5809SOL     OW23007   5.228   5.215   2.982 -0.1612  0.2597 -0.0920
 5809SOL    HW223008   5.136   5.232   3.003 -0.5846  0.2766 -1.8047
 5809SOL    HW323009   5.225   5.167   2.900  1.3253 -1.2880  0.7074
 5809SOL    MW423010   5.215   5.211   2.974 -0.7334  0.1590  0.0556
 5810SOL     OW23011   4.288   5.985   2.550 -0.1736 -0.3608  0.1854
 5810SOL    HW223012   4.347   5.988   2.476 -1.3974 -0.9577 -0.8511
 5810SOL    HW323013   4.213   6.038   2.523 -0.7248 -0.7530  0.9023
 5810SOL    MW423014   4.286   5.992   2.537  0.5140 -0.2831 -0.1135
 5811SOL     OW23015   5.013   5.706   1.773 -0.2309  0.4393  0.0389
 5811SOL    HW223016   5.105   5.726   1.758  0.0264 -0.4495  0.3390
 5811SOL    HW323017   4.966   5.769   1.719  0.5757  0.3466 -0.8182
 5811SOL    MW423018   5.019   5.717   1.764 -0.1249 -0.6203 -0.1586
 5812SOL     OW23019   4.651   5.587   5.803  0.3748 -0.5467 -0.7705
 5812SOL    HW223020   4.683   5.511   5.851 -1.2232 -2.8096 -2.9910
 5812SOL    HW323021   4.609   5.642   5.869  1.0922 -1.8745  0.8584
 5812SOL    MW423022   4.649   5.584   5.818  0.1038  0.2801 -0.2841
 5813SOL     OW23023   0.357   3.254   2.885  0.0295 -0.6691 -0.6774
 5813SOL    HW223024   0.362   3.227   2.794  1.1667 -1.1562 -0.4923
 5813SOL    HW323025   0.385   3.345   2.885 -3.8288  0.7058 -1.3056
 5813SOL    MW423026   0.361   3.262   2.873 -0.2721 -0.0788 -0.0966
 5814SOL     OW23027   2.854   4.515   3.367 -0.1799  0.0229  0.0298
 5814SOL    HW223028   2.784   4.514   3.301  0.0947 -1.9200 -0.2796
 5814SOL    HW323029   2.889   4.604   3.363  0.9031 -0.4213 -3.6279
 5814SOL    MW423030   2.849   4.527   3.358 -0.5743  0.4740 -0.0304
 5815SOL     OW23031   4.599   2.473   1.871 -0.1862  0.0895  0.3607
 5815SOL    HW223032   4.507   2.494   1.886 -1.0352 -1.6723 -1.7723
 5815SOL    HW323033   4.634   2.550   1.826 -1.3599 -0.1946 -1.1260
 5815SOL    MW423034   4.592   2.486   1.867  0.0886 -0.4724  0.8200
 5816SOL     OW23035   3.310   4.544   3.595  0.2668  0.0160  0.4855
 5816SOL    HW223036   3.404   4.534   3.580  0.0209 -0.6598 -0.7127
 5816SOL    HW323037   3.269   4.518   3.513 -0.9228  1.6968  0.4929
 5816SOL    MW423038   3.317   4.539   3.582 -0.1367  0.1260  0.4792
 5817SOL     OW23039   1.973   2.688   0.294  0.5791  0.6467 -0.0992
 5817SOL    HW223040   1.932   2.687   0.207  2.1702  0.9844 -0.8909
 5817SOL    HW323041   1.936   2.611   0.338 -0.6206  0.7392 -0.8868
 5817SOL    MW423042   1.963   2.677   0.288 -0.3376  0.2559  0.1043
 5818SOL     OW23043   3.973   1.469   2.846 -0.1880 -0.6190  0.4108
 5818SOL    HW223044   4.039   1.419   2.799 -0.5538 -0.6150 -0.1216
 5818SOL    HW323045   3.891   1.448   2.801 -0.3159  0.6195  0.0206
 5818SOL    MW423046   3.971   1.460   2.834 -0.2692 -0.1552 -0.2856
 5819SOL     OW23047   4.165   2.174   2.886 -0.1974 -0.0394 -0.0964
 5819SOL    HW223048   4.241   2.179   2.828 -0.3923 -1.0564 -0.4624
 5819SOL    HW323049   4.180   2.242   2.953  0.9102 -0.0802 -0.2990
 5819SOL    MW423050   4.177   2.184   2.888 -0.0813 -0.6849  0.0037
 5820SOL     OW23051   3.337   2.429   4.551  0.5730  0.1898  0.0885
 5820SOL    HW223052   3.404   2.485   4.510  0.2899 -1.3117 -2.6698
 5820SOL    HW323053   3.385   2.380   4.618  2.2850 -0.7139 -1.6833
 5820SOL    MW423054   3.353   2.430   4.555  0.5202  0.3850  0.4311
 5821SOL     OW23055   0.863   5.711   0.438 -0.0307 -0.1195 -0.2967
 5821SOL    HW223056   0.805   5.650   0.394 -0.6204  0.1639  0.0797
 5821SOL    HW323057   0.949   5.669   0.433 -0.0670 -0.0797 -1.7276
 5821SOL    MW423058   0.867   5.698   0.432 -0.1443 -0.2434 -0.1364
 5822SOL     OW23059   4.738   2.345   3.375 -0.3042 -0.2562 -0.6480
 5822SOL    HW223060   4.828   2.375   3.361 -0.6618  0.9692 -0.4966
 5822SOL    HW323061   4.746   2.271   3.435  0.6048 -0.1116 -0.5743
 5822SOL    MW423062   4.751   2.339   3.381 -0.5370 -0.0887 -1.0166
 5823SOL     OW23063   4.464   4.060   3.180 -0.2965  0.0492 -0.0286
 5823SOL    HW223064   4.510   4.129   3.131 -1.8657  0.9648 -0.2544
 5823SOL    HW323065   4.481   4.081   3.271 -1.8199  1.5298 -0.0499
 5823SOL    MW423066   4.473   4.072   3.185 -0.0804 -0.4957  0.1559
 5824SOL     OW23067   2.637   5.432   5.633 -0.1801  0.0193  0.1644
 5824SOL    HW223068   2.688   5.354   5.653 -1.4755 -1.3058 -1.3828
 5824SOL    HW323069   2.699   5.491   5.590  1.3626  0.8359  3.2714
 5824SOL    MW423070   2.652   5.429   5.630 -0.0823  0.5266 -0.7058
 5825SOL     OW23071   0.216   3.551   2.115  0.2425  0.1810 -0.8476
 5825SOL    HW223072   0.245   3.468   2.151  0.1070  0.5573  0.1779
 5825SOL    HW323073   0.287   3.579   2.057 -0.4931 -1.4991 -2.6813
 5825SOL    MW423074   0.229   3.544   2.112  0.1419 -0.1261 -0.2837
 5826SOL     OW23075   2.116   6.311   3.507  0.2756 -0.3739 -0.0782
 5826SOL    HW223076   2.084   6.322   3.597  0.4557  1.3800 -0.2071
 5826SOL    HW323077   2.065   6.237   3.474  0.4057 -1.2510  1.5380
 5826SOL    MW423078   2.105   6.303   3.515 -0.0024 -0.2737 -0.3230
 5827SOL     OW23079   0.421   4.555   2.245  0.4619  0.6063 -0.7432
 5827SOL    HW223080   0.371   4.597   2.315  2.0408  1.6233 -0.1877
 5827SOL    HW323081   0.486   4.501   2.291 -0.0468 -0.6565 -1.4554
 5827SOL    MW423082   0.423   4.553   2.260 -0.4495 -0.1132  0.1215
 5828SOL     OW23083   1.066   1.156   1.580  0.4747 -0.3576 -0.5882
 5828SOL    HW223084   1.014   1.235   1.566  1.5064  0.3649 -0.4575
 5828SOL    HW323085   1.001   1.088   1.601 -0.3246  0.8575  1.1098
 5828SOL    MW423086   1.050   1.157   1.581 -0.1327  0.6217  0.2920
 5829SOL     OW23087   3.433   3.373   4.980  0.2510 -0.0676 -0.0849
 5829SOL    HW223088   3.388   3.434   4.922 -1.2905  0.1213  1.2545
 5829SOL    HW323089   3.413   3.287   4.943  2.1636  0.1282 -1.7869
 5829SOL    MW423090   3.425   3.370   4.967  0.1434  0.0050  0.0824
 5830SOL     OW23091   5.686   2.431   2.167  0.3979 -0.0427  0.0646
 5830SOL    HW223092   5.715   2.360   2.224 -0.3193 -0.5773 -0.2177
 5830SOL    HW323093   5.645   2.494   2.227  0.8370  0.0329  0.2904
 5830SOL    MW423094   5.685   2.430   2.183 -0.0010 -0.2964 -0.3289
 5831SOL     OW23095   4.587   6.317   2.318  0.0798  0.6006 -0.0018
 5831SOL    HW223096   4.628   6.249   2.265  0.4929  0.9799 -0.1722
 5831SOL    HW323097   4.634   6.314   2.401 -0.3420  0.2366  0.2314
 5831SOL    MW423098   4.599   6.308   2.322  0.2405  0.2313  0.0643
 5832SOL     OW23099   5.318   5.032   5.654  0.3082  0.4505 -0.6914
 5832SOL    HW223100   5.383   5.068   5.593  1.0316  1.1260  0.4435
 5832SOL    HW323101   5.354   4.947   5.679  0.3274  0.4498 -0.7213
 5832SOL    MW423102   5.331   5.026   5.649 -0.2658 -0.6935 -0.3236
 5833SOL     OW23103   2.181   2.014   6.045 -0.4718  0.7271 -0.5844
 5833SOL    HW223104   2.256   2.055   6.087  0.2122 -0.5124 -0.5534
 5833SOL    HW323105   2.113   2.012   6.112  0.4461 -0.7831  0.3567
 5833SOL    MW423106   2.182   2.019   6.059 -0.3162  0.4395  0.1381
 5834SOL     OW23107   0.156   5.190   3.657  0.2445  0.3118 -0.3000
 5834SOL    HW223108   0.068   5.152   3.664  0.4098  0.0523  0.4989
 5834SOL    HW323109   0.166   5.241   3.737  1.1588 -0.3933  0.0530
 5834SOL    MW423110   0.146   5.192   3.669  0.0025 -0.2069 -0.0365
 5835SOL     OW23111   0.629   3.349   5.911 -0.4066 -0.0466 -0.4547
 5835SOL    HW223112   0.686   3.413   5.953 -0.2643 -1.0146  0.9141
 5835SOL    HW323113   0.550   3.398   5.888 -0.4040  0.5919  0.7934
 5835SOL    MW423114   0.626   3.364   5.914 -0.1803  0.0546  0.1034
 5836SOL     OW23115   3.728   6.221   1.070 -0.0342 -0.1331  0.0140
 5836SOL    HW223116   3.815   6.198   1.037 -0.0544 -0.3948  0.1417
 5836SOL    HW323117   3.742   6.241   1.162  0.1190  1.1468 -0.2732
 5836SOL    MW423118   3.741   6.220   1.078  0.4008 -0.2738 -0.3396
 5837SOL     OW23119   1.368   4.645   4.978 -0.3484  0.6743  0.3040
 5837SOL    HW223120   1.382   4.551   4.990 -1.0186  0.5646  0.2843
 5837SOL    HW323121   1.432   4.671   4.912 -2.3317 -0.4463 -2.2395
 5837SOL    MW423122   1.378   4.636   4.971  0.1796  0.5558  0.2916
 5838SOL     OW23123   4.113   3.477   3.810 -0.6490  0.0403 -0.5049
 5838SOL    HW223124   4.108   3.571   3.793  0.5970  0.3644  0.7006
 5838SOL    HW323125   4.202   3.453   3.784 -0.0574 -0.2446  1.6452
 5838SOL    MW423126   4.124   3.486   3.804  0.2775  0.0734  0.1688
 5839SOL     OW23127   4.495   3.004   0.739  0.0007  0.4152 -0.5980
 5839SOL    HW223128   4.431   3.046   0.682  0.7684 -0.2230 -1.9712
 5839SOL    HW323129   4.473   2.911   0.735 -0.9546  0.4984  1.4865
 5839SOL    MW423130   4.484   2.997   0.731 -0.2007 -0.3185 -0.4046
 5840SOL     OW23131   0.993   1.704   5.179 -0.1434 -0.3935  0.3735
 5840SOL    HW223132   0.956   1.683   5.265 -0.4362 -0.5201  0.2175
 5840SOL    HW323133   1.048   1.629   5.157  0.3793 -0.1098  0.7019
 5840SOL    MW423134   0.996   1.691   5.188  0.1442 -0.5184 -0.6839
 5841SOL     OW23135   0.477   0.749   2.281  0.1502 -0.5621 -0.1084
 5841SOL    HW223136   0.558   0.699   2.283  2.4124  2.7641 -0.6751
 5841SOL    HW323137   0.450   0.754   2.373  1.7709 -0.1064  0.3900
 5841SOL    MW423138   0.484   0.743   2.293 -0.5551  0.2301  0.1432
 5842SOL     OW23139   4.325   2.643   3.034  0.3278  0.0333  0.4774
 5842SOL    HW223140   4.287   2.702   3.099  1.9035  0.8687  0.6859
 5842SOL    HW323141   4.270   2.564   3.039 -1.4343  1.2125  0.6278
 5842SOL    MW423142   4.313   2.640   3.043  0.3392  0.5388 -0.0761
 5843SOL     OW23143   0.893   3.930   1.072 -0.2343  0.0301  0.1216
 5843SOL    HW223144   0.954   3.885   1.014 -1.2024 -0.8351 -0.2669
 5843SOL    HW323145   0.896   3.881   1.154 -1.4808 -0.9597 -0.3851
 5843SOL    MW423146   0.901   3.918   1.075  0.3667  0.3249 -0.6179
 5844SOL     OW23147   5.302   0.643   1.760 -0.1389 -0.1650  0.3579
 5844SOL    HW223148   5.288   0.560   1.804 -0.2244 -0.4028 -0.1098
 5844SOL    HW323149   5.375   0.684   1.807  0.1050 -0.6438  0.3974
 5844SOL    MW423150   5.310   0.638   1.772 -0.3138  0.3117  0.5566
 5845SOL     OW23151   4.144   2.276   2.151 -0.2924  0.3986  0.0772
 5845SOL    HW223152   4.132   2.348   2.090  1.3836 -0.3811 -1.2491
 5845SOL    HW323153   4.238   2.258   2.149 -0.6315 -1.6918  0.5042
 5845SOL    MW423154   4.155   2.283   2.143  0.8006 -0.0956 -0.1238
 5846SOL     OW23155   5.723   2.464   5.777  0.0802  0.4264 -0.1896
 5846SOL    HW223156   5.693   2.501   5.693 -0.7989 -2.1987 -1.1426
 5846SOL    HW323157   5.642   2.450   5.827  0.3895 -0.0693  0.1801
 5846SOL    MW423158   5.708   2.467   5.772  0.3661  0.2800  0.4115
 5847SOL     OW23159   5.302   0.082   0.959  0.9670 -0.3486 -0.2945
 5847SOL    HW223160   5.251   0.145   0.909 -1.3329 -1.1335  0.8999
 5847SOL    HW323161   5.303   0.117   1.048  0.7840 -1.3292  0.1099
 5847SOL    MW423162   5.296   0.095   0.965  0.3842  0.0150  0.0201
 5848SOL     OW23163   2.586   5.320   3.565  0.2457  1.1531  0.4050
 5848SOL    HW223164   2.653   5.382   3.536  0.4514  1.9822  2.4921
 5848SOL    HW323165   2.503   5.365   3.548  0.2493  0.7118 -0.8726
 5848SOL    MW423166   2.584   5.334   3.559 -0.1434  0.4388 -0.5949
 5849SOL     OW23167   3.994   0.325   3.406  0.1196 -0.2287 -0.0843
 5849SOL    HW223168   4.040   0.276   3.474  1.6009  1.6707  0.3584
 5849SOL    HW323169   4.063   0.350   3.344 -0.8990 -0.2483 -1.2683
 5849SOL    MW423170   4.009   0.322   3.407  0.1243 -0.0173  0.1935
 5850SOL     OW23171   0.084   5.939   5.905  0.3877 -0.5329  0.2576
 5850SOL    HW223172   0.033   6.019   5.899  0.4625 -0.4406  0.7633
 5850SOL    HW323173   0.020   5.869   5.893 -0.0878 -0.4532  2.0041
 5850SOL    MW423174   0.069   5.940   5.903 -0.1864 -0.3458  0.3013
 5851SOL     OW23175   3.202   6.305   1.075 -0.5380 -0.5383  0.0384
 5851SOL    HW223176   3.191   6.243   1.003 -2.0037 -0.8059  0.4601
 5851SOL    HW323177   3.128   6.288   1.133  1.4213 -1.4682  2.4958
 5851SOL    MW423178   3.191   6.294   1.074  0.4959 -0.5759  0.4856
 5852SOL     OW23179   0.023   1.944   4.673 -0.1011 -0.2596  0.7021
 5852SOL    HW223180  -0.060   1.944   4.722 -2.1086  0.7284 -2.4374
 5852SOL    HW323181   0.077   2.009   4.718 -2.7588  2.4395  0.3545
 5852SOL    MW423182   0.019   1.952   4.686 -0.1737  0.0766  0.7935
 5853SOL     OW23183   5.587   3.486   2.644  0.2945  0.3840 -0.2229
 5853SOL    HW223184   5.677   3.505   2.669  0.2658 -0.4126  0.5447
 5853SOL    HW323185   5.579   3.391   2.652 -0.9891  0.5580  1.1451
 5853SOL    MW423186   5.597   3.476   2.649  0.2341  0.3882 -0.5073
 5854SOL     OW23187   4.295   0.788   2.054 -0.3967  0.1274  0.8523
 5854SOL    HW223188   4.391   0.781   2.046 -0.6230 -1.8289 -0.8596
 5854SOL    HW323189   4.275   0.877   2.023  0.7763  0.2156  0.2881
 5854SOL    MW423190   4.305   0.799   2.049 -0.2147 -0.4817 -0.3771
 5855SOL     OW23191   1.752   5.915   1.375 -0.1530 -0.0527  0.3803
 5855SOL    HW223192   1.772   5.915   1.282  0.0620  0.6132  0.4194
 5855SOL    HW323193   1.830   5.880   1.417  0.2906  0.9373  0.4051
 5855SOL    MW423194   1.765   5.911   1.368  0.3090  0.0179 -0.3199
 5856SOL     OW23195   1.641   3.830   6.444  0.3411 -0.4302 -0.7235
 5856SOL    HW223196   1.603   3.892   6.382 -1.2391 -0.2827  0.3486
 5856SOL    HW323197   1.634   3.745   6.400  0.5807 -0.1380 -1.3343
 5856SOL    MW423198   1.635   3.827   6.430 -0.4026 -0.0567  0.2830
 5857SOL     OW23199   5.583   5.116   2.021  0.1276  0.5632  0.1883
 5857SOL    HW223200   5.492   5.108   1.991 -0.0203  0.4683  0.6432
 5857SOL    HW323201   5.590   5.205   2.055  0.1018  0.4600  0.4706
 5857SOL    MW423202   5.572   5.126   2.022 -0.1212  0.6856 -0.1308
 5858SOL     OW23203   2.587   2.256   1.136 -0.1540 -0.1985  0.2130
 5858SOL    HW223204   2.649   2.184   1.143  0.0483 -0.0076  0.3946
 5858SOL    HW323205   2.636   2.333   1.165  0.4464  0.4770 -2.3628
 5858SOL    MW423206   2.601   2.257   1.141  0.0050  0.0817  0.1442
 5859SOL     OW23207   5.079   5.527   3.280 -0.1674 -0.0643 -0.2990
 5859SOL    HW223208   5.081   5.550   3.187  2.5508  0.5940 -0.1622
 5859SOL    HW323209   5.064   5.433   3.282 -0.1586 -0.0922 -1.3992
 5859SOL    MW423210   5.077   5.518   3.268  0.5646 -0.1269  0.3306
 5860SOL     OW23211   2.115   3.118   3.161 -0.3121  0.5674 -0.5260
 5860SOL    HW223212   2.041   3.078   3.205  1.4483 -0.9437  1.2728
 5860SOL    HW323213   2.103   3.212   3.173 -0.6991  0.2689  1.9292
 5860SOL    MW423214   2.104   3.125   3.168  0.1187 -0.0356 -0.6039
 5861SOL     OW23215   5.734   6.131   0.354 -0.2221  0.1521 -0.2480
 5861SOL    HW223216   5.647   6.141   0.392  1.1876  2.6231  2.7913
 5861SOL    HW323217   5.759   6.041   0.372 -1.7183 -0.2820 -0.2406
 5861SOL    MW423218   5.726   6.121   0.361 -0.9163 -0.0044  0.4692
 5862SOL     OW23219   3.499   3.802   2.327 -0.0532 -0.9919 -0.0587
 5862SOL    HW223220   3.592   3.824   2.325 -0.2178 -0.1020  1.1262
 5862SOL    HW323221   3.482   3.763   2.241  0.8049  1.3250 -1.3774
 5862SOL    MW423222   3.509   3.800   2.315 -0.1680  0.2898 -0.4637
 5863SOL     OW23223   2.289   0.827   5.195  0.2279 -0.0184 -0.4431
 5863SOL    HW223224   2.287   0.745   5.244  1.6341  0.4427  0.4623
 5863SOL    HW323225   2.213   0.876   5.226 -0.7628 -1.0450 -1.1719
 5863SOL    MW423226   2.279   0.822   5.205  0.0146  0.1113 -0.3928
 5864SOL     OW23227   4.043   5.179   0.735  0.2561 -0.0204 -0.2858
 5864SOL    HW223228   4.131   5.140   0.736  0.4564  0.3457 -1.4007
 5864SOL    HW323229   4.059   5.274   0.731 -0.1374  0.0041 -2.0762
 5864SOL    MW423230   4.057   5.187   0.734 -0.0648 -0.0863  0.1321
 5865SOL     OW23231   3.701   5.674   4.854 -0.0340  0.0694 -0.7309
 5865SOL    HW223232   3.739   5.606   4.799  0.8424 -0.0432 -0.0111
 5865SOL    HW323233   3.686   5.630   4.938 -2.7653 -0.1875 -1.2590
 5865SOL    MW423234   3.704   5.659   4.858  0.6228 -0.0951  0.1390
 5866SOL     OW23235   6.081   1.534   1.321  0.2168  0.1859 -0.2121
 5866SOL    HW223236   6.077   1.538   1.225 -2.1503  0.1252 -0.1832
 5866SOL    HW323237   5.996   1.498   1.347  1.6829 -2.0760  1.8473
 5866SOL    MW423238   6.069   1.530   1.312 -0.3816  0.1013  0.1805
 5867SOL     OW23239   0.720   0.828   0.981 -0.1824  0.0887 -0.3713
 5867SOL    HW223240   0.795   0.883   1.002  0.0601 -0.8877  1.5389
 5867SOL    HW323241   0.661   0.837   1.056 -1.5048  0.0381 -1.3668
 5867SOL    MW423242   0.722   0.836   0.993 -0.1530  0.5494 -0.4509
 5868SOL     OW23243   3.151   3.390   1.003  0.3869  0.0353  0.4692
 5868SOL    HW223244   3.064   3.381   1.043  0.2878  1.6374  0.6914
 5868SOL    HW323245   3.135   3.440   0.923  0.9653 -0.7113 -0.1231
 5868SOL    MW423246   3.137   3.395   0.998 -0.1495 -0.3475 -0.1575
 5869SOL     OW23247   3.968   4.652   1.680 -0.0524  0.6789  1.3513
 5869SOL    HW223248   3.942   4.564   1.655 -0.1589  1.1293 -0.2092
 5869SOL    HW323249   4.064   4.650   1.679 -0.0196  1.1042 -0.8136
 5869SOL    MW423250   3.977   4.640   1.677  0.0752 -0.3019 -0.1342
 5870SOL     OW23251   5.840   5.679   4.170 -0.4143  0.1528  0.0288
 5870SOL    HW223252   5.762   5.725   4.202 -0.3699  0.0711  0.2515
 5870SOL    HW323253   5.860   5.615   4.238 -0.5764 -0.3193 -0.3599
 5870SOL    MW423254   5.832   5.677   4.183 -0.4470 -0.5620  0.1188
 5871SOL     OW23255   4.971   5.979   0.986 -0.3480 -0.3270  0.4621
 5871SOL    HW223256   5.067   5.984   0.991 -0.3472 -0.8443  1.1261
 5871SOL    HW323257   4.940   6.052   1.040 -0.3346  0.2432 -0.2879
 5871SOL    MW423258   4.980   5.989   0.994 -0.3916 -0.0839 -0.1244
 5872SOL     OW23259   4.933   1.435   0.064  0.0215  0.6267  0.0222
 5872SOL    HW223260   4.869   1.364   0.063  0.2794  0.3777  0.6103
 5872SOL    HW323261   4.916   1.481   0.146  0.8833  0.2854  0.4075
 5872SOL    MW423262   4.923   1.432   0.075  0.6214  0.4267 -0.3710
 5873SOL     OW23263   5.179   0.220   1.196 -0.1324 -0.0991  0.1439
 5873SOL    HW223264   5.085   0.227   1.177 -0.0652  2.0792  0.4529
 5873SOL    HW323265   5.184   0.214   1.291  0.0777  0.5271  0.1731
 5873SOL    MW423266   5.167   0.220   1.206 -0.9422 -0.0766 -0.0539
 5874SOL     OW23267   2.723   2.786   5.103 -0.7295  0.7662 -0.1107
 5874SOL    HW223268   2.664   2.750   5.037 -1.0145  2.3657 -0.7667
 5874SOL    HW323269   2.782   2.714   5.123  0.2565  0.5678 -3.1451
 5874SOL    MW423270   2.723   2.772   5.097 -0.0029 -0.3365 -0.0649
 5875SOL     OW23271   4.083   0.054   3.194 -0.0077 -0.0144 -0.4374
 5875SOL    HW223272   4.119  -0.025   3.235 -1.5517 -0.6313 -0.2163
 5875SOL    HW323273   4.123   0.126   3.243  0.1634 -0.6994  0.4585
 5875SOL    MW423274   4.093   0.053   3.206  0.1114 -0.1618 -0.0730
 5876SOL     OW23275   0.209   6.306   1.008 -0.4828  0.0024 -0.3952
 5876SOL    HW223276   0.223   6.213   1.024 -1.0335 -0.0417 -0.1698
 5876SOL    HW323277   0.258   6.324   0.927  2.3788  0.2530  1.2736
 5876SOL    MW423278   0.217   6.296   0.999 -0.0669  0.4895  0.0586
 5877SOL     OW23279   3.387   5.218   3.333 -0.1917  0.5029  0.5370
 5877SOL    HW223280   3.435   5.298   3.354  1.6603  0.0600 -1.5424
 5877SOL    HW323281   3.329   5.242   3.261 -0.2074  0.1760  0.4359
 5877SOL    MW423282   3.386   5.232   3.326 -0.0804 -0.0277 -0.2742
 5878SOL     OW23283   4.295   6.314   3.494  0.2652  0.6095 -0.1868
 5878SOL    HW223284   4.281   6.228   3.533  1.1102  1.1692  1.4359
 5878SOL    HW323285   4.332   6.295   3.408  2.4748 -0.6787  0.9548
 5878SOL    MW423286   4.298   6.300   3.488  0.0101  0.1619 -0.2743
 5879SOL     OW23287   0.260   5.303   5.156 -0.4570  0.0357  0.5796
 5879SOL    HW223288   0.193   5.341   5.099  0.7211  0.7741 -0.3787
 5879SOL    HW323289   0.235   5.211   5.163 -1.0118  0.0690 -0.6133
 5879SOL    MW423290   0.248   5.296   5.149  0.1215 -0.2896 -0.1548
 5880SOL     OW23291   1.008   1.392   4.128  0.0460 -0.0894  0.1047
 5880SOL    HW223292   0.995   1.449   4.203 -0.7303 -1.0026  0.6904
 5880SOL    HW323293   1.101   1.402   4.107 -0.3926  2.6298 -0.8863
 5880SOL    MW423294   1.019   1.401   4.135 -0.0615 -0.1913  0.0306
 5881SOL     OW23295   2.662   5.078   4.565  0.7053  0.6185 -0.3662
 5881SOL    HW223296   2.721   5.067   4.491 -0.9369 -2.0842 -1.4154
 5881SOL    HW323297   2.586   5.024   4.544  0.2707 -0.5537  3.4075
 5881SOL    MW423298   2.660   5.070   4.552  0.1072 -0.2678  0.3358
 5882SOL     OW23299   1.173   0.631   5.149 -0.5683  0.0630 -0.4882
 5882SOL    HW223300   1.179   0.702   5.085 -0.7011  1.7847  1.3102
 5882SOL    HW323301   1.263   0.607   5.166 -0.3686  1.3210  0.4292
 5882SOL    MW423302   1.185   0.638   5.142 -0.1342 -0.2251  0.5133
 5883SOL     OW23303   0.289   2.210   0.388  0.4740  0.1873 -0.2279
 5883SOL    HW223304   0.224   2.143   0.411  0.1660  0.1522 -1.1556
 5883SOL    HW323305   0.370   2.162   0.374  0.0243 -0.1416 -1.8738
 5883SOL    MW423306   0.291   2.195   0.389  0.4532 -0.2245 -0.0050
 5884SOL     OW23307   5.721   1.520   2.323  0.1810  0.2742  0.8175
 5884SOL    HW223308   5.727   1.515   2.418 -0.0771 -1.2718  0.7831
 5884SOL    HW323309   5.652   1.584   2.307 -1.7001 -1.3863  1.7761
 5884SOL    MW423310   5.713   1.528   2.333  0.6372  0.4266 -0.1071
 5885SOL     OW23311   4.441   0.233   3.282 -0.2137 -0.1020  0.2295
 5885SOL    HW223312   4.508   0.302   3.281 -0.5003  0.1779  0.3872
 5885SOL    HW323313   4.450   0.189   3.198 -1.5685  1.5908 -0.8573
 5885SOL    MW423314   4.451   0.236   3.271 -0.3266  0.0379  0.4251
 5886SOL     OW23315   3.534   4.534   5.339 -0.0818  0.5422  0.7767
 5886SOL    HW223316   3.457   4.584   5.366 -2.8173 -1.8491 -1.8858
 5886SOL    HW323317   3.539   4.462   5.401 -0.6962  0.1294  0.3628
 5886SOL    MW423318   3.525   4.531   5.351  0.0438  0.5082 -0.4694
 5887SOL     OW23319   6.108   0.022   2.769 -0.1681  0.3420  0.2714
 5887SOL    HW223320   6.025   0.019   2.818 -0.0311 -1.5876  0.4972
 5887SOL    HW323321   6.174  -0.005   2.833  0.6564  1.8430  0.0870
 5887SOL    MW423322   6.106   0.018   2.784  0.4878 -0.2947 -0.1659
 5888SOL     OW23323   0.428   1.396   1.916 -0.3570  0.1913 -0.0968
 5888SOL    HW223324   0.467   1.396   2.004  2.4543 -0.0272 -1.2434
 5888SOL    HW323325   0.486   1.452   1.865 -0.1026 -2.1131 -2.5334
 5888SOL    MW423326   0.441   1.404   1.921  0.0866 -0.1960 -0.0838
 5889SOL     OW23327   6.267   0.345   5.665 -0.9629  0.2679  0.0281
 5889SOL    HW223328   6.275   0.426   5.616  1.0673  0.5209  0.6536
 5889SOL    HW323329   6.193   0.299   5.625 -2.0894  2.3496 -0.4027
 5889SOL    MW423330   6.259   0.349   5.653  0.6063 -0.3088  0.0258
 5890SOL     OW23331   5.530   1.147   1.667 -0.2707  0.4031  0.8372
 5890SOL    HW223332   5.586   1.196   1.727 -0.0170 -0.0221  0.9527
 5890SOL    HW323333   5.587   1.081   1.629 -0.6281  0.1372  0.7504
 5890SOL    MW423334   5.545   1.145   1.670 -0.4148 -0.7237 -0.7772
 5891SOL     OW23335   1.429   3.623   1.519 -0.3098  0.8007 -0.4646
 5891SOL    HW223336   1.362   3.559   1.544 -0.7257  0.3680 -2.5185
 5891SOL    HW323337   1.380   3.703   1.501 -0.5752  0.1012 -3.3707
 5891SOL    MW423338   1.414   3.625   1.520 -0.6407 -0.0182 -0.8643
 5892SOL     OW23339   2.653   2.379   4.910  0.3691  0.4618  0.2245
 5892SOL    HW223340   2.710   2.358   4.836 -3.4140  1.6203 -3.4293
 5892SOL    HW323341   2.609   2.296   4.930  0.5982  0.3948  0.4632
 5892SOL    MW423342   2.655   2.365   4.903  0.4836 -0.4390  0.7580
 5893SOL     OW23343   1.706   3.925   0.487  0.6981  0.3166  0.2020
 5893SOL    HW223344   1.746   3.840   0.468  0.6347  0.7021 -1.8846
 5893SOL    HW323345   1.773   3.989   0.462 -0.7000  0.9360 -2.3334
 5893SOL    MW423346   1.720   3.922   0.481 -0.1553  0.0358 -0.2000
 5894SOL     OW23347   2.302   0.105   5.608  0.2627 -1.0071 -0.0453
 5894SOL    HW223348   2.326   0.129   5.697  0.0827  0.6644 -0.4197
 5894SOL    HW323349   2.211   0.077   5.615 -0.7197  1.8714 -0.0901
 5894SOL    MW423350   2.293   0.104   5.621 -0.4530 -0.2362  0.2223
 5895SOL     OW23351   1.370   5.090   5.226 -0.6162  0.3171 -0.4490
 5895SOL    HW223352   1.342   4.998   5.219  0.6379 -0.0525 -0.8030
 5895SOL    HW323353   1.395   5.115   5.137 -0.8866  0.9960 -0.3421
 5895SOL    MW423354   1.370   5.081   5.214  0.1310  0.5433  0.5040
 5896SOL     OW23355   3.896   5.647   4.272 -0.1424  0.6473 -0.1247
 5896SOL    HW223356   3.956   5.601   4.331 -1.9306  1.5626  2.6350
 5896SOL    HW323357   3.845   5.577   4.231 -1.4926 -0.0487  2.5049
 5896SOL    MW423358   3.897   5.631   4.274  0.1729 -0.1630 -0.3739
 5897SOL     OW23359   5.807   2.280   5.462 -0.3657  0.6197  0.2743
 5897SOL    HW223360   5.870   2.234   5.406  0.7540  0.8851  1.2649
 5897SOL    HW323361   5.821   2.242   5.549  1.0822  3.2281  1.2902
 5897SOL    MW423362   5.817   2.269   5.466 -0.2093 -0.5218 -0.1198
 5898SOL     OW23363   1.139   6.415   5.739  0.3810  0.0696  0.4185
 5898SOL    HW223364   1.109   6.331   5.702  1.5851  0.2063 -0.9439
 5898SOL    HW323365   1.194   6.453   5.671  0.4023  1.6799  1.2835
 5898SOL    MW423366   1.142   6.409   5.725 -0.3507  0.3822 -0.3659
 5899SOL     OW23367   3.625   1.128   4.820  0.1818  0.2790  0.3418
 5899SOL    HW223368   3.597   1.037   4.834  1.8787  0.0723  2.9100
 5899SOL    HW323369   3.711   1.120   4.778  0.2328  0.7010  0.3686
 5899SOL    MW423370   3.633   1.115   4.816  0.3655  0.0554 -0.0384
 5900SOL     OW23371   6.431   0.070   4.937  0.2349 -0.3550 -0.2744
 5900SOL    HW223372   6.457   0.096   4.848  0.4924  1.5032  0.3034
 5900SOL    HW323373   6.514   0.047   4.980  0.2897  0.1232 -0.1125
 5900SOL    MW423374   6.446   0.071   4.931  0.2603 -0.2159  0.3157
 5901SOL     OW23375   5.688   0.144   1.446 -0.0042 -0.1250 -0.0565
 5901SOL    HW223376   5.697   0.132   1.541 -0.7005 -0.7469 -0.0566
 5901SOL    HW323377   5.595   0.128   1.429  0.0176  0.4747 -0.7787
 5901SOL    MW423378   5.677   0.140   1.457  0.1401  0.2993  0.0588
 5902SOL     OW23379   1.568   1.959   0.752  0.0637 -0.2567 -0.0147
 5902SOL    HW223380   1.559   1.922   0.840  1.0625  1.3812  0.8210
 5902SOL    HW323381   1.661   1.949   0.732  0.2629  1.3092  0.0358
 5902SOL    MW423382   1.579   1.953   0.761  0.3525  0.1103  0.1578
 5903SOL     OW23383   0.202   4.998   4.249  0.2839 -0.5135 -0.4708
 5903SOL    HW223384   0.180   5.006   4.156  0.1497 -0.3326 -0.4235
 5903SOL    HW323385   0.162   4.915   4.275 -0.5801 -0.0610 -0.3226
 5903SOL    MW423386   0.194   4.988   4.240  0.3107 -0.0455  0.0325
 5904SOL     OW23387   5.657   1.112   4.927  0.3844 -0.0334 -0.6585
 5904SOL    HW223388   5.613   1.191   4.897 -0.0273  0.8303  1.9481
 5904SOL    HW323389   5.585   1.055   4.958  0.8273 -0.2316  0.0383
 5904SOL    MW423390   5.641   1.115   4.927 -0.2189 -0.8554  0.1789
 5905SOL     OW23391   2.677   2.312   1.773 -0.1526  0.0717 -0.6449
 5905SOL    HW223392   2.685   2.220   1.796  1.4226  0.0778 -1.0132
 5905SOL    HW323393   2.593   2.319   1.729  0.0217 -1.3450 -1.2606
 5905SOL    MW423394   2.667   2.301   1.771 -0.2088  0.1451 -0.1608
 5906SOL     OW23395   1.027   2.388   1.625  0.4299  0.0149  0.0095
 5906SOL    HW223396   0.943   2.344   1.613  1.3283 -1.5924 -0.7319
 5906SOL    HW323397   1.089   2.333   1.578  1.8626  1.3203  0.3087
 5906SOL    MW423398   1.024   2.375   1.617  0.7303 -0.3466  0.1312
 5907SOL     OW23399   5.403   1.943   0.892 -0.2764 -0.5396 -0.0959
 5907SOL    HW223400   5.493   1.910   0.888 -0.1478 -0.1722 -0.2935
 5907SOL    HW323401   5.410   2.035   0.865 -0.8824 -0.8434 -1.3986
 5907SOL    MW423402   5.416   1.951   0.888  0.1367 -0.0078 -0.0540
 5908SOL     OW23403   2.957   6.040   3.711  0.4496  0.2294  0.5287
 5908SOL    HW223404   3.012   5.991   3.649  0.6487 -0.8541  1.5320
 5908SOL    HW323405   2.921   5.974   3.770 -0.9229  1.0686  0.6900
 5908SOL    MW423406   2.960   6.025   3.711 -0.0052 -0.4836  0.4443
 5909SOL     OW23407   5.042   3.503   4.619 -0.0794  0.3493 -0.7602
 5909SOL    HW223408   4.978   3.511   4.549 -0.5774 -0.9547 -0.4841
 5909SOL    HW323409   5.009   3.432   4.674 -0.1326  1.8367  1.2623
 5909SOL    MW423410   5.029   3.495   4.617  0.0798 -0.3291 -0.1552
 5910SOL     OW23411   5.370   5.912   3.552 -0.8189  0.3105 -0.2862
 5910SOL    HW223412   5.358   5.959   3.635  0.2228 -0.3740  0.2734
 5910SOL    HW323413   5.343   5.974   3.485 -2.0903  0.7420  0.5754
 5910SOL    MW423414   5.365   5.926   3.554  0.1582 -0.7705  0.3202
 5911SOL     OW23415   4.223   2.070   6.073  0.0175  0.2699 -0.1620
 5911SOL    HW223416   4.214   2.049   6.166 -0.8835 -1.4327 -0.5797
 5911SOL    HW323417   4.208   2.164   6.068  0.8045  0.5179  1.4877
 5911SOL    MW423418   4.219   2.080   6.085  0.7184 -0.0669 -0.3843
 5912SOL     OW23419   0.424   0.737   5.309  0.3672  0.5450 -0.0307
 5912SOL    HW223420   0.367   0.752   5.384  0.8820 -0.4897  0.5881
 5912SOL    HW323421   0.511   0.764   5.339  0.9052 -1.4613  0.3799
 5912SOL    MW423422   0.428   0.742   5.323  0.4826 -0.0009  0.3003
 5913SOL     OW23423   1.523   1.104   2.167  0.2290 -0.5178 -0.2056
 5913SOL    HW223424   1.473   1.166   2.219  1.3568 -0.2785  0.6456
 5913SOL    HW323425   1.588   1.158   2.122  0.4137 -0.9379 -0.4516
 5913SOL    MW423426   1.525   1.120   2.168  0.2234  0.1760 -0.5332
 5914SOL     OW23427   5.940   3.160   6.435 -0.0814  0.0635  0.3125
 5914SOL    HW223428   5.987   3.078   6.421 -1.5564 -0.5192 -1.6383
 5914SOL    HW323429   5.848   3.138   6.423 -0.4183  2.3785 -2.6425
 5914SOL    MW423430   5.934   3.147   6.432 -0.6570  0.0670  0.0267
 5915SOL     OW23431   3.552   4.168   2.537  0.0665 -0.4039 -0.9810
 5915SOL    HW223432   3.506   4.084   2.540 -1.2461  0.3099 -0.5711
 5915SOL    HW323433   3.511   4.221   2.606  0.5091  0.7613 -1.5796
 5915SOL    MW423434   3.541   4.164   2.547 -0.0416  0.4331  0.6607
 5916SOL     OW23435   5.430   0.324   1.400 -0.5110 -0.2544  0.3234
 5916SOL    HW223436   5.429   0.231   1.379 -0.0062 -0.0726 -0.5525
 5916SOL    HW323437   5.484   0.364   1.331 -2.6016  1.0015 -0.6932
 5916SOL    MW423438   5.437   0.317   1.388 -0.0957 -0.1530 -0.1487
 5917SOL     OW23439   5.057   2.612   1.410  0.1901  0.6266  1.0119
 5917SOL    HW223440   5.144   2.621   1.371  0.8931 -0.1918  2.3041
 5917SOL    HW323441   5.030   2.701   1.431 -0.4739  1.1603 -1.7661
 5917SOL    MW423442   5.065   2.625   1.408  0.0360 -0.4079 -0.1254
 5918SOL     OW23443   0.323   5.476   1.442 -0.3562 -0.0993 -0.5459
 5918SOL    HW223444   0.407   5.436   1.422 -0.1124  0.7154 -1.2170
 5918SOL    HW323445   0.273   5.471   1.361 -0.4930  0.5153 -0.5080
 5918SOL    MW423446   0.327   5.470   1.429  0.8786 -0.8881  0.1595
 5919SOL     OW23447   1.648   4.884   5.075  0.2264  0.7114 -0.2139
 5919SOL    HW223448   1.633   4.813   5.138 -0.9820  1.0741 -0.0668
 5919SOL    HW323449   1.728   4.926   5.105  0.4796 -0.0405  0.2102
 5919SOL    MW423450   1.656   4.880   5.087  0.6604 -0.3257 -0.5748
 5920SOL     OW23451   5.541   3.472   0.281 -0.1359  0.5470  0.2109
 5920SOL    HW223452   5.628   3.493   0.315 -0.3048 -0.0334  1.0244
 5920SOL    HW323453   5.548   3.489   0.187  0.7191  0.9438  0.3339
 5920SOL    MW423454   5.553   3.477   0.273 -0.6354 -0.0494  0.0049
 5921SOL     OW23455   5.529   1.013   1.315 -0.6316  0.1816  0.1167
 5921SOL    HW223456   5.462   1.058   1.368 -0.0973 -0.1455  1.0830
 5921SOL    HW323457   5.566   1.083   1.261  0.3702  1.0142  1.7902
 5921SOL    MW423458   5.525   1.028   1.315  0.1602  0.4240  0.1774
 5922SOL     OW23459   1.403   3.096   6.284  0.4212 -0.4876 -0.5138
 5922SOL    HW223460   1.315   3.074   6.256 -0.0666  1.3103 -0.4797
 5922SOL    HW323461   1.432   3.165   6.224  1.1007  0.2139  0.5601
 5922SOL    MW423462   1.395   3.102   6.273 -1.5946 -0.1035 -0.3577
 5923SOL     OW23463   1.200   2.332   0.608  0.1016 -0.6580 -0.8997
 5923SOL    HW223464   1.140   2.368   0.543  0.6776  1.6311 -0.2703
 5923SOL    HW323465   1.157   2.254   0.641 -2.8056  1.1353 -0.1036
 5923SOL    MW423466   1.187   2.326   0.604  0.0546  0.0447  0.3231
 5924SOL     OW23467   1.300   1.963   5.097 -0.5060  0.2659 -0.0925
 5924SOL    HW223468   1.317   2.010   5.178 -0.9207  0.2360  0.0152
 5924SOL    HW323469   1.237   2.018   5.050 -1.3191 -0.3714  0.2207
 5924SOL    MW423470   1.294   1.976   5.101  0.0932  0.3778  0.3304
 5925SOL     OW23471   5.564   1.881   3.427  0.4343  0.3115  0.2710
 5925SOL    HW223472   5.539   1.790   3.445  2.1345 -0.4600 -1.0481
 5925SOL    HW323473   5.657   1.885   3.449  0.8435  1.2059 -1.4950
 5925SOL    MW423474   5.573   1.869   3.432  0.3262 -0.1180  0.2199
 5926SOL     OW23475   3.035   4.889   0.549  0.0845 -0.2000 -0.5850
 5926SOL    HW223476   3.043   4.793   0.549  0.7386 -0.1444 -0.6170
 5926SOL    HW323477   2.945   4.905   0.520 -0.2929 -0.8255  0.1978
 5926SOL    MW423478   3.024   4.878   0.545  0.2955 -0.8627 -0.3519
 5927SOL     OW23479   0.180   0.757   2.942 -0.2698  0.3009  0.4533
 5927SOL    HW223480   0.236   0.693   2.897 -2.2916 -0.6007 -0.9234
 5927SOL    HW323481   0.153   0.817   2.872 -2.2588 -0.2296  0.7170
 5927SOL    MW423482   0.184   0.757   2.927 -0.1141  0.0181  0.5551
 5928SOL     OW23483   2.803   3.622   5.641 -0.4558 -0.3035 -0.3052
 5928SOL    HW223484   2.864   3.692   5.663 -0.4066 -0.5132  0.2507
 5928SOL    HW323485   2.755   3.606   5.722 -0.6617 -0.7229 -0.5062
 5928SOL    MW423486   2.805   3.629   5.655 -0.1916  0.1714 -0.1693
 5929SOL     OW23487   1.285   0.160   1.781  0.1965  0.0411  0.1393
 5929SOL    HW223488   1.244   0.074   1.768 -1.3503  0.5846  1.0831
 5929SOL    HW323489   1.260   0.185   1.870  1.6697  0.9416  0.3362
 5929SOL    MW423490   1.276   0.152   1.791  0.3994  0.1803  0.4305
 5930SOL     OW23491   0.763   1.669   0.322 -0.3292  0.0888 -0.4792
 5930SOL    HW223492   0.709   1.743   0.351 -1.4472 -0.0066 -2.1856
 5930SOL    HW323493   0.730   1.649   0.234  3.2697  0.8320 -2.1915
 5930SOL    MW423494   0.752   1.676   0.314 -0.5053 -0.0863 -0.2225
 5931SOL     OW23495   2.527   3.399   2.638 -0.1572  0.7629 -0.0774
 5931SOL    HW223496   2.578   3.474   2.669 -2.2998  2.3174 -0.1063
 5931SOL    HW323497   2.445   3.404   2.687 -0.6852 -1.1049 -0.6841
 5931SOL    MW423498   2.523   3.410   2.649  0.1935  0.1193  0.6759
 5932SOL     OW23499   6.101   4.108   3.693  0.0529 -0.6422 -1.0038
 5932SOL    HW223500   6.080   4.146   3.608 -1.8672  0.1537 -0.2452
 5932SOL    HW323501   6.025   4.054   3.715  0.6054 -1.0173  0.1026
 5932SOL    MW423502   6.088   4.106   3.685  0.3078  0.7556  0.0175
 5933SOL     OW23503   5.203   3.803   2.527  0.2865  0.0206  0.2107
 5933SOL    HW223504   5.189   3.856   2.448 -1.0684 -1.0262 -0.2937
 5933SOL    HW323505   5.294   3.774   2.521  0.8172  1.5881  0.0970
 5933SOL    MW423506   5.213   3.806   2.516  0.4084 -0.0461 -0.3258
 5934SOL     OW23507   0.883   3.562   0.087  0.0992  0.1819  0.1025
 5934SOL    HW223508   0.809   3.501   0.082  0.1531  0.1502 -0.3607
 5934SOL    HW323509   0.851   3.642   0.043 -0.3678  0.9062  1.6981
 5934SOL    MW423510   0.869   3.565   0.080  0.4616  0.1977 -0.1926
 5935SOL     OW23511   5.106   0.754   1.589 -0.4155 -0.2302 -0.2768
 5935SOL    HW223512   5.024   0.705   1.589  0.8157 -2.4253 -0.7901
 5935SOL    HW323513   5.152   0.726   1.668 -0.3599  1.4039  0.3078
 5935SOL    MW423514   5.101   0.744   1.599 -0.1751  0.0744 -0.5039
 5936SOL     OW23515   4.490   4.961   5.080 -0.2937  0.6263  0.5891
 5936SOL    HW223516   4.545   4.892   5.045  1.3799  1.6863  0.9987
 5936SOL    HW323517   4.411   4.959   5.026  0.3844 -0.5724 -0.3987
 5936SOL    MW423518   4.487   4.952   5.069 -0.0701 -0.3881 -0.0325
 5937SOL     OW23519   2.337   2.709   4.116  0.4131 -0.8421 -0.1160
 5937SOL    HW223520   2.416   2.750   4.080 -0.5221 -0.7764 -2.2727
 5937SOL    HW323521   2.311   2.645   4.050 -3.5775  1.9196 -1.6248
 5937SOL    MW423522   2.344   2.706   4.103 -0.5627  0.2425  0.7747
 5938SOL     OW23523   5.005   4.357   0.590 -0.0156 -0.1819 -0.0957
 5938SOL    HW223524   4.993   4.302   0.512  0.5161  0.2451 -0.4847
 5938SOL    HW323525   5.047   4.299   0.653 -2.1418 -1.0922  0.5665
 5938SOL    MW423526   5.009   4.342   0.588 -0.2501  0.2723  0.2027
 5939SOL     OW23527   0.956   6.346   3.659  0.4163  0.3975  0.2789
 5939SOL    HW223528   1.042   6.330   3.696  0.7157  2.3603  0.5576
 5939SOL    HW323529   0.960   6.436   3.627 -1.2727  0.2571 -0.4532
 5939SOL    MW423530   0.968   6.356   3.660 -0.8772  0.3385  0.0378
 5940SOL     OW23531   4.793   2.555   6.234  0.3403  0.1327 -0.2879
 5940SOL    HW223532   4.746   2.506   6.166  1.3951  0.8208 -1.5861
 5940SOL    HW323533   4.724   2.593   6.288 -0.5147 -1.4932 -0.1782
 5940SOL    MW423534   4.778   2.553   6.232 -0.6145 -0.1374 -0.9098
 5941SOL     OW23535   1.834   0.218   6.236 -1.3774  0.0931 -1.0184
 5941SOL    HW223536   1.741   0.239   6.232 -1.2659  0.5700 -1.3621
 5941SOL    HW323537   1.873   0.292   6.283 -0.9649  0.7193 -2.2962
 5941SOL    MW423538   1.827   0.231   6.241 -0.6581  0.0331  0.3194
 5942SOL     OW23539   0.776   6.254   6.322 -0.3770 -0.0736  0.2251
 5942SOL    HW223540   0.689   6.216   6.334 -0.4315 -0.7731 -1.9460
 5942SOL    HW323541   0.835   6.179   6.324 -0.0109  0.2119  0.0428
 5942SOL    MW423542   0.772   6.239   6.324  0.5597 -0.0623  0.2470
 5943SOL     OW23543   2.022   0.016   5.599 -0.2929  0.0961  0.0611
 5943SOL    HW223544   1.933  -0.011   5.623  1.3683 -3.5178  3.0409
 5943SOL    HW323545   2.033  -0.016   5.509 -1.2173 -1.7834  0.5676
 5943SOL    MW423546   2.012   0.008   5.590 -0.0832  0.1304 -0.1225
 5944SOL     OW23547   0.585   2.612   1.786 -0.5902 -1.0185  0.3038
 5944SOL    HW223548   0.541   2.697   1.783 -1.5612 -1.5268 -0.7151
 5944SOL    HW323549   0.516   2.549   1.763  0.0548 -2.1035  1.2560
 5944SOL    MW423550   0.570   2.615   1.782 -0.0524  0.2037 -0.1415
 5945SOL     OW23551   2.659   2.633   4.632  0.2679  0.4810 -0.2168
 5945SOL    HW223552   2.753   2.640   4.649  0.1461  0.4968  0.4827
 5945SOL    HW323553   2.618   2.647   4.718 -0.3685  0.4086 -0.5048
 5945SOL    MW423554   2.666   2.636   4.646 -0.0808  0.3363  0.6725
 5946SOL     OW23555   0.060   1.474   3.463  0.4428 -0.5050 -0.1462
 5946SOL    HW223556  -0.010   1.537   3.477  0.9796  0.2981 -0.9252
 5946SOL    HW323557   0.085   1.446   3.551  1.2150  1.5400  0.3655
 5946SOL    MW423558   0.054   1.479   3.476  0.5804 -0.7712 -0.2384
 5947SOL     OW23559   5.438   0.535   3.373 -0.4808 -0.0095  0.4796
 5947SOL    HW223560   5.496   0.500   3.441  1.2281 -1.2765 -1.4658
 5947SOL    HW323561   5.454   0.629   3.374  0.0644 -0.0966  1.3254
 5947SOL    MW423562   5.448   0.543   3.382  0.2307  0.3673  0.6168
 5948SOL     OW23563   5.461   6.137   0.957 -0.1234 -0.2591 -0.4963
 5948SOL    HW223564   5.535   6.101   1.005 -1.1996 -1.4976  0.2925
 5948SOL    HW323565   5.499   6.169   0.875  1.8808  2.5218  1.3066
 5948SOL    MW423566   5.476   6.137   0.952  0.4175 -0.3754  0.0576
 5949SOL     OW23567   2.353   5.764   0.515 -0.0702 -0.3691 -0.4177
 5949SOL    HW223568   2.269   5.807   0.496  0.3545  0.7419  0.1882
 5949SOL    HW323569   2.393   5.818   0.582  0.9020 -1.2045 -0.3122
 5949SOL    MW423570   2.347   5.777   0.521  0.6137  0.3344  0.1444
 5950SOL     OW23571   6.259   0.228   2.417 -0.6939  0.0062 -0.6658
 5950SOL    HW223572   6.238   0.167   2.347 -2.3420  0.6173 -0.7486
 5950SOL    HW323573   6.355   0.230   2.419 -0.6126 -0.8984 -2.1114
 5950SOL    MW423574   6.269   0.220   2.408  0.2388 -0.2647  0.5763
 5951SOL     OW23575   2.395   4.756   5.284 -0.0976  0.8783  0.0012
 5951SOL    HW223576   2.402   4.723   5.194 -1.4689  1.8910 -0.4987
 5951SOL    HW323577   2.486   4.771   5.310  0.3009  3.7448 -2.4591
 5951SOL    MW423578   2.408   4.754   5.275 -0.2484  0.2329 -0.0268
 5952SOL     OW23579   6.272   3.892   0.682 -0.3631 -0.2112  0.0569
 5952SOL    HW223580   6.229   3.977   0.686 -1.1896 -0.6201  0.0459
 5952SOL    HW323581   6.255   3.860   0.593  1.0431  0.1602 -0.3760
 5952SOL    MW423582   6.264   3.899   0.671 -0.6314 -0.0947  0.2287
 5953SOL     OW23583   2.745   0.609   0.216 -0.3542  0.2395 -0.1097
 5953SOL    HW223584   2.684   0.600   0.143 -1.0264 -0.2099  0.4941
 5953SOL    HW323585   2.753   0.704   0.228 -1.2912  0.3012  0.0869
 5953SOL    MW423586   2.738   0.621   0.208  0.4069  0.2592 -0.2518
 5954SOL     OW23587   0.860   1.131   1.891 -0.0911  0.1541  0.5018
 5954SOL    HW223588   0.805   1.143   1.968 -0.7883 -0.1041  0.0530
 5954SOL    HW323589   0.831   1.199   1.830  0.3090  0.2191  0.3824
 5954SOL    MW423590   0.849   1.141   1.893 -0.5366  0.0785  0.0449
 5955SOL     OW23591   3.807   2.636   5.668  0.2453  0.3806  1.0155
 5955SOL    HW223592   3.832   2.622   5.577  1.4309  1.9501  1.0496
 5955SOL    HW323593   3.759   2.557   5.692  2.2793 -1.3207 -0.1278
 5955SOL    MW423594   3.804   2.624   5.659  0.2932 -0.2316 -0.0729
 5956SOL     OW23595   0.459   1.937   3.469 -0.3336  0.2167  0.1890
 5956SOL    HW223596   0.440   1.844   3.473 -0.6243  0.2635 -0.0810
 5956SOL    HW323597   0.551   1.944   3.494 -0.5072 -0.0700  0.9322
 5956SOL    MW423598   0.469   1.926   3.473  0.5710 -0.0233 -0.9069
 5957SOL     OW23599   3.495   3.492   2.900  0.2410  0.2965  0.5183
 5957SOL    HW223600   3.495   3.494   2.995  1.0753 -0.2742  0.5435
 5957SOL    HW323601   3.405   3.514   2.875 -0.0888  0.0322  1.4469
 5957SOL    MW423602   3.483   3.495   2.909  0.2903  0.4690 -0.6048
 5958SOL     OW23603   6.318   2.258   4.754  0.4323 -0.4111  0.6065
 5958SOL    HW223604   6.275   2.308   4.823 -0.4585 -0.6151  0.2122
 5958SOL    HW323605   6.332   2.171   4.793 -0.7215 -0.7490  0.3143
 5958SOL    MW423606   6.314   2.253   4.768 -0.2755 -0.0206 -0.2036
 5959SOL     OW23607   0.372   2.182   1.711  0.2713 -0.2763  0.0735
 5959SOL    HW223608   0.442   2.117   1.700 -0.3468 -0.6431 -2.3500
 5959SOL    HW323609   0.297   2.131   1.741 -0.3548 -0.9080 -2.2880
 5959SOL    MW423610   0.371   2.167   1.713  0.3756 -0.0741  0.5679
 5960SOL     OW23611   0.910   0.254   0.470  0.7340  0.1472  0.9776
 5960SOL    HW223612   0.993   0.232   0.427  0.2183  1.0556 -0.5703
 5960SOL    HW323613   0.846   0.253   0.399 -0.1098  1.9396  1.6563
 5960SOL    MW423614   0.913   0.251   0.455  0.4464 -0.3638 -0.0219
 5961SOL     OW23615   3.418   4.510   4.441 -0.1372 -0.2206  0.3669
 5961SOL    HW223616   3.345   4.525   4.501 -1.4159  0.2626 -1.2522
 5961SOL    HW323617   3.445   4.597   4.413 -0.1714 -0.4678 -0.4593
 5961SOL    MW423618   3.412   4.523   4.446 -0.3354 -1.1691  0.0189
 5962SOL     OW23619   5.129   2.659   4.176  0.0783 -0.1082  0.5314
 5962SOL    HW223620   5.053   2.610   4.206 -1.7385  0.0370 -3.2245
 5962SOL    HW323621   5.094   2.743   4.146  2.4231  1.7053  2.3858
 5962SOL    MW423622   5.115   2.664   4.176 -0.3880  0.5373  0.3635
 5963SOL     OW23623   1.713   2.274   1.191  0.3998  0.0909 -0.6252
 5963SOL    HW223624   1.724   2.280   1.286 -2.1752 -1.1959 -0.1491
 5963SOL    HW323625   1.796   2.241   1.159  1.1344 -0.0237  1.2589
 5963SOL    MW423626   1.725   2.271   1.199 -0.4670 -0.6745 -0.0243
 5964SOL     OW23627   2.336   0.828   5.864  0.1339  0.8027 -0.1068
 5964SOL    HW223628   2.342   0.785   5.949 -0.1211  1.7892  0.4199
 5964SOL    HW323629   2.264   0.890   5.873  0.8369  1.7291 -0.6692
 5964SOL    MW423630   2.328   0.830   5.876  0.0689 -0.0477  0.0485
 5965SOL     OW23631   0.732   0.903   0.287  0.0798  0.4072 -0.0531
 5965SOL    HW223632   0.667   0.893   0.356 -0.9487  2.4777 -0.6441
 5965SOL    HW323633   0.711   0.833   0.224 -0.8433  0.3288  0.3205
 5965SOL    MW423634   0.721   0.892   0.288  0.4872 -0.0820 -0.4484
 5966SOL     OW23635   3.712   2.475   2.061 -0.1209 -0.2409 -0.2236
 5966SOL    HW223636   3.693   2.384   2.086  0.1510  0.0052  0.9550
 5966SOL    HW323637   3.634   2.502   2.013  0.6317 -1.7168 -2.4310
 5966SOL    MW423638   3.699   2.466   2.058 -0.1536  0.0520 -0.4978
 5967SOL     OW23639   3.786   0.131   4.687 -0.0967 -0.2272 -0.0054
 5967SOL    HW223640   3.735   0.198   4.733  0.0881 -0.5757  0.7203
 5967SOL    HW323641   3.772   0.150   4.594 -1.1646 -0.0335  0.1821
 5967SOL    MW423642   3.777   0.143   4.680 -0.1766  0.1902 -0.0656
 5968SOL     OW23643   0.273   3.613   5.637  0.1491 -0.1617  0.5174
 5968SOL    HW223644   0.286   3.682   5.572 -0.2694  0.8931  1.4982
 5968SOL    HW323645   0.199   3.644   5.690 -1.8421 -2.6233 -0.5999
 5968SOL    MW423646   0.265   3.627   5.636  0.1624  0.1722 -0.2778
 5969SOL     OW23647   0.810   0.248   3.410 -0.0298  0.5660 -0.3853
 5969SOL    HW223648   0.821   0.183   3.340  1.0882  1.1602 -0.7909
 5969SOL    HW323649   0.784   0.328   3.364 -3.1623  0.0510  0.2605
 5969SOL    MW423650   0.808   0.250   3.395  0.3842  0.9876 -0.2163
 5970SOL     OW23651   0.976   3.503   3.702 -0.3695 -0.2612 -0.2124
 5970SOL    HW223652   0.950   3.542   3.618  1.4359  0.5793 -0.4378
 5970SOL    HW323653   0.943   3.565   3.768 -0.0551  0.1329 -0.4184
 5970SOL    MW423654   0.968   3.516   3.700  1.0009  0.0482 -0.2264
 5971SOL     OW23655   6.309   0.389   4.892  0.3030 -0.7172  0.0487
 5971SOL    HW223656   6.315   0.341   4.809 -1.5541 -0.8747 -0.0289
 5971SOL    HW323657   6.394   0.432   4.900  1.9609 -3.6378 -0.1029
 5971SOL    MW423658   6.321   0.388   4.882 -0.7407 -0.1172 -0.4312
 5972SOL     OW23659   5.154   3.201   5.066  0.5184 -0.0216  0.5918
 5972SOL    HW223660   5.085   3.266   5.053  1.4458  0.6790 -1.2417
 5972SOL    HW323661   5.144   3.173   5.157 -2.1179  0.0802  0.4129
 5972SOL    MW423662   5.144   3.206   5.077 -0.0036 -0.0253 -0.2566
 5973SOL     OW23663   1.966   5.641   3.501  0.0632  0.3061 -0.2296
 5973SOL    HW223664   1.980   5.616   3.410  0.4097  1.3403 -0.4715
 5973SOL    HW323665   2.046   5.687   3.525  0.6855 -1.3555  1.1221
 5973SOL    MW423666   1.978   5.644   3.492 -0.0969  0.6577  0.2719
 5974SOL     OW23667   4.728   5.175   6.343 -0.3226  0.2180  0.7819
 5974SOL    HW223668   4.699   5.101   6.288  0.1421  0.1505  0.6266
 5974SOL    HW323669   4.668   5.246   6.320 -0.1153  0.1994  0.1558
 5974SOL    MW423670   4.716   5.175   6.333 -0.0171 -0.0686  0.3611
 5975SOL     OW23671   5.438   3.762   4.703  0.4136  0.3691  0.2888
 5975SOL    HW223672   5.494   3.793   4.632 -0.2684 -0.0651 -0.4635
 5975SOL    HW323673   5.352   3.799   4.682 -0.2206 -1.2688 -0.1423
 5975SOL    MW423674   5.434   3.771   4.690 -0.1343 -0.1330  0.0777
 5976SOL     OW23675   2.471   1.950   2.557 -0.3019  0.2791  0.1869
 5976SOL    HW223676   2.411   2.017   2.589  0.0900  0.7772 -0.1168
 5976SOL    HW323677   2.558   1.987   2.569 -0.0603 -0.3124  0.3291
 5976SOL    MW423678   2.475   1.964   2.563 -0.2858 -0.2713 -0.6908
 5977SOL     OW23679   4.263   4.950   4.914 -0.1917 -0.3803  0.1506
 5977SOL    HW223680   4.269   4.879   4.850  0.4250 -1.0468  0.9149
 5977SOL    HW323681   4.207   4.916   4.983  2.8359 -1.6132  2.2516
 5977SOL    MW423682   4.257   4.936   4.915  0.0922  0.3301  0.1553
 5978SOL     OW23683   4.226   1.973   0.746  0.0004  0.2933 -0.4068
 5978SOL    HW223684   4.132   1.962   0.728 -0.0827 -1.0471  0.6653
 5978SOL    HW323685   4.261   1.885   0.743  1.2117  0.7677 -0.6019
 5978SOL    MW423686   4.218   1.960   0.743 -0.2739  0.4369  0.3377
 5979SOL     OW23687   1.691   2.155   1.767  0.4830 -0.1361 -0.2218
 5979SOL    HW223688   1.639   2.236   1.768  1.4454  0.4973  1.1806
 5979SOL    HW323689   1.716   2.141   1.858  2.6760 -0.4610 -0.8195
 5979SOL    MW423690   1.687   2.164   1.779  0.6824 -0.6118 -0.1587
 5980SOL     OW23691   4.479   5.568   3.527  0.3138 -0.0760 -0.0592
 5980SOL    HW223692   4.409   5.545   3.588 -0.7327  1.3507 -0.6764
 5980SOL    HW323693   4.437   5.570   3.441  1.4267 -0.5439 -0.6432
 5980SOL    MW423694   4.464   5.565   3.524  0.1954 -0.7203 -0.0298
 5981SOL     OW23695   2.241   1.650   5.539 -0.4873 -0.2264  0.5753
 5981SOL    HW223696   2.300   1.724   5.528 -1.3528  0.3280 -0.6336
 5981SOL    HW323697   2.199   1.640   5.453  0.4173 -2.8307  0.3242
 5981SOL    MW423698   2.243   1.658   5.526 -0.3040 -0.3623  0.2049
 5982SOL     OW23699   3.191   5.065   1.594 -0.1200 -0.3213 -0.0493
 5982SOL    HW223700   3.214   4.972   1.594  1.2950  0.0065  0.6223
 5982SOL    HW323701   3.267   5.109   1.632 -1.7027  0.8852  1.8938
 5982SOL    MW423702   3.204   5.058   1.599 -0.4016 -0.6571 -0.1688
 5983SOL     OW23703   4.349   0.718   3.904 -0.2954 -0.1849 -0.3498
 5983SOL    HW223704   4.407   0.697   3.831 -1.6343 -1.9724 -0.9929
 5983SOL    HW323705   4.309   0.801   3.880  0.1587 -0.1681 -1.0801
 5983SOL    MW423706   4.351   0.726   3.891  0.1430  0.2014 -0.2605
 5984SOL     OW23707   2.276   2.003   4.079 -0.3855  0.2410 -0.3580
 5984SOL    HW223708   2.267   1.938   4.148 -0.2850 -0.0101 -0.5754
 5984SOL    HW323709   2.213   1.976   4.012  0.2366 -0.1292 -0.8198
 5984SOL    MW423710   2.267   1.991   4.079 -0.0369  0.5471 -0.1909
 5985SOL     OW23711   1.405   5.535   6.433  0.0938  0.3340 -0.1298
 5985SOL    HW223712   1.344   5.592   6.479  1.5673  2.1232 -0.2739
 5985SOL    HW323713   1.454   5.593   6.376  1.6433 -1.0836 -0.3329
 5985SOL    MW423714   1.404   5.550   6.432  0.1850  0.5316 -0.1049
 5986SOL     OW23715   6.302   1.803   5.956 -0.4042 -0.2842  0.0753
 5986SOL    HW223716   6.230   1.831   5.899 -0.0935  0.2307 -0.0714
 5986SOL    HW323717   6.275   1.831   6.043 -1.3038 -1.8881  0.3409
 5986SOL    MW423718   6.289   1.811   5.960  0.6102  0.4228 -0.1757
 5987SOL     OW23719   0.384   6.301   5.244 -0.2976 -0.0557 -0.5934
 5987SOL    HW223720   0.442   6.254   5.183  0.5686 -2.3008  1.7475
 5987SOL    HW323721   0.436   6.308   5.325 -2.4173  0.0814  0.8206
 5987SOL    MW423722   0.399   6.295   5.247  0.5502  0.6251 -0.6292
 5988SOL     OW23723   2.845   1.460   0.490  0.2858 -0.2802 -0.2775
 5988SOL    HW223724   2.881   1.510   0.564  0.2224  1.1251 -1.1565
 5988SOL    HW323725   2.755   1.493   0.482 -0.0162 -1.1220 -0.3927
 5988SOL    MW423726   2.838   1.471   0.499  0.0488  0.3566 -0.4251
 5989SOL     OW23727   3.972   2.906   2.130 -0.0309  0.5569 -0.3282
 5989SOL    HW223728   3.963   2.862   2.215 -0.1723  1.9411  0.4044
 5989SOL    HW323729   3.882   2.916   2.099 -0.1582  1.9319  0.3905
 5989SOL    MW423730   3.959   2.902   2.138  0.1749 -0.5022 -0.6512
 5990SOL     OW23731   4.870   3.939   0.985 -0.2432 -0.1459  0.2695
 5990SOL    HW223732   4.892   3.904   0.899 -0.3170  1.1804 -0.2991
 5990SOL    HW323733   4.836   4.027   0.969  0.5873  0.4859  1.7102
 5990SOL    MW423734   4.869   3.946   0.972  0.1744 -0.6205 -0.6095
 5991SOL     OW23735   2.875   0.197   1.587  0.3960  0.4810  0.2792
 5991SOL    HW223736   2.826   0.273   1.620  0.7200  0.0060  1.9244
 5991SOL    HW323737   2.958   0.233   1.557  0.2730  0.8648  0.3949
 5991SOL    MW423738   2.879   0.212   1.587  0.3508 -0.0203  0.3357
 5992SOL     OW23739   0.698   2.947   6.087 -0.2393 -0.3325 -0.1575
 5992SOL    HW223740   0.695   2.993   6.004 -0.8005  0.2947  0.2009
 5992SOL    HW323741   0.606   2.936   6.112 -0.1175 -1.6654 -0.2407
 5992SOL    MW423742   0.686   2.952   6.079 -0.2943 -0.4865 -0.2463
 5993SOL     OW23743   1.597   3.392   0.483 -0.6361 -0.4552  0.3590
 5993SOL    HW223744   1.602   3.301   0.455 -0.6793 -0.1862 -0.5398
 5993SOL    HW323745   1.545   3.435   0.415 -0.0447  0.3729  0.4215
 5993SOL    MW423746   1.591   3.386   0.470 -0.2785 -0.1079 -0.3688
 5994SOL     OW23747   3.457   1.320   4.683 -0.1703  0.1894  0.4544
 5994SOL    HW223748   3.535   1.287   4.727 -0.9420  0.4437  2.0925
 5994SOL    HW323749   3.422   1.245   4.636  0.7690 -0.0539  0.1366
 5994SOL    MW423750   3.462   1.306   4.683  0.2881 -0.4389  0.0220
 5995SOL     OW23751   4.956   5.124   1.831 -0.3860  0.3496  0.3229
 5995SOL    HW223752   4.984   5.081   1.750 -0.7586  1.4372 -0.3944
 5995SOL    HW323753   4.955   5.053   1.896  0.2077 -0.4756 -0.5441
 5995SOL    MW423754   4.960   5.109   1.829 -0.0766  0.4472 -0.3425
 5996SOL     OW23755   1.959   5.164   1.057 -0.2316  0.0007  0.1549
 5996SOL    HW223756   2.025   5.100   1.031 -0.7918 -0.4231 -0.2473
 5996SOL    HW323757   1.930   5.204   0.975 -3.2287 -2.5345 -0.2281
 5996SOL    MW423758   1.964   5.161   1.043  0.0756 -0.1024  0.0374
 5997SOL     OW23759   4.332   5.857   1.089 -0.2803 -0.4784 -0.6308
 5997SOL    HW223760   4.287   5.816   1.015 -0.3646 -0.2397 -0.7144
 5997SOL    HW323761   4.419   5.880   1.055 -0.8827  1.1587 -1.1854
 5997SOL    MW423762   4.337   5.855   1.075 -0.1713 -0.6333  0.1409
 5998SOL     OW23763   2.030   0.503   5.269  0.5369 -0.1904 -0.0078
 5998SOL    HW223764   2.000   0.563   5.201  0.2747 -1.0708 -0.6878
 5998SOL    HW323765   1.961   0.506   5.336 -1.4211 -2.4767 -1.7224
 5998SOL    MW423766   2.017   0.511   5.269  0.2045 -0.2410 -0.1678
 5999SOL     OW23767   0.446   0.317   1.362 -0.0728 -0.0815  0.2426
 5999SOL    HW223768   0.361   0.299   1.401  0.4235 -0.5024  1.1875
 5999SOL    HW323769   0.508   0.269   1.418  0.7926  0.3496 -0.3251
 5999SOL    MW423770   0.443   0.308   1.375 -0.7257  0.2645  0.5957
 6000SOL     OW23771   2.694   2.269   4.162  0.7045  0.5539  0.0047
 6000SOL    HW223772   2.672   2.179   4.186  1.1955  0.4494  0.0832
 6000SOL    HW323773   2.735   2.305   4.240 -1.6447  1.6406  0.8317
 6000SOL    MW423774   2.697   2.262   4.175  0.2057  0.8316 -0.2659
 6001SOL     OW23775   4.388   3.426   4.188 -0.5348  0.0249 -0.6411
 6001SOL    HW223776   4.416   3.517   4.201 -0.1594 -0.1301 -0.3277
 6001SOL    HW323777   4.429   3.378   4.260  1.5055 -0.8429 -2.2721
 6001SOL    MW423778   4.397   3.432   4.199 -0.5590 -0.4681  0.2968
 6002SOL     OW23779   2.481   5.833   2.413  0.0371  0.2687  0.6004
 6002SOL    HW223780   2.548   5.816   2.347  0.0052 -1.0377  0.8606
 6002SOL    HW323781   2.433   5.909   2.380 -0.5164 -0.8423 -1.3194
 6002SOL    MW423782   2.484   5.841   2.400  0.1863 -0.5357  0.3369
 6003SOL     OW23783   4.233   2.849   4.305  0.1080 -0.3366 -0.3933
 6003SOL    HW223784   4.206   2.799   4.228  1.1241 -0.1591 -0.8802
 6003SOL    HW323785   4.177   2.816   4.376 -0.3116 -1.0412 -1.0383
 6003SOL    MW423786   4.222   2.838   4.304  0.0165  0.2901 -0.3673
 6004SOL     OW23787   1.971   4.550   2.444 -0.4470 -0.4473 -0.4103
 6004SOL    HW223788   1.925   4.479   2.490  0.6794 -0.8872  0.0850
 6004SOL    HW323789   2.016   4.506   2.372  0.6897 -0.3397  0.2119
 6004SOL    MW423790   1.970   4.535   2.441 -0.1670 -0.6525  0.8172
 6005SOL     OW23791   4.038   5.822   4.735  0.1722  0.1151 -0.2971
 6005SOL    HW223792   4.109   5.880   4.707  0.4638 -0.5098 -0.8507
 6005SOL    HW323793   4.073   5.734   4.724 -1.0078 -0.2299 -1.4700
 6005SOL    MW423794   4.052   5.818   4.730  0.1311  0.3635  0.1077
 6006SOL     OW23795   1.841   5.449   5.873  0.2562 -0.6674  0.1262
 6006SOL    HW223796   1.844   5.366   5.920 -0.0223 -2.7550 -3.1508
 6006SOL    HW323797   1.773   5.436   5.806  0.9977  1.7730 -1.2444
 6006SOL    MW423798   1.832   5.436   5.870  0.4465  0.4141  0.0986
 6007SOL     OW23799   0.434   0.319   3.073  0.2201 -0.1413 -0.1627
 6007SOL    HW223800   0.364   0.318   3.137  1.5004  0.5923  1.3095
 6007SOL    HW323801   0.484   0.240   3.090  0.9187  0.3611  0.1770
 6007SOL    MW423802   0.431   0.309   3.083  0.0730  0.2973 -0.5999
 6008SOL     OW23803   1.593   1.278   6.248 -0.5013  0.3959  0.1044
 6008SOL    HW223804   1.650   1.232   6.310  0.6311  0.7416 -0.6458
 6008SOL    HW323805   1.644   1.354   6.221 -1.1429  0.4648 -0.9475
 6008SOL    MW423806   1.607   1.282   6.253  0.1996 -0.2363 -0.0224
 6009SOL     OW23807   3.429   1.086   1.270  0.2114  0.3467 -0.6346
 6009SOL    HW223808   3.359   1.085   1.205  0.1127 -0.3711 -0.5271
 6009SOL    HW323809   3.428   1.174   1.306 -0.0853  0.5889 -1.2257
 6009SOL    MW423810   3.420   1.097   1.266 -0.3667  0.0944  0.3365
 6010SOL     OW23811   3.913   1.675   0.855 -0.2718 -0.0028  0.4907
 6010SOL    HW223812   3.999   1.633   0.863 -0.0511  0.3808  0.1728
 6010SOL    HW323813   3.860   1.611   0.806  0.1850  0.2608 -0.3597
 6010SOL    MW423814   3.918   1.661   0.849 -0.7273  0.3672 -0.7376
 6011SOL     OW23815   5.584   4.191   5.212 -0.0934  0.4198 -0.3013
 6011SOL    HW223816   5.512   4.168   5.153  1.0763 -0.5215 -1.4367
 6011SOL    HW323817   5.568   4.283   5.235 -0.4532  0.9280 -2.3574
 6011SOL    MW423818   5.573   4.200   5.207  0.6147  0.3727 -0.2960
 6012SOL     OW23819   3.162   2.934   5.745  0.6567 -0.3732 -0.6025
 6012SOL    HW223820   3.089   2.872   5.744  0.4560 -0.3104  2.5552
 6012SOL    HW323821   3.122   3.020   5.757  1.1466 -0.0391 -1.2404
 6012SOL    MW423822   3.147   2.937   5.746  0.3005 -1.2224  0.1790
 6013SOL     OW23823   5.738   2.284   6.090  0.3323 -0.4296 -0.7278
 6013SOL    HW223824   5.691   2.330   6.021 -0.6362  0.3693  0.4206
 6013SOL    HW323825   5.688   2.203   6.104  0.3744 -0.4679 -0.8040
 6013SOL    MW423826   5.725   2.280   6.083 -0.1622  0.2594 -0.2902
 6014SOL     OW23827   3.068   1.190   2.383  0.3133  0.1091  0.0276
 6014SOL    HW223828   3.120   1.216   2.307  0.8654  0.0715  0.3894
 6014SOL    HW323829   3.038   1.101   2.363 -1.1830  0.8021 -1.0037
 6014SOL    MW423830   3.071   1.182   2.370  0.0501 -0.5935 -0.1137
 6015SOL     OW23831   3.532   1.008   5.958  0.1100 -0.2500  0.1995
 6015SOL    HW223832   3.495   1.094   5.981  0.4404  0.1756 -0.8105
 6015SOL    HW323833   3.596   0.991   6.027 -0.7527 -0.2119  1.0244
 6015SOL    MW423834   3.536   1.017   5.970  0.0224  0.2477  0.4666
 6016SOL     OW23835   5.316   1.106   0.627 -0.1062 -0.4518  0.4647
 6016SOL    HW223836   5.366   1.129   0.549 -1.9625 -0.5011 -0.7939
 6016SOL    HW323837   5.348   1.019   0.651  1.2756  0.0310  0.4606
 6016SOL    MW423838   5.327   1.097   0.620 -0.0163  1.0386 -0.4504
 6017SOL     OW23839   0.016   0.554   3.084  0.6551 -0.4299  0.8161
 6017SOL    HW223840   0.067   0.609   3.025 -1.0361  0.7070  0.3388
 6017SOL    HW323841  -0.019   0.615   3.149  0.8807 -1.3747  1.8632
 6017SOL    MW423842   0.018   0.569   3.085 -0.8285  0.4895  0.4860
 6018SOL     OW23843   5.331   3.145   5.355 -0.1164 -0.6028  0.1840
 6018SOL    HW223844   5.400   3.180   5.298 -0.8326 -1.2465 -1.1352
 6018SOL    HW323845   5.275   3.219   5.375  0.7740 -0.1363  1.0151
 6018SOL    MW423846   5.333   3.159   5.350 -0.0095 -0.1194  0.6294
 6019SOL     OW23847   2.776   2.045   1.078  0.4022 -0.1990  0.2121
 6019SOL    HW223848   2.719   1.980   1.121 -0.2627  0.6458  0.6371
 6019SOL    HW323849   2.772   2.022   0.985  0.3230 -0.8817  0.3801
 6019SOL    MW423850   2.768   2.033   1.071 -0.4849 -0.2755 -0.0143
 6020SOL     OW23851   2.300   5.932   0.059 -0.5683 -0.0210  0.5211
 6020SOL    HW223852   2.270   6.023   0.059  0.3906  0.3194 -0.4401
 6020SOL    HW323853   2.364   5.927   0.130  1.0650  0.6885 -0.8183
 6020SOL    MW423854   2.304   5.943   0.068 -0.2991  0.0877  0.2972
 6021SOL     OW23855   4.047   6.111   3.752 -0.0392  0.5340  0.7429
 6021SOL    HW223856   4.024   6.189   3.803 -0.7309  0.3727  0.6910
 6021SOL    HW323857   4.036   6.039   3.813 -0.7646  0.3499  0.4096
 6021SOL    MW423858   4.043   6.112   3.767 -0.2015  0.1858  0.2622
 6022SOL     OW23859   2.984   1.390   2.784  0.3156 -0.3698 -0.2439
 6022SOL    HW223860   2.938   1.307   2.793 -0.2622  0.1454  2.1746
 6022SOL    HW323861   2.915   1.457   2.792  0.7164  0.3934 -2.4895
 6022SOL    MW423862   2.969   1.388   2.786 -0.0522 -0.0960  0.3158
 6023SOL     OW23863   2.332   4.802   2.316 -0.4278 -0.1817 -0.4047
 6023SOL    HW223864   2.348   4.886   2.360  0.0577 -0.5621  0.1711
 6023SOL    HW323865   2.300   4.745   2.386 -1.1043 -0.3795 -0.8670
 6023SOL    MW423866   2.330   4.806   2.331 -0.1675  0.2945 -0.2473
 6024SOL     OW23867   2.521   5.941   5.086 -0.1839 -0.3809  0.3067
 6024SOL    HW223868   2.521   5.913   5.177 -1.2085 -0.4206  0.3036
 6024SOL    HW323869   2.452   6.008   5.081  0.4096  0.2062 -0.2671
 6024SOL    MW423870   2.512   5.946   5.097 -0.0011  0.5126 -0.2386
 6025SOL     OW23871   5.995   2.405   3.322  0.0857 -0.0146 -0.2295
 6025SOL    HW223872   5.905   2.425   3.347 -0.0286 -0.7774  0.0004
 6025SOL    HW323873   6.030   2.488   3.289 -0.7959  0.2151 -0.6143
 6025SOL    MW423874   5.988   2.419   3.321  0.6554 -0.2069  0.2671
 6026SOL     OW23875   3.248   1.391   0.527 -0.1204  0.0855 -0.2036
 6026SOL    HW223876   3.336   1.355   0.523 -0.3893 -0.8265  1.3486
 6026SOL    HW323877   3.246   1.458   0.458  1.8442  0.3066 -0.0885
 6026SOL    MW423878   3.259   1.395   0.517  0.2030 -0.2820 -0.1056
 6027SOL     OW23879   6.108   6.085   2.222 -0.2870  0.2449  0.4792
 6027SOL    HW223880   6.195   6.117   2.247  0.1822 -1.0935  0.6792
 6027SOL    HW323881   6.048   6.128   2.283  0.1492  1.6186 -0.0186
 6027SOL    MW423882   6.112   6.095   2.233  0.1602  0.8229 -0.6762
 6028SOL     OW23883   4.082   2.802   2.666  0.3517 -0.0886  0.0075
 6028SOL    HW223884   4.174   2.789   2.643 -0.0439 -1.5634 -0.8519
 6028SOL    HW323885   4.052   2.716   2.695 -0.7818  0.3618  0.2341
 6028SOL    MW423886   4.090   2.789   2.667 -0.2875  0.8642  0.5343
 6029SOL     OW23887   5.627   2.189   4.429 -0.0465  0.6899 -0.0869
 6029SOL    HW223888   5.701   2.186   4.489  1.0439 -0.3102 -1.4025
 6029SOL    HW323889   5.668   2.196   4.342 -1.3361 -2.6295 -1.0920
 6029SOL    MW423890   5.642   2.190   4.425  0.1678  0.2035  0.6125
 6030SOL     OW23891   3.797   3.536   5.635 -0.3262 -0.2336  0.7882
 6030SOL    HW223892   3.783   3.455   5.585  1.6425 -1.2389  1.7137
 6030SOL    HW323893   3.882   3.523   5.676 -1.7514  0.5902  4.3022
 6030SOL    MW423894   3.807   3.523   5.634  0.1191  0.3176 -0.1403
 6031SOL     OW23895   5.095   4.373   2.228  0.1967 -0.2061 -0.3314
 6031SOL    HW223896   5.015   4.325   2.206 -0.5579  0.2121  1.3075
 6031SOL    HW323897   5.162   4.306   2.233 -0.6293 -0.9957  0.8994
 6031SOL    MW423898   5.093   4.358   2.226 -0.1355 -0.6533  0.0763
 6032SOL     OW23899   1.628   1.735   5.670 -0.2802  0.2873 -0.6417
 6032SOL    HW223900   1.602   1.827   5.671 -1.0603  0.1474  2.7169
 6032SOL    HW323901   1.547   1.687   5.654 -0.1581  0.1417 -0.8261
 6032SOL    MW423902   1.614   1.741   5.668  0.4855 -0.7355 -0.6347
 6033SOL     OW23903   5.526   2.272   5.390 -0.9386  0.4435  0.8061
 6033SOL    HW223904   5.616   2.252   5.414 -0.6387  1.7287  0.8177
 6033SOL    HW323905   5.475   2.248   5.467 -0.7008 -0.8539  0.5813
 6033SOL    MW423906   5.531   2.266   5.403 -0.7180 -0.2426  0.0547
 6034SOL     OW23907   0.356   4.668   5.671 -0.9748 -0.7073  1.3694
 6034SOL    HW223908   0.292   4.694   5.605 -0.0788  0.2389  0.8417
 6034SOL    HW323909   0.341   4.729   5.744 -0.4062 -0.1919  1.0670
 6034SOL    MW423910   0.345   4.680   5.672  0.4025  0.2366 -0.5323
 6035SOL     OW23911   5.971   4.957   0.359  0.5016  0.2926 -0.3209
 6035SOL    HW223912   5.898   5.008   0.395  0.9166  0.4490  0.3143
 6035SOL    HW323913   6.030   4.943   0.434 -0.0006 -1.8485 -0.2424
 6035SOL    MW423914   5.969   4.962   0.374  0.7262 -0.1599 -0.0782
 6036SOL     OW23915   3.842   1.137   2.897  0.3270  0.4747  0.1226
 6036SOL    HW223916   3.848   1.183   2.981  1.5427 -0.7673  0.7469
 6036SOL    HW323917   3.797   1.199   2.839  0.3168  1.7288  1.4196
 6036SOL    MW423918   3.837   1.151   2.900  0.1530  0.2990  0.2929
 6037SOL     OW23919   5.023   6.178   5.930  0.0336 -0.5609  0.0282
 6037SOL    HW223920   4.964   6.232   5.982  0.4631 -1.0240  1.0253
 6037SOL    HW323921   5.070   6.241   5.874  1.5202  0.3063  2.1318
 6037SOL    MW423922   5.021   6.194   5.929  0.3183  0.0225  0.1787
 6038SOL     OW23923   0.998   1.522   1.022  0.3209 -0.3405 -0.2276
 6038SOL    HW223924   0.960   1.610   1.022  0.6179 -0.2099  0.3160
 6038SOL    HW323925   1.036   1.512   1.109  0.0623 -1.1133 -0.1973
 6038SOL    MW423926   0.998   1.532   1.033 -0.1609  0.0241  0.1045
 6039SOL     OW23927   6.257   2.177   0.782 -0.1874  0.4683  0.1154
 6039SOL    HW223928   6.323   2.205   0.845  0.1778  1.5023 -0.6951
 6039SOL    HW323929   6.270   2.083   0.772  1.1117  0.6495  0.0201
 6039SOL    MW423930   6.267   2.168   0.789 -0.0054 -0.2873 -0.8204
 6040SOL     OW23931   5.490   5.111   3.191 -0.1888  0.2005  0.1973
 6040SOL    HW223932   5.458   5.193   3.229  0.8848  0.9404 -0.4021
 6040SOL    HW323933   5.543   5.071   3.260 -2.6900 -1.2763  1.3648
 6040SOL    MW423934   5.493   5.117   3.205  0.2839  0.9978  0.0100
 6041SOL     OW23935   4.224   5.108   3.558  0.5520 -0.8697  0.2401
 6041SOL    HW223936   4.289   5.044   3.530 -0.7727 -1.5156 -1.5867
 6041SOL    HW323937   4.139   5.068   3.536 -0.4277  0.4001  1.4897
 6041SOL    MW423938   4.221   5.094   3.551 -0.1614 -0.1500 -0.3434
 6042SOL     OW23939   2.560   3.018   2.148 -0.0167 -0.2343  0.0310
 6042SOL    HW223940   2.497   2.949   2.126 -0.6561  0.2613  0.2435
 6042SOL    HW323941   2.527   3.054   2.231 -0.1728  0.8748 -0.4958
 6042SOL    MW423942   2.547   3.014   2.156  0.2237  0.0617  0.6077
 6043SOL     OW23943   3.213   2.852   2.751 -0.0857  0.1608  0.1617
 6043SOL    HW223944   3.260   2.802   2.818  0.9677 -2.7787 -2.5103
 6043SOL    HW323945   3.126   2.814   2.749 -0.6045  1.2665  0.8057
 6043SOL    MW423946   3.208   2.840   2.760 -0.3079 -0.8320 -0.5874
 6044SOL     OW23947   2.922   3.925   2.453 -0.5387  0.2054  0.6872
 6044SOL    HW223948   3.008   3.967   2.449 -0.6865  0.5953  1.4657
 6044SOL    HW323949   2.890   3.928   2.363  0.3192 -0.0774  0.3604
 6044SOL    MW423950   2.929   3.931   2.440 -0.1382  0.3572 -0.2158
 6045SOL     OW23951   2.729   0.288   2.207  0.4752  0.2975 -0.3095
 6045SOL    HW223952   2.711   0.301   2.114 -0.0621 -0.1121 -0.2650
 6045SOL    HW323953   2.674   0.215   2.232  0.0906  0.8572  0.4999
 6045SOL    MW423954   2.720   0.280   2.198  0.1605  0.7450  0.0930
 6046SOL     OW23955   0.894   2.220   4.774 -0.0431  0.0265  0.3094
 6046SOL    HW223956   0.839   2.142   4.781  0.8338 -0.5781  0.5611
 6046SOL    HW323957   0.858   2.268   4.699  0.4453 -1.4644 -0.9393
 6046SOL    MW423958   0.882   2.216   4.765  0.4830  0.0150  0.5257
 6047SOL     OW23959   0.455   2.014   5.785  0.5524 -0.4589 -1.0174
 6047SOL    HW223960   0.432   1.934   5.833 -1.8075  1.3498  1.1743
 6047SOL    HW323961   0.549   2.024   5.800  1.0780 -3.0904 -1.9470
 6047SOL    MW423962   0.464   2.005   5.794  0.4303  0.3983  0.3773
 6048SOL     OW23963   0.923   3.695   3.926 -0.0018 -0.4849 -0.1100
 6048SOL    HW223964   0.911   3.788   3.907  0.6810 -0.5535 -0.9648
 6048SOL    HW323965   0.994   3.692   3.990  1.3121 -0.4886 -1.5172
 6048SOL    MW423966   0.930   3.707   3.932 -0.1405 -0.1791 -0.1975
 6049SOL     OW23967   4.778   0.524   3.561  0.2493  0.2896 -0.3809
 6049SOL    HW223968   4.754   0.460   3.494 -0.1001  1.0050 -0.9460
 6049SOL    HW323969   4.819   0.595   3.512  0.5571  0.5444  0.2369
 6049SOL    MW423970   4.780   0.525   3.545 -0.0155  0.0473  0.2073
 6050SOL     OW23971   1.690   5.582   5.626 -0.4774 -0.1416 -0.3595
 6050SOL    HW223972   1.668   5.665   5.668  0.2976 -0.3122  0.4038
 6050SOL    HW323973   1.765   5.602   5.571 -0.3061 -0.3290 -0.1951
 6050SOL    MW423974   1.697   5.596   5.624 -0.1926 -0.2491  0.1701
 6051SOL     OW23975   2.508   0.216   5.205  0.0525  0.1820 -0.1745
 6051SOL    HW223976   2.596   0.203   5.169 -0.7122  0.1581 -2.1973
 6051SOL    HW323977   2.486   0.306   5.183  0.5314  1.0940  2.7029
 6051SOL    MW423978   2.517   0.226   5.197  0.1715  0.1818 -0.1722
 6052SOL     OW23979   2.224   2.687   1.585  0.7135 -0.3983  0.0706
 6052SOL    HW223980   2.189   2.602   1.558  1.3124 -0.2497 -1.2700
 6052SOL    HW323981   2.147   2.736   1.614  0.0450 -0.7130 -1.0899
 6052SOL    MW423982   2.209   2.682   1.585  0.5687 -0.1549 -0.5144
 6053SOL     OW23983   6.367   1.484   1.605  0.5250 -0.2005  0.2687
 6053SOL    HW223984   6.271   1.479   1.598  0.3689  1.4280  0.8212
 6053SOL    HW323985   6.399   1.416   1.546 -0.9679 -0.6281 -0.0958
 6053SOL    MW423986   6.358   1.474   1.596 -0.7806  0.2861 -0.1236
 6054SOL     OW23987   4.906   5.805   1.206 -0.1907 -0.8594 -0.0307
 6054SOL    HW223988   4.839   5.778   1.143 -2.0082  2.8154  0.0610
 6054SOL    HW323989   4.961   5.867   1.158  0.2798 -0.3363  1.1330
 6054SOL    MW423990   4.904   5.810   1.192  0.3097  0.7318  0.0509
 6055SOL     OW23991   3.192   2.033   5.917  0.0944 -0.2587 -0.5902
 6055SOL    HW223992   3.139   2.056   5.994  1.6634  2.1077 -0.1050
 6055SOL    HW323993   3.155   1.951   5.887 -1.4205 -0.6264  1.9264
 6055SOL    MW423994   3.180   2.025   5.923  0.3332 -0.1714 -0.5321
 6056SOL     OW23995   2.307   1.639   3.319  0.0287 -0.4252 -0.1014
 6056SOL    HW223996   2.386   1.694   3.314 -0.6877  0.6148 -0.4705
 6056SOL    HW323997   2.310   1.586   3.239  0.5804 -0.7072  0.1049
 6056SOL    MW423998   2.318   1.640   3.307 -0.3570 -0.0668 -0.5596
 6057SOL     OW23999   0.120   0.514   4.815  0.0690  0.6715  0.1332
 6057SOL    HW224000   0.191   0.471   4.862  1.0920 -0.0429 -1.9379
 6057SOL    HW324001   0.139   0.498   4.723 -2.3322  1.2073 -0.5333
 6057SOL    MW424002   0.131   0.506   4.809 -0.2643 -0.4148 -0.3312
 6058SOL     OW24003   4.823   3.860   1.397 -0.5355 -0.0723  0.6200
 6058SOL    HW224004   4.794   3.806   1.323  0.1152 -0.2266  0.4731
 6058SOL    HW324005   4.901   3.905   1.364 -0.1618 -0.2474  1.2632
 6058SOL    MW424006   4.829   3.859   1.383  0.2552 -0.0696 -0.4316
 6059SOL     OW24007   0.960   6.372   1.104  0.6849 -0.3400  0.1597
 6059SOL    HW224008   0.894   6.431   1.068  0.8920 -0.8425 -1.0879
 6059SOL    HW324009   1.033   6.430   1.126  0.2830  0.0673  0.4440
 6059SOL    MW424010   0.961   6.387   1.102 -0.2106 -0.6413  0.0900
 6060SOL     OW24011   1.777   0.320   0.389  0.2519  0.0807 -0.0970
 6060SOL    HW224012   1.765   0.317   0.484  0.7156 -0.8823 -0.0529
 6060SOL    HW324013   1.710   0.260   0.355 -0.4172  0.9926 -0.4523
 6060SOL    MW424014   1.766   0.312   0.397 -0.2818 -0.4776  0.2605
 6061SOL     OW24015   2.048   4.142   4.690  0.1166  0.2913  0.9432
 6061SOL    HW224016   1.999   4.070   4.728 -0.9001 -0.5981 -1.8014
 6061SOL    HW324017   1.983   4.211   4.674  0.6217  0.8697  1.3360
 6061SOL    MW424018   2.033   4.142   4.693 -0.8224 -0.5997  0.5412
 6062SOL     OW24019   0.836   0.646   3.109  0.0722  0.1316  0.4506
 6062SOL    HW224020   0.809   0.729   3.147 -0.1737  0.1011  0.3388
 6062SOL    HW324021   0.759   0.614   3.062 -0.0687 -0.5034  1.0956
 6062SOL    MW424022   0.823   0.652   3.108  0.0609 -0.0098  0.9176
 6063SOL     OW24023   1.846   3.353   2.587  0.4308 -0.0785  0.2358
 6063SOL    HW224024   1.857   3.262   2.613  2.1412  0.0162 -0.0342
 6063SOL    HW324025   1.841   3.401   2.670 -4.0858 -0.6312  0.5593
 6063SOL    MW424026   1.847   3.347   2.601  0.6675  0.0067 -0.1495
 6064SOL     OW24027   4.173   1.737   4.292 -0.2383 -0.3983 -0.6177
 6064SOL    HW224028   4.150   1.650   4.257  2.3188 -1.7766  0.7834
 6064SOL    HW324029   4.158   1.729   4.386 -0.9486  1.0850 -0.5798
 6064SOL    MW424030   4.168   1.724   4.300  1.0708 -0.0196 -0.2156
 6065SOL     OW24031   4.988   2.936   2.618 -0.4030  0.6252  0.0461
 6065SOL    HW224032   4.953   2.856   2.658 -0.0367  0.9124  0.9485
 6065SOL    HW324033   4.917   2.999   2.626 -0.0404  0.9266  1.0144
 6065SOL    MW424034   4.974   2.934   2.624 -0.4262 -0.0133  0.5642
 6066SOL     OW24035   4.311   2.696   5.033 -0.1161 -0.0601 -0.2804
 6066SOL    HW224036   4.294   2.677   4.940 -0.0040 -2.1289  0.0758
 6066SOL    HW324037   4.225   2.707   5.072 -0.2514 -0.8955 -0.3250
 6066SOL    MW424038   4.298   2.695   5.026  0.1100 -0.2087 -0.0079
 6067SOL     OW24039   3.605   3.498   4.121 -0.0993 -0.3418  0.0418
 6067SOL    HW224040   3.651   3.554   4.184  1.0798 -0.2201 -0.8863
 6067SOL    HW324041   3.512   3.511   4.140  0.2140 -0.7735  2.1601
 6067SOL    MW424042   3.599   3.507   4.132  0.1393  0.0464  0.2919
 6068SOL     OW24043   1.612   5.387   5.107 -0.1195 -0.3474  0.3604
 6068SOL    HW224044   1.556   5.387   5.185  0.4776 -0.6231  0.7998
 6068SOL    HW324045   1.573   5.321   5.049  0.7552 -1.8625  1.4211
 6068SOL    MW424046   1.599   5.378   5.110  0.3781  0.4091  0.0062
 6069SOL     OW24047   6.012   6.011   0.186  0.0410  0.0832 -0.3389
 6069SOL    HW224048   6.006   5.922   0.222 -0.1764  0.4046  0.4297
 6069SOL    HW324049   5.972   6.067   0.252  0.4711  0.8007 -0.6727
 6069SOL    MW424050   6.006   6.006   0.199  0.5849 -0.0496 -0.4151
 6070SOL     OW24051   2.150   4.272   6.238  0.0066 -0.9959 -0.5702
 6070SOL    HW224052   2.221   4.327   6.271 -0.6551 -0.1044 -0.6206
 6070SOL    HW324053   2.153   4.194   6.294  0.1468 -0.3694  0.3194
 6070SOL    MW424054   2.160   4.269   6.250  0.1021 -0.2138  0.4117
 6071SOL     OW24055   2.903   6.136   5.721  0.0376 -0.1453 -0.2543
 6071SOL    HW224056   2.988   6.121   5.680  1.5882  3.5269  1.1383
 6071SOL    HW324057   2.924   6.164   5.811 -2.5029  1.9541 -0.1844
 6071SOL    MW424058   2.917   6.138   5.728 -0.2979  0.0656  0.3949
 6072SOL     OW24059   0.149   2.016   4.428 -0.7027 -0.0381  0.3464
 6072SOL    HW224060   0.100   2.088   4.390 -1.0824  0.4545  1.7204
 6072SOL    HW324061   0.103   1.994   4.509 -0.0038 -1.1353  0.4815
 6072SOL    MW424062   0.137   2.022   4.434 -0.2918  0.6894  0.2692
 6073SOL     OW24063   1.108   3.689   1.708  0.9713  0.6201  0.1918
 6073SOL    HW224064   1.150   3.775   1.715 -0.7093  1.3813  1.8219
 6073SOL    HW324065   1.019   3.707   1.677  1.0554 -0.7212 -0.9712
 6073SOL    MW424066   1.102   3.703   1.705 -0.2714 -0.0887  0.5503
 6074SOL     OW24067   5.386   5.326   3.320 -0.0881 -0.0131  0.4329
 6074SOL    HW224068   5.446   5.354   3.389 -0.4302 -0.2495  0.8222
 6074SOL    HW324069   5.300   5.329   3.360 -0.2723 -0.2927  0.0582
 6074SOL    MW424070   5.383   5.330   3.334  0.0318 -0.3517 -0.8935
 6075SOL     OW24071   2.455   2.111   3.748 -0.0326 -0.4821 -0.9109
 6075SOL    HW224072   2.481   2.189   3.797  2.5521  0.2552 -3.1708
 6075SOL    HW324073   2.369   2.088   3.783  0.2478  1.8160  1.6444
 6075SOL    MW424074   2.447   2.119   3.759  0.6642  0.3954  0.5080
 6076SOL     OW24075   3.860   3.943   1.997 -0.0241 -0.3747  0.2588
 6076SOL    HW224076   3.921   3.911   1.931  0.6298 -0.8124  1.0588
 6076SOL    HW324077   3.906   4.017   2.038 -0.5340  0.0610  0.0559
 6076SOL    MW424078   3.874   3.949   1.994  0.3135  0.2468 -0.3090
 6077SOL     OW24079   2.300   2.761   5.509  0.5419 -0.6294  1.3059
 6077SOL    HW224080   2.378   2.764   5.565  1.9263  1.5895 -0.5539
 6077SOL    HW324081   2.333   2.776   5.421 -2.0128  0.3418  0.4188
 6077SOL    MW424082   2.315   2.763   5.505  0.0947  0.0666  0.1042
 6078SOL     OW24083   5.542   1.675   0.535  0.1369  0.1551  0.3569
 6078SOL    HW224084   5.463   1.680   0.590  0.4625 -1.3251  1.0215
 6078SOL    HW324085   5.586   1.758   0.548 -0.1873  0.1253  1.7503
 6078SOL    MW424086   5.537   1.686   0.544 -0.0866 -0.1217 -0.5870
 6079SOL     OW24087   2.989   2.698   1.371 -0.1319  0.3989 -0.2011
 6079SOL    HW224088   3.083   2.715   1.377 -0.0121 -0.5293  0.8908
 6079SOL    HW324089   2.975   2.673   1.279  0.7878 -0.0399 -0.2270
 6079SOL    MW424090   3.000   2.697   1.359 -0.2699 -0.2905  1.0863
 6080SOL     OW24091   3.479   3.213   0.330 -0.4325 -0.0010  0.2408
 6080SOL    HW224092   3.409   3.275   0.350  0.9662  2.1457 -1.1057
 6080SOL    HW324093   3.444   3.160   0.258 -1.6789 -0.8928  1.4628
 6080SOL    MW424094   3.465   3.214   0.323  0.4627 -0.3546  0.2059
 6081SOL     OW24095   4.027   4.513   1.282 -0.3264  0.6837 -0.3584
 6081SOL    HW224096   4.031   4.509   1.186 -1.1215  1.2366 -0.4199
 6081SOL    HW324097   4.015   4.422   1.309 -1.9244  0.7111 -0.8892
 6081SOL    MW424098   4.026   4.501   1.273 -0.7767 -0.0988  0.3440
 6082SOL     OW24099   0.766   2.258   1.613 -0.3177  0.7204  0.1419
 6082SOL    HW224100   0.772   2.178   1.562  3.0740  1.5013 -0.9330
 6082SOL    HW324101   0.745   2.229   1.702  1.0602 -1.3994 -0.1651
 6082SOL    MW424102   0.764   2.244   1.618 -0.1203 -0.4172  0.1447
 6083SOL     OW24103   5.400   2.255   4.560  0.2896 -0.2947 -0.1676
 6083SOL    HW224104   5.476   2.236   4.506  0.7472 -0.1680  0.4194
 6083SOL    HW324105   5.329   2.271   4.498  0.4583 -1.5407 -0.7053
 6083SOL    MW424106   5.400   2.254   4.545  0.5062  0.4384 -0.4098
 6084SOL     OW24107   6.100   5.365   0.087  0.5266  0.2910  0.0277
 6084SOL    HW224108   6.163   5.371   0.015 -1.1380  2.3893 -1.3737
 6084SOL    HW324109   6.115   5.444   0.139  0.9496 -0.6479  1.3870
 6084SOL    MW424110   6.110   5.376   0.084  0.4412  0.1541  0.0814
 6085SOL     OW24111   3.751   0.413   2.164 -0.4429  0.0838  0.1546
 6085SOL    HW224112   3.842   0.382   2.165 -0.6894 -0.7363  2.3358
 6085SOL    HW324113   3.746   0.475   2.237 -1.8896 -0.7596  0.8048
 6085SOL    MW424114   3.763   0.417   2.174  0.1120  0.2805  0.2688
 6086SOL     OW24115   4.464   3.638   2.408  0.5912  0.1480 -0.6315
 6086SOL    HW224116   4.418   3.605   2.485  1.6172  0.5196  0.1623
 6086SOL    HW324117   4.557   3.626   2.429  0.8866  0.4405 -1.7282
 6086SOL    MW424118   4.470   3.632   2.421 -0.3326  0.0349  0.2313
 6087SOL     OW24119   0.724   3.086   5.843 -0.1308 -0.2926  0.1693
 6087SOL    HW224120   0.703   3.064   5.752  0.5998  0.2592 -0.1418
 6087SOL    HW324121   0.673   3.165   5.861 -0.5137 -0.5763  0.3449
 6087SOL    MW424122   0.715   3.094   5.833  0.4414 -0.3294 -0.4230
 6088SOL     OW24123   2.463   4.682   3.052 -0.5617 -0.6435 -0.7642
 6088SOL    HW224124   2.463   4.593   3.019 -1.2051 -0.8302 -0.2773
 6088SOL    HW324125   2.373   4.696   3.084 -1.2302  1.0076 -3.0944
 6088SOL    MW424126   2.451   4.672   3.052  0.4282 -0.4730  0.1209
 6089SOL     OW24127   3.937   2.825   5.892  0.0501  0.5752 -0.3216
 6089SOL    HW224128   3.899   2.791   5.812  0.4083  0.5545 -0.4880
 6089SOL    HW324129   4.021   2.779   5.900 -1.3071 -1.7691  1.7269
 6089SOL    MW424130   3.943   2.814   5.883  0.3205  0.0236  0.0641
 6090SOL     OW24131   6.065   2.644   1.219 -0.1060 -0.6751  0.3235
 6090SOL    HW224132   6.157   2.653   1.193 -0.1194  2.2827  0.9587
 6090SOL    HW324133   6.016   2.660   1.139 -0.0933 -1.5132  0.1410
 6090SOL    MW424134   6.071   2.647   1.205 -0.2263 -0.1295 -0.3838
 6091SOL     OW24135   3.179   5.755   3.095 -0.0420  0.2886  0.6312
 6091SOL    HW224136   3.131   5.743   3.013 -0.1002  0.3007  0.6639
 6091SOL    HW324137   3.116   5.734   3.164  0.0216  0.2282  0.6718
 6091SOL    MW424138   3.165   5.750   3.093 -0.4462 -0.4839  0.1473
 6092SOL     OW24139   3.693   4.917   5.354  0.3801 -0.1472  0.3163
 6092SOL    HW224140   3.693   4.856   5.280  2.6341  0.5882 -0.3803
 6092SOL    HW324141   3.737   4.995   5.320 -0.8382  1.2094  1.7125
 6092SOL    MW424142   3.699   4.919   5.339  0.5798  0.0478 -0.5296
 6093SOL     OW24143   5.129   5.393   2.675 -0.3438 -0.4272  0.0593
 6093SOL    HW224144   5.177   5.313   2.693 -0.4036 -0.5134 -0.1608
 6093SOL    HW324145   5.059   5.395   2.740 -0.4446 -0.6391 -0.0408
 6093SOL    MW424146   5.126   5.383   2.686 -0.8784 -0.1237 -0.9230
 6094SOL     OW24147   0.051   2.875   5.201 -0.1841  0.4483 -0.2703
 6094SOL    HW224148  -0.003   2.944   5.239  1.2874  1.1636  0.5932
 6094SOL    HW324149   0.045   2.802   5.263 -1.1405  0.0496 -0.8108
 6094SOL    MW424150   0.043   2.875   5.214  0.1191 -0.3011  0.1776
 6095SOL     OW24151   3.257   4.747   1.344  0.0766 -0.7321  0.1747
 6095SOL    HW224152   3.188   4.726   1.281  0.4658 -1.8028  0.0902
 6095SOL    HW324153   3.303   4.821   1.304 -2.1599  1.3185  1.1236
 6095SOL    MW424154   3.254   4.754   1.330 -0.1277  0.0786 -0.3913
 6096SOL     OW24155   3.944   2.941   4.041 -0.1290 -0.1467  0.1592
 6096SOL    HW224156   3.882   3.014   4.038  0.1765  0.1910  1.4081
 6096SOL    HW324157   4.030   2.982   4.044  0.0692 -0.5645  0.2613
 6096SOL    MW424158   3.947   2.956   4.041  0.1487  0.0588  0.7391
 6097SOL     OW24159   1.868   0.460   6.371  0.0199 -0.3751 -0.8650
 6097SOL    HW224160   1.861   0.521   6.298  0.3921  1.0635  0.2634
 6097SOL    HW324161   1.785   0.469   6.418  1.1483  1.4400  0.9119
 6097SOL    MW424162   1.856   0.469   6.367 -0.3910 -0.1837 -0.3068
 6098SOL     OW24163   1.987   3.947   3.503  0.1936  0.4751  0.3306
 6098SOL    HW224164   1.938   3.981   3.428  3.2185 -0.6986 -2.4278
 6098SOL    HW324165   1.949   3.860   3.519  1.8747 -0.9603 -2.5946
 6098SOL    MW424166   1.976   3.940   3.495  0.3203 -0.9935 -1.0377
 6099SOL     OW24167   1.526   2.135   2.493  0.3634  0.3589 -1.0092
 6099SOL    HW224168   1.470   2.094   2.560 -1.1833  0.7433 -2.0186
 6099SOL    HW324169   1.579   2.063   2.459 -0.3248 -0.2687 -0.8033
 6099SOL    MW424170   1.525   2.120   2.498 -0.4064 -0.3725  0.2425
 6100SOL     OW24171   5.074   5.823   4.158  0.3741 -0.1692  0.3255
 6100SOL    HW224172   5.026   5.901   4.130 -0.3747 -0.5891  0.4208
 6100SOL    HW324173   5.009   5.767   4.200  0.9350 -0.7704  0.4283
 6100SOL    MW424174   5.059   5.826   4.160  0.1071 -0.3954 -0.1610
 6101SOL     OW24175   5.416   5.416   2.972 -0.6083 -0.3805 -0.1747
 6101SOL    HW224176   5.501   5.384   3.002 -0.3449 -0.8772 -1.3956
 6101SOL    HW324177   5.355   5.345   2.991 -0.4975 -0.5701 -0.5160
 6101SOL    MW424178   5.419   5.403   2.978 -0.2489 -0.5874  0.0364
 6102SOL     OW24179   3.471   2.042   3.278  0.6097 -0.2123 -0.7345
 6102SOL    HW224180   3.496   1.998   3.359  0.3954  0.0017 -0.5495
 6102SOL    HW324181   3.534   2.011   3.213  2.1467  1.2829 -0.0114
 6102SOL    MW424182   3.482   2.032   3.280  0.1765  0.5845  0.5318
 6103SOL     OW24183   3.208   0.625   2.083 -0.4762 -0.3843 -0.1940
 6103SOL    HW224184   3.181   0.533   2.084  0.7538 -0.7720  0.3188
 6103SOL    HW324185   3.302   0.621   2.102 -0.5498  1.0317  0.5212
 6103SOL    MW424186   3.217   0.612   2.085  0.0965  0.3248  0.1237
 6104SOL     OW24187   5.470   3.227   3.953  0.1770  0.5440  0.1799
 6104SOL    HW224188   5.556   3.241   3.991  0.2571  1.4645 -0.3341
 6104SOL    HW324189   5.429   3.161   4.010  0.9349  0.6466  0.8501
 6104SOL    MW424190   5.476   3.220   3.966  0.1612 -0.0248  0.1852
 6105SOL     OW24191   4.898   3.183   5.696 -0.1434 -0.2423 -0.7498
 6105SOL    HW224192   4.988   3.214   5.711 -0.0399 -0.9724  0.2819
 6105SOL    HW324193   4.874   3.218   5.610  0.0568  2.4528  0.1882
 6105SOL    MW424194   4.907   3.192   5.687 -0.0322 -0.5923 -0.4121
 6106SOL     OW24195   3.209   5.618   2.538  0.6680  0.4793 -0.2059
 6106SOL    HW224196   3.226   5.590   2.448  1.9857  0.1655  0.1199
 6106SOL    HW324197   3.288   5.665   2.564  0.4062  0.3505  0.8751
 6106SOL    MW424198   3.221   5.620   2.529  0.6915 -0.1890 -0.6543
 6107SOL     OW24199   2.217   4.536   1.076  0.3368 -0.3453 -0.1056
 6107SOL    HW224200   2.232   4.442   1.065 -2.1252 -0.8095 -0.0752
 6107SOL    HW324201   2.186   4.566   0.991 -2.0956 -0.3110  0.7345
 6107SOL    MW424202   2.215   4.527   1.063 -0.1654  0.1725  0.2925
 6108SOL     OW24203   5.106   0.273   3.827  0.6026  0.4410 -0.1233
 6108SOL    HW224204   5.177   0.228   3.780 -1.0527 -0.3070 -2.0396
 6108SOL    HW324205   5.087   0.350   3.773  0.1954  0.8483  0.5915
 6108SOL    MW424206   5.113   0.277   3.813  0.6430  0.0389  0.0163
 6109SOL     OW24207   4.334   4.335   3.792  0.1511  0.2507 -0.0567
 6109SOL    HW224208   4.372   4.376   3.870  0.8798 -2.3550  1.0389
 6109SOL    HW324209   4.407   4.327   3.731  0.4495 -1.0406  0.4519
 6109SOL    MW424210   4.348   4.339   3.794 -0.1775 -0.1611  0.3287
 6110SOL     OW24211   3.585   0.075   5.746  0.7837  0.2419  0.1003
 6110SOL    HW224212   3.579   0.048   5.837 -0.1255 -0.8655 -0.2640
 6110SOL    HW324213   3.557  -0.002   5.696  1.4999  0.7464 -1.1247
 6110SOL    MW424214   3.581   0.062   5.751 -0.8824  0.0470  0.1041
 6111SOL     OW24215   1.168   4.806   1.514 -0.2610 -0.4342  0.2666
 6111SOL    HW224216   1.080   4.817   1.478 -0.6688  0.4440  1.4968
 6111SOL    HW324217   1.164   4.725   1.565 -0.2062 -0.6618 -0.0851
 6111SOL    MW424218   1.156   4.797   1.516  0.0689 -0.0541  0.2244
 6112SOL     OW24219   1.260   5.537   5.506 -0.7645 -0.5443 -0.2268
 6112SOL    HW224220   1.314   5.475   5.554 -1.3842 -0.5426  0.4981
 6112SOL    HW324221   1.176   5.537   5.552 -0.7461  0.9267 -0.1271
 6112SOL    MW424222   1.256   5.529   5.518  0.3738  0.7465  0.5268
 6113SOL     OW24223   3.110   5.367   5.930  0.9761 -0.0114  0.4722
 6113SOL    HW224224   3.087   5.278   5.902 -0.8351  0.4771  0.2592
 6113SOL    HW324225   3.154   5.405   5.853 -0.5857  0.0972 -0.4094
 6113SOL    MW424226   3.113   5.360   5.916  0.2804  0.5367 -0.3370
 6114SOL     OW24227   2.442   4.673   1.615 -0.1423  0.4112  0.2233
 6114SOL    HW224228   2.462   4.583   1.643  1.8232  0.2048 -1.5413
 6114SOL    HW324229   2.380   4.663   1.543 -0.8535  0.5691  0.8046
 6114SOL    MW424230   2.437   4.660   1.609 -0.4152  0.1514  0.6325
 6115SOL     OW24231   0.027   4.600   0.843  0.7101 -0.2636  0.8445
 6115SOL    HW224232   0.008   4.559   0.759 -0.2259  1.5079  0.1403
 6115SOL    HW324233   0.089   4.541   0.885 -0.7488 -2.5163  0.0264
 6115SOL    MW424234   0.033   4.587   0.838 -0.3875 -0.3997  0.1985
 6116SOL     OW24235   1.580   5.492   3.822 -0.1377 -0.0872  0.4418
 6116SOL    HW224236   1.666   5.456   3.800  0.1201  0.3352  0.7245
 6116SOL    HW324237   1.538   5.425   3.876  0.6425  0.3232  1.6094
 6116SOL    MW424238   1.586   5.479   3.827  0.1324  0.1998  0.7168
 6117SOL     OW24239   0.808   3.232   1.750  0.3856  0.0977 -0.1962
 6117SOL    HW224240   0.777   3.141   1.756 -0.9597  0.5397 -0.1127
 6117SOL    HW324241   0.891   3.226   1.702  0.0323 -1.1178 -0.6888
 6117SOL    MW424242   0.815   3.219   1.744 -0.4581 -0.4379  0.3177
 6118SOL     OW24243   1.523   2.615   4.300  0.4134  0.5420  1.3174
 6118SOL    HW224244   1.458   2.648   4.362  1.1127 -1.1547  3.0537
 6118SOL    HW324245   1.587   2.686   4.292 -1.6533  2.3739 -0.6636
 6118SOL    MW424246   1.523   2.629   4.307 -0.1371 -0.1316 -0.0837
 6119SOL     OW24247   6.282   4.085   3.322 -0.2614 -0.7694  0.3328
 6119SOL    HW224248   6.330   4.137   3.257 -0.5651 -1.8293 -0.7767
 6119SOL    HW324249   6.349   4.033   3.365 -0.0967 -0.2753  0.6891
 6119SOL    MW424250   6.297   4.085   3.319  0.1188  0.9395 -0.0942
 6120SOL     OW24251   2.026   3.817   0.641  0.5975 -0.3150 -0.4265
 6120SOL    HW224252   2.118   3.820   0.670  0.7646  0.7240 -1.0081
 6120SOL    HW324253   2.032   3.795   0.548  0.3890  1.5235 -0.9155
 6120SOL    MW424254   2.039   3.814   0.632  0.3259  0.0549  0.9701
 6121SOL     OW24255   1.865   2.767   5.779  0.0527  0.2543 -0.3723
 6121SOL    HW224256   1.928   2.788   5.710  1.0977 -0.3647  0.3759
 6121SOL    HW324257   1.913   2.778   5.861  0.0700 -2.8407  0.1705
 6121SOL    MW424258   1.879   2.771   5.781 -0.5261  0.2188  0.0810
 6122SOL     OW24259   3.203   1.366   3.293  0.1272  0.7636 -0.2700
 6122SOL    HW224260   3.187   1.294   3.354 -0.2609  1.1561  0.0969
 6122SOL    HW324261   3.205   1.324   3.207 -1.3522  0.4727 -0.1859
 6122SOL    MW424262   3.201   1.351   3.289 -0.4938  0.3388 -0.0254
 6123SOL     OW24263   2.706   3.953   0.728  0.1167 -0.2722 -0.2334
 6123SOL    HW224264   2.689   4.028   0.784  3.4705  2.3530 -2.3425
 6123SOL    HW324265   2.764   3.897   0.779  0.7604  0.6015  0.0135
 6123SOL    MW424266   2.712   3.955   0.742  0.2168 -0.2910  0.1424
 6124SOL     OW24267   0.470   3.373   4.366 -0.1752  0.3480 -0.6253
 6124SOL    HW224268   0.501   3.305   4.306 -1.0168  0.0105 -0.6903
 6124SOL    HW324269   0.543   3.388   4.426  0.7906  0.8619 -1.8653
 6124SOL    MW424270   0.484   3.366   4.366  0.0751 -0.3024  0.0748
 6125SOL     OW24271   3.544   1.784   2.903  0.1265 -0.2639 -0.0559
 6125SOL    HW224272   3.572   1.863   2.950 -0.5246 -0.1372  0.1417
 6125SOL    HW324273   3.624   1.736   2.886  1.0146  2.0663 -3.2755
 6125SOL    MW424274   3.558   1.788   2.907  0.0749 -0.5946 -0.7149
 6126SOL     OW24275   2.967   4.641   5.135  0.1991 -0.1981  0.6917
 6126SOL    HW224276   2.938   4.612   5.222 -0.5723  0.1004  0.5326
 6126SOL    HW324277   3.062   4.628   5.137  0.1169 -0.7737  1.3616
 6126SOL    MW424278   2.976   4.635   5.147 -0.4472  0.1499 -0.3816
 6127SOL     OW24279   5.935   2.932   1.267 -0.8044 -0.0653 -0.0165
 6127SOL    HW224280   5.905   2.862   1.325 -1.5208 -0.3850 -0.7477
 6127SOL    HW324281   6.021   2.904   1.237 -0.4538  0.0694  0.8145
 6127SOL    MW424282   5.942   2.919   1.271  0.0106  0.1187 -0.4838
 6128SOL     OW24283   4.894   3.620   0.044 -0.0316 -0.1478  0.6099
 6128SOL    HW224284   4.881   3.703   0.090  1.9917 -0.4651  1.8643
 6128SOL    HW324285   4.883   3.553   0.110  0.6923 -0.7391  0.1533
 6128SOL    MW424286   4.891   3.622   0.059  0.3610  0.4545 -0.4045
 6129SOL     OW24287   0.788   4.382   2.819  0.2855 -0.3595 -0.0523
 6129SOL    HW224288   0.768   4.411   2.908 -1.3287 -0.6730 -0.2729
 6129SOL    HW324289   0.792   4.463   2.767  1.0874 -0.1877  0.2694
 6129SOL    MW424290   0.786   4.396   2.824 -0.1704  0.1489  0.4178
 6130SOL     OW24291   5.390   1.685   1.202  0.0927 -0.0955  0.0127
 6130SOL    HW224292   5.478   1.710   1.174  0.3072  1.0571  1.6007
 6130SOL    HW324293   5.374   1.737   1.281 -1.6927 -0.8985  0.2258
 6130SOL    MW424294   5.400   1.695   1.209  0.2442  0.1490 -0.2337
 6131SOL     OW24295   2.703   1.764   3.532 -0.2527  0.0410 -0.3227
 6131SOL    HW224296   2.794   1.764   3.502 -0.1084  6.7902 -1.3394
 6131SOL    HW324297   2.652   1.763   3.451 -0.9467 -0.4130  0.1143
 6131SOL    MW424298   2.708   1.764   3.517 -0.3554 -0.1932  0.0922
 6132SOL     OW24299   1.877   3.458   1.390  0.6699  0.5757 -0.1368
 6132SOL    HW224300   1.882   3.435   1.297  0.3822  0.3592 -0.1014
 6132SOL    HW324301   1.958   3.505   1.408  0.0975  1.8516 -0.8319
 6132SOL    MW424302   1.888   3.461   1.380  0.0227 -0.1089 -0.7039
 6133SOL     OW24303   5.963   5.846   2.527 -0.5237 -0.3985  0.1435
 6133SOL    HW224304   6.035   5.807   2.477  1.5185  1.9875  1.0717
 6133SOL    HW324305   5.956   5.791   2.605  0.9427 -0.1588  0.4741
 6133SOL    MW424306   5.971   5.833   2.531 -0.8268 -0.0362 -0.0446
 6134SOL     OW24307   0.446   0.558   1.032  0.3871  0.0499 -0.1488
 6134SOL    HW224308   0.393   0.484   1.060 -0.7559  0.8080 -0.2263
 6134SOL    HW324309   0.524   0.553   1.086 -0.1964 -0.5450  0.6738
 6134SOL    MW424310   0.449   0.548   1.043  0.6302 -0.5319 -0.7265
 6135SOL     OW24311   5.001   1.634   1.484 -0.0744  0.3266  0.0804
 6135SOL    HW224312   4.940   1.679   1.543 -1.4769 -2.3640  0.8872
 6135SOL    HW324313   4.944   1.588   1.422  1.3098  0.6401 -1.5129
 6135SOL    MW424314   4.985   1.634   1.484 -0.6860  0.0301 -0.2848
 6136SOL     OW24315   4.605   1.071   6.188  0.3492  0.3175  0.1382
 6136SOL    HW224316   4.678   1.118   6.229  0.2054  0.8487 -0.2030
 6136SOL    HW324317   4.628   0.978   6.197 -0.0079  0.3770  2.0178
 6136SOL    MW424318   4.618   1.065   6.195 -0.0538 -0.2584  0.6473
 6137SOL     OW24319   4.208   0.093   1.744 -0.1010 -0.1234 -0.4942
 6137SOL    HW224320   4.133   0.037   1.763 -0.6832  0.9767  0.5714
 6137SOL    HW324321   4.240   0.121   1.829 -1.0426  2.7020 -0.9648
 6137SOL    MW424322   4.202   0.089   1.757  0.0564 -0.3399  0.1450
 6138SOL     OW24323   3.995   3.430   2.715  0.1509  0.2659 -0.1233
 6138SOL    HW224324   3.908   3.391   2.709 -0.0337  0.8044 -1.0653
 6138SOL    HW324325   4.046   3.384   2.649  0.5613  0.0432  0.3353
 6138SOL    MW424326   3.991   3.419   2.706 -0.3628  0.3605  0.0255
 6139SOL     OW24327   2.485   1.953   0.217 -0.3530  0.5054 -0.6028
 6139SOL    HW224328   2.475   1.859   0.202  0.2259  0.1683  0.9283
 6139SOL    HW324329   2.405   1.978   0.263 -0.2560  0.6480 -0.5113
 6139SOL    MW424330   2.473   1.944   0.221  0.1642  0.3000  0.0034
 6140SOL     OW24331   0.527   5.257   6.191 -0.4762  0.0296 -0.3135
 6140SOL    HW224332   0.511   5.191   6.259  2.5101 -1.0172 -0.4850
 6140SOL    HW324333   0.549   5.206   6.113 -0.1052  1.2417 -1.0279
 6140SOL    MW424334   0.528   5.241   6.190 -0.7319 -0.3721  0.0021
 6141SOL     OW24335   1.798   0.466   1.675  0.0761  0.6118 -0.8498
 6141SOL    HW224336   1.892   0.479   1.690  0.3306 -1.3973 -0.5004
 6141SOL    HW324337   1.775   0.532   1.610  1.7091  1.1851 -0.8926
 6141SOL    MW424338   1.808   0.477   1.669  0.1870  0.3374  0.6291
 6142SOL     OW24339   1.813   1.530   5.348 -0.2642 -0.0389 -0.1368
 6142SOL    HW224340   1.819   1.579   5.266  0.2672 -0.6373 -0.4594
 6142SOL    HW324341   1.856   1.447   5.330  2.0525  0.7263  1.4679
 6142SOL    MW424342   1.819   1.525   5.334  0.0071  0.5595  0.3787
 6143SOL     OW24343   5.506   2.532   4.555 -0.9398  0.2339  0.0962
 6143SOL    HW224344   5.460   2.453   4.585 -0.6862  0.8170  2.1571
 6143SOL    HW324345   5.457   2.604   4.594  0.5775  0.9416  0.7691
 6143SOL    MW424346   5.493   2.531   4.564 -0.1537  0.7373  0.1483
 6144SOL     OW24347   2.910   2.872   2.481 -0.4164  0.3139  0.3136
 6144SOL    HW224348   2.914   2.788   2.526 -0.0576 -0.7167 -1.5571
 6144SOL    HW324349   2.953   2.933   2.542 -1.0981 -0.7236  1.9041
 6144SOL    MW424350   2.916   2.869   2.495 -0.0425 -0.0692  0.1581
 6145SOL     OW24351   1.629   1.489   1.139  0.1948 -1.0140  0.2248
 6145SOL    HW224352   1.630   1.422   1.208 -4.3778 -0.2942  1.2815
 6145SOL    HW324353   1.614   1.440   1.058  2.3052 -1.5760  0.1068
 6145SOL    MW424354   1.627   1.474   1.137 -0.6923  0.0390  0.1648
 6146SOL     OW24355   2.888   4.628   5.404 -0.0685  0.0501 -0.3205
 6146SOL    HW224356   2.861   4.590   5.487  0.5178 -1.7597 -0.9186
 6146SOL    HW324357   2.966   4.679   5.426 -0.9765  1.1400  0.5221
 6146SOL    MW424358   2.895   4.630   5.418  0.0300 -0.2738 -0.4357
 6147SOL     OW24359   1.984   5.155   5.646  0.0430 -0.2345  0.0587
 6147SOL    HW224360   1.913   5.164   5.709  1.1677  1.5540  1.1733
 6147SOL    HW324361   1.945   5.179   5.562 -0.6137  1.1539  0.7249
 6147SOL    MW424362   1.970   5.159   5.643  0.0379  0.3162  0.2931
 6148SOL     OW24363   4.774   1.807   4.928 -0.1187  0.1889 -0.6459
 6148SOL    HW224364   4.735   1.727   4.893 -0.4748 -0.1877  0.5817
 6148SOL    HW324365   4.703   1.851   4.974  0.6127  0.0814  0.6166
 6148SOL    MW424366   4.760   1.802   4.929 -0.3708  0.7350  0.0040
 6149SOL     OW24367   0.135   5.204   4.032  0.0480 -0.5789  0.0356
 6149SOL    HW224368   0.160   5.276   3.974 -0.6146  1.1582  1.8238
 6149SOL    HW324369   0.041   5.215   4.046  0.2788 -0.5906  1.8586
 6149SOL    MW424370   0.126   5.215   4.026 -0.1701 -0.3425  0.0349
 6150SOL     OW24371   5.187   5.689   4.474 -0.3796 -0.8475 -0.0872
 6150SOL    HW224372   5.123   5.637   4.522 -1.2874  1.7498  1.6757
 6150SOL    HW324373   5.269   5.678   4.523 -0.1849 -1.7030 -0.5722
 6150SOL    MW424374   5.190   5.681   4.487  0.3298  0.0661  0.5957
 6151SOL     OW24375   1.804   0.232   1.927  0.0524  0.2402 -0.7115
 6151SOL    HW224376   1.781   0.208   1.837 -0.3741  0.1875 -0.5927
 6151SOL    HW324377   1.782   0.155   1.979 -0.7831  0.6640 -0.4089
 6151SOL    MW424378   1.798   0.219   1.922  0.3578 -0.0463  0.4455
 6152SOL     OW24379   5.271   3.584   0.060  0.1861 -0.1385  0.3211
 6152SOL    HW224380   5.276   3.626  -0.026 -1.1810 -2.1196 -0.8141
 6152SOL    HW324381   5.212   3.640   0.110  0.7343  0.8681 -0.1260
 6152SOL    MW424382   5.264   3.597   0.055  0.1458 -0.0873 -0.0647
 6153SOL     OW24383   1.747   5.136   0.278  0.3204  0.0774 -0.6711
 6153SOL    HW224384   1.655   5.124   0.253  0.5847 -0.3123 -1.4776
 6153SOL    HW324385   1.791   5.057   0.248  1.1932  0.9122 -1.6902
 6153SOL    MW424386   1.740   5.124   0.271  0.4878  0.3737  0.1740
 6154SOL     OW24387   1.372   2.922   3.835 -0.2452 -0.4401 -0.2063
 6154SOL    HW224388   1.454   2.913   3.787 -0.8919 -1.1558 -1.2119
 6154SOL    HW324389   1.344   3.012   3.821  0.1519 -0.3202 -0.2172
 6154SOL    MW424390   1.379   2.932   3.827 -0.7973 -0.1825 -0.0052
 6155SOL     OW24391   2.880   0.594   5.122  0.3174  0.2656  0.5640
 6155SOL    HW224392   2.939   0.602   5.197 -1.4100 -0.2872  2.0463
 6155SOL    HW324393   2.913   0.658   5.058  1.8475  0.7230  1.7597
 6155SOL    MW424394   2.892   0.603   5.123  0.6549 -0.1039  0.0291
 6156SOL     OW24395   2.465   0.473   1.820  0.3296  0.2987 -0.0290
 6156SOL    HW224396   2.434   0.418   1.893 -1.9623 -0.5475 -1.5078
 6156SOL    HW324397   2.541   0.426   1.786 -0.5547 -1.0835 -0.1820
 6156SOL    MW424398   2.471   0.459   1.825 -0.2173 -0.3634  0.4929
 6157SOL     OW24399   3.113   5.963   6.358 -0.2519  0.4828  0.4910
 6157SOL    HW224400   3.123   6.028   6.288 -1.5993  2.8404  2.3103
 6157SOL    HW324401   3.049   5.900   6.323  0.2630  0.7079 -0.9303
 6157SOL    MW424402   3.106   5.963   6.344 -0.5605  0.1617  0.0694
 6158SOL     OW24403   2.831   4.396   2.575 -0.2718  0.1594 -0.6846
 6158SOL    HW224404   2.763   4.446   2.621  0.1549  0.9612 -0.9126
 6158SOL    HW324405   2.897   4.461   2.551  0.3782 -0.5409 -0.8439
 6158SOL    MW424406   2.831   4.411   2.578 -0.0751  0.3142  0.8211
 6159SOL     OW24407   4.315   1.377   3.408 -0.0499 -0.2274 -0.3446
 6159SOL    HW224408   4.361   1.385   3.492 -1.3658  1.3611  0.2899
 6159SOL    HW324409   4.256   1.303   3.420  0.1966 -0.3862 -0.0937
 6159SOL    MW424410   4.314   1.368   3.421  0.5105 -0.4553  0.3194
 6160SOL     OW24411   4.639   1.142   1.713  0.0496 -0.1900  0.0876
 6160SOL    HW224412   4.695   1.211   1.677 -0.2044 -0.0451 -0.0339
 6160SOL    HW324413   4.691   1.103   1.784  0.2654  0.0053  0.0368
 6160SOL    MW424414   4.653   1.146   1.718 -0.7261  0.3423  0.5645
 6161SOL     OW24415   2.737   4.339   3.585 -0.1230 -0.7694  0.1614
 6161SOL    HW224416   2.782   4.423   3.596 -0.7522 -0.4210  0.1451
 6161SOL    HW324417   2.807   4.275   3.582  0.4667 -0.1021 -1.2376
 6161SOL    MW424418   2.752   4.342   3.586 -0.0878  0.5974 -0.2235
 6162SOL     OW24419   0.800   5.488   4.946 -0.0050 -0.0423 -0.5933
 6162SOL    HW224420   0.875   5.468   5.002 -1.0323 -0.9077  0.5577
 6162SOL    HW324421   0.825   5.454   4.860  1.0232 -0.0718 -0.3019
 6162SOL    MW424422   0.813   5.481   4.942 -0.2678  0.1636  0.2507
 6163SOL     OW24423   3.427   2.527   0.225  0.2112  0.5292 -0.3730
 6163SOL    HW224424   3.483   2.567   0.292 -0.3810  0.8781 -0.0838
 6163SOL    HW324425   3.397   2.601   0.172 -0.6107  0.4388 -0.0458
 6163SOL    MW424426   3.431   2.542   0.227 -0.3411 -0.2118  0.0472
 6164SOL     OW24427   0.480   3.312   1.872  0.0543 -0.2321  0.3729
 6164SOL    HW224428   0.502   3.277   1.786  0.1538  0.3847  0.1391
 6164SOL    HW324429   0.514   3.247   1.934  0.6576 -0.3144 -0.0360
 6164SOL    MW424430   0.488   3.299   1.869  0.1784  0.9480  0.0095
 6165SOL     OW24431   4.614   4.640   3.804 -0.3962 -0.2965  0.0775
 6165SOL    HW224432   4.704   4.670   3.819 -0.3635 -0.3489 -0.0099
 6165SOL    HW324433   4.605   4.643   3.709 -0.4911 -0.2810  0.0875
 6165SOL    MW424434   4.625   4.645   3.793  0.3231  0.3173 -0.2999
 6166SOL     OW24435   3.212   1.927   4.026  0.0658  0.5106  0.1129
 6166SOL    HW224436   3.225   2.021   4.033 -0.2056  0.7741 -2.2887
 6166SOL    HW324437   3.125   1.916   3.987 -0.5907 -0.8170  1.7865
 6166SOL    MW424438   3.202   1.938   4.022 -0.3739  0.5687 -0.0656
 6167SOL     OW24439   1.790   4.460   6.053 -0.6980  0.6961 -0.5974
 6167SOL    HW224440   1.772   4.376   6.010  0.0301  0.8376 -1.2080
 6167SOL    HW324441   1.711   4.478   6.104 -0.4574 -0.8973  0.4307
 6167SOL    MW424442   1.777   4.451   6.054  0.6079  0.1312 -0.0528
 6168SOL     OW24443   0.371   2.615   0.208 -0.1872 -0.0537 -0.4912
 6168SOL    HW224444   0.355   2.706   0.186 -2.7727 -0.7195 -1.7970
 6168SOL    HW324445   0.293   2.588   0.257  1.3374 -1.1264  1.4759
 6168SOL    MW424446   0.359   2.623   0.212  0.0847  0.3040 -0.3500
 6169SOL     OW24447   6.342   3.782   3.420  0.2716 -0.0097  0.3440
 6169SOL    HW224448   6.311   3.702   3.462  0.9590  0.0794  1.0580
 6169SOL    HW324449   6.408   3.816   3.480  0.2845  0.8750 -0.1538
 6169SOL    MW424450   6.347   3.776   3.434  0.2050  0.0746  0.4118
 6170SOL     OW24451   0.447   2.705   3.910  0.6204 -0.1139 -0.5790
 6170SOL    HW224452   0.470   2.798   3.910  1.6639 -0.3486  0.8770
 6170SOL    HW324453   0.351   2.705   3.910  0.5073  0.8992 -3.8174
 6170SOL    MW424454   0.437   2.717   3.910 -0.0366  0.4152 -0.1796
 6171SOL     OW24455   4.584   5.828   4.573  0.0153 -0.0707 -0.3203
 6171SOL    HW224456   4.639   5.865   4.505 -0.9022  1.3701 -0.3234
 6171SOL    HW324457   4.535   5.902   4.608 -0.9478 -1.0806  0.5850
 6171SOL    MW424458   4.585   5.842   4.569 -0.3541  0.5161  0.0439
 6172SOL     OW24459   0.702   5.646   4.303  0.6579 -0.3736  0.3407
 6172SOL    HW224460   0.755   5.577   4.342 -0.0792  0.3800  2.9275
 6172SOL    HW324461   0.725   5.725   4.353  0.1338  0.8547 -1.2727
 6172SOL    MW424462   0.712   5.648   4.315  0.6588 -0.1184  0.0160
 6173SOL     OW24463   1.871   3.207   5.670  0.4187  0.7120  0.4443
 6173SOL    HW224464   1.874   3.266   5.745 -0.6932  1.2058  0.1164
 6173SOL    HW324465   1.779   3.184   5.660  0.7343 -0.5118  0.1148
 6173SOL    MW424466   1.859   3.211   5.678  0.2728 -0.2310 -0.3044
 6174SOL     OW24467   0.423   0.235   3.912 -0.0507  0.0737 -0.3465
 6174SOL    HW224468   0.490   0.181   3.870  0.4262  0.4108 -0.0239
 6174SOL    HW324469   0.379   0.176   3.973  0.5118  0.0611  0.0544
 6174SOL    MW424470   0.426   0.220   3.914 -0.0183 -0.0040 -0.5989
 6175SOL     OW24471   0.857   4.637   1.224  0.4109 -0.4504  0.2945
 6175SOL    HW224472   0.942   4.593   1.233  0.1987 -0.7911  0.6674
 6175SOL    HW324473   0.814   4.624   1.308  0.0846 -0.0708  0.1896
 6175SOL    MW424474   0.862   4.630   1.236 -0.0855 -0.6345  0.1462
 6176SOL     OW24475   2.715   3.995   5.537 -0.0077  0.1893  0.7414
 6176SOL    HW224476   2.673   4.055   5.599  1.0060  1.0350  0.6474
 6176SOL    HW324477   2.700   4.036   5.451 -0.8964 -0.6676  0.4770
 6176SOL    MW424478   2.707   4.009   5.533  0.3162  0.0819 -0.2754
 6177SOL     OW24479   5.718   2.309   3.491 -0.3730 -0.3631  0.0700
 6177SOL    HW224480   5.720   2.403   3.510 -0.1444 -0.3000 -0.2642
 6177SOL    HW324481   5.674   2.270   3.567  0.0949 -0.0620  0.5018
 6177SOL    MW424482   5.712   2.316   3.504 -0.4495 -0.3949 -0.9249
 6178SOL     OW24483   2.077   0.549   0.082  0.1236 -0.4876 -0.1425
 6178SOL    HW224484   2.006   0.523   0.024  1.2658 -1.6115 -1.1022
 6178SOL    HW324485   2.035   0.565   0.167 -1.0122 -3.2429 -0.0952
 6178SOL    MW424486   2.062   0.548   0.086 -0.2545  0.2857 -0.1422
 6179SOL     OW24487   6.322   5.114   3.676 -0.1929  0.2263 -0.1338
 6179SOL    HW224488   6.294   5.027   3.702  0.9126  0.0008  0.3421
 6179SOL    HW324489   6.266   5.173   3.726 -0.4495 -0.1994  0.0870
 6179SOL    MW424490   6.311   5.111   3.686  0.2929  0.5030  0.4968
 6180SOL     OW24491   4.956   4.456   1.054  0.1885 -0.2023  0.2363
 6180SOL    HW224492   4.957   4.535   1.108 -1.2711 -0.4408  0.6577
 6180SOL    HW324493   5.029   4.404   1.086  0.6587  0.6020  0.5089
 6180SOL    MW424494   4.965   4.460   1.065  0.0727  0.1522  0.1865
 6181SOL     OW24495   4.061   3.211   5.641  0.1901 -0.1357  0.9201
 6181SOL    HW224496   4.054   3.137   5.581 -1.4646  0.5029  0.2544
 6181SOL    HW324497   3.973   3.220   5.678  0.1837  1.8299  0.5597
 6181SOL    MW424498   4.048   3.203   5.638  0.1218  0.3076 -0.0460
 6182SOL     OW24499   3.447   1.409   1.926 -0.0967  0.5412  0.0305
 6182SOL    HW224500   3.471   1.479   1.987 -1.4640  1.0028  0.0681
 6182SOL    HW324501   3.352   1.413   1.921 -0.0825 -0.2137 -1.2896
 6182SOL    MW424502   3.438   1.419   1.934 -0.2366  0.2640  0.5797
 6183SOL     OW24503   3.493   3.225   1.860 -0.3045 -1.0719 -0.0264
 6183SOL    HW224504   3.435   3.233   1.935 -0.9474 -2.3956 -0.3460
 6183SOL    HW324505   3.581   3.238   1.895 -0.5875 -1.7913  0.9829
 6183SOL    MW424506   3.497   3.228   1.874  0.0211  0.1770  0.1131
 6184SOL     OW24507   4.602   4.313   2.122 -0.5602 -0.1977  0.0175
 6184SOL    HW224508   4.617   4.401   2.157  0.3122  0.0851 -1.0071
 6184SOL    HW324509   4.689   4.273   2.121 -1.1239 -1.6021  1.7695
 6184SOL    MW424510   4.616   4.320   2.127 -0.2668 -0.1521 -0.1635
 6185SOL     OW24511   1.504   4.212   5.715  0.3819 -0.0795  0.3887
 6185SOL    HW224512   1.558   4.234   5.639 -1.5236  0.5785 -0.8537
 6185SOL    HW324513   1.560   4.226   5.790  2.0048  0.2919 -0.8498
 6185SOL    MW424514   1.518   4.216   5.715 -0.5121  0.7457 -0.0168
 6186SOL     OW24515   3.213   0.480   5.587 -0.4202 -0.1008 -0.1584
 6186SOL    HW224516   3.123   0.469   5.617  0.2039 -1.2495  1.4695
 6186SOL    HW324517   3.263   0.416   5.638  1.4777  1.2014 -0.2963
 6186SOL    MW424518   3.208   0.470   5.597 -0.2409  0.9281  0.0902
 6187SOL     OW24519   1.724   2.079   3.015 -0.4034  0.3184 -0.5733
 6187SOL    HW224520   1.802   2.097   3.068 -0.1058 -0.4409 -0.7320
 6187SOL    HW324521   1.712   2.158   2.962  0.8261  0.0912 -1.2355
 6187SOL    MW424522   1.733   2.092   3.015  0.0524  0.5862  0.0228
 6188SOL     OW24523   3.339   5.735   6.333  0.0930 -0.4915  0.1043
 6188SOL    HW224524   3.261   5.761   6.381  0.2086  0.3408 -0.1466
 6188SOL    HW324525   3.306   5.687   6.257 -0.1369 -0.7083  0.3359
 6188SOL    MW424526   3.324   5.732   6.329  0.6343  0.0134  0.3596
 6189SOL     OW24527   5.552   2.932   4.243 -0.2083  0.0825 -0.1603
 6189SOL    HW224528   5.618   2.956   4.308 -0.2317 -3.6380  1.4440
 6189SOL    HW324529   5.502   2.862   4.283 -1.6226 -1.0062 -3.4459
 6189SOL    MW424530   5.554   2.926   4.257  0.6516 -0.1810 -0.2226
 6190SOL     OW24531   3.672   1.269   5.492  1.0128  0.3743 -0.2033
 6190SOL    HW224532   3.612   1.255   5.566  0.9960  1.8603  0.0881
 6190SOL    HW324533   3.647   1.202   5.429  0.1663 -0.1096  0.6123
 6190SOL    MW424534   3.661   1.258   5.494  0.1329 -0.4361  0.4345
 6191SOL     OW24535   1.340   4.136   3.014  0.3109  0.1758  0.2768
 6191SOL    HW224536   1.278   4.155   2.943  0.7626 -1.8547 -0.7523
 6191SOL    HW324537   1.398   4.070   2.977  3.6051  2.4950  0.9332
 6191SOL    MW424538   1.339   4.129   3.000 -0.2793 -0.3410 -0.4911
 6192SOL     OW24539   0.030   0.267   3.221 -0.3641  0.3801 -0.0956
 6192SOL    HW224540   0.031   0.352   3.177 -0.1931 -0.3293 -1.5287
 6192SOL    HW324541  -0.047   0.222   3.185 -2.0620  0.8604  2.6223
 6192SOL    MW424542   0.020   0.273   3.210 -0.1487 -0.5276 -0.1346
 6193SOL     OW24543   1.141   5.984   0.453  0.4283 -0.1923  0.1338
 6193SOL    HW224544   1.122   5.892   0.437 -0.2389 -0.0781  0.2160
 6193SOL    HW324545   1.193   5.985   0.533 -0.8744 -0.4053  1.0111
 6193SOL    MW424546   1.145   5.972   0.461 -1.1560 -0.4859 -0.2136
 6194SOL     OW24547   3.092   6.121   3.112  0.4453 -0.1030 -0.1950
 6194SOL    HW224548   3.037   6.056   3.067 -1.8414  1.7098 -0.2452
 6194SOL    HW324549   3.123   6.178   3.042 -1.1888  1.3499  0.1929
 6194SOL    MW424550   3.089   6.120   3.097  0.3066  0.2089 -0.0169
 6195SOL     OW24551   6.246   3.292   2.753 -0.5974 -0.6315  0.2615
 6195SOL    HW224552   6.201   3.328   2.676 -1.4341  0.6306  1.3062
 6195SOL    HW324553   6.176   3.260   2.810  0.0165 -1.5593  0.5323
 6195SOL    MW424554   6.231   3.292   2.750  0.2842 -1.0758  0.2245
 6196SOL     OW24555   3.796   5.469   1.902  0.6329 -0.3185 -0.1527
 6196SOL    HW224556   3.742   5.547   1.890  2.2457  0.8845  0.0524
 6196SOL    HW324557   3.796   5.426   1.816 -0.7344 -0.4379 -0.1153
 6196SOL    MW424558   3.789   5.473   1.889 -0.6550 -0.3341 -0.6150
 6197SOL     OW24559   1.765   4.528   5.555 -0.4761  0.1999 -0.2691
 6197SOL    HW224560   1.718   4.581   5.619 -2.4847 -1.5126 -0.1914
 6197SOL    HW324561   1.855   4.524   5.587 -0.7499  1.7600  0.8216
 6197SOL    MW424562   1.770   4.535   5.567  0.0263 -0.1572 -0.0749
 6198SOL     OW24563   1.880   1.375   0.183  0.2626 -0.3788 -0.0451
 6198SOL    HW224564   1.961   1.331   0.208  0.2203 -0.7332 -0.5046
 6198SOL    HW324565   1.828   1.306   0.140  0.3105  0.1794 -1.0169
 6198SOL    MW424566   1.884   1.360   0.180 -0.5994 -0.1232  0.0017
 6199SOL     OW24567   6.032   4.113   5.259  0.2949 -0.4139  0.6517
 6199SOL    HW224568   5.946   4.112   5.302  0.5992  0.9016  1.3147
 6199SOL    HW324569   6.022   4.174   5.186  0.4747 -0.7959  0.3025
 6199SOL    MW424570   6.019   4.121   5.255  0.0345 -0.3128 -0.0105
 6200SOL     OW24571   0.836   1.281   1.407  0.1148 -0.1007  0.4552
 6200SOL    HW224572   0.758   1.270   1.353  0.8547 -0.0695 -0.6458
 6200SOL    HW324573   0.806   1.264   1.496 -1.4534  1.2412  0.2315
 6200SOL    MW424574   0.822   1.278   1.412  0.2775 -0.1734 -0.4725
 6201SOL     OW24575   1.606   3.543   5.211  0.5411 -0.2032 -0.1595
 6201SOL    HW224576   1.582   3.452   5.226 -0.4328  0.0572 -0.0806
 6201SOL    HW324577   1.555   3.569   5.134 -0.3382  0.7014  0.7031
 6201SOL    MW424578   1.596   3.534   5.203  0.3855 -0.4555 -0.0268
 6202SOL     OW24579   3.667   1.104   1.056  0.0507 -0.3175  0.5354
 6202SOL    HW224580   3.634   1.082   1.143  0.7766 -1.6292  0.5014
 6202SOL    HW324581   3.604   1.066   0.996 -1.0309  1.4957  0.4394
 6202SOL    MW424582   3.655   1.096   1.060  0.0602  0.4999  0.0836
 6203SOL     OW24583   5.227   3.832   5.939 -0.2739  0.5879  0.2683
 6203SOL    HW224584   5.140   3.815   5.976 -0.0506 -0.2210  0.4320
 6203SOL    HW324585   5.248   3.921   5.968 -0.9789  0.7287  0.3612
 6203SOL    MW424586   5.218   3.841   5.948 -0.0926  0.0332 -0.5110
 6204SOL     OW24587   1.430   2.356   4.371  0.4943  0.2154 -0.8884
 6204SOL    HW224588   1.377   2.323   4.298 -2.3110  0.7900  0.7507
 6204SOL    HW324589   1.474   2.433   4.335  0.1995 -0.2596 -2.3347
 6204SOL    MW424590   1.429   2.362   4.357  0.0214 -0.2454 -0.0923
 6205SOL     OW24591   0.029   1.648   1.001  0.8113 -0.7749 -0.1758
 6205SOL    HW224592   0.037   1.731   0.954  0.9408 -0.4069  0.4760
 6205SOL    HW324593  -0.054   1.611   0.971  0.4925 -0.1543 -0.0834
 6205SOL    MW424594   0.019   1.654   0.991 -0.4454  0.0888 -0.6833
 6206SOL     OW24595   0.905   4.097   3.133  0.4086 -0.5961  0.3889
 6206SOL    HW224596   0.995   4.063   3.129  0.5056 -0.3075  0.0439
 6206SOL    HW324597   0.913   4.188   3.104 -0.0950 -0.7567 -0.2673
 6206SOL    MW424598   0.918   4.105   3.129 -0.2830  0.6607  0.6242
 6207SOL     OW24599   1.139   0.904   2.403 -0.2041  0.3292 -0.1715
 6207SOL    HW224600   1.068   0.937   2.459  1.7992  2.4805  1.2716
 6207SOL    HW324601   1.144   0.968   2.331  0.3213  0.2316 -0.2244
 6207SOL    MW424602   1.130   0.917   2.401  0.1119  0.3587  0.9917
 6208SOL     OW24603   3.017   2.312   1.725  0.0253  0.0515 -0.3703
 6208SOL    HW224604   3.018   2.217   1.727  0.4465 -0.0228 -2.1560
 6208SOL    HW324605   2.926   2.335   1.706 -0.6480  0.1599  2.5754
 6208SOL    MW424606   3.005   2.303   1.723  0.1188 -0.0974 -0.1934
 6209SOL     OW24607   1.670   4.925   3.457  0.0710 -0.0049 -0.2163
 6209SOL    HW224608   1.682   4.834   3.429 -1.0884  0.1734 -1.3541
 6209SOL    HW324609   1.578   4.930   3.484  1.0652 -0.1729  3.8252
 6209SOL    MW424610   1.659   4.913   3.457  0.0032  0.3980 -0.4833
 6210SOL     OW24611   2.287   2.610   6.401 -0.2865  0.1454  0.0610
 6210SOL    HW224612   2.343   2.630   6.325 -0.8494 -0.0208 -0.4053
 6210SOL    HW324613   2.302   2.516   6.416  1.0387  0.5064  1.1667
 6210SOL    MW424614   2.297   2.600   6.393  0.0061 -0.3602 -0.1257
 6211SOL     OW24615   5.356   5.006   5.998 -0.4831  0.8813 -0.3993
 6211SOL    HW224616   5.272   5.038   5.963  0.3068  2.5732 -0.8716
 6211SOL    HW324617   5.421   5.067   5.963  0.6210  1.4534  2.3324
 6211SOL    MW424618   5.353   5.018   5.989 -0.2632 -0.1769 -0.5320
 6212SOL     OW24619   1.630   3.637   2.753 -1.0605  0.5063  0.2771
 6212SOL    HW224620   1.699   3.597   2.806 -1.8636 -1.5540 -0.1490
 6212SOL    HW324621   1.672   3.657   2.669 -0.8902 -0.4713  0.1199
 6212SOL    MW424622   1.645   3.634   2.749  0.8941 -0.3446 -0.2560
 6213SOL     OW24623   1.222   6.231   4.490 -0.3905 -0.2790  0.8204
 6213SOL    HW224624   1.266   6.151   4.520  0.7668 -0.2036 -0.5722
 6213SOL    HW324625   1.242   6.296   4.557  0.9617 -0.4768  0.6320
 6213SOL    MW424626   1.231   6.229   4.503 -0.2783  0.1916  0.3693
 6214SOL     OW24627   0.784   4.435   5.785 -0.4812 -0.3991  0.0687
 6214SOL    HW224628   0.692   4.406   5.790 -0.7443  0.2459 -0.7962
 6214SOL    HW324629   0.803   4.437   5.691  0.0470  0.6214  0.1849
 6214SOL    MW424630   0.774   4.431   5.773 -0.5510  0.0898  0.2746
 6215SOL     OW24631   2.408   4.940   4.537 -0.3525  0.4958  0.1049
 6215SOL    HW224632   2.320   4.950   4.574 -0.8132  1.3427 -1.1199
 6215SOL    HW324633   2.412   4.848   4.512 -1.2313  0.6193 -0.5690
 6215SOL    MW424634   2.397   4.929   4.538 -0.5282  0.6364  0.5013
 6216SOL     OW24635   2.440   2.944   5.045 -0.4221  0.3907 -0.3396
 6216SOL    HW224636   2.443   2.921   4.952 -1.1765 -0.3257 -0.2031
 6216SOL    HW324637   2.452   2.860   5.090  1.4984  0.9245  0.2466
 6216SOL    MW424638   2.442   2.930   5.038 -0.6829 -0.0287 -0.3727
 6217SOL     OW24639   5.715   6.389   1.038 -0.3476 -0.0404  0.2267
 6217SOL    HW224640   5.723   6.462   0.976 -0.1212 -0.7443 -0.5887
 6217SOL    HW324641   5.790   6.399   1.096  0.6577 -0.5796 -0.9312
 6217SOL    MW424642   5.726   6.400   1.037 -0.2844  0.6659  0.2501
 6218SOL     OW24643   5.672   2.515   4.002 -0.0154  0.0995 -0.0826
 6218SOL    HW224644   5.648   2.607   4.004  0.2439  0.1576  0.9251
 6218SOL    HW324645   5.641   2.480   4.086  0.7518 -0.5076 -0.0409
 6218SOL    MW424646   5.665   2.522   4.013  0.1561  0.3409  0.0628
 6219SOL     OW24647   2.136   0.349   3.080  0.3270 -0.3121 -0.3647
 6219SOL    HW224648   2.043   0.348   3.102  0.5346  0.0477  0.5641
 6219SOL    HW324649   2.153   0.260   3.048 -0.4942 -0.1557 -1.2559
 6219SOL    MW424650   2.126   0.337   3.079 -0.4733  0.0891  0.3710
 6220SOL     OW24651   0.139   0.267   6.452 -0.0977 -0.6670 -0.3375
 6220SOL    HW224652   0.094   0.317   6.521  1.0772 -0.1598  0.0905
 6220SOL    HW324653   0.135   0.324   6.375  2.1506  0.6588  0.4151
 6220SOL    MW424654   0.132   0.281   6.451 -0.3267  0.0176 -0.2667
 6221SOL     OW24655   4.459   2.443   3.787  0.5162 -0.2455 -0.6792
 6221SOL    HW224656   4.527   2.508   3.770  0.5016  0.2339  0.9150
 6221SOL    HW324657   4.499   2.359   3.762  1.6718  0.0430  0.1225
 6221SOL    MW424658   4.473   2.440   3.781 -0.0505  0.2809 -0.8923
 6222SOL     OW24659   2.244   2.316   4.630  0.5425 -0.1179 -0.5420
 6222SOL    HW224660   2.221   2.352   4.715 -0.6629 -2.3685  0.1686
 6222SOL    HW324661   2.162   2.319   4.580  0.8960 -0.1225 -1.1323
 6222SOL    MW424662   2.230   2.321   4.634  0.2964 -0.6489  0.4186
 6223SOL     OW24663   4.693   1.074   4.729  0.2991  0.6371 -0.3416
 6223SOL    HW224664   4.679   1.012   4.657 -1.1387  1.2372 -0.6170
 6223SOL    HW324665   4.785   1.100   4.720  0.4629 -0.1636 -1.2434
 6223SOL    MW424666   4.703   1.069   4.718  0.4776 -0.3836 -0.4938
 6224SOL     OW24667   3.932   2.130   6.052  0.1256  0.4092 -0.4924
 6224SOL    HW224668   3.954   2.046   6.011 -1.1154 -1.1882  1.8728
 6224SOL    HW324669   3.844   2.150   6.020 -0.7274 -0.6928  1.0458
 6224SOL    MW424670   3.924   2.121   6.042  0.5905 -0.5715 -0.2238
 6225SOL     OW24671   5.351   0.436   3.929  0.3749  0.6781 -0.2931
 6225SOL    HW224672   5.337   0.530   3.922 -1.2974  0.4173 -1.2524
 6225SOL    HW324673   5.263   0.400   3.940  1.0541 -0.7247  0.8161
 6225SOL    MW424674   5.337   0.444   3.929 -0.0196 -0.2197 -0.0983
 6226SOL     OW24675   0.986   2.973   1.229  0.1020  0.1810  0.6287
 6226SOL    HW224676   1.076   3.003   1.219  0.0099  0.2855  0.0920
 6226SOL    HW324677   0.935   3.029   1.171 -0.3329  0.2234  1.0408
 6226SOL    MW424678   0.991   2.984   1.220  0.3212 -0.2996  0.0547
 6227SOL     OW24679   0.087   6.219   6.151 -1.3591  0.0791 -0.4752
 6227SOL    HW224680   0.116   6.237   6.062 -0.0007 -0.4213 -0.1630
 6227SOL    HW324681   0.053   6.302   6.183  1.1841  1.1904 -0.3787
 6227SOL    MW424682   0.087   6.232   6.144  0.2102 -0.0148  0.1020
 6228SOL     OW24683   0.094   2.348   5.695 -0.6536  0.3084  0.3237
 6228SOL    HW224684   0.116   2.347   5.602 -1.5525  1.0585  0.0936
 6228SOL    HW324685   0.121   2.262   5.727 -0.2893  0.0683 -0.6179
 6228SOL    MW424686   0.100   2.336   5.687 -0.4067 -0.1027  0.7245
 6229SOL     OW24687   1.535   0.309   2.452  0.1075  0.1772 -0.6115
 6229SOL    HW224688   1.578   0.361   2.384 -1.1162 -0.6284 -2.0476
 6229SOL    HW324689   1.607   0.276   2.506  1.2490 -0.4185 -2.4146
 6229SOL    MW424690   1.550   0.312   2.450 -0.3240 -0.4685 -0.5723
 6230SOL     OW24691   0.542   0.878   0.509  0.0234  0.0936  1.0334
 6230SOL    HW224692   0.583   0.814   0.567 -0.4374  0.3417  1.6448
 6230SOL    HW324693   0.506   0.944   0.568 -0.8251  0.1301  0.4904
 6230SOL    MW424694   0.542   0.878   0.525  0.5136 -0.4691  0.6908
 6231SOL     OW24695   6.199   3.357   1.595  0.2042 -0.3987  0.1466
 6231SOL    HW224696   6.202   3.323   1.684  0.5272 -0.7653 -0.0009
 6231SOL    HW324697   6.119   3.410   1.592 -1.8847 -3.3549 -0.4137
 6231SOL    MW424698   6.189   3.360   1.607  0.2132 -0.3378 -0.3771
 6232SOL     OW24699   4.772   0.554   5.328  0.5801 -0.2535 -0.4288
 6232SOL    HW224700   4.708   0.624   5.330 -0.1337 -0.8951 -0.4049
 6232SOL    HW324701   4.754   0.502   5.406  2.0342  0.3293  0.3442
 6232SOL    MW424702   4.761   0.556   5.339  0.8360 -0.7342  0.9901
 6233SOL     OW24703   2.415   5.976   2.043 -0.3526  0.1318 -0.2291
 6233SOL    HW224704   2.366   5.969   1.961  0.5602  0.2615 -0.8035
 6233SOL    HW324705   2.415   5.888   2.079  2.8861 -1.0444 -2.5686
 6233SOL    MW424706   2.408   5.964   2.037  0.2466  0.0727  0.2120
 6234SOL     OW24707   2.483   5.912   0.290  0.4700 -0.1290  0.0084
 6234SOL    HW224708   2.454   5.993   0.333 -0.6278 -1.1509  1.2732
 6234SOL    HW324709   2.466   5.843   0.354  0.5864 -1.4775 -1.3548
 6234SOL    MW424710   2.477   5.914   0.304  0.6664 -0.4593  0.4293
 6235SOL     OW24711   5.279   4.564   5.608 -0.5544 -0.0488  0.0116
 6235SOL    HW224712   5.319   4.626   5.547 -0.8402 -1.0699 -1.2828
 6235SOL    HW324713   5.227   4.506   5.551 -1.6498 -0.4242  1.3508
 6235SOL    MW424714   5.277   4.564   5.592  0.3153 -0.3521  0.6703
 6236SOL     OW24715   4.283   2.183   0.920 -0.6455 -0.3900  0.7866
 6236SOL    HW224716   4.368   2.179   0.965  0.0538 -0.0670 -0.4562
 6236SOL    HW324717   4.281   2.105   0.866 -1.7336 -1.0743  1.7673
 6236SOL    MW424718   4.294   2.172   0.919  0.9304  0.2072 -0.4411
 6237SOL     OW24719   0.204   0.303   5.341  0.3484  0.0745 -0.6384
 6237SOL    HW224720   0.285   0.252   5.339  0.6514  0.5242 -0.1568
 6237SOL    HW324721   0.162   0.285   5.257  0.6915 -0.5739 -0.6775
 6237SOL    MW424722   0.209   0.294   5.330  0.2637  0.6777  0.5897
 6238SOL     OW24723   3.960   0.648   2.981 -0.5380  0.0562  0.7129
 6238SOL    HW224724   3.879   0.627   3.028 -0.2621  0.3733  1.3432
 6238SOL    HW324725   3.990   0.730   3.020  0.6838 -0.6367  1.2867
 6238SOL    MW424726   3.953   0.656   2.993  0.2999  0.2081  0.2312
 6239SOL     OW24727   2.171   0.831   4.200 -0.7123  0.6074  0.0711
 6239SOL    HW224728   2.114   0.854   4.127 -2.1349 -0.1780  0.8960
 6239SOL    HW324729   2.235   0.771   4.162  0.6812  2.7883 -1.2458
 6239SOL    MW424730   2.172   0.826   4.185  0.2355 -0.1039  0.1559
 6240SOL     OW24731   0.756   6.098   3.034  0.1116  0.3195  0.0122
 6240SOL    HW224732   0.735   6.097   2.941  0.9948  1.8554 -0.2332
 6240SOL    HW324733   0.851   6.091   3.038 -0.0014 -1.0944  0.8774
 6240SOL    MW424734   0.765   6.097   3.022  0.4895 -0.2305  0.1194
 6241SOL     OW24735   1.537   6.354   1.712 -0.1759 -0.7506  1.1919
 6241SOL    HW224736   1.579   6.432   1.747 -2.1472  0.7283  0.4549
 6241SOL    HW324737   1.475   6.327   1.780  0.0552 -1.3205  1.1827
 6241SOL    MW424738   1.534   6.361   1.725 -0.1993 -0.0950 -0.1235
 6242SOL     OW24739   0.787   5.234   4.243 -0.3823 -0.2893  0.3704
 6242SOL    HW224740   0.819   5.166   4.183 -2.4712 -0.1591 -0.9830
 6242SOL    HW324741   0.699   5.254   4.212  0.0034  2.7923  0.9576
 6242SOL    MW424742   0.780   5.227   4.231  0.4601 -0.7909  0.9112
 6243SOL     OW24743   5.628   0.847   0.275  0.2840  0.3705 -0.3600
 6243SOL    HW224744   5.639   0.752   0.284 -1.5438 -0.2970 -3.4586
 6243SOL    HW324745   5.538   0.863   0.303  0.8677  1.3774  1.0010
 6243SOL    MW424746   5.618   0.836   0.280  0.3381  0.0668 -0.0290
 6244SOL     OW24747   2.207   1.133   3.951 -0.8065 -0.3346  0.4300
 6244SOL    HW224748   2.215   1.179   3.867  1.0570  0.4645  0.9878
 6244SOL    HW324749   2.162   1.194   4.008 -0.5925 -0.2053  0.4625
 6244SOL    MW424750   2.202   1.147   3.948 -0.7137  0.4093  0.0643
 6245SOL     OW24751   6.281   0.537   2.324 -0.2628 -0.1020 -0.3379
 6245SOL    HW224752   6.201   0.576   2.289  0.2063  0.3721 -0.9047
 6245SOL    HW324753   6.265   0.443   2.322 -0.8822  0.0036 -0.2685
 6245SOL    MW424754   6.269   0.530   2.319 -0.1032  1.0672  0.1954
 6246SOL     OW24755   4.005   0.304   0.595 -0.1332 -0.2725 -0.3697
 6246SOL    HW224756   3.973   0.366   0.661  0.0385 -0.4851 -0.0827
 6246SOL    HW324757   3.986   0.346   0.511  0.6490  0.4993 -0.1701
 6246SOL    MW424758   3.998   0.317   0.593 -0.1478  0.3170 -0.6299
 6247SOL     OW24759   0.499   6.120   1.155  0.2847  0.0649  0.1160
 6247SOL    HW224760   0.585   6.139   1.193  0.5538 -0.9104  0.0286
 6247SOL    HW324761   0.440   6.114   1.230  0.1769  1.2275  0.1456
 6247SOL    MW424762   0.503   6.121   1.170  1.2078 -0.1015  0.5756
 6248SOL     OW24763   4.077   5.620   3.108  0.7521  0.0805 -0.6492
 6248SOL    HW224764   4.129   5.681   3.056 -0.9799  1.1720 -1.1907
 6248SOL    HW324765   3.999   5.604   3.055 -0.1863 -0.2823  0.7835
 6248SOL    MW424766   4.074   5.626   3.094 -0.0483  0.4527 -0.0597
 6249SOL     OW24767   4.927   1.353   1.750 -0.0178  0.2102  0.1558
 6249SOL    HW224768   4.961   1.361   1.839  0.0747 -0.1683  0.1526
 6249SOL    HW324769   5.004   1.363   1.694  0.0192 -0.1887  0.1358
 6249SOL    MW424770   4.941   1.356   1.754 -0.1082  0.0838  0.4853
 6250SOL     OW24771   3.178   6.257   4.332  0.5637 -0.4090  0.3249
 6250SOL    HW224772   3.242   6.316   4.292  1.2399 -1.7933 -0.7481
 6250SOL    HW324773   3.182   6.276   4.425  0.0605  1.8639 -0.0626
 6250SOL    MW424774   3.187   6.267   4.339 -0.1797  0.6125 -0.2487
 6251SOL     OW24775   2.190   1.291   4.410  0.3705 -0.6998  0.1932
 6251SOL    HW224776   2.162   1.301   4.501  1.3684 -0.0332  0.4450
 6251SOL    HW324777   2.233   1.374   4.389 -0.4067 -0.6034 -1.0995
 6251SOL    MW424778   2.192   1.303   4.419 -0.1630 -0.0619 -0.0541
 6252SOL     OW24779   4.392   2.022   6.356  0.3565  0.3770 -0.1449
 6252SOL    HW224780   4.457   1.961   6.320  0.0319 -0.6647  0.9987
 6252SOL    HW324781   4.316   1.968   6.375  0.4173  0.9193  1.8410
 6252SOL    MW424782   4.391   2.007   6.354  0.6443  0.2008 -0.2772
 6253SOL     OW24783   2.893   6.180   0.209  0.2293  0.2928  0.4079
 6253SOL    HW224784   2.944   6.228   0.145 -1.4741 -2.6425 -3.5643
 6253SOL    HW324785   2.916   6.088   0.193 -1.8777 -0.7174  2.5881
 6253SOL    MW424786   2.903   6.174   0.199  0.0098 -0.2173 -0.0679
 6254SOL     OW24787   5.223   2.549   5.233 -0.1499  0.0042  0.2160
 6254SOL    HW224788   5.138   2.520   5.199  0.4692 -0.6956 -0.8166
 6254SOL    HW324789   5.241   2.631   5.186  0.3836 -0.5948 -0.6493
 6254SOL    MW424790   5.214   2.556   5.222 -0.0712  0.5144  0.7120
 6255SOL     OW24791   1.134   6.259   3.296  0.5136  0.5632  1.1633
 6255SOL    HW224792   1.039   6.263   3.286  0.5744  0.3606  0.5067
 6255SOL    HW324793   1.146   6.227   3.386 -0.0531 -0.6423  0.8370
 6255SOL    MW424794   1.123   6.255   3.307  0.4924  0.1365  0.5286
 6256SOL     OW24795   3.060   3.742   6.325 -0.1391  0.0685 -0.4726
 6256SOL    HW224796   2.983   3.794   6.304  0.1083  0.8661  0.5261
 6256SOL    HW324797   3.111   3.797   6.385  1.3777 -0.2926 -1.3718
 6256SOL    MW424798   3.057   3.756   6.330 -0.5169  0.2432 -0.7591
 6257SOL     OW24799   5.330   3.703   1.187 -0.0076  0.7760 -0.2269
 6257SOL    HW224800   5.242   3.668   1.199  0.5697 -1.0167 -0.9307
 6257SOL    HW324801   5.357   3.730   1.275 -0.6985 -0.0602  0.2549
 6257SOL    MW424802   5.322   3.702   1.200  0.1161  0.0291 -0.0341
 6258SOL     OW24803   3.968   3.710   5.032 -0.2854 -0.0533 -0.1614
 6258SOL    HW224804   3.881   3.704   4.993  0.0702  0.4488 -1.0706
 6258SOL    HW324805   3.991   3.803   5.025  0.1748 -0.1189  0.4041
 6258SOL    MW424806   3.960   3.721   5.026 -0.0031 -0.5746 -0.1528
 6259SOL     OW24807   0.734   1.998   1.487  0.8107 -0.4094 -0.1829
 6259SOL    HW224808   0.654   1.981   1.436  0.0340  1.1303  0.4469
 6259SOL    HW324809   0.803   1.951   1.440 -0.3121 -1.0791 -1.2311
 6259SOL    MW424810   0.732   1.989   1.474 -0.0827 -0.2913  0.7399
 6260SOL     OW24811   3.108   3.404   4.931  0.1258 -0.1538  0.2756
 6260SOL    HW224812   3.105   3.454   4.849 -1.0529  0.9724  0.9554
 6260SOL    HW324813   3.162   3.328   4.911  2.4568  1.6121 -0.6874
 6260SOL    MW424814   3.115   3.401   4.918 -0.6574  0.5245  0.0395
 6261SOL     OW24815   5.422   4.971   2.922  0.3101 -0.5384 -0.6824
 6261SOL    HW224816   5.431   5.030   2.997  0.5169 -1.0123 -0.3309
 6261SOL    HW324817   5.458   5.020   2.848 -2.1552  0.9503 -1.0303
 6261SOL    MW424818   5.428   4.985   2.922 -0.4579 -0.2292  0.1188
 6262SOL     OW24819   3.212   0.698   3.668 -0.2664  0.0597 -0.0841
 6262SOL    HW224820   3.221   0.620   3.723 -0.0704  0.4007  0.3809
 6262SOL    HW324821   3.272   0.761   3.708 -1.0051  0.7066  0.0189
 6262SOL    MW424822   3.221   0.696   3.681  0.2493  0.3615  0.4098
 6263SOL     OW24823   0.036   0.181   0.322  0.2572  0.4212  0.4212
 6263SOL    HW224824   0.049   0.265   0.364  1.5965  0.1340  0.6285
 6263SOL    HW324825   0.015   0.121   0.393  1.4792  0.1470  0.5603
 6263SOL    MW424826   0.035   0.184   0.337  0.1202 -0.0678 -0.3105
 6264SOL     OW24827   6.389   6.108   3.360 -0.3984  0.2482 -0.2020
 6264SOL    HW224828   6.310   6.151   3.328 -0.7839 -0.3410 -0.0557
 6264SOL    HW324829   6.431   6.173   3.417 -0.5740  0.6985 -0.5793
 6264SOL    MW424830   6.384   6.122   3.363 -0.1554  0.0364  0.1722
 6265SOL     OW24831   4.105   5.464   0.097  0.2042  0.1278  0.0304
 6265SOL    HW224832   4.075   5.538   0.044  0.0658  0.2774  0.3176
 6265SOL    HW324833   4.095   5.388   0.040 -0.6884  0.1788  0.1044
 6265SOL    MW424834   4.100   5.463   0.082 -0.0316  0.5635 -0.5956
 6266SOL     OW24835   0.942   5.983   3.676  0.6269 -0.1712  0.2559
 6266SOL    HW224836   0.965   5.894   3.702  3.1007  0.2923 -0.0550
 6266SOL    HW324837   0.951   6.035   3.756 -0.8275 -0.1528  0.4417
 6266SOL    MW424838   0.946   5.978   3.690 -0.3701  0.9095  0.6501
 6267SOL     OW24839   4.116   3.311   2.500  0.4664 -0.0524  0.2132
 6267SOL    HW224840   4.196   3.257   2.496 -0.3435 -1.3038  0.3766
 6267SOL    HW324841   4.139   3.390   2.451  1.2784 -1.1225 -1.2332
 6267SOL    MW424842   4.130   3.314   2.493  0.0261 -0.0586  0.6102
 6268SOL     OW24843   5.255   5.694   4.817 -0.3355 -0.0650 -0.3626
 6268SOL    HW224844   5.169   5.698   4.774  0.3448  1.9800 -1.6806
 6268SOL    HW324845   5.317   5.711   4.747  1.0114  0.7485  0.9846
 6268SOL    MW424846   5.252   5.697   4.802 -0.2571  0.1147 -0.2778
 6269SOL     OW24847   5.949   2.568   5.480  0.4507  0.1651  0.1478
 6269SOL    HW224848   6.016   2.501   5.472  0.5815  0.0869  1.6745
 6269SOL    HW324849   5.866   2.520   5.481  0.5459  0.0062  1.2798
 6269SOL    MW424850   5.947   2.553   5.479  0.0727 -0.3727  0.8359
 6270SOL     OW24851   1.793   5.647   1.645  0.0006 -0.7756 -1.2776
 6270SOL    HW224852   1.722   5.708   1.625  0.5503  0.8828  1.3478
 6270SOL    HW324853   1.752   5.561   1.646 -1.6298 -0.0226 -1.3368
 6270SOL    MW424854   1.778   5.644   1.643  0.5332 -0.4290  0.0937
 6271SOL     OW24855   2.597   3.732   5.511 -0.0670  0.6834 -0.8697
 6271SOL    HW224856   2.647   3.808   5.482  2.1469 -0.0298  0.8469
 6271SOL    HW324857   2.658   3.681   5.565 -1.9804 -1.4418 -0.5378
 6271SOL    MW424858   2.611   3.735   5.514  0.9093 -0.2655  0.2898
 6272SOL     OW24859   0.981   3.978   3.981  0.2515  0.1392  0.6997
 6272SOL    HW224860   1.010   3.951   4.068 -0.2988 -0.6940  0.6373
 6272SOL    HW324861   0.895   4.017   3.995 -0.4680 -1.2731  0.3775
 6272SOL    MW424862   0.973   3.979   3.994 -0.1462 -0.3551 -0.0406
 6273SOL     OW24863   2.071   1.203   2.130 -0.2534 -0.3451  0.3275
 6273SOL    HW224864   2.107   1.189   2.043  0.9386  0.9729  0.5748
 6273SOL    HW324865   2.093   1.293   2.152 -0.7970 -0.5453  1.8715
 6273SOL    MW424866   2.079   1.213   2.122  0.0600  0.2887 -0.8803
 6274SOL     OW24867   1.033   0.091   4.332  0.0085 -0.2796  0.2795
 6274SOL    HW224868   1.036  -0.005   4.340  1.7389 -0.1946  0.9846
 6274SOL    HW324869   0.940   0.111   4.322 -0.5654 -1.9116  1.8444
 6274SOL    MW424870   1.021   0.081   4.332 -0.3226 -0.6235  0.1513
 6275SOL     OW24871   4.008   2.473   5.824  0.1483  0.4232 -0.0427
 6275SOL    HW224872   3.977   2.537   5.761 -2.1305 -0.1243  0.4307
 6275SOL    HW324873   3.933   2.456   5.880  1.7235 -0.0347  2.0731
 6275SOL    MW424874   3.994   2.479   5.823 -0.4696  0.3701  0.4753
 6276SOL     OW24875   3.835   2.924   0.831  0.0258 -0.1915  0.3722
 6276SOL    HW224876   3.795   3.010   0.844  2.2508  0.7276  1.6541
 6276SOL    HW324877   3.761   2.864   0.821 -1.5803  1.9722 -1.5528
 6276SOL    MW424878   3.820   2.927   0.832 -0.2879  0.4842 -0.1425
 6277SOL     OW24879   5.025   5.040   4.751 -0.7648  0.2717  0.5802
 6277SOL    HW224880   5.069   5.025   4.834  3.3735 -0.1011 -1.4096
 6277SOL    HW324881   5.013   5.135   4.748  0.6359  0.4890  0.9636
 6277SOL    MW424882   5.029   5.051   4.761  0.0471 -0.2192  0.6117
 6278SOL     OW24883   2.239   2.100   3.344 -0.6623 -0.3007 -0.0004
 6278SOL    HW224884   2.324   2.059   3.328 -0.1425  0.2015  1.3042
 6278SOL    HW324885   2.180   2.057   3.283  0.2401 -1.6827  0.0417
 6278SOL    MW424886   2.243   2.089   3.334  0.1521  0.0775  0.3656
 6279SOL     OW24887   1.023   6.312   5.446  0.6192  0.2817  0.5673
 6279SOL    HW224888   0.981   6.231   5.474 -0.1512  0.0381 -1.1430
 6279SOL    HW324889   0.977   6.381   5.495 -1.0013 -0.0880 -0.3483
 6279SOL    MW424890   1.011   6.311   5.456  0.1301  0.2661  0.2294
 6280SOL     OW24891   5.039   1.340   4.879 -0.5600 -0.0763 -0.0757
 6280SOL    HW224892   5.104   1.270   4.885 -1.1168 -0.6704 -0.6217
 6280SOL    HW324893   4.960   1.302   4.918 -0.4243  0.8596  1.1621
 6280SOL    MW424894   5.037   1.325   4.885  0.1454 -0.1865  0.1987
 6281SOL     OW24895   4.851   1.595   0.619  0.1494  0.4806 -0.0082
 6281SOL    HW224896   4.800   1.531   0.667  0.1610  1.2041  1.0086
 6281SOL    HW324897   4.942   1.573   0.639  0.2593 -0.4805 -1.3916
 6281SOL    MW424898   4.857   1.584   0.628 -0.5158 -0.4868  0.0721
 6282SOL     OW24899   0.947   4.211   0.534  0.4484  0.0399  0.4118
 6282SOL    HW224900   0.865   4.181   0.574  0.8581 -1.0372  0.4735
 6282SOL    HW324901   0.948   4.170   0.447  0.8263  0.2152  0.3326
 6282SOL    MW424902   0.936   4.202   0.528  0.3601  0.2209  0.0157
 6283SOL     OW24903   4.212   0.983   3.890  0.5221 -0.3347 -0.2587
 6283SOL    HW224904   4.272   1.055   3.909  1.1432 -0.1897 -2.4986
 6283SOL    HW324905   4.153   1.018   3.824  0.5676 -1.7281 -1.0734
 6283SOL    MW424906   4.212   0.997   3.884 -0.3752 -0.0345 -0.1212
 6284SOL     OW24907   1.816   3.146   3.988  0.0667  0.4571 -0.4168
 6284SOL    HW224908   1.866   3.202   4.047 -0.0378  0.0842  0.0369
 6284SOL    HW324909   1.753   3.101   4.045  0.6638 -0.7093 -0.6280
 6284SOL    MW424910   1.814   3.147   4.003  0.0367  0.1899  0.3884
 6285SOL     OW24911   4.344   3.054   2.803 -0.1054 -0.0409  0.3914
 6285SOL    HW224912   4.430   3.077   2.839  0.8241 -2.4022 -0.1406
 6285SOL    HW324913   4.355   2.966   2.769 -2.2260  0.3257 -1.5032
 6285SOL    MW424914   4.357   3.046   2.803 -0.1675 -0.1512  0.6087
 6286SOL     OW24915   3.756   6.391   6.192  0.1900  0.0449 -0.0028
 6286SOL    HW224916   3.737   6.432   6.276  0.2153 -1.1229  0.5919
 6286SOL    HW324917   3.837   6.343   6.206  1.1837  1.2555 -1.2182
 6286SOL    MW424918   3.764   6.390   6.205  0.4653  0.9843 -0.4823
 6287SOL     OW24919   1.872   5.706   3.817  0.2783 -0.0636 -0.0322
 6287SOL    HW224920   1.967   5.702   3.827  0.0560 -1.8020  2.0279
 6287SOL    HW324921   1.850   5.628   3.768 -0.2285 -0.7356  1.2252
 6287SOL    MW424922   1.882   5.695   3.812 -0.7232  0.3085  0.1473
 6288SOL     OW24923   5.401   1.903   2.774  0.4102  0.4852  0.1104
 6288SOL    HW224924   5.418   1.810   2.788  0.5285  0.5246  0.2337
 6288SOL    HW324925   5.323   1.921   2.825  1.0946  0.7292  1.0967
 6288SOL    MW424926   5.393   1.893   2.783 -0.0378 -0.0088  0.3503
 6289SOL     OW24927   4.346   4.442   3.115  0.0132  0.2150 -0.0856
 6289SOL    HW224928   4.324   4.351   3.093 -0.1904  0.0918  0.6009
 6289SOL    HW324929   4.342   4.489   3.032  0.4698 -0.4738 -0.5123
 6289SOL    MW424930   4.343   4.436   3.101 -0.1378  0.1027 -0.1500
 6290SOL     OW24931   4.865   0.883   2.717 -0.1519  0.3684  0.9773
 6290SOL    HW224932   4.779   0.851   2.693  0.7621 -0.1441 -2.0999
 6290SOL    HW324933   4.876   0.962   2.664  2.0333 -0.7796 -0.4377
 6290SOL    MW424934   4.855   0.889   2.707  0.2298  0.1682 -0.2263
 6291SOL     OW24935   5.330   2.293   5.172  0.3201 -0.2546  0.3327
 6291SOL    HW224936   5.401   2.283   5.235 -0.3976 -0.7164  1.0884
 6291SOL    HW324937   5.290   2.377   5.194  0.2092 -0.3108  0.3462
 6291SOL    MW424938   5.334   2.303   5.183 -0.4349  0.0928  0.1221
 6292SOL     OW24939   3.407   5.400   2.961  0.4813  0.5147  0.1990
 6292SOL    HW224940   3.359   5.387   3.043  1.0810  2.9634  1.0114
 6292SOL    HW324941   3.367   5.337   2.900 -1.9827  0.6501  1.5373
 6292SOL    MW424942   3.395   5.390   2.964  0.4149 -0.2102  0.6873
 6293SOL     OW24943   1.256   4.921   4.151 -0.4903 -0.3033  0.1008
 6293SOL    HW224944   1.299   4.840   4.178  0.0673  0.4009  1.4256
 6293SOL    HW324945   1.214   4.953   4.231  0.3501  1.3425 -0.0836
 6293SOL    MW424946   1.256   4.914   4.166  0.0912  0.1483 -0.1267
 6294SOL     OW24947   1.652   3.533   6.413 -0.4758 -0.2955 -0.1895
 6294SOL    HW224948   1.711   3.507   6.483 -1.1364 -1.1491  0.0631
 6294SOL    HW324949   1.572   3.482   6.428 -1.0012  0.2713 -0.9648
 6294SOL    MW424950   1.649   3.523   6.424  0.1334  0.5955 -0.3933
 6295SOL     OW24951   3.549   5.605   0.129 -0.2324 -0.1926 -0.0159
 6295SOL    HW224952   3.487   5.676   0.147 -0.3217 -0.0664 -0.7711
 6295SOL    HW324953   3.608   5.605   0.204 -0.2542  0.6659  0.0115
 6295SOL    MW424954   3.548   5.615   0.141  0.2501  0.5561  0.3397
 6296SOL     OW24955   1.295   4.943   0.141 -0.6448  0.3931  0.3848
 6296SOL    HW224956   1.210   4.941   0.186 -0.1664  0.8565  1.3262
 6296SOL    HW324957   1.342   4.867   0.175 -2.1302 -2.4193 -3.1655
 6296SOL    MW424958   1.290   4.933   0.151 -0.4983  0.1455  0.3255
 6297SOL     OW24959   0.768   1.704   4.630 -0.6011  0.4736  0.5341
 6297SOL    HW224960   0.756   1.622   4.582  0.4688  0.5990  0.0333
 6297SOL    HW324961   0.827   1.681   4.701  2.0290  1.3551 -1.2304
 6297SOL    MW424962   0.774   1.690   4.633  0.5435 -0.4535 -0.7658
 6298SOL     OW24963   4.541   0.474   5.767  0.2323 -0.0306 -0.8421
 6298SOL    HW224964   4.539   0.566   5.793  1.6862  0.1089 -1.1567
 6298SOL    HW324965   4.462   0.463   5.713 -0.7332  0.6441  0.3758
 6298SOL    MW424966   4.530   0.485   5.763 -0.4460 -0.2667 -0.1094
 6299SOL     OW24967   3.117   3.575   5.705  0.0742 -0.1023 -0.2334
 6299SOL    HW224968   3.103   3.531   5.621 -2.5264 -0.1823  0.1459
 6299SOL    HW324969   3.145   3.506   5.764 -0.6549 -0.6035 -0.4492
 6299SOL    MW424970   3.119   3.560   5.701  0.3908 -0.2327  0.4448
 6300SOL     OW24971   0.653   3.367   2.666  0.1030 -0.6438 -0.1583
 6300SOL    HW224972   0.711   3.415   2.607 -0.5216  1.7953  1.0861
 6300SOL    HW324973   0.712   3.313   2.719  1.0400  0.2072 -0.3171
 6300SOL    MW424974   0.668   3.366   2.665  0.0906  0.0064  0.0878
 6301SOL     OW24975   1.882   4.906   3.207 -0.4903 -0.3607  0.1383
 6301SOL    HW224976   1.959   4.944   3.164 -0.3908 -1.0873 -0.3312
 6301SOL    HW324977   1.891   4.812   3.195 -0.9530 -0.5159  0.9380
 6301SOL    MW424978   1.893   4.899   3.200 -0.2609 -0.3546  0.1495
 6302SOL     OW24979   1.869   4.901   0.199 -0.2621 -0.2896 -0.2938
 6302SOL    HW224980   1.889   4.888   0.292  0.4116  1.2355 -0.1916
 6302SOL    HW324981   1.947   4.943   0.164 -1.2465  0.9109 -1.1137
 6302SOL    MW424982   1.882   4.905   0.207  0.1174 -0.5420 -0.3415
 6303SOL     OW24983   5.602   2.893   3.148 -0.1792 -0.4991 -0.3804
 6303SOL    HW224984   5.685   2.940   3.156 -0.7379  0.4616 -0.0344
 6303SOL    HW324985   5.553   2.941   3.082 -0.7969 -0.5315  0.0387
 6303SOL    MW424986   5.606   2.906   3.141  0.1215 -0.6664  0.7022
 6304SOL     OW24987   4.746   4.629   2.593 -0.6050  0.3075  0.0714
 6304SOL    HW224988   4.810   4.632   2.664  0.7630 -3.3161 -0.8204
 6304SOL    HW324989   4.777   4.693   2.529  1.2374 -0.2447  0.3704
 6304SOL    MW424990   4.758   4.638   2.594 -0.0691  0.2291 -0.4167
 6305SOL     OW24991   3.404   2.295   1.145  0.4979  0.0627 -0.7967
 6305SOL    HW224992   3.461   2.222   1.171  0.6862  0.7608  0.8661
 6305SOL    HW324993   3.465   2.363   1.116  0.8084  1.5878  2.9096
 6305SOL    MW424994   3.420   2.294   1.144 -0.2977 -0.1477 -0.0117
 6306SOL     OW24995   5.241   3.239   3.740 -0.0585 -0.8287 -0.4061
 6306SOL    HW224996   5.329   3.202   3.748  0.8717  0.8549 -2.1866
 6306SOL    HW324997   5.239   3.277   3.652 -0.7258  3.6901  1.3080
 6306SOL    MW424998   5.252   3.239   3.729  0.5356  0.3290 -0.1301
 6307SOL     OW24999   5.824   0.581   3.747  0.4947 -0.0155 -0.0890
 6307SOL    HW225000   5.849   0.602   3.837 -0.8310  3.7360 -0.4115
 6307SOL    HW325001   5.891   0.623   3.693 -0.5211  0.7242 -0.8180
 6307SOL    MW425002   5.836   0.589   3.752  0.1297  0.4080 -0.2938
 6308SOL     OW25003   0.825   5.724   0.058  0.2749 -0.2641  0.1888
 6308SOL    HW225004   0.868   5.639   0.073  3.4977  1.5027  2.2593
 6308SOL    HW325005   0.834   5.739  -0.036  1.7625 -1.2390  0.1393
 6308SOL    MW425006   0.832   5.714   0.048  0.3562  0.2360 -0.7227
 6309SOL     OW25007   6.303   2.563   3.484  0.1674 -0.0005 -0.1258
 6309SOL    HW225008   6.391   2.600   3.479  0.2898  0.0954  1.9837
 6309SOL    HW325009   6.304   2.490   3.422  1.3420  0.7137 -0.9845
 6309SOL    MW425010   6.315   2.558   3.475 -0.0750 -0.6222  0.3159
 6310SOL     OW25011   5.471   2.076   4.112  0.1742  0.0725 -0.8456
 6310SOL    HW225012   5.437   2.141   4.173 -1.8414 -0.7839 -0.9776
 6310SOL    HW325013   5.557   2.053   4.146 -0.9297 -0.4740  1.7817
 6310SOL    MW425014   5.478   2.081   4.124 -0.1212  0.1182  0.4939
 6311SOL     OW25015   0.158   4.314   0.370 -0.1517  0.2126  0.1183
 6311SOL    HW225016   0.182   4.328   0.461  0.7261 -0.1102 -0.0520
 6311SOL    HW325017   0.100   4.238   0.372  0.6282 -0.3983  0.3266
 6311SOL    MW425018   0.154   4.306   0.382 -0.2033 -0.6027 -0.1393
 6312SOL     OW25019   6.073   5.932   4.043 -0.5750 -0.0217 -0.0959
 6312SOL    HW225020   6.157   5.945   3.999  0.4947 -0.5829  1.6769
 6312SOL    HW325021   6.051   5.841   4.027  0.8883 -0.8512  2.1769
 6312SOL    MW425022   6.081   5.922   4.035 -0.7803  0.0878 -0.3804
 6313SOL     OW25023   1.588   5.485   6.082  0.0096 -0.3704 -0.2076
 6313SOL    HW225024   1.561   5.561   6.132 -0.1545 -0.1904 -0.5667
 6313SOL    HW325025   1.548   5.410   6.127  0.3486 -0.2675  0.2693
 6313SOL    MW425026   1.579   5.485   6.094 -0.4765  0.4488  0.2694
 6314SOL     OW25027   3.252   3.167   0.036 -0.4240 -0.3181 -0.7395
 6314SOL    HW225028   3.300   3.232  -0.016 -2.0759  1.2032 -0.4486
 6314SOL    HW325029   3.184   3.217   0.080 -0.3547 -1.9101  1.3126
 6314SOL    MW425030   3.249   3.182   0.035  0.0172 -0.9019 -0.2552
 6315SOL     OW25031   2.280   0.555   0.965  0.3929 -0.2780 -0.6413
 6315SOL    HW225032   2.236   0.506   1.034  2.5364 -0.2400  0.8783
 6315SOL    HW325033   2.318   0.488   0.908  0.3510 -0.3347 -0.6025
 6315SOL    MW425034   2.280   0.540   0.967  0.6734 -0.0473  0.1607
 6316SOL     OW25035   3.310   5.559   5.784 -0.1581  0.2203  0.0424
 6316SOL    HW225036   3.370   5.503   5.735  1.2915  1.5923  0.1904
 6316SOL    HW325037   3.282   5.625   5.721 -0.5524  0.3068  0.3039
 6316SOL    MW425038   3.314   5.560   5.769 -0.0243  0.0688 -0.2425
 6317SOL     OW25039   2.192   1.953   4.355 -0.2368  0.0292 -0.3700
 6317SOL    HW225040   2.118   2.009   4.329 -0.6473 -0.3970 -0.1189
 6317SOL    HW325041   2.158   1.864   4.350  0.9361 -0.3581 -2.5546
 6317SOL    MW425042   2.178   1.949   4.351 -0.0611 -0.1673 -0.1934
 6318SOL     OW25043   2.483   0.936   3.855  0.5513 -0.1773  0.2033
 6318SOL    HW225044   2.507   1.019   3.813  1.7013  0.0228  1.2086
 6318SOL    HW325045   2.466   0.959   3.946 -1.4323 -0.6882  0.0187
 6318SOL    MW425046   2.484   0.950   3.861 -0.3540 -0.5726 -0.0943
 6319SOL     OW25047   2.351   3.155   4.866  0.3043 -0.6608  0.5610
 6319SOL    HW225048   2.430   3.167   4.919  0.1303  0.0648  0.6658
 6319SOL    HW325049   2.280   3.149   4.930  0.2628 -1.3127  0.4676
 6319SOL    MW425050   2.352   3.156   4.881 -0.2845 -0.4899  0.1510
 6320SOL     OW25051   1.755   1.726   1.916  0.2372  0.1275 -0.6112
 6320SOL    HW225052   1.663   1.747   1.935  0.2857  0.0847 -0.3325
 6320SOL    HW325053   1.759   1.631   1.919  0.2608  0.1229 -0.7684
 6320SOL    MW425054   1.743   1.716   1.919  0.2710 -0.5929 -0.8000
 6321SOL     OW25055   1.338   0.516   6.104 -0.8113 -0.2097 -0.3221
 6321SOL    HW225056   1.419   0.544   6.062 -0.0158  1.0165  1.9012
 6321SOL    HW325057   1.277   0.503   6.031  0.5170  1.6351 -1.8618
 6321SOL    MW425058   1.341   0.518   6.089  0.1426 -0.1213 -0.1219
 6322SOL     OW25059   3.744   3.234   1.688  0.0556 -0.6058 -0.0296
 6322SOL    HW225060   3.679   3.229   1.618  0.5617 -2.8285 -0.3992
 6322SOL    HW325061   3.715   3.308   1.741  0.3320  2.0017 -3.1822
 6322SOL    MW425062   3.731   3.243   1.686 -0.5009 -0.0139  0.4198
 6323SOL     OW25063   5.647   1.058   5.467  0.0720  0.1823  0.0788
 6323SOL    HW225064   5.588   1.125   5.500 -1.2854 -1.3152  0.8294
 6323SOL    HW325065   5.718   1.056   5.531  1.0742  2.0513 -0.8759
 6323SOL    MW425066   5.649   1.067   5.480 -0.2539 -0.5343 -0.3020
 6324SOL     OW25067   5.442   3.861   2.055 -0.3353 -0.1473 -0.0352
 6324SOL    HW225068   5.390   3.917   1.998 -0.4435  0.2170  0.4184
 6324SOL    HW325069   5.399   3.866   2.140  0.4898  0.2392  0.3693
 6324SOL    MW425070   5.430   3.869   2.059 -0.2344  0.5839  0.3512
 6325SOL     OW25071   3.045   2.223   2.671 -0.3434  0.3457  0.2389
 6325SOL    HW225072   3.033   2.153   2.607 -0.5818  0.2660  0.3701
 6325SOL    HW325073   3.067   2.300   2.619  0.1845  0.1153  0.1104
 6325SOL    MW425074   3.047   2.224   2.656  0.0908  0.2208 -0.1089
 6326SOL     OW25075   2.221   1.424   0.698 -0.2487  0.2212  0.5203
 6326SOL    HW225076   2.259   1.363   0.761  1.1798 -1.6086 -1.9259
 6326SOL    HW325077   2.292   1.486   0.679  0.8719 -1.7396 -2.2467
 6326SOL    MW425078   2.236   1.424   0.704 -0.0295 -0.2327  0.0178
 6327SOL     OW25079   6.223   1.631   6.185  0.0926 -0.0044  0.2765
 6327SOL    HW225080   6.293   1.638   6.120  0.3937 -1.9480  0.3332
 6327SOL    HW325081   6.193   1.721   6.197 -1.6113  0.3334 -4.3155
 6327SOL    MW425082   6.228   1.644   6.178 -0.3266 -0.5101 -0.0644
 6328SOL     OW25083   6.195   4.872   3.825 -0.2443  0.0613  0.0654
 6328SOL    HW225084   6.183   4.819   3.904 -1.8202  0.6719  0.2752
 6328SOL    HW325085   6.123   4.844   3.767  0.5505  0.0306 -0.9302
 6328SOL    MW425086   6.184   4.861   3.827  0.2986  0.1799  0.1091
 6329SOL     OW25087   2.139   4.949   1.026 -0.1887  0.6149 -0.1318
 6329SOL    HW225088   2.173   4.945   0.937 -0.6439 -0.4114 -0.2754
 6329SOL    HW325089   2.081   4.873   1.033  1.1019 -0.2891  1.5513
 6329SOL    MW425090   2.136   4.939   1.015 -0.0207 -0.5452  0.0640
 6330SOL     OW25091   5.503   2.428   5.944 -0.5069 -0.7011  0.2961
 6330SOL    HW225092   5.447   2.365   5.899  0.6576 -2.5495  1.2923
 6330SOL    HW325093   5.490   2.410   6.037  0.1894  0.2363  0.5885
 6330SOL    MW425094   5.494   2.417   5.950  0.3839  0.1308 -0.1743
 6331SOL     OW25095   6.286   0.029   0.723 -0.2740  0.3457  0.4359
 6331SOL    HW225096   6.310  -0.020   0.801  2.3630  1.0585  0.1666
 6331SOL    HW325097   6.325   0.115   0.736 -1.1786  1.0001 -0.9617
 6331SOL    MW425098   6.294   0.034   0.735  0.0561 -0.0258  0.7155
 6332SOL     OW25099   2.435   2.324   4.431 -0.0589 -0.0191 -0.2044
 6332SOL    HW225100   2.406   2.266   4.360 -0.0990  0.1605 -0.3369
 6332SOL    HW325101   2.378   2.303   4.505  0.9884 -1.3122  0.2724
 6332SOL    MW425102   2.424   2.314   4.431  0.3539  0.1057 -0.0530
 6333SOL     OW25103   5.356   5.085   0.654 -0.0706  0.4595 -0.1534
 6333SOL    HW225104   5.319   5.001   0.682  1.5014 -0.0709  0.4639
 6333SOL    HW325105   5.431   5.098   0.712  0.9566  1.2777 -1.6260
 6333SOL    MW425106   5.361   5.076   0.666  0.0947  0.2058 -0.1144
 6334SOL     OW25107   0.294   0.094   2.648  0.2461  0.2427  0.5457
 6334SOL    HW225108   0.375   0.136   2.619  0.1269  0.4887  0.5708
 6334SOL    HW325109   0.316   0.056   2.733  0.4664 -0.0874  0.3432
 6334SOL    MW425110   0.308   0.094   2.655 -0.0954 -0.0742 -0.0026
 6335SOL     OW25111   6.271   5.738   2.697  0.1691  0.1995  0.2309
 6335SOL    HW225112   6.366   5.744   2.688  0.4624 -0.6242  2.2644
 6335SOL    HW325113   6.254   5.644   2.706 -0.6717  0.4330  1.2477
 6335SOL    MW425114   6.281   5.726   2.697  0.2511  0.1609  0.3418
 6336SOL     OW25115   3.892   2.553   3.117 -0.3785  0.5710  0.9096
 6336SOL    HW225116   3.876   2.498   3.194  0.4373 -1.5620 -0.3549
 6336SOL    HW325117   3.837   2.515   3.048  1.2022  0.4943 -0.3560
 6336SOL    MW425118   3.882   2.541   3.118 -0.6172  0.0574  0.0243
 6337SOL     OW25119   0.282   1.548   0.977 -0.3443 -0.2092  0.2142
 6337SOL    HW225120   0.308   1.612   0.911  0.0785 -2.1519 -1.5937
 6337SOL    HW325121   0.190   1.569   0.995  0.4861  2.5865  1.7742
 6337SOL    MW425122   0.273   1.559   0.971 -0.3380 -0.3395 -0.0556
 6338SOL     OW25123   1.910   1.094   3.248 -0.2164 -0.0980  0.1781
 6338SOL    HW225124   1.955   1.011   3.259  0.8641  0.3526 -0.6475
 6338SOL    HW325125   1.969   1.159   3.287  0.2688  0.5947 -1.5922
 6338SOL    MW425126   1.924   1.092   3.255  0.4804  0.5247 -0.3430
 6339SOL     OW25127   1.418   5.633   1.593  0.0675  0.0289 -0.1581
 6339SOL    HW225128   1.391   5.623   1.684 -1.2008 -0.1485 -0.5353
 6339SOL    HW325129   1.337   5.620   1.542  1.0262 -1.4948 -1.3964
 6339SOL    MW425130   1.404   5.630   1.598 -0.2900  0.2667  0.0139
 6340SOL     OW25131   1.494   6.337   1.436  0.1738 -0.7225 -0.4898
 6340SOL    HW225132   1.498   6.348   1.532  1.5918 -3.2340 -0.1842
 6340SOL    HW325133   1.402   6.355   1.414 -0.0606  0.4917  1.2352
 6340SOL    MW425134   1.482   6.341   1.446  0.6112  0.1452  0.0647
 6341SOL     OW25135   4.723   1.744   2.827  0.3028  0.0966 -0.1580
 6341SOL    HW225136   4.816   1.762   2.822  0.6257 -1.6823 -1.2158
 6341SOL    HW325137   4.711   1.706   2.914  0.8660 -1.1015 -0.5820
 6341SOL    MW425138   4.733   1.741   2.838  0.0453  0.3387  0.2732
 6342SOL     OW25139   4.590   5.385   5.372  0.2876  0.2672  0.7187
 6342SOL    HW225140   4.558   5.303   5.334 -1.4789 -0.1972  2.9624
 6342SOL    HW325141   4.683   5.370   5.387  0.8456  0.1175 -2.2909
 6342SOL    MW425142   4.598   5.372   5.369 -0.2159 -0.6800 -0.4128
 6343SOL     OW25143   2.350   5.702   5.222 -0.2102 -0.0714 -0.2912
 6343SOL    HW225144   2.290   5.646   5.272  0.5765 -0.4363  0.2719
 6343SOL    HW325145   2.310   5.708   5.135 -0.6354 -0.9941 -0.1772
 6343SOL    MW425146   2.337   5.695   5.217  0.5693  0.2672  0.2562
 6344SOL     OW25147   6.002   0.141   0.387 -0.0899  0.2455  0.4115
 6344SOL    HW225148   6.084   0.093   0.374 -0.0691  0.3478  0.1640
 6344SOL    HW325149   5.940   0.075   0.417 -0.3754 -0.1733 -1.0394
 6344SOL    MW425150   6.004   0.126   0.389 -0.4947  0.5056 -0.4099
 6345SOL     OW25151   3.221   4.125   4.180 -0.4139  0.4269 -0.0375
 6345SOL    HW225152   3.300   4.163   4.218 -1.5228  1.4982  1.3052
 6345SOL    HW325153   3.202   4.181   4.104  0.5413 -0.3460 -0.8868
 6345SOL    MW425154   3.229   4.138   4.175  0.1792  0.0097  0.4331
 6346SOL     OW25155   0.072   5.955   5.420  0.0674 -0.1649  0.5580
 6346SOL    HW225156   0.141   5.889   5.413  1.0517  0.9719 -1.0741
 6346SOL    HW325157   0.093   6.019   5.353 -2.4140  0.3968  0.2072
 6346SOL    MW425158   0.084   5.954   5.410  0.0498  0.1216  0.2145
 6347SOL     OW25159   5.562   1.380   1.966 -0.5018 -0.2579  0.3715
 6347SOL    HW225160   5.557   1.475   1.955 -0.4091 -0.1337  1.2965
 6347SOL    HW325161   5.634   1.353   1.909 -0.8240  0.1641 -0.2408
 6347SOL    MW425162   5.571   1.389   1.957 -0.0726 -0.2159  0.3426
 6348SOL     OW25163   2.628   3.440   2.942 -0.2845 -0.0051 -0.7135
 6348SOL    HW225164   2.619   3.357   2.894 -0.9982  0.3189 -1.1602
 6348SOL    HW325165   2.667   3.500   2.878  1.8560 -0.4208  0.1152
 6348SOL    MW425166   2.632   3.437   2.927  0.1312 -0.3509  0.2014
 6349SOL     OW25167   4.672   1.561   1.952 -0.0380  0.9120  0.0899
 6349SOL    HW225168   4.629   1.644   1.970 -1.3078 -0.1172  2.1811
 6349SOL    HW325169   4.765   1.581   1.953 -0.3296  2.3848  0.0229
 6349SOL    MW425170   4.678   1.574   1.954 -0.0172 -0.6886  0.0625
 6350SOL     OW25171   4.619   2.400   6.003  0.0711  0.4275  0.2470
 6350SOL    HW225172   4.672   2.328   5.971 -1.6770 -0.1521 -1.5428
 6350SOL    HW325173   4.559   2.360   6.065 -1.9037 -0.0577 -1.8466
 6350SOL    MW425174   4.618   2.385   6.007  0.3745  0.8904  0.1283
 6351SOL     OW25175   1.905   5.211   1.793  0.9280 -0.2916  0.0785
 6351SOL    HW225176   1.943   5.124   1.777 -3.0009 -2.2748  0.2229
 6351SOL    HW325177   1.910   5.222   1.888  2.2469  0.1649 -0.0112
 6351SOL    MW425178   1.911   5.201   1.803  0.0816 -0.4172 -0.5307
 6352SOL     OW25179   4.537   5.906   3.112  0.3987 -0.2572 -0.6767
 6352SOL    HW225180   4.509   5.985   3.159  1.5502 -0.6579  0.7658
 6352SOL    HW325181   4.456   5.867   3.080 -0.5223 -0.2547  1.4975
 6352SOL    MW425182   4.522   5.911   3.114  0.4149 -0.3920  0.3344
 6353SOL     OW25183   4.545   6.253   5.119  0.0163 -0.2862  0.3737
 6353SOL    HW225184   4.572   6.181   5.063  0.4504  0.4239 -0.3480
 6353SOL    HW325185   4.452   6.237   5.137 -0.6510  0.4407 -2.0866
 6353SOL    MW425186   4.536   6.241   5.114 -0.1151  0.3184 -0.0621
 6354SOL     OW25187   1.381   6.119   5.981  0.2321  0.5821  0.3253
 6354SOL    HW225188   1.338   6.091   5.900 -1.1416  0.8393  0.9350
 6354SOL    HW325189   1.450   6.178   5.953  1.3177 -1.1366 -0.7986
 6354SOL    MW425190   1.384   6.123   5.967 -0.0215 -0.3012 -0.2623
 6355SOL     OW25191   0.441   1.161   4.413  0.3618 -0.2028  0.5772
 6355SOL    HW225192   0.367   1.173   4.472  1.4475 -0.7888  2.1195
 6355SOL    HW325193   0.473   1.250   4.397 -1.9840  0.3450 -2.0171
 6355SOL    MW425194   0.435   1.174   4.418  0.0218 -0.2104  0.0074
 6356SOL     OW25195   0.279   2.984   1.521 -0.2139  0.0674  0.3975
 6356SOL    HW225196   0.223   2.918   1.480  1.2136 -0.5197 -0.6902
 6356SOL    HW325197   0.325   2.935   1.590 -1.0408  0.5664  1.3433
 6356SOL    MW425198   0.278   2.969   1.525  0.1169 -0.4004  0.4093
 6357SOL     OW25199   4.039   5.120   3.102 -0.3199 -0.2425  0.1255
 6357SOL    HW225200   3.976   5.082   3.041  1.7661 -0.8189 -1.7917
 6357SOL    HW325201   4.073   5.196   3.055 -0.0040  0.4099  1.3864
 6357SOL    MW425202   4.035   5.125   3.088  0.4110 -0.4547 -0.7330
 6358SOL     OW25203   0.441   2.826   1.228 -0.4845 -0.4826 -0.0049
 6358SOL    HW225204   0.516   2.782   1.269  1.5749  1.2813 -1.6340
 6358SOL    HW325205   0.414   2.891   1.293  0.2709 -0.2609  0.1012
 6358SOL    MW425206   0.448   2.829   1.242 -0.1056  0.0637  0.7391
 6359SOL     OW25207   1.049   3.572   1.345  0.3461  0.0684  0.0896
 6359SOL    HW225208   1.060   3.544   1.255  0.0611  0.4474 -0.0644
 6359SOL    HW325209   1.047   3.668   1.341  0.7380  0.1018  0.5407
 6359SOL    MW425210   1.050   3.581   1.333  0.3913  0.0238 -0.1812
 6360SOL     OW25211   5.641   3.243   2.366  0.2604  0.5571  0.0294
 6360SOL    HW225212   5.557   3.246   2.320  0.7445  1.6265 -0.8267
 6360SOL    HW325213   5.696   3.307   2.321  1.0141  1.1001  1.6376
 6360SOL    MW425214   5.638   3.252   2.354  0.0128 -0.6154  0.0504
 6361SOL     OW25215   4.350   0.319   1.572 -0.1361 -0.9048 -0.0171
 6361SOL    HW225216   4.283   0.386   1.578 -0.2641 -0.8502 -1.6899
 6361SOL    HW325217   4.319   0.248   1.629 -0.2028  0.2419  1.4311
 6361SOL    MW425218   4.337   0.318   1.581 -0.1143  0.6041  0.3228
 6362SOL     OW25219   0.389   2.522   4.854  0.1567  0.3049  0.1854
 6362SOL    HW225220   0.481   2.497   4.865 -0.0058  0.1884  1.3909
 6362SOL    HW325221   0.364   2.560   4.938 -0.7781  0.7413 -0.2764
 6362SOL    MW425222   0.398   2.523   4.866  0.3094 -0.1298  0.5185
 6363SOL     OW25223   4.182   2.295   1.162 -0.6356  0.2543 -0.6758
 6363SOL    HW225224   4.218   2.264   1.078  1.5955  0.4679  0.1191
 6363SOL    HW325225   4.238   2.368   1.186 -1.6017  0.5713  0.7388
 6363SOL    MW425226   4.194   2.300   1.154 -0.2856  0.2504  0.3277
 6364SOL     OW25227   3.029   4.747   1.758  0.2596 -0.1596  0.5047
 6364SOL    HW225228   3.112   4.780   1.722 -0.4848  1.0652 -0.1392
 6364SOL    HW325229   3.053   4.665   1.802  1.8178  0.1991  0.3734
 6364SOL    MW425230   3.043   4.740   1.759  0.5070 -0.5062 -0.0145
 6365SOL     OW25231   5.549   4.330   3.731 -0.1305 -0.5036  0.5289
 6365SOL    HW225232   5.497   4.341   3.651 -0.3180 -0.7130  0.6198
 6365SOL    HW325233   5.504   4.261   3.779  0.2661 -0.7237  0.5861
 6365SOL    MW425234   5.536   4.322   3.727  0.2428  0.4325 -0.4185
 6366SOL     OW25235   6.148   0.679   5.566 -0.1500  0.1776 -0.7701
 6366SOL    HW225236   6.187   0.741   5.627 -0.3702  0.1503 -0.6003
 6366SOL    HW325237   6.094   0.733   5.508 -1.4970 -0.0005  0.2772
 6366SOL    MW425238   6.146   0.694   5.566 -0.0526  0.1069  0.1151
 6367SOL     OW25239   0.187   3.121   0.179  0.4225 -1.0130  0.2933
 6367SOL    HW225240   0.147   3.202   0.149  0.4418 -1.2701 -0.4547
 6367SOL    HW325241   0.160   3.055   0.114 -1.6802 -2.1749  2.1996
 6367SOL    MW425242   0.179   3.123   0.166  0.4354  0.6430  0.2685
 6368SOL     OW25243   5.179   1.382   4.539 -0.1441 -0.4507  0.4133
 6368SOL    HW225244   5.122   1.331   4.597  0.2471 -0.7732  0.5120
 6368SOL    HW325245   5.241   1.426   4.597 -0.1819 -0.2312  0.2918
 6368SOL    MW425246   5.179   1.381   4.554 -0.2709  0.0187 -0.1517
 6369SOL     OW25247   0.556   2.665   5.166  0.0333 -0.3887  0.5087
 6369SOL    HW225248   0.538   2.611   5.243  1.2390 -0.0499  1.0467
 6369SOL    HW325249   0.586   2.748   5.201  1.0013 -0.3729 -0.3168
 6369SOL    MW425250   0.558   2.669   5.181  0.4110  0.4099 -0.3200
 6370SOL     OW25251   2.689   2.902   0.882  0.4036  0.0986 -0.2295
 6370SOL    HW225252   2.671   2.808   0.879  1.6023 -0.1748  0.5985
 6370SOL    HW325253   2.721   2.922   0.794 -0.7037 -0.0716 -0.6853
 6370SOL    MW425254   2.691   2.892   0.870 -0.3958 -0.3564  0.1304
 6371SOL     OW25255   6.065   1.394   2.180  0.3719  0.4341  0.3683
 6371SOL    HW225256   6.063   1.301   2.205 -3.2091  0.6185  1.2980
 6371SOL    HW325257   6.061   1.392   2.084 -1.7157 -0.4652  0.4213
 6371SOL    MW425258   6.064   1.381   2.171 -0.1465 -0.0565  0.0513
 6372SOL     OW25259   3.182   1.439   1.841  0.2892 -0.2377  0.2558
 6372SOL    HW225260   3.119   1.367   1.835  0.0695 -0.0320  0.0521
 6372SOL    HW325261   3.129   1.518   1.831  0.5443 -0.0531  0.3550
 6372SOL    MW425262   3.166   1.440   1.839  0.5382 -0.2708 -0.1473
 6373SOL     OW25263   5.525   4.835   0.819  0.0680 -0.6063 -0.1739
 6373SOL    HW225264   5.542   4.764   0.881  3.2541  1.9367  2.2538
 6373SOL    HW325265   5.485   4.904   0.873  1.1877  1.0219 -1.3416
 6373SOL    MW425266   5.522   4.835   0.834  0.6950  0.1575 -0.3575
 6374SOL     OW25267   5.217   0.240   4.687 -0.1751 -0.0241  0.0153
 6374SOL    HW225268   5.286   0.178   4.709  0.2422  0.1951 -0.6549
 6374SOL    HW325269   5.136   0.194   4.709  0.1851 -0.1391  1.1681
 6374SOL    MW425270   5.215   0.226   4.693 -0.0621  0.0139 -0.4450
 6375SOL     OW25271   3.122   5.401   3.536 -0.1742 -0.4531  0.8080
 6375SOL    HW225272   3.173   5.321   3.546  1.5247  0.5025  0.0495
 6375SOL    HW325273   3.150   5.457   3.608 -1.2182 -0.4404  1.2262
 6375SOL    MW425274   3.132   5.397   3.547  0.3560 -0.4281 -0.5693
 6376SOL     OW25275   4.723   3.267   4.491 -0.3210  0.0880  0.3625
 6376SOL    HW225276   4.713   3.200   4.559 -0.5704  1.2155  1.4777
 6376SOL    HW325277   4.728   3.218   4.409 -3.5346 -1.2101  0.7946
 6376SOL    MW425278   4.722   3.252   4.489 -0.5421 -0.0300 -0.2170
 6377SOL     OW25279   5.608   0.873   3.628 -0.3474 -0.3269  0.7588
 6377SOL    HW225280   5.672   0.805   3.606  0.7773  1.2636 -1.1939
 6377SOL    HW325281   5.569   0.897   3.544  0.5747  2.6411  1.0787
 6377SOL    MW425282   5.612   0.867   3.614  0.4399  0.4642 -0.0179
 6378SOL     OW25283   5.633   1.717   1.116  0.4923 -0.3739 -0.0126
 6378SOL    HW225284   5.646   1.667   1.036  2.2402 -1.0027  0.6209
 6378SOL    HW325285   5.663   1.805   1.096  0.5268 -0.4207 -0.1625
 6378SOL    MW425286   5.638   1.722   1.103 -0.5223 -0.4814  0.8838
 6379SOL     OW25287   4.090   0.651   0.324 -0.1309 -0.0173 -0.0128
 6379SOL    HW225288   4.015   0.592   0.324 -0.2583  0.0387  2.5118
 6379SOL    HW325289   4.157   0.604   0.374  0.8491  0.7292 -0.5896
 6379SOL    MW425290   4.089   0.637   0.330 -0.2620  0.3560 -0.3360
 6380SOL     OW25291   1.286   3.234   4.111  0.4109  0.0901  0.8670
 6380SOL    HW225292   1.333   3.255   4.031 -0.1796  0.1424  0.5305
 6380SOL    HW325293   1.317   3.147   4.135  0.2799 -0.0984  0.3547
 6380SOL    MW425294   1.296   3.226   4.104 -0.1672 -0.0199  0.7033
 6381SOL     OW25295   0.353   3.625   2.701 -0.3382  0.7719 -0.4885
 6381SOL    HW225296   0.259   3.640   2.711 -0.6247 -0.8227 -0.6318
 6381SOL    HW325297   0.382   3.595   2.787  0.4843  3.1995  0.1744
 6381SOL    MW425298   0.345   3.623   2.714  0.0096  0.0490  0.8878
 6382SOL     OW25299   6.123   2.043   2.223 -0.2035  0.3586 -0.1965
 6382SOL    HW225300   6.107   1.990   2.145 -2.8112 -0.3919  0.7314
 6382SOL    HW325301   6.103   1.984   2.296  1.6488  1.1999  1.0643
 6382SOL    MW425302   6.118   2.028   2.222 -0.4809  0.4922  0.2635
 6383SOL     OW25303   1.279   6.308   2.703  0.5017  0.2524 -0.5577
 6383SOL    HW225304   1.306   6.260   2.782 -0.9485 -1.7063 -1.1814
 6383SOL    HW325305   1.326   6.264   2.632 -0.7223 -0.1738 -1.1194
 6383SOL    MW425306   1.289   6.296   2.704 -0.5978  0.3223  0.2158
 6384SOL     OW25307   1.824   5.259   6.321 -0.4233 -0.0650  0.3888
 6384SOL    HW225308   1.883   5.251   6.396 -1.6937  1.5919  1.6385
 6384SOL    HW325309   1.738   5.269   6.360 -1.2219  0.0846 -1.3459
 6384SOL    MW425310   1.821   5.259   6.336  0.1087 -0.5295 -0.4934
 6385SOL     OW25311   1.599   4.112   3.568  0.0704  0.2574  0.2798
 6385SOL    HW225312   1.611   4.100   3.473 -0.6835  1.1034  0.0506
 6385SOL    HW325313   1.687   4.127   3.602  0.3125  0.3582 -0.3640
 6385SOL    MW425314   1.612   4.113   3.560 -0.1890 -0.5397 -0.4647
 6386SOL     OW25315   3.060   3.982   5.153 -0.6178 -0.4863 -0.3819
 6386SOL    HW225316   3.098   4.013   5.235 -1.4722 -0.6016  0.0692
 6386SOL    HW325317   3.126   3.922   5.118  0.6655  1.0950 -0.8171
 6386SOL    MW425318   3.074   3.978   5.159  0.2227 -0.5527  0.4839
 6387SOL     OW25319   5.871   3.642   2.493 -0.7141 -0.1930 -0.2460
 6387SOL    HW225320   5.876   3.737   2.492 -0.5473 -0.1046  2.4866
 6387SOL    HW325321   5.956   3.613   2.525 -1.0279 -1.2192 -0.2898
 6387SOL    MW425322   5.883   3.650   2.497 -0.1105 -0.1529  0.2202
 6388SOL     OW25323   6.419   5.591   6.120 -0.2213 -0.0067 -0.1981
 6388SOL    HW225324   6.487   5.529   6.095  1.0734  0.8176  1.0695
 6388SOL    HW325325   6.464   5.653   6.178 -2.2111  0.1833  1.2537
 6388SOL    MW425326   6.434   5.591   6.124  0.5908 -0.5665  0.1254
 6389SOL     OW25327   5.955   4.780   5.389 -0.1466  0.2253 -0.2928
 6389SOL    HW225328   6.027   4.812   5.444  0.2663  2.3544 -1.9491
 6389SOL    HW325329   5.957   4.835   5.311 -3.1360 -0.1006 -0.7371
 6389SOL    MW425330   5.965   4.792   5.386 -0.5048  0.3877  0.0185
 6390SOL     OW25331   1.838   5.647   2.319  0.0479 -0.4480 -0.4568
 6390SOL    HW225332   1.840   5.641   2.223 -1.4632  1.3791 -0.6600
 6390SOL    HW325333   1.745   5.634   2.341  0.3155 -0.4227  0.7268
 6390SOL    MW425334   1.826   5.644   2.309  0.8509  0.2180 -0.1253
 6391SOL     OW25335   5.625   2.271   1.821 -0.2514  0.3485  0.9732
 6391SOL    HW225336   5.612   2.229   1.906  1.0616 -0.2407  0.9126
 6391SOL    HW325337   5.658   2.359   1.842  1.0710 -0.1526  1.0965
 6391SOL    MW425338   5.628   2.277   1.835  0.0015 -0.2886 -0.2959
 6392SOL     OW25339   3.211   1.894   0.921 -0.0582  0.3961  0.5548
 6392SOL    HW225340   3.252   1.978   0.942  0.5827  0.1425  0.3249
 6392SOL    HW325341   3.155   1.913   0.845  1.9095  0.1235 -1.0244
 6392SOL    MW425342   3.209   1.908   0.914  0.4465 -0.0413 -0.0112
 6393SOL     OW25343   0.524   0.587   1.449  0.1256 -0.7503 -0.0462
 6393SOL    HW225344   0.477   0.597   1.532 -1.5005 -2.0086 -0.7687
 6393SOL    HW325345   0.501   0.499   1.419  0.7265 -0.3357 -1.8158
 6393SOL    MW425346   0.515   0.577   1.456 -0.2806  0.2219 -0.7631
 6394SOL     OW25347   3.703   1.907   0.152 -0.6151 -0.2647 -0.0352
 6394SOL    HW225348   3.641   1.895   0.225  0.7366 -1.3766  0.9841
 6394SOL    HW325349   3.718   2.002   0.149 -0.7395 -0.1886  1.1190
 6394SOL    MW425350   3.697   1.918   0.162 -0.1053 -0.0535  0.4660
 6395SOL     OW25351   0.043   3.645   3.742  0.2107 -0.5888  0.3288
 6395SOL    HW225352  -0.041   3.669   3.781 -0.6314 -0.7513 -1.2996
 6395SOL    HW325353   0.063   3.718   3.683  0.3972 -1.2907 -0.4942
 6395SOL    MW425354   0.035   3.658   3.739  0.2814  0.5201  0.3598
 6396SOL     OW25355   2.181   3.651   0.993  0.0472  0.3992 -0.4503
 6396SOL    HW225356   2.181   3.606   0.909 -0.0720 -1.4293  0.4803
 6396SOL    HW325357   2.239   3.726   0.980  2.1838 -1.2928 -1.4542
 6396SOL    MW425358   2.189   3.655   0.980  0.0128  0.1250 -0.2788
 6397SOL     OW25359   2.125   2.733   1.175 -0.0220 -0.5621 -0.2435
 6397SOL    HW225360   2.185   2.679   1.123  0.1686  0.0517 -0.6772
 6397SOL    HW325361   2.182   2.784   1.232 -0.2706 -1.8488  1.2095
 6397SOL    MW425362   2.140   2.732   1.175  0.3068  0.3040 -0.2697
 6398SOL     OW25363   3.154   5.434   1.613 -0.0089  0.3397  0.1114
 6398SOL    HW225364   3.066   5.472   1.607 -0.1629  0.0791  0.6372
 6398SOL    HW325365   3.156   5.368   1.544 -0.3272  0.1607  0.2691
 6398SOL    MW425366   3.143   5.430   1.603 -0.4842  0.3695  0.3445
 6399SOL     OW25367   2.869   4.287   1.404 -0.6483 -1.3621  0.2901
 6399SOL    HW225368   2.824   4.369   1.423  0.2932 -0.2103 -2.0936
 6399SOL    HW325369   2.962   4.310   1.400 -0.5473 -1.9054 -2.9508
 6399SOL    MW425370   2.875   4.301   1.406 -0.0033 -0.5139  0.1408
 6400SOL     OW25371   3.354   0.348   6.297  0.0966  0.3885  0.6038
 6400SOL    HW225372   3.394   0.275   6.250  0.0334 -0.3078  1.5882
 6400SOL    HW325373   3.269   0.314   6.326 -0.6596  1.4270 -0.3686
 6400SOL    MW425374   3.348   0.334   6.295 -0.3193 -0.3172 -0.7255
 6401SOL     OW25375   5.191   3.921   4.391  0.0822  0.0649 -0.0907
 6401SOL    HW225376   5.182   3.874   4.308  1.5974  0.7389 -0.6614
 6401SOL    HW325377   5.107   3.967   4.401 -0.2512 -0.2941 -1.0574
 6401SOL    MW425378   5.178   3.921   4.381 -0.0181  0.2845 -0.1180
 6402SOL     OW25379   1.487   1.333   5.087 -0.2650  0.2590  0.3374
 6402SOL    HW225380   1.408   1.347   5.035 -0.4675 -0.2495  0.4996
 6402SOL    HW325381   1.531   1.259   5.045 -0.4770 -0.2134  0.9308
 6402SOL    MW425382   1.482   1.325   5.075 -0.3316 -0.1715  0.2960
 6403SOL     OW25383   3.088   0.265   1.412 -0.3529  0.2752 -0.3359
 6403SOL    HW225384   3.165   0.210   1.423 -1.1979 -0.4695  3.2342
 6403SOL    HW325385   3.113   0.348   1.453 -0.9590  0.5674 -0.5546
 6403SOL    MW425386   3.102   0.269   1.419  0.2218 -0.0145 -0.1662
 6404SOL     OW25387   0.317   5.793   4.864 -0.1989  0.4635  0.3312
 6404SOL    HW225388   0.390   5.793   4.802 -0.6610 -0.8261 -0.2339
 6404SOL    HW325389   0.248   5.743   4.821 -0.7048 -0.0542  1.6798
 6404SOL    MW425390   0.318   5.787   4.850 -0.1229  0.4484  0.0428
 6405SOL     OW25391   0.473   5.549   2.410  0.1197 -0.1599 -0.5999
 6405SOL    HW225392   0.496   5.597   2.330 -0.4057 -0.6627 -1.0578
 6405SOL    HW325393   0.380   5.566   2.422  0.2731  0.2073  0.1127
 6405SOL    MW425394   0.464   5.558   2.401  0.6260  0.3147 -0.4372
 6406SOL     OW25395   1.183   0.499   5.868  0.1675  0.3883 -0.2073
 6406SOL    HW225396   1.132   0.418   5.858 -0.0097  0.4804 -0.0701
 6406SOL    HW325397   1.120   0.569   5.849  0.4325  0.4780 -0.7533
 6406SOL    MW425398   1.168   0.498   5.864 -0.0153 -0.2959  0.3115
 6407SOL     OW25399   3.075   4.596   0.529 -0.4192  0.4304  0.2411
 6407SOL    HW225400   3.160   4.559   0.554 -1.0725 -0.9557  0.4639
 6407SOL    HW325401   3.080   4.603   0.433  0.2854  1.2755  0.3183
 6407SOL    MW425402   3.087   4.592   0.520 -0.7473 -0.0782  0.2408
 6408SOL     OW25403   3.052   1.737   5.110  0.5871 -0.0635  0.4002
 6408SOL    HW225404   3.027   1.685   5.034  1.8879 -0.2296  0.0451
 6408SOL    HW325405   3.127   1.789   5.079  1.7413 -0.8124  1.8024
 6408SOL    MW425406   3.059   1.737   5.096  0.0301 -0.2751 -0.2236
 6409SOL     OW25407   4.204   2.753   3.600 -0.1917 -0.5112  0.1850
 6409SOL    HW225408   4.119   2.710   3.609 -0.6046  0.5171  1.4457
 6409SOL    HW325409   4.238   2.759   3.690  1.5514 -1.5465 -0.3632
 6409SOL    MW425410   4.197   2.748   3.613  0.1892 -0.4886  0.0237
 6410SOL     OW25411   4.723   1.631   3.100  0.3495  0.6092  0.0412
 6410SOL    HW225412   4.771   1.714   3.106 -0.3607  0.9571  1.3338
 6410SOL    HW325413   4.673   1.627   3.181 -0.8829 -0.3251 -0.7389
 6410SOL    MW425414   4.723   1.642   3.111  0.0253  0.1040  0.1376
 6411SOL     OW25415   3.418   5.742   3.436 -0.8865  0.1297 -0.1669
 6411SOL    HW225416   3.369   5.822   3.418  0.6997  1.1579 -0.1226
 6411SOL    HW325417   3.438   5.746   3.529 -0.9502 -0.4199 -0.1259
 6411SOL    MW425418   3.414   5.753   3.446  0.4863 -0.1895  0.4937
 6412SOL     OW25419   0.941   1.896   5.958 -0.5286  0.2632 -0.2011
 6412SOL    HW225420   1.026   1.923   5.923 -0.0388  1.4953  1.7828
 6412SOL    HW325421   0.884   1.971   5.944 -0.1502  1.0544  2.0540
 6412SOL    MW425422   0.945   1.909   5.951  0.5038  0.5536 -0.3090
 6413SOL     OW25423   2.207   6.245   4.121  0.1809  0.7744  0.1283
 6413SOL    HW225424   2.281   6.267   4.063  0.6814 -1.5187 -0.1676
 6413SOL    HW325425   2.235   6.276   4.207  1.9857 -0.8984  0.2232
 6413SOL    MW425426   2.221   6.252   4.125 -0.1123 -0.0095 -0.0591
 6414SOL     OW25427   4.722   5.661   1.945 -0.0831 -0.1042 -0.0132
 6414SOL    HW225428   4.662   5.730   1.916  1.1915  1.2003  0.3056
 6414SOL    HW325429   4.787   5.656   1.875  0.4307 -0.2239  0.4679
 6414SOL    MW425430   4.723   5.670   1.932 -0.1087 -0.5233 -0.4715
 6415SOL     OW25431   1.026   1.746   0.453 -0.3771  0.1243  0.2565
 6415SOL    HW225432   0.943   1.710   0.421  0.9574 -2.7504 -0.2921
 6415SOL    HW325433   1.079   1.757   0.374  1.4821 -3.0521  0.8849
 6415SOL    MW425434   1.022   1.742   0.438 -0.0365 -0.0225  0.3935
 6416SOL     OW25435   4.787   6.098   2.978  0.3615  0.7138  0.7562
 6416SOL    HW225436   4.816   6.146   2.901  0.8776  2.8813  2.2237
 6416SOL    HW325437   4.726   6.032   2.943  1.6761  0.6291 -1.6194
 6416SOL    MW425438   4.783   6.095   2.963  0.1427  0.2334  0.0437
 6417SOL     OW25439   0.917   3.682   3.178 -0.0932 -0.3649  0.6641
 6417SOL    HW225440   1.010   3.670   3.159  0.5924  1.9994  2.1261
 6417SOL    HW325441   0.875   3.676   3.092  1.8220  1.5132 -0.5227
 6417SOL    MW425442   0.924   3.680   3.164 -0.1388  0.4823 -0.1987
 6418SOL     OW25443   2.219   2.948   2.124 -0.3749  0.4672 -0.1872
 6418SOL    HW225444   2.230   3.041   2.106  2.7018 -0.0987 -1.9296
 6418SOL    HW325445   2.197   2.944   2.218 -3.1030  2.9466 -0.5621
 6418SOL    MW425446   2.217   2.960   2.134  0.1704  0.4040  0.2645
 6419SOL     OW25447   2.124   2.622   0.655 -0.0471 -0.1816 -0.0775
 6419SOL    HW225448   2.061   2.679   0.611  0.4349 -0.5043 -1.2051
 6419SOL    HW325449   2.083   2.535   0.653 -0.5275 -0.0107  1.1397
 6419SOL    MW425450   2.110   2.618   0.649  0.3323  0.2577 -0.0503
 6420SOL     OW25451   2.473   3.871   1.823 -0.3849  0.1818 -0.4679
 6420SOL    HW225452   2.415   3.895   1.896 -1.4851 -2.1725 -0.4946
 6420SOL    HW325453   2.561   3.879   1.860 -0.9214 -0.9945  1.1809
 6420SOL    MW425454   2.477   3.875   1.838  0.1508 -0.2162  0.2339
 6421SOL     OW25455   1.157   1.455   5.506  0.5044 -0.3662 -0.4114
 6421SOL    HW225456   1.166   1.433   5.414 -1.3304  0.5199 -0.8483
 6421SOL    HW325457   1.087   1.398   5.538  0.8810 -0.4231  0.3459
 6421SOL    MW425458   1.149   1.445   5.498  0.7874  0.2153 -0.1638
 6422SOL     OW25459   4.702   3.404   2.249 -0.3186  0.2486 -0.0792
 6422SOL    HW225460   4.613   3.398   2.284 -0.0482  0.6647  0.7133
 6422SOL    HW325461   4.711   3.496   2.225  0.3447  0.5068  1.1011
 6422SOL    MW425462   4.691   3.416   2.250 -0.1187  0.8270 -0.1380
 6423SOL     OW25463   5.433   1.420   1.129 -0.1622 -0.2725 -0.3800
 6423SOL    HW225464   5.433   1.507   1.169  0.6168 -0.0329 -0.8769
 6423SOL    HW325465   5.368   1.370   1.179 -3.2438  1.5820 -2.2557
 6423SOL    MW425466   5.424   1.425   1.141 -0.9095  1.0963 -0.1150
 6424SOL     OW25467   6.045   3.297   1.205 -0.1293 -0.0358 -0.2585
 6424SOL    HW225468   6.008   3.382   1.230 -1.0205 -0.7620  0.9835
 6424SOL    HW325469   6.051   3.248   1.287 -0.9470 -1.6792 -1.1382
 6424SOL    MW425470   6.041   3.302   1.219 -0.2221 -0.3811  0.1319
 6425SOL     OW25471   1.609   5.090   0.699  0.4719 -0.2002  0.3198
 6425SOL    HW225472   1.562   5.015   0.737  0.5841  0.0262  0.9037
 6425SOL    HW325473   1.669   5.050   0.636  1.3112 -0.7098  1.4004
 6425SOL    MW425474   1.611   5.075   0.695 -0.0952  0.2061  0.6373
 6426SOL     OW25475   0.908   0.777   5.977  0.6483 -0.1639  0.6603
 6426SOL    HW225476   0.923   0.728   5.896  1.0272 -1.2834  1.3822
 6426SOL    HW325477   0.817   0.757   6.000  0.2113  0.9691 -0.0020
 6426SOL    MW425478   0.898   0.768   5.969  0.1825 -0.5271 -0.2772
 6427SOL     OW25479   0.229   5.380   3.846 -0.2354  0.1362 -0.8187
 6427SOL    HW225480   0.297   5.392   3.780 -0.4108 -3.0146 -1.7282
 6427SOL    HW325481   0.161   5.444   3.822  2.0934  3.1707 -0.0576
 6427SOL    MW425482   0.229   5.390   3.834  0.0291 -0.3917 -0.0822
 6428SOL     OW25483   5.599   2.049   6.192  0.2844  0.9407 -0.5844
 6428SOL    HW225484   5.547   2.081   6.265 -0.1800  0.3206 -0.6320
 6428SOL    HW325485   5.537   2.001   6.137  0.8705  0.3298 -0.7290
 6428SOL    MW425486   5.584   2.047   6.194  0.2773 -0.4405  0.1729
 6429SOL     OW25487   5.733   5.546   3.362 -0.0088  0.0290 -0.4348
 6429SOL    HW225488   5.729   5.479   3.294  1.4510 -1.0424  0.4720
 6429SOL    HW325489   5.663   5.522   3.423  0.9760 -1.1740  0.2757
 6429SOL    MW425490   5.723   5.534   3.361  0.2305 -0.7764  0.1790
 6430SOL     OW25491   2.564   1.731   2.713 -0.1679 -0.3670  0.0989
 6430SOL    HW225492   2.559   1.821   2.745  0.7090 -0.2571 -0.0632
 6430SOL    HW325493   2.600   1.739   2.625 -0.1750 -0.8744  0.0478
 6430SOL    MW425494   2.568   1.744   2.705 -0.4246 -0.2175  0.2639
 6431SOL     OW25495   3.082   4.969   4.179 -0.2061 -0.3141 -0.0987
 6431SOL    HW225496   3.128   4.956   4.096  0.3920 -0.6952  0.2833
 6431SOL    HW325497   2.992   4.943   4.161  0.1839 -1.6094 -0.3190
 6431SOL    MW425498   3.077   4.964   4.166 -0.0808 -0.0582  0.4246
 6432SOL     OW25499   3.943   3.755   0.346  0.1037 -0.0255 -0.0175
 6432SOL    HW225500   3.924   3.712   0.429  1.8788  1.7132  1.3776
 6432SOL    HW325501   3.858   3.775   0.308 -0.7419 -2.0778  0.6740
 6432SOL    MW425502   3.930   3.752   0.352 -0.0903  0.4871  0.2540
 6433SOL     OW25503   5.020   4.325   4.419  0.3340  0.3065 -0.0836
 6433SOL    HW225504   5.071   4.314   4.499 -1.3429 -1.4290  0.8394
 6433SOL    HW325505   5.085   4.338   4.350  1.8647  0.9491  1.4025
 6433SOL    MW425506   5.035   4.326   4.421  0.8536  0.0408  0.2809
 6434SOL     OW25507   3.083   3.108   6.074  0.0335  0.8503  0.3803
 6434SOL    HW225508   3.074   3.129   5.980 -0.4713 -0.6397  0.0607
 6434SOL    HW325509   3.176   3.093   6.086  0.1247  1.2112  0.1492
 6434SOL    MW425510   3.094   3.108   6.063  0.1565  0.3564 -0.2008
 6435SOL     OW25511   4.689   3.520   6.135  0.4385 -0.0485  0.8761
 6435SOL    HW225512   4.646   3.538   6.218 -1.9810 -1.1455 -0.0405
 6435SOL    HW325513   4.646   3.578   6.072  1.3827 -0.0864  0.1716
 6435SOL    MW425514   4.678   3.530   6.138  0.1444 -0.0146  0.2756
 6436SOL     OW25515   3.476   6.261   6.219  0.1222  0.2953  0.0990
 6436SOL    HW225516   3.528   6.290   6.144 -0.8520  0.1460 -0.6500
 6436SOL    HW325517   3.515   6.305   6.294  1.7973 -0.3845 -0.3289
 6436SOL    MW425518   3.488   6.271   6.219  0.3839 -0.0849  0.3371
 6437SOL     OW25519   1.050   0.597   0.891  0.0826 -0.0771 -0.1692
 6437SOL    HW225520   1.002   0.677   0.870 -0.0442 -0.4389 -1.3120
 6437SOL    HW325521   1.011   0.530   0.835  1.5289 -0.5077 -0.7145
 6437SOL    MW425522   1.039   0.599   0.881 -0.3881  0.1874 -0.0439
 6438SOL     OW25523   2.855   4.987   4.761 -0.4041  0.3543  0.2986
 6438SOL    HW225524   2.863   4.892   4.772 -1.2071  0.2210 -0.1214
 6438SOL    HW325525   2.780   4.997   4.702 -0.4695  1.2597  0.5250
 6438SOL    MW425526   2.846   4.976   4.755  0.3795 -0.0885 -0.4457
 6439SOL     OW25527   4.437   4.640   4.187  0.2013  0.1124  0.1078
 6439SOL    HW225528   4.471   4.615   4.273  0.6300 -1.3598 -0.4533
 6439SOL    HW325529   4.342   4.644   4.199  0.1962 -0.8481  0.4909
 6439SOL    MW425530   4.429   4.637   4.200  0.4010  0.6932  0.2154
 6440SOL     OW25531   0.319   2.191   2.611  0.7904  0.2578 -0.1511
 6440SOL    HW225532   0.393   2.251   2.614  1.6028 -0.6176 -1.4085
 6440SOL    HW325533   0.316   2.152   2.698  2.7902 -0.7743 -0.4734
 6440SOL    MW425534   0.329   2.194   2.623  0.1492  0.1972 -0.3183
 6441SOL     OW25535   1.190   2.472   3.121 -0.1048 -0.3829  0.1257
 6441SOL    HW225536   1.188   2.566   3.137 -1.4660 -0.3099 -0.2800
 6441SOL    HW325537   1.236   2.436   3.197 -1.1135  0.4778  1.2062
 6441SOL    MW425538   1.196   2.480   3.133  0.4378 -0.4896 -0.1816
 6442SOL     OW25539   5.797   6.201   4.375 -0.2360 -0.4665  0.4826
 6442SOL    HW225540   5.862   6.185   4.444 -2.6028  0.8995  3.2522
 6442SOL    HW325541   5.773   6.293   4.386  0.0098  0.1381 -2.9568
 6442SOL    MW425542   5.802   6.211   4.386 -0.4350 -0.3277 -0.5004
 6443SOL     OW25543   4.135   3.229   1.777 -0.6385 -0.0291 -0.3455
 6443SOL    HW225544   4.073   3.274   1.719  0.3870 -0.2727 -1.6745
 6443SOL    HW325545   4.092   3.230   1.863 -0.9767  2.8607 -0.4575
 6443SOL    MW425546   4.121   3.235   1.780  0.0726 -0.0385  0.0225
 6444SOL     OW25547   0.790   0.985   3.590 -0.3261  0.3544 -0.8483
 6444SOL    HW225548   0.875   0.946   3.612 -1.1073 -0.4602  0.9353
 6444SOL    HW325549   0.808   1.038   3.512  1.7278 -0.0887 -0.7522
 6444SOL    MW425550   0.804   0.987   3.582 -0.0258 -0.5695  0.0780
 6445SOL     OW25551   3.508   0.485   3.744 -0.8649  0.0713  0.3151
 6445SOL    HW225552   3.456   0.440   3.677 -0.6164  0.0078  0.1602
 6445SOL    HW325553   3.447   0.546   3.785 -1.1469 -0.2392  0.3649
 6445SOL    MW425554   3.493   0.487   3.740  0.2996 -0.1592  0.3527
 6446SOL     OW25555   3.031   3.492   6.437  0.8255 -0.0948 -0.5961
 6446SOL    HW225556   3.013   3.441   6.359 -1.2027  0.2345 -0.3851
 6446SOL    HW325557   3.033   3.583   6.407  0.8597 -0.0259 -0.3881
 6446SOL    MW425558   3.029   3.497   6.423 -0.0416  0.2232 -0.0274
 6447SOL     OW25559   4.160   0.416   1.298  0.4878  0.1523  0.1348
 6447SOL    HW225560   4.123   0.433   1.385  1.9278 -1.7212  1.1906
 6447SOL    HW325561   4.212   0.336   1.310  1.5247  0.4093 -2.2279
 6447SOL    MW425562   4.162   0.408   1.311 -0.1164  0.0435  0.4404
 6448SOL     OW25563   4.115   4.465   3.337 -0.3605 -0.2229  0.6534
 6448SOL    HW225564   4.126   4.546   3.288  0.2339 -0.2349  0.7556
 6448SOL    HW325565   4.190   4.411   3.312 -0.3353 -0.4364  1.1728
 6448SOL    MW425566   4.126   4.468   3.328 -0.0661  0.2384 -0.0638
 6449SOL     OW25567   1.253   4.333   4.407 -0.0038 -0.1745  0.2716
 6449SOL    HW225568   1.252   4.246   4.448  1.7520 -0.7672 -0.8114
 6449SOL    HW325569   1.338   4.337   4.364 -1.1327  1.0309 -1.9813
 6449SOL    MW425570   1.264   4.322   4.407 -0.1550 -0.0311 -0.5049
 6450SOL     OW25571   0.369   5.081   2.305 -0.1462  0.0823 -0.4235
 6450SOL    HW225572   0.277   5.105   2.318  0.2005  1.4949 -0.3687
 6450SOL    HW325573   0.382   5.003   2.359 -1.7062 -1.1097 -1.6913
 6450SOL    MW425574   0.359   5.074   2.314 -0.4156  0.2294  0.0145
 6451SOL     OW25575   5.665   6.225   1.993  0.3733 -0.4756  0.2665
 6451SOL    HW225576   5.581   6.205   2.034  0.2483 -1.2245 -0.3236
 6451SOL    HW325577   5.698   6.140   1.964  0.8537 -0.0691 -0.4125
 6451SOL    MW425578   5.658   6.211   1.994 -0.2769  0.3009 -0.0037
 6452SOL     OW25579   3.548   5.594   6.028  0.5562  0.0067  0.1161
 6452SOL    HW225580   3.514   5.517   5.983 -1.6023  0.8441  0.1821
 6452SOL    HW325581   3.605   5.560   6.096  1.1387 -1.4213 -1.0337
 6452SOL    MW425582   3.551   5.580   6.031 -0.2054 -0.0123 -0.1410
 6453SOL     OW25583   6.279   3.332   3.730  0.9491  0.4455  1.2416
 6453SOL    HW225584   6.287   3.237   3.728 -0.7765  0.2706 -0.2838
 6453SOL    HW325585   6.336   3.364   3.660  1.4265  0.5254  1.6658
 6453SOL    MW425586   6.287   3.324   3.721  0.1898 -0.2484  0.3907
 6454SOL     OW25587   4.596   0.981   1.418  0.5610 -0.2302  0.0084
 6454SOL    HW225588   4.576   0.970   1.511 -0.2363 -0.0280 -0.1364
 6454SOL    HW325589   4.609   1.075   1.407  3.2716 -0.4535  0.4138
 6454SOL    MW425590   4.595   0.992   1.429  0.9816  0.2455  0.4102
 6455SOL     OW25591   3.352   5.466   3.700 -0.1547  0.0226 -0.1932
 6455SOL    HW225592   3.413   5.423   3.640 -1.9561 -0.2334 -1.9651
 6455SOL    HW325593   3.402   5.480   3.780  1.8921 -1.0731 -1.2092
 6455SOL    MW425594   3.366   5.462   3.702  0.1964  0.0591  0.4968
 6456SOL     OW25595   3.198   2.530   0.688  0.5078  0.4364 -0.3171
 6456SOL    HW225596   3.178   2.561   0.600  2.1046 -1.4359 -1.4458
 6456SOL    HW325597   3.117   2.542   0.737 -0.8401  0.3958 -2.3878
 6456SOL    MW425598   3.185   2.536   0.683 -0.4244  0.0740  0.3157
 6457SOL     OW25599   5.777   1.120   5.194 -0.1586 -0.0668 -0.4972
 6457SOL    HW225600   5.702   1.148   5.246  1.2324 -0.4828  1.8608
 6457SOL    HW325601   5.741   1.103   5.107 -2.3291  2.1329 -0.1458
 6457SOL    MW425602   5.763   1.122   5.189 -0.0474  0.1070  0.3452
 6458SOL     OW25603   0.208   5.397   2.249 -0.1978 -0.1389 -0.0745
 6458SOL    HW225604   0.277   5.405   2.184  0.1510  1.1634  0.4197
 6458SOL    HW325605   0.225   5.468   2.311 -0.0752 -1.7513  1.8591
 6458SOL    MW425606   0.219   5.408   2.249 -0.1116  0.0708  0.0947
 6459SOL     OW25607   0.236   3.608   2.395  0.7379 -0.1745 -0.2269
 6459SOL    HW225608   0.236   3.703   2.410 -0.7921 -0.1305 -0.3173
 6459SOL    HW325609   0.212   3.599   2.302 -0.4065 -0.6537  0.0933
 6459SOL    MW425610   0.233   3.619   2.385  0.2910 -0.2968  0.4355
 6460SOL     OW25611   6.232   4.231   6.095  0.5350 -0.1555 -0.5178
 6460SOL    HW225612   6.226   4.327   6.097  0.9956 -0.0929 -1.6772
 6460SOL    HW325613   6.240   4.209   6.003 -2.0257 -1.5058 -0.5011
 6460SOL    MW425614   6.232   4.241   6.083  0.1618 -0.0964 -0.2370
 6461SOL     OW25615   5.318   2.390   3.647  0.3261 -0.4899  0.5486
 6461SOL    HW225616   5.230   2.426   3.651 -0.0282 -1.3795  0.8287
 6461SOL    HW325617   5.337   2.360   3.736  1.1897  0.3210  0.6629
 6461SOL    MW425618   5.309   2.391   3.659 -0.3339  0.4128 -0.3965
 6462SOL     OW25619   6.060   2.823   0.815  0.0429  0.3232 -0.1701
 6462SOL    HW225620   6.148   2.861   0.807  0.5248 -0.8598 -0.7410
 6462SOL    HW325621   6.008   2.891   0.858  1.1344  1.2022 -0.2027
 6462SOL    MW425622   6.065   2.837   0.819  0.1413  0.0976 -0.2139
 6463SOL     OW25623   3.028   5.518   3.295  0.0410 -0.2492 -0.4541
 6463SOL    HW225624   3.060   5.504   3.384  2.3309 -0.3472 -1.2366
 6463SOL    HW325625   2.995   5.608   3.295  2.2434  0.6007 -0.0962
 6463SOL    MW425626   3.028   5.528   3.307 -0.5768 -0.1557  0.0511
 6464SOL     OW25627   1.640   2.451   0.563  0.4561 -0.5081 -0.7481
 6464SOL    HW225628   1.570   2.514   0.546 -0.2072 -1.4766 -1.7887
 6464SOL    HW325629   1.606   2.368   0.528  0.5249 -1.8855  2.1200
 6464SOL    MW425630   1.626   2.448   0.556  0.1530  0.4788 -0.6823
 6465SOL     OW25631   0.611   2.303   6.018 -0.1102 -0.0385 -0.1634
 6465SOL    HW225632   0.523   2.300   6.056 -0.0090 -0.3384  0.0541
 6465SOL    HW325633   0.658   2.369   6.071 -0.6831  1.3732 -1.3433
 6465SOL    MW425634   0.606   2.312   6.030 -0.0624 -0.3131 -0.2170
 6466SOL     OW25635   1.611   2.677   5.460 -0.2797  0.1912 -0.2767
 6466SOL    HW225636   1.614   2.695   5.554  0.8119  1.3797 -0.5014
 6466SOL    HW325637   1.703   2.660   5.436 -0.4369  0.6077 -1.2417
 6466SOL    MW425638   1.624   2.677   5.469  0.0485  0.3990 -0.2039
 6467SOL     OW25639   4.438   1.611   4.389 -0.1602  0.0356  0.4778
 6467SOL    HW225640   4.360   1.659   4.358 -0.6171 -0.7455  0.3958
 6467SOL    HW325641   4.410   1.569   4.470 -0.0260 -0.7702  0.1188
 6467SOL    MW425642   4.424   1.612   4.395 -0.1754 -0.1387  0.1860
 6468SOL     OW25643   4.795   1.137   5.676 -0.1729 -0.0380  0.3858
 6468SOL    HW225644   4.740   1.140   5.754  0.6203  0.7008  0.9435
 6468SOL    HW325645   4.860   1.069   5.694 -0.7905 -0.7997 -0.2034
 6468SOL    MW425646   4.796   1.129   5.688 -0.5446 -0.1435 -0.0849
 6469SOL     OW25647   5.799   5.670   5.114  0.5145 -0.4202  0.2885
 6469SOL    HW225648   5.885   5.687   5.153  0.8903 -0.4683 -0.5050
 6469SOL    HW325649   5.750   5.750   5.128  1.1676  0.1355 -0.5095
 6469SOL    MW425650   5.804   5.683   5.121 -0.3023  0.6456  0.2167
 6470SOL     OW25651   1.481   1.539   2.522  0.4072  0.3555  0.3830
 6470SOL    HW225652   1.407   1.507   2.574 -0.5093  0.2088 -0.9704
 6470SOL    HW325653   1.493   1.629   2.551  0.3791  0.0648  1.3398
 6470SOL    MW425654   1.473   1.547   2.533  0.4281  0.4596 -0.0693
 6471SOL     OW25655   1.732   4.534   1.027  0.3336 -0.5059  0.5331
 6471SOL    HW225656   1.810   4.520   1.080  0.1750 -1.8194  0.4519
 6471SOL    HW325657   1.732   4.463   0.964 -0.5439 -0.0989  0.0484
 6471SOL    MW425658   1.742   4.523   1.026 -0.1160  0.0273 -0.1579
 6472SOL     OW25659   2.448   1.623   3.048 -0.2538  0.0718 -0.0591
 6472SOL    HW225660   2.523   1.564   3.057 -0.3249 -0.2504 -1.3724
 6472SOL    HW325661   2.375   1.565   3.025 -0.5270  0.5650 -0.4508
 6472SOL    MW425662   2.448   1.607   3.046 -0.3613  0.4547  0.1272
 6473SOL     OW25663   3.939   4.441   3.103  0.3836  0.5191 -0.2545
 6473SOL    HW225664   3.979   4.433   3.189  1.1082  1.2790 -0.5104
 6473SOL    HW325665   4.008   4.416   3.041  0.4278  1.6339 -0.6862
 6473SOL    MW425666   3.953   4.437   3.106  0.0732  0.2438  0.0475
 6474SOL     OW25667   4.720   0.751   4.119 -0.2613  0.2524 -0.1135
 6474SOL    HW225668   4.685   0.819   4.061 -1.4965  1.6352  2.1170
 6474SOL    HW325669   4.643   0.718   4.166  0.7561 -0.4926  1.0749
 6474SOL    MW425670   4.705   0.755   4.118 -0.2631  0.5931 -0.1964
 6475SOL     OW25671   0.340   5.723   0.413  0.4351  0.3942  0.1024
 6475SOL    HW225672   0.366   5.777   0.487 -0.7353  1.4068 -0.2014
 6475SOL    HW325673   0.249   5.748   0.395  0.4877 -0.2970 -1.2632
 6475SOL    MW425674   0.331   5.733   0.420  0.3233 -0.1668  0.5009
 6476SOL     OW25675   5.577   3.585   4.452 -0.3207 -0.3807  0.2064
 6476SOL    HW225676   5.598   3.551   4.365 -1.3796 -0.2467 -0.1222
 6476SOL    HW325677   5.486   3.558   4.466  0.2996 -1.7381  1.9313
 6476SOL    MW425678   5.568   3.577   4.442 -0.4758  0.5905 -0.2427
 6477SOL     OW25679   4.280   4.320   2.647 -0.2002 -0.8460  0.1725
 6477SOL    HW225680   4.327   4.330   2.730 -0.4023 -0.1834  0.2166
 6477SOL    HW325681   4.349   4.310   2.582  0.0294  0.4320  0.1961
 6477SOL    MW425682   4.295   4.320   2.650  0.3551  0.0572  0.2586
 6478SOL     OW25683   4.307   4.536   1.342 -0.2837  0.2939 -0.3097
 6478SOL    HW225684   4.214   4.542   1.319  0.0361 -0.7469 -2.0236
 6478SOL    HW325685   4.340   4.464   1.288  0.8119 -1.6029  2.6365
 6478SOL    MW425686   4.299   4.527   1.332 -0.5577 -0.4603  0.3246
 6479SOL     OW25687   3.371   4.303   2.723  0.4542  0.0794  0.6129
 6479SOL    HW225688   3.294   4.265   2.767 -0.0299  0.3098 -0.0368
 6479SOL    HW325689   3.423   4.339   2.795 -0.4630  0.6913  0.9879
 6479SOL    MW425690   3.368   4.303   2.739  0.5789  0.3816  0.0843
 6480SOL     OW25691   1.256   0.926   3.622  0.2975 -0.3884  0.1376
 6480SOL    HW225692   1.306   0.996   3.662  0.2535  1.1810 -2.3612
 6480SOL    HW325693   1.180   0.915   3.679  1.2393  0.2685  1.5662
 6480SOL    MW425694   1.252   0.933   3.635 -0.1875  0.3023  0.7382
 6481SOL     OW25695   2.842   0.776   3.370 -0.3909  0.1831 -0.6423
 6481SOL    HW225696   2.855   0.721   3.293 -0.4278 -0.4501 -0.2113
 6481SOL    HW325697   2.908   0.745   3.433 -1.3090 -0.3272  0.1045
 6481SOL    MW425698   2.852   0.765   3.368 -0.0173  0.2323 -0.1517
 6482SOL     OW25699   4.998   1.704   2.877  0.2124  0.1457  0.4874
 6482SOL    HW225700   5.077   1.698   2.929  0.9133 -0.9396 -0.6595
 6482SOL    HW325701   5.028   1.732   2.791 -0.4379 -1.6239 -0.3619
 6482SOL    MW425702   5.012   1.707   2.873  0.7749  0.0792 -0.2153
 6483SOL     OW25703   0.168   1.315   3.677 -0.4722  0.3121 -0.4982
 6483SOL    HW225704   0.075   1.307   3.698 -0.3753 -0.0802 -0.2047
 6483SOL    HW325705   0.211   1.328   3.761 -0.2327  0.2105 -0.6026
 6483SOL    MW425706   0.161   1.316   3.691 -0.2793 -0.1527 -0.4624
 6484SOL     OW25707   2.975   2.323   5.096 -0.0898 -0.1465  0.1549
 6484SOL    HW225708   3.038   2.284   5.035  1.0304  1.0328  0.5131
 6484SOL    HW325709   2.926   2.249   5.130  0.6535 -1.0343 -0.6433
 6484SOL    MW425710   2.977   2.308   5.092  0.4091 -0.2183  0.0895
 6485SOL     OW25711   0.546   2.255   5.517  0.2749  0.0112  0.3310
 6485SOL    HW225712   0.497   2.174   5.530 -1.0564  0.9544  1.5028
 6485SOL    HW325713   0.598   2.264   5.597 -0.7810  1.0613  0.9407
 6485SOL    MW425714   0.546   2.245   5.529 -0.2553 -0.0826 -0.2975
 6486SOL     OW25715   1.759   4.155   4.969 -0.1063 -0.1677 -0.0393
 6486SOL    HW225716   1.808   4.228   4.932 -1.0771 -0.0946 -1.2681
 6486SOL    HW325717   1.825   4.089   4.989  0.4695 -0.4509 -2.5463
 6486SOL    MW425718   1.774   4.156   4.967  0.7615  0.0966 -0.2125
 6487SOL     OW25719   3.615   1.188   2.021 -0.5071 -0.4119 -0.1502
 6487SOL    HW225720   3.626   1.122   1.953  0.5508  1.7446 -2.2041
 6487SOL    HW325721   3.537   1.237   1.994  0.3913  0.9778 -0.3377
 6487SOL    MW425722   3.606   1.186   2.008 -0.3699  0.0913  0.2972
 6488SOL     OW25723   5.982   4.661   2.332 -0.2121  0.5917  0.7687
 6488SOL    HW225724   5.978   4.625   2.243  2.0735 -3.2724  1.9370
 6488SOL    HW325725   6.043   4.735   2.325 -0.8430  0.9885 -1.0093
 6488SOL    MW425726   5.990   4.666   2.320 -0.0823  0.0819 -0.4516
 6489SOL     OW25727   1.159   4.241   5.472  0.5167 -0.2753 -0.0879
 6489SOL    HW225728   1.136   4.215   5.383  1.4909 -0.4602 -0.3069
 6489SOL    HW325729   1.097   4.194   5.528 -0.7751  0.6446 -0.6933
 6489SOL    MW425730   1.148   4.231   5.468  0.2039  0.6396 -0.2714
 6490SOL     OW25731   6.164   1.621   5.137  0.1798 -0.4699 -0.3173
 6490SOL    HW225732   6.073   1.635   5.163  0.1192 -1.1868 -0.1303
 6490SOL    HW325733   6.209   1.597   5.218  0.3707 -0.8995 -0.5479
 6490SOL    MW425734   6.158   1.620   5.151 -0.4181  0.1003  0.4038
 6491SOL     OW25735   4.531   3.690   5.917  0.5721 -0.3565  0.6140
 6491SOL    HW225736   4.459   3.736   5.959  2.4080  0.3493  3.2873
 6491SOL    HW325737   4.567   3.753   5.855  0.5369  0.2942  1.2456
 6491SOL    MW425738   4.526   3.704   5.914 -0.1270  0.0653 -0.1075
 6492SOL     OW25739   0.767   3.147   6.275  0.0063 -0.0640  0.4016
 6492SOL    HW225740   0.725   3.078   6.223 -0.7909  1.7583 -1.5709
 6492SOL    HW325741   0.835   3.182   6.217  1.7560 -0.4590  2.1261
 6492SOL    MW425742   0.771   3.142   6.260  0.1268  0.5856  0.0787
 6493SOL     OW25743   3.121   5.860   5.008  0.4472  0.2023 -0.0296
 6493SOL    HW225744   3.039   5.820   4.979 -0.2109  1.8239 -0.5673
 6493SOL    HW325745   3.104   5.886   5.099  0.2597  0.7295 -0.2069
 6493SOL    MW425746   3.108   5.858   5.016  0.0007  0.2538 -0.0496
 6494SOL     OW25747   6.018   0.538   4.423  0.0935 -0.2772  0.1328
 6494SOL    HW225748   6.053   0.583   4.347 -0.9768 -0.8965 -0.7670
 6494SOL    HW325749   5.965   0.604   4.468  0.5600  0.0342  0.2260
 6494SOL    MW425750   6.015   0.553   4.419  0.1387 -0.4651 -0.1947
 6495SOL     OW25751   3.307   6.188   5.175 -0.2259  0.5565 -0.0643
 6495SOL    HW225752   3.383   6.191   5.117  1.6659 -0.2329  2.2253
 6495SOL    HW325753   3.324   6.254   5.242 -2.0743  1.0713 -0.0309
 6495SOL    MW425754   3.319   6.197   5.176  0.7343 -0.6460  0.2612
 6496SOL     OW25755   0.906   2.210   5.970 -0.0356  0.2033 -0.2260
 6496SOL    HW225756   0.994   2.249   5.968 -0.2534  0.6820 -1.6670
 6496SOL    HW325757   0.897   2.175   6.059  1.2682  0.9398  0.2224
 6496SOL    MW425758   0.916   2.211   5.982 -1.1355 -0.3319  0.7258
 6497SOL     OW25759   6.370   5.126   1.348 -0.4183 -0.1209 -0.6469
 6497SOL    HW225760   6.435   5.123   1.278 -0.4776 -0.4703 -0.6915
 6497SOL    HW325761   6.381   5.043   1.395 -3.6424 -2.3268 -3.2438
 6497SOL    MW425762   6.380   5.114   1.345 -0.8284 -0.0564  0.2726
 6498SOL     OW25763   3.302   4.405   5.704 -0.1283  0.2828 -0.4333
 6498SOL    HW225764   3.293   4.474   5.639 -2.1101  0.2324 -0.2653
 6498SOL    HW325765   3.308   4.451   5.788 -1.9864  0.3219 -0.2644
 6498SOL    MW425766   3.301   4.420   5.707  0.0116 -0.7829  0.1073
 6499SOL     OW25767   4.644   6.291   4.560  0.2300 -0.5509  1.0001
 6499SOL    HW225768   4.568   6.248   4.598 -0.0837 -2.4272 -1.4740
 6499SOL    HW325769   4.620   6.307   4.468  1.6135  1.9514  0.9647
 6499SOL    MW425770   4.631   6.288   4.553 -0.1380  0.3544  0.3421
 6500SOL     OW25771   0.605   0.536   2.978  0.0232  0.0832 -0.1314
 6500SOL    HW225772   0.649   0.466   2.929  1.3135 -0.1984  1.3582
 6500SOL    HW325773   0.562   0.491   3.051  1.7224  0.8786  1.4471
 6500SOL    MW425774   0.605   0.521   2.981 -0.0888  0.4648  0.1232
 6501SOL     OW25775   0.815   3.602   4.270 -0.2084  0.0704  0.5682
 6501SOL    HW225776   0.904   3.600   4.235 -0.6877 -4.7021 -1.0887
 6501SOL    HW325777   0.775   3.680   4.230  2.0518  0.0705 -1.9753
 6501SOL    MW425778   0.822   3.612   4.260 -0.3040 -0.2319 -0.8209
 6502SOL     OW25779   6.215   1.248   4.610  0.5181  0.5779 -0.2155
 6502SOL    HW225780   6.151   1.288   4.550  1.5697 -0.7933 -2.3568
 6502SOL    HW325781   6.190   1.156   4.614  1.5839  0.2871 -0.0340
 6502SOL    MW425782   6.203   1.241   4.602  0.1530 -0.1979  0.2452
 6503SOL     OW25783   0.203   5.581   2.456 -0.4683  0.0670 -0.1299
 6503SOL    HW225784   0.134   5.647   2.453 -0.6315 -0.1120 -0.5010
 6503SOL    HW325785   0.199   5.545   2.544 -0.4861  0.4407  0.0215
 6503SOL    MW425786   0.193   5.585   2.467 -0.4839 -0.3959  0.3846
 6504SOL     OW25787   3.055   4.929   6.152 -0.2307 -0.1965 -0.3878
 6504SOL    HW225788   3.144   4.906   6.179  0.8556  2.4729 -1.3886
 6504SOL    HW325789   3.035   5.010   6.199 -2.0452 -0.5695 -0.4279
 6504SOL    MW425790   3.064   4.937   6.161 -0.4106  0.5241  0.2392
 6505SOL     OW25791   5.831   4.721   4.607 -0.6118 -0.4899 -0.5636
 6505SOL    HW225792   5.903   4.671   4.646 -0.1981 -1.2646 -2.1952
 6505SOL    HW325793   5.874   4.779   4.544 -1.2963  0.1088 -0.4809
 6505SOL    MW425794   5.846   4.722   4.604  0.5028 -0.2188  0.8573
 6506SOL     OW25795   3.778   3.296   6.349 -0.1103 -0.0779  1.1074
 6506SOL    HW225796   3.739   3.320   6.433  1.1208  0.6854  1.4854
 6506SOL    HW325797   3.847   3.234   6.372  0.2658  0.1750  0.6624
 6506SOL    MW425798   3.782   3.291   6.363 -0.9428 -0.4278 -0.0990
 6507SOL     OW25799   5.253   4.807   2.033 -0.7479 -0.2886 -0.3754
 6507SOL    HW225800   5.263   4.770   1.946 -0.6737 -1.5745  0.1588
 6507SOL    HW325801   5.162   4.792   2.056 -0.0944 -2.8008  0.9568
 6507SOL    MW425802   5.243   4.800   2.025 -0.5953  0.2817 -0.2602
 6508SOL     OW25803   1.611   6.053   0.546 -0.2790 -0.8770  0.0031
 6508SOL    HW225804   1.642   6.005   0.622  2.3014  1.4198  0.5946
 6508SOL    HW325805   1.532   6.098   0.575 -1.5360 -3.0069  0.0488
 6508SOL    MW425806   1.605   6.053   0.560 -0.2103 -0.0180  0.1665
 6509SOL     OW25807   4.651   3.522   4.785  0.6434 -0.1969  0.6594
 6509SOL    HW225808   4.637   3.467   4.862 -3.3128  0.3329  0.5334
 6509SOL    HW325809   4.656   3.611   4.820 -0.9057  0.0194  0.4106
 6509SOL    MW425810   4.650   3.527   4.800 -0.4187 -0.2672 -0.0875
 6510SOL     OW25811   2.759   3.737   1.179 -0.7228  0.5138 -0.5755
 6510SOL    HW225812   2.678   3.718   1.227 -0.0383  0.3051  0.5324
 6510SOL    HW325813   2.821   3.764   1.247  0.0145  1.0977 -1.4623
 6510SOL    MW425814   2.756   3.738   1.194 -0.3073 -0.3133  0.4698
 6511SOL     OW25815   1.424   1.870   4.654 -0.4814  0.3233 -0.4530
 6511SOL    HW225816   1.519   1.877   4.660 -0.5198  1.0999 -0.6112
 6511SOL    HW325817   1.409   1.791   4.602  0.0201 -1.2068  1.6313
 6511SOL    MW425818   1.434   1.860   4.648 -0.2978  0.1025 -0.4222
 6512SOL     OW25819   6.042   3.966   3.245 -0.2018  0.3421  0.4707
 6512SOL    HW225820   5.978   3.986   3.313  1.1287 -0.8963  2.2027
 6512SOL    HW325821   6.120   4.014   3.272  0.8803 -1.5111  0.8654
 6512SOL    MW425822   6.044   3.975   3.258 -0.5829 -0.2456  0.0142
 6513SOL     OW25823   1.458   2.945   5.399  0.4614  0.2202  0.2226
 6513SOL    HW225824   1.376   2.954   5.447 -0.8819 -1.7387 -1.4899
 6513SOL    HW325825   1.508   2.879   5.447  0.6956  0.8418  0.8379
 6513SOL    MW425826   1.454   2.937   5.412 -0.0379  0.2012 -0.0574
 6514SOL     OW25827   2.028   2.701   6.032 -0.2137 -0.0384 -0.1915
 6514SOL    HW225828   2.116   2.669   6.010 -0.0792  0.8158 -0.9429
 6514SOL    HW325829   2.029   2.709   6.127  0.7719  0.6351 -0.2458
 6514SOL    MW425830   2.040   2.698   6.042 -0.4554 -0.1529  0.0869
 6515SOL     OW25831   4.339   3.173   2.550  0.0757  0.0784 -0.0039
 6515SOL    HW225832   4.321   3.124   2.630  0.7881  0.1470  0.2057
 6515SOL    HW325833   4.397   3.116   2.499 -1.5122 -0.5925 -1.1416
 6515SOL    MW425834   4.345   3.159   2.554  0.6927  0.1160  0.0574
 6516SOL     OW25835   3.689   3.460   1.813 -0.1807 -0.3357 -0.4265
 6516SOL    HW225836   3.717   3.504   1.893 -0.6794 -1.8852  0.6443
 6516SOL    HW325837   3.663   3.532   1.754  0.2661  0.8387  0.7582
 6516SOL    MW425838   3.689   3.476   1.816 -0.2499  0.5166 -0.3198
 6517SOL     OW25839   0.716   5.919   0.576  0.7837  0.3699 -0.3653
 6517SOL    HW225840   0.752   5.989   0.523 -0.0170 -0.4147 -2.0121
 6517SOL    HW325841   0.771   5.843   0.556  1.2123  0.3300  0.8707
 6517SOL    MW425842   0.728   5.918   0.566  0.3792  0.3696 -0.3058
 6518SOL     OW25843   3.796   4.649   0.974 -0.1309  0.1763  0.1425
 6518SOL    HW225844   3.888   4.622   0.983 -0.5209 -0.7020  1.8315
 6518SOL    HW325845   3.799   4.744   0.985  0.4939  0.0682  1.0511
 6518SOL    MW425846   3.809   4.658   0.977 -0.3479  0.4069 -0.9528
 6519SOL     OW25847   5.701   4.986   3.370  0.1962 -0.1653  0.3191
 6519SOL    HW225848   5.665   5.001   3.457 -0.9579 -0.1478 -0.1389
 6519SOL    HW325849   5.764   5.057   3.358 -2.1028  1.9565 -0.1638
 6519SOL    MW425850   5.705   4.998   3.380 -0.1985  0.2884  0.0084
 6520SOL     OW25851   5.304   1.259   1.986 -0.6484  0.7472  0.1243
 6520SOL    HW225852   5.336   1.171   2.006 -1.5445  0.1306 -1.0180
 6520SOL    HW325853   5.383   1.313   1.981 -0.1414  0.1688  1.5414
 6520SOL    MW425854   5.318   1.255   1.988 -0.2540 -0.0357  0.4144
 6521SOL     OW25855   0.462   5.162   4.462 -0.4941 -0.4465  0.3626
 6521SOL    HW225856   0.390   5.209   4.420 -2.2313 -1.9979  1.4159
 6521SOL    HW325857   0.438   5.158   4.555 -0.6943 -3.5977  0.3095
 6521SOL    MW425858   0.450   5.168   4.469 -0.0246 -0.2385 -0.5611
 6522SOL     OW25859   2.986   5.480   1.900 -0.4867 -0.5636 -0.2500
 6522SOL    HW225860   2.990   5.514   1.989  0.2644 -0.7107 -0.2220
 6522SOL    HW325861   3.040   5.401   1.902  2.5168  1.2794 -1.6262
 6522SOL    MW425862   2.994   5.475   1.912  0.0607  0.4970 -0.2335
 6523SOL     OW25863   5.743   3.779   3.607  0.3393 -0.0828  0.0883
 6523SOL    HW225864   5.745   3.693   3.648 -1.8047  0.6863  2.0934
 6523SOL    HW325865   5.678   3.828   3.658  0.2959  2.2200 -1.9688
 6523SOL    MW425866   5.734   3.774   3.619 -0.3300  0.2627 -0.5644
 6524SOL     OW25867   3.844   1.674   6.364  0.4576  0.2473  0.3789
 6524SOL    HW225868   3.756   1.713   6.368 -0.0324 -0.8428  0.8954
 6524SOL    HW325869   3.883   1.711   6.285 -0.2644  1.1635  0.4272
 6524SOL    MW425870   3.837   1.684   6.354 -0.0111 -0.4264  0.1997
 6525SOL     OW25871   2.813   2.195   2.427 -0.5817  0.2910 -0.2612
 6525SOL    HW225872   2.870   2.150   2.364 -0.0494 -0.7805  0.9263
 6525SOL    HW325873   2.851   2.282   2.437  0.4423 -0.1711 -0.0268
 6525SOL    MW425874   2.825   2.200   2.420 -0.0121 -0.5673  0.1136
 6526SOL     OW25875   1.199   3.824   4.385  0.2482 -0.3484  0.0706
 6526SOL    HW225876   1.151   3.809   4.304  0.4485  0.0925 -0.1345
 6526SOL    HW325877   1.290   3.801   4.363  0.1288 -1.2082  0.4639
 6526SOL    MW425878   1.205   3.819   4.371 -0.5144 -0.2879 -0.0994
 6527SOL     OW25879   6.391   2.276   3.657  0.1689 -0.2755 -0.3487
 6527SOL    HW225880   6.429   2.320   3.580 -0.8831 -0.1126 -0.7919
 6527SOL    HW325881   6.361   2.192   3.624 -1.1677  0.1811 -0.3592
 6527SOL    MW425882   6.392   2.271   3.642 -0.2743 -0.1523  0.1894
 6528SOL     OW25883   0.473   5.252   0.615  0.2715  0.1617 -0.4672
 6528SOL    HW225884   0.475   5.158   0.596 -0.1921 -0.2673  1.3914
 6528SOL    HW325885   0.522   5.292   0.544  0.8578 -1.5304 -1.0646
 6528SOL    MW425886   0.480   5.245   0.603  0.0357  0.4755  0.1047
 6529SOL     OW25887   4.152   1.781   2.267  0.2818  0.2955 -0.4330
 6529SOL    HW225888   4.162   1.702   2.319 -0.2170  0.2885 -0.3374
 6529SOL    HW325889   4.152   1.852   2.331 -0.0065  0.3110 -0.4449
 6529SOL    MW425890   4.153   1.780   2.282  0.2700  0.0960  0.4674
 6530SOL     OW25891   1.512   2.341   5.847  0.2856  0.5048 -0.5975
 6530SOL    HW225892   1.492   2.327   5.755  0.3112  1.2864 -0.7208
 6530SOL    HW325893   1.607   2.326   5.854 -0.0415 -1.9819 -0.2310
 6530SOL    MW425894   1.522   2.337   5.836 -0.3443  0.3857  0.4107
 6531SOL     OW25895   0.066   4.403   1.675  0.7200 -0.2923  0.3611
 6531SOL    HW225896  -0.008   4.399   1.735  0.8171 -0.2527  0.4836
 6531SOL    HW325897   0.026   4.403   1.588  0.6145 -1.3904  0.3925
 6531SOL    MW425898   0.051   4.402   1.671  0.1941  0.4493 -0.7179
 6532SOL     OW25899   4.776   0.184   1.871  0.0578  0.5301 -0.4664
 6532SOL    HW225900   4.725   0.207   1.793 -0.4611  0.3384 -0.1898
 6532SOL    HW325901   4.806   0.268   1.906 -1.3859  0.7885  0.2397
 6532SOL    MW425902   4.773   0.198   1.865 -0.5086  0.3830  0.1537
 6533SOL     OW25903   3.569   1.924   2.513  0.0141  0.6080  0.1363
 6533SOL    HW225904   3.504   1.931   2.584  0.3789  1.1343  0.4245
 6533SOL    HW325905   3.565   2.009   2.469  1.3237  1.0639  0.8677
 6533SOL    MW425906   3.560   1.936   2.516  0.1680 -0.3024  0.1510
 6534SOL     OW25907   2.659   4.189   0.884 -0.4314 -0.4145 -0.4437
 6534SOL    HW225908   2.588   4.237   0.842 -0.1348  0.0147 -0.4651
 6534SOL    HW325909   2.683   4.242   0.959  0.6120  0.0272 -1.0628
 6534SOL    MW425910   2.653   4.202   0.888  0.6283 -0.2430 -0.0199
 6535SOL     OW25911   4.088   0.560   5.502 -0.3659 -0.5111  0.0753
 6535SOL    HW225912   4.073   0.633   5.562  1.9021 -0.9766  1.3618
 6535SOL    HW325913   4.001   0.530   5.478 -1.4190  3.0223 -1.0961
 6535SOL    MW425914   4.075   0.565   5.507  0.2753 -0.0937  0.3697
 6536SOL     OW25915   1.568   5.777   3.870 -0.4678  0.0940  0.0599
 6536SOL    HW225916   1.582   5.683   3.870  1.4618  0.3362 -0.4624
 6536SOL    HW325917   1.476   5.788   3.847 -0.5505 -1.6425 -0.5325
 6536SOL    MW425918   1.558   5.766   3.867  0.2288  0.9062  1.1135
 6537SOL     OW25919   2.317   0.338   0.777 -0.7083  0.1270 -0.1108
 6537SOL    HW225920   2.389   0.282   0.748  0.7377  0.7801  1.9942
 6537SOL    HW325921   2.264   0.282   0.833  0.9985  0.8442  2.3799
 6537SOL    MW425922   2.320   0.323   0.780 -0.0136 -0.0082  0.6211
 6538SOL     OW25923   2.437   1.879   2.952  0.7427 -0.6599 -0.2032
 6538SOL    HW225924   2.342   1.881   2.963  0.9302 -1.4783  2.2374
 6538SOL    HW325925   2.463   1.793   2.985  2.5550  0.6460  2.1425
 6538SOL    MW425926   2.428   1.868   2.958 -0.0084 -0.1546 -0.0865
 6539SOL     OW25927   0.682   3.911   2.362  0.2360 -0.2585  0.2829
 6539SOL    HW225928   0.712   3.851   2.294 -0.1147  0.4724 -0.5271
 6539SOL    HW325929   0.644   3.854   2.429  1.6285 -1.0703  0.4400
 6539SOL    MW425930   0.681   3.896   2.362 -0.5914  0.7851  0.0526
 6540SOL     OW25931   2.983   0.922   2.353  0.3136  0.3163 -0.2376
 6540SOL    HW225932   2.948   0.904   2.440 -2.4467 -0.7964 -1.4527
 6540SOL    HW325933   3.044   0.850   2.336  0.0818 -0.0315  0.3823
 6540SOL    MW425934   2.986   0.910   2.362 -0.1957  0.0258 -0.1976
 6541SOL     OW25935   3.129   4.451   0.836  0.4923 -0.9429 -0.4007
 6541SOL    HW225936   3.086   4.488   0.913 -1.3584 -0.3683 -1.6311
 6541SOL    HW325937   3.073   4.378   0.810 -0.3083  0.3458 -2.5562
 6541SOL    MW425938   3.116   4.446   0.842  0.6622 -0.5919  0.3432
 6542SOL     OW25939   2.783   3.506   1.040  0.0070 -0.3134  0.6677
 6542SOL    HW225940   2.843   3.523   0.967  2.0305 -1.0791  2.0412
 6542SOL    HW325941   2.775   3.590   1.085  0.1447 -0.2234  0.5247
 6542SOL    MW425942   2.790   3.520   1.037  0.0876  0.3009 -0.1014
 6543SOL     OW25943   3.973   2.970   1.275  0.5329  0.1605 -0.7273
 6543SOL    HW225944   3.920   2.926   1.341  0.4623  1.1293 -0.1093
 6543SOL    HW325945   3.925   3.051   1.255  1.2765  0.5799 -0.8846
 6543SOL    MW425946   3.960   2.975   1.281 -0.0727  0.1191  0.6165
 6544SOL     OW25947   5.472   0.661   2.345 -0.7154 -0.2998  0.0899
 6544SOL    HW225948   5.449   0.749   2.374 -2.7258 -0.7352 -0.0493
 6544SOL    HW325949   5.452   0.604   2.419 -0.5329 -0.7624 -0.2077
 6544SOL    MW425950   5.466   0.665   2.359 -0.0016  0.2454  1.0634
 6545SOL     OW25951   1.501   5.229   6.148  0.7606 -0.4944 -0.1741
 6545SOL    HW225952   1.553   5.152   6.123 -0.4906 -1.9580  1.4201
 6545SOL    HW325953   1.502   5.228   6.244  1.2408  1.9142 -0.0893
 6545SOL    MW425954   1.508   5.219   6.158  0.0434 -0.7590 -0.2850
 6546SOL     OW25955   0.068   1.330   6.379 -0.3954  0.3483 -0.1984
 6546SOL    HW225956   0.136   1.292   6.324 -0.0924  0.9458 -0.2499
 6546SOL    HW325957  -0.014   1.299   6.341 -0.1670 -1.9787  1.0111
 6546SOL    MW425958   0.066   1.321   6.367  0.1428  0.0592  0.2330
 6547SOL     OW25959   2.262   5.344   5.030  0.5798 -0.1547 -0.5365
 6547SOL    HW225960   2.266   5.359   4.936  0.8705 -0.6549 -0.6120
 6547SOL    HW325961   2.179   5.382   5.058  1.4554  1.9327 -0.6299
 6547SOL    MW425962   2.252   5.351   5.021  0.0813 -0.3255  0.0041
 6548SOL     OW25963   4.492   5.435   5.648 -0.2500 -0.0016 -0.6102
 6548SOL    HW225964   4.540   5.428   5.565  2.6788  0.1337  0.9208
 6548SOL    HW325965   4.544   5.496   5.700 -2.1919  0.1964  1.2294
 6548SOL    MW425966   4.506   5.442   5.644 -0.4726  0.0361 -0.2618
 6549SOL     OW25967   2.249   4.255   2.042  0.2476  0.2017  0.2810
 6549SOL    HW225968   2.229   4.233   1.950 -1.5355  1.0417  0.4370
 6549SOL    HW325969   2.334   4.300   2.037 -0.2713  1.1144 -1.0916
 6549SOL    MW425970   2.258   4.258   2.029 -0.2612 -0.3654  0.9245
 6550SOL     OW25971   5.907   1.525   4.176  0.3026 -0.0950 -0.2802
 6550SOL    HW225972   5.813   1.536   4.169  0.2905 -0.1754 -0.2385
 6550SOL    HW325973   5.923   1.505   4.269  0.6027  2.4082  0.2816
 6550SOL    MW425974   5.897   1.524   4.188  0.2361 -0.6367  0.1405
 6551SOL     OW25975   0.564   5.838   1.620  0.4330  0.1372 -0.3115
 6551SOL    HW225976   0.646   5.790   1.624 -0.2497 -1.1065 -0.7699
 6551SOL    HW325977   0.543   5.842   1.527  0.1557  0.7770 -0.2293
 6551SOL    MW425978   0.572   5.832   1.608 -0.7356 -0.6567 -0.2753
 6552SOL     OW25979   4.155   5.330   4.165  0.0696 -0.1138  0.1936
 6552SOL    HW225980   4.205   5.263   4.119 -2.0934 -0.3587 -1.9662
 6552SOL    HW325981   4.098   5.281   4.224  1.3432  0.1133  1.7039
 6552SOL    MW425982   4.154   5.315   4.167 -0.1655  0.3126 -0.2432
 6553SOL     OW25983   1.137   0.136   6.080  0.1849  0.5104 -0.0617
 6553SOL    HW225984   1.094   0.195   6.141 -1.7463  1.4813 -2.2034
 6553SOL    HW325985   1.148   0.188   6.000  2.9228 -0.5853 -0.5081
 6553SOL    MW425986   1.132   0.151   6.078 -0.6353 -0.1359 -0.5838
 6554SOL     OW25987   2.548   6.190   4.414 -0.3856  0.0482  0.2219
 6554SOL    HW225988   2.482   6.121   4.420 -1.3246  0.9515  0.5846
 6554SOL    HW325989   2.498   6.269   4.389  0.1060  1.3169  2.8856
 6554SOL    MW425990   2.532   6.192   4.412 -0.3901 -0.9429  0.0164
 6555SOL     OW25991   5.191   0.860   1.995  0.1220  0.5685 -0.3796
 6555SOL    HW225992   5.261   0.798   2.016  0.1434  1.1616  1.4677
 6555SOL    HW325993   5.226   0.913   1.924  1.4360  0.6531  0.3144
 6555SOL    MW425994   5.205   0.859   1.989  0.0855 -0.2287 -0.3268
 6556SOL     OW25995   0.863   1.768   4.111  0.0264  0.2562  0.2643
 6556SOL    HW225996   0.792   1.793   4.171 -0.6863 -1.4667  0.2198
 6556SOL    HW325997   0.824   1.700   4.055  1.4517 -0.0852 -0.3612
 6556SOL    MW425998   0.848   1.762   4.112 -0.1610 -0.1230 -0.5973
 6557SOL     OW25999   4.007   4.934   3.475  0.1822  0.4556  0.2108
 6557SOL    HW226000   3.942   4.925   3.545  0.1573 -1.7466 -0.0353
 6557SOL    HW326001   3.957   4.967   3.400  0.3407  3.5533  1.3071
 6557SOL    MW426002   3.992   4.937   3.474  0.1218 -0.1008 -0.2037
 6558SOL     OW26003   1.949   4.207   2.154  0.0107  0.2002  0.3040
 6558SOL    HW226004   1.870   4.209   2.208 -0.4137  2.1267 -0.3062
 6558SOL    HW326005   1.946   4.123   2.109 -1.4335  0.0484  0.6527
 6558SOL    MW426006   1.938   4.196   2.155 -0.0825 -0.3125 -0.0923
 6559SOL     OW26007   5.925   1.638   2.173  0.2820  0.0021  0.6827
 6559SOL    HW226008   5.974   1.556   2.175 -0.6551 -0.5494  1.2953
 6559SOL    HW326009   5.844   1.620   2.221 -0.7390  0.7600 -0.6701
 6559SOL    MW426010   5.921   1.625   2.179 -0.4241  0.2516 -0.2394
 6560SOL     OW26011   2.950   1.881   5.298  0.0051 -0.3260  0.5142
 6560SOL    HW226012   2.904   1.821   5.356 -0.1981 -0.6927 -0.0241
 6560SOL    HW326013   2.989   1.825   5.231  0.4462  0.0706  0.4312
 6560SOL    MW426014   2.949   1.866   5.297  0.2805  0.3397  0.5999
 6561SOL     OW26015   0.624   6.140   2.498  0.0070 -0.1355  0.3904
 6561SOL    HW226016   0.656   6.168   2.412 -1.3543  1.4641  0.3512
 6561SOL    HW326017   0.534   6.173   2.502  0.3889  0.8299  2.8526
 6561SOL    MW426018   0.616   6.148   2.488 -0.2082 -0.2845  0.5511
 6562SOL     OW26019   2.142   3.094   5.084 -0.3120  0.3152 -0.3066
 6562SOL    HW226020   2.202   3.067   5.153 -2.9209 -3.4301  0.8440
 6562SOL    HW326021   2.092   3.166   5.122 -0.3030 -0.3132  0.9512
 6562SOL    MW426022   2.143   3.100   5.098  0.1650 -0.4355 -0.5952
 6563SOL     OW26023   3.624   3.346   0.134  0.2054 -0.5569 -0.1277
 6563SOL    HW226024   3.604   3.279   0.199  1.7238 -2.1191 -1.1837
 6563SOL    HW326025   3.547   3.349   0.077 -1.0738  0.7214  1.5724
 6563SOL    MW426026   3.612   3.337   0.135  0.5909 -0.5274  0.1409
 6564SOL     OW26027   6.086   6.224   4.108  0.4443  0.3055 -0.4305
 6564SOL    HW226028   6.081   6.147   4.051 -0.5507  0.1488 -0.1439
 6564SOL    HW326029   6.171   6.263   4.087  2.1613 -2.2533  1.2203
 6564SOL    MW426030   6.096   6.219   4.098  0.0547  0.3710 -0.6928
 6565SOL     OW26031   3.515   6.168   3.855  0.3314  0.7646 -0.2529
 6565SOL    HW226032   3.428   6.171   3.816  0.3493  2.2377 -0.2285
 6565SOL    HW326033   3.546   6.258   3.852  0.9975  0.6545  1.6586
 6565SOL    MW426034   3.507   6.180   3.849 -0.4355 -0.3851 -0.1504
 6566SOL     OW26035   1.560   2.885   1.323  0.1735  0.3080 -0.1697
 6566SOL    HW226036   1.492   2.857   1.383 -0.9736  0.6225 -1.2751
 6566SOL    HW326037   1.583   2.806   1.273  0.1504  0.3440 -0.2383
 6566SOL    MW426038   1.554   2.871   1.324  0.1405  0.0936  0.2450
 6567SOL     OW26039   1.421   1.339   6.449 -0.0738  0.3207 -0.3286
 6567SOL    HW226040   1.392   1.259   6.493 -1.0143  1.4527  1.2330
 6567SOL    HW326041   1.494   1.311   6.393 -0.9598 -1.7596 -0.5294
 6567SOL    MW426042   1.427   1.325   6.448  0.1912 -0.0235 -0.0971
 6568SOL     OW26043   2.131   0.975   3.504 -0.3033 -0.2309  0.2285
 6568SOL    HW226044   2.163   1.063   3.487 -0.6758 -0.1968 -0.3378
 6568SOL    HW326045   2.210   0.922   3.516 -0.0451 -0.0562 -0.6452
 6568SOL    MW426046   2.146   0.980   3.504  0.5571 -0.2361  0.1255
 6569SOL     OW26047   1.531   4.529   6.165 -0.2324 -0.3389 -0.1215
 6569SOL    HW226048   1.494   4.614   6.189 -0.0161  0.3630 -2.1146
 6569SOL    HW326049   1.504   4.471   6.236 -0.1348  1.4238  1.4617
 6569SOL    MW426050   1.523   4.533   6.178 -0.2969 -0.1401  0.4336
 6570SOL     OW26051   1.252   3.387   2.553 -0.0348  0.3058  0.1084
 6570SOL    HW226052   1.215   3.462   2.507  0.1815 -1.1691 -2.7426
 6570SOL    HW326053   1.176   3.342   2.590 -0.7477 -0.4331 -2.0831
 6570SOL    MW426054   1.237   3.391   2.552 -0.0543  0.6196  0.1989
 6571SOL     OW26055   1.780   3.343   1.131  0.0173  0.4124  0.2190
 6571SOL    HW226056   1.697   3.335   1.178 -0.0529  1.0139  0.1988
 6571SOL    HW326057   1.796   3.255   1.096 -1.6011  0.7215 -1.4209
 6571SOL    MW426058   1.771   3.330   1.133  0.1022  0.6129  0.6130
 6572SOL     OW26059   1.710   0.503   5.602  0.1265 -0.0770 -0.3265
 6572SOL    HW226060   1.668   0.449   5.670  1.7636  0.5388  1.2716
 6572SOL    HW326061   1.770   0.443   5.558  2.9390  0.5099  2.3214
 6572SOL    MW426062   1.713   0.488   5.605 -0.6001  0.2069 -0.4563
 6573SOL     OW26063   1.207   0.998   0.898  0.0340 -0.3509  0.6952
 6573SOL    HW226064   1.229   1.091   0.900 -0.4965 -0.2260  1.2966
 6573SOL    HW326065   1.232   0.969   0.811  1.9569 -0.0942  1.1234
 6573SOL    MW426066   1.213   1.006   0.887 -0.5443 -0.0344 -0.1605
 6574SOL     OW26067   3.054   4.324   3.524  0.3370  0.0407 -0.2858
 6574SOL    HW226068   3.140   4.338   3.562  0.2247 -1.3180  0.5074
 6574SOL    HW326069   3.070   4.272   3.445  0.2328 -0.3715 -0.0371
 6574SOL    MW426070   3.067   4.319   3.519 -0.4648  0.3071 -0.4714
 6575SOL     OW26071   0.074   0.143   1.777 -0.0165  0.7197  0.1200
 6575SOL    HW226072  -0.006   0.116   1.822 -0.1177  0.6065 -0.1239
 6575SOL    HW326073   0.068   0.238   1.770 -0.7103  0.6251 -0.9591
 6575SOL    MW426074   0.063   0.152   1.782 -0.2747 -0.1456 -0.0359
 6576SOL     OW26075   2.019   0.763   0.739 -0.0056 -0.1042  0.0705
 6576SOL    HW226076   1.993   0.847   0.778  0.8423  0.4974 -0.6088
 6576SOL    HW326077   2.008   0.777   0.645 -0.9124 -1.1456  0.0055
 6576SOL    MW426078   2.014   0.776   0.731  0.9694 -0.3084 -0.3195
 6577SOL     OW26079   0.617   4.929   4.617 -0.4052  0.2219  0.3480
 6577SOL    HW226080   0.606   4.841   4.653  0.6294  0.4937  1.3720
 6577SOL    HW326081   0.706   4.953   4.640 -0.7372  1.6236  0.2440
 6577SOL    MW426082   0.627   4.921   4.624  0.2224 -0.2816  0.0694
 6578SOL     OW26083   4.804   3.970   5.375  0.4084  0.1382  0.3048
 6578SOL    HW226084   4.811   3.944   5.283  2.1850 -1.1346  0.7503
 6578SOL    HW326085   4.797   4.065   5.373  0.3884  0.1200 -1.1537
 6578SOL    MW426086   4.804   3.979   5.363 -0.1163  0.8158  0.2170
 6579SOL     OW26087   2.058   5.614   5.794  0.5999 -0.0361  0.0272
 6579SOL    HW226088   2.118   5.571   5.733 -0.9697 -2.5718  0.1484
 6579SOL    HW326089   1.974   5.571   5.781 -1.3054  3.3389 -0.0991
 6579SOL    MW426090   2.055   5.603   5.784  0.5275  0.0771 -0.1399
 6580SOL     OW26091   0.011   2.770   4.652  0.2122  0.3830 -0.6170
 6580SOL    HW226092   0.071   2.830   4.694  0.5190 -0.7513  0.6227
 6580SOL    HW326093   0.040   2.683   4.679 -1.3746 -0.2415 -0.7924
 6580SOL    MW426094   0.023   2.766   4.661  0.0677 -0.3847 -0.0178
 6581SOL     OW26095   4.205   6.389   2.022 -0.5789  0.3216 -0.4267
 6581SOL    HW226096   4.217   6.484   2.015  0.3318  0.3079  0.6019
 6581SOL    HW326097   4.217   6.371   2.115 -2.1492 -0.6391 -0.3845
 6581SOL    MW426098   4.208   6.399   2.034  0.1501 -1.1320  0.1231
 6582SOL     OW26099   0.083   1.738   5.349 -0.1531 -0.3943 -0.5190
 6582SOL    HW226100   0.022   1.665   5.340 -0.0629 -0.5511  0.0628
 6582SOL    HW326101   0.125   1.746   5.264 -1.4673  0.1505 -1.1411
 6582SOL    MW426102   0.081   1.730   5.337  0.1541  0.0423 -0.3909
 6583SOL     OW26103   6.250   4.693   3.143  0.1433  0.0567 -0.4859
 6583SOL    HW226104   6.190   4.766   3.160  0.7921  0.4428  0.2027
 6583SOL    HW326105   6.215   4.652   3.063  0.9155  2.3427 -2.1167
 6583SOL    MW426106   6.237   4.697   3.134 -0.5498  0.5127 -0.1565
 6584SOL     OW26107   2.330   3.397   1.884 -0.3653 -0.0426 -0.0561
 6584SOL    HW226108   2.364   3.319   1.927  0.4550  0.0982 -0.4221
 6584SOL    HW326109   2.408   3.449   1.864 -0.8773  0.7650 -0.0242
 6584SOL    MW426110   2.345   3.394   1.887  0.4269  0.1888 -0.1832
 6585SOL     OW26111   3.355   5.719   1.329 -0.2134 -0.1797 -0.0414
 6585SOL    HW226112   3.331   5.747   1.417 -0.1375  0.8545 -0.3330
 6585SOL    HW326113   3.383   5.800   1.285  1.3647 -0.9354 -0.4987
 6585SOL    MW426114   3.356   5.734   1.335  0.2346  0.2615  0.3284
 6586SOL     OW26115   0.613   4.460   2.522  0.2834 -0.5733 -0.2059
 6586SOL    HW226116   0.619   4.518   2.598  1.0102  1.5028 -1.7315
 6586SOL    HW326117   0.569   4.382   2.554  3.2700 -1.1641  3.1169
 6586SOL    MW426118   0.608   4.458   2.536 -0.1467  0.5976 -0.2739
 6587SOL     OW26119   1.471   5.960   5.708 -0.1075 -0.6691 -0.5501
 6587SOL    HW226120   1.564   5.970   5.727 -0.5934 -0.0908  1.8944
 6587SOL    HW326121   1.455   6.019   5.634  1.4799 -0.9319 -1.1408
 6587SOL    MW426122   1.481   5.969   5.701  0.2628 -0.3658 -0.5741
 6588SOL     OW26123   1.339   6.360   4.274  0.3127 -0.1449  0.0284
 6588SOL    HW226124   1.321   6.312   4.355 -1.8423  0.3911 -0.0849
 6588SOL    HW326125   1.380   6.441   4.304 -1.1002  0.3583  0.6713
 6588SOL    MW426126   1.342   6.364   4.289  0.2417  0.6962  0.5335
 6589SOL     OW26127   3.532   0.878   3.542 -0.4785  0.4029 -0.0860
 6589SOL    HW226128   3.580   0.797   3.562  0.6025  1.2076  0.7363
 6589SOL    HW326129   3.493   0.904   3.625  0.3149  1.4192 -0.0080
 6589SOL    MW426130   3.533   0.870   3.555  0.2433  0.3661  0.0486
 6590SOL     OW26131   0.976   4.108   2.201 -0.6448  0.0666  0.0519
 6590SOL    HW226132   0.909   4.057   2.155 -0.2349 -0.2667 -0.1736
 6590SOL    HW326133   0.978   4.072   2.290 -1.0298  0.3287  0.1698
 6590SOL    MW426134   0.967   4.097   2.207  0.0532  0.1636  0.1756
 6591SOL     OW26135   5.575   1.292   5.622  0.4055 -0.0427  0.3720
 6591SOL    HW226136   5.666   1.278   5.649  0.4985  0.0659  0.1171
 6591SOL    HW326137   5.582   1.327   5.534  0.1675  1.4408  0.9265
 6591SOL    MW426138   5.588   1.294   5.614  0.0502 -0.0340 -0.1888
 6592SOL     OW26139   3.222   5.919   2.671 -0.8459  0.2252 -0.2848
 6592SOL    HW226140   3.314   5.908   2.697 -0.6256  0.6319 -0.8736
 6592SOL    HW326141   3.178   5.841   2.704 -0.3278  0.1302  0.1889
 6592SOL    MW426142   3.228   5.907   2.679 -0.1324 -0.1453  0.8030
 6593SOL     OW26143   6.172   1.731   1.963 -0.4488  0.4361  0.8123
 6593SOL    HW226144   6.234   1.771   2.023 -0.1845  0.3336  0.6074
 6593SOL    HW326145   6.090   1.779   1.978 -0.3038  0.6179  1.0290
 6593SOL    MW426146   6.169   1.742   1.973  0.0672 -0.2195  0.6121
 6594SOL     OW26147   3.801   1.332   4.037 -0.1611  0.6132 -0.2191
 6594SOL    HW226148   3.725   1.288   3.997 -1.5963  0.8331  2.0705
 6594SOL    HW326149   3.844   1.263   4.087 -0.5799  1.1062  0.8391
 6594SOL    MW426150   3.796   1.317   4.038  0.5741 -0.4944 -0.1083
 6595SOL     OW26151   1.705   1.135   1.664  0.0352 -0.0834 -0.1119
 6595SOL    HW226152   1.642   1.065   1.681  1.7323 -1.6862 -0.2137
 6595SOL    HW326153   1.773   1.123   1.730  1.6594 -0.1653 -1.7368
 6595SOL    MW426154   1.706   1.124   1.675  0.6097  0.2402  0.6036
 6596SOL     OW26155   0.730   3.012   3.283 -0.5048 -0.7059 -0.1065
 6596SOL    HW226156   0.786   2.993   3.358  0.2304 -0.5744 -0.6145
 6596SOL    HW326157   0.694   2.927   3.258  0.6500 -1.0289 -0.7045
 6596SOL    MW426158   0.733   2.998   3.290  0.1200  0.4277 -0.2250
 6597SOL     OW26159   3.938   4.908   1.553 -0.0956 -0.5541  0.2735
 6597SOL    HW226160   3.912   4.886   1.464  0.5356 -0.0900 -0.0343
 6597SOL    HW326161   3.931   4.825   1.601 -1.0409 -0.6700 -0.0511
 6597SOL    MW426162   3.934   4.894   1.548 -0.0484 -0.5153  0.1519
 6598SOL     OW26163   4.720   1.562   6.272  0.3196 -0.1977 -0.0118
 6598SOL    HW226164   4.703   1.653   6.249 -0.8862 -0.1154  1.0717
 6598SOL    HW326165   4.720   1.515   6.189 -0.9466  0.5256 -0.4403
 6598SOL    MW426166   4.718   1.568   6.258  0.2154  0.0535 -0.2405
 6599SOL     OW26167   5.935   6.089   6.362 -0.3270  0.0105 -0.3910
 6599SOL    HW226168   5.959   6.064   6.451  0.8685 -2.4446 -1.2969
 6599SOL    HW326169   5.845   6.058   6.352 -0.6201  0.6855  0.0661
 6599SOL    MW426170   5.926   6.081   6.372  0.2925  0.1329  0.0781
 6600SOL     OW26171   0.440   6.203   4.780  0.3269 -0.5046 -0.4062
 6600SOL    HW226172   0.500   6.203   4.854 -0.8033  0.0152  0.5423
 6600SOL    HW326173   0.437   6.294   4.750  0.1684 -0.5602 -0.5657
 6600SOL    MW426174   0.447   6.215   4.785  0.3389 -0.1021  0.3448
 6601SOL     OW26175   2.608   5.916   1.194 -0.1040 -0.2582  0.0822
 6601SOL    HW226176   2.535   5.915   1.256 -0.6835 -0.3293 -0.5811
 6601SOL    HW326177   2.677   5.864   1.236 -0.8354 -1.1239  0.2468
 6601SOL    MW426178   2.607   5.909   1.208  0.1962 -0.1015  0.9590
 6602SOL     OW26179   5.304   6.241   4.176  0.3365 -0.7090 -0.7321
 6602SOL    HW226180   5.326   6.285   4.094  0.4017  0.1178 -0.2779
 6602SOL    HW326181   5.210   6.255   4.187  0.5187  0.1203 -0.1306
 6602SOL    MW426182   5.294   6.249   4.167  0.5111 -0.1907  0.1560
 6603SOL     OW26183   5.060   4.122   0.765  0.3897 -0.1504  0.0114
 6603SOL    HW226184   4.972   4.148   0.793  0.3412 -0.6534  0.3223
 6603SOL    HW326185   5.117   4.154   0.834  0.3014 -1.1129  0.5400
 6603SOL    MW426186   5.056   4.130   0.778 -0.2367  0.1003  0.1472
 6604SOL     OW26187   0.590   2.240   4.603 -0.3301  0.3132  0.3706
 6604SOL    HW226188   0.617   2.302   4.535 -1.5863 -0.5639 -1.0121
 6604SOL    HW326189   0.596   2.155   4.560 -0.8504 -0.2887  1.4715
 6604SOL    MW426190   0.594   2.237   4.588  0.5896  0.1433  0.4180
 6605SOL     OW26191   0.466   0.175   5.420 -0.1346 -0.4159 -0.0354
 6605SOL    HW226192   0.508   0.233   5.483  1.6680 -0.9474 -0.6876
 6605SOL    HW326193   0.463   0.090   5.462  0.1065 -0.5434 -0.2764
 6605SOL    MW426194   0.471   0.172   5.434  0.3385  0.6516  0.1313
 6606SOL     OW26195   3.046   2.013   1.869 -0.1742  0.0206  0.6349
 6606SOL    HW226196   3.038   1.985   1.960  0.1658 -0.0995  0.6301
 6606SOL    HW326197   2.956   2.022   1.838 -0.4275 -3.6798 -0.2022
 6606SOL    MW426198   3.033   2.011   1.877 -0.5086 -0.1715  0.2994
 6607SOL     OW26199   4.290   1.605   5.998  0.2294  0.2109 -0.2882
 6607SOL    HW226200   4.284   1.598   5.903  0.6023 -0.2852 -0.2773
 6607SOL    HW326201   4.250   1.525   6.032  0.5349  0.1558 -0.0441
 6607SOL    MW426202   4.284   1.594   5.990  0.0353 -0.0292 -0.4161
 6608SOL     OW26203   0.053   2.704   0.153 -0.3159  0.1585 -0.3198
 6608SOL    HW226204   0.074   2.645   0.081  0.7594 -2.0315  1.6759
 6608SOL    HW326205  -0.042   2.713   0.149 -0.6294 -2.3780 -0.2829
 6608SOL    MW426206   0.043   2.698   0.143 -0.0831 -0.3714 -0.4178
 6609SOL     OW26207   1.731   6.383   5.144 -0.2750 -0.2203  0.1889
 6609SOL    HW226208   1.676   6.311   5.112 -1.0279  0.2533  0.3876
 6609SOL    HW326209   1.821   6.353   5.130 -0.5803 -1.1387  0.1379
 6609SOL    MW426210   1.736   6.369   5.138 -0.0169 -0.8472  0.4136
 6610SOL     OW26211   4.694   3.319   1.630 -1.1725 -0.2572  0.5836
 6610SOL    HW226212   4.654   3.318   1.717 -0.5266  0.0423  0.8904
 6610SOL    HW326213   4.620   3.312   1.570 -1.5232 -3.0044  1.1736
 6610SOL    MW426214   4.679   3.318   1.634  0.0246 -0.3540 -0.0894
 6611SOL     OW26215   1.888   4.158   1.176  0.5989  0.2798 -0.1745
 6611SOL    HW226216   1.867   4.096   1.106  0.1625  0.6283 -0.3546
 6611SOL    HW326217   1.812   4.216   1.181  1.1986  1.0876 -0.3178
 6611SOL    MW426218   1.875   4.157   1.168  0.5812 -0.5177 -0.1210
 6612SOL     OW26219   0.198   3.645   3.026  0.5369 -0.0758  0.4901
 6612SOL    HW226220   0.125   3.655   3.087  0.8170  0.1249  0.7947
 6612SOL    HW326221   0.262   3.591   3.073  0.9840  0.5278  0.5835
 6612SOL    MW426222   0.197   3.639   3.040  0.2113  0.0839  0.6723
 6613SOL     OW26223   3.604   2.228   2.429  0.1496  0.1302  0.3106
 6613SOL    HW226224   3.511   2.251   2.426 -0.0282 -0.6874 -0.9524
 6613SOL    HW326225   3.645   2.303   2.473 -1.2231  0.0130  1.8854
 6613SOL    MW426226   3.598   2.241   2.435 -0.0671 -0.0379  0.7257
 6614SOL     OW26227   0.247   4.770   4.632  0.5732 -0.6565  0.0219
 6614SOL    HW226228   0.184   4.709   4.671  0.0861 -0.4169 -0.3830
 6614SOL    HW326229   0.261   4.836   4.700 -1.1126  0.3670 -0.5752
 6614SOL    MW426230   0.240   4.771   4.646  0.1889 -0.1167 -0.3088
 6615SOL     OW26231   5.295   5.781   3.056 -0.2886  0.0630  0.0328
 6615SOL    HW226232   5.227   5.732   3.008 -0.6587  0.8398 -0.2476
 6615SOL    HW326233   5.329   5.717   3.119 -1.3583 -0.3255  0.2568
 6615SOL    MW426234   5.290   5.766   3.058 -0.3538  0.0723 -0.0893
 6616SOL     OW26235   4.612   3.280   5.507  0.8115  0.1931  0.0708
 6616SOL    HW226236   4.550   3.316   5.444 -1.9127 -0.2996  2.3199
 6616SOL    HW326237   4.618   3.346   5.575  0.9767 -0.7493  0.9917
 6616SOL    MW426238   4.605   3.293   5.507  0.2507 -0.1713 -0.2546
 6617SOL     OW26239   1.601   0.415   2.020 -0.2218 -0.1011  0.2935
 6617SOL    HW226240   1.622   0.488   1.961  0.9663  0.4314  1.3470
 6617SOL    HW326241   1.669   0.350   2.003 -0.4603 -0.3695  0.3634
 6617SOL    MW426242   1.612   0.416   2.010 -0.2004 -0.3614 -0.2479
 6618SOL     OW26243   4.077   5.724   5.192  0.8908  0.0624 -0.1434
 6618SOL    HW226244   4.017   5.799   5.195  0.5898 -0.0978 -1.5008
 6618SOL    HW326245   4.028   5.652   5.232  1.0383  0.4683  0.8101
 6618SOL    MW426246   4.063   5.725   5.198 -0.6844 -0.2992  0.0135
 6619SOL     OW26247   4.902   0.688   0.965  0.4094 -0.6460  0.4325
 6619SOL    HW226248   4.859   0.774   0.958  1.4147 -0.1077  0.6586
 6619SOL    HW326249   4.920   0.678   1.058 -1.2775 -1.9228  0.6635
 6619SOL    MW426250   4.898   0.698   0.976 -0.1934 -0.0739  0.5787
 6620SOL     OW26251   2.020   3.148   1.721  0.5316 -0.3980 -0.1999
 6620SOL    HW226252   1.947   3.184   1.670  0.2044 -0.6318  0.0953
 6620SOL    HW326253   2.096   3.199   1.693 -0.0076  0.9054  0.5835
 6620SOL    MW426254   2.021   3.160   1.711  0.0753  0.2041 -0.3068
 6621SOL     OW26255   3.579   4.830   4.610  0.0261  0.0016 -0.1041
 6621SOL    HW226256   3.652   4.771   4.586  1.9693  1.7342  1.1881
 6621SOL    HW326257   3.620   4.916   4.620 -1.3827  0.4083  4.4072
 6621SOL    MW426258   3.594   4.833   4.608 -0.0116  0.1950 -0.1246
 6622SOL     OW26259   0.327   5.230   2.814 -0.1489 -0.4151 -0.4947
 6622SOL    HW226260   0.292   5.175   2.743 -0.2447  0.4074 -1.0980
 6622SOL    HW326261   0.382   5.170   2.865 -0.4507 -1.1342 -0.9903
 6622SOL    MW426262   0.330   5.215   2.811 -0.2030 -0.2478 -0.0213
 6623SOL     OW26263   1.584   1.141   3.581 -0.1495 -0.4090 -0.0881
 6623SOL    HW226264   1.522   1.143   3.654  0.5967 -2.6105  0.6664
 6623SOL    HW326265   1.536   1.097   3.511 -0.2534  0.1004 -0.3425
 6623SOL    MW426266   1.569   1.136   3.581 -0.3508 -0.0174 -0.1614
 6624SOL     OW26267   4.673   3.471   3.109 -0.0357  0.2085  0.5241
 6624SOL    HW226268   4.735   3.475   3.182 -0.9556 -1.1028  1.4114
 6624SOL    HW326269   4.623   3.391   3.123 -0.6615  0.2370 -1.2214
 6624SOL    MW426270   4.675   3.461   3.120 -0.0218  0.1516  0.0402
 6625SOL     OW26271   1.940   3.717   2.999 -0.1370  0.3875  0.0743
 6625SOL    HW226272   1.907   3.627   2.994  0.3306  0.1832  0.5091
 6625SOL    HW326273   1.873   3.764   3.048  0.1573 -0.0036  0.8787
 6625SOL    MW426274   1.927   3.711   3.005  0.4828  0.7119 -0.1221
 6626SOL     OW26275   3.692   1.037   6.192  0.1197 -0.1751 -0.1291
 6626SOL    HW226276   3.614   1.078   6.229 -1.0696 -2.3998 -0.0046
 6626SOL    HW326277   3.698   0.952   6.235  3.3012  0.2988  0.6829
 6626SOL    MW426278   3.683   1.031   6.203 -0.5374 -0.4889  0.3291
 6627SOL     OW26279   0.347   1.382   2.300 -0.2194  0.4559 -0.3432
 6627SOL    HW226280   0.263   1.381   2.254 -1.6061  1.3112  1.9798
 6627SOL    HW326281   0.373   1.474   2.300 -0.4138  0.5245  0.7990
 6627SOL    MW426282   0.339   1.394   2.294 -0.6266 -0.1932 -0.5385
 6628SOL     OW26283   0.119   4.950   5.487 -0.1869 -0.2921 -0.5602
 6628SOL    HW226284   0.043   4.959   5.544  0.0301 -1.1747 -0.0929
 6628SOL    HW326285   0.141   4.856   5.491  0.9702 -0.0467 -0.6045
 6628SOL    MW426286   0.112   4.938   5.495  0.0459  0.2080 -0.3421
 6629SOL     OW26287   3.785   0.528   5.163 -0.0428 -0.4928  0.1888
 6629SOL    HW226288   3.777   0.575   5.080 -0.6521 -1.0016 -0.0458
 6629SOL    HW326289   3.695   0.516   5.193  0.1164 -1.3625  0.3294
 6629SOL    MW426290   3.772   0.533   5.156  0.1271 -0.1522  0.7445
 6630SOL     OW26291   6.186   5.344   4.587 -0.2309 -0.7437 -0.2781
 6630SOL    HW226292   6.144   5.285   4.524 -0.3043 -2.2294  1.0901
 6630SOL    HW326293   6.152   5.430   4.565 -0.0352 -1.1448 -2.4341
 6630SOL    MW426294   6.176   5.347   4.575 -0.2066 -0.1252 -0.2907
 6631SOL     OW26295   0.706   2.464   4.853  0.4454 -0.3004 -0.1090
 6631SOL    HW226296   0.753   2.446   4.772  0.8892  0.4180 -0.0148
 6631SOL    HW326297   0.737   2.550   4.881 -0.1713 -0.2619  0.4916
 6631SOL    MW426298   0.716   2.473   4.846 -0.5309  0.1163  0.3653
 6632SOL     OW26299   2.354   4.412   2.642  0.1614  0.0213 -0.2392
 6632SOL    HW226300   2.438   4.457   2.634  1.2910 -2.0741 -0.9248
 6632SOL    HW326301   2.340   4.404   2.736  1.8490 -1.4902 -0.0730
 6632SOL    MW426302   2.363   4.417   2.653  0.1521 -0.2223  0.3739
 6633SOL     OW26303   0.541   2.087   2.812  0.1109  0.1382 -0.2438
 6633SOL    HW226304   0.468   2.121   2.865  0.9214  0.4199  0.7069
 6633SOL    HW326305   0.538   2.139   2.731 -0.8580  0.0146 -0.3002
 6633SOL    MW426306   0.531   2.098   2.808 -0.8428 -0.2422 -0.0712
 6634SOL     OW26307   4.586   1.327   1.115 -0.0497  0.0641  0.0654
 6634SOL    HW226308   4.501   1.368   1.134  0.5259  1.3893 -0.0584
 6634SOL    HW326309   4.648   1.400   1.116  0.9161 -0.6979 -1.0200
 6634SOL    MW426310   4.583   1.342   1.118 -0.7409 -0.7322 -0.1717
 6635SOL     OW26311   0.172   5.596   4.744 -0.2814 -0.7057 -0.0553
 6635SOL    HW226312   0.251   5.553   4.712  0.1170  1.1964 -1.8559
 6635SOL    HW326313   0.126   5.624   4.665 -1.4570  0.4905  0.9982
 6635SOL    MW426314   0.177   5.594   4.729 -0.0526 -0.6109 -0.3496
 6636SOL     OW26315   4.265   2.667   1.631 -0.5652 -0.1021  0.3805
 6636SOL    HW226316   4.328   2.737   1.648 -0.0580 -0.9147  1.9661
 6636SOL    HW326317   4.291   2.632   1.546  0.5261  0.2186  0.5660
 6636SOL    MW426318   4.277   2.672   1.622  0.4038 -0.2749 -0.2681
 6637SOL     OW26319   5.111   4.853   6.245 -0.3214 -0.6739 -0.0277
 6637SOL    HW226320   5.138   4.838   6.335 -1.4516  1.0936  0.6525
 6637SOL    HW326321   5.134   4.945   6.228 -0.6141 -0.8234 -1.3684
 6637SOL    MW426322   5.118   4.864   6.254  0.0433 -0.0545 -0.0922
 6638SOL     OW26323   2.823   1.995   2.911  0.0629  0.2446 -0.3791
 6638SOL    HW226324   2.828   2.088   2.933 -0.3166  0.0182  0.7055
 6638SOL    HW326325   2.914   1.967   2.905  0.1801  0.6748 -0.7203
 6638SOL    MW426326   2.836   2.004   2.913 -0.0721  0.2483  0.1192
 6639SOL     OW26327   2.849   4.033   4.073  0.0634 -0.1327  0.0575
 6639SOL    HW226328   2.882   4.091   4.141 -0.7318  1.3085 -0.7284
 6639SOL    HW326329   2.802   3.965   4.121  1.4578 -0.4641  1.0243
 6639SOL    MW426330   2.847   4.031   4.088 -0.1910  0.0718  0.3518
 6640SOL     OW26331   2.025   2.963   3.865  0.6275  0.6358  0.2848
 6640SOL    HW226332   1.955   3.013   3.906 -2.1986 -1.9511 -0.9488
 6640SOL    HW326333   2.062   2.910   3.936 -0.9053 -0.2856  0.4353
 6640SOL    MW426334   2.021   2.962   3.880 -0.1291 -0.1919  0.3698
 6641SOL     OW26335   1.471   3.403   0.789 -0.2377  0.3708 -0.5528
 6641SOL    HW226336   1.522   3.323   0.798 -0.8957  0.0950  0.9687
 6641SOL    HW326337   1.418   3.390   0.711  0.9748  0.0965 -1.3629
 6641SOL    MW426338   1.471   3.391   0.780  0.2951 -0.1794 -0.2302
 6642SOL     OW26339   2.444   0.476   5.102  0.1189  0.2346  0.5618
 6642SOL    HW226340   2.403   0.542   5.046  1.1881 -0.0656 -0.6216
 6642SOL    HW326341   2.522   0.519   5.137 -0.1946  0.2051  1.3329
 6642SOL    MW426342   2.449   0.490   5.099 -0.4499  0.0927  0.2262
 6643SOL     OW26343   1.619   5.036   2.801 -0.3631 -0.7258  0.6012
 6643SOL    HW226344   1.667   5.036   2.718  0.6318  0.1220  1.1472
 6643SOL    HW326345   1.655   4.963   2.851  1.1105  0.4879  1.3922
 6643SOL    MW426346   1.630   5.027   2.797 -0.2918 -0.2650  0.4835
 6644SOL     OW26347   3.375   3.510   1.787 -0.3107 -0.0905 -0.2448
 6644SOL    HW226348   3.305   3.478   1.730 -0.4968 -0.7918  0.3646
 6644SOL    HW326349   3.434   3.434   1.796 -1.1511 -0.5456  1.8386
 6644SOL    MW426350   3.374   3.495   1.780 -0.3762  0.0045 -0.1171
 6645SOL     OW26351   5.988   4.734   6.376 -0.0277  0.3518 -0.0085
 6645SOL    HW226352   5.972   4.670   6.307 -1.8514  1.3214 -0.5318
 6645SOL    HW326353   5.921   4.716   6.442  0.1394  1.0084  0.3515
 6645SOL    MW426354   5.977   4.723   6.376  0.1055 -0.2693 -0.6566
 6646SOL     OW26355   5.784   2.195   5.716  0.3736 -0.0432 -0.2947
 6646SOL    HW226356   5.785   2.284   5.753 -1.5644 -1.4890  3.9250
 6646SOL    HW326357   5.844   2.146   5.773  0.4594 -1.7023 -1.7636
 6646SOL    MW426358   5.792   2.200   5.729 -0.3394 -0.4582 -0.4696
 6647SOL     OW26359   1.525   1.978   4.123 -0.1566 -0.3272  0.7602
 6647SOL    HW226360   1.512   1.990   4.217  2.1929  1.2403  0.9764
 6647SOL    HW326361   1.491   2.059   4.084 -0.8702 -0.8561  0.2675
 6647SOL    MW426362   1.519   1.991   4.130 -0.1606 -0.5155  0.1711
 6648SOL     OW26363   3.839   5.928   1.961  0.1350  0.4134 -0.2024
 6648SOL    HW226364   3.867   5.926   2.052  0.3846 -0.2409 -0.2872
 6648SOL    HW326365   3.916   5.902   1.911 -1.0065 -3.5399 -0.3119
 6648SOL    MW426366   3.853   5.924   1.966  0.2054  0.0881  0.3215
 6649SOL     OW26367   4.610   3.575   6.435 -0.2840 -0.5229  0.2637
 6649SOL    HW226368   4.703   3.570   6.458 -0.0975  0.7612 -0.0994
 6649SOL    HW326369   4.574   3.489   6.458  0.8808 -0.8582  0.8912
 6649SOL    MW426370   4.618   3.563   6.441 -0.2895  0.5988  0.4767
 6650SOL     OW26371   5.705   0.921   2.966  0.6156 -0.2244 -0.6153
 6650SOL    HW226372   5.722   0.889   2.878  2.4434  3.6741 -1.9141
 6650SOL    HW326373   5.635   0.985   2.956 -1.5978 -2.1385  1.4884
 6650SOL    MW426374   5.698   0.925   2.953 -0.2365  0.3222  0.1085
 6651SOL     OW26375   3.865   0.428   4.474  0.4140  0.0495 -0.4634
 6651SOL    HW226376   3.794   0.374   4.438 -0.9126  1.7593 -0.5511
 6651SOL    HW326377   3.824   0.479   4.543  0.8648  2.8998 -2.1313
 6651SOL    MW426378   3.850   0.427   4.478 -0.0551  0.1851  0.2846
 6652SOL     OW26379   1.530   2.932   0.881  0.3045  0.0278  0.1377
 6652SOL    HW226380   1.588   2.876   0.829  1.2106  1.2461 -0.2038
 6652SOL    HW326381   1.465   2.964   0.819  0.6863  0.5499  0.0060
 6652SOL    MW426382   1.529   2.929   0.866  0.7791  0.1460 -0.0810
 6653SOL     OW26383   3.953   6.092   1.297  0.0697 -0.0351  0.2749
 6653SOL    HW226384   3.892   6.020   1.283  1.3929 -1.2458  0.6054
 6653SOL    HW326385   3.988   6.111   1.210  0.6590 -0.6562  0.3699
 6653SOL    MW426386   3.950   6.085   1.283  0.5141  0.2151 -0.2808
 6654SOL     OW26387   6.072   4.897   3.209  0.7881  0.3576 -0.2672
 6654SOL    HW226388   5.993   4.881   3.158  0.9875 -1.7358 -0.0213
 6654SOL    HW326389   6.041   4.913   3.298  0.5808  1.1305 -0.4723
 6654SOL    MW426390   6.058   4.897   3.214 -0.1704  0.0592 -1.0275
 6655SOL     OW26391   5.192   4.067   3.649 -0.6518 -0.3920  0.3506
 6655SOL    HW226392   5.098   4.066   3.664 -0.5710 -0.7890  0.8739
 6655SOL    HW326393   5.230   4.081   3.735 -0.1916 -1.9018  0.4198
 6655SOL    MW426394   5.185   4.069   3.662  0.0970 -0.3232 -0.3102
 6656SOL     OW26395   0.739   1.260   4.666 -0.1775  0.0654  0.1160
 6656SOL    HW226396   0.735   1.321   4.594 -0.0447  0.2229  0.2425
 6656SOL    HW326397   0.795   1.302   4.731  2.9341 -1.7048 -1.2464
 6656SOL    MW426398   0.746   1.273   4.665 -0.8167 -0.5381 -0.2344
 6657SOL     OW26399   2.498   4.613   5.695  0.0634 -0.4203 -0.1016
 6657SOL    HW226400   2.515   4.544   5.631  1.0812 -0.4954  0.2355
 6657SOL    HW326401   2.583   4.652   5.712 -0.0264 -0.9514  1.8065
 6657SOL    MW426402   2.511   4.609   5.689  0.2993 -0.4822  0.5664
 6658SOL     OW26403   3.486   1.282   5.738  0.4005 -0.2997  0.6731
 6658SOL    HW226404   3.400   1.311   5.706 -0.5544 -0.7814  2.6783
 6658SOL    HW326405   3.470   1.196   5.778  2.3151 -1.5835 -1.0800
 6658SOL    MW426406   3.473   1.274   5.739 -0.8095 -0.1912  0.2709
 6659SOL     OW26407   4.758   4.107   5.069 -0.3164  0.0037 -0.2507
 6659SOL    HW226408   4.694   4.111   4.999 -0.1958 -1.1191 -0.4436
 6659SOL    HW326409   4.783   4.015   5.074  0.3485  0.2139  0.6612
 6659SOL    MW426410   4.753   4.096   5.061  0.6819 -0.6343 -0.4192
 6660SOL     OW26411   6.256   2.447   1.864 -0.0076  0.2526  0.2304
 6660SOL    HW226412   6.225   2.357   1.855  1.5858 -0.2537 -0.5697
 6660SOL    HW326413   6.273   2.475   1.774 -2.0332  1.9773  0.3046
 6660SOL    MW426414   6.254   2.439   1.851  0.0803  0.1730  0.4420
 6661SOL     OW26415   6.319   3.081   4.943  0.0510  0.2701 -0.0763
 6661SOL    HW226416   6.225   3.062   4.946 -0.1970  1.4402  0.0060
 6661SOL    HW326417   6.350   3.064   5.032  0.1589 -1.1785 -0.3621
 6661SOL    MW426418   6.311   3.076   4.955 -0.5627 -0.4095 -0.5266
 6662SOL     OW26419   2.025   0.037   0.611 -0.8518 -0.9155  0.4885
 6662SOL    HW226420   2.027   0.090   0.531 -0.1425 -1.2363  0.2815
 6662SOL    HW326421   2.030   0.101   0.682 -0.5965 -0.6724  0.2537
 6662SOL    MW426422   2.026   0.053   0.610 -0.4566  0.1037  0.1485
 6663SOL     OW26423   3.635   4.710   5.907 -1.0397 -0.0781 -0.3337
 6663SOL    HW226424   3.633   4.781   5.843 -3.9661  0.5185  0.2912
 6663SOL    HW326425   3.628   4.630   5.854  0.6104  0.1250 -0.9311
 6663SOL    MW426426   3.634   4.708   5.891 -0.0823 -0.3563 -0.0243
 6664SOL     OW26427   6.144   2.286   1.558 -0.4860  0.0538 -0.5056
 6664SOL    HW226428   6.110   2.206   1.516  0.0447  0.4124 -1.6604
 6664SOL    HW326429   6.198   2.327   1.491 -1.0609  1.6005 -0.0607
 6664SOL    MW426430   6.147   2.281   1.544  0.2372 -0.1409  0.4871
 6665SOL     OW26431   1.993   5.512   4.517 -0.0340  0.4880  0.8494
 6665SOL    HW226432   2.016   5.528   4.425  0.3788  0.4180  0.9393
 6665SOL    HW326433   2.021   5.422   4.533  0.3182  0.6533  1.1736
 6665SOL    MW426434   2.000   5.502   4.507  0.3212  0.3406  0.0290
 6666SOL     OW26435   1.420   4.763   5.560 -0.1556 -0.4391  0.2444
 6666SOL    HW226436   1.490   4.748   5.623  0.5807 -1.0460 -0.6920
 6666SOL    HW326437   1.437   4.851   5.526  0.0035 -0.4903  0.1945
 6666SOL    MW426438   1.431   4.773   5.564  0.0284 -0.4223 -0.1289
 6667SOL     OW26439   3.462   4.083   5.423  0.1226  0.2031 -0.2537
 6667SOL    HW226440   3.479   4.168   5.463 -0.3981 -0.1149  0.6826
 6667SOL    HW326441   3.473   4.020   5.495  3.6127 -0.9166 -1.5590
 6667SOL    MW426442   3.466   4.086   5.438  0.0498  0.2745 -0.1456
 6668SOL     OW26443   2.605   4.531   2.657 -0.2301 -0.3549 -0.1149
 6668SOL    HW226444   2.651   4.578   2.726 -2.1354  0.6677  0.5351
 6668SOL    HW326445   2.611   4.589   2.580 -0.9338  0.0783  0.1474
 6668SOL    MW426446   2.612   4.545   2.656  0.1467  0.3737  0.1379
 6669SOL     OW26447   1.709   0.941   0.626  0.0268 -0.3023  0.0968
 6669SOL    HW226448   1.720   1.029   0.660 -0.7215 -0.5777  1.0873
 6669SOL    HW326449   1.633   0.906   0.673  0.8439 -1.7803  0.3841
 6669SOL    MW426450   1.700   0.948   0.637 -0.2926  0.3068  0.3945
 6670SOL     OW26451   0.569   5.678   6.177 -0.2500 -0.1068 -0.1134
 6670SOL    HW226452   0.546   5.733   6.102  1.2667 -2.6054 -2.6320
 6670SOL    HW326453   0.663   5.692   6.190 -0.1878 -0.8354  0.2956
 6670SOL    MW426454   0.578   5.687   6.169 -0.4070 -0.0740  0.2013
 6671SOL     OW26455   1.624   0.211   1.301  0.2839 -0.1772  0.1648
 6671SOL    HW226456   1.637   0.118   1.281 -0.1986 -0.1597 -0.2394
 6671SOL    HW326457   1.533   0.217   1.330  0.9597 -0.2230  2.5518
 6671SOL    MW426458   1.614   0.200   1.302  0.4295 -0.2326  0.5251
 6672SOL     OW26459   1.783   1.267   5.714 -0.2320  0.0940  0.4536
 6672SOL    HW226460   1.822   1.333   5.770 -0.1584  0.5288 -0.1034
 6672SOL    HW326461   1.705   1.309   5.678  0.5639  0.3972 -1.0039
 6672SOL    MW426462   1.778   1.281   5.716  0.6523 -0.6959  0.2452
 6673SOL     OW26463   2.742   0.231   5.028  0.2664 -0.1308  0.3062
 6673SOL    HW226464   2.667   0.239   4.970  0.4908 -0.0420  0.0241
 6673SOL    HW326465   2.769   0.140   5.022  0.1277 -0.1820  0.4727
 6673SOL    MW426466   2.736   0.220   5.020  0.5757  0.7093 -0.5751
 6674SOL     OW26467   4.970   2.462   5.146  0.4355  1.1338  0.1730
 6674SOL    HW226468   4.915   2.538   5.127 -0.5640  0.2764 -0.5576
 6674SOL    HW326469   4.921   2.413   5.212  1.0178  1.0761  0.5632
 6674SOL    MW426470   4.956   2.465   5.152  0.3414 -0.5485 -0.0595
 6675SOL     OW26471   0.206   5.265   4.637  0.2951  0.3829  0.0970
 6675SOL    HW226472   0.143   5.213   4.686  1.7892 -0.5982  1.0496
 6675SOL    HW326473   0.169   5.271   4.549  0.2502 -2.6867 -0.2007
 6675SOL    MW426474   0.193   5.259   4.632 -0.0303  0.4604 -0.4678
 6676SOL     OW26475   2.876   3.955   2.186 -0.3096 -0.5043 -0.7379
 6676SOL    HW226476   2.964   3.943   2.150 -1.1357 -2.9823 -2.2067
 6676SOL    HW326477   2.849   4.041   2.155  1.1988 -0.1653 -1.1908
 6676SOL    MW426478   2.884   3.965   2.177  0.5046  0.3574 -0.5182
 6677SOL     OW26479   0.772   1.876   3.187  0.0982 -0.5272 -0.2610
 6677SOL    HW226480   0.711   1.926   3.134  0.3115 -0.2633 -0.2607
 6677SOL    HW326481   0.745   1.785   3.176 -0.4537 -0.3916 -0.0567
 6677SOL    MW426482   0.760   1.871   3.179  0.0983  0.6566 -0.0942
 6678SOL     OW26483   1.216   2.296   2.909 -0.1257  0.3633  0.0541
 6678SOL    HW226484   1.246   2.213   2.946  1.2809  0.6052 -0.4924
 6678SOL    HW326485   1.214   2.356   2.984 -2.2066 -0.3841  0.6752
 6678SOL    MW426486   1.219   2.293   2.924 -0.2937 -0.8561  0.2481
 6679SOL     OW26487   5.375   3.555   2.205 -0.0040  0.5863  0.5019
 6679SOL    HW226488   5.282   3.537   2.221  0.0965 -2.4467 -1.4570
 6679SOL    HW326489   5.409   3.583   2.289 -2.2106 -0.7676  1.9546
 6679SOL    MW426490   5.367   3.556   2.218 -0.0204  0.2000 -0.4473
 6680SOL     OW26491   1.056   2.389   5.268 -0.2835  0.1545  0.3622
 6680SOL    HW226492   0.964   2.366   5.277 -0.5684  1.0273 -0.1747
 6680SOL    HW326493   1.099   2.347   5.342 -1.1258 -0.1727  0.6757
 6680SOL    MW426494   1.050   2.381   5.279 -0.3000 -0.8099  0.3799
 6681SOL     OW26495   6.011   2.640   4.122 -0.2375  0.0008 -0.4584
 6681SOL    HW226496   5.990   2.729   4.147 -0.1980 -0.0756 -0.1527
 6681SOL    HW326497   5.968   2.627   4.037 -1.4460 -0.1674  0.1722
 6681SOL    MW426498   6.003   2.650   4.114  0.3681  0.2257 -0.7963
 6682SOL     OW26499   5.427   2.646   0.944 -0.3073 -0.0557  0.4603
 6682SOL    HW226500   5.487   2.683   0.879  0.5849  0.7213  1.6737
 6682SOL    HW326501   5.354   2.612   0.893  0.8694 -0.4746 -1.0339
 6682SOL    MW426502   5.425   2.646   0.929  0.0833 -0.0893 -0.0413
 6683SOL     OW26503   2.855   6.145   5.219  0.4608  0.4570  0.5091
 6683SOL    HW226504   2.781   6.194   5.183  0.7904  0.0962 -0.7261
 6683SOL    HW326505   2.928   6.206   5.215  0.2917  0.7347  1.5053
 6683SOL    MW426506   2.855   6.159   5.213  0.0091  0.1538  0.3256
 6684SOL     OW26507   0.665   4.950   5.413  0.5620 -0.2287 -0.2792
 6684SOL    HW226508   0.694   4.991   5.331  0.1188  1.5401  0.4105
 6684SOL    HW326509   0.734   4.972   5.476 -0.4110  0.7737  0.4619
 6684SOL    MW426510   0.678   4.959   5.410 -0.1838  0.3612  0.1879
 6685SOL     OW26511   2.536   5.973   1.681  0.4627  0.1159 -0.4230
 6685SOL    HW226512   2.624   5.993   1.649  0.9927 -1.8100 -0.3028
 6685SOL    HW326513   2.547   5.891   1.730 -1.7913 -1.5157 -2.4057
 6685SOL    MW426514   2.549   5.965   1.684  0.0763 -0.0696 -0.2417
 6686SOL     OW26515   5.904   2.835   5.557 -0.1771  0.1130  0.2418
 6686SOL    HW226516   5.901   2.830   5.652 -1.1071  1.0721  0.2845
 6686SOL    HW326517   5.903   2.744   5.527 -0.4480 -0.1842  1.1322
 6686SOL    MW426518   5.904   2.823   5.566 -0.0616 -0.5756 -0.1082
 6687SOL     OW26519   4.568   1.563   5.797  0.5575  0.1023  0.1363
 6687SOL    HW226520   4.644   1.577   5.741 -0.4244 -0.0166 -1.2826
 6687SOL    HW326521   4.512   1.639   5.781  0.1341 -0.0710  0.7625
 6687SOL    MW426522   4.571   1.575   5.787 -0.1114 -0.3685  0.1516
 6688SOL     OW26523   5.880   2.997   1.770 -0.2358 -0.2796 -0.1797
 6688SOL    HW226524   5.951   3.054   1.740  0.0543 -0.3291  0.3878
 6688SOL    HW326525   5.821   2.990   1.695  0.8303 -1.0028 -0.9789
 6688SOL    MW426526   5.881   3.004   1.756  0.0397 -0.4156 -0.4583
 6689SOL     OW26527   2.568   6.201   4.828  0.0931 -0.0849 -0.0269
 6689SOL    HW226528   2.648   6.168   4.870  0.0000 -0.1901  0.0694
 6689SOL    HW326529   2.587   6.293   4.810  0.3646 -0.1967 -0.3190
 6689SOL    MW426530   2.581   6.209   4.831 -0.3924 -0.0285  0.7515
 6690SOL     OW26531   4.935   2.579   0.884 -0.8690  0.7646 -0.1617
 6690SOL    HW226532   4.929   2.642   0.955 -1.0054 -0.1209  0.6297
 6690SOL    HW326533   4.930   2.494   0.927  3.9285 -0.0331 -0.5908
 6690SOL    MW426534   4.934   2.576   0.899 -0.5707 -0.0031 -0.2244
 6691SOL     OW26535   3.774   4.998   4.946  0.3106  0.5425 -0.5191
 6691SOL    HW226536   3.831   4.997   5.023 -0.2222  0.3032 -0.1172
 6691SOL    HW326537   3.693   4.955   4.976  0.5193 -0.6114 -1.5308
 6691SOL    MW426538   3.770   4.992   4.961  0.4853  0.4700 -0.2170
 6692SOL     OW26539   2.738   0.438   1.687 -0.6850 -0.0908  0.1623
 6692SOL    HW226540   2.776   0.488   1.760  1.1634 -2.3136  0.8449
 6692SOL    HW326541   2.754   0.493   1.610  0.4313  0.7817  0.9740
 6692SOL    MW426542   2.745   0.452   1.686 -0.4805 -0.4078 -0.1684
 6693SOL     OW26543   4.081   5.202   2.725  0.2847  0.2879  0.0904
 6693SOL    HW226544   4.116   5.218   2.638 -1.0366 -0.7041 -0.6563
 6693SOL    HW326545   4.126   5.123   2.755  0.8675  0.7268  0.4078
 6693SOL    MW426546   4.092   5.194   2.718  0.3955 -0.5061 -0.4386
 6694SOL     OW26547   3.219   5.687   1.815  0.1254  0.1081  0.5727
 6694SOL    HW226548   3.181   5.602   1.795 -1.6724  1.0253 -0.1990
 6694SOL    HW326549   3.243   5.724   1.730  2.7097 -0.3465  1.0151
 6694SOL    MW426550   3.217   5.681   1.802  0.1624  0.7486  0.6025
 6695SOL     OW26551   2.461   5.241   1.043 -0.4240 -0.0675  0.7212
 6695SOL    HW226552   2.382   5.276   1.084 -2.1305 -1.7905 -0.8988
 6695SOL    HW326553   2.479   5.160   1.089 -0.4267 -0.3780  0.1850
 6695SOL    MW426554   2.453   5.235   1.054 -0.2750  0.0360  0.7009
 6696SOL     OW26555   2.318   5.385   1.596  0.1958  0.0592  0.1176
 6696SOL    HW226556   2.400   5.420   1.630  0.8595  0.9075 -2.2392
 6696SOL    HW326557   2.334   5.291   1.590  0.1470 -0.0993  1.7677
 6696SOL    MW426558   2.331   5.377   1.600 -0.2488  0.2053  0.3080
 6697SOL     OW26559   4.372   3.926   0.991 -0.0049  0.2401  0.0707
 6697SOL    HW226560   4.362   3.875   0.911  1.5613  1.2408 -0.8048
 6697SOL    HW326561   4.283   3.932   1.026 -0.7221 -0.2353 -1.5675
 6697SOL    MW426562   4.359   3.920   0.985  0.0332 -0.2933  0.9802
 6698SOL     OW26563   6.032   3.568   4.608 -0.6321 -0.1404 -0.8122
 6698SOL    HW226564   6.076   3.650   4.586 -0.6267  0.1724  0.3139
 6698SOL    HW326565   5.939   3.589   4.605 -0.6473  0.7252  2.1895
 6698SOL    MW426566   6.026   3.582   4.605 -0.1020 -0.0041  0.0225
 6699SOL     OW26567   1.361   5.304   1.659  0.1667 -0.1899  0.1126
 6699SOL    HW226568   1.411   5.355   1.595  1.7918 -1.6969  0.0873
 6699SOL    HW326569   1.366   5.214   1.627  0.5972 -0.9236  2.0695
 6699SOL    MW426570   1.368   5.298   1.646  0.6103 -0.3417 -0.2488
 6700SOL     OW26571   0.010   3.976   5.623  0.3519 -0.0059 -0.6376
 6700SOL    HW226572   0.038   3.897   5.669  1.6228  0.4524 -0.5615
 6700SOL    HW326573   0.055   4.047   5.669 -0.9175  0.7940 -0.5798
 6700SOL    MW426574   0.020   3.975   5.636 -0.1829  0.3080 -0.1990
 6701SOL     OW26575   2.418   5.193   1.847  0.3461 -0.0869 -0.1063
 6701SOL    HW226576   2.498   5.153   1.881  0.7534 -0.7517 -1.7201
 6701SOL    HW326577   2.349   5.167   1.909  1.1034 -0.8776  0.4309
 6701SOL    MW426578   2.419   5.184   1.859  0.1067  0.3027  0.2215
 6702SOL     OW26579   0.840   0.834   2.112  0.2396 -0.0876 -0.2334
 6702SOL    HW226580   0.832   0.917   2.159 -0.9291 -0.2198 -0.1730
 6702SOL    HW326581   0.780   0.842   2.038  2.0917  0.1258 -1.7830
 6702SOL    MW426582   0.831   0.846   2.109 -0.2188 -0.5002 -0.7070
 6703SOL     OW26583   3.656   5.072   1.207  0.0549 -0.6806 -0.1399
 6703SOL    HW226584   3.693   5.042   1.125 -0.2438  0.1694 -0.5963
 6703SOL    HW326585   3.570   5.030   1.212 -0.4818  0.2718 -0.9142
 6703SOL    MW426586   3.649   5.063   1.197  0.0743  0.0313 -0.0745
 6704SOL     OW26587   3.610   5.875   3.257 -0.3487  0.7582 -0.4945
 6704SOL    HW226588   3.647   5.937   3.319 -0.0476  0.8995 -0.8114
 6704SOL    HW326589   3.566   5.810   3.311 -1.1450  1.5420 -0.1717
 6704SOL    MW426590   3.609   5.874   3.272  0.0215  0.1689 -0.1344
 6705SOL     OW26591   5.010   3.457   0.994 -0.6862  0.1764  0.3886
 6705SOL    HW226592   5.081   3.514   0.963  0.4085  0.4291  3.1033
 6705SOL    HW326593   5.053   3.374   1.013 -1.6019 -0.4380 -0.1606
 6705SOL    MW426594   5.025   3.454   0.992  0.3596  0.0249 -0.3720
 6706SOL     OW26595   2.118   6.178   4.393  0.0087  0.3804  0.2602
 6706SOL    HW226596   2.186   6.168   4.459  0.0184 -1.7511 -0.0203
 6706SOL    HW326597   2.088   6.089   4.374 -1.4477  1.0933 -1.1069
 6706SOL    MW426598   2.123   6.165   4.399  0.1472  0.6196  0.0338
 6707SOL     OW26599   4.212   5.769   0.364 -0.2052  0.5463  0.0431
 6707SOL    HW226600   4.266   5.714   0.307 -1.0377 -0.0517 -0.1778
 6707SOL    HW326601   4.196   5.849   0.313 -1.5716 -0.2870 -0.8975
 6707SOL    MW426602   4.217   5.772   0.350 -0.6843 -0.5252 -0.8229
 6708SOL     OW26603   2.436   2.912   4.756  0.2890 -0.4678 -0.5141
 6708SOL    HW226604   2.408   3.004   4.762  1.1626 -0.2510  0.5469
 6708SOL    HW326605   2.369   2.870   4.702 -0.3425  0.7036 -0.6775
 6708SOL    MW426606   2.423   2.919   4.749 -0.5137  0.2134 -0.0574
 6709SOL     OW26607   3.298   0.573   5.018 -0.0594 -0.7859 -0.8138
 6709SOL    HW226608   3.274   0.660   5.050  0.7167 -0.8620 -0.0078
 6709SOL    HW326609   3.254   0.512   5.077  1.5555 -0.9253  0.3116
 6709SOL    MW426610   3.289   0.576   5.030 -0.2200  0.2309 -0.1969
 6710SOL     OW26611   1.551   5.646   2.153  0.2989 -0.3875 -0.3534
 6710SOL    HW226612   1.553   5.695   2.235  1.6608 -0.8325 -0.0931
 6710SOL    HW326613   1.469   5.596   2.157  0.1616 -0.1118  0.5636
 6710SOL    MW426614   1.540   5.646   2.164 -0.0468  0.4409 -0.2863
 6711SOL     OW26615   1.901   4.817   2.387 -0.0627 -0.2781  0.4884
 6711SOL    HW226616   1.837   4.830   2.457  0.7165  1.9103  0.8589
 6711SOL    HW326617   1.941   4.732   2.407 -0.0176  0.1890  2.5861
 6711SOL    MW426618   1.898   4.807   2.399  0.0317 -0.3087  0.2171
 6712SOL     OW26619   3.312   3.475   6.434 -0.4719  0.1058 -0.0786
 6712SOL    HW226620   3.217   3.490   6.435 -0.3049  1.2835  0.0324
 6712SOL    HW326621   3.339   3.496   6.345 -0.4833 -1.5826 -0.5170
 6712SOL    MW426622   3.303   3.480   6.423 -0.5122 -0.2925  0.1487
 6713SOL     OW26623   1.401   0.442   5.227 -0.1872  0.1371 -0.5434
 6713SOL    HW226624   1.416   0.354   5.191  0.6846  0.1685 -0.2938
 6713SOL    HW326625   1.406   0.429   5.322  1.0263  0.6157 -0.5214
 6713SOL    MW426626   1.404   0.428   5.235 -0.6140  0.1729 -0.8747
 6714SOL     OW26627   4.209   0.882   4.920  0.0651  0.0837 -0.5311
 6714SOL    HW226628   4.275   0.920   4.862  1.5606  0.4722  1.2877
 6714SOL    HW326629   4.261   0.847   4.993 -1.7554  0.5316  1.0490
 6714SOL    MW426630   4.225   0.883   4.922  0.4931  0.3743  0.0319
 6715SOL     OW26631   0.624   3.299   5.500  0.0236 -0.6224 -0.0599
 6715SOL    HW226632   0.608   3.280   5.408 -0.2708 -0.1899 -0.1016
 6715SOL    HW326633   0.688   3.233   5.528  0.7266 -0.2678 -0.7809
 6715SOL    MW426634   0.631   3.288   5.492 -0.6066  0.1699  0.4631
 6716SOL     OW26635   3.788   1.425   2.043 -0.3198  0.6150 -0.1259
 6716SOL    HW226636   3.749   1.339   2.027  0.9823  0.1789 -1.1591
 6716SOL    HW326637   3.872   1.407   2.084 -0.5501  1.4630  0.7455
 6716SOL    MW426638   3.794   1.411   2.046  0.1326 -0.1625 -0.4848
 6717SOL     OW26639   0.859   5.016   4.087  0.2006 -0.7105 -0.1258
 6717SOL    HW226640   0.846   4.931   4.129  0.8698 -0.4910  0.5518
 6717SOL    HW326641   0.817   5.007   4.002  0.9652 -2.0162 -0.4052
 6717SOL    MW426642   0.852   5.004   4.081 -0.2785 -0.1435 -0.4757
 6718SOL     OW26643   3.512   5.853   4.785  0.0111 -0.1408 -0.1309
 6718SOL    HW226644   3.585   5.792   4.798  1.5509  0.9152 -2.7551
 6718SOL    HW326645   3.553   5.929   4.741 -2.4044  1.2476 -0.1438
 6718SOL    MW426646   3.527   5.855   4.781  0.2233 -0.0849  0.1164
 6719SOL     OW26647   5.511   4.253   4.103 -0.4861  0.0058 -0.2520
 6719SOL    HW226648   5.493   4.196   4.178  1.3430  0.6109  0.6993
 6719SOL    HW326649   5.470   4.208   4.029 -2.5090 -0.5134  1.1089
 6719SOL    MW426650   5.503   4.239   4.103  0.7974 -0.2048 -0.2323
 6720SOL     OW26651   1.189   1.467   6.356  0.3704 -0.1300 -0.0723
 6720SOL    HW226652   1.261   1.415   6.391  0.2777 -0.3615 -0.2209
 6720SOL    HW326653   1.231   1.547   6.323  0.1376  1.5211  3.2660
 6720SOL    MW426654   1.204   1.471   6.356 -0.0809  0.0994 -0.0098
 6721SOL     OW26655   6.002   3.668   1.001  0.3670 -0.4494  0.3970
 6721SOL    HW226656   5.971   3.593   0.951 -0.5857 -0.0118  0.3222
 6721SOL    HW326657   6.093   3.680   0.973  0.5813 -1.6755  0.5392
 6721SOL    MW426658   6.010   3.660   0.991 -0.3450  0.4750 -0.4224
 6722SOL     OW26659   0.816   4.573   4.606 -0.4408 -0.5591 -0.2943
 6722SOL    HW226660   0.753   4.618   4.662 -0.2515 -0.8594  0.1673
 6722SOL    HW326661   0.767   4.500   4.569 -0.3122 -0.8972  0.2062
 6722SOL    MW426662   0.801   4.570   4.609 -0.0206 -0.3237  0.3491
 6723SOL     OW26663   4.449   5.508   1.770 -0.0553  0.4212 -0.3312
 6723SOL    HW226664   4.404   5.510   1.685  1.6088 -0.8582 -1.2956
 6723SOL    HW326665   4.412   5.432   1.814  0.0828  0.2590 -0.4941
 6723SOL    MW426666   4.438   5.498   1.764  0.3764 -0.1161 -0.4729
 6724SOL     OW26667   2.425   4.228   5.044 -0.2182  0.2692 -0.7756
 6724SOL    HW226668   2.471   4.299   5.088 -0.8716  0.7000 -0.7668
 6724SOL    HW326669   2.493   4.166   5.018  0.3657  0.9405 -0.8489
 6724SOL    MW426670   2.440   4.229   5.046 -0.9401 -0.1827 -0.6871
 6725SOL     OW26671   5.416   6.215   2.673 -0.3041 -0.0832 -0.5684
 6725SOL    HW226672   5.352   6.170   2.728 -0.6083 -1.8980 -2.3118
 6725SOL    HW326673   5.449   6.285   2.729 -1.9376 -0.6652  1.2667
 6725SOL    MW426674   5.412   6.218   2.688  0.3874 -0.1319 -0.0906
 6726SOL     OW26675   2.578   3.621   4.109  0.3411  0.0026  0.1635
 6726SOL    HW226676   2.569   3.574   4.192 -1.7390 -0.1779 -0.1092
 6726SOL    HW326677   2.488   3.647   4.086  0.7739 -0.3978 -2.2793
 6726SOL    MW426678   2.565   3.619   4.117  0.4440 -0.0627 -0.3830
 6727SOL     OW26679   5.843   1.907   6.270  0.0026  0.4472 -0.4452
 6727SOL    HW226680   5.766   1.949   6.309  0.4722  1.7312 -0.8818
 6727SOL    HW326681   5.913   1.924   6.333  0.0377 -0.3496 -0.2591
 6727SOL    MW426682   5.842   1.915   6.284  0.3050 -0.2469 -0.0976
 6728SOL     OW26683   2.542   4.356   6.059  0.4015 -0.0963 -0.4809
 6728SOL    HW226684   2.616   4.415   6.077  1.5460 -1.3672 -0.8076
 6728SOL    HW326685   2.483   4.408   6.005 -1.3838  2.6096  3.6332
 6728SOL    MW426686   2.544   4.370   6.054 -0.1744  0.3806  0.2702
 6729SOL     OW26687   5.705   3.775   3.069  0.1026 -0.5032  0.4890
 6729SOL    HW226688   5.777   3.735   3.119  1.2204  1.5005  0.6075
 6729SOL    HW326689   5.746   3.805   2.988 -0.9709 -0.7070 -0.1484
 6729SOL    MW426690   5.720   3.773   3.065 -0.1985 -0.5498  0.0929
 6730SOL     OW26691   4.788   1.635   5.645  0.0820  0.1787 -0.0886
 6730SOL    HW226692   4.840   1.569   5.691 -2.0022 -0.2641  1.8130
 6730SOL    HW326693   4.823   1.719   5.674  0.5659 -0.0954  0.1351
 6730SOL    MW426694   4.799   1.637   5.655  0.1087 -0.5837 -0.1360
 6731SOL     OW26695   0.772   5.954   4.093  0.1674  0.0779 -0.4923
 6731SOL    HW226696   0.694   5.991   4.053 -0.5865 -1.4913 -0.5656
 6731SOL    HW326697   0.769   5.861   4.070  2.5118  0.1207 -1.1983
 6731SOL    MW426698   0.761   5.946   4.085 -0.8312 -0.0810  0.1539
 6732SOL     OW26699   0.704   0.109   3.811  0.0589 -0.3554  0.0813
 6732SOL    HW226700   0.712   0.076   3.901 -0.2678 -1.5079 -0.2979
 6732SOL    HW326701   0.634   0.057   3.772 -0.8482  1.1532 -0.4040
 6732SOL    MW426702   0.696   0.098   3.818 -0.0792 -0.0576  0.2126
 6733SOL     OW26703   3.797   5.632   0.335 -0.1612  0.1253  0.3493
 6733SOL    HW226704   3.792   5.661   0.426 -0.1180 -0.1118  0.4259
 6733SOL    HW326705   3.815   5.538   0.340  0.2505  0.1890  0.0919
 6733SOL    MW426706   3.798   5.623   0.348  0.0789 -0.0511 -0.2390
 6734SOL     OW26707   0.966   3.828   1.332 -0.2034 -0.3210 -0.4897
 6734SOL    HW226708   0.987   3.911   1.375  2.1564 -2.2269  2.3647
 6734SOL    HW326709   0.882   3.802   1.370 -0.0281 -0.1529  0.0126
 6734SOL    MW426710   0.957   3.835   1.343 -0.4958  0.2397  0.2544
 6735SOL     OW26711   1.332   1.357   4.473 -0.3701  0.3640 -0.5771
 6735SOL    HW226712   1.400   1.333   4.536  0.4581  0.0892 -1.5407
 6735SOL    HW326713   1.300   1.273   4.439  0.2002  0.5156 -1.5392
 6735SOL    MW426714   1.337   1.343   4.477  0.1326  0.1554 -0.4825
 6736SOL     OW26715   6.362   3.834   1.892  0.6359  0.3629 -0.2845
 6736SOL    HW226716   6.389   3.754   1.937  1.4687  1.2545  0.8520
 6736SOL    HW326717   6.267   3.831   1.891  0.6678 -0.9174 -0.7791
 6736SOL    MW426718   6.353   3.823   1.898  0.1844 -0.3080  0.7234
 6737SOL     OW26719   1.433   5.065   4.697  0.1684 -0.3238  0.5901
 6737SOL    HW226720   1.347   5.101   4.717  0.3120 -0.0075  0.6460
 6737SOL    HW326721   1.482   5.139   4.661 -0.4861 -1.1577 -2.2216
 6737SOL    MW426722   1.428   5.080   4.695 -0.2833  0.0974  0.2366
 6738SOL     OW26723   2.920   5.798   4.060 -0.1780  0.5803  0.8120
 6738SOL    HW226724   2.866   5.754   4.126 -0.8650  0.5022  0.2085
 6738SOL    HW326725   2.857   5.830   3.995  0.4853  0.7106  0.2252
 6738SOL    MW426726   2.905   5.797   4.060 -0.3831  0.0561 -0.1312
 6739SOL     OW26727   0.639   4.566   0.388  0.1108  0.0534 -0.3258
 6739SOL    HW226728   0.562   4.569   0.331 -0.6611 -2.2640  0.4430
 6739SOL    HW326729   0.617   4.622   0.462  0.2629  1.4284 -1.2942
 6739SOL    MW426730   0.626   4.574   0.391  0.1199  0.0787 -0.4179
 6740SOL     OW26731   0.496   3.886   2.018  0.1020  0.3096 -0.4138
 6740SOL    HW226732   0.437   3.923   2.084 -1.1421  2.4513 -2.5409
 6740SOL    HW326733   0.457   3.802   1.994  0.6109 -0.5327  1.5114
 6740SOL    MW426734   0.483   3.880   2.024 -0.1974 -0.2693  0.2842
 6741SOL     OW26735   5.696   2.984   5.440  0.1761 -0.0123  0.2482
 6741SOL    HW226736   5.784   2.954   5.461  0.4215  0.9742  0.6978
 6741SOL    HW326737   5.708   3.075   5.413 -0.2279 -0.8580 -3.3003
 6741SOL    MW426738   5.709   2.992   5.439  0.2130 -0.3379  0.0775
 6742SOL     OW26739   3.967   3.189   1.998 -0.5256 -0.6636 -0.3735
 6742SOL    HW226740   3.874   3.202   1.978 -0.4418  0.5065 -0.0474
 6742SOL    HW326741   3.969   3.107   2.048 -1.2183 -1.3751 -1.4493
 6742SOL    MW426742   3.955   3.180   2.002 -0.0649 -0.4836 -0.0460
 6743SOL     OW26743   5.468   5.212   0.180 -0.4056 -0.0690  0.0049
 6743SOL    HW226744   5.498   5.176   0.263  0.2920  0.4570 -0.0095
 6743SOL    HW326745   5.531   5.179   0.115  0.0580  0.8904 -0.0537
 6743SOL    MW426746   5.480   5.203   0.182  0.5707 -0.2160  0.1542
 6744SOL     OW26747   1.031   0.215   3.126  0.0673 -0.2979 -0.3617
 6744SOL    HW226748   1.081   0.157   3.069 -1.2079 -1.4586 -0.3421
 6744SOL    HW326749   0.953   0.165   3.149  0.2250  0.3679  1.9027
 6744SOL    MW426750   1.027   0.201   3.122  0.2974 -0.1091  1.1437
 6745SOL     OW26751   2.765   0.970   5.215  0.0024  0.0473  0.3233
 6745SOL    HW226752   2.829   0.950   5.283 -0.7388  0.1903  1.0767
 6745SOL    HW326753   2.683   0.931   5.247 -0.7733  1.6632  0.3864
 6745SOL    MW426754   2.763   0.962   5.228  0.5952  0.1295  0.0769
 6746SOL     OW26755   2.464   5.698   1.800 -0.0200  0.2648 -0.4079
 6746SOL    HW226756   2.484   5.607   1.780  1.3893  0.4894 -0.1185
 6746SOL    HW326757   2.436   5.697   1.892  1.7769  0.3285  0.1796
 6746SOL    MW426758   2.463   5.686   1.810  0.6818  0.5934 -0.7771
 6747SOL     OW26759   2.098   1.208   0.556  0.0849 -0.2881 -0.1136
 6747SOL    HW226760   2.143   1.275   0.607 -1.8241 -1.2692  3.1372
 6747SOL    HW326761   2.156   1.132   0.559  0.8397  0.2201 -1.1470
 6747SOL    MW426762   2.111   1.207   0.563 -0.6408  0.1388 -0.2616
 6748SOL     OW26763   0.657   2.191   2.368 -0.3086 -0.2644 -0.5625
 6748SOL    HW226764   0.744   2.186   2.328  0.0303 -2.4400  0.3575
 6748SOL    HW326765   0.606   2.245   2.306  1.4482  0.3770 -1.5174
 6748SOL    MW426766   0.662   2.198   2.354 -0.3905 -0.1289  0.6881
 6749SOL     OW26767   0.621   1.142   1.593 -0.1742 -0.3334 -0.3535
 6749SOL    HW226768   0.581   1.229   1.583 -1.2350 -0.8860 -1.0577
 6749SOL    HW326769   0.580   1.105   1.671  0.8547  0.0817  0.4121
 6749SOL    MW426770   0.610   1.149   1.602 -0.2101  0.2504 -0.6785
 6750SOL     OW26771   0.815   4.137   5.109  0.7159  0.0713 -0.1490
 6750SOL    HW226772   0.822   4.061   5.166  1.3185 -0.6746 -1.1909
 6750SOL    HW326773   0.903   4.176   5.111  0.7153  0.0911 -0.4884
 6750SOL    MW426774   0.828   4.132   5.117 -0.3207 -0.4153 -0.2716
 6751SOL     OW26775   4.637   1.503   0.123 -0.3146  0.5339 -0.6653
 6751SOL    HW226776   4.652   1.489   0.029  4.1506  2.2085 -0.4120
 6751SOL    HW326777   4.625   1.598   0.132 -0.6408  0.3999  0.4871
 6751SOL    MW426778   4.637   1.514   0.112  0.1193  0.3412 -0.6128
 6752SOL     OW26779   2.988   4.768   3.411  0.0013  0.0746 -0.4508
 6752SOL    HW226780   2.984   4.829   3.337  0.6709 -0.4861 -0.9596
 6752SOL    HW326781   3.070   4.788   3.455  0.1783 -0.3820 -0.5621
 6752SOL    MW426782   2.998   4.778   3.407  0.7336 -0.2695 -0.0570
 6753SOL     OW26783   5.690   0.443   5.390  0.4894 -0.2866 -0.2244
 6753SOL    HW226784   5.637   0.522   5.402 -0.3703 -0.5479 -1.8854
 6753SOL    HW326785   5.780   0.472   5.403  0.1929  0.9913 -0.8290
 6753SOL    MW426786   5.695   0.457   5.393  0.6532  0.0135  0.3632
 6754SOL     OW26787   0.174   4.000   3.998 -0.0219 -0.2933 -0.0490
 6754SOL    HW226788   0.122   4.015   3.919 -0.7983  0.1520  0.5397
 6754SOL    HW326789   0.131   3.927   4.042 -1.1662  1.1216  1.2770
 6754SOL    MW426790   0.162   3.992   3.993 -0.0903 -0.5012 -0.3138
 6755SOL     OW26791   0.040   3.318   3.064 -0.1694 -0.0502 -0.3174
 6755SOL    HW226792   0.042   3.232   3.020  0.8854  0.3436 -1.0969
 6755SOL    HW326793   0.034   3.381   2.992  2.2548  0.6473  0.0039
 6755SOL    MW426794   0.040   3.315   3.048  0.3027  0.1094 -0.7064
 6756SOL     OW26795   5.233   1.889   4.764 -0.1915  0.6153 -0.0369
 6756SOL    HW226796   5.176   1.863   4.836  0.8878 -1.4488  0.1551
 6756SOL    HW326797   5.319   1.853   4.788  0.9961  2.7421 -0.7872
 6756SOL    MW426798   5.237   1.881   4.777  0.4656 -0.2384 -0.3643
 6757SOL     OW26799   3.046   4.773   5.760 -0.1761 -0.4228  0.2675
 6757SOL    HW226800   3.141   4.780   5.770 -0.2448  0.7857  0.1585
 6757SOL    HW326801   3.017   4.861   5.736 -0.8835 -1.4344 -3.3075
 6757SOL    MW426802   3.055   4.785   5.758 -0.3191 -0.5425 -0.1904
 6758SOL     OW26803   5.330   3.995   1.321  0.5266 -0.4195 -0.5469
 6758SOL    HW226804   5.314   4.000   1.416  1.9168 -0.3886 -0.2971
 6758SOL    HW326805   5.246   3.967   1.285  0.0750 -0.8215  0.7377
 6758SOL    MW426806   5.316   3.992   1.329 -0.1086 -0.8287 -0.4315
 6759SOL     OW26807   0.741   2.435   4.349 -0.0514  0.5133  0.4252
 6759SOL    HW226808   0.758   2.351   4.307  0.9356  1.4666 -1.1982
 6759SOL    HW326809   0.658   2.465   4.311 -0.1786  0.4821  0.6730
 6759SOL    MW426810   0.732   2.428   4.339 -0.2294 -0.6950 -0.5509
 6760SOL     OW26811   0.652   2.556   2.469  0.2546  0.8171 -0.3108
 6760SOL    HW226812   0.739   2.525   2.495  0.1035  0.2874 -0.4113
 6760SOL    HW326813   0.652   2.551   2.373 -0.0534  0.3183 -0.2938
 6760SOL    MW426814   0.663   2.551   2.460 -0.2448 -0.2993 -0.2804
 6761SOL     OW26815   3.511   0.697   0.435 -0.2277  0.7007 -0.1630
 6761SOL    HW226816   3.529   0.660   0.348  0.6281 -0.2404  0.3953
 6761SOL    HW326817   3.455   0.632   0.478  1.8036 -0.3243  1.0545
 6761SOL    MW426818   3.506   0.684   0.429  0.6043  0.3874 -0.3524
 6762SOL     OW26819   2.698   5.287   0.320 -0.4598  0.1991 -0.4049
 6762SOL    HW226820   2.615   5.333   0.314 -1.1359 -0.7647  1.0222
 6762SOL    HW326821   2.755   5.346   0.369 -0.7629  0.2578 -0.1234
 6762SOL    MW426822   2.695   5.301   0.325 -0.3070 -0.3063 -0.2855
 6763SOL     OW26823   1.000   5.513   1.559  0.0940 -0.5142 -0.3609
 6763SOL    HW226824   1.051   5.476   1.631  1.2770  0.8757 -0.4485
 6763SOL    HW326825   1.040   5.598   1.543  0.8016 -1.3358 -3.5986
 6763SOL    MW426826   1.012   5.519   1.567  0.3968 -0.1948  0.1867
 6764SOL     OW26827   0.429   2.915   6.210  0.0090 -0.0303 -0.0074
 6764SOL    HW226828   0.423   2.999   6.255  2.0256  1.9501 -3.0210
 6764SOL    HW326829   0.351   2.912   6.154 -0.6818 -0.7889  0.9733
 6764SOL    MW426830   0.418   2.926   6.208 -0.3894 -0.0063 -0.1716
 6765SOL     OW26831   4.897   2.831   4.322 -0.2924 -0.5553  0.0454
 6765SOL    HW226832   4.831   2.798   4.383 -2.3204  0.4386 -1.4803
 6765SOL    HW326833   4.877   2.785   4.240  0.7911 -0.0529 -0.5121
 6765SOL    MW426834   4.886   2.820   4.319  0.1616 -0.0283  0.1626
 6766SOL     OW26835   2.353   2.264   4.164  0.3943  0.0785 -0.4886
 6766SOL    HW226836   2.327   2.179   4.131  2.8750 -1.2098  0.5710
 6766SOL    HW326837   2.428   2.289   4.109  1.5204  0.1556  1.0144
 6766SOL    MW426838   2.360   2.256   4.152 -0.1855  0.4225 -0.1006
 6767SOL     OW26839   1.451   5.780   5.899  0.3117 -0.7208  0.4409
 6767SOL    HW226840   1.438   5.847   5.832  0.9438 -1.1065 -0.0792
 6767SOL    HW326841   1.381   5.717   5.883  0.0136 -0.4399  0.6189
 6767SOL    MW426842   1.440   5.781   5.888  0.7458 -0.5890  0.4909
 6768SOL     OW26843   0.168   0.722   3.808 -0.0124  0.3390  0.1410
 6768SOL    HW226844   0.139   0.674   3.886  1.7864  1.8245  1.8480
 6768SOL    HW326845   0.263   0.715   3.810  0.0776 -0.0869 -2.3467
 6768SOL    MW426846   0.177   0.715   3.819  0.0559 -0.2170  0.0154
 6769SOL     OW26847   2.302   0.313   4.717  0.0794  0.4630  0.5767
 6769SOL    HW226848   2.239   0.256   4.762 -0.1373 -0.8364 -1.2584
 6769SOL    HW326849   2.248   0.379   4.673  0.1391  0.4875  0.5399
 6769SOL    MW426850   2.286   0.314   4.717 -0.1066  0.6847 -0.0864
 6770SOL     OW26851   6.304   2.975   3.256 -0.0906 -0.4521 -0.2983
 6770SOL    HW226852   6.373   2.910   3.246  0.7363  0.3416  0.0219
 6770SOL    HW326853   6.239   2.933   3.312  1.1118 -0.5262  1.1210
 6770SOL    MW426854   6.304   2.961   3.262  0.2594  0.0699  0.1684
 6771SOL     OW26855   4.183   2.667   5.922 -0.2306  0.2439  0.3138
 6771SOL    HW226856   4.190   2.639   6.013  0.9246 -0.7954 -0.0624
 6771SOL    HW326857   4.123   2.604   5.882 -0.5217  0.5359  0.2872
 6771SOL    MW426858   4.176   2.655   5.929  0.4725  0.0617  0.0384
 6772SOL     OW26859   6.308   4.140   4.933 -0.1059  0.4383 -0.2253
 6772SOL    HW226860   6.318   4.062   4.988  2.2859  0.6168 -0.2777
 6772SOL    HW326861   6.244   4.194   4.978 -0.9816 -1.0664  0.3853
 6772SOL    MW426862   6.301   4.137   4.946 -0.0003 -0.0445  0.6609
 6773SOL     OW26863   4.955   3.896   3.280  0.4740  0.2604  0.6877
 6773SOL    HW226864   4.944   3.868   3.189  0.0145  0.2639  0.7387
 6773SOL    HW326865   4.866   3.915   3.310  0.5379 -0.4582  1.3687
 6773SOL    MW426866   4.942   3.895   3.272 -0.2918  0.0064 -0.1126
 6774SOL     OW26867   2.947   3.387   5.955  0.6595 -0.2755  0.5057
 6774SOL    HW226868   2.997   3.469   5.962  0.7679 -0.3697  0.8268
 6774SOL    HW326869   2.924   3.365   6.045  0.0561 -0.2498  0.3635
 6774SOL    MW426870   2.951   3.395   5.968 -0.1598 -0.3426  0.0825
 6775SOL     OW26871   4.600   2.119   2.544 -0.7763 -0.4585 -0.6786
 6775SOL    HW226872   4.613   2.213   2.530 -0.0013 -0.8413 -2.8291
 6775SOL    HW326873   4.519   2.114   2.594 -0.3183  1.3821  0.3731
 6775SOL    MW426874   4.591   2.131   2.549 -0.1158 -0.2121 -0.4431
 6776SOL     OW26875   0.930   4.958   5.003  0.0714 -0.2304  0.2158
 6776SOL    HW226876   0.987   4.881   5.004 -0.3304 -0.5505 -0.4168
 6776SOL    HW326877   0.977   5.024   5.053  0.5654 -0.7911  0.4987
 6776SOL    MW426878   0.944   4.957   5.009  0.1967  0.3893  0.0564
 6777SOL     OW26879   5.210   5.229   4.885  0.0062 -0.8116 -0.2028
 6777SOL    HW226880   5.153   5.278   4.944  1.4731  0.5315  0.1553
 6777SOL    HW326881   5.296   5.229   4.928  0.2929 -2.8869 -0.6591
 6777SOL    MW426882   5.214   5.235   4.898  0.3161  0.3088  0.2699
 6778SOL     OW26883   0.940   5.208   3.027 -0.1934  0.3035  0.5790
 6778SOL    HW226884   1.035   5.217   3.039  0.0027 -1.7303  0.8536
 6778SOL    HW326885   0.903   5.266   3.094  0.8501  0.7688  0.7839
 6778SOL    MW426886   0.948   5.217   3.037 -0.4130 -0.6059 -0.0329
 6779SOL     OW26887   2.576   5.087   0.495 -0.4428 -0.7006 -0.3414
 6779SOL    HW226888   2.585   5.133   0.579  0.6128 -2.4864  0.5782
 6779SOL    HW326889   2.626   5.141   0.434  2.0550 -1.2755  1.0281
 6779SOL    MW426890   2.584   5.100   0.498 -0.6944  0.4779  0.3330
 6780SOL     OW26891   1.445   0.945   6.074  0.1449  0.5614  1.0065
 6780SOL    HW226892   1.538   0.952   6.095  0.2821 -1.1765  1.0895
 6780SOL    HW326893   1.405   0.909   6.153 -0.1743 -1.0951  0.1252
 6780SOL    MW426894   1.452   0.941   6.088 -0.4614 -0.4546 -0.3114
 6781SOL     OW26895   5.840   0.396   5.635  0.0496  0.8610  0.1903
 6781SOL    HW226896   5.789   0.318   5.613 -0.2495  1.0019  0.3791
 6781SOL    HW326897   5.914   0.395   5.573  0.7935 -0.2937  1.0515
 6781SOL    MW426898   5.843   0.386   5.624  0.1990  0.2571 -0.3937
 6782SOL     OW26899   4.263   3.749   1.807  0.3252  0.7482  0.4226
 6782SOL    HW226900   4.227   3.668   1.771  1.8946 -0.1965  0.8727
 6782SOL    HW326901   4.298   3.722   1.892 -0.8834  2.3430  1.4759
 6782SOL    MW426902   4.263   3.734   1.814 -0.5013  0.4090  0.6194
 6783SOL     OW26903   2.348   5.346   0.525 -0.1450 -0.3335  0.3734
 6783SOL    HW226904   2.273   5.396   0.557 -0.5321 -1.4646  1.3314
 6783SOL    HW326905   2.363   5.280   0.593  1.6462 -0.2133  0.1467
 6783SOL    MW426906   2.340   5.344   0.538  0.1351 -0.4727  0.0849
 6784SOL     OW26907   4.607   5.438   1.381  0.3638  0.3998 -0.2274
 6784SOL    HW226908   4.615   5.388   1.300  1.0283  0.0623  0.0337
 6784SOL    HW326909   4.583   5.373   1.447 -3.7233  1.1495 -0.7049
 6784SOL    MW426910   4.605   5.423   1.379  0.9696 -0.1522  0.4177
 6785SOL     OW26911   4.851   5.121   0.928 -0.1428  0.1988 -0.1861
 6785SOL    HW226912   4.947   5.122   0.935 -0.1579 -1.1466  0.8631
 6785SOL    HW326913   4.834   5.075   0.846  0.0926  1.8929 -1.2109
 6785SOL    MW426914   4.862   5.115   0.918 -0.1429  0.0460 -0.3824
 6786SOL     OW26915   5.221   5.253   4.587 -0.8428 -0.0639 -0.6234
 6786SOL    HW226916   5.316   5.263   4.587 -0.5371 -2.2967  0.6738
 6786SOL    HW326917   5.194   5.277   4.676 -1.2693 -0.9130 -0.5113
 6786SOL    MW426918   5.230   5.258   4.599 -0.6212 -0.1238  0.5412
 6787SOL     OW26919   4.301   4.762   1.171  0.7697  0.0866 -0.1791
 6787SOL    HW226920   4.294   4.682   1.223  4.3777 -1.3714 -1.6479
 6787SOL    HW326921   4.242   4.824   1.215  0.2960 -2.3249  2.9670
 6787SOL    MW426922   4.292   4.759   1.184 -0.3400 -0.1228  0.2017
 6788SOL     OW26923   4.855   4.205   2.181  0.3344  0.3810 -0.2947
 6788SOL    HW226924   4.813   4.145   2.243 -0.0801  0.4683 -0.4869
 6788SOL    HW326925   4.911   4.149   2.128 -0.5296  0.0470 -0.8913
 6788SOL    MW426926   4.857   4.190   2.182 -0.2644 -0.0839 -0.3180
 6789SOL     OW26927   1.500   0.746   4.995  0.8493 -0.0805 -0.0771
 6789SOL    HW226928   1.511   0.740   5.090 -0.4784 -0.3285  0.0727
 6789SOL    HW326929   1.541   0.667   4.961  0.5604 -0.4215  0.3603
 6789SOL    MW426930   1.507   0.735   5.003  0.0219 -0.1042 -0.0503
 6790SOL     OW26931   6.303   2.139   0.377  0.1615  0.6410 -0.4150
 6790SOL    HW226932   6.245   2.076   0.418  0.3107  0.7439 -0.0438
 6790SOL    HW326933   6.246   2.212   0.352  0.1473  0.7797  0.0251
 6790SOL    MW426934   6.288   2.140   0.379  0.4648 -0.0711 -0.0681
 6791SOL     OW26935   5.742   0.668   0.815  0.3378  0.6500  0.2337
 6791SOL    HW226936   5.792   0.630   0.742 -0.6544  3.3175 -1.9995
 6791SOL    HW326937   5.665   0.611   0.823 -0.2634  1.0551 -1.8644
 6791SOL    MW426938   5.738   0.655   0.806 -0.2115 -0.0032 -0.5686
 6792SOL     OW26939   6.361   5.812   5.020  0.2330 -0.4419 -0.4106
 6792SOL    HW226940   6.438   5.864   5.000  0.6172 -1.3377 -1.3876
 6792SOL    HW326941   6.395   5.732   5.060 -0.3784  0.2174  1.5081
 6792SOL    MW426942   6.375   5.808   5.023 -0.1818 -0.3777  0.4757
 6793SOL     OW26943   5.880   4.671   4.007  0.0830  0.0874 -0.0219
 6793SOL    HW226944   5.972   4.650   4.022  0.7005  2.3134 -0.2743
 6793SOL    HW326945   5.844   4.593   3.964  1.1799 -1.8101  2.2464
 6793SOL    MW426946   5.888   4.658   4.004  0.0818 -0.0020 -0.3158
 6794SOL     OW26947   3.993   2.275   4.596  0.4184 -0.4984  0.0625
 6794SOL    HW226948   4.043   2.257   4.675 -0.0475 -0.1664  0.4431
 6794SOL    HW326949   4.003   2.197   4.542  0.0706 -1.0657  0.8074
 6794SOL    MW426950   4.001   2.263   4.599  0.0811 -0.1879  0.3828
 6795SOL     OW26951   6.265   1.670   3.797  0.0796  0.2957 -0.3062
 6795SOL    HW226952   6.192   1.634   3.848 -0.5877  1.1761 -0.6218
 6795SOL    HW326953   6.325   1.706   3.862 -0.8449  1.5621 -0.1342
 6795SOL    MW426954   6.263   1.670   3.812 -0.0656  0.0800  0.5642
 6796SOL     OW26955   2.138   4.941   1.466 -0.3944  0.2951 -0.0024
 6796SOL    HW226956   2.199   4.993   1.518 -0.6564  0.4418  0.1579
 6796SOL    HW326957   2.107   5.001   1.398  2.0519 -0.6096 -2.1066
 6796SOL    MW426958   2.142   4.956   1.463 -0.0936  0.3334  0.5087
 6797SOL     OW26959   1.525   2.078   1.375  0.3024 -0.1130  0.0881
 6797SOL    HW226960   1.452   2.042   1.325  0.1641  0.1950  0.0633
 6797SOL    HW326961   1.489   2.156   1.418  0.1964 -0.8258  1.3338
 6797SOL    MW426962   1.511   2.084   1.374 -0.1341 -0.2753  0.3462
 6798SOL     OW26963   1.629   3.660   0.739 -0.0457 -0.5942  0.7794
 6798SOL    HW226964   1.569   3.722   0.695  0.4758  0.9635  2.1538
 6798SOL    HW326965   1.601   3.661   0.830  1.4649 -0.5629  1.2621
 6798SOL    MW426966   1.617   3.669   0.745  0.3316  0.1610 -0.5261
 6799SOL     OW26967   2.789   4.645   5.683 -0.2587 -0.1198 -0.3199
 6799SOL    HW226968   2.872   4.690   5.701 -0.5247  0.6700 -1.0014
 6799SOL    HW326969   2.801   4.557   5.719 -0.3259  0.9588  2.6231
 6799SOL    MW426970   2.802   4.639   5.691  0.1224 -0.2000  0.1863
 6800SOL     OW26971   5.565   4.747   4.764 -0.0907 -0.3740 -0.1173
 6800SOL    HW226972   5.506   4.811   4.805 -1.4121 -0.1986 -2.1251
 6800SOL    HW326973   5.594   4.790   4.683  2.3496 -0.7250  0.4973
 6800SOL    MW426974   5.561   4.761   4.758  0.0499  0.7068  0.3518
 6801SOL     OW26975   2.044   2.648   3.272 -0.5800  0.0488  0.4022
 6801SOL    HW226976   2.130   2.673   3.307 -1.3498  0.4900  2.0469
 6801SOL    HW326977   2.003   2.731   3.247 -0.0783 -0.2466 -1.5972
 6801SOL    MW426978   2.050   2.662   3.273  0.2038 -0.3775 -0.6203
 6802SOL     OW26979   4.754   0.619   0.576  0.1840  0.3986 -0.1684
 6802SOL    HW226980   4.825   0.683   0.583 -0.5072  1.1021  0.8235
 6802SOL    HW326981   4.683   0.667   0.533 -0.7672  0.7357  1.6715
 6802SOL    MW426982   4.754   0.634   0.571 -0.2513 -0.7417 -0.1546
 6803SOL     OW26983   1.981   5.301   2.493  0.5121 -0.0162  0.1823
 6803SOL    HW226984   2.062   5.263   2.528  0.2018 -0.0939  0.8346
 6803SOL    HW326985   1.996   5.308   2.398  0.0278 -3.2350 -0.2478
 6803SOL    MW426986   1.994   5.297   2.485  0.0117  0.4129 -0.3609
 6804SOL     OW26987   3.663   5.355   3.049 -0.4235 -0.5295 -0.0571
 6804SOL    HW226988   3.579   5.370   3.007  0.2504  1.0813 -0.9302
 6804SOL    HW326989   3.725   5.345   2.976  0.5548  0.9669  0.5232
 6804SOL    MW426990   3.660   5.355   3.034 -0.0844  0.0643 -0.0607
 6805SOL     OW26991   3.193   0.102   2.115 -0.1103 -0.0572  0.1862
 6805SOL    HW226992   3.161   0.054   2.191  0.7409  0.0245  0.5986
 6805SOL    HW326993   3.277   0.061   2.093 -0.0611  0.3067 -0.3409
 6805SOL    MW426994   3.200   0.090   2.122  0.2107  0.2350 -0.0225
 6806SOL     OW26995   3.152   4.346   1.353  0.4719  0.4713 -0.0831
 6806SOL    HW226996   3.236   4.371   1.316 -0.3550  1.7842 -1.1335
 6806SOL    HW326997   3.172   4.271   1.409  2.6802  1.9851  1.3120
 6806SOL    MW426998   3.166   4.339   1.356 -0.6118 -0.3518  0.6444
 6807SOL     OW26999   3.026   5.720   2.861  0.2530 -0.2667 -0.1422
 6807SOL    HW227000   2.987   5.674   2.787 -0.0237  0.3764 -0.4109
 6807SOL    HW327001   2.952   5.756   2.909  0.1786 -3.3694  2.3711
 6807SOL    MW427002   3.011   5.719   2.857 -0.1446 -0.3353  0.2578
 6808SOL     OW27003   0.247   0.889   1.887  0.3863 -0.9807  0.1412
 6808SOL    HW227004   0.214   0.976   1.909 -0.2080 -1.3599  0.7745
 6808SOL    HW327005   0.221   0.876   1.796 -0.7065 -1.0304  0.4456
 6808SOL    MW427006   0.239   0.899   1.878 -0.6270 -0.0361 -0.3578
 6809SOL     OW27007   0.608   2.502   6.312 -0.4201 -0.6458 -0.8502
 6809SOL    HW227008   0.696   2.463   6.314 -1.3848 -3.1616 -2.6852
 6809SOL    HW327009   0.554   2.444   6.364 -1.5112 -0.6557 -1.9376
 6809SOL    MW427010   0.613   2.490   6.319 -0.4220  0.2873 -0.1084
 6810SOL     OW27011   4.254   0.513   4.497  0.3354 -0.1072 -0.4364
 6810SOL    HW227012   4.346   0.489   4.492  0.0820 -0.9516 -1.1116
 6810SOL    HW327013   4.210   0.435   4.531  0.1349  0.9833  2.0411
 6810SOL    MW427014   4.261   0.500   4.501  0.2706  0.4088 -0.0936
 6811SOL     OW27015   0.358   6.218   2.503 -0.5479 -0.6822  0.5518
 6811SOL    HW227016   0.334   6.254   2.589  0.4289  0.0947  0.5108
 6811SOL    HW327017   0.304   6.140   2.495 -0.3173 -1.0331  2.0830
 6811SOL    MW427018   0.348   6.213   2.513  1.0426  0.3579  0.2331
 6812SOL     OW27019   4.498   5.237   5.062 -0.5456 -0.3253  0.2673
 6812SOL    HW227020   4.403   5.244   5.053 -0.5499  0.0328  0.5687
 6812SOL    HW327021   4.511   5.162   5.121 -0.5093 -2.8715 -2.6906
 6812SOL    MW427022   4.487   5.228   5.069  0.4095 -0.4077  0.0291
 6813SOL     OW27023   4.712   6.407   1.020 -0.4540 -0.0770  0.6904
 6813SOL    HW227024   4.736   6.430   0.930  0.2930 -1.4424  0.5174
 6813SOL    HW327025   4.617   6.420   1.023 -0.8244 -1.8590 -0.9128
 6813SOL    MW427026   4.702   6.412   1.008 -0.5409  0.9612 -0.1494
 6814SOL     OW27027   5.389   4.138   4.615 -0.2482 -0.1255 -0.2569
 6814SOL    HW227028   5.483   4.154   4.624 -0.7684  3.1096  0.7784
 6814SOL    HW327029   5.357   4.134   4.705 -1.3673  1.0698 -0.5706
 6814SOL    MW427030   5.397   4.140   4.628 -0.0773  0.3791  0.6535
 6815SOL     OW27031   0.458   6.373   5.583 -0.2468  0.2242 -0.3463
 6815SOL    HW227032   0.432   6.425   5.659  1.2223  1.2776 -0.5246
 6815SOL    HW327033   0.384   6.314   5.568 -0.7111  0.2021  1.6962
 6815SOL    MW427034   0.445   6.372   5.591 -0.6781  0.4762 -0.3558
 6816SOL     OW27035   3.838   0.396   5.502 -0.3458  0.7672 -0.6253
 6816SOL    HW227036   3.749   0.372   5.525 -0.3262  2.0354  0.9434
 6816SOL    HW327037   3.893   0.351   5.566  0.2236 -0.4497 -1.9140
 6816SOL    MW427038   3.834   0.387   5.514 -0.1681 -0.6061  0.0903
 6817SOL     OW27039   4.555   5.617   0.791  0.2150 -0.1748 -0.3322
 6817SOL    HW227040   4.490   5.619   0.721 -0.3335 -0.4743  0.1555
 6817SOL    HW327041   4.602   5.535   0.778 -0.8304 -0.9407  0.4581
 6817SOL    MW427042   4.553   5.606   0.780 -0.0916  0.3752  0.0074
 6818SOL     OW27043   5.276   2.890   2.677  0.1895  0.3889 -0.8144
 6818SOL    HW227044   5.347   2.906   2.615 -0.4671  0.2159 -1.6337
 6818SOL    HW327045   5.198   2.925   2.634 -0.4872 -0.8161 -0.6258
 6818SOL    MW427046   5.275   2.897   2.663 -0.1537  0.6086 -0.1680
 6819SOL     OW27047   4.236   1.589   3.203  0.6447  0.2175 -0.0983
 6819SOL    HW227048   4.239   1.513   3.263  1.5100  0.3555  0.0561
 6819SOL    HW327049   4.311   1.575   3.145  0.5091  0.7032 -0.3869
 6819SOL    MW427050   4.247   1.577   3.204 -0.2995  0.2154  0.0871
 6820SOL     OW27051   0.497   1.781   2.737 -0.3309 -0.8364  0.0843
 6820SOL    HW227052   0.405   1.759   2.725 -0.3413 -0.9085  0.2905
 6820SOL    HW327053   0.522   1.827   2.657 -0.2634 -1.7495 -0.4349
 6820SOL    MW427054   0.488   1.784   2.725  0.2400 -0.1838  0.1162
 6821SOL     OW27055   1.297   1.138   1.850  0.6700 -0.1380  0.0772
 6821SOL    HW227056   1.372   1.078   1.848 -0.9985 -2.3335 -0.4787
 6821SOL    HW327057   1.228   1.089   1.895 -1.1383  0.9065 -1.4031
 6821SOL    MW427058   1.298   1.124   1.856 -0.2292  0.2292  0.0011
 6822SOL     OW27059   3.997   5.104   1.778  0.3989 -0.1281 -0.4691
 6822SOL    HW227060   3.919   5.110   1.833  1.0748  2.6343  0.3420
 6822SOL    HW327061   3.982   5.027   1.723 -2.6569  0.0576 -0.0384
 6822SOL    MW427062   3.985   5.094   1.778  0.3911 -0.2279 -0.4148
 6823SOL     OW27063   3.303   0.470   3.166 -0.7949 -0.0576 -0.2176
 6823SOL    HW227064   3.281   0.509   3.251 -0.5391 -0.4867  0.0489
 6823SOL    HW327065   3.332   0.381   3.187 -0.4215 -0.0595 -0.7217
 6823SOL    MW427066   3.304   0.464   3.180  0.4341 -0.7301  0.7627
 6824SOL     OW27067   5.948   4.698   5.809 -0.1230 -0.6839 -1.0685
 6824SOL    HW227068   5.854   4.709   5.825  0.0446 -0.1905 -0.3735
 6824SOL    HW327069   5.990   4.758   5.870  0.6104  0.2786 -2.4810
 6824SOL    MW427070   5.941   4.707   5.819 -0.1466 -0.3566  0.2520
 6825SOL     OW27071   4.257   4.698   4.752 -0.0305  0.2182 -0.3314
 6825SOL    HW227072   4.333   4.659   4.796 -0.2096  0.9446  0.6557
 6825SOL    HW327073   4.182   4.651   4.787 -0.0151 -1.4504 -2.3121
 6825SOL    MW427074   4.257   4.687   4.762 -0.0972  0.5324  0.0572
 6826SOL     OW27075   1.649   3.612   4.142  0.3327  0.1801  0.3167
 6826SOL    HW227076   1.648   3.592   4.049 -0.9622  0.4151  0.2658
 6826SOL    HW327077   1.609   3.536   4.184 -1.2153  1.0082  0.4439
 6826SOL    MW427078   1.643   3.599   4.136 -0.3826 -0.3306 -0.5223
 6827SOL     OW27079   6.099   1.579   1.034  0.5940 -0.0448  0.2286
 6827SOL    HW227080   6.180   1.560   0.987  0.4598  0.0627 -0.0441
 6827SOL    HW327081   6.087   1.673   1.023 -0.6936 -0.3714 -1.5437
 6827SOL    MW427082   6.108   1.589   1.027  0.2025  0.0561  0.7560
 6828SOL     OW27083   3.223   5.652   4.301 -0.4939 -0.8267  0.5067
 6828SOL    HW227084   3.209   5.719   4.234 -0.5865 -1.6467 -0.3162
 6828SOL    HW327085   3.231   5.570   4.251  0.9752 -1.2518  1.3791
 6828SOL    MW427086   3.222   5.650   4.285  0.2262 -0.1569 -0.1105
 6829SOL     OW27087   5.934   5.044   5.198 -0.2771  0.3290 -0.0545
 6829SOL    HW227088   5.890   4.964   5.169 -1.4427  0.0435  2.2153
 6829SOL    HW327089   6.024   5.017   5.215 -0.6324 -0.4964  0.5741
 6829SOL    MW427090   5.940   5.030   5.197 -0.5691  0.6054 -0.3812
 6830SOL     OW27091   6.176   5.217   0.527 -0.1571 -0.2894  0.3431
 6830SOL    HW227092   6.205   5.221   0.618  0.9117  0.3472 -0.0075
 6830SOL    HW327093   6.250   5.251   0.477 -1.3097  0.8549 -0.6487
 6830SOL    MW427094   6.190   5.222   0.533 -0.6586 -0.4443 -0.4215
 6831SOL     OW27095   5.118   1.891   0.691  0.2834  0.2283  0.3479
 6831SOL    HW227096   5.178   1.817   0.684 -0.6403 -0.5232  0.1217
 6831SOL    HW327097   5.175   1.968   0.694  1.2302 -0.3354 -1.3818
 6831SOL    MW427098   5.133   1.892   0.690  0.4965 -0.1233 -0.6054
 6832SOL     OW27099   3.774   1.456   4.306 -0.1419 -0.0221  0.1230
 6832SOL    HW227100   3.774   1.407   4.224  0.1881  0.3035 -0.0741
 6832SOL    HW327101   3.818   1.398   4.369 -1.1303 -0.6211  0.2936
 6832SOL    MW427102   3.780   1.441   4.304 -0.8049 -0.2167  0.2712
 6833SOL     OW27103   0.525   1.284   6.344 -0.6844  0.4436  0.0317
 6833SOL    HW227104   0.564   1.206   6.305  0.8449  1.7073 -1.1360
 6833SOL    HW327105   0.481   1.328   6.271  1.1824  2.2315 -0.1101
 6833SOL    MW427106   0.525   1.280   6.329  0.5113 -0.9606 -0.9004
 6834SOL     OW27107   5.198   3.086   4.817  0.2141 -0.2003 -0.2042
 6834SOL    HW227108   5.264   3.020   4.838  2.0503  0.8724 -2.1889
 6834SOL    HW327109   5.182   3.130   4.900  1.5161 -0.9386  0.4730
 6834SOL    MW427110   5.205   3.083   4.831 -0.4232  0.3890 -0.7185
 6835SOL     OW27111   2.545   2.254   2.698 -0.0505 -0.0992 -0.2149
 6835SOL    HW227112   2.563   2.330   2.642  0.3105 -0.8536 -1.1610
 6835SOL    HW327113   2.624   2.200   2.690 -0.7384 -1.0886 -0.4206
 6835SOL    MW427114   2.558   2.257   2.690 -0.1670 -0.1060 -0.5322
 6836SOL     OW27115   1.545   4.871   0.441  0.0574 -0.2858  0.2857
 6836SOL    HW227116   1.485   4.918   0.500  0.2217  1.0361 -0.5621
 6836SOL    HW327117   1.613   4.836   0.499  0.5351  1.4833  0.8562
 6836SOL    MW427118   1.546   4.872   0.456 -0.1914  0.5568  0.4246
 6837SOL     OW27119   6.382   5.400   2.658 -0.3860  0.4657  0.1515
 6837SOL    HW227120   6.395   5.354   2.575  0.6869  1.2409 -0.1352
 6837SOL    HW327121   6.469   5.433   2.681 -0.9152  1.3681  0.9238
 6837SOL    MW427122   6.395   5.398   2.650 -0.2995  0.0364 -0.1470
 6838SOL     OW27123   4.274   0.081   2.591 -0.3563  0.0844  0.0789
 6838SOL    HW227124   4.228   0.149   2.640 -0.9292 -0.4935  0.3522
 6838SOL    HW327125   4.323   0.032   2.658  0.0330  0.2037 -0.1124
 6838SOL    MW427126   4.275   0.083   2.606  0.1060  0.0613  0.5746
 6839SOL     OW27127   4.852   4.895   3.589  0.4202 -0.0738  0.1610
 6839SOL    HW227128   4.919   4.877   3.522  1.3696 -0.1202  1.0908
 6839SOL    HW327129   4.888   4.856   3.669  0.4265  1.9863  1.2356
 6839SOL    MW427130   4.866   4.887   3.591 -0.2576 -0.3592  0.2209
 6840SOL     OW27131   5.435   2.238   0.951  0.0837 -0.2826  0.5643
 6840SOL    HW227132   5.523   2.240   0.914  0.1059 -1.1722  0.5456
 6840SOL    HW327133   5.398   2.324   0.929  1.0858  0.2623  0.9421
 6840SOL    MW427134   5.442   2.250   0.943 -0.2886 -0.4840 -0.1122
 6841SOL     OW27135   2.487   3.156   1.924 -0.0449  0.1508  0.0472
 6841SOL    HW227136   2.517   3.109   2.002 -0.6081 -0.7280 -0.2452
 6841SOL    HW327137   2.439   3.090   1.874 -1.0285  1.0994 -0.2873
 6841SOL    MW427138   2.485   3.141   1.927 -0.5892 -0.6828  0.7434
 6842SOL     OW27139   6.052   5.761   3.618 -0.0723  0.1100  0.1425
 6842SOL    HW227140   6.037   5.739   3.526 -0.5781  1.0484 -0.0086
 6842SOL    HW327141   6.121   5.828   3.615 -0.5403  0.6128  0.3896
 6842SOL    MW427142   6.060   5.767   3.605 -0.2023 -0.2959 -0.0798
 6843SOL     OW27143   2.953   5.830   4.720 -0.6202  0.6567 -0.7899
 6843SOL    HW227144   2.866   5.835   4.760 -0.2555  2.4059 -0.1184
 6843SOL    HW327145   2.970   5.919   4.687  1.0065  0.4326 -0.6639
 6843SOL    MW427146   2.944   5.843   4.721  0.7457  0.1386  0.0735
 6844SOL     OW27147   3.181   5.693   3.682  0.3256  1.2880  0.3080
 6844SOL    HW227148   3.248   5.625   3.677 -0.8974  0.1253 -0.7695
 6844SOL    HW327149   3.126   5.668   3.755  0.6749  1.9094  0.7990
 6844SOL    MW427150   3.183   5.681   3.691  0.4298  0.0606  0.2121
 6845SOL     OW27151   6.078   2.339   5.887 -0.2659  0.0366 -0.1281
 6845SOL    HW227152   6.034   2.420   5.861 -0.4953  0.2923  1.0022
 6845SOL    HW327153   6.085   2.345   5.983 -0.8643 -1.5625  0.0400
 6845SOL    MW427154   6.073   2.351   5.897  0.1838  0.3743 -0.3074
 6846SOL     OW27155   1.399   0.130   3.541 -0.0564 -0.6591 -0.1394
 6846SOL    HW227156   1.468   0.159   3.601  2.3535 -3.0424 -1.5205
 6846SOL    HW327157   1.390   0.201   3.478  1.7781 -0.5927 -0.3793
 6846SOL    MW427158   1.407   0.143   3.541  0.1742 -0.5000  0.1014
 6847SOL     OW27159   3.485   4.363   3.845  0.1522  0.1411  0.3165
 6847SOL    HW227160   3.489   4.333   3.936  1.2105 -1.0755 -0.1068
 6847SOL    HW327161   3.417   4.310   3.805 -0.5029  0.8638  0.4417
 6847SOL    MW427162   3.476   4.352   3.852 -0.3886 -0.1073  0.1043
 6848SOL     OW27163   0.461   1.946   4.140  0.3228 -0.2692  0.0148
 6848SOL    HW227164   0.424   1.869   4.183 -1.6858  0.6400  0.0221
 6848SOL    HW327165   0.462   1.924   4.047 -0.0385 -0.3883  0.0390
 6848SOL    MW427166   0.457   1.933   4.133 -0.2124 -0.1356 -0.3484
 6849SOL     OW27167   0.997   1.197   5.821  0.5083  0.0107 -0.1457
 6849SOL    HW227168   1.053   1.273   5.838 -1.1613  1.9544 -2.7228
 6849SOL    HW327169   0.983   1.197   5.727 -0.6566 -2.7677 -0.0816
 6849SOL    MW427170   1.003   1.207   5.811 -0.4860  0.2496 -0.6154
 6850SOL     OW27171   2.966   1.778   3.444  0.1645 -0.2447 -0.4223
 6850SOL    HW227172   2.976   1.694   3.400  0.4139 -0.3811 -0.1054
 6850SOL    HW327173   3.048   1.825   3.427  0.4088 -0.4384  0.1908
 6850SOL    MW427174   2.978   1.773   3.436 -0.3664 -0.5517  0.3485
 6851SOL     OW27175   3.798   2.821   1.500 -0.1806 -0.1129 -0.1927
 6851SOL    HW227176   3.887   2.791   1.520  0.4224  1.7425  0.1053
 6851SOL    HW327177   3.765   2.854   1.583 -0.1761  1.4955 -0.7850
 6851SOL    MW427178   3.806   2.821   1.513  0.1233 -0.0193 -0.1255
 6852SOL     OW27179   3.113   4.144   2.775 -0.7655 -0.4836 -0.3295
 6852SOL    HW227180   3.142   4.157   2.685 -2.2908  0.4847 -0.7025
 6852SOL    HW327181   3.019   4.130   2.769 -0.8059 -1.0268  1.0755
 6852SOL    MW427182   3.104   4.144   2.762 -0.2628 -0.3516 -0.2126
 6853SOL     OW27183   2.190   5.646   0.105 -0.0959  0.4632 -0.8232
 6853SOL    HW227184   2.115   5.610   0.152 -1.8441  1.8965 -2.3477
 6853SOL    HW327185   2.170   5.739   0.097  1.0029  0.5755 -2.7660
 6853SOL    MW427186   2.178   5.653   0.110  0.0217 -0.0826 -0.4784
 6854SOL     OW27187   1.062   2.992   4.462 -0.4138  0.6842  0.1790
 6854SOL    HW227188   1.153   2.998   4.490 -0.8429 -0.2127  1.9084
 6854SOL    HW327189   1.035   2.903   4.487 -1.0462 -0.0095 -2.6318
 6854SOL    MW427190   1.070   2.981   4.469  0.3618  0.0042  0.3629
 6855SOL     OW27191   6.116   4.966   0.606 -0.6303  0.3646 -0.4456
 6855SOL    HW227192   6.198   4.918   0.597 -1.4408 -1.4159  1.0477
 6855SOL    HW327193   6.136   5.055   0.577  2.3916  0.5432  1.7334
 6855SOL    MW427194   6.129   4.971   0.601 -0.0634 -0.6132 -0.3290
 6856SOL     OW27195   3.677   5.709   1.929 -0.6042  0.4434  0.0114
 6856SOL    HW227196   3.593   5.708   1.883 -0.6607 -0.2872  0.1198
 6856SOL    HW327197   3.712   5.797   1.914  0.0059 -0.1693 -2.5649
 6856SOL    MW427198   3.670   5.721   1.921  0.0617 -0.4303  0.2118
 6857SOL     OW27199   1.861   3.854   5.449 -0.1111  0.1079  0.0148
 6857SOL    HW227200   1.946   3.843   5.405  1.0262 -1.1507  2.3708
 6857SOL    HW327201   1.829   3.765   5.462 -1.5268  0.5534 -0.2635
 6857SOL    MW427202   1.868   3.841   5.445 -0.5244  0.2240  0.3097
 6858SOL     OW27203   1.848   1.899   4.375 -0.2452 -0.0578  0.1735
 6858SOL    HW227204   1.797   1.979   4.385 -1.1974 -0.8663  2.4852
 6858SOL    HW327205   1.867   1.871   4.464  1.1938 -1.7357 -0.5851
 6858SOL    MW427206   1.844   1.906   4.388 -0.0856 -0.0331 -0.2458
 6859SOL     OW27207   5.105   3.718   0.305  0.2313  1.0276 -0.3019
 6859SOL    HW227208   5.061   3.794   0.265 -2.6826 -1.3057 -1.9765
 6859SOL    HW327209   5.051   3.698   0.382  1.4269  1.0244  0.5674
 6859SOL    MW427210   5.092   3.726   0.310  0.0757 -0.6331  0.0507
 6860SOL     OW27211   0.882   5.641   1.878 -0.1997 -0.1884 -0.2183
 6860SOL    HW227212   0.859   5.550   1.897 -0.8953 -0.0932 -0.5685
 6860SOL    HW327213   0.868   5.650   1.784 -1.2376  0.5725 -0.0127
 6860SOL    MW427214   0.877   5.630   1.868  0.3866 -0.1183 -0.5732
 6861SOL     OW27215   5.554   2.786   5.890 -0.2627  0.0118  0.7311
 6861SOL    HW227216   5.606   2.852   5.845  0.1124 -0.2151  0.8302
 6861SOL    HW327217   5.488   2.759   5.825 -1.0935  1.2338  1.0354
 6861SOL    MW427218   5.552   2.791   5.876 -0.5353  1.0041 -0.1036
 6862SOL     OW27219   2.065   3.340   0.407  0.1559  0.4439  0.5935
 6862SOL    HW227220   2.051   3.346   0.313  0.6079  0.3387  0.5194
 6862SOL    HW327221   1.980   3.315   0.443  0.0115  0.3824  0.2035
 6862SOL    MW427222   2.052   3.338   0.400  0.7445 -0.2134 -0.1091
 6863SOL     OW27223   5.255   1.711   3.001 -0.2338  0.1005  0.7266
 6863SOL    HW227224   5.249   1.800   3.038 -2.5449 -0.2609  1.4123
 6863SOL    HW327225   5.280   1.656   3.075  0.5321  0.0830  0.4590
 6863SOL    MW427226   5.257   1.716   3.016  0.4912  0.1067 -0.6606
 6864SOL     OW27227   5.238   1.553   1.857 -0.1715  0.3652  0.4524
 6864SOL    HW227228   5.293   1.547   1.935 -0.2782 -0.1236  0.4911
 6864SOL    HW327229   5.277   1.493   1.795 -1.8112 -1.5990  1.1887
 6864SOL    MW427230   5.250   1.544   1.859  0.0915  0.5133  0.1554
 6865SOL     OW27231   6.056   5.652   1.205  0.0070  0.1200 -0.0229
 6865SOL    HW227232   6.022   5.616   1.287 -0.5973  0.0075 -0.3182
 6865SOL    HW327233   6.063   5.577   1.146  0.2176  0.2366 -0.1487
 6865SOL    MW427234   6.052   5.637   1.208  0.1897 -0.5511 -0.2962
 6866SOL     OW27235   3.061   4.708   2.360  0.9685 -0.7300 -0.1870
 6866SOL    HW227236   3.094   4.665   2.282  1.2848 -1.1826  0.1923
 6866SOL    HW327237   3.116   4.785   2.371  1.1271 -0.8371 -0.2343
 6866SOL    MW427238   3.072   4.712   2.351 -0.1492  0.2033 -0.1079
 6867SOL     OW27239   3.006   2.342   0.973  0.3560  0.1389  0.6788
 6867SOL    HW227240   3.051   2.305   0.897 -0.0421 -1.4420  1.1783
 6867SOL    HW327241   3.039   2.291   1.047  0.4645  1.4118  1.5377
 6867SOL    MW427242   3.017   2.330   0.973 -0.4606  0.9204  0.1843
 6868SOL     OW27243   4.466   5.664   3.869 -0.4524 -0.3051  0.4865
 6868SOL    HW227244   4.557   5.680   3.842 -0.2313 -0.5586  1.0458
 6868SOL    HW327245   4.418   5.741   3.838 -0.1143 -0.3347 -0.1259
 6868SOL    MW427246   4.472   5.676   3.862  0.1012  0.4486  0.3022
 6869SOL     OW27247   4.375   4.870   1.798  0.1418  0.4669 -0.2389
 6869SOL    HW227248   4.330   4.934   1.853  0.5667  0.2836  0.3315
 6869SOL    HW327249   4.467   4.876   1.824  0.3877  0.5163 -1.0679
 6869SOL    MW427250   4.381   4.879   1.808 -0.2112 -0.6536 -0.3274
 6870SOL     OW27251   1.918   4.096   5.836 -0.5203 -0.1380  0.0761
 6870SOL    HW227252   1.966   4.104   5.754  0.1797  1.0567  0.5547
 6870SOL    HW327253   1.974   4.141   5.900 -1.5132 -0.1666  0.9961
 6870SOL    MW427254   1.932   4.103   5.834 -0.3309  0.3200 -0.1750
 6871SOL     OW27255   5.588   3.357   4.868 -0.0461  0.0189  0.2012
 6871SOL    HW227256   5.654   3.403   4.920  1.1152 -1.4675  0.1071
 6871SOL    HW327257   5.509   3.411   4.876 -0.1308 -0.3750  3.9970
 6871SOL    MW427258   5.586   3.370   4.876 -0.1072 -0.2073 -0.6427
 6872SOL     OW27259   4.940   1.631   1.927  0.0324  0.3428 -0.0346
 6872SOL    HW227260   4.967   1.676   2.007  0.5914  0.1644 -0.1188
 6872SOL    HW327261   5.010   1.569   1.909 -0.5547 -0.3098 -0.1274
 6872SOL    MW427262   4.953   1.629   1.935 -0.2910  0.6133  0.5154
 6873SOL     OW27263   0.020   2.751   3.735  0.1554  0.1791  0.2505
 6873SOL    HW227264  -0.070   2.725   3.753 -0.8773  2.7913 -0.6390
 6873SOL    HW327265   0.070   2.719   3.811 -1.7861  0.0045  1.5213
 6873SOL    MW427266   0.015   2.743   3.748  0.1475 -0.0257 -0.2823
 6874SOL     OW27267   1.892   2.803   1.037 -0.5740 -0.3304 -0.6807
 6874SOL    HW227268   1.966   2.777   1.093 -0.3482 -0.4677 -1.0360
 6874SOL    HW327269   1.855   2.719   1.006 -0.5869 -0.2528 -0.8774
 6874SOL    MW427270   1.897   2.788   1.040  0.7184 -0.2556 -0.3034
 6875SOL     OW27271   3.280   2.836   4.634 -0.6885 -0.1165 -0.5082
 6875SOL    HW227272   3.360   2.887   4.646 -0.4595 -0.2831 -1.2575
 6875SOL    HW327273   3.248   2.821   4.722  0.1160 -0.0540 -0.1965
 6875SOL    MW427274   3.286   2.841   4.647 -0.5859 -0.2451 -0.3819
 6876SOL     OW27275   4.375   3.296   6.098 -0.4766  0.2063 -0.6254
 6876SOL    HW227276   4.308   3.294   6.029 -2.6644  2.0770  1.2916
 6876SOL    HW327277   4.449   3.342   6.058 -1.4427  0.7206 -1.8971
 6876SOL    MW427278   4.376   3.302   6.083  0.5517 -0.1180 -0.2009
 6877SOL     OW27279   3.507   4.376   2.331  0.7220  0.1719 -0.0927
 6877SOL    HW227280   3.513   4.300   2.389  1.8453  0.5903  0.3557
 6877SOL    HW327281   3.597   4.400   2.312  0.3943  1.4746 -0.1233
 6877SOL    MW427282   3.520   4.369   2.336 -0.3076 -0.2353 -0.6370
 6878SOL     OW27283   5.026   5.023   3.825 -0.4267 -0.0772  0.3687
 6878SOL    HW227284   5.087   5.050   3.756 -0.0043  0.4491  0.9341
 6878SOL    HW327285   5.062   5.061   3.905  0.0601 -2.1426  1.1827
 6878SOL    MW427286   5.038   5.032   3.826 -0.4115  0.4722 -0.7179
 6879SOL     OW27287   1.440   4.317   5.366  0.0133  0.0564 -0.5793
 6879SOL    HW227288   1.428   4.407   5.396 -0.9208  0.4892 -2.0937
 6879SOL    HW327289   1.361   4.272   5.396  0.0791 -0.0383 -0.5505
 6879SOL    MW427290   1.428   4.323   5.374 -0.5182  0.0360 -0.3012
 6880SOL     OW27291   0.968   6.051   6.334  1.0604 -0.0778  0.1208
 6880SOL    HW227292   1.017   5.970   6.325 -0.6085 -0.8901 -3.8218
 6880SOL    HW327293   1.022   6.117   6.291  0.6845 -0.0124 -0.2639
 6880SOL    MW427294   0.981   6.049   6.327  0.1809  0.5680  0.1373
 6881SOL     OW27295   5.369   5.635   5.050 -0.3033  0.1949  0.1122
 6881SOL    HW227296   5.329   5.661   5.133 -0.8776 -0.4782  0.0560
 6881SOL    HW327297   5.300   5.645   4.985 -0.2267 -0.4529 -0.0790
 6881SOL    MW427298   5.355   5.640   5.052  0.2681 -0.3333 -0.1970
 6882SOL     OW27299   4.368   3.990   5.790  0.1488 -0.2772 -0.5548
 6882SOL    HW227300   4.463   4.005   5.792  0.2725 -0.5777 -2.5410
 6882SOL    HW327301   4.349   3.946   5.872  1.4688  1.1453  0.5815
 6882SOL    MW427302   4.378   3.986   5.801 -0.0392  0.2067  0.6590
 6883SOL     OW27303   2.105   0.155   4.484  0.3255 -0.7116  0.2775
 6883SOL    HW227304   2.179   0.101   4.513  0.2750  0.0340  1.9108
 6883SOL    HW327305   2.135   0.194   4.402  1.1730 -1.5488  0.1704
 6883SOL    MW427306   2.119   0.153   4.477  0.0792 -0.1028  0.6175
 6884SOL     OW27307   1.886   6.006   2.582 -0.2623  0.0887  0.3319
 6884SOL    HW227308   1.925   5.939   2.526 -0.2315 -0.8252  1.4190
 6884SOL    HW327309   1.899   5.974   2.671  0.1999  1.7931  0.9140
 6884SOL    MW427310   1.893   5.993   2.586 -0.0289  0.2515  0.1710
 6885SOL     OW27311   1.449   1.988   1.697  0.5171  0.2127 -0.0537
 6885SOL    HW227312   1.466   2.003   1.604  0.1165 -1.3412 -0.3999
 6885SOL    HW327313   1.437   2.076   1.733  2.1995  0.9482 -1.1511
 6885SOL    MW427314   1.449   2.001   1.689 -0.1082  0.2205 -0.5328
 6886SOL     OW27315   5.060   0.305   6.166  0.5834  0.3571 -0.8728
 6886SOL    HW227316   5.056   0.238   6.234 -1.6710  1.7937  0.5663
 6886SOL    HW327317   5.077   0.257   6.085 -1.6974 -2.1097 -0.0454
 6886SOL    MW427318   5.061   0.290   6.165 -0.3124  0.4823 -0.2437
 6887SOL     OW27319   1.294   3.243   5.008 -0.2681  0.8619  0.4221
 6887SOL    HW227320   1.291   3.321   4.952 -1.4014 -0.2940 -1.2058
 6887SOL    HW327321   1.319   3.172   4.949  0.1160 -0.1362  1.7412
 6887SOL    MW427322   1.297   3.244   4.992  0.3602  0.2774 -0.5084
 6888SOL     OW27323   0.679   0.881   1.880 -0.5176  0.1689  0.3546
 6888SOL    HW227324   0.754   0.912   1.829 -0.6797  0.3730  0.2359
 6888SOL    HW327325   0.621   0.958   1.886 -0.2758  0.2943  1.2643
 6888SOL    MW427326   0.681   0.896   1.874  0.4534  0.5658 -0.2051
 6889SOL     OW27327   1.357   6.406   6.197 -0.1934 -0.1579  0.2811
 6889SOL    HW227328   1.397   6.364   6.122  0.4188 -0.9398  1.0325
 6889SOL    HW327329   1.282   6.454   6.161  0.7746  0.4364 -0.9777
 6889SOL    MW427330   1.352   6.407   6.182  0.3114 -0.6444 -0.1428
 6890SOL     OW27331   2.138   2.944   5.953  0.1238  0.1831 -0.0213
 6890SOL    HW227332   2.124   3.030   5.993  0.8443 -0.2027  1.1141
 6890SOL    HW327333   2.069   2.889   5.990 -1.0337  0.5088 -1.6003
 6890SOL    MW427334   2.127   2.948   5.964  0.7845  0.6962  0.2019
 6891SOL     OW27335   3.566   3.059   2.851  0.0695  0.6583  0.3193
 6891SOL    HW227336   3.610   3.064   2.936 -0.4608 -1.5193  0.7678
 6891SOL    HW327337   3.545   2.967   2.840 -1.6598  1.1818 -1.2825
 6891SOL    MW427338   3.569   3.048   2.861  0.0666  0.8679 -0.0883
 6892SOL     OW27339   5.959   5.746   0.290  0.5972  0.0309 -0.4350
 6892SOL    HW227340   6.034   5.788   0.333  1.9373 -1.8734 -0.8000
 6892SOL    HW327341   5.884   5.770   0.343  1.0347  3.8252 -1.2303
 6892SOL    MW427342   5.959   5.755   0.303 -0.0830 -0.3444 -0.3055
 6893SOL     OW27343   2.869   2.360   4.713 -0.1611  0.1628 -0.1279
 6893SOL    HW227344   2.867   2.456   4.709  0.5494  0.2346  1.0440
 6893SOL    HW327345   2.938   2.335   4.651 -1.2441  0.3181 -1.4393
 6893SOL    MW427346   2.878   2.369   4.704 -0.6649  0.2173  0.0627
 6894SOL     OW27347   1.459   1.643   1.303  0.5846  0.1244  0.0214
 6894SOL    HW227348   1.542   1.643   1.350  0.6646  1.8750 -0.0506
 6894SOL    HW327349   1.483   1.622   1.212  0.6636 -1.3833  0.3670
 6894SOL    MW427350   1.473   1.640   1.297 -0.1642 -0.3903  0.2801
 6895SOL     OW27351   1.966   1.796   4.000  0.1447  0.1857  0.5857
 6895SOL    HW227352   1.909   1.863   4.036  0.5321  1.0227 -0.3173
 6895SOL    HW327353   2.005   1.753   4.077  0.4765  1.5009  1.1786
 6895SOL    MW427354   1.964   1.799   4.015 -0.4431 -0.0888  0.0676
 6896SOL     OW27355   1.237   1.083   0.453  0.2664  0.0528  0.1160
 6896SOL    HW227356   1.182   1.140   0.507  0.1258 -1.3948  1.5638
 6896SOL    HW327357   1.176   1.033   0.400  0.3465  0.4807 -0.3930
 6896SOL    MW427358   1.222   1.084   0.453 -0.5221  0.2120  0.2450
 6897SOL     OW27359   6.057   5.178   3.062  0.0292 -0.4068  0.5203
 6897SOL    HW227360   6.005   5.168   2.982 -0.4789  2.7698  0.3295
 6897SOL    HW327361   6.145   5.148   3.037 -0.1505  0.3851 -1.2182
 6897SOL    MW427362   6.062   5.173   3.048 -0.2614  0.2138  0.2182
 6898SOL     OW27363   1.364   5.360   1.947 -0.0641  0.1442  0.6561
 6898SOL    HW227364   1.384   5.337   1.857 -0.4235 -0.6395  0.7733
 6898SOL    HW327365   1.330   5.450   1.942 -0.8967 -0.1985 -0.0963
 6898SOL    MW427366   1.362   5.369   1.935  0.1280 -0.0192 -0.5669
 6899SOL     OW27367   5.407   3.226   1.955  0.4766  0.3366 -0.1488
 6899SOL    HW227368   5.434   3.318   1.956  0.2728  0.4122 -0.8332
 6899SOL    HW327369   5.482   3.179   1.918 -0.4051  0.5970 -2.4316
 6899SOL    MW427370   5.420   3.232   1.950  0.0862  0.0701  0.7258
 6900SOL     OW27371   2.594   4.641   0.404 -0.1011 -0.0270  0.4162
 6900SOL    HW227372   2.501   4.626   0.418 -0.3067  0.0732 -0.7374
 6900SOL    HW327373   2.638   4.580   0.464 -0.8934  0.1716  1.2248
 6900SOL    MW427374   2.588   4.631   0.414 -0.2779  0.0048  0.3619
 6901SOL     OW27375   3.142   6.240   0.454  0.3382  0.0859 -0.0487
 6901SOL    HW227376   3.162   6.230   0.361 -1.0012  0.9268 -0.4646
 6901SOL    HW327377   3.067   6.299   0.455  0.8375  0.7477  1.6136
 6901SOL    MW427378   3.135   6.247   0.441 -0.2511  0.2771  0.6856
 6902SOL     OW27379   3.449   1.024   3.322  0.1946 -0.8631 -0.4558
 6902SOL    HW227380   3.476   0.955   3.383 -1.1360 -0.7419  0.3113
 6902SOL    HW327381   3.456   1.105   3.372 -2.0136 -0.8735 -0.0055
 6902SOL    MW427382   3.453   1.026   3.337 -0.1318  0.0733 -0.0337
 6903SOL     OW27383   1.073   0.691   6.227 -0.1311  0.2159 -0.0796
 6903SOL    HW227384   1.009   0.735   6.170  1.0841  1.1362 -0.7820
 6903SOL    HW327385   1.040   0.602   6.236 -3.3539  1.4570  2.3863
 6903SOL    MW427386   1.060   0.685   6.220  0.0952 -0.1712 -0.4561
 6904SOL     OW27387   4.692   3.914   3.350  0.0686  0.6002  0.3707
 6904SOL    HW227388   4.669   3.873   3.266  2.0612 -0.0160  0.0835
 6904SOL    HW327389   4.623   3.979   3.364 -0.9207 -0.0481 -1.1816
 6904SOL    MW427390   4.680   3.917   3.341  0.2332 -0.1714  0.0189
 6905SOL     OW27391   5.541   5.323   1.656 -0.0521 -0.3482  0.0317
 6905SOL    HW227392   5.446   5.331   1.665 -0.1492 -0.4752 -0.8392
 6905SOL    HW327393   5.556   5.228   1.651 -0.0251 -0.2844 -1.2633
 6905SOL    MW427394   5.530   5.311   1.657 -0.9794  0.3681  0.2302
 6906SOL     OW27395   2.966   0.536   5.872  0.0012 -0.5451 -0.1979
 6906SOL    HW227396   2.914   0.464   5.836 -1.4286  1.0287 -1.4727
 6906SOL    HW327397   2.903   0.607   5.883  1.3198  0.4789  1.2165
 6906SOL    MW427398   2.951   0.536   5.869  0.3937 -0.2436  0.3610
 6907SOL     OW27399   2.630   4.877   1.694 -0.3410 -0.1687 -0.1023
 6907SOL    HW227400   2.647   4.838   1.780 -0.6038 -0.1001 -0.0193
 6907SOL    HW327401   2.559   4.826   1.657 -0.7346  0.2696  0.0371
 6907SOL    MW427402   2.623   4.865   1.700  0.2872  0.2473  0.4432
 6908SOL     OW27403   0.971   1.002   2.657 -0.1325 -0.5183  0.0703
 6908SOL    HW227404   0.915   0.961   2.591 -0.2185  2.1919 -1.6822
 6908SOL    HW327405   1.006   0.928   2.707 -2.3311 -2.5222 -1.1272
 6908SOL    MW427406   0.968   0.987   2.655  0.3764  0.5520  0.2742
 6909SOL     OW27407   2.574   4.916   3.722  0.6015 -0.0129 -0.7946
 6909SOL    HW227408   2.664   4.883   3.725  0.6698 -0.0327  3.1975
 6909SOL    HW327409   2.583   5.011   3.730  0.3463 -0.0666  0.4361
 6909SOL    MW427410   2.587   4.924   3.724  0.6982  0.0092  0.7276
 6910SOL     OW27411   3.720   0.259   3.927  0.0849 -0.0172 -0.2768
 6910SOL    HW227412   3.743   0.275   3.835  0.0750  0.6204 -0.1713
 6910SOL    HW327413   3.800   0.281   3.975  0.3619 -1.1414 -0.1876
 6910SOL    MW427414   3.734   0.264   3.921 -0.2145  0.8526  0.4032
 6911SOL     OW27415   2.541   5.479   5.167  0.0180 -0.3072  0.0783
 6911SOL    HW227416   2.510   5.408   5.223 -0.7553 -0.0044  0.0419
 6911SOL    HW327417   2.511   5.559   5.210 -0.1748 -0.0507 -0.5219
 6911SOL    MW427418   2.533   5.480   5.180  0.4850  0.3486  0.0335
 6912SOL     OW27419   3.887   4.638   4.917 -0.3258 -0.3439 -0.1531
 6912SOL    HW227420   3.971   4.591   4.910  0.7272  0.9762  2.4150
 6912SOL    HW327421   3.865   4.661   4.827  1.9852 -0.9172 -0.9334
 6912SOL    MW427422   3.895   4.635   4.904  0.6930 -0.0726  0.1661
 6913SOL     OW27423   3.497   6.401   2.285  0.0366  0.2172 -0.1887
 6913SOL    HW227424   3.526   6.465   2.219 -2.0964  0.7547 -0.6661
 6913SOL    HW327425   3.494   6.318   2.237 -0.5355  0.4217 -0.5189
 6913SOL    MW427426   3.501   6.399   2.270 -0.5354 -0.2686  0.1231
 6914SOL     OW27427   0.558   5.294   4.824 -0.3371 -0.1480  0.4658
 6914SOL    HW227428   0.575   5.319   4.914  2.0755 -0.4517  0.1657
 6914SOL    HW327429   0.518   5.207   4.830  1.8791 -1.1851  1.2422
 6914SOL    MW427430   0.555   5.286   4.836 -0.0569 -0.5250 -0.0862
 6915SOL     OW27431   6.147   5.878   0.450  0.2157  0.0944 -0.3041
 6915SOL    HW227432   6.130   5.969   0.472 -1.4237 -0.6638  1.9691
 6915SOL    HW327433   6.165   5.836   0.534  0.0537 -1.8391 -1.1772
 6915SOL    MW427434   6.147   5.884   0.464 -1.0372 -0.5003  0.4346
 6916SOL     OW27435   0.738   2.033   3.867 -0.3949  0.2208  0.7583
 6916SOL    HW227436   0.712   2.009   3.956 -0.6464 -1.4089  0.2718
 6916SOL    HW327437   0.668   2.091   3.836 -1.6808 -1.2782  0.7333
 6916SOL    MW427438   0.725   2.038   3.875 -0.1670 -0.3320 -0.1543
 6917SOL     OW27439   2.657   0.701   0.698 -0.3739 -0.0100 -0.0532
 6917SOL    HW227440   2.702   0.662   0.623  1.4388  1.0241  0.4402
 6917SOL    HW327441   2.653   0.795   0.677  2.6759  0.7847  2.2190
 6917SOL    MW427442   2.662   0.708   0.685  0.4672 -0.2511  0.0663
 6918SOL     OW27443   2.081   2.885   5.633 -0.0666  0.0961  0.0920
 6918SOL    HW227444   2.162   2.838   5.613 -1.0999 -1.8243  0.1092
 6918SOL    HW327445   2.106   2.951   5.698  1.3194 -1.0818  0.8148
 6918SOL    MW427446   2.095   2.887   5.639  0.0031  0.0673  0.0932
 6919SOL     OW27447   5.218   3.752   1.840  0.0787 -0.0958 -0.1326
 6919SOL    HW227448   5.282   3.686   1.865  0.2394  0.2062  0.2688
 6919SOL    HW327449   5.133   3.713   1.863  0.2243  0.2263  1.0618
 6919SOL    MW427450   5.215   3.738   1.847  0.4505 -0.8088 -0.2714
 6920SOL     OW27451   1.513   6.152   3.689  0.3687 -0.3605 -0.1790
 6920SOL    HW227452   1.472   6.201   3.760 -0.1124 -0.8876 -0.0898
 6920SOL    HW327453   1.452   6.082   3.669  0.0928  0.2582 -1.6726
 6920SOL    MW427454   1.500   6.149   3.696  0.3087 -0.6682 -0.4881
 6921SOL     OW27455   5.629   5.846   4.247 -0.1620 -0.3743  0.0178
 6921SOL    HW227456   5.539   5.868   4.270  0.3224  0.2400  1.3874
 6921SOL    HW327457   5.665   5.926   4.210 -0.4737 -0.9274 -1.5860
 6921SOL    MW427458   5.622   5.859   4.245 -0.5163 -0.0357  0.4912
 6922SOL     OW27459   1.199   2.740   3.712 -0.1718  0.2414  0.1408
 6922SOL    HW227460   1.249   2.817   3.740 -0.1557 -0.0405  0.9265
 6922SOL    HW327461   1.120   2.742   3.767 -0.4987  0.0801 -0.3191
 6922SOL    MW427462   1.195   2.750   3.723  0.1992  0.3015 -0.3327
 6923SOL     OW27463   3.416   1.745   0.843 -0.0589  0.1996 -0.5276
 6923SOL    HW227464   3.358   1.682   0.800 -2.1861  1.5871  0.1859
 6923SOL    HW327465   3.358   1.813   0.877  1.9855  1.6064  0.3699
 6923SOL    MW427466   3.401   1.746   0.842 -0.5679 -0.0822 -0.3833
 6924SOL     OW27467   2.062   0.601   1.632 -0.0346 -0.4166 -0.0606
 6924SOL    HW227468   2.108   0.643   1.705  0.5814 -0.1784 -0.5737
 6924SOL    HW327469   2.131   0.560   1.580 -0.5263 -1.1278 -0.1716
 6924SOL    MW427470   2.077   0.602   1.635  0.2109 -0.3123  0.1925
 6925SOL     OW27471   5.108   5.543   4.224  0.2609  0.7467 -0.0258
 6925SOL    HW227472   5.162   5.579   4.294 -0.4106  0.4317  0.6716
 6925SOL    HW327473   5.032   5.507   4.269 -1.2607  2.4583 -1.0588
 6925SOL    MW427474   5.105   5.543   4.239 -0.2728  0.1239 -0.3623
 6926SOL     OW27475   5.347   1.830   1.448  0.7189  0.3225 -0.6756
 6926SOL    HW227476   5.254   1.851   1.443  0.3713 -0.7661  0.5194
 6926SOL    HW327477   5.383   1.898   1.505  0.2665 -0.2658  0.3601
 6926SOL    MW427478   5.339   1.842   1.455 -0.2529 -0.2618 -0.1837
 6927SOL     OW27479   4.875   1.422   1.333 -0.4036 -0.9050 -0.0032
 6927SOL    HW227480   4.889   1.352   1.396 -0.0061 -1.1818 -0.3955
 6927SOL    HW327481   4.796   1.466   1.363  0.7236  0.0614  1.6724
 6927SOL    MW427482   4.866   1.419   1.345 -0.1624  0.5535  0.4544
 6928SOL     OW27483   5.540   6.251   0.705  0.1395  0.2065 -0.1217
 6928SOL    HW227484   5.493   6.220   0.628 -1.0463 -2.0116  1.3664
 6928SOL    HW327485   5.516   6.343   0.713  1.3035  0.8619 -3.0266
 6928SOL    MW427486   5.531   6.259   0.696 -0.3885 -0.4040  0.5648
 6929SOL     OW27487   3.439   4.463   6.021 -0.0724 -0.4530 -0.0987
 6929SOL    HW227488   3.469   4.372   6.026  1.6609 -0.1384 -2.5882
 6929SOL    HW327489   3.501   4.511   6.076 -0.6393 -0.6592  0.7503
 6929SOL    MW427490   3.451   4.457   6.029 -0.1202 -0.0837 -0.1861
 6930SOL     OW27491   5.610   1.939   5.431 -0.4670 -0.2608 -0.1483
 6930SOL    HW227492   5.612   1.977   5.343  3.2103  1.4713  0.5340
 6930SOL    HW327493   5.636   1.848   5.418 -0.2689 -0.1036 -0.8759
 6930SOL    MW427494   5.613   1.932   5.417 -0.4161  0.3854  0.7456
 6931SOL     OW27495   5.915   4.911   4.773  0.7777 -0.6552  0.6585
 6931SOL    HW227496   5.877   4.845   4.714  0.6868  1.0715 -1.3456
 6931SOL    HW327497   5.840   4.947   4.819  0.4331  0.0041 -0.3786
 6931SOL    MW427498   5.900   4.907   4.771 -0.4054  0.8056 -0.9020
 6932SOL     OW27499   2.816   0.308   5.782 -0.0167 -0.2371 -0.1962
 6932SOL    HW227500   2.801   0.281   5.872 -2.0039 -0.4944 -0.5613
 6932SOL    HW327501   2.731   0.339   5.751  0.7539  0.4155 -1.8035
 6932SOL    MW427502   2.803   0.308   5.790 -0.0025 -0.2204 -0.0658
 6933SOL     OW27503   5.968   3.198   3.963  0.1651  0.2137  0.6473
 6933SOL    HW227504   5.951   3.230   3.875  1.1030  1.4119  0.8812
 6933SOL    HW327505   6.052   3.151   3.956  0.7254  1.1252  1.0735
 6933SOL    MW427506   5.977   3.196   3.951  0.5151 -0.0918  0.0169
 6934SOL     OW27507   3.008   0.385   4.338 -0.0181 -0.6798  0.1684
 6934SOL    HW227508   3.084   0.438   4.313 -0.4425  0.0028  0.2957
 6934SOL    HW327509   2.979   0.345   4.256 -2.0073  2.3333 -0.7801
 6934SOL    MW427510   3.014   0.386   4.323  0.4721 -0.3326  0.1862
 6935SOL     OW27511   1.983   5.161   1.357  0.0736  0.0860 -0.4164
 6935SOL    HW227512   2.035   5.241   1.367 -1.6419  1.2418 -0.4256
 6935SOL    HW327513   1.970   5.152   1.263  0.6095 -0.4554 -0.4457
 6935SOL    MW427514   1.988   5.171   1.346  0.4063 -0.2620  0.2593
 6936SOL     OW27515   0.195   5.025   5.233  0.1297 -0.1630  0.0098
 6936SOL    HW227516   0.257   4.958   5.205 -2.8329 -3.2239  0.0584
 6936SOL    HW327517   0.180   5.008   5.326  0.0563  1.2692  0.2886
 6936SOL    MW427518   0.201   5.014   5.242  0.0952  0.2741  0.4841
 6937SOL     OW27519   5.999   2.366   1.171  0.9202  0.0919 -0.0423
 6937SOL    HW227520   6.023   2.458   1.186  2.2450  0.1444 -2.1100
 6937SOL    HW327521   5.937   2.346   1.241  0.3272  2.6586  0.2751
 6937SOL    MW427522   5.994   2.376   1.182 -0.1494 -0.2715 -0.3846
 6938SOL     OW27523   6.073   5.634   4.533 -0.2598  0.1809 -0.2870
 6938SOL    HW227524   6.073   5.690   4.611  0.0223 -0.4551  0.1777
 6938SOL    HW327525   6.094   5.693   4.461 -1.3304  0.9366 -0.0057
 6938SOL    MW427526   6.076   5.649   4.534 -0.0576 -0.1191  0.2595
 6939SOL     OW27527   5.227   5.706   0.896 -0.3985 -0.0996 -0.4034
 6939SOL    HW227528   5.143   5.703   0.848 -1.6672 -1.8289  1.7432
 6939SOL    HW327529   5.225   5.791   0.941 -1.3809 -0.4175  0.1966
 6939SOL    MW427530   5.215   5.717   0.895 -0.0840  0.0072  0.1148
 6940SOL     OW27531   2.801   1.907   2.316  0.5419  0.1811 -0.3016
 6940SOL    HW227532   2.771   1.829   2.363 -2.0595  1.2270 -0.0314
 6940SOL    HW327533   2.733   1.921   2.250  0.5949  2.5733  0.0962
 6940SOL    MW427534   2.788   1.898   2.314  0.0230 -0.5303 -0.4570
 6941SOL     OW27535   1.596   4.356   3.094 -0.1691  0.3335  0.0726
 6941SOL    HW227536   1.573   4.447   3.113 -0.3615  0.7806 -2.0677
 6941SOL    HW327537   1.692   4.355   3.091 -0.1731  0.5470 -0.1871
 6941SOL    MW427538   1.606   4.368   3.096  0.0516  0.5682  0.8509
 6942SOL     OW27539   2.275   5.584   0.923  0.1541 -0.2880  0.2700
 6942SOL    HW227540   2.224   5.534   0.987  0.6766  0.2581  1.1339
 6942SOL    HW327541   2.364   5.584   0.958  0.4709 -0.0693 -0.5192
 6942SOL    MW427542   2.280   5.578   0.936  0.7687 -0.2954  0.7238
 6943SOL     OW27543   2.343   3.311   3.585  0.2588  0.3748 -0.2532
 6943SOL    HW227544   2.250   3.291   3.575  0.5578 -0.1181 -2.6624
 6943SOL    HW327545   2.347   3.406   3.595 -0.5614  0.2575  1.8985
 6943SOL    MW427546   2.331   3.321   3.585 -0.1052  0.5274  0.2191
 6944SOL     OW27547   1.862   5.163   3.463  0.3194  0.1122 -0.4205
 6944SOL    HW227548   1.776   5.200   3.484  1.3292  2.5684 -0.2394
 6944SOL    HW327549   1.843   5.079   3.421 -2.1602  0.6432 -0.5012
 6944SOL    MW427550   1.848   5.157   3.460  0.4463 -0.3122  0.1075
 6945SOL     OW27551   3.765   0.311   0.174  0.4411 -0.5206  1.0239
 6945SOL    HW227552   3.741   0.404   0.176 -0.1140 -0.5707 -1.2727
 6945SOL    HW327553   3.753   0.282   0.264 -0.5198  1.3494  1.5544
 6945SOL    MW427554   3.760   0.320   0.186  0.1250  0.1932 -0.2656
 6946SOL     OW27555   3.543   1.074   3.064  0.0337 -0.1429  0.3484
 6946SOL    HW227556   3.508   1.072   3.153  0.6532  0.9703  0.6307
 6946SOL    HW327557   3.636   1.055   3.075  0.0805 -0.1651 -0.0887
 6946SOL    MW427558   3.551   1.071   3.077  0.5819  0.2281 -0.2277
 6947SOL     OW27559   0.450   0.717   3.835  0.1682  0.2419  0.3547
 6947SOL    HW227560   0.508   0.792   3.822 -0.1705  0.1229 -2.7108
 6947SOL    HW327561   0.505   0.649   3.872  1.0756  1.2315  0.8678
 6947SOL    MW427562   0.465   0.718   3.838  0.5387  0.1142  0.3984
 6948SOL     OW27563   4.644   2.406   5.581 -0.1623 -0.0871 -0.3505
 6948SOL    HW227564   4.605   2.329   5.622  1.1422 -0.3056  0.5170
 6948SOL    HW327565   4.645   2.473   5.649  2.6786 -0.6720  0.3237
 6948SOL    MW427566   4.639   2.405   5.595 -0.3250  0.8935 -0.2691
 6949SOL     OW27567   1.496   0.186   5.951 -0.1162 -0.4916  0.2623
 6949SOL    HW227568   1.557   0.253   5.919  0.4592 -0.0933  2.0342
 6949SOL    HW327569   1.490   0.203   6.045 -0.1087 -2.8038  0.7463
 6949SOL    MW427570   1.503   0.197   5.960  0.0218  0.5663  0.9579
 6950SOL     OW27571   3.389   0.168   4.618  0.7529 -0.1045  0.1776
 6950SOL    HW227572   3.430   0.114   4.550 -0.1941  1.3527 -1.6082
 6950SOL    HW327573   3.418   0.127   4.700  0.3831 -3.1158 -1.0389
 6950SOL    MW427574   3.399   0.155   4.620  0.1961  0.1591  0.3100
 6951SOL     OW27575   1.527   3.236   1.563 -0.4626  0.4699 -0.1507
 6951SOL    HW227576   1.604   3.180   1.575  0.1862  1.1261 -1.1758
 6951SOL    HW327577   1.550   3.317   1.608 -1.9739 -0.4938  2.6285
 6951SOL    MW427578   1.540   3.239   1.571  0.6945 -0.5032 -0.2180
 6952SOL     OW27579   4.900   6.319   6.312  0.5812  0.2507  0.1687
 6952SOL    HW227580   4.900   6.226   6.331  3.7245  0.1640  0.2725
 6952SOL    HW327581   4.873   6.326   6.221 -0.2172 -0.6736  0.3222
 6952SOL    MW427582   4.896   6.308   6.303 -0.5901  0.1754 -0.0749
 6953SOL     OW27583   5.518   1.091   5.812 -0.5261  0.1389 -0.4462
 6953SOL    HW227584   5.480   1.011   5.777  1.4180 -1.0060 -0.0770
 6953SOL    HW327585   5.528   1.148   5.736  0.1665 -0.8685 -1.1358
 6953SOL    MW427586   5.514   1.088   5.797 -0.3305 -0.8595 -0.3104
 6954SOL     OW27587   1.248   0.836   4.930  0.4242  0.0795 -0.3776
 6954SOL    HW227588   1.333   0.791   4.935  0.1246 -0.7736 -2.2444
 6954SOL    HW327589   1.195   0.781   4.872 -1.9333 -0.2013  1.8574
 6954SOL    MW427590   1.252   0.823   4.923  0.1895  0.3326 -0.1670
 6955SOL     OW27591   3.971   0.940   2.521  0.1959 -0.1374  0.0869
 6955SOL    HW227592   3.970   0.948   2.616 -0.5745 -0.4181  0.1098
 6955SOL    HW327593   4.061   0.960   2.496  0.3165  0.2947  0.8415
 6955SOL    MW427594   3.983   0.944   2.530  0.0598 -0.0598  0.0501
 6956SOL     OW27595   3.121   1.201   4.395  0.3319  0.3796 -0.0183
 6956SOL    HW227596   3.107   1.151   4.314 -0.1155 -1.2645  1.0269
 6956SOL    HW327597   3.145   1.289   4.365  0.6140 -0.3020 -1.9313
 6956SOL    MW427598   3.122   1.206   4.380 -0.2274 -0.5622  0.1533
 6957SOL     OW27599   4.478   4.744   2.132 -0.2074 -0.4695  0.6073
 6957SOL    HW227600   4.545   4.735   2.064  0.3319 -1.7180  1.2834
 6957SOL    HW327601   4.398   4.766   2.084  0.5309  0.4107 -0.2676
 6957SOL    MW427602   4.476   4.746   2.116  0.2918 -0.4941 -0.2858
 6958SOL     OW27603   5.190   3.818   4.136 -0.2166  0.4326  0.4282
 6958SOL    HW227604   5.096   3.819   4.121 -0.2434  2.7477  0.3705
 6958SOL    HW327605   5.214   3.726   4.130 -1.8163  0.0736 -3.6140
 6958SOL    MW427606   5.181   3.806   4.133 -0.3375  0.0400  0.3804
 6959SOL     OW27607   5.811   3.036   2.789  0.3147  0.1896 -0.1143
 6959SOL    HW227608   5.786   2.951   2.823  0.0345 -0.6485 -2.2890
 6959SOL    HW327609   5.888   3.061   2.842  0.5602 -1.5078  0.3771
 6959SOL    MW427610   5.818   3.028   2.801  0.2484 -0.7021 -0.0715
 6960SOL     OW27611   3.137   2.228   0.771  0.2231  0.1892 -0.2107
 6960SOL    HW227612   3.171   2.301   0.720 -1.3096  2.9755  2.4445
 6960SOL    HW327613   3.206   2.207   0.833  0.0441  0.5824  0.1289
 6960SOL    MW427614   3.150   2.235   0.772 -0.2074 -0.4496  0.0511
 6961SOL     OW27615   1.943   0.680   3.481 -0.2569  0.1450  0.3200
 6961SOL    HW227616   1.916   0.758   3.529 -0.3109  1.5697 -1.8562
 6961SOL    HW327617   1.879   0.613   3.503 -0.7230  0.9786  1.5650
 6961SOL    MW427618   1.931   0.682   3.490  0.2029  0.1195  0.0997
 6962SOL     OW27619   2.781   1.226   4.729  0.0509  0.1273  0.8915
 6962SOL    HW227620   2.784   1.132   4.747  1.2632  0.0320  0.3185
 6962SOL    HW327621   2.823   1.234   4.643 -1.8603  0.9768 -0.0066
 6962SOL    MW427622   2.787   1.214   4.720  0.0655 -0.4365  0.2426
 6963SOL     OW27623   0.650   2.934   0.379  0.0530 -0.1918 -0.9742
 6963SOL    HW227624   0.688   2.855   0.341 -0.2439  0.5475 -2.9100
 6963SOL    HW327625   0.711   2.959   0.448  0.8776 -1.3283 -1.2618
 6963SOL    MW427626   0.663   2.927   0.383 -0.1220 -0.1009 -0.4317
 6964SOL     OW27627   0.326   1.117   2.876  0.2603 -0.2264  0.1422
 6964SOL    HW227628   0.317   1.084   2.786 -0.6740  1.8465 -0.6052
 6964SOL    HW327629   0.246   1.086   2.920 -1.1167  1.6941 -0.8353
 6964SOL    MW427630   0.314   1.109   2.870 -0.1843 -0.7568  0.0153
 6965SOL     OW27631   6.015   5.484   2.430 -0.2139  0.1040  0.1687
 6965SOL    HW227632   5.981   5.460   2.344  1.3322 -1.2464 -0.1062
 6965SOL    HW327633   6.053   5.571   2.418  0.0453 -0.1069 -0.5336
 6965SOL    MW427634   6.015   5.492   2.417  0.5865 -0.0017  0.4811
 6966SOL     OW27635   1.599   2.402   3.543 -0.2619 -0.0607 -0.5376
 6966SOL    HW227636   1.668   2.337   3.533  0.4572  0.1770  2.2474
 6966SOL    HW327637   1.532   2.358   3.596 -0.8460  0.7088 -0.6183
 6966SOL    MW427638   1.599   2.388   3.548  0.7037 -0.3499  0.4294
 6967SOL     OW27639   3.919   5.550   1.569  0.0185  0.8091 -0.5369
 6967SOL    HW227640   4.013   5.545   1.555  0.0370  0.8826 -0.4431
 6967SOL    HW327641   3.895   5.466   1.607  0.3320  1.4009  1.0775
 6967SOL    MW427642   3.928   5.538   1.572  0.8295 -0.3041  0.2036
 6968SOL     OW27643   5.185   0.272   0.773 -0.8927 -0.2040  0.0238
 6968SOL    HW227644   5.126   0.216   0.722  0.4359 -2.2714  0.6162
 6968SOL    HW327645   5.216   0.337   0.711 -1.4584 -0.9648 -1.0904
 6968SOL    MW427646   5.181   0.273   0.758  0.4048 -0.0465 -0.2668
 6969SOL     OW27647   5.535   1.198   0.470 -0.3362  0.0880  0.1737
 6969SOL    HW227648   5.577   1.144   0.403 -0.3933  0.8934 -0.5287
 6969SOL    HW327649   5.521   1.283   0.427 -0.5030  0.5740  1.1632
 6969SOL    MW427650   5.538   1.202   0.455  0.2223 -0.9016  0.2872
 6970SOL     OW27651   4.462   4.928   3.583 -0.0065  0.4732 -0.4333
 6970SOL    HW227652   4.519   4.916   3.506  0.6197 -2.1430  0.3491
 6970SOL    HW327653   4.396   4.860   3.575 -0.5675  0.8379  0.8363
 6970SOL    MW427654   4.461   4.918   3.572 -0.2508 -0.0085  0.2258
 6971SOL     OW27655   3.044   1.849   2.840  0.4984  0.4694 -0.5952
 6971SOL    HW227656   3.124   1.821   2.884 -0.3816 -0.3044  0.5616
 6971SOL    HW327657   3.036   1.791   2.764  0.3910 -0.2690 -0.0225
 6971SOL    MW427658   3.053   1.838   2.836  0.3895  0.7029  0.0379
 6972SOL     OW27659   2.648   2.543   5.688  0.2816  0.5908 -0.2707
 6972SOL    HW227660   2.727   2.576   5.732  0.0065  0.7334  0.1188
 6972SOL    HW327661   2.583   2.612   5.700  0.0319  0.3812 -0.4131
 6972SOL    MW427662   2.650   2.556   5.695  0.0141  0.0481  0.2096
 6973SOL     OW27663   5.112   4.377   6.369 -0.2384 -0.2234  0.4154
 6973SOL    HW227664   5.094   4.412   6.456 -0.6652 -1.7471  0.9736
 6973SOL    HW327665   5.207   4.381   6.361 -0.1415 -0.6776  1.2223
 6973SOL    MW427666   5.122   4.382   6.380 -0.3446  1.0185 -0.0170
 6974SOL     OW27667   1.611   1.219   2.858 -0.1582 -0.2547  0.0172
 6974SOL    HW227668   1.646   1.304   2.832  1.7565 -0.8508  0.4639
 6974SOL    HW327669   1.553   1.239   2.932  0.5980  0.6323  0.4004
 6974SOL    MW427670   1.608   1.233   2.864  0.2501  0.9707  0.3576
 6975SOL     OW27671   1.495   0.002   1.005 -0.2298  0.4422 -0.3483
 6975SOL    HW227672   1.481  -0.088   0.975 -1.3942  0.4076  0.2399
 6975SOL    HW327673   1.525   0.049   0.928  0.8784 -0.5560 -0.5503
 6975SOL    MW427674   1.497  -0.004   0.991 -0.2871  0.3675  0.2014
 6976SOL     OW27675   1.964   5.898   1.541  0.1248  0.0771  0.6097
 6976SOL    HW227676   1.995   5.809   1.559  1.1048  0.4673  0.9513
 6976SOL    HW327677   1.955   5.938   1.628  0.6380  0.6046  0.4291
 6976SOL    MW427678   1.967   5.891   1.555  0.4491 -0.1100  0.0165
 6977SOL     OW27679   5.460   4.986   4.851 -0.1210  0.8529  0.1716
 6977SOL    HW227680   5.415   4.998   4.935  0.5715  1.6084  0.4463
 6977SOL    HW327681   5.389   4.982   4.787 -0.7153 -0.6374  0.8731
 6977SOL    MW427682   5.444   4.987   4.854 -0.0571 -0.3204  0.1648
 6978SOL     OW27683   1.235   2.194   4.198 -0.6729  0.0440  0.1538
 6978SOL    HW227684   1.234   2.139   4.119  2.0286  0.0982  0.0082
 6978SOL    HW327685   1.227   2.131   4.270  0.6977 -0.4194 -0.0706
 6978SOL    MW427686   1.234   2.178   4.197 -0.9564 -0.1620 -0.1446
 6979SOL     OW27687   1.224   2.600   5.570  0.7198 -0.7256  0.3123
 6979SOL    HW227688   1.189   2.513   5.553  0.9973 -0.7748 -0.0076
 6979SOL    HW327689   1.229   2.605   5.666  1.4685 -1.3721  0.3208
 6979SOL    MW427690   1.220   2.589   5.580 -0.2185 -0.2853  0.8199
 6980SOL     OW27691   2.990   1.510   0.247 -0.2073 -0.2055  0.4542
 6980SOL    HW227692   2.956   1.488   0.334 -1.7603 -0.3300 -0.1458
 6980SOL    HW327693   3.000   1.425   0.204 -0.0602 -0.1100  0.3019
 6980SOL    MW427694   2.987   1.496   0.253  0.0039 -0.6598 -0.4557
 6981SOL     OW27695   2.326   6.411   4.567 -0.1206 -0.0221  0.1961
 6981SOL    HW227696   2.402   6.422   4.623 -2.4277  1.4736  3.3615
 6981SOL    HW327697   2.280   6.335   4.604 -2.5143  1.9457  1.6076
 6981SOL    MW427698   2.330   6.402   4.579 -0.2417 -0.1564 -0.6803
 6982SOL     OW27699   4.444   4.385   4.363 -0.3684  0.6518 -0.6815
 6982SOL    HW227700   4.392   4.356   4.438  0.1856 -2.9267 -1.5335
 6982SOL    HW327701   4.510   4.443   4.401 -1.7421  1.0986  1.1474
 6982SOL    MW427702   4.446   4.389   4.378 -0.2085  0.3563 -0.2824
 6983SOL     OW27703   2.404   1.431   4.913 -0.3544 -0.5961  0.1533
 6983SOL    HW227704   2.427   1.388   4.830 -0.7050 -0.0497 -0.2305
 6983SOL    HW327705   2.315   1.464   4.899 -0.0242  0.4152  0.3829
 6983SOL    MW427706   2.395   1.429   4.900 -0.1272 -0.1013  0.1432
 6984SOL     OW27707   1.290   1.631   1.003  0.4305 -0.6858  0.0193
 6984SOL    HW227708   1.257   1.590   0.924 -1.4717  1.5142 -0.4271
 6984SOL    HW327709   1.370   1.676   0.976 -2.1282  3.2889 -1.8258
 6984SOL    MW427710   1.296   1.632   0.989 -0.2047 -0.2651 -0.4687
 6985SOL     OW27711   1.142   5.331   0.124  0.1159  0.1516  0.2407
 6985SOL    HW227712   1.202   5.386   0.073 -0.9020  0.3892 -0.7468
 6985SOL    HW327713   1.126   5.255   0.068 -0.2810 -0.0465  0.6177
 6985SOL    MW427714   1.148   5.328   0.110  0.0607  0.0123  0.0386
 6986SOL     OW27715   0.718   5.499   0.329 -0.3413  0.7172 -0.0206
 6986SOL    HW227716   0.749   5.509   0.239  0.5860  2.4562  0.4578
 6986SOL    HW327717   0.646   5.436   0.323  0.3989  0.0048 -1.8125
 6986SOL    MW427718   0.712   5.492   0.317  0.0353 -0.3276 -0.4851
 6987SOL     OW27719   0.726   2.982   1.822 -0.2007 -0.4727 -0.3815
 6987SOL    HW227720   0.752   2.945   1.907  1.5238  0.9135 -0.2501
 6987SOL    HW327721   0.783   2.938   1.759  0.8927  0.8825 -0.3844
 6987SOL    MW427722   0.737   2.971   1.825 -0.4034 -0.3220 -0.0002
 6988SOL     OW27723   2.590   2.169   6.010  0.1630 -0.3747 -0.3708
 6988SOL    HW227724   2.556   2.219   5.936 -1.0151  0.5135  0.7215
 6988SOL    HW327725   2.675   2.208   6.029 -0.4202  0.7512  0.0008
 6988SOL    MW427726   2.596   2.180   6.003  0.3210 -0.0543 -0.2390
 6989SOL     OW27727   6.291   3.481   5.563  0.2848  0.2508  0.3763
 6989SOL    HW227728   6.379   3.452   5.538  0.6518  0.6368  1.1987
 6989SOL    HW327729   6.286   3.464   5.657 -1.1236 -1.3206  0.0834
 6989SOL    MW427730   6.302   3.475   5.572 -0.4237 -0.5975  0.0719
 6990SOL     OW27731   2.049   3.017   2.812 -0.0733  0.1245  0.0011
 6990SOL    HW227732   2.000   3.051   2.887 -0.3919 -0.7310  0.1887
 6990SOL    HW327733   1.995   3.041   2.736 -2.5595 -3.5293  0.3640
 6990SOL    MW427734   2.035   3.025   2.812 -0.0840 -0.8182  0.0848
 6991SOL     OW27735   3.951   1.239   0.800  0.3530  0.3114  0.1259
 6991SOL    HW227736   3.884   1.209   0.739 -0.9062  0.7528  1.2601
 6991SOL    HW327737   4.028   1.186   0.778  0.3507  1.2546 -2.6347
 6991SOL    MW427738   3.953   1.228   0.789 -0.4169  0.0672  0.9078
 6992SOL     OW27739   3.967   1.888   4.879 -0.2317  0.0726  0.1005
 6992SOL    HW227740   3.936   1.879   4.789  0.4093  1.1851 -0.2512
 6992SOL    HW327741   3.893   1.857   4.933 -1.2543  0.9241 -0.7595
 6992SOL    MW427742   3.953   1.883   4.875  0.4716 -0.1527  0.1983
 6993SOL     OW27743   0.415   4.684   4.416 -0.2088 -0.0866 -0.1886
 6993SOL    HW227744   0.368   4.728   4.486 -4.1037  0.8706 -3.0701
 6993SOL    HW327745   0.466   4.754   4.374 -0.3025  0.0025 -0.1534
 6993SOL    MW427746   0.416   4.699   4.420 -0.2499 -0.1017  0.2430
 6994SOL     OW27747   6.409   3.260   4.384 -0.0665  0.5995 -0.1911
 6994SOL    HW227748   6.329   3.303   4.415  0.5860  1.5381  0.2295
 6994SOL    HW327749   6.474   3.278   4.452  0.2256 -1.0879  0.0084
 6994SOL    MW427750   6.407   3.268   4.397  0.0696 -0.1403 -0.6270
 6995SOL     OW27751   3.804   1.199   0.065  0.3775 -0.6011 -0.2166
 6995SOL    HW227752   3.849   1.171  -0.014  0.3913  2.3252 -1.3496
 6995SOL    HW327753   3.868   1.186   0.135  1.0102 -1.5333 -0.9435
 6995SOL    MW427754   3.818   1.194   0.064  0.6301 -0.1724  0.1620
 6996SOL     OW27755   2.754   2.832   2.239  0.1072  0.0734  0.5612
 6996SOL    HW227756   2.812   2.841   2.315  0.6592  1.7638 -0.0012
 6996SOL    HW327757   2.723   2.921   2.222  0.7443 -0.0650 -1.7312
 6996SOL    MW427758   2.758   2.845   2.246 -0.4430 -0.2306 -0.2747
 6997SOL     OW27759   0.820   1.435   0.492  0.2723 -0.5225  0.1868
 6997SOL    HW227760   0.821   1.498   0.420  0.3270 -0.9035 -0.1456
 6997SOL    HW327761   0.765   1.363   0.461 -1.2240  0.1199  1.2168
 6997SOL    MW427762   0.813   1.434   0.478  0.3543 -0.6437  0.4672
 6998SOL     OW27763   3.815   6.365   3.204  0.6208 -0.1016 -0.3071
 6998SOL    HW227764   3.875   6.438   3.217  1.0562 -0.5330  0.1175
 6998SOL    HW327765   3.764   6.362   3.285  0.6238 -0.2884 -0.3128
 6998SOL    MW427766   3.816   6.375   3.216 -0.1278  0.7969 -0.6191
 6999SOL     OW27767   0.229   0.984   4.808  0.2297 -0.2987  0.1489
 6999SOL    HW227768   0.309   0.939   4.780  0.6736  0.2730  0.4628
 6999SOL    HW327769   0.229   0.975   4.903 -0.0145 -0.1881  0.1586
 6999SOL    MW427770   0.240   0.977   4.817 -0.1418 -0.4215  0.3422
 7000SOL     OW27771   2.935   2.838   6.035  0.2384  0.3765 -0.0383
 7000SOL    HW227772   2.953   2.932   6.040  2.1443  0.1189 -1.0378
 7000SOL    HW327773   3.007   2.797   6.083 -0.4031 -0.6039  0.1217
 7000SOL    MW427774   2.947   2.845   6.042  0.0051 -0.1505  0.5293
 7001SOL     OW27775   3.079   4.081   3.743 -0.2519  0.0724  0.1258
 7001SOL    HW227776   3.102   4.000   3.788  0.9093  1.2252  1.7153
 7001SOL    HW327777   3.006   4.057   3.686  0.6885 -2.2895 -0.1895
 7001SOL    MW427778   3.072   4.067   3.742 -0.0264  0.2034  0.2016
 7002SOL     OW27779   2.556   1.443   1.890  0.2030 -0.1896  0.8341
 7002SOL    HW227780   2.468   1.481   1.899  0.3955  0.0139  1.9286
 7002SOL    HW327781   2.553   1.362   1.940  0.1908 -0.9974 -0.4271
 7002SOL    MW427782   2.544   1.438   1.898  0.0577  0.6191 -0.0144
 7003SOL     OW27783   0.064   4.521   3.006  0.3532 -0.1926 -0.5371
 7003SOL    HW227784  -0.027   4.506   2.981  0.7245  0.1958 -2.2533
 7003SOL    HW327785   0.114   4.499   2.928  1.7574 -0.4993  0.4130
 7003SOL    MW427786   0.059   4.516   2.993  0.3242 -0.3769  0.3177
 7004SOL     OW27787   0.700   4.122   5.557 -0.7653 -0.1752  0.5704
 7004SOL    HW227788   0.683   4.208   5.519 -4.3826 -1.1526 -0.4213
 7004SOL    HW327789   0.717   4.065   5.481 -0.1780 -0.6821  1.0696
 7004SOL    MW427790   0.700   4.125   5.542 -0.0711  0.2862 -0.5927
 7005SOL     OW27791   0.756   1.985   3.502 -0.2452 -0.1409 -0.3539
 7005SOL    HW227792   0.791   1.981   3.591 -0.0917 -0.9042 -0.4415
 7005SOL    HW327793   0.830   1.964   3.446 -0.3906  0.1379 -0.6534
 7005SOL    MW427794   0.770   1.982   3.507 -0.2521 -0.0739 -0.0001
 7006SOL     OW27795   5.008   0.111   0.607 -0.4488 -0.4004 -0.5400
 7006SOL    HW227796   4.916   0.099   0.631 -0.6942  1.2472 -0.5566
 7006SOL    HW327797   5.005   0.145   0.518  0.1961 -0.4408 -0.5835
 7006SOL    MW427798   4.995   0.114   0.598 -0.1985  0.0850 -0.0685
 7007SOL     OW27799   1.481   4.416   1.887 -0.4352  0.0203 -0.3588
 7007SOL    HW227800   1.511   4.420   1.978 -3.6780 -1.5691  0.9139
 7007SOL    HW327801   1.557   4.446   1.836  1.5157  0.9769  2.8070
 7007SOL    MW427802   1.495   4.421   1.892 -0.4936  0.0764 -0.0155
 7008SOL     OW27803   6.243   0.288   0.777  0.2630 -0.1876  0.3337
 7008SOL    HW227804   6.204   0.346   0.843  0.6687 -0.2554  0.6391
 7008SOL    HW327805   6.190   0.301   0.699  0.6302  0.9531  0.2585
 7008SOL    MW427806   6.231   0.297   0.775  0.2965  0.6539 -0.8267
 7009SOL     OW27807   5.542   4.456   4.651 -0.1706  0.3722  0.4796
 7009SOL    HW227808   5.532   4.543   4.688 -1.4460  0.3920  0.1197
 7009SOL    HW327809   5.518   4.396   4.721 -0.0675  0.3272  0.4779
 7009SOL    MW427810   5.538   4.460   4.665 -0.3128  0.0518 -0.0382
 7010SOL     OW27811   3.744   3.143   4.026  0.1511  0.0384 -0.5722
 7010SOL    HW227812   3.652   3.167   4.012 -0.0755  0.0935  0.8453
 7010SOL    HW327813   3.793   3.217   3.990 -0.4194  0.6880 -0.0606
 7010SOL    MW427814   3.738   3.156   4.020  0.0482 -0.2301 -0.1142
 7011SOL     OW27815   3.271   2.479   3.832 -0.0311 -0.0106 -0.4538
 7011SOL    HW227816   3.319   2.397   3.823  0.8224  0.4183 -0.0471
 7011SOL    HW327817   3.302   2.515   3.916 -1.6566 -0.0780  0.2075
 7011SOL    MW427818   3.282   2.473   3.842  0.1401  0.5651 -0.1167
 7012SOL     OW27819   1.604   2.641   2.152  0.1698  0.0786  0.4252
 7012SOL    HW227820   1.582   2.549   2.133 -0.5583  0.8496 -3.5070
 7012SOL    HW327821   1.523   2.678   2.187 -0.2522 -0.3394 -0.0807
 7012SOL    MW427822   1.590   2.634   2.154 -0.4446 -0.4513 -0.0444
 7013SOL     OW27823   3.093   1.932   0.226  0.0565  0.4231 -0.3573
 7013SOL    HW227824   3.176   1.919   0.181 -0.4079 -0.1546 -1.0778
 7013SOL    HW327825   3.074   1.848   0.268 -0.4196  0.3723 -0.6594
 7013SOL    MW427826   3.101   1.919   0.226  0.7388 -0.0731  0.0476
 7014SOL     OW27827   3.497   2.268   3.800 -0.0030  0.3097 -0.4892
 7014SOL    HW227828   3.541   2.336   3.750 -0.3545 -0.3455 -1.7267
 7014SOL    HW327829   3.459   2.210   3.734  1.0450 -1.5926  0.4743
 7014SOL    MW427830   3.498   2.269   3.785  0.3646 -0.7315  0.1214
 7015SOL     OW27831   0.243   1.932   0.184  0.1042  0.5281  0.1992
 7015SOL    HW227832   0.249   1.872   0.258 -1.6628  0.1809  0.0946
 7015SOL    HW327833   0.332   1.932   0.147  0.7724 -0.0600  1.6882
 7015SOL    MW427834   0.256   1.924   0.189  0.2424 -0.2566  0.1927
 7016SOL     OW27835   2.873   0.210   6.031  0.0710  0.6956 -0.6004
 7016SOL    HW227836   2.865   0.253   6.116 -1.6555  1.3361 -1.0615
 7016SOL    HW327837   2.968   0.200   6.019  0.3584  0.2179  1.5584
 7016SOL    MW427838   2.885   0.214   6.041  0.0507 -0.0449 -0.2053
 7017SOL     OW27839   5.472   1.286   2.660 -0.4444 -0.4527  0.2166
 7017SOL    HW227840   5.540   1.348   2.633 -2.0125  1.4129  0.3926
 7017SOL    HW327841   5.403   1.296   2.594 -1.6379 -0.4329  1.4472
 7017SOL    MW427842   5.472   1.296   2.647 -0.1881 -0.3659  0.4981
 7018SOL     OW27843   3.139   4.429   4.845  0.1156 -0.7836  0.9499
 7018SOL    HW227844   3.156   4.433   4.939 -0.9050 -0.4826  1.1300
 7018SOL    HW327845   3.060   4.376   4.837  0.9024 -1.8797  0.1595
 7018SOL    MW427846   3.131   4.423   4.857 -0.3409 -0.0752 -0.1660
 7019SOL     OW27847   6.391   5.757   3.260 -0.2024 -0.7557  0.0539
 7019SOL    HW227848   6.309   5.791   3.224 -1.1040 -1.8198  0.9972
 7019SOL    HW327849   6.420   5.692   3.197 -0.8306 -1.3524  0.3669
 7019SOL    MW427850   6.384   5.753   3.247 -0.1041  0.2892  0.7089
 7020SOL     OW27851   0.428   4.791   2.575  0.3795 -0.7035  0.0339
 7020SOL    HW227852   0.512   4.837   2.580 -0.1738  0.2787  0.5912
 7020SOL    HW327853   0.396   4.790   2.665  0.2190 -1.9040 -0.0196
 7020SOL    MW427854   0.435   4.797   2.588  0.1041 -0.3750 -0.3552
 7021SOL     OW27855   0.270   4.079   5.148 -0.1554  0.2932  0.1688
 7021SOL    HW227856   0.180   4.056   5.173 -0.2627 -1.1767 -1.3849
 7021SOL    HW327857   0.265   4.172   5.125 -1.4849  0.0437 -0.6507
 7021SOL    MW427858   0.257   4.088   5.148  0.4983 -0.3252 -0.3127
 7022SOL     OW27859   5.240   1.869   6.372  0.2413  0.1905  0.1077
 7022SOL    HW227860   5.218   1.802   6.307 -1.4508  1.5263 -0.7846
 7022SOL    HW327861   5.156   1.893   6.411  0.7425  1.9855  0.1691
 7022SOL    MW427862   5.226   1.864   6.368 -0.0968  0.4077 -0.4278
 7023SOL     OW27863   2.205   3.849   2.837 -0.1673  0.1276 -0.0065
 7023SOL    HW227864   2.189   3.900   2.757 -1.8920 -1.8879 -1.0457
 7023SOL    HW327865   2.119   3.838   2.876  0.0994 -2.0212  0.1140
 7023SOL    MW427866   2.192   3.854   2.831 -0.7530 -0.1329 -0.6246
 7024SOL     OW27867   1.591   5.843   1.638  0.7289  0.2846  0.3846
 7024SOL    HW227868   1.594   5.823   1.731 -1.9888  0.7675  0.6414
 7024SOL    HW327869   1.537   5.774   1.600  0.7694  0.7851 -0.6144
 7024SOL    MW427870   1.584   5.831   1.645  0.5266  0.3272 -0.0346
 7025SOL     OW27871   1.376   2.127   3.360 -0.8795  0.2137  0.0662
 7025SOL    HW227872   1.317   2.198   3.386  0.1069  1.0786  0.0386
 7025SOL    HW327873   1.420   2.101   3.440 -0.7738  0.0761 -0.0361
 7025SOL    MW427874   1.374   2.133   3.374  0.1676  0.1974 -0.2699
 7026SOL     OW27875   4.163   1.541   0.531 -0.3222  0.2727 -0.1606
 7026SOL    HW227876   4.238   1.588   0.495 -1.3038  0.7392 -1.7108
 7026SOL    HW327877   4.114   1.512   0.454 -2.2290  0.8122  0.7980
 7026SOL    MW427878   4.166   1.544   0.516  0.6751  0.1566  0.2182
 7027SOL     OW27879   1.108   5.056   1.690  0.1108 -0.3118 -0.1309
 7027SOL    HW227880   1.141   5.021   1.773  2.3879 -0.2029 -0.9306
 7027SOL    HW327881   1.131   4.989   1.625 -1.0054 -0.0709 -0.8048
 7027SOL    MW427882   1.115   5.042   1.693  0.0648  0.5523 -0.1230
 7028SOL     OW27883   6.376   1.875   2.424  0.7186 -0.6952  0.0821
 7028SOL    HW227884   6.438   1.945   2.407 -2.2380  2.2126  0.2423
 7028SOL    HW327885   6.349   1.844   2.337  0.5139 -0.1476 -0.0517
 7028SOL    MW427886   6.381   1.880   2.410  0.0643  0.1537  0.0922
 7029SOL     OW27887   2.303   1.567   1.799  0.4175 -0.0466  0.4852
 7029SOL    HW227888   2.357   1.531   1.728 -0.0399 -0.6359  0.4320
 7029SOL    HW327889   2.247   1.631   1.755  1.9893  1.5854  0.7509
 7029SOL    MW427890   2.303   1.571   1.784 -0.7212 -0.2308  0.4878
 7030SOL     OW27891   0.007   4.554   2.445  0.1001  0.2316 -0.2906
 7030SOL    HW227892  -0.035   4.614   2.506 -0.6641  0.5012 -1.0563
 7030SOL    HW327893   0.091   4.595   2.425  0.0591  0.4873  0.0567
 7030SOL    MW427894   0.012   4.567   2.450 -0.3995  0.6532 -0.2089
 7031SOL     OW27895   0.217   4.438   2.114  0.4032  0.0122 -0.1352
 7031SOL    HW227896   0.198   4.388   2.194  1.3245 -0.1271  0.0079
 7031SOL    HW327897   0.291   4.494   2.138  0.5560  0.1141 -0.8304
 7031SOL    MW427898   0.224   4.439   2.128 -0.4332  0.0222  0.0591
 7032SOL     OW27899   4.729   4.699   1.687  0.5449 -0.1413  0.5391
 7032SOL    HW227900   4.823   4.719   1.684  0.5024  0.0200  0.2941
 7032SOL    HW327901   4.719   4.621   1.633  0.6274 -0.5151  1.0544
 7032SOL    MW427902   4.740   4.692   1.680  0.1577 -0.5316 -0.3512
 7033SOL     OW27903   5.303   4.264   3.207 -0.0013 -0.2321 -0.1695
 7033SOL    HW227904   5.327   4.317   3.283  0.4904  0.1140 -0.5558
 7033SOL    HW327905   5.210   4.245   3.219  0.3142 -1.0877  1.0604
 7033SOL    MW427906   5.294   4.268   3.218 -0.7865 -0.2951 -0.1325
 7034SOL     OW27907   0.242   4.470   3.312 -0.0314  0.3618  0.1750
 7034SOL    HW227908   0.278   4.403   3.254 -0.9561  1.5968 -2.0074
 7034SOL    HW327909   0.314   4.494   3.370  1.2024 -0.4643 -0.9498
 7034SOL    MW427910   0.256   4.465   3.312  0.0102  0.1895  0.1828
 7035SOL     OW27911   0.526   3.130   1.364 -0.1252 -0.1925 -0.0701
 7035SOL    HW227912   0.565   3.180   1.292  0.2170  1.8583  1.4723
 7035SOL    HW327913   0.595   3.072   1.393  0.4876  0.5909  0.0638
 7035SOL    MW427914   0.540   3.129   1.358  0.4532  0.7036 -0.2573
 7036SOL     OW27915   4.217   3.346   5.312  0.0548 -0.3404  0.0958
 7036SOL    HW227916   4.190   3.393   5.234  0.4700 -1.3082 -0.6449
 7036SOL    HW327917   4.288   3.399   5.349 -0.5858  0.4604  0.1997
 7036SOL    MW427918   4.223   3.359   5.307  0.0410  0.0407  0.0741
 7037SOL     OW27919   2.756   4.497   4.192 -0.4525  0.3959 -0.0669
 7037SOL    HW227920   2.837   4.469   4.234 -0.2080 -0.0844 -0.8242
 7037SOL    HW327921   2.695   4.424   4.207 -1.0183  1.0945  1.1932
 7037SOL    MW427922   2.758   4.484   4.199  0.3099 -0.3891 -0.5957
 7038SOL     OW27923   0.236   0.229   2.120  0.0394  0.2424 -0.4170
 7038SOL    HW227924   0.167   0.290   2.094 -1.3329 -1.5004 -1.0600
 7038SOL    HW327925   0.219   0.212   2.213 -0.6128 -0.4095 -0.6455
 7038SOL    MW427926   0.225   0.235   2.129 -0.7417  0.3615  0.0313
 7039SOL     OW27927   2.463   6.285   2.071  0.1626  0.5562  0.3692
 7039SOL    HW227928   2.509   6.278   1.988  1.3365  1.1834  0.9526
 7039SOL    HW327929   2.522   6.246   2.135 -0.7320  0.0661  0.9301
 7039SOL    MW427930   2.477   6.279   2.069  0.0843 -0.3667  0.0150
 7040SOL     OW27931   3.666   4.593   0.427  0.3063  0.0400  0.0115
 7040SOL    HW227932   3.647   4.518   0.371  1.3958  0.1956 -0.5924
 7040SOL    HW327933   3.726   4.647   0.376  2.2900 -0.3841  1.7577
 7040SOL    MW427934   3.672   4.590   0.413  0.0024 -0.3729  0.7062
 7041SOL     OW27935   5.952   6.139   1.173 -0.0736  0.2215 -0.2018
 7041SOL    HW227936   6.011   6.088   1.228 -1.0090 -0.2049  0.4498
 7041SOL    HW327937   5.925   6.212   1.229 -1.8164 -0.7599  0.3251
 7041SOL    MW427938   5.956   6.142   1.188  0.5156 -0.9410 -0.3825
 7042SOL     OW27939   5.343   2.695   5.725  0.1911  0.3406  0.5386
 7042SOL    HW227940   5.315   2.786   5.713 -1.5495 -0.1535  0.5385
 7042SOL    HW327941   5.344   2.658   5.637 -1.9652 -0.3793  0.7577
 7042SOL    MW427942   5.339   2.703   5.712  0.2206 -0.3509  0.5483
 7043SOL     OW27943   0.004   5.101   4.729  0.2065  0.0001  0.5667
 7043SOL    HW227944  -0.087   5.112   4.753  0.5211  0.6071  1.5461
 7043SOL    HW327945   0.003   5.093   4.633 -0.9270 -0.8407  0.6380
 7043SOL    MW427946  -0.008   5.102   4.719  0.3562  0.7986 -0.1541
 7044SOL     OW27947   1.216   1.675   1.860 -0.1692  0.0167  0.1640
 7044SOL    HW227948   1.179   1.591   1.888 -1.5584  0.5481  0.0253
 7044SOL    HW327949   1.244   1.660   1.770 -0.2889 -0.3293  0.1838
 7044SOL    MW427950   1.215   1.662   1.852 -0.6529  0.4378 -0.2440
 7045SOL     OW27951   3.405   3.602   4.814 -0.2084 -0.6754  0.4816
 7045SOL    HW227952   3.359   3.557   4.743 -0.6153  0.9636 -0.3437
 7045SOL    HW327953   3.337   3.647   4.863  0.2037 -0.8216  1.2085
 7045SOL    MW427954   3.390   3.602   4.811  0.2267 -0.3634 -0.1660
 7046SOL     OW27955   5.102   2.371   4.908  0.2967  0.0798 -0.2040
 7046SOL    HW227956   5.030   2.321   4.869 -0.9322  2.5512 -1.3700
 7046SOL    HW327957   5.064   2.411   4.986  0.7410  0.5171 -0.2062
 7046SOL    MW427958   5.087   2.370   4.913  0.1075  0.2836 -0.0644
 7047SOL     OW27959   3.071   5.065   3.077 -0.3527 -0.5892 -0.1703
 7047SOL    HW227960   3.057   5.064   3.172 -1.3438 -1.0413 -0.3146
 7047SOL    HW327961   2.999   5.117   3.042  0.6136  0.5144 -0.6058
 7047SOL    MW427962   3.060   5.072   3.085  0.6001  0.3016 -0.0828
 7048SOL     OW27963   5.785   3.360   4.357  0.3019  0.3337 -0.8128
 7048SOL    HW227964   5.766   3.342   4.449 -1.5869 -0.1752 -1.2695
 7048SOL    HW327965   5.875   3.392   4.358 -0.3463  2.4174  1.4716
 7048SOL    MW427966   5.795   3.362   4.370  0.1860  0.1963  0.2767
 7049SOL     OW27967   4.667   5.841   3.351 -0.3011  0.5956  0.1915
 7049SOL    HW227968   4.623   5.866   3.270 -1.5486 -2.4625 -0.2044
 7049SOL    HW327969   4.721   5.766   3.326  1.4054  1.2467  1.7107
 7049SOL    MW427970   4.668   5.834   3.337  0.6126 -0.6015 -0.2210
 7050SOL     OW27971   5.818   4.929   3.914  0.6932 -0.3413 -0.6558
 7050SOL    HW227972   5.826   4.895   3.825 -1.6813 -2.3236 -0.2451
 7050SOL    HW327973   5.845   4.856   3.969  0.3889  0.2210  0.2515
 7050SOL    MW427974   5.823   4.915   3.909 -0.1066  0.0701 -0.2769
 7051SOL     OW27975   3.684   4.721   2.405  0.5553  0.5021 -0.3412
 7051SOL    HW227976   3.589   4.709   2.395  0.5647 -0.6832  0.6858
 7051SOL    HW327977   3.722   4.647   2.358  0.9717  0.8747 -0.5934
 7051SOL    MW427978   3.676   4.710   2.398 -0.4616 -0.1589 -0.0160
 7052SOL     OW27979   4.378   1.708   6.244  0.2096 -0.3527 -0.2154
 7052SOL    HW227980   4.301   1.748   6.285  1.6132  2.5092 -0.1660
 7052SOL    HW327981   4.348   1.682   6.157 -1.1270 -0.5075  0.2610
 7052SOL    MW427982   4.364   1.710   6.238  0.1484  0.4597 -0.1754
 7053SOL     OW27983   0.177   2.497   0.389  0.7885 -0.9069  0.5606
 7053SOL    HW227984   0.216   2.410   0.384 -1.7989 -2.0742 -2.1752
 7053SOL    HW327985   0.084   2.482   0.377  0.3159  2.3108 -0.6108
 7053SOL    MW427986   0.170   2.483   0.387 -0.0660 -0.4244 -0.1155
 7054SOL     OW27987   0.511   1.021   0.929  0.4453 -0.4978  0.1159
 7054SOL    HW227988   0.566   0.943   0.936 -1.8131 -2.1019  1.1511
 7054SOL    HW327989   0.499   1.033   0.835  2.2494 -0.3025 -0.1187
 7054SOL    MW427990   0.517   1.012   0.917 -0.2406 -0.5832 -0.4953
 7055SOL     OW27991   5.520   6.198   5.431 -0.2244  0.7079 -0.0162
 7055SOL    HW227992   5.589   6.228   5.491 -1.0981  1.7954  0.4967
 7055SOL    HW327993   5.501   6.275   5.377  0.8252 -0.3732 -2.0192
 7055SOL    MW427994   5.526   6.212   5.432 -0.8518  0.7803  0.4517
 7056SOL     OW27995   5.858   2.289   4.556  0.2421  0.5329  0.2011
 7056SOL    HW227996   5.836   2.367   4.505 -0.3371  1.1957  1.3979
 7056SOL    HW327997   5.809   2.300   4.638 -1.9043 -2.3086 -0.5286
 7056SOL    MW427998   5.849   2.301   4.560  0.5255 -0.5780  0.1166
 7057SOL     OW27999   5.546   1.339   4.843 -0.0962  0.4485  0.2309
 7057SOL    HW228000   5.618   1.392   4.877 -0.4760 -0.1660  2.1505
 7057SOL    HW328001   5.497   1.399   4.786  0.7554  1.4908  0.5591
 7057SOL    MW428002   5.549   1.354   4.840 -0.9128 -0.2078  0.1742
 7058SOL     OW28003   3.509   5.635   2.866 -0.0079 -0.1066 -0.3695
 7058SOL    HW228004   3.467   5.552   2.886 -0.9103 -0.3223 -2.8995
 7058SOL    HW328005   3.566   5.652   2.942 -0.0770 -2.8009  0.3729
 7058SOL    MW428006   3.511   5.627   2.879  0.3041 -0.6413  0.4565
 7059SOL     OW28007   3.423   2.947   3.139 -0.1302 -0.0473 -0.0019
 7059SOL    HW228008   3.395   3.035   3.114  1.6502  1.7807  3.6844
 7059SOL    HW328009   3.346   2.908   3.179 -0.9646 -0.2967 -1.7621
 7059SOL    MW428010   3.409   2.954   3.141  0.2704 -0.7916  0.1174
 7060SOL     OW28011   4.429   6.279   3.923  0.5906  0.1234  0.4366
 7060SOL    HW228012   4.481   6.200   3.933 -0.2164 -0.5683 -0.6063
 7060SOL    HW328013   4.460   6.319   3.842  1.6812  1.4401  1.4596
 7060SOL    MW428014   4.440   6.274   3.914 -0.1814 -0.3834 -0.5821
 7061SOL     OW28015   5.001   5.507   1.582  0.0921  0.9908  0.2401
 7061SOL    HW228016   4.915   5.528   1.619 -0.5380 -1.8136  0.6014
 7061SOL    HW328017   5.062   5.559   1.633 -1.2174  1.2464  1.6416
 7061SOL    MW428018   4.998   5.516   1.594  0.6712 -0.0343  0.1299
 7062SOL     OW28019   0.434   5.217   1.734 -0.2114 -0.1556  0.0095
 7062SOL    HW228020   0.513   5.268   1.721 -0.8043  0.6247 -0.6146
 7062SOL    HW328021   0.413   5.183   1.647 -0.1927 -0.9289  0.2967
 7062SOL    MW428022   0.442   5.219   1.720 -0.5418  0.1490 -0.0986
 7063SOL     OW28023   1.766   1.234   2.048  0.6679  0.1220  0.5561
 7063SOL    HW228024   1.836   1.169   2.053  0.5450 -0.0115  0.5426
 7063SOL    HW328025   1.796   1.306   2.105  0.5066 -0.2314  1.0981
 7063SOL    MW428026   1.779   1.235   2.056  0.5355 -0.9124  0.2380
 7064SOL     OW28027   6.159   4.548   1.758  0.0613 -0.7140  0.1184
 7064SOL    HW228028   6.063   4.548   1.761  0.0615 -1.6909  0.4710
 7064SOL    HW328029   6.185   4.488   1.829  0.9754  0.6805  1.0100
 7064SOL    MW428030   6.149   4.540   1.768  0.3873 -0.2456  0.1561
 7065SOL     OW28031   0.159   1.445   0.708 -0.0867  0.7184 -0.4434
 7065SOL    HW228032   0.245   1.418   0.740  1.6608  1.4585 -3.9941
 7065SOL    HW328033   0.131   1.514   0.768 -0.4099 -2.3630  3.3524
 7065SOL    MW428034   0.166   1.451   0.720  0.1111 -0.1540  0.1879
 7066SOL     OW28035   1.144   1.502   1.250  0.5389 -0.1166  0.5891
 7066SOL    HW228036   1.220   1.561   1.250 -0.9627  2.0716 -2.6965
 7066SOL    HW328037   1.182   1.415   1.243  2.7920  0.9092 -1.3036
 7066SOL    MW428038   1.159   1.499   1.249  0.3919  0.1889 -0.2969
 7067SOL     OW28039   4.213   0.350   3.749 -0.7822  0.5576 -0.0578
 7067SOL    HW228040   4.302   0.366   3.719 -0.4633 -0.2139  0.4317
 7067SOL    HW328041   4.180   0.283   3.689 -0.9194  0.6134 -0.0433
 7067SOL    MW428042   4.221   0.343   3.737 -0.0334 -0.4393  0.6981
 7068SOL     OW28043   1.130   5.819   6.319 -0.0233  0.3627  0.1831
 7068SOL    HW228044   1.169   5.786   6.400  0.1099 -1.5584 -0.6225
 7068SOL    HW328045   1.204   5.829   6.259 -0.3148  0.1957 -0.2095
 7068SOL    MW428046   1.144   5.816   6.322  0.1683 -0.1392  0.1411
 7069SOL     OW28047   5.649   4.631   6.063 -0.2525  0.3090  0.7366
 7069SOL    HW228048   5.593   4.700   6.099 -1.4520 -0.3533  0.2289
 7069SOL    HW328049   5.674   4.663   5.977  0.0154  0.5354  0.8972
 7069SOL    MW428050   5.645   4.644   6.056 -0.1971 -0.3989  0.2106
 7070SOL     OW28051   1.875   2.262   4.844  0.2889 -0.2762 -0.9412
 7070SOL    HW228052   1.835   2.346   4.863  0.8202 -0.1850 -0.1688
 7070SOL    HW328053   1.969   2.279   4.846  0.4186 -1.0051 -0.1544
 7070SOL    MW428054   1.882   2.275   4.846 -0.2250  0.1108  0.2609
 7071SOL     OW28055   1.279   0.698   2.132 -0.1643 -0.3772 -0.1114
 7071SOL    HW228056   1.345   0.767   2.126  0.4211 -0.9393 -0.2625
 7071SOL    HW328057   1.262   0.689   2.226  0.3284 -0.5590 -0.0382
 7071SOL    MW428058   1.285   0.706   2.144 -0.6609 -0.1775 -0.7439
 7072SOL     OW28059   6.308   1.765   2.189 -0.1152  0.0193  0.4749
 7072SOL    HW228060   6.308   1.686   2.243  0.7636  0.3056  0.9216
 7072SOL    HW328061   6.400   1.793   2.188 -0.0747 -0.0558 -1.2977
 7072SOL    MW428062   6.320   1.758   2.196 -0.3176  0.0445  0.0421
 7073SOL     OW28063   2.112   0.376   6.074 -0.5779 -0.5475 -0.4568
 7073SOL    HW228064   2.124   0.283   6.090  1.2276 -0.2840 -0.0628
 7073SOL    HW328065   2.124   0.387   5.980  2.8268 -0.3014 -0.0959
 7073SOL    MW428066   2.115   0.365   6.064 -0.0092 -0.5514  0.2632
 7074SOL     OW28067   3.934   4.963   0.135 -0.0579 -0.5643  0.5536
 7074SOL    HW228068   3.897   4.885   0.175 -2.6161  0.4866  0.3914
 7074SOL    HW328069   3.979   5.008   0.207  2.3756 -2.5837  0.4410
 7074SOL    MW428070   3.935   4.959   0.150 -0.4320  0.5029 -0.3177
 7075SOL     OW28071   4.972   3.664   0.561 -0.1002 -0.2770  0.3986
 7075SOL    HW228072   4.889   3.633   0.526  0.1628  0.2002 -0.6718
 7075SOL    HW328073   5.020   3.584   0.582 -0.3970 -0.5663 -0.0053
 7075SOL    MW428074   4.967   3.649   0.559  0.3870 -0.3688 -0.2962
 7076SOL     OW28075   4.335   1.231   3.015  0.2972 -0.6903  0.4123
 7076SOL    HW228076   4.347   1.177   2.936  0.9040 -0.9642  0.6808
 7076SOL    HW328077   4.245   1.263   3.009  0.2258 -0.9894 -0.2188
 7076SOL    MW428078   4.325   1.228   3.004  0.4561  0.0228  0.3000
 7077SOL     OW28079   1.665   5.680   2.978  0.1944 -0.1504  0.1544
 7077SOL    HW228080   1.643   5.755   2.923  0.1441  0.4373  0.9619
 7077SOL    HW328081   1.583   5.631   2.987 -0.1638  0.5907  0.9731
 7077SOL    MW428082   1.652   5.683   2.972 -0.5356  0.0360 -0.3596
 7078SOL     OW28083   2.825   6.167   0.881 -0.6557 -0.0401  0.1130
 7078SOL    HW228084   2.752   6.141   0.937 -1.1596  2.1032  0.5073
 7078SOL    HW328085   2.898   6.114   0.913 -1.5634 -0.8264  0.9907
 7078SOL    MW428086   2.825   6.156   0.893 -0.0645  0.4541 -0.3127
 7079SOL     OW28087   4.605   1.277   1.403  0.4084  0.1990 -0.1338
 7079SOL    HW228088   4.699   1.279   1.422  0.7832 -0.2718 -1.7941
 7079SOL    HW328089   4.600   1.285   1.307 -1.2693  0.7133 -0.0306
 7079SOL    MW428090   4.617   1.279   1.393 -0.6164  0.0132 -0.2734
 7080SOL     OW28091   0.530   1.218   4.851  0.1748  0.1376  0.2729
 7080SOL    HW228092   0.570   1.256   4.929  1.8681  0.4231 -0.6931
 7080SOL    HW328093   0.594   1.231   4.781 -1.0517 -0.6083 -1.0642
 7080SOL    MW428094   0.544   1.224   4.852 -0.4288  0.7900  0.5568
 7081SOL     OW28095   1.145   3.840   2.333  0.0720  0.7820  0.2781
 7081SOL    HW228096   1.075   3.889   2.377 -0.6923  0.5771 -0.6847
 7081SOL    HW328097   1.152   3.881   2.247 -1.2492 -1.3740 -0.9199
 7081SOL    MW428098   1.136   3.852   2.328  0.0779  0.2499  0.4237
 7082SOL     OW28099   2.778   4.397   4.645 -0.1606  0.0481  0.1812
 7082SOL    HW228100   2.706   4.336   4.653  0.6145 -0.7905  0.9969
 7082SOL    HW328101   2.856   4.342   4.643  0.3971  0.7836 -2.6462
 7082SOL    MW428102   2.779   4.382   4.646 -0.2935 -0.1530  0.5258
 7083SOL     OW28103   6.201   2.975   0.349 -0.3026 -0.2067  0.5278
 7083SOL    HW228104   6.293   2.951   0.359  0.2318  1.0119 -0.9831
 7083SOL    HW328105   6.183   3.033   0.423  0.9597  1.6632 -0.5491
 7083SOL    MW428106   6.211   2.980   0.360  0.5267 -0.4346  0.3410
 7084SOL     OW28107   0.356   3.120   4.768  0.1439  0.1017 -0.3616
 7084SOL    HW228108   0.277   3.095   4.816 -0.0889  1.3120 -0.0676
 7084SOL    HW328109   0.322   3.163   4.689  0.4972  0.6808 -0.2058
 7084SOL    MW428110   0.341   3.122   4.764  0.0046  0.2335 -0.7593
 7085SOL     OW28111   0.834   3.271   2.028 -0.0821  0.1965  0.1205
 7085SOL    HW228112   0.913   3.231   2.064  0.7147  1.3780 -0.2840
 7085SOL    HW328113   0.838   3.251   1.934 -0.0238  0.6543  0.0259
 7085SOL    MW428114   0.845   3.263   2.020 -0.0122  0.0178  0.2792
 7086SOL     OW28115   3.940   4.201   5.801  0.2904  0.2112  0.1581
 7086SOL    HW228116   3.961   4.163   5.887  1.6095 -0.8106 -0.5697
 7086SOL    HW328117   3.947   4.296   5.815  1.9542  0.0293  0.8737
 7086SOL    MW428118   3.944   4.209   5.814  0.0533 -0.1611 -0.2173
 7087SOL     OW28119   6.239   4.602   0.151 -0.1100 -0.5304 -0.1957
 7087SOL    HW228120   6.262   4.565   0.067 -1.3544  0.7896 -1.1746
 7087SOL    HW328121   6.270   4.693   0.147 -2.9580  0.5354 -0.5831
 7087SOL    MW428122   6.246   4.609   0.140 -0.5176 -0.2652 -0.0965
 7088SOL     OW28123   2.504   1.279   0.604 -0.4854 -0.0137  0.1003
 7088SOL    HW228124   2.566   1.301   0.674 -2.6303 -0.2723  2.1866
 7088SOL    HW328125   2.477   1.364   0.569 -0.3572  0.1888  0.4800
 7088SOL    MW428126   2.509   1.293   0.609 -0.1264  0.0042 -0.0658
 7089SOL     OW28127   0.926   1.685   2.997 -0.0652 -0.0848  0.4495
 7089SOL    HW228128   0.859   1.743   2.961 -0.6204 -1.8957 -1.6356
 7089SOL    HW328129   1.003   1.741   3.007 -0.3758  0.9463 -2.1149
 7089SOL    MW428130   0.927   1.700   2.993 -0.3226  0.0622  0.1217
 7090SOL     OW28131   0.810   1.907   0.068  0.1702  0.1358  0.0370
 7090SOL    HW228132   0.745   1.927   0.000  0.1395 -2.0228 -0.6572
 7090SOL    HW328133   0.813   1.812   0.070 -0.6134  0.0286  3.8496
 7090SOL    MW428134   0.802   1.897   0.059  0.5420  0.3647  0.1983
 7091SOL     OW28135   0.028   5.551   2.085  0.3612  0.1930 -0.2448
 7091SOL    HW228136   0.101   5.510   2.131  0.3183  0.5510  0.1518
 7091SOL    HW328137  -0.035   5.480   2.072 -0.0228  0.2546  1.0594
 7091SOL    MW428138   0.029   5.536   2.090 -0.2766  0.4056  0.6262
 7092SOL     OW28139   3.295   4.271   4.685  0.4748 -0.2170  0.4384
 7092SOL    HW228140   3.366   4.335   4.689 -0.4792  0.9430 -0.2840
 7092SOL    HW328141   3.229   4.305   4.746  0.2870 -0.9466  0.6473
 7092SOL    MW428142   3.295   4.284   4.693  0.6776 -0.1667  0.5026
 7093SOL     OW28143   6.410   4.374   1.414 -0.2768 -0.1444 -0.2393
 7093SOL    HW228144   6.490   4.398   1.367 -0.0101  0.8752  0.6805
 7093SOL    HW328145   6.354   4.452   1.407  0.3260  0.6200  2.2430
 7093SOL    MW428146   6.413   4.388   1.407 -0.7242  0.3768  0.0011
 7094SOL     OW28147   3.354   6.233   3.232  0.3984 -0.5669  0.3693
 7094SOL    HW228148   3.272   6.199   3.198  0.6228 -3.7735  2.5329
 7094SOL    HW328149   3.421   6.200   3.173  0.3780 -1.2426  0.7159
 7094SOL    MW428150   3.352   6.225   3.220 -0.4970 -0.0613  0.4455
 7095SOL     OW28151   4.549   3.791   1.732 -0.2273 -0.2294  0.0848
 7095SOL    HW228152   4.473   3.759   1.781 -1.1232 -0.8590 -1.6406
 7095SOL    HW328153   4.606   3.714   1.725 -0.0312 -0.0999  0.2345
 7095SOL    MW428154   4.547   3.777   1.738 -0.1163  0.2216 -0.0092
 7096SOL     OW28155   4.532   3.872   5.065 -0.3704  0.3319  0.3749
 7096SOL    HW228156   4.620   3.853   5.097 -0.0918  1.4680  0.3492
 7096SOL    HW328157   4.493   3.786   5.049  0.5583 -0.1978  0.8443
 7096SOL    MW428158   4.539   3.858   5.067  1.3419 -0.0180 -0.0553
 7097SOL     OW28159   2.140   5.918   6.236 -0.8464 -0.1422 -0.4047
 7097SOL    HW228160   2.199   5.843   6.230 -0.3286  0.1272  0.9046
 7097SOL    HW328161   2.103   5.912   6.324  0.3053  1.9066  0.3007
 7097SOL    MW428162   2.143   5.908   6.247  0.6661  0.5700 -0.4657
 7098SOL     OW28163   3.432   1.983   4.377 -0.0843 -0.3664  0.0500
 7098SOL    HW228164   3.385   1.954   4.456 -0.8372  1.4135  0.3073
 7098SOL    HW328165   3.513   2.021   4.411 -0.2836  0.1510 -0.0445
 7098SOL    MW428166   3.437   1.985   4.392  0.1102  0.2001 -0.1158
 7099SOL     OW28167   3.378   4.911   4.767 -0.4154 -0.4385 -0.2493
 7099SOL    HW228168   3.438   4.880   4.698 -1.0112 -0.6585 -0.6786
 7099SOL    HW328169   3.435   4.929   4.841  0.3906  0.8731 -1.1515
 7099SOL    MW428170   3.393   4.909   4.768  0.0278 -0.2986  0.1536
 7100SOL     OW28171   2.073   1.823   4.645  0.0179  0.0187 -0.4050
 7100SOL    HW228172   2.152   1.832   4.591  0.2708  0.8824  0.1026
 7100SOL    HW328173   2.040   1.912   4.655 -0.0672 -0.1426  0.8074
 7100SOL    MW428174   2.079   1.836   4.639 -0.0486 -0.0492 -0.4539
 7101SOL     OW28175   1.698   2.482   0.075 -0.1893 -1.1834  0.2576
 7101SOL    HW228176   1.714   2.481  -0.020  0.1617  0.5059  0.2588
 7101SOL    HW328177   1.620   2.429   0.087 -0.2488 -1.4103 -0.9830
 7101SOL    MW428178   1.690   2.475   0.064  0.6912 -0.1485  0.2005
 7102SOL     OW28179   0.138   5.985   4.981 -0.6069 -0.2683 -0.2492
 7102SOL    HW228180   0.216   5.937   4.952  0.4721  0.5056  1.2273
 7102SOL    HW328181   0.104   6.026   4.902  0.7305 -0.3201 -0.8786
 7102SOL    MW428182   0.144   5.984   4.967  0.2022 -0.2063 -0.3700
 7103SOL     OW28183   4.209   0.266   5.160  0.7085 -0.0531  0.0240
 7103SOL    HW228184   4.126   0.302   5.191  1.8076  1.2799  1.6397
 7103SOL    HW328185   4.228   0.314   5.079 -0.4148 -0.9066 -0.7760
 7103SOL    MW428186   4.201   0.277   5.154  0.1955 -0.0913  0.0753
 7104SOL     OW28187   3.565   1.745   3.258 -0.4118 -0.9198 -0.9116
 7104SOL    HW228188   3.546   1.652   3.264 -2.7943 -0.4457  0.2417
 7104SOL    HW328189   3.547   1.779   3.346  3.0091  0.2875 -0.4984
 7104SOL    MW428190   3.560   1.737   3.271  0.4385 -0.1701  0.1817
 7105SOL     OW28191   4.430   5.469   0.985 -0.2309  0.4235 -0.1629
 7105SOL    HW228192   4.442   5.545   0.927 -0.5030  0.9149  0.4124
 7105SOL    HW328193   4.336   5.468   1.003 -0.5447 -1.1601 -1.6383
 7105SOL    MW428194   4.419   5.479   0.979 -0.0505 -0.1122  0.0362
 7106SOL     OW28195   5.888   4.700   0.343  0.2477 -0.5021 -0.3157
 7106SOL    HW228196   5.802   4.694   0.385 -0.3129  0.9760 -1.1519
 7106SOL    HW328197   5.920   4.787   0.366  2.9279 -2.0182  2.4107
 7106SOL    MW428198   5.881   4.711   0.351  0.2152 -0.0330  0.1602
 7107SOL     OW28199   4.129   4.747   0.051  0.0913  0.1180  0.0736
 7107SOL    HW228200   4.060   4.680   0.045  1.0311 -0.8365 -0.4739
 7107SOL    HW328201   4.083   4.826   0.081 -0.8522 -1.0810  2.0167
 7107SOL    MW428202   4.113   4.748   0.054 -0.0673 -0.5909 -0.8442
 7108SOL     OW28203   3.732   2.416   2.598  0.4794 -0.1991 -0.1418
 7108SOL    HW228204   3.812   2.396   2.549 -0.7796 -1.9729 -1.6037
 7108SOL    HW328205   3.748   2.381   2.686  1.9423  1.1126  0.1797
 7108SOL    MW428206   3.745   2.409   2.603  0.4571  0.1013  0.2063
 7109SOL     OW28207   5.084   1.679   1.228 -0.3031 -0.4402  0.1804
 7109SOL    HW228208   5.077   1.681   1.324 -1.8418 -0.4453  0.1012
 7109SOL    HW328209   5.160   1.625   1.211 -0.0047 -0.4503  1.4106
 7109SOL    MW428210   5.093   1.672   1.239  0.1170 -0.3066 -1.2210
 7110SOL     OW28211   4.382   4.783   6.179 -0.0240 -0.5621  0.2003
 7110SOL    HW228212   4.305   4.839   6.182 -0.2320 -0.8589  0.5321
 7110SOL    HW328213   4.407   4.782   6.087 -1.4168 -1.8129 -0.2018
 7110SOL    MW428214   4.375   4.790   6.167  0.3335 -0.2138 -0.3107
 7111SOL     OW28215   3.867   0.068   1.194  0.1347 -0.1877  0.2824
 7111SOL    HW228216   3.828   0.155   1.201  0.5826  0.2429 -1.7741
 7111SOL    HW328217   3.893   0.061   1.102  0.4968 -2.3397  0.4914
 7111SOL    MW428218   3.865   0.079   1.183  0.3411 -0.0726  0.1723
 7112SOL     OW28219   3.601   2.603   1.775 -0.9910  0.1347 -0.1010
 7112SOL    HW228220   3.676   2.613   1.834 -1.0716  0.0658  0.0133
 7112SOL    HW328221   3.630   2.643   1.693 -0.2868 -1.2369 -0.5381
 7112SOL    MW428222   3.615   2.610   1.772  0.4121  0.1517 -0.0335
 7113SOL     OW28223   4.809   0.236   4.242 -0.3406  0.2147 -0.6338
 7113SOL    HW228224   4.888   0.254   4.191  0.4488 -2.6841 -0.5641
 7113SOL    HW328225   4.758   0.176   4.187 -1.0859 -0.2935  0.5789
 7113SOL    MW428226   4.813   0.231   4.228  0.1191 -0.1083  0.2511
 7114SOL     OW28227   2.575   4.222   4.676  0.0903  0.1877 -0.1963
 7114SOL    HW228228   2.486   4.190   4.665 -0.2624  1.4060 -1.0235
 7114SOL    HW328229   2.601   4.192   4.763 -0.9509 -0.5753 -0.1395
 7114SOL    MW428230   2.567   4.214   4.686  0.4345 -0.6757  0.3958
 7115SOL     OW28231   0.022   5.692   0.530  0.3465  0.1119 -0.7565
 7115SOL    HW228232   0.051   5.610   0.570  0.7316  0.6446  0.0854
 7115SOL    HW328233  -0.062   5.671   0.490 -0.3969 -0.2936  0.9288
 7115SOL    MW428234   0.015   5.678   0.530 -0.2209 -0.0841  0.2390
 7116SOL     OW28235   3.894   5.912   3.902  0.9254  0.0730  0.2932
 7116SOL    HW228236   3.846   5.924   3.820  1.6945 -1.8039 -0.4758
 7116SOL    HW328237   3.831   5.937   3.970 -0.1638  0.3963 -0.7982
 7116SOL    MW428238   3.879   5.917   3.900  0.1040  0.2719  0.1772
 7117SOL     OW28239   4.878   1.179   6.247  0.3467  0.3393  0.1005
 7117SOL    HW228240   4.918   1.261   6.215 -1.5661  1.1268 -0.4087
 7117SOL    HW328241   4.906   1.173   6.338  0.2175  1.7921  0.2662
 7117SOL    MW428242   4.887   1.189   6.254  0.3535 -0.0598  0.2305
 7118SOL     OW28243   3.146   1.347   6.054 -0.6335 -0.3850 -0.5063
 7118SOL    HW228244   3.116   1.437   6.071  0.7729 -0.2230  1.3825
 7118SOL    HW328245   3.098   1.294   6.118  1.9921 -0.2772  1.7268
 7118SOL    MW428246   3.136   1.352   6.065 -0.1815 -0.0565 -0.8258
 7119SOL     OW28247   0.966   4.000   2.468 -0.3030  0.5238 -0.5309
 7119SOL    HW228248   1.005   4.027   2.551 -0.4096  0.0814 -0.3373
 7119SOL    HW328249   0.872   4.012   2.481 -0.4490 -1.0047 -0.0469
 7119SOL    MW428250   0.959   4.005   2.480 -0.0305 -0.4485 -0.7552
 7120SOL     OW28251   4.966   2.449   5.506  0.2422  0.6153  0.6487
 7120SOL    HW228252   4.991   2.356   5.498  0.2183  0.7431 -1.5198
 7120SOL    HW328253   5.025   2.483   5.573 -1.4577 -1.4913  3.4252
 7120SOL    MW428254   4.977   2.441   5.514  0.4210  0.4457  0.5845
 7121SOL     OW28255   0.446   0.274   5.997 -0.1279 -0.2688  0.7074
 7121SOL    HW228256   0.384   0.286   6.069  0.4636  0.6805  1.0777
 7121SOL    HW328257   0.517   0.222   6.035  0.5225  0.8274  1.0310
 7121SOL    MW428258   0.447   0.269   6.011 -0.6400 -0.2318  0.2484
 7122SOL     OW28259   1.402   1.254   2.362  0.2100  0.1600 -0.1798
 7122SOL    HW228260   1.311   1.223   2.361  0.4327 -0.5014  0.0901
 7122SOL    HW328261   1.430   1.243   2.452  0.5181  0.5102 -0.2310
 7122SOL    MW428262   1.394   1.248   2.374  0.0957  0.6093  0.8857
 7123SOL     OW28263   4.561   0.020   1.981 -1.0150 -0.1876  0.0011
 7123SOL    HW228264   4.642   0.064   1.955 -0.7029 -1.6204 -1.6642
 7123SOL    HW328265   4.590  -0.059   2.025 -1.5160 -0.5237 -0.2691
 7123SOL    MW428266   4.576   0.016   1.983  0.5340 -0.1124 -0.4104
 7124SOL     OW28267   5.564   4.953   0.041  0.1286  0.1960 -0.3662
 7124SOL    HW228268   5.646   4.908   0.062 -0.1404 -0.2379 -0.2480
 7124SOL    HW328269   5.551   4.935  -0.053  0.0864  0.1329 -0.3483
 7124SOL    MW428270   5.573   4.945   0.031 -0.7130  0.2695  0.5715
 7125SOL     OW28271   5.684   2.926   1.552 -0.0606 -0.0806  0.2247
 7125SOL    HW228272   5.728   2.842   1.561  0.1720 -0.1976 -1.6664
 7125SOL    HW328273   5.647   2.925   1.463  1.4757  2.4926 -0.5567
 7125SOL    MW428274   5.685   2.915   1.541  0.2543 -0.2229  0.1244
 7126SOL     OW28275   4.462   2.845   1.674 -0.1902  0.0548 -0.0169
 7126SOL    HW228276   4.524   2.895   1.620  0.2358 -0.6971 -0.2364
 7126SOL    HW328277   4.409   2.912   1.717 -0.4258  0.6656 -1.2302
 7126SOL    MW428278   4.463   2.861   1.673 -0.1871 -0.4983  0.6812
 7127SOL     OW28279   1.289   5.785   1.260 -0.3004  0.0541 -0.0388
 7127SOL    HW228280   1.257   5.840   1.331 -0.8649  2.4704 -2.0452
 7127SOL    HW328281   1.216   5.726   1.241 -0.3284 -0.2704  1.0028
 7127SOL    MW428282   1.275   5.784   1.267 -0.5525 -0.0286 -0.1776
 7128SOL     OW28283   5.655   5.962   3.538 -0.0150 -0.0694  0.0439
 7128SOL    HW228284   5.696   6.045   3.512 -0.1683 -0.2340 -0.7309
 7128SOL    HW328285   5.561   5.978   3.530 -0.0294 -0.5527 -0.8706
 7128SOL    MW428286   5.648   5.975   3.534 -0.1912  0.0986  0.1427
 7129SOL     OW28287   4.661   5.706   1.083  0.5527  0.2679 -0.0800
 7129SOL    HW228288   4.632   5.783   1.034  1.4464  0.6459 -0.0340
 7129SOL    HW328289   4.608   5.634   1.049 -0.1109  0.8543 -0.3045
 7129SOL    MW428290   4.650   5.707   1.072 -0.3275 -0.4548  0.0386
 7130SOL     OW28291   6.345   3.784   2.575 -0.6453 -0.1053  0.4876
 7130SOL    HW228292   6.417   3.765   2.635 -0.8244  3.2393  1.9274
 7130SOL    HW328293   6.273   3.811   2.631 -2.5084 -1.5645 -1.0486
 7130SOL    MW428294   6.345   3.785   2.590 -0.7365  0.0057  0.2029
 7131SOL     OW28295   5.753   1.467   0.426 -0.6532  0.2765  0.1612
 7131SOL    HW228296   5.696   1.512   0.489 -1.4423  0.4002 -0.6264
 7131SOL    HW328297   5.801   1.538   0.383 -1.3674  0.3163 -0.5737
 7131SOL    MW428298   5.752   1.482   0.429  0.0678  0.6937  0.1616
 7132SOL     OW28299   1.849   0.396   3.120  0.4347  0.3320 -0.4866
 7132SOL    HW228300   1.800   0.393   3.201 -2.0094  1.8199 -1.8010
 7132SOL    HW328301   1.860   0.489   3.101  2.3339  0.0256 -1.1226
 7132SOL    MW428302   1.844   0.408   3.128 -0.5875  0.4069 -0.0083
 7133SOL     OW28303   4.351   2.208   1.693  0.2248  0.0719  0.3289
 7133SOL    HW228304   4.316   2.119   1.690  0.7849 -0.1580  0.3754
 7133SOL    HW328305   4.275   2.265   1.683 -0.0935 -0.4176 -0.0645
 7133SOL    MW428306   4.337   2.204   1.692 -0.2745 -0.8055 -0.0498
 7134SOL     OW28307   4.645   2.662   2.554 -0.6312 -0.2352  0.2134
 7134SOL    HW228308   4.638   2.567   2.545 -0.5489 -0.2250  0.0242
 7134SOL    HW328309   4.725   2.675   2.606 -0.3084 -0.2539 -0.2666
 7134SOL    MW428310   4.655   2.651   2.559 -0.0158  0.1906 -0.0671
 7135SOL     OW28311   3.582   5.808   1.680  0.3293  1.4787  0.5655
 7135SOL    HW228312   3.608   5.890   1.722  0.4779  0.9361  1.5781
 7135SOL    HW328313   3.649   5.792   1.614  0.1634  2.2897  0.1870
 7135SOL    MW428314   3.594   5.817   1.677  0.3837 -0.5845 -0.0217
 7136SOL     OW28315   2.376   1.779   0.516  0.1436  0.7212  0.5000
 7136SOL    HW228316   2.338   1.841   0.580 -1.6331  0.2045  0.0111
 7136SOL    HW328317   2.300   1.732   0.481  1.4509 -1.9795  1.0733
 7136SOL    MW428318   2.361   1.781   0.520 -0.8591 -0.6100 -0.1466
 7137SOL     OW28319   5.332   6.219   5.169 -0.4854  0.0235  0.3490
 7137SOL    HW228320   5.427   6.217   5.158 -0.6120  2.8290 -2.9285
 7137SOL    HW328321   5.313   6.309   5.196 -2.2196 -0.8061  2.1452
 7137SOL    MW428322   5.342   6.231   5.171 -0.3224 -0.2053 -0.6300
 7138SOL     OW28323   2.767   5.505   5.967 -0.5163  0.7174 -0.0466
 7138SOL    HW228324   2.676   5.492   5.939 -0.4715  0.7920 -0.2288
 7138SOL    HW328325   2.793   5.421   6.003 -1.0325  1.0181  1.0634
 7138SOL    MW428326   2.758   5.493   5.968  0.3401  0.1912  0.0903
 7139SOL     OW28327   1.994   6.387   4.015  0.5392  0.1222 -0.2298
 7139SOL    HW228328   2.078   6.363   4.053  0.2067  1.1678  1.2610
 7139SOL    HW328329   1.958   6.453   4.075 -0.3459  1.3528 -2.0062
 7139SOL    MW428330   2.000   6.393   4.027 -0.4276  0.4379 -0.3731
 7140SOL     OW28331   3.176   3.999   5.637 -0.2700  0.0238 -0.5167
 7140SOL    HW228332   3.093   3.989   5.682  0.5213  2.0937  1.6218
 7140SOL    HW328333   3.224   3.919   5.656 -0.9516 -0.2404  0.1356
 7140SOL    MW428334   3.172   3.987   5.645 -0.2749  0.1493  0.8091
 7141SOL     OW28335   5.749   1.682   1.408  0.1815  0.2456 -0.3413
 7141SOL    HW228336   5.796   1.761   1.434 -0.2703  0.4343 -0.0711
 7141SOL    HW328337   5.731   1.694   1.315 -0.6606  0.8862 -0.1137
 7141SOL    MW428338   5.753   1.694   1.399 -0.1557  0.0567 -0.4117
 7142SOL     OW28339   2.388   3.844   6.344 -0.1716  0.2461  0.1745
 7142SOL    HW228340   2.465   3.799   6.310 -0.3249 -0.4667  0.7299
 7142SOL    HW328341   2.351   3.783   6.408 -1.6399  0.2264 -0.6340
 7142SOL    MW428342   2.393   3.830   6.348 -0.0260  0.2015  0.2013
 7143SOL     OW28343   4.628   2.178   1.868  0.4410 -0.0105 -0.3267
 7143SOL    HW228344   4.561   2.165   1.800 -0.9128  1.9766  0.5460
 7143SOL    HW328345   4.635   2.273   1.877 -0.0818 -0.1797  2.9044
 7143SOL    MW428346   4.620   2.188   1.860  0.3061  0.4561  0.0970
 7144SOL     OW28347   3.296   3.266   4.159  0.2128  0.1174 -0.5188
 7144SOL    HW228348   3.200   3.266   4.157  0.0226  1.6162  2.7896
 7144SOL    HW328349   3.319   3.349   4.200  2.8969 -0.6296 -0.3303
 7144SOL    MW428350   3.286   3.277   4.164  0.3592  0.0791  0.2260
 7145SOL     OW28351   4.261   2.803   3.885 -0.2980 -0.3084  0.0741
 7145SOL    HW228352   4.207   2.774   3.958  0.8075 -1.1915  0.5615
 7145SOL    HW328353   4.219   2.883   3.854 -1.7224 -0.8344  0.6027
 7145SOL    MW428354   4.249   2.810   3.890 -0.1102  0.1811 -0.3537
 7146SOL     OW28355   1.595   2.941   2.837 -0.0021  0.0354 -0.2063
 7146SOL    HW228356   1.599   2.992   2.757  0.9214  1.8564  0.9367
 7146SOL    HW328357   1.640   2.859   2.816  0.3029  0.5201 -1.4972
 7146SOL    MW428358   1.601   2.937   2.824 -0.1457 -0.5433  0.1565
 7147SOL     OW28359   4.655   0.921   4.492 -0.0576 -0.3973 -0.7247
 7147SOL    HW228360   4.620   0.834   4.473  1.1512 -1.1632  0.3513
 7147SOL    HW328361   4.722   0.935   4.425  0.7760 -0.9628 -0.0348
 7147SOL    MW428362   4.659   0.911   4.481  0.0420 -0.1779  0.0463
 7148SOL     OW28363   0.609   1.422   2.146 -0.3976  0.2353  0.3247
 7148SOL    HW228364   0.565   1.491   2.195 -0.9635  0.6370 -0.7232
 7148SOL    HW328365   0.680   1.467   2.100  0.1656 -0.1472  0.8095
 7148SOL    MW428366   0.613   1.437   2.147 -0.1437  0.3078 -1.1307
 7149SOL     OW28367   1.443   1.948   3.762 -0.4238 -0.6095  0.3253
 7149SOL    HW228368   1.384   1.928   3.689  0.3170 -1.1319 -0.1416
 7149SOL    HW328369   1.482   1.864   3.785  1.1102 -0.0842 -0.2325
 7149SOL    MW428370   1.440   1.935   3.756 -0.3002 -0.1417  0.2229
 7150SOL     OW28371   6.136   2.498   2.523  0.2572  0.1117 -0.0876
 7150SOL    HW228372   6.190   2.527   2.597  0.5095  2.3416 -1.0657
 7150SOL    HW328373   6.186   2.523   2.445 -0.8095 -0.5648 -1.0218
 7150SOL    MW428374   6.150   2.505   2.522 -0.3381  0.6968 -0.0031
 7151SOL     OW28375   0.103   3.903   4.564 -0.4948  0.1291  0.6699
 7151SOL    HW228376   0.088   3.823   4.614  0.1806 -0.2819  0.2340
 7151SOL    HW328377   0.164   3.953   4.618 -0.0753 -0.1377  0.4490
 7151SOL    MW428378   0.109   3.899   4.578 -0.0899 -0.2711  0.0049
 7152SOL     OW28379   3.665   4.785   0.716 -0.0309  0.2219 -0.5321
 7152SOL    HW228380   3.729   4.723   0.750 -0.2714  0.3506  0.1737
 7152SOL    HW328381   3.629   4.742   0.638 -0.0197 -0.4163 -0.1912
 7152SOL    MW428382   3.669   4.771   0.710  0.4688 -0.0094 -0.0911
 7153SOL     OW28383   4.792   2.934   5.686 -0.7605  0.1289 -0.2761
 7153SOL    HW228384   4.821   3.025   5.687 -0.7985  0.1533 -1.0495
 7153SOL    HW328385   4.841   2.894   5.614 -0.9648 -0.3880 -0.1317
 7153SOL    MW428386   4.803   2.941   5.677  0.3043 -0.2235 -0.7885
 7154SOL     OW28387   1.432   4.789   6.193 -0.5332  0.1577 -0.2158
 7154SOL    HW228388   1.478   4.872   6.183 -0.4006 -0.0258 -1.3545
 7154SOL    HW328389   1.341   4.810   6.169 -1.0381  0.4634  1.7707
 7154SOL    MW428390   1.426   4.803   6.188 -0.5603  0.5501 -0.5295
 7155SOL     OW28391   4.884   0.701   3.366  0.1294 -0.1035 -0.4946
 7155SOL    HW228392   4.876   0.655   3.283  2.0012 -2.7517  0.6520
 7155SOL    HW328393   4.978   0.703   3.384 -0.2349  0.0972  1.7194
 7155SOL    MW428394   4.895   0.696   3.358  0.5160 -0.2747 -0.4178
 7156SOL     OW28395   0.580   0.934   4.908  0.3284 -0.1923 -0.3294
 7156SOL    HW228396   0.599   1.027   4.897 -0.1406 -0.2200 -1.5219
 7156SOL    HW328397   0.538   0.908   4.826 -0.6957 -1.1706  0.4776
 7156SOL    MW428398   0.577   0.943   4.895 -0.3406 -0.2039 -1.0157
 7157SOL     OW28399   5.089   0.223   5.899 -0.5694  0.5569 -0.1206
 7157SOL    HW228400   5.115   0.302   5.851 -0.1923  1.6321  1.7630
 7157SOL    HW328401   5.169   0.171   5.906 -0.5114  0.6326 -0.2207
 7157SOL    MW428402   5.103   0.227   5.893  0.4304 -0.3261 -0.3111
 7158SOL     OW28403   4.739   1.180   3.072  0.6106 -0.2200  0.0950
 7158SOL    HW228404   4.673   1.242   3.103 -0.5906 -0.1218 -2.3866
 7158SOL    HW328405   4.749   1.200   2.979  1.5844 -2.5358 -0.3822
 7158SOL    MW428406   4.732   1.191   3.064  0.2516 -0.0894  0.1510
 7159SOL     OW28407   1.114   3.570   4.592 -0.0397  0.4576 -0.0233
 7159SOL    HW228408   1.158   3.597   4.511 -1.2687  0.4950 -0.7077
 7159SOL    HW328409   1.021   3.563   4.567 -0.2200 -1.2034  0.9371
 7159SOL    MW428410   1.107   3.572   4.578 -0.4911 -0.5515  0.1316
 7160SOL     OW28411   2.599   0.187   2.971  0.3524 -0.0268  0.8049
 7160SOL    HW228412   2.650   0.106   2.980  2.4676  1.3792  3.0184
 7160SOL    HW328413   2.560   0.181   2.885  0.3191 -3.4328  0.8969
 7160SOL    MW428414   2.601   0.175   2.961 -0.6252  0.0345  0.0595
 7161SOL     OW28415   2.861   3.927   0.110 -0.2313 -0.3224  0.1732
 7161SOL    HW228416   2.878   3.890   0.023 -0.0110  1.7450 -0.7286
 7161SOL    HW328417   2.782   3.980   0.099  0.0540  0.3313  1.0966
 7161SOL    MW428418   2.853   3.929   0.097  0.0079 -0.0628 -0.3776
 7162SOL     OW28419   2.938   0.686   4.040 -0.5298 -0.5514 -0.6392
 7162SOL    HW228420   2.997   0.715   4.109 -2.2008 -0.6770  0.9075
 7162SOL    HW328421   2.924   0.764   3.986 -0.5547  0.0233  0.1805
 7162SOL    MW428422   2.944   0.700   4.042 -0.0782  0.2536 -0.0437
 7163SOL     OW28423   6.405   4.099   2.469 -0.5266  0.2278 -0.8069
 7163SOL    HW228424   6.441   4.024   2.517 -0.1148 -0.5035 -2.2055
 7163SOL    HW328425   6.310   4.089   2.478 -0.4781 -0.4721 -0.9682
 7163SOL    MW428426   6.397   4.088   2.477 -0.6217 -0.3111 -0.0193
 7164SOL     OW28427   4.351   2.444   0.224  0.1739  0.2768  0.1671
 7164SOL    HW228428   4.311   2.362   0.196 -1.3368  0.9100  0.3629
 7164SOL    HW328429   4.277   2.505   0.231  1.0984  1.3156  1.2006
 7164SOL    MW428430   4.336   2.441   0.221 -0.3087  0.1581  0.8305
 7165SOL     OW28431   2.400   0.263   1.557  0.5458 -0.0997  0.3377
 7165SOL    HW228432   2.408   0.189   1.498  1.3394 -0.9735  1.4897
 7165SOL    HW328433   2.437   0.232   1.640  0.7569  1.5259  0.8954
 7165SOL    MW428434   2.406   0.249   1.560 -0.1265 -0.2584 -0.1367
 7166SOL     OW28435   2.259   1.663   1.096  0.1693 -0.2747 -0.6952
 7166SOL    HW228436   2.221   1.638   1.181  1.7544  1.3733  0.5755
 7166SOL    HW328437   2.183   1.675   1.039 -1.0087 -0.5163  0.7511
 7166SOL    MW428438   2.244   1.662   1.100  0.3869  0.4823  0.1552
 7167SOL     OW28439   6.062   2.310   0.352  0.1020  0.0646  0.2904
 7167SOL    HW228440   6.020   2.379   0.403 -0.9784  0.8163 -1.5304
 7167SOL    HW328441   6.122   2.357   0.294  2.3591 -0.8737  1.7089
 7167SOL    MW428442   6.065   2.326   0.351  0.4685 -0.1779 -0.3921
 7168SOL     OW28443   2.713   4.268   0.371  0.5531  0.4269 -0.3181
 7168SOL    HW228444   2.743   4.320   0.297  4.1488 -0.2784  0.4112
 7168SOL    HW328445   2.705   4.331   0.443  0.5338  0.6224 -0.4917
 7168SOL    MW428446   2.716   4.283   0.371  0.2740 -1.0409 -0.0686
 7169SOL     OW28447   2.082   3.460   0.100 -0.1256  0.1881  0.2121
 7169SOL    HW228448   2.091   3.500   0.014 -1.8014  0.4511  0.1138
 7169SOL    HW328449   2.137   3.382   0.096  0.4647  0.6332 -0.8020
 7169SOL    MW428450   2.090   3.455   0.088  0.6919  0.2030 -0.2088
 7170SOL     OW28451   0.276   3.776   6.013  0.1093  0.4164 -0.5349
 7170SOL    HW228452   0.278   3.690   5.971 -0.4245 -0.2479  0.7251
 7170SOL    HW328453   0.365   3.810   6.003  0.8448 -1.0729  0.4565
 7170SOL    MW428454   0.288   3.769   6.006 -0.0133 -0.0997 -0.5559
 7171SOL     OW28455   1.260   3.928   1.756 -0.3854  0.2768  0.1544
 7171SOL    HW228456   1.320   3.875   1.809 -0.3798  1.1592  1.0603
 7171SOL    HW328457   1.293   4.017   1.764 -1.5253  0.7054  0.2507
 7171SOL    MW428458   1.272   3.933   1.764  0.4165 -0.2189 -0.1626
 7172SOL     OW28459   2.440   1.117   2.331  0.9960  0.2140  0.2708
 7172SOL    HW228460   2.533   1.128   2.315  1.0814 -1.2934 -0.3317
 7172SOL    HW328461   2.432   1.118   2.427  1.5560  0.7634  0.3192
 7172SOL    MW428462   2.451   1.119   2.342  0.0613 -0.0894 -0.0132
 7173SOL     OW28463   0.080   0.211   3.729  0.2577  0.2329  0.7337
 7173SOL    HW228464   0.102   0.292   3.775  0.3888 -0.8650  2.7417
 7173SOL    HW328465   0.021   0.238   3.659  1.3592  2.1975  0.5078
 7173SOL    MW428466   0.075   0.225   3.726 -0.0487 -1.1724  0.2542
 7174SOL     OW28467   2.934   1.644   4.399 -0.0491  0.7341 -0.0163
 7174SOL    HW228468   2.984   1.612   4.323 -0.1306 -1.5372  0.8060
 7174SOL    HW328469   2.984   1.613   4.475 -1.3268  0.7161  0.8448
 7174SOL    MW428470   2.947   1.636   4.399  0.3685 -0.9536 -0.4180
 7175SOL     OW28471   5.641   5.613   4.879 -0.3944 -0.1294 -0.4003
 7175SOL    HW228472   5.595   5.663   4.946 -0.0817  0.9055 -0.9328
 7175SOL    HW328473   5.724   5.588   4.921  0.0065  0.9217 -0.5295
 7175SOL    MW428474   5.646   5.616   4.893 -0.0381  0.1871 -0.0150
 7176SOL     OW28475   4.722   2.989   1.730 -0.5091  0.2294 -0.2245
 7176SOL    HW228476   4.810   3.024   1.717  0.3391 -1.0008  1.7002
 7176SOL    HW328477   4.671   3.023   1.657  1.5051  1.1679 -1.2642
 7176SOL    MW428478   4.726   2.998   1.719  0.2486 -0.3871 -0.0046
 7177SOL     OW28479   1.032   1.448   1.930  0.5889 -0.0708  0.4686
 7177SOL    HW228480   1.022   1.392   1.853 -0.5420  0.3616  0.2814
 7177SOL    HW328481   1.100   1.406   1.982  0.3838 -1.1192 -0.0989
 7177SOL    MW428482   1.040   1.435   1.927 -0.3002 -0.0919  0.3725
 7178SOL     OW28483   3.610   1.671   3.815  0.0178 -0.2658 -0.0931
 7178SOL    HW228484   3.535   1.617   3.841 -1.6916  1.3420 -1.3221
 7178SOL    HW328485   3.640   1.711   3.896 -0.3307 -1.0783  0.4493
 7178SOL    MW428486   3.604   1.669   3.829 -0.6632  0.2535  0.0179
 7179SOL     OW28487   4.902   4.348   5.643 -0.5632  0.3068 -1.3894
 7179SOL    HW228488   4.823   4.383   5.684 -0.3898 -1.7485  0.9159
 7179SOL    HW328489   4.871   4.313   5.559 -1.8302  0.7725 -1.1445
 7179SOL    MW428490   4.887   4.348   5.637 -0.4485  0.1259  0.4432
 7180SOL     OW28491   5.201   3.229   1.055 -0.4503 -0.1927 -0.0901
 7180SOL    HW228492   5.184   3.238   1.149 -1.4979 -0.5479 -0.2232
 7180SOL    HW328493   5.273   3.288   1.037 -1.1703  0.9557  0.6864
 7180SOL    MW428494   5.208   3.238   1.065  0.7511 -0.1539 -0.5672
 7181SOL     OW28495   2.328   2.721   3.348 -0.3455  0.2407  0.3596
 7181SOL    HW228496   2.413   2.702   3.388 -0.0590  0.0158 -0.3476
 7181SOL    HW328497   2.327   2.816   3.337 -1.3101  0.6119  2.8392
 7181SOL    MW428498   2.339   2.731   3.352 -0.3458 -0.0582  0.3159
 7182SOL     OW28499   5.797   3.629   3.291  0.1870 -0.5180 -0.3010
 7182SOL    HW228500   5.810   3.536   3.308  0.1144 -0.9641 -2.4720
 7182SOL    HW328501   5.872   3.671   3.332  0.0974 -1.4697  0.9230
 7182SOL    MW428502   5.809   3.622   3.299 -0.0038 -0.2492  0.7634
 7183SOL     OW28503   4.123   0.163   2.332 -0.1591  0.1303 -0.4123
 7183SOL    HW228504   4.198   0.208   2.370  2.3048 -2.1616 -2.2587
 7183SOL    HW328505   4.116   0.199   2.243  0.3086 -1.3049 -1.0626
 7183SOL    MW428506   4.132   0.174   2.325  0.6556 -0.3361 -0.1003
 7184SOL     OW28507   2.728   2.481   1.207 -0.2085 -0.4018  0.7409
 7184SOL    HW228508   2.783   2.523   1.142 -0.9114 -1.6904 -0.7390
 7184SOL    HW328509   2.784   2.473   1.285 -0.1016  3.3544  1.2065
 7184SOL    MW428510   2.742   2.485   1.209  0.1615 -0.2848  0.6388
 7185SOL     OW28511   0.827   3.346   0.827 -0.1385 -0.5849  0.0261
 7185SOL    HW228512   0.756   3.309   0.774  0.3571 -0.1406 -0.9739
 7185SOL    HW328513   0.907   3.307   0.790  0.3084  0.6306 -0.3424
 7185SOL    MW428514   0.828   3.336   0.815  0.0160 -0.1274  1.0089
 7186SOL     OW28515   3.559   4.114   1.000  0.2642  0.1801 -0.3681
 7186SOL    HW228516   3.616   4.098   0.925  0.6406  1.0169 -0.2682
 7186SOL    HW328517   3.505   4.188   0.974  1.3506  1.3994  0.6836
 7186SOL    MW428518   3.560   4.122   0.987  0.2027  0.1055 -0.2618
 7187SOL     OW28519   4.972   6.014   1.922  0.2043  0.4332  0.6942
 7187SOL    HW228520   4.893   6.065   1.900 -0.2279  0.7327  2.7480
 7187SOL    HW328521   4.963   5.995   2.015  1.6717 -1.1664  0.5505
 7187SOL    MW428522   4.960   6.018   1.931 -0.2281  0.1388  0.0778
 7188SOL     OW28523   2.681   2.640   0.063  0.5982 -0.5886 -0.3762
 7188SOL    HW228524   2.768   2.616   0.095 -0.2081 -0.8141  1.8813
 7188SOL    HW328525   2.660   2.574  -0.003  2.2581 -0.3023 -1.2332
 7188SOL    MW428526   2.690   2.628   0.059  0.4735 -0.1791  0.5099
 7189SOL     OW28527   4.519   0.674   4.440  0.3039 -0.7945  0.2482
 7189SOL    HW228528   4.577   0.608   4.478  1.0416 -0.6081 -0.5170
 7189SOL    HW328529   4.489   0.636   4.358 -0.7892 -0.9390  0.6950
 7189SOL    MW428530   4.523   0.661   4.434  0.1587  0.3904 -0.5790
 7190SOL     OW28531   6.214   1.366   5.975 -0.1314 -0.1483  0.5770
 7190SOL    HW228532   6.298   1.403   5.948  0.1456 -1.0125  0.2006
 7190SOL    HW328533   6.151   1.436   5.959  0.8947  1.7724  4.0010
 7190SOL    MW428534   6.217   1.380   5.969 -0.6327  0.0971  0.0941
 7191SOL     OW28535   0.664   4.069   0.978  0.1198 -0.2926  0.1958
 7191SOL    HW228536   0.751   4.040   1.005  0.6726  1.5381  0.5694
 7191SOL    HW328537   0.663   4.163   0.999 -2.1859 -0.3877  0.8344
 7191SOL    MW428538   0.675   4.078   0.984 -0.0190  0.4746 -0.6117
 7192SOL     OW28539   4.392   3.786   2.867 -0.0241 -0.2606 -0.0206
 7192SOL    HW228540   4.486   3.769   2.879 -0.0982  0.6335  2.2582
 7192SOL    HW328541   4.355   3.776   2.954 -1.9636  0.0833 -0.7659
 7192SOL    MW428542   4.400   3.782   2.880 -0.1108 -0.4355 -0.2010
 7193SOL     OW28543   4.878   5.866   1.597 -0.4129 -0.1625  0.5774
 7193SOL    HW228544   4.806   5.835   1.542  0.4858 -1.9265  0.3087
 7193SOL    HW328545   4.842   5.942   1.643 -2.0045 -0.1879 -0.5199
 7193SOL    MW428546   4.864   5.872   1.596 -0.1227  0.4615  0.0201
 7194SOL     OW28547   4.675   3.338   0.640  0.0220  0.0998 -0.1857
 7194SOL    HW228548   4.616   3.274   0.603 -1.5863  0.4253  1.6225
 7194SOL    HW328549   4.729   3.289   0.702 -0.3502  0.2510  0.2705
 7194SOL    MW428550   4.674   3.323   0.644 -0.2572  0.3247 -0.0752
 7195SOL     OW28551   5.853   2.646   1.019 -0.4842  0.9427 -0.4608
 7195SOL    HW228552   5.876   2.590   0.944 -1.2953  0.4786 -0.3658
 7195SOL    HW328553   5.775   2.606   1.056  0.3139  0.7692  1.0772
 7195SOL    MW428554   5.846   2.634   1.014  0.1579 -0.0870  0.2636
 7196SOL     OW28555   3.280   1.491   1.563  0.5357  0.2124  0.0184
 7196SOL    HW228556   3.346   1.554   1.592 -0.8472  1.8044 -0.0967
 7196SOL    HW328557   3.241   1.459   1.645  0.8495 -0.0627  0.0621
 7196SOL    MW428558   3.283   1.495   1.578 -0.2793  0.2034  0.1365
 7197SOL     OW28559   0.688   5.288   4.584  0.2313 -0.5090 -0.2698
 7197SOL    HW228560   0.622   5.252   4.524  0.2573 -0.6883 -0.1910
 7197SOL    HW328561   0.643   5.290   4.669  0.1378 -0.0960 -0.3290
 7197SOL    MW428562   0.673   5.283   4.587 -0.0248  0.4721 -0.0845
 7198SOL     OW28563   0.906   4.874   1.450 -0.2146 -0.1790  0.6147
 7198SOL    HW228564   0.900   4.882   1.355 -0.2401  0.4937  0.6701
 7198SOL    HW328565   0.832   4.925   1.484 -1.3360 -1.9347  0.9588
 7198SOL    MW428566   0.895   4.882   1.442 -0.4009  0.5687 -0.0922
 7199SOL     OW28567   0.767   0.564   3.737  0.1352  0.1701 -0.2374
 7199SOL    HW228568   0.713   0.590   3.663  0.4949 -2.2042 -1.4489
 7199SOL    HW328569   0.787   0.472   3.721  0.8600 -0.2400  2.4569
 7199SOL    MW428570   0.762   0.555   3.725 -0.6897  0.1985 -0.0535
 7200SOL     OW28571   2.993   4.222   4.693  0.1807  0.5421 -0.2676
 7200SOL    HW228572   3.033   4.151   4.642 -0.6007  0.4697 -0.7913
 7200SOL    HW328573   2.951   4.178   4.767 -1.6764  0.2418 -1.4311
 7200SOL    MW428574   2.993   4.207   4.696  0.1383 -0.2014  0.0201
 7201SOL     OW28575   2.127   6.351   5.343  0.2385 -0.5097  0.2500
 7201SOL    HW228576   2.163   6.290   5.407  1.1008  0.1662  0.4266
 7201SOL    HW328577   2.199   6.366   5.281  0.6364  1.6317  1.1562
 7201SOL    MW428578   2.141   6.345   5.343  0.1885 -0.0537 -0.1722
 7202SOL     OW28579   1.387   4.994   1.523 -0.5010  0.4443 -0.3766
 7202SOL    HW228580   1.326   4.923   1.541 -1.2043  0.6922 -1.6678
 7202SOL    HW328581   1.463   4.950   1.484 -0.2357  0.2289  0.3812
 7202SOL    MW428582   1.389   4.978   1.520 -0.1682  0.0280  0.3108
 7203SOL     OW28583   3.280   5.965   3.305 -1.1486 -0.0349  0.2973
 7203SOL    HW228584   3.318   6.050   3.282 -0.3254 -0.7539 -1.1597
 7203SOL    HW328585   3.222   5.945   3.231 -1.8019 -0.4704  0.9198
 7203SOL    MW428586   3.277   5.974   3.292 -1.1073  0.7842  0.3047
 7204SOL     OW28587   0.469   4.945   4.280 -0.9095  0.4618 -0.1489
 7204SOL    HW228588   0.373   4.953   4.283 -1.0670 -1.1280  2.6943
 7204SOL    HW328589   0.499   5.003   4.351  0.0265 -0.7559  0.4764
 7204SOL    MW428590   0.460   4.954   4.290 -0.2134  0.0693  0.3252
 7205SOL     OW28591   6.361   0.243   1.400 -0.2083 -0.1233  0.1803
 7205SOL    HW228592   6.358   0.178   1.330 -2.2290 -1.8605  1.7332
 7205SOL    HW328593   6.452   0.244   1.427  0.3152 -0.5532 -1.4384
 7205SOL    MW428594   6.372   0.234   1.394  0.0106 -0.0032 -0.6328
 7206SOL     OW28595   2.246   2.140   1.920 -0.4828 -0.2574  0.0417
 7206SOL    HW228596   2.255   2.234   1.937  0.7596 -0.1274 -1.1635
 7206SOL    HW328597   2.213   2.104   2.003  0.4292  1.0305  1.0075
 7206SOL    MW428598   2.243   2.148   1.934 -0.0086 -0.6761 -0.1480
 7207SOL     OW28599   2.215   4.519   4.858  0.8579 -0.1052  0.5142
 7207SOL    HW228600   2.193   4.518   4.765  1.2112 -1.2186  0.4256
 7207SOL    HW328601   2.206   4.427   4.885  0.8768  0.1900  1.5507
 7207SOL    MW428602   2.211   4.507   4.849 -0.1110  0.1769  0.5961
 7208SOL     OW28603   2.148   5.800   4.109  0.0737  1.0413 -0.0462
 7208SOL    HW228604   2.121   5.735   4.174 -1.5243  1.9190  0.1980
 7208SOL    HW328605   2.241   5.814   4.127 -0.1721  0.7565  1.5903
 7208SOL    MW428606   2.157   5.793   4.120  0.6595 -0.1625 -0.7443
 7209SOL     OW28607   6.234   2.238   5.692 -0.4222  0.0672 -0.1040
 7209SOL    HW228608   6.183   2.276   5.763 -0.1963  0.5623 -0.2012
 7209SOL    HW328609   6.321   2.275   5.702 -0.3793  0.1210 -0.6140
 7209SOL    MW428610   6.238   2.248   5.702  0.1015  0.0280  0.4677
 7210SOL     OW28611   2.545   6.287   0.035 -0.3727  0.1337  0.2330
 7210SOL    HW228612   2.497   6.354  -0.013 -0.9013  0.4947  1.2497
 7210SOL    HW328613   2.563   6.219  -0.031 -2.9568 -0.3792 -0.0361
 7210SOL    MW428614   2.541   6.287   0.020 -0.6268 -0.0597 -0.2512
 7211SOL     OW28615   0.496   4.398   5.791  0.5317 -0.4574  0.3259
 7211SOL    HW228616   0.431   4.377   5.725  1.1924 -0.5037 -0.3258
 7211SOL    HW328617   0.486   4.331   5.858  2.1208 -2.5176 -1.3585
 7211SOL    MW428618   0.486   4.387   5.791  0.5571  0.0267 -0.1088
 7212SOL     OW28619   3.430   3.768   3.824 -0.1225 -0.6954 -0.0592
 7212SOL    HW228620   3.504   3.709   3.837 -0.0847 -0.4108  1.1715
 7212SOL    HW328621   3.402   3.791   3.912 -1.3757 -0.4030 -0.5126
 7212SOL    MW428622   3.436   3.764   3.837  0.7323 -0.3515  0.6307
 7213SOL     OW28623   4.474   0.178   3.565  0.1016  0.0071  0.3717
 7213SOL    HW228624   4.442   0.171   3.475  0.0300 -0.5220  0.4357
 7213SOL    HW328625   4.465   0.090   3.601 -0.7820  0.4257  1.2129
 7213SOL    MW428626   4.469   0.166   3.558 -0.1702 -0.4202  0.2411
 7214SOL     OW28627   6.147   3.128   4.238  0.0255 -0.0836  0.2106
 7214SOL    HW228628   6.111   3.216   4.230 -0.5501 -0.4719 -2.5995
 7214SOL    HW328629   6.070   3.071   4.238  0.4213 -0.6543  1.3382
 7214SOL    MW428630   6.132   3.132   4.237  0.0938 -0.4444  0.2420
 7215SOL     OW28631   2.924   4.324   5.199  0.4296 -0.8479 -0.7141
 7215SOL    HW228632   2.908   4.413   5.169 -0.4559 -1.3084 -1.6623
 7215SOL    HW328633   2.992   4.333   5.266  0.0005  0.5840 -0.4382
 7215SOL    MW428634   2.931   4.337   5.204  0.3856 -0.2066  0.6226
 7216SOL     OW28635   1.551   2.771   4.658  0.3636  0.0657  0.0787
 7216SOL    HW228636   1.460   2.801   4.655  0.3195 -0.1103 -1.6191
 7216SOL    HW328637   1.593   2.815   4.584  1.4467 -0.5148  0.3265
 7216SOL    MW428638   1.544   2.781   4.648  0.9581 -0.0885  0.0432
 7217SOL     OW28639   4.143   6.267   2.769  0.4512  0.5925  0.0331
 7217SOL    HW228640   4.108   6.179   2.784  2.5184 -0.3325 -0.2054
 7217SOL    HW328641   4.224   6.268   2.819 -0.4212  3.0599  1.5545
 7217SOL    MW428642   4.149   6.255   2.778 -0.3334 -0.1371  0.2154
 7218SOL     OW28643   1.980   6.018   5.203 -0.7245  0.7231  0.0761
 7218SOL    HW228644   1.929   5.949   5.246 -0.9187  0.2337 -0.9090
 7218SOL    HW328645   2.071   5.996   5.223 -0.8256  0.6539  0.4601
 7218SOL    MW428646   1.985   6.006   5.211 -0.0574 -0.1071  0.3597
 7219SOL     OW28647   6.289   6.362   3.180 -0.1858 -0.2321  0.1272
 7219SOL    HW228648   6.268   6.429   3.115 -2.9433 -2.1478 -1.1791
 7219SOL    HW328649   6.381   6.342   3.165  0.0543  1.5614 -1.0903
 7219SOL    MW428650   6.298   6.368   3.169  0.0933 -0.0117  0.1575
 7220SOL     OW28651   1.053   5.957   5.310  0.1697  0.1122  0.5648
 7220SOL    HW228652   0.980   5.901   5.282 -0.7636  1.1354  0.9059
 7220SOL    HW328653   1.112   5.898   5.357 -1.1151 -0.4707  1.4958
 7220SOL    MW428654   1.052   5.941   5.312 -0.6025 -0.5583  0.1922
 7221SOL     OW28655   5.379   4.655   3.546  0.2402  0.6805 -0.2069
 7221SOL    HW228656   5.472   4.655   3.566  0.3771 -0.9578 -0.6869
 7221SOL    HW328657   5.349   4.742   3.571  1.8310  1.1355  0.2337
 7221SOL    MW428658   5.387   4.667   3.552  0.0763  0.4119 -0.0238
 7222SOL     OW28659   4.413   1.769   4.732  0.4435  0.2049 -0.3363
 7222SOL    HW228660   4.379   1.773   4.821  0.9604  2.7583 -0.1677
 7222SOL    HW328661   4.489   1.712   4.738  0.1423 -0.1064  0.7319
 7222SOL    MW428662   4.418   1.762   4.744  0.4307  0.8992 -0.3316
 7223SOL     OW28663   0.735   6.208   3.542 -0.7579  0.5144 -0.1324
 7223SOL    HW228664   0.812   6.236   3.592  1.1669 -2.0671 -1.4204
 7223SOL    HW328665   0.685   6.154   3.603 -0.4243  0.4662  0.0983
 7223SOL    MW428666   0.738   6.204   3.557 -0.2486 -0.8000 -0.4647
 7224SOL     OW28667   0.701   3.885   3.217 -0.2260 -0.1810 -0.3056
 7224SOL    HW228668   0.671   3.860   3.305  0.6741 -1.0105 -0.2146
 7224SOL    HW328669   0.763   3.817   3.193 -0.2331  0.2051 -1.4744
 7224SOL    MW428670   0.705   3.873   3.226  0.0971 -0.2225 -0.7643
 7225SOL     OW28671   2.103   1.482   5.973 -0.1660 -0.7112 -0.2511
 7225SOL    HW228672   2.180   1.471   5.918 -0.9995  0.4908 -1.7127
 7225SOL    HW328673   2.029   1.465   5.915 -1.0608 -0.4854  0.7830
 7225SOL    MW428674   2.103   1.478   5.958 -0.6191  0.7192 -0.6605
 7226SOL     OW28675   1.463   0.046   5.322  0.2829  0.6494 -0.1087
 7226SOL    HW228676   1.439  -0.006   5.245 -0.0386 -0.5269  0.7679
 7226SOL    HW328677   1.525  -0.009   5.370 -0.6738  0.7136  1.2491
 7226SOL    MW428678   1.468   0.032   5.318  0.2577  0.3637  0.0771
 7227SOL     OW28679   3.420   3.333   2.529  0.0152  0.4364  0.3863
 7227SOL    HW228680   3.373   3.415   2.546  1.0894  1.4480 -1.2066
 7227SOL    HW328681   3.438   3.297   2.616 -1.1283  1.4977  1.1008
 7227SOL    MW428682   3.416   3.339   2.543  0.0040 -0.6784 -0.1233
 7228SOL     OW28683   5.979   3.796   0.517  0.0115 -0.0024  0.1838
 7228SOL    HW228684   6.059   3.758   0.479  0.4488  1.0208  0.0491
 7228SOL    HW328685   5.999   3.805   0.610  0.2774  0.7754  0.0591
 7228SOL    MW428686   5.992   3.792   0.524  0.1634 -0.0288  0.0698
 7229SOL     OW28687   0.019   3.218   0.400  0.7083 -0.0387 -0.1873
 7229SOL    HW228688   0.095   3.179   0.356  0.5989  0.0973 -0.4925
 7229SOL    HW328689  -0.043   3.238   0.330  0.4909  0.0816  0.0365
 7229SOL    MW428690   0.021   3.215   0.385  0.0425  0.7241  0.4734
 7230SOL     OW28691   2.922   0.083   3.917  0.7784 -0.6811  0.0185
 7230SOL    HW228692   2.942   0.063   3.825 -0.3107 -1.7521 -0.0159
 7230SOL    HW328693   2.947   0.004   3.965  1.1583 -0.1992  0.6315
 7230SOL    MW428694   2.928   0.070   3.911 -0.2624  0.3738  0.1288
 7231SOL     OW28695   5.434   4.626   1.380 -0.1323 -0.1479 -0.0089
 7231SOL    HW228696   5.463   4.616   1.470  2.5585 -0.2995 -0.8136
 7231SOL    HW328697   5.410   4.537   1.353 -1.8763  0.0395  0.7808
 7231SOL    MW428698   5.434   4.613   1.388 -0.9062 -0.0960  0.2992
 7232SOL     OW28699   0.109   6.020   1.029 -0.3400 -0.3249  0.1895
 7232SOL    HW228700   0.106   5.955   1.099 -0.6919 -1.0658 -0.4959
 7232SOL    HW328701   0.092   5.970   0.949 -0.0813  0.5235 -0.4145
 7232SOL    MW428702   0.107   6.005   1.027  0.3021  0.0122 -0.4738
 7233SOL     OW28703   2.620   4.096   5.286  0.2692 -0.1010  0.4250
 7233SOL    HW228704   2.595   4.021   5.233 -2.0390  0.5463  0.4544
 7233SOL    HW328705   2.694   4.135   5.239 -2.2389  1.0297 -3.0766
 7233SOL    MW428706   2.626   4.092   5.273  0.1215  0.1126  0.3070
 7234SOL     OW28707   4.623   5.319   1.137  0.2702  0.5834  0.4174
 7234SOL    HW228708   4.550   5.352   1.085 -0.1596  2.2280  1.9486
 7234SOL    HW328709   4.691   5.385   1.127 -0.1529  1.4270  2.5806
 7234SOL    MW428710   4.622   5.332   1.129  0.5453 -0.0883 -0.1907
 7235SOL     OW28711   4.723   1.964   2.017  0.1785  0.2317  0.6583
 7235SOL    HW228712   4.696   2.029   1.952  3.3351 -0.4850 -1.6457
 7235SOL    HW328713   4.659   1.893   2.007  0.0223  0.5587 -1.0287
 7235SOL    MW428714   4.711   1.963   2.007 -0.1021 -0.4894  0.7095
 7236SOL     OW28715   2.308   1.381   2.329  0.2038  0.2917 -0.2682
 7236SOL    HW228716   2.286   1.405   2.239  1.2521 -1.9541 -1.2138
 7236SOL    HW328717   2.341   1.291   2.322  0.4531  0.1034  2.3556
 7236SOL    MW428718   2.309   1.372   2.316  0.6944 -0.0540  0.3600
 7237SOL     OW28719   5.029   6.306   4.955 -0.1597  0.1478  0.3396
 7237SOL    HW228720   4.937   6.288   4.971 -0.2114 -0.1172 -0.2385
 7237SOL    HW328721   5.037   6.307   4.859  0.4392  0.1560  0.3874
 7237SOL    MW428722   5.018   6.304   4.944 -0.3788 -1.0467  0.0632
 7238SOL     OW28723   3.524   0.693   4.356  0.1401  0.0292 -0.3497
 7238SOL    HW228724   3.554   0.611   4.317  0.1027  0.0103 -0.3392
 7238SOL    HW328725   3.602   0.748   4.361  0.5103 -0.5706  1.0991
 7238SOL    MW428726   3.538   0.689   4.351  0.3446  0.7808  0.3933
 7239SOL     OW28727   2.051   2.731   2.892  0.5050  0.2306 -0.1833
 7239SOL    HW228728   2.132   2.704   2.936 -0.8777 -0.7459  1.8665
 7239SOL    HW328729   2.070   2.820   2.861  2.2463  0.1473  0.5399
 7239SOL    MW428730   2.064   2.739   2.893 -0.2033  0.7016 -0.1928
 7240SOL     OW28731   6.166   0.691   0.784  0.3125 -0.2603 -0.1676
 7240SOL    HW228732   6.256   0.668   0.759  0.4817 -0.9509  1.0038
 7240SOL    HW328733   6.176   0.763   0.846  0.2187 -1.6511  1.5383
 7240SOL    MW428734   6.179   0.697   0.789 -0.6857 -0.2575  0.2132
 7241SOL     OW28735   3.829   0.254   2.935 -0.6142  0.0216  1.1556
 7241SOL    HW228736   3.903   0.196   2.919 -1.4350 -0.5984 -0.5799
 7241SOL    HW328737   3.823   0.259   3.031 -0.7349 -3.0793  1.4025
 7241SOL    MW428738   3.838   0.247   2.946  0.2683  0.1378  0.5491
 7242SOL     OW28739   0.724   0.652   2.326  0.2753  0.1251  0.3169
 7242SOL    HW228740   0.771   0.568   2.331  0.9802  0.5665  1.6496
 7242SOL    HW328741   0.770   0.701   2.258 -0.2887 -0.6327 -0.6405
 7242SOL    MW428742   0.736   0.647   2.318 -0.8087  0.1381 -0.0229
 7243SOL     OW28743   5.151   2.512   6.026  0.2143 -0.4010  0.0423
 7243SOL    HW228744   5.232   2.475   6.058  1.0555  0.7257 -0.6985
 7243SOL    HW328745   5.168   2.531   5.933 -0.4155  1.0498  0.1871
 7243SOL    MW428746   5.164   2.510   6.018 -0.0247 -0.7899  0.2554
 7244SOL     OW28747   3.158   2.656   4.284 -0.3985 -0.0652 -0.2987
 7244SOL    HW228748   3.106   2.723   4.241  0.0999 -0.4722 -1.5855
 7244SOL    HW328749   3.223   2.631   4.219  0.4691 -0.6160  0.7520
 7244SOL    MW428750   3.160   2.661   4.270 -0.4661  1.0963 -0.4947
 7245SOL     OW28751   5.881   6.325   1.376  0.1592 -0.3872  0.2419
 7245SOL    HW228752   5.829   6.405   1.377  2.4277  1.1855 -0.2562
 7245SOL    HW328753   5.947   6.338   1.444  0.5431 -1.8681  0.1796
 7245SOL    MW428754   5.883   6.337   1.385 -0.4922 -0.2083 -0.0821
 7246SOL     OW28755   4.424   3.719   3.789  0.0784 -0.5051 -0.1531
 7246SOL    HW228756   4.402   3.771   3.712 -1.2195 -0.1108  0.4538
 7246SOL    HW328757   4.479   3.776   3.842 -0.4592 -0.1220  0.0068
 7246SOL    MW428758   4.428   3.733   3.785  0.0388  0.0469  0.2055
 7247SOL     OW28759   0.578   3.766   5.282  0.2741  0.2697 -0.6822
 7247SOL    HW228760   0.626   3.694   5.322  1.4634  0.2580 -2.0792
 7247SOL    HW328761   0.555   3.734   5.195 -1.7304  0.5279 -0.2961
 7247SOL    MW428762   0.581   3.752   5.276  0.3166  0.0676  0.7560
 7248SOL     OW28763   1.908   2.604   1.289  0.5238  0.5456 -0.3447
 7248SOL    HW228764   1.931   2.511   1.299  1.5915  0.9177  0.9935
 7248SOL    HW328765   1.986   2.644   1.252  0.3392  1.0450 -0.1968
 7248SOL    MW428766   1.921   2.597   1.286  0.1842 -0.2845 -0.0976
 7249SOL     OW28767   1.214   2.684   1.947  0.0226  0.4351  0.2249
 7249SOL    HW228768   1.119   2.677   1.957 -0.0122  0.5326 -0.0296
 7249SOL    HW328769   1.226   2.757   1.887  0.2471  0.2291  0.0193
 7249SOL    MW428770   1.203   2.693   1.941  0.1498 -0.3822  0.0286
 7250SOL     OW28771   3.848   5.887   4.961  0.0540 -0.2790  0.6283
 7250SOL    HW228772   3.927   5.883   4.906 -0.0030 -0.6289  0.5722
 7250SOL    HW328773   3.800   5.807   4.940 -0.6164  0.2281  0.2211
 7250SOL    MW428774   3.852   5.876   4.951 -0.1823  0.4809 -0.3567
 7251SOL     OW28775   5.820   2.919   0.993 -0.2711 -0.0268 -0.0329
 7251SOL    HW228776   5.877   2.947   1.065 -1.0423  1.8996 -0.1015
 7251SOL    HW328777   5.830   2.824   0.989  1.1585  0.0259  1.4400
 7251SOL    MW428778   5.829   2.910   1.002 -0.5933 -0.3095  0.1978
 7252SOL     OW28779   5.262   5.956   1.012  0.3242  0.4925  0.2603
 7252SOL    HW228780   5.311   6.019   0.960 -0.9768  1.7900  0.5509
 7252SOL    HW328781   5.264   5.991   1.101  0.2596 -0.2977  0.5801
 7252SOL    MW428782   5.268   5.969   1.017  0.1591  0.1274  0.0526
 7253SOL     OW28783   0.619   4.669   5.455 -0.0659  0.0331 -0.2651
 7253SOL    HW228784   0.613   4.747   5.400  0.7857  0.5570  0.3489
 7253SOL    HW328785   0.558   4.687   5.527 -2.6898 -1.5035 -1.9583
 7253SOL    MW428786   0.610   4.682   5.458  0.7446  0.3396  0.1575
 7254SOL     OW28787   5.606   2.822   5.243  0.8928  0.2610  0.3020
 7254SOL    HW228788   5.614   2.878   5.320 -0.0087  0.1458  0.4867
 7254SOL    HW328789   5.545   2.869   5.185  1.9626  0.6065 -0.5834
 7254SOL    MW428790   5.599   2.836   5.245  0.5743 -0.9408 -0.2954
 7255SOL     OW28791   6.270   3.437   5.825  0.1365 -0.5196  0.3952
 7255SOL    HW228792   6.218   3.499   5.877 -0.5763  0.2247 -1.1418
 7255SOL    HW328793   6.223   3.354   5.832 -1.1520  0.0782 -0.7358
 7255SOL    MW428794   6.257   3.434   5.833  0.8570  0.1849 -0.1514
 7256SOL     OW28795   5.707   0.697   4.802  0.1552  0.1508 -0.4625
 7256SOL    HW228796   5.715   0.702   4.897  1.8411  0.1864 -0.5633
 7256SOL    HW328797   5.614   0.711   4.784 -0.4030 -1.1188  1.2414
 7256SOL    MW428798   5.696   0.699   4.812 -0.2424 -0.0399  0.4032
 7257SOL     OW28799   1.096   6.393   5.001  0.0557  0.1538  0.0654
 7257SOL    HW228800   1.179   6.371   5.043  0.6600 -0.7140 -1.5126
 7257SOL    HW328801   1.031   6.342   5.049  0.6869 -0.5852  0.1570
 7257SOL    MW428802   1.098   6.383   5.013 -0.0878 -0.3103 -0.2590
 7258SOL     OW28803   5.824   1.426   0.766  0.7378  0.7028  0.6255
 7258SOL    HW228804   5.875   1.486   0.712  0.2959  1.2030  0.7483
 7258SOL    HW328805   5.809   1.350   0.710  4.1117 -0.7978  1.5612
 7258SOL    MW428806   5.829   1.424   0.751 -0.0838 -0.6259 -0.4559
 7259SOL     OW28807   6.078   1.539   3.934  0.4493 -0.4369 -0.1142
 7259SOL    HW228808   6.027   1.498   3.864  0.3392 -1.8503  0.7571
 7259SOL    HW328809   6.022   1.531   4.012  0.2647  1.7210  0.0567
 7259SOL    MW428810   6.064   1.533   3.935  0.3869 -0.3609  0.0458
 7260SOL     OW28811   2.468   2.306   5.344  0.0244  0.4327  0.0235
 7260SOL    HW228812   2.431   2.382   5.390 -0.6558  0.8130 -1.1142
 7260SOL    HW328813   2.458   2.234   5.406 -0.5030  1.0158  0.6359
 7260SOL    MW428814   2.462   2.307   5.358  0.0962 -0.1383  0.1086
 7261SOL     OW28815   2.121   6.392   1.620  0.2621  0.0347  0.5374
 7261SOL    HW228816   2.151   6.483   1.625  1.1705 -0.1895 -0.3609
 7261SOL    HW328817   2.038   6.397   1.573  0.7716  0.3365 -0.3725
 7261SOL    MW428818   2.114   6.405   1.615  0.1343  0.1939  0.7357
 7262SOL     OW28819   1.146   3.535   5.026  0.4822  0.4805 -0.3731
 7262SOL    HW228820   1.106   3.586   4.956 -0.6902 -0.3410 -0.3294
 7262SOL    HW328821   1.206   3.596   5.069 -0.4396  1.6448 -0.6871
 7262SOL    MW428822   1.148   3.550   5.022 -0.3675 -0.1068 -0.1647
 7263SOL     OW28823   6.157   1.882   0.418  0.3340  0.1108  0.0482
 7263SOL    HW228824   6.232   1.843   0.373  0.8510 -0.5831  1.4305
 7263SOL    HW328825   6.085   1.822   0.400  0.6554 -0.4339  0.5324
 7263SOL    MW428826   6.158   1.869   0.410  0.2044 -0.0706  0.4357
 7264SOL     OW28827   4.116   4.702   3.191  0.4160 -0.3925  0.2418
 7264SOL    HW228828   4.172   4.691   3.114  0.7130  0.1846  0.3671
 7264SOL    HW328829   4.027   4.700   3.156  0.5511 -0.0460 -0.1393
 7264SOL    MW428830   4.112   4.700   3.176 -0.3584  0.3692 -0.3781
 7265SOL     OW28831   0.163   5.793   1.227  0.4926 -0.5235 -0.5133
 7265SOL    HW228832   0.089   5.770   1.284 -0.1619 -0.8003 -1.4470
 7265SOL    HW328833   0.231   5.729   1.250  1.0161  0.6363  1.3904
 7265SOL    MW428834   0.162   5.781   1.238  0.3794  0.0406 -0.3586
 7266SOL     OW28835   5.324   2.519   1.906 -0.7023 -0.2557  0.3424
 7266SOL    HW228836   5.326   2.591   1.968 -2.7956  0.7866 -0.6850
 7266SOL    HW328837   5.339   2.559   1.821  0.3247 -1.3932 -0.0506
 7266SOL    MW428838   5.326   2.534   1.903  0.4994  0.0662  0.0904
 7267SOL     OW28839   0.696   6.096   2.764  0.0687 -0.2445 -0.2264
 7267SOL    HW228840   0.714   6.003   2.745 -1.6646 -0.6433 -0.0501
 7267SOL    HW328841   0.693   6.137   2.678 -3.7300 -1.2863 -0.7709
 7267SOL    MW428842   0.698   6.089   2.750 -0.1149 -0.1135 -0.3191
 7268SOL     OW28843   3.114   0.286   6.434 -0.3490  0.6659  0.3102
 7268SOL    HW228844   3.138   0.209   6.485 -0.6608  0.6204  0.3881
 7268SOL    HW328845   3.085   0.350   6.499  0.6133  1.1206  0.3174
 7268SOL    MW428846   3.113   0.284   6.449  0.1327 -0.5579  0.2695
 7269SOL     OW28847   3.202   0.455   1.189  1.0345 -0.1251 -0.7825
 7269SOL    HW228848   3.252   0.444   1.108 -2.6036  0.6537 -3.3756
 7269SOL    HW328849   3.122   0.404   1.175 -0.0838  0.6852  2.0092
 7269SOL    MW428850   3.198   0.447   1.177  0.1367  0.1511  0.3010
 7270SOL     OW28851   5.675   2.664   1.656  0.1662  0.1698 -0.3486
 7270SOL    HW228852   5.580   2.663   1.653  0.1528 -0.8453  0.0096
 7270SOL    HW328853   5.697   2.614   1.735  1.0118 -0.6493 -1.0815
 7270SOL    MW428854   5.665   2.657   1.666  0.5474  0.2612  0.6805
 7271SOL     OW28855   4.181   1.325   4.407 -0.2511 -0.3976 -0.3690
 7271SOL    HW228856   4.196   1.240   4.364 -0.6272 -1.2594  1.1344
 7271SOL    HW328857   4.098   1.314   4.452 -0.3958  0.8611 -0.3150
 7271SOL    MW428858   4.172   1.312   4.407  0.2628 -0.0329  0.1475
 7272SOL     OW28859   3.470   3.358   0.727 -0.1638  0.1665  0.9186
 7272SOL    HW228860   3.458   3.414   0.650  0.9879 -1.3474 -0.4279
 7272SOL    HW328861   3.393   3.301   0.727  0.5704 -0.8645 -0.0635
 7272SOL    MW428862   3.458   3.358   0.717 -0.3295 -0.2366  0.1504
 7273SOL     OW28863   3.308   3.973   0.864  0.1173 -0.4323  0.1284
 7273SOL    HW228864   3.284   3.887   0.901  0.5417 -0.9164 -0.6940
 7273SOL    HW328865   3.367   4.010   0.929 -1.1944 -0.1137  1.1899
 7273SOL    MW428866   3.312   3.966   0.878 -0.3948  0.3497  0.0223
 7274SOL     OW28867   3.198   5.535   6.161  0.4223  0.5067 -0.4550
 7274SOL    HW228868   3.229   5.596   6.094 -1.2459  1.3530 -0.4929
 7274SOL    HW328869   3.149   5.468   6.113 -0.7717  1.1094 -0.1109
 7274SOL    MW428870   3.196   5.534   6.146  0.2536  0.5532 -0.2100
 7275SOL     OW28871   5.562   5.654   2.362  0.0367 -0.0975  0.2944
 7275SOL    HW228872   5.616   5.722   2.322  0.6615 -0.4164  0.5674
 7275SOL    HW328873   5.599   5.572   2.330  0.2196 -0.3428  1.1011
 7275SOL    MW428874   5.574   5.652   2.353 -0.1319  0.2238  0.2851
 7276SOL     OW28875   4.175   5.590   4.728  0.0085  0.1868  0.0354
 7276SOL    HW228876   4.192   5.615   4.819  0.2061  2.7563 -0.6514
 7276SOL    HW328877   4.187   5.495   4.728  1.9528  0.3260  2.2862
 7276SOL    MW428878   4.179   5.580   4.740  0.0995  0.6309 -0.2951
 7277SOL     OW28879   0.477   1.969   1.357  0.3178  0.2507  0.0809
 7277SOL    HW228880   0.484   1.915   1.279  2.0615  0.8386 -0.2121
 7277SOL    HW328881   0.445   2.054   1.325 -0.2535  0.0974  0.2220
 7277SOL    MW428882   0.474   1.973   1.343  0.0772 -0.2612 -0.0841
 7278SOL     OW28883   3.540   0.571   3.033 -0.2011 -0.5419  0.5783
 7278SOL    HW228884   3.512   0.653   2.992  0.8184 -0.0815  0.7764
 7278SOL    HW328885   3.462   0.539   3.079 -1.4887 -1.2298 -1.9130
 7278SOL    MW428886   3.526   0.577   3.034  0.3563 -0.6754  0.5482
 7279SOL     OW28887   5.276   3.550   4.154 -0.0358  0.3712  0.2772
 7279SOL    HW228888   5.191   3.508   4.144 -1.0035  2.1774  0.4887
 7279SOL    HW328889   5.292   3.551   4.249 -0.4333  1.2099  0.3464
 7279SOL    MW428890   5.267   3.545   4.165  0.0654 -0.1800 -0.2633
 7280SOL     OW28891   4.843   2.584   1.213 -0.7368 -0.0564  0.3759
 7280SOL    HW228892   4.808   2.497   1.194  1.8532 -0.8059 -1.6341
 7280SOL    HW328893   4.906   2.569   1.284 -0.4312  0.2182  0.1632
 7280SOL    MW428894   4.847   2.571   1.220 -0.2180  0.1684  0.0236
 7281SOL     OW28895   3.151   3.337   1.643  0.1578  0.3864 -0.2754
 7281SOL    HW228896   3.176   3.245   1.640  0.6651  0.4900  0.3502
 7281SOL    HW328897   3.083   3.346   1.576 -0.9215 -0.7478  0.6059
 7281SOL    MW428898   3.145   3.326   1.634  0.2417  0.1254  0.6384
 7282SOL     OW28899   2.832   0.176   3.452  0.0318  0.8295  0.1453
 7282SOL    HW228900   2.803   0.266   3.444  1.3967  1.1134 -2.5648
 7282SOL    HW328901   2.892   0.176   3.526 -0.7101  1.9090  0.7630
 7282SOL    MW428902   2.836   0.188   3.461 -0.2963 -0.1076  0.2599
 7283SOL     OW28903   3.631   2.925   3.361 -0.5832  0.0966  0.3103
 7283SOL    HW228904   3.645   2.842   3.407 -1.3307  0.2056  0.7472
 7283SOL    HW328905   3.556   2.909   3.305 -0.4099  0.3307  0.0111
 7283SOL    MW428906   3.623   2.912   3.360  0.8503 -0.5787 -0.5230
 7284SOL     OW28907   2.030   0.822   3.240  0.3375 -0.3725  0.6966
 7284SOL    HW228908   1.981   0.771   3.175 -1.7602  1.2153  0.8947
 7284SOL    HW328909   1.990   0.798   3.324  0.5251  0.2565  0.9704
 7284SOL    MW428910   2.018   0.812   3.242 -0.0935 -0.0172  0.5936
 7285SOL     OW28911   3.564   4.554   3.489  0.6701 -0.5497 -0.7644
 7285SOL    HW228912   3.572   4.514   3.403  2.5242 -0.0382 -0.8649
 7285SOL    HW328913   3.619   4.501   3.546 -1.9781 -2.0329  0.6106
 7285SOL    MW428914   3.572   4.542   3.485  0.0153 -0.6178 -0.0093
 7286SOL     OW28915   4.033   1.851   4.030 -0.4640 -0.2770  0.8483
 7286SOL    HW228916   4.029   1.876   3.937  1.0466 -0.4762  0.7066
 7286SOL    HW328917   4.006   1.759   4.031 -0.4432 -0.2889  0.5919
 7286SOL    MW428918   4.029   1.842   4.018  0.2418 -0.0020 -0.0369
 7287SOL     OW28919   4.229   6.398   0.618  0.3444  0.4140  0.1840
 7287SOL    HW228920   4.300   6.361   0.671  0.4351  0.8268  0.3537
 7287SOL    HW328921   4.261   6.485   0.593  0.5320  0.0202 -0.9987
 7287SOL    MW428922   4.243   6.405   0.622 -0.1402 -0.0944  0.0938
 7288SOL     OW28923   3.377   3.958   2.526  0.4544 -0.1524  0.3878
 7288SOL    HW228924   3.421   3.902   2.463  1.7517 -0.0655  1.1686
 7288SOL    HW328925   3.335   3.898   2.587 -0.9681 -0.2351 -0.6440
 7288SOL    MW428926   3.378   3.943   2.526  0.7192 -0.0600 -0.0118
 7289SOL     OW28927   1.884   5.932   4.874  0.1474 -0.1163  0.2982
 7289SOL    HW228928   1.911   5.874   4.802  1.5380  0.1009  0.6089
 7289SOL    HW328929   1.966   5.968   4.907 -0.5038  0.1062  1.7443
 7289SOL    MW428930   1.898   5.929   4.869 -0.3613  0.6091 -0.1842
 7290SOL     OW28931   5.663   2.539   5.509 -0.2491 -0.0414 -0.3210
 7290SOL    HW228932   5.581   2.582   5.485 -0.2952 -0.6869 -1.3600
 7290SOL    HW328933   5.651   2.447   5.483  0.5036 -0.3154  0.2581
 7290SOL    MW428934   5.651   2.532   5.503 -0.1264 -1.0556  0.2507
 7291SOL     OW28935   1.568   1.968   2.118  0.1170 -0.7962 -0.2649
 7291SOL    HW228936   1.533   1.926   2.039 -1.6261  0.9324 -0.4746
 7291SOL    HW328937   1.551   1.905   2.188 -0.3677 -1.4087 -0.9139
 7291SOL    MW428938   1.561   1.954   2.116 -0.2621  0.0489  0.0609
 7292SOL     OW28939   0.414   3.225   1.598  0.5893 -0.1426  0.2916
 7292SOL    HW228940   0.484   3.221   1.533 -2.0450  1.2360 -2.9474
 7292SOL    HW328941   0.354   3.155   1.573  0.6604 -1.2275  2.9194
 7292SOL    MW428942   0.415   3.216   1.586 -0.3931  0.7933 -0.4996
 7293SOL     OW28943   1.165   3.468   4.324  0.1003  0.0388 -0.7615
 7293SOL    HW228944   1.115   3.386   4.325 -0.7384  0.5507  0.1279
 7293SOL    HW328945   1.257   3.440   4.329 -0.2074 -0.8303  0.4662
 7293SOL    MW428946   1.171   3.453   4.325  0.0587 -0.3786  0.0674
 7294SOL     OW28947   0.802   1.529   4.003  0.0899  0.2105 -0.8581
 7294SOL    HW228948   0.879   1.474   4.020 -0.3431 -0.0817  0.2250
 7294SOL    HW328949   0.795   1.532   3.907  2.2641  1.3953 -1.0522
 7294SOL    MW428950   0.812   1.522   3.992  0.2312  0.2561  0.5836
 7295SOL     OW28951   2.379   4.377   1.653 -0.8020  0.2256  0.1427
 7295SOL    HW228952   2.379   4.377   1.557  1.1164  0.2681  0.1118
 7295SOL    HW328953   2.321   4.305   1.677 -1.6117  0.4513 -1.0274
 7295SOL    MW428954   2.372   4.368   1.643  0.0467 -0.5293 -0.9139
 7296SOL     OW28955   2.746   2.059   1.789 -0.1768  0.1136 -0.4520
 7296SOL    HW228956   2.765   2.078   1.697  0.5107  0.8012 -0.1753
 7296SOL    HW328957   2.718   1.967   1.788  0.4266 -0.0820 -1.2668
 7296SOL    MW428958   2.745   2.049   1.776 -0.1582  0.5537  0.0023
 7297SOL     OW28959   5.097   3.007   3.785 -0.3390  0.8438  0.2981
 7297SOL    HW228960   5.154   3.078   3.755 -0.6690  1.3079  0.7699
 7297SOL    HW328961   5.095   2.946   3.711  0.3694  1.0653  0.0869
 7297SOL    MW428962   5.104   3.008   3.771  0.2897  0.0025  0.3374
 7298SOL     OW28963   0.086   0.896   1.198  0.2261  0.0740  0.0985
 7298SOL    HW228964  -0.009   0.901   1.212 -0.1618 -2.8988 -0.7416
 7298SOL    HW328965   0.100   0.936   1.112 -0.1080  1.3356  0.6166
 7298SOL    MW428966   0.075   0.902   1.188  0.4205  0.2507 -0.5104
 7299SOL     OW28967   4.496   6.261   0.762  0.5235 -0.1626 -0.5175
 7299SOL    HW228968   4.468   6.315   0.836  1.5982  0.0186 -0.2254
 7299SOL    HW328969   4.432   6.190   0.759  1.0623 -0.7717  1.2778
 7299SOL    MW428970   4.484   6.259   0.771 -0.8423  0.1067 -0.4203
 7300SOL     OW28971   4.876   1.134   2.600  0.2371 -0.2786  0.4082
 7300SOL    HW228972   4.873   1.164   2.509  1.2837 -0.4449  0.3093
 7300SOL    HW328973   4.802   1.178   2.642 -0.4702 -0.4786 -0.5997
 7300SOL    MW428974   4.865   1.144   2.594  0.6207 -0.7006 -0.0630
 7301SOL     OW28975   6.139   1.320   5.602  0.4098 -0.1645  0.2286
 7301SOL    HW228976   6.094   1.297   5.521 -1.1844 -2.8217  1.7012
 7301SOL    HW328977   6.231   1.324   5.579  0.1848 -2.5282 -1.4484
 7301SOL    MW428978   6.145   1.318   5.588 -0.1092  0.1044  0.3583
 7302SOL     OW28979   2.003   6.293   5.077 -0.1845  0.1225  0.0028
 7302SOL    HW228980   2.059   6.338   5.140  0.2641  2.1305 -1.7291
 7302SOL    HW328981   2.003   6.202   5.105  0.2744  0.8765  2.6599
 7302SOL    MW428982   2.010   6.287   5.089 -0.0409  0.3274 -0.0040
 7303SOL     OW28983   3.436   3.458   4.580 -0.3856  0.6611  0.5972
 7303SOL    HW228984   3.419   3.545   4.543 -0.0217  0.1401 -0.8778
 7303SOL    HW328985   3.355   3.409   4.565  0.3121 -0.0627 -1.1412
 7303SOL    MW428986   3.423   3.463   4.573 -0.1851  0.3513 -0.8178
 7304SOL     OW28987   4.058   2.953   1.623  0.4708 -0.2852  0.2914
 7304SOL    HW228988   4.079   2.895   1.697  0.2454 -0.5957  0.1121
 7304SOL    HW328989   3.973   2.991   1.647  0.3976 -0.3863  0.1919
 7304SOL    MW428990   4.050   2.950   1.636 -0.6526  0.2178 -0.1260
 7305SOL     OW28991   5.873   6.084   2.644  0.5675  0.1466 -0.2960
 7305SOL    HW228992   5.799   6.035   2.682  1.0978 -0.6786 -0.2892
 7305SOL    HW328993   5.931   6.016   2.610  1.8251  0.7322  0.6215
 7305SOL    MW428994   5.871   6.068   2.644 -0.3666  0.1770  0.0650
 7306SOL     OW28995   1.381   0.923   2.589 -0.2533  0.1743  0.1360
 7306SOL    HW228996   1.299   0.925   2.540  0.7358  3.7675 -1.7214
 7306SOL    HW328997   1.435   0.860   2.542 -1.3125 -0.9025  0.3146
 7306SOL    MW428998   1.377   0.915   2.576  0.6365 -0.2605 -0.2796
 7307SOL     OW28999   6.376   2.296   3.346  0.5271 -0.6939 -0.1683
 7307SOL    HW229000   6.451   2.255   3.303 -0.8641 -2.0912 -1.4280
 7307SOL    HW329001   6.340   2.228   3.402  0.2265 -0.0328  0.4580
 7307SOL    MW429002   6.381   2.282   3.347 -0.2689  0.0907 -0.0052
 7308SOL     OW29003   6.214   0.443   2.964 -0.1578  0.0941 -0.3566
 7308SOL    HW229004   6.140   0.467   3.020 -0.3994 -0.3725 -0.4729
 7308SOL    HW329005   6.291   0.475   3.012 -0.4048  0.2236 -0.0417
 7308SOL    MW429006   6.214   0.451   2.978  0.3138 -0.1148 -0.8906
 7309SOL     OW29007   1.459   3.626   0.317  0.2013  0.3951  0.2265
 7309SOL    HW229008   1.485   3.718   0.317  1.9624 -0.0654 -0.5181
 7309SOL    HW329009   1.392   3.620   0.386  0.4232  2.1147  0.6380
 7309SOL    MW429010   1.453   3.637   0.326 -0.1773 -0.3324 -0.0500
 7310SOL     OW29011   1.795   3.234   4.357 -0.3659  0.3204  0.2200
 7310SOL    HW229012   1.841   3.151   4.347 -0.4847  0.3230 -0.3839
 7310SOL    HW329013   1.810   3.259   4.449 -0.5661 -0.5055  0.4867
 7310SOL    MW429014   1.803   3.226   4.368 -0.0540  0.0699 -0.4243
 7311SOL     OW29015   3.557   2.643   5.245 -0.2433 -0.2947  0.5534
 7311SOL    HW229016   3.500   2.713   5.278 -0.1328  0.1887 -0.2264
 7311SOL    HW329017   3.580   2.591   5.322 -1.3370 -0.2016  0.9481
 7311SOL    MW429018   3.553   2.646   5.259 -0.1427 -0.8826  0.0114
 7312SOL     OW29019   0.647   0.171   1.487 -0.7127  0.7783 -0.0260
 7312SOL    HW229020   0.734   0.187   1.450 -0.7865 -0.2355 -0.6749
 7312SOL    HW329021   0.655   0.199   1.579  0.5550 -0.0725  0.1453
 7312SOL    MW429022   0.660   0.177   1.495 -0.4881  0.7274  0.2432
 7313SOL     OW29023   2.328   4.741   0.484  0.3324 -0.5408  0.3639
 7313SOL    HW229024   2.238   4.714   0.465  0.7049 -1.3602 -0.3004
 7313SOL    HW329025   2.333   4.744   0.579 -0.1491 -1.3786  0.4249
 7313SOL    MW429026   2.316   4.738   0.494 -0.0785 -0.0938  0.5298
 7314SOL     OW29027   0.324   4.284   1.663  0.3420 -0.4724  0.7694
 7314SOL    HW229028   0.333   4.219   1.733 -2.7166 -0.3912  1.3742
 7314SOL    HW329029   0.233   4.310   1.666  0.5777  1.0732 -1.9702
 7314SOL    MW429030   0.313   4.279   1.673 -0.0322 -0.0869  0.2428
 7315SOL     OW29031   2.208   4.429   0.620 -0.7397 -0.3218 -0.0888
 7315SOL    HW229032   2.117   4.444   0.645 -0.8993  0.9982 -1.3494
 7315SOL    HW329033   2.207   4.426   0.524  0.2284 -2.5883 -0.0911
 7315SOL    MW429034   2.196   4.431   0.611 -0.0397 -0.0254 -0.3857
 7316SOL     OW29035   5.930   0.020   4.008 -0.0800  0.1612 -0.0584
 7316SOL    HW229036   5.969  -0.053   4.056 -0.8629 -1.5962 -1.9500
 7316SOL    HW329037   5.836   0.011   4.022 -0.2981 -0.1387 -1.4866
 7316SOL    MW429038   5.923   0.009   4.016  0.0356  0.3117 -0.3747
 7317SOL     OW29039   0.594   4.767   1.343 -0.1463  0.0370  0.5423
 7317SOL    HW229040   0.634   4.854   1.333 -0.1251  0.3687  3.0389
 7317SOL    HW329041   0.519   4.769   1.284  0.3902  1.3953 -0.1494
 7317SOL    MW429042   0.589   4.779   1.334 -0.4051  0.4127  0.1588
 7318SOL     OW29043   6.064   3.769   1.912 -0.0194 -0.2417  0.2344
 7318SOL    HW229044   6.066   3.692   1.969 -2.4352  0.0211  0.7792
 7318SOL    HW329045   6.032   3.840   1.968  1.8335  1.1274 -0.3493
 7318SOL    MW429046   6.060   3.768   1.927  0.6711 -0.1503 -0.0175
 7319SOL     OW29047   0.557   1.390   3.622  0.4051  0.8506  0.2276
 7319SOL    HW229048   0.616   1.442   3.567 -0.8825  1.6042 -0.5002
 7319SOL    HW329049   0.498   1.455   3.661 -1.1019 -0.0003 -0.5190
 7319SOL    MW429050   0.557   1.405   3.620 -0.4176  0.4166  0.3071
 7320SOL     OW29051   0.361   0.759   4.086  0.3121 -0.3549  0.2357
 7320SOL    HW229052   0.339   0.852   4.091 -0.1171 -0.4578  0.2924
 7320SOL    HW329053   0.400   0.748   4.000  0.3411 -0.1260  0.2187
 7320SOL    MW429054   0.363   0.770   4.075 -0.3165  0.1245  0.0084
 7321SOL     OW29055   2.516   1.060   5.834  0.2227  0.5090  0.4073
 7321SOL    HW229056   2.491   0.972   5.862  0.9395  0.2845  0.3642
 7321SOL    HW329057   2.564   1.047   5.752  3.3968  0.5644  2.1238
 7321SOL    MW429058   2.519   1.047   5.827  0.0527 -0.4345 -0.0926
 7322SOL     OW29059   3.665   1.413   6.385 -0.5163  0.1707  0.1761
 7322SOL    HW229060   3.721   1.345   6.423  0.7611  1.3269  0.4815
 7322SOL    HW329061   3.717   1.493   6.392 -1.4823  0.9807 -1.2537
 7322SOL    MW429062   3.679   1.415   6.391 -0.1387 -0.8729  0.3989
 7323SOL     OW29063   0.464   3.774   3.981 -0.2181 -0.3840  0.3858
 7323SOL    HW229064   0.402   3.708   3.951 -0.3813  0.4405 -1.2126
 7323SOL    HW329065   0.548   3.728   3.988 -0.5583 -1.0044  0.3849
 7323SOL    MW429066   0.467   3.759   3.978 -0.0148 -0.6306  0.0130
 7324SOL     OW29067   0.176   1.742   5.071 -0.0664 -0.0714  0.1563
 7324SOL    HW229068   0.131   1.740   4.986 -0.2977  0.7698  0.2528
 7324SOL    HW329069   0.252   1.798   5.056 -1.5350  2.3049  1.1753
 7324SOL    MW429070   0.180   1.749   5.058  0.5381  0.1675 -0.2785
 7325SOL     OW29071   4.521   5.660   2.452 -0.0461  0.1142 -0.5422
 7325SOL    HW229072   4.586   5.604   2.409 -2.2120 -1.4327 -2.0466
 7325SOL    HW329073   4.540   5.748   2.420  0.4798 -0.5088 -2.0103
 7325SOL    MW429074   4.532   5.664   2.442  0.2371 -0.3051  0.3440
 7326SOL     OW29075   4.732   2.328   0.032 -0.7017  0.2297 -0.1769
 7326SOL    HW229076   4.811   2.378   0.049 -0.0844 -1.0684  0.8621
 7326SOL    HW329077   4.668   2.394   0.005  0.9295  1.2179 -1.8659
 7326SOL    MW429078   4.734   2.344   0.030  0.2260  0.3493 -0.7493
 7327SOL     OW29079   2.099   0.986   0.268 -0.1269  0.0120  0.1131
 7327SOL    HW229080   2.028   0.945   0.318  1.4611 -0.4826  2.0707
 7327SOL    HW329081   2.091   1.080   0.288  0.5530 -0.1909  1.4335
 7327SOL    MW429082   2.088   0.993   0.277  0.1339  0.0285  0.2505
 7328SOL     OW29083   1.183   5.640   2.492 -0.6138 -0.1239 -0.4218
 7328SOL    HW229084   1.152   5.656   2.402  2.1248 -2.1010 -1.8420
 7328SOL    HW329085   1.207   5.727   2.524 -0.3046  0.4690 -2.1521
 7328SOL    MW429086   1.182   5.654   2.484 -0.0346 -0.1645 -0.3718
 7329SOL     OW29087   4.341   0.733   5.124  0.1559 -0.1829  0.4867
 7329SOL    HW229088   4.271   0.680   5.162 -0.9688 -1.0810 -2.5781
 7329SOL    HW329089   4.378   0.678   5.055 -1.2345  2.9526 -3.0842
 7329SOL    MW429090   4.337   0.719   5.120  0.1709 -0.0254  0.0935
 7330SOL     OW29091   2.220   4.337   3.524 -0.6123 -0.0742  0.1953
 7330SOL    HW229092   2.280   4.349   3.598 -0.9365  0.8312  0.3176
 7330SOL    HW329093   2.196   4.244   3.528  0.8790 -0.4904  0.0523
 7330SOL    MW429094   2.225   4.326   3.534 -0.1779 -0.6972  0.2492
 7331SOL     OW29095   2.838   5.878   2.992  0.3032 -0.0650  0.4386
 7331SOL    HW229096   2.858   5.951   2.933 -1.2933  1.1534  1.3137
 7331SOL    HW329097   2.743   5.868   2.987  0.2577 -0.7040  1.9025
 7331SOL    MW429098   2.828   5.886   2.984 -0.1928  0.3855  0.3185
 7332SOL     OW29099   4.921   4.992   3.056  0.0644  0.2320  0.0999
 7332SOL    HW229100   4.864   4.983   2.979  0.1357  1.7505 -0.1480
 7332SOL    HW329101   5.006   4.958   3.027 -0.3797 -0.9497  0.1124
 7332SOL    MW429102   4.925   4.986   3.042 -0.4179 -0.3802  0.5519
 7333SOL     OW29103   2.222   1.165   5.097 -0.0397  0.3839 -0.6443
 7333SOL    HW229104   2.185   1.093   5.046  0.4748 -0.4450  0.1416
 7333SOL    HW329105   2.179   1.159   5.182  0.8126  0.3241 -0.2128
 7333SOL    MW429106   2.211   1.155   5.102  0.6237 -0.9185  0.7708
 7334SOL     OW29107   2.733   2.989   3.750  0.3389 -0.4670  0.4063
 7334SOL    HW229108   2.726   2.897   3.773  0.9090 -0.4163  0.7973
 7334SOL    HW329109   2.660   3.004   3.689 -0.5190 -0.8735  1.3040
 7334SOL    MW429110   2.723   2.979   3.745  0.3381  0.1665 -0.1430
 7335SOL     OW29111   2.024   5.015   2.220 -0.3880  0.4379 -0.0068
 7335SOL    HW229112   1.984   4.957   2.285  0.1565 -0.8839 -0.8016
 7335SOL    HW329113   1.971   5.004   2.142  0.6638 -0.2905 -0.6562
 7335SOL    MW429114   2.012   5.006   2.219 -0.1964 -0.2993 -0.3590
 7336SOL     OW29115   4.568   2.781   2.891  0.4281  0.2983 -0.8074
 7336SOL    HW229116   4.606   2.869   2.881 -0.6708  0.9300  0.3329
 7336SOL    HW329117   4.509   2.789   2.965  1.4932 -1.8303  0.3556
 7336SOL    MW429118   4.565   2.794   2.899  0.2324 -0.0152  0.6504
 7337SOL     OW29119   1.335   4.081   4.197  0.1512  0.3292 -0.6443
 7337SOL    HW229120   1.360   4.076   4.290  1.6001 -0.7223 -1.0585
 7337SOL    HW329121   1.305   3.993   4.175 -0.3288  0.6122 -1.1478
 7337SOL    MW429122   1.334   4.069   4.207 -0.1514  0.0634  0.5378
 7338SOL     OW29123   5.277   1.581   3.254  0.2263 -0.5288 -0.3662
 7338SOL    HW229124   5.199   1.629   3.283  0.1176 -0.8547 -0.1116
 7338SOL    HW329125   5.349   1.643   3.269 -0.0987  0.2115 -1.6983
 7338SOL    MW429126   5.276   1.596   3.260 -0.0721 -0.5080 -0.6845
 7339SOL     OW29127   3.486   5.992   2.515  0.1718 -0.2440  0.2529
 7339SOL    HW229128   3.474   5.903   2.548  2.4005 -0.9407 -0.6438
 7339SOL    HW329129   3.564   5.987   2.459 -0.7851  1.8530 -1.4225
 7339SOL    MW429130   3.495   5.980   2.512 -0.3867  0.0240  0.5513
 7340SOL     OW29131   6.322   2.516   6.180 -0.5577 -0.0142 -0.1172
 7340SOL    HW229132   6.232   2.530   6.210 -0.0279  2.6350  0.4701
 7340SOL    HW329133   6.313   2.500   6.086 -1.6134  1.1767 -0.2502
 7340SOL    MW429134   6.309   2.516   6.172 -0.1720 -0.0877 -0.1680
 7341SOL     OW29135   5.109   4.292   4.672  0.3836 -0.1919 -0.1139
 7341SOL    HW229136   5.148   4.370   4.712 -0.7043  1.1237 -1.5212
 7341SOL    HW329137   5.015   4.299   4.691  0.5071 -2.4275  1.7594
 7341SOL    MW429138   5.102   4.303   4.680 -0.1035  0.2756 -0.2331
 7342SOL     OW29139   1.220   0.629   2.396 -0.6296  0.0585 -0.1206
 7342SOL    HW229140   1.202   0.704   2.453  0.9383  0.1634  0.2968
 7342SOL    HW329141   1.134   0.591   2.378 -1.3673  1.3879  0.4338
 7342SOL    MW429142   1.206   0.634   2.401 -0.6321 -0.5542 -0.4061
 7343SOL     OW29143   6.373   0.567   5.212 -0.3127 -0.4061  0.1407
 7343SOL    HW229144   6.373   0.473   5.194 -0.0866 -0.5557  0.8751
 7343SOL    HW329145   6.463   0.595   5.193 -1.2638  0.4619 -3.8688
 7343SOL    MW429146   6.385   0.559   5.207  0.4135 -0.3133  0.1534
 7344SOL     OW29147   1.894   1.778   3.547  0.0088 -0.5178  0.0272
 7344SOL    HW229148   1.915   1.715   3.616 -0.5511 -0.0553  0.6349
 7344SOL    HW329149   1.976   1.825   3.531 -0.2964  0.7194  1.7936
 7344SOL    MW429150   1.907   1.776   3.554 -0.4593 -0.7802  0.4048
 7345SOL     OW29151   6.034   1.062   6.340  0.1898  0.7561  0.1026
 7345SOL    HW229152   6.070   0.996   6.281 -1.0537  0.3590 -0.2418
 7345SOL    HW329153   5.961   1.100   6.292 -1.1327  0.1264  1.5335
 7345SOL    MW429154   6.029   1.059   6.326 -0.0356 -0.9884 -0.0941
 7346SOL     OW29155   4.936   4.553   1.429  0.0533 -0.0776  0.2729
 7346SOL    HW229156   4.841   4.550   1.440 -0.3232  1.2291 -2.0178
 7346SOL    HW329157   4.950   4.607   1.352  2.4460 -3.6775 -2.1434
 7346SOL    MW429158   4.925   4.560   1.421  0.0669  0.4321  0.2851
 7347SOL     OW29159   4.877   3.272   5.415 -0.0367 -0.5566 -0.2132
 7347SOL    HW229160   4.787   3.296   5.435 -0.2933 -2.3581  1.0310
 7347SOL    HW329161   4.870   3.204   5.349  0.4664 -0.1718 -0.6779
 7347SOL    MW429162   4.864   3.266   5.409  0.0023 -0.3228 -0.7312
 7348SOL     OW29163   1.290   1.494   2.711  0.7522  0.1579 -0.1109
 7348SOL    HW229164   1.276   1.403   2.734  1.5607 -0.5532 -2.2145
 7348SOL    HW329165   1.320   1.535   2.792 -0.2054 -1.2879  1.0139
 7348SOL    MW429166   1.292   1.488   2.725 -0.5012  0.3703 -0.3130
 7349SOL     OW29167   0.024   4.339   3.707  0.4742  0.0848  0.3739
 7349SOL    HW229168   0.019   4.356   3.613 -0.1872 -0.5984  0.2716
 7349SOL    HW329169   0.111   4.369   3.733  0.7943 -0.0394 -0.5210
 7349SOL    MW429170   0.035   4.345   3.698 -0.4816 -0.1134  0.1283
 7350SOL     OW29171   0.912   4.484   0.443 -0.2834  0.1116  0.3121
 7350SOL    HW229172   0.820   4.509   0.431 -0.8271 -1.9904 -0.3946
 7350SOL    HW329173   0.908   4.396   0.479  1.4980  0.3739  1.2665
 7350SOL    MW429174   0.899   4.476   0.446  0.3725  0.2493  0.4463
 7351SOL     OW29175   5.154   0.485   0.313 -0.2425  0.5313 -0.2723
 7351SOL    HW229176   5.116   0.397   0.324 -0.2434  0.1237 -2.8923
 7351SOL    HW329177   5.247   0.469   0.302  0.3075  1.2358  2.6846
 7351SOL    MW429178   5.161   0.471   0.313 -0.6321  0.3637  0.2693
 7352SOL     OW29179   6.122   6.374   4.689  0.4005 -1.0235  0.1530
 7352SOL    HW229180   6.119   6.470   4.689 -2.0643 -1.0283 -0.6363
 7352SOL    HW329181   6.176   6.352   4.613  0.2089 -0.2561 -0.2168
 7352SOL    MW429182   6.129   6.384   4.679 -0.6702 -0.3176 -0.2794
 7353SOL     OW29183   3.816   0.672   6.064 -0.1185 -0.1293  0.3802
 7353SOL    HW229184   3.885   0.641   6.006 -0.2090  0.5553 -0.1101
 7353SOL    HW329185   3.737   0.627   6.035  0.1000 -0.8870  0.9199
 7353SOL    MW429186   3.815   0.662   6.053 -0.6551 -0.2003 -0.1553
 7354SOL     OW29187   3.267   2.176   2.867  0.3788 -0.2576 -0.0537
 7354SOL    HW229188   3.250   2.129   2.950 -0.3032  0.4111  0.1977
 7354SOL    HW329189   3.182   2.175   2.822 -0.2254  2.4331  0.8458
 7354SOL    MW429190   3.253   2.169   2.872  0.0097 -0.5277  0.6150
 7355SOL     OW29191   3.895   2.119   3.066  0.3888  0.1813 -0.2307
 7355SOL    HW229192   3.911   2.085   2.978  0.4672  1.2524 -0.6507
 7355SOL    HW329193   3.978   2.110   3.111  1.2046  2.2203 -1.1943
 7355SOL    MW429194   3.908   2.114   3.060 -0.0062 -0.2499  0.0831
 7356SOL     OW29195   4.779   3.462   3.919  0.0926  0.1091  0.4894
 7356SOL    HW229196   4.767   3.523   3.992 -1.2421 -0.8017  1.0544
 7356SOL    HW329197   4.698   3.411   3.916  0.7248 -0.8772 -0.7000
 7356SOL    MW429198   4.767   3.464   3.928  0.2387  0.4836 -0.0163
 7357SOL     OW29199   5.827   2.108   3.900 -0.2492  0.2078 -0.1901
 7357SOL    HW229200   5.889   2.037   3.915 -1.9911 -1.1024  1.2017
 7357SOL    HW329201   5.881   2.187   3.899  1.8581 -1.1166 -2.5698
 7357SOL    MW429202   5.843   2.109   3.902 -0.2472 -0.2383  0.5018
 7358SOL     OW29203   5.116   4.562   0.427  0.0485 -0.4467 -0.3168
 7358SOL    HW229204   5.059   4.626   0.469  1.9304  0.8504  0.4443
 7358SOL    HW329205   5.108   4.483   0.480 -0.9312 -0.2547 -0.1665
 7358SOL    MW429206   5.108   4.560   0.440 -0.3581  0.5639  0.0357
 7359SOL     OW29207   1.072   0.267   2.454  0.0243 -0.2000 -0.1348
 7359SOL    HW229208   1.103   0.287   2.542 -1.6180 -1.3293  0.7532
 7359SOL    HW329209   1.106   0.180   2.436  0.4077  0.0537 -0.6552
 7359SOL    MW429210   1.081   0.258   2.463 -0.5175  0.4915  0.3916
 7360SOL     OW29211   1.498   2.561   1.570 -0.1787  0.0182  0.2751
 7360SOL    HW229212   1.439   2.596   1.503  0.4122  0.8581  0.1897
 7360SOL    HW329213   1.585   2.588   1.543  0.0204  0.8939  1.6941
 7360SOL    MW429214   1.502   2.569   1.557 -0.3196 -0.2920 -0.2202
 7361SOL     OW29215   6.410  -0.001   5.319 -0.7240 -0.0910  0.0149
 7361SOL    HW229216   6.423   0.068   5.384  3.9698  1.0558 -1.7611
 7361SOL    HW329217   6.462  -0.075   5.352  2.6211  0.8531 -2.5400
 7361SOL    MW429218   6.419  -0.002   5.332 -0.9154 -0.1952  0.1887
 7362SOL     OW29219   3.608   3.909   4.062 -0.2143  0.0140 -0.2589
 7362SOL    HW229220   3.632   3.975   3.997  0.0160 -0.5310 -0.7392
 7362SOL    HW329221   3.513   3.906   4.059 -0.1666 -1.1168 -1.7292
 7362SOL    MW429222   3.599   3.917   4.053 -0.2522 -0.0696  0.3993
 7363SOL     OW29223   4.701   6.139   1.058 -0.1949  0.6277  0.4765
 7363SOL    HW229224   4.700   6.215   1.000  0.3664  1.6107  1.7003
 7363SOL    HW329225   4.687   6.176   1.145 -1.8527 -0.8832  0.9069
 7363SOL    MW429226   4.699   6.154   1.062  0.1533  0.2515 -0.4695
 7364SOL     OW29227   0.550   6.253   3.124 -0.3304 -0.2185 -0.0242
 7364SOL    HW229228   0.626   6.198   3.103 -1.3736 -1.2852 -1.1734
 7364SOL    HW329229   0.557   6.268   3.218  0.9873 -0.7785 -0.0102
 7364SOL    MW429230   0.561   6.248   3.134  0.5118 -0.9069 -0.2976
 7365SOL     OW29231   0.081   2.489   2.680 -0.0063  0.0769 -0.4751
 7365SOL    HW229232   0.067   2.458   2.591 -1.7801  1.3201 -0.6870
 7365SOL    HW329233   0.061   2.414   2.736 -2.3787  0.2085 -1.0405
 7365SOL    MW429234   0.076   2.475   2.676 -0.1205 -0.6794  0.6344
 7366SOL     OW29235   2.354   2.953   1.784 -0.4389 -0.3738 -0.0643
 7366SOL    HW229236   2.395   2.939   1.699  1.5906  0.8117  0.6528
 7366SOL    HW329237   2.387   2.880   1.838 -0.4141 -0.2281  0.1200
 7366SOL    MW429238   2.364   2.941   1.780  0.3875 -0.2559  0.6001
 7367SOL     OW29239   3.052   0.436   4.617 -0.0875  0.0056  0.0840
 7367SOL    HW229240   3.042   0.414   4.525 -2.5631 -0.0379  0.3064
 7367SOL    HW329241   2.966   0.422   4.656  0.7809  0.3728  2.3501
 7367SOL    MW429242   3.040   0.431   4.610  0.6394 -0.0181 -0.7864
 7368SOL     OW29243   2.057   2.177   0.372  0.3122 -0.2373  0.0847
 7368SOL    HW229244   1.962   2.171   0.376  0.0366  1.4988 -1.8451
 7368SOL    HW329245   2.074   2.266   0.341  2.4610 -1.1850 -1.7939
 7368SOL    MW429246   2.047   2.188   0.369  0.7083  0.0185  0.1017
 7369SOL     OW29247   1.249   3.241   5.977  0.3008  0.1485  0.5374
 7369SOL    HW229248   1.156   3.241   5.954  0.3450  1.6797  0.2688
 7369SOL    HW329249   1.277   3.150   5.965 -0.8202 -0.0556 -0.7565
 7369SOL    MW429250   1.241   3.229   5.973  0.8109 -0.5410 -0.3845
 7370SOL     OW29251   6.226   4.142   1.624 -0.2742 -0.1204 -0.3145
 7370SOL    HW229252   6.138   4.116   1.649 -0.5405  0.5289 -0.5466
 7370SOL    HW329253   6.216   4.232   1.592  0.0295 -0.9557 -2.9134
 7370SOL    MW429254   6.213   4.151   1.623 -0.2783  0.4839  0.0542
 7371SOL     OW29255   0.475   4.100   0.274  0.2593 -0.2246  0.1662
 7371SOL    HW229256   0.543   4.038   0.249  1.4199  1.2482 -0.4780
 7371SOL    HW329257   0.457   4.081   0.366  2.7117  0.3508  0.8325
 7371SOL    MW429258   0.482   4.090   0.283 -0.5692  0.5677  0.0833
 7372SOL     OW29259   2.803   5.287   1.852 -0.7593  0.3571  0.3089
 7372SOL    HW229260   2.816   5.276   1.758 -1.5148  1.5819  0.0403
 7372SOL    HW329261   2.870   5.350   1.879 -0.5981  0.0743  0.5790
 7372SOL    MW429262   2.813   5.294   1.843  0.2161  0.2579  0.0525
 7373SOL     OW29263   0.856   4.246   1.511 -0.1002  0.1908 -0.3072
 7373SOL    HW229264   0.925   4.192   1.551 -1.5287 -0.1587  1.8256
 7373SOL    HW329265   0.882   4.336   1.533  0.4383  0.1618 -0.8011
 7373SOL    MW429266   0.869   4.251   1.519  0.3769 -0.1381  0.5280
 7374SOL     OW29267   2.944   5.570   2.648  0.5782  0.0888  0.2774
 7374SOL    HW229268   3.034   5.575   2.618 -0.2062 -0.0355 -2.2918
 7374SOL    HW329269   2.891   5.595   2.573 -1.6099 -1.4428  1.1654
 7374SOL    MW429270   2.949   5.574   2.634  0.0736  0.8719 -0.0577
 7375SOL     OW29271   1.002   3.218   5.830  0.2533 -0.4789 -0.1173
 7375SOL    HW229272   0.925   3.162   5.833 -0.2523  0.1369 -1.1669
 7375SOL    HW329273   0.968   3.308   5.832  0.9892 -0.1973  0.3939
 7375SOL    MW429274   0.987   3.223   5.831  0.0939 -0.1605  0.0150
 7376SOL     OW29275   0.915   0.608   0.397 -0.6089  0.2457 -0.3700
 7376SOL    HW229276   0.833   0.654   0.410 -0.6517 -0.3412  1.7786
 7376SOL    HW329277   0.891   0.516   0.396  0.0228  0.0638  0.4058
 7376SOL    MW429278   0.901   0.602   0.398 -0.0687  0.1284 -0.2890
 7377SOL     OW29279   2.667   3.291   3.567 -0.6038  0.0809 -0.2994
 7377SOL    HW229280   2.662   3.283   3.663 -2.6361 -0.9870 -0.4586
 7377SOL    HW329281   2.634   3.379   3.550  2.9353  1.6629  0.1151
 7377SOL    MW429282   2.662   3.302   3.578  0.0294  0.0344  0.0394
 7378SOL     OW29283   2.793   6.294   3.690  0.1580 -0.1778 -0.2892
 7378SOL    HW229284   2.736   6.263   3.619  0.4487  0.4189 -0.8001
 7378SOL    HW329285   2.846   6.218   3.713 -0.5234 -0.6108 -0.1267
 7378SOL    MW429286   2.793   6.280   3.683 -0.0534  0.2851 -0.1718
 7379SOL     OW29287   4.028   0.891   3.660  0.0602  0.0055 -0.1594
 7379SOL    HW229288   4.059   0.849   3.580  1.0838  0.2067  0.1093
 7379SOL    HW329289   4.062   0.836   3.731  1.8395  1.4893  0.2184
 7379SOL    MW429290   4.037   0.878   3.659 -0.0570 -0.2921  0.2257
 7380SOL     OW29291   1.192   0.559   3.378  0.3402 -0.2118 -0.4877
 7380SOL    HW229292   1.101   0.580   3.398  0.4051 -0.5519  0.1915
 7380SOL    HW329293   1.221   0.629   3.319 -0.8207 -0.9288 -1.9854
 7380SOL    MW429294   1.184   0.571   3.373 -0.3232  0.5834  0.4999
 7381SOL     OW29295   0.316   1.776   0.794  0.0051  0.4014  0.0812
 7381SOL    HW229296   0.363   1.732   0.723  1.3062  0.4296  0.8952
 7381SOL    HW329297   0.264   1.844   0.749 -0.6566 -0.7700 -1.0041
 7381SOL    MW429298   0.315   1.779   0.779  0.1602  0.1254  0.1339
 7382SOL     OW29299   0.370   0.554   2.805 -0.1504 -0.3353 -0.3730
 7382SOL    HW229300   0.438   0.539   2.870 -1.1078 -1.6687  0.3584
 7382SOL    HW329301   0.326   0.470   2.796 -1.2597  0.3151 -1.3443
 7382SOL    MW429302   0.373   0.541   2.812 -0.1441 -0.0753 -0.0777
 7383SOL     OW29303   4.490   3.080   4.110 -0.5711 -0.4028  0.1434
 7383SOL    HW229304   4.516   3.153   4.054  1.5139 -1.0149  0.2321
 7383SOL    HW329305   4.491   3.004   4.051  0.2490 -0.8211  0.6766
 7383SOL    MW429306   4.494   3.080   4.094  0.3604 -0.2655  0.4260
 7384SOL     OW29307   6.017   5.237   2.078 -0.2002 -0.3172  0.4034
 7384SOL    HW229308   5.955   5.292   2.127  0.5219 -0.1939  1.2000
 7384SOL    HW329309   5.983   5.237   1.989 -2.8404 -2.3787  1.2741
 7384SOL    MW429310   6.004   5.244   2.073 -0.1260 -0.2265  0.0720
 7385SOL     OW29311   5.101   3.323   2.496 -0.0926 -0.1469  0.1363
 7385SOL    HW229312   5.160   3.251   2.473  1.2260  0.8863  0.1268
 7385SOL    HW329313   5.014   3.292   2.471  0.6449 -1.0767 -1.4560
 7385SOL    MW429314   5.098   3.309   2.489 -0.4100 -0.4092  0.0031
 7386SOL     OW29315   2.917   3.871   5.696  0.8019 -0.5019  0.0737
 7386SOL    HW229316   2.887   3.878   5.787  0.7771 -2.3674  0.2552
 7386SOL    HW329317   2.851   3.918   5.645  0.1560 -0.4681  0.9074
 7386SOL    MW429318   2.904   3.878   5.702 -0.1331  0.0093  0.5355
 7387SOL     OW29319   2.758   3.200   3.268 -0.0662 -0.2204 -0.9025
 7387SOL    HW229320   2.784   3.162   3.184  0.9277  0.0574 -0.7287
 7387SOL    HW329321   2.752   3.126   3.328  1.3567 -0.1745 -0.6903
 7387SOL    MW429322   2.760   3.185   3.265  0.4528 -0.4667 -0.1572
 7388SOL     OW29323   2.103   5.727   3.069  0.4303 -0.0177 -0.2607
 7388SOL    HW229324   2.180   5.760   3.115 -0.4851  0.4489  0.9887
 7388SOL    HW329325   2.029   5.752   3.125 -0.5629 -1.2002 -0.9999
 7388SOL    MW429326   2.104   5.735   3.082 -0.1636  0.5802  0.7435
 7389SOL     OW29327   1.189   6.119   5.761 -0.2934 -0.4651  0.6171
 7389SOL    HW229328   1.134   6.125   5.840 -2.3787 -1.4048 -0.6785
 7389SOL    HW329329   1.190   6.025   5.740 -0.0223 -0.1892 -0.6410
 7389SOL    MW429330   1.182   6.107   5.769 -0.7459 -0.9550  0.0179
 7390SOL     OW29331   3.882   0.048   3.629 -0.6305 -0.5099 -0.0458
 7390SOL    HW229332   3.877   0.007   3.716 -1.0959  0.8702  0.6050
 7390SOL    HW329333   3.860   0.140   3.645  3.8677  0.9623 -0.7855
 7390SOL    MW429334   3.879   0.055   3.643  0.7233 -0.4684  0.0251
 7391SOL     OW29335   5.914   1.008   0.585 -0.7100  0.1365  0.0174
 7391SOL    HW229336   5.830   1.012   0.632  0.6184 -0.6784  2.6832
 7391SOL    HW329337   5.940   1.100   0.575 -2.5334  0.4889 -2.2060
 7391SOL    MW429338   5.906   1.021   0.590  0.0836  0.8158  0.2086
 7392SOL     OW29339   5.873   4.522   1.658 -0.0174 -0.1134  0.2871
 7392SOL    HW229340   5.813   4.459   1.620  1.2214 -0.4480 -1.2630
 7392SOL    HW329341   5.821   4.570   1.722 -1.8831 -0.4640 -0.8804
 7392SOL    MW429342   5.859   4.520   1.661  0.2737 -0.1481 -0.1650
 7393SOL     OW29343   6.136   0.481   3.374 -0.1395  0.1522 -0.1859
 7393SOL    HW229344   6.102   0.496   3.286 -0.2701  2.5783  0.2220
 7393SOL    HW329345   6.230   0.498   3.367 -0.5003  2.8737  0.5798
 7393SOL    MW429346   6.144   0.485   3.362  0.6790 -0.7408  0.1789
 7394SOL     OW29347   2.616   4.949   0.843 -0.3787  0.2914 -0.1145
 7394SOL    HW229348   2.711   4.941   0.828 -0.2860 -0.4808  0.7569
 7394SOL    HW329349   2.583   4.860   0.832 -0.7063  0.1999  1.3512
 7394SOL    MW429350   2.624   4.936   0.840  0.6690 -0.0456  0.7347
 7395SOL     OW29351   1.601   4.887   1.394  0.3215  0.9948 -0.5961
 7395SOL    HW229352   1.595   4.804   1.347  1.3178 -0.0543  1.0089
 7395SOL    HW329353   1.628   4.950   1.328 -0.5562  0.0844 -1.8763
 7395SOL    MW429354   1.604   4.884   1.379  0.4586  0.0176  0.0595
 7396SOL     OW29355   5.497   0.127   3.523 -0.3822 -0.0699  0.1279
 7396SOL    HW229356   5.447   0.050   3.495  1.8460 -2.7175  2.7676
 7396SOL    HW329357   5.449   0.159   3.599 -0.5351  0.3074 -0.1233
 7396SOL    MW429358   5.484   0.121   3.529  0.5715  0.1426 -0.2100
 7397SOL     OW29359   2.800   5.410   3.397  0.0779  0.8280 -0.2250
 7397SOL    HW229360   2.883   5.432   3.356  0.0008 -0.1126 -0.9241
 7397SOL    HW329361   2.735   5.423   3.327 -0.2263  0.5251  0.0025
 7397SOL    MW429362   2.802   5.415   3.382  0.4316 -0.6965  0.4034
 7398SOL     OW29363   5.127   4.081   4.031 -0.4154 -0.2160 -0.4212
 7398SOL    HW229364   5.168   4.011   4.081  3.1024  0.3769 -2.1884
 7398SOL    HW329365   5.127   4.156   4.090  1.4978 -0.1524 -0.4403
 7398SOL    MW429366   5.132   4.082   4.045 -0.3963 -0.3137 -0.6976
 7399SOL     OW29367   3.046   2.088   4.501 -0.2382 -0.4817  0.0369
 7399SOL    HW229368   2.977   2.070   4.437 -4.1988 -0.6047  3.8734
 7399SOL    HW329369   3.058   2.183   4.497 -1.4251 -0.3232 -0.0329
 7399SOL    MW429370   3.039   2.098   4.492 -0.4954  0.3239 -0.2427
 7400SOL     OW29371   4.938   2.499   6.452 -0.0072 -0.1064 -0.0972
 7400SOL    HW229372   4.940   2.587   6.490 -0.8620 -0.2910  0.4089
 7400SOL    HW329373   4.906   2.512   6.363  0.4635  0.1541 -0.2350
 7400SOL    MW429374   4.934   2.513   6.445 -0.1020  0.0279 -0.2171
 7401SOL     OW29375   0.092   3.352   0.034  0.3345 -0.0386  0.2063
 7401SOL    HW229376   0.012   3.405   0.027 -0.7806 -1.7225 -0.4318
 7401SOL    HW329377   0.114   3.331  -0.057  2.2880  1.4368  0.2751
 7401SOL    MW429378   0.084   3.356   0.021 -0.0372  0.4205  0.2214
 7402SOL     OW29379   4.847   0.571   4.770  0.3426  0.0809  0.0135
 7402SOL    HW229380   4.902   0.594   4.845  0.5539  1.1909 -0.4488
 7402SOL    HW329381   4.869   0.481   4.750  0.0074 -0.3623  1.5121
 7402SOL    MW429382   4.857   0.562   4.777  0.1173 -0.1101  0.8355
 7403SOL     OW29383   0.699   2.472   3.567  0.1482  0.2236 -0.1065
 7403SOL    HW229384   0.706   2.553   3.516  0.6318 -0.2943 -0.8706
 7403SOL    HW329385   0.696   2.402   3.502 -1.7765 -0.3092  0.4823
 7403SOL    MW429386   0.700   2.474   3.552  0.0161 -0.0559 -0.4650
 7404SOL     OW29387   6.025   6.264   3.264  1.3440  0.0856  0.0075
 7404SOL    HW229388   5.983   6.253   3.179 -1.0528 -0.4329  1.1605
 7404SOL    HW329389   6.102   6.319   3.247 -1.3861  3.7398 -1.8777
 7404SOL    MW429390   6.030   6.270   3.250 -0.0302  0.0522  0.2632
 7405SOL     OW29391   3.711   2.654   3.467 -0.1746  0.1788  0.5907
 7405SOL    HW229392   3.710   2.603   3.386  0.1083  1.0857 -0.0002
 7405SOL    HW329393   3.801   2.648   3.498  0.0252  0.8565  0.1608
 7405SOL    MW429394   3.723   2.646   3.461  0.3547 -0.0596  0.0903
 7406SOL     OW29395   0.689   2.682   1.287  0.4515 -0.6036 -0.3496
 7406SOL    HW229396   0.712   2.662   1.196 -1.2000 -1.1207 -0.6923
 7406SOL    HW329397   0.679   2.596   1.329 -0.2695 -0.3950 -0.0841
 7406SOL    MW429398   0.691   2.668   1.281 -0.3217  0.4245 -0.1340
 7407SOL     OW29399   3.948   0.437   0.821  0.6773 -0.0462 -0.1537
 7407SOL    HW229400   3.878   0.493   0.855 -0.6697 -0.8863 -1.4309
 7407SOL    HW329401   3.987   0.398   0.899  0.5621  1.3675  0.6555
 7407SOL    MW429402   3.944   0.439   0.836 -0.0621 -0.1041  0.2675
 7408SOL     OW29403   2.079   3.087   1.274  0.2853 -0.3407 -0.2488
 7408SOL    HW229404   2.137   3.027   1.320 -1.4644 -0.2931  2.2106
 7408SOL    HW329405   2.130   3.168   1.267  0.6656 -0.3848  1.5630
 7408SOL    MW429406   2.094   3.090   1.279 -0.2766 -0.6766 -0.0628
 7409SOL     OW29407   5.474   4.187   1.168 -0.4342 -0.0799 -0.0384
 7409SOL    HW229408   5.437   4.118   1.223  0.2673 -0.0985  0.4275
 7409SOL    HW329409   5.567   4.166   1.163 -0.3299  0.4573 -0.4553
 7409SOL    MW429410   5.482   4.175   1.175 -0.4368 -0.1161  0.2334
 7410SOL     OW29411   0.588   3.267   4.817 -0.5805  0.1502  0.2914
 7410SOL    HW229412   0.659   3.213   4.852  0.6904  0.6282 -1.3969
 7410SOL    HW329413   0.516   3.206   4.802 -0.4513 -0.4018  1.7955
 7410SOL    MW429414   0.588   3.252   4.820  0.6577  0.0311  0.2768
 7411SOL     OW29415   1.470   0.226   5.018  0.1289 -0.3229  0.5048
 7411SOL    HW229416   1.384   0.213   4.979  0.7552 -0.4196 -0.8898
 7411SOL    HW329417   1.516   0.143   5.003  0.2201 -0.5573  1.9395
 7411SOL    MW429418   1.465   0.213   5.011 -0.0903  0.2650  0.3650
 7412SOL     OW29419   6.050   3.678   4.253  0.2727 -0.2132 -0.2449
 7412SOL    HW229420   6.146   3.680   4.256  0.2782  0.8490 -0.6836
 7412SOL    HW329421   6.030   3.647   4.165  0.2053 -0.4780 -0.1380
 7412SOL    MW429422   6.060   3.674   4.242  0.0760 -0.5093 -0.0128
 7413SOL     OW29423   2.244   1.010   3.191 -0.2585 -0.1324  0.1851
 7413SOL    HW229424   2.180   0.939   3.201  0.3135 -0.5919  0.6605
 7413SOL    HW329425   2.238   1.059   3.272 -0.9695  0.6486 -0.3212
 7413SOL    MW429426   2.235   1.007   3.203  0.7973  0.1914  0.6425
 7414SOL     OW29427   2.126   1.766   1.695 -0.4212  0.3088  0.5694
 7414SOL    HW229428   2.175   1.846   1.673  0.2519 -0.6726 -1.7710
 7414SOL    HW329429   2.035   1.787   1.672 -0.5157  0.8799  1.4072
 7414SOL    MW429430   2.120   1.780   1.689  0.6627 -0.5543 -0.3062
 7415SOL     OW29431   4.521   5.805   5.919 -0.0766  0.5364  0.0344
 7415SOL    HW229432   4.575   5.880   5.946 -0.7789  0.8884  0.4783
 7415SOL    HW329433   4.465   5.840   5.850  0.1972  0.1890 -0.3683
 7415SOL    MW429434   4.521   5.820   5.913 -0.3026 -0.2256 -0.6188
 7416SOL     OW29435   2.798   0.593   0.496  0.3460 -0.2486  0.1827
 7416SOL    HW229436   2.888   0.616   0.515  0.4838  0.8936 -1.6162
 7416SOL    HW329437   2.785   0.618   0.404 -1.8332 -0.2310  0.4285
 7416SOL    MW429438   2.808   0.599   0.486  0.1541  0.6130  0.8336
 7417SOL     OW29439   3.842   5.002   2.959  0.4609 -0.9240  0.0394
 7417SOL    HW229440   3.866   5.016   2.867 -0.6373  1.3363  0.0313
 7417SOL    HW329441   3.860   4.910   2.974  1.6770 -1.1206 -2.1401
 7417SOL    MW429442   3.848   4.992   2.949 -0.1323 -0.4731 -0.1003
 7418SOL     OW29443   2.781   6.368   2.729  0.3932 -0.3282  0.3362
 7418SOL    HW229444   2.775   6.374   2.825 -1.0465  0.9549  0.2085
 7418SOL    HW329445   2.841   6.438   2.704  1.6802 -1.3885  0.3424
 7418SOL    MW429446   2.788   6.378   2.739  0.0066 -0.5523 -0.2064
 7419SOL     OW29447   4.184   2.197   5.448  0.2604 -0.4030  0.2700
 7419SOL    HW229448   4.269   2.240   5.440 -1.0691  2.5443  0.8209
 7419SOL    HW329449   4.167   2.164   5.360  1.0504  0.8693 -0.3960
 7419SOL    MW429450   4.193   2.198   5.435  0.6114 -0.6870 -0.1183
 7420SOL     OW29451   4.667   0.373   5.149  0.1631  0.1674  0.3660
 7420SOL    HW229452   4.698   0.439   5.210  0.0739  0.1258  0.4554
 7420SOL    HW329453   4.613   0.313   5.201 -0.8813  0.7913  0.0351
 7420SOL    MW429454   4.664   0.374   5.164  0.6114  0.4300  0.5042
 7421SOL     OW29455   0.489   2.506   5.384  0.2262 -0.0036 -0.0743
 7421SOL    HW229456   0.520   2.425   5.425 -0.4823  0.5821  1.6801
 7421SOL    HW329457   0.535   2.576   5.430 -1.0342  0.7047  0.1346
 7421SOL    MW429458   0.499   2.505   5.395 -0.3428 -0.4230  0.0967
 7422SOL     OW29459   0.952   0.014   0.658  0.1524 -0.0267  0.2481
 7422SOL    HW229460   0.863  -0.020   0.654  0.1656 -0.0421  0.0875
 7422SOL    HW329461   0.954   0.084   0.593  0.3923 -0.3431 -0.0892
 7422SOL    MW429462   0.940   0.019   0.649 -0.4772 -0.2446 -0.0983
 7423SOL     OW29463   0.347   2.189   4.076  0.0352 -0.1305 -0.5259
 7423SOL    HW229464   0.269   2.173   4.022 -1.0505  0.4661  0.8081
 7423SOL    HW329465   0.370   2.103   4.111 -0.2824 -0.2405 -0.5841
 7423SOL    MW429466   0.340   2.176   4.074  0.5551  0.1959 -0.2993
 7424SOL     OW29467   2.751   4.640   2.869  0.3456 -0.3867 -0.4089
 7424SOL    HW229468   2.752   4.727   2.909  2.2181 -0.5442 -0.0617
 7424SOL    HW329469   2.843   4.616   2.859 -0.1013 -2.7799  0.4984
 7424SOL    MW429470   2.763   4.648   2.873  0.0255 -0.0420 -0.1095
 7425SOL     OW29471   3.583   5.257   5.203  0.0421 -0.2881 -0.9960
 7425SOL    HW229472   3.541   5.315   5.267  1.2828  3.6165 -3.3522
 7425SOL    HW329473   3.661   5.224   5.248 -1.3988 -1.4008  0.8565
 7425SOL    MW429474   3.587   5.260   5.218  0.0747  0.2811 -0.1486
 7426SOL     OW29475   5.889   4.348   6.388 -0.0890  0.1231 -0.3876
 7426SOL    HW229476   5.938   4.393   6.457  0.0660 -1.2484  0.4318
 7426SOL    HW329477   5.948   4.278   6.359 -1.3260 -1.2749  0.2911
 7426SOL    MW429478   5.903   4.345   6.393 -0.1805  0.0699  0.0702
 7427SOL     OW29479   6.188   2.930   1.129  0.2459 -0.1370  0.1770
 7427SOL    HW229480   6.235   2.850   1.106 -0.1008  0.2925 -2.3872
 7427SOL    HW329481   6.209   2.991   1.058 -1.5708  1.1613  0.6750
 7427SOL    MW429482   6.197   2.927   1.117  0.1426 -0.4120 -0.1902
 7428SOL     OW29483   5.185   0.729   2.555  0.3435 -0.7282 -0.0941
 7428SOL    HW229484   5.171   0.809   2.606  2.8122 -0.4435  0.2287
 7428SOL    HW329485   5.106   0.678   2.571 -0.2632  0.6192  1.6396
 7428SOL    MW429486   5.173   0.733   2.564  0.0844  0.2413 -0.0003
 7429SOL     OW29487   3.049   5.981   0.948 -0.0660  0.0196  0.5292
 7429SOL    HW229488   3.038   5.988   1.043 -3.8672  1.5848  0.1611
 7429SOL    HW329489   3.030   5.890   0.928  0.5009 -0.2569  1.2216
 7429SOL    MW429490   3.045   5.970   0.958 -0.1256  0.2563  0.5246
 7430SOL     OW29491   4.341   6.186   4.411 -0.2212  0.5712  0.4881
 7430SOL    HW229492   4.406   6.141   4.358  0.0650  0.8193  0.6286
 7430SOL    HW329493   4.288   6.116   4.449  0.8798  0.2988  1.5606
 7430SOL    MW429494   4.342   6.171   4.409  0.4774  0.5249  0.0001
 7431SOL     OW29495   5.590   2.838   1.877 -0.3409 -0.2132  0.5278
 7431SOL    HW229496   5.617   2.818   1.787 -1.1123  0.5474  0.1173
 7431SOL    HW329497   5.659   2.896   1.910 -0.1626 -0.3308  0.3686
 7431SOL    MW429498   5.603   2.843   1.870  0.2949  0.6199  0.1066
 7432SOL     OW29499   2.527   3.872   6.028 -0.7251  0.1444  0.0277
 7432SOL    HW229500   2.433   3.879   6.010 -0.6701 -2.7633 -2.3172
 7432SOL    HW329501   2.533   3.809   6.100 -0.5520  2.6139  2.3044
 7432SOL    MW429502   2.516   3.865   6.035  0.2910 -0.6064 -0.3487
 7433SOL     OW29503   2.131   1.769   1.992  0.6171  0.1162  0.2447
 7433SOL    HW229504   2.074   1.698   2.020  0.0339  0.4900  0.0073
 7433SOL    HW329505   2.126   1.769   1.897 -0.7228  1.5402  0.2728
 7433SOL    MW429506   2.123   1.760   1.983  0.3470  0.1731  0.0564
 7434SOL     OW29507   2.084   3.329   4.837 -0.0336 -0.5842 -0.2584
 7434SOL    HW229508   2.076   3.237   4.811  0.3525 -1.1738  1.5393
 7434SOL    HW329509   1.994   3.356   4.856 -0.3232 -0.1279 -2.1526
 7434SOL    MW429510   2.071   3.320   4.836 -0.8715 -0.0403 -0.1110
 7435SOL     OW29511   1.684   5.328   5.502  0.1950  0.0403  0.1583
 7435SOL    HW229512   1.608   5.347   5.447  0.8553  0.5730 -0.5755
 7435SOL    HW329513   1.725   5.413   5.518  0.9037 -0.2943  0.1714
 7435SOL    MW429514   1.679   5.341   5.497 -0.3390  0.0742  0.2888
 7436SOL     OW29515   0.537   0.191   3.416  0.0329  0.4774 -0.4355
 7436SOL    HW229516   0.631   0.209   3.410 -0.0364  0.4622 -1.7186
 7436SOL    HW329517   0.498   0.238   3.343 -1.1003  1.2775  0.6425
 7436SOL    MW429518   0.544   0.199   3.406  0.3671  0.6157 -0.3392
 7437SOL     OW29519   2.243   3.309   1.600  0.0924 -0.2803 -0.9403
 7437SOL    HW229520   2.224   3.397   1.567 -3.6371  0.0055  1.3472
 7437SOL    HW329521   2.277   3.324   1.689  0.2571 -1.1024 -0.8642
 7437SOL    MW429522   2.245   3.323   1.608  0.0737  0.0627  0.1858
 7438SOL     OW29523   5.189   1.992   2.998  0.0495  0.4621  0.5710
 7438SOL    HW229524   5.171   2.012   3.090 -0.6841  0.4811  0.4295
 7438SOL    HW329525   5.142   2.060   2.949  0.0690  0.1958  0.1725
 7438SOL    MW429526   5.180   2.004   3.004  0.0472 -0.0073  0.0205
 7439SOL     OW29527   1.301   3.230   0.471  0.4100 -0.2192  0.4334
 7439SOL    HW229528   1.227   3.221   0.531 -0.8098 -0.3784 -1.0322
 7439SOL    HW329529   1.360   3.159   0.495 -0.5360 -0.9104  0.7927
 7439SOL    MW429530   1.299   3.220   0.482  0.0556 -0.3665  0.0637
 7440SOL     OW29531   0.352   0.570   2.069  0.8247  0.1062  0.3451
 7440SOL    HW229532   0.262   0.587   2.041  0.9634 -0.7135 -0.6495
 7440SOL    HW329533   0.373   0.643   2.127 -0.5613  0.1954  0.7904
 7440SOL    MW429534   0.343   0.582   2.073  0.3023 -0.3917 -0.0879
 7441SOL     OW29535   6.387   4.515   0.370 -0.1572 -0.0103  0.1875
 7441SOL    HW229536   6.446   4.440   0.365  1.2804  1.0534  0.3567
 7441SOL    HW329537   6.342   4.516   0.286 -0.5539 -1.3064  0.3572
 7441SOL    MW429538   6.389   4.505   0.359  0.1558 -0.1408  0.5707
 7442SOL     OW29539   2.160   2.783   4.741 -0.0509 -0.0602  0.1050
 7442SOL    HW229540   2.097   2.806   4.809 -0.7970 -1.5445 -0.0440
 7442SOL    HW329541   2.107   2.768   4.663  0.2108 -2.9187  0.3494
 7442SOL    MW429542   2.145   2.784   4.739 -0.1015  0.4277 -0.1828
 7443SOL     OW29543   6.306   3.478   0.733  0.1741  0.1246  0.6685
 7443SOL    HW229544   6.294   3.557   0.786 -1.6304  0.8172 -0.6592
 7443SOL    HW329545   6.269   3.408   0.786 -2.4816  0.9551  0.0672
 7443SOL    MW429546   6.299   3.479   0.747  0.8802  0.6798  0.0887
 7444SOL     OW29547   2.873   5.396   1.299  0.1180 -0.0155  0.5006
 7444SOL    HW229548   2.953   5.346   1.315  0.3981  0.1250 -0.4555
 7444SOL    HW329549   2.803   5.330   1.302  0.3083 -0.2020  0.9103
 7444SOL    MW429550   2.874   5.380   1.302  0.6122 -0.5602 -0.3307
 7445SOL     OW29551   5.018   0.665   4.976 -0.1742  0.1300  0.1945
 7445SOL    HW229552   5.079   0.598   5.007 -1.2352 -0.9167  0.0715
 7445SOL    HW329553   5.074   0.727   4.928  0.7196 -1.1677 -0.5144
 7445SOL    MW429554   5.034   0.664   4.974 -0.0721 -0.2706 -0.2391
 7446SOL     OW29555   3.446   2.855   1.944  0.1686  0.0419  0.3271
 7446SOL    HW229556   3.449   2.761   1.927 -0.2516  0.1751 -0.4949
 7446SOL    HW329557   3.452   2.896   1.858 -1.1522  0.7356  0.5404
 7446SOL    MW429558   3.447   2.848   1.931 -0.4071  0.2813  0.3665
 7447SOL     OW29559   6.266   2.364   3.891 -0.9601  0.0838  0.0614
 7447SOL    HW229560   6.331   2.347   3.959 -0.2578 -0.5247 -0.7415
 7447SOL    HW329561   6.309   2.338   3.809 -1.4318  1.6800 -0.7413
 7447SOL    MW429562   6.281   2.358   3.889  0.1382  0.8164 -0.4586
 7448SOL     OW29563   3.807   1.074   0.573  0.4986  0.1591 -0.5462
 7448SOL    HW229564   3.726   1.023   0.579  0.5874  0.1724  2.2709
 7448SOL    HW329565   3.876   1.010   0.558  0.1382 -0.0371 -1.3682
 7448SOL    MW429566   3.805   1.059   0.572  0.3945  0.3074 -0.9937
 7449SOL     OW29567   3.537   2.535   3.206 -0.1433  0.2807  0.1249
 7449SOL    HW229568   3.517   2.517   3.114  0.2321  2.3098 -0.4011
 7449SOL    HW329569   3.453   2.559   3.244 -0.6437 -2.3158  0.8261
 7449SOL    MW429570   3.523   2.536   3.199  0.3884  0.0354 -0.2752
 7450SOL     OW29571   5.537   2.246   3.278 -0.5900  0.3939  0.5711
 7450SOL    HW229572   5.502   2.327   3.240 -0.2384 -0.2671 -1.2657
 7450SOL    HW329573   5.611   2.274   3.331  1.4703  1.1135 -2.4433
 7450SOL    MW429574   5.542   2.261   3.280  0.3881  0.4294  0.1879
 7451SOL     OW29575   4.932   0.247   3.377  0.7402 -0.0015 -0.0846
 7451SOL    HW229576   5.014   0.281   3.413  1.1382 -0.6238 -0.3790
 7451SOL    HW329577   4.877   0.234   3.454  1.1066 -0.0605  0.1744
 7451SOL    MW429578   4.936   0.250   3.392 -0.2677  0.5353 -0.1421
 7452SOL     OW29579   5.087   0.959   3.100  0.0610  0.5053 -0.0226
 7452SOL    HW229580   5.058   1.041   3.140  1.3638  0.6987  0.5822
 7452SOL    HW329581   5.123   0.984   3.015  0.1846  0.5245  0.0350
 7452SOL    MW429582   5.088   0.973   3.094 -0.0231 -0.0450 -0.0402
 7453SOL     OW29583   0.258   3.140   1.221 -0.1470 -0.4064  0.0210
 7453SOL    HW229584   0.310   3.115   1.297 -1.8527  1.0146  1.7545
 7453SOL    HW329585   0.320   3.186   1.164  0.8327 -0.1592  1.2432
 7453SOL    MW429586   0.273   3.143   1.223 -0.6939  0.2592 -0.0474
 7454SOL     OW29587   1.013   3.226   3.624  1.1042 -0.1509  0.5575
 7454SOL    HW229588   0.992   3.312   3.660  0.7001  0.1289 -0.3383
 7454SOL    HW329589   0.934   3.174   3.640  1.7895 -0.7573  2.2419
 7454SOL    MW429590   1.000   3.230   3.631  0.3117  0.0194 -0.3693
 7455SOL     OW29591   6.345   3.876   5.075 -0.0016  0.5429  0.2510
 7455SOL    HW229592   6.285   3.860   5.148 -1.6141 -0.6444 -1.2366
 7455SOL    HW329593   6.335   3.799   5.019  0.8794  1.5890 -1.4255
 7455SOL    MW429594   6.335   3.864   5.077 -0.4161  0.1176 -0.1501
 7456SOL     OW29595   5.509   0.593   0.558  0.4222  0.3504  0.0100
 7456SOL    HW229596   5.491   0.520   0.499  0.3540  1.2671 -1.1326
 7456SOL    HW329597   5.494   0.557   0.646 -1.2822 -0.5417 -0.6054
 7456SOL    MW429598   5.505   0.579   0.562  0.3794 -0.5701  0.0221
 7457SOL     OW29599   0.486   2.371   2.219 -0.2002 -0.3855 -0.5142
 7457SOL    HW229600   0.410   2.411   2.261 -0.3814  0.2790 -1.4377
 7457SOL    HW329601   0.459   2.357   2.129  0.0028 -2.2885 -0.3037
 7457SOL    MW429602   0.473   2.375   2.213  0.4032  0.3889  0.1268
 7458SOL     OW29603   5.212   4.020   0.308 -0.5437  0.4080 -0.0794
 7458SOL    HW229604   5.138   4.075   0.334 -2.0258 -1.3260 -0.4584
 7458SOL    HW329605   5.262   4.076   0.247 -1.6630  1.5405 -0.0102
 7458SOL    MW429606   5.209   4.035   0.303  0.0172 -0.3616 -0.5598
 7459SOL     OW29607   3.791   2.211   0.194 -0.0849  0.3198  0.0273
 7459SOL    HW229608   3.867   2.269   0.204  0.4751 -0.4029  0.1030
 7459SOL    HW329609   3.727   2.263   0.146  0.7466  0.7034 -0.6998
 7459SOL    MW429610   3.793   2.225   0.189  0.1916 -0.1539 -0.5399
 7460SOL     OW29611   1.854   2.190   0.806 -0.0399  0.1209 -0.0941
 7460SOL    HW229612   1.770   2.233   0.792  0.4301  1.3645  0.7419
 7460SOL    HW329613   1.918   2.246   0.761  0.4741 -0.2047  0.2209
 7460SOL    MW429614   1.851   2.203   0.798  0.3982 -0.1407  0.2854
 7461SOL     OW29615   6.103   3.566   6.267  0.2936  0.0117 -0.2608
 7461SOL    HW229616   6.089   3.660   6.265  0.6134  0.1556  1.9709
 7461SOL    HW329617   6.021   3.529   6.300  0.3610 -0.4470 -0.5866
 7461SOL    MW429618   6.090   3.573   6.271  0.7633 -0.3463 -0.7445
 7462SOL     OW29619   4.587   4.959   6.231 -0.0762  0.1312 -0.1558
 7462SOL    HW229620   4.621   4.959   6.141 -0.4404 -1.5767 -0.3333
 7462SOL    HW329621   4.509   4.903   6.227  2.3172 -3.7896  2.0098
 7462SOL    MW429622   4.581   4.951   6.218 -0.1287 -0.0366  0.0881
 7463SOL     OW29623   5.043   1.747   3.314 -0.2916  0.1133 -0.1473
 7463SOL    HW229624   4.997   1.738   3.398  0.7336  1.4761  0.5929
 7463SOL    HW329625   4.986   1.804   3.262 -0.5609 -0.1020 -0.0890
 7463SOL    MW429626   5.029   1.753   3.318  0.1380  0.4229  0.0712
 7464SOL     OW29627   1.257   3.388   2.188  0.1956 -0.3174  0.2258
 7464SOL    HW229628   1.330   3.332   2.215 -0.7180 -1.2932  0.7857
 7464SOL    HW329629   1.257   3.384   2.093  0.2706 -1.1355  0.2524
 7464SOL    MW429630   1.266   3.380   2.179 -0.0245 -0.3017  0.3300
 7465SOL     OW29631   5.403   0.033   5.327 -0.1779 -0.0276  0.3324
 7465SOL    HW229632   5.360   0.039   5.412  1.8620 -0.7303  1.4996
 7465SOL    HW329633   5.422   0.124   5.303 -1.0669  0.1967  0.4357
 7465SOL    MW429634   5.400   0.046   5.335  0.0465  0.1700  0.0022
 7466SOL     OW29635   6.048   4.216   0.356 -0.4245 -0.5264  0.5667
 7466SOL    HW229636   6.033   4.284   0.291 -0.0375 -0.7043  0.2875
 7466SOL    HW329637   6.006   4.138   0.319  0.2087 -0.7492  0.2939
 7466SOL    MW429638   6.041   4.215   0.342  0.5558  0.3925  0.3808
 7467SOL     OW29639   2.720   0.281   0.197 -0.0380 -0.5722 -0.4189
 7467SOL    HW229640   2.641   0.335   0.188 -1.4737 -2.4829 -0.0576
 7467SOL    HW329641   2.788   0.329   0.150 -1.6728  0.6452 -1.6586
 7467SOL    MW429642   2.718   0.294   0.190 -0.2220  0.1970  0.3197
 7468SOL     OW29643   1.482   6.336   4.842  0.4343  0.2998 -0.1893
 7468SOL    HW229644   1.423   6.384   4.784  1.4947  2.2807  0.2884
 7468SOL    HW329645   1.569   6.365   4.817  1.0081 -0.0264  1.3378
 7468SOL    MW429646   1.485   6.346   4.831  0.0816 -0.6725  0.2079
 7469SOL     OW29647   3.635   5.981   5.110 -0.2151  0.5002  0.1324
 7469SOL    HW229648   3.590   6.051   5.063 -0.0319  0.5772  0.0718
 7469SOL    HW329649   3.717   5.968   5.062 -0.1743  0.3572  0.2401
 7469SOL    MW429650   3.640   5.989   5.098 -0.0015 -0.1611  0.4974
 7470SOL     OW29651   0.961   5.512   2.574  0.2868 -0.0503  0.5657
 7470SOL    HW229652   0.970   5.420   2.549  0.3142 -0.0607  0.6144
 7470SOL    HW329653   1.038   5.554   2.536  3.3086 -0.9414  4.9751
 7470SOL    MW429654   0.973   5.505   2.565  0.6628 -0.6521  0.3958
 7471SOL     OW29655   3.226   3.455   5.926  0.1342 -0.3801 -0.1877
 7471SOL    HW229656   3.305   3.462   5.873  0.1026 -1.0890 -0.3402
 7471SOL    HW329657   3.206   3.361   5.927  0.2714 -0.4261  1.2702
 7471SOL    MW429658   3.234   3.443   5.919  0.7894  0.1871  0.2884
 7472SOL     OW29659   2.732   0.109   0.402  0.3838  0.1961  0.1557
 7472SOL    HW229660   2.703   0.026   0.363  1.8624 -0.7400  0.9744
 7472SOL    HW329661   2.728   0.171   0.329 -2.4913 -0.0884 -0.0757
 7472SOL    MW429662   2.727   0.106   0.387 -0.5338  0.1119  0.0134
 7473SOL     OW29663   0.979   5.020   3.260  0.4192  0.7104 -0.0198
 7473SOL    HW229664   0.990   5.073   3.182  1.2903  0.3470 -0.1627
 7473SOL    HW329665   0.886   5.024   3.280 -0.2366 -0.9023 -2.3156
 7473SOL    MW429666   0.968   5.027   3.252 -0.7239 -0.3519  0.5235
 7474SOL     OW29667   0.433   5.810   5.687  0.3956  0.4044 -0.3722
 7474SOL    HW229668   0.436   5.827   5.781 -0.1873  2.7834 -0.7248
 7474SOL    HW329669   0.436   5.715   5.680  1.7985  0.1894  1.9778
 7474SOL    MW429670   0.434   5.800   5.698  0.1647  0.2241 -0.3585
 7475SOL     OW29671   4.546   5.934   0.546 -0.2594 -0.5819 -0.3347
 7475SOL    HW229672   4.624   5.906   0.594 -0.6398 -0.6035  0.2906
 7475SOL    HW329673   4.572   6.014   0.502 -0.2410  0.1350  0.9284
 7475SOL    MW429674   4.559   5.941   0.547  0.7954 -0.0602 -0.2065
 7476SOL     OW29675   2.194   4.321   4.413  0.0884  0.6459 -0.1452
 7476SOL    HW229676   2.245   4.267   4.473 -0.6428  0.3084  0.1806
 7476SOL    HW329677   2.111   4.274   4.403 -0.7538  1.9337  0.5186
 7476SOL    MW429678   2.190   4.308   4.420 -0.2591  0.1197 -0.5231
 7477SOL     OW29679   4.567   4.795   1.221  0.1749  0.0660  0.4314
 7477SOL    HW229680   4.477   4.769   1.203 -0.0891  1.8482 -1.1522
 7477SOL    HW329681   4.570   4.810   1.316 -1.8164  2.0333  0.2482
 7477SOL    MW429682   4.556   4.794   1.231  0.0446 -0.5256  0.4382
 7478SOL     OW29683   5.348   5.971   4.221 -0.5064 -0.0478  0.4182
 7478SOL    HW229684   5.264   5.947   4.182 -0.9572 -0.1965  1.4433
 7478SOL    HW329685   5.352   6.066   4.214 -0.3094 -0.1161 -0.5054
 7478SOL    MW429686   5.337   5.980   4.215 -0.0039  0.3667  0.8347
 7479SOL     OW29687   1.186   2.928   5.230 -0.4666  0.6125  0.1971
 7479SOL    HW229688   1.224   2.863   5.170  0.6570  2.8140 -1.6224
 7479SOL    HW329689   1.140   2.989   5.173 -0.1996  2.2742  1.6785
 7479SOL    MW429690   1.185   2.927   5.214 -0.2180  0.1994 -0.3325
 7480SOL     OW29691   6.021   2.878   3.083 -0.2756 -0.0531  0.5207
 7480SOL    HW229692   6.103   2.857   3.039  0.3757  1.1113  1.1067
 7480SOL    HW329693   5.953   2.841   3.027  0.6727 -2.1970  0.6966
 7480SOL    MW429694   6.023   2.871   3.070  0.6610 -0.4496 -0.1568
 7481SOL     OW29695   1.596   5.161   3.809  0.5034 -0.4797 -0.0222
 7481SOL    HW229696   1.614   5.139   3.900  1.0363 -0.5838 -0.1553
 7481SOL    HW329697   1.523   5.104   3.784 -0.6858  0.6260  0.8076
 7481SOL    MW429698   1.588   5.151   3.817  0.0622  0.1896 -0.0982
 7482SOL     OW29699   5.791   3.460   2.255  0.1718  0.1527 -0.1139
 7482SOL    HW229700   5.722   3.505   2.206  0.9126  0.3588 -1.0004
 7482SOL    HW329701   5.802   3.512   2.335  0.3304  0.9790 -0.6660
 7482SOL    MW429702   5.783   3.473   2.259  0.2143 -0.3942  0.1786
 7483SOL     OW29703   3.338   1.908   0.090  0.6571 -0.0343 -0.2686
 7483SOL    HW229704   3.415   1.870   0.131  1.6398  0.2342 -1.7915
 7483SOL    HW329705   3.357   2.002   0.085  0.5657 -0.0585 -1.3037
 7483SOL    MW429706   3.351   1.915   0.095 -0.2471  0.2549  0.5468
 7484SOL     OW29707   3.314   6.020   5.398 -0.4376  0.4027  0.3412
 7484SOL    HW229708   3.312   6.055   5.309 -1.2169 -1.2684 -0.3301
 7484SOL    HW329709   3.406   5.994   5.411 -0.7612 -1.5539 -0.9109
 7484SOL    MW429710   3.326   6.021   5.388  0.8324  0.0334 -0.1521
 7485SOL     OW29711   4.524   2.879   0.376  0.2367  0.1322  0.1534
 7485SOL    HW229712   4.549   2.957   0.427  0.5963 -0.0766  0.2966
 7485SOL    HW329713   4.466   2.913   0.308  1.6532  0.7864 -0.7858
 7485SOL    MW429714   4.519   2.894   0.374  0.0067  0.0139  0.1810
 7486SOL     OW29715   3.092   3.593   4.724  0.2862 -0.0478  0.0102
 7486SOL    HW229716   3.006   3.566   4.692  0.3888  0.7638 -1.0078
 7486SOL    HW329717   3.082   3.686   4.746  1.2914  0.5049 -1.6740
 7486SOL    MW429718   3.080   3.602   4.723  0.3355  0.8035 -0.9939
 7487SOL     OW29719   1.574   3.369   2.982 -0.0294 -0.2126 -0.3752
 7487SOL    HW229720   1.509   3.354   2.913  0.2739 -1.2194 -0.4511
 7487SOL    HW329721   1.618   3.285   2.993 -0.1169 -0.0963  1.1077
 7487SOL    MW429722   1.571   3.356   2.974 -0.5128  0.0531  0.1266
 7488SOL     OW29723   0.551   5.868   2.447 -0.3554 -0.3901  0.4215
 7488SOL    HW229724   0.622   5.809   2.474 -0.2295 -0.4499 -0.0316
 7488SOL    HW329725   0.593   5.952   2.434 -0.7454  0.1728  2.3528
 7488SOL    MW429726   0.566   5.871   2.449 -0.0839  0.0707 -0.3107
 7489SOL     OW29727   0.441   0.994   6.056  0.3793 -0.0959 -0.7304
 7489SOL    HW229728   0.487   0.925   6.008 -0.6628 -0.6438 -0.9904
 7489SOL    HW329729   0.508   1.036   6.109  0.8694 -1.9838  0.2311
 7489SOL    MW429730   0.456   0.990   6.057  0.8080 -0.5962 -0.4320
 7490SOL     OW29731   1.084   5.049   0.301 -0.3485  0.5788 -0.0054
 7490SOL    HW229732   1.127   5.134   0.289 -0.9143  0.7519 -0.9358
 7490SOL    HW329733   0.990   5.069   0.295 -0.4727 -0.2330 -1.2415
 7490SOL    MW429734   1.077   5.063   0.298 -0.1757  0.5622 -0.2152
 7491SOL     OW29735   5.844   0.348   1.364 -0.1795 -0.0903 -0.0740
 7491SOL    HW229736   5.921   0.323   1.415 -0.0211 -0.5715 -0.5480
 7491SOL    HW329737   5.781   0.278   1.380  0.3542 -0.9563 -1.6019
 7491SOL    MW429738   5.845   0.335   1.373  0.5099 -0.6361  0.5237
 7492SOL     OW29739   2.883   0.243   4.124 -0.0336  0.1888  0.7049
 7492SOL    HW229740   2.904   0.192   4.045  0.0996  0.0337  0.8397
 7492SOL    HW329741   2.803   0.290   4.101 -0.7293 -0.8565  0.9285
 7492SOL    MW429742   2.876   0.243   4.110 -0.1768 -0.0282  0.4743
 7493SOL     OW29743   3.745   1.640   0.285 -0.2705  0.3147  0.1088
 7493SOL    HW229744   3.832   1.673   0.306 -0.0866 -0.6518  1.0263
 7493SOL    HW329745   3.705   1.706   0.229  0.9911  0.8444 -0.1779
 7493SOL    MW429746   3.751   1.653   0.281  0.2325  0.2716 -0.0469
 7494SOL     OW29747   3.047   4.075   0.557 -0.0085  0.8227  0.3329
 7494SOL    HW229748   2.989   4.124   0.616 -1.2028 -0.5735  0.3769
 7494SOL    HW329749   3.012   4.090   0.470 -0.0973  0.4460  0.2999
 7494SOL    MW429750   3.035   4.083   0.553 -0.1704 -0.7432  0.5530
 7495SOL     OW29751   0.471   4.993   0.498 -0.3987 -0.5944  0.6601
 7495SOL    HW229752   0.386   4.957   0.474 -0.7393  0.6253 -0.0447
 7495SOL    HW329753   0.514   4.923   0.547 -0.6382 -2.3068 -1.4473
 7495SOL    MW429754   0.465   4.979   0.501 -0.3034 -0.1227  0.2133
 7496SOL     OW29755   3.689   4.983   2.250  0.3451  0.3872  0.3052
 7496SOL    HW229756   3.754   5.045   2.281  0.4243  1.1738 -1.3132
 7496SOL    HW329757   3.699   4.907   2.307  0.4339  1.7279  2.1597
 7496SOL    MW429758   3.699   4.981   2.262  0.0047  0.5828  0.8330
 7497SOL     OW29759   0.056   2.217   0.938  0.0925 -0.1854 -0.2059
 7497SOL    HW229760   0.071   2.128   0.969  0.0878 -0.1549 -0.1160
 7497SOL    HW329761   0.001   2.257   1.005  0.6679  0.1059  0.1029
 7497SOL    MW429762   0.051   2.211   0.951  0.1582  0.0715 -0.1399
 7498SOL     OW29763   4.796   2.867   3.223 -0.0303  0.5628 -0.2827
 7498SOL    HW229764   4.703   2.885   3.211 -0.0028  0.3379 -0.8767
 7498SOL    HW329765   4.809   2.870   3.318 -0.9663 -0.9692 -0.0782
 7498SOL    MW429766   4.786   2.870   3.234  0.0209 -0.1067 -0.4600
 7499SOL     OW29767   3.686   4.763   3.329 -0.0066  0.0847 -0.2928
 7499SOL    HW229768   3.749   4.728   3.391  1.7248  2.4830 -0.5406
 7499SOL    HW329769   3.659   4.847   3.368 -1.2714  0.1948 -1.3309
 7499SOL    MW429770   3.691   4.770   3.342  0.5632  0.2025  0.4214
 7500SOL     OW29771   5.279   0.253   2.926  0.0016  0.4582  0.4600
 7500SOL    HW229772   5.232   0.285   2.849  0.0079 -2.3986 -0.8879
 7500SOL    HW329773   5.235   0.171   2.948  2.7576 -1.1140  0.6370
 7500SOL    MW429774   5.267   0.246   2.919  0.0175 -0.1670 -0.7412
 7501SOL     OW29775   2.561   0.330   4.472  0.0887  0.3725  0.3176
 7501SOL    HW229776   2.585   0.277   4.396  1.6900  1.9264 -0.3285
 7501SOL    HW329777   2.477   0.368   4.449 -1.3240 -2.1282  0.9797
 7501SOL    MW429778   2.553   0.328   4.459 -0.2238  0.1637 -0.9899
 7502SOL     OW29779   4.195   4.661   4.340  0.0381  0.6794  0.1111
 7502SOL    HW229780   4.149   4.733   4.297 -0.7457  0.0767 -0.0701
 7502SOL    HW329781   4.244   4.703   4.411 -1.6478  1.2297  1.0207
 7502SOL    MW429782   4.195   4.676   4.344  0.1917 -0.6990  0.7533
 7503SOL     OW29783   5.966   1.042   3.002  0.0659  0.1047  0.1424
 7503SOL    HW229784   5.979   1.134   2.979 -0.7582  0.6229  1.6084
 7503SOL    HW329785   5.874   1.025   2.982 -0.1410  0.0058  1.1405
 7503SOL    MW429786   5.955   1.052   2.996 -0.1761 -0.4137 -0.0042
 7504SOL     OW29787   4.103   1.491   6.222  0.1946  0.3713  0.5899
 7504SOL    HW229788   4.016   1.458   6.204  0.2261  0.6335 -0.0594
 7504SOL    HW329789   4.102   1.510   6.316 -0.1939 -0.3495  0.7406
 7504SOL    MW429790   4.092   1.489   6.232 -0.2109 -0.0578  0.2223
 7505SOL     OW29791   3.147   2.662   5.349  0.0231  0.1466 -0.2910
 7505SOL    HW229792   3.168   2.604   5.423  0.3223  0.6056 -0.0092
 7505SOL    HW329793   3.088   2.727   5.386  0.9970  0.9997 -0.1833
 7505SOL    MW429794   3.142   2.663   5.364 -0.7877  0.1878 -0.6421
 7506SOL     OW29795   2.344   2.654   3.031  0.2361 -0.2088  0.4112
 7506SOL    HW229796   2.423   2.605   3.009 -0.1995 -0.6057 -0.2926
 7506SOL    HW329797   2.346   2.659   3.127  0.3339 -1.5482  0.5050
 7506SOL    MW429798   2.355   2.648   3.041 -0.1788  0.2391 -0.3550
 7507SOL     OW29799   2.766   5.229   0.953 -0.7661 -0.0096  0.3589
 7507SOL    HW229800   2.736   5.266   0.870  1.0690 -0.1654 -0.4210
 7507SOL    HW329801   2.686   5.202   0.997 -1.8493  0.8658 -0.9746
 7507SOL    MW429802   2.752   5.230   0.948 -0.0899 -0.5121  0.4460
 7508SOL     OW29803   1.207   2.310   5.468 -0.9244  0.6484  0.4138
 7508SOL    HW229804   1.178   2.220   5.452 -1.3757  0.9705 -0.6860
 7508SOL    HW329805   1.300   2.303   5.485 -0.5274  0.1411 -1.6750
 7508SOL    MW429806   1.215   2.298   5.468  0.1720 -0.2486  0.6223
 7509SOL     OW29807   6.205   5.447   4.245 -0.6908  0.1988  0.3338
 7509SOL    HW229808   6.187   5.540   4.230 -2.2991  0.0414  1.0695
 7509SOL    HW329809   6.268   5.447   4.317  2.5864  0.7639 -2.2742
 7509SOL    MW429810   6.211   5.460   4.253  0.0392  0.0518 -0.0250
 7510SOL     OW29811   0.039   6.285   3.558 -0.0238 -0.3916 -0.5422
 7510SOL    HW229812   0.044   6.256   3.650  1.0940  0.5020 -0.3014
 7510SOL    HW329813  -0.024   6.357   3.559 -1.5853 -1.6948 -0.8649
 7510SOL    MW429814   0.031   6.291   3.571  0.1603  0.1404 -0.2925
 7511SOL     OW29815   6.086   3.376   4.369 -0.3889  0.1905  0.0547
 7511SOL    HW229816   6.078   3.456   4.421 -0.4613 -0.8253  1.6463
 7511SOL    HW329817   6.060   3.305   4.428  1.1784 -1.1855 -0.8321
 7511SOL    MW429818   6.081   3.377   4.384  0.3593  0.2842  0.2885
 7512SOL     OW29819   1.737   0.373   0.664  0.2756 -0.1606  0.1984
 7512SOL    HW229820   1.675   0.313   0.705  0.0626 -0.3247 -0.3536
 7512SOL    HW329821   1.787   0.410   0.737 -0.8518  0.4057  0.7068
 7512SOL    MW429822   1.736   0.370   0.679  0.1197 -0.2689  0.1548
 7513SOL     OW29823   1.792   5.857   4.315  0.6367  0.3035 -0.1263
 7513SOL    HW229824   1.747   5.797   4.255  1.0109 -0.9317  0.7846
 7513SOL    HW329825   1.765   5.944   4.286 -0.6262 -0.3205 -0.9344
 7513SOL    MW429826   1.783   5.861   4.303 -0.0173 -0.7020  0.2970
 7514SOL     OW29827   0.204   0.071   5.135  0.1419  0.4694 -0.0160
 7514SOL    HW229828   0.263   0.013   5.183  1.0650  1.4707  0.1090
 7514SOL    HW329829   0.127   0.078   5.191 -0.3754 -1.3081 -0.4440
 7514SOL    MW429830   0.202   0.064   5.149  0.2862 -0.2912  0.6195
 7515SOL     OW29831   0.792   1.533   6.043 -0.7449  0.0704  0.1801
 7515SOL    HW229832   0.708   1.579   6.051 -1.1639 -0.6730  0.0470
 7515SOL    HW329833   0.844   1.567   6.117 -0.6747  1.5136 -0.4910
 7515SOL    MW429834   0.788   1.544   6.054  0.0960 -0.0211 -0.3088
 7516SOL     OW29835   1.363   1.230   3.002  0.0640  0.3293  0.2509
 7516SOL    HW229836   1.275   1.238   2.967  0.8874  1.8619 -1.6846
 7516SOL    HW329837   1.362   1.278   3.084 -0.8194  0.5661  0.1003
 7516SOL    MW429838   1.352   1.237   3.008 -0.0229  0.1109  0.0733
 7517SOL     OW29839   2.930   4.985   1.857 -0.0056 -0.0395 -0.3153
 7517SOL    HW229840   2.934   4.890   1.844 -1.4227  0.0787 -2.0235
 7517SOL    HW329841   2.842   5.000   1.893  0.7426  0.5185  1.3484
 7517SOL    MW429842   2.919   4.974   1.860 -0.3935 -0.2437 -0.6548
 7518SOL     OW29843   5.435   1.358   6.044  0.2676 -0.3660 -0.5561
 7518SOL    HW229844   5.442   1.363   5.949  0.1079  1.0293 -0.5121
 7518SOL    HW329845   5.459   1.445   6.074  1.4362 -1.0974  0.7674
 7518SOL    MW429846   5.439   1.370   6.035  0.8379  0.4208  0.0261
 7519SOL     OW29847   0.878   5.451   0.092 -0.1418  0.2807 -0.9326
 7519SOL    HW229848   0.855   5.399   0.014 -0.8967 -2.1031  0.7643
 7519SOL    HW329849   0.967   5.424   0.113 -0.3510  0.0372 -0.3319
 7519SOL    MW429850   0.886   5.440   0.084  0.1649 -0.0803 -0.2129
 7520SOL     OW29851   2.460   4.418   2.003  0.1047 -0.3650 -0.3024
 7520SOL    HW229852   2.433   4.497   2.048  2.1792 -0.0844  0.5381
 7520SOL    HW329853   2.555   4.422   2.000  0.6319 -4.2665  2.6476
 7520SOL    MW429854   2.469   4.429   2.009 -0.4518 -0.1925  1.3013
 7521SOL     OW29855   5.552   1.487   3.110 -0.2044  0.2851 -0.2794
 7521SOL    HW229856   5.604   1.419   3.152  1.5334  0.7013 -1.6406
 7521SOL    HW329857   5.496   1.440   3.048 -0.5183 -0.0752  0.2799
 7521SOL    MW429858   5.552   1.472   3.107 -0.5393  0.3139  0.0539
 7522SOL     OW29859   4.290   2.911   5.861  0.3526  0.1396 -0.1780
 7522SOL    HW229860   4.257   2.823   5.880  0.0420  0.0016 -1.3008
 7522SOL    HW329861   4.227   2.970   5.902 -0.4667 -0.1453 -1.0026
 7522SOL    MW429862   4.278   2.907   5.869 -0.4001 -0.4507  0.1500
 7523SOL     OW29863   4.992   4.153   0.405  0.0891  0.0269 -0.3365
 7523SOL    HW229864   4.935   4.177   0.331 -0.4149 -0.8766 -0.2613
 7523SOL    HW329865   4.936   4.100   0.461  1.2633 -1.7149 -0.7373
 7523SOL    MW429866   4.977   4.149   0.402  0.6117  0.0709  0.1367
 7524SOL     OW29867   0.103   5.364   3.438 -0.4389  0.0400  0.6337
 7524SOL    HW229868   0.087   5.318   3.520  0.5080  0.1566  0.8925
 7524SOL    HW329869   0.074   5.453   3.454 -1.0003 -0.1254  0.5725
 7524SOL    MW429870   0.097   5.369   3.451  0.3276  0.0328  0.1342
 7525SOL     OW29871   2.646   4.650   0.136  0.3641 -0.3384  0.7693
 7525SOL    HW229872   2.637   4.654   0.231  0.5817  3.8934  0.8073
 7525SOL    HW329873   2.634   4.740   0.107  0.9915 -1.3390 -3.1960
 7525SOL    MW429874   2.644   4.662   0.144 -0.4470 -0.2609 -0.0010
 7526SOL     OW29875   0.866   3.424   4.832 -0.0738  0.4683  0.4762
 7526SOL    HW229876   0.831   3.341   4.798  2.8659 -1.2238  1.2362
 7526SOL    HW329877   0.835   3.428   4.923  0.4623 -0.2686  0.7001
 7526SOL    MW429878   0.857   3.413   4.840 -0.6101 -0.2731  0.3203
 7527SOL     OW29879   0.286   5.986   6.089  0.3037 -0.3551 -0.1910
 7527SOL    HW229880   0.291   6.069   6.137  1.2047 -0.3635 -0.2642
 7527SOL    HW329881   0.202   5.991   6.043 -0.0220  0.1652  0.4439
 7527SOL    MW429882   0.276   5.998   6.089  0.1013 -0.2528 -0.3945
 7528SOL     OW29883   3.372   4.252   3.340  0.4458 -0.7648 -0.1220
 7528SOL    HW229884   3.405   4.229   3.427 -0.1959 -0.6786  0.1473
 7528SOL    HW329885   3.288   4.206   3.333 -0.2829  0.5270 -0.0435
 7528SOL    MW429886   3.366   4.243   3.351  0.1409 -0.5060 -0.4432
 7529SOL     OW29887   0.748   3.110   3.665 -0.2350 -0.0404  0.2498
 7529SOL    HW229888   0.706   3.159   3.594 -0.0112 -0.2632 -0.0410
 7529SOL    HW329889   0.675   3.073   3.714 -0.5042  2.3225  1.7723
 7529SOL    MW429890   0.733   3.112   3.662 -0.4369  0.6853 -0.3503
 7530SOL     OW29891   3.986   0.909   1.776  0.1807  0.0385  0.4785
 7530SOL    HW229892   4.067   0.939   1.818  1.3488 -0.6587 -1.1528
 7530SOL    HW329893   4.006   0.820   1.748 -0.7722  0.2398 -0.9296
 7530SOL    MW429894   3.999   0.901   1.778  0.0007  0.2038  0.1277
 7531SOL     OW29895   1.919   2.036   5.946  0.6617 -0.0785 -0.2400
 7531SOL    HW229896   2.014   2.035   5.954  0.5645 -1.5278  1.5794
 7531SOL    HW329897   1.896   1.949   5.915 -0.0284  0.8489 -2.5732
 7531SOL    MW429898   1.928   2.024   5.943  0.3824 -0.2225 -0.4347
 7532SOL     OW29899   4.194   5.654   5.492 -0.3888  0.3374  0.1032
 7532SOL    HW229900   4.187   5.725   5.428  0.7955  0.6821  0.3327
 7532SOL    HW329901   4.195   5.698   5.577  1.9679  0.2475  0.2075
 7532SOL    MW429902   4.193   5.669   5.495 -1.7222  0.4119  0.5846
 7533SOL     OW29903   0.160   3.102   5.390 -0.5130  0.4675  0.3042
 7533SOL    HW229904   0.189   3.177   5.441 -1.0459 -0.0708  1.4307
 7533SOL    HW329905   0.220   3.031   5.415  0.1939  0.5656 -0.9916
 7533SOL    MW429906   0.172   3.102   5.400  0.3347  0.6086 -0.1543
 7534SOL     OW29907   0.449   4.922   5.105  0.6506  0.5483 -0.1548
 7534SOL    HW229908   0.449   4.964   5.018  0.5217 -0.1301 -0.4845
 7534SOL    HW329909   0.529   4.870   5.106  0.6398  0.5394  0.1266
 7534SOL    MW429910   0.460   4.921   5.093  0.5490  0.0963 -0.4995
 7535SOL     OW29911   2.314   5.300   3.922 -0.1623  0.2492 -0.0547
 7535SOL    HW229912   2.257   5.263   3.854 -1.1364  0.2349  0.7352
 7535SOL    HW329913   2.347   5.381   3.884 -2.1063  1.1691  0.0501
 7535SOL    MW429914   2.311   5.306   3.908 -0.0488  0.9424  0.1543
 7536SOL     OW29915   4.354   5.941   5.750  0.1156  0.3577  0.0822
 7536SOL    HW229916   4.335   6.024   5.793  0.0211  0.7089 -0.6111
 7536SOL    HW329917   4.408   5.966   5.674  1.9244 -0.4347  1.0481
 7536SOL    MW429918   4.359   5.955   5.745  0.0670 -0.2865 -0.4932
 7537SOL     OW29919   4.321   5.024   4.049  0.2053 -0.0404  0.3112
 7537SOL    HW229920   4.400   4.996   4.003 -0.8261 -0.8471 -1.0494
 7537SOL    HW329921   4.274   5.078   3.985 -0.8472 -0.4468  0.7089
 7537SOL    MW429922   4.325   5.028   4.034  0.3034 -0.1838 -0.8254
 7538SOL     OW29923   1.189   0.788   4.057 -0.0239  0.0222 -0.7518
 7538SOL    HW229924   1.264   0.753   4.008  0.1663 -0.4075 -0.1691
 7538SOL    HW329925   1.113   0.759   4.007  0.1623 -0.5457 -0.7213
 7538SOL    MW429926   1.189   0.779   4.044  0.3167  0.5042 -0.1944
 7539SOL     OW29927   4.993   0.978   5.820  0.8328  0.0485 -0.3013
 7539SOL    HW229928   5.022   0.887   5.818 -0.7388 -0.5164  0.7662
 7539SOL    HW329929   5.009   1.006   5.910 -3.1447 -0.7963  0.8481
 7539SOL    MW429930   4.999   0.970   5.831 -0.1143  0.2204 -0.2775
 7540SOL     OW29931   3.351   0.833   2.420  0.4265 -0.5009  0.1601
 7540SOL    HW229932   3.381   0.890   2.349 -0.9036  0.7760  0.5730
 7540SOL    HW329933   3.290   0.888   2.470 -0.0235 -1.9426  1.2420
 7540SOL    MW429934   3.347   0.848   2.417  0.9723  0.3516 -0.5276
 7541SOL     OW29935   2.571   0.529   3.916 -0.5398 -0.1509 -0.4983
 7541SOL    HW229936   2.594   0.603   3.860 -0.1000  0.3143  0.2785
 7541SOL    HW329937   2.589   0.452   3.862  1.9126  0.2052 -0.3105
 7541SOL    MW429938   2.576   0.528   3.901 -0.3629 -0.0618 -0.4500
 7542SOL     OW29939   5.509   4.565   3.934  0.2058 -0.0114 -0.3225
 7542SOL    HW229940   5.567   4.515   3.877 -0.3198  0.4088 -1.2425
 7542SOL    HW329941   5.538   4.655   3.926 -0.5364  0.1950 -0.7504
 7542SOL    MW429942   5.520   4.570   3.925 -0.0943  0.7373 -0.4008
 7543SOL     OW29943   1.699   4.283   3.890 -0.5811 -0.0530 -0.5624
 7543SOL    HW229944   1.629   4.304   3.828 -2.4744 -0.9644  1.1293
 7543SOL    HW329945   1.653   4.250   3.968  1.6873  0.6738  1.1971
 7543SOL    MW429946   1.684   4.281   3.892  0.3176  0.3478 -0.2203
 7544SOL     OW29947   0.594   1.688   6.141 -0.2747 -0.2444  0.2606
 7544SOL    HW229948   0.544   1.723   6.068  0.3957  3.3227  1.3377
 7544SOL    HW329949   0.536   1.698   6.217  0.8087  0.7711  0.9743
 7544SOL    MW429950   0.580   1.694   6.141 -0.5846 -0.1434 -0.2481
 7545SOL     OW29951   3.922   5.296   4.691 -0.2394  0.5357  0.0453
 7545SOL    HW229952   3.863   5.221   4.701 -0.5953  0.7037 -0.7569
 7545SOL    HW329953   3.865   5.372   4.683  0.1206  0.8855  0.7127
 7545SOL    MW429954   3.907   5.296   4.691 -0.3128  0.2756  0.6430
 7546SOL     OW29955   4.420   0.272   0.315 -0.0975 -0.5179 -0.0187
 7546SOL    HW229956   4.383   0.272   0.403  0.5420 -0.5858  0.2549
 7546SOL    HW329957   4.508   0.236   0.326  0.1937  0.0021 -0.5963
 7546SOL    MW429958   4.426   0.267   0.328 -0.2820 -0.1793 -0.1715
 7547SOL     OW29959   3.605   2.634   0.414  0.1059  0.4038  0.4302
 7547SOL    HW229960   3.581   2.717   0.455  0.5804  0.2281  1.0798
 7547SOL    HW329961   3.681   2.656   0.359  0.3467  0.3683  0.7453
 7547SOL    MW429962   3.612   2.648   0.412 -0.4242 -0.0442 -0.4832
 7548SOL     OW29963   4.058   2.425   5.399 -0.3449 -0.1206 -0.8055
 7548SOL    HW229964   4.105   2.494   5.446 -1.7838  1.0605 -1.0496
 7548SOL    HW329965   4.087   2.344   5.442  0.8801  0.6649 -0.0837
 7548SOL    MW429966   4.068   2.423   5.411 -0.4768  0.0871  0.2806
 7549SOL     OW29967   1.895   0.513   0.837 -0.2646  0.2610  0.2102
 7549SOL    HW229968   1.959   0.572   0.796 -1.2371  0.8001 -0.5691
 7549SOL    HW329969   1.868   0.559   0.916 -0.1316  0.3065  0.2296
 7549SOL    MW429970   1.900   0.527   0.842  0.1685  0.4157  0.3748
 7550SOL     OW29971   4.087   6.095   0.765  0.2027 -0.0483 -0.1673
 7550SOL    HW229972   4.046   6.014   0.795  2.2230 -0.6600  1.1943
 7550SOL    HW329973   4.081   6.092   0.670 -0.6856 -1.2789 -0.0887
 7550SOL    MW429974   4.081   6.084   0.756  0.2142 -0.8721  0.6265
 7551SOL     OW29975   2.849   3.149   0.942  0.1594 -0.6446 -0.0697
 7551SOL    HW229976   2.766   3.101   0.945  0.3906 -1.0968 -0.6668
 7551SOL    HW329977   2.841   3.204   0.863  0.4210 -0.6716 -0.1141
 7551SOL    MW429978   2.837   3.150   0.932  0.5099 -0.5759  0.1762
 7552SOL     OW29979   2.845   1.188   5.426  0.0585  0.3670  0.1135
 7552SOL    HW229980   2.791   1.231   5.359  1.1285  0.6330 -0.6096
 7552SOL    HW329981   2.921   1.156   5.378 -0.1304 -1.2905  0.8604
 7552SOL    MW429982   2.848   1.190   5.411  0.2107  0.1840  0.0950
 7553SOL     OW29983   0.930   3.660   3.477 -0.0508 -0.4776  0.0314
 7553SOL    HW229984   0.892   3.734   3.523  1.7792 -0.4866  1.6756
 7553SOL    HW329985   0.942   3.691   3.387 -1.3560  0.4056  0.1350
 7553SOL    MW429986   0.926   3.674   3.471 -0.0175  0.5114 -0.0010
 7554SOL     OW29987   3.764   5.313   2.131 -0.3025  0.1939  0.1972
 7554SOL    HW229988   3.746   5.359   2.049  0.6141  0.3685  0.0802
 7554SOL    HW329989   3.703   5.351   2.194 -0.5640  0.5222 -0.2520
 7554SOL    MW429990   3.754   5.324   2.129  0.7832 -0.0245 -0.3283
 7555SOL     OW29991   6.374   1.635   2.587  0.0036 -0.0736 -0.4807
 7555SOL    HW229992   6.353   1.678   2.670 -1.5768  0.2375 -1.0240
 7555SOL    HW329993   6.381   1.707   2.524  1.5537 -0.2743 -0.5852
 7555SOL    MW429994   6.372   1.650   2.590  0.4475 -0.0222  0.5015
 7556SOL     OW29995   0.065   3.140   1.617 -0.4303 -0.7936 -0.3210
 7556SOL    HW229996   0.009   3.169   1.545  1.3059  2.3264 -0.5667
 7556SOL    HW329997   0.132   3.086   1.575 -0.4564 -0.4724 -0.7849
 7556SOL    MW429998   0.066   3.136   1.602 -0.3728  0.1003 -0.6657
 7557SOL     OW29999   4.142   3.563   2.402  0.1522 -0.1801  0.0242
 7557SOL    HW230000   4.163   3.612   2.322  0.1940  2.3177  1.4729
 7557SOL    HW330001   4.047   3.564   2.407  0.1730  0.5005  0.4548
 7557SOL    MW430002   4.132   3.569   2.392 -0.1477  0.2270  0.0722
 7558SOL     OW30003   6.397   5.542   1.705  0.3522 -0.3454 -0.2292
 7558SOL    HW230004   6.449   5.467   1.677 -0.8226 -1.2849  0.0506
 7558SOL    HW330005   6.461   5.604   1.740  1.1906 -1.9527  1.2309
 7558SOL    MW430006   6.412   5.540   1.706  0.3931 -0.2592 -0.4520
 7559SOL     OW30007   4.000   5.105   0.989  0.8499  0.3012 -0.4615
 7559SOL    HW230008   3.977   5.194   1.016 -0.5734  0.0969 -0.8789
 7559SOL    HW330009   4.021   5.114   0.896  0.8319  0.2249 -0.4727
 7559SOL    MW430010   4.000   5.118   0.980 -0.0083  0.2447 -0.8599
 7560SOL     OW30011   0.336   2.183   1.284 -0.6167 -0.0165  0.2346
 7560SOL    HW230012   0.367   2.228   1.205  0.4412 -0.2711  0.4879
 7560SOL    HW330013   0.299   2.253   1.338  1.4080  0.6851  0.8103
 7560SOL    MW430014   0.335   2.198   1.281  0.3805  0.2922 -0.1972
 7561SOL     OW30015   2.910   3.300   4.358  0.0137  0.7696 -0.3307
 7561SOL    HW230016   2.936   3.392   4.367  2.1070  0.1134  1.1326
 7561SOL    HW330017   2.896   3.270   4.448  1.0951 -0.7866 -0.6485
 7561SOL    MW430018   2.911   3.308   4.371 -0.4017  0.2719  0.0252
 7562SOL     OW30019   0.528   0.019   0.314 -0.1129 -0.1296 -0.2272
 7562SOL    HW230020   0.438   0.042   0.290  0.2955  1.6982 -0.1270
 7562SOL    HW330021   0.552   0.082   0.382  1.2617 -0.5821 -0.2660
 7562SOL    MW430022   0.520   0.030   0.320  0.6659  0.0155 -0.1247
 7563SOL     OW30023   2.468   3.996   3.042  0.0080  0.4334 -0.4116
 7563SOL    HW230024   2.374   3.974   3.041 -0.1472  1.0770 -0.5432
 7563SOL    HW330025   2.499   3.969   2.955  0.2854 -1.1499  0.1456
 7563SOL    MW430026   2.460   3.990   3.030  0.5162  0.1148  0.3446
 7564SOL     OW30027   0.868   5.167   0.923  0.1829  0.1917  0.4714
 7564SOL    HW230028   0.805   5.103   0.957  0.4440 -0.0633  0.4838
 7564SOL    HW330029   0.949   5.149   0.971  0.3759  0.2534  0.1741
 7564SOL    MW430030   0.871   5.156   0.934 -0.5639 -0.2403  0.3191
 7565SOL     OW30031   4.695   3.204   2.069  0.0132  0.8087 -0.0432
 7565SOL    HW230032   4.659   3.242   1.989 -1.2306 -1.1571 -0.4872
 7565SOL    HW330033   4.678   3.270   2.137 -3.2858  0.5987 -0.5050
 7565SOL    MW430034   4.688   3.218   2.067 -0.5830 -0.0764 -0.0248
 7566SOL     OW30035   5.110   2.610   2.705 -0.3470  0.5216  0.2739
 7566SOL    HW230036   5.167   2.533   2.695 -2.3076 -1.1208  0.9306
 7566SOL    HW330037   5.161   2.683   2.670  2.2263 -0.7847  1.0372
 7566SOL    MW430038   5.124   2.609   2.699 -0.3803  0.1585  0.1265
 7567SOL     OW30039   5.018   2.275   6.101  0.0093  0.0213  0.1648
 7567SOL    HW230040   5.050   2.364   6.084 -1.7871  1.2087  2.3513
 7567SOL    HW330041   5.096   2.224   6.121  0.9649  1.4935  0.3128
 7567SOL    MW430042   5.032   2.280   6.101  0.2777  0.2220  0.4626
 7568SOL     OW30043   5.365   4.542   2.636  0.3233 -0.4712  0.5815
 7568SOL    HW230044   5.304   4.486   2.683  1.1796 -2.1720 -0.2227
 7568SOL    HW330045   5.310   4.610   2.597 -1.0249 -1.6771  0.2694
 7568SOL    MW430046   5.350   4.544   2.637  0.4974 -0.0550 -0.0367
 7569SOL     OW30047   0.808   3.811   5.982 -0.7051  0.1653 -0.2642
 7569SOL    HW230048   0.814   3.716   5.993 -0.2407  0.3153  0.9130
 7569SOL    HW330049   0.837   3.826   5.892 -0.7447 -0.8045 -0.4535
 7569SOL    MW430050   0.813   3.800   5.972 -0.3482 -0.1259 -0.0866
 7570SOL     OW30051   2.497   5.552   4.891 -0.4286  0.0783  0.3301
 7570SOL    HW230052   2.515   5.532   4.983  0.0333  2.6915  0.8907
 7570SOL    HW330053   2.542   5.635   4.875 -0.8747 -0.0706 -2.1503
 7570SOL    MW430054   2.506   5.560   4.901 -0.2719 -0.3205 -0.1535
 7571SOL     OW30055   0.311   1.815   2.425  0.4024  0.2094  0.7853
 7571SOL    HW230056   0.251   1.880   2.389 -1.8433  0.0504  3.8587
 7571SOL    HW330057   0.386   1.865   2.455  0.4166  0.8548 -0.2898
 7571SOL    MW430058   0.313   1.830   2.424  0.0308  0.2880 -0.1888
 7572SOL     OW30059   0.604   4.937   3.568  0.0500 -0.3211 -0.4624
 7572SOL    HW230060   0.650   4.985   3.637  1.4378 -0.5943 -1.1655
 7572SOL    HW330061   0.521   4.984   3.557 -0.6189 -0.7639  1.9757
 7572SOL    MW430062   0.599   4.949   3.576 -0.4962  0.2298 -1.2181
 7573SOL     OW30063   5.160   4.623   3.193 -0.3325  0.0152 -0.5686
 7573SOL    HW230064   5.213   4.699   3.217 -0.3648 -0.4058  0.9223
 7573SOL    HW330065   5.194   4.596   3.108  0.9649  0.5417 -0.2430
 7573SOL    MW430066   5.171   4.630   3.185  0.0255 -0.4974  0.4748
 7574SOL     OW30067   4.343   1.408   5.739 -0.0160 -0.7390 -0.0095
 7574SOL    HW230068   4.316   1.427   5.649 -0.5528 -0.4263  0.2123
 7574SOL    HW330069   4.429   1.450   5.747  0.3886 -1.4312 -0.6091
 7574SOL    MW430070   4.351   1.416   5.728 -0.1119  0.1108  0.4229
 7575SOL     OW30071   1.197   6.250   3.028  0.0114  0.4705  0.0731
 7575SOL    HW230072   1.181   6.239   3.121  0.7183  0.2582  0.1737
 7575SOL    HW330073   1.159   6.335   3.006 -0.4768  0.3567  0.4754
 7575SOL    MW430074   1.190   6.260   3.037  0.0786 -0.7238  0.1231
 7576SOL     OW30075   5.173   1.434   0.431  0.3069 -0.7883  0.0046
 7576SOL    HW230076   5.163   1.345   0.396 -1.7914 -0.4195 -0.4940
 7576SOL    HW330077   5.262   1.460   0.405  0.8039 -2.5702 -0.2134
 7576SOL    MW430078   5.184   1.426   0.423  0.0064 -0.3293  0.2265
 7577SOL     OW30079   1.571   0.233   2.782 -0.0300  0.0179  0.9069
 7577SOL    HW230080   1.591   0.150   2.826  1.8516  0.4070  0.8893
 7577SOL    HW330081   1.538   0.289   2.853  0.4105 -0.1973  1.2925
 7577SOL    MW430082   1.570   0.229   2.797 -0.0671 -0.2344  0.0624
 7578SOL     OW30083   4.608   1.127   5.913  0.2191 -0.2717 -0.4531
 7578SOL    HW230084   4.519   1.133   5.878  0.1832 -0.8787 -0.4764
 7578SOL    HW330085   4.597   1.090   6.000  0.3743  0.5537 -0.0717
 7578SOL    MW430086   4.595   1.123   5.920 -0.0713  0.5619  0.1181
 7579SOL     OW30087   0.870   4.883   0.687 -0.1344 -0.0980 -0.0739
 7579SOL    HW230088   0.933   4.898   0.758 -0.1916  2.2193 -0.4240
 7579SOL    HW330089   0.787   4.869   0.731 -0.2425  1.7181  0.3594
 7579SOL    MW430090   0.868   4.883   0.702  0.2054  0.2386 -0.1942
 7580SOL     OW30091   0.220   4.788   0.743  0.2907  0.1043  0.4258
 7580SOL    HW230092   0.147   4.759   0.797  0.0785  1.5559  0.9849
 7580SOL    HW330093   0.201   4.756   0.655 -1.2572  0.8264  0.4704
 7580SOL    MW430094   0.208   4.780   0.739 -0.3976  0.0694  0.1682
 7581SOL     OW30095   4.410   1.671   1.337  0.3956 -0.4705 -0.0321
 7581SOL    HW230096   4.339   1.671   1.401  0.2418 -0.9793 -0.1966
 7581SOL    HW330097   4.387   1.602   1.275  0.0660  0.6560 -1.1974
 7581SOL    MW430098   4.398   1.662   1.337 -0.4642 -0.0095 -0.3606
 7582SOL     OW30099   2.106   0.281   0.134 -0.5441 -0.0195 -0.0246
 7582SOL    HW230100   2.084   0.260   0.225  1.3128  2.3611  1.0831
 7582SOL    HW330101   2.083   0.374   0.125  0.7005  0.1762 -1.4948
 7582SOL    MW430102   2.100   0.290   0.145  0.3576  0.0272 -0.1483
 7583SOL     OW30103   1.856   4.084   3.303 -0.0955  0.4509 -0.0487
 7583SOL    HW230104   1.881   4.176   3.317  0.9115 -0.1472  2.7275
 7583SOL    HW330105   1.830   4.080   3.211  2.4878  2.9207 -1.0363
 7583SOL    MW430106   1.856   4.096   3.293 -0.0549 -0.3792 -0.3202
 7584SOL     OW30107   2.992   2.407   2.884 -0.0191 -0.2289  0.1320
 7584SOL    HW230108   3.011   2.349   2.810  0.1069 -0.9100  0.6909
 7584SOL    HW330109   3.075   2.413   2.932  0.8204  2.7241 -1.4582
 7584SOL    MW430110   3.005   2.400   2.881  0.7219  0.2628 -0.1573
 7585SOL     OW30111   5.974   6.026   1.706  0.2386  0.0794  0.2518
 7585SOL    HW230112   5.906   6.000   1.767 -0.7039  2.5103  0.3669
 7585SOL    HW330113   6.053   6.034   1.760 -0.2284  0.6909  0.8567
 7585SOL    MW430114   5.976   6.024   1.721 -0.8451 -0.1514  0.6630
 7586SOL     OW30115   2.842   1.226   4.454  0.0169  0.2165  0.0091
 7586SOL    HW230116   2.934   1.219   4.425 -0.8864  0.2579 -3.2657
 7586SOL    HW330117   2.808   1.137   4.445 -0.7535  0.5794 -0.7153
 7586SOL    MW430118   2.850   1.213   4.449  0.2876 -0.5034 -0.1911
 7587SOL     OW30119   1.236   1.693   0.639  0.4028 -0.0093 -0.0074
 7587SOL    HW230120   1.178   1.692   0.564 -0.9216  1.0508  0.9515
 7587SOL    HW330121   1.210   1.617   0.691 -0.1660  0.4651  0.4217
 7587SOL    MW430122   1.225   1.683   0.636  0.7767  0.3791  0.2218
 7588SOL     OW30123   0.151   5.123   6.089  0.1967  0.5609 -0.6077
 7588SOL    HW230124   0.136   5.182   6.016  1.3179  1.5024 -0.0928
 7588SOL    HW330125   0.226   5.070   6.063  1.2151  1.5472  0.2138
 7588SOL    MW430126   0.159   5.123   6.076  0.1480 -0.1849  0.0189
 7589SOL     OW30127   5.336   1.224   0.866  0.0132  0.4000 -0.0101
 7589SOL    HW230128   5.352   1.201   0.775  1.4963 -2.4382  0.8346
 7589SOL    HW330129   5.282   1.153   0.899 -0.3625  1.2913  1.3859
 7589SOL    MW430130   5.331   1.212   0.858 -0.1985 -0.6951  0.1291
 7590SOL     OW30131   0.109   3.460   5.245  0.2089  0.4592  0.5467
 7590SOL    HW230132   0.132   3.541   5.199  0.5385  0.2508  0.3375
 7590SOL    HW330133   0.017   3.445   5.222  0.5544 -0.0015 -0.6163
 7590SOL    MW430134   0.100   3.468   5.236  0.5275 -0.0353 -0.5705
 7591SOL     OW30135   1.990   1.698   2.366  0.2003  0.4855  0.4484
 7591SOL    HW230136   2.055   1.762   2.395 -0.2658  0.1304  2.3842
 7591SOL    HW330137   1.926   1.695   2.437 -0.7754 -0.7879 -0.4398
 7591SOL    MW430138   1.990   1.706   2.379  0.5311  0.5616  0.0023
 7592SOL     OW30139   1.773   0.919   5.123  0.6631  0.5858  0.4218
 7592SOL    HW230140   1.760   0.826   5.107 -0.0452  0.8097 -0.4050
 7592SOL    HW330141   1.746   0.932   5.214 -2.2745  0.4835 -0.3311
 7592SOL    MW430142   1.768   0.908   5.133 -0.8421  0.6268 -0.0981
 7593SOL     OW30143   2.806   2.117   5.232  0.0899  0.0318  0.1675
 7593SOL    HW230144   2.797   2.162   5.316  2.4026  0.8868  0.0509
 7593SOL    HW330145   2.853   2.036   5.253 -0.2339 -0.2418 -0.1671
 7593SOL    MW430146   2.811   2.112   5.246 -0.8298  0.4629 -0.3514
 7594SOL     OW30147   5.150   0.977   4.558 -0.2875  0.0323 -0.1683
 7594SOL    HW230148   5.165   0.884   4.571  0.4560  0.0837 -0.6511
 7594SOL    HW330149   5.234   1.019   4.580 -0.0119  0.4136 -1.8277
 7594SOL    MW430150   5.163   0.971   4.563  0.6905 -0.1083 -0.3581
 7595SOL     OW30151   5.357   0.726   0.862  0.0646 -0.1218 -0.1593
 7595SOL    HW230152   5.390   0.770   0.940 -0.5565 -0.2136  0.1586
 7595SOL    HW330153   5.401   0.770   0.789  0.3135  0.2593  0.2189
 7595SOL    MW430154   5.367   0.738   0.862 -0.4202 -0.3795 -0.0147
 7596SOL     OW30155   2.323   0.512   5.629 -0.5611 -0.1535 -0.1880
 7596SOL    HW230156   2.239   0.499   5.674 -0.4569 -0.2165 -0.0108
 7596SOL    HW330157   2.318   0.455   5.553 -0.7035 -0.1142 -0.2092
 7596SOL    MW430158   2.311   0.503   5.625  0.0543 -0.1171  0.2257
 7597SOL     OW30159   5.553   0.967   3.884  0.2843 -0.2865  0.0119
 7597SOL    HW230160   5.560   0.891   3.942 -3.9443 -0.1713  0.9780
 7597SOL    HW330161   5.560   0.932   3.796  0.2493 -1.4971  0.4821
 7597SOL    MW430162   5.555   0.953   3.880 -0.4043  0.1976 -0.3272
 7598SOL     OW30163   0.328   2.529   5.730 -0.4033 -0.3195  0.1914
 7598SOL    HW230164   0.304   2.439   5.711  0.1827 -0.4323 -0.0289
 7598SOL    HW330165   0.263   2.582   5.682 -1.1810 -0.6178  0.8963
 7598SOL    MW430166   0.316   2.524   5.721  0.0695 -0.6089  0.0534
 7599SOL     OW30167   0.894   5.995   1.778 -0.3173 -0.0496 -0.0043
 7599SOL    HW230168   0.970   5.937   1.789 -0.3481 -0.3472 -1.1994
 7599SOL    HW330169   0.830   5.962   1.841  0.5474  0.2242  1.0388
 7599SOL    MW430170   0.896   5.983   1.788 -0.8288 -0.7469 -0.1800
 7600SOL     OW30171   3.812   4.935   3.687 -0.5076  0.4131 -0.7783
 7600SOL    HW230172   3.883   4.935   3.751 -1.1875  0.7670 -0.0169
 7600SOL    HW330173   3.806   5.026   3.658  0.3977  0.1038 -2.0494
 7600SOL    MW430174   3.821   4.947   3.691 -0.1592 -0.0428 -0.0916
 7601SOL     OW30175   5.656   5.483   5.793 -0.1324  0.4123  0.1004
 7601SOL    HW230176   5.678   5.574   5.815  0.1081  0.5521 -0.6924
 7601SOL    HW330177   5.596   5.456   5.863 -0.7433  1.4048 -0.0133
 7601SOL    MW430178   5.651   5.492   5.805  0.2316  0.2125 -0.2798
 7602SOL     OW30179   2.373   1.177   1.562  0.5575  0.5828 -0.5565
 7602SOL    HW230180   2.312   1.166   1.489  0.2256  1.0496 -0.3510
 7602SOL    HW330181   2.366   1.096   1.611  0.1495  0.6070 -0.5707
 7602SOL    MW430182   2.364   1.165   1.559  0.1185  0.4825 -0.1530
 7603SOL     OW30183   1.682   3.698   6.194  0.1087 -0.1078 -0.2698
 7603SOL    HW230184   1.687   3.628   6.260 -0.2838 -0.0640 -0.1912
 7603SOL    HW330185   1.771   3.735   6.192  0.5727 -1.1880 -0.9560
 7603SOL    MW430186   1.695   3.694   6.203 -0.7880 -0.7279  0.2124
 7604SOL     OW30187   4.970   0.170   2.905  0.4023 -0.0767 -0.0549
 7604SOL    HW230188   4.919   0.169   2.987 -2.2094 -1.5075 -1.5627
 7604SOL    HW330189   5.006   0.082   2.899  1.0223  0.1847 -0.2210
 7604SOL    MW430190   4.968   0.158   2.915 -0.2795 -0.4524  0.1744
 7605SOL     OW30191   0.874   5.459   4.389 -0.0812  0.0327  0.3951
 7605SOL    HW230192   0.948   5.445   4.448 -0.3848  0.2946  0.8398
 7605SOL    HW330193   0.852   5.371   4.358  0.2429 -0.0775  0.4683
 7605SOL    MW430194   0.881   5.445   4.393 -0.0377 -0.1951 -0.1345
 7606SOL     OW30195   1.308   1.294   4.873  0.1375 -0.2792 -0.3731
 7606SOL    HW230196   1.330   1.202   4.859  0.2230 -0.4348  0.6662
 7606SOL    HW330197   1.239   1.312   4.810  1.1982 -0.6015 -1.6827
 7606SOL    MW430198   1.302   1.284   4.863  0.5519  0.3336 -0.2970
 7607SOL     OW30199   5.405   0.043   3.189 -0.6571  0.6703  0.0105
 7607SOL    HW230200   5.447   0.125   3.214  1.4467 -0.8210  1.6805
 7607SOL    HW330201   5.365   0.011   3.270  0.6599 -1.0895  0.0167
 7607SOL    MW430202   5.405   0.049   3.203 -0.0836  0.3742 -0.3867
 7608SOL     OW30203   1.718   4.740   0.633 -0.1278  0.2599  0.1596
 7608SOL    HW230204   1.666   4.659   0.637 -0.6479  0.4709 -1.4995
 7608SOL    HW330205   1.715   4.775   0.722 -0.0519 -1.4370  0.8693
 7608SOL    MW430206   1.711   4.734   0.645  0.0414  0.4920  0.2015
 7609SOL     OW30207   0.346   0.069   5.805 -0.0433 -0.0226  0.1135
 7609SOL    HW230208   0.380   0.133   5.866  0.4435 -0.9317  0.8278
 7609SOL    HW330209   0.311  -0.001   5.860  2.4878 -1.9633 -0.5523
 7609SOL    MW430210   0.346   0.068   5.820 -0.1450  0.0029  0.1620
 7610SOL     OW30211   0.058   2.175   1.953 -0.0271 -0.3899  0.2952
 7610SOL    HW230212   0.119   2.102   1.942 -0.4934 -0.9241  1.1474
 7610SOL    HW330213   0.064   2.224   1.871  0.6009 -1.1540 -0.1273
 7610SOL    MW430214   0.067   2.172   1.941 -0.1758 -0.3700  0.2543
 7611SOL     OW30215   0.796   0.426   1.884  0.3511  0.0618  0.0639
 7611SOL    HW230216   0.734   0.361   1.850  1.2833 -1.7246  1.6390
 7611SOL    HW330217   0.741   0.501   1.907 -0.8895 -0.5374 -0.8133
 7611SOL    MW430218   0.780   0.428   1.882  0.5988 -0.2778 -0.6518
 7612SOL     OW30219   5.183   0.461   5.763 -0.0595  0.1709  0.6192
 7612SOL    HW230220   5.275   0.479   5.785 -0.1325  2.2728 -0.5135
 7612SOL    HW330221   5.174   0.490   5.672 -1.4395 -1.6989  0.1033
 7612SOL    MW430222   5.194   0.467   5.754 -0.4962 -0.3009  0.4652
 7613SOL     OW30223   5.922   1.274   0.498 -0.2602  0.6708 -0.5226
 7613SOL    HW230224   5.964   1.242   0.419  0.1897  0.2477 -0.1151
 7613SOL    HW330225   5.869   1.348   0.468 -0.4405  0.2411 -1.2864
 7613SOL    MW430226   5.920   1.280   0.484 -0.2338  0.6628  0.8730
 7614SOL     OW30227   2.753   2.926   3.390 -0.2611  0.3905 -0.8956
 7614SOL    HW230228   2.691   2.905   3.459  1.7450 -1.3482  0.4840
 7614SOL    HW330229   2.730   2.867   3.318 -1.8818  1.6920 -1.5181
 7614SOL    MW430230   2.742   2.916   3.389 -0.0498 -0.7668 -0.1414
 7615SOL     OW30231   0.839   5.672   5.417 -0.3947 -0.0747  0.2580
 7615SOL    HW230232   0.858   5.696   5.508  0.7633  1.4913 -0.3392
 7615SOL    HW330233   0.815   5.755   5.376 -1.0111 -0.7864 -0.8442
 7615SOL    MW430234   0.839   5.686   5.424  0.1258  0.3906 -0.0842
 7616SOL     OW30235   1.706   1.007   1.012  0.4963  0.7532  0.3961
 7616SOL    HW230236   1.784   0.970   0.972  1.7179 -0.2957  3.4541
 7616SOL    HW330237   1.650   0.932   1.029 -0.9093  1.4121 -1.0431
 7616SOL    MW430238   1.709   0.992   1.009  0.4767  0.4076  0.0514
 7617SOL     OW30239   2.838   0.699   1.108 -0.0462 -0.4538 -0.4421
 7617SOL    HW230240   2.800   0.787   1.101 -1.7302 -0.8867  1.8561
 7617SOL    HW330241   2.913   0.710   1.166 -0.3288 -0.5285 -0.0567
 7617SOL    MW430242   2.843   0.712   1.115 -0.0521  0.0854  0.0783
 7618SOL     OW30243   1.217   4.558   3.578 -0.4661 -0.2185 -0.1505
 7618SOL    HW230244   1.164   4.635   3.597  0.7534  0.4497  0.7441
 7618SOL    HW330245   1.197   4.497   3.649  0.8975  0.5662  0.9591
 7618SOL    MW430246   1.208   4.560   3.590  0.2159 -0.1192  0.2632
 7619SOL     OW30247   5.697   4.313   1.581 -0.6574  0.1261  0.1196
 7619SOL    HW230248   5.723   4.254   1.652 -0.6752  1.4668  1.2792
 7619SOL    HW330249   5.603   4.323   1.591 -0.4676  1.4159  0.8056
 7619SOL    MW430250   5.688   4.306   1.591  0.4788  0.4258 -0.8141
 7620SOL     OW30251   3.918   1.058   1.526 -0.2094  0.0767 -0.1277
 7620SOL    HW230252   3.910   1.148   1.557  0.0420 -0.1418  0.5862
 7620SOL    HW330253   3.975   1.015   1.589 -1.0350 -0.8164  0.0411
 7620SOL    MW430254   3.924   1.064   1.538  0.4958 -0.0702 -0.1664
 7621SOL     OW30255   6.326   2.952   4.077  0.5373  0.4008  0.4241
 7621SOL    HW230256   6.285   2.994   4.153 -0.0316 -0.6778  0.7291
 7621SOL    HW330257   6.268   2.972   4.004  1.5228  2.1609  0.0675
 7621SOL    MW430258   6.313   2.960   4.078  0.4239 -0.2109  0.2321
 7622SOL     OW30259   0.670   0.402   4.843 -0.2021 -0.0164  0.2210
 7622SOL    HW230260   0.741   0.466   4.841 -1.3170  1.3237  0.7903
 7622SOL    HW330261   0.597   0.446   4.799 -0.9214 -1.0079  0.3845
 7622SOL    MW430262   0.669   0.417   4.837  0.2288 -0.9669 -0.3352
 7623SOL     OW30263   3.213   5.837   0.327 -0.0269  0.4731 -0.0895
 7623SOL    HW230264   3.188   5.749   0.355 -2.3783  0.6780 -1.2831
 7623SOL    HW330265   3.215   5.888   0.408 -1.0879 -0.1642  0.3631
 7623SOL    MW430266   3.210   5.832   0.341 -0.0484  0.1816 -0.5855
 7624SOL     OW30267   3.192   4.955   3.908  0.6026 -0.1798  0.2093
 7624SOL    HW230268   3.278   4.928   3.876  0.2094  1.0582 -2.1516
 7624SOL    HW330269   3.131   4.924   3.842 -0.8150 -0.9786  1.8116
 7624SOL    MW430270   3.196   4.948   3.895  0.4382  0.1802  0.2166
 7625SOL     OW30271   3.451   4.183   6.024  0.5849 -0.5180  0.3540
 7625SOL    HW230272   3.367   4.139   6.022  0.6973 -0.9482  2.6281
 7625SOL    HW330273   3.502   4.140   5.955 -1.0966 -0.0287 -1.2766
 7625SOL    MW430274   3.447   4.171   6.015 -0.9796 -0.1378 -0.4012
 7626SOL     OW30275   0.352   1.074   3.662  0.1017 -0.2911 -0.2026
 7626SOL    HW230276   0.308   1.150   3.624 -0.2372 -0.5381 -0.3102
 7626SOL    HW330277   0.384   1.105   3.747  1.1966  0.3698 -0.8354
 7626SOL    MW430278   0.350   1.088   3.668  0.5593  0.0826  0.1613
 7627SOL     OW30279   4.714   4.038   0.529 -0.2283  0.1742  0.1503
 7627SOL    HW230280   4.645   4.092   0.568 -3.1406 -2.3686 -1.0950
 7627SOL    HW330281   4.698   4.044   0.435  1.9639  0.3025 -0.2666
 7627SOL    MW430282   4.703   4.046   0.522 -0.1838  0.4114 -0.9313
 7628SOL     OW30283   0.667   0.141   6.088 -0.2055 -0.3066 -0.2560
 7628SOL    HW230284   0.692   0.134   6.180 -0.8559  0.3000 -0.0288
 7628SOL    HW330285   0.709   0.065   6.046  0.3281 -0.4297  0.4785
 7628SOL    MW430286   0.676   0.130   6.094  0.0788  0.4785  0.2310
 7629SOL     OW30287   1.929   5.371   0.590  0.1437  0.2776  0.3109
 7629SOL    HW230288   1.904   5.329   0.672  0.8479 -0.9655 -0.0915
 7629SOL    HW330289   1.983   5.445   0.617  1.3557 -0.8014  0.9540
 7629SOL    MW430290   1.933   5.375   0.604 -0.2925 -0.4182 -0.1116
 7630SOL     OW30291   5.569   4.774   2.040 -0.6158 -0.4723 -0.0231
 7630SOL    HW230292   5.473   4.781   2.041 -0.5712  0.4336 -0.6602
 7630SOL    HW330293   5.591   4.734   2.124 -1.5853 -1.2154 -0.0990
 7630SOL    MW430294   5.559   4.770   2.051 -0.8812  0.0158  0.3149
 7631SOL     OW30295   2.241   2.145   2.554  0.2108 -0.2965 -0.5463
 7631SOL    HW230296   2.278   2.231   2.535 -0.2782  0.1003  0.2306
 7631SOL    HW330297   2.169   2.163   2.615 -1.6500 -0.9751 -2.4341
 7631SOL    MW430298   2.236   2.159   2.560  0.1869 -0.2960  0.0155
 7632SOL     OW30299   1.068   5.609   5.279 -0.4696 -0.0949 -0.1449
 7632SOL    HW230300   1.129   5.589   5.350  0.3248  2.4232 -0.0387
 7632SOL    HW330301   0.981   5.605   5.320 -0.2571 -1.5738  0.2115
 7632SOL    MW430302   1.064   5.606   5.294 -0.0599  0.5821 -0.4097
 7633SOL     OW30303   0.064   5.839   2.896 -0.4056 -0.1582 -0.1543
 7633SOL    HW230304   0.006   5.891   2.951  0.5489 -0.7087  1.4459
 7633SOL    HW330305   0.076   5.757   2.944 -0.5386 -1.1961 -1.8095
 7633SOL    MW430306   0.058   5.835   2.910  0.6875  0.4593  0.0886
 7634SOL     OW30307   2.094   1.424   4.993 -0.4802  0.3653 -0.5146
 7634SOL    HW230308   2.134   1.349   5.037 -1.2471  0.0783 -0.2869
 7634SOL    HW330309   2.018   1.387   4.947 -1.7389  1.2160  0.7939
 7634SOL    MW430310   2.089   1.409   4.993  0.1665 -0.1242  0.1381
 7635SOL     OW30311   4.548   5.764   4.119  0.4835  0.3197  0.6601
 7635SOL    HW230312   4.512   5.852   4.130  0.5807  0.3039  1.1290
 7635SOL    HW330313   4.522   5.738   4.031  0.6000  0.8859  0.4544
 7635SOL    MW430314   4.540   5.772   4.109  0.2600 -0.1352 -0.6502
 7636SOL     OW30315   2.538   0.111   0.977  0.3863  0.0726 -1.1058
 7636SOL    HW230316   2.517   0.182   1.037  0.7501 -0.3305 -0.4867
 7636SOL    HW330317   2.538   0.032   1.033 -3.1112 -0.9330 -2.2431
 7636SOL    MW430318   2.535   0.110   0.993  0.3996 -0.3408 -0.3930
 7637SOL     OW30319   1.631   6.144   5.044 -0.3938 -0.2346  0.3138
 7637SOL    HW230320   1.718   6.108   5.027  0.4137  1.1980  1.1926
 7637SOL    HW330321   1.598   6.094   5.118  0.4250  0.3349  1.0821
 7637SOL    MW430322   1.638   6.132   5.051  0.1236  0.7811  0.6349
 7638SOL     OW30323   1.901   0.670   5.098 -0.5468 -0.2736  0.3468
 7638SOL    HW230324   1.944   0.660   5.013 -2.0700  0.2723 -0.5285
 7638SOL    HW330325   1.835   0.601   5.100 -1.6010  0.7038  0.3664
 7638SOL    MW430326   1.898   0.659   5.087  0.5724  0.0937  0.5725
 7639SOL     OW30327   0.249   6.263   5.920  0.1560  0.4057  0.0185
 7639SOL    HW230328   0.257   6.201   5.847 -0.9359  0.9971 -0.6304
 7639SOL    HW330329   0.323   6.241   5.978 -0.0611 -1.3289 -0.3009
 7639SOL    MW430330   0.260   6.252   5.918  0.2156  0.3404 -0.2597
 7640SOL     OW30331   2.688   2.639   1.613  0.3362 -0.1324 -0.2577
 7640SOL    HW230332   2.679   2.705   1.545 -1.5853  0.2448  0.3059
 7640SOL    HW330333   2.755   2.674   1.672 -0.1340  0.9834 -0.3622
 7640SOL    MW430334   2.696   2.652   1.612  0.1079  0.1776 -0.5401
 7641SOL     OW30335   5.431   1.276   2.269 -0.4695 -0.1005  0.1476
 7641SOL    HW230336   5.526   1.284   2.274 -0.4075 -1.3603  2.3001
 7641SOL    HW330337   5.415   1.203   2.210 -0.0865 -0.1553  0.1155
 7641SOL    MW430338   5.441   1.268   2.262  0.5635  0.3918  0.1575
 7642SOL     OW30339   4.511   3.256   0.905  0.2022 -0.3007 -0.2726
 7642SOL    HW230340   4.476   3.322   0.845  0.6172  1.1809  1.0639
 7642SOL    HW330341   4.535   3.183   0.847 -2.3744 -0.2679 -1.5436
 7642SOL    MW430342   4.510   3.255   0.889 -0.0413  0.1449 -0.1897
 7643SOL     OW30343   5.755   4.751   0.109  0.0439  0.8242  0.0376
 7643SOL    HW230344   5.799   4.747   0.194  3.0916 -0.3063 -1.4273
 7643SOL    HW330345   5.716   4.664   0.099  2.3621 -0.1941 -0.8996
 7643SOL    MW430346   5.755   4.739   0.119 -0.5834 -1.0784 -0.5753
 7644SOL     OW30347   0.690   0.362   2.407  0.1064 -0.2898 -0.1399
 7644SOL    HW230348   0.637   0.353   2.328  1.0251  1.1711 -0.9709
 7644SOL    HW330349   0.756   0.293   2.400  0.2948 -0.0477 -0.7480
 7644SOL    MW430350   0.692   0.352   2.396  0.5730  0.8028  0.0138
 7645SOL     OW30351   6.149   5.439   3.476  0.3295 -0.2374  0.4079
 7645SOL    HW230352   6.142   5.348   3.448 -0.4374 -0.3966  1.0418
 7645SOL    HW330353   6.136   5.435   3.571  2.3152  0.3228  0.7391
 7645SOL    MW430354   6.146   5.426   3.485 -0.1288 -0.3449 -0.0854
 7646SOL     OW30355   0.566   5.913   5.083  0.0691 -0.2599  0.1358
 7646SOL    HW230356   0.595   5.841   5.027 -0.7227 -0.0957 -0.5049
 7646SOL    HW330357   0.479   5.886   5.112 -1.6583  1.7542 -2.6327
 7646SOL    MW430358   0.558   5.900   5.080  0.0592 -0.4380  0.0470
 7647SOL     OW30359   0.783   0.134   4.485  0.0275  0.2491 -0.4101
 7647SOL    HW230360   0.849   0.160   4.549 -1.4980  1.5279  0.7290
 7647SOL    HW330361   0.779   0.039   4.491  3.1447 -0.1010 -2.0067
 7647SOL    MW430362   0.791   0.125   4.494  0.2957 -0.4217 -0.3267
 7648SOL     OW30363   1.254   3.010   1.085 -0.4860  0.7451  0.0581
 7648SOL    HW230364   1.217   3.067   1.017 -1.0112  2.3016  1.5859
 7648SOL    HW330365   1.335   3.053   1.111 -1.0891  1.0480  1.5189
 7648SOL    MW430366   1.259   3.023   1.079 -0.2228  0.1033 -0.2605
 7649SOL     OW30367   5.919   1.009   1.892 -0.0602  0.0878 -0.1110
 7649SOL    HW230368   5.926   0.999   1.797 -0.6750 -1.5713 -0.0104
 7649SOL    HW330369   5.975   0.940   1.927  1.1024  1.4266  0.7749
 7649SOL    MW430370   5.927   0.999   1.884  0.3942 -0.3565  0.1651
 7650SOL     OW30371   0.545   6.357   1.367  0.2921 -0.1389 -0.0133
 7650SOL    HW230372   0.605   6.296   1.326 -0.0818 -1.3208  1.1301
 7650SOL    HW330373   0.593   6.440   1.371  0.4410 -0.0396 -2.4890
 7650SOL    MW430374   0.559   6.360   1.362 -0.4788  0.5575 -0.1968
 7651SOL     OW30375   3.524   1.473   2.865  0.4808  0.1057  0.0113
 7651SOL    HW230376   3.512   1.567   2.851  1.4336  0.2412  0.0464
 7651SOL    HW330377   3.437   1.442   2.889  0.2257  1.0417  0.3623
 7651SOL    MW430378   3.511   1.482   2.866  0.6162 -0.2276 -0.0618
 7652SOL     OW30379   3.039   1.821   5.845  0.0343  0.4600  0.4457
 7652SOL    HW230380   3.030   1.776   5.761  0.5117  0.4448  0.3988
 7652SOL    HW330381   3.035   1.751   5.910  1.1621  0.2894  0.3530
 7652SOL    MW430382   3.037   1.806   5.842 -0.6002 -0.0680 -0.0951
 7653SOL     OW30383   1.201   4.283   1.490 -0.3404  0.0805  0.2994
 7653SOL    HW230384   1.186   4.290   1.584 -1.3644  3.2583  0.0041
 7653SOL    HW330385   1.164   4.198   1.467 -0.3369 -0.6539  2.6734
 7653SOL    MW430386   1.194   4.273   1.499  0.1816  0.0454 -0.4575
 7654SOL     OW30387   5.164   2.773   3.142 -0.1668  0.3061  0.0860
 7654SOL    HW230388   5.082   2.725   3.128 -0.6303  1.0736  0.1023
 7654SOL    HW330389   5.203   2.732   3.218  0.1068 -0.9139 -0.6862
 7654SOL    MW430390   5.158   2.761   3.150 -0.0675 -0.1327  0.5487
 7655SOL     OW30391   2.648   3.299   3.845 -0.4941  0.3433  0.1025
 7655SOL    HW230392   2.563   3.319   3.883 -1.3348 -1.1458 -0.9039
 7655SOL    HW330393   2.676   3.219   3.890 -0.3449 -0.0214 -0.6326
 7655SOL    MW430394   2.640   3.291   3.856  0.3764  1.0272  0.1053
 7656SOL     OW30395   0.363   2.203   4.363 -0.3383  0.4845  0.1379
 7656SOL    HW230396   0.368   2.194   4.268 -0.8699  0.3345  0.1238
 7656SOL    HW330397   0.285   2.153   4.388  0.0925  0.0808  0.7100
 7656SOL    MW430398   0.353   2.195   4.354  0.0874 -0.0372 -0.0974
 7657SOL     OW30399   5.437   4.347   0.713  0.3077  0.2999  0.1879
 7657SOL    HW230400   5.510   4.390   0.667  0.0569  0.1557 -0.3467
 7657SOL    HW330401   5.399   4.288   0.649 -0.4289  0.5406  0.3950
 7657SOL    MW430402   5.442   4.345   0.699  0.0213 -0.4159 -0.3698
 7658SOL     OW30403   3.923   0.464   2.429 -0.3497  0.3617  0.0807
 7658SOL    HW230404   3.929   0.414   2.510 -0.3891 -0.6858 -0.5306
 7658SOL    HW330405   4.000   0.436   2.379 -0.8770  0.1912 -0.6594
 7658SOL    MW430406   3.934   0.454   2.433  0.3130 -0.2686  0.0076
 7659SOL     OW30407   4.177   5.337   4.604 -0.2106  0.0341 -0.3852
 7659SOL    HW230408   4.177   5.388   4.523 -0.5788  0.6542 -0.0042
 7659SOL    HW330409   4.085   5.312   4.617 -0.0344 -0.7207 -0.5611
 7659SOL    MW430410   4.165   5.341   4.595 -0.1711  0.1218 -0.1510
 7660SOL     OW30411   4.539   1.604   3.337 -0.7851 -0.3514 -0.2270
 7660SOL    HW230412   4.566   1.672   3.399 -0.1317 -1.5345  0.8351
 7660SOL    HW330413   4.450   1.581   3.365 -0.8115 -0.2866 -0.2580
 7660SOL    MW430414   4.531   1.610   3.349 -0.0919 -0.1398 -0.5748
 7661SOL     OW30415   4.294   5.819   6.430  0.5901  0.0352  0.1083
 7661SOL    HW230416   4.376   5.854   6.395  0.8031 -1.8765 -1.4880
 7661SOL    HW330417   4.319   5.735   6.470  0.0027  1.2168  3.1932
 7661SOL    MW430418   4.308   5.812   6.430 -0.0301 -0.4650  0.3912
 7662SOL     OW30419   2.835   1.650   1.594  0.1656  0.3810 -0.2103
 7662SOL    HW230420   2.903   1.675   1.532  2.2128  2.5274  2.6094
 7662SOL    HW330421   2.852   1.557   1.612  2.3716  0.8104  0.2881
 7662SOL    MW430422   2.847   1.641   1.588  0.9541  0.2879 -0.4383
 7663SOL     OW30423   3.517   4.577   4.881 -0.2812 -0.0117 -0.1859
 7663SOL    HW230424   3.483   4.551   4.967  0.6099  0.8039  0.4386
 7663SOL    HW330425   3.542   4.669   4.892 -2.1101  0.7677 -1.9325
 7663SOL    MW430426   3.516   4.585   4.894  0.4629 -0.3910  0.6917
 7664SOL     OW30427   1.069   2.081   4.950 -0.2402  0.1286 -0.8469
 7664SOL    HW230428   1.074   2.157   5.008  1.1058  0.4727 -1.3842
 7664SOL    HW330429   0.993   2.099   4.893 -1.0429  0.1874  0.2130
 7664SOL    MW430430   1.059   2.094   4.950 -0.0132  0.1611 -0.1259
 7665SOL     OW30431   0.409   4.018   0.552  0.5570 -0.1677 -0.3102
 7665SOL    HW230432   0.429   3.925   0.540  0.0679 -0.3102 -0.0541
 7665SOL    HW330433   0.313   4.022   0.554  0.4702  0.6997 -3.0105
 7665SOL    MW430434   0.399   4.006   0.551 -0.1135  0.1418  0.2176
 7666SOL     OW30435   2.954   2.603   1.088  0.0213  0.0108  0.0854
 7666SOL    HW230436   2.991   2.522   1.056 -2.1194  0.2598 -3.5753
 7666SOL    HW330437   3.010   2.672   1.051 -0.8374  0.2559 -0.7936
 7666SOL    MW430438   2.966   2.602   1.079 -0.1740  0.5825 -0.3190
 7667SOL     OW30439   4.371   2.181   2.000  0.3934 -0.6614  0.2577
 7667SOL    HW230440   4.384   2.235   1.923 -1.1408  0.0090  0.4270
 7667SOL    HW330441   4.454   2.185   2.047  0.4897  1.1381  0.0008
 7667SOL    MW430442   4.383   2.189   1.996 -0.1983 -0.5223  0.3600
 7668SOL     OW30443   3.167   6.226   2.294 -0.3480 -0.4664 -0.5013
 7668SOL    HW230444   3.137   6.310   2.328  0.9260 -0.0648 -0.3174
 7668SOL    HW330445   3.153   6.164   2.366  2.2973  0.3692  0.8486
 7668SOL    MW430446   3.161   6.229   2.308  0.4971  0.0926 -0.6024
 7669SOL     OW30447   0.493   4.198   3.739  0.1099  0.4741 -0.1223
 7669SOL    HW230448   0.559   4.200   3.670  1.0012  0.5084  0.7153
 7669SOL    HW330449   0.442   4.119   3.721  2.1945 -1.1786  0.8485
 7669SOL    MW430450   0.495   4.188   3.727 -0.4843 -0.2730  0.3104
 7670SOL     OW30451   2.111   3.166   3.680  0.4102 -0.2492 -0.2362
 7670SOL    HW230452   2.080   3.098   3.740 -0.0029 -0.2591 -0.4546
 7670SOL    HW330453   2.033   3.190   3.628  0.6848 -0.0133 -0.5469
 7670SOL    MW430454   2.097   3.161   3.681 -0.2977 -0.0849  0.0489
 7671SOL     OW30455   2.549   4.989   2.712  0.1130  0.1774  0.0008
 7671SOL    HW230456   2.473   4.951   2.755  0.9928 -0.0581  1.4131
 7671SOL    HW330457   2.582   5.055   2.773  0.9700  0.3521 -0.6227
 7671SOL    MW430458   2.544   4.992   2.726  0.4494  0.2781  0.1272
 7672SOL     OW30459   2.018   3.504   3.563  0.3770  0.0627 -0.0074
 7672SOL    HW230460   1.962   3.427   3.555  0.5279 -0.1998  1.2479
 7672SOL    HW330461   2.068   3.507   3.482 -0.7385 -0.2653 -0.7307
 7672SOL    MW430462   2.017   3.494   3.551  0.4981 -0.0694  0.2078
 7673SOL     OW30463   5.473   2.919   3.383  0.4747 -0.2226 -0.0828
 7673SOL    HW230464   5.529   2.917   3.305  1.3130 -0.7589  0.5175
 7673SOL    HW330465   5.439   3.008   3.386  0.8228 -0.0617 -0.7921
 7673SOL    MW430466   5.476   2.930   3.373 -0.4135 -0.4449  0.0238
 7674SOL     OW30467   5.570   3.093   2.903  0.2891 -0.2725  0.1755
 7674SOL    HW230468   5.537   3.013   2.861  1.1829  0.1308 -1.3547
 7674SOL    HW330469   5.659   3.103   2.871 -0.1973  1.9964 -0.6582
 7674SOL    MW430470   5.577   3.084   2.893  0.2003 -0.7885  0.7047
 7675SOL     OW30471   3.820   3.789   3.869  0.1754  0.2730 -0.9254
 7675SOL    HW230472   3.906   3.788   3.828 -0.9565 -0.8049 -3.5496
 7675SOL    HW330473   3.795   3.881   3.873  1.2293  0.5555 -0.5468
 7675SOL    MW430474   3.828   3.801   3.864  0.4882  0.4955 -0.3729
 7676SOL     OW30475   6.003   3.563   4.900  0.5589  0.3911  0.3172
 7676SOL    HW230476   5.997   3.586   4.808 -0.1242 -1.2590 -0.0972
 7676SOL    HW330477   6.050   3.479   4.900 -1.2261 -0.6695  1.2476
 7676SOL    MW430478   6.009   3.555   4.888 -0.6343 -0.2141  0.2334
 7677SOL     OW30479   3.592   0.445   2.515 -0.0973 -0.2775  0.4910
 7677SOL    HW230480   3.505   0.469   2.483  0.6789 -0.8745 -2.3762
 7677SOL    HW330481   3.582   0.440   2.610 -2.5716  2.0066  0.4786
 7677SOL    MW430482   3.579   0.447   2.523  0.3770 -0.2897 -0.9475
 7678SOL     OW30483   2.909   4.145   4.963  0.5962 -0.3495 -0.0141
 7678SOL    HW230484   2.949   4.072   5.009  0.6037 -0.5390 -0.3166
 7678SOL    HW330485   2.906   4.216   5.027  0.3176 -0.7042  0.3690
 7678SOL    MW430486   2.914   4.145   4.977 -0.0399 -0.0621 -0.4202
 7679SOL     OW30487   6.348   4.987   0.271 -0.0609 -0.2312  0.0607
 7679SOL    HW230488   6.315   4.948   0.352 -0.3664 -0.2704 -0.0816
 7679SOL    HW330489   6.280   5.050   0.245  0.0864 -0.1386 -0.1056
 7679SOL    MW430490   6.335   4.990   0.278  0.0465 -0.5412 -0.2356
 7680SOL     OW30491   4.964   2.800   1.053  0.4236  0.3538 -0.3773
 7680SOL    HW230492   5.054   2.792   1.083  0.4300 -1.0308 -0.7261
 7680SOL    HW330493   4.912   2.754   1.119  0.0486  0.4728 -0.5827
 7680SOL    MW430494   4.969   2.793   1.066  0.1640 -0.8328  0.3493
 7681SOL     OW30495   4.926   4.749   4.116  0.3275 -0.0217  0.2179
 7681SOL    HW230496   5.005   4.783   4.158  0.1880 -0.3997  0.8017
 7681SOL    HW330497   4.875   4.827   4.094  1.4228  0.3082 -1.3437
 7681SOL    MW430498   4.929   4.764   4.119 -0.0609  0.2971  0.4596
 7682SOL     OW30499   3.708   2.934   6.324  0.5331  0.2292  0.2798
 7682SOL    HW230500   3.779   2.999   6.324 -0.4690  1.3925  1.6955
 7682SOL    HW330501   3.694   2.914   6.417 -2.7755  2.1347  0.3612
 7682SOL    MW430502   3.716   2.940   6.336  0.1882 -0.1299 -0.6983
 7683SOL     OW30503   2.383   3.895   4.461 -0.3313 -0.2114 -0.6348
 7683SOL    HW230504   2.438   3.831   4.505 -2.6041 -0.2485  2.4507
 7683SOL    HW330505   2.302   3.848   4.439 -1.3140  1.0916  0.0195
 7683SOL    MW430506   2.379   3.881   4.464  0.2255 -0.5933 -0.1831
 7684SOL     OW30507   0.586   1.192   1.309  0.0275 -0.2079 -0.5283
 7684SOL    HW230508   0.580   1.163   1.400  0.2210 -0.7449 -0.6821
 7684SOL    HW330509   0.580   1.111   1.258 -1.9899  0.2171 -1.0854
 7684SOL    MW430510   0.584   1.177   1.314 -0.1578  0.0429  0.1723
 7685SOL     OW30511   4.870   1.297   3.967  0.4701 -0.1393  0.7078
 7685SOL    HW230512   4.809   1.303   4.040 -1.2582 -1.0767 -0.6086
 7685SOL    HW330513   4.928   1.224   3.990 -0.5970 -0.9789  0.7635
 7685SOL    MW430514   4.870   1.288   3.980 -0.1424 -0.0506 -0.1454
 7686SOL     OW30515   4.730   1.856   5.332 -0.0383 -0.3830  0.4875
 7686SOL    HW230516   4.825   1.864   5.323 -0.1637  1.0261  0.2847
 7686SOL    HW330517   4.706   1.928   5.391 -1.4055  1.6105 -2.3068
 7686SOL    MW430518   4.739   1.866   5.339  0.0656 -0.0790  0.1570
 7687SOL     OW30519   4.657   4.165   3.946  0.0022 -0.5042 -0.8243
 7687SOL    HW230520   4.613   4.084   3.970  1.0858 -0.9734 -0.3195
 7687SOL    HW330521   4.652   4.220   4.024  0.7819 -0.7878 -0.5616
 7687SOL    MW430522   4.651   4.162   3.959  0.5490 -0.1649  0.3123
 7688SOL     OW30523   6.310   5.724   5.390 -0.1318  0.1443  0.4454
 7688SOL    HW230524   6.267   5.727   5.475 -0.4205  1.0407  0.2747
 7688SOL    HW330525   6.373   5.797   5.392 -2.0093  1.9185 -1.0833
 7688SOL    MW430526   6.313   5.734   5.401  0.0722 -0.3277  0.2687
 7689SOL     OW30527   4.749   4.343   2.640  0.0894  0.0070 -0.4366
 7689SOL    HW230528   4.769   4.426   2.596  1.9537  0.9350  1.9940
 7689SOL    HW330529   4.823   4.286   2.620  0.2243 -0.0761  0.2980
 7689SOL    MW430530   4.761   4.346   2.631 -0.6835  0.0449  0.4145
 7690SOL     OW30531   0.084   3.715   4.799  0.2347 -0.2298  0.5350
 7690SOL    HW230532   0.145   3.735   4.870  2.6819 -2.1226 -0.9209
 7690SOL    HW330533   0.012   3.670   4.842  0.7851  0.2510  2.0365
 7690SOL    MW430534   0.082   3.712   4.814  0.4352 -0.6669 -0.0685
 7691SOL     OW30535   3.171   3.118   2.856  0.2069  0.0875 -0.4705
 7691SOL    HW230536   3.220   3.037   2.846  0.4816  0.4685 -2.6027
 7691SOL    HW330537   3.231   3.176   2.905 -0.0207 -0.9541  1.1210
 7691SOL    MW430538   3.186   3.115   2.861 -0.1850  0.9083  0.0444
 7692SOL     OW30539   1.743   4.676   3.362  0.3007 -0.3371 -0.5228
 7692SOL    HW230540   1.836   4.654   3.357  0.3228 -0.3531 -0.0306
 7692SOL    HW330541   1.703   4.604   3.410  0.2037  0.1780  0.1817
 7692SOL    MW430542   1.750   4.664   3.367 -0.1105  0.5905 -1.0127
 7693SOL     OW30543   5.029   4.988   0.343  0.1803  0.0593 -0.0913
 7693SOL    HW230544   4.986   5.056   0.396 -1.5969 -1.5187  0.5938
 7693SOL    HW330545   4.969   4.974   0.270  1.4183  0.4438 -1.2252
 7693SOL    MW430546   5.015   4.995   0.341 -0.0376 -0.0657 -0.2211
 7694SOL     OW30547   1.489   0.960   1.767 -0.2682 -0.2610 -0.3165
 7694SOL    HW230548   1.430   0.947   1.693 -1.6205 -0.1276  0.7001
 7694SOL    HW330549   1.509   0.872   1.799 -0.2806 -0.2854 -0.3760
 7694SOL    MW430550   1.484   0.947   1.762  0.3456  0.3280 -0.1264
 7695SOL     OW30551   6.141   2.787   2.263 -0.3436 -0.8612  0.4510
 7695SOL    HW230552   6.053   2.748   2.265 -0.2609 -1.1242 -0.6903
 7695SOL    HW330553   6.153   2.815   2.173 -0.4098  1.8924  1.2315
 7695SOL    MW430554   6.131   2.785   2.252  0.3486  0.1692  0.6474
 7696SOL     OW30555   3.815   0.091   5.076  0.3609  0.3180 -0.1415
 7696SOL    HW230556   3.862   0.097   4.993 -2.2355  1.6827 -1.6322
 7696SOL    HW330557   3.865   0.146   5.136  2.0526 -0.3587 -0.8762
 7696SOL    MW430558   3.828   0.099   5.073  0.6892 -0.1077 -0.3645
 7697SOL     OW30559   0.690   2.342   2.915 -0.4708  0.1787 -0.5510
 7697SOL    HW230560   0.735   2.421   2.944 -0.2804  0.4495 -1.5519
 7697SOL    HW330561   0.760   2.284   2.885 -0.7118  0.2507 -1.2778
 7697SOL    MW430562   0.705   2.345   2.915 -0.3683  0.0568 -0.4533
 7698SOL     OW30563   5.855   2.421   0.074  0.1012 -0.2838  0.1313
 7698SOL    HW230564   5.884   2.330   0.077 -2.1145 -1.0524  2.4230
 7698SOL    HW330565   5.790   2.423   0.003  0.6510 -0.2999 -0.3773
 7698SOL    MW430566   5.850   2.409   0.065 -0.0928 -0.1115  0.2275
 7699SOL     OW30567   0.323   0.094   1.909 -0.4371  0.5366 -0.2439
 7699SOL    HW230568   0.285   0.125   1.991  0.5761 -0.9022  0.8344
 7699SOL    HW330569   0.254   0.105   1.845 -1.7071  0.5450  1.0743
 7699SOL    MW430570   0.309   0.099   1.912 -0.0320 -0.5844  0.1024
 7700SOL     OW30571   3.372   1.218   0.777  0.0780  0.2951  0.6596
 7700SOL    HW230572   3.277   1.229   0.782  0.0487  0.3695  0.0307
 7700SOL    HW330573   3.406   1.271   0.848 -0.4382 -1.1609  2.0746
 7700SOL    MW430574   3.364   1.226   0.787  0.5425  0.1044  0.1255
 7701SOL     OW30575   4.889   2.310   0.564  0.2093 -0.0475 -0.1338
 7701SOL    HW230576   4.864   2.401   0.548 -1.2185 -0.7214 -2.0949
 7701SOL    HW330577   4.840   2.285   0.641 -1.0542  0.2446 -0.8196
 7701SOL    MW430578   4.880   2.319   0.572 -0.1402 -0.4649 -0.3518
 7702SOL     OW30579   0.685   5.714   0.853  0.0955 -0.3569  0.3472
 7702SOL    HW230580   0.639   5.658   0.790 -0.0708  0.1065  0.0470
 7702SOL    HW330581   0.737   5.774   0.798 -2.0092  1.7688  0.4930
 7702SOL    MW430582   0.686   5.715   0.837 -0.2883 -0.0790 -0.4974
 7703SOL     OW30583   0.906   2.108   5.573  0.5602 -0.4110  0.1336
 7703SOL    HW230584   0.907   2.204   5.566 -0.1509 -0.4167 -0.0818
 7703SOL    HW330585   0.955   2.078   5.497  1.4231 -0.2018  0.5977
 7703SOL    MW430586   0.913   2.117   5.562 -0.3499  0.5193 -0.0581
 7704SOL     OW30587   3.273   3.501   2.100 -0.3004  0.8123 -0.1651
 7704SOL    HW230588   3.210   3.487   2.029 -1.6883  0.0597  1.1389
 7704SOL    HW330589   3.237   3.575   2.149  0.2487  0.8570  0.1730
 7704SOL    MW430590   3.260   3.509   2.097  0.6167  0.1549 -0.3112
 7705SOL     OW30591   1.339   0.208   2.291  0.1795 -0.1400  0.2209
 7705SOL    HW230592   1.273   0.205   2.360  1.4911  1.7851  1.6731
 7705SOL    HW330593   1.413   0.256   2.330  0.5230  2.1948 -2.8851
 7705SOL    MW430594   1.340   0.214   2.305  0.3658  0.3813 -0.3270
 7706SOL     OW30595   4.903   1.611   1.035 -0.0617 -0.4893 -0.2046
 7706SOL    HW230596   4.958   1.645   1.105  0.4341 -1.2474 -0.2174
 7706SOL    HW330597   4.924   1.666   0.959 -0.0483 -0.1507  0.0454
 7706SOL    MW430598   4.913   1.623   1.034 -0.7904  0.3123  0.0058
 7707SOL     OW30599   1.283   0.994   1.561 -0.1554 -0.1458 -1.2025
 7707SOL    HW230600   1.346   1.041   1.505  0.3740  0.3782 -0.1882
 7707SOL    HW330601   1.208   1.053   1.567  0.0461  0.0752 -0.8483
 7707SOL    MW430602   1.282   1.008   1.554 -0.1551 -0.3719 -0.0328
 7708SOL     OW30603   2.219   2.028   1.642  0.3958  0.5991  0.0836
 7708SOL    HW230604   2.152   2.088   1.611  0.9350  0.8400 -0.6341
 7708SOL    HW330605   2.235   2.055   1.733 -0.8546  0.1815  0.4481
 7708SOL    MW430606   2.213   2.039   1.650 -0.3265  0.1742  0.6063
 7709SOL     OW30607   5.867   0.342   1.090  0.4415 -0.0157  0.2731
 7709SOL    HW230608   5.869   0.364   1.183  0.1267 -1.0653  0.5423
 7709SOL    HW330609   5.933   0.399   1.050 -0.1045  1.1425  0.9731
 7709SOL    MW430610   5.876   0.353   1.097  0.4134 -0.2745 -0.5443
 7710SOL     OW30611   0.114   2.867   1.798  0.4632 -0.4080 -0.0773
 7710SOL    HW230612   0.149   2.828   1.878  0.8534 -0.1627 -0.1280
 7710SOL    HW330613   0.024   2.891   1.820  1.2971  1.9472  1.0913
 7710SOL    MW430614   0.107   2.865   1.811  0.0666  0.0007 -0.4279
 7711SOL     OW30615   5.174   1.574   4.958  0.3263  0.1892  0.1335
 7711SOL    HW230616   5.108   1.643   4.954  0.6971  0.5521  0.1137
 7711SOL    HW330617   5.126   1.493   4.941  0.0850  0.5772 -1.1533
 7711SOL    MW430618   5.159   1.572   4.955  0.2132 -0.4802 -0.0344
 7712SOL     OW30619   5.564   4.799   3.087  0.1398  0.0777 -0.1232
 7712SOL    HW230620   5.527   4.869   3.033 -0.1017  1.3460  1.5970
 7712SOL    HW330621   5.586   4.729   3.025  0.5025  1.7139 -1.9320
 7712SOL    MW430622   5.562   4.799   3.071 -0.0008 -0.3334  0.5293
 7713SOL     OW30623   1.868   1.006   4.190 -0.0939  0.0391 -0.0390
 7713SOL    HW230624   1.881   0.922   4.145 -0.1210 -0.6535  1.1950
 7713SOL    HW330625   1.896   0.989   4.280 -1.4352  0.9465  0.5831
 7713SOL    MW430626   1.873   0.993   4.196 -0.3344  0.2960 -0.4425
 7714SOL     OW30627   4.521   0.182   2.979 -0.3272 -0.3421 -0.6880
 7714SOL    HW230628   4.533   0.145   2.892  0.5415 -0.5309 -0.4920
 7714SOL    HW330629   4.609   0.202   3.010 -0.7494  1.8704 -0.7631
 7714SOL    MW430630   4.534   0.180   2.971  0.1781  0.0830  0.4559
 7715SOL     OW30631   1.436   3.639   3.855  0.0223  0.3725  0.2405
 7715SOL    HW230632   1.405   3.667   3.941 -1.6733 -0.5479 -0.0388
 7715SOL    HW330633   1.357   3.624   3.804  0.8036 -2.8942 -0.2433
 7715SOL    MW430634   1.422   3.641   3.859 -0.3704 -0.3059  0.3131
 7716SOL     OW30635   6.295   1.407   0.947 -0.1496 -0.2569  0.3576
 7716SOL    HW230636   6.214   1.356   0.955 -0.0071 -0.5146  0.1578
 7716SOL    HW330637   6.365   1.342   0.943  0.2495 -0.0009  2.4627
 7716SOL    MW430638   6.293   1.392   0.947 -0.1541  0.0255 -0.3195
 7717SOL     OW30639   0.823   4.437   6.252 -0.0281  0.2930  0.0440
 7717SOL    HW230640   0.804   4.366   6.190 -0.0423 -0.3704  0.7925
 7717SOL    HW330641   0.846   4.511   6.196  0.5080 -0.4438 -0.7585
 7717SOL    MW430642   0.824   4.437   6.236  0.4433 -0.5565  0.0876
 7718SOL     OW30643   5.915   2.901   2.525  0.0904  0.3910 -0.0369
 7718SOL    HW230644   5.929   2.942   2.610  0.9650  1.0069 -0.4652
 7718SOL    HW330645   5.910   2.807   2.545 -1.2750  0.6288  0.8679
 7718SOL    MW430646   5.916   2.894   2.539 -0.4292  0.0224 -0.0837
 7719SOL     OW30647   3.814   5.805   4.542  0.5012 -0.1615 -0.3463
 7719SOL    HW230648   3.896   5.819   4.589 -0.1233  0.8275  0.4857
 7719SOL    HW330649   3.836   5.815   4.450  1.8428 -2.5351 -0.3512
 7719SOL    MW430650   3.827   5.808   4.536  0.0397 -0.0924  0.3039
 7720SOL     OW30651   0.531   3.163   4.197  0.0837  0.3065  0.3335
 7720SOL    HW230652   0.582   3.088   4.228  1.7114  0.5767 -1.5096
 7720SOL    HW330653   0.597   3.227   4.171 -1.2108  1.0174 -1.3413
 7720SOL    MW430654   0.546   3.162   4.198  0.8561  0.2651  0.1968
 7721SOL     OW30655   5.369   4.091   5.018 -0.4770  0.4942  0.5486
 7721SOL    HW230656   5.343   4.024   5.081 -0.0837 -0.1396  0.0605
 7721SOL    HW330657   5.300   4.090   4.952  1.0843 -1.8270 -1.2288
 7721SOL    MW430658   5.357   4.082   5.017 -0.3403  0.6137 -0.2478
 7722SOL     OW30659   2.590   0.446   5.715 -0.8199 -0.2000 -0.0474
 7722SOL    HW230660   2.498   0.459   5.691 -0.2911  1.5673 -1.3990
 7722SOL    HW330661   2.637   0.511   5.663  0.9713  0.6431  2.4349
 7722SOL    MW430662   2.584   0.457   5.705 -0.4329  0.0263 -0.2055
 7723SOL     OW30663   5.837   4.427   3.620  0.1711 -0.5025  0.4654
 7723SOL    HW230664   5.829   4.335   3.647  1.2117 -0.8729 -0.3981
 7723SOL    HW330665   5.874   4.422   3.531  1.2066  0.7604  0.7990
 7723SOL    MW430666   5.841   4.414   3.611  0.4061 -0.4012  0.0569
 7724SOL     OW30667   4.637   0.437   2.713 -0.5540  0.3919 -0.8225
 7724SOL    HW230668   4.575   0.449   2.785 -0.4151  1.2478 -0.8376
 7724SOL    HW330669   4.594   0.375   2.655 -0.2211 -1.1736  0.5154
 7724SOL    MW430670   4.623   0.430   2.715  0.1802 -0.0010 -0.5076
 7725SOL     OW30671   1.137   5.722   5.029  0.4780  0.6132  0.1064
 7725SOL    HW230672   1.115   5.666   5.103  1.7447  0.1156  0.1266
 7725SOL    HW330673   1.218   5.765   5.055  0.3880  1.2237 -0.5794
 7725SOL    MW430674   1.145   5.721   5.042  0.5759 -0.5192  0.3720
 7726SOL     OW30675   1.385   4.096   5.137  0.0166  0.2729 -0.0518
 7726SOL    HW230676   1.420   4.186   5.138 -1.4194  0.9442 -2.2153
 7726SOL    HW330677   1.300   4.102   5.179 -0.0157 -0.0941 -0.0620
 7726SOL    MW430678   1.379   4.109   5.142 -0.4395 -0.1815 -0.0623
 7727SOL     OW30679   4.693   1.598   4.313 -0.0316 -0.0607 -0.3108
 7727SOL    HW230680   4.602   1.611   4.340  0.1143  2.1181 -0.6770
 7727SOL    HW330681   4.742   1.665   4.361  1.0057  0.3973 -1.9286
 7727SOL    MW430682   4.687   1.609   4.323  0.3754  0.3480 -0.5910
 7728SOL     OW30683   6.262   0.427   6.390  0.4623  0.0590  0.2729
 7728SOL    HW230684   6.270   0.369   6.315 -2.4180  0.3244 -0.3593
 7728SOL    HW330685   6.263   0.368   6.466 -0.7464 -0.6932 -0.2639
 7728SOL    MW430686   6.263   0.412   6.390  0.3349 -0.3877 -0.0959
 7729SOL     OW30687   4.691   2.664   1.691  0.4109  0.4083  0.4285
 7729SOL    HW230688   4.632   2.740   1.698 -0.1556 -0.0831  1.2082
 7729SOL    HW330689   4.772   2.693   1.734  0.1309  0.5162  0.8984
 7729SOL    MW430690   4.694   2.678   1.698  0.1878  0.0120  0.2909
 7730SOL     OW30691   5.197   2.179   1.208 -0.4962  0.0570  0.1484
 7730SOL    HW230692   5.106   2.188   1.238 -1.2955  1.8477 -2.4165
 7730SOL    HW330693   5.198   2.097   1.160 -0.6048 -0.2641  0.6944
 7730SOL    MW430694   5.185   2.170   1.206  0.0344  0.4277 -0.2179
 7731SOL     OW30695   2.541   5.803   2.961  0.8399  0.1155  0.3875
 7731SOL    HW230696   2.459   5.810   2.912 -0.8032  0.1366  2.9691
 7731SOL    HW330697   2.554   5.709   2.973  2.0716  0.0190 -1.2566
 7731SOL    MW430698   2.532   5.791   2.956 -0.0236 -0.0060 -0.3233
 7732SOL     OW30699   3.699   2.216   2.128 -0.0158  0.2525 -0.2187
 7732SOL    HW230700   3.661   2.137   2.090  0.0347  0.3795 -0.5348
 7732SOL    HW330701   3.693   2.202   2.223 -0.6479  0.1707 -0.2648
 7732SOL    MW430702   3.693   2.204   2.135 -0.4907 -0.2258  0.3640
 7733SOL     OW30703   1.197   5.200   4.774 -0.3767 -0.5997  0.3894
 7733SOL    HW230704   1.110   5.174   4.745 -0.4161 -1.5298  1.2679
 7733SOL    HW330705   1.189   5.294   4.794 -1.8182 -1.1268  2.6268
 7733SOL    MW430706   1.184   5.209   4.773 -0.3620 -0.4053 -0.4603
 7734SOL     OW30707   2.723   0.127   1.344  0.1975 -0.5334 -0.3768
 7734SOL    HW230708   2.773   0.157   1.420 -0.6916 -0.8833  0.3602
 7734SOL    HW330709   2.637   0.105   1.379 -0.6254  0.4541 -1.6877
 7734SOL    MW430710   2.718   0.128   1.358  0.8371  0.8212 -0.7122
 7735SOL     OW30711   3.126   1.531   3.912  0.2102 -0.0244  0.2570
 7735SOL    HW230712   3.116   1.600   3.846  0.9943 -0.4880 -0.3502
 7735SOL    HW330713   3.124   1.578   3.996  1.1149  0.7948 -0.1622
 7735SOL    MW430714   3.124   1.546   3.915  0.0703  0.3586  0.0695
 7736SOL     OW30715   6.037   3.801   1.608  0.2566 -0.2457 -0.1938
 7736SOL    HW230716   6.018   3.784   1.700 -0.7701  1.3406 -0.0685
 7736SOL    HW330717   5.990   3.732   1.561 -1.5197  0.5188  0.3817
 7736SOL    MW430718   6.028   3.789   1.614  0.5368  0.2112 -0.1061
 7737SOL     OW30719   1.436   0.816   0.086 -0.0493 -0.7046 -0.2896
 7737SOL    HW230720   1.394   0.902   0.089  2.2872  0.5153  1.4662
 7737SOL    HW330721   1.410   0.780   0.002 -3.6800  0.2786  0.2255
 7737SOL    MW430722   1.427   0.823   0.075  0.7283 -0.5584  0.1622
 7738SOL     OW30723   2.728   2.286   4.465  0.5790 -0.1220 -0.0678
 7738SOL    HW230724   2.633   2.294   4.475  0.7851  0.8083  1.5945
 7738SOL    HW330725   2.764   2.333   4.541  2.3666 -0.6656 -0.5276
 7738SOL    MW430726   2.721   2.294   4.476  0.0521 -0.0340  0.2724
 7739SOL     OW30727   5.599   1.102   0.964 -0.0119 -0.1108  0.1257
 7739SOL    HW230728   5.581   1.011   0.988  1.8350 -0.1781  1.3966
 7739SOL    HW330729   5.514   1.146   0.972 -0.9954 -1.7561 -0.7999
 7739SOL    MW430730   5.585   1.096   0.968 -0.1842  0.6971 -0.0928
 7740SOL     OW30731   1.057   5.125   5.176  0.3389 -0.2947  0.2498
 7740SOL    HW230732   1.148   5.111   5.148 -0.5374 -2.4510 -1.8497
 7740SOL    HW330733   1.060   5.111   5.271  1.9212 -2.3778 -0.0144
 7740SOL    MW430734   1.070   5.121   5.185  0.0517  0.1624  0.8187
 7741SOL     OW30735   1.368   3.541   1.025 -0.1299 -0.2787 -0.4401
 7741SOL    HW230736   1.296   3.486   1.056 -1.0003  0.1689 -1.5686
 7741SOL    HW330737   1.398   3.497   0.946 -0.2518  0.3888 -0.8642
 7741SOL    MW430738   1.362   3.528   1.019 -0.9502 -0.1394 -0.0509
 7742SOL     OW30739   6.339   1.290   3.230  0.1712  0.2044  0.1885
 7742SOL    HW230740   6.283   1.229   3.279 -1.2954  1.7859  0.5674
 7742SOL    HW330741   6.402   1.321   3.294  0.8066 -0.7311  0.0410
 7742SOL    MW430742   6.340   1.286   3.245 -0.2792 -0.0918  0.3302
 7743SOL     OW30743   2.512   6.061   2.676  0.0903  0.2349  0.5140
 7743SOL    HW230744   2.428   6.015   2.679  0.5408 -0.5818  1.0130
 7743SOL    HW330745   2.500   6.127   2.608 -1.6546  1.5651  2.0005
 7743SOL    MW430746   2.499   6.063   2.667  0.0119 -0.3076  0.0819
 7744SOL     OW30747   2.592   3.150   2.402  0.5097 -0.2233 -0.2199
 7744SOL    HW230748   2.657   3.220   2.406 -0.7037  1.1068 -1.9617
 7744SOL    HW330749   2.608   3.097   2.480  3.0410  0.5727 -0.1176
 7744SOL    MW430750   2.602   3.152   2.412  0.1595 -0.1195 -0.1348
 7745SOL     OW30751   2.459   2.524   1.378 -0.1381  0.1463  0.2363
 7745SOL    HW230752   2.541   2.501   1.334  0.7260 -0.5195  2.1029
 7745SOL    HW330753   2.457   2.619   1.377 -0.4696  0.1747 -1.7248
 7745SOL    MW430754   2.469   2.533   1.372 -0.4284 -0.6069  0.0551
 7746SOL     OW30755   1.824   2.088   0.081 -0.6296  0.2300  0.7447
 7746SOL    HW230756   1.791   2.020   0.140  0.2033  0.0696  1.0409
 7746SOL    HW330757   1.763   2.087   0.007 -0.7411 -0.7147  0.8294
 7746SOL    MW430758   1.812   2.079   0.079  0.7364  0.8329 -0.0768
 7747SOL     OW30759   5.845   2.699   0.700 -0.2822 -0.1738  0.1999
 7747SOL    HW230760   5.923   2.744   0.732  0.7003 -0.7539 -1.2546
 7747SOL    HW330761   5.879   2.631   0.641 -1.8404 -1.2738  0.5211
 7747SOL    MW430762   5.860   2.696   0.696 -0.6690  0.2578  0.1928
 7748SOL     OW30763   5.680   0.094   5.965 -0.1019  0.3636  0.7358
 7748SOL    HW230764   5.674   0.145   6.045  0.0898 -0.8888  1.5755
 7748SOL    HW330765   5.723   0.152   5.902  3.4374  0.1186  2.6626
 7748SOL    MW430766   5.685   0.108   5.967  0.0462  0.2376  0.0801
 7749SOL     OW30767   3.279   5.834   5.696 -0.2384  0.5631 -0.0443
 7749SOL    HW230768   3.220   5.853   5.623 -1.0150 -2.9169 -0.5258
 7749SOL    HW330769   3.364   5.817   5.654 -0.4208 -0.3703 -0.0551
 7749SOL    MW430770   3.283   5.834   5.680 -0.0121 -0.1549 -0.1045
 7750SOL     OW30771   0.155   6.332   2.169 -0.3618  0.0115 -0.1675
 7750SOL    HW230772   0.244   6.297   2.169 -0.9662 -1.6083 -0.5709
 7750SOL    HW330773   0.167   6.427   2.167  1.3468 -0.1305  1.1063
 7750SOL    MW430774   0.168   6.340   2.169  0.4335  0.3345 -0.3890
 7751SOL     OW30775   5.147   2.391   0.624 -0.1388 -0.1204  0.6335
 7751SOL    HW230776   5.184   2.418   0.540  0.6754 -1.3166  0.5849
 7751SOL    HW330777   5.056   2.367   0.604  0.8440 -3.3488 -0.6009
 7751SOL    MW430778   5.140   2.391   0.611  0.0231  0.0751  0.1773
 7752SOL     OW30779   0.769   5.896   5.274  0.1863 -0.0533  0.4668
 7752SOL    HW230780   0.720   5.937   5.346  0.3137  1.6759 -0.3816
 7752SOL    HW330781   0.713   5.908   5.197  0.8182 -0.3223 -0.0414
 7752SOL    MW430782   0.755   5.903   5.274 -0.1109 -0.9040  0.2146
 7753SOL     OW30783   3.504   6.060   3.068  0.2794 -0.0254 -0.2225
 7753SOL    HW230784   3.481   6.008   2.991  0.0124 -1.2873  0.6555
 7753SOL    HW330785   3.547   5.997   3.127  0.2565  0.8335  0.7481
 7753SOL    MW430786   3.506   6.045   3.066 -0.2951  0.0743  0.0424
 7754SOL     OW30787   3.441   5.907   2.846  0.5362 -0.3077 -0.2196
 7754SOL    HW230788   3.512   5.936   2.789 -0.6592 -1.7242 -2.5479
 7754SOL    HW330789   3.453   5.813   2.854 -1.0260 -0.5568 -0.5859
 7754SOL    MW430790   3.452   5.899   2.840  0.5471 -0.0673 -0.1138
 7755SOL     OW30791   4.178   6.066   3.066  0.6401  0.5233  0.3367
 7755SOL    HW230792   4.211   5.979   3.086 -0.6426 -0.2596 -0.7749
 7755SOL    HW330793   4.133   6.094   3.145  0.4941 -0.1099  0.4825
 7755SOL    MW430794   4.177   6.058   3.079 -0.0815 -0.4886 -0.1546
 7756SOL     OW30795   4.272   6.201   5.146  0.8861  0.1126 -0.0954
 7756SOL    HW230796   4.207   6.268   5.125  0.7065  0.0197  0.1691
 7756SOL    HW330797   4.251   6.128   5.086  1.2418  0.3871 -0.5633
 7756SOL    MW430798   4.261   6.200   5.135  0.2097 -0.2817  0.2111
 7757SOL     OW30799   4.896   6.088   5.099 -0.1805  0.7745 -0.1202
 7757SOL    HW230800   4.867   6.069   5.189  0.6497 -0.2323 -0.0568
 7757SOL    HW330801   4.991   6.083   5.103 -0.1695 -0.0076 -1.2218
 7757SOL    MW430802   4.904   6.085   5.112  0.0603  0.2596 -0.1249
 7758SOL     OW30803   6.144   1.351   4.843  0.2050  0.5871 -0.3125
 7758SOL    HW230804   6.211   1.319   4.904 -2.0801 -1.2361  1.4290
 7758SOL    HW330805   6.170   1.316   4.758  0.6982 -1.3212  0.5819
 7758SOL    MW430806   6.157   1.342   4.840 -0.2427  0.1804  0.2773
 7759SOL     OW30807   4.503   1.795   0.508 -0.0206 -0.4231 -0.1750
 7759SOL    HW230808   4.592   1.803   0.542  0.1001  1.7302 -0.8047
 7759SOL    HW330809   4.500   1.858   0.435 -1.7335 -1.2606 -0.8763
 7759SOL    MW430810   4.514   1.805   0.503  0.5156  0.2759 -0.4498
 7760SOL     OW30811   2.147   1.708   5.272  0.2125 -0.1448  0.1879
 7760SOL    HW230812   2.190   1.767   5.210 -0.1296  1.0115  1.0221
 7760SOL    HW330813   2.057   1.702   5.241  0.2847 -0.3496  0.0179
 7760SOL    MW430814   2.141   1.715   5.260  0.2904  0.0396 -0.1588
 7761SOL     OW30815   2.816   4.898   4.124  0.1122  0.5469  0.2211
 7761SOL    HW230816   2.776   4.888   4.211  0.2855  0.7932  0.3320
 7761SOL    HW330817   2.797   4.816   4.079  0.7330  0.0885  0.7862
 7761SOL    MW430818   2.808   4.886   4.130  0.2124  1.1452 -0.3513
 7762SOL     OW30819   4.289   4.739   3.475 -0.4638  0.2204  0.2630
 7762SOL    HW230820   4.215   4.786   3.437 -0.3114  0.1726 -0.1054
 7762SOL    HW330821   4.256   4.651   3.492 -0.1519 -0.1844 -1.0891
 7762SOL    MW430822   4.275   4.733   3.472  0.5093 -0.1718  0.7207
 7763SOL     OW30823   2.851   1.350   5.653 -0.1611  0.2992 -0.3291
 7763SOL    HW230824   2.861   1.299   5.573 -0.1874 -2.1740  1.1636
 7763SOL    HW330825   2.757   1.360   5.664 -0.1509  0.9480 -0.7500
 7763SOL    MW430826   2.840   1.345   5.644  0.1672  0.4034  0.2289
 7764SOL     OW30827   5.324   0.081   5.905 -0.1086 -0.1265 -0.1122
 7764SOL    HW230828   5.284   0.015   5.848  0.8244 -2.0008  1.2989
 7764SOL    HW330829   5.373   0.137   5.845 -0.4958 -1.0085 -1.3132
 7764SOL    MW430830   5.325   0.080   5.889 -0.0106 -0.5447 -0.2780
 7765SOL     OW30831   2.275   2.615   6.012  0.0104 -0.1067  0.3757
 7765SOL    HW230832   2.253   2.523   5.999  0.9200 -0.3325  0.3729
 7765SOL    HW330833   2.341   2.615   6.082  0.1971  0.5205  0.2108
 7765SOL    MW430834   2.281   2.603   6.020  0.1306  0.0829 -0.4526
 7766SOL     OW30835   3.115   4.157   3.316  0.1688  0.0535 -0.3114
 7766SOL    HW230836   3.076   4.069   3.324 -0.8062  0.5570  0.7510
 7766SOL    HW330837   3.112   4.175   3.222 -0.3293 -0.7475 -0.4658
 7766SOL    MW430838   3.109   4.148   3.305  0.4639 -0.2297  0.0100
 7767SOL     OW30839   1.276   2.689   5.095 -0.5782  0.5823 -0.1567
 7767SOL    HW230840   1.332   2.659   5.166  0.3664 -0.4744 -1.2984
 7767SOL    HW330841   1.198   2.635   5.102  0.7351 -1.6988 -1.6462
 7767SOL    MW430842   1.273   2.678   5.105 -0.7400  0.1969  0.2071
 7768SOL     OW30843   5.295   5.541   1.984 -0.2908 -0.1233 -0.3490
 7768SOL    HW230844   5.239   5.466   1.963 -1.6306  1.0679 -1.2343
 7768SOL    HW330845   5.294   5.546   2.079 -2.2987  0.2593 -0.3500
 7768SOL    MW430846   5.288   5.532   1.993 -0.2956 -0.0050 -0.3858
 7769SOL     OW30847   2.353   3.074   4.517 -0.0243  0.1263  0.0971
 7769SOL    HW230848   2.436   3.117   4.533 -0.1307  0.5174 -0.3890
 7769SOL    HW330849   2.376   2.987   4.484  0.1891 -0.0167  0.6215
 7769SOL    MW430850   2.367   3.068   4.515 -0.0921 -0.2022  0.2683
 7770SOL     OW30851   4.860   2.562   2.112 -0.1649  0.0955  0.0633
 7770SOL    HW230852   4.810   2.496   2.160 -0.1151 -1.3746 -1.7670
 7770SOL    HW330853   4.795   2.626   2.085 -0.4367  0.1235  0.7533
 7770SOL    MW430854   4.845   2.562   2.115 -0.5163 -0.1225 -0.5600
 7771SOL     OW30855   5.023   3.895   5.508 -0.5504  0.0224  0.1568
 7771SOL    HW230856   5.090   3.962   5.495  0.0687 -0.3062  1.4190
 7771SOL    HW330857   4.948   3.924   5.456 -0.2207  1.5945  0.5139
 7771SOL    MW430858   5.022   3.908   5.500  0.3714 -0.4421 -0.3406
 7772SOL     OW30859   0.606   3.609   0.801 -0.0135  0.2434  0.4202
 7772SOL    HW230860   0.621   3.585   0.892 -1.3360 -1.3919  0.2578
 7772SOL    HW330861   0.520   3.653   0.801  0.5457  1.3739  0.1174
 7772SOL    MW430862   0.596   3.612   0.813  0.3772  0.3553 -0.8554
 7773SOL     OW30863   1.393   2.387   4.648 -0.3760 -0.0934  0.0865
 7773SOL    HW230864   1.421   2.370   4.558  0.6506 -0.3759  0.4379
 7773SOL    HW330865   1.379   2.301   4.685 -3.4725  0.0370 -0.5484
 7773SOL    MW430866   1.395   2.374   4.641 -0.1615  0.4474  0.4116
 7774SOL     OW30867   2.539   0.080   2.200  0.3006 -0.9448  0.1573
 7774SOL    HW230868   2.506   0.094   2.289  0.5483  0.2060  0.0857
 7774SOL    HW330869   2.473   0.025   2.159 -0.0316 -1.1356  0.9239
 7774SOL    MW430870   2.526   0.075   2.207 -0.0540 -0.7374  0.1072
 7775SOL     OW30871   5.668   0.389   4.710  0.1000  0.3006 -0.4572
 7775SOL    HW230872   5.647   0.298   4.688 -2.3424  0.4602  0.7639
 7775SOL    HW330873   5.657   0.437   4.627  1.9126 -0.5400 -1.2228
 7775SOL    MW430874   5.664   0.384   4.696  0.4138  0.2708 -0.2272
 7776SOL     OW30875   2.630   3.088   1.248 -0.1995  0.1952  0.3227
 7776SOL    HW230876   2.579   3.116   1.324 -1.6688 -2.3207  0.3617
 7776SOL    HW330877   2.572   3.104   1.173 -0.4818 -1.2729  0.2066
 7776SOL    MW430878   2.615   3.094   1.248  0.1977 -0.0110  0.5546
 7777SOL     OW30879   5.434   3.230   0.379  0.4928 -0.2280 -0.5157
 7777SOL    HW230880   5.418   3.167   0.309 -2.0833 -0.3330  0.0700
 7777SOL    HW330881   5.452   3.312   0.334  0.9073 -0.7237 -1.2854
 7777SOL    MW430882   5.434   3.232   0.364 -0.5073  0.3060  0.3262
 7778SOL     OW30883   5.736   4.710   3.335 -0.1482 -0.0167  0.1690
 7778SOL    HW230884   5.668   4.708   3.268 -0.4467 -1.1760  0.4846
 7778SOL    HW330885   5.752   4.803   3.350 -0.3557  0.2656 -1.2152
 7778SOL    MW430886   5.729   4.722   3.328 -0.0518  0.9983  0.2801
 7779SOL     OW30887   1.060   4.970   2.335  0.0952 -0.0690 -0.1574
 7779SOL    HW230888   1.095   5.040   2.389 -0.2997  0.3931 -0.4937
 7779SOL    HW330889   1.123   4.898   2.344  1.2041  0.7866 -0.8748
 7779SOL    MW430890   1.073   4.970   2.343 -0.3861 -0.0486  0.1979
 7780SOL     OW30891   1.580   1.571   3.557  0.4647 -0.5876  0.2771
 7780SOL    HW230892   1.552   1.601   3.644 -0.3467  1.6237 -0.6976
 7780SOL    HW330893   1.610   1.650   3.513  2.4313 -1.9376 -0.9257
 7780SOL    MW430894   1.580   1.585   3.563  0.0465 -0.1034 -0.0531
 7781SOL     OW30895   2.261   5.910   1.794 -0.1277  0.3453  0.4761
 7781SOL    HW230896   2.330   5.846   1.775 -0.2198 -0.0080  1.3048
 7781SOL    HW330897   2.190   5.858   1.831 -1.3858  0.5014 -1.5906
 7781SOL    MW430898   2.261   5.894   1.796 -0.3183 -0.2715  0.1120
 7782SOL     OW30899   0.592   4.169   3.177 -0.0932 -0.0785  0.2442
 7782SOL    HW230900   0.643   4.089   3.167  1.0765  0.1935  3.1006
 7782SOL    HW330901   0.599   4.191   3.270 -3.9745  0.9851  0.4864
 7782SOL    MW430902   0.599   4.161   3.188 -0.0697 -0.1866 -0.0505
 7783SOL     OW30903   6.022   6.209   1.964  0.2341  0.3353  0.2124
 7783SOL    HW230904   6.003   6.189   2.056  1.8088  1.6248  0.8640
 7783SOL    HW330905   6.084   6.140   1.938 -0.5519 -0.2882 -0.0286
 7783SOL    MW430906   6.028   6.197   1.973  0.2419 -0.1004  0.1297
 7784SOL     OW30907   3.942   2.655   0.668 -0.1663 -0.0638 -0.4631
 7784SOL    HW230908   4.034   2.628   0.661  0.1046  0.6168  0.2438
 7784SOL    HW330909   3.943   2.748   0.646 -0.3739  0.4013  1.2936
 7784SOL    MW430910   3.955   2.664   0.665  0.2919  0.4699  0.2289
 7785SOL     OW30911   5.470   5.092   2.676 -0.0469  0.3537  0.1137
 7785SOL    HW230912   5.470   5.036   2.599 -3.3612 -0.5015  0.5736
 7785SOL    HW330913   5.497   5.178   2.644 -0.8967 -0.0825 -1.9123
 7785SOL    MW430914   5.474   5.096   2.662 -0.2052 -0.2057 -0.1235
 7786SOL     OW30915   4.036   3.052   4.339 -0.2170 -0.0028 -0.3268
 7786SOL    HW230916   3.965   3.007   4.384 -0.6578 -0.5650 -1.5490
 7786SOL    HW330917   4.088   2.982   4.299 -0.1040  0.4879 -1.0721
 7786SOL    MW430918   4.033   3.037   4.340  0.2403  0.3283  0.2448
 7787SOL     OW30919   1.060   5.855   3.228  0.4373  0.9135 -0.1607
 7787SOL    HW230920   1.042   5.898   3.144 -0.1890  0.6008 -0.1905
 7787SOL    HW330921   0.987   5.883   3.285  1.1422  1.5637  0.4511
 7787SOL    MW430922   1.048   5.865   3.225 -0.0776  0.0274  0.5102
 7788SOL     OW30923   2.847   0.351   6.291  0.5189  0.2300 -0.0104
 7788SOL    HW230924   2.857   0.446   6.284  1.3459  0.1112 -0.6553
 7788SOL    HW330925   2.931   0.321   6.326  0.7111 -0.3664 -0.9377
 7788SOL    MW430926   2.859   0.360   6.294  0.7461 -0.2317  0.0834
 7789SOL     OW30927   1.071   4.854   0.880  0.4369  0.1057  0.4694
 7789SOL    HW230928   1.140   4.920   0.886  0.8242 -0.3488  1.0494
 7789SOL    HW330929   1.116   4.771   0.893 -0.2328 -0.1924  0.8964
 7789SOL    MW430930   1.086   4.852   0.882  0.5839 -0.3265  0.5604
 7790SOL     OW30931   5.496   2.952   2.530 -0.3278 -0.2532  0.3227
 7790SOL    HW230932   5.561   2.966   2.462  0.8500 -1.3749  1.1851
 7790SOL    HW330933   5.436   3.027   2.522  0.6534  0.4221 -0.9375
 7790SOL    MW430934   5.496   2.964   2.520 -0.2255  0.3365 -0.4878
 7791SOL     OW30935   3.219   6.297   2.933 -0.6266  0.1531 -0.1260
 7791SOL    HW230936   3.183   6.256   2.854 -2.6812  0.0246  0.8026
 7791SOL    HW330937   3.312   6.310   2.914 -1.1793  0.7343 -2.8073
 7791SOL    MW430938   3.226   6.293   2.920 -0.3038 -0.1881 -0.6458
 7792SOL     OW30939   4.087   5.220   6.362 -0.0036  0.6027  0.1215
 7792SOL    HW230940   4.063   5.127   6.367  0.5297  0.5071  1.0487
 7792SOL    HW330941   4.161   5.221   6.301 -0.9466  0.6308 -1.0709
 7792SOL    MW430942   4.094   5.208   6.354 -0.8250 -0.4030 -0.3524
 7793SOL     OW30943   0.202   5.881   3.946  0.3228  0.4772 -0.2036
 7793SOL    HW230944   0.136   5.840   4.002 -0.0231  0.8380 -0.3388
 7793SOL    HW330945   0.170   5.866   3.857  0.7885  0.0415 -0.3052
 7793SOL    MW430946   0.189   5.874   3.941 -0.3570  0.0654  0.3608
 7794SOL     OW30947   1.199   3.908   5.537 -0.3008  0.1733  0.0312
 7794SOL    HW230948   1.272   3.916   5.477  0.1064 -1.2168  0.3121
 7794SOL    HW330949   1.218   3.971   5.607 -0.3144  1.1236 -0.8014
 7794SOL    MW430950   1.211   3.917   5.539 -0.3927  0.2436 -0.2153
 7795SOL     OW30951   2.406   0.680   6.182  0.3150 -0.1631  0.3063
 7795SOL    HW230952   2.402   0.760   6.234  2.6293  0.3688 -0.2144
 7795SOL    HW330953   2.349   0.619   6.228  0.1259  1.1332  1.8971
 7795SOL    MW430954   2.398   0.683   6.195  0.5363  0.1956 -0.0351
 7796SOL     OW30955   4.399   3.604   5.024 -0.3790  0.0626 -0.0106
 7796SOL    HW230956   4.314   3.584   5.063 -0.1757 -3.8953 -1.1153
 7796SOL    HW330957   4.383   3.601   4.930  1.2010 -2.8685 -0.3000
 7796SOL    MW430958   4.386   3.601   5.017  0.4158 -0.1190  0.2380
 7797SOL     OW30959   6.373   5.891   4.311  0.2607  0.0890  0.3025
 7797SOL    HW230960   6.426   5.831   4.258 -1.1316  0.1568 -1.2563
 7797SOL    HW330961   6.427   5.969   4.321  1.2114 -0.5664  0.4450
 7797SOL    MW430962   6.387   5.893   4.306 -0.2566 -0.3049 -0.5268
 7798SOL     OW30963   3.973   1.192   3.840  0.2912 -0.3734 -0.6086
 7798SOL    HW230964   3.915   1.261   3.872  1.4693 -0.8010  2.8741
 7798SOL    HW330965   3.913   1.125   3.806 -1.0620  0.6445 -0.3498
 7798SOL    MW430966   3.957   1.192   3.840  0.0073 -0.0427  0.0832
 7799SOL     OW30967   2.543   3.011   4.132  0.2471 -0.1235  0.0638
 7799SOL    HW230968   2.579   2.943   4.074  0.1878  0.7746 -1.0500
 7799SOL    HW330969   2.616   3.071   4.146 -0.5285  1.2990 -1.5949
 7799SOL    MW430970   2.557   3.010   4.126 -0.0508  0.1203 -0.4691
 7800SOL     OW30971   4.021   1.838   2.530  0.4468 -0.5680  0.0269
 7800SOL    HW230972   4.005   1.924   2.491 -1.0654 -0.5378  0.6279
 7800SOL    HW330973   3.943   1.787   2.507  0.6841 -1.3289  0.8452
 7800SOL    MW430974   4.009   1.843   2.522  0.7810 -0.4324 -0.7323
 7801SOL     OW30975   1.259   6.251   1.274 -0.0316 -0.3757  0.2682
 7801SOL    HW230976   1.256   6.261   1.179  0.2121  0.2939  0.3293
 7801SOL    HW330977   1.319   6.178   1.289 -1.7357 -1.9563 -0.1800
 7801SOL    MW430978   1.266   6.242   1.263  0.4378 -0.3848  0.1058
 7802SOL     OW30979   2.756   6.398   6.126  0.2076  0.2042 -0.1963
 7802SOL    HW230980   2.778   6.405   6.219 -0.2545  0.8459 -0.1274
 7802SOL    HW330981   2.792   6.478   6.087 -0.7863  0.6080 -0.3195
 7802SOL    MW430982   2.764   6.409   6.133  0.2500  0.0644 -0.0201
 7803SOL     OW30983   2.560   0.043   5.473  0.4191 -0.4403 -0.3625
 7803SOL    HW230984   2.613   0.009   5.545 -0.0845 -0.3514  0.0547
 7803SOL    HW330985   2.471   0.050   5.509  0.8467  3.4643  0.3779
 7803SOL    MW430986   2.555   0.040   5.487  0.3454 -0.1689 -0.8664
 7804SOL     OW30987   3.985   1.854   3.493 -0.6254 -0.0920 -0.3441
 7804SOL    HW230988   3.902   1.829   3.534 -0.2641  0.9096  1.0755
 7804SOL    HW330989   3.972   1.944   3.465  0.1680  0.2854  0.4537
 7804SOL    MW430990   3.972   1.862   3.495 -0.2795  0.4288 -0.0850
 7805SOL     OW30991   0.901   0.906   2.960  0.3950  0.4964  0.0853
 7805SOL    HW230992   0.967   0.870   2.901  1.6571 -0.7744  2.1551
 7805SOL    HW330993   0.817   0.877   2.923  1.2386 -1.9853 -0.0327
 7805SOL    MW430994   0.898   0.898   2.947 -0.1429  0.4925 -0.2514
 7806SOL     OW30995   4.572   3.828   4.771 -0.1038 -0.4332 -0.1670
 7806SOL    HW230996   4.477   3.819   4.762 -0.0589 -1.7716  0.4806
 7806SOL    HW330997   4.584   3.870   4.856 -0.1300  0.1396 -0.4467
 7806SOL    MW430998   4.561   3.832   4.781  0.6367 -0.1452 -0.1347
 7807SOL     OW30999   3.354   2.512   1.994 -0.2334  0.0680 -0.1842
 7807SOL    HW231000   3.337   2.506   1.900  2.4945 -0.5558 -0.7052
 7807SOL    HW331001   3.312   2.435   2.031 -1.2072  0.2398 -0.8882
 7807SOL    MW431002   3.346   2.501   1.986 -0.1036 -0.4347 -0.2079
 7808SOL     OW31003   6.421   3.054   6.349 -0.2907 -0.3078  0.5102
 7808SOL    HW231004   6.344   3.070   6.404 -0.2093  0.1566  0.4986
 7808SOL    HW331005   6.418   2.961   6.330 -0.3299 -0.4761  1.2890
 7808SOL    MW431006   6.410   3.044   6.354 -0.5361 -0.0842  0.1806
 7809SOL     OW31007   4.891   2.393   2.516  0.2132 -0.5592  0.2758
 7809SOL    HW231008   4.947   2.315   2.517  1.8649  0.5752  0.4260
 7809SOL    HW331009   4.945   2.460   2.474 -1.0767  0.5887  0.3846
 7809SOL    MW431010   4.905   2.391   2.510 -0.2867 -0.8698 -0.5652
 7810SOL     OW31011   6.138   2.639   3.198  0.3346  0.0808 -0.1606
 7810SOL    HW231012   6.133   2.598   3.112  1.0151 -0.6217  0.1182
 7810SOL    HW331013   6.121   2.731   3.182  2.4727  0.3272 -1.3853
 7810SOL    MW431014   6.135   2.646   3.185  0.2092 -0.2989 -0.0361
 7811SOL     OW31015   1.846   5.169   4.010 -0.1826 -0.4629  0.3112
 7811SOL    HW231016   1.835   5.233   4.081 -0.1436 -1.1674  0.9726
 7811SOL    HW331017   1.926   5.121   4.034 -1.3458 -2.1643  0.9713
 7811SOL    MW431018   1.855   5.171   4.023  0.2039 -0.4417 -0.2922
 7812SOL     OW31019   0.200   6.018   1.594  0.0970  0.0679  0.1923
 7812SOL    HW231020   0.248   6.033   1.676  0.5722 -0.1176 -0.0460
 7812SOL    HW331021   0.134   5.953   1.618  1.3494 -1.3261  0.0587
 7812SOL    MW431022   0.198   6.011   1.608  0.0943 -0.3686 -0.0488
 7813SOL     OW31023   1.272   2.388   2.220 -0.0783  0.0175  0.1395
 7813SOL    HW231024   1.362   2.355   2.209 -0.3950 -2.1170  2.8185
 7813SOL    HW331025   1.230   2.324   2.278 -2.9103  1.7386  0.1767
 7813SOL    MW431026   1.279   2.375   2.226 -0.0137  0.0098  0.1150
 7814SOL     OW31027   2.304   1.706   2.546 -0.0126 -0.3231 -0.2314
 7814SOL    HW231028   2.368   1.765   2.585 -0.9091  0.0007  0.8224
 7814SOL    HW331029   2.351   1.662   2.475  1.7637 -1.0273  1.2898
 7814SOL    MW431030   2.319   1.708   2.542 -0.3148  0.0594  0.0060
 7815SOL     OW31031   0.973   4.814   2.827  0.3107  0.1255  0.2165
 7815SOL    HW231032   0.969   4.774   2.740  1.9796 -3.2355  1.4954
 7815SOL    HW331033   1.063   4.846   2.834  0.9224 -1.7003  1.4120
 7815SOL    MW431034   0.984   4.813   2.816  0.3033  0.2581 -0.4428
 7816SOL     OW31035   1.914   0.346   4.614  0.2757 -0.0097  0.0064
 7816SOL    HW231036   1.962   0.268   4.587  3.0403  1.4035  0.4352
 7816SOL    HW331037   1.975   0.418   4.598 -1.4990  1.8917  1.2526
 7816SOL    MW431038   1.928   0.345   4.608 -0.1909 -0.0981 -0.1148
 7817SOL     OW31039   3.480   4.896   0.481 -0.2125  0.3261  0.4516
 7817SOL    HW231040   3.542   4.952   0.529 -0.2261  2.2891 -1.6761
 7817SOL    HW331041   3.406   4.953   0.461 -0.0801 -0.2936 -2.1234
 7817SOL    MW431042   3.479   4.911   0.485 -0.1203 -0.2594  0.4692
 7818SOL     OW31043   4.763   1.886   0.585  0.0552 -0.3904 -0.0620
 7818SOL    HW231044   4.804   1.939   0.517 -0.6105 -0.4799 -0.5404
 7818SOL    HW331045   4.815   1.806   0.587  0.1137 -0.3630 -0.4187
 7818SOL    MW431046   4.776   1.883   0.577  0.0060 -0.1685 -1.0120
 7819SOL     OW31047   0.684   3.564   5.428  0.2884 -0.1600 -0.1094
 7819SOL    HW231048   0.640   3.480   5.445 -0.5752 -0.1964 -2.2632
 7819SOL    HW331049   0.772   3.539   5.401  0.4611 -0.2784  0.5326
 7819SOL    MW431050   0.690   3.549   5.427  0.1481  0.3618 -0.0478
 7820SOL     OW31051   4.253   5.887   3.326  0.8730  0.4357 -0.4278
 7820SOL    HW231052   4.173   5.864   3.374  1.0132  1.1988  0.1891
 7820SOL    HW331053   4.291   5.803   3.302  0.1630  0.0552 -0.2583
 7820SOL    MW431054   4.247   5.873   3.329  0.2134 -0.1730  0.1565
 7821SOL     OW31055   2.031   1.836   0.935 -0.3038  0.1579 -0.1560
 7821SOL    HW231056   1.956   1.781   0.958  0.4985 -0.1893  1.8027
 7821SOL    HW331057   2.008   1.923   0.965 -0.8573  0.5836 -1.7061
 7821SOL    MW431058   2.018   1.840   0.942 -0.3669 -0.3319 -0.1773
 7822SOL     OW31059   3.909   1.123   4.709 -0.2975  0.5503 -0.4199
 7822SOL    HW231060   4.003   1.116   4.691 -0.2319  0.8140 -0.1823
 7822SOL    HW331061   3.870   1.048   4.664  0.0893  0.1525 -0.1013
 7822SOL    MW431062   3.916   1.112   4.701  0.4195  0.7708 -0.2238
 7823SOL     OW31063   5.960   5.145   1.502 -0.3861 -0.1784  0.1360
 7823SOL    HW231064   5.901   5.211   1.465  0.0336  1.0789  1.5931
 7823SOL    HW331065   6.042   5.192   1.517  1.0590 -1.8826 -1.8354
 7823SOL    MW431066   5.963   5.160   1.499 -0.3655  0.5946  0.3395
 7824SOL     OW31067   4.290   2.726   2.369 -0.4521  0.0906  0.3835
 7824SOL    HW231068   4.205   2.689   2.349  0.3604 -1.7534  0.2049
 7824SOL    HW331069   4.332   2.738   2.284  0.6724 -2.0444  0.5912
 7824SOL    MW431070   4.285   2.723   2.355  0.1913  0.0528  0.1475
 7825SOL     OW31071   3.341   4.177   2.067 -0.4677  0.0354  0.0996
 7825SOL    HW231072   3.373   4.267   2.071  0.7733 -0.3190 -1.2083
 7825SOL    HW331073   3.419   4.124   2.055 -1.0826 -1.3324  1.8446
 7825SOL    MW431074   3.355   4.182   2.066  0.6894  0.3961  0.1257
 7826SOL     OW31075   2.190   5.983   1.400  0.0423 -0.0273  0.2238
 7826SOL    HW231076   2.213   6.054   1.460 -0.5111  2.1455 -1.9746
 7826SOL    HW331077   2.110   5.945   1.437 -0.5513  1.5667  0.6586
 7826SOL    MW431078   2.182   5.988   1.413  0.2562 -0.1336  0.1324
 7827SOL     OW31079   6.056   3.558   5.243  0.5004 -0.1261  0.1596
 7827SOL    HW231080   6.022   3.616   5.174 -0.5572 -0.4043  0.4226
 7827SOL    HW331081   6.094   3.617   5.308 -0.4132  0.2723  0.3439
 7827SOL    MW431082   6.056   3.573   5.242 -0.0105 -0.0175  0.2884
 7828SOL     OW31083   3.667   4.322   2.835  0.3290  0.0281  0.6378
 7828SOL    HW231084   3.670   4.417   2.824 -0.2084  0.1988  1.8080
 7828SOL    HW331085   3.653   4.309   2.929 -3.8741 -1.0908  0.0323
 7828SOL    MW431086   3.666   4.333   2.846 -0.0190 -0.1819 -0.0662
 7829SOL     OW31087   4.100   1.004   2.794 -0.3112  0.5028  0.1334
 7829SOL    HW231088   4.130   0.940   2.858 -1.5993 -0.7411 -0.4437
 7829SOL    HW331089   4.024   1.046   2.835 -0.2731  0.7137 -0.0074
 7829SOL    MW431090   4.094   1.002   2.808 -0.0010  0.2401  0.9134
 7830SOL     OW31091   0.572   3.629   3.613 -0.3907 -0.0015  0.2108
 7830SOL    HW231092   0.486   3.624   3.570  0.7832  2.4355 -2.7613
 7830SOL    HW331093   0.623   3.559   3.573 -0.4494 -0.2846  0.6268
 7830SOL    MW431094   0.567   3.619   3.602  0.7750 -0.4025  0.4687
 7831SOL     OW31095   4.832   2.461   3.715  0.3771 -0.3501 -0.0610
 7831SOL    HW231096   4.769   2.533   3.724  0.6441 -0.2225  1.0363
 7831SOL    HW331097   4.909   2.501   3.676 -0.4008 -0.6303 -1.9531
 7831SOL    MW431098   4.834   2.476   3.711  0.4000  0.3683 -0.2956
 7832SOL     OW31099   1.642   0.530   2.269  0.5867  0.0214  0.4706
 7832SOL    HW231100   1.727   0.503   2.303  0.4497 -0.1665  0.6614
 7832SOL    HW331101   1.634   0.485   2.185 -0.5714 -2.2579  1.7363
 7832SOL    MW431102   1.652   0.521   2.262  0.5733  0.4748  0.3111
 7833SOL     OW31103   0.249   0.941   0.968  0.4348 -0.1135  0.1997
 7833SOL    HW231104   0.235   0.897   0.884 -0.4639 -0.2970  0.4442
 7833SOL    HW331105   0.341   0.968   0.965  0.2642  0.4054 -1.0933
 7833SOL    MW431106   0.260   0.939   0.956  0.4170  0.0474 -0.3837
 7834SOL     OW31107   0.334   4.675   1.523 -0.3262 -0.1384  0.3244
 7834SOL    HW231108   0.362   4.588   1.494 -0.9079 -0.5766  1.0498
 7834SOL    HW331109   0.405   4.705   1.579 -0.5963 -0.5922  0.9146
 7834SOL    MW431110   0.347   4.667   1.526  0.3949  0.5760 -0.2728
 7835SOL     OW31111   6.207   1.212   1.241 -0.0571  0.2789  0.0801
 7835SOL    HW231112   6.188   1.213   1.147  0.3812  1.1267 -0.0087
 7835SOL    HW331113   6.269   1.283   1.254  2.1446 -1.5922  0.5576
 7835SOL    MW431114   6.213   1.221   1.230 -0.3036 -0.0078  0.1280
 7836SOL     OW31115   1.292   0.188   0.631 -0.0130 -0.2669  0.1611
 7836SOL    HW231116   1.224   0.186   0.564 -0.2069  0.6378  0.3288
 7836SOL    HW331117   1.323   0.278   0.633  1.7686 -0.8136 -0.4713
 7836SOL    MW431118   1.287   0.199   0.622  0.1641 -0.9865  0.0460
 7837SOL     OW31119   0.926   1.145   4.515 -0.4450  0.0614 -0.4196
 7837SOL    HW231120   0.924   1.182   4.427 -4.6452  0.9698 -0.1775
 7837SOL    HW331121   0.852   1.186   4.560  1.1846 -0.7350  3.4444
 7837SOL    MW431122   0.916   1.155   4.510  0.2894 -0.1828 -0.0941
 7838SOL     OW31123   1.726   0.177   1.654 -0.7209 -0.6148 -0.2103
 7838SOL    HW231124   1.783   0.249   1.629 -1.1849 -0.9039 -2.3473
 7838SOL    HW331125   1.637   0.213   1.648 -0.9208 -1.1436 -0.5398
 7838SOL    MW431126   1.721   0.191   1.650 -1.0589 -0.0429 -0.4334
 7839SOL     OW31127   2.980   0.777   4.944 -0.0077 -0.2410 -0.4044
 7839SOL    HW231128   3.031   0.744   4.870 -1.0421 -0.4299 -1.0662
 7839SOL    HW331129   3.045   0.805   5.008  0.9120 -1.8657 -0.5826
 7839SOL    MW431130   2.995   0.776   4.943 -0.1395  0.7007  0.1039
 7840SOL     OW31131   1.467   1.802   1.909 -0.3692  0.7385  0.4807
 7840SOL    HW231132   1.450   1.852   1.829  0.9197  1.3021  0.5340
 7840SOL    HW331133   1.398   1.736   1.911  0.2132 -0.0339 -1.7279
 7840SOL    MW431134   1.456   1.799   1.898  0.2030 -0.2106  0.4760
 7841SOL     OW31135   0.237   1.753   0.425  0.7086 -0.3813  0.2945
 7841SOL    HW231136   0.177   1.679   0.429  1.8089 -1.2415  2.3788
 7841SOL    HW331137   0.312   1.726   0.479  0.9986  2.3717  1.4144
 7841SOL    MW431138   0.239   1.739   0.432  0.5126  0.1526  0.1398
 7842SOL     OW31139   2.862   3.638   5.362 -0.5265 -0.4824 -0.3335
 7842SOL    HW231140   2.834   3.564   5.307 -0.1725 -0.6457 -0.2964
 7842SOL    HW331141   2.819   3.623   5.446  0.2471 -1.1303 -0.0432
 7842SOL    MW431142   2.853   3.626   5.366  0.1056 -0.0201 -0.3451
 7843SOL     OW31143   1.851   3.482   2.864 -0.3607 -0.5698 -0.0799
 7843SOL    HW231144   1.867   3.393   2.895 -0.4426 -0.7802 -0.6294
 7843SOL    HW331145   1.928   3.502   2.810  0.1066  0.0442  0.8042
 7843SOL    MW431146   1.863   3.473   2.861  0.1253 -0.4269  0.1167
 7844SOL     OW31147   0.729   4.724   3.000 -0.7603 -0.2202  0.2150
 7844SOL    HW231148   0.671   4.794   3.030  0.9207  0.5728  1.8175
 7844SOL    HW331149   0.694   4.645   3.042 -0.6835  0.2562  1.2213
 7844SOL    MW431150   0.717   4.722   3.010  0.0191  0.2502  0.1388
 7845SOL     OW31151   2.979   4.163   4.306 -0.3193 -0.2201  0.2856
 7845SOL    HW231152   2.984   4.258   4.314  2.5137 -0.3790  1.4473
 7845SOL    HW331153   3.056   4.139   4.255 -0.7244 -1.9336  0.4099
 7845SOL    MW431154   2.990   4.172   4.300 -0.1320 -0.1059  0.2914
 7846SOL     OW31155   2.287   2.277   5.105  0.1812 -0.0838 -0.3894
 7846SOL    HW231156   2.237   2.199   5.130  2.5053 -1.9402 -1.1422
 7846SOL    HW331157   2.357   2.282   5.171 -0.8858  2.4398  0.6525
 7846SOL    MW431158   2.290   2.267   5.117 -0.1431  0.4155  0.4747
 7847SOL     OW31159   2.681   3.782   3.352  0.8633 -0.4176 -0.6183
 7847SOL    HW231160   2.637   3.865   3.373 -0.6594 -1.3271 -0.0817
 7847SOL    HW331161   2.676   3.777   3.256 -1.2817 -1.0150 -0.5325
 7847SOL    MW431162   2.675   3.793   3.342  0.5135  0.7657  0.0226
 7848SOL     OW31163   5.297   2.557   3.979 -0.0775  0.1896 -0.6285
 7848SOL    HW231164   5.332   2.634   3.933 -3.8299  1.3197 -1.9293
 7848SOL    HW331165   5.268   2.592   4.064  1.6247 -0.6985  0.3770
 7848SOL    MW431166   5.298   2.572   3.984 -0.0085  0.1206  0.0062
 7849SOL     OW31167   0.573   2.296   2.606 -0.2475  0.1819 -0.8106
 7849SOL    HW231168   0.639   2.346   2.655  0.5980 -2.2051  0.6267
 7849SOL    HW331169   0.619   2.268   2.527 -0.6022  1.2664 -1.4250
 7849SOL    MW431170   0.588   2.299   2.602 -0.1286  0.0029  0.2838
 7850SOL     OW31171   2.171   2.061   5.678  0.7909 -0.4581 -0.1994
 7850SOL    HW231172   2.151   1.980   5.726  0.9089 -0.4460 -0.1286
 7850SOL    HW331173   2.117   2.056   5.599 -1.0091  0.5025  0.8987
 7850SOL    MW431174   2.161   2.049   5.674  0.0686 -0.5900 -0.0331
 7851SOL     OW31175   1.667   0.557   4.419  0.0542  0.0598  0.0391
 7851SOL    HW231176   1.603   0.505   4.466 -0.7430  0.2572 -0.8044
 7851SOL    HW331177   1.677   0.514   4.334  2.3207 -0.9419  0.7550
 7851SOL    MW431178   1.660   0.545   4.414  0.2136  0.2772 -0.5443
 7852SOL     OW31179   0.690   1.701   5.656 -0.0831  0.1065 -0.1711
 7852SOL    HW231180   0.688   1.619   5.607  1.5760  1.2737 -2.3789
 7852SOL    HW331181   0.776   1.702   5.698  0.4261  1.2309 -1.1900
 7852SOL    MW431182   0.701   1.691   5.655  0.0110 -0.2675  0.3651
 7853SOL     OW31183   4.365   5.297   0.447  0.2649 -0.0889  0.2668
 7853SOL    HW231184   4.399   5.322   0.361  1.1245 -0.2629  0.5445
 7853SOL    HW331185   4.379   5.202   0.451  1.5363  0.1057  1.1338
 7853SOL    MW431186   4.371   5.288   0.436  0.1412 -0.7106  0.6348
 7854SOL     OW31187   5.353   6.407   4.642  0.7446  1.1195 -0.1276
 7854SOL    HW231188   5.386   6.371   4.559 -0.7913  0.0218 -0.3136
 7854SOL    HW331189   5.383   6.345   4.709  0.2898  0.8847 -0.1323
 7854SOL    MW431190   5.361   6.394   4.640 -0.7675  0.2288 -0.1601
 7855SOL     OW31191   5.826   0.382   2.570 -0.7339 -0.0010 -0.3247
 7855SOL    HW231192   5.794   0.335   2.493  0.9560 -0.5061 -0.7625
 7855SOL    HW331193   5.909   0.340   2.591 -0.2874  1.3171  0.6869
 7855SOL    MW431194   5.833   0.370   2.563 -1.1909 -0.1322 -0.0974
 7856SOL     OW31195   1.536   5.291   6.409 -0.8565  0.3256  0.1140
 7856SOL    HW231196   1.493   5.376   6.405 -0.3890  0.6084  0.8489
 7856SOL    HW331197   1.511   5.256   6.495 -0.0820  0.2432  0.3104
 7856SOL    MW431198   1.527   5.297   6.420  0.5791 -0.2228 -0.9177
 7857SOL     OW31199   3.504   5.444   5.385  0.5062  0.0469  0.0783
 7857SOL    HW231200   3.416   5.481   5.382  0.3587 -0.3135 -0.1042
 7857SOL    HW331201   3.562   5.520   5.386  0.1696  0.3051  1.3155
 7857SOL    MW431202   3.500   5.459   5.385 -0.3290 -0.0999  0.0179
 7858SOL     OW31203   1.062   0.701   0.173  1.0086  0.1311 -0.4516
 7858SOL    HW231204   1.147   0.697   0.216  0.9486 -0.9984 -0.4211
 7858SOL    HW331205   1.001   0.658   0.233  0.6357 -0.0894 -0.9707
 7858SOL    MW431206   1.065   0.695   0.186 -0.0301  0.0793 -0.1623
 7859SOL     OW31207   3.540   0.372   5.553 -0.6005  0.1616  0.5006
 7859SOL    HW231208   3.497   0.332   5.628 -1.3706  0.1347  0.0559
 7859SOL    HW331209   3.546   0.465   5.575  1.1073 -0.1449  1.4960
 7859SOL    MW431210   3.535   0.379   5.566 -0.0875 -0.1055  0.1263
 7860SOL     OW31211   2.053   5.756   1.889  0.0650  0.1645  0.3512
 7860SOL    HW231212   1.985   5.803   1.840  0.5757 -0.0988 -0.6228
 7860SOL    HW331213   2.071   5.678   1.837  2.4766  1.1525 -0.4453
 7860SOL    MW431214   2.046   5.752   1.876 -0.2524 -0.0898 -0.0617
 7861SOL     OW31215   5.188   2.043   3.534 -0.0341 -0.0253  0.2447
 7861SOL    HW231216   5.254   2.008   3.594 -0.0220  0.5926  0.5906
 7861SOL    HW331217   5.231   2.116   3.491  0.0827 -0.6865 -0.7948
 7861SOL    MW431218   5.202   2.048   3.536  0.3062 -0.2983  0.0878
 7862SOL     OW31219   5.179   6.314   5.712  0.4774 -0.4346  0.0164
 7862SOL    HW231220   5.234   6.241   5.684  0.5740 -0.0738 -0.7449
 7862SOL    HW331221   5.192   6.381   5.645 -0.1353  0.0256  0.3505
 7862SOL    MW431222   5.188   6.313   5.700 -0.6166 -0.0420 -0.2081
 7863SOL     OW31223   3.667   1.479   3.102  0.1610  0.1643  0.1215
 7863SOL    HW231224   3.720   1.554   3.076  0.2322 -0.6242 -2.1788
 7863SOL    HW331225   3.615   1.457   3.025 -1.2244 -1.0213  1.3254
 7863SOL    MW431226   3.667   1.486   3.089 -0.1415 -0.4756 -0.1938
 7864SOL     OW31227   3.403   4.443   2.082 -0.4700  0.0178  0.2786
 7864SOL    HW231228   3.447   4.428   2.165  1.6285 -0.5384 -0.8587
 7864SOL    HW331229   3.462   4.501   2.033 -2.0071  0.9506 -0.5590
 7864SOL    MW431230   3.416   4.449   2.086  0.1853  0.0492  0.3634
 7865SOL     OW31231   6.208   3.466   3.974 -0.7744 -0.7849 -0.6385
 7865SOL    HW231232   6.280   3.441   4.032 -1.1007 -0.4805 -0.0920
 7865SOL    HW331233   6.220   3.412   3.896  0.0089 -0.7845 -0.5280
 7865SOL    MW431234   6.219   3.456   3.971  0.1002 -0.4895  0.2213
 7866SOL     OW31235   4.273   3.209   3.358  0.0038  0.0922  0.0668
 7866SOL    HW231236   4.261   3.300   3.330 -1.2111 -0.6806 -2.1517
 7866SOL    HW331237   4.303   3.163   3.280 -0.4659 -1.6336  0.8530
 7866SOL    MW431238   4.275   3.215   3.344 -0.6032 -0.1865 -0.2793
 7867SOL     OW31239   4.742   1.854   1.322  0.2300 -0.6869  0.2305
 7867SOL    HW231240   4.689   1.902   1.385 -1.4425  0.5158 -1.9446
 7867SOL    HW331241   4.742   1.764   1.355 -1.6046 -0.3544  1.3193
 7867SOL    MW431242   4.735   1.848   1.335 -0.3851  0.2060  0.4427
 7868SOL     OW31243   2.591   1.719   0.919 -0.4065 -0.2204  0.1571
 7868SOL    HW231244   2.641   1.787   0.873 -0.6372  0.2502  0.5960
 7868SOL    HW331245   2.549   1.765   0.991  0.2729 -1.0194  1.0834
 7868SOL    MW431246   2.592   1.734   0.922 -0.2675  0.0510 -0.3169
 7869SOL     OW31247   5.455   4.446   5.993 -0.0075 -0.1387  0.2704
 7869SOL    HW231248   5.431   4.476   5.906 -1.8853  2.1136  1.4641
 7869SOL    HW331249   5.502   4.519   6.032 -0.0397 -0.7389  1.4926
 7869SOL    MW431250   5.458   4.459   5.987  0.4840 -0.4015  0.2609
 7870SOL     OW31251   6.034   0.179   5.577  0.2485 -0.2257  0.0779
 7870SOL    HW231252   6.088   0.100   5.577  0.6547  0.0456 -0.1124
 7870SOL    HW331253   6.006   0.189   5.486  1.5285  0.7256 -0.2470
 7870SOL    MW431254   6.038   0.170   5.565 -0.0303 -0.3690  0.0121
 7871SOL     OW31255   4.013   4.089   3.214  0.3579  0.1300  0.5047
 7871SOL    HW231256   3.985   4.099   3.305  1.6264  0.8648  0.8406
 7871SOL    HW331257   4.100   4.128   3.211  0.4338 -0.0796 -0.9854
 7871SOL    MW431258   4.021   4.096   3.226 -0.0209 -0.3775 -0.4247
 7872SOL     OW31259   6.295   4.811   1.706  0.6197  0.0213  0.4230
 7872SOL    HW231260   6.248   4.737   1.746  0.4885  0.0407  0.3079
 7872SOL    HW331261   6.294   4.879   1.772  2.9108 -0.9110  1.5176
 7872SOL    MW431262   6.288   4.810   1.720 -0.0576  0.1492 -0.4919
 7873SOL     OW31263   1.211   0.079   5.429 -0.2140 -0.3975 -0.2116
 7873SOL    HW231264   1.293   0.057   5.386  0.5347 -0.8286  1.3452
 7873SOL    HW331265   1.154   0.004   5.413  0.5017 -1.1428  0.5872
 7873SOL    MW431266   1.214   0.066   5.421 -0.3828  0.0277 -0.4825
 7874SOL     OW31267   1.905   4.354   3.109  0.1835 -0.5241 -0.1656
 7874SOL    HW231268   1.887   4.335   3.201 -0.1166  0.4406 -0.0156
 7874SOL    HW331269   1.917   4.267   3.069  1.5631 -0.9108  1.0113
 7874SOL    MW431270   1.904   4.340   3.116  0.6486 -0.3879  0.0545
 7875SOL     OW31271   0.350   0.150   0.855  0.6346 -0.1429 -0.0259
 7875SOL    HW231272   0.370   0.190   0.940 -1.1088  1.3573 -0.2484
 7875SOL    HW331273   0.275   0.200   0.823  0.8012 -1.1591 -2.1351
 7875SOL    MW431274   0.342   0.162   0.862 -0.4955 -0.3176  0.0572
 7876SOL     OW31275   1.313   4.883   2.534 -0.0418  0.3959  0.3513
 7876SOL    HW231276   1.390   4.922   2.494  0.3072  0.9196  1.4925
 7876SOL    HW331277   1.328   4.788   2.528  1.9832  0.4445  2.8335
 7876SOL    MW431278   1.325   4.875   2.528 -0.4444  0.2498 -0.0868
 7877SOL     OW31279   1.364   4.612   2.458 -0.3142  0.0117  0.3422
 7877SOL    HW231280   1.421   4.633   2.383  0.6518 -0.5106  0.9098
 7877SOL    HW331281   1.285   4.576   2.418  0.5293 -1.0787 -0.4430
 7877SOL    MW431282   1.361   4.610   2.443 -0.0372 -0.1231 -0.0346
 7878SOL     OW31283   3.531   2.700   1.524  0.2639 -0.0622  0.3724
 7878SOL    HW231284   3.607   2.744   1.485  1.1148 -0.4054  1.5745
 7878SOL    HW331285   3.542   2.608   1.499 -0.2103  0.0168 -0.1357
 7878SOL    MW431286   3.543   2.693   1.516 -0.3356  0.6780  0.3125
 7879SOL     OW31287   5.624   3.501   4.173  0.3736  0.1474  0.4495
 7879SOL    HW231288   5.603   3.444   4.098 -0.5163  2.4481 -1.1734
 7879SOL    HW331289   5.699   3.459   4.215 -0.2082 -2.1638 -0.6818
 7879SOL    MW431290   5.631   3.488   4.169  0.3108  0.6299  0.3159
 7880SOL     OW31291   2.179   3.733   2.160  0.3947 -0.1624 -0.0073
 7880SOL    HW231292   2.208   3.824   2.147  0.9932 -0.3953 -0.3441
 7880SOL    HW331293   2.158   3.728   2.253  2.3384 -0.2155  0.4720
 7880SOL    MW431294   2.180   3.745   2.170 -0.2546 -0.0394 -0.7638
 7881SOL     OW31295   0.086   4.396   4.003  0.2690  0.3081  0.4732
 7881SOL    HW231296   0.031   4.459   3.956 -0.7472 -0.9558 -0.1022
 7881SOL    HW331297   0.166   4.392   3.951 -1.0357 -1.4658 -1.6022
 7881SOL    MW431298   0.089   4.404   3.990  0.3972 -0.3757 -0.3624
 7882SOL     OW31299   2.345   5.590   2.449 -0.4080  0.2367 -0.1187
 7882SOL    HW231300   2.376   5.678   2.431  2.1335 -0.4484  0.4543
 7882SOL    HW331301   2.290   5.567   2.374 -1.7420  2.5256  0.0787
 7882SOL    MW431302   2.342   5.598   2.437  0.2742  0.0330  0.3007
 7883SOL     OW31303   3.265   0.290   0.755 -0.3777  0.3516  0.1372
 7883SOL    HW231304   3.191   0.235   0.783 -1.7197  2.1007  0.1868
 7883SOL    HW331305   3.280   0.349   0.828  0.6861  0.4082 -0.1172
 7883SOL    MW431306   3.257   0.290   0.768 -0.2349 -0.9428  0.1420
 7884SOL     OW31307   4.240   5.078   5.679  0.0654 -0.4872  0.1928
 7884SOL    HW231308   4.323   5.106   5.718  0.5560 -0.7385 -0.6642
 7884SOL    HW331309   4.242   5.112   5.590  0.4650 -2.7443 -0.7322
 7884SOL    MW431310   4.251   5.086   5.673  0.2050  0.4792 -0.1109
 7885SOL     OW31311   3.077   4.531   3.146  0.0828  0.4019  0.4250
 7885SOL    HW231312   3.087   4.626   3.143 -0.4518  0.5412  2.1951
 7885SOL    HW331313   3.015   4.515   3.217 -0.5718 -1.2320 -0.4599
 7885SOL    MW431314   3.070   4.542   3.155  0.2762  0.2935 -0.3261
 7886SOL     OW31315   4.413   0.214   4.357 -0.2370 -0.2442 -0.0970
 7886SOL    HW231316   4.450   0.273   4.424  0.3320 -2.3093  1.5203
 7886SOL    HW331317   4.349   0.162   4.405 -1.4754 -0.2715 -1.7275
 7886SOL    MW431318   4.410   0.215   4.372  0.6876  0.0539  0.0433
 7887SOL     OW31319   5.598   1.713   5.829  0.1707 -0.3469  0.2299
 7887SOL    HW231320   5.530   1.645   5.822  1.5990 -1.9473  1.1065
 7887SOL    HW331321   5.658   1.695   5.757 -0.6093  1.4746 -0.9477
 7887SOL    MW431322   5.597   1.701   5.819  0.0043 -0.9480  0.0590
 7888SOL     OW31323   2.615   0.830   4.921  0.2079  0.0019  0.3888
 7888SOL    HW231324   2.636   0.876   5.002 -2.4433  0.9837  0.6369
 7888SOL    HW331325   2.674   0.867   4.856  0.7913  0.9121  1.4083
 7888SOL    MW431326   2.625   0.841   4.923 -0.1047  0.7462 -0.2405
 7889SOL     OW31327   5.173   1.338   6.170  0.1488 -0.1473  0.4302
 7889SOL    HW231328   5.256   1.340   6.123 -0.4405  1.0698 -0.6373
 7889SOL    HW331329   5.197   1.322   6.261  1.5014 -0.3716  0.0529
 7889SOL    MW431330   5.187   1.337   6.175  0.3649  0.4613 -0.2735
 7890SOL     OW31331   1.595   1.361   4.652  0.3936 -0.3027  0.1859
 7890SOL    HW231332   1.641   1.290   4.696 -0.0754 -0.9425 -0.3439
 7890SOL    HW331333   1.630   1.441   4.693  1.1530 -0.8147  0.5628
 7890SOL    MW431334   1.606   1.362   4.663 -0.3308 -0.0059 -0.2215
 7891SOL     OW31335   5.232   0.352   2.267  0.3840 -0.0238  0.0324
 7891SOL    HW231336   5.314   0.324   2.309  0.9919  0.2223 -0.9702
 7891SOL    HW331337   5.238   0.448   2.265  0.7202 -0.0500 -1.2766
 7891SOL    MW431338   5.244   0.361   2.272  0.0708  0.0298 -0.2320
 7892SOL     OW31339   2.961   1.598   6.348  0.6207  0.0384 -0.4172
 7892SOL    HW231340   2.896   1.538   6.384  1.2979  0.1094  1.0163
 7892SOL    HW331341   3.036   1.590   6.407  0.8393  2.0749 -0.3440
 7892SOL    MW431342   2.963   1.589   6.361 -0.6653 -0.1597  0.0689
 7893SOL     OW31343   5.818   5.242   5.426 -0.4528 -0.2210 -0.0367
 7893SOL    HW231344   5.829   5.153   5.391  0.8011  0.3856 -1.2344
 7893SOL    HW331345   5.826   5.230   5.521 -1.1669 -1.4901 -0.0957
 7893SOL    MW431346   5.820   5.228   5.434 -0.6368 -0.7367 -0.3333
 7894SOL     OW31347   6.220   3.347   4.899 -0.1042 -0.6502 -0.3405
 7894SOL    HW231348   6.276   3.274   4.926  1.2419 -0.2791 -1.9564
 7894SOL    HW331349   6.254   3.373   4.813  1.3691  3.7548  1.3412
 7894SOL    MW431350   6.231   3.341   4.891 -0.0630 -0.3093 -0.1999
 7895SOL     OW31351   4.989   5.946   3.108 -0.2068  0.1796 -0.0728
 7895SOL    HW231352   4.920   5.984   3.053  0.2127 -0.5114 -1.1165
 7895SOL    HW331353   5.001   6.009   3.179 -0.7757  1.1043 -0.7691
 7895SOL    MW431354   4.981   5.959   3.110 -0.1903  0.8344  0.5688
 7896SOL     OW31355   5.379   4.167   0.480 -0.4768  0.1079  0.0736
 7896SOL    HW231356   5.457   4.118   0.503  0.8859  0.6975 -2.8886
 7896SOL    HW331357   5.324   4.104   0.433 -1.0508  0.1461  0.6742
 7896SOL    MW431358   5.382   4.152   0.477  0.5097 -0.4449 -0.2415
 7897SOL     OW31359   2.711   4.712   1.904  0.3898 -0.0530  0.5009
 7897SOL    HW231360   2.718   4.734   1.997  1.2186 -0.1247  0.4594
 7897SOL    HW331361   2.743   4.622   1.897 -1.5831 -0.8017  0.4352
 7897SOL    MW431362   2.716   4.703   1.915 -0.6645 -0.3572  0.2526
 7898SOL     OW31363   1.276   3.974   6.187  0.4325 -0.1323 -0.1355
 7898SOL    HW231364   1.286   4.069   6.181  2.5974 -0.3887 -1.6667
 7898SOL    HW331365   1.188   3.957   6.154  0.1485  1.2953 -0.1802
 7898SOL    MW431366   1.266   3.984   6.182  0.3577 -0.0118 -0.2220
 7899SOL     OW31367   6.302   1.570   6.435  0.1470  0.0474 -0.1025
 7899SOL    HW231368   6.362   1.495   6.427  0.4042  0.2855 -0.4145
 7899SOL    HW331369   6.287   1.598   6.345  1.6163  1.6083  0.0993
 7899SOL    MW431370   6.308   1.564   6.422  0.2475 -0.2234 -0.4643
 7900SOL     OW31371   2.996   5.580   1.099 -0.0554 -0.2411  0.4037
 7900SOL    HW231372   2.977   5.488   1.082  1.2789 -0.3655 -0.6059
 7900SOL    HW331373   2.931   5.607   1.164 -0.3242 -1.9560  0.8912
 7900SOL    MW431374   2.985   5.571   1.105 -0.3781 -0.1914  0.3485
 7901SOL     OW31375   0.726   5.363   5.601  0.2548 -0.4439 -0.0677
 7901SOL    HW231376   0.776   5.316   5.668 -0.6277 -2.3766 -0.6721
 7901SOL    HW331377   0.785   5.368   5.526  0.1252 -1.3042 -0.2436
 7901SOL    MW431378   0.740   5.357   5.600 -0.1559  0.6757 -0.1024
 7902SOL     OW31379   5.477   5.524   3.498  0.2362  0.2974 -0.1415
 7902SOL    HW231380   5.501   5.580   3.572  1.4996  0.8121 -0.9213
 7902SOL    HW331381   5.473   5.583   3.423  1.8780 -0.6580 -1.0342
 7902SOL    MW431382   5.480   5.539   3.498 -0.1499  0.3003 -0.3043
 7903SOL     OW31383   0.823   6.042   2.225  0.1094 -0.2661 -0.0817
 7903SOL    HW231384   0.819   6.137   2.232  2.5913  0.0678 -1.7004
 7903SOL    HW331385   0.773   6.022   2.146  0.1254 -0.2182 -0.1045
 7903SOL    MW431386   0.816   6.052   2.215 -0.2100 -0.0308 -0.4244
 7904SOL     OW31387   2.712   4.360   1.097 -0.0858  0.9088 -0.3597
 7904SOL    HW231388   2.671   4.445   1.116 -0.4228  0.7801 -0.5034
 7904SOL    HW331389   2.797   4.364   1.141 -0.7512  0.7030  0.9719
 7904SOL    MW431390   2.718   4.372   1.105 -0.6283 -0.3551  0.0637
 7905SOL     OW31391   3.919   1.249   3.446 -0.0463 -0.5797 -0.1446
 7905SOL    HW231392   4.008   1.215   3.441  0.0394 -0.2178 -1.7296
 7905SOL    HW331393   3.868   1.179   3.487  1.4004  0.2489  3.4929
 7905SOL    MW431394   3.924   1.235   3.451  0.1989  0.3203  0.2624
 7906SOL     OW31395   2.701   1.024   4.174 -0.0801 -0.3882 -0.0252
 7906SOL    HW231396   2.610   1.038   4.149  0.7576  2.1720 -2.0747
 7906SOL    HW331397   2.711   0.929   4.174 -2.0240 -0.7211 -2.8492
 7906SOL    MW431398   2.690   1.013   4.171 -0.2351 -0.7207  0.0380
 7907SOL     OW31399   2.420   5.624   1.269 -0.4799  0.2880 -0.3440
 7907SOL    HW231400   2.418   5.705   1.320 -1.3872 -0.4153  0.8047
 7907SOL    HW331401   2.453   5.558   1.330 -2.6670 -0.8123 -0.2645
 7907SOL    MW431402   2.424   5.626   1.284  0.9213  0.4980  0.9005
 7908SOL     OW31403   1.690   6.073   2.017 -0.0644 -0.5612  0.4590
 7908SOL    HW231404   1.698   6.011   1.945  0.8084  1.5387 -1.3556
 7908SOL    HW331405   1.780   6.083   2.050 -0.1732 -0.1255  0.6287
 7908SOL    MW431406   1.703   6.066   2.012 -0.0489 -0.4238  0.0253
 7909SOL     OW31407   5.104   4.328   1.575 -0.2371  0.1538  0.4284
 7909SOL    HW231408   5.070   4.393   1.514 -0.6162 -1.2643 -0.9390
 7909SOL    HW331409   5.040   4.326   1.646 -1.9957 -1.0052 -1.1081
 7909SOL    MW431410   5.091   4.336   1.576 -0.0810 -0.0506  0.6046
 7910SOL     OW31411   4.804   1.816   4.448  0.1311 -0.3740  0.0076
 7910SOL    HW231412   4.760   1.861   4.376  0.4956 -1.5788 -1.0051
 7910SOL    HW331413   4.787   1.871   4.524 -1.2748  0.3202 -0.7627
 7910SOL    MW431414   4.796   1.829   4.448 -0.2372  0.6569 -0.5487
 7911SOL     OW31415   1.343   2.899   2.981 -0.0016  0.1292 -0.3070
 7911SOL    HW231416   1.433   2.887   2.951  0.4595 -0.1704  1.1289
 7911SOL    HW331417   1.303   2.812   2.976  0.2793 -0.0600  0.5262
 7911SOL    MW431418   1.349   2.886   2.976  0.1999  0.0647  0.2151
 7912SOL     OW31419   0.221   2.410   3.557 -0.0252 -0.1698 -0.3068
 7912SOL    HW231420   0.293   2.442   3.611 -0.3649  0.1488 -0.0393
 7912SOL    HW331421   0.230   2.314   3.559  0.6593 -0.1225 -0.6549
 7912SOL    MW431422   0.232   2.401   3.564  0.4492  0.6066  0.1037
 7913SOL     OW31423   5.459   0.148   4.915 -0.1980  0.0217 -0.1648
 7913SOL    HW231424   5.443   0.239   4.939 -0.2087 -0.3235  1.2005
 7913SOL    HW331425   5.375   0.104   4.931 -0.0806 -0.3099 -0.4402
 7913SOL    MW431426   5.446   0.154   4.920  0.1406  0.0020 -0.1556
 7914SOL     OW31427   3.569   6.395   6.440 -0.6299  0.0938  0.6602
 7914SOL    HW231428   3.556   6.350   6.524  3.2819 -0.2457  1.2721
 7914SOL    HW331429   3.570   6.488   6.463  1.2470 -0.0279  1.2266
 7914SOL    MW431430   3.568   6.401   6.454  0.3179 -0.4282  0.2280
 7915SOL     OW31431   6.175   6.179   4.879  0.0926 -0.2997  0.0586
 7915SOL    HW231432   6.147   6.253   4.825  0.6272 -0.7397 -0.8351
 7915SOL    HW331433   6.174   6.214   4.969 -1.8611  0.1114 -0.0874
 7915SOL    MW431434   6.171   6.193   4.884 -0.2709 -0.1262  0.2153
 7916SOL     OW31435   1.911   5.681   0.731 -0.0312 -0.3699 -0.0854
 7916SOL    HW231436   1.970   5.756   0.725 -1.4398  0.7213 -0.9446
 7916SOL    HW331437   1.910   5.659   0.824  2.4180 -1.0350 -0.1567
 7916SOL    MW431438   1.919   5.688   0.743  0.9233  0.2108  0.4803
 7917SOL     OW31439   3.700   0.522   0.529 -0.1586 -0.4445 -0.4651
 7917SOL    HW231440   3.644   0.584   0.482 -0.8340 -0.4122  0.3514
 7917SOL    HW331441   3.657   0.438   0.519 -0.1743 -0.4789 -0.1181
 7917SOL    MW431442   3.687   0.519   0.521  0.2957  0.7234  0.2061
 7918SOL     OW31443   2.949   6.312   4.822  0.1450  0.1543  0.1223
 7918SOL    HW231444   2.878   6.325   4.884  0.5636 -1.4846  1.0290
 7918SOL    HW331445   2.906   6.300   4.737 -0.9953 -3.3445  1.0086
 7918SOL    MW431446   2.934   6.312   4.819 -0.6433 -0.1631  0.0619
 7919SOL     OW31447   4.268   2.319   5.829 -0.3057  0.3025 -0.8394
 7919SOL    HW231448   4.288   2.407   5.797 -1.3334  1.2953  1.0340
 7919SOL    HW331449   4.224   2.334   5.913  1.4495 -2.0447  0.6392
 7919SOL    MW431450   4.265   2.333   5.836  0.4604 -0.1365  0.3591
 7920SOL     OW31451   4.350   3.271   0.601  0.0410  0.7818  0.1757
 7920SOL    HW231452   4.367   3.287   0.509  1.4927  0.0468  0.2920
 7920SOL    HW331453   4.310   3.352   0.633  0.9813  1.6398 -0.7465
 7920SOL    MW431454   4.347   3.284   0.593  0.4776 -0.4642  0.2267
 7921SOL     OW31455   1.419   6.317   5.669 -0.4849 -0.5359  0.2066
 7921SOL    HW231456   1.370   6.270   5.736 -1.8292 -2.0652 -1.7495
 7921SOL    HW331457   1.421   6.408   5.700  0.9046 -1.5180  3.3599
 7921SOL    MW431458   1.413   6.323   5.682 -0.1367 -0.4517  0.3005
 7922SOL     OW31459   4.321   5.874   5.324  0.2844 -0.0146 -0.0906
 7922SOL    HW231460   4.414   5.851   5.323  1.5521  4.2086 -1.3217
 7922SOL    HW331461   4.282   5.822   5.254  2.5416  0.5639 -1.9061
 7922SOL    MW431462   4.328   5.864   5.315 -0.3952  0.5026 -0.4175
 7923SOL     OW31463   5.322   4.272   6.170  0.5144 -0.2177 -0.3121
 7923SOL    HW231464   5.374   4.329   6.114 -0.1399  0.6179 -0.0924
 7923SOL    HW331465   5.354   4.184   6.151  1.1614  0.1659 -1.0684
 7923SOL    MW431466   5.333   4.268   6.160  0.0919 -0.1815  0.2025
 7924SOL     OW31467   4.573   3.384   1.878  0.1845  0.1837 -0.6927
 7924SOL    HW231468   4.610   3.469   1.855  1.3151 -0.7510 -2.5900
 7924SOL    HW331469   4.482   3.388   1.850  0.4740  0.4900 -1.6318
 7924SOL    MW431470   4.566   3.395   1.871  0.9477 -0.6275  0.0114
 7925SOL     OW31471   2.603   2.415   6.320  0.2307 -0.0481  0.0626
 7925SOL    HW231472   2.687   2.393   6.280  1.0425  1.9682  0.5676
 7925SOL    HW331473   2.572   2.332   6.356  0.2825 -1.6179 -3.1155
 7925SOL    MW431474   2.610   2.401   6.320  0.1850 -0.2799 -0.3898
 7926SOL     OW31475   4.483   5.103   5.324 -0.4438 -0.1889  0.2435
 7926SOL    HW231476   4.465   5.031   5.263 -0.4248 -1.2993  1.5082
 7926SOL    HW331477   4.397   5.132   5.353 -0.4282 -0.2336  0.3356
 7926SOL    MW431478   4.470   5.097   5.320  0.2576 -0.2253 -0.1451
 7927SOL     OW31479   0.541   1.188   2.393 -0.0498 -0.2153 -0.0863
 7927SOL    HW231480   0.490   1.259   2.356 -1.7454 -0.5405  1.4593
 7927SOL    HW331481   0.517   1.111   2.342 -0.5828 -0.2313  0.1827
 7927SOL    MW431482   0.531   1.187   2.382 -0.2445  0.0068  0.1070
 7928SOL     OW31483   2.972   0.897   5.389 -0.4686  0.4545 -0.3716
 7928SOL    HW231484   2.980   0.803   5.371  0.8049  0.5324 -0.3203
 7928SOL    HW331485   3.062   0.929   5.388 -0.8322  1.5458  0.3420
 7928SOL    MW431486   2.985   0.889   5.387 -0.1662 -0.1923  0.2115
 7929SOL     OW31487   3.191   3.265   4.572 -0.1589 -0.7728 -0.2484
 7929SOL    HW231488   3.231   3.197   4.519  0.9459 -1.2444  1.1451
 7929SOL    HW331489   3.099   3.238   4.579 -0.2115 -0.9808 -1.4194
 7929SOL    MW431490   3.184   3.252   4.566 -0.0722  0.2306 -0.5095
 7930SOL     OW31491   4.583   5.383   4.735 -0.0896 -0.1364 -0.1567
 7930SOL    HW231492   4.615   5.297   4.763 -1.8748 -1.2536 -1.3062
 7930SOL    HW331493   4.608   5.389   4.643  0.7389  0.9789  0.1189
 7930SOL    MW431494   4.590   5.372   4.726 -0.3347  0.2025  0.4577
 7931SOL     OW31495   1.993   2.558   3.671 -0.2845  0.9624  0.5015
 7931SOL    HW231496   2.059   2.627   3.676  0.8611 -0.1588  1.6951
 7931SOL    HW331497   1.963   2.559   3.580  0.9289  1.8976  0.0903
 7931SOL    MW431498   1.998   2.567   3.660 -0.6679  0.4817  0.3711
 7932SOL     OW31499   2.970   1.493   5.266 -0.0786  0.3927 -0.0026
 7932SOL    HW231500   2.877   1.469   5.272 -0.1210  0.7394  0.7693
 7932SOL    HW331501   2.970   1.577   5.220 -0.0683 -0.0903 -0.9073
 7932SOL    MW431502   2.958   1.501   5.261  0.3899  0.3773  0.2926
 7933SOL     OW31503   0.575   4.559   1.133 -0.7076 -0.0997 -0.0142
 7933SOL    HW231504   0.548   4.619   1.064  2.0080  0.9828 -0.2617
 7933SOL    HW331505   0.621   4.615   1.196  0.4585 -1.6647  0.5803
 7933SOL    MW431506   0.578   4.574   1.133  0.3305  0.3908  0.2056
 7934SOL     OW31507   1.202   2.993   5.501  0.1319  0.5509  0.6185
 7934SOL    HW231508   1.189   2.973   5.408 -0.1014 -0.5327  0.8643
 7934SOL    HW331509   1.229   3.084   5.503 -0.5986  0.8058 -0.4628
 7934SOL    MW431510   1.204   3.002   5.489  0.1341 -0.4390  0.1569
 7935SOL     OW31511   3.382   3.465   3.471  0.7849 -0.0069  0.2004
 7935SOL    HW231512   3.344   3.485   3.557  0.2898 -0.4356  0.0870
 7935SOL    HW331513   3.336   3.386   3.442  1.1983 -0.0694 -0.3033
 7935SOL    MW431514   3.371   3.457   3.479 -0.3360  0.0860  0.1253
 7936SOL     OW31515   4.499   0.741   0.154 -0.1937 -0.5927  0.1437
 7936SOL    HW231516   4.567   0.791   0.110 -0.9119  0.4431  0.1632
 7936SOL    HW331517   4.502   0.655   0.113  1.3160 -0.6641  0.3632
 7936SOL    MW431518   4.508   0.736   0.143 -0.1952 -0.0349 -0.4233
 7937SOL     OW31519   2.463   1.994   4.398 -0.2699 -0.4455 -0.6521
 7937SOL    HW231520   2.478   2.041   4.481 -1.2067  0.3306 -0.8935
 7937SOL    HW331521   2.367   1.994   4.389 -0.1828 -0.7593 -1.6006
 7937SOL    MW431522   2.452   2.000   4.408 -0.0297 -0.2786  0.2379
 7938SOL     OW31523   5.420   4.917   1.709  0.4880 -0.2790  0.3381
 7938SOL    HW231524   5.428   4.822   1.718 -1.7770 -0.4129  1.9199
 7938SOL    HW331525   5.369   4.930   1.629 -1.0172 -0.5910  1.1923
 7938SOL    MW431526   5.414   4.906   1.700  0.3049  0.4815  0.2947
 7939SOL     OW31527   5.105   1.452   5.402 -0.2342 -0.4307 -0.2253
 7939SOL    HW231528   5.057   1.376   5.370 -0.4297 -0.2368 -0.3965
 7939SOL    HW331529   5.184   1.456   5.348 -0.0440 -0.7250  0.0281
 7939SOL    MW431530   5.109   1.442   5.391  0.5769 -0.1194  0.2670
 7940SOL     OW31531   3.756   1.739   3.590 -0.4489  0.0329  0.2204
 7940SOL    HW231532   3.717   1.716   3.675  1.2070  0.1109  1.0411
 7940SOL    HW331533   3.757   1.657   3.541  1.9138 -0.9479  1.7017
 7940SOL    MW431534   3.751   1.725   3.595  0.9256  0.2272 -0.3633
 7941SOL     OW31535   4.057   6.081   0.503  0.1870 -0.4706  0.2701
 7941SOL    HW231536   3.973   6.059   0.463 -0.2138  0.2941  0.6705
 7941SOL    HW331537   4.081   6.165   0.464  1.0138 -0.9059 -0.2029
 7941SOL    MW431538   4.049   6.089   0.492  0.3922  0.1590  0.7707
 7942SOL     OW31539   5.502   0.410   4.992  0.1109 -0.2478 -0.0475
 7942SOL    HW231540   5.594   0.396   4.968  0.0219 -1.2279  0.1462
 7942SOL    HW331541   5.490   0.505   4.987  1.0224 -0.1443 -0.4794
 7942SOL    MW431542   5.512   0.420   4.988 -0.0151 -0.4799  0.1046
 7943SOL     OW31543   2.836   1.178   3.062  0.0149 -0.2647  0.8771
 7943SOL    HW231544   2.768   1.112   3.049 -1.7209  0.9376  3.0973
 7943SOL    HW331545   2.840   1.190   3.157  2.3174  0.7929  0.7149
 7943SOL    MW431546   2.828   1.171   3.073 -0.2717  0.1204  0.5790
 7944SOL     OW31547   3.492   1.180   6.315 -0.0472  0.4263 -0.1351
 7944SOL    HW231548   3.567   1.232   6.347  0.6949 -0.1712 -0.8649
 7944SOL    HW331549   3.467   1.222   6.233 -0.1585  0.2953 -0.1679
 7944SOL    MW431550   3.499   1.193   6.309 -0.2977  0.8320  0.6856
 7945SOL     OW31551   0.778   1.542   2.610 -0.1976  0.0116  0.4264
 7945SOL    HW231552   0.863   1.548   2.655  0.0492 -0.6835  0.0704
 7945SOL    HW331553   0.739   1.462   2.643 -1.0241  0.6667  1.0782
 7945SOL    MW431554   0.784   1.532   2.620 -0.0980 -0.5905 -0.7324
 7946SOL     OW31555   4.875   3.861   0.175 -0.5430 -0.1089  0.4063
 7946SOL    HW231556   4.901   3.921   0.106 -0.9088 -0.1044  0.2664
 7946SOL    HW331557   4.806   3.907   0.223 -2.0098 -1.0373 -0.7205
 7946SOL    MW431558   4.869   3.875   0.172 -0.0410 -0.3395  0.6622
 7947SOL     OW31559   6.352   4.521   5.159  0.2608  1.0763 -0.0310
 7947SOL    HW231560   6.440   4.532   5.124 -0.0495  1.5955 -0.6765
 7947SOL    HW331561   6.359   4.447   5.220  0.8029  0.1050 -1.2404
 7947SOL    MW431562   6.364   4.513   5.163 -0.3048  1.2652 -0.0002
 7948SOL     OW31563   2.289   3.697   4.745 -0.1417  0.1209 -0.3820
 7948SOL    HW231564   2.314   3.767   4.805  2.6700 -1.9478  1.1176
 7948SOL    HW331565   2.277   3.620   4.801 -4.3727 -0.5132 -1.7995
 7948SOL    MW431566   2.291   3.696   4.760 -0.0228  0.5356  0.1762
 7949SOL     OW31567   6.432   1.131   6.006 -0.0391  0.1565 -0.0177
 7949SOL    HW231568   6.393   1.215   5.981  0.5318  1.0344  1.8816
 7949SOL    HW331569   6.500   1.154   6.069 -0.3662 -1.8043  1.1189
 7949SOL    MW431570   6.436   1.145   6.011 -0.5004  0.0548  0.1377
 7950SOL     OW31571   1.500   4.972   5.818 -0.1355 -0.4245 -0.0084
 7950SOL    HW231572   1.538   5.044   5.767  0.6872 -0.4507  0.5503
 7950SOL    HW331573   1.512   4.999   5.909 -0.6938 -0.8359  0.1883
 7950SOL    MW431574   1.507   4.985   5.823  0.2743  0.5157 -0.5252
 7951SOL     OW31575   1.673   4.813   2.961 -0.0096  0.1085 -0.1788
 7951SOL    HW231576   1.617   4.736   2.971 -0.3111  0.5275  1.6302
 7951SOL    HW331577   1.735   4.808   3.033  0.4105  1.1923 -0.4437
 7951SOL    MW431578   1.673   4.803   2.972  0.2558 -0.0754 -0.0518
 7952SOL     OW31579   3.108   2.530   5.833 -0.3568 -0.6413  0.4540
 7952SOL    HW231580   3.129   2.519   5.740 -1.8555 -1.2943  0.1658
 7952SOL    HW331581   3.169   2.597   5.863  0.0604 -0.3080 -1.0343
 7952SOL    MW431582   3.119   2.537   5.825  0.1532 -0.1267 -0.4086
 7953SOL     OW31583   4.317   1.936   4.134  0.4194  0.2169 -0.1335
 7953SOL    HW231584   4.237   1.883   4.132  0.4831  0.1251 -0.2343
 7953SOL    HW331585   4.330   1.956   4.227  0.7357 -0.4651 -0.0287
 7953SOL    MW431586   4.308   1.932   4.146 -0.4263 -0.2790 -0.6093
 7954SOL     OW31587   3.916   1.165   5.008 -0.8888 -0.6523 -0.5669
 7954SOL    HW231588   4.000   1.190   5.047 -1.3195 -0.4337  0.2550
 7954SOL    HW331589   3.939   1.132   4.921  0.0789 -0.8933 -0.2367
 7954SOL    MW431590   3.930   1.164   5.002 -0.1908 -0.4305  0.0726
 7955SOL     OW31591   5.074   1.391   2.901 -0.6065 -0.2455  0.1364
 7955SOL    HW231592   5.071   1.461   2.837 -1.8388 -0.4588 -0.0696
 7955SOL    HW331593   5.007   1.415   2.966 -0.7305 -0.9852  0.3002
 7955SOL    MW431594   5.064   1.403   2.901  0.0960 -0.2630  0.5045
 7956SOL     OW31595   2.103   6.114   5.535 -0.4344  0.5326 -0.0264
 7956SOL    HW231596   2.026   6.081   5.488 -1.1424 -2.5848  2.9188
 7956SOL    HW331597   2.068   6.178   5.597 -0.3609  0.4856  0.0639
 7956SOL    MW431598   2.088   6.118   5.537  0.6247 -0.1024  0.1716
 7957SOL     OW31599   1.539   5.014   5.466 -0.7421 -0.4159  0.6799
 7957SOL    HW231600   1.499   5.043   5.384  0.3933 -0.8205 -0.0321
 7957SOL    HW331601   1.518   5.083   5.529 -2.0096 -0.3148  0.1808
 7957SOL    MW431602   1.531   5.027   5.464  0.0714  0.9741 -0.4890
 7958SOL     OW31603   5.721   1.425   2.577  0.3681 -0.1267  0.1447
 7958SOL    HW231604   5.736   1.513   2.612  0.7812  0.4389 -1.3668
 7958SOL    HW331605   5.809   1.388   2.566  0.3509  0.2102 -1.4309
 7958SOL    MW431606   5.735   1.431   2.580  0.0717 -0.6333 -0.4618
 7959SOL     OW31607   5.768   6.420   0.385  0.0268  0.1916 -0.0921
 7959SOL    HW231608   5.759   6.337   0.338  0.7906 -0.5156  0.9617
 7959SOL    HW331609   5.678   6.444   0.409 -0.1104 -0.9565  0.6079
 7959SOL    MW431610   5.755   6.412   0.382  0.2443 -0.4162  0.4507
 7960SOL     OW31611   3.845   5.139   5.230 -0.3263  0.0817  0.5561
 7960SOL    HW231612   3.897   5.113   5.306  0.8224 -1.0277 -0.5640
 7960SOL    HW331613   3.907   5.186   5.174 -0.7639 -0.3957 -0.3566
 7960SOL    MW431614   3.860   5.142   5.233  0.4873  0.4184 -0.0139
 7961SOL     OW31615   4.155   0.690   1.219  0.4852  0.1388  0.4143
 7961SOL    HW231616   4.127   0.598   1.213 -0.0551  0.3282 -0.0818
 7961SOL    HW331617   4.165   0.706   1.313  1.5270 -0.6968  0.4696
 7961SOL    MW431618   4.153   0.680   1.231 -0.2525  0.3901  0.1467
 7962SOL     OW31619   0.061   4.100   6.053 -0.6017 -0.5499 -0.1149
 7962SOL    HW231620   0.077   4.109   5.959 -0.1647  0.6741  0.0561
 7962SOL    HW331621  -0.018   4.152   6.069  0.0978  0.3789  0.4003
 7962SOL    MW431622   0.053   4.108   6.042 -0.2641  0.1194 -0.1595
 7963SOL     OW31623   4.164   2.414   3.081  0.3609  0.5630 -0.2160
 7963SOL    HW231624   4.163   2.415   3.177  0.6845  0.6222 -0.2131
 7963SOL    HW331625   4.075   2.438   3.056  0.3768  0.9322  0.0706
 7963SOL    MW431626   4.152   2.417   3.090  0.3972  0.4788 -0.4187
 7964SOL     OW31627   1.703   1.591   1.501 -1.1124  0.1498  0.0383
 7964SOL    HW231628   1.762   1.660   1.531 -0.7726  0.6033 -1.5364
 7964SOL    HW331629   1.677   1.544   1.580  3.3973 -1.7585  0.7040
 7964SOL    MW431630   1.708   1.594   1.515  0.1533 -0.7117  0.1530
 7965SOL     OW31631   1.124   1.765   2.558 -0.2318  0.1487  0.4994
 7965SOL    HW231632   1.079   1.699   2.611 -0.4551  0.1208  0.2778
 7965SOL    HW331633   1.140   1.720   2.474 -1.9283  0.9203 -0.2804
 7965SOL    MW431634   1.121   1.750   2.554  0.1225 -0.1694 -0.5547
 7966SOL     OW31635   5.100   4.445   6.008  0.1194 -0.1162 -0.5406
 7966SOL    HW231636   5.172   4.441   6.071  1.0117 -0.5053 -1.5451
 7966SOL    HW331637   5.021   4.429   6.060  0.3423  3.2499  1.1755
 7966SOL    MW431638   5.099   4.443   6.023  0.3944 -0.2338  0.0367
 7967SOL     OW31639   2.247   0.979   4.429  0.4642 -0.5874 -0.0042
 7967SOL    HW231640   2.310   1.045   4.401  0.4040 -0.5499 -0.0524
 7967SOL    HW331641   2.230   0.928   4.349  0.4844 -0.6390  0.0242
 7967SOL    MW431642   2.253   0.981   4.415  0.3631  0.1547  0.0301
 7968SOL     OW31643   1.724   3.861   4.907  0.3047  0.3053 -0.0353
 7968SOL    HW231644   1.631   3.859   4.885  0.2804  0.5795  0.0320
 7968SOL    HW331645   1.736   3.787   4.967 -0.1001  0.9219  0.8272
 7968SOL    MW431646   1.713   3.851   4.912 -0.2317  0.5023 -0.0741
 7969SOL     OW31647   4.548   1.247   3.637  0.1894 -0.1629 -0.2238
 7969SOL    HW231648   4.612   1.299   3.589 -0.5449 -0.0515 -1.0965
 7969SOL    HW331649   4.575   1.255   3.729 -0.0754  2.0069 -0.2872
 7969SOL    MW431650   4.560   1.255   3.643 -0.3359  0.4213 -0.3071
 7970SOL     OW31651   4.068   3.753   4.245  0.0374  0.2519 -0.1870
 7970SOL    HW231652   4.103   3.718   4.163  1.5821  0.3440  0.4053
 7970SOL    HW331653   4.021   3.833   4.219 -1.0783 -0.6850 -1.1825
 7970SOL    MW431654   4.066   3.759   4.230  0.8853  0.1683 -0.5625
 7971SOL     OW31655   3.052   1.320   1.358  0.6881  0.3150  0.1395
 7971SOL    HW231656   3.111   1.377   1.308 -0.0392  0.4210 -0.6386
 7971SOL    HW331657   2.965   1.337   1.320 -0.0450  1.0302  2.0173
 7971SOL    MW431658   3.048   1.330   1.346  0.2203 -0.0975 -0.3304
 7972SOL     OW31659   2.080   4.124   1.794  0.3637  0.1307 -0.1379
 7972SOL    HW231660   2.034   4.201   1.827 -1.6426 -0.3828 -1.5125
 7972SOL    HW331661   2.047   4.113   1.705  0.9620 -2.0308 -0.1453
 7972SOL    MW431662   2.069   4.133   1.787 -0.2991 -0.1716 -0.5343
 7973SOL     OW31663   4.277   0.794   2.892  0.6217 -0.0299 -0.1846
 7973SOL    HW231664   4.283   0.765   2.983 -0.1525 -0.3849 -0.2356
 7973SOL    HW331665   4.364   0.828   2.871  0.6216  0.6461  0.8846
 7973SOL    MW431666   4.289   0.794   2.901 -0.1639  0.6640  0.1895
 7974SOL     OW31667   3.049   5.330   5.228 -0.0915  0.2413 -0.0270
 7974SOL    HW231668   3.105   5.394   5.271 -1.4352  0.3488  1.6848
 7974SOL    HW331669   3.088   5.318   5.141  0.8131  2.5503 -0.0106
 7974SOL    MW431670   3.061   5.337   5.222 -0.1184  0.1388 -0.0966
 7975SOL     OW31671   4.226   5.034   1.956  0.5354  0.3455  0.4270
 7975SOL    HW231672   4.286   5.105   1.934  0.7463  0.2191  0.6012
 7975SOL    HW331673   4.146   5.054   1.906  0.7641  0.4404  0.0976
 7975SOL    MW431674   4.223   5.046   1.946 -0.7386 -0.4495  0.5100
 7976SOL     OW31675   1.667   4.101   4.523  0.3722 -0.1619  0.3062
 7976SOL    HW231676   1.632   4.082   4.610 -3.0080 -0.8364 -1.0501
 7976SOL    HW331677   1.644   4.193   4.508 -0.7186 -0.5421 -0.5063
 7976SOL    MW431678   1.659   4.111   4.532 -0.5345 -0.1051 -0.1511
 7977SOL     OW31679   3.240   5.007   0.424 -0.3467 -0.0836 -0.0940
 7977SOL    HW231680   3.220   5.100   0.429 -1.0335 -0.2495  0.3872
 7977SOL    HW331681   3.173   4.965   0.478 -1.1023 -1.0035 -1.6798
 7977SOL    MW431682   3.229   5.014   0.432 -0.7158 -0.5324  0.2091
 7978SOL     OW31683   0.481   3.834   3.052  0.0595 -0.9159 -0.2590
 7978SOL    HW231684   0.552   3.851   3.114  0.0252 -1.5795 -0.0316
 7978SOL    HW331685   0.449   3.747   3.076 -3.9349  1.0566  2.6801
 7978SOL    MW431686   0.486   3.825   3.063 -0.4796 -0.0129  0.0756
 7979SOL     OW31687   4.339   1.725   0.721  0.3341  0.2747 -0.4150
 7979SOL    HW231688   4.386   1.763   0.647  1.6095  0.2972  0.3751
 7979SOL    HW331689   4.406   1.678   0.770 -0.3001  0.9689  1.1947
 7979SOL    MW431690   4.354   1.724   0.718  0.4597 -0.1670 -0.0744
 7980SOL     OW31691   0.599   2.169   3.121  0.0943  0.0196 -0.9850
 7980SOL    HW231692   0.510   2.134   3.116 -0.1599  0.4429  0.1959
 7980SOL    HW331693   0.608   2.224   3.043 -1.1706  1.0624 -0.4142
 7980SOL    MW431694   0.588   2.172   3.110 -0.4101 -0.7792  0.8213
 7981SOL     OW31695   4.087   4.049   1.418 -0.5453 -0.4692 -0.0366
 7981SOL    HW231696   4.083   3.955   1.431 -1.8217 -0.2197  1.5292
 7981SOL    HW331697   4.087   4.086   1.506 -1.0856  1.0340 -0.6396
 7981SOL    MW431698   4.087   4.042   1.431 -0.2341  0.6070  0.1141
 7982SOL     OW31699   5.461   0.225   2.416 -0.3301 -0.3321  0.3992
 7982SOL    HW231700   5.425   0.140   2.391  0.0450 -0.9011  1.6853
 7982SOL    HW331701   5.552   0.223   2.386  0.3872 -1.3688  2.4192
 7982SOL    MW431702   5.468   0.213   2.409  0.2521 -0.4189 -0.1245
 7983SOL     OW31703   1.332   5.476   2.200  0.2284 -1.0455  0.1813
 7983SOL    HW231704   1.363   5.414   2.266  0.8653 -0.7195  0.1862
 7983SOL    HW331705   1.316   5.422   2.123  0.5300 -1.2565  0.2658
 7983SOL    MW431706   1.334   5.461   2.199  0.0698  0.2371 -0.0257
 7984SOL     OW31707   2.992   0.349   2.327  0.4199  0.3053 -0.5477
 7984SOL    HW231708   2.947   0.347   2.243 -0.1673  2.3612 -0.3465
 7984SOL    HW331709   3.035   0.264   2.334 -0.9270 -0.5557 -2.1334
 7984SOL    MW431710   2.991   0.337   2.317  0.0041 -0.0213  0.2346
 7985SOL     OW31711   1.221   1.635   3.252 -0.2286 -1.0084  0.2655
 7985SOL    HW231712   1.249   1.726   3.264 -0.6259 -0.5887 -1.6422
 7985SOL    HW331713   1.287   1.584   3.298  1.2631  0.1616 -0.4726
 7985SOL    MW431714   1.234   1.641   3.259 -0.1625 -0.3814 -0.1531
 7986SOL     OW31715   1.015   0.355   5.108 -0.1755  0.4222  0.0164
 7986SOL    HW231716   1.045   0.445   5.093  2.2457 -0.2715  0.1429
 7986SOL    HW331717   1.051   0.333   5.194 -2.3444 -0.0891  0.8554
 7986SOL    MW431718   1.024   0.364   5.118 -0.4509 -0.4627  0.1722
 7987SOL     OW31719   3.600   2.838   5.929 -0.6188  0.1004  0.4055
 7987SOL    HW231720   3.686   2.862   5.963  0.0224 -2.1717  0.4953
 7987SOL    HW331721   3.614   2.826   5.835 -0.8308 -0.3530  0.4337
 7987SOL    MW431722   3.613   2.840   5.921 -0.2077 -0.7380  0.1186
 7988SOL     OW31723   0.814   0.069   5.643  0.3575  0.4956 -0.3009
 7988SOL    HW231724   0.752   0.130   5.602  1.0859  0.4432 -1.5439
 7988SOL    HW331725   0.760  -0.005   5.670 -0.1371  0.4421 -1.3763
 7988SOL    MW431726   0.799   0.067   5.641  0.3171 -0.4935 -0.1672
 7989SOL     OW31727   6.247   0.930   2.365 -0.2429 -0.6256  0.1684
 7989SOL    HW231728   6.327   0.960   2.323 -0.4051 -0.3080  0.0794
 7989SOL    HW331729   6.247   0.975   2.450 -0.6099 -0.1784 -0.0653
 7989SOL    MW431730   6.257   0.940   2.371  0.4200 -0.3731 -0.1145
 7990SOL     OW31731   4.073   3.028   3.071 -0.0162  0.4840  0.0750
 7990SOL    HW231732   4.059   3.057   2.980 -0.4815 -0.0507 -0.0327
 7990SOL    HW331733   4.019   2.949   3.079  2.8723 -1.6954 -0.3343
 7990SOL    MW431734   4.064   3.021   3.060  0.0529  0.7754 -0.5708
 7991SOL     OW31735   0.981   0.680   3.886 -0.5716  0.3251  0.8635
 7991SOL    HW231736   0.901   0.676   3.834 -1.5699 -0.3396  2.3895
 7991SOL    HW331737   1.007   0.589   3.898 -0.0086  0.5023  1.0151
 7991SOL    MW431738   0.974   0.668   3.881  0.0333 -0.1869 -0.2044
 7992SOL     OW31739   5.948   3.167   4.526 -0.1059  0.2429 -0.6055
 7992SOL    HW231740   6.008   3.095   4.546 -1.2733 -0.4043  0.7386
 7992SOL    HW331741   5.947   3.220   4.605 -0.1005  1.1363 -1.1959
 7992SOL    MW431742   5.956   3.164   4.539 -0.1119 -0.1412  0.1073
 7993SOL     OW31743   0.745   0.126   6.342  0.2794 -0.3296  0.1413
 7993SOL    HW231744   0.670   0.168   6.383 -0.2762 -1.1538  0.0025
 7993SOL    HW331745   0.739   0.034   6.369  0.4148 -0.7003 -1.0314
 7993SOL    MW431746   0.734   0.119   6.351  0.2027  0.3166 -0.8582
 7994SOL     OW31747   6.429   1.380   5.598 -0.6150  0.1252 -0.1096
 7994SOL    HW231748   6.512   1.357   5.556  0.8204  0.4964  2.3377
 7994SOL    HW331749   6.438   1.472   5.621 -0.8908 -0.2973  1.8650
 7994SOL    MW431750   6.441   1.389   5.595  0.5978  0.2602  0.8517
 7995SOL     OW31751   1.131   4.446   2.686 -0.4596  0.5376  0.1721
 7995SOL    HW231752   1.095   4.385   2.621 -1.6228  0.1971  1.0962
 7995SOL    HW331753   1.225   4.430   2.683 -0.8020 -2.4965  1.4541
 7995SOL    MW431754   1.139   4.436   2.677 -0.1900 -0.2195 -0.5987
 7996SOL     OW31755   3.588   1.792   6.340  0.5888 -0.6528  0.2799
 7996SOL    HW231756   3.631   1.864   6.385  0.5561 -1.5974  1.8999
 7996SOL    HW331757   3.612   1.803   6.248  2.1513  0.3219  0.7649
 7996SOL    MW431758   3.597   1.803   6.334 -0.4357 -0.0452  0.0882
 7997SOL     OW31759   0.941   2.085   1.944  0.1214 -0.3754  0.3970
 7997SOL    HW231760   1.002   2.024   1.903 -0.0581 -1.2634  1.4075
 7997SOL    HW331761   0.992   2.164   1.957  0.1989 -0.0635 -1.4613
 7997SOL    MW431762   0.956   2.087   1.940  0.1579  0.4038 -0.3475
 7998SOL     OW31763   5.995   4.512   5.309 -0.1210  0.7242 -0.0821
 7998SOL    HW231764   5.908   4.473   5.323  0.2861  0.3688  1.6409
 7998SOL    HW331765   5.985   4.602   5.339  0.2002  0.5755  0.4748
 7998SOL    MW431766   5.982   4.519   5.315  0.3169  0.1871  0.3324
 7999SOL     OW31767   2.205   4.595   1.411  0.0962  0.3421 -0.6845
 7999SOL    HW231768   2.116   4.559   1.410 -0.5224  1.7251  0.8475
 7999SOL    HW331769   2.195   4.686   1.384  0.4640  1.5311  2.6759
 7999SOL    MW431770   2.192   4.602   1.407 -0.2917  0.5615 -1.0854
 8000SOL     OW31771   2.313   5.265   4.519  0.0849 -0.1527  0.1311
 8000SOL    HW231772   2.379   5.304   4.461  0.1987 -1.5342 -0.7138
 8000SOL    HW331773   2.359   5.192   4.560 -1.3535 -2.3575 -1.9081
 8000SOL    MW431774   2.328   5.260   4.517  0.5146 -0.0903 -0.0154
 8001SOL     OW31775   0.820   0.880   2.468  0.2646  0.2632  0.1529
 8001SOL    HW231776   0.814   0.786   2.450 -2.3955  0.5882 -1.1112
 8001SOL    HW331777   0.745   0.898   2.526 -0.1219  1.8129 -0.7739
 8001SOL    MW431778   0.809   0.870   2.473  0.4801 -0.8589  0.3027
 8002SOL     OW31779   2.095   3.104   4.676  0.0725  0.1087  0.0384
 8002SOL    HW231780   2.088   3.017   4.716  0.5287  1.2501  2.7815
 8002SOL    HW331781   2.176   3.099   4.624  0.3122 -0.9924  0.4749
 8002SOL    MW431782   2.105   3.092   4.674 -0.0629  0.3301  0.0880
 8003SOL     OW31783   2.003   2.876   1.615  0.2900  0.1759 -0.3975
 8003SOL    HW231784   2.026   2.968   1.629  0.1133  0.0414  0.8843
 8003SOL    HW331785   1.967   2.874   1.526 -1.3592  1.6814  0.1838
 8003SOL    MW431786   2.001   2.888   1.605  0.9153 -0.0345 -0.8306
 8004SOL     OW31787   1.154   5.111   6.317  0.2573  0.3291  0.1234
 8004SOL    HW231788   1.218   5.048   6.352 -1.5217 -2.5052 -1.3327
 8004SOL    HW331789   1.190   5.135   6.231  0.1157 -0.1143 -0.0657
 8004SOL    MW431790   1.167   5.106   6.310  0.2094 -0.4253 -0.3787
 8005SOL     OW31791   0.509   3.485   2.890  0.2783 -0.0614  0.4513
 8005SOL    HW231792   0.547   3.468   2.803  0.0127  0.2843  0.2668
 8005SOL    HW331793   0.585   3.495   2.947  0.4647 -2.0720  0.6266
 8005SOL    MW431794   0.524   3.484   2.886 -0.4036  0.1953  0.2157
 8006SOL     OW31795   5.405   4.736   0.123 -0.3109 -0.9413 -0.0251
 8006SOL    HW231796   5.474   4.797   0.099 -0.1004 -0.2440  2.1695
 8006SOL    HW331797   5.399   4.676   0.048  0.2229  1.0665 -1.7687
 8006SOL    MW431798   5.413   4.736   0.110  0.2966 -0.2503 -0.0192
 8007SOL     OW31799   1.762   2.615   1.524  0.3137 -0.6354 -0.0169
 8007SOL    HW231800   1.804   2.628   1.609  1.1010 -0.7100 -0.3854
 8007SOL    HW331801   1.827   2.645   1.460 -0.7916  0.7175 -0.5465
 8007SOL    MW431802   1.776   2.621   1.527 -0.2597 -0.1521 -0.1288
 8008SOL     OW31803   4.902   5.228   0.461 -0.1792  0.0908 -0.2759
 8008SOL    HW231804   4.981   5.241   0.514  0.4833 -1.1115 -0.9176
 8008SOL    HW331805   4.830   5.246   0.520  0.5623 -0.2470  0.7567
 8008SOL    MW431806   4.903   5.232   0.475 -0.3401 -0.1945 -0.0151
 8009SOL     OW31807   4.999   1.783   5.262 -0.4601 -0.1727  0.1358
 8009SOL    HW231808   5.049   1.851   5.307  0.1580 -0.0698 -0.6799
 8009SOL    HW331809   5.018   1.703   5.311  0.4604 -0.1191 -0.1083
 8009SOL    MW431810   5.008   1.781   5.274  0.8591 -0.2951  0.6460
 8010SOL     OW31811   0.603   6.139   3.991  0.4208 -0.6253  0.2105
 8010SOL    HW231812   0.658   6.218   3.992 -1.0235  0.4293  0.4069
 8010SOL    HW331813   0.610   6.107   3.901  1.2649 -0.4556  0.2064
 8010SOL    MW431814   0.611   6.145   3.979 -0.7300 -0.1949 -0.6649
 8011SOL     OW31815   5.882   5.177   3.635 -0.2613  0.1237 -0.4670
 8011SOL    HW231816   5.894   5.220   3.550  1.3847  1.0122  0.1670
 8011SOL    HW331817   5.895   5.248   3.699 -0.4584 -0.7330  0.5380
 8011SOL    MW431818   5.886   5.192   3.632 -0.8266  0.3194  0.3133
 8012SOL     OW31819   5.328   4.965   0.973  0.1808 -0.3851 -0.4334
 8012SOL    HW231820   5.279   4.905   0.917 -1.4793 -1.0128  1.5494
 8012SOL    HW331821   5.323   4.926   1.060 -0.0431  2.0682  0.7494
 8012SOL    MW431822   5.321   4.952   0.977 -0.4996 -0.6301  0.5025
 8013SOL     OW31823   0.608   5.540   5.160 -0.1218  0.5635  0.1034
 8013SOL    HW231824   0.681   5.548   5.098 -0.0183 -0.6356  0.0417
 8013SOL    HW331825   0.629   5.600   5.231  1.2721 -0.2494  0.4102
 8013SOL    MW431826   0.620   5.549   5.161 -0.6740 -0.4119 -0.2910
 8014SOL     OW31827   0.990   5.578   3.169 -0.2098 -0.1255 -0.0769
 8014SOL    HW231828   0.952   5.576   3.082  2.1835 -1.0983 -1.1997
 8014SOL    HW331829   1.018   5.669   3.180 -0.2236 -0.0709 -0.4732
 8014SOL    MW431830   0.989   5.590   3.159 -0.2316 -0.7885  0.1108
 8015SOL     OW31831   6.428   5.495   5.434  0.1038  0.1329 -0.1283
 8015SOL    HW231832   6.401   5.576   5.391 -0.0699  0.3506  0.3841
 8015SOL    HW331833   6.413   5.427   5.368 -1.0912  0.3266 -0.0706
 8015SOL    MW431834   6.423   5.497   5.419 -0.4294  0.7660  0.9740
 8016SOL     OW31835   5.284   2.454   2.530 -0.3767 -0.1818  0.2208
 8016SOL    HW231836   5.219   2.386   2.515  1.4580 -1.7437 -1.2689
 8016SOL    HW331837   5.295   2.496   2.444  0.3667  0.2152  0.4976
 8016SOL    MW431838   5.277   2.451   2.516  0.4305 -0.1079 -0.7133
 8017SOL     OW31839   0.955   2.670   5.539 -0.2454  0.2362  0.0170
 8017SOL    HW231840   1.046   2.657   5.565 -0.4776  1.3351  1.4678
 8017SOL    HW331841   0.959   2.681   5.444  0.9230 -1.3618 -0.1713
 8017SOL    MW431842   0.967   2.670   5.530 -0.2923 -0.2490 -0.3264
 8018SOL     OW31843   5.831   5.789   1.058 -0.0922 -0.5209 -0.3096
 8018SOL    HW231844   5.823   5.700   1.092  0.3447  0.2694  2.0417
 8018SOL    HW331845   5.925   5.808   1.061  0.0340 -0.5904 -2.5871
 8018SOL    MW431846   5.842   5.780   1.063 -0.0817 -0.3857 -0.2399
 8019SOL     OW31847   3.631   2.892   3.763 -0.0834  0.5595 -0.3838
 8019SOL    HW231848   3.722   2.863   3.752  0.3557  1.7801 -0.2562
 8019SOL    HW331849   3.639   2.986   3.783 -1.4306  0.9882 -1.6631
 8019SOL    MW431850   3.644   2.901   3.764 -0.4516 -0.4031 -0.4215
 8020SOL     OW31851   6.098   0.972   0.182 -0.1737 -0.4519 -0.1252
 8020SOL    HW231852   6.089   1.004   0.092 -1.1642 -2.1912 -0.6903
 8020SOL    HW331853   6.010   0.982   0.219 -0.1306 -1.1037  0.1590
 8020SOL    MW431854   6.085   0.978   0.175  0.8447  0.4034  0.3370
 8021SOL     OW31855   1.852   3.260   0.543 -0.3450  0.7680 -0.2574
 8021SOL    HW231856   1.804   3.203   0.483  1.5521  0.8200 -1.9469
 8021SOL    HW331857   1.893   3.200   0.606 -0.1603  0.4600 -0.6692
 8021SOL    MW431858   1.851   3.245   0.543 -0.5518 -0.4633 -0.6218
 8022SOL     OW31859   5.306   3.864   5.155  0.1683 -0.7663  0.1670
 8022SOL    HW231860   5.217   3.852   5.122  0.2679  0.8640 -0.7739
 8022SOL    HW331861   5.307   3.817   5.239 -1.5210 -0.9260  0.1275
 8022SOL    MW431862   5.295   3.856   5.162  0.2712 -0.2898 -0.1745
 8023SOL     OW31863   2.478   5.871   0.789  0.1870 -0.2854  0.2887
 8023SOL    HW231864   2.515   5.957   0.807  0.3127 -0.5144  1.1972
 8023SOL    HW331865   2.536   5.810   0.834  0.3208 -0.8848 -0.6597
 8023SOL    MW431866   2.490   5.874   0.797  0.3620 -0.1304  0.4115
 8024SOL     OW31867   5.814   1.622   3.355 -0.0286 -0.5238  0.2081
 8024SOL    HW231868   5.828   1.704   3.403 -0.6929 -0.3761  0.1495
 8024SOL    HW331869   5.778   1.648   3.271 -0.5288 -0.8893  0.3008
 8024SOL    MW431870   5.811   1.636   3.351 -0.2648  0.2034  0.0914
 8025SOL     OW31871   5.892   5.233   3.310 -0.0074 -0.6417 -0.2432
 8025SOL    HW231872   5.946   5.218   3.232 -2.2945 -1.4097 -1.8052
 8025SOL    HW331873   5.824   5.293   3.281 -0.7701 -0.7266  1.2661
 8025SOL    MW431874   5.890   5.239   3.296 -0.3423  0.5128  0.3523
 8026SOL     OW31875   3.403   4.776   3.322  0.0199  0.4499  0.0922
 8026SOL    HW231876   3.365   4.688   3.325 -0.1009  0.5088  0.3184
 8026SOL    HW331877   3.497   4.762   3.319  0.0441  0.3224  1.0760
 8026SOL    MW431878   3.410   4.763   3.322 -0.2055  0.5699  0.0248
 8027SOL     OW31879   5.600   3.574   5.710  0.4274  0.1445  0.6129
 8027SOL    HW231880   5.563   3.655   5.746  0.6505  0.5882 -0.1434
 8027SOL    HW331881   5.526   3.531   5.668  0.5799  0.6310 -0.1784
 8027SOL    MW431882   5.585   3.579   5.710 -0.1482 -0.4531  0.1039
 8028SOL     OW31883   4.008   5.533   3.551  0.2228 -0.6422 -0.0492
 8028SOL    HW231884   4.000   5.604   3.487  1.4050 -0.4294  0.0241
 8028SOL    HW331885   4.015   5.579   3.635 -0.1729 -0.8928  0.1250
 8028SOL    MW431886   4.008   5.549   3.554 -1.3317 -0.2994 -0.2750
 8029SOL     OW31887   5.366   1.494   4.689  0.0399 -0.3129 -0.3544
 8029SOL    HW231888   5.321   1.531   4.765 -0.9095 -0.8079 -0.6636
 8029SOL    HW331889   5.381   1.569   4.631 -0.6709 -0.1877 -0.3837
 8029SOL    MW431890   5.362   1.509   4.691  1.2408 -0.1915 -0.5238
 8030SOL     OW31891   3.010   3.553   2.669 -0.0163  0.0063  0.1204
 8030SOL    HW231892   3.021   3.567   2.575  0.9547  1.7222  0.4359
 8030SOL    HW331893   2.943   3.486   2.676  1.7038 -2.0951 -1.8270
 8030SOL    MW431894   3.003   3.546   2.657  0.3596 -0.3864 -0.2586
 8031SOL     OW31895   1.655   5.531   0.644  0.3975  0.3069  0.1662
 8031SOL    HW231896   1.579   5.581   0.613 -0.0736 -0.3048  0.2978
 8031SOL    HW331897   1.721   5.598   0.665  0.3570  0.7781 -1.1358
 8031SOL    MW431898   1.653   5.547   0.643  0.4630  0.2244  0.2086
 8032SOL     OW31899   0.825   1.295   6.413 -0.7038 -0.0920 -0.1795
 8032SOL    HW231900   0.732   1.299   6.394 -0.7075 -0.3502 -0.2215
 8032SOL    HW331901   0.852   1.386   6.423 -0.5720  0.0953 -2.0031
 8032SOL    MW431902   0.817   1.307   6.412 -0.5668  0.1133 -0.1772
 8033SOL     OW31903   1.731   2.598   4.011  0.2033 -0.1436  0.2164
 8033SOL    HW231904   1.733   2.545   3.931  0.1988  1.9807 -1.2842
 8033SOL    HW331905   1.821   2.596   4.043  0.3308 -0.5451 -0.1492
 8033SOL    MW431906   1.743   2.590   4.005 -0.0739 -0.5413  0.6091
 8034SOL     OW31907   5.291   3.250   5.922 -0.6483  0.0606  0.0408
 8034SOL    HW231908   5.265   3.307   5.994 -2.0021 -1.0989  0.5020
 8034SOL    HW331909   5.242   3.283   5.846 -1.6811 -0.6445  0.3787
 8034SOL    MW431910   5.281   3.262   5.921 -0.3232 -0.4623 -0.2052
 8035SOL     OW31911   2.159   2.115   1.260 -0.1297  0.0043 -0.4153
 8035SOL    HW231912   2.104   2.049   1.303  0.8825 -1.1173 -0.7840
 8035SOL    HW331913   2.232   2.128   1.321 -0.5034  1.0725 -0.1795
 8035SOL    MW431914   2.162   2.108   1.274  0.0477 -0.2423  0.0289
 8036SOL     OW31915   1.062   1.417   2.392  0.1490  0.2981  0.2436
 8036SOL    HW231916   1.075   1.391   2.484  0.9059  0.8001  0.2788
 8036SOL    HW331917   0.968   1.404   2.378  0.0115  0.2527  1.1074
 8036SOL    MW431918   1.051   1.412   2.402  0.6009  0.4836 -0.5221
 8037SOL     OW31919   5.240   5.073   1.520 -0.8686  0.2676  0.6279
 8037SOL    HW231920   5.247   5.101   1.429  0.6731  0.0777  0.6740
 8037SOL    HW331921   5.248   5.154   1.570  2.4383  0.0118  0.7130
 8037SOL    MW431922   5.242   5.088   1.515 -0.6026 -0.0933  1.0377
 8038SOL     OW31923   2.414   5.166   0.755  0.1554 -0.1950  0.9777
 8038SOL    HW231924   2.494   5.114   0.769 -0.7628 -1.3593  2.1803
 8038SOL    HW331925   2.397   5.207   0.839 -0.8315 -0.4376  0.9085
 8038SOL    MW431926   2.422   5.164   0.768  0.1716  0.2950  0.0945
 8039SOL     OW31927   5.745   5.473   0.711 -0.2008 -0.0272 -0.2260
 8039SOL    HW231928   5.687   5.438   0.779 -0.5812  0.4628 -0.2945
 8039SOL    HW331929   5.735   5.568   0.718 -1.1701  0.0203 -1.7400
 8039SOL    MW431930   5.736   5.481   0.721 -0.2803  0.1477  0.0052
 8040SOL     OW31931   2.778   0.557   4.387 -0.1325 -0.2553  0.3537
 8040SOL    HW231932   2.745   0.494   4.451 -0.9375 -1.0003 -0.7658
 8040SOL    HW331933   2.860   0.519   4.357 -0.5560 -0.7172 -0.2297
 8040SOL    MW431934   2.785   0.544   4.392  0.2051 -0.0391 -0.4960
 8041SOL     OW31935   2.092   0.823   6.189  0.2556 -0.6332 -0.1414
 8041SOL    HW231936   2.008   0.786   6.163  0.3022 -0.5295 -0.4478
 8041SOL    HW331937   2.142   0.829   6.107  0.3383 -0.1283 -0.0556
 8041SOL    MW431938   2.088   0.819   6.175 -0.1453 -0.1738 -0.0819
 8042SOL     OW31939   4.038   0.038   2.932 -0.0787  0.1258  0.7453
 8042SOL    HW231940   4.066   0.040   3.024  0.5505 -0.5178  0.5712
 8042SOL    HW331941   4.091  -0.031   2.892 -0.4051  0.3482 -0.0865
 8042SOL    MW431942   4.049   0.029   2.939  0.2685 -0.6384 -0.3467
 8043SOL     OW31943   1.073   2.665   3.475 -0.8465  0.0768 -0.0365
 8043SOL    HW231944   1.105   2.678   3.564  0.3464 -4.2597  0.3897
 8043SOL    HW331945   1.141   2.703   3.419 -1.4353  2.5194  0.7880
 8043SOL    MW431946   1.086   2.672   3.479 -0.4927  0.1580  0.4555
 8044SOL     OW31947   3.971   4.110   0.423 -0.4096  0.0906 -0.2098
 8044SOL    HW231948   3.927   4.162   0.489 -1.7064  0.2065 -1.1367
 8044SOL    HW331949   4.063   4.135   0.431 -0.5252  0.0652  1.5536
 8044SOL    MW431950   3.978   4.120   0.433  0.3272 -0.0037 -0.2609
 8045SOL     OW31951   5.635   0.897   1.565  0.0356  0.1078 -0.1783
 8045SOL    HW231952   5.620   0.910   1.471 -1.7313 -0.0410  0.0518
 8045SOL    HW331953   5.578   0.825   1.589 -0.3805  0.8596  1.2269
 8045SOL    MW431954   5.626   0.889   1.556  0.0199 -0.6159 -0.2637
 8046SOL     OW31955   6.203   2.604   3.759 -0.1007  0.5702 -0.0946
 8046SOL    HW231956   6.229   2.527   3.810  0.0494  0.9514  0.4145
 8046SOL    HW331957   6.235   2.587   3.671 -0.5778 -0.2107 -0.1264
 8046SOL    MW431958   6.210   2.592   3.754 -0.4591  0.1794 -0.4151
 8047SOL     OW31959   3.933   2.521   4.474  0.2427 -0.7546  0.2207
 8047SOL    HW231960   3.955   2.508   4.382  0.1030  0.1192  0.0485
 8047SOL    HW331961   3.954   2.438   4.516  3.3284 -0.2168 -0.0147
 8047SOL    MW431962   3.939   2.509   4.467 -0.0600  0.3636 -0.3677
 8048SOL     OW31963   2.703   5.566   2.796 -0.3800 -0.2398 -0.4569
 8048SOL    HW231964   2.696   5.660   2.780 -1.2904  0.0700  1.5648
 8048SOL    HW331965   2.786   5.542   2.755  0.3000  1.6176 -0.2805
 8048SOL    MW431966   2.713   5.575   2.788  0.0735  0.8083 -0.3640
 8049SOL     OW31967   2.048   4.691   0.871 -0.2581  0.1429  0.2159
 8049SOL    HW231968   2.130   4.703   0.824 -0.2024 -0.4503  0.1507
 8049SOL    HW331969   1.988   4.655   0.806 -0.1531 -0.7697  0.5966
 8049SOL    MW431970   2.051   4.688   0.857 -0.0526 -0.3372 -0.2703
 8050SOL     OW31971   1.683   0.790   5.593  0.2488 -0.4853 -0.1994
 8050SOL    HW231972   1.698   0.697   5.581  0.4472 -0.5494  0.4805
 8050SOL    HW331973   1.658   0.799   5.686  0.3382  0.1448 -0.2270
 8050SOL    MW431974   1.682   0.779   5.604 -0.1465 -0.1453 -0.5494
 8051SOL     OW31975   3.391   6.164   2.133 -0.0671 -0.0497 -0.1141
 8051SOL    HW231976   3.371   6.085   2.082  1.7993 -0.6444  0.0187
 8051SOL    HW331977   3.327   6.163   2.204 -0.1086 -1.4041 -0.1479
 8051SOL    MW431978   3.380   6.154   2.135  0.1348  0.0355  0.4270
 8052SOL     OW31979   3.613   2.741   0.789 -0.1541 -0.1315  0.3336
 8052SOL    HW231980   3.532   2.698   0.816  0.0166 -0.6945 -0.0216
 8052SOL    HW331981   3.680   2.673   0.797  0.4823  0.6156  1.6119
 8052SOL    MW431982   3.611   2.727   0.793 -0.1650 -0.7129  0.1502
 8053SOL     OW31983   4.930   0.772   2.979 -0.6633  0.3943 -0.0873
 8053SOL    HW231984   4.931   0.798   2.887 -0.0950  0.2071 -0.1367
 8053SOL    HW331985   4.994   0.829   3.021 -0.8233  0.3871  0.1640
 8053SOL    MW431986   4.938   0.783   2.972 -0.2749  0.1421  0.0817
 8054SOL     OW31987   3.321   5.371   2.623 -0.4061  0.4362  0.5726
 8054SOL    HW231988   3.258   5.415   2.566 -0.0477  0.8074  0.4491
 8054SOL    HW331989   3.298   5.279   2.619  0.3491  0.2743 -1.1719
 8054SOL    MW431990   3.310   5.365   2.615  0.3397 -0.1633  0.5450
 8055SOL     OW31991   1.212   1.011   3.335  0.4191  0.2758 -0.0285
 8055SOL    HW231992   1.207   1.018   3.430 -0.9724 -0.2407 -0.0335
 8055SOL    HW331993   1.302   1.035   3.313  0.4600  1.5019  1.3205
 8055SOL    MW431994   1.223   1.015   3.344 -0.1166  0.5550 -0.2469
 8056SOL     OW31995   0.817   5.860   3.397  0.1014 -0.3417  0.2310
 8056SOL    HW231996   0.866   5.876   3.478  0.6229 -0.7863  0.0085
 8056SOL    HW331997   0.795   5.767   3.401  0.6667 -0.5115 -0.4288
 8056SOL    MW431998   0.820   5.850   3.408  1.0243 -0.0035  0.2736
 8057SOL     OW31999   3.205   3.251   0.697 -0.4762 -0.2972 -0.0236
 8057SOL    HW232000   3.164   3.186   0.753 -0.2819  0.1193  0.6125
 8057SOL    HW332001   3.160   3.333   0.718 -1.1866 -0.3294 -1.2976
 8057SOL    MW432002   3.194   3.253   0.707  0.1144 -0.1310  0.0260
 8058SOL     OW32003   2.220   1.867   5.038 -0.3270 -0.2443 -0.4591
 8058SOL    HW232004   2.150   1.825   4.988 -0.7960  0.0048 -0.0150
 8058SOL    HW332005   2.290   1.880   4.974 -1.2828  0.9730 -1.3131
 8058SOL    MW432006   2.220   1.863   5.023  0.2763  1.2405  0.2624
 8059SOL     OW32007   1.733   1.004   2.340  0.2255  0.7946 -0.1003
 8059SOL    HW232008   1.667   1.045   2.284 -1.3793 -0.2619  0.9338
 8059SOL    HW332009   1.792   1.076   2.364 -0.1448  1.6388 -1.5816
 8059SOL    MW432010   1.732   1.019   2.336 -0.0461  0.0579 -0.0756
 8060SOL     OW32011   4.317   3.868   4.677 -0.0271  0.4943 -0.6466
 8060SOL    HW232012   4.316   3.962   4.694 -1.2249  0.3574  0.1716
 8060SOL    HW332013   4.303   3.860   4.583 -0.8416  1.1189 -0.5860
 8060SOL    MW432014   4.315   3.879   4.667 -0.1046 -0.2803  0.1990
 8061SOL     OW32015   4.997   1.186   5.367 -0.1401 -0.4212 -0.0529
 8061SOL    HW232016   4.947   1.114   5.407 -0.1824 -0.8527 -0.8635
 8061SOL    HW332017   5.005   1.161   5.275 -0.1299  0.6072 -0.3366
 8061SOL    MW432018   4.991   1.173   5.360  0.5276 -0.0555 -0.6150
 8062SOL     OW32019   3.573   0.843   2.636 -0.0841  0.2977 -0.1730
 8062SOL    HW232020   3.642   0.785   2.606  0.7707 -0.0836  2.2940
 8062SOL    HW332021   3.506   0.839   2.568  1.1015 -1.5077 -1.2994
 8062SOL    MW432022   3.573   0.835   2.623 -0.0822  0.0977  0.4986
 8063SOL     OW32023   3.006   4.549   5.954  0.6639 -0.3326  0.1729
 8063SOL    HW232024   2.936   4.576   6.012  0.7764 -1.9946  1.1583
 8063SOL    HW332025   3.013   4.619   5.889 -0.8238  0.6013  0.9796
 8063SOL    MW432026   2.998   4.562   5.953  0.2341  0.7005  0.1583
 8064SOL     OW32027   3.696   1.512   1.343  0.5197  0.0826  0.0568
 8064SOL    HW232028   3.757   1.533   1.413  1.3055  0.0624 -0.5989
 8064SOL    HW332029   3.746   1.526   1.263 -0.5254  0.6606 -0.5245
 8064SOL    MW432030   3.711   1.517   1.341 -0.0171 -0.2297  0.0034
 8065SOL     OW32031   4.812   4.934   1.119  0.0898  0.1938  0.1395
 8065SOL    HW232032   4.823   4.999   1.050 -0.2993 -0.4804 -0.5637
 8065SOL    HW332033   4.720   4.909   1.115  0.1042  0.0084  0.7850
 8065SOL    MW432034   4.801   4.940   1.110 -0.3813 -0.3645 -0.0495
 8066SOL     OW32035   5.946   2.322   2.779 -0.0575 -0.3598 -0.1461
 8066SOL    HW232036   5.853   2.342   2.773  0.4043  2.5206  0.8301
 8066SOL    HW332037   5.965   2.275   2.698 -2.3466 -1.0904 -0.3333
 8066SOL    MW432038   5.936   2.319   2.767 -0.4779  0.2260  0.1490
 8067SOL     OW32039   5.170   5.676   3.503 -0.6911 -0.6415  0.0493
 8067SOL    HW232040   5.146   5.641   3.417 -1.4527 -1.7123  0.6721
 8067SOL    HW332041   5.245   5.733   3.485 -1.1244 -0.4832 -1.3815
 8067SOL    MW432042   5.177   5.679   3.489  0.1840  0.0197 -0.3583
 8068SOL     OW32043   2.641   6.293   3.304 -0.3133 -0.4501  0.5525
 8068SOL    HW232044   2.627   6.384   3.331 -0.8146 -0.3801  0.0694
 8068SOL    HW332045   2.736   6.285   3.294 -0.3356  0.2989 -0.3475
 8068SOL    MW432046   2.652   6.304   3.307 -0.9107  0.6211 -0.3243
 8069SOL     OW32047   2.115   5.388   4.135  0.0454 -0.4730  0.6233
 8069SOL    HW232048   2.126   5.302   4.175  1.0840 -0.4655  0.4050
 8069SOL    HW332049   2.134   5.374   4.042 -0.8290 -0.2027  0.3929
 8069SOL    MW432050   2.119   5.375   4.128  0.3685  0.2096 -0.2460
 8070SOL     OW32051   1.910   1.583   0.448  0.4505 -0.1519 -0.0662
 8070SOL    HW232052   1.848   1.578   0.375 -0.0065  3.2093 -0.0814
 8070SOL    HW332053   1.856   1.601   0.525  1.1777  0.1521  0.3890
 8070SOL    MW432054   1.895   1.585   0.449  0.2734  0.3761 -0.4484
 8071SOL     OW32055   2.480   2.155   4.961 -0.2780  0.5417 -0.3232
 8071SOL    HW232056   2.421   2.208   5.014  0.4362  0.6498  0.3836
 8071SOL    HW332057   2.515   2.090   5.022 -0.6152 -0.3061 -1.0193
 8071SOL    MW432058   2.477   2.153   4.976 -0.1199  0.1968  0.4002
 8072SOL     OW32059   4.240   2.839   6.371 -0.3188 -0.4634 -0.2609
 8072SOL    HW232060   4.166   2.842   6.433 -1.4489  0.6870 -1.6051
 8072SOL    HW332061   4.232   2.920   6.321  2.8815  0.5354  0.6369
 8072SOL    MW432062   4.229   2.850   6.373  0.0771  0.0188  0.3248
 8073SOL     OW32063   5.175   5.285   1.905  0.3043 -0.3631 -0.1774
 8073SOL    HW232064   5.088   5.249   1.888 -0.3257  1.0715 -0.1528
 8073SOL    HW332065   5.229   5.209   1.927 -0.3048 -1.5981 -2.6325
 8073SOL    MW432066   5.171   5.270   1.905 -0.5189 -0.8257  0.2727
 8074SOL     OW32067   3.281   4.596   3.893  0.1724  0.4970 -0.2864
 8074SOL    HW232068   3.297   4.558   3.807  0.3210  1.3336 -0.6346
 8074SOL    HW332069   3.332   4.677   3.894  0.8548  0.0792  0.9084
 8074SOL    MW432070   3.290   4.601   3.882  0.7114 -0.4876  0.0725
 8075SOL     OW32071   2.329   4.956   0.157 -0.0624 -0.5895 -0.6647
 8075SOL    HW232072   2.321   4.992   0.246  0.6447  0.4753 -1.0163
 8075SOL    HW332073   2.252   4.989   0.111  0.1812 -0.1824 -0.7748
 8075SOL    MW432074   2.317   4.965   0.163 -0.4400  0.2079  0.7104
 8076SOL     OW32075   4.408   2.985   4.713  0.1089  0.0628  0.1671
 8076SOL    HW232076   4.327   3.018   4.752 -0.9472 -1.2323 -0.8293
 8076SOL    HW332077   4.396   2.998   4.619  1.1547  0.0477  0.0209
 8076SOL    MW432078   4.396   2.991   4.706  0.0762 -0.4963 -0.6473
 8077SOL     OW32079   0.486   1.462   4.314 -0.1392  0.2917 -0.9248
 8077SOL    HW232080   0.541   1.436   4.240  0.7307 -2.5130  0.5987
 8077SOL    HW332081   0.396   1.446   4.284  0.2635 -2.5150 -0.8843
 8077SOL    MW432082   0.481   1.457   4.300  0.6710 -0.5334  0.0020
 8078SOL     OW32083   1.603   0.578   6.041 -0.0938  0.1862  0.3711
 8078SOL    HW232084   1.598   0.651   5.979 -2.0367 -0.4571 -0.2983
 8078SOL    HW332085   1.633   0.618   6.123 -2.3128  2.0402  0.3843
 8078SOL    MW432086   1.606   0.593   6.044 -0.4422  0.1503  0.4151
 8079SOL     OW32087   3.782   3.982   1.590 -0.4749  0.1499  0.6123
 8079SOL    HW232088   3.836   3.973   1.511 -0.6607  0.3860  0.4577
 8079SOL    HW332089   3.844   3.977   1.662 -0.2549  0.3462  0.4369
 8079SOL    MW432090   3.797   3.980   1.589  0.2833 -0.1130  0.0439
 8080SOL     OW32091   3.991   5.057   6.033  0.6563  0.6157  0.4566
 8080SOL    HW232092   3.938   5.086   5.959  0.3927  0.7560  0.7037
 8080SOL    HW332093   3.936   5.069   6.110  1.5192  2.0836  0.8918
 8080SOL    MW432094   3.977   5.062   6.033 -0.0337 -0.2403  0.6264
 8081SOL     OW32095   4.796   1.890   5.760 -0.3918  0.3563 -0.4769
 8081SOL    HW232096   4.772   1.834   5.833 -1.6949  0.0693 -1.0998
 8081SOL    HW332097   4.837   1.966   5.800 -0.2852 -0.1996  0.4898
 8081SOL    MW432098   4.798   1.892   5.775  0.3399  0.7311 -0.2428
 8082SOL     OW32099   1.785   3.968   1.384 -0.8013  0.5061  0.4238
 8082SOL    HW232100   1.815   4.027   1.315  0.3420 -1.0363 -0.4605
 8082SOL    HW332101   1.817   3.881   1.358 -4.1768 -0.9504  0.5676
 8082SOL    MW432102   1.793   3.964   1.371  0.3135 -0.4251  0.4351
 8083SOL     OW32103   0.113   4.038   1.835 -0.1158 -0.8270 -0.0955
 8083SOL    HW232104   0.047   3.974   1.860 -2.2103  0.3222 -2.2721
 8083SOL    HW332105   0.079   4.122   1.865  0.6317 -0.2720 -0.7431
 8083SOL    MW432106   0.100   4.041   1.842  0.5069 -0.1523  0.0013
 8084SOL     OW32107   3.328   0.459   1.860  0.3754 -0.4423  0.2010
 8084SOL    HW232108   3.335   0.416   1.945  0.6682 -1.5989 -0.3956
 8084SOL    HW332109   3.270   0.534   1.876 -0.6829 -1.4233  1.1215
 8084SOL    MW432110   3.321   0.463   1.873  0.8329  0.3979  0.0228
 8085SOL     OW32111   4.681   0.916   3.041  0.1673 -0.0217  0.0589
 8085SOL    HW232112   4.761   0.867   3.019  0.4900  0.2513  0.5898
 8085SOL    HW332113   4.713   1.003   3.067 -0.3490  0.2608 -0.2388
 8085SOL    MW432114   4.696   0.921   3.041  0.2619 -0.2665 -0.0041
 8086SOL     OW32115   5.612   5.175   5.186  0.3493 -0.4689  0.4455
 8086SOL    HW232116   5.702   5.148   5.206  0.0538  0.1574  3.0039
 8086SOL    HW332117   5.564   5.092   5.177  0.7076 -0.8487  1.7358
 8086SOL    MW432118   5.617   5.160   5.188  0.2084 -0.2795 -0.0311
 8087SOL     OW32119   4.326   6.072   3.627  0.5725 -0.7498 -0.4220
 8087SOL    HW232120   4.361   5.991   3.591 -0.3182 -0.7911 -1.2130
 8087SOL    HW332121   4.243   6.047   3.668  0.9607 -0.4755  0.5637
 8087SOL    MW432122   4.320   6.058   3.628  0.2298  0.3012 -0.0629
 8088SOL     OW32123   4.844   5.837   0.330 -0.1368  0.5834 -0.0190
 8088SOL    HW232124   4.843   5.746   0.361 -0.1839  0.0408 -1.4874
 8088SOL    HW332125   4.753   5.857   0.311  0.1249 -0.0851 -2.3284
 8088SOL    MW432126   4.832   5.828   0.331 -0.4084  0.0807  0.1092
 8089SOL     OW32127   1.811   3.576   5.421 -0.0457  1.0333 -0.1841
 8089SOL    HW232128   1.769   3.538   5.498 -1.5661  3.0767  0.0988
 8089SOL    HW332129   1.754   3.553   5.349  1.2555 -0.6802 -0.7299
 8089SOL    MW432130   1.798   3.568   5.422  0.5363  0.1550 -0.5232
 8090SOL     OW32131   4.259   5.445   5.935 -0.4840  0.3757  0.5709
 8090SOL    HW232132   4.311   5.522   5.959  1.1455  0.2273 -2.0511
 8090SOL    HW332133   4.276   5.434   5.841 -1.4902 -2.5874  0.6507
 8090SOL    MW432134   4.268   5.454   5.926 -0.6213  0.5005  0.7037
 8091SOL     OW32135   5.689   5.996   0.105 -0.4896  0.1753 -0.2196
 8091SOL    HW232136   5.596   6.008   0.087 -0.7602  0.0122  1.0079
 8091SOL    HW332137   5.704   6.041   0.188  0.3069 -0.6564  0.1100
 8091SOL    MW432138   5.679   6.004   0.114  0.1452 -0.0513 -0.3283
 8092SOL     OW32139   4.258   1.825   4.999  0.4042 -0.0637 -0.3232
 8092SOL    HW232140   4.163   1.819   4.995  0.1933  1.5748  0.9919
 8092SOL    HW332141   4.285   1.748   5.049 -0.1256 -1.0102 -1.4580
 8092SOL    MW432142   4.249   1.814   5.005  0.6431  0.6094 -0.2623
 8093SOL     OW32143   4.444   6.097   3.294  0.6886  0.2785 -0.2893
 8093SOL    HW232144   4.361   6.059   3.322  0.4412  0.5983 -0.5958
 8093SOL    HW332145   4.421   6.179   3.251  1.0046 -0.4950 -2.0195
 8093SOL    MW432146   4.430   6.103   3.292  0.2250 -0.0840  0.1291
 8094SOL     OW32147   1.065   3.270   2.744 -0.4128 -0.1271 -0.2453
 8094SOL    HW232148   1.111   3.318   2.812  0.4794 -0.8205 -0.3297
 8094SOL    HW332149   0.989   3.233   2.787  0.4657 -1.0717  0.5684
 8094SOL    MW432150   1.061   3.271   2.758 -0.4495  0.6587 -0.1734
 8095SOL     OW32151   1.000   3.751   2.009  0.2977  0.0303  0.1152
 8095SOL    HW232152   0.918   3.794   1.987  0.2833 -0.1638 -0.2109
 8095SOL    HW332153   1.022   3.700   1.931  0.3617 -0.4770  0.4603
 8095SOL    MW432154   0.992   3.750   1.996  0.0670 -0.2842  0.6753
 8096SOL     OW32155   4.258   4.926   3.161  0.2705 -0.4898 -0.2965
 8096SOL    HW232156   4.196   4.860   3.192 -0.1418 -0.3685 -0.8415
 8096SOL    HW332157   4.203   4.998   3.132  0.7244  0.1661  0.4407
 8096SOL    MW432158   4.243   4.927   3.161  0.1547 -0.2941 -0.9438
 8097SOL     OW32159   2.760   0.991   3.512 -0.6160 -0.6116 -0.1591
 8097SOL    HW232160   2.768   0.906   3.469 -0.1457 -1.0996  0.8583
 8097SOL    HW332161   2.842   1.002   3.561 -0.7268  0.3660 -0.1629
 8097SOL    MW432162   2.772   0.981   3.513 -0.1705 -0.0022 -0.1619
 8098SOL     OW32163   1.431   4.441   2.662 -0.4134  0.4650  0.3792
 8098SOL    HW232164   1.414   4.354   2.625  1.1411  0.5354 -0.6027
 8098SOL    HW332165   1.416   4.501   2.588 -1.6961  1.0895  1.1056
 8098SOL    MW432166   1.427   4.438   2.647  0.1630  0.5518 -0.0151
 8099SOL     OW32167   1.915   3.679   1.946  0.3525 -0.1513  0.0873
 8099SOL    HW232168   1.977   3.607   1.955  0.2056 -0.2151  0.5857
 8099SOL    HW332169   1.829   3.640   1.963  0.2633  0.1213  0.2721
 8099SOL    MW432170   1.912   3.664   1.949 -0.0188 -0.1684  0.1396
 8100SOL     OW32171   4.824   3.794   2.364 -0.0519  0.2221 -0.4734
 8100SOL    HW232172   4.796   3.883   2.385 -1.9421 -0.7527  1.5547
 8100SOL    HW332173   4.786   3.739   2.433  1.1723 -2.1662 -1.5426
 8100SOL    MW432174   4.815   3.798   2.376 -0.7264 -0.1047  0.0825
 8101SOL     OW32175   5.588   1.146   6.191 -0.3992  0.2611 -0.1931
 8101SOL    HW232176   5.523   1.178   6.129 -1.1542 -0.8015  0.0292
 8101SOL    HW332177   5.574   1.052   6.195  1.3864 -0.0567 -0.3925
 8101SOL    MW432178   5.578   1.138   6.183 -0.4701  0.0729  0.1234
 8102SOL     OW32179   5.648   3.003   5.725 -0.0996  0.8414 -0.2994
 8102SOL    HW232180   5.678   2.973   5.639  0.6365  2.5941 -0.6993
 8102SOL    HW332181   5.568   3.053   5.705 -1.0879 -0.4650  0.2962
 8102SOL    MW432182   5.641   3.006   5.711 -0.1459 -0.4071  0.0317
 8103SOL     OW32183   5.245   2.134   6.174 -0.2900 -0.2975 -0.2587
 8103SOL    HW232184   5.240   2.121   6.269 -0.1229  0.9709 -0.0467
 8103SOL    HW332185   5.276   2.051   6.140 -1.2256 -1.0673  0.6998
 8103SOL    MW432186   5.249   2.122   6.182 -0.0385  0.1112  0.2549
 8104SOL     OW32187   3.408   6.388   1.966 -0.5441  0.5213  0.0102
 8104SOL    HW232188   3.498   6.418   1.974 -0.4498  0.8046 -1.7678
 8104SOL    HW332189   3.406   6.305   2.014  0.6732  0.4809  0.0178
 8104SOL    MW432190   3.419   6.381   1.973  0.0958  0.4582 -0.0393
 8105SOL     OW32191   4.236   0.765   0.067 -0.3421 -0.0851 -0.1755
 8105SOL    HW232192   4.330   0.781   0.078 -0.6095  1.7308 -0.2595
 8105SOL    HW332193   4.210   0.721   0.148  0.5498 -0.5405 -0.1168
 8105SOL    MW432194   4.245   0.761   0.079 -0.4610  0.1690  0.0757
 8106SOL     OW32195   1.049   4.526   5.832 -0.2371 -0.4606  0.3165
 8106SOL    HW232196   0.970   4.472   5.822 -0.0992 -0.3333 -2.1389
 8106SOL    HW332197   1.098   4.510   5.752  0.8639  1.6563  0.5156
 8106SOL    MW432198   1.045   4.517   5.820 -0.4134  0.0116  0.2149
 8107SOL     OW32199   3.273   4.912   5.256  0.1026 -0.9769  0.6133
 8107SOL    HW232200   3.333   4.969   5.305  1.1495 -0.5668 -1.0661
 8107SOL    HW332201   3.221   4.972   5.203  0.8090 -1.5033 -0.7227
 8107SOL    MW432202   3.274   4.927   5.256 -0.1242 -0.1170 -0.1117
 8108SOL     OW32203   5.684   0.086   5.084  0.1601  0.3506  0.3725
 8108SOL    HW232204   5.757   0.075   5.022  0.7389  0.7708  0.9670
 8108SOL    HW332205   5.612   0.119   5.030  0.7034  0.8604 -0.0533
 8108SOL    MW432206   5.684   0.089   5.068 -0.3232  0.0739 -0.0017
 8109SOL     OW32207   4.934   2.211   3.153 -0.2105  0.3301  0.3169
 8109SOL    HW232208   4.993   2.275   3.115 -0.9785  0.4242 -0.7448
 8109SOL    HW332209   4.899   2.162   3.079 -0.2490 -0.7985  1.0479
 8109SOL    MW432210   4.937   2.213   3.138 -0.1447  0.0829  0.6026
 8110SOL     OW32211   0.992   1.304   5.005  0.0502 -0.0639 -0.7322
 8110SOL    HW232212   1.072   1.355   5.004 -0.0621  0.1166 -0.6208
 8110SOL    HW332213   1.019   1.216   4.978  0.5341 -0.3623  0.6524
 8110SOL    MW432214   1.006   1.299   5.001  0.3574 -0.1821  0.1007
 8111SOL     OW32215   1.240   3.411   5.692 -0.8092 -0.0286  0.2584
 8111SOL    HW232216   1.153   3.405   5.731 -0.8933  1.3390  0.3336
 8111SOL    HW332217   1.249   3.503   5.667 -1.1600 -0.9471 -3.9370
 8111SOL    MW432218   1.230   3.422   5.694  0.3594 -0.8890 -0.4485
 8112SOL     OW32219   5.225   2.951   5.699 -0.1435  0.1303 -0.0898
 8112SOL    HW232220   5.219   2.964   5.793 -0.9249  2.3547 -0.3890
 8112SOL    HW332221   5.290   3.015   5.669 -0.2143 -0.2478 -1.1254
 8112SOL    MW432222   5.233   2.961   5.707 -0.3112  0.2205 -0.1569
 8113SOL     OW32223   4.677   6.130   3.999 -0.3125  0.4355  0.2716
 8113SOL    HW232224   4.659   6.049   3.950  0.2164  0.1796  0.5012
 8113SOL    HW332225   4.764   6.117   4.036 -1.3029 -0.0435  2.6104
 8113SOL    MW432226   4.686   6.117   3.997  0.2731  0.3281  0.4196
 8114SOL     OW32227   4.934   3.705   5.942  0.2869  0.0946  0.4706
 8114SOL    HW232228   4.943   3.610   5.949  3.6803  0.2595  0.0131
 8114SOL    HW332229   4.921   3.735   6.032  1.5273 -0.6886  0.9414
 8114SOL    MW432230   4.934   3.697   5.955  0.0756 -0.2269  0.1634
 8115SOL     OW32231   5.348   3.554   2.832 -0.3899 -0.2807  0.2562
 8115SOL    HW232232   5.376   3.613   2.902  0.4313  0.3578 -0.5897
 8115SOL    HW332233   5.428   3.533   2.785 -0.7251 -1.7948  0.3039
 8115SOL    MW432234   5.362   3.559   2.835 -0.0847 -0.3943 -0.4834
 8116SOL     OW32235   6.340   2.689   1.144  0.7834  0.3737 -0.3625
 8116SOL    HW232236   6.396   2.680   1.221  0.6768 -2.3362 -0.5143
 8116SOL    HW332237   6.392   2.652   1.072 -0.1566  0.3625 -1.0482
 8116SOL    MW432238   6.354   2.683   1.144 -0.0403 -0.0501  0.2772
 8117SOL     OW32239   1.184   0.272   3.411  0.4706 -0.8426  0.2499
 8117SOL    HW232240   1.165   0.366   3.415 -1.9114 -1.3117  2.8013
 8117SOL    HW332241   1.116   0.236   3.353 -0.2417 -1.2584  1.3082
 8117SOL    MW432242   1.172   0.280   3.403 -0.6760 -0.2232 -0.0919
 8118SOL     OW32243   0.904   5.269   5.841 -0.4188  0.1037  0.0258
 8118SOL    HW232244   0.875   5.333   5.906 -1.5904 -0.6235  0.2504
 8118SOL    HW332245   0.977   5.312   5.796 -0.7795  1.3512  0.5767
 8118SOL    MW432246   0.910   5.283   5.843  0.6843 -0.5001  0.8853
 8119SOL     OW32247   5.945   0.322   2.091 -0.3926 -0.4744 -0.3773
 8119SOL    HW232248   5.924   0.403   2.045 -0.4840 -0.4518 -0.2956
 8119SOL    HW332249   5.915   0.252   2.032 -1.9011 -0.4414  0.2837
 8119SOL    MW432250   5.938   0.323   2.077 -0.0094 -0.1802  0.0786
 8120SOL     OW32251   3.746   2.405   2.926  0.1021 -0.4003 -0.0160
 8120SOL    HW232252   3.794   2.322   2.934  1.5692  0.4932  0.9978
 8120SOL    HW332253   3.654   2.381   2.936  0.3884 -2.0549 -0.9862
 8120SOL    MW432254   3.740   2.391   2.928  0.1229  0.2909 -0.7059
 8121SOL     OW32255   1.005   4.518   1.513 -0.5254 -0.3265  0.1146
 8121SOL    HW232256   0.957   4.578   1.571 -0.0738  1.7234 -1.5013
 8121SOL    HW332257   1.078   4.487   1.566  0.8996  2.8630  0.2504
 8121SOL    MW432258   1.008   4.522   1.528  0.1372 -0.4901 -0.0494
 8122SOL     OW32259   4.769   2.834   3.505  0.0338  0.3395 -0.1483
 8122SOL    HW232260   4.711   2.773   3.459  0.2372  0.4645 -0.5689
 8122SOL    HW332261   4.710   2.900   3.542 -0.1157  0.3065 -0.3271
 8122SOL    MW432262   4.753   2.834   3.504  0.0863  0.0900  0.0528
 8123SOL     OW32263   4.241   0.747   6.221  0.8752 -0.0158  0.8171
 8123SOL    HW232264   4.217   0.758   6.313 -1.2228  0.5154  0.2697
 8123SOL    HW332265   4.198   0.665   6.195 -1.2779  1.4201 -0.4456
 8123SOL    MW432266   4.232   0.737   6.230  0.7923  0.1487 -0.0203
 8124SOL     OW32267   5.510   1.343   3.521  0.1399  0.3336  0.4008
 8124SOL    HW232268   5.490   1.250   3.526  0.7679  0.1742  0.0206
 8124SOL    HW332269   5.604   1.347   3.504  0.2403  1.0488  1.0752
 8124SOL    MW432270   5.519   1.331   3.519 -0.4027 -0.6225 -0.7535
 8125SOL     OW32271   0.460   1.316   0.200  0.2011 -0.4936  0.3363
 8125SOL    HW232272   0.466   1.314   0.105 -1.2205 -1.2387  0.2377
 8125SOL    HW332273   0.374   1.353   0.219  1.6295  2.6291  1.4369
 8125SOL    MW432274   0.449   1.321   0.190  0.2981  0.2327  0.1185
 8126SOL     OW32275   4.953   4.347   2.986  1.0413 -0.5136  0.0342
 8126SOL    HW232276   5.034   4.334   3.036  1.7998  1.1466 -0.6720
 8126SOL    HW332277   4.889   4.376   3.052  1.9511  1.3722  0.1773
 8126SOL    MW432278   4.955   4.349   3.002  0.6288 -0.3570  0.4608
 8127SOL     OW32279   4.213   1.030   2.425  0.1619  0.0732 -0.1601
 8127SOL    HW232280   4.192   1.083   2.348  0.6461  1.3958  0.5777
 8127SOL    HW332281   4.249   0.949   2.389 -0.8747  0.1035 -1.3327
 8127SOL    MW432282   4.215   1.027   2.410  0.5093  0.0160 -0.4490
 8128SOL     OW32283   6.077   1.815   4.232  0.2969 -0.3432 -0.7686
 8128SOL    HW232284   6.140   1.887   4.237  1.3857 -1.3327  1.5350
 8128SOL    HW332285   6.008   1.839   4.294 -1.3491  0.4150 -2.7817
 8128SOL    MW432286   6.076   1.827   4.241 -0.1363 -0.3108  0.4321
 8129SOL     OW32287   1.319   0.029   4.624  0.1750 -0.7455 -0.1815
 8129SOL    HW232288   1.357   0.075   4.549  2.4653 -0.5595  1.0098
 8129SOL    HW332289   1.249   0.088   4.655  0.3140 -0.0409 -1.1425
 8129SOL    MW432290   1.314   0.043   4.618  0.1618  0.1017 -0.3797
 8130SOL     OW32291   3.968   4.416   2.446 -0.5897  0.0184  0.0575
 8130SOL    HW232292   4.056   4.380   2.435 -0.3726  0.3553  0.6596
 8130SOL    HW332293   3.981   4.510   2.460 -1.0727  0.1406 -0.2576
 8130SOL    MW432294   3.981   4.424   2.447 -0.5961 -0.5327 -0.6733
 8131SOL     OW32295   5.941   2.447   1.645  0.1505 -0.1727 -0.1145
 8131SOL    HW232296   5.959   2.537   1.617  0.9080 -0.7690 -1.6214
 8131SOL    HW332297   6.027   2.405   1.648 -0.4192 -1.6262 -2.2886
 8131SOL    MW432298   5.955   2.453   1.642 -1.0441 -0.1814 -0.0159
 8132SOL     OW32299   3.048   0.893   5.647 -0.3619  0.1363  0.6776
 8132SOL    HW232300   2.990   0.958   5.686  0.8195  1.0207  1.0212
 8132SOL    HW332301   3.022   0.889   5.555 -0.4761  1.0595  0.6636
 8132SOL    MW432302   3.037   0.901   5.640 -0.0899  0.1556 -0.1608
 8133SOL     OW32303   1.750   2.452   3.775 -0.0313  0.1929  0.3994
 8133SOL    HW232304   1.698   2.450   3.695  0.4666 -3.5184 -0.0161
 8133SOL    HW332305   1.831   2.497   3.750 -0.6637  0.8097 -0.6003
 8133SOL    MW432306   1.754   2.457   3.761  0.2481  0.0673 -0.6660
 8134SOL     OW32307   5.193   5.664   2.725 -0.2038  0.5168 -0.3093
 8134SOL    HW232308   5.155   5.576   2.734  1.0418  0.0004  0.0898
 8134SOL    HW332309   5.287   5.649   2.713 -0.1385  1.7443 -1.6303
 8134SOL    MW432310   5.201   5.650   2.725 -0.0399  0.2568 -0.4734
 8135SOL     OW32311   5.893   0.497   2.861 -0.3418 -0.6420  0.1802
 8135SOL    HW232312   5.917   0.406   2.845  0.2364 -0.1757 -1.9218
 8135SOL    HW332313   5.807   0.507   2.819  0.0016 -0.0270 -0.4126
 8135SOL    MW432314   5.884   0.486   2.853 -0.2078  0.6489 -0.7444
 8136SOL     OW32315   1.452   3.587   4.985  0.1253 -0.0780 -0.1362
 8136SOL    HW232316   1.393   3.659   5.007  0.0797  0.1525 -0.9824
 8136SOL    HW332317   1.435   3.570   4.892 -0.2369 -1.5234  0.1749
 8136SOL    MW432318   1.442   3.594   4.975 -0.0406 -0.0944  0.1308
 8137SOL     OW32319   4.368   1.528   3.653 -0.2129 -0.5783 -0.4465
 8137SOL    HW232320   4.314   1.459   3.692 -0.8562  0.1022 -0.1009
 8137SOL    HW332321   4.449   1.527   3.705  0.7206 -2.4961 -1.8004
 8137SOL    MW432322   4.372   1.518   3.665  0.4656  0.3214 -0.2188
 8138SOL     OW32323   6.051   4.518   0.631  0.1922 -0.2166 -0.4181
 8138SOL    HW232324   6.037   4.556   0.544  1.1407  0.8071 -0.1390
 8138SOL    HW332325   6.042   4.591   0.691 -0.1818 -0.8701  0.3323
 8138SOL    MW432326   6.048   4.533   0.627  0.6386  0.2212  0.0795
 8139SOL     OW32327   5.198   4.088   5.414 -0.0207 -0.0115 -0.1572
 8139SOL    HW232328   5.172   4.116   5.326 -0.9448 -1.9818 -0.5617
 8139SOL    HW332329   5.294   4.081   5.410  0.1978  2.3078 -0.2172
 8139SOL    MW432330   5.207   4.091   5.402 -0.1765  0.1214  0.1897
 8140SOL     OW32331   6.185   4.420   2.660  0.2818 -0.0415  0.4963
 8140SOL    HW232332   6.187   4.414   2.565  1.0275 -0.2219  0.5160
 8140SOL    HW332333   6.130   4.346   2.688 -0.4933  0.4074  0.1832
 8140SOL    MW432334   6.178   4.409   2.651 -0.4111 -0.2375 -0.4193
 8141SOL     OW32335   3.480   3.156   3.950 -0.1002  0.3499 -0.3873
 8141SOL    HW232336   3.458   3.201   3.868  0.5112  1.0806 -0.1606
 8141SOL    HW332337   3.434   3.206   4.017  0.4681  0.5607 -0.1497
 8141SOL    MW432338   3.471   3.169   3.948  0.0750 -0.7121 -0.3089
 8142SOL     OW32339   1.484   2.600   5.916  0.2477 -0.1425  0.0895
 8142SOL    HW232340   1.492   2.506   5.901 -0.9661 -0.1041 -0.8725
 8142SOL    HW332341   1.519   2.613   6.005  1.8232 -1.2627 -0.3207
 8142SOL    MW432342   1.490   2.589   5.926 -0.1656  0.0959 -0.1019
 8143SOL     OW32343   2.012   5.558   5.031 -0.3596 -0.0142  0.4721
 8143SOL    HW232344   1.957   5.536   5.107 -1.1612  1.4904  0.3554
 8143SOL    HW332345   1.967   5.518   4.957 -1.1274  0.9187  0.4234
 8143SOL    MW432346   1.999   5.550   5.031  0.3744  0.2099  0.8818
 8144SOL     OW32347   6.139   2.724   4.707  0.2395 -0.3251 -0.3859
 8144SOL    HW232348   6.108   2.639   4.674  0.2600 -0.5352  0.1196
 8144SOL    HW332349   6.233   2.711   4.722  0.1266 -0.4134  0.2864
 8144SOL    MW432350   6.148   2.711   4.705  0.1128  0.5059  0.3253
 8145SOL     OW32351   4.341   3.305   0.323 -0.2606 -0.0607  0.0452
 8145SOL    HW232352   4.268   3.243   0.317 -0.6573  0.4173 -0.1392
 8145SOL    HW332353   4.302   3.390   0.303  0.3889  0.1711 -0.2678
 8145SOL    MW432354   4.326   3.308   0.319  0.6518  0.0656  0.1377
 8146SOL     OW32355   3.064   4.281   5.624 -0.1037 -0.1691  0.5917
 8146SOL    HW232356   3.152   4.317   5.630  0.0243 -0.1546 -1.0903
 8146SOL    HW332357   3.077   4.186   5.619 -0.0449 -0.0911 -1.3911
 8146SOL    MW432358   3.077   4.273   5.624  0.2056  0.4089 -0.2592
 8147SOL     OW32359   5.202   5.155   3.655 -0.7419 -0.2548 -1.1422
 8147SOL    HW232360   5.286   5.184   3.689 -1.2672 -0.4352  0.3888
 8147SOL    HW332361   5.196   5.195   3.568 -0.1437  1.8056 -0.2981
 8147SOL    MW432362   5.212   5.164   3.648 -0.0402  0.3848 -0.5515
 8148SOL     OW32363   1.089   4.114   3.772 -0.1992 -0.3688 -0.2556
 8148SOL    HW232364   1.177   4.078   3.761  1.8498  3.3789  1.7951
 8148SOL    HW332365   1.055   4.071   3.851  0.5377 -0.5956 -0.0522
 8148SOL    MW432366   1.096   4.103   3.781  0.3838 -0.2869  0.1415
 8149SOL     OW32367   4.257   4.323   4.558  0.6558  0.3422 -0.2273
 8149SOL    HW232368   4.182   4.377   4.583 -0.1352 -0.1262 -1.4840
 8149SOL    HW332369   4.259   4.252   4.623  0.8718  1.1000  0.6182
 8149SOL    MW432370   4.247   4.321   4.570 -1.4068  0.2940  0.1579
 8150SOL     OW32371   1.738   3.981   4.273  0.5581 -0.0369 -0.1986
 8150SOL    HW232372   1.730   4.009   4.364  1.0425 -1.4868  0.3196
 8150SOL    HW332373   1.831   3.965   4.261  0.6796  1.3121 -1.3478
 8150SOL    MW432374   1.749   3.983   4.283  0.0190 -0.1593  0.2435
 8151SOL     OW32375   2.044   6.198   0.650 -0.2395  0.1308 -0.4681
 8151SOL    HW232376   2.055   6.185   0.744  0.0193  0.9853 -0.3731
 8151SOL    HW332377   2.045   6.293   0.638 -0.2976  0.0349 -1.3323
 8151SOL    MW432378   2.046   6.209   0.661  0.1918  0.0241  0.1854
 8152SOL     OW32379   4.278   3.478   3.273  0.1459  0.2788  0.3717
 8152SOL    HW232380   4.345   3.535   3.309  0.0354  0.3985  0.3892
 8152SOL    HW332381   4.317   3.441   3.193  0.2748  0.2545  0.4472
 8152SOL    MW432382   4.292   3.481   3.267  0.0439 -0.8350 -0.3236
 8153SOL     OW32383   4.432   6.337   3.187  0.7958 -0.4476 -0.5168
 8153SOL    HW232384   4.399   6.307   3.103  1.2764 -0.7179 -0.6108
 8153SOL    HW332385   4.522   6.365   3.169  0.5199  0.6165 -0.3425
 8153SOL    MW432386   4.440   6.337   3.174 -0.6762 -0.0343 -0.0072
 8154SOL     OW32387   4.144   5.779   5.730 -0.2150  0.5171  0.6572
 8154SOL    HW232388   4.224   5.830   5.741  0.3454 -0.1791 -0.0736
 8154SOL    HW332389   4.073   5.844   5.736  0.4525  1.3065  0.2349
 8154SOL    MW432390   4.145   5.795   5.732 -0.1939 -0.8308  0.9274
 8155SOL     OW32391   2.074   4.656   0.392 -0.1701 -0.4269  0.6279
 8155SOL    HW232392   2.012   4.727   0.408  0.2459  0.2589 -0.7004
 8155SOL    HW332393   2.019   4.579   0.376 -0.6898  0.1811 -0.5628
 8155SOL    MW432394   2.059   4.655   0.392 -0.2420  0.1944  0.3441
 8156SOL     OW32395   4.345   4.363   0.602  0.4461  0.6646 -0.1994
 8156SOL    HW232396   4.350   4.450   0.563 -0.6364  0.3195 -1.1767
 8156SOL    HW332397   4.295   4.375   0.682 -1.7021  0.6307 -1.4625
 8156SOL    MW432398   4.339   4.376   0.608 -0.8341 -0.0447  0.4395
 8157SOL     OW32399   3.506   5.466   3.441  0.6936 -0.0563  0.1046
 8157SOL    HW232400   3.457   5.545   3.419 -0.4765 -1.1137 -1.3470
 8157SOL    HW332401   3.595   5.484   3.410  0.3243  0.5283 -0.6577
 8157SOL    MW432402   3.511   5.479   3.434  0.4362 -0.1471  0.1807
 8158SOL     OW32403   1.200   1.328   3.550  0.4196  0.0175 -0.1339
 8158SOL    HW232404   1.207   1.423   3.558 -0.4567  0.0818 -0.0879
 8158SOL    HW332405   1.199   1.312   3.456 -1.2635  0.2160 -0.1819
 8158SOL    MW432406   1.201   1.339   3.539 -0.3552 -0.2617 -0.1957
 8159SOL     OW32407   1.816   5.818   5.360  0.2118 -0.1379 -0.0009
 8159SOL    HW232408   1.790   5.797   5.271  0.3977 -0.5619  0.0459
 8159SOL    HW332409   1.860   5.740   5.392 -1.3964 -0.6496  1.0678
 8159SOL    MW432410   1.819   5.805   5.353  0.3712 -0.3142 -0.4111
 8160SOL     OW32411   1.645   4.344   2.821 -0.4027  0.1582 -0.1542
 8160SOL    HW232412   1.573   4.381   2.771  2.1599  2.1850 -2.6501
 8160SOL    HW332413   1.613   4.342   2.911 -3.5141  0.9960 -1.1371
 8160SOL    MW432414   1.632   4.349   2.826  0.3148  0.4126 -0.1153
 8161SOL     OW32415   0.280   5.312   4.302  0.1802 -0.5314 -0.2691
 8161SOL    HW232416   0.293   5.404   4.281  0.3991 -0.4204  0.3219
 8161SOL    HW332417   0.221   5.279   4.234 -2.4790  0.7964  1.2277
 8161SOL    MW432418   0.274   5.320   4.290  0.3097  0.0619 -0.1029
 8162SOL     OW32419   5.648   5.085   5.644  0.3068  0.7094  0.3300
 8162SOL    HW232420   5.735   5.116   5.669  0.7360 -0.4010  0.2674
 8162SOL    HW332421   5.626   5.137   5.567  1.7451 -0.2579 -0.8124
 8162SOL    MW432422   5.657   5.096   5.637 -0.1328 -0.0086  0.4397
 8163SOL     OW32423   5.129   4.772   4.319 -0.2044  0.2263  0.1346
 8163SOL    HW232424   5.203   4.831   4.329 -1.1186  1.5143 -0.4748
 8163SOL    HW332425   5.163   4.698   4.269  0.6799  0.7644 -0.0754
 8163SOL    MW432426   5.143   4.770   4.314  0.2558  0.0739  0.3538
 8164SOL     OW32427   4.401   5.604   4.567  0.2901  0.2020 -0.4893
 8164SOL    HW232428   4.459   5.664   4.614  1.7138 -0.6442 -1.1004
 8164SOL    HW332429   4.329   5.588   4.628  0.5642  1.4656  0.1981
 8164SOL    MW432430   4.399   5.610   4.581 -0.6134 -0.1526  0.2303
 8165SOL     OW32431   6.378   2.607   4.401  0.9011 -0.0668 -0.0641
 8165SOL    HW232432   6.413   2.675   4.458  0.5966  0.3606 -0.3810
 8165SOL    HW332433   6.355   2.653   4.320  2.0458 -0.7818 -0.8397
 8165SOL    MW432434   6.380   2.622   4.398  0.0156 -0.0119 -0.1216
 8166SOL     OW32435   1.268   1.836   3.541 -0.0496  0.2021 -0.0021
 8166SOL    HW232436   1.192   1.854   3.486 -0.4716 -2.5156 -0.4600
 8166SOL    HW332437   1.252   1.748   3.577  2.1416  0.1954  1.1663
 8166SOL    MW432438   1.256   1.826   3.539 -0.0237  0.6717 -0.2145
 8167SOL     OW32439   0.786   3.464   5.084  0.4882  0.5411 -0.1000
 8167SOL    HW232440   0.853   3.404   5.116  0.1099 -0.4994 -1.1788
 8167SOL    HW332441   0.703   3.426   5.114  0.3461  1.7602  1.1328
 8167SOL    MW432442   0.784   3.451   5.092 -0.3938  0.3895  0.2771
 8168SOL     OW32443   5.337   5.789   0.282  0.0918 -0.7026  0.2371
 8168SOL    HW232444   5.424   5.750   0.274  0.9833  1.5189 -2.4304
 8168SOL    HW332445   5.347   5.857   0.349  0.9885  0.6754 -1.2058
 8168SOL    MW432446   5.350   5.793   0.289  0.1815  0.1141  0.0910
 8169SOL     OW32447   1.282   3.992   0.424 -0.3661 -0.2860  0.1217
 8169SOL    HW232448   1.307   3.997   0.516 -2.0695  0.3489  0.6025
 8169SOL    HW332449   1.359   3.958   0.379 -0.0428 -2.2805  2.0146
 8169SOL    MW432450   1.295   3.988   0.430  0.2202 -0.0846 -0.0574
 8170SOL     OW32451   6.019   5.228   5.019  0.4287 -0.3019 -0.2455
 8170SOL    HW232452   5.995   5.185   5.101  2.8301 -0.0342  0.6945
 8170SOL    HW332453   5.938   5.231   4.968 -0.5248 -3.0786  0.9139
 8170SOL    MW432454   6.005   5.223   5.023  0.4540  0.4381  0.3726
 8171SOL     OW32455   6.173   5.163   1.157 -0.3123  0.1059 -1.2013
 8171SOL    HW232456   6.223   5.109   1.096  0.5165 -1.8485  1.0718
 8171SOL    HW332457   6.222   5.159   1.239 -2.7341  0.4098  0.3651
 8171SOL    MW432458   6.186   5.156   1.160 -0.7051  0.3321 -0.4314
 8172SOL     OW32459   5.410   2.314   3.916  0.5855 -0.1421 -0.4789
 8172SOL    HW232460   5.459   2.261   3.979  1.3855 -0.9724 -1.7313
 8172SOL    HW332461   5.400   2.399   3.958  2.8219 -0.0483  0.0056
 8172SOL    MW432462   5.415   2.318   3.929  0.4800  0.2763  0.2793
 8173SOL     OW32463   4.528   5.175   3.795  0.1835 -0.1181 -0.2131
 8173SOL    HW232464   4.476   5.234   3.849  1.1245  1.0010 -0.4809
 8173SOL    HW332465   4.471   5.153   3.721 -0.6746 -0.6802  0.6077
 8173SOL    MW432466   4.514   5.180   3.792  0.4570 -0.0565  0.2199
 8174SOL     OW32467   5.554   3.926   4.890 -0.1654 -0.5104  0.0591
 8174SOL    HW232468   5.490   3.973   4.944  1.2280  0.7058  0.7217
 8174SOL    HW332469   5.503   3.855   4.849 -2.1379  0.9878 -0.2459
 8174SOL    MW432470   5.539   3.923   4.892  0.2090 -0.1520 -0.3868
 8175SOL     OW32471   1.279   0.643   3.740 -0.0514  0.1717 -0.1766
 8175SOL    HW232472   1.295   0.733   3.713 -1.5804  0.4187 -0.3474
 8175SOL    HW332473   1.312   0.638   3.830 -1.8587  1.5231  0.6124
 8175SOL    MW432474   1.285   0.654   3.749 -0.0801  0.3368 -0.4544
 8176SOL     OW32475   5.290   0.465   6.158  0.2428 -0.7475  0.1944
 8176SOL    HW232476   5.214   0.407   6.155 -0.1128 -0.5325  2.7881
 8176SOL    HW332477   5.362   0.408   6.185  0.2344 -0.3361  1.1377
 8176SOL    MW432478   5.289   0.450   6.162 -0.6291  0.3205 -0.2992
 8177SOL     OW32479   1.879   1.289   0.923  0.1274  0.4121 -0.0000
 8177SOL    HW232480   1.858   1.257   0.835  1.2924  1.3175 -0.6317
 8177SOL    HW332481   1.794   1.291   0.968 -0.5229  0.1244 -1.1667
 8177SOL    MW432482   1.865   1.285   0.917 -0.4841  0.0225 -0.0742
 8178SOL     OW32483   4.156   0.237   2.774 -0.2586 -0.4257 -0.1276
 8178SOL    HW232484   4.166   0.314   2.830 -1.3182 -0.1479 -0.2896
 8178SOL    HW332485   4.131   0.167   2.834 -1.6447 -0.0686 -0.2564
 8178SOL    MW432486   4.154   0.238   2.789  0.2330  0.4202  0.0098
 8179SOL     OW32487   3.374   1.590   3.576 -0.1819  0.2049  0.0123
 8179SOL    HW232488   3.438   1.523   3.553 -1.0060 -0.1871 -1.1998
 8179SOL    HW332489   3.427   1.668   3.593  0.5933  0.1777 -2.0101
 8179SOL    MW432490   3.389   1.592   3.575  0.4764  0.0373  0.6614
 8180SOL     OW32491   5.245   0.237   1.663 -0.0457  0.0908  0.4412
 8180SOL    HW232492   5.334   0.270   1.649 -0.7450  1.5147 -0.9231
 8180SOL    HW332493   5.243   0.154   1.616  0.4980  0.1334  0.3288
 8180SOL    MW432494   5.257   0.231   1.655  0.9529 -0.0973  0.1910
 8181SOL     OW32495   0.460   3.596   1.979  0.2551 -0.6522 -0.2028
 8181SOL    HW232496   0.540   3.567   2.024 -1.3590 -2.0917  1.9567
 8181SOL    HW332497   0.441   3.527   1.916 -0.7417 -1.7505  1.2503
 8181SOL    MW432498   0.468   3.583   1.977  0.1051 -0.0732  0.6011
 8182SOL     OW32499   1.977   6.261   1.895 -0.0460  0.1115  0.4802
 8182SOL    HW232500   2.000   6.314   1.818 -1.7296 -1.8942 -1.5406
 8182SOL    HW332501   2.040   6.288   1.962  1.7700  1.6789 -1.6903
 8182SOL    MW432502   1.988   6.272   1.894  0.2309 -0.0829 -0.3654
 8183SOL     OW32503   2.618   5.023   1.143  0.5127  0.3471 -0.1102
 8183SOL    HW232504   2.587   4.980   1.223 -1.1033  1.4982 -0.0759
 8183SOL    HW332505   2.611   4.955   1.076 -1.3455  0.3016  0.0753
 8183SOL    MW432506   2.613   5.008   1.145  0.1421 -0.2212 -0.4779
 8184SOL     OW32507   1.922   1.053   1.856  0.2481 -0.3445  0.1918
 8184SOL    HW232508   1.990   1.045   1.790  1.1295 -1.1516  1.1620
 8184SOL    HW332509   1.914   0.966   1.894 -1.2915 -0.2526  0.1510
 8184SOL    MW432510   1.930   1.041   1.853  0.3127 -0.1666  0.5090
 8185SOL     OW32511   3.958   5.564   2.857  0.2155 -0.2906  0.1338
 8185SOL    HW232512   3.914   5.646   2.878 -0.5950 -0.1280 -2.0582
 8185SOL    HW332513   3.888   5.506   2.827  1.1343 -0.9268 -0.8117
 8185SOL    MW432514   3.943   5.567   2.856 -0.3150 -0.3992  0.4405
 8186SOL     OW32515   3.926   4.058   2.346 -0.7559  0.2791 -0.0118
 8186SOL    HW232516   3.885   4.105   2.418  1.0937  0.8833  0.6955
 8186SOL    HW332517   3.991   4.001   2.387 -1.2274 -1.0605 -1.0466
 8186SOL    MW432518   3.929   4.056   2.361 -0.0483  0.5249 -0.6344
 8187SOL     OW32519   1.663   6.392   4.129 -0.0345  0.2345 -0.6677
 8187SOL    HW232520   1.572   6.363   4.138 -0.1834  0.6930 -0.6753
 8187SOL    HW332521   1.687   6.369   4.039  0.1587 -0.7117 -0.3901
 8187SOL    MW432522   1.654   6.385   4.118 -0.3248 -0.3971 -0.1895
 8188SOL     OW32523   1.920   0.227   5.794 -0.2403 -0.6067  0.1302
 8188SOL    HW232524   1.936   0.143   5.836  0.2088 -0.5991 -0.0132
 8188SOL    HW332525   1.868   0.206   5.717 -0.3098 -0.7277  0.2100
 8188SOL    MW432526   1.915   0.213   5.789  0.2921  0.1780 -0.1267
 8189SOL     OW32527   5.975   3.121   5.933 -0.5299 -0.0199 -0.0288
 8189SOL    HW232528   6.030   3.043   5.930  0.9457  0.9797  0.3971
 8189SOL    HW332529   5.920   3.108   6.011 -1.4873 -1.3762 -0.8932
 8189SOL    MW432530   5.975   3.109   5.943  0.4281 -0.6453  0.2429
 8190SOL     OW32531   4.548   3.318   3.950 -0.2070  0.7862 -0.2936
 8190SOL    HW232532   4.481   3.354   3.893 -1.0845 -0.6524 -0.2155
 8190SOL    HW332533   4.534   3.361   4.034 -1.2558  0.2840 -0.1955
 8190SOL    MW432534   4.538   3.328   3.954  0.3038 -0.0856 -1.0218
 8191SOL     OW32535   1.914   4.515   3.654  0.4554 -0.4251 -0.1295
 8191SOL    HW232536   1.961   4.560   3.724  0.0935 -1.7062  0.9748
 8191SOL    HW332537   1.928   4.422   3.672 -2.3789 -0.8718  0.1814
 8191SOL    MW432538   1.922   4.508   3.665 -0.5802  0.5856 -0.0325
 8192SOL     OW32539   0.892   2.928   3.519  0.4556  0.5502 -0.2611
 8192SOL    HW232540   0.845   2.979   3.584 -0.0879 -1.2300  0.8131
 8192SOL    HW332541   0.844   2.845   3.515  2.2075 -0.4805 -0.7654
 8192SOL    MW432542   0.879   2.924   3.527  0.8277 -0.0387 -0.0914
 8193SOL     OW32543   3.681   5.641   2.406  0.3248 -0.2450  0.0596
 8193SOL    HW232544   3.766   5.625   2.445  1.7926  0.0421 -2.7283
 8193SOL    HW332545   3.655   5.557   2.367 -0.9059 -0.4406  1.2291
 8193SOL    MW432546   3.689   5.628   2.406 -0.1101  0.0497 -0.6392
 8194SOL     OW32547   0.590   0.613   3.525 -0.2175  0.1441 -0.6178
 8194SOL    HW232548   0.553   0.700   3.542 -0.1274 -0.2681  2.0162
 8194SOL    HW332549   0.516   0.554   3.535  0.2586 -0.3022  0.4118
 8194SOL    MW432550   0.575   0.617   3.528 -0.7653  0.4293  0.1211
 8195SOL     OW32551   3.375   2.951   0.134 -0.9519 -0.3510  0.0192
 8195SOL    HW232552   3.341   2.890   0.069 -1.9518  0.2451 -0.0327
 8195SOL    HW332553   3.338   3.036   0.110 -0.3040  0.1141  0.6152
 8195SOL    MW432554   3.366   2.954   0.122  0.1862 -0.4474 -0.2031
 8196SOL     OW32555   1.232   1.882   5.886  0.2199  0.0839 -0.7485
 8196SOL    HW232556   1.297   1.950   5.866  0.4802 -0.2581 -1.0863
 8196SOL    HW332557   1.207   1.847   5.800 -0.8192  0.5845 -0.6582
 8196SOL    MW432558   1.238   1.886   5.872  0.7844  0.4649  0.7740
 8197SOL     OW32559   3.251   2.718   2.143 -0.1465 -0.1026 -0.0056
 8197SOL    HW232560   3.292   2.651   2.088 -0.1076  0.9704 -1.3435
 8197SOL    HW332561   3.317   2.738   2.209  0.0980 -0.9002  0.0068
 8197SOL    MW432562   3.265   2.712   2.145 -0.6195  0.3737 -0.2294
 8198SOL     OW32563   3.615   3.911   3.199 -0.4614  0.0225 -0.1730
 8198SOL    HW232564   3.639   3.835   3.146  0.9710 -0.4456  1.0804
 8198SOL    HW332565   3.618   3.880   3.290  1.7870  1.9356  0.4969
 8198SOL    MW432566   3.618   3.897   3.204 -0.4590 -0.1357  0.0305
 8199SOL     OW32567   1.579   3.594   3.138  0.3452  0.0946 -0.1733
 8199SOL    HW232568   1.586   3.512   3.089 -0.9298  0.1023 -0.4173
 8199SOL    HW332569   1.522   3.649   3.083  2.8213  1.9662 -1.0680
 8199SOL    MW432570   1.572   3.591   3.124  0.0584 -0.8199 -0.5265
 8200SOL     OW32571   2.352   1.004   2.077 -0.3122 -0.1029 -0.0718
 8200SOL    HW232572   2.362   1.035   2.167 -0.6247  1.3284 -0.5120
 8200SOL    HW332573   2.352   0.908   2.085 -1.6962 -0.0192  1.6225
 8200SOL    MW432574   2.353   0.995   2.090 -0.0480  0.2494  0.3518
 8201SOL     OW32575   5.228   2.796   5.106 -0.0810  0.0420 -0.3082
 8201SOL    HW232576   5.299   2.849   5.069  1.5986 -0.2906  2.1888
 8201SOL    HW332577   5.160   2.795   5.038  0.3910  4.1292 -1.0512
 8201SOL    MW432578   5.228   2.803   5.092 -0.6904  0.5265  0.1419
 8202SOL     OW32579   4.443   5.560   3.004 -0.0813  0.2345 -0.7517
 8202SOL    HW232580   4.442   5.472   3.042  0.8782  0.6963  0.4046
 8202SOL    HW332581   4.495   5.552   2.924  0.8741 -0.0577 -0.1139
 8202SOL    MW432582   4.449   5.548   2.999 -0.2861  0.6040  0.4494
 8203SOL     OW32583   5.205   4.748   2.535 -0.4720 -0.0416  0.0563
 8203SOL    HW232584   5.130   4.794   2.574  0.5712  1.2106  0.6602
 8203SOL    HW332585   5.181   4.735   2.444 -1.1613  0.9264  0.0893
 8203SOL    MW432586   5.192   4.752   2.528 -0.2468  0.8536  0.1494
 8204SOL     OW32587   1.149   5.817   5.633 -0.0155  0.7287 -0.1156
 8204SOL    HW232588   1.187   5.759   5.700 -0.1691  1.2150  0.3916
 8204SOL    HW332589   1.224   5.843   5.580  0.0339 -0.0720 -0.4635
 8204SOL    MW432590   1.164   5.813   5.635 -0.3780 -0.7022 -0.5188
 8205SOL     OW32591   3.429   4.912   1.189  0.4175  0.1193  0.1858
 8205SOL    HW232592   3.471   4.835   1.150  0.3677  0.4194 -0.4744
 8205SOL    HW332593   3.390   4.958   1.114 -1.9799 -0.6787  0.8373
 8205SOL    MW432594   3.429   4.908   1.174 -0.0433  0.0931 -0.3801
 8206SOL     OW32595   4.194   3.145   4.056  0.4677  0.3208 -0.4383
 8206SOL    HW232596   4.157   3.233   4.061  1.0625  0.5952 -0.7211
 8206SOL    HW332597   4.289   3.159   4.058  0.6016 -0.2171 -1.8070
 8206SOL    MW432598   4.202   3.158   4.057 -0.2123 -0.1482 -1.1978
 8207SOL     OW32599   1.950   2.825   0.544 -0.2081  0.6191 -0.2295
 8207SOL    HW232600   1.918   2.782   0.465 -3.2797 -2.2808  2.2586
 8207SOL    HW332601   1.990   2.906   0.513 -1.8803  0.0427 -4.6199
 8207SOL    MW432602   1.951   2.830   0.530  0.5256  0.5119  0.1326
 8208SOL     OW32603   5.841   1.722   3.795  0.6085  0.1347  0.4242
 8208SOL    HW232604   5.754   1.761   3.805  0.2365 -0.8607  1.2650
 8208SOL    HW332605   5.826   1.628   3.799  1.5560 -0.1023 -1.0180
 8208SOL    MW432606   5.827   1.715   3.797 -0.0593  0.3754 -0.1459
 8209SOL     OW32607   0.527   5.276   5.118  0.1222 -0.2926  0.1679
 8209SOL    HW232608   0.434   5.270   5.138  0.2719  0.4992  1.1977
 8209SOL    HW332609   0.550   5.367   5.138  0.9982 -0.3176 -0.6187
 8209SOL    MW432610   0.518   5.288   5.123 -0.1093  0.5562 -0.4242
 8210SOL     OW32611   0.398   5.644   1.688  0.4039 -0.5015 -0.5686
 8210SOL    HW232612   0.467   5.702   1.657  0.3781  0.5245  1.1961
 8210SOL    HW332613   0.372   5.594   1.610  1.2926  0.9528 -1.8457
 8210SOL    MW432614   0.403   5.645   1.674  0.2230 -0.1677  0.1654
 8211SOL     OW32615   4.532   1.459   5.016 -0.1746 -0.2451 -0.7398
 8211SOL    HW232616   4.445   1.419   5.022  0.4578 -2.2358 -3.4969
 8211SOL    HW332617   4.586   1.409   5.077 -0.2792 -1.0710 -1.3167
 8211SOL    MW432618   4.528   1.447   5.025 -0.4110  0.2011 -0.0381
 8212SOL     OW32619   6.319   1.143   1.944  0.1244  0.1161 -0.6927
 8212SOL    HW232620   6.252   1.207   1.922 -0.3247 -0.1808 -0.2092
 8212SOL    HW332621   6.358   1.175   2.025 -1.1700 -1.0113  0.4109
 8212SOL    MW432622   6.316   1.155   1.951  0.1234  0.6811  0.1055
 8213SOL     OW32623   4.670   1.849   2.572  0.1857  0.1806  0.4265
 8213SOL    HW232624   4.633   1.937   2.580 -0.7570 -0.2222  0.6156
 8213SOL    HW332625   4.691   1.823   2.661  0.3817  0.1702  0.3791
 8213SOL    MW432626   4.668   1.857   2.585  0.0822  0.4895 -0.1243
 8214SOL     OW32627   0.066   3.409   3.552  0.0064  0.1274 -0.0013
 8214SOL    HW232628   0.072   3.479   3.616  1.4261 -0.8428  0.9650
 8214SOL    HW332629   0.061   3.454   3.468 -3.0975  1.4714  0.7451
 8214SOL    MW432630   0.066   3.424   3.549  0.4301  0.1819 -0.5236
 8215SOL     OW32631   3.557   6.238   5.019 -0.1812  0.1904  0.0784
 8215SOL    HW232632   3.593   6.265   4.935 -0.1015 -0.5669 -0.1432
 8215SOL    HW332633   3.621   6.267   5.083 -0.3304  0.9352 -0.1006
 8215SOL    MW432634   3.570   6.245   5.016  0.3633 -0.5904  0.0076
 8216SOL     OW32635   1.097   2.844   2.405 -0.3299 -0.5471  0.4638
 8216SOL    HW232636   1.155   2.903   2.357 -0.5742  0.8115  1.7607
 8216SOL    HW332637   1.010   2.863   2.372 -0.2046 -1.6623 -0.5587
 8216SOL    MW432638   1.093   2.854   2.395  0.2585  0.1612  0.4940
 8217SOL     OW32639   4.946   1.994   2.694  0.3622 -0.1688  0.3953
 8217SOL    HW232640   4.889   2.029   2.763 -1.2140  0.8473 -1.3374
 8217SOL    HW332641   5.029   2.041   2.705 -0.0183  0.3098  1.3050
 8217SOL    MW432642   4.949   2.004   2.705  0.7823  0.1290  0.2966
 8218SOL     OW32643   0.799   4.182   6.120 -0.0229 -0.0296  0.0477
 8218SOL    HW232644   0.752   4.143   6.046  0.5756  0.2857 -0.5089
 8218SOL    HW332645   0.744   4.163   6.196 -0.2870 -0.9979 -0.3693
 8218SOL    MW432646   0.785   4.174   6.120  0.0501  0.8365  0.1003
 8219SOL     OW32647   3.657   5.103   3.137 -0.0937 -0.0965 -0.5773
 8219SOL    HW232648   3.657   5.188   3.094  0.7384  0.6590  0.8718
 8219SOL    HW332649   3.711   5.048   3.080 -0.7275  0.2883 -1.5798
 8219SOL    MW432650   3.664   5.107   3.123  0.1008  0.1894 -0.9884
 8220SOL     OW32651   4.763   6.231   2.041  0.1541  0.5270  0.4121
 8220SOL    HW232652   4.839   6.238   2.099  1.5979 -0.2044 -1.3018
 8220SOL    HW332653   4.788   6.283   1.963 -0.7263 -0.4317 -0.5362
 8220SOL    MW432654   4.777   6.239   2.038 -0.0723  0.6252  0.0044
 8221SOL     OW32655   0.182   5.781   6.261  0.0228  0.1154  0.4449
 8221SOL    HW232656   0.140   5.848   6.316 -0.3269 -0.4684  0.8980
 8221SOL    HW332657   0.225   5.831   6.192  0.3805  0.8596  1.1902
 8221SOL    MW432658   0.182   5.796   6.260  0.4998 -0.0663  0.0786
 8222SOL     OW32659   3.210   6.120   1.544 -0.3515  0.0312  0.2308
 8222SOL    HW232660   3.171   6.179   1.480 -1.9408 -0.5779  0.5858
 8222SOL    HW332661   3.247   6.178   1.611 -0.0210  0.6426 -0.4768
 8222SOL    MW432662   3.210   6.135   1.545 -0.4282 -0.7809 -0.1349
 8223SOL     OW32663   4.315   1.095   1.218 -0.5264 -0.0655 -0.1452
 8223SOL    HW232664   4.378   1.029   1.191 -0.2813  0.1672 -0.1519
 8223SOL    HW332665   4.261   1.111   1.140 -0.1760  0.2036 -0.3380
 8223SOL    MW432666   4.316   1.089   1.204 -0.2025 -0.3061 -0.0578
 8224SOL     OW32667   1.557   4.068   6.298 -0.4146 -0.5262 -0.4520
 8224SOL    HW232668   1.557   4.130   6.370  1.1765 -1.0672  0.0536
 8224SOL    HW332669   1.464   4.054   6.278 -0.8531  0.2336  0.9499
 8224SOL    MW432670   1.545   4.074   6.305 -0.3233 -0.1046 -0.2512
 8225SOL     OW32671   5.276   4.928   4.656  0.2359  0.7211  0.6464
 8225SOL    HW232672   5.307   4.958   4.570  0.4730 -1.1291  0.0326
 8225SOL    HW332673   5.186   4.959   4.661 -0.3862 -0.5716 -1.0811
 8225SOL    MW432674   5.268   4.936   4.645  0.1235 -0.3234  0.3602
 8226SOL     OW32675   3.117   2.934   6.356 -0.3096 -0.0779  0.3330
 8226SOL    HW232676   3.155   3.018   6.385 -0.8197  0.3268 -0.1480
 8226SOL    HW332677   3.028   2.935   6.391  0.0473 -0.9419  1.2977
 8226SOL    MW432678   3.110   2.945   6.364  0.3441  0.1794  0.2971
 8227SOL     OW32679   0.339   5.962   2.814  0.2883  0.0884 -0.5182
 8227SOL    HW232680   0.245   5.966   2.832  0.2199 -0.5132 -0.7064
 8227SOL    HW332681   0.380   5.988   2.896 -0.0375 -1.4065  0.1577
 8227SOL    MW432682   0.332   5.966   2.827 -0.7625 -0.1638 -0.0510
 8228SOL     OW32683   2.408   2.098   4.694  0.2589  0.1944  0.0409
 8228SOL    HW232684   2.347   2.171   4.682 -0.4164 -0.6234 -1.9476
 8228SOL    HW332685   2.445   2.112   4.781 -1.1996  1.8873  0.4570
 8228SOL    MW432686   2.405   2.109   4.704 -0.0281  0.1440 -0.4695
 8229SOL     OW32687   1.436   3.866   5.328 -0.5946 -0.5016  0.2603
 8229SOL    HW232688   1.433   3.940   5.267 -1.2611  0.1289  1.0426
 8229SOL    HW332689   1.497   3.894   5.396 -2.4655  0.2726  1.7090
 8229SOL    MW432690   1.443   3.880   5.329 -0.4942  0.4051 -0.4544
 8230SOL     OW32691   2.866   2.461   1.461 -0.2518  0.1244 -0.1410
 8230SOL    HW232692   2.795   2.512   1.500 -0.3726  0.7865 -1.1860
 8230SOL    HW332693   2.931   2.526   1.436 -0.1084 -0.2869 -0.8717
 8230SOL    MW432694   2.865   2.476   1.463 -0.2496 -0.4271  0.1530
 8231SOL     OW32695   5.532   0.339   3.011 -0.2199  0.4396  0.2245
 8231SOL    HW232696   5.532   0.337   3.107 -0.4781  1.0867  0.2375
 8231SOL    HW332697   5.444   0.310   2.987  0.4162 -1.6269  0.1232
 8231SOL    MW432698   5.520   0.335   3.021  0.5477  0.2449  0.3121
 8232SOL     OW32699   1.057   2.809   6.338  0.2829  0.1781 -0.7776
 8232SOL    HW232700   0.969   2.831   6.369  0.0762  1.2596 -2.0503
 8232SOL    HW332701   1.045   2.726   6.291 -0.5453  1.4246 -2.8858
 8232SOL    MW432702   1.044   2.801   6.336 -0.3553 -0.3648 -0.3058
 8233SOL     OW32703   5.154   1.781   5.797 -0.6142 -0.4712  0.0849
 8233SOL    HW232704   5.109   1.863   5.817 -1.0992 -0.3065 -1.5160
 8233SOL    HW332705   5.247   1.804   5.803 -0.7278 -0.2996  1.4488
 8233SOL    MW432706   5.161   1.795   5.800  0.3847  0.0065  0.1840
 8234SOL     OW32707   1.894   4.681   4.319 -0.0575  0.0566 -0.0244
 8234SOL    HW232708   1.892   4.587   4.303 -0.3507  0.5254 -3.3535
 8234SOL    HW332709   1.962   4.715   4.260  0.7368  1.8762  1.7861
 8234SOL    MW432710   1.903   4.673   4.309 -0.3993 -0.1189 -0.1481
 8235SOL     OW32711   6.078   4.775   2.805 -0.3039  0.0325 -0.7894
 8235SOL    HW232712   6.137   4.779   2.730  2.2303  0.4325  1.0864
 8235SOL    HW332713   6.035   4.861   2.807 -1.0402 -0.2807 -2.2080
 8235SOL    MW432714   6.080   4.787   2.796  0.1084  0.3666  0.6790
 8236SOL     OW32715   3.755   5.350   0.366  0.2112 -0.0055  0.2893
 8236SOL    HW232716   3.848   5.329   0.361  0.2741  0.1088  0.9385
 8236SOL    HW332717   3.714   5.292   0.302  1.0251  1.8465 -2.0245
 8236SOL    MW432718   3.762   5.340   0.357  0.2669  0.3743 -0.1294
 8237SOL     OW32719   0.419   1.737   4.306  0.7751  0.1183  0.0294
 8237SOL    HW232720   0.433   1.798   4.378 -1.2353  1.9872 -1.0362
 8237SOL    HW332721   0.470   1.659   4.330  1.8177  1.4258  2.4262
 8237SOL    MW432722   0.427   1.734   4.319  0.1213  0.3677 -0.1329
 8238SOL     OW32723   1.135   0.362   5.375 -0.1262 -0.1517 -0.6357
 8238SOL    HW232724   1.065   0.372   5.440  0.6339  0.0672  0.1730
 8238SOL    HW332725   1.161   0.270   5.382 -2.2767 -1.0354 -3.0114
 8238SOL    MW432726   1.129   0.351   5.385 -0.2798  0.4475 -0.0412
 8239SOL     OW32727   2.498   1.243   5.398 -0.6149 -0.4619  0.3287
 8239SOL    HW232728   2.480   1.186   5.323 -2.3263  1.3740 -0.7677
 8239SOL    HW332729   2.559   1.308   5.364 -0.0828 -0.5853  1.0358
 8239SOL    MW432730   2.503   1.244   5.383  0.1023  0.2064  0.5940
 8240SOL     OW32731   0.426   4.060   5.697  0.0738 -0.3846  0.3564
 8240SOL    HW232732   0.461   4.084   5.783  1.0844 -0.7819  0.0733
 8240SOL    HW332733   0.487   4.097   5.635 -0.8390  0.1848 -0.2172
 8240SOL    MW432734   0.439   4.068   5.700 -0.6926  0.5105 -0.5345
 8241SOL     OW32735   0.760   1.425   0.943 -0.0033 -0.1323 -0.4823
 8241SOL    HW232736   0.702   1.465   1.008 -0.3434 -1.4992  0.0984
 8241SOL    HW332737   0.847   1.458   0.965 -0.4445  1.4038 -0.9342
 8241SOL    MW432738   0.763   1.435   0.955  0.4366  0.1346  0.1091
 8242SOL     OW32739   0.082   0.468   0.222 -1.0060  0.1995 -0.2909
 8242SOL    HW232740   0.115   0.558   0.221 -1.1440  0.2514 -0.1830
 8242SOL    HW332741  -0.005   0.475   0.260  0.2612 -0.4053  3.1026
 8242SOL    MW432742   0.075   0.481   0.227  0.2318  0.4981  0.3359
 8243SOL     OW32743   0.610   4.312   3.967 -0.2425 -0.2232  0.0144
 8243SOL    HW232744   0.556   4.276   3.897 -3.3391  0.7258  1.7318
 8243SOL    HW332745   0.665   4.378   3.925 -0.6050 -1.0040 -1.7576
 8243SOL    MW432746   0.610   4.316   3.952 -0.1495  0.4343 -0.2128
 8244SOL     OW32747   1.689   2.344   5.407 -0.1464  0.4173  0.6370
 8244SOL    HW232748   1.770   2.395   5.399 -0.7688  1.6537  1.7931
 8244SOL    HW332749   1.660   2.332   5.316  1.6023 -0.5663  0.1506
 8244SOL    MW432750   1.696   2.349   5.394  0.2830 -0.7422  0.5795
 8245SOL     OW32751   5.769   1.675   6.115 -0.2267  0.1089  0.2589
 8245SOL    HW232752   5.795   1.741   6.178 -0.5719  0.4969  0.0016
 8245SOL    HW332753   5.746   1.724   6.036  0.8270 -0.4030 -0.4018
 8245SOL    MW432754   5.769   1.690   6.113 -0.2011  0.2014 -0.1760
 8246SOL     OW32755   4.956   4.742   0.603 -0.7936 -0.9677  0.2517
 8246SOL    HW232756   4.984   4.691   0.679  0.4067  0.6772  0.9821
 8246SOL    HW332757   5.024   4.809   0.593 -1.9442  0.0678 -1.0764
 8246SOL    MW432758   4.969   4.744   0.612  0.1644  0.2115 -0.0430
 8247SOL     OW32759   4.751   6.344   3.165 -0.0360  0.2019 -0.2725
 8247SOL    HW232760   4.753   6.260   3.119 -0.1371  1.0849 -1.9729
 8247SOL    HW332761   4.738   6.321   3.257 -1.1299 -1.5929 -0.8304
 8247SOL    MW432762   4.749   6.330   3.171 -0.3695 -0.5175  0.3773
 8248SOL     OW32763   2.218   5.026   1.981 -0.0273 -0.6666 -0.5705
 8248SOL    HW232764   2.229   4.963   1.910 -0.2919 -2.0244  0.5643
 8248SOL    HW332765   2.152   4.986   2.038 -0.1462  0.6122  0.2190
 8248SOL    MW432766   2.211   5.013   1.979 -0.0679  0.1264  0.5701
 8249SOL     OW32767   0.802   1.101   4.245  0.0363 -0.0467  0.1447
 8249SOL    HW232768   0.779   1.038   4.177 -4.1668  0.1502  1.1044
 8249SOL    HW332769   0.796   1.186   4.202  0.3412 -0.0605  0.0760
 8249SOL    MW432770   0.798   1.104   4.230  0.0683 -0.4395 -0.5204
 8250SOL     OW32771   2.880   2.257   3.776 -0.7385  0.5303 -0.1855
 8250SOL    HW232772   2.863   2.165   3.758  0.3504  0.5557 -1.6024
 8250SOL    HW332773   2.922   2.258   3.861 -0.6707 -0.2930 -0.2024
 8250SOL    MW432774   2.883   2.245   3.785  0.3622 -0.2885 -0.0605
 8251SOL     OW32775   0.083   6.175   3.810 -0.9470 -0.3287 -0.1824
 8251SOL    HW232776   0.172   6.187   3.844 -1.4414  2.5841  0.3264
 8251SOL    HW332777   0.069   6.080   3.812  2.0295 -0.8473 -0.0508
 8251SOL    MW432778   0.093   6.164   3.815  0.9210  0.4145 -0.1990
 8252SOL     OW32779   2.038   0.232   0.395 -0.4752  0.0682  0.0048
 8252SOL    HW232780   1.944   0.246   0.383 -0.5253 -0.2729 -0.0179
 8252SOL    HW332781   2.066   0.301   0.455 -0.0698  2.3740 -2.6319
 8252SOL    MW432782   2.029   0.243   0.401  0.5162  0.0583  0.3981
 8253SOL     OW32783   2.834   5.199   4.948  0.2618 -0.3668  0.6922
 8253SOL    HW232784   2.851   5.129   4.885  2.3091  0.3835  0.3299
 8253SOL    HW332785   2.742   5.222   4.935  0.1391 -1.4963 -0.6820
 8253SOL    MW432786   2.824   5.193   4.938  0.3043 -0.3212 -0.2498
 8254SOL     OW32787   1.762   0.668   4.713 -0.6053  0.3898 -0.1170
 8254SOL    HW232788   1.834   0.715   4.755  0.3616 -1.8804  0.9289
 8254SOL    HW332789   1.798   0.639   4.630 -0.4827 -0.2902  0.1713
 8254SOL    MW432790   1.776   0.671   4.708 -0.1481 -0.1250 -0.0586
 8255SOL     OW32791   4.367   3.839   3.517  0.6702 -0.1967  0.5659
 8255SOL    HW232792   4.407   3.925   3.504  1.5233 -0.7000 -0.2259
 8255SOL    HW332793   4.275   3.852   3.494  0.5194  0.7753  1.6039
 8255SOL    MW432794   4.360   3.852   3.513  0.3044  0.0082 -0.2823
 8256SOL     OW32795   1.106   2.429   4.848 -0.4659  0.0625  0.3136
 8256SOL    HW232796   1.158   2.374   4.907  1.8533 -0.2383 -1.8482
 8256SOL    HW332797   1.057   2.367   4.794  0.6587  0.1260 -0.8255
 8256SOL    MW432798   1.106   2.413   4.848  0.1075  0.2911  0.1802
 8257SOL     OW32799   1.735   4.815   0.934 -0.0987  0.5300  0.3685
 8257SOL    HW232800   1.826   4.784   0.939 -0.4907 -0.4967  3.5460
 8257SOL    HW332801   1.683   4.735   0.936 -1.0736  1.1597  0.3248
 8257SOL    MW432802   1.740   4.801   0.935 -0.3975 -0.0745 -0.0239
 8258SOL     OW32803   5.983   5.852   1.500  0.1078  0.1203  0.1541
 8258SOL    HW232804   5.896   5.838   1.463  0.7365 -1.0449 -0.9479
 8258SOL    HW332805   5.970   5.920   1.566 -1.3323  1.2005 -1.1669
 8258SOL    MW432806   5.969   5.859   1.504 -0.3462 -0.1735 -0.1344
 8259SOL     OW32807   2.403   5.076   2.420 -0.1338 -0.6254  0.0204
 8259SOL    HW232808   2.370   5.140   2.357 -0.1627  0.0896  0.7456
 8259SOL    HW332809   2.490   5.109   2.443 -0.1590 -0.8380  0.4128
 8259SOL    MW432810   2.410   5.089   2.414  0.4888 -0.6210 -0.1401
 8260SOL     OW32811   2.316   0.694   2.093  1.1000  0.3402  0.5160
 8260SOL    HW232812   2.330   0.603   2.115  1.9680  0.6376  1.2449
 8260SOL    HW332813   2.256   0.726   2.160 -0.5041 -0.0740 -0.6571
 8260SOL    MW432814   2.310   0.687   2.104 -0.4596 -0.3025  0.1174
 8261SOL     OW32815   4.962   0.633   1.875 -0.4844  0.5525 -0.0305
 8261SOL    HW232816   5.037   0.574   1.863  1.1567  2.5479 -0.2449
 8261SOL    HW332817   4.916   0.631   1.791 -1.1539 -1.2445  0.3343
 8261SOL    MW432818   4.966   0.625   1.862  0.3446 -0.7413 -0.4917
 8262SOL     OW32819   5.677   0.129   1.720 -0.5566  0.3212 -0.1096
 8262SOL    HW232820   5.641   0.040   1.714  0.9891 -0.3256 -0.3960
 8262SOL    HW332821   5.748   0.121   1.784 -0.4111  1.3559 -0.1352
 8262SOL    MW432822   5.682   0.116   1.728 -0.1895  0.3421  0.2728
 8263SOL     OW32823   0.206   2.944   4.085  0.1598 -0.2646 -0.2881
 8263SOL    HW232824   0.111   2.957   4.083  0.1560 -0.2158  0.1898
 8263SOL    HW332825   0.240   3.007   4.021 -0.1599 -0.5482 -0.7376
 8263SOL    MW432826   0.198   2.954   4.076  0.2644  0.4214  0.1536
 8264SOL     OW32827   6.369   4.576   3.830 -0.3891  0.0748  0.4251
 8264SOL    HW232828   6.383   4.493   3.785 -1.7901 -0.6866  1.3455
 8264SOL    HW332829   6.441   4.632   3.799  0.8003 -1.5751  0.0921
 8264SOL    MW432830   6.380   4.573   3.820  0.0856  0.3486  0.2842
 8265SOL     OW32831   6.327   4.164   0.356 -0.1045 -0.5132  0.4315
 8265SOL    HW232832   6.235   4.173   0.384 -0.5452 -1.4334 -0.6091
 8265SOL    HW332833   6.328   4.196   0.266  0.5383 -0.7385  0.3527
 8265SOL    MW432834   6.315   4.169   0.348  0.2868  0.0335 -0.3064
 8266SOL     OW32835   4.693   4.727   0.424 -0.5507 -0.0689 -0.3927
 8266SOL    HW232836   4.784   4.727   0.454 -0.4255  0.9326 -0.7241
 8266SOL    HW332837   4.692   4.669   0.349 -0.3625 -0.7217  0.1031
 8266SOL    MW432838   4.705   4.719   0.418 -0.3843  0.2896 -0.4552
 8267SOL     OW32839   2.044   4.906   5.229 -0.2135  0.1428  0.5478
 8267SOL    HW232840   2.062   4.854   5.308 -0.1439 -0.4382  0.1591
 8267SOL    HW332841   1.952   4.932   5.238 -1.6682 -3.6272 -1.1909
 8267SOL    MW432842   2.034   4.902   5.241  0.3028 -0.3190 -0.1272
 8268SOL     OW32843   3.609   6.415   0.909  0.4648 -0.4539  0.2039
 8268SOL    HW232844   3.664   6.486   0.876  1.7129 -2.0878 -1.4833
 8268SOL    HW332845   3.669   6.359   0.958 -0.6034 -0.1098  1.9838
 8268SOL    MW432846   3.624   6.417   0.911  0.3212 -0.5453 -0.2307
 8269SOL     OW32847   5.500   1.376   3.794 -0.1894 -0.5843  0.0854
 8269SOL    HW232848   5.584   1.335   3.814  1.3245  1.7300 -1.1200
 8269SOL    HW332849   5.490   1.367   3.700 -0.6892  0.2399  0.0506
 8269SOL    MW432850   5.510   1.370   3.784  0.5098 -0.4013 -0.2139
 8270SOL     OW32851   2.173   5.694   1.173 -0.1194 -0.3941 -0.0500
 8270SOL    HW232852   2.264   5.667   1.184  0.4758  1.0315 -1.1786
 8270SOL    HW332853   2.132   5.674   1.257  0.7935 -2.6238 -0.0659
 8270SOL    MW432854   2.179   5.688   1.186 -0.0210  0.6682  0.5359
 8271SOL     OW32855   4.671   6.070   4.934  0.0397 -0.3077  0.7291
 8271SOL    HW232856   4.670   5.983   4.895  0.1922  0.1170 -0.2430
 8271SOL    HW332857   4.747   6.069   4.993  1.2680 -0.1977 -0.7908
 8271SOL    MW432858   4.681   6.058   4.936  0.1153  0.2405  0.7472
 8272SOL     OW32859   0.029   1.813   1.780 -0.4436 -0.4216 -0.1317
 8272SOL    HW232860   0.070   1.728   1.765 -0.5553 -0.3199 -1.1404
 8272SOL    HW332861   0.015   1.848   1.692  1.2664  1.4502  0.2626
 8272SOL    MW432862   0.032   1.806   1.766  0.4725 -0.0594  0.1331
 8273SOL     OW32863   6.029   2.708   1.625  0.4326 -0.6174  0.0188
 8273SOL    HW232864   6.056   2.797   1.649 -0.2564 -0.2556 -0.5107
 8273SOL    HW332865   5.977   2.720   1.546 -1.8902 -1.1847  1.3671
 8273SOL    MW432866   6.026   2.722   1.618  0.6728 -1.0956  0.2373
 8274SOL     OW32867   0.230   5.032   1.561 -0.0114  0.5907 -0.3755
 8274SOL    HW232868   0.277   4.961   1.605 -1.8026  0.0145  0.7445
 8274SOL    HW332869   0.151   4.991   1.527 -0.1042  1.6696 -1.5345
 8274SOL    MW432870   0.226   5.018   1.563  0.3068 -0.1201 -0.4733
 8275SOL     OW32871   3.082   2.184   0.392  0.0070 -0.1028 -0.5370
 8275SOL    HW232872   3.026   2.185   0.470  0.0366  0.9843 -0.5181
 8275SOL    HW332873   3.061   2.101   0.349  0.6831 -1.1898  1.1021
 8275SOL    MW432874   3.072   2.173   0.397  0.0743  0.8537  0.7010
 8276SOL     OW32875   2.582   1.345   1.412 -0.4859 -0.6006  0.1941
 8276SOL    HW232876   2.500   1.326   1.458 -0.1348  0.1696  1.1807
 8276SOL    HW332877   2.638   1.386   1.478  0.4710 -0.5370 -0.6272
 8276SOL    MW432878   2.579   1.348   1.427 -0.2719 -0.1474  0.5343
 8277SOL     OW32879   0.167   0.559   4.067  0.5604 -0.2517  0.5633
 8277SOL    HW232880   0.136   0.553   4.158 -2.4611  1.4417 -0.2271
 8277SOL    HW332881   0.239   0.623   4.071 -0.3996  0.8128  1.6196
 8277SOL    MW432882   0.173   0.567   4.080 -0.3528  0.0611  0.7308
 8278SOL     OW32883   5.609   4.811   2.336  0.2372  0.2210  0.0066
 8278SOL    HW232884   5.674   4.844   2.274  0.2569  1.5473  0.6947
 8278SOL    HW332885   5.653   4.740   2.382  2.3647  2.8932  2.4994
 8278SOL    MW432886   5.623   4.806   2.334  0.2507 -0.5006  0.4561
 8279SOL     OW32887   2.260   1.212   3.411  0.0756  0.0686  0.0070
 8279SOL    HW232888   2.192   1.272   3.381  0.5634  0.6642  0.0666
 8279SOL    HW332889   2.342   1.256   3.390  0.4488 -0.6175 -0.0170
 8279SOL    MW432890   2.262   1.225   3.404  0.1567  0.2651 -0.1375
 8280SOL     OW32891   3.555   2.863   0.527 -0.0764  1.0024 -0.0163
 8280SOL    HW232892   3.470   2.894   0.558  0.6663  2.4647  0.6114
 8280SOL    HW332893   3.594   2.820   0.603  0.3509  1.6110  0.1059
 8280SOL    MW432894   3.549   2.861   0.541 -0.5526 -0.0218  0.2689
 8281SOL     OW32895   4.621   5.564   4.955 -0.0227  0.5531  0.4556
 8281SOL    HW232896   4.579   5.517   4.884 -0.5595  0.5842  0.7478
 8281SOL    HW332897   4.714   5.545   4.945 -0.1464  0.1551  0.0430
 8281SOL    MW432898   4.628   5.555   4.944 -0.1589  0.3446 -0.0366
 8282SOL     OW32899   2.556   1.186   1.975 -0.0783 -0.3161 -1.0410
 8282SOL    HW232900   2.565   1.181   1.880  0.8500 -1.6251 -0.9067
 8282SOL    HW332901   2.488   1.122   1.996  0.7433 -1.1063 -0.7113
 8282SOL    MW432902   2.548   1.177   1.965  0.0091 -0.0315 -0.1080
 8283SOL     OW32903   6.283   0.681   6.438 -0.0368 -0.2250  0.0657
 8283SOL    HW232904   6.308   0.677   6.530 -0.1886  0.6774  0.1544
 8283SOL    HW332905   6.270   0.590   6.413 -0.5370 -0.4469  1.0831
 8283SOL    MW432906   6.285   0.668   6.447 -0.0411 -0.1876 -0.3578
 8284SOL     OW32907   2.524   4.117   6.211  0.7753  0.3552 -0.2223
 8284SOL    HW232908   2.520   4.058   6.135 -0.9024  0.4691 -0.2687
 8284SOL    HW332909   2.519   4.205   6.173 -0.4478  0.4029  0.0121
 8284SOL    MW432910   2.523   4.121   6.196 -0.8440  0.5077  0.2392
 8285SOL     OW32911   2.580   5.867   5.378  0.7106  0.0013  0.4460
 8285SOL    HW232912   2.601   5.950   5.420  0.7021  0.9647 -1.3579
 8285SOL    HW332913   2.665   5.829   5.354  0.7706 -1.0577  2.1885
 8285SOL    MW432914   2.594   5.873   5.380 -0.0532 -0.4179  0.2636
 8286SOL     OW32915   2.121   3.349   2.401  0.0089  0.4346 -0.0932
 8286SOL    HW232916   2.172   3.270   2.415  1.7259  0.9811 -2.5924
 8286SOL    HW332917   2.050   3.344   2.466  1.2657 -2.0467  1.2221
 8286SOL    MW432918   2.118   3.338   2.412 -0.0089  0.5030 -0.2263
 8287SOL     OW32919   3.446   3.410   5.538  0.1993  0.4245  0.4060
 8287SOL    HW232920   3.517   3.353   5.507 -0.1841  0.0330  0.2276
 8287SOL    HW332921   3.470   3.497   5.507  0.5460  0.2749  0.2489
 8287SOL    MW432922   3.458   3.414   5.529 -0.5813 -0.3555  0.5706
 8288SOL     OW32923   3.910   0.933   1.030 -0.0847  0.0615  0.6614
 8288SOL    HW232924   3.861   0.881   1.093 -1.4801 -0.7578 -1.0330
 8288SOL    HW332925   3.989   0.881   1.012  0.4422  0.4084  1.8431
 8288SOL    MW432926   3.914   0.919   1.036 -0.2292  0.0055  0.5252
 8289SOL     OW32927   4.321   0.715   4.692  0.0022  0.6205 -0.4858
 8289SOL    HW232928   4.415   0.697   4.689 -0.2561 -0.7668 -1.7317
 8289SOL    HW332929   4.288   0.677   4.611 -1.7212  0.6244  0.1908
 8289SOL    MW432930   4.329   0.708   4.681 -0.3882  0.4974 -0.3765
 8290SOL     OW32931   0.905   1.325   3.617  0.0142  0.1865 -0.5889
 8290SOL    HW232932   0.860   1.300   3.537  0.5214 -1.9152 -0.2720
 8290SOL    HW332933   0.997   1.305   3.601 -0.0824 -2.0285  1.0587
 8290SOL    MW432934   0.911   1.319   3.605  0.2613  0.4466 -0.2544
 8291SOL     OW32935   5.394   4.161   0.121  0.5003 -0.4306 -0.3371
 8291SOL    HW232936   5.476   4.137   0.164  0.5273 -0.3839 -0.3624
 8291SOL    HW332937   5.384   4.255   0.140  1.5632  0.0918 -2.1625
 8291SOL    MW432938   5.404   4.170   0.129  0.1348  0.2757 -0.3049
 8292SOL     OW32939   4.457   2.142   1.365  0.0947  0.3656 -0.4111
 8292SOL    HW232940   4.383   2.199   1.347 -0.3200 -0.0590 -0.0579
 8292SOL    HW332941   4.435   2.060   1.321  0.2684  0.1781 -0.1481
 8292SOL    MW432942   4.445   2.139   1.357  0.1143 -0.2552 -0.2741
 8293SOL     OW32943   6.261   4.509   4.357 -0.0455 -0.3629  0.4266
 8293SOL    HW232944   6.289   4.428   4.401  1.8917  0.0854  0.0988
 8293SOL    HW332945   6.171   4.491   4.329 -0.4984 -1.5277  2.4340
 8293SOL    MW432946   6.253   4.496   4.359  0.2429 -0.4614 -0.2726
 8294SOL     OW32947   2.741   2.633   4.201 -0.2189  0.5284 -0.6654
 8294SOL    HW232948   2.669   2.634   4.265 -0.4396  0.5714 -0.9115
 8294SOL    HW332949   2.800   2.565   4.233 -0.5283  0.2705 -0.6322
 8294SOL    MW432950   2.739   2.625   4.214  1.1438  0.5586 -0.4398
 8295SOL     OW32951   3.890   4.625   3.457 -0.4618  0.2141 -0.0003
 8295SOL    HW232952   3.911   4.631   3.551 -1.5303 -1.4083  0.3851
 8295SOL    HW332953   3.974   4.612   3.414 -0.1341 -1.0134  0.9619
 8295SOL    MW432954   3.904   4.624   3.464  0.2726 -0.4318 -0.2124
 8296SOL     OW32955   5.804   0.234   2.913  0.2968  0.1611 -0.0429
 8296SOL    HW232956   5.805   0.176   2.837  1.1173 -0.9067  0.7504
 8296SOL    HW332957   5.712   0.255   2.926  0.0551 -0.4200 -0.7579
 8296SOL    MW432958   5.792   0.229   2.905 -0.4877 -0.0050  0.4185
 8297SOL     OW32959   1.435   5.083   3.422 -0.3515 -0.3047  0.5810
 8297SOL    HW232960   1.488   5.144   3.473  0.1565 -1.0985  1.0115
 8297SOL    HW332961   1.491   5.057   3.349 -1.4466  1.6814 -1.0917
 8297SOL    MW432962   1.449   5.088   3.419 -0.1203 -0.0738 -0.4472
 8298SOL     OW32963   5.362   0.961   4.279 -0.1374  0.7625  0.1891
 8298SOL    HW232964   5.339   1.023   4.348  1.6249 -0.1387  1.6764
 8298SOL    HW332965   5.448   0.991   4.248  0.6203 -0.7365  0.7570
 8298SOL    MW432966   5.370   0.973   4.284 -0.4125  0.6876 -0.0135
 8299SOL     OW32967   1.864   1.606   3.793  0.1081  0.0205  0.3791
 8299SOL    HW232968   1.885   1.519   3.827  0.8451 -0.5631 -1.4344
 8299SOL    HW332969   1.904   1.666   3.856  0.3171 -0.9667  1.2201
 8299SOL    MW432970   1.872   1.603   3.806  0.1117 -0.0619 -0.2388
 8300SOL     OW32971   0.076   5.012   6.413 -0.1716  0.1891  0.2576
 8300SOL    HW232972  -0.014   4.993   6.437 -1.3130  0.4208 -3.2712
 8300SOL    HW332973   0.074   5.103   6.381  0.9460 -0.2763 -1.2591
 8300SOL    MW432974   0.064   5.022   6.412  0.0436  0.2959 -0.2527
 8301SOL     OW32975   1.959   5.602   1.444  0.7839  0.2814 -0.0468
 8301SOL    HW232976   1.902   5.627   1.517  0.1215  1.6406 -0.9717
 8301SOL    HW332977   1.900   5.570   1.377  1.1744  0.8449 -0.6801
 8301SOL    MW432978   1.944   5.601   1.445 -0.5917  0.2927  0.2359
 8302SOL     OW32979   6.254   4.770   2.585 -0.1258 -0.0445 -0.7769
 8302SOL    HW232980   6.242   4.819   2.504  0.3592 -0.4358 -1.0879
 8302SOL    HW332981   6.319   4.821   2.634  0.1083 -0.1834 -0.9421
 8302SOL    MW432982   6.261   4.783   2.581  0.2926  0.1570  0.3313
 8303SOL     OW32983   4.596   4.552   2.305 -0.3522 -0.0595  0.1513
 8303SOL    HW232984   4.667   4.594   2.352  0.3964 -1.0357 -0.0665
 8303SOL    HW332985   4.559   4.621   2.250  1.1956  0.1953 -0.6170
 8303SOL    MW432986   4.601   4.567   2.304 -0.2544  0.4253  0.0797
 8304SOL     OW32987   5.532   6.066   1.592 -0.1177 -0.2348  0.1096
 8304SOL    HW232988   5.574   6.092   1.510  0.0312  2.1544  0.8572
 8304SOL    HW332989   5.442   6.045   1.567 -0.1803  0.8297 -0.6431
 8304SOL    MW432990   5.525   6.066   1.578 -0.3209 -0.1762  0.3058
 8305SOL     OW32991   3.892   4.153   2.853 -0.0638 -0.3235  0.2164
 8305SOL    HW232992   3.852   4.222   2.800  1.0747 -0.3317 -0.6819
 8305SOL    HW332993   3.834   4.145   2.929 -1.2326  0.3219 -0.5715
 8305SOL    MW432994   3.879   4.161   2.856  0.7727  0.1280 -0.2390
 8306SOL     OW32995   2.928   6.284   3.293 -0.1198 -0.2331  0.1704
 8306SOL    HW232996   2.961   6.367   3.259 -0.4897 -0.7317 -1.5096
 8306SOL    HW332997   2.976   6.217   3.244  0.8825 -1.0798  2.1670
 8306SOL    MW432998   2.939   6.286   3.282  0.5705  0.0234  0.2482
 8307SOL     OW32999   4.146   0.808   0.966 -0.2171  0.2475  0.5232
 8307SOL    HW233000   4.130   0.761   1.048  1.2119  0.0802  0.7334
 8307SOL    HW333001   4.239   0.791   0.947  0.2484  2.6627  0.3897
 8307SOL    MW433002   4.156   0.799   0.974  0.1178 -0.4969  0.3921
 8308SOL     OW33003   3.114   0.137   2.815 -0.4737  0.0328  0.0715
 8308SOL    HW233004   3.191   0.189   2.791 -0.6624 -0.3449 -1.4379
 8308SOL    HW333005   3.151   0.055   2.848 -0.1915  0.8559  1.9450
 8308SOL    MW433006   3.129   0.133   2.816 -0.1139  0.2956  0.2409
 8309SOL     OW33007   2.008   2.314   4.479  0.1442 -0.3679  0.0154
 8309SOL    HW233008   1.939   2.380   4.475  1.7953  1.4222 -0.3559
 8309SOL    HW333009   2.005   2.272   4.393 -0.9378 -0.8296  0.2626
 8309SOL    MW433010   1.999   2.317   4.467  0.3251 -0.3065  0.2863
 8310SOL     OW33011   5.379   6.221   4.871  0.0859  0.0266 -0.0846
 8310SOL    HW233012   5.341   6.235   4.957 -0.1367  0.0461 -0.1870
 8310SOL    HW333013   5.325   6.153   4.832 -0.3279  0.6039 -0.5352
 8310SOL    MW433014   5.367   6.214   4.877 -0.0195 -0.6519  0.5855
 8311SOL     OW33015   1.820   1.741   2.891  0.1615 -0.2897  0.0560
 8311SOL    HW233016   1.890   1.785   2.841  0.2935 -1.9232 -1.2904
 8311SOL    HW333017   1.858   1.658   2.918 -0.6939 -0.4234  0.9144
 8311SOL    MW433018   1.834   1.736   2.888 -0.7583  0.4347  0.4322
 8312SOL     OW33019   6.091   6.006   3.318 -0.4587 -0.6519  0.2709
 8312SOL    HW233020   6.014   5.961   3.284 -1.4520  1.3951 -0.3830
 8312SOL    HW333021   6.080   6.097   3.289  2.4031 -0.3570 -0.1787
 8312SOL    MW433022   6.079   6.012   3.309 -0.4450  0.0120 -0.0347
 8313SOL     OW33023   0.416   1.407   6.139 -0.0766 -0.3118  0.4231
 8313SOL    HW233024   0.347   1.469   6.162 -1.6188 -1.7599 -0.0908
 8313SOL    HW333025   0.484   1.461   6.098 -1.6676  0.9615 -0.6715
 8313SOL    MW433026   0.416   1.422   6.137  0.2830 -0.1106  0.2310
 8314SOL     OW33027   6.211   6.081   0.865  0.0225 -0.3475  0.1185
 8314SOL    HW233028   6.129   6.117   0.897 -0.3226 -1.8517  1.0296
 8314SOL    HW333029   6.227   6.004   0.920  2.1674  0.0435  0.1292
 8314SOL    MW433030   6.203   6.076   0.876  0.5942 -0.2278  0.5164
 8315SOL     OW33031   2.440   4.794   4.063 -0.4272 -0.6641 -0.2053
 8315SOL    HW233032   2.389   4.841   3.997  1.4071  2.7790  0.5715
 8315SOL    HW333033   2.521   4.769   4.019 -0.3067 -0.7442  0.0568
 8315SOL    MW433034   2.444   4.797   4.049  0.0420  0.0394  0.2510
 8316SOL     OW33035   1.849   2.174   3.251  0.0340 -0.5389 -0.0777
 8316SOL    HW233036   1.916   2.107   3.260  0.2204 -0.3586 -0.0987
 8316SOL    HW333037   1.898   2.255   3.236 -0.2136 -0.5722 -1.1541
 8316SOL    MW433038   1.864   2.176   3.250 -0.2019  0.4010  0.0776
 8317SOL     OW33039   0.657   3.595   2.397  0.0036  0.0392 -0.2832
 8317SOL    HW233040   0.588   3.536   2.367 -0.3995  1.2666 -1.9482
 8317SOL    HW333041   0.617   3.647   2.466 -0.7911  0.7265 -1.2201
 8317SOL    MW433042   0.643   3.594   2.402  0.3717 -0.0547 -0.4500
 8318SOL     OW33043   4.054   2.417   5.111  0.2927  0.0816  0.4844
 8318SOL    HW233044   4.058   2.394   5.204 -0.3171 -1.7085  0.1150
 8318SOL    HW333045   3.980   2.366   5.077  2.0662 -1.3628 -1.4853
 8318SOL    MW433046   4.044   2.407   5.119 -0.8177 -0.0341  0.1178
 8319SOL     OW33047   5.715   5.633   2.615 -0.1465 -0.4949  1.1200
 8319SOL    HW233048   5.640   5.603   2.668 -0.2877  1.7173  2.3045
 8319SOL    HW333049   5.676   5.665   2.534 -0.2627 -1.0705  0.9432
 8319SOL    MW433050   5.700   5.633   2.612 -0.1142  0.0607  0.1778
 8320SOL     OW33051   3.644   1.963   2.047 -0.7404  0.0341  0.2141
 8320SOL    HW233052   3.570   1.949   2.105 -0.7220 -0.3145  0.1599
 8320SOL    HW333053   3.606   1.961   1.959 -0.4504 -1.8964  0.0832
 8320SOL    MW433054   3.629   1.961   2.043  0.2769 -0.0793  0.2856
 8321SOL     OW33055   6.319   5.086   3.175 -0.0841  0.0421 -0.1865
 8321SOL    HW233056   6.262   5.010   3.163 -0.3394 -0.2012  2.0990
 8321SOL    HW333057   6.407   5.053   3.155 -0.4588 -0.2164 -1.4562
 8321SOL    MW433058   6.323   5.071   3.171 -0.0091  1.2310  0.1557
 8322SOL     OW33059   4.704   3.149   3.159 -0.3227  0.5498 -0.0243
 8322SOL    HW233060   4.788   3.194   3.156 -0.1579  0.2337 -0.2039
 8322SOL    HW333061   4.687   3.137   3.252  0.5901 -0.7694  0.0105
 8322SOL    MW433062   4.713   3.153   3.171 -0.2032 -0.2135 -0.1712
 8323SOL     OW33063   0.744   4.098   0.683  0.4408 -0.1552  0.2562
 8323SOL    HW233064   0.744   4.074   0.775 -0.3665  2.7970  1.1471
 8323SOL    HW333065   0.700   4.026   0.638 -1.8165 -0.3590  2.6086
 8323SOL    MW433066   0.738   4.086   0.689  0.1970  0.1485  0.5589
 8324SOL     OW33067   5.375   2.362   6.191 -0.2753  0.1050 -0.0058
 8324SOL    HW233068   5.330   2.279   6.180 -0.1446 -0.1558  1.2301
 8324SOL    HW333069   5.331   2.403   6.266  0.7706  0.3534  0.4949
 8324SOL    MW433070   5.364   2.357   6.200 -0.0796  0.0899  0.2604
 8325SOL     OW33071   0.855   3.729   1.630  0.0155 -0.3668  0.0050
 8325SOL    HW233072   0.801   3.659   1.667  0.0984 -0.2607  0.3341
 8325SOL    HW333073   0.820   3.809   1.670 -1.1793 -0.0191 -1.6342
 8325SOL    MW433074   0.843   3.730   1.640  0.6082  0.1737 -0.2970
 8326SOL     OW33075   0.067   6.110   4.197  0.1955 -0.8789  0.3402
 8326SOL    HW233076   0.159   6.131   4.214  0.1166 -0.6854  0.5370
 8326SOL    HW333077   0.063   6.092   4.103  0.5298 -1.3864  0.4191
 8326SOL    MW433078   0.078   6.110   4.187 -0.6859  0.3742 -0.5911
 8327SOL     OW33079   4.144   5.745   6.193 -0.2773  0.3881  0.2610
 8327SOL    HW233080   4.064   5.711   6.232 -0.2828  1.7100  1.5043
 8327SOL    HW333081   4.204   5.755   6.267  0.5353  0.7971 -0.4301
 8327SOL    MW433082   4.142   5.742   6.208 -0.4980 -0.2050 -0.6751
 8328SOL     OW33083   0.637   1.634   3.181 -0.1946  0.1939 -0.1095
 8328SOL    HW233084   0.567   1.669   3.125 -0.4544 -0.6858 -0.3409
 8328SOL    HW333085   0.656   1.548   3.144  0.4310  0.0821  0.4711
 8328SOL    MW433086   0.630   1.627   3.168  0.0824  0.0171 -0.5774
 8329SOL     OW33087   3.738   0.473   1.889 -0.2328  0.7469  0.2875
 8329SOL    HW233088   3.744   0.464   1.985 -1.1992  0.6585  0.3497
 8329SOL    HW333089   3.695   0.557   1.876 -0.9136  0.3554 -0.0401
 8329SOL    MW433090   3.733   0.483   1.900  0.2104 -0.0538  0.4665
 8330SOL     OW33091   0.943   3.872   4.568  0.1254  0.1353 -0.8635
 8330SOL    HW233092   0.892   3.791   4.566  0.1347  0.1294 -0.8615
 8330SOL    HW333093   0.956   3.895   4.476  0.4511 -0.0698 -0.8703
 8330SOL    MW433094   0.938   3.864   4.556  0.1173  0.0777  0.0971
 8331SOL     OW33095   1.034   5.412   5.093  0.2724  0.3011  0.1892
 8331SOL    HW233096   1.031   5.465   5.173  1.1992 -1.5052  1.5092
 8331SOL    HW333097   1.053   5.324   5.124 -3.8779 -1.4873 -1.6213
 8331SOL    MW433098   1.036   5.407   5.108  0.6188 -0.3373  0.2802
 8332SOL     OW33099   2.267   4.101   0.517  0.1701 -0.2443 -0.2173
 8332SOL    HW233100   2.361   4.098   0.499  0.4863  1.4049  1.0123
 8332SOL    HW333101   2.253   4.034   0.584  0.8076  0.7721  0.9521
 8332SOL    MW433102   2.277   4.092   0.523 -0.4102  0.7792 -0.0505
 8333SOL     OW33103   1.018   1.931   3.089 -0.2652  0.4163  0.0214
 8333SOL    HW233104   1.003   2.025   3.094 -0.2955  0.3694  3.4891
 8333SOL    HW333105   0.944   1.892   3.135  0.0597 -1.2678 -0.8020
 8333SOL    MW433106   1.007   1.938   3.096  0.5959 -0.1393 -0.0495
 8334SOL     OW33107   3.545   5.548   4.019  0.1203 -0.3854 -0.1084
 8334SOL    HW233108   3.616   5.509   4.069  0.3943  0.4606  0.1815
 8334SOL    HW333109   3.558   5.642   4.029 -1.4291 -0.2091  0.5060
 8334SOL    MW433110   3.556   5.555   4.027  0.3663  0.2066  0.2997
 8335SOL     OW33111   1.034   0.158   4.603 -0.6040 -0.3031  0.0451
 8335SOL    HW233112   1.046   0.121   4.516 -0.4737 -2.5062  0.9376
 8335SOL    HW333113   0.992   0.089   4.653  1.2778  0.0504  2.3138
 8335SOL    MW433114   1.030   0.144   4.598 -0.3311  0.2482  0.0709
 8336SOL     OW33115   4.717   3.118   5.913 -0.1151  0.0179 -0.6634
 8336SOL    HW233116   4.671   3.036   5.898 -0.6644  0.3238 -0.6479
 8336SOL    HW333117   4.784   3.120   5.845 -0.7355  0.0250 -1.2745
 8336SOL    MW433118   4.720   3.107   5.902  0.2354 -0.2619  0.0256
 8337SOL     OW33119   0.093   3.686   2.776  0.4343  0.0105 -0.1962
 8337SOL    HW233120   0.070   3.594   2.764 -1.8791  0.2149  1.6913
 8337SOL    HW333121   0.126   3.691   2.866  1.4013  0.8853 -0.5858
 8337SOL    MW433122   0.094   3.674   2.787  0.0859 -0.1867  0.1257
 8338SOL     OW33123   3.786   5.479   3.360  0.0159  0.1326  0.6989
 8338SOL    HW233124   3.837   5.496   3.439 -0.0875 -0.6228  0.9336
 8338SOL    HW333125   3.809   5.389   3.336 -0.8902 -0.0646  0.5674
 8338SOL    MW433126   3.796   5.469   3.367  0.0063  0.7477  0.1069
 8339SOL     OW33127   4.380   5.612   1.324  0.5935 -0.1902 -0.5086
 8339SOL    HW233128   4.464   5.575   1.296  1.1161  0.8646 -0.3803
 8339SOL    HW333129   4.345   5.655   1.245  0.2488 -0.4762 -0.5161
 8339SOL    MW433130   4.386   5.613   1.310  0.1207 -0.1033 -0.8270
 8340SOL     OW33131   1.729   0.655   1.468  0.0261 -0.2586 -0.0708
 8340SOL    HW233132   1.768   0.732   1.510 -1.2445  0.1650  0.3711
 8340SOL    HW333133   1.799   0.619   1.413  0.6815  1.1119 -0.1559
 8340SOL    MW433134   1.744   0.660   1.466 -0.3805  0.0720 -0.1380
 8341SOL     OW33135   4.085   6.086   1.839 -0.3031 -0.2665  0.3437
 8341SOL    HW233136   4.171   6.066   1.874 -0.7203 -0.8827  1.0590
 8341SOL    HW333137   4.081   6.038   1.756 -0.3888 -1.2110  0.8835
 8341SOL    MW433138   4.095   6.077   1.833  0.0325 -0.4159  0.6314
 8342SOL     OW33139   2.602   5.311   4.824 -0.7400  0.0749  0.4963
 8342SOL    HW233140   2.561   5.396   4.843  0.1485  0.4988  0.5566
 8342SOL    HW333141   2.623   5.314   4.731 -0.3965  0.0611  0.5715
 8342SOL    MW433142   2.599   5.323   4.814 -0.1846 -0.3114  0.3216
 8343SOL     OW33143   5.741   3.259   5.410  0.2446  0.1847 -0.7712
 8343SOL    HW233144   5.708   3.345   5.383 -1.0981  1.0454  2.9835
 8343SOL    HW333145   5.804   3.279   5.479 -0.0243 -1.8533  0.1156
 8343SOL    MW433146   5.745   3.273   5.415  0.4191 -0.6694 -0.5148
 8344SOL     OW33147   0.934   2.123   6.244 -0.5870  0.2009  0.0466
 8344SOL    HW233148   1.011   2.080   6.207 -0.7811  0.9492 -1.2623
 8344SOL    HW333149   0.869   2.052   6.251 -0.5735  0.0440 -1.1515
 8344SOL    MW433150   0.936   2.108   6.240 -0.3115  0.1083 -0.2704
 8345SOL     OW33151   0.119   2.027   0.465  0.2155  0.1643  0.0351
 8345SOL    HW233152   0.144   1.941   0.431  2.8473  2.1534 -3.8743
 8345SOL    HW333153   0.025   2.033   0.446 -0.0859 -1.8605  0.6069
 8345SOL    MW433154   0.110   2.016   0.458 -0.0959 -0.1679  0.3459
 8346SOL     OW33155   0.800   3.102   4.896  0.2236 -0.5554  0.5798
 8346SOL    HW233156   0.852   3.090   4.817 -0.4511 -0.4811  0.1243
 8346SOL    HW333157   0.865   3.100   4.967  0.9846  0.5957 -0.0492
 8346SOL    MW433158   0.816   3.100   4.895 -0.2423 -0.4750 -0.6971
 8347SOL     OW33159   4.047   1.375   2.495  0.0984 -0.2158 -0.0611
 8347SOL    HW233160   4.089   1.322   2.563  0.4015 -0.2374 -0.2620
 8347SOL    HW333161   3.990   1.314   2.448  0.5714 -0.4096 -0.3970
 8347SOL    MW433162   4.045   1.360   2.498 -0.3274 -0.0434  0.1220
 8348SOL     OW33163   5.180   0.722   3.345  0.6916 -0.1740  0.3298
 8348SOL    HW233164   5.189   0.722   3.249 -0.8344  0.4849  0.1609
 8348SOL    HW333165   5.239   0.653   3.375  1.2676 -0.3231 -1.0710
 8348SOL    MW433166   5.189   0.713   3.336 -0.4247  0.3436 -0.2479
 8349SOL     OW33167   5.474   0.858   0.659  0.6714 -0.0687 -0.8083
 8349SOL    HW233168   5.498   0.778   0.612  0.1014  0.4837 -2.1116
 8349SOL    HW333169   5.552   0.913   0.653  0.7432 -0.1658 -0.7536
 8349SOL    MW433170   5.487   0.855   0.652  0.5585 -0.0790 -0.9531
 8350SOL     OW33171   2.345   0.141   0.401  0.1324 -0.1289  0.2191
 8350SOL    HW233172   2.273   0.202   0.421  1.7840  1.9925  0.0654
 8350SOL    HW333173   2.360   0.152   0.307  1.8305  0.8911  0.5720
 8350SOL    MW433174   2.337   0.151   0.391 -0.1607 -0.2416 -0.2636
 8351SOL     OW33175   1.129   4.263   5.934  0.4188 -0.4826 -0.3333
 8351SOL    HW233176   1.066   4.249   5.864 -0.0029 -0.7271  0.0854
 8351SOL    HW333177   1.165   4.350   5.918 -2.7739  1.3606  1.5103
 8351SOL    MW433178   1.125   4.273   5.923 -0.2865  0.3942  0.5803
 8352SOL     OW33179   2.445   1.026   4.122 -0.1210 -0.4836  0.4347
 8352SOL    HW233180   2.387   1.097   4.096 -0.5514 -1.5489 -1.7068
 8352SOL    HW333181   2.387   0.951   4.134  0.7019 -1.4204 -1.1569
 8352SOL    MW433182   2.430   1.026   4.120  0.1528 -0.0894 -0.1534
 8353SOL     OW33183   2.695   5.656   0.354 -0.0755  0.0565 -0.3056
 8353SOL    HW233184   2.612   5.638   0.310 -0.8133  1.7326  0.3056
 8353SOL    HW333185   2.761   5.651   0.285 -0.9480  0.6177 -1.1938
 8353SOL    MW433186   2.693   5.653   0.339 -0.0236  0.5199  0.0376
 8354SOL     OW33187   4.392   5.078   5.994 -0.3034  0.3415 -0.2827
 8354SOL    HW233188   4.335   5.010   5.958 -0.5543  0.6925 -0.5509
 8354SOL    HW333189   4.439   5.113   5.918 -0.2528  0.5399 -0.1616
 8354SOL    MW433190   4.390   5.074   5.979 -0.4411  0.6006  0.3443
 8355SOL     OW33191   5.666   4.131   4.734 -0.3640  0.4808 -0.5850
 8355SOL    HW233192   5.744   4.095   4.692 -1.2519 -0.7890 -1.2305
 8355SOL    HW333193   5.631   4.058   4.785 -1.8959  0.5671 -1.4464
 8355SOL    MW433194   5.672   4.117   4.735  0.3057 -0.4899  0.5222
 8356SOL     OW33195   2.085   5.486   1.780 -0.0738 -0.3606  0.0001
 8356SOL    HW233196   2.173   5.478   1.743 -0.9063  0.1919 -2.2579
 8356SOL    HW333197   2.047   5.398   1.770  0.3977 -0.7650  1.5523
 8356SOL    MW433198   2.092   5.473   1.774 -0.5343  0.3779  0.2564
 8357SOL     OW33199   1.780   5.343   2.904  0.3076  0.5630  0.4873
 8357SOL    HW233200   1.811   5.256   2.927  2.7752  1.3848  0.5849
 8357SOL    HW333201   1.729   5.330   2.824  1.0659 -0.9146  0.2055
 8357SOL    MW433202   1.777   5.330   2.896  0.3273  0.1962 -0.8536
 8358SOL     OW33203   4.363   5.411   2.718  0.2197 -0.1675  0.5053
 8358SOL    HW233204   4.283   5.430   2.670 -0.4809 -1.9560  0.9048
 8358SOL    HW333205   4.334   5.364   2.797  1.5257  0.6846  1.5376
 8358SOL    MW433206   4.349   5.407   2.722 -0.0735 -0.3351  0.0963
 8359SOL     OW33207   5.376   2.678   0.128  0.0699  0.0421 -1.0034
 8359SOL    HW233208   5.438   2.608   0.150 -0.3567 -0.3484 -1.0359
 8359SOL    HW333209   5.432   2.754   0.111  0.4788  0.0831  0.3907
 8359SOL    MW433210   5.392   2.678   0.129 -0.0033  0.1434  0.2431
 8360SOL     OW33211   0.676   3.959   0.151  0.0902  0.3809  0.1853
 8360SOL    HW233212   0.715   4.044   0.131 -0.6519  0.7989  0.4811
 8360SOL    HW333213   0.729   3.925   0.223 -0.1845  1.0329  0.7140
 8360SOL    MW433214   0.688   3.966   0.158  0.5079 -0.0105 -0.1295
 8361SOL     OW33215   5.346   2.622   1.328 -0.3998 -0.1523 -0.3484
 8361SOL    HW233216   5.439   2.625   1.352 -0.4043 -1.7347 -0.0229
 8361SOL    HW333217   5.340   2.550   1.266 -1.5886 -0.8705  0.5626
 8361SOL    MW433218   5.358   2.613   1.323 -0.6946  0.0848 -0.6752
 8362SOL     OW33219   0.076   2.755   3.201 -0.0556 -0.5387  0.3564
 8362SOL    HW233220   0.122   2.695   3.142 -0.1083 -2.0778  1.7896
 8362SOL    HW333221   0.095   2.721   3.288 -3.3560 -0.8807  1.0716
 8362SOL    MW433222   0.084   2.743   3.205 -0.0766  0.4902  0.2988
 8363SOL     OW33223   2.103   3.504   2.017 -0.1742  0.2424 -0.2573
 8363SOL    HW233224   2.135   3.581   2.064 -1.1958 -0.3238  1.4519
 8363SOL    HW333225   2.167   3.490   1.947  1.9699  0.5826  1.5336
 8363SOL    MW433226   2.116   3.512   2.014 -0.4228 -0.4194 -0.0772
 8364SOL     OW33227   3.457   3.820   6.158  0.1506  0.0214  0.5379
 8364SOL    HW233228   3.370   3.807   6.119  0.7625 -1.1316 -0.5287
 8364SOL    HW333229   3.453   3.774   6.241  0.0723 -1.0369 -0.0297
 8364SOL    MW433230   3.445   3.812   6.164  0.0104 -0.5829 -0.0341
 8365SOL     OW33231   4.710   0.697   1.392 -0.2111 -0.2137 -0.5562
 8365SOL    HW233232   4.679   0.784   1.417  0.1430 -0.3333  0.3302
 8365SOL    HW333233   4.638   0.660   1.340 -1.4521 -0.3477  1.1537
 8365SOL    MW433234   4.696   0.703   1.388  0.3334  0.2860 -0.0032
 8366SOL     OW33235   3.887   2.673   5.387 -0.5219 -0.0179 -0.0819
 8366SOL    HW233236   3.975   2.707   5.404  0.0019 -1.5660  0.4819
 8366SOL    HW333237   3.893   2.631   5.301 -0.4903 -0.7865  0.2872
 8366SOL    MW433238   3.899   2.672   5.378 -0.2394  0.0021  0.2730
 8367SOL     OW33239   2.142   5.471   5.358  0.0504 -0.1028  0.1597
 8367SOL    HW233240   2.185   5.469   5.444 -0.5481  0.1164  0.4696
 8367SOL    HW333241   2.150   5.382   5.325  0.5443 -0.1195  0.3089
 8367SOL    MW433242   2.149   5.459   5.365 -0.5911 -0.5167 -0.0797
 8368SOL     OW33243   2.809   4.230   2.151  0.0859  0.4441 -0.1603
 8368SOL    HW233244   2.896   4.239   2.191  0.4717 -1.0216 -0.6066
 8368SOL    HW333245   2.749   4.265   2.216  0.8147 -0.7416  1.1995
 8368SOL    MW433246   2.812   4.236   2.165 -0.2231  0.5595 -0.3144
 8369SOL     OW33247   5.226   0.065   5.050 -0.0738  0.4138  0.2446
 8369SOL    HW233248   5.155   0.005   5.026  0.3964 -0.5669  1.2331
 8369SOL    HW333249   5.184   0.150   5.057 -1.5020 -0.3857  2.2832
 8369SOL    MW433250   5.211   0.068   5.048 -0.1637  0.1425  0.3099
 8370SOL     OW33251   5.317   5.057   1.926 -0.3524 -0.1700  0.0822
 8370SOL    HW233252   5.288   4.986   1.984 -1.8507 -1.0511 -1.6315
 8370SOL    HW333253   5.335   5.014   1.843  0.7631  1.1951 -0.4136
 8370SOL    MW433254   5.316   5.042   1.923 -0.3348  0.0688 -0.4031
 8371SOL     OW33255   0.447   3.697   4.825  0.4168  0.4176  0.1115
 8371SOL    HW233256   0.524   3.724   4.876  0.5683  1.3882 -0.6033
 8371SOL    HW333257   0.384   3.768   4.838  0.0501  0.1445 -0.1678
 8371SOL    MW433258   0.449   3.710   4.833 -0.3676 -0.7119 -0.3274
 8372SOL     OW33259   4.233   3.611   4.752  0.2532 -0.4893 -0.3910
 8372SOL    HW233260   4.270   3.697   4.733 -2.0091  0.4875 -0.6806
 8372SOL    HW333261   4.247   3.560   4.672 -1.8323  0.9254 -1.7603
 8372SOL    MW433262   4.239   3.616   4.739 -0.6192  0.2651  0.4457
 8373SOL     OW33263   2.240   0.081   6.109 -0.6509 -0.0077  0.4905
 8373SOL    HW233264   2.155   0.037   6.115 -0.0884 -1.0323  1.4534
 8373SOL    HW333265   2.286   0.056   6.190 -0.4132  2.6561  1.2938
 8373SOL    MW433266   2.235   0.072   6.121  0.4505 -0.0021  0.1310
 8374SOL     OW33267   3.931   2.001   3.801  0.0073 -0.4291  0.8969
 8374SOL    HW233268   3.951   2.058   3.875 -2.7483  0.5732  0.9818
 8374SOL    HW333269   3.992   2.028   3.733  0.2964  1.0457  1.6894
 8374SOL    MW433270   3.942   2.012   3.802  0.4212  0.3434 -0.3087
 8375SOL     OW33271   3.071   3.023   0.842 -0.5585 -0.0529 -0.1090
 8375SOL    HW233272   3.046   2.969   0.767  0.2849  1.7912 -1.8134
 8375SOL    HW333273   2.991   3.071   0.864 -0.7207 -0.3627 -0.0100
 8375SOL    MW433274   3.057   3.022   0.835  0.7164  0.7480 -0.2933
 8376SOL     OW33275   2.730   5.113   3.109  0.0185  0.1396 -0.1352
 8376SOL    HW233276   2.702   5.199   3.078  1.4579  0.3560 -0.9183
 8376SOL    HW333277   2.739   5.124   3.204  0.6539  1.0265 -0.2782
 8376SOL    MW433278   2.728   5.126   3.118 -0.4758 -0.3840 -0.0433
 8377SOL     OW33279   0.264   2.486   4.129  0.4261  0.0205 -0.0361
 8377SOL    HW233280   0.312   2.490   4.212  0.3596  1.3394 -0.0431
 8377SOL    HW333281   0.284   2.399   4.094  0.5548 -0.5116  1.2939
 8377SOL    MW433282   0.273   2.475   4.136  0.2012  0.1956 -0.4259
 8378SOL     OW33283   1.384   4.297   0.975 -0.5344 -0.5758  0.1943
 8378SOL    HW233284   1.408   4.355   0.903 -0.8498 -0.2193  0.3692
 8378SOL    HW333285   1.411   4.210   0.947  0.8078 -0.2156  0.3115
 8378SOL    MW433286   1.390   4.293   0.962  0.2179  0.2968  0.1184
 8379SOL     OW33287   3.182   2.884   3.838 -0.1873 -0.6110 -0.6145
 8379SOL    HW233288   3.253   2.872   3.774 -1.5709 -1.3112 -2.0722
 8379SOL    HW333289   3.122   2.946   3.795 -0.2931  0.2903  0.7725
 8379SOL    MW433290   3.184   2.891   3.824  0.2519  0.1884 -0.2042
 8380SOL     OW33291   3.948   3.326   0.244  0.3258 -0.2200  0.0864
 8380SOL    HW233292   3.954   3.414   0.206 -2.6127  0.1076  0.1749
 8380SOL    HW333293   3.957   3.340   0.338  3.1630 -0.5098 -0.0442
 8380SOL    MW433294   3.950   3.339   0.251  0.6773  0.2054  0.1659
 8381SOL     OW33295   3.897   1.347   4.545 -0.1572  0.1787  0.8763
 8381SOL    HW233296   3.866   1.430   4.582  0.9019  0.0379  2.1405
 8381SOL    HW333297   3.873   1.281   4.609  3.1834  0.1288  2.2950
 8381SOL    MW433298   3.890   1.350   4.558  0.7887  0.2642  0.0308
 8382SOL     OW33299   4.892   5.499   6.451 -0.5242  0.2613 -0.5020
 8382SOL    HW233300   4.826   5.475   6.516 -0.9304  0.6919 -0.7388
 8382SOL    HW333301   4.973   5.458   6.481 -0.8861 -0.2129 -0.1624
 8382SOL    MW433302   4.894   5.490   6.463 -0.2137  0.3888  0.4080
 8383SOL     OW33303   0.083   3.765   5.788  0.4192 -0.5938  0.4413
 8383SOL    HW233304  -0.007   3.745   5.816  0.0756  0.7064  0.3335
 8383SOL    HW333305   0.132   3.775   5.870  0.3680 -0.8647  0.5063
 8383SOL    MW433306   0.077   3.763   5.803  0.1342 -0.5038  0.3005
 8384SOL     OW33307   1.699   4.650   1.858  0.6732 -0.3885 -0.5950
 8384SOL    HW233308   1.750   4.668   1.937  0.4377 -1.4576 -0.1883
 8384SOL    HW333309   1.673   4.737   1.826 -1.3273  0.0505  1.8995
 8384SOL    MW433310   1.702   4.664   1.864 -0.0575  0.7065 -0.0288
 8385SOL     OW33311   4.608   3.523   5.656  0.5425  0.1596 -0.0991
 8385SOL    HW233312   4.628   3.608   5.617  0.7546 -0.0022 -0.3482
 8385SOL    HW333313   4.586   3.543   5.747 -1.2420  0.6936 -0.6193
 8385SOL    MW433314   4.608   3.537   5.663 -0.0246 -0.3364  0.5691
 8386SOL     OW33315   1.375   2.194   6.104 -0.1337 -0.9320  0.4083
 8386SOL    HW233316   1.338   2.191   6.193 -1.4943 -2.9037 -0.1640
 8386SOL    HW333317   1.315   2.250   6.055 -0.1025 -0.8739  0.4369
 8386SOL    MW433318   1.362   2.201   6.110 -0.3892  0.4917  0.0240
 8387SOL     OW33319   4.101   5.670   2.314  0.5728  0.2565 -0.2634
 8387SOL    HW233320   4.158   5.597   2.338 -1.7501 -0.9918  1.9954
 8387SOL    HW333321   4.045   5.635   2.244  0.5661  0.4322 -0.3459
 8387SOL    MW433322   4.101   5.656   2.308  0.3459 -0.1409 -0.5689
 8388SOL     OW33323   4.537   4.848   0.885 -0.7088 -0.2142  0.1407
 8388SOL    HW233324   4.478   4.824   0.814  2.1410  0.2201 -2.6431
 8388SOL    HW333325   4.527   4.943   0.893 -0.8140 -0.2173  0.0513
 8388SOL    MW433326   4.528   4.858   0.877 -0.0005 -0.2694  0.3509
 8389SOL     OW33327   0.286   1.519   3.088 -0.0574  0.1720  0.0192
 8389SOL    HW233328   0.198   1.489   3.069  0.4316 -1.3877  0.1075
 8389SOL    HW333329   0.343   1.466   3.032  0.8492  1.0212  0.0921
 8389SOL    MW433330   0.282   1.508   3.078  0.1220 -0.0122 -0.2419
 8390SOL     OW33331   3.620   4.444   3.246 -0.0658  0.0112 -0.3662
 8390SOL    HW233332   3.573   4.391   3.182 -1.5774 -1.9700  2.2031
 8390SOL    HW333333   3.700   4.394   3.265 -0.7581 -0.6185  0.9593
 8390SOL    MW433334   3.625   4.430   3.240 -0.5153  0.4991  0.0428
 8391SOL     OW33335   1.347   4.871   4.486 -0.0599 -0.4195  0.5658
 8391SOL    HW233336   1.395   4.912   4.558 -2.4896 -0.7633  2.4991
 8391SOL    HW333337   1.301   4.944   4.445  1.2985 -0.2292 -0.7156
 8391SOL    MW433338   1.348   4.886   4.490 -0.5587 -0.0202 -0.6623
 8392SOL     OW33339   0.249   3.589   3.919 -0.5284 -0.7356  0.1973
 8392SOL    HW233340   0.191   3.621   3.851 -2.0517 -2.7423  0.4644
 8392SOL    HW333341   0.193   3.580   3.996  0.8553  0.2008  1.3762
 8392SOL    MW433342   0.234   3.592   3.921  0.4161  0.7503 -0.0505
 8393SOL     OW33343   1.763   3.541   3.898 -0.4774 -0.1738 -0.2247
 8393SOL    HW233344   1.757   3.637   3.900 -0.8611 -0.2018  0.2026
 8393SOL    HW333345   1.856   3.523   3.907 -0.2111  0.1876 -1.9173
 8393SOL    MW433346   1.774   3.552   3.900  0.8748  0.3029  0.3624
 8394SOL     OW33347   0.744   5.663   2.503 -0.1898  0.2186 -0.4927
 8394SOL    HW233348   0.671   5.601   2.509 -0.4079  0.5956  1.3600
 8394SOL    HW333349   0.822   5.609   2.516 -0.3633  0.2662  0.8566
 8394SOL    MW433350   0.744   5.648   2.506  0.1365 -0.1863 -0.7924
 8395SOL     OW33351   1.847   2.622   1.790  0.4976 -0.0714 -0.2695
 8395SOL    HW233352   1.808   2.704   1.817  0.3715 -0.2619  0.1338
 8395SOL    HW333353   1.794   2.554   1.833 -0.5211 -0.4427 -2.0223
 8395SOL    MW433354   1.835   2.624   1.799  0.4256  0.2859  0.0527
 8396SOL     OW33355   0.371   1.391   4.660 -0.1689  0.2033  0.8387
 8396SOL    HW233356   0.293   1.402   4.714  0.6189 -0.3124  2.1522
 8396SOL    HW333357   0.431   1.341   4.716  0.3447 -1.1985 -0.8823
 8396SOL    MW433358   0.369   1.386   4.674 -0.4084  0.2427 -0.6863
 8397SOL     OW33359   5.472   3.196   1.295 -0.3082  0.1347  0.2888
 8397SOL    HW233360   5.504   3.126   1.239 -1.1036  0.3672 -0.4703
 8397SOL    HW333361   5.468   3.156   1.382  0.9024 -0.2320  0.1957
 8397SOL    MW433362   5.476   3.181   1.299  0.0561  0.0644  0.4207
 8398SOL     OW33363   5.942   3.572   4.018  0.0259 -0.0842 -0.5209
 8398SOL    HW233364   6.016   3.512   4.018 -0.1388 -0.3322  1.2170
 8398SOL    HW333365   5.894   3.552   3.937  1.6425 -0.1401 -1.5076
 8398SOL    MW433366   5.945   3.562   4.007 -1.4684  0.7231 -0.5038
 8399SOL     OW33367   2.338   4.108   1.712 -0.2896  0.2430  0.1738
 8399SOL    HW233368   2.402   4.041   1.738 -1.3409 -1.3132 -1.0177
 8399SOL    HW333369   2.255   4.078   1.749 -0.2288  3.0089  2.9813
 8399SOL    MW433370   2.336   4.095   1.720 -0.4092  0.2725  0.0571
 8400SOL     OW33371   0.448   1.792   1.132  0.3353  0.3670  0.4191
 8400SOL    HW233372   0.429   1.864   1.071 -1.6707  0.2654  0.8535
 8400SOL    HW333373   0.383   1.725   1.110  1.2615 -0.7296  0.9715
 8400SOL    MW433374   0.437   1.793   1.121  0.0286 -0.1887 -0.7553
 8401SOL     OW33375   3.068   1.577   4.644 -0.4144  0.8035 -0.2617
 8401SOL    HW233376   3.095   1.491   4.675 -0.7566  1.0064  0.6321
 8401SOL    HW333377   3.150   1.626   4.634 -0.2212  0.3947 -0.7433
 8401SOL    MW433378   3.082   1.572   4.647 -0.4915  0.4991  0.5274
 8402SOL     OW33379   0.031   6.025   6.351  0.2192  0.0877 -0.2140
 8402SOL    HW233380  -0.062   6.023   6.328  0.2731  0.6524 -0.4910
 8402SOL    HW333381   0.064   6.105   6.311  0.6043  0.4150  0.7316
 8402SOL    MW433382   0.023   6.035   6.343  0.4951  0.0769 -0.2356
 8403SOL     OW33383   1.090   1.470   5.969 -0.2894  0.2212  0.0878
 8403SOL    HW233384   1.037   1.418   6.030  0.8180 -0.5874  0.4004
 8403SOL    HW333385   1.027   1.510   5.910 -1.2714 -0.3744  0.7050
 8403SOL    MW433386   1.075   1.468   5.970 -0.3873 -0.1637  0.1566
 8404SOL     OW33387   3.386   1.020   2.190  0.5478 -0.0404  0.2250
 8404SOL    HW233388   3.475   1.040   2.161 -0.1210  1.5814 -0.9059
 8404SOL    HW333389   3.345   0.980   2.113  0.1344 -0.2244  0.5375
 8404SOL    MW433390   3.392   1.017   2.176 -0.6719 -0.3663 -0.4756
 8405SOL     OW33391   1.908   4.867   0.465  0.3350  0.4711 -0.5077
 8405SOL    HW233392   1.851   4.818   0.524  0.1815  0.9190 -0.2838
 8405SOL    HW333393   1.932   4.946   0.514 -0.0572  1.0044 -1.1624
 8405SOL    MW433394   1.903   4.871   0.479 -0.8697 -0.0992 -0.0911
 8406SOL     OW33395   3.985   3.651   0.937  0.1128 -0.5497  0.1293
 8406SOL    HW233396   3.940   3.733   0.960  2.2854  1.1563 -1.2338
 8406SOL    HW333397   4.007   3.662   0.844 -0.1177 -3.0187 -0.2712
 8406SOL    MW433398   3.982   3.663   0.927 -0.1048  0.4093 -0.7518
 8407SOL     OW33399   5.585   5.609   6.138  0.0275  0.4251 -0.3470
 8407SOL    HW233400   5.649   5.639   6.074  2.6077 -1.3676  1.1875
 8407SOL    HW333401   5.544   5.534   6.097  0.9436 -0.1092 -0.3108
 8407SOL    MW433402   5.588   5.603   6.124 -0.1606 -0.0197 -0.3821
 8408SOL     OW33403   5.223   3.234   4.280  0.5997 -0.1474 -0.6394
 8408SOL    HW233404   5.143   3.282   4.263  1.0499  0.3406 -1.4489
 8408SOL    HW333405   5.207   3.189   4.363 -0.6080 -0.2889 -0.9276
 8408SOL    MW433406   5.211   3.234   4.289 -0.0171  0.1255 -0.3542
 8409SOL     OW33407   2.727   0.474   1.211  0.2742  0.1547  0.4242
 8409SOL    HW233408   2.746   0.553   1.161 -0.7113 -0.0933 -0.3892
 8409SOL    HW333409   2.794   0.411   1.182 -1.2227 -0.4962 -1.8727
 8409SOL    MW433410   2.739   0.476   1.200 -0.0972 -0.0162 -0.1638
 8410SOL     OW33411   4.314   1.997   4.436  0.1962  0.0995 -1.0016
 8410SOL    HW233412   4.274   1.911   4.450 -0.5487  0.4045 -1.2097
 8410SOL    HW333413   4.337   2.028   4.523 -0.4382  0.1107 -0.8330
 8410SOL    MW433414   4.312   1.989   4.449 -0.6428  0.2482 -0.1960
 8411SOL     OW33415   0.098   3.556   4.155 -0.0289  0.1928  0.3292
 8411SOL    HW233416   0.175   3.548   4.211  0.3760 -0.3722 -0.2892
 8411SOL    HW333417   0.070   3.466   4.140 -1.8247  0.4268  1.8903
 8411SOL    MW433418   0.104   3.543   4.160 -0.3678 -0.1783  0.4090
 8412SOL     OW33419   6.145   3.696   5.465 -0.6267 -0.0775 -0.2834
 8412SOL    HW233420   6.121   3.749   5.541 -1.0528 -1.0685  0.2789
 8412SOL    HW333421   6.208   3.633   5.498 -0.9539 -0.6340 -0.7039
 8412SOL    MW433422   6.150   3.695   5.479  0.0713 -0.2091  0.4210
 8413SOL     OW33423   5.635   4.979   4.564  0.0809  0.6741 -0.3337
 8413SOL    HW233424   5.618   4.906   4.504  0.7236  1.1015 -1.0536
 8413SOL    HW333425   5.725   5.005   4.545  0.0586  1.2793  0.3340
 8413SOL    MW433426   5.645   4.973   4.554  0.0311 -0.0130  0.2518
 8414SOL     OW33427   4.083   0.011   5.201  0.3614  0.1950 -0.1412
 8414SOL    HW233428   4.143   0.082   5.180 -0.2429  0.3963 -1.2897
 8414SOL    HW333429   4.028   0.003   5.123 -1.7632  0.6780  1.2359
 8414SOL    MW433430   4.084   0.019   5.188  0.0500  0.0318  0.4264
 8415SOL     OW33431   2.374   6.192   5.058  0.0553 -0.0786  0.0096
 8415SOL    HW233432   2.443   6.190   4.992  1.7783  0.6023  1.6861
 8415SOL    HW333433   2.353   6.284   5.069  0.3010 -0.1135  0.8797
 8415SOL    MW433434   2.380   6.204   5.051 -0.5167 -0.1623 -0.1797
 8416SOL     OW33435   5.147   5.178   0.998  0.2850  0.3166  0.3235
 8416SOL    HW233436   5.190   5.259   0.971  1.3025 -0.6179 -0.9884
 8416SOL    HW333437   5.215   5.111   0.990  0.0329 -0.4146  3.2334
 8416SOL    MW433438   5.162   5.180   0.993 -0.2223 -0.1441  0.1550
 8417SOL     OW33439   1.137   5.195   2.038 -0.3057 -0.2543  0.3892
 8417SOL    HW233440   1.223   5.224   2.008  0.9251 -3.2155  0.7348
 8417SOL    HW333441   1.108   5.264   2.098  1.8943  0.7271  0.4207
 8417SOL    MW433442   1.144   5.208   2.042  0.2677 -0.1242  0.3395
 8418SOL     OW33443   5.326   1.204   4.379 -0.1731 -0.1702 -0.1050
 8418SOL    HW233444   5.279   1.262   4.439 -2.0851 -0.9685 -0.7837
 8418SOL    HW333445   5.348   1.260   4.304  2.9738  1.0678  1.5144
 8418SOL    MW433446   5.323   1.219   4.377 -0.2130 -0.4593  0.1821
 8419SOL     OW33447   5.910   0.801   5.424 -0.8359  0.2811 -0.0587
 8419SOL    HW233448   5.912   0.819   5.330  0.2913 -0.9772 -0.2995
 8419SOL    HW333449   5.927   0.886   5.465  0.7216  0.4937 -1.0573
 8419SOL    MW433450   5.913   0.814   5.417  0.5717  0.0048 -0.3044
 8420SOL     OW33451   0.435   5.480   6.040 -0.2262 -0.0202 -0.4824
 8420SOL    HW233452   0.440   5.403   6.097  2.0358  0.5514  0.2110
 8420SOL    HW333453   0.446   5.554   6.100 -1.4163  0.8128 -1.2574
 8420SOL    MW433454   0.437   5.479   6.056 -0.0364  0.0145 -0.1338
 8421SOL     OW33455   5.595   1.635   1.856 -0.2839 -0.0192 -0.7152
 8421SOL    HW233456   5.689   1.618   1.865  0.6836  4.3107  0.1530
 8421SOL    HW333457   5.581   1.642   1.762  0.5220  0.2248 -0.8287
 8421SOL    MW433458   5.605   1.634   1.845  0.4198  0.6057 -0.0420
 8422SOL     OW33459   3.301   3.761   5.747  0.6342  0.2190 -0.8405
 8422SOL    HW233460   3.366   3.691   5.757 -0.5657 -0.7725  0.3816
 8422SOL    HW333461   3.219   3.715   5.730 -0.2158  1.3327  0.1476
 8422SOL    MW433462   3.299   3.746   5.746 -0.1618  0.0396  0.2478
 8423SOL     OW33463   6.325   0.291   3.547 -0.5938 -0.3654 -0.2984
 8423SOL    HW233464   6.251   0.327   3.597 -0.5525 -1.2209  0.4045
 8423SOL    HW333465   6.356   0.365   3.493 -3.1968 -0.4651 -2.1303
 8423SOL    MW433466   6.319   0.306   3.546 -0.3087 -0.5441 -0.1963
 8424SOL     OW33467   5.498   0.622   5.497  0.0274  0.4921 -0.7080
 8424SOL    HW233468   5.499   0.704   5.448  0.7493  0.0831 -1.3831
 8424SOL    HW333469   5.575   0.627   5.554  0.2078  0.1755 -0.9252
 8424SOL    MW433470   5.508   0.634   5.498 -0.2017 -0.9777 -0.0132
 8425SOL     OW33471   3.897   2.766   3.843 -0.5528 -0.7251  0.4872
 8425SOL    HW233472   3.909   2.832   3.911  0.2728 -1.4502  1.0683
 8425SOL    HW333473   3.871   2.687   3.890  1.7393 -1.7302  0.2045
 8425SOL    MW433474   3.895   2.764   3.858  0.3434  0.8659  0.0650
 8426SOL     OW33475   3.756   1.662   1.914 -0.0440  0.4375 -0.2120
 8426SOL    HW233476   3.805   1.715   1.978 -0.3339 -0.5585  0.8672
 8426SOL    HW333477   3.765   1.572   1.945 -0.2956 -0.0603 -1.5261
 8426SOL    MW433478   3.764   1.657   1.927 -0.0969 -0.5864  0.1810
 8427SOL     OW33479   2.131   0.108   2.238 -0.1567  0.2261 -0.1061
 8427SOL    HW233480   2.112   0.197   2.209  0.0561  0.6383  0.9865
 8427SOL    HW333481   2.046   0.071   2.262 -0.5058 -0.5292 -2.2816
 8427SOL    MW433482   2.118   0.115   2.237 -0.1868  0.4791  0.0454
 8428SOL     OW33483   3.198   6.349   4.937 -0.6426  0.0144 -0.1602
 8428SOL    HW233484   3.194   6.278   5.002 -0.5675 -0.6780 -0.8922
 8428SOL    HW333485   3.114   6.344   4.891 -0.5811  0.3120 -0.3055
 8428SOL    MW433486   3.187   6.339   4.939  0.1776 -0.4359  0.1471
 8429SOL     OW33487   4.158   3.389   2.101 -0.0711 -0.0324 -0.3975
 8429SOL    HW233488   4.095   3.317   2.110  1.4058 -1.3186  0.0994
 8429SOL    HW333489   4.106   3.463   2.070 -1.6310 -1.3337 -1.0104
 8429SOL    MW433490   4.143   3.389   2.098  0.3883  0.2862 -0.1026
 8430SOL     OW33491   1.018   5.097   0.574 -0.0426 -0.1010  0.6595
 8430SOL    HW233492   1.033   5.100   0.480  0.0785  0.5572  0.6926
 8430SOL    HW333493   0.955   5.027   0.587  1.0244 -1.1759  0.2363
 8430SOL    MW433494   1.012   5.088   0.563 -0.5634  0.7462  0.4390
 8431SOL     OW33495   5.571   0.521   4.468  0.4123  0.0158  0.0487
 8431SOL    HW233496   5.533   0.609   4.458  0.8910  0.2134 -0.0748
 8431SOL    HW333497   5.600   0.498   4.379  0.7232 -0.0625  0.1682
 8431SOL    MW433498   5.570   0.530   4.455  0.0319  0.0116 -0.3595
 8432SOL     OW33499   0.707   6.249   5.659 -0.2129  0.0156 -0.3218
 8432SOL    HW233500   0.626   6.262   5.610 -0.4778 -1.0615 -0.1918
 8432SOL    HW333501   0.767   6.208   5.597  0.4855  1.4258 -0.6184
 8432SOL    MW433502   0.704   6.245   5.645  0.1740  0.3104 -0.1419
 8433SOL     OW33503   3.324   4.263   0.962  0.7868  0.2091  0.4406
 8433SOL    HW233504   3.305   4.281   1.054  0.9510  1.9134  0.1691
 8433SOL    HW333505   3.276   4.331   0.914  3.3297  1.4360 -0.5273
 8433SOL    MW433506   3.315   4.274   0.968 -0.2745 -0.2728 -0.4573
 8434SOL     OW33507   5.364   1.389   1.658 -0.0774 -0.8041  0.1958
 8434SOL    HW233508   5.418   1.468   1.659 -1.4196  0.1514  0.1167
 8434SOL    HW333509   5.426   1.318   1.641  1.0156  0.3394 -0.8315
 8434SOL    MW433510   5.379   1.390   1.656 -0.0537 -0.1790  0.2264
 8435SOL     OW33511   0.297   6.019   0.247  0.2445  0.1746  0.4032
 8435SOL    HW233512   0.239   5.946   0.271  0.7772 -0.8356 -1.2285
 8435SOL    HW333513   0.385   5.987   0.267  0.4497  0.5428  0.1037
 8435SOL    MW433514   0.301   6.005   0.253 -0.0954  0.0895  0.1798
 8436SOL     OW33515   1.957   3.814   6.157  0.0655 -0.0691 -0.1453
 8436SOL    HW233516   1.921   3.819   6.068 -1.3065 -1.8343  0.2338
 8436SOL    HW333517   2.051   3.825   6.145 -0.1950  0.8584 -1.6767
 8436SOL    MW433518   1.964   3.816   6.143  0.3904  0.3534  0.9053
 8437SOL     OW33519   0.278   1.598   5.788 -0.0601  0.1292 -0.5472
 8437SOL    HW233520   0.309   1.511   5.765  1.2132  0.6716 -0.9869
 8437SOL    HW333521   0.253   1.638   5.704 -4.2803 -1.0466 -0.0760
 8437SOL    MW433522   0.279   1.592   5.774 -0.0410  0.1688  0.8712
 8438SOL     OW33523   4.787   0.994   4.253 -0.0407  0.0946  0.0561
 8438SOL    HW233524   4.790   0.921   4.191  0.6611 -0.5995  0.8805
 8438SOL    HW333525   4.879   1.019   4.264 -0.3143  1.4909 -0.6494
 8438SOL    MW433526   4.799   0.988   4.246 -0.1228 -0.6264 -0.1029
 8439SOL     OW33527   3.493   1.269   0.535 -0.1170 -0.3579 -0.4751
 8439SOL    HW233528   3.459   1.228   0.614  0.4221 -0.4171 -0.2727
 8439SOL    HW333529   3.575   1.309   0.562 -0.5570  0.7349 -0.7037
 8439SOL    MW433530   3.499   1.269   0.549 -0.2757 -0.0538  0.4650
 8440SOL     OW33531   2.715   2.039   2.659 -0.5847 -0.2019 -0.6190
 8440SOL    HW233532   2.750   2.015   2.745 -0.6199  0.4675 -0.4132
 8440SOL    HW333533   2.790   2.072   2.611 -0.5393 -0.6988 -0.8985
 8440SOL    MW433534   2.729   2.040   2.664 -0.9098 -0.1498 -0.1083
 8441SOL     OW33535   1.068   6.212   0.719  0.0849  0.2787 -0.4547
 8441SOL    HW233536   1.022   6.198   0.801  1.5265  1.1782  0.5457
 8441SOL    HW333537   1.046   6.302   0.694  1.7175  0.9211  0.3392
 8441SOL    MW433538   1.059   6.222   0.726  0.2322  0.5984  0.1736
 8442SOL     OW33539   3.090   3.938   2.962  0.4718  0.1518  0.0333
 8442SOL    HW233540   3.158   3.935   3.029  1.4768  2.4282 -0.7972
 8442SOL    HW333541   3.107   4.018   2.913 -1.5699 -0.2843 -1.5547
 8442SOL    MW433542   3.101   3.948   2.965 -0.0719 -0.2663  0.1496
 8443SOL     OW33543   1.074   0.713   1.940 -0.3641 -0.8176  0.1205
 8443SOL    HW233544   0.999   0.734   1.995  0.4395  2.0678  0.2491
 8443SOL    HW333545   1.148   0.708   2.001  0.3667  1.4453 -0.4971
 8443SOL    MW433546   1.074   0.715   1.955  0.1238  0.1928  0.0794
 8444SOL     OW33547   3.819   2.719   6.161  0.4960 -0.2400 -0.1624
 8444SOL    HW233548   3.773   2.790   6.205  0.5925  0.0749 -0.5705
 8444SOL    HW333549   3.851   2.757   6.080  0.4306 -0.7836 -0.4501
 8444SOL    MW433550   3.817   2.733   6.156  0.0774  0.0171 -0.4904
 8445SOL     OW33551   5.232   2.775   1.133  1.0003 -0.0853 -0.2578
 8445SOL    HW233552   5.294   2.766   1.061  1.5177 -1.8781  0.3689
 8445SOL    HW333553   5.274   2.731   1.206 -0.4892 -0.2398  0.5308
 8445SOL    MW433554   5.246   2.768   1.133 -0.2787 -0.0288  0.3373
 8446SOL     OW33555   4.206   4.544   3.649  0.0158  0.0934  0.4076
 8446SOL    HW233556   4.259   4.478   3.694  0.8309 -0.4239 -1.2307
 8446SOL    HW333557   4.212   4.621   3.706  0.1797 -0.8099  1.6695
 8446SOL    MW433558   4.214   4.545   3.663 -0.0693  0.1549 -0.2086
 8447SOL     OW33559   1.254   3.988   1.178 -0.1228 -0.5012  0.5232
 8447SOL    HW233560   1.239   3.908   1.127  1.4224 -0.4707 -0.0292
 8447SOL    HW333561   1.347   3.983   1.203  0.0513  1.2133  0.3068
 8447SOL    MW433562   1.264   3.977   1.175  0.6845  0.1782 -0.2159
 8448SOL     OW33563   0.602   6.317   1.685 -0.1891  0.5878 -0.3531
 8448SOL    HW233564   0.654   6.237   1.670 -0.0117  0.4858  0.7276
 8448SOL    HW333565   0.616   6.370   1.607  0.5254  0.0045 -0.6292
 8448SOL    MW433566   0.611   6.313   1.673 -0.0871  0.0499  0.4618
 8449SOL     OW33567   2.259   6.393   1.001 -0.1514  0.0473  0.0966
 8449SOL    HW233568   2.244   6.422   1.091  0.2728  0.2114  0.1162
 8449SOL    HW333569   2.352   6.410   0.986  0.0526 -1.0564  0.0163
 8449SOL    MW433570   2.269   6.399   1.011  0.3479  0.1607  0.2448
 8450SOL     OW33571   1.422   0.669   1.809 -0.4103 -0.4998  0.3847
 8450SOL    HW233572   1.396   0.646   1.720 -1.3346  2.0498 -0.0986
 8450SOL    HW333573   1.365   0.617   1.865 -0.5836 -1.3072 -0.5117
 8450SOL    MW433574   1.411   0.659   1.805 -0.0132  0.1291 -0.2573
 8451SOL     OW33575   4.826   5.008   0.125  0.5413  0.4680 -0.3167
 8451SOL    HW233576   4.835   4.920   0.088  2.3605  0.6416 -0.3913
 8451SOL    HW333577   4.790   5.060   0.053  2.2211  0.3799 -1.3043
 8451SOL    MW433578   4.823   5.003   0.110 -0.3310 -0.1519 -0.5348
 8452SOL     OW33579   1.213   5.535   3.997  0.3017 -0.3319  0.0169
 8452SOL    HW233580   1.238   5.625   3.976 -0.0340 -0.5406 -1.3296
 8452SOL    HW333581   1.139   5.545   4.057 -0.3639  0.3056 -0.8864
 8452SOL    MW433582   1.206   5.548   4.002 -0.2278 -0.1758  0.1848
 8453SOL     OW33583   2.802   1.608   2.778 -0.7078  0.5736 -0.2163
 8453SOL    HW233584   2.722   1.655   2.754 -0.5001  0.0229 -2.1601
 8453SOL    HW333585   2.861   1.622   2.704 -0.6340 -2.7071 -0.9174
 8453SOL    MW433586   2.799   1.616   2.765  0.6431 -0.2338  0.2660
 8454SOL     OW33587   4.410   4.308   5.629  0.3773  0.4282 -0.1512
 8454SOL    HW233588   4.465   4.239   5.593 -0.5543 -0.6281  0.3775
 8454SOL    HW333589   4.323   4.267   5.637 -0.3747  1.8855 -0.5115
 8454SOL    MW433590   4.406   4.293   5.625 -0.0448  0.3705 -0.7029
 8455SOL     OW33591   0.148   4.164   5.792  0.2465  0.1381 -0.0878
 8455SOL    HW233592   0.175   4.252   5.766 -0.0862 -0.0924 -1.3045
 8455SOL    HW333593   0.222   4.109   5.768 -0.1133 -0.0957 -0.6872
 8455SOL    MW433594   0.162   4.169   5.785 -0.4192 -0.1993 -0.4088
 8456SOL     OW33595   1.609   4.488   0.646 -0.0817  0.0438 -0.1119
 8456SOL    HW233596   1.643   4.423   0.585 -0.1338  0.3185 -0.4350
 8456SOL    HW333597   1.532   4.447   0.685 -1.0857  0.5247 -1.5165
 8456SOL    MW433598   1.603   4.474   0.643  0.9950  0.2651 -0.0120
 8457SOL     OW33599   4.647   1.610   1.098  0.0716 -0.0223  0.4223
 8457SOL    HW233600   4.733   1.597   1.059 -0.2105 -1.4343  0.2252
 8457SOL    HW333601   4.656   1.690   1.150  0.9949  0.8211 -0.9741
 8457SOL    MW433602   4.660   1.619   1.100  0.1706  0.3933 -0.0845
 8458SOL     OW33603   5.882   4.154   5.634 -0.0320 -0.2364 -0.3941
 8458SOL    HW233604   5.907   4.245   5.650 -0.1705 -0.5140  1.6390
 8458SOL    HW333605   5.864   4.150   5.540  0.2645  1.7508 -0.5705
 8458SOL    MW433606   5.883   4.165   5.624  0.7113  0.4669  0.5997
 8459SOL     OW33607   6.163   5.333   3.797  0.1035  0.0547  0.4237
 8459SOL    HW233608   6.212   5.351   3.877 -0.8103 -0.5499  1.1309
 8459SOL    HW333609   6.073   5.358   3.817  0.1358  1.5437 -0.9998
 8459SOL    MW433610   6.158   5.339   3.810  0.8266  0.2484 -0.4686
 8460SOL     OW33611   4.717   0.915   3.385  0.0559 -0.3948 -0.0042
 8460SOL    HW233612   4.782   0.851   3.359  0.3880 -0.3709  0.7524
 8460SOL    HW333613   4.763   0.999   3.384 -0.4628 -0.1053 -1.3258
 8460SOL    MW433614   4.731   0.918   3.382  0.1150  0.1938  0.2569
 8461SOL     OW33615   1.779   2.259   5.848  1.1663  0.1305  0.4083
 8461SOL    HW233616   1.792   2.222   5.761 -0.7256 -0.0705  0.1708
 8461SOL    HW333617   1.822   2.197   5.907  2.6367  0.3687 -0.3634
 8461SOL    MW433618   1.786   2.246   5.845 -0.1102 -0.2126  0.5007
 8462SOL     OW33619   2.800   2.424   0.625  0.5442  0.3348  0.3366
 8462SOL    HW233620   2.753   2.399   0.705  0.3786  1.2330  0.5264
 8462SOL    HW333621   2.731   2.445   0.563  0.6648 -0.8484 -0.2116
 8462SOL    MW433622   2.785   2.423   0.628  0.0051  0.5588 -0.0275
 8463SOL     OW33623   5.164   4.651   5.840  0.2619 -0.3091  0.3217
 8463SOL    HW233624   5.150   4.619   5.751  1.3574 -0.8631  0.3352
 8463SOL    HW333625   5.126   4.584   5.896 -0.4332  0.0430  0.2816
 8463SOL    MW433626   5.157   4.638   5.835  0.2474 -0.7567 -0.8811
 8464SOL     OW33627   5.548   4.419   1.827  0.5470  0.0348 -0.2204
 8464SOL    HW233628   5.618   4.375   1.778  0.2802 -0.1210 -0.4625
 8464SOL    HW333629   5.521   4.355   1.893  0.2009 -0.1395 -0.5332
 8464SOL    MW433630   5.554   4.405   1.829 -0.1684  0.0209 -0.1300
 8465SOL     OW33631   4.988   4.690   2.037 -0.2634 -0.4985 -0.4687
 8465SOL    HW233632   4.950   4.778   2.031  0.1388  0.0078  2.7295
 8465SOL    HW333633   5.005   4.677   2.130  1.0859 -3.4155 -0.9971
 8465SOL    MW433634   4.985   4.700   2.049  0.1940  0.2734 -0.0731
 8466SOL     OW33635   5.893   4.335   4.507 -0.9098 -0.0119 -0.2897
 8466SOL    HW233636   5.843   4.253   4.502 -0.0826 -0.7233  1.6676
 8466SOL    HW333637   5.971   4.311   4.557  0.3837  1.5324 -1.4913
 8466SOL    MW433638   5.897   4.321   4.513  0.0535  0.3640 -0.3641
 8467SOL     OW33639   5.857   0.107   1.950  0.5778  0.5037 -0.9072
 8467SOL    HW233640   5.920   0.117   1.878  0.1936 -1.4332 -1.5693
 8467SOL    HW333641   5.890   0.032   2.000  1.1759  2.1822  1.3616
 8467SOL    MW433642   5.870   0.098   1.947 -0.1954 -0.0539  0.1881
 8468SOL     OW33643   5.996   4.766   0.769 -0.9819 -0.4301 -0.1359
 8468SOL    HW233644   6.039   4.844   0.733 -3.2411  1.2023  0.4505
 8468SOL    HW333645   5.974   4.790   0.859 -3.4580 -0.9425 -0.5296
 8468SOL    MW433646   5.999   4.780   0.776 -0.3538 -0.7544  0.3706
 8469SOL     OW33647   3.602   1.973   5.359 -0.7049 -0.2015  0.0159
 8469SOL    HW233648   3.675   2.033   5.345  2.1546 -3.3292  0.1896
 8469SOL    HW333649   3.605   1.953   5.452 -0.1553 -2.1467 -0.3721
 8469SOL    MW433650   3.612   1.978   5.369  0.2820 -0.2362 -1.1108
 8470SOL     OW33651   4.007   1.581   4.786  0.0380  0.0377  0.3091
 8470SOL    HW233652   4.008   1.609   4.878 -0.6442  1.3006 -0.0506
 8470SOL    HW333653   3.915   1.585   4.761  0.3265  0.6156 -0.6967
 8470SOL    MW433654   3.995   1.585   4.795  0.5432 -0.6022  0.1719
 8471SOL     OW33655   6.407   6.242   1.932 -0.0490 -0.0425 -0.0979
 8471SOL    HW233656   6.466   6.280   1.997  0.2330 -0.6354  0.0043
 8471SOL    HW333657   6.463   6.227   1.855 -0.1779 -0.1662 -0.1678
 8471SOL    MW433658   6.422   6.245   1.930  0.1219 -0.3412 -0.3509
 8472SOL     OW33659   4.410   4.491   1.623  0.4460  0.2437 -0.4877
 8472SOL    HW233660   4.359   4.464   1.547 -0.1759  0.3257 -0.1023
 8472SOL    HW333661   4.361   4.563   1.660  1.1405  0.6995 -0.4366
 8472SOL    MW433662   4.397   4.497   1.618 -0.7221 -0.2677  0.4168
 8473SOL     OW33663   4.450   6.106   2.729  0.1317 -0.5454 -0.0570
 8473SOL    HW233664   4.516   6.040   2.751  0.6773 -0.8278 -2.3379
 8473SOL    HW333665   4.391   6.062   2.668 -2.3429 -0.3380  2.0042
 8473SOL    MW433666   4.451   6.091   2.724  0.3590  0.1304  0.1693
 8474SOL     OW33667   0.725   3.362   4.166  0.2409  0.3432  0.0023
 8474SOL    HW233668   0.792   3.337   4.103 -0.7488  2.3906 -2.0685
 8474SOL    HW333669   0.765   3.432   4.218  0.8411 -0.8957  1.2469
 8474SOL    MW433670   0.739   3.368   4.165  0.7703 -0.0442  0.4590
 8475SOL     OW33671   4.120   3.418   4.098 -0.5434  0.3174 -0.2163
 8475SOL    HW233672   4.215   3.421   4.107 -0.4362 -1.4231 -0.3341
 8475SOL    HW333673   4.098   3.494   4.045  0.7072  1.0647  0.2894
 8475SOL    MW433674   4.130   3.428   4.092 -0.1352  0.6956 -0.4740
 8476SOL     OW33675   6.314   0.842   1.985  0.2290 -0.3435 -0.1438
 8476SOL    HW233676   6.310   0.827   1.891  1.5250  0.1392 -0.2953
 8476SOL    HW333677   6.322   0.937   1.994 -0.7346 -0.3132  0.4954
 8476SOL    MW433678   6.315   0.852   1.974  0.0552  0.3666  0.1440
 8477SOL     OW33679   5.567   5.191   4.155  0.1286  0.7802 -0.3239
 8477SOL    HW233680   5.625   5.250   4.203  0.5924 -0.9617  1.3748
 8477SOL    HW333681   5.485   5.192   4.205  0.3693 -0.4873  0.1374
 8477SOL    MW433682   5.564   5.199   4.168  0.0566 -0.3043  0.2622
 8478SOL     OW33683   0.420   3.934   0.974  0.0133  0.1554 -0.2287
 8478SOL    HW233684   0.387   3.945   1.063 -0.5231  0.7776 -0.4998
 8478SOL    HW333685   0.510   3.966   0.978  0.6265 -1.5521  0.5144
 8478SOL    MW433686   0.428   3.940   0.987  0.0577  0.4394 -0.1434
 8479SOL     OW33687   4.331   5.601   0.163 -0.0330  0.5764  0.0751
 8479SOL    HW233688   4.403   5.540   0.182 -1.0289 -0.1243  1.7858
 8479SOL    HW333689   4.259   5.545   0.134 -0.8982  0.9202  1.4799
 8479SOL    MW433690   4.331   5.585   0.161 -0.3211  0.1952 -0.3925
 8480SOL     OW33691   2.969   5.441   4.580 -0.1469 -0.5214  0.1193
 8480SOL    HW233692   2.984   5.526   4.538 -2.1370 -0.2747 -0.1610
 8480SOL    HW333693   3.039   5.385   4.545  1.7454  1.1657  0.9722
 8480SOL    MW433694   2.980   5.445   4.570 -0.2694  0.1855  0.5211
 8481SOL     OW33695   1.117   3.689   4.136 -0.4524 -0.6775  0.2354
 8481SOL    HW233696   1.203   3.714   4.102 -0.3357  0.0954  1.0801
 8481SOL    HW333697   1.134   3.615   4.194 -0.5307 -1.3474 -0.5689
 8481SOL    MW433698   1.130   3.682   4.139 -0.0486 -0.6234 -0.3693
 8482SOL     OW33699   3.773   0.779   1.199 -1.1271  0.0555  0.1804
 8482SOL    HW233700   3.811   0.723   1.267  0.5086  3.3798  2.2912
 8482SOL    HW333701   3.693   0.813   1.238  0.1494  2.5033  0.9202
 8482SOL    MW433702   3.768   0.776   1.213 -0.3659  0.7190 -0.4457
 8483SOL     OW33703   3.890   2.789   2.929 -0.1251  0.3342  0.1986
 8483SOL    HW233704   3.867   2.755   3.015  1.8563  1.8234  1.4133
 8483SOL    HW333705   3.961   2.733   2.898 -1.6363 -0.9730 -1.1221
 8483SOL    MW433706   3.896   2.777   2.936  0.2601  0.4421  0.8010
 8484SOL     OW33707   4.729   3.096   4.269  0.0626  0.4605 -0.1524
 8484SOL    HW233708   4.649   3.070   4.223  0.1263 -0.5157  0.2569
 8484SOL    HW333709   4.762   3.014   4.307  0.5561  1.0753  0.7745
 8484SOL    MW433710   4.723   3.082   4.268 -0.2102  0.1735 -0.7641
 8485SOL     OW33711   3.953   0.186   6.168  0.0307  0.2560  0.7151
 8485SOL    HW233712   3.886   0.128   6.204 -0.6922 -0.2458 -1.2782
 8485SOL    HW333713   4.035   0.154   6.206 -0.5304 -1.1308  0.8249
 8485SOL    MW433714   3.955   0.174   6.178  0.0894  0.2658 -0.4997
 8486SOL     OW33715   3.019   2.412   3.991 -0.5836  0.0333  0.4520
 8486SOL    HW233716   3.015   2.493   3.940  2.3967  0.4947  0.7883
 8486SOL    HW333717   3.104   2.374   3.969 -1.1314 -2.1059  1.7024
 8486SOL    MW433718   3.030   2.417   3.981  0.2178 -0.1287 -0.5059
 8487SOL     OW33719   3.210   2.140   3.156  0.0649  0.5170 -0.4827
 8487SOL    HW233720   3.296   2.117   3.190 -0.4071  0.3103  0.6205
 8487SOL    HW333721   3.159   2.059   3.162 -0.5640  0.9410  0.0817
 8487SOL    MW433722   3.214   2.126   3.161  0.5243 -0.2829  0.3740
 8488SOL     OW33723   0.097   3.978   6.438 -0.5716 -0.1845  0.8201
 8488SOL    HW233724   0.167   3.976   6.503 -0.8952  1.1264  1.2507
 8488SOL    HW333725   0.142   3.988   6.354 -0.1916 -0.9209  0.9301
 8488SOL    MW433726   0.112   3.979   6.436 -0.5724 -0.2626 -0.6039
 8489SOL     OW33727   2.251   4.099   5.996  0.0850 -0.1879  0.0278
 8489SOL    HW233728   2.232   4.013   6.033  0.6451 -0.2097  0.2605
 8489SOL    HW333729   2.228   4.160   6.065 -1.1316 -0.0866 -0.4325
 8489SOL    MW433730   2.245   4.095   6.010 -0.3130  0.1207 -0.1320
 8490SOL     OW33731   2.512   2.529   3.229  0.0979  0.1400  0.2618
 8490SOL    HW233732   2.553   2.609   3.195 -0.2093  0.1418 -0.1176
 8490SOL    HW333733   2.499   2.475   3.151  0.3897 -0.3238  0.5300
 8490SOL    MW433734   2.516   2.532   3.214  0.6441 -0.2561  0.1334
 8491SOL     OW33735   4.937   0.060   1.177  0.1024  0.0453  0.3232
 8491SOL    HW233736   5.001   0.002   1.135 -0.2454 -0.8091  0.9603
 8491SOL    HW333737   4.852   0.033   1.142 -0.0988 -0.0742  0.8901
 8491SOL    MW433738   4.934   0.049   1.167  0.0297 -0.0982  0.1997
 8492SOL     OW33739   0.144   1.101   5.726 -0.3696 -0.5845 -0.0072
 8492SOL    HW233740   0.104   1.115   5.812  1.1087 -1.6715  0.9124
 8492SOL    HW333741   0.162   1.188   5.692 -2.5181 -0.0920 -0.0062
 8492SOL    MW433742   0.141   1.114   5.733 -1.1498 -0.0056 -0.6058
 8493SOL     OW33743   0.817   6.246   3.293 -0.1264  0.4223 -0.2113
 8493SOL    HW233744   0.795   6.161   3.254 -0.8647 -0.1616  1.3884
 8493SOL    HW333745   0.790   6.238   3.384  4.0258  0.7276  1.2574
 8493SOL    MW433746   0.811   6.234   3.300  0.9042 -0.0832  0.0549
 8494SOL     OW33747   6.312   3.768   1.557  0.1949  0.3273 -0.0922
 8494SOL    HW233748   6.359   3.851   1.558 -0.7382  0.8705  0.0084
 8494SOL    HW333749   6.220   3.792   1.567 -0.2834 -0.5996 -1.8940
 8494SOL    MW433750   6.306   3.782   1.558 -0.7517  0.0693 -0.2521
 8495SOL     OW33751   6.109   6.087   2.895  0.5064 -0.6711 -0.4251
 8495SOL    HW233752   6.177   6.074   2.961 -1.2476 -1.7654  1.2606
 8495SOL    HW333753   6.043   6.020   2.915 -1.2320  0.5654 -1.7590
 8495SOL    MW433754   6.109   6.076   2.906 -0.3478 -0.2875  0.1705
 8496SOL     OW33755   4.123   5.847   2.741  0.1447 -0.2056  0.2457
 8496SOL    HW233756   4.165   5.897   2.672 -0.4156  0.0066  0.0485
 8496SOL    HW333757   4.054   5.906   2.775 -0.7008 -0.9296 -0.1705
 8496SOL    MW433758   4.119   5.862   2.737 -0.8568 -0.1516 -0.5178
 8497SOL     OW33759   1.656   6.145   1.095  0.4373  0.1695  0.4413
 8497SOL    HW233760   1.634   6.154   1.002  0.7945 -0.0591  0.3308
 8497SOL    HW333761   1.653   6.234   1.129  0.1319  0.2352  0.2520
 8497SOL    MW433762   1.653   6.158   1.087 -0.0212  0.6080  0.3433
 8498SOL     OW33763   0.666   1.982   0.932 -0.2722 -0.3243 -0.3232
 8498SOL    HW233764   0.704   2.042   0.868  0.5542  0.5368  0.8996
 8498SOL    HW333765   0.701   2.012   1.016 -2.3709 -0.5305  0.7118
 8498SOL    MW433766   0.675   1.994   0.935  0.5544  0.4631 -0.0055
 8499SOL     OW33767   1.261   3.847   2.056  0.2224 -0.0885  0.3109
 8499SOL    HW233768   1.317   3.769   2.057  1.4798  0.7323 -1.5782
 8499SOL    HW333769   1.172   3.812   2.049  0.7300 -1.3624 -0.1478
 8499SOL    MW433770   1.256   3.832   2.056 -0.0949  0.4210 -0.2160
 8500SOL     OW33771   1.219   3.265   5.456 -0.2538  0.7588  0.1019
 8500SOL    HW233772   1.230   3.327   5.528 -2.3482  1.0063  0.2786
 8500SOL    HW333773   1.283   3.292   5.391  0.1713  1.9136  0.9627
 8500SOL    MW433774   1.229   3.277   5.457  0.7695  0.5275  0.8958
 8501SOL     OW33775   5.617   3.844   5.348  0.0486 -0.1637 -0.0825
 8501SOL    HW233776   5.655   3.809   5.267 -0.6791 -0.4437 -0.3084
 8501SOL    HW333777   5.639   3.779   5.415  0.9416  0.2318  0.0239
 8501SOL    MW433778   5.625   3.831   5.346 -0.2155 -0.9154  0.3183
 8502SOL     OW33779   2.945   0.454   2.831  0.2041 -0.1652 -0.1917
 8502SOL    HW233780   2.945   0.427   2.739 -0.9163 -0.3195 -0.1572
 8502SOL    HW333781   2.991   0.538   2.831 -1.4635  0.7963 -1.1954
 8502SOL    MW433782   2.951   0.461   2.819  0.3442  0.2074 -0.1721
 8503SOL     OW33783   2.688   4.986   2.228 -0.1193  0.0701 -0.9418
 8503SOL    HW233784   2.728   4.899   2.223 -0.7429 -0.2201 -0.8908
 8503SOL    HW333785   2.678   5.002   2.322 -0.6042 -0.0863 -0.9620
 8503SOL    MW433786   2.692   4.976   2.240 -0.1849 -0.8873 -0.3331
 8504SOL     OW33787   1.990   2.269   1.901 -0.0491 -0.1671  0.9073
 8504SOL    HW233788   2.042   2.189   1.902  1.2085  0.6291  0.4984
 8504SOL    HW333789   1.924   2.256   1.969 -0.1745 -1.7451  0.5129
 8504SOL    MW433790   1.988   2.257   1.910  0.1251  0.0504 -0.8114
 8505SOL     OW33791   6.377   0.551   5.499 -0.3954 -0.0363 -0.0660
 8505SOL    HW233792   6.379   0.542   5.404 -1.5469 -0.5983 -0.0582
 8505SOL    HW333793   6.308   0.616   5.515  1.1298  1.5895  0.3266
 8505SOL    MW433794   6.368   0.559   5.489  0.0610  0.5970 -0.5237
 8506SOL     OW33795   0.603   0.754   5.682  0.1108 -0.8692 -0.2907
 8506SOL    HW233796   0.527   0.810   5.666  0.5919 -0.2988 -0.6268
 8506SOL    HW333797   0.601   0.738   5.777 -0.0346 -0.2750 -0.1870
 8506SOL    MW433798   0.593   0.760   5.693 -0.5068  0.2130 -0.0994
 8507SOL     OW33799   6.317   5.967   3.054 -0.0967  0.0108 -0.5252
 8507SOL    HW233800   6.322   6.026   3.129 -1.1144  1.7291 -1.7416
 8507SOL    HW333801   6.247   5.905   3.076  1.1211 -0.9619  0.8476
 8507SOL    MW433802   6.309   5.966   3.067  0.2238 -0.4429 -0.1589
 8508SOL     OW33803   3.504   0.269   0.111 -0.2115  0.3912 -0.0001
 8508SOL    HW233804   3.597   0.287   0.126 -0.2331  1.7539 -1.2439
 8508SOL    HW333805   3.484   0.313   0.028 -1.4509 -1.7218 -0.9053
 8508SOL    MW433806   3.514   0.278   0.102 -0.2786  0.2414 -0.1040
 8509SOL     OW33807   3.041   5.925   5.959  0.1184  0.0302  0.0416
 8509SOL    HW233808   2.968   5.944   6.017  0.2372  1.9319 -0.3493
 8509SOL    HW333809   3.016   5.845   5.912 -2.0272  1.0108 -0.5868
 8509SOL    MW433810   3.028   5.917   5.960  0.6523  0.4635  0.7072
 8510SOL     OW33811   3.361   3.087   6.106  0.2298  0.1505 -0.1285
 8510SOL    HW233812   3.391   2.997   6.113 -1.0917 -0.2225  1.0948
 8510SOL    HW333813   3.400   3.132   6.181  0.6342  0.5340 -0.5602
 8510SOL    MW433814   3.370   3.081   6.117  0.2702  0.5449  0.2924
 8511SOL     OW33815   1.697   2.908   4.884  0.5415  0.4586  0.7714
 8511SOL    HW233816   1.673   2.864   4.803  1.7871 -2.9728  2.1071
 8511SOL    HW333817   1.790   2.890   4.894  0.9398  2.7632  1.9194
 8511SOL    MW433818   1.706   2.900   4.874  0.3240  0.0759 -0.3827
 8512SOL     OW33819   2.693   5.636   3.668  0.5931 -0.0730 -0.1379
 8512SOL    HW233820   2.604   5.618   3.698 -0.5201  0.9770 -2.5399
 8512SOL    HW333821   2.745   5.563   3.702 -2.0894 -3.3750 -2.4261
 8512SOL    MW433822   2.688   5.624   3.676  0.6679 -0.4803  0.3612
 8513SOL     OW33823   3.005   3.746   3.567  0.4465 -0.6977 -0.3633
 8513SOL    HW233824   2.943   3.735   3.639  1.5605 -0.8668  0.6019
 8513SOL    HW333825   3.084   3.701   3.596  1.3887  0.4065 -1.1022
 8513SOL    MW433826   3.007   3.738   3.580  0.0587  0.0646  0.1373
 8514SOL     OW33827   5.803   0.024   2.433 -0.8032 -0.3472 -0.6351
 8514SOL    HW233828   5.727  -0.018   2.393  0.0946 -0.6897 -2.0438
 8514SOL    HW333829   5.876  -0.035   2.415  0.3409  1.3886 -1.9685
 8514SOL    MW433830   5.803   0.011   2.426  0.0367 -0.8219 -0.2058
 8515SOL     OW33831   3.670   3.035   5.651 -0.1945 -0.0911  0.8914
 8515SOL    HW233832   3.579   3.040   5.680 -0.5907  0.8705 -0.4258
 8515SOL    HW333833   3.668   2.977   5.575  0.4831 -0.9212  1.4880
 8515SOL    MW433834   3.657   3.028   5.645 -0.2172 -0.2795  0.0655
 8516SOL     OW33835   5.273   1.970   2.519  0.4051 -0.7815 -0.2840
 8516SOL    HW233836   5.340   1.972   2.450  1.2640  1.9249  0.5023
 8516SOL    HW333837   5.319   1.940   2.597  0.6587  0.5738  0.1299
 8516SOL    MW433838   5.288   1.967   2.520  0.1815 -0.0296  0.5060
 8517SOL     OW33839   6.086   1.589   1.627 -0.6975  0.1206  0.0671
 8517SOL    HW233840   6.102   1.596   1.533 -1.0461 -1.7023 -0.1668
 8517SOL    HW333841   6.121   1.670   1.664  3.0968 -0.7330 -1.1602
 8517SOL    MW433842   6.093   1.601   1.620  0.0262 -0.1714  0.1200
 8518SOL     OW33843   2.447   5.041   5.218 -0.4375  0.6338 -0.1144
 8518SOL    HW233844   2.407   4.968   5.265  1.0184  0.0144  0.2124
 8518SOL    HW333845   2.421   5.118   5.268 -2.3319  0.4185 -0.7001
 8518SOL    MW433846   2.438   5.041   5.231 -0.7743 -0.0310 -0.1159
 8519SOL     OW33847   0.473   4.491   4.746  0.1135 -0.5180 -0.0033
 8519SOL    HW233848   0.460   4.398   4.764 -0.0959 -0.7204 -1.0868
 8519SOL    HW333849   0.440   4.503   4.657 -0.9915  0.8554  0.5519
 8519SOL    MW433850   0.467   4.480   4.736 -0.1407 -0.0123 -0.0218
 8520SOL     OW33851   5.262   3.722   5.392 -0.0400  0.2731 -0.6221
 8520SOL    HW233852   5.195   3.780   5.427  1.2450  1.4754 -0.0508
 8520SOL    HW333853   5.214   3.649   5.354 -1.6163  0.4741  0.8777
 8520SOL    MW433854   5.247   3.720   5.392  0.7220  0.3376 -0.0252
 8521SOL     OW33855   0.962   3.770   5.401 -0.1756 -0.1173 -0.4102
 8521SOL    HW233856   0.953   3.675   5.407  0.1309 -0.1438 -0.3627
 8521SOL    HW333857   1.026   3.792   5.468 -0.8775  0.2215  0.1586
 8521SOL    MW433858   0.969   3.760   5.411  0.0265  0.5230  0.6797
 8522SOL     OW33859   2.010   4.349   1.482 -0.5415  0.3087  0.0786
 8522SOL    HW233860   1.997   4.256   1.462  0.5680  0.3845 -1.1004
 8522SOL    HW333861   1.939   4.393   1.436  0.1456  0.1966 -1.1487
 8522SOL    MW433862   1.999   4.343   1.473 -0.0400  0.1237  0.4137
 8523SOL     OW33863   1.070   0.535   1.169  0.4536 -0.2451  0.1072
 8523SOL    HW233864   1.153   0.502   1.137  0.3274 -0.6339  0.1802
 8523SOL    HW333865   1.027   0.572   1.092  0.7708  0.1178  0.1051
 8523SOL    MW433866   1.075   0.536   1.154  0.5559  0.5536  0.1306
 8524SOL     OW33867   1.664   5.094   3.214  0.0101  0.1791 -0.0119
 8524SOL    HW233868   1.600   5.054   3.155  0.2767  0.7847 -0.7282
 8524SOL    HW333869   1.715   5.021   3.248 -1.2611 -0.3515  0.8314
 8524SOL    MW433870   1.662   5.079   3.211 -0.1365  0.5150  0.1958
 8525SOL     OW33871   0.829   2.498   6.066  0.0194  0.7258  0.4882
 8525SOL    HW233872   0.814   2.579   6.016 -1.4016  1.4921  2.0684
 8525SOL    HW333873   0.835   2.430   5.999 -2.2287  1.6467 -0.7730
 8525SOL    MW433874   0.828   2.500   6.051 -0.1311  0.3909  0.2351
 8526SOL     OW33875   1.878   3.106   1.084  0.3014  0.5640  0.2169
 8526SOL    HW233876   1.943   3.098   1.153  1.5985 -0.3581 -1.0737
 8526SOL    HW333877   1.868   3.018   1.049 -0.1803  1.0400 -0.9097
 8526SOL    MW433878   1.885   3.094   1.088 -0.0127 -0.4298 -0.2172
 8527SOL     OW33879   3.878   0.456   6.239  0.1498 -0.0802  0.2971
 8527SOL    HW233880   3.865   0.525   6.174  2.4084  0.5274  0.4116
 8527SOL    HW333881   3.895   0.377   6.188 -2.8337 -0.7606  0.1565
 8527SOL    MW433882   3.879   0.455   6.224 -0.5411 -0.1728 -0.1079
 8528SOL     OW33883   2.183   5.563   2.202 -0.1672 -0.4532 -0.1478
 8528SOL    HW233884   2.124   5.636   2.223  0.7220  0.1828  0.2269
 8528SOL    HW333885   2.134   5.485   2.226  0.3459  0.1563  3.5465
 8528SOL    MW433886   2.169   5.562   2.208 -0.0244  0.0774  0.1535
 8529SOL     OW33887   2.392   4.485   0.206  0.3011  0.0797  0.2554
 8529SOL    HW233888   2.480   4.524   0.202  0.5841 -0.4858  0.8188
 8529SOL    HW333889   2.333   4.560   0.196  0.8373  0.4470 -0.3336
 8529SOL    MW433890   2.396   4.500   0.204 -0.4516  0.3587  0.4241
 8530SOL     OW33891   1.207   0.315   1.044  0.3105 -0.2839  0.1155
 8530SOL    HW233892   1.265   0.352   0.978  1.4337 -1.4842  0.3987
 8530SOL    HW333893   1.171   0.236   1.002 -0.5508  0.0420  0.2175
 8530SOL    MW433894   1.210   0.309   1.030  0.1775 -0.5822 -0.2381
 8531SOL     OW33895   2.041   1.148   1.118  0.4130  0.5350 -0.8592
 8531SOL    HW233896   1.971   1.124   1.178  1.1265  0.4450 -0.0294
 8531SOL    HW333897   2.000   1.207   1.054 -0.1109  1.6933  0.4893
 8531SOL    MW433898   2.027   1.153   1.117 -0.3047  0.4225 -0.1278
 8532SOL     OW33899   3.958   6.225   5.023 -0.4249  0.5134  0.1933
 8532SOL    HW233900   3.935   6.229   4.931  0.9501 -0.8491 -0.2399
 8532SOL    HW333901   3.874   6.218   5.069 -1.1142  1.1589 -0.9362
 8532SOL    MW433902   3.944   6.225   5.017  0.5194 -0.0865  0.3368
 8533SOL     OW33903   5.546   2.081   2.633 -0.5506 -0.0078  0.5862
 8533SOL    HW233904   5.468   2.049   2.677 -1.3512  1.0663  0.0092
 8533SOL    HW333905   5.568   2.012   2.570 -2.6825  0.7668 -1.1703
 8533SOL    MW433906   5.538   2.068   2.630  0.6486 -0.0031  0.8553
 8534SOL     OW33907   6.208   3.785   4.555  0.0588 -0.4000  0.4210
 8534SOL    HW233908   6.260   3.777   4.476  1.0582 -0.5502  1.0735
 8534SOL    HW333909   6.256   3.848   4.609 -0.2343 -0.8228  1.1913
 8534SOL    MW433910   6.221   3.792   4.552  0.0817 -0.4602 -0.5297
 8535SOL     OW33911   1.723   1.116   4.780 -0.6236  0.5560  0.6029
 8535SOL    HW233912   1.694   1.065   4.704 -0.8192 -0.1790  1.1666
 8535SOL    HW333913   1.657   1.099   4.847 -1.3351  2.4586  0.4465
 8535SOL    MW433914   1.710   1.107   4.779 -1.1585  0.1116  0.0522
 8536SOL     OW33915   5.218   5.368   4.040  0.0094  0.5545 -0.3567
 8536SOL    HW233916   5.146   5.311   4.013  0.4283 -0.8070  1.2006
 8536SOL    HW333917   5.175   5.441   4.084 -0.4543 -0.2255  0.5213
 8536SOL    MW433918   5.203   5.370   4.043 -0.0281  0.3355 -0.5011
 8537SOL     OW33919   3.673   5.650   3.105 -0.0645 -0.1571  0.3202
 8537SOL    HW233920   3.636   5.705   3.174  1.2778  0.6251  0.4572
 8537SOL    HW333921   3.691   5.567   3.148 -0.9422 -0.3037  0.4288
 8537SOL    MW433922   3.670   5.647   3.119 -1.2055 -0.0467 -0.4078
 8538SOL     OW33923   3.710   1.139   4.393  0.4326  0.0213 -0.4778
 8538SOL    HW233924   3.796   1.142   4.349  1.0013 -1.4538  0.4743
 8538SOL    HW333925   3.720   1.071   4.460 -1.9051 -1.1542 -1.2399
 8538SOL    MW433926   3.723   1.131   4.396 -0.6185  0.0219  0.2625
 8539SOL     OW33927   2.893   1.027   4.977 -0.2757  0.5033  0.0145
 8539SOL    HW233928   2.907   0.935   4.958 -1.2357  0.3883 -0.1580
 8539SOL    HW333929   2.852   1.028   5.063 -2.4770  0.6034 -0.9729
 8539SOL    MW433930   2.890   1.015   4.986  0.4333  0.1050  0.6893
 8540SOL     OW33931   6.370   4.221   0.086 -0.1391  0.1991  0.1094
 8540SOL    HW233932   6.324   4.242   0.005  0.1512  1.1734  0.1790
 8540SOL    HW333933   6.425   4.146   0.064 -0.0503  0.4656 -0.6037
 8540SOL    MW433934   6.371   4.214   0.072 -0.3163  0.1618 -0.0865
 8541SOL     OW33935   5.475   1.616   6.211  0.4970 -0.4489 -0.0949
 8541SOL    HW233936   5.480   1.621   6.306  1.6228  0.2657 -0.1767
 8541SOL    HW333937   5.546   1.671   6.180 -0.6484  0.3696 -1.3801
 8541SOL    MW433938   5.485   1.624   6.220  0.0526  0.2596 -0.6558
 8542SOL     OW33939   4.554   2.232   3.179 -0.6277 -0.4707 -0.0306
 8542SOL    HW233940   4.623   2.294   3.202  0.7533 -1.4881 -1.2224
 8542SOL    HW333941   4.580   2.150   3.219 -1.9714 -0.5332  0.7815
 8542SOL    MW433942   4.566   2.229   3.187 -0.2787  0.7151  0.4599
 8543SOL     OW33943   1.933   1.306   3.796 -0.0346  0.2864 -0.0152
 8543SOL    HW233944   1.893   1.253   3.865  0.6276  2.3567  2.0726
 8543SOL    HW333945   1.868   1.305   3.725 -3.7018  2.7917  2.8666
 8543SOL    MW433946   1.919   1.299   3.795  0.0484 -0.0646  0.5080
 8544SOL     OW33947   5.927   5.896   2.960  0.4395  0.3872 -0.0515
 8544SOL    HW233948   5.937   5.834   2.888  0.3146  0.0684  0.2033
 8544SOL    HW333949   5.957   5.848   3.037 -0.2990  0.4050  0.2570
 8544SOL    MW433950   5.932   5.882   2.961 -0.0649  0.0644  0.4282
 8545SOL     OW33951   4.199   3.520   6.190 -0.1132  0.1890 -0.3052
 8545SOL    HW233952   4.145   3.464   6.244 -1.8804 -0.9572 -3.0315
 8545SOL    HW333953   4.274   3.466   6.165 -1.0891 -0.5557 -1.7636
 8545SOL    MW433954   4.202   3.506   6.194  0.5777  0.3721 -0.1694
 8546SOL     OW33955   3.772   3.808   5.629  0.1705  0.1000  0.3140
 8546SOL    HW233956   3.779   3.712   5.634 -1.3125 -0.0760 -0.4697
 8546SOL    HW333957   3.820   3.831   5.549  1.1728  0.1080  0.9041
 8546SOL    MW433958   3.779   3.798   5.619  0.1089  0.0094  0.0301
 8547SOL     OW33959   1.126   4.768   4.896 -0.1345 -0.4965 -0.4646
 8547SOL    HW233960   1.200   4.708   4.906  0.5822  0.2326 -1.1859
 8547SOL    HW333961   1.094   4.753   4.807 -0.3109 -0.2167 -0.4509
 8547SOL    MW433962   1.132   4.758   4.886 -0.0274 -0.1334 -0.1834
 8548SOL     OW33963   3.266   5.476   4.058 -0.0061  0.2463  0.0244
 8548SOL    HW233964   3.232   5.404   4.005  1.2479  1.6786 -2.9540
 8548SOL    HW333965   3.361   5.463   4.058  0.1364  1.2049  0.5237
 8548SOL    MW433966   3.274   5.464   4.051  0.3074 -0.5168 -0.4117
 8549SOL     OW33967   4.620   3.449   5.103 -0.4745  0.4962  0.6339
 8549SOL    HW233968   4.542   3.498   5.078 -0.6899  1.2102  2.5359
 8549SOL    HW333969   4.589   3.388   5.170  0.5306  0.4768  1.0862
 8549SOL    MW433970   4.605   3.447   5.108  0.1235  0.1163 -0.1039
 8550SOL     OW33971   3.112   0.930   0.048 -0.4604  0.5009 -0.0307
 8550SOL    HW233972   3.038   0.879   0.016 -0.0143 -1.1992  1.4597
 8550SOL    HW333973   3.135   0.889   0.132  2.7122  0.3628 -0.8395
 8550SOL    MW433974   3.105   0.918   0.055 -0.3112 -0.0729 -0.2245
 8551SOL     OW33975   1.014   4.592   5.379  0.6021 -0.3872  0.0171
 8551SOL    HW233976   1.079   4.529   5.410 -0.9395 -1.3414  1.4999
 8551SOL    HW333977   0.999   4.567   5.287  2.5115  0.0663 -0.4595
 8551SOL    MW433978   1.021   4.580   5.371 -0.1253 -0.2612 -0.1278
 8552SOL     OW33979   4.812   4.293   0.236  0.1731 -0.6964 -0.2268
 8552SOL    HW233980   4.779   4.253   0.156 -2.3675  1.6257 -0.5396
 8552SOL    HW333981   4.874   4.359   0.206 -1.5371  0.8838 -0.5040
 8552SOL    MW433982   4.816   4.297   0.222  0.5834  0.2473 -0.1390
 8553SOL     OW33983   5.699   3.227   4.105  0.1455 -0.4614 -0.3883
 8553SOL    HW233984   5.716   3.225   4.199  1.4139  0.0286 -0.5865
 8553SOL    HW333985   5.785   3.244   4.066 -0.8695  3.1303 -1.4454
 8553SOL    MW433986   5.713   3.229   4.112  0.2916  0.0841  0.1902
 8554SOL     OW33987   2.906   3.101   2.125  0.0870  0.0468 -0.2852
 8554SOL    HW233988   2.860   3.052   2.056  0.5934  1.3475 -1.5883
 8554SOL    HW333989   2.936   3.033   2.186 -0.4585 -1.1328 -1.2819
 8554SOL    MW433990   2.904   3.085   2.124  0.1699 -0.2337  0.6428
 8555SOL     OW33991   3.859   5.144   1.418 -0.0876  0.1458 -0.1076
 8555SOL    HW233992   3.806   5.101   1.351 -2.1104  0.2263  1.3532
 8555SOL    HW333993   3.886   5.074   1.476  0.2705  0.2875 -0.1013
 8555SOL    MW433994   3.855   5.129   1.416 -0.0354  0.0833  0.4626
 8556SOL     OW33995   0.218   3.717   5.150  0.4970 -0.5521  0.4743
 8556SOL    HW233996   0.142   3.773   5.133  0.4766 -1.0943 -1.4611
 8556SOL    HW333997   0.273   3.768   5.209  0.1529  1.2298 -0.6729
 8556SOL    MW433998   0.215   3.731   5.156  0.2578 -0.0844  0.2892
 8557SOL     OW33999   1.429   6.080   3.355  0.1094 -0.8671 -0.2101
 8557SOL    HW234000   1.365   6.085   3.426  1.9166 -0.7962  1.4920
 8557SOL    HW334001   1.451   6.171   3.336  0.5128 -0.9187 -0.0025
 8557SOL    MW434002   1.424   6.092   3.362 -0.0047  0.2549 -0.1501
 8558SOL     OW34003   1.240   3.161   3.765  0.3672 -0.1617 -0.5792
 8558SOL    HW234004   1.283   3.245   3.778  1.5057 -0.2879 -2.9593
 8558SOL    HW334005   1.156   3.182   3.723  1.7026 -0.1842 -3.5436
 8558SOL    MW434006   1.235   3.175   3.761 -0.2027 -0.2991  0.1468
 8559SOL     OW34007   4.280   3.003   5.316  0.5312 -0.0550  0.0276
 8559SOL    HW234008   4.195   3.047   5.319  1.0525  0.9579  0.3138
 8559SOL    HW334009   4.307   2.998   5.407  0.7823 -0.3774 -0.0638
 8559SOL    MW434010   4.272   3.008   5.328  0.2319  0.7020 -0.2291
 8560SOL     OW34011   0.994   2.731   4.545 -0.2369 -0.2702  0.4889
 8560SOL    HW234012   0.971   2.684   4.465 -0.1765  1.4116 -0.5560
 8560SOL    HW334013   0.914   2.727   4.599 -0.6181 -0.5320 -0.0858
 8560SOL    MW434014   0.980   2.724   4.542 -0.2592 -0.0848  0.2043
 8561SOL     OW34015   2.197   5.075   4.869 -0.0616 -0.0047 -0.6032
 8561SOL    HW234016   2.291   5.074   4.890 -0.1157 -0.4052 -0.3665
 8561SOL    HW334017   2.164   4.993   4.905 -0.5621  0.2708 -0.4270
 8561SOL    MW434018   2.205   5.064   4.877 -0.3435  0.3926  0.0856
 8562SOL     OW34019   2.155   5.252   6.018 -0.5585  0.3049  0.3266
 8562SOL    HW234020   2.129   5.341   6.041 -1.1068  0.3437 -0.4109
 8562SOL    HW334021   2.219   5.228   6.086 -1.2157  0.8485  1.1670
 8562SOL    MW434022   2.160   5.261   6.030 -0.0145 -0.4113  0.3649
 8563SOL     OW34023   3.909   0.436   0.377  0.2601  0.4642  0.4174
 8563SOL    HW234024   3.824   0.451   0.419 -0.1759  1.9841 -0.8893
 8563SOL    HW334025   3.886   0.393   0.294  0.8833 -0.2190  0.5948
 8563SOL    MW434026   3.894   0.432   0.371 -0.1852 -0.0125 -0.3218
 8564SOL     OW34027   3.505   5.664   4.312  0.2557 -1.0732 -0.1299
 8564SOL    HW234028   3.494   5.697   4.401 -1.7364  0.0190 -0.7164
 8564SOL    HW334029   3.416   5.646   4.282  0.9189 -1.9058 -1.7324
 8564SOL    MW434030   3.492   5.666   4.320  0.1913 -0.5179 -0.0012
 8565SOL     OW34031   5.953   0.995   2.625  0.4062 -0.1378 -0.8132
 8565SOL    HW234032   5.947   1.010   2.531  0.0487 -1.8838 -1.1046
 8565SOL    HW334033   5.872   0.949   2.647  0.7594 -0.2797  0.2376
 8565SOL    MW434034   5.942   0.991   2.615 -0.4651  0.0176 -0.2437
 8566SOL     OW34035   1.308   2.080   2.106  0.2587 -0.0421  0.2114
 8566SOL    HW234036   1.393   2.038   2.118  0.4192  0.4745  0.9344
 8566SOL    HW334037   1.250   2.009   2.079  0.7161 -0.5675  0.5847
 8566SOL    MW434038   1.312   2.065   2.104 -0.3153 -0.2934 -0.2520
 8567SOL     OW34039   1.180   4.984   3.450 -0.0962  0.4125 -0.3282
 8567SOL    HW234040   1.117   4.989   3.379 -1.9948  0.0546  1.2429
 8567SOL    HW334041   1.249   5.047   3.426  0.4988 -1.2338 -3.4742
 8567SOL    MW434042   1.181   4.993   3.438  0.3855  0.7064 -0.0773
 8568SOL     OW34043   0.707   3.415   3.520  0.4695  0.2348 -0.6006
 8568SOL    HW234044   0.788   3.409   3.469  0.3447 -3.1137 -0.6287
 8568SOL    HW334045   0.646   3.356   3.475 -1.6845  1.8799  0.0138
 8568SOL    MW434046   0.710   3.406   3.507  0.2582  0.1667  0.1196
 8569SOL     OW34047   3.090   5.213   1.905  0.3297  0.0041 -0.4219
 8569SOL    HW234048   3.175   5.209   1.861 -0.4597 -1.7591 -1.9206
 8569SOL    HW334049   3.044   5.135   1.875 -1.1059 -0.1204  1.9132
 8569SOL    MW434050   3.095   5.202   1.895  0.0492 -0.0472 -0.0501
 8570SOL     OW34051   2.890   2.705   5.792  0.5765  0.3163 -0.0354
 8570SOL    HW234052   2.963   2.645   5.781  0.6811  0.5944 -1.0161
 8570SOL    HW334053   2.890   2.728   5.885 -0.1510 -2.0257  0.6066
 8570SOL    MW434054   2.900   2.700   5.803 -0.0453  0.2171 -0.6760
 8571SOL     OW34055   2.220   1.450   3.058 -0.4498  0.3231  0.3721
 8571SOL    HW234056   2.251   1.365   3.027 -0.2878  0.2747  0.6596
 8571SOL    HW334057   2.148   1.472   2.999  0.0236  0.3584 -0.2032
 8571SOL    MW434058   2.215   1.441   3.046 -0.2216 -0.3298  0.9686
 8572SOL     OW34059   6.141   0.599   4.879 -0.0566  0.2569  0.0068
 8572SOL    HW234060   6.191   0.518   4.868  0.0814  0.1038  1.5228
 8572SOL    HW334061   6.055   0.579   4.842  0.2461 -0.2954 -0.4119
 8572SOL    MW434062   6.136   0.586   4.873  0.6569  0.1851 -0.0987
 8573SOL     OW34063   5.747   4.586   2.479 -0.3650  0.1978  0.1727
 8573SOL    HW234064   5.756   4.623   2.567 -0.5956 -2.2268  1.2934
 8573SOL    HW334065   5.830   4.607   2.436  0.4459 -0.0006  1.5587
 8573SOL    MW434066   5.759   4.594   2.485  0.4417  0.5306 -0.1423
 8574SOL     OW34067   0.360   4.635   3.071 -0.2073 -0.0266 -0.1017
 8574SOL    HW234068   0.428   4.657   3.134  1.1756 -3.2288 -0.2785
 8574SOL    HW334069   0.301   4.577   3.118 -0.1528 -1.0380 -1.2284
 8574SOL    MW434070   0.361   4.631   3.085 -0.5537  0.1810 -0.0075
 8575SOL     OW34071   0.671   1.112   6.155 -0.0220  0.2029  0.0625
 8575SOL    HW234072   0.712   1.161   6.085 -0.3198  1.5694  0.8120
 8575SOL    HW334073   0.744   1.074   6.204  0.2540  0.7731  0.0926
 8575SOL    MW434074   0.686   1.113   6.152  0.4248  0.4935  0.1169
 8576SOL     OW34075   1.143   1.774   5.646  0.2697  0.6539  0.2468
 8576SOL    HW234076   1.223   1.731   5.619 -0.6681 -1.3367  0.4429
 8576SOL    HW334077   1.098   1.797   5.565 -0.6401 -1.6028  0.0508
 8576SOL    MW434078   1.147   1.772   5.632  0.4255  0.1742 -0.1475
 8577SOL     OW34079   1.283   0.553   2.903 -0.1212  0.2346 -0.1022
 8577SOL    HW234080   1.196   0.516   2.914  0.1233 -0.3863 -0.1983
 8577SOL    HW334081   1.301   0.546   2.809 -0.0282  0.5059 -0.1075
 8577SOL    MW434082   1.274   0.547   2.892 -1.1209 -0.5464  0.1328
 8578SOL     OW34083   6.071   5.546   0.783  0.4602 -0.0742 -0.3060
 8578SOL    HW234084   6.084   5.525   0.876  1.2510  0.3861 -0.3011
 8578SOL    HW334085   5.977   5.534   0.769  0.3890 -0.5210  0.4585
 8578SOL    MW434086   6.060   5.542   0.794  0.3067  0.0102 -0.2642
 8579SOL     OW34087   3.395   4.671   6.248 -0.3316 -0.4114 -0.1669
 8579SOL    HW234088   3.371   4.732   6.318 -2.1759 -0.5121 -0.6717
 8579SOL    HW334089   3.331   4.600   6.255  1.1104 -1.7825 -0.2765
 8579SOL    MW434090   3.383   4.670   6.258  0.0069 -0.0299  0.5962
 8580SOL     OW34091   5.957   5.009   1.241 -1.1164 -0.5204 -0.1255
 8580SOL    HW234092   5.909   5.091   1.251 -0.1757 -0.0169  0.5086
 8580SOL    HW334093   6.045   5.036   1.213 -0.5848 -1.2475  0.7608
 8580SOL    MW434094   5.962   5.023   1.238  0.0312 -0.0443 -0.2344
 8581SOL     OW34095   0.160   5.321   0.670 -0.3187  0.1775  0.0352
 8581SOL    HW234096   0.117   5.309   0.586 -0.6820 -1.3086  0.4090
 8581SOL    HW334097   0.254   5.319   0.650 -0.3705 -1.8705 -0.1513
 8581SOL    MW434098   0.167   5.319   0.657  0.6240  0.6212  0.3413
 8582SOL     OW34099   5.208   5.259   5.782 -0.0295 -0.2684 -0.2369
 8582SOL    HW234100   5.247   5.187   5.731 -1.1916 -0.6197 -0.6748
 8582SOL    HW334101   5.176   5.217   5.862  1.6114  0.2497  0.7451
 8582SOL    MW434102   5.209   5.244   5.786 -0.4483  0.5479 -0.2534
 8583SOL     OW34103   3.580   4.036   0.580 -0.1876  0.5725  0.3357
 8583SOL    HW234104   3.503   4.092   0.570  0.1992  1.3405  1.3938
 8583SOL    HW334105   3.545   3.950   0.602 -0.7619  0.7954  0.2930
 8583SOL    MW434106   3.566   4.032   0.582 -0.2054  0.1219  0.2390
 8584SOL     OW34107   2.680   1.611   4.643  0.6038  0.5416  0.0398
 8584SOL    HW234108   2.700   1.587   4.552 -1.1838 -1.5845  0.1529
 8584SOL    HW334109   2.709   1.537   4.695 -0.8599  0.5441  0.9142
 8584SOL    MW434110   2.686   1.598   4.637 -0.0555  0.0573 -0.5085
 8585SOL     OW34111   2.945   1.238   5.902 -0.5118 -0.0713  0.3219
 8585SOL    HW234112   3.023   1.286   5.927  0.4718 -0.8186 -1.1672
 8585SOL    HW334113   2.905   1.291   5.833 -1.0725  0.0846  0.7627
 8585SOL    MW434114   2.950   1.251   5.896 -0.2911 -0.2056  0.3743
 8586SOL     OW34115   3.980   6.381   2.559  0.7136 -0.1787 -0.6557
 8586SOL    HW234116   4.037   6.423   2.494  0.7726  1.3284  0.3149
 8586SOL    HW334117   4.040   6.344   2.624  0.6438  0.7767 -0.0156
 8586SOL    MW434118   3.995   6.382   2.559  0.3454 -0.3658  0.2675
 8587SOL     OW34119   0.813   1.749   1.040 -0.2481 -0.5094  0.0590
 8587SOL    HW234120   0.769   1.823   0.999 -0.3354 -1.3493 -1.4305
 8587SOL    HW334121   0.743   1.686   1.057  0.0282 -0.8255  0.0253
 8587SOL    MW434122   0.798   1.750   1.037  0.3161  0.1385  0.2404
 8588SOL     OW34123   5.181   1.972   5.378 -0.3358 -0.0221  0.4747
 8588SOL    HW234124   5.207   1.897   5.432  0.0356  1.5007  2.5259
 8588SOL    HW334125   5.238   1.967   5.301  1.9235 -0.1162  2.0646
 8588SOL    MW434126   5.192   1.962   5.375 -0.2636 -0.2728  0.0904
 8589SOL     OW34127   1.517   3.996   1.588 -0.1112 -0.5756  0.0264
 8589SOL    HW234128   1.471   3.943   1.654  0.1402  1.6036  2.0764
 8589SOL    HW334129   1.609   3.976   1.600  0.0815  1.0158  1.5557
 8589SOL    MW434130   1.523   3.986   1.598 -0.2625 -0.1987  0.0564
 8590SOL     OW34131   0.368   3.839   5.480  0.5033 -0.1726 -0.0465
 8590SOL    HW234132   0.370   3.935   5.486 -1.6357 -0.0109 -0.9975
 8590SOL    HW334133   0.435   3.818   5.415  0.7155  0.7136 -0.1301
 8590SOL    MW434134   0.377   3.849   5.472  0.0493  0.0586 -0.1251
 8591SOL     OW34135   1.251   4.580   1.665  0.6560 -0.3007 -0.4078
 8591SOL    HW234136   1.340   4.569   1.633  1.2688  3.2857 -0.3786
 8591SOL    HW334137   1.258   4.567   1.760  1.3947  0.8509 -0.2842
 8591SOL    MW434138   1.264   4.577   1.674 -0.2456  0.2326 -0.1687
 8592SOL     OW34139   4.147   1.704   1.491  0.0962  0.2240  0.1457
 8592SOL    HW234140   4.113   1.782   1.448  0.0847  1.0240  1.5381
 8592SOL    HW334141   4.174   1.734   1.578 -0.1606 -1.3661  0.8194
 8592SOL    MW434142   4.146   1.718   1.497 -0.3384 -0.3015  0.1904
 8593SOL     OW34143   0.053   3.715   6.345  0.3583  0.4995  0.2370
 8593SOL    HW234144   0.089   3.800   6.373  1.1799 -0.5715  2.6893
 8593SOL    HW334145   0.127   3.671   6.303  0.2579  0.5484  0.0094
 8593SOL    MW434146   0.068   3.721   6.343 -0.6924 -0.5193 -0.2204
 8594SOL     OW34147   5.076   3.804   2.246  0.8157 -0.1446  0.1276
 8594SOL    HW234148   5.096   3.710   2.250 -1.5016 -0.6820  0.7769
 8594SOL    HW334149   4.991   3.812   2.290  1.7350  2.5316  1.6108
 8594SOL    MW434150   5.067   3.792   2.252 -0.1306  0.1686 -0.0802
 8595SOL     OW34151   1.601   4.970   2.109  0.3371  0.0001 -0.1638
 8595SOL    HW234152   1.601   5.066   2.110 -0.0764  0.0029 -0.3399
 8595SOL    HW334153   1.687   4.946   2.075  0.3903  0.3111 -0.2507
 8595SOL    MW434154   1.612   4.979   2.105 -0.9942 -0.2957 -0.0152
 8596SOL     OW34155   2.060   4.127   5.559 -0.3277 -0.0827 -0.9175
 8596SOL    HW234156   2.013   4.151   5.479 -0.1658  0.0410 -0.9747
 8596SOL    HW334157   2.110   4.204   5.582 -0.8784  0.1084 -0.3241
 8596SOL    MW434158   2.060   4.140   5.552  0.2318  0.0036  0.7362
 8597SOL     OW34159   4.384   5.626   6.087 -0.2217  0.1064 -0.2357
 8597SOL    HW234160   4.296   5.662   6.095 -0.4014 -0.1609 -0.8954
 8597SOL    HW334161   4.429   5.685   6.026 -0.8754 -1.3462 -2.2566
 8597SOL    MW434162   4.379   5.639   6.080  0.4010 -0.0026 -0.7453
 8598SOL     OW34163   6.192   0.463   1.866 -0.3994  0.6076  0.3465
 8598SOL    HW234164   6.183   0.481   1.772 -0.3760  1.0486  0.4262
 8598SOL    HW334165   6.104   0.473   1.901 -0.5013 -0.0820  0.2826
 8598SOL    MW434166   6.179   0.467   1.858 -0.1603 -0.2817  0.0546
 8599SOL     OW34167   5.134   5.113   2.158  0.5759  0.2254 -0.0335
 8599SOL    HW234168   5.081   5.192   2.147 -0.2884 -0.3301  0.0349
 8599SOL    HW334169   5.216   5.144   2.198 -0.1466  0.9409  0.9199
 8599SOL    MW434170   5.138   5.127   2.162  0.1992  0.1060  0.6031
 8600SOL     OW34171   0.341   6.190   4.456 -0.6076 -0.2203  0.1146
 8600SOL    HW234172   0.400   6.140   4.512 -1.2016 -0.5677  0.4393
 8600SOL    HW334173   0.366   6.165   4.367 -0.4226 -0.5518  0.2565
 8600SOL    MW434174   0.352   6.180   4.452 -0.2465  0.1372 -0.4857
 8601SOL     OW34175   0.136   6.267   4.619 -0.1023 -0.2802 -0.4653
 8601SOL    HW234176   0.098   6.202   4.678  0.4948  0.3218  0.6290
 8601SOL    HW334177   0.215   6.225   4.585 -0.1789 -0.4499 -0.4338
 8601SOL    MW434178   0.141   6.253   4.623 -0.5199 -0.3794 -0.0758
 8602SOL     OW34179   4.960   5.343   2.219  0.3544 -0.4467 -0.1079
 8602SOL    HW234180   4.942   5.418   2.162  1.1018 -0.5610 -0.5007
 8602SOL    HW334181   5.028   5.373   2.278 -0.1309 -0.4626  0.4742
 8602SOL    MW434182   4.966   5.357   2.219  0.0169  0.6915  0.8181
 8603SOL     OW34183   5.018   1.235   1.125  0.2896 -0.3939 -0.2527
 8603SOL    HW234184   4.941   1.246   1.182 -0.3483 -0.1302 -1.1418
 8603SOL    HW334185   5.006   1.302   1.057  0.4706 -1.4215 -1.3102
 8603SOL    MW434186   5.006   1.246   1.124 -0.4470 -0.4599  0.6586
 8604SOL     OW34187   3.355   2.468   5.185 -0.5501  0.5335 -0.1047
 8604SOL    HW234188   3.418   2.524   5.231 -0.1028  0.4554 -0.6043
 8604SOL    HW334189   3.353   2.504   5.096  0.6123 -0.9251 -0.7687
 8604SOL    MW434190   3.363   2.480   5.179  0.3921  0.1979  0.3794
 8605SOL     OW34191   5.359   4.265   3.509  0.1167  0.2879  0.4691
 8605SOL    HW234192   5.297   4.198   3.536  0.2401 -0.4542 -0.9737
 8605SOL    HW334193   5.307   4.345   3.502 -0.3748 -0.0114  0.6440
 8605SOL    MW434194   5.344   4.267   3.512  0.4256 -0.3220  0.3713
 8606SOL     OW34195   0.435   2.481   4.345  0.1386 -0.4183  0.2438
 8606SOL    HW234196   0.413   2.570   4.371 -0.4924  0.3388 -2.5468
 8606SOL    HW334197   0.383   2.425   4.403 -0.2397  1.0335  1.3690
 8606SOL    MW434198   0.425   2.485   4.356  0.1792 -0.5746  0.2341
 8607SOL     OW34199   3.586   1.356   1.695 -0.7894 -0.2868 -0.0923
 8607SOL    HW234200   3.527   1.368   1.769 -0.3400 -1.1608  0.4344
 8607SOL    HW334201   3.578   1.263   1.673 -2.2392  0.2712 -2.3072
 8607SOL    MW434202   3.577   1.345   1.702  0.0707  0.2265  0.0331
 8608SOL     OW34203   5.410   3.386   0.958  0.1795 -0.0794 -0.1551
 8608SOL    HW234204   5.483   3.433   0.999  1.3365 -2.1024  0.2080
 8608SOL    HW334205   5.447   3.346   0.880 -1.2450  1.0760 -1.4895
 8608SOL    MW434206   5.425   3.387   0.953 -0.1057 -0.0772 -0.1510
 8609SOL     OW34207   6.007   6.247   5.759 -0.4196 -0.6786 -0.2413
 8609SOL    HW234208   6.003   6.151   5.764  0.4191 -0.7040 -0.0012
 8609SOL    HW334209   5.990   6.276   5.848  0.4255 -0.6482 -0.0833
 8609SOL    MW434210   6.004   6.238   5.771  0.2445  0.0389  0.2988
 8610SOL     OW34211   5.895   0.789   4.124 -0.1932  0.3757 -0.1901
 8610SOL    HW234212   5.876   0.704   4.084  0.6486  0.8100 -1.5967
 8610SOL    HW334213   5.977   0.774   4.172  0.4062  0.5680 -1.1214
 8610SOL    MW434214   5.904   0.776   4.125 -0.3263  0.3004 -0.4771
 8611SOL     OW34215   2.967   4.910   2.664 -0.7516  0.0615 -0.3092
 8611SOL    HW234216   2.982   4.835   2.723 -0.9822 -0.7857 -1.3029
 8611SOL    HW334217   3.054   4.947   2.650  0.1238 -2.5886 -3.1092
 8611SOL    MW434218   2.980   4.905   2.670  0.4703 -0.2836  0.2223
 8612SOL     OW34219   5.234   0.863   5.461 -0.0528 -0.1583  0.1188
 8612SOL    HW234220   5.174   0.789   5.458 -0.5048  0.2172 -0.1496
 8612SOL    HW334221   5.203   0.924   5.394  0.8784 -0.1446 -0.3230
 8612SOL    MW434222   5.222   0.862   5.452 -0.0111 -0.0745  0.6339
 8613SOL     OW34223   3.955   5.382   5.526 -0.6532  0.5465  0.4418
 8613SOL    HW234224   3.929   5.290   5.522 -1.1108  0.6882  0.0298
 8613SOL    HW334225   4.049   5.380   5.546 -0.3757 -0.0413 -0.7915
 8613SOL    MW434226   3.964   5.370   5.528  0.1943  0.0740 -0.4181
 8614SOL     OW34227   1.416   0.461   3.573 -0.1187 -0.1898  0.1704
 8614SOL    HW234228   1.345   0.460   3.509 -0.0295  0.1291  0.0637
 8614SOL    HW334229   1.412   0.548   3.613  0.9820  0.3004 -0.7294
 8614SOL    MW434230   1.406   0.472   3.570  0.8612  0.0756  0.1928
 8615SOL     OW34231   2.452   5.080   4.942  0.3631  0.1330 -0.0309
 8615SOL    HW234232   2.512   5.151   4.921  0.3604  0.9292  2.3279
 8615SOL    HW334233   2.460   5.070   5.037 -1.4481 -1.3768  0.0137
 8615SOL    MW434234   2.461   5.088   4.952  0.2877  0.2158 -0.1226
 8616SOL     OW34235   4.663   1.954   4.245  0.3024  0.2630  1.1552
 8616SOL    HW234236   4.626   2.041   4.231  0.7403  0.3212  0.2884
 8616SOL    HW334237   4.617   1.898   4.182 -0.7616 -0.3656  2.4599
 8616SOL    MW434238   4.652   1.958   4.235 -0.5436 -0.0441  0.0217
 8617SOL     OW34239   3.208   3.781   6.010 -0.2236 -0.5087  0.2070
 8617SOL    HW234240   3.245   3.772   5.922 -1.1962  1.2301 -0.4366
 8617SOL    HW334241   3.157   3.702   6.023 -0.8241 -0.3876 -1.2046
 8617SOL    MW434242   3.207   3.769   6.000  0.1354 -0.0889  0.4393
 8618SOL     OW34243   5.087   4.645   0.863  0.3027  0.2856  0.4264
 8618SOL    HW234244   5.018   4.593   0.904 -1.0482  1.7577  0.1642
 8618SOL    HW334245   5.169   4.602   0.888 -0.5261  0.1518  3.2912
 8618SOL    MW434246   5.089   4.633   0.872 -0.7616  0.1534 -0.5028
 8619SOL     OW34247   4.963   5.169   5.637 -0.3515 -0.2580 -0.9093
 8619SOL    HW234248   5.042   5.203   5.678 -0.4914 -1.2350  0.2498
 8619SOL    HW334249   4.990   5.089   5.593 -0.9124 -1.4018  0.7316
 8619SOL    MW434250   4.977   5.163   5.637  0.1026  1.2336  0.2142
 8620SOL     OW34251   5.867   3.429   6.338  0.1244 -0.2991 -0.3826
 8620SOL    HW234252   5.897   3.339   6.349 -2.4632 -1.5268 -2.3278
 8620SOL    HW334253   5.823   3.430   6.253 -0.6114  2.6199 -0.0913
 8620SOL    MW434254   5.865   3.417   6.328  0.2137  0.5454 -0.8969
 8621SOL     OW34255   5.733   4.054   1.180  0.3222  0.1205 -0.5956
 8621SOL    HW234256   5.788   4.115   1.229  1.6086 -0.9709 -0.6004
 8621SOL    HW334257   5.751   4.074   1.088  1.3453 -0.7249 -0.6043
 8621SOL    MW434258   5.743   4.065   1.174  0.1592 -0.1055  0.1358
 8622SOL     OW34259   3.168   4.983   2.397  0.5960 -0.3070 -0.4435
 8622SOL    HW234260   3.183   4.999   2.491 -0.2975 -0.5919 -0.2471
 8622SOL    HW334261   3.099   5.045   2.374 -0.5489 -1.5433 -0.4556
 8622SOL    MW434262   3.161   4.994   2.407 -0.0123 -0.3361  0.0034
 8623SOL     OW34263   6.072   3.493   3.207 -0.5197  0.2819  0.1717
 8623SOL    HW234264   6.079   3.533   3.293  0.1586 -0.1273  0.3130
 8623SOL    HW334265   6.115   3.408   3.216 -1.1392 -0.1017 -0.3602
 8623SOL    MW434266   6.079   3.487   3.220  0.6111 -0.2454 -0.4208
 8624SOL     OW34267   4.833   4.230   0.903  0.1104 -0.3210 -0.6697
 8624SOL    HW234268   4.753   4.261   0.860 -0.1013  0.8513  0.4888
 8624SOL    HW334269   4.859   4.303   0.960  1.0329 -1.3563  0.2822
 8624SOL    MW434270   4.826   4.244   0.905  0.3713  0.2038 -0.0576
 8625SOL     OW34271   4.130   2.344   6.091 -0.0728  0.4759 -0.0238
 8625SOL    HW234272   4.116   2.432   6.125  0.0190  0.4762  0.0123
 8625SOL    HW334273   4.042   2.312   6.071 -0.0312  1.0520 -1.2150
 8625SOL    MW434274   4.117   2.351   6.093 -0.2485  0.2875  0.6671
 8626SOL     OW34275   5.333   0.444   1.082  0.2699  0.1409 -0.2000
 8626SOL    HW234276   5.298   0.387   1.151  2.0591 -0.3213  0.4052
 8626SOL    HW334277   5.258   0.492   1.049 -1.0013 -1.2608  0.5426
 8626SOL    MW434278   5.319   0.442   1.087  0.6566  0.3503 -0.5251
 8627SOL     OW34279   0.984   1.194   5.502  0.5734 -0.3067 -0.1053
 8627SOL    HW234280   0.937   1.237   5.430  2.0272  2.3519  0.4033
 8627SOL    HW334281   1.016   1.112   5.464 -1.6703 -0.6644 -1.3876
 8627SOL    MW434282   0.982   1.189   5.487  0.0969  0.3084 -0.8614
 8628SOL     OW34283   3.199   1.309   5.710 -0.4539  0.1302 -0.0313
 8628SOL    HW234284   3.197   1.217   5.738 -1.3085 -0.2075 -1.1349
 8628SOL    HW334285   3.196   1.306   5.615  2.0922  1.2739 -0.2232
 8628SOL    MW434286   3.198   1.297   5.701 -0.0193  0.5984 -0.4816
 8629SOL     OW34287   2.331   3.037   5.288  0.6023 -0.7367  0.4289
 8629SOL    HW234288   2.376   3.019   5.205  1.5001  0.2309  0.6763
 8629SOL    HW334289   2.387   2.996   5.354  0.9700  0.1775  0.7087
 8629SOL    MW434290   2.344   3.030   5.286 -0.3239 -0.4658 -0.1117
 8630SOL     OW34291   2.195   3.471   0.772  0.3864  1.1158 -0.1503
 8630SOL    HW234292   2.180   3.392   0.825 -1.8757  2.5282  1.5046
 8630SOL    HW334293   2.112   3.483   0.725  0.4435  2.8743  0.1648
 8630SOL    MW434294   2.182   3.462   0.773 -0.0642 -0.2356 -0.0068
 8631SOL     OW34295   0.818   3.582   0.606  0.7433  0.4748 -0.0411
 8631SOL    HW234296   0.822   3.488   0.589 -2.3818  0.2542 -0.0302
 8631SOL    HW334297   0.755   3.591   0.677 -2.6015  2.7228 -2.9338
 8631SOL    MW434298   0.810   3.571   0.613 -0.6105  0.7289 -0.3998
 8632SOL     OW34299   0.841   5.470   6.037 -0.1148  0.6792  0.0427
 8632SOL    HW234300   0.760   5.506   6.000 -0.4872 -1.9448 -1.9828
 8632SOL    HW334301   0.811   5.401   6.096  0.6264  0.1606 -0.1827
 8632SOL    MW434302   0.826   5.466   6.040 -0.3624 -0.7356  0.0276
 8633SOL     OW34303   3.480   1.582   1.063 -0.1671 -0.3798  0.2401
 8633SOL    HW234304   3.468   1.625   1.148  0.2097 -2.6286  1.5154
 8633SOL    HW334305   3.449   1.646   0.999 -1.2871  1.0728  2.1248
 8633SOL    MW434306   3.474   1.596   1.066  0.0837  0.6585  0.3313
 8634SOL     OW34307   1.003   5.843   0.686 -0.5578  0.3570 -0.3217
 8634SOL    HW234308   0.954   5.764   0.664 -0.6434  0.4312 -0.3930
 8634SOL    HW334309   1.090   5.827   0.649 -0.2432 -0.1754  0.6058
 8634SOL    MW434310   1.008   5.830   0.679 -0.0958  0.3348 -0.2681
 8635SOL     OW34311   1.862   0.976   3.587 -0.0325  0.3293 -0.7071
 8635SOL    HW234312   1.827   1.063   3.568  1.9594  1.2634 -0.4300
 8635SOL    HW334313   1.944   0.972   3.538  1.2290 -0.3333  1.3127
 8635SOL    MW434314   1.868   0.987   3.578 -0.0948  0.3658 -0.0404
 8636SOL     OW34315   5.148   2.949   4.428 -0.2309  0.4192  0.1874
 8636SOL    HW234316   5.111   2.961   4.515 -0.3308  0.1538  0.1813
 8636SOL    HW334317   5.076   2.915   4.375  0.0568 -0.2304  0.2093
 8636SOL    MW434318   5.133   2.946   4.432  0.1379  0.5764 -0.9098
 8637SOL     OW34319   1.484   4.874   1.868  0.5189  0.4414  0.1522
 8637SOL    HW234320   1.514   4.898   1.956  1.7104  0.0544 -0.1343
 8637SOL    HW334321   1.426   4.799   1.883  1.5339 -0.2869  0.5341
 8637SOL    MW434322   1.480   4.867   1.882  0.6666  0.9584  0.9879
 8638SOL     OW34323   2.594   6.288   1.144  0.0773  0.0529  0.0248
 8638SOL    HW234324   2.684   6.265   1.166  0.2396 -0.3328 -1.0014
 8638SOL    HW334325   2.552   6.303   1.229  1.3513  1.2553  0.4746
 8638SOL    MW434326   2.600   6.287   1.158  0.2643  0.0588  0.3678
 8639SOL     OW34327   0.373   5.649   4.443 -0.3198 -0.1877 -0.6549
 8639SOL    HW234328   0.280   5.652   4.467 -0.2190  1.6978 -0.3159
 8639SOL    HW334329   0.407   5.572   4.488 -1.3053  0.2699  0.9550
 8639SOL    MW434330   0.365   5.639   4.452 -0.4350  0.1586  0.6833
 8640SOL     OW34331   5.561   5.777   2.047 -0.1775 -0.5356  0.1996
 8640SOL    HW234332   5.542   5.803   1.957 -0.3990  1.2774  0.7217
 8640SOL    HW334333   5.633   5.714   2.039 -0.2683 -0.4987 -1.2370
 8640SOL    MW434334   5.568   5.772   2.034 -0.3150  0.2458 -0.1951
 8641SOL     OW34335   1.880   0.730   4.147  0.1441 -0.6733  0.0439
 8641SOL    HW234336   1.956   0.688   4.106  0.1798 -1.1884  0.6319
 8641SOL    HW334337   1.899   0.728   4.240 -0.3968 -0.4040  0.1625
 8641SOL    MW434338   1.892   0.725   4.154 -0.0056 -0.4732 -0.0914
 8642SOL     OW34339   3.709   0.019   2.797  0.2076  0.0555  0.2132
 8642SOL    HW234340   3.712   0.091   2.861 -1.7300  0.5690 -0.1882
 8642SOL    HW334341   3.750  -0.055   2.842  0.5281  0.8955  1.3629
 8642SOL    MW434342   3.715   0.019   2.812  0.1043 -0.4764 -0.2393
 8643SOL     OW34343   5.605   2.206   3.729  0.2937  0.3920 -0.2816
 8643SOL    HW234344   5.547   2.242   3.796  0.7113  1.2507 -0.3639
 8643SOL    HW334345   5.676   2.166   3.779  0.3383  0.5697 -0.2013
 8643SOL    MW434346   5.607   2.206   3.745  0.0561  0.6191  0.1130
 8644SOL     OW34347   0.316   6.207   0.584 -0.1755 -0.6352 -0.4069
 8644SOL    HW234348   0.389   6.187   0.525 -0.4981 -2.7494 -0.1807
 8644SOL    HW334349   0.341   6.166   0.667 -0.9341 -0.0304  0.1399
 8644SOL    MW434350   0.329   6.199   0.587  0.0478 -0.7122 -0.4688
 8645SOL     OW34351   1.336   4.136   2.061  0.0366  0.1101  0.5490
 8645SOL    HW234352   1.322   4.041   2.059  0.9918 -0.0688 -2.4066
 8645SOL    HW334353   1.324   4.164   1.970  3.6106  2.1574  0.5239
 8645SOL    MW434354   1.333   4.127   2.049 -0.6206  0.0072  0.1079
 8646SOL     OW34355   1.044   1.189   0.143  0.5860  0.5301 -0.5315
 8646SOL    HW234356   1.032   1.100   0.175 -0.5947  0.5967 -0.7529
 8646SOL    HW334357   0.965   1.208   0.093  0.3330  2.0614  0.3618
 8646SOL    MW434358   1.032   1.180   0.141  0.7149  0.3383  0.3314
 8647SOL     OW34359   1.364   5.870   5.048 -0.1178 -0.5758 -0.5497
 8647SOL    HW234360   1.348   5.919   4.967  0.0495 -0.3894 -0.4719
 8647SOL    HW334361   1.431   5.806   5.024  2.2331  1.4810  0.1708
 8647SOL    MW434362   1.371   5.868   5.034  0.5261 -0.2340 -0.0804
 8648SOL     OW34363   5.320   2.136   0.642 -0.1437 -0.1876  0.3383
 8648SOL    HW234364   5.252   2.192   0.678  0.1238  0.8658 -0.7467
 8648SOL    HW334365   5.387   2.196   0.610  0.0126 -1.0842 -1.1277
 8648SOL    MW434366   5.320   2.151   0.642  0.3262  0.0188  0.1577
 8649SOL     OW34367   6.183   3.589   3.595  0.1948  0.0456 -0.1390
 8649SOL    HW234368   6.218   3.502   3.612  1.9993  0.9913  1.2673
 8649SOL    HW334369   6.180   3.631   3.681  1.4455  2.0989 -1.0356
 8649SOL    MW434370   6.187   3.583   3.609  0.0766  0.7167  0.4589
 8650SOL     OW34371   4.579   0.103   1.265  0.1438  0.1952 -0.0780
 8650SOL    HW234372   4.488   0.135   1.269  0.3341  0.7295  0.1659
 8650SOL    HW334373   4.616   0.148   1.189  0.4243  0.5931  0.2867
 8650SOL    MW434374   4.572   0.113   1.256 -0.0786 -0.0677  0.5295
 8651SOL     OW34375   0.023   1.412   2.979 -0.6233  0.1992 -0.0005
 8651SOL    HW234376  -0.059   1.453   2.949 -1.3088  0.8453  2.5023
 8651SOL    HW334377  -0.003   1.361   3.056  1.3820  0.6406  1.0230
 8651SOL    MW434378   0.009   1.410   2.986  1.0951 -0.4807 -0.7706
 8652SOL     OW34379   4.188   2.103   5.189 -0.4262  0.1447  0.2279
 8652SOL    HW234380   4.241   2.027   5.211  0.8032  1.0233  0.3920
 8652SOL    HW334381   4.111   2.067   5.146  1.2847 -1.0664 -2.0287
 8652SOL    MW434382   4.185   2.088   5.186 -0.0406  0.1936  0.1463
 8653SOL     OW34383   6.011   2.019   3.373  0.6036  0.0173 -0.5606
 8653SOL    HW234384   6.034   2.089   3.434 -2.5953 -1.1224  2.2734
 8653SOL    HW334385   5.992   2.064   3.290  2.0598  1.9946  0.1122
 8653SOL    MW434386   6.012   2.034   3.370  0.5721 -0.0224  0.0497
 8654SOL     OW34387   2.161   1.487   6.389 -0.3725  0.4635  0.1062
 8654SOL    HW234388   2.107   1.408   6.381 -1.8985  1.2815  1.6693
 8654SOL    HW334389   2.191   1.505   6.300 -1.2335 -1.0242 -0.5197
 8654SOL    MW434390   2.158   1.479   6.376 -0.1479  0.7591 -0.0123
 8655SOL     OW34391   1.338   0.596   0.952  0.5942  0.0173 -0.4680
 8655SOL    HW234392   1.244   0.597   0.936  0.5394  0.8530 -0.1187
 8655SOL    HW334393   1.346   0.579   1.046  0.8717 -2.8313 -0.9269
 8655SOL    MW434394   1.327   0.594   0.962 -0.4963  0.0055  0.1114
 8656SOL     OW34395   0.362   0.551   1.676 -1.0545  0.9987  0.3827
 8656SOL    HW234396   0.283   0.503   1.702  0.2769 -2.0434 -0.6645
 8656SOL    HW334397   0.423   0.538   1.750 -0.7953  1.3673  0.2332
 8656SOL    MW434398   0.360   0.543   1.689 -0.7220  0.6344 -0.4518
 8657SOL     OW34399   5.896   4.949   1.731  0.5540 -0.4324  0.4855
 8657SOL    HW234400   5.943   4.952   1.647 -0.1392  0.9703  0.1241
 8657SOL    HW334401   5.811   4.989   1.713 -0.7497 -2.7030  1.1962
 8657SOL    MW434402   5.891   4.955   1.717  0.0920  0.5031  0.2583
 8658SOL     OW34403   5.326   6.099   5.604  0.1036 -0.5467  0.2403
 8658SOL    HW234404   5.252   6.066   5.553  0.0839 -1.5472  0.8876
 8658SOL    HW334405   5.390   6.126   5.538 -1.2012  1.2814 -0.3509
 8658SOL    MW434406   5.324   6.098   5.588  0.8616 -0.0305  0.6333
 8659SOL     OW34407   4.519   1.544   0.852  0.5421 -0.5498 -0.7920
 8659SOL    HW234408   4.559   1.566   0.936 -0.4185 -1.1161 -0.1621
 8659SOL    HW334409   4.586   1.492   0.807  1.2310  0.1283 -0.5716
 8659SOL    MW434410   4.533   1.540   0.858  0.3034  0.6817 -0.4056
 8660SOL     OW34411   0.724   0.867   3.268  0.3359 -0.2778  0.1386
 8660SOL    HW234412   0.816   0.877   3.290 -0.1376  2.1206  1.3568
 8660SOL    HW334413   0.702   0.946   3.219 -0.6768 -1.6622 -1.7923
 8660SOL    MW434414   0.733   0.878   3.264 -0.7095 -0.3668 -0.1381
 8661SOL     OW34415   4.038   2.052   4.421 -0.1152  0.1035  0.5878
 8661SOL    HW234416   4.134   2.048   4.414 -0.1292 -1.0931  0.8267
 8661SOL    HW334417   4.007   1.993   4.352 -0.5909 -1.4394  2.0696
 8661SOL    MW434418   4.047   2.043   4.411  0.3358  0.2233 -0.0623
 8662SOL     OW34419   3.775   3.148   2.695  0.0209  0.0303 -0.2670
 8662SOL    HW234420   3.854   3.125   2.743 -0.8497  0.1932  1.3338
 8662SOL    HW334421   3.708   3.089   2.730 -0.6919  0.2542 -1.1988
 8662SOL    MW434422   3.776   3.137   2.706 -0.1405  0.7608  0.0466
 8663SOL     OW34423   2.194   5.096   3.716  0.4670 -0.0039 -0.0739
 8663SOL    HW234424   2.107   5.069   3.745  0.7648 -0.6844  0.2010
 8663SOL    HW334425   2.182   5.121   3.624 -0.3199  1.4141  0.3979
 8663SOL    MW434426   2.181   5.095   3.707 -0.7022 -0.5068 -0.7841
 8664SOL     OW34427   1.348   2.679   0.894  0.3306  0.2159 -0.0172
 8664SOL    HW234428   1.332   2.667   0.988  0.2887  1.0117  0.0867
 8664SOL    HW334429   1.388   2.766   0.888 -0.6835  0.6489 -0.8445
 8664SOL    MW434430   1.351   2.689   0.906 -0.6662  0.2824 -0.2322
 8665SOL     OW34431   2.922   0.124   2.593  0.4485  0.1426  0.1830
 8665SOL    HW234432   2.870   0.203   2.577 -0.1873 -0.2955  0.0717
 8665SOL    HW334433   2.983   0.150   2.663  0.6430  0.9020 -0.2551
 8665SOL    MW434434   2.923   0.138   2.600 -0.1934  0.0113  0.5683
 8666SOL     OW34435   2.952   2.821   5.482  0.1345 -0.5155  0.1618
 8666SOL    HW234436   2.881   2.758   5.472  0.0757 -0.9590  2.7203
 8666SOL    HW334437   2.923   2.898   5.435 -1.0800 -1.4045 -0.6049
 8666SOL    MW434438   2.939   2.823   5.474 -0.5934 -0.4949 -0.4508
 8667SOL     OW34439   4.886   6.059   0.476  0.2867  0.2935 -0.3292
 8667SOL    HW234440   4.975   6.058   0.509  0.7385  0.4338 -1.4908
 8667SOL    HW334441   4.878   5.978   0.425  0.0827  0.7449 -1.0339
 8667SOL    MW434442   4.896   6.048   0.474  0.6649  0.1011  0.2060
 8668SOL     OW34443   3.565   1.192   4.167  0.0446 -0.2865  0.4359
 8668SOL    HW234444   3.476   1.160   4.159  0.7183 -2.0144 -0.7412
 8668SOL    HW334445   3.590   1.172   4.258 -1.5786  2.6858  1.6808
 8668SOL    MW434446   3.557   1.185   4.178 -0.3664 -0.0555  0.7042
 8669SOL     OW34447   5.359   2.834   6.299  0.2646 -0.5336  0.1205
 8669SOL    HW234448   5.325   2.866   6.383  0.6855  0.1036  0.0609
 8669SOL    HW334449   5.282   2.817   6.246  0.0117  1.5192 -0.2533
 8669SOL    MW434450   5.345   2.836   6.303  0.3240 -0.2248 -0.0218
 8670SOL     OW34451   1.108   4.083   2.713  0.4864 -0.1667 -0.1659
 8670SOL    HW234452   1.122   3.989   2.726  0.2701 -0.4169 -1.5741
 8670SOL    HW334453   1.032   4.103   2.768  0.0695 -0.9804 -0.4141
 8670SOL    MW434454   1.100   4.073   2.722 -0.9661  0.8997  0.2359
 8671SOL     OW34455   2.918   1.970   3.743  0.3830 -0.4670 -0.4235
 8671SOL    HW234456   2.863   1.913   3.689  0.2942 -0.4626 -0.3390
 8671SOL    HW334457   2.927   1.924   3.826 -0.9666  0.3104  0.2117
 8671SOL    MW434458   2.912   1.957   3.747  0.6151  0.5355  0.2322
 8672SOL     OW34459   3.248   2.286   3.396  0.1834 -0.2673  0.1407
 8672SOL    HW234460   3.172   2.290   3.454  0.0578 -1.2677  0.0775
 8672SOL    HW334461   3.220   2.228   3.325  0.3908  0.7964 -0.8348
 8672SOL    MW434462   3.234   2.279   3.394  0.4774 -0.1373 -0.1109
 8673SOL     OW34463   3.125   5.184   5.472 -0.9160 -0.0069 -0.0988
 8673SOL    HW234464   3.100   5.217   5.385 -2.5604 -2.8330 -0.8273
 8673SOL    HW334465   3.219   5.171   5.465 -0.5274  2.4513 -0.4222
 8673SOL    MW434466   3.134   5.187   5.459 -0.4643  0.1670 -0.0127
 8674SOL     OW34467   0.451   4.430   1.454  0.1653 -0.7906  0.0843
 8674SOL    HW234468   0.540   4.456   1.477  0.9043 -2.5524 -0.5542
 8674SOL    HW334469   0.418   4.385   1.532  0.8077 -2.3310 -0.4812
 8674SOL    MW434470   0.458   4.427   1.467  0.8032  0.1236  0.4469
 8675SOL     OW34471   3.267   2.373   1.378 -0.2722  0.2871 -0.6146
 8675SOL    HW234472   3.284   2.367   1.284 -0.5848  0.7260 -0.7019
 8675SOL    HW334473   3.354   2.364   1.418 -0.1816 -0.2990 -0.9193
 8675SOL    MW434474   3.281   2.371   1.371  0.1239 -0.1295  0.4544
 8676SOL     OW34475   5.839   3.492   0.399 -0.5640  0.0614 -0.3080
 8676SOL    HW234476   5.832   3.430   0.327 -0.2654 -0.3611  0.0204
 8676SOL    HW334477   5.876   3.571   0.360 -1.3245  0.1788 -0.8121
 8676SOL    MW434478   5.843   3.494   0.385 -0.5213  0.1250  0.5522
 8677SOL     OW34479   1.426   1.102   1.351 -0.0083  0.2055 -0.8159
 8677SOL    HW234480   1.434   1.057   1.267  0.3394 -0.5721 -0.3788
 8677SOL    HW334481   1.505   1.156   1.357  0.3818 -0.3780 -0.6256
 8677SOL    MW434482   1.438   1.103   1.341 -0.5331 -0.2774  0.1118
 8678SOL     OW34483   4.510   0.423   1.112  0.0221 -0.3106 -0.1156
 8678SOL    HW234484   4.597   0.397   1.144 -0.4584 -1.6333  0.1667
 8678SOL    HW334485   4.479   0.487   1.176 -0.0559 -1.3843  0.9539
 8678SOL    MW434486   4.518   0.428   1.125  0.9095 -0.1678  0.1134
 8679SOL     OW34487   2.668   5.652   0.828 -0.5845  0.5234  0.0421
 8679SOL    HW234488   2.638   5.589   0.893  0.7005 -0.8927 -0.6701
 8679SOL    HW334489   2.623   5.627   0.747  0.2959  0.1836 -0.3583
 8679SOL    MW434490   2.658   5.641   0.826  0.4907  0.2902  0.0545
 8680SOL     OW34491   0.545   5.249   4.137  0.6483 -0.0116  0.8128
 8680SOL    HW234492   0.526   5.185   4.069 -1.2096  1.8300 -0.5108
 8680SOL    HW334493   0.463   5.257   4.186  2.0504 -1.6180  3.6896
 8680SOL    MW434494   0.532   5.242   4.135  0.3238  0.1085 -0.4312
 8681SOL     OW34495   4.173   3.053   4.891  0.4977 -0.2571 -0.4044
 8681SOL    HW234496   4.233   3.041   4.965 -1.7044 -1.4329  1.3021
 8681SOL    HW334497   4.138   3.141   4.903 -0.3355 -0.6770  0.3824
 8681SOL    MW434498   4.176   3.063   4.902 -0.0537  0.9253  0.2248
 8682SOL     OW34499   4.616   0.302   0.560 -0.8079 -1.1333 -0.0152
 8682SOL    HW234500   4.579   0.384   0.592  1.0715 -0.3707  0.3240
 8682SOL    HW334501   4.693   0.328   0.509  0.4873 -2.7038  1.0255
 8682SOL    MW434502   4.621   0.316   0.557 -0.0281  0.0209  0.4743
 8683SOL     OW34503   6.110   3.953   3.957 -0.3857  0.3322  0.5165
 8683SOL    HW234504   6.022   3.942   3.922 -1.1540  1.5684  1.9202
 8683SOL    HW334505   6.109   4.041   3.996  1.2399  0.0751  1.2236
 8683SOL    MW434506   6.099   3.963   3.957  0.0904 -0.0876  0.4176
 8684SOL     OW34507   6.130   1.428   3.096  0.2077 -0.8395 -0.3906
 8684SOL    HW234508   6.089   1.460   3.176 -0.8429 -0.1042 -1.1898
 8684SOL    HW334509   6.204   1.376   3.126  0.2296 -0.0372  1.0362
 8684SOL    MW434510   6.134   1.425   3.110  0.0482  0.1210  0.2847
 8685SOL     OW34511   3.050   3.825   5.440 -0.0823  0.0204 -0.3298
 8685SOL    HW234512   2.996   3.750   5.413 -0.9221  0.2711  0.6039
 8685SOL    HW334513   3.011   3.854   5.522 -0.6326  2.3251 -1.3380
 8685SOL    MW434514   3.037   3.819   5.447 -0.0580 -0.0608 -0.3453
 8686SOL     OW34515   3.199   2.489   5.567  0.2167 -0.0309 -0.1193
 8686SOL    HW234516   3.284   2.446   5.577 -0.3854 -1.1262  0.4638
 8686SOL    HW334517   3.151   2.433   5.504  0.1063  0.8672 -0.8568
 8686SOL    MW434518   3.204   2.476   5.560  0.2306 -0.1360 -0.4052
 8687SOL     OW34519   2.063   4.995   4.026 -0.1340 -0.1344 -0.3455
 8687SOL    HW234520   2.136   4.978   3.967  0.2849 -1.7098  0.5662
 8687SOL    HW334521   2.041   4.910   4.063 -2.5418  0.2734 -0.6807
 8687SOL    MW434522   2.070   4.982   4.023 -0.1443 -0.2176  0.2093
 8688SOL     OW34523   0.192   6.263   5.556 -0.2290  0.5402  0.1317
 8688SOL    HW234524   0.181   6.310   5.638 -1.5095  0.7415 -0.1281
 8688SOL    HW334525   0.213   6.173   5.582 -0.0802  0.7297  0.6681
 8688SOL    MW434526   0.193   6.257   5.570 -0.3370  0.3807  0.2738
 8689SOL     OW34527   3.692   6.375   3.470  0.1339 -0.4508  0.5066
 8689SOL    HW234528   3.759   6.423   3.518 -0.1967 -0.0192  0.5379
 8689SOL    HW334529   3.615   6.432   3.471  0.5864  0.3291 -1.9551
 8689SOL    MW434530   3.690   6.389   3.476  0.1140  0.2131  0.1216
 8690SOL     OW34531   0.886   2.123   0.298 -0.8417  0.2952 -0.2745
 8690SOL    HW234532   0.839   2.089   0.222 -0.3428  0.3785 -0.6301
 8690SOL    HW334533   0.886   2.051   0.361 -1.7933  0.4353 -0.1019
 8690SOL    MW434534   0.880   2.109   0.297 -0.5457 -0.3422  0.0520
 8691SOL     OW34535   3.640   5.321   3.731 -0.5008  0.5663  0.0696
 8691SOL    HW234536   3.675   5.293   3.646 -1.0497  0.6010 -0.1757
 8691SOL    HW334537   3.604   5.241   3.769 -0.9517  0.6977 -0.0778
 8691SOL    MW434538   3.640   5.307   3.725  0.1383  0.3196 -0.0325
 8692SOL     OW34539   3.649   1.135   3.911 -0.7872  0.6008  0.1699
 8692SOL    HW234540   3.603   1.137   3.995 -0.2964  3.8615  0.4947
 8692SOL    HW334541   3.581   1.155   3.847 -0.9306 -0.7251 -0.1216
 8692SOL    MW434542   3.634   1.138   3.914  0.5618  0.1553 -0.5046
 8693SOL     OW34543   5.606   1.023   4.188  0.2907 -0.0572  0.0801
 8693SOL    HW234544   5.659   0.999   4.263  1.8680  0.7342 -0.7333
 8693SOL    HW334545   5.605   0.945   4.132 -1.2830 -0.8115  1.0765
 8693SOL    MW434546   5.613   1.010   4.190  0.0233 -0.6572 -0.0108
 8694SOL     OW34547   1.530   1.356   5.663 -0.1709 -0.0861 -0.2831
 8694SOL    HW234548   1.528   1.392   5.751  1.5932 -1.5566  0.4400
 8694SOL    HW334549   1.471   1.280   5.666  1.4703 -1.4096  0.3275
 8694SOL    MW434550   1.522   1.351   5.675  0.2301  0.0992 -0.2962
 8695SOL     OW34551   3.392   6.155   4.136 -0.0279 -0.2730 -0.4648
 8695SOL    HW234552   3.311   6.201   4.115 -0.7910 -1.4120 -0.1220
 8695SOL    HW334553   3.443   6.158   4.056 -1.3314 -1.3577 -1.3915
 8695SOL    MW434554   3.388   6.161   4.123  0.1956  0.5206 -0.5490
 8696SOL     OW34555   3.282   2.626   3.594 -0.2924 -0.4320 -0.2379
 8696SOL    HW234556   3.203   2.680   3.587  0.0124 -0.1166 -1.3911
 8696SOL    HW334557   3.277   2.587   3.682 -0.2907  1.8456  0.8522
 8696SOL    MW434558   3.271   2.628   3.605  0.5389  0.3296 -0.5319
 8697SOL     OW34559   2.446   2.328   1.591  0.5404 -0.8389 -0.1408
 8697SOL    HW234560   2.427   2.255   1.532  0.8165 -0.8624 -0.1999
 8697SOL    HW334561   2.477   2.398   1.533 -0.0386 -0.5619 -0.1216
 8697SOL    MW434562   2.447   2.327   1.575  0.1800  0.3335  0.3237
 8698SOL     OW34563   2.936   2.633   0.745  0.6482 -0.5666 -0.1741
 8698SOL    HW234564   2.903   2.615   0.833 -0.0803  0.9466 -0.1003
 8698SOL    HW334565   2.892   2.570   0.689 -1.1693  0.3288  0.1717
 8698SOL    MW434566   2.926   2.623   0.749 -0.1264  0.0793  0.1832
 8699SOL     OW34567   1.094   2.309   0.930 -0.0174  0.3549  0.2131
 8699SOL    HW234568   1.026   2.362   0.973 -0.7802 -1.3717  1.2276
 8699SOL    HW334569   1.175   2.356   0.948 -0.2725 -0.2748  3.7269
 8699SOL    MW434570   1.095   2.322   0.938 -0.9482  0.4331 -0.2073
 8700SOL     OW34571   0.694   4.747   2.193  0.0606  0.0055  0.2396
 8700SOL    HW234572   0.720   4.821   2.247 -1.9668 -0.3242  1.7841
 8700SOL    HW334573   0.711   4.670   2.247 -1.5880 -0.3589  0.3079
 8700SOL    MW434574   0.700   4.747   2.207 -0.6568 -0.2104 -0.0167
 8701SOL     OW34575   0.871   4.640   6.098  0.2355 -0.0538  0.7671
 8701SOL    HW234576   0.879   4.615   6.006  2.4133 -1.2385  1.1950
 8701SOL    HW334577   0.816   4.718   6.098 -0.7081 -0.6681 -1.4091
 8701SOL    MW434578   0.865   4.647   6.086 -0.3818 -0.0018  0.5810
 8702SOL     OW34579   1.166   5.958   1.731 -0.0348 -0.6560 -0.0484
 8702SOL    HW234580   1.188   5.966   1.824 -2.8713  2.0881  0.5478
 8702SOL    HW334581   1.248   5.979   1.686  0.8293  0.3888  1.8660
 8702SOL    MW434582   1.180   5.962   1.737  0.4136 -0.0846  0.0481
 8703SOL     OW34583   5.249   1.820   3.911 -0.1704  0.0891  0.3929
 8703SOL    HW234584   5.190   1.896   3.918  0.2694  0.3935  0.9597
 8703SOL    HW334585   5.326   1.854   3.865  0.0606  0.0112  0.7162
 8703SOL    MW434586   5.251   1.835   3.906 -0.7990 -0.0663 -0.2067
 8704SOL     OW34587   1.688   3.194   5.216 -0.0444 -0.4804 -0.1904
 8704SOL    HW234588   1.672   3.212   5.309  1.9061  0.2521  0.0405
 8704SOL    HW334589   1.686   3.099   5.210 -1.6291 -0.5168  0.2926
 8704SOL    MW434590   1.686   3.184   5.228  0.1985  0.1188 -0.2109
 8705SOL     OW34591   5.185   4.355   2.765 -0.1916 -0.1779 -0.7055
 8705SOL    HW234592   5.127   4.319   2.698 -0.6422  0.8742 -0.8990
 8705SOL    HW334593   5.230   4.278   2.801 -1.7749 -1.0570 -0.4757
 8705SOL    MW434594   5.183   4.340   2.761 -0.0814 -0.3260  0.2470
 8706SOL     OW34595   0.794   6.143   1.555 -0.3135  0.3770 -0.8300
 8706SOL    HW234596   0.855   6.091   1.608 -0.1110 -0.2517 -1.6601
 8706SOL    HW334597   0.848   6.210   1.515 -0.1437 -0.1912 -1.5801
 8706SOL    MW434598   0.809   6.145   1.557  0.4417  0.5451  0.0645
 8707SOL     OW34599   5.354   2.872   2.950  0.0256 -0.0632  0.2464
 8707SOL    HW234600   5.303   2.897   2.873 -1.2027  0.3334  1.1585
 8707SOL    HW334601   5.289   2.838   3.012  0.8656  0.3921  1.4097
 8707SOL    MW434602   5.339   2.871   2.948 -0.0240  0.0594  0.4850
 8708SOL     OW34603   0.899   5.914   0.236 -0.6436 -0.2423  0.2061
 8708SOL    HW234604   0.891   5.839   0.177 -1.2231 -2.0938  2.4713
 8708SOL    HW334605   0.887   5.877   0.324 -0.6835  2.4859  1.4645
 8708SOL    MW434606   0.897   5.899   0.240 -0.1654 -0.4091  0.5409
 8709SOL     OW34607   0.085   2.502   4.740  0.0575  0.0205 -0.2413
 8709SOL    HW234608   0.132   2.497   4.824 -1.1494  0.7673  0.5011
 8709SOL    HW334609   0.014   2.438   4.749 -0.2843  0.3520 -0.5486
 8709SOL    MW434610   0.082   2.493   4.752 -0.2934 -0.6187  0.1239
 8710SOL     OW34611   3.711   0.821   0.777  0.8735  0.2550 -0.3048
 8710SOL    HW234612   3.723   0.878   0.853 -0.5409  1.7388 -1.1359
 8710SOL    HW334613   3.799   0.813   0.738  1.1413  1.6820 -0.0270
 8710SOL    MW434614   3.724   0.827   0.782  0.0870  0.6163 -0.9349
 8711SOL     OW34615   3.018   2.719   3.529 -0.3420 -0.2617  0.3424
 8711SOL    HW234616   2.932   2.679   3.514 -0.3435 -0.0270 -0.3395
 8711SOL    HW334617   3.008   2.808   3.495  0.1388 -0.2014  0.3636
 8711SOL    MW434618   3.005   2.725   3.522 -0.0456 -0.6225  0.1336
 8712SOL     OW34619   0.044   1.458   5.954 -0.0892  0.1223 -0.3554
 8712SOL    HW234620   0.109   1.469   5.885 -1.0668  2.6487 -0.9804
 8712SOL    HW334621   0.087   1.491   6.033  0.4138 -1.1409 -0.0674
 8712SOL    MW434622   0.058   1.463   5.955 -0.1475 -0.1829  0.4050
 8713SOL     OW34623   0.340   2.541   6.149  0.5045 -0.0851 -0.0508
 8713SOL    HW234624   0.429   2.534   6.183  1.0587 -0.2063 -1.4825
 8713SOL    HW334625   0.329   2.463   6.095 -0.5508 -0.1641  0.2519
 8713SOL    MW434626   0.350   2.529   6.147 -0.5316 -0.3249 -0.1977
 8714SOL     OW34627   1.734   2.200   3.910  0.6663 -0.0328 -0.5015
 8714SOL    HW234628   1.708   2.241   3.993  1.6333 -0.2576 -0.0794
 8714SOL    HW334629   1.750   2.273   3.851  1.0983  0.1665 -0.1436
 8714SOL    MW434630   1.732   2.215   3.913  0.5621  0.0030 -0.3585
 8715SOL     OW34631   0.292   0.699   6.028 -0.1768  0.5285 -0.3628
 8715SOL    HW234632   0.203   0.695   5.993  0.3765  1.6408 -2.0023
 8715SOL    HW334633   0.326   0.783   5.998  1.2343  0.3964  0.7646
 8715SOL    MW434634   0.285   0.710   6.019 -0.0494  0.2613  0.2187
 8716SOL     OW34635   1.280   2.123   4.717  0.0212  0.2700  0.1572
 8716SOL    HW234636   1.204   2.125   4.776 -1.2904 -1.7549 -1.3311
 8716SOL    HW334637   1.310   2.032   4.721  0.1864  0.2026 -1.9048
 8716SOL    MW434638   1.274   2.111   4.726 -0.6976  0.2775 -0.1119
 8717SOL     OW34639   4.394   2.502   1.392  0.4315 -0.5282 -0.2857
 8717SOL    HW234640   4.477   2.504   1.441  0.6646  0.9997 -0.6871
 8717SOL    HW334641   4.396   2.581   1.339 -1.1281 -0.6749 -0.6073
 8717SOL    MW434642   4.406   2.512   1.392 -0.3656 -0.8055  0.1075
 8718SOL     OW34643   3.056   4.085   1.673 -0.1423 -0.5980  0.9932
 8718SOL    HW234644   2.964   4.073   1.650 -0.0019  1.3777 -0.9161
 8718SOL    HW334645   3.102   4.087   1.589  1.3817  0.3341  1.7931
 8718SOL    MW434646   3.050   4.084   1.659 -0.5628 -0.4450  0.0543
 8719SOL     OW34647   1.863   5.214   6.055  0.0826  0.5462 -0.9940
 8719SOL    HW234648   1.955   5.186   6.047  0.0088 -0.2992  0.6592
 8719SOL    HW334649   1.851   5.229   6.149 -1.7801 -0.4510 -1.0303
 8719SOL    MW434650   1.874   5.212   6.066 -0.3565  0.3996  0.4362
 8720SOL     OW34651   4.274   5.787   2.985 -0.0761 -0.2315 -0.4158
 8720SOL    HW234652   4.326   5.713   2.954  0.0717 -0.4292  0.3030
 8720SOL    HW334653   4.220   5.811   2.909 -0.1389 -1.0855 -0.6547
 8720SOL    MW434654   4.274   5.780   2.971  0.0452  0.0367 -0.5761
 8721SOL     OW34655   4.676   4.027   2.653 -0.1825  0.3630 -0.3892
 8721SOL    HW234656   4.711   4.078   2.726 -1.4419  1.0709 -0.2423
 8721SOL    HW334657   4.582   4.026   2.668 -0.3608 -0.3729 -1.4539
 8721SOL    MW434658   4.668   4.033   2.665 -0.0873  0.4723 -0.3787
 8722SOL     OW34659   5.127   5.854   3.727  0.2054 -0.6338 -0.4405
 8722SOL    HW234660   5.148   5.781   3.787  0.6782 -0.4820 -0.4189
 8722SOL    HW334661   5.147   5.820   3.640  1.6339 -0.1193 -0.3367
 8722SOL    MW434662   5.132   5.840   3.724 -0.4051  0.3762 -0.1335
 8723SOL     OW34663   6.239   5.676   4.832  0.0203 -0.1972  0.6022
 8723SOL    HW234664   6.264   5.729   4.907 -0.9581  0.2013  0.6668
 8723SOL    HW334665   6.261   5.586   4.857  2.6066  0.2144  0.1144
 8723SOL    MW434666   6.245   5.671   4.845 -0.3215  0.0542  0.6130
 8724SOL     OW34667   3.456   5.154   4.549  0.4417  0.7812 -0.2299
 8724SOL    HW234668   3.412   5.090   4.605 -0.7229  0.9467 -0.9220
 8724SOL    HW334669   3.524   5.192   4.605 -0.6324  0.8847  1.0673
 8724SOL    MW434670   3.459   5.151   4.564  0.4696  0.0460 -0.5708
 8725SOL     OW34671   3.510   0.324   4.114 -0.4629  0.1400  0.3408
 8725SOL    HW234672   3.445   0.374   4.063 -0.4919 -1.2841 -1.1065
 8725SOL    HW334673   3.575   0.298   4.049  0.3163 -0.4609  1.3459
 8725SOL    MW434674   3.510   0.327   4.098  0.0825 -0.0622  0.0712
 8726SOL     OW34675   5.348   4.367   1.312  0.7418 -0.3271  0.1261
 8726SOL    HW234676   5.261   4.338   1.285  0.0698  0.9661  0.7686
 8726SOL    HW334677   5.408   4.311   1.264 -0.3793  1.1371 -3.2914
 8726SOL    MW434678   5.344   4.356   1.302  0.4036  0.3869  0.5159
 8727SOL     OW34679   5.912   4.766   3.672 -0.1710  0.9205 -0.3454
 8727SOL    HW234680   5.820   4.748   3.656 -0.4762  1.9842  0.0881
 8727SOL    HW334681   5.959   4.689   3.639 -1.2354  0.2132 -0.2403
 8727SOL    MW434682   5.906   4.754   3.666 -0.4334  0.1372  0.4588
 8728SOL     OW34683   4.986   0.692   0.265  0.2315 -0.0192  0.5885
 8728SOL    HW234684   4.974   0.710   0.358 -0.0034  0.5136  0.4575
 8728SOL    HW334685   5.045   0.616   0.262  1.6746  1.0392  1.1520
 8728SOL    MW434686   4.992   0.684   0.277 -0.3950  0.4617 -0.5414
 8729SOL     OW34687   3.908   4.266   0.660 -0.0517  0.7781  0.3037
 8729SOL    HW234688   3.853   4.344   0.670  0.4509  0.9779  1.8743
 8729SOL    HW334689   3.984   4.283   0.716  1.0213 -0.0157 -0.8630
 8729SOL    MW434690   3.911   4.279   0.669 -0.3058 -0.1595 -0.0091
 8730SOL     OW34691   1.981   5.901   2.835  0.1767 -0.4980  0.0013
 8730SOL    HW234692   2.070   5.935   2.829  0.2734 -0.6615  0.4654
 8730SOL    HW334693   1.978   5.856   2.920 -0.6055  0.2422  0.3791
 8730SOL    MW434694   1.992   5.900   2.846  0.1708 -0.0737 -0.1369
 8731SOL     OW34695   0.180   2.693   3.972 -0.1210 -0.1904 -0.0040
 8731SOL    HW234696   0.203   2.776   4.013  0.0898 -0.2629  0.0285
 8731SOL    HW334697   0.209   2.627   4.036 -0.7548 -0.2752  0.2034
 8731SOL    MW434698   0.187   2.695   3.986 -0.0956 -0.4581  0.1069
 8732SOL     OW34699   6.321   4.437   0.642  0.3284 -0.2505  0.1841
 8732SOL    HW234700   6.229   4.462   0.650  0.6028  0.4954  1.2634
 8732SOL    HW334701   6.347   4.465   0.555 -0.5370 -0.7440 -0.2431
 8732SOL    MW434702   6.312   4.444   0.632  0.1859  0.0709  0.3450
 8733SOL     OW34703   6.045   2.729   0.361 -0.2768  0.1938 -0.2922
 8733SOL    HW234704   5.961   2.718   0.317  0.6281 -1.1602 -1.7775
 8733SOL    HW334705   6.064   2.822   0.352 -0.1465 -0.0256 -2.8154
 8733SOL    MW434706   6.036   2.740   0.354  0.6714  0.0645 -0.1103
 8734SOL     OW34707   4.843   5.167   3.505  0.0778  0.3524  0.0895
 8734SOL    HW234708   4.784   5.215   3.564  2.0093  1.5016  1.1833
 8734SOL    HW334709   4.844   5.078   3.540  0.3313  0.7527  1.1552
 8734SOL    MW434710   4.835   5.162   3.518  0.0657  0.1580 -0.0297
 8735SOL     OW34711   6.188   4.961   5.261  0.2977 -0.0228  0.4176
 8735SOL    HW234712   6.192   5.024   5.333  0.9334 -0.6878  0.9816
 8735SOL    HW334713   6.223   4.880   5.298  0.0520 -0.5463 -0.4665
 8735SOL    MW434714   6.193   4.958   5.275 -0.0918  0.4567  0.6696
 8736SOL     OW34715   0.151   5.723   1.814  0.3825 -0.2782  0.0947
 8736SOL    HW234716   0.160   5.740   1.908  1.2127  0.0004 -0.0338
 8736SOL    HW334717   0.239   5.703   1.784 -0.1180 -2.0731 -0.3109
 8736SOL    MW434718   0.163   5.723   1.823 -0.1660 -0.1080 -0.4947
 8737SOL     OW34719   4.989   4.979   1.585  0.3674  0.2044  0.6133
 8737SOL    HW234720   5.078   5.007   1.563  0.4426 -0.4002  0.1090
 8737SOL    HW334721   4.940   4.986   1.503  0.9062 -3.0507 -0.1313
 8737SOL    MW434722   4.994   4.983   1.571 -0.1606  0.0684  0.3516
 8738SOL     OW34723   1.938   5.573   2.624 -0.3533 -0.0156 -0.0342
 8738SOL    HW234724   1.950   5.503   2.560 -0.6462  0.4232 -0.5810
 8738SOL    HW334725   1.979   5.540   2.703  0.8995 -0.1705 -0.7220
 8738SOL    MW434726   1.945   5.559   2.626 -0.1528  0.1849 -0.2059
 8739SOL     OW34727   5.434   2.560   4.978 -0.3472  0.5219 -0.4222
 8739SOL    HW234728   5.349   2.568   5.022 -0.7786 -1.0139 -0.9309
 8739SOL    HW334729   5.423   2.488   4.916  0.7595  1.5377 -1.8753
 8739SOL    MW434730   5.422   2.552   4.975  0.4250  0.7210 -0.5987
 8740SOL     OW34731   0.538   2.913   4.829  0.1662  0.3214 -0.3831
 8740SOL    HW234732   0.611   2.910   4.766 -1.1591  0.2962 -1.9706
 8740SOL    HW334733   0.480   2.981   4.795 -0.0992  1.0506  1.4212
 8740SOL    MW434734   0.540   2.922   4.816  0.0750 -0.1063 -0.2766
 8741SOL     OW34735   0.377   2.456   2.894  0.5369  0.5046  0.8257
 8741SOL    HW234736   0.458   2.405   2.895  1.3029  1.6264 -0.3480
 8741SOL    HW334737   0.372   2.491   2.805 -0.9745  0.8790  1.0326
 8741SOL    MW434738   0.387   2.454   2.882  0.0396  0.0111  0.0711
 8742SOL     OW34739   1.235   4.653   6.376 -0.4399 -0.3391  0.2791
 8742SOL    HW234740   1.306   4.704   6.415  0.6967 -2.2395  0.8373
 8742SOL    HW334741   1.163   4.661   6.437 -0.1607  0.2993  0.5313
 8742SOL    MW434742   1.235   4.660   6.389 -0.1161  0.5348 -0.8118
 8743SOL     OW34743   2.608   1.007   4.452  0.3523 -0.2042  0.8672
 8743SOL    HW234744   2.578   1.098   4.455  2.6534  0.6179  0.8518
 8743SOL    HW334745   2.651   0.998   4.367  0.9114 -1.0347  1.2267
 8743SOL    MW434746   2.610   1.018   4.442  0.1717 -0.0420 -0.0327
 8744SOL     OW34747   5.916   0.139   6.212 -0.1135  0.1622  0.1666
 8744SOL    HW234748   5.989   0.082   6.237 -1.2737 -1.5829 -0.2586
 8744SOL    HW334749   5.925   0.216   6.268 -0.5873 -2.0075  3.5086
 8744SOL    MW434750   5.927   0.141   6.222 -0.0461  0.5002 -0.4320
 8745SOL     OW34751   0.860   2.933   0.108  0.1166 -0.0038  0.2066
 8745SOL    HW234752   0.785   2.973   0.064  0.3854 -0.8274 -1.0764
 8745SOL    HW334753   0.822   2.862   0.160  0.0102 -0.5596 -0.6127
 8745SOL    MW434754   0.845   2.929   0.109  0.5590 -0.2399  0.4074
 8746SOL     OW34755   5.902   3.270   4.797  0.0879  0.0687  0.6099
 8746SOL    HW234756   5.839   3.340   4.778 -0.8541 -0.7589  0.6318
 8746SOL    HW334757   5.910   3.271   4.892 -1.1784 -0.8976  0.7520
 8746SOL    MW434758   5.894   3.279   4.807 -0.6641 -0.1330 -0.3819
 8747SOL     OW34759   2.426   6.019   5.676 -0.0275  0.6437  0.5770
 8747SOL    HW234760   2.520   6.023   5.658  0.5504 -1.2826  2.6170
 8747SOL    HW334761   2.414   6.075   5.752 -0.6141  1.1438  0.1261
 8747SOL    MW434762   2.437   6.027   5.684  0.1245 -0.5348  0.4069
 8748SOL     OW34763   3.203   1.413   5.430  0.3099  0.5484 -0.2215
 8748SOL    HW234764   3.116   1.445   5.404  1.2205  2.2737 -1.3158
 8748SOL    HW334765   3.217   1.335   5.377 -0.4242  0.4510 -0.2833
 8748SOL    MW434766   3.193   1.407   5.420  0.0416  0.6212  0.1093
 8749SOL     OW34767   3.478   1.489   4.151 -0.4427  0.1367 -0.4784
 8749SOL    HW234768   3.512   1.574   4.180  1.5805 -0.1312 -1.8547
 8749SOL    HW334769   3.542   1.425   4.181 -1.2698 -0.7697 -0.5798
 8749SOL    MW434770   3.491   1.492   4.159 -0.0541 -0.0481  0.2026
 8750SOL     OW34771   1.024   4.351   4.243 -0.1848  0.2964  0.0463
 8750SOL    HW234772   1.107   4.351   4.290  0.5637 -0.1688 -1.2093
 8750SOL    HW334773   0.989   4.440   4.255  0.3456  0.4069  0.8291
 8750SOL    MW434774   1.030   4.363   4.251  0.3696  0.6469  0.4550
 8751SOL     OW34775   6.381   3.162   5.200 -0.4805  0.4979  0.7852
 8751SOL    HW234776   6.314   3.174   5.267  0.1493 -0.9450  1.7104
 8751SOL    HW334777   6.464   3.163   5.248  0.0359  0.2191 -0.0740
 8751SOL    MW434778   6.383   3.164   5.215 -0.5862 -0.3276  0.5493
 8752SOL     OW34779   3.257   2.552   3.319 -0.4959 -0.3561  0.0170
 8752SOL    HW234780   3.259   2.457   3.326  1.5492 -0.2953  1.2292
 8752SOL    HW334781   3.241   2.583   3.409 -1.0409  0.4474 -0.3423
 8752SOL    MW434782   3.255   2.544   3.332  0.1413 -0.0885 -0.3018
 8753SOL     OW34783   0.294   3.227   3.557  0.0351  0.1866 -0.4252
 8753SOL    HW234784   0.303   3.273   3.641  0.8728 -1.6272  0.5365
 8753SOL    HW334785   0.202   3.239   3.533 -0.5559 -0.3493  1.4255
 8753SOL    MW434786   0.283   3.235   3.565 -0.0640 -0.2968 -0.0375
 8754SOL     OW34787   1.829   1.188   0.668 -0.4001 -0.2010  0.0666
 8754SOL    HW234788   1.911   1.155   0.630 -0.3669 -0.3803  0.2892
 8754SOL    HW334789   1.791   1.242   0.599  0.1169  0.2329  0.1096
 8754SOL    MW434790   1.835   1.191   0.654 -0.1212 -0.3607  0.2419
 8755SOL     OW34791   3.530   2.965   4.695 -0.2961  0.5750 -0.0506
 8755SOL    HW234792   3.610   2.960   4.748  0.0731 -1.3988 -0.7129
 8755SOL    HW334793   3.547   3.033   4.631  1.7600 -1.1688 -1.5017
 8755SOL    MW434794   3.543   2.973   4.694 -0.2838  0.1701 -0.4397
 8756SOL     OW34795   3.101   5.983   2.432  0.8348 -0.2595 -0.0835
 8756SOL    HW234796   3.127   5.923   2.362  2.1486 -0.3454  0.4677
 8756SOL    HW334797   3.151   5.956   2.508  0.0603  0.3802  0.6731
 8756SOL    MW434798   3.111   5.972   2.433  0.3095  0.1286  0.6604
 8757SOL     OW34799   3.510   4.031   2.851 -0.3666 -0.4714 -0.2702
 8757SOL    HW234800   3.551   4.104   2.806 -0.0233 -1.7511 -2.1470
 8757SOL    HW334801   3.502   4.060   2.942 -0.1844  1.8348 -0.9366
 8757SOL    MW434802   3.515   4.045   2.857  0.4050 -0.2477 -0.2354
 8758SOL     OW34803   4.476   4.093   3.454 -0.0793 -0.4844  0.1328
 8758SOL    HW234804   4.517   4.141   3.525  0.6475 -1.3174  0.2933
 8758SOL    HW334805   4.383   4.115   3.461  0.3715  1.9480 -0.6460
 8758SOL    MW434806   4.469   4.102   3.465 -0.3600 -0.0519 -0.4184
 8759SOL     OW34807   0.693   4.868   6.368  0.6341 -0.3118  0.0992
 8759SOL    HW234808   0.717   4.841   6.457 -0.5407  1.0870  0.8915
 8759SOL    HW334809   0.772   4.912   6.335  0.7499  0.0876  0.8732
 8759SOL    MW434810   0.707   4.870   6.376  0.5030 -0.0591  0.1666
 8760SOL     OW34811   4.521   1.150   4.327  0.8928 -0.1317 -0.3354
 8760SOL    HW234812   4.577   1.085   4.369 -0.0003 -1.0669 -0.5561
 8760SOL    HW334813   4.499   1.111   4.242 -0.1411  0.1762 -0.2244
 8760SOL    MW434814   4.526   1.136   4.321 -0.8430 -0.0966 -0.3516
 8761SOL     OW34815   1.879   1.755   5.527 -0.0878 -0.5800  0.2941
 8761SOL    HW234816   1.795   1.746   5.571  0.1603 -1.6876  0.5716
 8761SOL    HW334817   1.887   1.676   5.474 -0.6441  0.9554 -2.2535
 8761SOL    MW434818   1.869   1.743   5.525 -0.1941  0.1070  0.2279
 8762SOL     OW34819   6.254   1.576   2.867 -0.7482 -0.0366 -0.1598
 8762SOL    HW234820   6.211   1.571   2.953 -0.2508 -0.2107  0.0836
 8762SOL    HW334821   6.181   1.578   2.805 -1.1347  0.9185  0.2994
 8762SOL    MW434822   6.238   1.576   2.870  0.2235 -0.1552 -0.9882
 8763SOL     OW34823   0.693   0.666   6.266 -0.1691  0.0214  0.1000
 8763SOL    HW234824   0.711   0.743   6.321 -0.3296  0.2520 -0.1718
 8763SOL    HW334825   0.637   0.611   6.320 -1.1902  0.7277 -0.2246
 8763SOL    MW434826   0.688   0.669   6.280  0.2975  0.2186  0.7470
 8764SOL     OW34827   2.584   4.265   4.298  0.0513 -0.3116 -0.0456
 8764SOL    HW234828   2.520   4.335   4.286  0.7801  0.1793 -1.2438
 8764SOL    HW334829   2.608   4.271   4.391 -0.9613  0.0734  0.2040
 8764SOL    MW434830   2.579   4.275   4.309  0.0646  0.6872 -0.6258
 8765SOL     OW34831   4.176   4.137   5.648  0.3265 -0.0037 -0.1051
 8765SOL    HW234832   4.242   4.090   5.698 -0.6120 -2.0420 -0.6860
 8765SOL    HW334833   4.099   4.139   5.705  0.2114  0.4621 -0.2671
 8765SOL    MW434834   4.175   4.131   5.662 -0.4994  0.3440  0.2923
 8766SOL     OW34835   3.444   0.016   1.121 -0.0673  0.3332 -1.0311
 8766SOL    HW234836   3.364  -0.031   1.100 -0.2335  0.5272 -0.8253
 8766SOL    HW334837   3.500   0.004   1.044 -0.4250  0.4907 -1.3173
 8766SOL    MW434838   3.441   0.008   1.108  0.2354  0.7714  0.3842
 8767SOL     OW34839   0.238   1.951   1.893  0.3440 -0.3642  0.7331
 8767SOL    HW234840   0.315   1.896   1.877 -0.4306 -0.8109 -2.1007
 8767SOL    HW334841   0.165   1.899   1.860 -1.0930  0.4612  2.4401
 8767SOL    MW434842   0.238   1.937   1.886 -0.3298 -0.2746  0.0483
 8768SOL     OW34843   2.747   0.488   1.974  0.2053  0.3503  0.1659
 8768SOL    HW234844   2.780   0.575   1.996  0.2210  0.4324 -0.1668
 8768SOL    HW334845   2.660   0.505   1.937  0.7354  0.3534 -1.1292
 8768SOL    MW434846   2.740   0.502   1.972 -0.6651 -0.4070  0.5560
 8769SOL     OW34847   4.153   1.258   2.715 -0.3255 -0.1915 -0.0544
 8769SOL    HW234848   4.144   1.165   2.738 -0.2137 -0.1127  0.3109
 8769SOL    HW334849   4.245   1.278   2.730  0.0149 -0.4259 -1.6808
 8769SOL    MW434850   4.164   1.248   2.720  0.0515  0.3057 -0.0174
 8770SOL     OW34851   1.860   2.592   2.234 -0.2463 -0.4214 -0.3617
 8770SOL    HW234852   1.912   2.594   2.154 -0.7911 -1.8718 -0.7946
 8770SOL    HW334853   1.769   2.590   2.204 -0.5218  0.6776  0.3467
 8770SOL    MW434854   1.855   2.592   2.220  0.2909  0.2414 -0.9459
 8771SOL     OW34855   4.364   2.758   0.790  0.1119 -0.3745  0.7915
 8771SOL    HW234856   4.300   2.829   0.795 -0.5104 -0.8904  0.2422
 8771SOL    HW334857   4.408   2.760   0.875  0.1028  0.6621  0.7830
 8771SOL    MW434858   4.361   2.768   0.802  0.1015 -0.4439  0.5181
 8772SOL     OW34859   4.952   3.396   2.014  0.0675  0.6422 -0.4800
 8772SOL    HW234860   5.021   3.340   1.980  0.4066 -0.7210  2.1693
 8772SOL    HW334861   4.872   3.343   2.007  0.1902  0.2251  0.9917
 8772SOL    MW434862   4.950   3.382   2.009 -0.1500 -0.2020  0.2058
 8773SOL     OW34863   4.970   5.451   5.930 -0.1720  0.1801 -0.1731
 8773SOL    HW234864   4.929   5.381   5.981  1.0847  0.1165  0.7888
 8773SOL    HW334865   4.959   5.530   5.984 -0.2730  0.4331 -0.5614
 8773SOL    MW434866   4.963   5.452   5.944 -0.1205  0.3588  0.1731
 8774SOL     OW34867   6.043   0.785   2.026 -0.5844  0.0419 -0.2057
 8774SOL    HW234868   6.032   0.772   2.120  0.9598 -2.1400 -0.2438
 8774SOL    HW334869   6.131   0.821   2.016  0.2692 -2.0466 -0.8664
 8774SOL    MW434870   6.053   0.788   2.037 -0.2586  0.3090 -0.4854
 8775SOL     OW34871   1.228   5.322   3.038  0.0418  0.3233  0.0780
 8775SOL    HW234872   1.294   5.270   2.991 -0.0803  0.0931  0.1583
 8775SOL    HW334873   1.251   5.313   3.130 -0.2734 -0.0051  0.1292
 8775SOL    MW434874   1.240   5.314   3.044  0.5863  0.6490 -0.2909
 8776SOL     OW34875   0.194   0.613   1.428  0.0185 -0.2103  0.2932
 8776SOL    HW234876   0.212   0.643   1.339  1.4123 -1.2196  0.2008
 8776SOL    HW334877   0.275   0.571   1.456 -0.5054 -0.1952  1.9284
 8776SOL    MW434878   0.207   0.611   1.420  0.4008 -0.0076 -0.0204
 8777SOL     OW34879   5.695   2.976   2.352  0.2920 -0.6255 -0.0261
 8777SOL    HW234880   5.760   2.956   2.419  0.8902 -0.6641 -0.6029
 8777SOL    HW334881   5.688   3.072   2.353  0.0985 -0.6419  0.2720
 8777SOL    MW434882   5.703   2.986   2.361  0.2545  0.3505  0.0936
 8778SOL     OW34883   5.006   1.993   0.054 -0.0540 -0.3105  0.3090
 8778SOL    HW234884   4.945   2.019  -0.015 -1.6352 -2.7273  0.6665
 8778SOL    HW334885   4.984   2.049   0.128 -1.1780 -0.4543  0.1010
 8778SOL    MW434886   4.995   2.004   0.055 -0.1982  0.9385  0.1347
 8779SOL     OW34887   1.288   4.661   3.318 -0.2244  0.3424  0.5840
 8779SOL    HW234888   1.270   4.610   3.398  2.2683  0.3471  1.2312
 8779SOL    HW334889   1.267   4.751   3.342  1.1591  0.4460  1.5205
 8779SOL    MW434890   1.283   4.666   3.332  0.0706 -0.6164  0.2431
 8780SOL     OW34891   0.447   0.193   6.443  0.2268 -0.1000 -0.2220
 8780SOL    HW234892   0.403   0.167   6.362  1.7192  0.2566 -1.1971
 8780SOL    HW334893   0.435   0.288   6.448  1.3960  0.1088 -0.8664
 8780SOL    MW434894   0.440   0.202   6.433  0.2971  0.5210  0.0092
 8781SOL     OW34895   1.221   0.477   6.419 -0.0832 -0.4417  0.3232
 8781SOL    HW234896   1.190   0.563   6.446  1.7231  0.6714 -0.9466
 8781SOL    HW334897   1.218   0.479   6.324  0.0553 -1.7738  0.2653
 8781SOL    MW434898   1.217   0.488   6.410  0.4448 -0.2287  0.2024
 8782SOL     OW34899   0.256   2.151   2.174 -0.0418 -0.4608  0.2901
 8782SOL    HW234900   0.337   2.201   2.165 -0.7257  1.0277  1.9345
 8782SOL    HW334901   0.200   2.186   2.105 -0.4173  0.9220  1.2509
 8782SOL    MW434902   0.260   2.162   2.163  0.1095  0.4121 -0.0309
 8783SOL     OW34903   1.819   3.009   3.476  0.4033 -0.2338  0.6408
 8783SOL    HW234904   1.834   2.943   3.543  0.4880 -0.0164  0.8378
 8783SOL    HW334905   1.727   2.999   3.452  0.1717  0.1907  1.3336
 8783SOL    MW434906   1.809   2.999   3.482  0.5245 -0.1100  0.1050
 8784SOL     OW34907   1.807   5.735   5.076  0.0458  0.0977  0.3944
 8784SOL    HW234908   1.831   5.805   5.015  0.3913 -1.2519 -1.0987
 8784SOL    HW334909   1.885   5.679   5.080 -0.5043 -0.6571  0.8934
 8784SOL    MW434910   1.821   5.736   5.069 -0.2271  0.0673  0.1956
 8785SOL     OW34911   4.676   0.818   5.610  0.1980 -0.1987 -0.3271
 8785SOL    HW234912   4.596   0.806   5.558  0.1178  1.6299 -0.7025
 8785SOL    HW334913   4.644   0.825   5.700 -0.1082  0.6569 -0.4888
 8785SOL    MW434914   4.661   0.818   5.615 -0.0623  0.4147  0.0305
 8786SOL     OW34915   0.839   5.016   4.434 -0.2792 -0.2629 -0.5487
 8786SOL    HW234916   0.796   5.088   4.389 -0.1619 -0.0665 -0.3512
 8786SOL    HW334917   0.832   5.039   4.527 -0.1976 -0.4814 -0.4885
 8786SOL    MW434918   0.832   5.029   4.441  0.0074 -0.2285  0.7761
 8787SOL     OW34919   0.389   5.138   1.137  0.3506  0.1312 -0.9691
 8787SOL    HW234920   0.416   5.229   1.124 -2.1211  1.6714  2.9307
 8787SOL    HW334921   0.294   5.142   1.142  0.2891 -2.2133  1.7331
 8787SOL    MW434922   0.380   5.151   1.136  0.1385  0.4662  0.1709
 8788SOL     OW34923   4.677   5.354   5.982 -0.1776 -0.3783  0.7273
 8788SOL    HW234924   4.712   5.272   5.946  1.3809  0.4894  0.1764
 8788SOL    HW334925   4.606   5.326   6.039 -0.0905 -2.0764  0.0748
 8788SOL    MW434926   4.672   5.339   5.984 -0.3871 -0.2630  0.3812
 8789SOL     OW34927   5.799   5.613   1.983  0.2888  0.1123 -0.5670
 8789SOL    HW234928   5.731   5.549   1.966 -0.6399  0.2195  2.2992
 8789SOL    HW334929   5.879   5.573   1.947 -0.5053 -2.0052 -0.1116
 8789SOL    MW434930   5.801   5.599   1.976  0.1797  0.3428  0.3839
 8790SOL     OW34931   4.195   6.412   3.990 -0.3533 -0.1248 -0.3439
 8790SOL    HW234932   4.237   6.497   3.998  0.4753 -0.3550 -1.9567
 8790SOL    HW334933   4.262   6.355   3.951 -0.9148 -1.5022  0.6063
 8790SOL    MW434934   4.210   6.415   3.986  0.1253  0.3822  0.4796
 8791SOL     OW34935   6.288   5.957   3.547  0.3631  0.6187  0.2403
 8791SOL    HW234936   6.345   5.981   3.473 -1.6324  1.8139 -1.0280
 8791SOL    HW334937   6.235   6.036   3.562 -1.6811 -0.7577  0.6058
 8791SOL    MW434938   6.288   5.971   3.539 -0.5141  0.3892 -0.3221
 8792SOL     OW34939   2.563   3.735   4.599 -0.6430 -0.0429  0.0786
 8792SOL    HW234940   2.558   3.644   4.630  3.6344 -0.7022 -0.5826
 8792SOL    HW334941   2.543   3.788   4.676 -0.5103 -1.5587  1.1943
 8792SOL    MW434942   2.559   3.730   4.613  0.2286  0.3898  0.3825
 8793SOL     OW34943   4.825   1.499   2.688  0.6434  0.1164 -0.0894
 8793SOL    HW234944   4.748   1.539   2.647  1.8306  1.3670 -1.2107
 8793SOL    HW334945   4.860   1.567   2.746 -0.2427 -1.1726  2.0718
 8793SOL    MW434946   4.819   1.513   2.690  0.0846  0.2531 -0.2611
 8794SOL     OW34947   3.660   2.382   5.733  0.2624  0.1511  0.1326
 8794SOL    HW234948   3.675   2.331   5.812  1.5114 -0.6351 -0.5841
 8794SOL    HW334949   3.693   2.327   5.662 -0.3117  1.0745 -0.8832
 8794SOL    MW434950   3.666   2.368   5.734  0.2023 -0.7291 -0.0330
 8795SOL     OW34951   2.402   4.997   4.248  0.4486  0.2532 -0.8350
 8795SOL    HW234952   2.398   4.977   4.342  1.0477  0.0289 -0.8521
 8795SOL    HW334953   2.415   4.912   4.206  0.6444  0.4037 -1.0851
 8795SOL    MW434954   2.404   4.983   4.255  0.1025 -0.0012 -0.4567
 8796SOL     OW34955   0.453   6.272   1.943 -0.1839  0.4580 -0.2710
 8796SOL    HW234956   0.478   6.270   1.850 -1.0208 -1.0602 -0.4946
 8796SOL    HW334957   0.404   6.354   1.952 -0.9657  0.1499 -1.4351
 8796SOL    MW434958   0.449   6.283   1.932 -0.2066  0.4435  0.1691
 8797SOL     OW34959   3.984   1.938   0.121  0.0802  0.2909 -0.1884
 8797SOL    HW234960   3.922   1.869   0.148  0.9143  0.1564  1.5499
 8797SOL    HW334961   3.939   1.984   0.050 -1.0691 -1.1937 -0.4836
 8797SOL    MW434962   3.970   1.935   0.116  0.3218  0.1513  0.2497
 8798SOL     OW34963   4.273   2.147   3.947  0.6679 -0.8167 -0.1755
 8798SOL    HW234964   4.306   2.080   4.007  0.8015 -1.1004 -0.5563
 8798SOL    HW334965   4.188   2.173   3.984  1.7474  0.6777  1.3778
 8798SOL    MW434966   4.266   2.141   3.960  0.5729 -0.4457  0.6075
 8799SOL     OW34967   4.575   3.000   5.519  0.1321  0.6610 -0.0117
 8799SOL    HW234968   4.591   3.094   5.531  1.0128  0.3394  1.5352
 8799SOL    HW334969   4.635   2.957   5.580 -0.0644 -0.9324 -0.8844
 8799SOL    MW434970   4.585   3.007   5.529  0.1342  0.3707  0.0670
 8800SOL     OW34971   3.277   2.438   1.717  0.0460 -0.6431 -0.1816
 8800SOL    HW234972   3.185   2.414   1.706  0.2418 -1.0755 -0.9268
 8800SOL    HW334973   3.276   2.534   1.718 -0.5514 -0.6379  1.1261
 8800SOL    MW434974   3.264   2.447   1.716  0.2571 -0.7916 -0.7547
 8801SOL     OW34975   1.114   0.068   2.918 -0.0222 -0.1863 -0.0111
 8801SOL    HW234976   1.179   0.090   2.851  0.1284 -1.9321 -0.4717
 8801SOL    HW334977   1.044   0.024   2.871  1.1051 -3.5036  1.1524
 8801SOL    MW434978   1.114   0.065   2.903 -0.1116  0.3500 -0.1609
 8802SOL     OW34979   2.362   2.170   2.901  0.0813 -0.0526  0.0972
 8802SOL    HW234980   2.423   2.210   2.839 -0.2103  1.2996  0.6589
 8802SOL    HW334981   2.414   2.159   2.981 -0.1055  0.1006  0.2409
 8802SOL    MW434982   2.377   2.174   2.904 -0.6951 -0.1126  0.3497
 8803SOL     OW34983   6.368   5.391   3.194 -0.6068  0.3171 -0.3603
 8803SOL    HW234984   6.425   5.387   3.271 -0.7853  1.4163 -0.1459
 8803SOL    HW334985   6.360   5.301   3.165 -0.9684 -0.2027  1.2422
 8803SOL    MW434986   6.374   5.379   3.201 -0.0429 -0.1011 -0.2143
 8804SOL     OW34987   2.924   0.478   5.542  0.2528  0.5405 -0.0380
 8804SOL    HW234988   2.845   0.527   5.561  1.1053  2.4688 -1.2444
 8804SOL    HW334989   2.893   0.392   5.513 -1.3161  0.8289  0.6905
 8804SOL    MW434990   2.910   0.473   5.541 -0.1259 -0.6464  0.2147
 8805SOL     OW34991   5.170   5.866   0.086  0.1763 -0.0609  0.2327
 8805SOL    HW234992   5.226   5.839   0.158  1.3513 -0.2098 -0.6995
 8805SOL    HW334993   5.092   5.810   0.094  0.0857  0.2261  1.6120
 8805SOL    MW434994   5.167   5.855   0.096 -0.2168 -0.5259 -0.6942
 8806SOL     OW34995   2.322   1.555   4.300 -0.0017 -0.1602 -0.4696
 8806SOL    HW234996   2.354   1.560   4.210 -0.0131  0.8312 -0.4314
 8806SOL    HW334997   2.389   1.601   4.351 -0.0535 -0.6128  0.0146
 8806SOL    MW434998   2.335   1.562   4.295  0.1442  0.0803  0.4526
 8807SOL     OW34999   3.424   2.176   0.061 -0.0115  0.0788 -0.1403
 8807SOL    HW235000   3.352   2.211   0.009  0.1936  0.7806  0.0365
 8807SOL    HW335001   3.483   2.137  -0.003 -0.7993 -0.9706 -0.2414
 8807SOL    MW435002   3.422   2.176   0.046 -0.0212 -0.1439 -0.2722
 8808SOL     OW35003   5.634   0.142   5.590  0.1883  0.0980  0.3184
 8808SOL    HW235004   5.664   0.161   5.501 -0.7150  2.4232  0.4472
 8808SOL    HW335005   5.689   0.069   5.619  0.1455 -1.0888 -2.3074
 8808SOL    MW435006   5.645   0.135   5.582 -0.1873 -0.5550 -0.1656
 8809SOL     OW35007   3.406   4.277   1.758 -0.2078 -0.0243 -0.0030
 8809SOL    HW235008   3.320   4.256   1.795 -0.6073 -0.6645 -1.2321
 8809SOL    HW335009   3.410   4.372   1.758  0.3321  0.0639  2.7717
 8809SOL    MW435010   3.395   4.287   1.763  0.2251  0.3455 -0.4207
 8810SOL     OW35011   0.195   1.572   6.171 -0.1735 -0.0439  0.0593
 8810SOL    HW235012   0.210   1.664   6.145 -1.4453 -0.0962 -0.9865
 8810SOL    HW335013   0.164   1.577   6.261 -2.0817  0.7707 -0.5799
 8810SOL    MW435014   0.193   1.585   6.179 -0.8078  0.1360 -0.0191
 8811SOL     OW35015   3.766   2.196   0.484 -0.5665 -0.6075  0.1634
 8811SOL    HW235016   3.784   2.192   0.390  1.5944 -1.2769  0.5524
 8811SOL    HW335017   3.762   2.289   0.504 -2.7061 -0.4249 -0.8243
 8811SOL    MW435018   3.768   2.208   0.474  0.3084  0.2238 -0.1139
 8812SOL     OW35019   5.630   2.018   5.149 -0.1359 -0.0702  0.2225
 8812SOL    HW235020   5.654   2.111   5.143  0.3798 -0.0800  1.7251
 8812SOL    HW335021   5.538   2.015   5.121  0.0013  0.8121 -0.3461
 8812SOL    MW435022   5.621   2.030   5.145 -0.2095 -0.1509  0.1310
 8813SOL     OW35023   3.361   4.562   4.149 -0.4429  0.3014  0.1406
 8813SOL    HW235024   3.344   4.555   4.055 -0.5186 -0.1686  0.1862
 8813SOL    HW335025   3.275   4.559   4.190 -0.3188 -1.5675  0.3389
 8813SOL    MW435026   3.348   4.561   4.142  0.3234  0.0174 -0.4047
 8814SOL     OW35027   0.195   4.930   4.866 -0.1266 -0.5673  0.4549
 8814SOL    HW235028   0.111   4.965   4.839  0.5559  1.3454  0.6619
 8814SOL    HW335029   0.178   4.886   4.949 -0.9227 -0.2236  0.4794
 8814SOL    MW435030   0.182   4.929   4.873 -0.4392 -0.0353  0.0552
 8815SOL     OW35031   0.868   2.461   4.600 -0.0477  0.2126  0.4845
 8815SOL    HW235032   0.813   2.448   4.523 -0.5403  1.2301  0.6498
 8815SOL    HW335033   0.957   2.468   4.566 -0.2728  0.7552 -0.0082
 8815SOL    MW435034   0.872   2.460   4.585  0.5362  0.6248  0.1257
 8816SOL     OW35035   1.469   0.852   2.884  0.4196 -0.2253 -0.7656
 8816SOL    HW235036   1.453   0.863   2.790 -0.5361  1.5447 -0.4406
 8816SOL    HW335037   1.394   0.892   2.927  1.5876  0.4472  0.7707
 8816SOL    MW435038   1.457   0.859   2.877 -0.1477  0.0655 -0.2574
 8817SOL     OW35039   4.681   5.357   0.793  0.0021 -0.2412 -0.8355
 8817SOL    HW235040   4.645   5.274   0.824  0.1512  0.0802  0.2602
 8817SOL    HW335041   4.768   5.362   0.834  0.5962 -0.2119 -2.0596
 8817SOL    MW435042   4.688   5.347   0.802 -0.0642  0.0468 -0.3348
 8818SOL     OW35043   3.952   3.715   2.968  0.5626 -0.0432  0.3921
 8818SOL    HW235044   3.985   3.626   2.980 -0.9650 -0.6983  0.0340
 8818SOL    HW335045   3.946   3.725   2.873 -0.6904 -0.1484  0.4357
 8818SOL    MW435046   3.955   3.704   2.957 -0.3985  0.3379 -0.0750
 8819SOL     OW35047   4.460   5.348   0.195 -0.3718  0.0245  0.3530
 8819SOL    HW235048   4.409   5.273   0.163  0.7810 -0.3759 -0.6236
 8819SOL    HW335049   4.551   5.320   0.187  0.0324  0.6761  2.1726
 8819SOL    MW435050   4.466   5.334   0.190  0.3499 -0.1511  1.1520
 8820SOL     OW35051   4.668   2.583   0.825 -0.0151 -0.5916  0.6781
 8820SOL    HW235052   4.649   2.507   0.769 -1.5892 -0.5810  1.1421
 8820SOL    HW335053   4.763   2.586   0.829  0.1653 -0.5383 -2.0380
 8820SOL    MW435054   4.678   2.573   0.819 -0.7238  0.2812  0.4345
 8821SOL     OW35055   2.866   2.699   0.438 -0.2759  0.1800  0.0767
 8821SOL    HW235056   2.904   2.770   0.489 -1.2003 -0.9561  2.5053
 8821SOL    HW335057   2.937   2.635   0.428 -0.2774  0.1079  0.5328
 8821SOL    MW435058   2.880   2.700   0.443  0.1171 -0.3425 -0.0369
 8822SOL     OW35059   2.896   3.292   1.185  0.2486  0.0206 -0.2932
 8822SOL    HW235060   2.876   3.224   1.120 -0.3576  0.2070 -0.3124
 8822SOL    HW335061   2.843   3.367   1.157 -1.4593 -0.4648  1.4219
 8822SOL    MW435062   2.886   3.293   1.173 -0.4230  0.3355  0.1299
 8823SOL     OW35063   1.540   0.277   6.232 -0.0216  0.0969 -0.0100
 8823SOL    HW235064   1.553   0.210   6.299  1.8814  0.9846  0.5838
 8823SOL    HW335065   1.514   0.355   6.280  2.3182  1.0169 -0.1134
 8823SOL    MW435066   1.539   0.278   6.247  0.0090 -0.1546 -0.0614
 8824SOL     OW35067   4.526   2.391   2.520 -0.3683  0.2337 -0.5131
 8824SOL    HW235068   4.452   2.352   2.474  0.7940 -1.1659 -1.2827
 8824SOL    HW335069   4.490   2.422   2.603 -1.5040 -2.0444 -0.0696
 8824SOL    MW435070   4.512   2.390   2.525  0.2900  0.2320  0.1669
 8825SOL     OW35071   1.257   2.727   1.147  0.5786  0.2592 -0.2496
 8825SOL    HW235072   1.163   2.711   1.155  0.8287 -0.3569  1.9510
 8825SOL    HW335073   1.264   2.822   1.137 -0.2507  0.3880  0.2841
 8825SOL    MW435074   1.246   2.738   1.147 -0.3517  0.0193 -0.8417
 8826SOL     OW35075   2.598   3.240   5.008  0.2520  0.5413 -0.3578
 8826SOL    HW235076   2.602   3.159   5.059  0.6143  0.4263 -0.5700
 8826SOL    HW335077   2.567   3.306   5.071  2.7616  0.8844  0.6434
 8826SOL    MW435078   2.594   3.238   5.023  0.1597 -0.3112 -0.1611
 8827SOL     OW35079   3.300   3.090   4.399 -0.9524  0.6073  0.6758
 8827SOL    HW235080   3.321   2.997   4.389 -2.3592  0.0811  2.2324
 8827SOL    HW335081   3.298   3.124   4.309  0.6319 -0.5995  0.1468
 8827SOL    MW435082   3.303   3.082   4.386  0.0997 -0.4387  0.1709
 8828SOL     OW35083   0.626   3.623   0.269  0.1694 -0.0437 -0.0552
 8828SOL    HW235084   0.717   3.627   0.243  0.8026  2.3905  2.1012
 8828SOL    HW335085   0.608   3.530   0.281  1.6258 -0.7460 -2.7216
 8828SOL    MW435086   0.635   3.611   0.267  0.5396 -0.4822  0.4869
 8829SOL     OW35087   2.473   2.130   5.567 -0.6914 -0.0105 -1.3283
 8829SOL    HW235088   2.469   2.177   5.650  1.6729 -1.0067 -0.5654
 8829SOL    HW335089   2.417   2.054   5.579 -0.5332 -0.0362 -0.7084
 8829SOL    MW435090   2.465   2.126   5.579  0.3191 -0.0335  0.0901
 8830SOL     OW35091   3.567   3.131   4.457  0.0111 -0.3094  0.5062
 8830SOL    HW235092   3.476   3.114   4.433  0.2129 -3.4420  1.4875
 8830SOL    HW335093   3.594   3.203   4.401 -2.5219 -0.5143 -1.1263
 8830SOL    MW435094   3.558   3.138   4.447  0.2151  0.5381 -0.4543
 8831SOL     OW35095   2.496   3.876   2.795 -0.0851 -0.3058  0.6189
 8831SOL    HW235096   2.468   3.937   2.727 -2.0166  0.4877  2.0354
 8831SOL    HW335097   2.414   3.839   2.829  0.9372 -2.1230  1.2284
 8831SOL    MW435098   2.481   3.879   2.790 -0.2174 -0.4099 -0.2510
 8832SOL     OW35099   4.301   2.314   4.259  0.7040  0.2245 -0.5421
 8832SOL    HW235100   4.309   2.334   4.352 -1.2774 -1.5688  0.1001
 8832SOL    HW335101   4.378   2.262   4.239  1.7056  1.5336 -0.2135
 8832SOL    MW435102   4.312   2.310   4.269  0.5284  0.1746  0.4539
 8833SOL     OW35103   0.793   5.127   2.694  0.2649 -0.1314 -0.2040
 8833SOL    HW235104   0.703   5.156   2.675  0.4882 -0.3104 -1.6005
 8833SOL    HW335105   0.790   5.102   2.786 -1.1038 -0.0557 -0.1986
 8833SOL    MW435106   0.780   5.128   2.704  0.4424  0.7148  0.3305
 8834SOL     OW35107   6.264   5.300   2.423 -0.2687  0.0343 -0.1788
 8834SOL    HW235108   6.201   5.228   2.413 -0.5584  0.4295 -1.2893
 8834SOL    HW335109   6.214   5.379   2.403  0.0191  0.5808  1.1442
 8834SOL    MW435110   6.249   5.301   2.419 -0.1226  0.1064  0.1062
 8835SOL     OW35111   3.867   3.160   2.435  0.0071  0.2159  0.5573
 8835SOL    HW235112   3.947   3.213   2.439  0.4106 -0.3842  0.4411
 8835SOL    HW335113   3.834   3.161   2.525  0.4567 -0.0146  0.7273
 8835SOL    MW435114   3.874   3.167   2.448 -0.3106  0.5617  0.1040
 8836SOL     OW35115   2.925   3.327   3.605  0.2653 -0.2285 -0.2457
 8836SOL    HW235116   2.836   3.301   3.579  0.3089 -0.7989  0.1618
 8836SOL    HW335117   2.957   3.378   3.531 -0.6542  0.5790 -0.1091
 8836SOL    MW435118   2.917   3.330   3.592 -0.1677 -0.2355 -0.1564
 8837SOL     OW35119   5.380   1.363   4.151 -0.1581  0.4602 -0.2786
 8837SOL    HW235120   5.328   1.408   4.084  1.8745 -0.4496 -2.6040
 8837SOL    HW335121   5.392   1.275   4.117  1.6386  0.2073  0.8944
 8837SOL    MW435122   5.375   1.358   4.138  0.4805 -0.3682  0.2723
 8838SOL     OW35123   3.291   2.224   4.035  0.4617 -0.2200  0.0636
 8838SOL    HW235124   3.300   2.233   4.130 -0.1200 -0.5118  0.1556
 8838SOL    HW335125   3.375   2.253   4.000  0.3700  0.7724  0.6121
 8838SOL    MW435126   3.303   2.229   4.043 -0.0373 -0.0840  0.0749
 8839SOL     OW35127   1.535   5.948   2.213  0.4775  0.0837 -0.2297
 8839SOL    HW235128   1.585   5.950   2.294  0.1201 -1.0257  0.0341
 8839SOL    HW335129   1.580   6.010   2.155  0.3462  1.4024  1.0210
 8839SOL    MW435130   1.548   5.956   2.216  0.2503  0.3087 -0.2801
 8840SOL     OW35131   0.307   6.020   1.337 -0.0055  0.0299 -0.2281
 8840SOL    HW235132   0.255   5.958   1.286 -0.7371  1.1862 -0.9075
 8840SOL    HW335133   0.278   6.007   1.427  0.2484 -0.9935 -0.2802
 8840SOL    MW435134   0.296   6.010   1.342  0.7924  0.4931  0.0397
 8841SOL     OW35135   1.878   6.402   2.259 -0.1993  0.3067 -0.2282
 8841SOL    HW235136   1.881   6.307   2.261 -2.2456  0.2123  0.1689
 8841SOL    HW335137   1.808   6.423   2.197  0.7287  1.5817 -0.8998
 8841SOL    MW435138   1.869   6.392   2.251 -0.1521  0.8200 -0.2332
 8842SOL     OW35139   3.420   5.086   6.015  0.1967  0.5370 -0.3486
 8842SOL    HW235140   3.486   5.155   6.019 -1.0364  1.6878  0.7862
 8842SOL    HW335141   3.465   5.008   6.047  1.6807  0.6912 -1.8680
 8842SOL    MW435142   3.434   5.085   6.020 -0.7627 -0.0104  0.0572
 8843SOL     OW35143   0.848   2.562   2.986  0.1846  0.0630 -0.2084
 8843SOL    HW235144   0.900   2.602   3.055 -0.8017 -0.6879  1.0217
 8843SOL    HW335145   0.791   2.632   2.956 -1.0749 -0.1563  1.4789
 8843SOL    MW435146   0.847   2.576   2.991  0.5268 -0.1439  0.2119
 8844SOL     OW35147   2.596   1.645   0.388 -0.1275  0.3882 -0.6545
 8844SOL    HW235148   2.539   1.713   0.424  0.1495  0.9061 -1.1828
 8844SOL    HW335149   2.540   1.567   0.383  0.0136  0.0948  1.5244
 8844SOL    MW435150   2.581   1.643   0.392  0.4814 -1.0628  0.2464
 8845SOL     OW35151   1.461   4.484   5.697  0.0972 -0.1201  0.1438
 8845SOL    HW235152   1.441   4.516   5.785  1.3867  0.5173  0.2167
 8845SOL    HW335153   1.477   4.390   5.709  0.7060  0.0445  0.6667
 8845SOL    MW435154   1.460   4.476   5.710 -0.0211 -0.5518 -0.1406
 8846SOL     OW35155   1.382   0.386   5.497 -0.0238 -0.0629 -1.0128
 8846SOL    HW235156   1.387   0.306   5.549 -0.5569  0.9183  0.6124
 8846SOL    HW335157   1.291   0.390   5.469 -0.0175  0.0199 -1.0203
 8846SOL    MW435158   1.371   0.376   5.500 -0.3745  0.5689 -0.2395
 8847SOL     OW35159   3.621   1.123   2.565  0.5104  0.1441 -0.0088
 8847SOL    HW235160   3.537   1.131   2.520  0.8173 -0.8031 -0.7789
 8847SOL    HW335161   3.622   1.034   2.600  0.9016  0.3787  0.5991
 8847SOL    MW435162   3.610   1.113   2.563  0.0304 -0.4318  0.2536
 8848SOL     OW35163   5.033   3.423   4.170 -0.4995 -0.5016 -0.2660
 8848SOL    HW235164   4.980   3.453   4.244  0.4219  1.9922 -0.5176
 8848SOL    HW335165   4.975   3.365   4.121 -2.4915  0.8688  0.3398
 8848SOL    MW435166   5.018   3.420   4.173  0.4835 -0.4374  0.4132
 8849SOL     OW35167   5.815   6.332   0.657  0.3047  0.8223  0.2901
 8849SOL    HW235168   5.737   6.290   0.693  0.5169  0.4909  0.3637
 8849SOL    HW335169   5.790   6.355   0.567 -0.1679  1.5014  0.5924
 8849SOL    MW435170   5.801   6.330   0.650  0.7082  0.3352 -0.8789
 8850SOL     OW35171   3.683   3.554   3.855  0.1329 -0.2498  0.1106
 8850SOL    HW235172   3.660   3.526   3.943 -0.8972  0.2671  0.0147
 8850SOL    HW335173   3.738   3.631   3.867 -1.4616  0.8997  0.2956
 8850SOL    MW435174   3.687   3.560   3.868 -0.1401  0.0634  0.8332
 8851SOL     OW35175   4.953   1.177   4.636  0.1545 -0.1764 -0.3267
 8851SOL    HW235176   5.021   1.112   4.625  0.2968  0.1909 -1.8654
 8851SOL    HW335177   4.920   1.193   4.547  0.4178  2.1401 -0.0864
 8851SOL    MW435178   4.957   1.171   4.623  0.1844 -0.2901  0.3860
 8852SOL     OW35179   4.919   4.036   4.430  0.3378  0.4560 -0.0803
 8852SOL    HW235180   4.928   4.131   4.424  0.7929  0.3868 -0.6069
 8852SOL    HW335181   4.843   4.022   4.486  0.8688  1.1257  0.8407
 8852SOL    MW435182   4.910   4.047   4.437 -0.2518 -0.4113 -0.1616
 8853SOL     OW35183   6.091   3.755   3.062  0.4328 -0.1796 -0.2738
 8853SOL    HW235184   6.067   3.827   3.120  1.6198  1.6020 -1.8719
 8853SOL    HW335185   6.088   3.677   3.118  1.9698  1.4673  2.3289
 8853SOL    MW435186   6.088   3.754   3.077 -0.3980 -0.0278 -0.4082
 8854SOL     OW35187   3.932   4.235   1.276  0.4524  0.3304 -0.1310
 8854SOL    HW235188   3.983   4.177   1.333 -0.2352 -0.1854 -0.0277
 8854SOL    HW335189   3.841   4.219   1.301 -0.0961 -1.6323 -2.9333
 8854SOL    MW435190   3.927   4.226   1.287  0.0410  0.2984  0.0181
 8855SOL     OW35191   3.685   1.832   4.039  0.3597 -0.2583  0.1064
 8855SOL    HW235192   3.753   1.859   4.100 -0.1407  1.5354 -0.0825
 8855SOL    HW335193   3.673   1.907   3.981 -1.6464 -0.5893  0.0216
 8855SOL    MW435194   3.692   1.845   4.040  0.4697 -0.1958 -0.3498
 8856SOL     OW35195   3.979   0.371   5.789  0.5754 -0.3583 -0.1241
 8856SOL    HW235196   3.931   0.300   5.832  0.5960  1.0830  2.4421
 8856SOL    HW335197   4.063   0.331   5.766  0.4813 -1.2520  0.9873
 8856SOL    MW435198   3.984   0.356   5.792 -0.1771  0.1649  0.0602
 8857SOL     OW35199   4.883   6.086   2.668 -0.3158 -0.6353 -0.6382
 8857SOL    HW235200   4.837   6.010   2.633  1.9496 -2.1455 -0.5570
 8857SOL    HW335201   4.958   6.049   2.714  0.3912  1.6407  0.1781
 8857SOL    MW435202   4.887   6.071   2.670  0.4051  0.0975  0.0247
 8858SOL     OW35203   0.640   1.335   4.145  0.4692 -0.2506  0.1971
 8858SOL    HW235204   0.625   1.273   4.073 -0.9634  1.1599 -0.7972
 8858SOL    HW335205   0.704   1.397   4.111 -2.6829  2.4717 -1.3789
 8858SOL    MW435206   0.646   1.335   4.131  0.2418 -0.0769  0.5477
 8859SOL     OW35207   0.873   1.368   1.695 -0.1402  0.1560  0.2214
 8859SOL    HW235208   0.810   1.425   1.739 -0.3437  0.4009 -0.3743
 8859SOL    HW335209   0.941   1.428   1.662 -0.1052  0.0017  0.0099
 8859SOL    MW435210   0.874   1.384   1.696  0.0207  0.0915  0.0817
 8860SOL     OW35211   0.291   0.058   4.073 -0.1880 -0.2724 -0.5928
 8860SOL    HW235212   0.200   0.088   4.070  0.4805  2.0502  0.3081
 8860SOL    HW335213   0.321   0.080   4.161  1.0183 -1.7916 -0.5805
 8860SOL    MW435214   0.283   0.065   4.084  0.5082  0.1941  0.8655
 8861SOL     OW35215   0.366   0.962   5.628 -0.5806  0.2065 -0.4234
 8861SOL    HW235216   0.291   1.013   5.659 -0.5523  0.1315 -0.2355
 8861SOL    HW335217   0.429   1.028   5.599 -0.3013  0.2965  0.3714
 8861SOL    MW435218   0.365   0.978   5.628 -0.1561  0.2335 -0.0362
 8862SOL     OW35219   0.021   5.327   0.412 -0.0881 -0.0572 -0.2779
 8862SOL    HW235220  -0.040   5.401   0.409  0.8828  0.7799 -3.0489
 8862SOL    HW335221   0.068   5.332   0.329  3.4470 -0.9332  1.4720
 8862SOL    MW435222   0.019   5.337   0.401 -0.0976 -0.5812 -0.4408
 8863SOL     OW35223   5.032   0.479   3.680  0.6112 -0.2688  0.0877
 8863SOL    HW235224   4.940   0.493   3.656  0.1718 -2.5254  0.1698
 8863SOL    HW335225   5.076   0.461   3.597  0.1209 -3.0468  0.3369
 8863SOL    MW435226   5.025   0.478   3.666 -0.1677 -0.1701  0.1412
 8864SOL     OW35227   1.138   6.265   4.082 -0.4962  0.2547  0.0871
 8864SOL    HW235228   1.211   6.291   4.139  0.0484 -0.0120 -0.4689
 8864SOL    HW335229   1.113   6.346   4.037 -0.8082  0.4287  0.5676
 8864SOL    MW435230   1.145   6.279   4.083 -0.6161  0.3388 -0.7635
 8865SOL     OW35231   3.961   0.038   0.663  0.3372 -0.2239  0.3087
 8865SOL    HW235232   3.960   0.129   0.633 -0.8183 -0.8217 -1.6613
 8865SOL    HW335233   4.048   0.006   0.640  1.4212  0.8297  2.6728
 8865SOL    MW435234   3.972   0.046   0.656 -0.0352 -0.4494 -0.0177
 8866SOL     OW35235   2.391   3.711   3.319 -0.3080  0.5804  0.1462
 8866SOL    HW235236   2.345   3.666   3.390  0.7312  2.1731  1.9109
 8866SOL    HW335237   2.475   3.736   3.357  0.0624  1.9771 -1.4882
 8866SOL    MW435238   2.396   3.708   3.334 -0.0718 -0.0125  0.7375
 8867SOL     OW35239   4.150   3.333   4.881 -0.1914 -1.0025  0.2827
 8867SOL    HW235240   4.131   3.324   4.788  2.1215 -0.6130 -0.2813
 8867SOL    HW335241   4.216   3.402   4.885 -1.3898  0.1338  2.3871
 8867SOL    MW435242   4.156   3.341   4.869  0.3184  0.0486 -0.4026
 8868SOL     OW35243   1.243   5.198   6.066 -0.2004 -0.2702 -0.6701
 8868SOL    HW235244   1.223   5.109   6.038 -1.6294  0.2314 -1.3551
 8868SOL    HW335245   1.339   5.200   6.075 -0.0527 -1.5892 -1.6330
 8868SOL    MW435246   1.253   5.187   6.063 -0.1974 -0.5187  0.0683
 8869SOL     OW35247   4.676   4.007   4.575  0.0288 -0.4946  0.7989
 8869SOL    HW235248   4.636   3.949   4.640 -0.5452  0.8055  1.6385
 8869SOL    HW335249   4.621   3.996   4.497  1.0433 -2.4721  0.2919
 8869SOL    MW435250   4.663   3.998   4.573  0.1485  0.0856  0.1630
 8870SOL     OW35251   6.179   0.885   5.160  1.0956 -0.2307 -0.1490
 8870SOL    HW235252   6.175   0.792   5.183 -0.2543  0.0578  0.9278
 8870SOL    HW335253   6.256   0.917   5.208  0.0256 -0.2734  1.6880
 8870SOL    MW435254   6.189   0.877   5.170 -0.0484  0.7089  0.5421
 8871SOL     OW35255   3.050   1.921   1.581 -0.0024 -0.2587 -0.0809
 8871SOL    HW235256   3.068   1.841   1.533  0.1342  1.1097 -2.4531
 8871SOL    HW335257   3.136   1.952   1.610  0.1242 -0.0840 -0.6469
 8871SOL    MW435258   3.064   1.915   1.579  0.1311 -0.0084 -0.8914
 8872SOL     OW35259   1.016   4.352   3.108  0.0744  0.1726  0.1079
 8872SOL    HW235260   1.013   4.416   3.037 -0.0312 -1.3844 -1.3471
 8872SOL    HW335261   1.107   4.351   3.136  0.4673 -0.3281 -1.1170
 8872SOL    MW435262   1.027   4.361   3.102 -0.0446 -0.3634 -0.6494
 8873SOL     OW35263   1.120   1.336   4.641 -0.4261 -0.3920 -0.3363
 8873SOL    HW235264   1.186   1.359   4.576 -0.4518 -1.1360 -0.6382
 8873SOL    HW335265   1.059   1.279   4.594 -0.8305 -0.3672  0.1549
 8873SOL    MW435266   1.120   1.332   4.626  0.0315 -0.2580  0.1001
 8874SOL     OW35267   5.349   6.375   0.267  0.2549  0.1814 -0.0628
 8874SOL    HW235268   5.260   6.394   0.235  0.3954  0.7631 -0.1137
 8874SOL    HW335269   5.407   6.404   0.197  0.4941 -0.1309  0.0026
 8874SOL    MW435270   5.345   6.381   0.253 -0.6186  0.5413  0.5866
 8875SOL     OW35271   4.783   1.962   4.698 -0.0779 -0.0819  0.3847
 8875SOL    HW235272   4.690   1.982   4.693 -0.5649 -2.0045  1.0797
 8875SOL    HW335273   4.790   1.895   4.766  1.6426 -0.9092 -0.5443
 8875SOL    MW435274   4.772   1.956   4.707  0.2453  0.3218 -0.2720
 8876SOL     OW35275   5.782   4.082   5.381  0.1093 -0.1641  0.2847
 8876SOL    HW235276   5.728   4.139   5.325  0.8845 -0.0291 -0.3521
 8876SOL    HW335277   5.735   3.999   5.384  0.2847 -0.3303 -0.9957
 8876SOL    MW435278   5.769   4.079   5.374 -0.2671  0.3133 -0.2702
 8877SOL     OW35279   6.151   2.980   1.588  0.3528 -0.1066 -0.1990
 8877SOL    HW235280   6.200   2.976   1.506  0.2014 -0.4889 -0.2765
 8877SOL    HW335281   6.218   2.980   1.657  0.5191  1.2760 -0.3319
 8877SOL    MW435282   6.166   2.979   1.586 -0.0865  0.0991  0.4587
 8878SOL     OW35283   4.214   4.630   1.783  0.5134  0.0136 -0.7160
 8878SOL    HW235284   4.254   4.709   1.821  2.1964 -1.0306 -0.1941
 8878SOL    HW335285   4.184   4.580   1.859  0.2558 -0.2604 -0.9966
 8878SOL    MW435286   4.215   4.634   1.798 -0.3947  0.3561  0.2867
 8879SOL     OW35287   1.841   1.433   4.134  0.1357 -0.4907  0.4466
 8879SOL    HW235288   1.900   1.363   4.162  0.0918 -1.3351 -1.4634
 8879SOL    HW335289   1.754   1.401   4.158  0.2062 -0.5858  0.5775
 8879SOL    MW435290   1.837   1.419   4.141 -0.1629 -0.5652  0.3230
 8880SOL     OW35291   1.611   6.170   4.583 -0.0567 -0.1321  0.4646
 8880SOL    HW235292   1.571   6.156   4.498  0.0557 -2.0178  0.6797
 8880SOL    HW335293   1.551   6.130   4.645 -0.3063  1.5054  1.3496
 8880SOL    MW435294   1.598   6.163   4.580  1.5026  0.3650  0.5508
 8881NA      NA35295   3.227   5.995   0.766  0.0588 -0.4720  0.0532
 8882NA      NA35296   3.767   0.062   2.569  0.1305  0.0248  0.2925
 8883NA      NA35297   3.932   1.161   1.051  0.6630  0.3827  0.6997
 8884NA      NA35298   1.728   3.445   0.676 -0.6087 -0.0772 -0.1068
 8885NA      NA35299   4.730   1.971   6.094  0.0120 -0.2889 -0.1294
 8886NA      NA35300   3.286   5.961   5.966 -0.1377 -0.7048 -0.0599
 8887NA      NA35301   5.717   4.534   4.486  0.4952  0.4747 -0.6661
   6.42840   6.42840   6.42840
