A-SYNC WITH LIG-47 in water
35301
  121NASP     N    1   6.346   5.773   6.356  0.0185  0.3043  0.5138
  121NASP    H1    2   6.324   5.832   6.277  1.4566  2.5617  1.6960
  121NASP    H2    3   6.409   5.829   6.412  0.8452 -0.5101  0.4309
  121NASP    H3    4   6.267   5.738   6.409 -0.4531 -1.2772 -1.1086
  121NASP    CA    5   6.422   5.655   6.306  0.4413 -0.0623  0.0891
  121NASP    HA    6   6.500   5.693   6.240 -0.4775  1.1195 -0.3627
  121NASP    CB    7   6.483   5.578   6.423  0.4347 -0.4882 -0.7542
  121NASP   HB1    8   6.572   5.632   6.456 -0.6101  0.7626  0.1414
  121NASP   HB2    9   6.527   5.484   6.390  0.8611 -0.2404 -0.9149
  121NASP    CG   10   6.391   5.553   6.542  0.2287  0.8466  1.1166
  121NASP   OD1   11   6.427   5.500   6.648 -0.1742  0.3277  0.0483
  121NASP   OD2   12   6.268   5.576   6.528 -0.3999 -0.4182  0.5890
  121NASP     C   13   6.343   5.555   6.215 -0.3546 -0.3120  0.4408
  121NASP     O   14   6.218   5.560   6.205  0.3239  0.0036 -0.3188
  122ASN      N   15   6.415   5.467   6.144 -0.3565 -0.3425  0.1960
  122ASN      H   16   6.513   5.453   6.162  0.2641  1.8334 -1.0497
  122ASN     CA   17   6.352   5.373   6.043  0.6222 -0.2267  0.5888
  122ASN     HA   18   6.301   5.427   5.964  0.9878  1.8157  1.6736
  122ASN     CB   19   6.468   5.284   5.988  0.0006 -0.5178 -0.0742
  122ASN    HB1   20   6.512   5.234   6.075 -1.6288 -1.3176  0.3154
  122ASN    HB2   21   6.558   5.338   5.958  0.8269 -1.8515 -0.1202
  122ASN     CG   22   6.427   5.197   5.868  0.5873  0.0253 -0.1055
  122ASN    OD1   23   6.314   5.199   5.821  0.1972 -0.1795 -0.7973
  122ASN    ND2   24   6.514   5.123   5.812 -0.4026  0.1402 -0.2881
  122ASN   HD21   25   6.497   5.091   5.717 -0.7622 -0.5285 -0.0050
  122ASN   HD22   26   6.608   5.123   5.849 -1.0671  1.6283  1.5091
  122ASN      C   27   6.236   5.294   6.105 -0.4129 -0.3085 -0.1687
  122ASN      O   28   6.252   5.253   6.221  0.6888  0.0041 -0.9680
  123GLU      N   29   6.135   5.263   6.021  0.3035  0.1848 -0.4694
  123GLU      H   30   6.136   5.300   5.927  3.0204  3.6071  0.6792
  123GLU     CA   31   6.033   5.160   6.055 -0.3638  0.2330 -0.2028
  123GLU     HA   32   5.988   5.186   6.151 -1.7264  0.6540 -0.9287
  123GLU     CB   33   5.909   5.169   5.961 -1.0412 -0.6143 -0.0295
  123GLU    HB1   34   5.842   5.088   5.991 -1.8369 -0.9649 -2.5537
  123GLU    HB2   35   5.949   5.157   5.860 -0.7169  0.3039 -0.0159
  123GLU     CG   36   5.840   5.306   5.979 -0.6208  0.3139 -0.0828
  123GLU    HG1   37   5.917   5.380   5.956  0.8359 -1.4391 -1.1256
  123GLU    HG2   38   5.812   5.320   6.083 -0.3184 -1.0224  0.2020
  123GLU     CD   39   5.723   5.322   5.886  1.0194 -0.3426  0.2760
  123GLU    OE1   40   5.652   5.422   5.905  0.6591 -0.2455  0.5043
  123GLU    OE2   41   5.691   5.232   5.803  0.1444 -0.2040  0.1671
  123GLU      C   42   6.080   5.009   6.053 -0.7967  0.2477  0.7276
  123GLU      O   43   6.008   4.913   6.012  0.0561 -0.4176 -0.3083
  124ALA      N   44   6.208   4.992   6.079 -0.2976 -0.1547 -0.2296
  124ALA      H   45   6.255   5.071   6.120  0.7800 -1.4924  1.2358
  124ALA     CA   46   6.283   4.864   6.077  0.0918 -0.2353  0.6788
  124ALA     HA   47   6.284   4.829   5.974 -1.3827  0.8046  0.2748
  124ALA     CB   48   6.428   4.899   6.099 -0.3990  0.2230 -0.8137
  124ALA    HB1   49   6.451   4.995   6.053  1.2854 -0.2190 -0.9718
  124ALA    HB2   50   6.487   4.825   6.044 -1.6443 -0.9418 -0.6414
  124ALA    HB3   51   6.449   4.909   6.205 -0.0153 -1.1479 -0.7364
  124ALA      C   52   6.234   4.743   6.167 -0.5616 -0.1386 -0.2142
  124ALA      O   53   6.311   4.680   6.237  0.2977 -0.2687 -0.0474
  125TYR      N   54   6.103   4.726   6.181  0.0942  0.1648 -0.1912
  125TYR      H   55   6.039   4.782   6.127  0.2386  0.8814  0.3555
  125TYR     CA   56   6.027   4.636   6.264  0.4164 -0.1354  0.0520
  125TYR     HA   57   6.093   4.564   6.312  0.5105  0.0699  0.2264
  125TYR     CB   58   5.957   4.705   6.378 -0.4351  0.2080  0.3248
  125TYR    HB1   59   5.961   4.630   6.458  2.4533 -0.4057 -0.2476
  125TYR    HB2   60   5.851   4.718   6.358 -0.6885  0.4170  1.6696
  125TYR     CG   61   6.017   4.831   6.432 -0.5051 -0.8814  0.5427
  125TYR    CD1   62   5.965   4.955   6.389  0.1467  0.5631 -0.2333
  125TYR    HD1   63   5.881   4.966   6.322  1.4206 -1.0300 -2.1948
  125TYR    CE1   64   6.030   5.080   6.422 -0.0533  0.0759 -0.2493
  125TYR    HE1   65   6.006   5.179   6.386  1.0793  0.2040 -0.7093
  125TYR     CZ   66   6.141   5.070   6.507  0.5826 -0.5745  0.6045
  125TYR     OH   67   6.203   5.182   6.538  0.5858 -0.0792  0.1633
  125TYR     HH   68   6.174   5.248   6.474 -1.2973 -2.4215 -1.6186
  125TYR    CE2   69   6.195   4.948   6.545 -0.4198  0.2126 -0.8331
  125TYR    HE2   70   6.284   4.948   6.607 -1.0869 -0.8833  0.1576
  125TYR    CD2   71   6.137   4.829   6.509  0.0123 -0.2337  0.2723
  125TYR    HD2   72   6.177   4.735   6.544 -3.0673 -1.3466  1.0785
  125TYR      C   73   5.932   4.539   6.184 -0.8342 -0.5688 -0.0823
  125TYR      O   74   5.892   4.560   6.072 -0.1925 -0.7311  0.0098
  126GLU      N   75   5.900   4.425   6.249  0.2712  0.5677  0.2576
  126GLU      H   76   5.936   4.411   6.342 -1.3870 -0.8745  0.7471
  126GLU     CA   77   5.784   4.344   6.208 -0.4567  0.2497 -0.4289
  126GLU     HA   78   5.722   4.395   6.134  0.0191  2.1560  0.4113
  126GLU     CB   79   5.839   4.212   6.137  0.1738  0.3399 -0.0160
  126GLU    HB1   80   5.761   4.137   6.126 -1.2672  2.1174 -4.3457
  126GLU    HB2   81   5.921   4.173   6.198  0.6402  2.1595  0.5922
  126GLU     CG   82   5.904   4.237   6.003 -0.1272  0.9373 -0.1587
  126GLU    HG1   83   5.987   4.304   6.027 -0.6215  0.9132  1.7994
  126GLU    HG2   84   5.834   4.293   5.941 -1.5276 -0.6821 -0.0986
  126GLU     CD   85   5.949   4.116   5.931 -0.1231 -0.1249  0.2731
  126GLU    OE1   86   5.924   4.000   5.969  0.3327  0.2184 -0.3765
  126GLU    OE2   87   6.007   4.136   5.819 -0.5381 -0.3954  0.3998
  126GLU      C   88   5.689   4.322   6.327 -0.0960 -0.4820  0.3522
  126GLU      O   89   5.663   4.210   6.366 -0.1712 -0.4958  0.1550
  127MET      N   90   5.637   4.433   6.376 -0.1879  0.5680 -0.3427
  127MET      H   91   5.658   4.522   6.333 -0.0864  0.8348  0.2569
  127MET     CA   92   5.543   4.433   6.491  0.3774 -0.0665  0.0993
  127MET     HA   93   5.574   4.362   6.568 -0.2943 -1.2936 -0.7182
  127MET     CB   94   5.537   4.570   6.560 -0.5928  0.3323 -0.0056
  127MET    HB1   95   5.454   4.576   6.630 -0.8858 -0.5126 -0.2634
  127MET    HB2   96   5.517   4.647   6.486 -0.3147 -0.3104 -0.7781
  127MET     CG   97   5.669   4.603   6.642 -0.0886  0.3777  0.5057
  127MET    HG1   98   5.656   4.686   6.711  0.7774  2.3187 -1.5475
  127MET    HG2   99   5.755   4.634   6.582  0.0881 -0.7354  0.1436
  127MET     SD  100   5.738   4.478   6.757 -0.1587  0.0785  0.4035
  127MET     CE  101   5.602   4.451   6.884 -0.5295 -0.9075 -0.3815
  127MET    HE1  102   5.640   4.410   6.978  0.4156 -0.1687 -0.4195
  127MET    HE2  103   5.520   4.395   6.841  1.2045 -1.9989 -2.4881
  127MET    HE3  104   5.567   4.550   6.913  0.0393 -0.7721 -0.1375
  127MET      C  105   5.395   4.403   6.446  0.1849  0.7388 -0.6013
  127MET      O  106   5.344   4.463   6.347 -0.6580 -0.1413  0.2933
  128PRO      N  107   5.319   4.317   6.515  0.1698  0.6434  0.4952
  128PRO     CD  108   5.361   4.218   6.611 -0.4191  0.9188  0.1943
  128PRO    HD1  109   5.354   4.256   6.713 -2.3897 -0.7813  0.7586
  128PRO    HD2  110   5.465   4.190   6.595 -0.3275  1.4193 -0.1110
  128PRO     CG  111   5.277   4.096   6.596  0.7556  0.1323  0.0249
  128PRO    HG1  112   5.259   4.036   6.685 -1.6652 -0.9524 -1.1154
  128PRO    HG2  113   5.320   4.040   6.513  1.4750  1.1328 -0.3128
  128PRO     CB  114   5.145   4.153   6.555  0.2885  0.4200 -0.4340
  128PRO    HB1  115   5.087   4.085   6.492  4.1369 -1.7269 -2.0235
  128PRO    HB2  116   5.098   4.185   6.648  2.7306  0.2356  0.9426
  128PRO     CA  117   5.185   4.282   6.478  0.1161  0.1491  0.4102
  128PRO     HA  118   5.179   4.272   6.370 -1.8172 -2.2134  0.6302
  128PRO      C  119   5.096   4.404   6.515 -0.0261 -0.1012 -0.2251
  128PRO      O  120   5.134   4.498   6.587  0.2519  0.2749  0.4002
  129SER      N  121   4.970   4.386   6.477  0.0511  0.0627  0.7737
  129SER      H  122   4.942   4.301   6.430 -0.8026 -0.2703  1.8447
  129SER     CA  123   4.857   4.480   6.504  0.4836 -0.0938  0.4692
  129SER     HA  124   4.862   4.544   6.593 -1.8392  0.4077  0.2794
  129SER     CB  125   4.825   4.568   6.377  0.0700  1.1415  0.0597
  129SER    HB1  126   4.815   4.507   6.288  0.5183  0.2568  0.6013
  129SER    HB2  127   4.908   4.631   6.345 -0.0816  0.2969 -2.1147
  129SER     OG  128   4.706   4.644   6.392 -0.4084 -0.3515 -0.3376
  129SER    HG1  129   4.695   4.706   6.320  0.4931 -0.0815 -0.2596
  129SER      C  130   4.722   4.404   6.523 -0.1721 -0.4841  0.1297
  129SER      O  131   4.698   4.305   6.460 -0.0792  0.1731  0.3899
  130GLU      N  132   4.634   4.453   6.615 -0.0977 -0.3956 -0.3908
  130GLU      H  133   4.653   4.540   6.663 -0.1950 -2.1406  3.1476
  130GLU     CA  134   4.500   4.389   6.638 -0.7713 -0.2660  0.9347
  130GLU     HA  135   4.519   4.282   6.627 -0.7896 -0.0425 -1.9619
  130GLU     CB  136   4.456   4.416   6.783  0.6270  0.0218 -0.0681
  130GLU    HB1  137   4.377   4.491   6.791 -0.2863 -0.8905 -0.1712
  130GLU    HB2  138   4.543   4.439   6.844  1.8817 -0.9889 -1.4111
  130GLU     CG  139   4.386   4.284   6.841 -0.1583 -0.1129  0.1831
  130GLU    HG1  140   4.465   4.208   6.845  0.8082  0.7844 -1.1405
  130GLU    HG2  141   4.311   4.258   6.767 -0.7260  0.9998  0.3497
  130GLU     CD  142   4.329   4.308   6.981 -0.3882  0.5880  0.0680
  130GLU    OE1  143   4.264   4.408   7.006  0.3751  0.1826  0.0717
  130GLU    OE2  144   4.340   4.217   7.066  0.0764  0.1618  0.0402
  130GLU      C  145   4.397   4.436   6.530 -0.3824 -1.1993  0.6368
  130GLU      O  146   4.295   4.371   6.507 -0.2720 -0.0604  0.1006
  131GLU      N  147   4.413   4.559   6.479 -0.1403 -0.0334  0.1709
  131GLU      H  148   4.502   4.603   6.499 -0.0576  0.1743 -0.6312
  131GLU     CA  149   4.322   4.609   6.374  0.7392 -0.4227 -0.0799
  131GLU     HA  150   4.217   4.585   6.386  0.2886  1.4080 -0.0740
  131GLU     CB  151   4.328   4.764   6.375  0.1647 -0.0509 -0.1219
  131GLU    HB1  152   4.283   4.802   6.283 -2.6121 -2.0403  0.2742
  131GLU    HB2  153   4.435   4.787   6.373 -0.2799  2.3638  0.9094
  131GLU     CG  154   4.264   4.833   6.491  0.0131  0.8287  0.2672
  131GLU    HG1  155   4.314   4.810   6.585 -0.1496  0.6159  0.3031
  131GLU    HG2  156   4.163   4.792   6.496  0.5114 -0.9609 -2.5463
  131GLU     CD  157   4.256   4.979   6.479  0.9071 -1.1028 -0.3079
  131GLU    OE1  158   4.324   5.046   6.403  0.0351 -0.4885 -0.4087
  131GLU    OE2  159   4.171   5.034   6.555 -0.6818 -0.1577  0.0558
  131GLU      C  160   4.372   4.557   6.238  0.3580  0.1727  0.5517
  131GLU      O  161   4.316   4.596   6.136 -0.1927  0.0765  0.0075
  132GLY      N  162   4.481   4.472   6.233 -0.4971 -0.1913  0.1671
  132GLY      H  163   4.512   4.447   6.326 -0.3976 -0.1022  0.1578
  132GLY     CA  164   4.553   4.430   6.115 -0.3878 -0.3999  0.2656
  132GLY    HA1  165   4.661   4.432   6.130 -0.4406 -1.1443  0.8234
  132GLY    HA2  166   4.527   4.483   6.023  2.3245 -1.5591 -1.2917
  132GLY      C  167   4.512   4.285   6.081  0.2324 -0.2473  0.0376
  132GLY      O  168   4.530   4.189   6.150 -0.0691 -0.1057  0.0445
  133TYR      N  169   4.432   4.267   5.973 -0.4153 -0.0222 -0.1444
  133TYR      H  170   4.434   4.345   5.908  1.7905  1.3538  1.4299
  133TYR     CA  171   4.381   4.133   5.937 -0.1603 -0.5438  0.0674
  133TYR     HA  172   4.350   4.098   6.035  0.4471  2.4349  1.4495
  133TYR     CB  173   4.241   4.158   5.864 -0.3095 -0.1371  0.4622
  133TYR    HB1  174   4.252   4.215   5.772 -0.2358 -0.4655  0.2656
  133TYR    HB2  175   4.176   4.219   5.926  0.2198  0.5854  0.3147
  133TYR     CG  176   4.190   4.022   5.822  0.5188  0.4998  0.2682
  133TYR    CD1  177   4.109   3.945   5.913  0.2858  0.8143  0.3902
  133TYR    HD1  178   4.086   3.977   6.013  0.9987 -2.1966  1.5954
  133TYR    CE1  179   4.049   3.822   5.868 -0.0427 -0.1274 -0.5272
  133TYR    HE1  180   3.994   3.759   5.936  1.3269 -0.7947  0.0204
  133TYR     CZ  181   4.068   3.779   5.738  0.7552 -0.3873  1.1477
  133TYR     OH  182   4.030   3.656   5.708 -0.3471  0.4308  0.0167
  133TYR     HH  183   4.062   3.642   5.618 -2.0667  0.9847 -0.7257
  133TYR    CE2  184   4.145   3.860   5.644  0.2246  0.5483 -0.0285
  133TYR    HE2  185   4.170   3.820   5.547 -1.3233  0.0369 -0.2421
  133TYR    CD2  186   4.203   3.977   5.687  0.2250  0.3069 -0.3452
  133TYR    HD2  187   4.277   4.026   5.626  1.3493 -0.0604  0.6953
  133TYR      C  188   4.484   4.045   5.868 -0.6262 -0.2876  0.1569
  133TYR      O  189   4.567   4.100   5.792 -0.0683  0.3878  0.0913
  134GLN      N  190   4.486   3.914   5.895  0.0355 -0.4736 -0.0725
  134GLN      H  191   4.409   3.872   5.947 -1.7730 -0.8275 -2.8462
  134GLN     CA  192   4.595   3.828   5.846  0.1869 -0.3280 -1.0019
  134GLN     HA  193   4.693   3.861   5.881 -0.0026 -0.8655  0.0946
  134GLN     CB  194   4.577   3.687   5.903 -0.4145 -0.2102 -0.4082
  134GLN    HB1  195   4.649   3.627   5.847  0.3827  1.2630 -0.9982
  134GLN    HB2  196   4.474   3.657   5.884  0.6464 -4.6566 -0.2526
  134GLN     CG  197   4.602   3.686   6.051 -0.0209 -0.7999  0.3328
  134GLN    HG1  198   4.523   3.743   6.099  0.5844  0.7613 -0.4500
  134GLN    HG2  199   4.693   3.741   6.073 -0.0538 -0.4183 -0.4275
  134GLN     CD  200   4.593   3.547   6.114 -0.0072  0.2164 -0.1544
  134GLN    OE1  201   4.688   3.467   6.103  0.0170 -0.2779  0.0554
  134GLN    NE2  202   4.482   3.518   6.178  0.3710 -0.1665 -0.8459
  134GLN   HE21  203   4.483   3.435   6.235  2.0874  0.9766  0.9241
  134GLN   HE22  204   4.410   3.587   6.191 -0.6270 -1.5214  1.3645
  134GLN      C  205   4.594   3.815   5.690 -0.2552 -0.0915 -0.4796
  134GLN      O  206   4.495   3.831   5.622 -0.6222 -0.4069 -0.1967
  135ASP      N  207   4.711   3.783   5.637  0.3121 -0.2277 -0.1317
  135ASP      H  208   4.795   3.783   5.693  0.6182  0.3590 -0.5802
  135ASP     CA  209   4.733   3.731   5.500 -0.1862 -0.2839 -0.3733
  135ASP     HA  210   4.648   3.767   5.442  0.7355 -0.6640 -2.0249
  135ASP     CB  211   4.847   3.805   5.432 -0.3539 -0.6882  0.2800
  135ASP    HB1  212   4.827   3.911   5.437  2.5997  0.1052 -1.6659
  135ASP    HB2  213   4.865   3.780   5.327  3.0575  0.5098  0.4488
  135ASP     CG  214   4.975   3.787   5.503 -0.9672 -0.5298 -0.7747
  135ASP    OD1  215   5.071   3.862   5.477  0.5864 -0.1930 -0.2955
  135ASP    OD2  216   5.000   3.708   5.599  0.3647  0.0934  0.5583
  135ASP      C  217   4.732   3.576   5.484  0.0660  0.4892 -0.2933
  135ASP      O  218   4.776   3.520   5.384  0.1230 -0.0025  0.1424
  136TYR      N  219   4.676   3.506   5.584  0.2756  0.0968 -0.1856
  136TYR      H  220   4.635   3.555   5.662  1.9196  0.5492  0.4395
  136TYR     CA  221   4.676   3.360   5.583 -0.3319 -0.0561 -1.3677
  136TYR     HA  222   4.776   3.324   5.560 -1.1653 -1.1837 -3.4269
  136TYR     CB  223   4.641   3.308   5.726  0.2133 -1.4690  0.0557
  136TYR    HB1  224   4.540   3.339   5.754  0.0225 -3.1796  1.4543
  136TYR    HB2  225   4.698   3.362   5.802 -0.5518 -0.0913 -0.3052
  136TYR     CG  226   4.648   3.165   5.761  0.2057  0.1635 -0.2019
  136TYR    CD1  227   4.769   3.116   5.811 -0.2982 -0.4055  0.1281
  136TYR    HD1  228   4.855   3.182   5.814 -0.3002 -0.4303  1.5379
  136TYR    CE1  229   4.780   2.976   5.838  0.2525  0.2004 -0.0940
  136TYR    HE1  230   4.874   2.931   5.867  0.9356  1.2979 -0.5161
  136TYR     CZ  231   4.669   2.890   5.826  0.0735  0.3214  0.3796
  136TYR     OH  232   4.675   2.757   5.858  0.6274 -0.7385  0.3233
  136TYR     HH  233   4.765   2.727   5.875  0.7587 -4.0038 -4.3111
  136TYR    CE2  234   4.544   2.947   5.795  0.1554  0.3174 -0.0313
  136TYR    HE2  235   4.449   2.897   5.795 -0.4533  1.4133 -1.1810
  136TYR    CD2  236   4.537   3.082   5.754  0.5113  0.1444  0.1179
  136TYR    HD2  237   4.449   3.132   5.717  1.8281  1.5472 -1.2381
  136TYR      C  238   4.582   3.295   5.482 -0.2534 -0.4305 -0.8354
  136TYR      O  239   4.468   3.330   5.459  0.7620  0.0731  0.5399
  137GLU      N  240   4.624   3.181   5.420  0.0632  0.3943  0.7847
  137GLU      H  241   4.722   3.157   5.419  0.2000  0.8382 -0.9633
  137GLU     CA  242   4.543   3.070   5.362 -0.1087  0.1093 -0.9306
  137GLU     HA  243   4.449   3.062   5.417  0.3325  0.5574 -0.0825
  137GLU     CB  244   4.514   3.090   5.215  0.0979 -0.1019 -0.0249
  137GLU    HB1  245   4.604   3.115   5.159  0.7367  1.2799  1.5380
  137GLU    HB2  246   4.442   3.171   5.207  0.6257  0.2542 -1.4518
  137GLU     CG  247   4.452   2.960   5.158  0.6775 -0.5289  0.3006
  137GLU    HG1  248   4.363   2.933   5.216 -0.9681  1.2012 -1.2978
  137GLU    HG2  249   4.528   2.882   5.154  1.4029  0.1895 -0.1084
  137GLU     CD  250   4.401   2.965   5.016 -0.1897  0.0032  0.2968
  137GLU    OE1  251   4.384   3.075   4.964  0.3278 -0.0672 -0.3754
  137GLU    OE2  252   4.391   2.855   4.951  0.6239 -0.0770  0.0663
  137GLU      C  253   4.618   2.933   5.387 -0.5409 -0.1803 -0.2731
  137GLU      O  254   4.738   2.934   5.356 -0.3397  0.3637  0.6745
  138PRO      N  255   4.559   2.824   5.435 -0.4451  0.0609 -0.0306
  138PRO     CD  256   4.424   2.815   5.493  0.6928 -0.7033  0.4361
  138PRO    HD1  257   4.349   2.862   5.430  1.2918  1.4057  1.2202
  138PRO    HD2  258   4.418   2.849   5.596  1.0598 -0.9929  0.5557
  138PRO     CG  259   4.398   2.668   5.499 -0.2962  1.0722  0.6614
  138PRO    HG1  260   4.369   2.628   5.402 -0.0600 -0.4203  1.1721
  138PRO    HG2  261   4.328   2.645   5.579  0.3344  1.1640  1.2518
  138PRO     CB  262   4.531   2.603   5.532  0.9086 -0.1710 -0.0558
  138PRO    HB1  263   4.538   2.609   5.641  0.1532 -1.3538  0.0697
  138PRO    HB2  264   4.541   2.499   5.501 -2.0733 -1.0190  1.4335
  138PRO     CA  265   4.631   2.696   5.466  0.5651 -0.1229  0.2358
  138PRO     HA  266   4.708   2.718   5.540  1.5321  2.3501 -1.3911
  138PRO      C  267   4.692   2.628   5.348  0.0846  0.1135  0.5623
  138PRO      O  268   4.675   2.670   5.235  0.3841  0.0403  0.3128
  139GLU      N  269   4.769   2.527   5.372  0.9600  1.1256  0.0288
  139GLU      H  270   4.804   2.501   5.463  1.2940 -0.7602 -0.5805
  139GLU     CA  271   4.826   2.442   5.264  0.6580  0.3059 -0.3475
  139GLU     HA  272   4.875   2.517   5.201 -0.6022  1.2320 -0.2553
  139GLU     CB  273   4.931   2.344   5.325 -0.2477 -0.8219 -0.0908
  139GLU    HB1  274   5.009   2.404   5.372 -3.1308  1.1182  2.6156
  139GLU    HB2  275   4.982   2.301   5.239  0.7808  0.7671 -0.3335
  139GLU     CG  276   4.888   2.235   5.422 -0.1875 -0.4675 -0.1139
  139GLU    HG1  277   4.948   2.146   5.402 -1.3578 -1.3213  0.0942
  139GLU    HG2  278   4.785   2.202   5.406 -0.0342 -0.2480 -1.6916
  139GLU     CD  279   4.888   2.278   5.566 -0.5431  0.0201  0.3077
  139GLU    OE1  280   4.900   2.400   5.600 -0.2929  0.3430 -0.1877
  139GLU    OE2  281   4.876   2.181   5.649 -0.0236  0.4644  0.1065
  139GLU      C  282   4.716   2.367   5.183 -0.2898 -0.2813  0.0621
  139GLU      O  283   4.604   2.339   5.229 -0.2535 -0.3494 -0.0112
  140CALA     N  284   4.747   2.332   5.056 -0.1490  0.2035 -0.0556
  140CALA     H  285   4.836   2.361   5.018 -0.7324 -0.6442 -2.1928
  140CALA    CA  286   4.647   2.281   4.963  0.9152 -0.2350  0.1067
  140CALA    HA  287   4.557   2.342   4.968  1.8516  1.4940 -2.3198
  140CALA    CB  288   4.718   2.288   4.828 -0.4993  0.1580  0.1784
  140CALA   HB1  289   4.730   2.391   4.795 -0.0524  0.2282  0.5523
  140CALA   HB2  290   4.645   2.247   4.758 -0.8618  2.2345 -0.7283
  140CALA   HB3  291   4.815   2.240   4.833 -0.8082 -0.4567  0.4703
  140CALA     C  292   4.611   2.139   4.999  0.1914 -0.1905 -0.4102
  140CALA   OC1  293   4.703   2.051   5.007  0.0842  0.1258  0.1553
  140CALA   OC2  294   4.485   2.117   5.002 -0.0484  0.2211  0.4900
  141L47      C  295   6.259   4.959   5.493  0.1050 -0.2256  0.4151
  141L47      H  296   6.328   5.042   5.472  1.7607 -0.7993  2.9967
  141L47     H1  297   6.164   5.002   5.527  0.3282 -0.6468  1.6322
  141L47     H2  298   6.245   4.892   5.407 -0.4242 -0.1727  0.4582
  141L47     C1  299   6.328   4.867   5.602  0.5849 -0.2919  0.3717
  141L47      O  300   6.445   4.891   5.634  0.1766 -0.1435 -0.1830
  141L47      N  301   6.244   4.764   5.654 -0.2142  0.2031 -0.2222
  141L47     C2  302   6.096   4.773   5.656  0.6788 -0.0015  0.2893
  141L47     H3  303   6.061   4.738   5.558  1.0048 -1.0741  0.5473
  141L47     H4  304   6.058   4.874   5.676 -3.6175 -1.2235 -0.6703
  141L47     C3  305   6.044   4.669   5.763 -0.7689 -0.2237  0.0622
  141L47     H5  306   5.985   4.592   5.712  1.8370 -1.5963 -1.0790
  141L47     H6  307   5.980   4.717   5.838 -0.5586 -0.2706  0.2742
  141L47     C4  308   6.172   4.597   5.804  0.1376 -1.0332  0.1872
  141L47     C5  309   6.287   4.655   5.743 -0.6537 -0.4928  0.1897
  141L47     C6  310   6.414   4.608   5.769  0.0822  0.8757 -0.3530
  141L47     H7  311   6.504   4.651   5.726  0.8382  2.3660  2.4462
  141L47     C7  312   6.426   4.510   5.868 -0.1198  0.2384  0.2937
  141L47     H8  313   6.529   4.481   5.886  1.0095  1.7629 -2.9368
  141L47     C8  314   6.317   4.463   5.938  0.2081  0.2782  0.2140
  141L47     C9  315   6.186   4.499   5.903  0.0582 -0.2394 -0.0925
  141L47     H9  316   6.102   4.451   5.951 -0.2119  0.1674 -0.1510
  141L47      S  317   6.348   4.333   6.064 -0.0540 -0.0559 -0.0085
  141L47     O1  318   6.241   4.362   6.161 -0.0903  0.5573  0.2722
  141L47     O2  319   6.488   4.336   6.093 -0.2441 -0.0822 -0.1384
  141L47     N1  320   6.322   4.186   5.994  0.4081  0.1159  0.3213
  141L47    C10  321   6.349   4.066   6.079 -0.0526 -0.2542  0.3558
  141L47    H10  322   6.360   4.096   6.184 -0.7533  1.8201 -0.1181
  141L47    H11  323   6.454   4.041   6.060  0.0735  1.3026 -1.2354
  141L47    C11  324   6.243   3.951   6.060 -0.3714 -0.1088  0.2763
  141L47    H12  325   6.141   3.978   6.089 -1.2047 -1.8564 -0.8522
  141L47    H13  326   6.270   3.871   6.131  2.6050 -0.4083 -1.0345
  141L47    C12  327   6.247   3.878   5.922  1.3775  0.4996  0.2553
  141L47    H14  328   6.167   3.807   5.903  0.1413  1.6623  0.9715
  141L47    H15  329   6.340   3.820   5.919  0.9984 -0.1671  1.0391
  141L47     N2  330   6.233   3.973   5.815 -0.6540 -0.1976  0.4497
  141L47    H16  331   6.222   3.919   5.728  2.1834  0.8385 -0.6684
  141L47    H17  332   6.148   4.032   5.811 -1.4955 -1.4379 -0.9895
  141L47    C13  333   6.365   4.047   5.789 -0.1410  0.7280 -0.8608
  141L47    H18  334   6.382   4.056   5.681 -1.4448 -0.5346 -1.2005
  141L47    H19  335   6.441   3.974   5.817 -0.7707  1.3965  3.0623
  141L47    C14  336   6.382   4.180   5.858 -0.7494 -0.6340  0.0739
  141L47    H20  337   6.491   4.195   5.855 -0.8384 -0.0831 -1.8384
  141L47    H21  338   6.331   4.248   5.789 -0.1944 -1.5295 -1.2548
  142SOL     OW  339   4.698   6.157   4.163  0.3960 -0.0118 -0.3291
  142SOL    HW2  340   4.627   6.221   4.165  0.4566  0.0698 -0.7112
  142SOL    HW3  341   4.741   6.166   4.248 -0.6458 -0.7468  0.2928
  142SOL    MW4  342   4.694   6.167   4.174  0.0888  0.4117  0.8949
  143SOL     OW  343   2.060   1.660   1.255  0.1342 -0.6922 -0.2943
  143SOL    HW2  344   2.013   1.715   1.318 -3.0205 -0.1592 -2.8577
  143SOL    HW3  345   2.109   1.723   1.202  0.1355 -0.8024 -0.4229
  143SOL    MW4  346   2.061   1.676   1.256  0.1750  0.1753 -0.1371
  144SOL     OW  347   3.484   5.331   3.474 -0.0960  0.7598 -0.3185
  144SOL    HW2  348   3.476   5.426   3.478 -1.9251  0.7041 -1.3152
  144SOL    HW3  349   3.484   5.311   3.380 -0.0342 -0.2345 -0.1198
  144SOL    MW4  350   3.483   5.341   3.462  0.0912  0.3126  0.2494
  145SOL     OW  351   3.124   5.366   2.522  0.6392  0.7736 -0.0468
  145SOL    HW2  352   3.051   5.325   2.568  0.0035 -0.6771 -2.1914
  145SOL    HW3  353   3.197   5.361   2.584  0.4500 -3.2101  0.1065
  145SOL    MW4  354   3.124   5.360   2.536  0.2865 -0.4364 -0.6428
  146SOL     OW  355   0.622   3.352   5.507  0.1254  0.2775  0.3189
  146SOL    HW2  356   0.666   3.437   5.507 -0.5415  0.6244  0.4498
  146SOL    HW3  357   0.659   3.306   5.432  1.1615  0.3277  0.7831
  146SOL    MW4  358   0.633   3.357   5.497  0.2148 -0.1899  0.2466
  147SOL     OW  359   3.673   1.037   3.858  0.0488  0.4790  0.3948
  147SOL    HW2  360   3.666   1.120   3.905 -0.8461 -0.4341  1.9831
  147SOL    HW3  361   3.761   1.037   3.822 -0.0975  2.3084 -0.0752
  147SOL    MW4  362   3.683   1.048   3.859  0.3849  0.0559  0.4980
  148SOL     OW  363   6.284   2.183   1.323  0.2288 -0.1299 -0.0470
  148SOL    HW2  364   6.295   2.093   1.291 -3.1372  0.0996 -2.4860
  148SOL    HW3  365   6.320   2.238   1.253 -1.3215  0.3475 -0.5330
  148SOL    MW4  366   6.290   2.178   1.309 -0.2930  0.0890 -1.0590
  149SOL     OW  367   5.003   3.773   2.014  0.0309  0.3981  0.7571
  149SOL    HW2  368   4.919   3.761   1.970  0.2722  0.0291  0.3890
  149SOL    HW3  369   5.052   3.832   1.956  0.5522 -0.5216  0.2370
  149SOL    MW4  370   4.998   3.780   2.000 -0.0951  0.1839 -0.1673
  150SOL     OW  371   2.817   4.454   3.857 -0.7088  0.2424 -0.0661
  150SOL    HW2  372   2.902   4.411   3.864 -0.8511  0.1093  0.9675
  150SOL    HW3  373   2.771   4.406   3.788 -0.1325  0.0007 -0.2838
  150SOL    MW4  374   2.822   4.442   3.849  0.1513 -0.1732 -0.0955
  151SOL     OW  375   4.299   0.448   4.464  0.2130 -0.0020 -0.2858
  151SOL    HW2  376   4.333   0.381   4.404  0.5282 -0.1098  0.0075
  151SOL    HW3  377   4.350   0.526   4.445  0.1410  0.0338 -0.3311
  151SOL    MW4  378   4.310   0.449   4.453  0.6084 -0.6126 -0.5218
  152SOL     OW  379   2.806   0.296   0.654  0.5525 -0.0116 -0.2929
  152SOL    HW2  380   2.781   0.343   0.574 -1.2908 -0.6840 -0.1559
  152SOL    HW3  381   2.875   0.236   0.626 -0.0882 -0.2555 -1.4144
  152SOL    MW4  382   2.812   0.294   0.640  0.3747 -0.4576 -0.3876
  153SOL     OW  383   3.038   0.932   5.617  0.2215 -0.3936 -0.5111
  153SOL    HW2  384   3.098   0.891   5.678 -1.0441 -0.5548  0.6771
  153SOL    HW3  385   3.051   1.026   5.630  1.4504 -0.3958 -1.5478
  153SOL    MW4  386   3.048   0.939   5.626  0.1250 -0.6142  0.4806
  154SOL     OW  387   0.206   5.525   5.225  0.9385 -0.6312  0.0826
  154SOL    HW2  388   0.177   5.563   5.142 -0.4257 -3.8641 -1.0822
  154SOL    HW3  389   0.151   5.567   5.292  0.5136  0.4416 -0.9205
  154SOL    MW4  390   0.195   5.536   5.223 -0.4217 -0.1861  0.1322
  155SOL     OW  391   1.827   0.531   1.574  0.2421 -0.1993  0.5225
  155SOL    HW2  392   1.747   0.499   1.616  0.4287 -0.4830  0.6694
  155SOL    HW3  393   1.881   0.561   1.647 -0.1496  0.9700  0.3440
  155SOL    MW4  394   1.823   0.530   1.589 -0.3492 -0.6968 -0.7695
  156SOL     OW  395   4.255   3.855   5.014 -0.1485  0.5521 -0.5791
  156SOL    HW2  396   4.290   3.817   5.094 -0.3069  1.6157  0.0098
  156SOL    HW3  397   4.326   3.848   4.951  0.2283  0.3743 -0.1373
  156SOL    MW4  398   4.269   3.849   5.016 -0.2844  0.8849 -0.5447
  157SOL     OW  399   2.497   6.051   0.726 -0.2007 -0.6085 -0.5853
  157SOL    HW2  400   2.506   6.146   0.727 -1.2185 -0.5040 -0.0913
  157SOL    HW3  401   2.459   6.031   0.641 -0.6491 -0.5004 -0.4121
  157SOL    MW4  402   2.493   6.061   0.715  0.6199  0.0531  0.1719
  158SOL     OW  403   5.586   4.334   1.917 -0.8338 -0.1062 -0.3217
  158SOL    HW2  404   5.666   4.369   1.957  0.2938 -2.5595 -0.2412
  158SOL    HW3  405   5.592   4.357   1.825 -1.0055  1.3348  0.0031
  158SOL    MW4  406   5.597   4.341   1.910 -0.3192  0.1664 -0.0036
  159SOL     OW  407   2.876   0.439   0.872 -0.2706 -0.5136  0.3138
  159SOL    HW2  408   2.955   0.489   0.853  0.7530 -1.7201  1.2214
  159SOL    HW3  409   2.849   0.403   0.787  0.6547 -0.7948  0.1350
  159SOL    MW4  410   2.883   0.441   0.858 -0.7765 -0.0620  0.4274
  160SOL     OW  411   3.390   5.142   5.448 -0.0173  0.0210 -0.4687
  160SOL    HW2  412   3.403   5.236   5.438  1.0096  0.0207  0.6313
  160SOL    HW3  413   3.349   5.133   5.535  0.7463 -0.5981 -0.1616
  160SOL    MW4  414   3.386   5.153   5.458  0.0297 -0.0459 -0.0403
  161SOL     OW  415   2.463   1.897   5.655 -0.5989  0.2278 -0.2309
  161SOL    HW2  416   2.461   1.848   5.737 -1.0337  0.8249  0.1261
  161SOL    HW3  417   2.401   1.969   5.668  0.0141  0.8728 -0.7372
  161SOL    MW4  418   2.454   1.900   5.667 -0.2258  0.0192  0.6315
  162SOL     OW  419   1.599   0.374   2.054 -0.3228  0.3637  0.2737
  162SOL    HW2  420   1.558   0.292   2.025  1.7732  0.0154 -2.0668
  162SOL    HW3  421   1.541   0.443   2.021 -1.5916 -0.1235  1.4065
  162SOL    MW4  422   1.586   0.372   2.046 -0.0377 -0.6543  0.8951
  163SOL     OW  423   4.417   0.754   3.123  0.4747  0.8159 -0.2655
  163SOL    HW2  424   4.387   0.766   3.213  1.6235  0.7398  0.1446
  163SOL    HW3  425   4.512   0.756   3.129  0.5890  2.4180 -1.6923
  163SOL    MW4  426   4.425   0.756   3.135  0.2197  0.6013  0.0538
  164SOL     OW  427   3.700   4.571   4.894  0.2771 -0.4242 -0.1870
  164SOL    HW2  428   3.679   4.482   4.924  0.7132 -0.5710 -0.2982
  164SOL    HW3  429   3.618   4.618   4.899 -0.3617 -1.2914 -1.7545
  164SOL    MW4  430   3.686   4.565   4.898  0.5987 -0.5053  0.1841
  165SOL     OW  431   4.017   0.062   6.012 -0.0788 -0.1490  0.2599
  165SOL    HW2  432   4.088  -0.002   6.022 -0.0998 -0.2205 -0.0343
  165SOL    HW3  433   3.971   0.034   5.932  1.2681  1.5290 -1.1969
  165SOL    MW4  434   4.021   0.050   6.002  0.3905  0.3433 -0.4215
  166SOL     OW  435   0.975   2.965   1.290  0.4736  0.2463  0.8497
  166SOL    HW2  436   1.063   2.948   1.324  0.7277 -1.5463 -0.5333
  166SOL    HW3  437   0.980   2.938   1.198 -1.4674  0.3079  0.6909
  166SOL    MW4  438   0.987   2.959   1.282 -0.2735  0.3329 -0.2051
  167SOL     OW  439   6.031   2.819   5.666 -0.2129 -0.7384  0.1194
  167SOL    HW2  440   6.085   2.890   5.699  0.5870 -0.7828 -1.0193
  167SOL    HW3  441   6.065   2.741   5.709 -0.4050 -0.5743  0.5773
  167SOL    MW4  442   6.043   2.818   5.676 -0.3850 -0.0249  0.2048
  168SOL     OW  443   2.881   5.253   5.832 -0.4752  0.3133 -0.1450
  168SOL    HW2  444   2.976   5.260   5.840 -0.3549  0.0460 -1.2514
  168SOL    HW3  445   2.847   5.311   5.900  0.4736  0.4443  0.2355
  168SOL    MW4  446   2.889   5.261   5.842  0.0727  0.2372 -0.6083
  169SOL     OW  447   3.081   5.857   5.039  0.0714 -0.2026 -0.6193
  169SOL    HW2  448   3.176   5.853   5.026  0.3545 -0.2186  1.1916
  169SOL    HW3  449   3.063   5.950   5.052 -0.4538  0.0239 -2.6032
  169SOL    MW4  450   3.091   5.869   5.039  0.3317 -0.5304  0.4293
  170SOL     OW  451   3.352   3.354   1.290 -0.1538  0.4726 -0.1610
  170SOL    HW2  452   3.416   3.424   1.278  0.0136  0.2745 -0.4339
  170SOL    HW3  453   3.319   3.366   1.379  1.5069 -0.4511  0.6310
  170SOL    MW4  454   3.356   3.365   1.300 -0.2238  0.7421 -0.8802
  171SOL     OW  455   6.247   2.372   0.804 -0.4545  0.6522  0.4057
  171SOL    HW2  456   6.187   2.346   0.874 -1.3662  2.0035  0.1513
  171SOL    HW3  457   6.191   2.407   0.735  0.5378  0.6878 -0.4058
  171SOL    MW4  458   6.232   2.373   0.804 -0.6056 -0.2510 -0.0189
  172SOL     OW  459   1.277   1.538   5.406 -0.6553 -0.3600  0.0083
  172SOL    HW2  460   1.186   1.514   5.422 -1.1037  0.6661 -0.8578
  172SOL    HW3  461   1.323   1.454   5.402 -1.4101 -0.8620  1.2142
  172SOL    MW4  462   1.271   1.524   5.408  0.3305  0.5096  0.1222
  173SOL     OW  463   6.206   6.074   3.899 -0.3685 -0.1291 -0.2538
  173SOL    HW2  464   6.251   6.157   3.913 -1.3287  0.2787  0.6037
  173SOL    HW3  465   6.274   6.007   3.910  0.4591  0.5459 -1.1739
  173SOL    MW4  466   6.221   6.076   3.903 -0.4039 -0.1798  0.2456
  174SOL     OW  467   0.008   2.680   3.027  0.0576  0.3876 -0.1335
  174SOL    HW2  468  -0.014   2.617   2.958  2.6260 -1.6427  0.7535
  174SOL    HW3  469  -0.067   2.677   3.087 -0.5582 -0.6204 -0.9247
  174SOL    MW4  470  -0.005   2.671   3.026  0.3550  0.1185  0.2336
  175SOL     OW  471   3.565   4.157   4.220  0.0728  0.6683 -0.4266
  175SOL    HW2  472   3.642   4.165   4.277 -1.8900  1.3368  2.3680
  175SOL    HW3  473   3.583   4.217   4.148  2.0544  0.9977  0.2665
  175SOL    MW4  474   3.578   4.166   4.218 -0.6630 -0.5141  0.1438
  176SOL     OW  475   6.412   3.226   6.120 -0.3145  0.2617  0.0628
  176SOL    HW2  476   6.391   3.136   6.143  0.7897 -0.3161 -1.0609
  176SOL    HW3  477   6.507   3.225   6.107 -0.4301  1.3420 -1.0010
  176SOL    MW4  478   6.422   3.214   6.122 -0.4972  0.2505 -1.0593
  177SOL     OW  479   4.715   1.632   4.533 -0.2565  0.0217 -0.2222
  177SOL    HW2  480   4.686   1.685   4.458 -0.4427 -1.6045 -1.3482
  177SOL    HW3  481   4.740   1.548   4.495  0.8916 -0.4268  1.4024
  177SOL    MW4  482   4.714   1.628   4.518  0.1318  0.1299 -0.7375
  178SOL     OW  483   2.903   2.510   3.071  0.3872 -0.3280  0.4628
  178SOL    HW2  484   2.919   2.465   3.153  0.0927 -2.2177 -0.4678
  178SOL    HW3  485   2.838   2.577   3.093 -0.0741 -1.1380  1.6721
  178SOL    MW4  486   2.896   2.513   3.084 -0.3960  0.2990 -0.1524
  179SOL     OW  487   2.183   2.931   1.678 -0.0606  0.5484  0.6080
  179SOL    HW2  488   2.132   2.850   1.688 -0.1807  0.6063  0.4764
  179SOL    HW3  489   2.270   2.909   1.709  0.3730 -0.1279 -0.9836
  179SOL    MW4  490   2.187   2.917   1.683 -0.4867  0.2780 -0.4542
  180SOL     OW  491   5.764   0.236   3.114  0.1420  0.7239  0.3343
  180SOL    HW2  492   5.814   0.155   3.109 -0.6069  0.3080 -0.8996
  180SOL    HW3  493   5.720   0.242   3.029  1.9553  3.5694 -0.5807
  180SOL    MW4  494   5.765   0.226   3.102 -0.2441 -0.8615  0.2479
  181SOL     OW  495   4.884   3.813   0.977  0.0246 -0.7446 -1.2489
  181SOL    HW2  496   4.807   3.842   1.027  0.2681  0.1916 -1.3942
  181SOL    HW3  497   4.895   3.880   0.909  2.0290  0.1853 -0.1367
  181SOL    MW4  498   4.875   3.826   0.975  0.0380  0.2690 -0.1089
  182SOL     OW  499   3.315   3.101   5.901 -0.1744  0.0533  0.0573
  182SOL    HW2  500   3.396   3.071   5.943 -2.2545 -1.9164  3.0680
  182SOL    HW3  501   3.304   3.044   5.825  1.4840  0.7946 -0.8079
  182SOL    MW4  502   3.325   3.090   5.896  0.4449 -0.6510  0.0782
  183SOL     OW  503   2.970   4.956   5.587  0.5871  0.3966  0.2435
  183SOL    HW2  504   2.879   4.947   5.616  1.0618 -3.9194  1.0482
  183SOL    HW3  505   3.022   4.934   5.664  2.2541  0.4923 -0.8155
  183SOL    MW4  506   2.965   4.952   5.601 -0.7240 -0.1918 -0.1631
  184SOL     OW  507   0.853   2.253   5.658 -0.1011 -0.3635 -0.1494
  184SOL    HW2  508   0.805   2.174   5.682  0.3241 -0.9265 -1.1236
  184SOL    HW3  509   0.931   2.252   5.714 -0.2121 -0.5017  0.0049
  184SOL    MW4  510   0.857   2.243   5.669 -0.8070 -0.2199 -0.2931
  185SOL     OW  511   4.555   4.823   4.577  0.5628 -0.0775  0.1977
  185SOL    HW2  512   4.615   4.863   4.640  0.6993 -0.8522  0.5716
  185SOL    HW3  513   4.472   4.815   4.625  0.4037  0.1994 -0.0320
  185SOL    MW4  514   4.552   4.827   4.592 -0.7279 -0.1632 -0.0716
  186SOL     OW  515   1.680   2.354   1.210 -0.0545 -0.3046  1.1694
  186SOL    HW2  516   1.620   2.312   1.271 -0.5325  1.3600  1.9089
  186SOL    HW3  517   1.753   2.384   1.264  0.9336 -1.3504  0.4488
  186SOL    MW4  518   1.682   2.353   1.225  0.2330 -0.1247  0.1864
  187SOL     OW  519   4.476   6.100   4.779  0.3402 -0.5894  0.0829
  187SOL    HW2  520   4.486   6.194   4.768 -0.6589 -0.5911 -1.0325
  187SOL    HW3  521   4.403   6.091   4.840  1.0758 -0.6530  0.9783
  187SOL    MW4  522   4.467   6.111   4.785 -0.1720 -0.0973 -0.1595
  188SOL     OW  523   2.237   6.272   6.231 -0.0890 -0.2336 -0.2774
  188SOL    HW2  524   2.306   6.260   6.166 -0.1296  0.2255 -0.4086
  188SOL    HW3  525   2.277   6.327   6.299 -0.0747 -0.6376  0.0427
  188SOL    MW4  526   2.251   6.278   6.231  0.0778 -0.4156  0.3682
  189SOL     OW  527   6.324   3.603   6.079 -0.2870  0.1372 -0.1522
  189SOL    HW2  528   6.400   3.554   6.112 -0.0220  1.1295  0.7726
  189SOL    HW3  529   6.249   3.545   6.098  0.2777 -1.2177 -1.8377
  189SOL    MW4  530   6.324   3.589   6.086  0.0689  0.3163  0.0910
  190SOL     OW  531   2.462   6.049   0.427  0.0985 -0.6317 -0.0049
  190SOL    HW2  532   2.378   6.008   0.407  0.3897  0.1695 -3.4454
  190SOL    HW3  533   2.526   5.980   0.413  0.2028 -0.5396  0.0166
  190SOL    MW4  534   2.459   6.035   0.423  0.7667  0.8707  0.0299
  191SOL     OW  535   0.645   3.812   1.450 -0.1680 -0.6790  0.2031
  191SOL    HW2  536   0.688   3.816   1.365 -0.0093 -1.4558  0.2399
  191SOL    HW3  537   0.715   3.791   1.512  0.4433  3.2505  1.1236
  191SOL    MW4  538   0.660   3.810   1.447 -0.4065 -0.3343 -0.4720
  192SOL     OW  539   2.462   0.155   6.238  0.5735 -0.1630 -0.0123
  192SOL    HW2  540   2.516   0.076   6.239  1.7660  0.6007 -0.9166
  192SOL    HW3  541   2.477   0.196   6.323 -0.0032 -0.8747  0.4362
  192SOL    MW4  542   2.471   0.150   6.249 -0.3528 -0.6398 -0.0409
  193SOL     OW  543   2.380   1.498   1.131  0.7194  0.2641 -0.1414
  193SOL    HW2  544   2.474   1.505   1.149  0.5044 -0.2775  1.3846
  193SOL    HW3  545   2.339   1.564   1.187  0.1548  0.1450 -0.4001
  193SOL    MW4  546   2.387   1.507   1.141  0.0229 -0.2456  0.3910
  194SOL     OW  547   1.043   1.976   0.382 -0.1766  0.0833  0.4085
  194SOL    HW2  548   1.136   1.955   0.392 -0.1048  0.4684  0.5782
  194SOL    HW3  549   1.036   2.012   0.294 -0.7426 -2.9574 -0.9013
  194SOL    MW4  550   1.054   1.978   0.372 -0.0381 -0.4724 -0.3939
  195SOL     OW  551   3.020   5.548   3.092 -0.5963 -0.2144 -0.3356
  195SOL    HW2  552   3.004   5.639   3.067  2.1886 -0.1191 -2.2273
  195SOL    HW3  553   3.098   5.551   3.147 -0.2687 -1.4734 -0.7024
  195SOL    MW4  554   3.028   5.561   3.096  0.3578  0.3700  0.7127
  196SOL     OW  555   0.439   0.400   3.694 -0.1364 -0.0017 -0.0644
  196SOL    HW2  556   0.461   0.327   3.636 -1.7225 -0.0983 -0.6013
  196SOL    HW3  557   0.419   0.472   3.634 -0.5599  0.2736  0.4080
  196SOL    MW4  558   0.439   0.400   3.678 -0.7960 -0.6316 -0.3668
  197SOL     OW  559   2.395   1.469   2.796  0.4846  0.1901 -0.0402
  197SOL    HW2  560   2.330   1.503   2.858  1.2309  1.8883 -0.1136
  197SOL    HW3  561   2.344   1.436   2.723 -0.3275  1.4219 -0.0592
  197SOL    MW4  562   2.380   1.469   2.795 -0.7680 -0.6245  0.3037
  198SOL     OW  563   4.522   5.880   0.853  0.0555  0.0810  0.9253
  198SOL    HW2  564   4.462   5.812   0.823  0.3102 -0.4900  1.6927
  198SOL    HW3  565   4.554   5.920   0.772 -0.5973 -0.2734  0.4838
  198SOL    MW4  566   4.518   5.876   0.838  0.9640  0.5084 -0.3718
  199SOL     OW  567   1.251   1.555   4.099  0.6006 -0.0148  0.2948
  199SOL    HW2  568   1.183   1.623   4.102  0.9583  0.5026 -1.7456
  199SOL    HW3  569   1.220   1.494   4.032  1.8827 -0.0300 -0.3070
  199SOL    MW4  570   1.238   1.556   4.091 -0.5046  0.3602  0.2335
  200SOL     OW  571   2.304   2.330   3.505 -0.0633  0.3498  0.2286
  200SOL    HW2  572   2.272   2.400   3.448 -0.6388 -2.5057 -3.3715
  200SOL    HW3  573   2.225   2.288   3.538  0.2063 -0.2148  0.1632
  200SOL    MW4  574   2.290   2.334   3.502 -0.2503  0.7042 -0.3055
  201SOL     OW  575   2.857   3.813   0.825 -0.1642  0.4716  0.3544
  201SOL    HW2  576   2.888   3.828   0.915 -0.5620 -0.1565  0.6008
  201SOL    HW3  577   2.863   3.899   0.783  2.5480  0.2839  0.1777
  201SOL    MW4  578   2.862   3.827   0.831  0.1994  0.1915  0.1750
  202SOL     OW  579   4.959   5.108   5.448 -0.4562  0.1350 -0.5043
  202SOL    HW2  580   4.995   5.195   5.467 -0.8685 -0.0810  1.4730
  202SOL    HW3  581   4.878   5.104   5.499  0.3101 -1.9539  0.6874
  202SOL    MW4  582   4.953   5.119   5.457  0.1156 -0.0566  0.1632
  203SOL     OW  583   4.848   1.309   5.554  0.1644 -0.4284  0.4867
  203SOL    HW2  584   4.781   1.363   5.511  0.0337 -1.3600 -0.5521
  203SOL    HW3  585   4.845   1.335   5.646 -3.3203 -1.9946  1.0092
  203SOL    MW4  586   4.839   1.319   5.560  0.0125  0.5980  0.2583
  204SOL     OW  587   0.340   1.636   3.699 -0.4643  0.4789  0.1088
  204SOL    HW2  588   0.309   1.650   3.610 -0.4729 -2.9187 -0.5594
  204SOL    HW3  589   0.431   1.607   3.688 -0.6877 -0.6881  1.0847
  204SOL    MW4  590   0.348   1.634   3.686  0.2798  0.0723 -0.4098
  205SOL     OW  591   1.176   5.803   6.415  0.1981  0.3734  0.4675
  205SOL    HW2  592   1.223   5.876   6.374 -1.0186  1.3119  0.7112
  205SOL    HW3  593   1.196   5.811   6.508  0.1421  0.3383  0.4824
  205SOL    MW4  594   1.185   5.814   6.422 -0.3253  0.2419  0.2459
  206SOL     OW  595   0.212   0.255   0.213  0.0201  0.4623  0.2693
  206SOL    HW2  596   0.263   0.214   0.143  1.1497  1.4412  0.4972
  206SOL    HW3  597   0.220   0.195   0.287  0.1011  0.1786  0.0325
  206SOL    MW4  598   0.220   0.241   0.214 -0.6553 -0.1188 -0.0669
  207SOL     OW  599   6.304   5.379   4.117 -0.2556  0.4481 -0.3454
  207SOL    HW2  600   6.310   5.475   4.117 -1.3433  0.5512 -1.8137
  207SOL    HW3  601   6.233   5.360   4.177  0.9814  0.4353  1.1721
  207SOL    MW4  602   6.296   5.389   4.125  0.2477  0.1691 -0.0958
  208SOL     OW  603   1.244   2.268   4.788 -0.0927  0.1186 -0.1516
  208SOL    HW2  604   1.186   2.336   4.821 -1.5295 -1.0522 -0.1841
  208SOL    HW3  605   1.265   2.214   4.864  1.0802  0.5903 -0.1151
  208SOL    MW4  606   1.239   2.269   4.802 -0.0960 -0.0714  0.4446
  209SOL     OW  607   2.463   2.871   2.082 -0.0939  0.4096 -0.2345
  209SOL    HW2  608   2.464   2.789   2.130 -1.3264 -0.2389 -1.2626
  209SOL    HW3  609   2.378   2.910   2.103  1.1772  2.3684  1.7068
  209SOL    MW4  610   2.452   2.866   2.091  0.1003  0.1188  0.3622
  210SOL     OW  611   5.939   2.643   0.997  0.2521  0.0666 -0.8127
  210SOL    HW2  612   5.896   2.642   0.912  0.0501  0.3878 -0.7211
  210SOL    HW3  613   5.886   2.704   1.049  1.1629  0.9441 -0.8784
  210SOL    MW4  614   5.926   2.651   0.993  0.2056 -0.4137 -0.6773
  211SOL     OW  615   5.866   2.391   6.197  0.3025  0.5348 -0.3928
  211SOL    HW2  616   5.869   2.297   6.212  0.5839  0.1327 -2.6308
  211SOL    HW3  617   5.815   2.401   6.116  0.8789  2.2274 -0.5931
  211SOL    MW4  618   5.860   2.380   6.188 -0.6010  0.5426 -0.3622
  212SOL     OW  619   3.906   2.802   2.043  0.1469 -0.2628 -0.1456
  212SOL    HW2  620   3.828   2.810   2.097 -0.1379 -1.5688 -0.3300
  212SOL    HW3  621   3.874   2.770   1.958  0.8615 -0.7728 -0.2359
  212SOL    MW4  622   3.891   2.799   2.039 -0.2093 -0.6193  0.2450
  213SOL     OW  623   2.974   5.280   2.885  0.5431 -0.2655  0.4531
  213SOL    HW2  624   2.942   5.269   2.795  1.9999 -1.8881  0.0864
  213SOL    HW3  625   2.938   5.365   2.913 -0.1679  0.1502 -1.5471
  213SOL    MW4  626   2.965   5.290   2.877 -0.2722 -0.1925 -0.7086
  214SOL     OW  627   6.221   1.930   2.607  0.2838  0.4093 -0.3449
  214SOL    HW2  628   6.203   1.979   2.688 -0.8942 -0.9972  0.3051
  214SOL    HW3  629   6.249   1.996   2.544 -0.6603  1.8269  0.6604
  214SOL    MW4  630   6.222   1.945   2.610 -0.4555  0.2851 -0.1281
  215SOL     OW  631   3.968   3.830   4.972 -0.4915 -0.0249  0.2052
  215SOL    HW2  632   3.974   3.752   4.916  1.5515 -0.0046  0.3197
  215SOL    HW3  633   4.058   3.863   4.977 -1.2125  2.0175  0.6471
  215SOL    MW4  634   3.981   3.824   4.966 -0.1696 -0.4920 -0.0478
  216SOL     OW  635   0.102   6.352   5.065  1.0569 -0.3165  0.1383
  216SOL    HW2  636   0.064   6.267   5.088 -0.7684  0.3559 -0.2371
  216SOL    HW3  637   0.092   6.358   4.970 -1.5388  1.4530  0.4123
  216SOL    MW4  638   0.095   6.341   5.056 -0.2957 -0.2834 -0.3059
  217SOL     OW  639   4.237   0.019   5.171  0.5422  0.0393 -0.0919
  217SOL    HW2  640   4.330   0.013   5.148  0.3097 -3.6071 -0.7701
  217SOL    HW3  641   4.191  -0.017   5.095 -1.1467 -1.1096  1.3741
  217SOL    MW4  642   4.243   0.013   5.158  0.8051 -0.1274  0.6988
  218SOL     OW  643   0.829   4.055   0.511  0.6218 -0.5017  0.1486
  218SOL    HW2  644   0.751   4.109   0.499 -0.3931 -1.9570 -0.0305
  218SOL    HW3  645   0.897   4.099   0.459 -0.4238  0.0692 -0.7723
  218SOL    MW4  646   0.828   4.068   0.503  0.2542 -0.3472  0.0331
  219SOL     OW  647   2.693   2.942   5.383  0.6947  0.1293 -0.0853
  219SOL    HW2  648   2.762   2.903   5.329 -1.5993 -0.0121 -3.1649
  219SOL    HW3  649   2.625   2.876   5.387 -1.0912  1.8117 -0.9924
  219SOL    MW4  650   2.693   2.928   5.376 -0.0054  0.1634  0.4094
  220SOL     OW  651   4.983   5.524   4.864  0.3075 -0.5606  0.0462
  220SOL    HW2  652   4.920   5.562   4.925  0.5311  0.3607 -0.2917
  220SOL    HW3  653   5.065   5.568   4.883  0.3877 -0.2735 -0.8950
  220SOL    MW4  654   4.985   5.535   4.874  0.0038 -0.3424 -0.1568
  221SOL     OW  655   0.980   1.709   0.501  0.0871 -0.2875 -0.3885
  221SOL    HW2  656   0.988   1.797   0.462 -0.7506  0.3807  0.8916
  221SOL    HW3  657   0.996   1.649   0.428 -0.8053  0.9239 -1.6253
  221SOL    MW4  658   0.984   1.713   0.486 -0.4882  0.8394  0.3289
  222SOL     OW  659   3.373   3.809   3.271  0.2231  0.0839 -0.0457
  222SOL    HW2  660   3.410   3.729   3.308 -2.0029 -1.3698 -0.7742
  222SOL    HW3  661   3.322   3.780   3.195  0.1846  2.3300 -0.9769
  222SOL    MW4  662   3.371   3.795   3.266  0.8152  0.4487 -0.1132
  223SOL     OW  663   2.660   0.914   3.101 -0.2506  0.6647 -0.3794
  223SOL    HW2  664   2.611   0.855   3.158  1.1284  1.7301  2.0400
  223SOL    HW3  665   2.593   0.957   3.048 -1.4769 -1.2489 -0.4741
  223SOL    MW4  666   2.645   0.912   3.101 -0.0237  0.4147 -0.2613
  224SOL     OW  667   5.846   2.641   5.200  0.4162  0.2344  0.3369
  224SOL    HW2  668   5.838   2.662   5.293  2.0005  0.9411  0.3393
  224SOL    HW3  669   5.935   2.667   5.177 -0.1151  0.5489 -1.5098
  224SOL    MW4  670   5.857   2.647   5.209 -0.3866 -0.1786 -0.2962
  225SOL     OW  671   3.864   2.681   2.324  0.6375  0.4281  0.1243
  225SOL    HW2  672   3.799   2.746   2.297  1.2500  1.4057  0.9409
  225SOL    HW3  673   3.921   2.671   2.249  0.3656  0.6146 -0.1088
  225SOL    MW4  674   3.863   2.688   2.311  0.1634 -0.5730 -0.3674
  226SOL     OW  675   1.435   1.447   1.009 -0.1821 -0.3601  0.3017
  226SOL    HW2  676   1.448   1.400   0.927 -0.1011  0.8989 -0.4269
  226SOL    HW3  677   1.406   1.379   1.071 -2.2281 -1.0249 -1.2595
  226SOL    MW4  678   1.433   1.432   1.006 -0.0325 -0.3672 -0.0624
  227SOL     OW  679   3.229   1.742   1.987 -0.3504  1.3063  0.3070
  227SOL    HW2  680   3.315   1.743   1.946  0.3219 -1.7800  1.3481
  227SOL    HW3  681   3.177   1.685   1.930 -0.8339  0.8729  1.1702
  227SOL    MW4  682   3.233   1.735   1.974  0.5717  0.0421  0.3108
  228SOL     OW  683   0.032   2.892   0.892 -0.0925  0.2849 -0.4699
  228SOL    HW2  684   0.114   2.882   0.941 -1.1550  2.1681  1.9204
  228SOL    HW3  685  -0.025   2.824   0.929 -0.4170  0.7232 -0.1460
  228SOL    MW4  686   0.035   2.881   0.904  0.5428  0.1159 -0.2035
  229SOL     OW  687   3.857   2.275   2.934 -0.2137  0.1136  0.5590
  229SOL    HW2  688   3.850   2.311   3.022 -2.0304  1.5910 -0.1365
  229SOL    HW3  689   3.778   2.304   2.890  1.0265  0.0882 -1.8228
  229SOL    MW4  690   3.846   2.283   2.940 -0.4945  0.0434  0.2485
  230SOL     OW  691   2.584   0.804   1.011 -0.7118  0.2337  0.0741
  230SOL    HW2  692   2.501   0.820   0.966 -0.8638 -1.5494 -0.3511
  230SOL    HW3  693   2.559   0.764   1.094 -0.2964 -0.5826 -0.1794
  230SOL    MW4  694   2.570   0.801   1.016  0.4281  0.3433  0.1879
  231SOL     OW  695   1.043   4.848   0.813  0.6309 -0.1449 -0.0200
  231SOL    HW2  696   0.973   4.906   0.843  1.4951  1.3349 -0.7331
  231SOL    HW3  697   1.054   4.870   0.720  1.3210 -1.1046 -0.1823
  231SOL    MW4  698   1.036   4.858   0.805 -0.3260  0.3308 -0.2378
  232SOL     OW  699   1.805   1.709   4.297  0.3118  0.4487  0.1271
  232SOL    HW2  700   1.722   1.748   4.324 -0.2119 -0.6028  0.0773
  232SOL    HW3  701   1.868   1.737   4.364  0.0785  1.7828 -0.1810
  232SOL    MW4  702   1.803   1.717   4.310 -0.2192 -0.1235  0.0348
  233SOL     OW  703   1.353   3.301   1.473  0.3225  0.2855 -0.2485
  233SOL    HW2  704   1.429   3.353   1.498  0.0439  0.9026 -0.6517
  233SOL    HW3  705   1.339   3.243   1.547  1.1229  0.2338 -0.1250
  233SOL    MW4  706   1.361   3.301   1.486 -0.1365 -0.1360  0.1678
  234SOL     OW  707   3.012   6.362   5.769  0.0815 -0.1669 -0.8035
  234SOL    HW2  708   3.097   6.321   5.754  0.5639  0.0656  1.0227
  234SOL    HW3  709   3.030   6.456   5.768 -0.2804 -0.0978 -1.0752
  234SOL    MW4  710   3.026   6.369   5.767  0.1443 -0.0066  0.6225
  235SOL     OW  711   5.055   0.945   4.733 -0.0815  0.2998 -0.4375
  235SOL    HW2  712   5.051   0.924   4.826 -3.7211 -1.4016 -0.8067
  235SOL    HW3  713   4.995   1.019   4.722 -0.2695  0.0119 -1.5119
  235SOL    MW4  714   5.047   0.952   4.744  0.0349 -0.0905  0.6979
  236SOL     OW  715   2.892   3.188   4.959  0.5380  0.1349  0.2488
  236SOL    HW2  716   2.879   3.093   4.965  1.3598  0.0673  1.3447
  236SOL    HW3  717   2.914   3.203   4.867 -0.0094 -0.6837 -0.0246
  236SOL    MW4  718   2.893   3.177   4.948  0.0115 -0.0944  0.1785
  237SOL     OW  719   6.166   1.115   1.867 -0.1661  0.0027  0.0450
  237SOL    HW2  720   6.260   1.133   1.853  0.4389 -2.0780  1.1022
  237SOL    HW3  721   6.137   1.073   1.786  0.3459 -1.1918  0.4644
  237SOL    MW4  722   6.175   1.112   1.855 -0.1919  0.2657 -0.0606
  238SOL     OW  723   6.043   0.665   1.247  0.0325  0.4560 -0.0080
  238SOL    HW2  724   6.019   0.733   1.310 -1.5091  0.5936 -0.6859
  238SOL    HW3  725   6.083   0.596   1.301  1.8994  1.9716  0.6483
  238SOL    MW4  726   6.045   0.665   1.263 -0.3889 -0.1506 -0.0841
  239SOL     OW  727   4.621   0.287   4.779  0.1404  0.6756 -0.1113
  239SOL    HW2  728   4.602   0.255   4.867  0.5322 -0.9229 -0.5799
  239SOL    HW3  729   4.537   0.286   4.734 -0.2928  2.6237  0.5369
  239SOL    MW4  730   4.608   0.283   4.785 -0.1670 -0.2459 -0.1493
  240SOL     OW  731   5.224   2.046   0.077  0.0722  0.2837 -0.1989
  240SOL    HW2  732   5.178   2.062  -0.005  2.3534 -0.5073 -1.7374
  240SOL    HW3  733   5.302   1.996   0.051  2.3971  2.4748  2.0389
  240SOL    MW4  734   5.228   2.041   0.063 -0.5948  0.3217 -0.1713
  241SOL     OW  735   4.482   4.485   5.746  0.0718 -0.0616 -0.1754
  241SOL    HW2  736   4.572   4.477   5.779  0.2532 -0.8793 -0.8223
  241SOL    HW3  737   4.471   4.410   5.688 -1.4279 -0.6450  0.7946
  241SOL    MW4  738   4.492   4.474   5.743 -0.1378  0.1450  0.1000
  242SOL     OW  739   0.752   3.750   3.948  0.0104 -0.1592  0.3374
  242SOL    HW2  740   0.760   3.832   3.997 -0.6158  0.3318 -0.3620
  242SOL    HW3  741   0.834   3.742   3.900  0.3311 -0.2741  0.8912
  242SOL    MW4  742   0.764   3.759   3.948  0.3436 -0.2035 -0.1060
  243SOL     OW  743   1.735   2.787   4.705  0.4492 -0.1914 -0.3116
  243SOL    HW2  744   1.704   2.853   4.643  0.3538 -0.7971 -0.9241
  243SOL    HW3  745   1.794   2.835   4.763 -2.4191  1.3045  1.6267
  243SOL    MW4  746   1.738   2.802   4.704 -0.4376 -0.0582  0.4728
  244SOL     OW  747   5.036   5.768   3.833  0.0197  0.2076 -1.0702
  244SOL    HW2  748   4.943   5.752   3.815 -0.1848  0.5971 -0.4186
  244SOL    HW3  749   5.057   5.845   3.781  0.3086 -0.5979 -2.1660
  244SOL    MW4  750   5.026   5.776   3.824  0.0949 -0.1492 -0.4231
  245SOL     OW  751   1.802   2.072   5.618  0.2495 -0.0600 -0.0607
  245SOL    HW2  752   1.867   2.006   5.641 -0.4526 -0.4714  0.8154
  245SOL    HW3  753   1.851   2.154   5.614  0.5804 -0.0833  2.2089
  245SOL    MW4  754   1.817   2.074   5.620 -0.2575 -0.3707  0.2629
  246SOL     OW  755   0.709   0.699   4.063 -0.3863  0.4447  0.2875
  246SOL    HW2  756   0.774   0.667   4.001 -0.5547  0.6356  0.0129
  246SOL    HW3  757   0.655   0.623   4.083 -0.3831  0.4027  0.1352
  246SOL    MW4  758   0.710   0.685   4.058  0.0405 -0.1667  0.1561
  247SOL     OW  759   1.258   4.732   5.359 -0.3983 -0.5198  0.1173
  247SOL    HW2  760   1.209   4.738   5.441 -0.7588 -0.0137 -0.1264
  247SOL    HW3  761   1.266   4.822   5.330 -0.8519 -0.7406 -0.7298
  247SOL    MW4  762   1.252   4.744   5.366 -0.5140  0.4461  0.2774
  248SOL     OW  763   3.186   6.424   4.047 -0.0282  0.0501 -0.5400
  248SOL    HW2  764   3.218   6.344   4.088 -1.5299  0.5929  1.8666
  248SOL    HW3  765   3.259   6.485   4.053  0.4931 -0.5537 -0.6531
  248SOL    MW4  766   3.200   6.422   4.053 -0.1471 -0.0266  0.4504
  249SOL     OW  767   5.999   4.972   3.806  0.1005  0.7304 -1.0860
  249SOL    HW2  768   6.001   5.005   3.896  0.9841  1.1975 -1.2587
  249SOL    HW3  769   5.924   4.913   3.803 -0.4609  1.3887 -0.2850
  249SOL    MW4  770   5.990   4.969   3.818  0.2857 -0.7843  0.1551
  250SOL     OW  771   5.143   0.711   3.960  0.1646  0.1099 -0.2465
  250SOL    HW2  772   5.153   0.700   4.054  0.8261 -0.3073 -0.3585
  250SOL    HW3  773   5.162   0.624   3.924  1.7072  0.6933 -0.8923
  250SOL    MW4  774   5.147   0.698   3.967 -0.1042  0.7834  0.0942
  251SOL     OW  775   0.696   4.776   1.443  0.8572  0.1583  0.6533
  251SOL    HW2  776   0.640   4.741   1.373  1.1726 -1.2701  1.0834
  251SOL    HW3  777   0.721   4.863   1.412  1.3849 -0.6260 -1.2556
  251SOL    MW4  778   0.692   4.783   1.430  0.2294 -0.0438 -0.6998
  252SOL     OW  779   1.088   2.941   0.098 -0.1707  0.0065 -0.1345
  252SOL    HW2  780   1.040   2.891   0.164 -2.1669 -0.2081 -1.6691
  252SOL    HW3  781   1.179   2.912   0.109 -0.7932 -1.7249  0.9847
  252SOL    MW4  782   1.094   2.931   0.109 -0.2586  0.2901  0.0283
  253SOL     OW  783   4.998   5.834   1.821  0.0390 -0.0344  0.6056
  253SOL    HW2  784   5.090   5.858   1.829 -0.2607  1.1547  0.7225
  253SOL    HW3  785   4.980   5.840   1.727  0.5064 -2.0396  0.3434
  253SOL    MW4  786   5.008   5.838   1.810  0.2675  0.3224 -0.5200
  254SOL     OW  787   1.641   2.136   2.457 -0.1398 -0.0396  0.0066
  254SOL    HW2  788   1.601   2.169   2.377 -0.0486 -0.3188 -0.1545
  254SOL    HW3  789   1.668   2.047   2.436  1.0597  0.3235 -0.0516
  254SOL    MW4  790   1.639   2.128   2.444  0.3414  0.1966  0.2925
  255SOL     OW  791   4.059   0.513   2.909 -0.1061 -0.2728 -0.1425
  255SOL    HW2  792   4.138   0.564   2.924 -0.8307  1.0745 -0.6991
  255SOL    HW3  793   4.028   0.489   2.996 -0.2209  0.9981  0.1740
  255SOL    MW4  794   4.065   0.516   2.922 -0.1288  0.2145  0.0286
  256SOL     OW  795   2.810   0.932   2.251  0.7857  0.2512 -0.4461
  256SOL    HW2  796   2.814   0.838   2.236 -1.0885  0.2053 -0.9726
  256SOL    HW3  797   2.720   0.948   2.280 -0.3495  2.3267 -4.2998
  256SOL    MW4  798   2.798   0.922   2.253  0.4065  0.8034  0.3391
  257SOL     OW  799   5.011   0.041   4.224  0.0645  0.3084  0.4570
  257SOL    HW2  800   5.054  -0.037   4.258  0.8995  0.0644 -1.0528
  257SOL    HW3  801   5.057   0.114   4.266  0.0651  0.0012  0.9944
  257SOL    MW4  802   5.023   0.040   4.234  0.2121  0.1422 -0.0554
  258SOL     OW  803   3.562   1.751   3.312  0.1586  0.1092  0.1775
  258SOL    HW2  804   3.592   1.695   3.383 -0.0563 -1.2613 -0.7870
  258SOL    HW3  805   3.623   1.825   3.312  0.4280 -0.0872  1.4737
  258SOL    MW4  806   3.574   1.754   3.322  0.2718  0.0081 -0.3520
  259SOL     OW  807   5.686   2.055   2.301 -0.5390  0.4287  0.2226
  259SOL    HW2  808   5.702   2.054   2.395  1.9134  0.8816 -0.1181
  259SOL    HW3  809   5.732   1.979   2.267 -1.8166 -0.0260 -0.6034
  259SOL    MW4  810   5.694   2.045   2.309 -0.4001 -0.2288  0.5722
  260SOL     OW  811   5.698   3.036   0.906  0.2614 -0.1649 -0.5002
  260SOL    HW2  812   5.782   3.026   0.861 -0.1093  1.6676 -1.7448
  260SOL    HW3  813   5.637   3.063   0.837 -0.3131  2.9730  1.0456
  260SOL    MW4  814   5.701   3.038   0.891  0.2673  0.1603 -0.6266
  261SOL     OW  815   4.755   2.826   4.626  0.0170  0.0517  0.1671
  261SOL    HW2  816   4.743   2.870   4.710  1.3189 -0.9602  0.9333
  261SOL    HW3  817   4.670   2.787   4.607 -0.3855  0.5777  0.8368
  261SOL    MW4  818   4.742   2.827   4.635  0.2631 -0.7643  0.3216
  262SOL     OW  819   5.779   4.734   4.902  0.0961 -0.4158  0.1506
  262SOL    HW2  820   5.761   4.642   4.885  1.7090 -0.5890 -0.8468
  262SOL    HW3  821   5.826   4.764   4.824 -2.8755  2.0581 -0.8755
  262SOL    MW4  822   5.783   4.726   4.890 -0.3666  0.1285  0.2651
  263SOL     OW  823   0.483   0.584   5.463 -0.0228 -0.6445 -0.4954
  263SOL    HW2  824   0.394   0.617   5.474  0.0430 -0.6400  0.0267
  263SOL    HW3  825   0.471   0.491   5.442 -0.2443 -0.1920 -2.7212
  263SOL    MW4  826   0.469   0.576   5.461  0.7416  0.1516  0.2315
  264SOL     OW  827   4.030   6.189   2.215 -0.0816  0.3260 -0.1485
  264SOL    HW2  828   4.118   6.219   2.239 -0.1477  1.5615 -1.3359
  264SOL    HW3  829   3.996   6.259   2.159 -1.6646 -0.3349 -0.0512
  264SOL    MW4  830   4.037   6.202   2.211 -0.3563  0.0133 -0.5237
  265SOL     OW  831   2.472   3.012   5.164 -0.1637  0.0472  0.1482
  265SOL    HW2  832   2.525   3.002   5.243 -1.0855 -1.9420  0.5722
  265SOL    HW3  833   2.408   3.079   5.186  0.3001  0.3308  0.6680
  265SOL    MW4  834   2.471   3.019   5.177  0.0566  0.6850  0.2426
  266SOL     OW  835   4.348   1.732   5.986  0.0449 -0.4065  0.0757
  266SOL    HW2  836   4.286   1.791   6.030  0.2614  0.6257 -0.9425
  266SOL    HW3  837   4.434   1.758   6.020 -0.0165 -1.4449  1.0539
  266SOL    MW4  838   4.351   1.744   5.996  0.2407 -0.0588  0.0898
  267SOL     OW  839   6.231   1.955   0.027  0.1415 -0.0955 -0.2150
  267SOL    HW2  840   6.146   1.998   0.039  0.1744 -0.1096  0.0630
  267SOL    HW3  841   6.210   1.861   0.031  0.0687 -0.1099 -0.8295
  267SOL    MW4  842   6.217   1.948   0.029 -0.4891 -0.0105 -0.1740
  268SOL     OW  843   0.335   0.657   1.308 -0.1226  0.0938  0.2368
  268SOL    HW2  844   0.352   0.674   1.215 -0.1853 -1.2119 -0.0424
  268SOL    HW3  845   0.306   0.741   1.343  0.2601  0.7002 -0.8407
  268SOL    MW4  846   0.334   0.670   1.300  0.0790 -0.0681  0.0075
  269SOL     OW  847   0.762   6.031   3.018  0.3977  0.3776 -0.6016
  269SOL    HW2  848   0.706   5.983   3.079  0.7242  0.0297 -0.5638
  269SOL    HW3  849   0.812   6.091   3.073  0.7345  0.0227 -0.5074
  269SOL    MW4  850   0.761   6.032   3.033 -0.3593  0.0521  0.1400
  270SOL     OW  851   5.162   5.516   3.805 -0.6188  0.3281  0.4049
  270SOL    HW2  852   5.118   5.601   3.819 -1.2229  0.0119  0.4780
  270SOL    HW3  853   5.255   5.537   3.806 -0.7749  1.2063 -0.9264
  270SOL    MW4  854   5.168   5.530   3.807 -0.8915 -0.3410  0.4698
  271SOL     OW  855   2.554   6.326   2.933  0.3590 -0.0078  0.6705
  271SOL    HW2  856   2.599   6.241   2.936  0.2805 -0.0901 -0.2660
  271SOL    HW3  857   2.589   6.369   2.855 -1.3414 -0.1879 -0.2520
  271SOL    MW4  858   2.564   6.320   2.923 -0.3843  0.1114  0.2656
  272SOL     OW  859   6.136   4.122   4.476  0.4252  1.0379 -0.3179
  272SOL    HW2  860   6.061   4.064   4.463  1.0721  0.2800 -0.7049
  272SOL    HW3  861   6.135   4.142   4.570 -0.3511  1.1773 -0.3441
  272SOL    MW4  862   6.126   4.117   4.487  0.7241 -0.5502 -0.9076
  273SOL     OW  863   0.379   6.215   2.244 -0.1976 -0.0284  0.5418
  273SOL    HW2  864   0.396   6.297   2.197  1.1394  0.1024  1.1987
  273SOL    HW3  865   0.321   6.165   2.186 -2.3780  2.0147  0.8218
  273SOL    MW4  866   0.373   6.219   2.230  0.2431 -0.6743  0.8834
  274SOL     OW  867   4.310   0.428   3.456 -0.1957 -0.0844  0.3343
  274SOL    HW2  868   4.325   0.507   3.508  1.3493  0.5094 -0.9557
  274SOL    HW3  869   4.356   0.443   3.374 -2.5172 -1.0004 -1.2678
  274SOL    MW4  870   4.318   0.440   3.452  0.7562  0.2753  0.0355
  275SOL     OW  871   6.027   2.957   4.874  0.0673 -0.0970 -0.3385
  275SOL    HW2  872   6.017   3.024   4.807  2.1707  0.9805  0.3300
  275SOL    HW3  873   6.038   3.007   4.955  1.4396 -1.2229  0.2085
  275SOL    MW4  874   6.027   2.973   4.876  0.3282 -0.2570  0.0731
  276SOL     OW  875   4.067   2.448   0.902 -0.1667 -0.2812  0.3324
  276SOL    HW2  876   4.003   2.389   0.863 -0.7639  0.4957  0.1134
  276SOL    HW3  877   4.027   2.534   0.896  1.2258  0.3471 -0.5099
  276SOL    MW4  878   4.054   2.451   0.896  0.0724 -0.0433  0.2707
  277SOL     OW  879   4.093   1.025   2.759  0.2184  0.0398  0.0005
  277SOL    HW2  880   4.043   1.019   2.840 -2.5162  1.8434 -1.4011
  277SOL    HW3  881   4.058   0.955   2.704  1.2982 -0.4891 -0.0361
  277SOL    MW4  882   4.082   1.015   2.762  0.5347 -0.2005  0.2472
  278SOL     OW  883   3.638   5.827   2.557 -0.0621 -0.0242 -0.2317
  278SOL    HW2  884   3.626   5.902   2.499 -1.6505  1.7366  2.1901
  278SOL    HW3  885   3.714   5.849   2.611 -0.8100  0.0999  0.8045
  278SOL    MW4  886   3.647   5.839   2.557  0.0198 -0.0345 -0.1797
  279SOL     OW  887   1.017   5.425   5.130 -0.0317  0.3186 -0.1436
  279SOL    HW2  888   1.013   5.463   5.217  1.3400 -0.3202  0.2144
  279SOL    HW3  889   0.957   5.350   5.133  1.0903 -0.5698  0.7090
  279SOL    MW4  890   1.008   5.420   5.142  0.0772 -0.1597 -0.2722
  280SOL     OW  891   3.647   5.469   3.085  0.2504 -0.0206 -0.1716
  280SOL    HW2  892   3.670   5.415   3.010 -0.8887 -0.1880 -0.4173
  280SOL    HW3  893   3.644   5.558   3.051 -1.2109 -0.1987 -0.5797
  280SOL    MW4  894   3.650   5.474   3.071  0.4546  0.8226  0.8275
  281SOL     OW  895   2.324   3.703   2.933  0.6161 -0.1150  0.2457
  281SOL    HW2  896   2.239   3.679   2.895  0.7273 -3.9344  1.9378
  281SOL    HW3  897   2.315   3.795   2.957 -1.8787  0.4846 -2.4458
  281SOL    MW4  898   2.312   3.712   2.931  0.2426  0.0253  0.1914
  282SOL     OW  899   1.352   1.232   1.179 -0.5272 -0.4504 -0.0208
  282SOL    HW2  900   1.272   1.229   1.232 -0.2569 -1.3750  0.3530
  282SOL    HW3  901   1.420   1.194   1.236  0.1765  0.3057 -0.3393
  282SOL    MW4  902   1.350   1.227   1.194 -0.0351 -0.1942  0.1391
  283SOL     OW  903   0.801   6.192   5.597 -0.1575 -0.1626  0.1332
  283SOL    HW2  904   0.824   6.188   5.504 -0.0400  0.6035  0.1265
  283SOL    HW3  905   0.835   6.110   5.634  0.5627 -0.0803 -0.3299
  283SOL    MW4  906   0.809   6.181   5.590 -0.3055  0.2139 -0.1077
  284SOL     OW  907   4.059   2.404   2.750 -0.5953 -0.1173 -0.0115
  284SOL    HW2  908   3.998   2.345   2.794  0.8693 -0.8418  1.1171
  284SOL    HW3  909   4.003   2.457   2.693 -2.2110 -1.0864  0.5913
  284SOL    MW4  910   4.043   2.403   2.748 -0.6657 -0.0428 -0.4896
  285SOL     OW  911   6.256   0.624   0.782  0.1609 -0.3798 -0.0729
  285SOL    HW2  912   6.226   0.713   0.761 -1.0329 -0.8753 -0.5293
  285SOL    HW3  913   6.221   0.607   0.869 -1.3953 -1.1565 -0.8192
  285SOL    MW4  914   6.247   0.634   0.790  0.0698  0.1748  0.2255
  286SOL     OW  915   6.259   2.817   4.824 -0.0769 -0.2085 -0.1808
  286SOL    HW2  916   6.193   2.886   4.829  0.5419  0.5790 -2.1157
  286SOL    HW3  917   6.209   2.736   4.821 -0.9874  0.3671 -1.3803
  286SOL    MW4  918   6.244   2.816   4.824  0.1350 -0.0900 -0.3638
  287SOL     OW  919   2.559   3.351   4.025  0.4127  0.1304  0.5846
  287SOL    HW2  920   2.544   3.301   3.945  0.3913  0.3407  0.4570
  287SOL    HW3  921   2.642   3.396   4.010 -0.6632  1.9326 -0.2219
  287SOL    MW4  922   2.568   3.350   4.012 -0.2074 -0.7267  0.8059
  288SOL     OW  923   1.090   2.914   1.597 -0.1659  0.3678  0.2109
  288SOL    HW2  924   1.033   2.987   1.573  0.2616  0.2070 -1.4020
  288SOL    HW3  925   1.154   2.909   1.526  0.7911 -0.5633  1.1093
  288SOL    MW4  926   1.091   2.923   1.584 -0.0825  0.1469 -0.2830
  289SOL     OW  927   6.381   4.001   4.653  0.1187 -0.6285 -0.4713
  289SOL    HW2  928   6.441   3.950   4.598  0.0976 -2.8113  1.3880
  289SOL    HW3  929   6.309   3.941   4.672 -0.7456  0.6568  0.4926
  289SOL    MW4  930   6.380   3.987   4.648 -0.2316 -0.0774  0.3565
  290SOL     OW  931   1.403   2.248   1.843 -0.3080 -0.0696  0.1823
  290SOL    HW2  932   1.467   2.178   1.831  0.3569  0.6346 -0.5552
  290SOL    HW3  933   1.320   2.203   1.859  0.5677 -1.0198  2.4932
  290SOL    MW4  934   1.401   2.233   1.843  0.0967 -0.3604 -0.0941
  291SOL     OW  935   3.495   2.035   4.798  0.6173 -0.0807 -0.5693
  291SOL    HW2  936   3.564   2.079   4.847  1.0157 -0.1673 -1.0407
  291SOL    HW3  937   3.438   2.106   4.768 -0.5214 -0.1368  1.3167
  291SOL    MW4  938   3.497   2.050   4.800  0.2105 -0.0529  0.1976
  292SOL     OW  939   4.956   5.622   5.695 -0.4201  0.1616 -0.3084
  292SOL    HW2  940   4.956   5.603   5.789  0.0071  0.0032 -0.3383
  292SOL    HW3  941   5.020   5.693   5.685 -0.2411 -0.0293 -0.5205
  292SOL    MW4  942   4.965   5.629   5.706 -0.2341 -0.0305 -0.2365
  293SOL     OW  943   3.733   4.177   2.535 -0.3832 -0.0774 -0.6989
  293SOL    HW2  944   3.735   4.146   2.445 -0.5870  0.0086 -0.7335
  293SOL    HW3  945   3.755   4.269   2.530  2.5343 -0.6666 -0.3748
  293SOL    MW4  946   3.736   4.185   2.523  0.0257 -0.4301 -0.2039
  294SOL     OW  947   0.634   1.426   0.777  0.6584 -0.2320 -0.3913
  294SOL    HW2  948   0.677   1.483   0.713  0.4292  0.6102  0.1761
  294SOL    HW3  949   0.632   1.478   0.858 -0.9392 -0.4388 -0.2624
  294SOL    MW4  950   0.639   1.441   0.780  0.0620  0.4433 -0.0495
  295SOL     OW  951   1.919   5.525   5.118  0.2892 -0.0429  0.2630
  295SOL    HW2  952   1.955   5.608   5.148 -0.5577 -0.3099  2.1783
  295SOL    HW3  953   1.993   5.481   5.074  1.3601  0.7961  1.1673
  295SOL    MW4  954   1.934   5.530   5.116  0.2526  0.1090  0.1540
  296SOL     OW  955   4.219   3.352   2.838  0.5747 -0.8992 -0.2005
  296SOL    HW2  956   4.280   3.308   2.897  1.0263 -0.0479 -0.0155
  296SOL    HW3  957   4.274   3.379   2.764  0.8225  1.3030  0.6877
  296SOL    MW4  958   4.235   3.350   2.836 -0.0811 -0.3724  0.5189
  297SOL     OW  959   6.158   0.071   5.633 -0.8201 -0.4387  0.2041
  297SOL    HW2  960   6.226   0.033   5.578 -0.6546 -1.2797  0.9529
  297SOL    HW3  961   6.141   0.157   5.595  0.8801 -0.0716  0.1829
  297SOL    MW4  962   6.165   0.077   5.621  0.1553 -0.0104  0.1236
  298SOL     OW  963   2.521   4.380   0.203  0.0388 -0.1772  0.6710
  298SOL    HW2  964   2.462   4.401   0.130  0.4409 -3.0457 -0.6407
  298SOL    HW3  965   2.469   4.324   0.260  0.9230 -1.3096  0.4043
  298SOL    MW4  966   2.506   4.375   0.201 -0.2430 -0.5988  0.0924
  299SOL     OW  967   2.536   5.227   5.288  0.0197  0.0463 -0.1992
  299SOL    HW2  968   2.535   5.214   5.383 -0.7592  2.4740  0.1943
  299SOL    HW3  969   2.626   5.209   5.262 -0.2605 -3.0326  0.5405
  299SOL    MW4  970   2.548   5.223   5.297  0.3412 -0.0586 -0.5914
  300SOL     OW  971   2.336   4.254   6.395 -0.2691 -0.9741  0.0794
  300SOL    HW2  972   2.360   4.283   6.308 -1.3100  0.2412  0.1544
  300SOL    HW3  973   2.341   4.159   6.392  1.9263 -0.8873 -0.6055
  300SOL    MW4  974   2.340   4.246   6.383  0.0394  0.3237  0.0475
  301SOL     OW  975   6.116   0.678   0.420 -0.2581 -0.6952 -0.2894
  301SOL    HW2  976   6.162   0.719   0.493  1.7270  0.1513 -1.9120
  301SOL    HW3  977   6.163   0.597   0.403 -1.2331 -1.3151 -0.1150
  301SOL    MW4  978   6.128   0.673   0.427  0.6128  0.2620  0.1377
  302SOL     OW  979   1.238   2.212   0.600 -0.4986 -0.0760  0.2033
  302SOL    HW2  980   1.266   2.123   0.579 -1.6650 -0.3421 -0.3071
  302SOL    HW3  981   1.195   2.243   0.521  1.3230  1.5757 -0.2096
  302SOL    MW4  982   1.236   2.205   0.587 -0.5996 -0.1617 -0.1151
  303SOL     OW  983   3.124   2.227   3.161  0.1618  0.3507 -0.7700
  303SOL    HW2  984   3.105   2.136   3.186 -0.3367  1.0299  1.4984
  303SOL    HW3  985   3.211   2.245   3.197  0.1231  0.8720 -0.9260
  303SOL    MW4  986   3.133   2.217   3.169 -0.2774  0.8171 -0.1427
  304SOL     OW  987   6.006   3.715   1.995  0.2047 -0.1282 -0.5370
  304SOL    HW2  988   6.047   3.675   1.918  2.5351  2.1221 -0.6190
  304SOL    HW3  989   5.960   3.791   1.960  0.0656  0.0929  0.1224
  304SOL    MW4  990   6.005   3.720   1.980 -0.4588 -0.5401 -0.3509
  305SOL     OW  991   3.567   0.043   1.061 -0.1696  0.1783 -0.0114
  305SOL    HW2  992   3.538  -0.002   1.140  3.2598 -2.3061  0.0304
  305SOL    HW3  993   3.613   0.121   1.093  0.0988 -0.1399  0.3829
  305SOL    MW4  994   3.569   0.047   1.076  0.1223  0.6741  0.3660
  306SOL     OW  995   5.586   6.046   3.711 -0.0980 -0.0182  0.3793
  306SOL    HW2  996   5.520   5.981   3.685  0.7027 -1.0979  0.9525
  306SOL    HW3  997   5.563   6.068   3.801 -0.9438  1.2622 -0.1246
  306SOL    MW4  998   5.574   6.040   3.719 -0.2875  0.3531  0.0499
  307SOL     OW  999   1.457   0.246   4.187  0.2457  0.2708 -0.3290
  307SOL    HW2 1000   1.545   0.218   4.214  0.2431  1.8709  1.6727
  307SOL    HW3 1001   1.400   0.216   4.258 -0.5949  0.5045 -0.8915
  307SOL    MW4 1002   1.461   0.239   4.200 -1.1458  0.6551  0.3493
  308SOL     OW 1003   3.610   1.796   3.755  0.1568 -0.3655 -0.0169
  308SOL    HW2 1004   3.565   1.793   3.839  0.9629 -0.4372  0.4215
  308SOL    HW3 1005   3.571   1.724   3.705 -0.0831 -0.5465  0.4241
  308SOL    MW4 1006   3.599   1.786   3.759 -0.3796 -0.4297  0.0316
  309SOL     OW 1007   6.238   0.296   4.151 -0.0991  0.4320  0.1428
  309SOL    HW2 1008   6.191   0.356   4.093  0.2404  1.8735  1.2857
  309SOL    HW3 1009   6.300   0.250   4.093  0.8565  2.4666 -0.5443
  309SOL    MW4 1010   6.240   0.298   4.135  0.1353 -0.1778  0.7943
  310SOL     OW 1011   1.155   0.137   3.030  0.1330  0.0092  0.1115
  310SOL    HW2 1012   1.177   0.062   3.085 -1.0981 -1.6895 -1.5585
  310SOL    HW3 1013   1.230   0.147   2.972 -0.2699 -0.8692 -0.5822
  310SOL    MW4 1014   1.168   0.128   3.030 -0.6024 -0.4333 -0.4829
  311SOL     OW 1015   5.571   2.537   1.552 -0.5458 -0.4935  0.0357
  311SOL    HW2 1016   5.627   2.480   1.606 -2.4898 -1.7867  0.8043
  311SOL    HW3 1017   5.584   2.624   1.589 -0.1819 -1.0146  1.2039
  311SOL    MW4 1018   5.580   2.541   1.564 -0.3998  0.5485  0.4125
  312SOL     OW 1019   4.438   3.974   0.291  0.9015 -0.0554  0.4917
  312SOL    HW2 1020   4.500   4.022   0.345  0.9180  0.4857 -0.0022
  312SOL    HW3 1021   4.456   4.003   0.201 -1.2489  1.5101  0.4816
  312SOL    MW4 1022   4.448   3.984   0.286  0.2701  0.1502 -0.0245
  313SOL     OW 1023   3.643   5.265   4.246  0.0266 -0.0175  0.5310
  313SOL    HW2 1024   3.634   5.315   4.165  0.3273  1.7098  1.4930
  313SOL    HW3 1025   3.736   5.240   4.248  0.1602  0.4532  0.5887
  313SOL    MW4 1026   3.654   5.269   4.236 -0.1522 -0.0891  0.4205
  314SOL     OW 1027   3.711   2.193   5.521 -0.0763  0.4724 -0.2413
  314SOL    HW2 1028   3.725   2.171   5.429 -3.4245  0.0176 -0.7790
  314SOL    HW3 1029   3.772   2.138   5.569  0.7840 -0.3175 -2.1380
  314SOL    MW4 1030   3.721   2.183   5.515  0.0482 -0.0373  0.7157
  315SOL     OW 1031   5.124   6.204   0.221  0.1130 -0.0497  0.2192
  315SOL    HW2 1032   5.217   6.196   0.202  0.3271 -2.3300  1.8546
  315SOL    HW3 1033   5.120   6.238   0.311 -0.6448  0.1444  0.1233
  315SOL    MW4 1034   5.136   6.208   0.230  0.2915  0.2134  0.5060
  316SOL     OW 1035   0.382   1.022   3.695  1.0066 -0.0620 -0.2014
  316SOL    HW2 1036   0.324   1.091   3.663  1.4312  0.9035  1.0389
  316SOL    HW3 1037   0.409   0.975   3.616  1.1638  1.5562 -1.1455
  316SOL    MW4 1038   0.378   1.025   3.680  0.4375  0.8349 -0.4204
  317SOL     OW 1039   0.425   2.735   3.329 -0.0052 -0.5796  0.2559
  317SOL    HW2 1040   0.474   2.803   3.281  1.2807 -1.0128  0.9071
  317SOL    HW3 1041   0.403   2.670   3.262 -0.4052 -0.0009 -0.1920
  317SOL    MW4 1042   0.429   2.736   3.314  0.2326 -0.0864  0.3399
  318SOL     OW 1043   1.782   2.878   3.146  0.2319 -0.5415 -0.0260
  318SOL    HW2 1044   1.754   2.798   3.103 -3.4553  1.0496 -0.9502
  318SOL    HW3 1045   1.775   2.945   3.079  1.2908  0.9137  1.2394
  318SOL    MW4 1046   1.777   2.876   3.132  0.7370  0.2877 -0.4774
  319SOL     OW 1047   6.386   1.192   2.734  0.2275 -1.2604 -0.0496
  319SOL    HW2 1048   6.292   1.197   2.712  0.0773 -2.1438  0.3505
  319SOL    HW3 1049   6.401   1.267   2.790  0.1555 -0.1155 -1.4928
  319SOL    MW4 1050   6.375   1.203   2.738  1.0183  0.1486  0.2172
  320SOL     OW 1051   5.160   1.299   4.287  0.1414 -0.0640  0.2304
  320SOL    HW2 1052   5.099   1.227   4.298  0.8525 -0.5531  1.1215
  320SOL    HW3 1053   5.138   1.360   4.357  1.1982 -0.6417  1.0927
  320SOL    MW4 1054   5.149   1.298   4.298 -0.7085  0.2105 -0.0909
  321SOL     OW 1055   0.781   0.609   4.846 -0.1226  0.0490  0.1408
  321SOL    HW2 1056   0.775   0.688   4.792 -0.8623  0.6156  1.0222
  321SOL    HW3 1057   0.782   0.537   4.783  0.3633  0.7486 -0.6694
  321SOL    MW4 1058   0.780   0.610   4.831  0.2415  0.4758 -0.3494
  322SOL     OW 1059   0.340   0.579   3.508 -0.3363  0.1748  0.0528
  322SOL    HW2 1060   0.298   0.532   3.436 -0.4020  0.5872 -0.1809
  322SOL    HW3 1061   0.348   0.669   3.477 -0.2155  0.3216  0.4978
  322SOL    MW4 1062   0.336   0.584   3.495  0.1659  0.1233 -0.0318
  323SOL     OW 1063   6.127   3.570   3.151 -0.0603 -0.7137 -0.0970
  323SOL    HW2 1064   6.189   3.555   3.080 -2.5789 -0.7497 -2.4648
  323SOL    HW3 1065   6.077   3.488   3.157  0.2739 -0.8151  1.9648
  323SOL    MW4 1066   6.128   3.557   3.143  0.3056  0.1386  0.8792
  324SOL     OW 1067   0.797   4.385   1.493  0.2831 -0.2638  0.2531
  324SOL    HW2 1068   0.800   4.358   1.585 -2.4439 -0.1934  0.4244
  324SOL    HW3 1069   0.838   4.471   1.492  1.8784 -0.9636  1.0747
  324SOL    MW4 1070   0.803   4.392   1.505  0.3629  0.9874 -0.0896
  325SOL     OW 1071   1.159   3.940   4.024 -0.0262  0.1245  0.2695
  325SOL    HW2 1072   1.141   4.033   4.034 -1.4418  0.1039 -1.4804
  325SOL    HW3 1073   1.217   3.935   3.947  0.1969 -0.4282  0.4656
  325SOL    MW4 1074   1.164   3.951   4.015 -0.0975 -0.1914  0.0124
  326SOL     OW 1075   4.534   2.310   0.037  0.0470  0.1261 -0.0644
  326SOL    HW2 1076   4.536   2.263  -0.046 -1.4445 -0.1548  0.0198
  326SOL    HW3 1077   4.546   2.242   0.104 -0.5723  0.0734  0.0013
  326SOL    MW4 1078   4.536   2.295   0.035  0.1429  0.1907 -0.1559
  327SOL     OW 1079   5.154   6.161   5.825  0.5506  0.2144  0.5447
  327SOL    HW2 1080   5.218   6.147   5.755 -0.6838 -1.9097 -0.2652
  327SOL    HW3 1081   5.201   6.139   5.906  0.8984 -1.2654 -0.0279
  327SOL    MW4 1082   5.168   6.157   5.826 -0.0593  0.2889 -0.1757
  328SOL     OW 1083   1.121   3.611   5.436 -0.2065 -0.2175  0.4173
  328SOL    HW2 1084   1.191   3.560   5.395  1.0084 -0.9923  3.2087
  328SOL    HW3 1085   1.040   3.573   5.401  0.7133 -2.3107  0.3855
  328SOL    MW4 1086   1.119   3.599   5.426  0.2059 -0.1533 -0.6034
  329SOL     OW 1087   4.030   0.801   4.430 -0.1388 -0.1776  0.1564
  329SOL    HW2 1088   3.997   0.786   4.519 -1.6831 -0.0282 -0.3536
  329SOL    HW3 1089   4.059   0.893   4.430 -2.7911  0.7515 -0.2053
  329SOL    MW4 1090   4.029   0.812   4.442  0.0565 -0.3998  0.3982
  330SOL     OW 1091   0.591   4.814   4.707 -0.1821 -0.9590 -0.6030
  330SOL    HW2 1092   0.670   4.820   4.759  0.0887 -0.7394 -1.0373
  330SOL    HW3 1093   0.527   4.870   4.752 -0.8304 -2.9032  1.0494
  330SOL    MW4 1094   0.593   4.822   4.720  0.1995  0.8961  0.1907
  331SOL     OW 1095   4.548   6.180   1.778 -0.0858  0.3786  0.3051
  331SOL    HW2 1096   4.566   6.100   1.828  0.3487 -1.1129 -2.0811
  331SOL    HW3 1097   4.488   6.152   1.709 -0.8372  2.4053  0.0829
  331SOL    MW4 1098   4.543   6.165   1.776 -0.0576 -0.9794  0.5189
  332SOL     OW 1099   5.671   5.854   6.178 -0.2179  0.0016 -0.1634
  332SOL    HW2 1100   5.597   5.879   6.233  0.3334 -0.5891  0.8746
  332SOL    HW3 1101   5.645   5.770   6.140 -0.3724  0.1455 -0.3801
  332SOL    MW4 1102   5.658   5.846   6.180 -0.3277  0.1615 -0.8302
  333SOL     OW 1103   0.327   3.599   3.276  0.8592 -0.3737  0.1215
  333SOL    HW2 1104   0.356   3.648   3.199  1.8304  0.7986  1.1786
  333SOL    HW3 1105   0.275   3.662   3.326  0.2537 -1.1157  0.4358
  333SOL    MW4 1106   0.324   3.614   3.273 -0.1530 -0.2503 -0.0275
  334SOL     OW 1107   0.421   1.868   3.277 -0.6420  0.1161 -0.0808
  334SOL    HW2 1108   0.381   1.804   3.337 -0.5466 -1.0767 -1.2515
  334SOL    HW3 1109   0.396   1.838   3.190 -0.7616  1.8124 -0.6692
  334SOL    MW4 1110   0.412   1.856   3.274  0.0263 -0.1282  0.4449
  335SOL     OW 1111   6.352   4.318   2.119 -0.0301  0.1672 -0.4789
  335SOL    HW2 1112   6.320   4.406   2.139  2.1507  0.8122  0.5068
  335SOL    HW3 1113   6.274   4.263   2.118 -1.1647  1.6205  1.6430
  335SOL    MW4 1114   6.337   4.323   2.121  0.2061  0.4719  0.0105
  336SOL     OW 1115   1.804   3.723   0.164 -0.2564  0.3156 -0.5104
  336SOL    HW2 1116   1.789   3.727   0.259  0.5756  1.5031 -0.4027
  336SOL    HW3 1117   1.729   3.768   0.126 -0.6519 -0.2686 -0.4245
  336SOL    MW4 1118   1.792   3.729   0.171 -0.5057  0.4810 -0.0806
  337SOL     OW 1119   3.387   3.523   0.515  0.7835  0.0139  0.1011
  337SOL    HW2 1120   3.431   3.488   0.438  1.2715  0.6873  0.0565
  337SOL    HW3 1121   3.454   3.519   0.584  0.9458  1.1014  0.0210
  337SOL    MW4 1122   3.402   3.518   0.514 -0.3216 -0.0965  0.6993
  338SOL     OW 1123   1.487   2.306   0.653  0.3025 -0.0992  0.4895
  338SOL    HW2 1124   1.546   2.232   0.672  1.3473  0.0755 -1.6844
  338SOL    HW3 1125   1.401   2.266   0.645  0.5760 -0.8235  1.0572
  338SOL    MW4 1126   1.484   2.291   0.654  0.2259 -0.1883 -0.3453
  339SOL     OW 1127   6.304   4.447   2.531 -0.2160 -0.0414 -0.0145
  339SOL    HW2 1128   6.329   4.380   2.467 -1.2302 -1.3729  0.9189
  339SOL    HW3 1129   6.215   4.471   2.507  0.2371  1.2081 -0.5053
  339SOL    MW4 1130   6.296   4.441   2.519 -0.0349 -0.0569  0.0514
  340SOL     OW 1131   1.012   2.686   4.948  0.1014  0.2505  0.0641
  340SOL    HW2 1132   1.064   2.678   5.029  0.0893 -1.6023 -0.0653
  340SOL    HW3 1133   1.074   2.720   4.884  0.1356  1.6576  0.8103
  340SOL    MW4 1134   1.027   2.689   4.950 -0.1854 -0.2687 -0.0532
  341SOL     OW 1135   1.749   1.600   1.370  0.5318 -0.6935 -0.3947
  341SOL    HW2 1136   1.777   1.575   1.282  1.2695  0.0027 -0.3729
  341SOL    HW3 1137   1.763   1.522   1.424  1.1370 -0.7790 -0.6735
  341SOL    MW4 1138   1.754   1.587   1.366  0.5391 -0.1767  0.3398
  342SOL     OW 1139   4.472   1.104   1.988 -0.0338 -0.7169  0.3112
  342SOL    HW2 1140   4.560   1.117   2.023  0.7353 -2.5800 -0.8138
  342SOL    HW3 1141   4.419   1.085   2.066  0.7722 -0.7219  0.8795
  342SOL    MW4 1142   4.477   1.104   2.003 -0.0422  0.4217 -0.3997
  343SOL     OW 1143   4.158   4.601   0.430  0.3584 -0.2199 -0.2688
  343SOL    HW2 1144   4.115   4.556   0.358 -0.5367  1.3690 -0.7813
  343SOL    HW3 1145   4.208   4.532   0.475  0.7884 -1.2890 -2.2523
  343SOL    MW4 1146   4.159   4.586   0.427 -0.0325 -0.2032  0.0034
  344SOL     OW 1147   1.270   4.068   1.462  0.1459  0.3461 -0.0153
  344SOL    HW2 1148   1.330   4.049   1.534  0.4925 -2.2721 -0.8839
  344SOL    HW3 1149   1.323   4.114   1.398  0.7152 -0.1718  0.0721
  344SOL    MW4 1150   1.285   4.071   1.463 -0.3013 -0.2700 -0.5124
  345SOL     OW 1151   4.561   4.651   4.926  0.4720 -0.2614  0.3619
  345SOL    HW2 1152   4.468   4.632   4.921  0.2680  0.5012  1.0091
  345SOL    HW3 1153   4.566   4.741   4.959  1.4316 -0.3051  0.3830
  345SOL    MW4 1154   4.550   4.660   4.930  0.2704  0.2550  0.4213
  346SOL     OW 1155   5.158   1.881   3.877  0.0314  0.2242 -0.2469
  346SOL    HW2 1156   5.066   1.854   3.877  0.2050 -0.3893  0.4730
  346SOL    HW3 1157   5.162   1.956   3.936 -0.0254  0.3276 -0.3734
  346SOL    MW4 1158   5.146   1.887   3.884  0.4843 -0.2503 -0.6281
  347SOL     OW 1159   2.918   2.838   6.324 -0.0460 -0.1505 -0.0436
  347SOL    HW2 1160   2.889   2.855   6.414  1.2691 -0.7175  0.5060
  347SOL    HW3 1161   2.853   2.776   6.290 -0.5713  0.0907  0.4890
  347SOL    MW4 1162   2.905   2.832   6.331  0.0546  0.4611 -0.7442
  348SOL     OW 1163   5.438   5.725   0.551  0.3697 -0.0143 -0.3512
  348SOL    HW2 1164   5.348   5.695   0.563  0.0197  0.9291 -0.5803
  348SOL    HW3 1165   5.491   5.659   0.597 -0.5839  0.6501  1.8159
  348SOL    MW4 1166   5.433   5.712   0.559 -0.0513 -0.1476  0.0866
  349SOL     OW 1167   5.919   1.892   2.685  0.3587  0.6546 -0.1415
  349SOL    HW2 1168   5.892   1.984   2.689  1.0161  0.8071  1.5397
  349SOL    HW3 1169   5.887   1.854   2.766  1.4520 -0.2208 -0.0936
  349SOL    MW4 1170   5.911   1.899   2.696 -0.5977 -0.0001  0.2934
  350SOL     OW 1171   0.360   5.992   3.522 -0.5254  0.2262 -0.0173
  350SOL    HW2 1172   0.295   5.966   3.457  0.3452  0.2493 -0.9167
  350SOL    HW3 1173   0.351   6.087   3.528  0.0179  0.3344 -0.8010
  350SOL    MW4 1174   0.350   6.001   3.514  0.2975  0.3550 -0.7930
  351SOL     OW 1175   4.700   2.377   4.182  0.3208  0.0365 -0.6258
  351SOL    HW2 1176   4.674   2.286   4.197 -0.1862  0.2013 -0.5060
  351SOL    HW3 1177   4.705   2.416   4.270 -0.5150  0.4094 -0.7307
  351SOL    MW4 1178   4.697   2.370   4.196  0.1914  0.1247  0.1019
  352SOL     OW 1179   6.076   6.333   1.728 -0.1011  0.1043  0.2918
  352SOL    HW2 1180   6.049   6.360   1.816 -1.7827 -1.1976  0.2229
  352SOL    HW3 1181   6.086   6.238   1.734 -0.1209  0.0163 -0.9052
  352SOL    MW4 1182   6.074   6.324   1.741 -0.3258 -0.1190 -0.0946
  353SOL     OW 1183   3.196   5.922   2.630  0.2690 -0.6169 -0.2656
  353SOL    HW2 1184   3.269   5.860   2.628  0.4662 -0.3926 -0.1627
  353SOL    HW3 1185   3.176   5.940   2.538 -1.1025 -2.3449 -0.3423
  353SOL    MW4 1186   3.203   5.917   2.617 -0.0399 -0.5843 -0.4026
  354SOL     OW 1187   3.092   4.848   3.378 -0.5065  0.2809 -0.3706
  354SOL    HW2 1188   3.030   4.852   3.451  0.4558 -0.2735  0.4958
  354SOL    HW3 1189   3.151   4.922   3.393  0.0960 -0.2284 -0.2092
  354SOL    MW4 1190   3.092   4.858   3.389  0.8378 -0.1775  0.2339
  355SOL     OW 1191   5.245   3.759   1.568  0.4783 -0.2115  0.6652
  355SOL    HW2 1192   5.159   3.723   1.592  0.0125 -0.0663 -0.7004
  355SOL    HW3 1193   5.266   3.820   1.639 -0.8908  0.2947  0.6759
  355SOL    MW4 1194   5.236   3.762   1.581 -0.0984 -0.3940  1.1180
  356SOL     OW 1195   1.630   4.137   5.656 -0.0869  0.1758 -0.3008
  356SOL    HW2 1196   1.657   4.229   5.660 -0.4631  0.5041 -3.3536
  356SOL    HW3 1197   1.555   4.136   5.597 -0.5685 -2.0326  0.2552
  356SOL    MW4 1198   1.624   4.149   5.649 -0.4693 -0.1152  0.7232
  357SOL     OW 1199   0.116   0.165   0.643 -0.4198 -0.1728  0.3061
  357SOL    HW2 1200   0.117   0.247   0.692  1.4394 -1.2667  2.2305
  357SOL    HW3 1201   0.081   0.100   0.704 -2.0522 -0.8453 -1.2451
  357SOL    MW4 1202   0.111   0.167   0.657 -0.0324  0.0594  0.0625
  358SOL     OW 1203   1.179   1.966   5.884  0.6847 -0.0796 -0.0841
  358SOL    HW2 1204   1.242   1.951   5.814  0.7326 -0.0948 -0.0380
  358SOL    HW3 1205   1.138   2.050   5.863  1.3695  0.3755  0.3687
  358SOL    MW4 1206   1.182   1.975   5.872  0.4084  0.1322  0.4783
  359SOL     OW 1207   2.205   3.066   3.159 -0.6974  0.1575 -0.3028
  359SOL    HW2 1208   2.182   2.980   3.126  3.2148 -0.8917 -0.7603
  359SOL    HW3 1209   2.199   3.058   3.254  2.1264 -1.6023 -0.1692
  359SOL    MW4 1210   2.201   3.054   3.167 -0.0974  0.3678  0.1654
  360SOL     OW 1211   0.615   4.818   2.583  0.0456  0.3643  0.3555
  360SOL    HW2 1212   0.553   4.766   2.530 -0.9175 -0.0689  1.8374
  360SOL    HW3 1213   0.625   4.768   2.664  1.6174  0.9242  0.5398
  360SOL    MW4 1214   0.608   4.804   2.586 -0.1877 -0.1612 -0.5182
  361SOL     OW 1215   0.110   3.781   3.382  0.8355  0.6498 -0.1004
  361SOL    HW2 1216   0.187   3.828   3.412  1.4474 -1.3331  1.7675
  361SOL    HW3 1217   0.055   3.773   3.461  0.0979 -0.4419 -0.6881
  361SOL    MW4 1218   0.113   3.786   3.397  0.3421 -0.5776 -0.4030
  362SOL     OW 1219   6.263   5.349   3.096 -0.3265 -0.0530 -0.2934
  362SOL    HW2 1220   6.299   5.265   3.067 -1.4282 -0.3884 -0.7237
  362SOL    HW3 1221   6.312   5.414   3.044  0.0745 -0.4599 -0.4332
  362SOL    MW4 1222   6.274   5.347   3.085  0.0005 -0.8577  0.1865
  363SOL     OW 1223   3.360   0.823   4.475  0.0782  0.2328 -0.2498
  363SOL    HW2 1224   3.346   0.739   4.519 -1.6389 -0.0997 -1.3549
  363SOL    HW3 1225   3.341   0.889   4.542 -0.0195 -0.2634  0.2140
  363SOL    MW4 1226   3.356   0.821   4.490  0.3870  0.1740 -0.1065
  364SOL     OW 1227   4.610   0.977   0.117  0.7741  0.3280  0.6715
  364SOL    HW2 1228   4.617   0.974   0.213 -0.5579 -0.1569  0.7824
  364SOL    HW3 1229   4.516   0.964   0.100  1.0201  0.2244 -0.7070
  364SOL    MW4 1230   4.598   0.975   0.128  0.8162 -0.1820  0.0775
  365SOL     OW 1231   4.646   3.888   5.216 -0.1698  0.1121  0.2251
  365SOL    HW2 1232   4.736   3.920   5.220 -0.5854  1.6882 -1.5700
  365SOL    HW3 1233   4.654   3.797   5.186  0.7913  0.6876 -1.3625
  365SOL    MW4 1234   4.659   3.880   5.213 -0.8304 -0.0070  0.1948
  366SOL     OW 1235   6.204   3.410   4.666 -0.1317 -0.6040 -1.2817
  366SOL    HW2 1236   6.269   3.432   4.600  0.1327 -1.0419 -1.1659
  366SOL    HW3 1237   6.122   3.404   4.617 -0.2318  0.6689 -1.3167
  366SOL    MW4 1238   6.201   3.412   4.651 -0.6062  0.5849  0.5183
  367SOL     OW 1239   4.367   4.211   3.351  0.2564  0.9190 -0.2700
  367SOL    HW2 1240   4.276   4.240   3.347  0.0273  0.0639 -1.6918
  367SOL    HW3 1241   4.361   4.119   3.379  0.5496  0.3461 -2.0011
  367SOL    MW4 1242   4.354   4.203   3.354 -0.7988 -0.0468 -0.3393
  368SOL     OW 1243   0.523   2.911   0.454 -0.2612  0.4778  0.1759
  368SOL    HW2 1244   0.547   2.922   0.362  0.4810 -2.2425 -0.0483
  368SOL    HW3 1245   0.427   2.904   0.453 -0.1752 -1.0560 -0.6586
  368SOL    MW4 1246   0.513   2.911   0.442  0.1862  0.5501  0.0848
  369SOL     OW 1247   5.231   6.098   4.852  0.5088  0.2427  0.2189
  369SOL    HW2 1248   5.220   6.184   4.893  3.0915  1.6167 -1.6092
  369SOL    HW3 1249   5.212   6.113   4.760  1.0642 -1.1236 -0.1456
  369SOL    MW4 1250   5.227   6.111   4.845 -0.8420  0.4591  0.6599
  370SOL     OW 1251   2.997   1.404   6.095 -0.5177 -0.1032 -0.4243
  370SOL    HW2 1252   2.929   1.407   6.162 -0.4764 -1.9641 -0.2493
  370SOL    HW3 1253   2.983   1.320   6.050  1.0162 -0.0461 -1.0698
  370SOL    MW4 1254   2.986   1.393   6.098  0.0150 -0.5653 -0.4793
  371SOL     OW 1255   3.959   4.541   5.392 -0.3605  0.5660  0.6197
  371SOL    HW2 1256   3.890   4.572   5.334  1.3009  1.0719 -1.2025
  371SOL    HW3 1257   3.922   4.462   5.433 -1.1957 -0.5859 -2.1205
  371SOL    MW4 1258   3.945   4.535   5.390 -0.1905  0.6457 -0.1120
  372SOL     OW 1259   0.104   1.450   1.746  0.0785 -0.3086  0.0764
  372SOL    HW2 1260   0.179   1.470   1.802  1.1289 -0.4419 -1.2314
  372SOL    HW3 1261   0.069   1.368   1.781 -0.2967  0.4244  1.4996
  372SOL    MW4 1262   0.109   1.442   1.758  0.3929 -0.3875 -0.1829
  373SOL     OW 1263   6.359   6.304   3.905 -0.2455  0.3630  0.6352
  373SOL    HW2 1264   6.448   6.270   3.916 -0.0262  1.1338  1.3081
  373SOL    HW3 1265   6.366   6.397   3.926 -1.0964  0.5557  0.0954
  373SOL    MW4 1266   6.372   6.312   3.909  0.2734  0.7119  0.3676
  374SOL     OW 1267   5.792   1.919   3.934 -0.1187 -0.3711  0.2253
  374SOL    HW2 1268   5.878   1.935   3.896 -1.0316  0.9919 -1.4003
  374SOL    HW3 1269   5.790   1.975   4.012  0.5758 -0.6634  0.4618
  374SOL    MW4 1270   5.803   1.929   3.939 -0.2526 -0.1157 -0.0229
  375SOL     OW 1271   2.775   4.105   5.491  0.2855 -0.0810  0.2525
  375SOL    HW2 1272   2.825   4.083   5.569  2.3602  3.1967  0.0473
  375SOL    HW3 1273   2.712   4.171   5.520  0.3221  0.3482 -0.5910
  375SOL    MW4 1274   2.773   4.111   5.505 -0.3991 -0.0822 -0.0723
  376SOL     OW 1275   5.988   0.075   3.533 -0.2807  0.8251  0.4418
  376SOL    HW2 1276   5.989  -0.021   3.532 -0.6578  0.7961 -1.5702
  376SOL    HW3 1277   6.028   0.100   3.450 -0.0970  2.4330  0.9829
  376SOL    MW4 1278   5.994   0.066   3.522 -0.6219  0.5368  0.1664
  377SOL     OW 1279   2.559   1.170   0.448  0.0687  0.3180 -0.3932
  377SOL    HW2 1280   2.597   1.125   0.373  1.1949  1.9137 -0.8524
  377SOL    HW3 1281   2.472   1.198   0.419  0.3198  0.5234 -0.9520
  377SOL    MW4 1282   2.553   1.168   0.435 -0.1909  0.0638  0.6896
  378SOL     OW 1283   5.992   0.475   2.203 -0.4301 -0.2864 -0.3232
  378SOL    HW2 1284   6.047   0.397   2.208 -2.0181 -1.4699 -0.3214
  378SOL    HW3 1285   5.998   0.514   2.290 -2.4010 -2.4945  0.9491
  378SOL    MW4 1286   6.000   0.470   2.215  0.2176  0.4432  0.4958
  379SOL     OW 1287   1.072   2.647   2.474 -0.5170 -0.0669 -0.5119
  379SOL    HW2 1288   1.088   2.707   2.546  1.7244 -0.1860 -0.8643
  379SOL    HW3 1289   1.054   2.704   2.399  1.4366  0.2255 -0.8078
  379SOL    MW4 1290   1.071   2.663   2.473  0.1090 -0.4123 -0.1441
  380SOL     OW 1291   4.564   1.369   3.947 -0.2734  0.1136  0.0639
  380SOL    HW2 1292   4.483   1.401   3.986  1.0297  2.6530  0.9163
  380SOL    HW3 1293   4.619   1.345   4.022 -0.0565 -1.2727 -0.4919
  380SOL    MW4 1294   4.561   1.370   3.962 -0.6840  0.4110 -0.2045
  381SOL     OW 1295   4.270   5.867   0.278 -0.5562  0.1340 -0.5106
  381SOL    HW2 1296   4.239   5.927   0.347  0.0047 -0.3627  0.1772
  381SOL    HW3 1297   4.298   5.789   0.325  1.6215  0.4971 -1.1175
  381SOL    MW4 1298   4.269   5.865   0.294 -0.1738  0.6043  0.0691
  382SOL     OW 1299   3.383   0.814   5.017 -0.2283 -0.2335 -0.1518
  382SOL    HW2 1300   3.308   0.832   4.961 -0.7503 -0.7736  0.3569
  382SOL    HW3 1301   3.411   0.900   5.050  1.2034  0.3333 -2.5848
  382SOL    MW4 1302   3.377   0.828   5.014 -0.0345 -0.3037 -0.8812
  383SOL     OW 1303   4.274   1.833   5.738  0.0080  0.2645 -0.5068
  383SOL    HW2 1304   4.304   1.796   5.821  0.4959 -1.2675 -1.3407
  383SOL    HW3 1305   4.190   1.790   5.721  0.6794 -0.6689 -1.5841
  383SOL    MW4 1306   4.267   1.823   5.747  0.0182  0.2806  0.2725
  384SOL     OW 1307   3.294   0.582   4.621  0.5645  0.1289  0.5087
  384SOL    HW2 1308   3.221   0.531   4.656  0.1380  0.2710 -0.1434
  384SOL    HW3 1309   3.337   0.522   4.559  0.0552  0.5554 -0.2677
  384SOL    MW4 1310   3.290   0.567   4.617  0.1807 -0.0899  0.1737
  385SOL     OW 1311   6.043   5.803   4.057 -0.1984  0.0550  0.4834
  385SOL    HW2 1312   6.019   5.829   3.968 -1.2359 -1.4544  0.3033
  385SOL    HW3 1313   6.108   5.734   4.045  0.0560  0.2161  0.9097
  385SOL    MW4 1314   6.049   5.798   4.043 -0.0739 -0.8374  0.5483
  386SOL     OW 1315   2.991   6.340   2.902  0.8059 -0.7837 -0.1133
  386SOL    HW2 1316   3.053   6.360   2.832  0.3874 -0.1729 -0.3262
  386SOL    HW3 1317   2.932   6.416   2.904  1.7754 -0.0170  1.9965
  386SOL    MW4 1318   2.991   6.353   2.893  0.7866  0.2229  0.2077
  387SOL     OW 1319   3.869   6.170   5.083 -0.1237  0.2164 -0.1595
  387SOL    HW2 1320   3.817   6.090   5.091  1.0553 -0.7439 -1.4138
  387SOL    HW3 1321   3.846   6.222   5.160 -1.3466 -1.0697  0.3989
  387SOL    MW4 1322   3.859   6.166   5.094 -0.2468 -0.6962 -0.3573
  388SOL     OW 1323   6.432   3.269   0.389  0.5421 -0.1044 -0.0185
  388SOL    HW2 1324   6.343   3.241   0.413 -0.5858  2.5341 -0.6880
  388SOL    HW3 1325   6.440   3.245   0.296  0.3577 -0.0033 -0.0624
  388SOL    MW4 1326   6.421   3.263   0.380  0.2825  0.2287  0.0474
  389SOL     OW 1327   3.533   1.458   0.723 -0.5356 -0.3717  1.0945
  389SOL    HW2 1328   3.543   1.379   0.669  1.0956  0.0156  0.7886
  389SOL    HW3 1329   3.447   1.492   0.698  0.1737 -0.1759 -1.3671
  389SOL    MW4 1330   3.523   1.452   0.712 -0.4325 -0.2204 -0.6336
  390SOL     OW 1331   3.256   2.787   0.722  0.0664  0.0648 -0.2774
  390SOL    HW2 1332   3.321   2.770   0.790  1.0636  0.0427 -1.2038
  390SOL    HW3 1333   3.259   2.709   0.667 -0.8965 -0.0179 -0.2143
  390SOL    MW4 1334   3.265   2.774   0.724  0.0483  0.2977  0.2641
  391SOL     OW 1335   0.551   3.306   4.121 -0.6066  0.5363  0.0712
  391SOL    HW2 1336   0.616   3.311   4.191 -0.5516  1.3929 -0.0377
  391SOL    HW3 1337   0.480   3.254   4.158 -0.6332  1.0885  0.8119
  391SOL    MW4 1338   0.551   3.299   4.135 -0.0111 -0.3204 -0.0658
  392SOL     OW 1339   3.315   1.410   2.398 -0.0800  0.4640 -0.3360
  392SOL    HW2 1340   3.241   1.442   2.448  0.4431 -0.0016  0.7713
  392SOL    HW3 1341   3.384   1.397   2.463  0.1780 -1.5399 -0.9357
  392SOL    MW4 1342   3.315   1.413   2.413  0.2197  0.4518  0.0637
  393SOL     OW 1343   6.020   0.332   1.563 -0.6248 -0.0338  0.0811
  393SOL    HW2 1344   5.997   0.330   1.656 -0.2459  1.1114  0.2188
  393SOL    HW3 1345   6.102   0.381   1.560 -0.8115  0.2366 -0.8906
  393SOL    MW4 1346   6.028   0.338   1.575 -0.2480  0.2341 -0.4757
  394SOL     OW 1347   2.156   1.713   0.780  0.5732 -0.1096 -0.0265
  394SOL    HW2 1348   2.087   1.684   0.840 -0.0092  0.0534 -0.6019
  394SOL    HW3 1349   2.122   1.693   0.693  0.1182  2.2656 -0.4687
  394SOL    MW4 1350   2.142   1.706   0.777  0.2634 -0.1816  0.2893
  395SOL     OW 1351   6.157   2.539   0.118 -0.0522  0.0080  0.0783
  395SOL    HW2 1352   6.218   2.598   0.163 -0.3316  0.3042  0.0674
  395SOL    HW3 1353   6.130   2.477   0.186  0.3705 -0.2126  0.0496
  395SOL    MW4 1354   6.162   2.539   0.133  0.1119 -0.0824  0.1706
  396SOL     OW 1355   0.854   1.064   0.727 -0.1413  0.0058  0.0275
  396SOL    HW2 1356   0.906   1.141   0.704 -0.1947 -0.1534 -0.6346
  396SOL    HW3 1357   0.778   1.099   0.773  0.7460  0.2199  1.4011
  396SOL    MW4 1358   0.851   1.079   0.730 -0.3168 -0.0687 -0.0217
  397SOL     OW 1359   3.185   6.339   3.773  0.7399 -0.2152  0.1992
  397SOL    HW2 1360   3.276   6.349   3.801  0.5580  0.8693  0.4362
  397SOL    HW3 1361   3.134   6.340   3.854  0.4001  0.7682 -0.0058
  397SOL    MW4 1362   3.190   6.340   3.787 -0.9471 -0.0870 -0.1393
  398SOL     OW 1363   5.845   6.160   0.370  0.2841  0.3012 -0.1198
  398SOL    HW2 1364   5.857   6.080   0.318  1.4219 -0.2083  0.8692
  398SOL    HW3 1365   5.856   6.131   0.461 -1.1554  1.2594  0.3962
  398SOL    MW4 1366   5.848   6.145   0.375 -0.0616 -0.3432 -0.1201
  399SOL     OW 1367   4.292   4.772   4.674 -0.3836 -0.5447 -0.0385
  399SOL    HW2 1368   4.287   4.696   4.732 -1.6434 -1.2805 -1.0619
  399SOL    HW3 1369   4.235   4.750   4.601  0.3399  0.8052 -1.0511
  399SOL    MW4 1370   4.284   4.759   4.672  0.1835 -0.7310  0.0510
  400SOL     OW 1371   5.883   6.261   2.878 -1.3443  0.2883 -0.1139
  400SOL    HW2 1372   5.802   6.226   2.840 -0.5920 -0.6898 -0.8425
  400SOL    HW3 1373   5.943   6.270   2.804 -0.4622  0.0985  0.5612
  400SOL    MW4 1374   5.880   6.258   2.863  0.4725 -0.0742  0.1309
  401SOL     OW 1375   0.705   2.638   3.063 -0.2765  0.0428 -0.0474
  401SOL    HW2 1376   0.722   2.690   3.142 -0.4197  0.9498 -0.5980
  401SOL    HW3 1377   0.703   2.702   2.992 -1.6793 -0.5663 -0.5901
  401SOL    MW4 1378   0.707   2.653   3.064  0.3202  0.1147  0.1955
  402SOL     OW 1379   3.863   2.111   1.533 -0.5610  0.2080 -0.2910
  402SOL    HW2 1380   3.895   2.045   1.595 -0.4998 -1.1488 -1.6772
  402SOL    HW3 1381   3.810   2.170   1.585  0.4024 -0.2299  1.2346
  402SOL    MW4 1382   3.860   2.110   1.548  0.7389  0.4402  0.1358
  403SOL     OW 1383   0.045   4.259   4.224 -0.0373  0.6773  0.2342
  403SOL    HW2 1384  -0.013   4.185   4.207 -0.3803  1.3205 -1.5526
  403SOL    HW3 1385   0.123   4.219   4.263 -0.4885 -0.5418 -0.0499
  403SOL    MW4 1386   0.048   4.244   4.227 -0.3478  0.5182  0.5294
  404SOL     OW 1387   2.391   4.821   2.526 -0.1443  0.2087 -1.0667
  404SOL    HW2 1388   2.321   4.769   2.563  0.2359  0.3396 -0.1278
  404SOL    HW3 1389   2.353   4.909   2.517 -0.7099 -0.1495 -2.4322
  404SOL    MW4 1390   2.377   4.826   2.529  0.0152  0.1129 -0.2191
  405SOL     OW 1391   2.841   6.225   5.083  0.3567  0.4483 -0.2991
  405SOL    HW2 1392   2.785   6.153   5.114 -0.7292  0.7968 -1.3559
  405SOL    HW3 1393   2.799   6.304   5.117 -0.2946  0.7661 -1.7724
  405SOL    MW4 1394   2.828   6.226   5.092  0.5454 -0.0451 -0.8608
  406SOL     OW 1395   3.779   4.338   5.461 -0.4086  0.0967  0.1199
  406SOL    HW2 1396   3.831   4.286   5.523 -1.7277 -0.2821  0.9323
  406SOL    HW3 1397   3.794   4.296   5.376  0.2269 -0.3023  0.4219
  406SOL    MW4 1398   3.788   4.326   5.458  0.2286 -0.2861  0.7910
  407SOL     OW 1399   3.203   4.020   1.409  0.0794  0.2630 -0.1228
  407SOL    HW2 1400   3.166   4.068   1.334 -2.8500 -1.0021  0.3759
  407SOL    HW3 1401   3.208   3.930   1.379  0.5060  0.0298  0.6486
  407SOL    MW4 1402   3.198   4.015   1.395  0.4368  0.4044  0.1454
  408SOL     OW 1403   1.180   2.287   5.701 -0.6375 -0.3101  0.2468
  408SOL    HW2 1404   1.157   2.244   5.618  0.7403 -0.5909 -0.0131
  408SOL    HW3 1405   1.176   2.381   5.682 -1.4151 -0.3474  0.1851
  408SOL    MW4 1406   1.177   2.294   5.688  0.0819  0.1249 -0.3100
  409SOL     OW 1407   3.324   3.239   3.656 -0.1962  0.0077  0.4088
  409SOL    HW2 1408   3.277   3.302   3.710  0.4764  0.7451  0.1559
  409SOL    HW3 1409   3.256   3.183   3.619 -0.7435  0.1155  1.2245
  409SOL    MW4 1410   3.309   3.240   3.659 -0.1195  0.2018 -0.4570
  410SOL     OW 1411   5.021   2.637   5.651  0.0801  0.3943  0.4152
  410SOL    HW2 1412   4.979   2.708   5.602  0.9761  0.3070 -0.5193
  410SOL    HW3 1413   4.965   2.561   5.634  0.2290  0.4280 -0.2638
  410SOL    MW4 1414   5.008   2.636   5.642 -0.0128  0.1075  0.5635
  411SOL     OW 1415   5.514   5.967   6.381  0.2582  0.0478  0.1370
  411SOL    HW2 1416   5.426   5.941   6.354 -0.0215  1.7306 -0.6755
  411SOL    HW3 1417   5.543   5.896   6.438 -0.3514 -2.1291 -2.0817
  411SOL    MW4 1418   5.506   5.954   6.385 -0.3158 -0.0352  0.6966
  412SOL     OW 1419   1.627   3.923   4.930  0.8053 -0.0206 -0.4988
  412SOL    HW2 1420   1.655   3.895   5.017 -0.5749  0.3810  0.1191
  412SOL    HW3 1421   1.682   3.999   4.910  1.5261 -0.4690 -0.2341
  412SOL    MW4 1422   1.638   3.929   4.939 -0.4380  0.0834  0.2578
  413SOL     OW 1423   0.364   1.642   5.153  0.2360 -0.5166 -0.0384
  413SOL    HW2 1424   0.302   1.668   5.221  0.4213  2.3879 -0.8311
  413SOL    HW3 1425   0.444   1.620   5.200  0.3228  1.3324  0.7482
  413SOL    MW4 1426   0.367   1.643   5.168  0.1314  0.4495  0.7566
  414SOL     OW 1427   0.241   2.307   1.172 -0.2504 -0.7604 -0.0009
  414SOL    HW2 1428   0.224   2.290   1.265 -2.0773 -1.5315 -0.4454
  414SOL    HW3 1429   0.156   2.331   1.136  0.6038  0.3949 -1.3152
  414SOL    MW4 1430   0.228   2.308   1.179  0.2139 -0.0958  0.2485
  415SOL     OW 1431   1.418   2.337   3.554 -0.0911  0.3442  0.2263
  415SOL    HW2 1432   1.434   2.429   3.531  0.8001 -0.2116 -1.5243
  415SOL    HW3 1433   1.417   2.291   3.471 -3.2032 -0.8993  0.8261
  415SOL    MW4 1434   1.420   2.343   3.540  0.4315 -0.3160  0.5670
  416SOL     OW 1435   6.193   5.736   2.133  0.0955 -0.2208 -0.1408
  416SOL    HW2 1436   6.116   5.745   2.190  1.2444  0.5377  1.3630
  416SOL    HW3 1437   6.252   5.679   2.182  1.8116  1.7963  0.2849
  416SOL    MW4 1438   6.191   5.729   2.147  0.2488  0.4495  0.8260
  417SOL     OW 1439   0.879   3.997   0.154  0.1537 -0.8890  1.2526
  417SOL    HW2 1440   0.913   3.975   0.068 -0.0611 -0.4558  1.0545
  417SOL    HW3 1441   0.911   3.928   0.211  1.6043 -0.3552  1.1244
  417SOL    MW4 1442   0.888   3.985   0.151  0.5728 -0.1326  0.2990
  418SOL     OW 1443   2.722   3.776   0.534 -0.0783 -0.0250  0.3375
  418SOL    HW2 1444   2.704   3.763   0.627 -0.8520 -0.2482  0.1644
  418SOL    HW3 1445   2.818   3.770   0.527 -0.1133 -1.9254  0.8347
  418SOL    MW4 1446   2.733   3.773   0.546 -0.6914  0.4826  0.4513
  419SOL     OW 1447   3.456   4.083   5.079  0.5084 -0.5172  0.1471
  419SOL    HW2 1448   3.511   4.161   5.071  1.9160 -1.4968 -0.1244
  419SOL    HW3 1449   3.368   4.117   5.090  1.1600  1.1217  0.6161
  419SOL    MW4 1450   3.452   4.098   5.080  0.4127  0.9670  0.2176
  420SOL     OW 1451   4.759   5.815   3.762  0.5838  0.3251 -0.0699
  420SOL    HW2 1452   4.752   5.903   3.798  2.0558  0.6943 -0.5949
  420SOL    HW3 1453   4.683   5.768   3.797 -0.4519  1.8956 -0.0918
  420SOL    MW4 1454   4.748   5.820   3.771 -0.1307  0.1565 -0.5111
  421SOL     OW 1455   3.433   4.405   5.242  0.3604  0.1288 -0.0106
  421SOL    HW2 1456   3.479   4.389   5.324  0.7010  1.3275  0.0449
  421SOL    HW3 1457   3.497   4.382   5.174 -0.3824 -2.2394 -0.0058
  421SOL    MW4 1458   3.448   4.400   5.244 -0.0454 -0.1895 -0.2079
  422SOL     OW 1459   4.891   5.127   3.938  0.2100 -0.7467 -0.0193
  422SOL    HW2 1460   4.925   5.205   3.894  0.8896 -0.7575  0.4689
  422SOL    HW3 1461   4.883   5.152   4.030 -1.6821 -0.5662 -0.1916
  422SOL    MW4 1462   4.895   5.140   3.944  0.4707 -0.2344  0.1264
  423SOL     OW 1463   0.200   3.195   0.988 -0.3639  0.3208  0.2494
  423SOL    HW2 1464   0.107   3.176   0.986 -0.3748  0.4552 -0.9656
  423SOL    HW3 1465   0.229   3.184   0.898  0.2741  2.8738  0.0683
  423SOL    MW4 1466   0.192   3.191   0.976 -0.4761 -0.4902  0.1681
  424SOL     OW 1467   5.543   6.002   5.826  0.0025 -0.3693 -0.5889
  424SOL    HW2 1468   5.576   6.055   5.899 -0.9044  2.4034 -2.0352
  424SOL    HW3 1469   5.617   5.997   5.766  0.4127 -1.7262 -0.0021
  424SOL    MW4 1470   5.557   6.009   5.828  0.2641  0.2086 -0.4004
  425SOL     OW 1471   3.333   0.776   3.317 -0.5420  0.1057 -0.0828
  425SOL    HW2 1472   3.352   0.865   3.345  3.4491 -0.1450 -1.4384
  425SOL    HW3 1473   3.341   0.723   3.397  1.8333  0.4563 -0.0408
  425SOL    MW4 1474   3.336   0.780   3.332 -0.2469  0.1793  0.3565
  426SOL     OW 1475   3.068   4.314   5.305 -0.1901  0.1702 -0.0396
  426SOL    HW2 1476   3.108   4.398   5.278  0.5446 -0.1300  0.0830
  426SOL    HW3 1477   3.107   4.296   5.390 -0.7866 -0.0171  0.1944
  426SOL    MW4 1478   3.079   4.323   5.312  0.1629 -0.0249 -0.4003
  427SOL     OW 1479   1.061   4.303   1.429  0.4414  0.4230  0.2039
  427SOL    HW2 1480   1.099   4.350   1.354  2.0105  0.8945  1.2512
  427SOL    HW3 1481   0.972   4.339   1.437  0.1498  0.2168 -1.5190
  427SOL    MW4 1482   1.054   4.314   1.420  0.0727  0.2278  0.2860
  428SOL     OW 1483   0.564   6.003   2.453  0.6312 -0.0291  0.1484
  428SOL    HW2 1484   0.641   6.059   2.464  0.9678 -0.6203  0.8617
  428SOL    HW3 1485   0.590   5.919   2.490 -0.7512  0.0818  1.4851
  428SOL    MW4 1486   0.577   5.999   2.459  0.2879  0.8574  0.4105
  429SOL     OW 1487   1.021   0.144   2.690 -0.2384 -0.0613  0.3749
  429SOL    HW2 1488   1.107   0.173   2.659 -0.0509 -1.4865 -0.5282
  429SOL    HW3 1489   0.959   0.183   2.629 -0.2123  0.5994  0.7588
  429SOL    MW4 1490   1.024   0.153   2.678  0.3285  0.5185  0.2500
  430SOL     OW 1491   1.006   1.529   0.898 -0.3300 -0.4096 -0.0715
  430SOL    HW2 1492   1.001   1.559   0.808 -2.9384 -1.1496 -0.2634
  430SOL    HW3 1493   0.985   1.606   0.951  1.4164  0.0775 -0.0425
  430SOL    MW4 1494   1.002   1.543   0.893  0.0393  0.3266  0.4220
  431SOL     OW 1495   5.743   0.582   3.484  0.0990 -0.4887  0.2680
  431SOL    HW2 1496   5.736   0.677   3.471 -1.7216 -0.4989  0.9690
  431SOL    HW3 1497   5.837   0.567   3.494  0.5278  1.0640 -1.0328
  431SOL    MW4 1498   5.755   0.593   3.484  0.0547 -0.4800  0.1638
  432SOL     OW 1499   3.435   2.059   5.725  0.4786  0.3531 -0.1593
  432SOL    HW2 1500   3.517   2.088   5.764  0.1340  0.4204  0.5187
  432SOL    HW3 1501   3.376   2.044   5.799 -0.5736  1.6433 -0.6834
  432SOL    MW4 1502   3.438   2.061   5.740 -0.4276 -0.0562 -0.1423
  433SOL     OW 1503   1.597   1.812   0.394 -0.8035 -0.3254  0.4280
  433SOL    HW2 1504   1.690   1.807   0.417 -0.5104  1.8635 -0.0811
  433SOL    HW3 1505   1.572   1.903   0.413 -3.0160 -1.0038  1.1075
  433SOL    MW4 1506   1.606   1.823   0.400 -0.1609 -0.1130  0.1968
  434SOL     OW 1507   2.393   4.947   0.663 -0.1756 -0.1589  0.5444
  434SOL    HW2 1508   2.380   5.033   0.623 -0.0608 -1.2572 -2.0651
  434SOL    HW3 1509   2.398   4.965   0.757 -1.5111  2.4993  0.2160
  434SOL    MW4 1510   2.392   4.961   0.670 -0.1054  0.0684 -0.7378
  435SOL     OW 1511   2.692   5.272   1.408  0.0816 -0.0857  0.2813
  435SOL    HW2 1512   2.607   5.298   1.374  0.0573 -0.2973  0.1760
  435SOL    HW3 1513   2.700   5.317   1.492 -0.0167  0.1457  0.1643
  435SOL    MW4 1514   2.682   5.281   1.415 -0.6210  0.1750  0.0186
  436SOL     OW 1515   0.025   0.439   0.749 -0.5689  0.2540 -0.2058
  436SOL    HW2 1516   0.114   0.467   0.770 -0.8205  0.6922  0.3071
  436SOL    HW3 1517  -0.029   0.516   0.766 -1.2881 -0.5382  1.3038
  436SOL    MW4 1518   0.030   0.453   0.754  0.0363 -0.5878 -0.0035
  437SOL     OW 1519   3.846   2.611   0.644  0.4265  0.0461 -0.3919
  437SOL    HW2 1520   3.750   2.616   0.651  0.3945 -0.7362 -0.1696
  437SOL    HW3 1521   3.863   2.521   0.616  1.0370  0.5360 -1.6716
  437SOL    MW4 1522   3.835   2.599   0.641 -0.2122  0.3971 -0.0790
  438SOL     OW 1523   5.012   2.194   1.756  0.0184 -0.5505  0.1344
  438SOL    HW2 1524   5.054   2.149   1.683  2.3284  0.9555  0.4178
  438SOL    HW3 1525   5.004   2.126   1.824  2.5292 -0.8842  0.2167
  438SOL    MW4 1526   5.016   2.179   1.755  0.1435 -0.2937 -0.8230
  439SOL     OW 1527   6.030   0.424   4.999  0.5380  0.1602  0.0054
  439SOL    HW2 1528   6.114   0.447   4.959  0.6876  0.5343  0.5265
  439SOL    HW3 1529   6.052   0.361   5.067  0.2254 -0.8544 -0.8231
  439SOL    MW4 1530   6.044   0.419   5.002  0.0898 -0.3016 -0.1801
  440SOL     OW 1531   2.767   6.051   0.242 -0.1426  0.1068  0.0653
  440SOL    HW2 1532   2.845   6.024   0.194 -0.1874 -0.4607  0.3044
  440SOL    HW3 1533   2.731   5.969   0.277 -0.2537  0.4796  0.8459
  440SOL    MW4 1534   2.772   6.036   0.240  0.0250  0.1071  1.2213
  441SOL     OW 1535   4.251   4.555   1.402 -0.7715  0.5135  0.2844
  441SOL    HW2 1536   4.309   4.625   1.435 -0.7963  0.8420 -0.3575
  441SOL    HW3 1537   4.263   4.483   1.465  1.6240 -0.0638 -0.7077
  441SOL    MW4 1538   4.260   4.555   1.415 -0.2738 -0.2656  0.6375
  442SOL     OW 1539   0.212   4.624   5.458  0.0240 -0.1892 -0.6880
  442SOL    HW2 1540   0.195   4.716   5.436 -0.1505 -0.2680 -0.8870
  442SOL    HW3 1541   0.250   4.587   5.378  2.8620  0.4101  0.2686
  442SOL    MW4 1542   0.214   4.632   5.444  0.1978  0.3241 -0.6683
  443SOL     OW 1543   1.330   3.090   1.671 -0.3397  0.3559 -0.5009
  443SOL    HW2 1544   1.245   3.048   1.665  0.2025 -0.7765 -0.5974
  443SOL    HW3 1545   1.317   3.164   1.731 -1.6910  1.0491 -1.6161
  443SOL    MW4 1546   1.317   3.094   1.678  0.0454 -0.0019 -0.0759
  444SOL     OW 1547   5.016   1.897   5.334 -0.4128 -0.1576  0.2655
  444SOL    HW2 1548   5.074   1.972   5.323  0.0506 -0.3442  1.3473
  444SOL    HW3 1549   4.929   1.931   5.315  0.0031  0.1817 -1.1630
  444SOL    MW4 1550   5.012   1.911   5.330 -0.1491 -0.2441 -0.0530
  445SOL     OW 1551   1.040   3.135   1.883 -0.9711 -0.1582 -0.5044
  445SOL    HW2 1552   1.033   3.063   1.819 -0.7412 -0.1311 -0.5599
  445SOL    HW3 1553   0.950   3.147   1.914 -1.1576  0.0905 -1.1148
  445SOL    MW4 1554   1.027   3.127   1.878  0.4440 -0.1202  0.0380
  446SOL     OW 1555   5.135   3.292   5.829 -0.1553 -0.3019 -0.1634
  446SOL    HW2 1556   5.150   3.198   5.814 -0.1073 -0.2830 -0.2362
  446SOL    HW3 1557   5.046   3.296   5.865 -0.8252 -0.2456 -1.7272
  446SOL    MW4 1558   5.125   3.280   5.832 -0.2383 -0.0126  0.4242
  447SOL     OW 1559   5.275   2.062   6.086 -0.4091  0.2120 -0.5282
  447SOL    HW2 1560   5.282   1.971   6.116 -0.4630 -0.4921 -2.4955
  447SOL    HW3 1561   5.208   2.101   6.142  0.8743 -0.3933  1.5533
  447SOL    MW4 1562   5.267   2.055   6.097 -0.0815  0.7882  0.4257
  448SOL     OW 1563   2.496   4.816   1.335  0.5681 -0.1641  0.0067
  448SOL    HW2 1564   2.522   4.735   1.378  0.6146 -0.7495 -1.0937
  448SOL    HW3 1565   2.536   4.885   1.388  3.0356 -0.9521 -0.6940
  448SOL    MW4 1566   2.505   4.814   1.348 -0.2842  0.5778 -0.3790
  449SOL     OW 1567   2.033   3.370   5.395  0.0136 -0.0422 -0.0377
  449SOL    HW2 1568   1.979   3.410   5.464 -0.5056 -2.9232  1.3899
  449SOL    HW3 1569   2.122   3.374   5.428  0.2121  1.3440 -0.6753
  449SOL    MW4 1570   2.037   3.376   5.408  0.5396  0.1543  0.4425
  450SOL     OW 1571   6.086   5.331   1.709 -0.3377 -0.6572  0.4508
  450SOL    HW2 1572   6.085   5.406   1.769 -2.4909  0.0893 -0.4540
  450SOL    HW3 1573   6.011   5.278   1.735 -2.8750  0.9126 -2.9579
  450SOL    MW4 1574   6.076   5.334   1.720  0.7556  0.4713  0.2975
  451SOL     OW 1575   5.779   4.497   0.906  0.6042 -0.5147  0.3008
  451SOL    HW2 1576   5.781   4.557   0.832 -0.1068 -0.9322 -0.0735
  451SOL    HW3 1577   5.686   4.492   0.931  0.8021 -0.5711  1.0571
  451SOL    MW4 1578   5.767   4.504   0.899  0.7244  0.1148  0.1162
  452SOL     OW 1579   5.490   4.915   3.156 -0.4223 -0.0617 -0.6993
  452SOL    HW2 1580   5.483   4.912   3.252 -0.4492  1.7638 -0.6086
  452SOL    HW3 1581   5.421   4.975   3.129 -1.7096 -2.0414 -2.0724
  452SOL    MW4 1582   5.480   4.922   3.165  0.5499  0.1506 -0.5434
  453SOL     OW 1583   0.470   3.655   5.802  0.8987 -0.1174 -0.1599
  453SOL    HW2 1584   0.564   3.651   5.788  0.9872 -1.3564  0.5823
  453SOL    HW3 1585   0.432   3.658   5.715  1.6449  3.3343 -0.5275
  453SOL    MW4 1586   0.477   3.655   5.789  0.1124  0.2866  0.2012
  454SOL     OW 1587   1.220   5.396   2.204  0.1140 -0.8063  0.8239
  454SOL    HW2 1588   1.163   5.407   2.280 -0.2758  1.8855  0.2656
  454SOL    HW3 1589   1.300   5.443   2.227 -0.0104  0.0394 -0.3849
  454SOL    MW4 1590   1.223   5.404   2.217 -0.1586  0.2071 -0.1138
  455SOL     OW 1591   2.558   6.346   4.681 -0.4513 -0.3677 -0.2762
  455SOL    HW2 1592   2.605   6.356   4.598  2.0719  0.5983  1.1947
  455SOL    HW3 1593   2.567   6.253   4.702  0.6380 -0.2312 -0.1172
  455SOL    MW4 1594   2.565   6.335   4.673 -0.5884 -0.4523 -0.2938
  456SOL     OW 1595   1.921   0.959   1.055  0.1552  0.2401  0.6112
  456SOL    HW2 1596   1.841   0.961   1.001  1.3573  0.6490 -1.2265
  456SOL    HW3 1597   1.960   1.045   1.042  1.8539 -0.5957 -0.0516
  456SOL    MW4 1598   1.915   0.971   1.046  0.0471  0.3476  0.4484
  457SOL     OW 1599   4.001   3.636   3.099 -0.3614 -0.3274 -0.4350
  457SOL    HW2 1600   4.007   3.560   3.156  0.7784 -0.4683 -0.7256
  457SOL    HW3 1601   3.994   3.711   3.158  1.1955 -0.4342 -0.0732
  457SOL    MW4 1602   4.001   3.636   3.114 -0.3845  0.0483  1.0658
  458SOL     OW 1603   5.712   4.607   3.050 -0.0040 -0.4632 -0.3464
  458SOL    HW2 1604   5.779   4.633   2.988  1.3256 -0.2255  1.1284
  458SOL    HW3 1605   5.639   4.576   2.996  0.5188  1.1011 -2.0336
  458SOL    MW4 1606   5.711   4.607   3.035  0.2546 -0.0290 -0.1890
  459SOL     OW 1607   2.960   0.091   0.563  0.3900 -0.1147 -0.0537
  459SOL    HW2 1608   2.914   0.011   0.537  1.6725 -0.8675 -0.1141
  459SOL    HW3 1609   3.017   0.063   0.635  0.8352  0.7573 -0.0592
  459SOL    MW4 1610   2.961   0.077   0.569 -0.5574  0.0634  0.2356
  460SOL     OW 1611   3.914   1.642   0.280 -0.4262 -0.3240  0.3045
  460SOL    HW2 1612   3.828   1.676   0.259 -0.8287 -1.2724  0.3724
  460SOL    HW3 1613   3.904   1.547   0.276  0.9051 -0.4530 -0.8582
  460SOL    MW4 1614   3.902   1.634   0.277 -0.1226  0.7718  0.6957
  461SOL     OW 1615   2.495   5.066   0.933  0.1851  0.3876  0.2580
  461SOL    HW2 1616   2.583   5.053   0.969 -0.9213 -0.3030  2.9350
  461SOL    HW3 1617   2.459   5.139   0.983 -1.1027  0.0102 -0.0797
  461SOL    MW4 1618   2.502   5.074   0.944  0.3695  0.1876  0.4724
  462SOL     OW 1619   1.707   4.420   5.353  0.2202 -0.1214 -0.2981
  462SOL    HW2 1620   1.625   4.372   5.362  0.4685 -0.7927 -1.4620
  462SOL    HW3 1621   1.775   4.353   5.348  0.6298  0.3482 -1.3393
  462SOL    MW4 1622   1.705   4.405   5.353  0.2598 -0.3258  0.8615
  463SOL     OW 1623   4.584   4.956   0.070  0.0667 -0.6547 -0.0127
  463SOL    HW2 1624   4.521   5.000   0.013  0.9454  0.6332 -0.0396
  463SOL    HW3 1625   4.612   5.024   0.132  0.1625 -1.6625  1.0779
  463SOL    MW4 1626   4.579   4.971   0.071 -0.0075 -0.4721 -0.1755
  464SOL     OW 1627   4.537   1.049   4.987  0.0511  0.4176 -0.0785
  464SOL    HW2 1628   4.526   0.977   4.924  2.0036  0.8090 -0.9655
  464SOL    HW3 1629   4.627   1.078   4.973 -0.2686  2.1592  1.2103
  464SOL    MW4 1630   4.547   1.043   4.977  0.0851  0.3024 -0.1785
  465SOL     OW 1631   0.208   6.190   2.480  0.5434 -0.5432  0.0968
  465SOL    HW2 1632   0.125   6.231   2.457  0.5946 -0.5461 -0.0947
  465SOL    HW3 1633   0.261   6.196   2.400  0.6500 -0.7317  0.1522
  465SOL    MW4 1634   0.204   6.196   2.467  0.0850  0.3826  0.0087
  466SOL     OW 1635   0.952   6.243   3.146 -0.0360  0.2095 -0.0734
  466SOL    HW2 1636   1.015   6.264   3.078  0.2192  0.7576  0.3205
  466SOL    HW3 1637   0.889   6.316   3.143 -2.0137 -1.4334 -2.0109
  466SOL    MW4 1638   0.952   6.255   3.137 -0.4911  0.2763  0.3523
  467SOL     OW 1639   0.786   0.971   2.341 -0.0065  0.1420  0.4084
  467SOL    HW2 1640   0.836   1.016   2.409  0.0589  0.2907  0.2618
  467SOL    HW3 1641   0.753   1.041   2.285  1.7836 -0.0691 -1.0117
  467SOL    MW4 1642   0.788   0.986   2.343 -0.2738 -0.1816 -0.3557
  468SOL     OW 1643   4.983   1.936   5.633  0.5341  1.1072 -0.0710
  468SOL    HW2 1644   4.990   1.905   5.543  0.4677 -0.5945  0.4820
  468SOL    HW3 1645   4.958   2.028   5.624 -0.6446  0.6813 -1.7828
  468SOL    MW4 1646   4.981   1.944   5.620 -0.0933 -0.2608 -0.3019
  469SOL     OW 1647   4.743   0.073   4.195  0.2057  0.0578  0.2324
  469SOL    HW2 1648   4.838   0.066   4.201  0.2303 -0.3885 -0.5343
  469SOL    HW3 1649   4.725   0.084   4.101 -0.4677  0.6482  0.4222
  469SOL    MW4 1650   4.753   0.074   4.183  0.3612  0.5095  0.1673
  470SOL     OW 1651   5.624   3.869   4.021 -0.0878 -0.1418 -0.6247
  470SOL    HW2 1652   5.686   3.816   4.072  0.8912 -0.2912 -1.9251
  470SOL    HW3 1653   5.665   3.878   3.935 -2.2882 -1.0147 -1.8416
  470SOL    MW4 1654   5.638   3.863   4.017 -0.0369 -0.4119 -0.0911
  471SOL     OW 1655   1.518   1.427   5.674  0.6589 -0.0831 -0.3093
  471SOL    HW2 1656   1.577   1.459   5.606  0.3332  1.1969 -0.0189
  471SOL    HW3 1657   1.456   1.498   5.687  0.7216 -0.2928  1.3462
  471SOL    MW4 1658   1.517   1.440   5.667  0.2691  0.1078  0.1360
  472SOL     OW 1659   5.933   3.397   1.821 -0.1660  0.2509  0.5250
  472SOL    HW2 1660   5.897   3.403   1.909 -3.0854  0.5019 -0.5566
  472SOL    HW3 1661   5.864   3.354   1.770  1.6099 -0.3321 -1.5533
  472SOL    MW4 1662   5.919   3.392   1.826 -0.0600 -0.3702  0.2194
  473SOL     OW 1663   5.113   0.607   1.947  0.6242 -0.3754  0.9846
  473SOL    HW2 1664   5.059   0.562   2.012 -1.2880 -1.0398 -0.9360
  473SOL    HW3 1665   5.114   0.698   1.975 -2.0068 -0.2388  0.8741
  473SOL    MW4 1666   5.106   0.613   1.959 -0.5360  0.3611  0.0854
  474SOL     OW 1667   4.627   6.336   3.820  0.0511  0.0370 -0.3034
  474SOL    HW2 1668   4.632   6.242   3.835 -0.3697 -0.2572 -1.8338
  474SOL    HW3 1669   4.587   6.344   3.733 -0.2215  1.6340 -0.0513
  474SOL    MW4 1670   4.623   6.325   3.810 -0.3273 -0.2251  0.2023
  475SOL     OW 1671   6.122   4.756   0.471  0.1646  0.7209 -0.3031
  475SOL    HW2 1672   6.217   4.752   0.462  0.1633  0.1423 -0.0853
  475SOL    HW3 1673   6.090   4.690   0.410 -0.0688  0.4826  0.0725
  475SOL    MW4 1674   6.131   4.747   0.462  0.0406  0.6841 -0.3247
  476SOL     OW 1675   5.509   5.311   1.757  0.0183 -0.0406 -0.1155
  476SOL    HW2 1676   5.603   5.291   1.760  0.1762  0.6231 -0.4326
  476SOL    HW3 1677   5.489   5.317   1.664 -0.1625  0.6008 -0.0412
  476SOL    MW4 1678   5.519   5.309   1.745 -0.5212 -0.7867  0.3260
  477SOL     OW 1679   5.226   5.081   3.066 -0.5231 -0.2125  0.7646
  477SOL    HW2 1680   5.164   5.009   3.056  1.2124 -1.5689 -0.8607
  477SOL    HW3 1681   5.172   5.160   3.055 -1.9535 -1.3226 -0.7428
  477SOL    MW4 1682   5.210   5.082   3.064  0.0597 -0.0806  0.5523
  478SOL     OW 1683   3.383   5.738   2.639  0.3620  0.3814  0.2920
  478SOL    HW2 1684   3.369   5.741   2.733 -0.2037 -0.7011  0.2600
  478SOL    HW3 1685   3.464   5.786   2.625  0.0055  1.2920  1.2299
  478SOL    MW4 1686   3.392   5.745   2.649  0.2163  0.2100  0.3417
  479SOL     OW 1687   5.084   0.589   4.749  0.3417  0.2248 -0.5753
  479SOL    HW2 1688   5.154   0.543   4.702  0.0527  1.0814 -1.8986
  479SOL    HW3 1689   5.010   0.528   4.747  0.1614  0.4527 -1.7484
  479SOL    MW4 1690   5.084   0.575   4.743  0.1775  0.2999 -0.3807
  480SOL     OW 1691   4.335   0.427   1.929  0.4108  0.2768 -0.3448
  480SOL    HW2 1692   4.347   0.397   2.019  3.0343  0.8131 -0.4463
  480SOL    HW3 1693   4.240   0.431   1.918 -0.0070 -1.7239  1.7217
  480SOL    MW4 1694   4.324   0.424   1.939 -0.5224 -0.3766 -0.0273
  481SOL     OW 1695   2.888   4.468   1.787  0.2989 -0.8313  0.0238
  481SOL    HW2 1696   2.825   4.397   1.798  0.6481 -1.1258  0.1635
  481SOL    HW3 1697   2.932   4.474   1.872  0.3652 -0.5379 -0.0307
  481SOL    MW4 1698   2.886   4.459   1.800  0.1879 -0.1499 -0.7682
  482SOL     OW 1699   6.004   2.727   3.105  0.2629  0.5806 -0.1540
  482SOL    HW2 1700   6.067   2.674   3.153  0.1220 -1.1848 -1.8217
  482SOL    HW3 1701   5.921   2.712   3.150  0.3907  0.0995 -0.0744
  482SOL    MW4 1702   6.001   2.718   3.117 -0.5859 -0.5658 -0.1388
  483SOL     OW 1703   5.071   4.057   2.652  0.1578  0.6330  0.2126
  483SOL    HW2 1704   5.130   3.983   2.664 -2.1362 -2.0551 -3.2402
  483SOL    HW3 1705   5.103   4.101   2.573  0.4255  2.3590  1.2116
  483SOL    MW4 1706   5.083   4.053   2.643  0.0967  0.4058 -0.6213
  484SOL     OW 1707   1.455   1.765   2.290 -0.1189 -0.0530  0.2700
  484SOL    HW2 1708   1.482   1.674   2.286 -1.2630 -0.5215  2.0532
  484SOL    HW3 1709   1.533   1.812   2.320  1.3535  0.0772 -3.3433
  484SOL    MW4 1710   1.469   1.759   2.294 -0.4539 -0.2063  0.1198
  485SOL     OW 1711   4.682   3.467   4.767  0.0190 -0.2913  0.0540
  485SOL    HW2 1712   4.674   3.556   4.802 -1.6685 -0.8967  1.3277
  485SOL    HW3 1713   4.716   3.416   4.841 -0.3462 -0.9526 -0.2334
  485SOL    MW4 1714   4.686   3.472   4.782 -0.0092  0.1063 -0.2560
  486SOL     OW 1715   0.983   1.559   1.555 -0.4462  0.0150  0.5087
  486SOL    HW2 1716   1.039   1.491   1.593 -0.0773 -0.5284 -0.9199
  486SOL    HW3 1717   0.895   1.523   1.559 -0.3843 -0.1171  0.6867
  486SOL    MW4 1718   0.979   1.546   1.560  0.1967  0.0544  0.0928
  487SOL     OW 1719   2.246   0.861   5.671  0.4791  0.3601 -0.2675
  487SOL    HW2 1720   2.239   0.944   5.718  0.7609 -0.3886  1.1427
  487SOL    HW3 1721   2.299   0.881   5.594 -1.5551  2.0475 -1.3434
  487SOL    MW4 1722   2.252   0.874   5.667  0.4133  0.0976 -0.5625
  488SOL     OW 1723   2.139   5.515   1.990  0.2201  0.3002  0.4591
  488SOL    HW2 1724   2.047   5.531   2.010 -0.1449 -1.5360  0.4205
  488SOL    HW3 1725   2.187   5.566   2.055 -0.7320  2.7306 -0.5959
  488SOL    MW4 1726   2.133   5.524   2.001 -0.0881 -0.2121 -0.1049
  489SOL     OW 1727   0.735   6.124   1.735 -0.5644 -0.0383 -0.0667
  489SOL    HW2 1728   0.731   6.029   1.726 -0.5893 -0.1249  0.7799
  489SOL    HW3 1729   0.825   6.142   1.764 -0.6678  0.1562  0.1425
  489SOL    MW4 1730   0.747   6.114   1.738 -0.1369  0.2623  0.1100
  490SOL     OW 1731   0.087   1.903   3.331 -0.1858  0.7705  0.0590
  490SOL    HW2 1732   0.040   1.986   3.331 -0.7701  0.5187 -2.0254
  490SOL    HW3 1733   0.043   1.851   3.263 -0.0319 -1.3696  1.4967
  490SOL    MW4 1734   0.075   1.907   3.322 -0.1879 -0.3926 -0.2197
  491SOL     OW 1735   3.092   1.702   2.289  0.2111  0.6803  0.6519
  491SOL    HW2 1736   3.108   1.716   2.383  2.6436 -1.8186  0.7256
  491SOL    HW3 1737   3.045   1.619   2.286  2.4006 -0.5964 -0.3710
  491SOL    MW4 1738   3.088   1.693   2.301  0.2392 -0.1027 -0.0949
  492SOL     OW 1739   3.321   6.434   0.475 -0.3364  0.0671 -0.3955
  492SOL    HW2 1740   3.288   6.428   0.565  0.1882  1.5288 -0.0646
  492SOL    HW3 1741   3.282   6.360   0.429 -1.4891 -0.0773  0.7712
  492SOL    MW4 1742   3.312   6.424   0.481  0.0536 -0.0457 -0.5608
  493SOL     OW 1743   3.904   1.345   1.776 -0.4027 -0.3580 -0.3603
  493SOL    HW2 1744   3.933   1.254   1.786  2.7138  0.4969 -0.6749
  493SOL    HW3 1745   3.913   1.363   1.682 -2.7216 -0.1622 -0.6144
  493SOL    MW4 1746   3.909   1.335   1.765 -0.1438  0.2694  0.0921
  494SOL     OW 1747   1.685   5.563   2.390 -0.1712  0.3593 -0.3842
  494SOL    HW2 1748   1.648   5.505   2.457 -0.6625 -0.6743 -1.5144
  494SOL    HW3 1749   1.776   5.536   2.384 -0.3728 -0.2348 -0.8322
  494SOL    MW4 1750   1.692   5.552   2.398 -0.0330 -0.3385  0.0278
  495SOL     OW 1751   6.259   1.884   1.271 -0.0539  0.0159  0.0835
  495SOL    HW2 1752   6.206   1.840   1.338  0.4696  0.2260  0.6450
  495SOL    HW3 1753   6.348   1.886   1.308  0.4134 -0.5894 -0.9648
  495SOL    MW4 1754   6.264   1.879   1.285 -0.5445 -0.0515 -0.5598
  496SOL     OW 1755   5.367   2.570   0.584  0.6329  0.3561 -0.3169
  496SOL    HW2 1756   5.420   2.604   0.512 -0.7747  2.8298 -0.3285
  496SOL    HW3 1757   5.315   2.646   0.613 -2.2917 -1.6577  0.1835
  496SOL    MW4 1758   5.367   2.584   0.579  0.1686 -0.2373  0.0721
  497SOL     OW 1759   4.726   1.580   1.637 -0.5428  0.2192 -0.2310
  497SOL    HW2 1760   4.754   1.670   1.652 -0.8243  0.2689 -0.0012
  497SOL    HW3 1761   4.654   1.587   1.575  0.3859  0.0398 -1.3631
  497SOL    MW4 1762   4.720   1.593   1.631  0.0632 -0.7325  0.2927
  498SOL     OW 1763   1.552   1.142   4.448 -0.4532 -0.1747  0.0670
  498SOL    HW2 1764   1.632   1.195   4.447 -0.1124 -0.6306  1.6058
  498SOL    HW3 1765   1.576   1.062   4.402 -0.0768 -0.2396  0.3735
  498SOL    MW4 1766   1.566   1.139   4.442  0.2013 -0.0362  0.2040
  499SOL     OW 1767   2.374   1.698   1.664  0.1393 -0.5606 -0.3852
  499SOL    HW2 1768   2.344   1.763   1.601  0.3812 -0.3644 -0.3010
  499SOL    HW3 1769   2.295   1.672   1.711  0.2206  0.6515  0.4887
  499SOL    MW4 1770   2.359   1.703   1.662  0.4158 -0.2139 -0.5364
  500SOL     OW 1771   5.779   2.507   3.633  0.2589  0.1720 -0.4484
  500SOL    HW2 1772   5.735   2.586   3.665 -0.5949 -0.0909 -0.9592
  500SOL    HW3 1773   5.864   2.539   3.603  0.8460  0.5293  1.4343
  500SOL    MW4 1774   5.785   2.522   3.634 -0.2833 -0.3133  0.2692
  501SOL     OW 1775   4.701   5.421   2.454 -0.2794 -0.0617  1.0047
  501SOL    HW2 1776   4.695   5.391   2.545  1.6159  0.9666  1.5311
  501SOL    HW3 1777   4.702   5.517   2.460 -0.2703  0.0202 -0.1006
  501SOL    MW4 1778   4.701   5.430   2.467  0.0966  0.1336 -0.3795
  502SOL     OW 1779   4.310   3.485   1.379 -0.5177 -0.4276 -0.4815
  502SOL    HW2 1780   4.221   3.469   1.347 -0.5301 -2.9058  0.5883
  502SOL    HW3 1781   4.303   3.478   1.474  0.4915  1.4164 -0.2214
  502SOL    MW4 1782   4.297   3.482   1.387  0.7341  0.1070  0.4374
  503SOL     OW 1783   2.984   0.893   5.341 -0.2343  0.2153 -0.3464
  503SOL    HW2 1784   2.982   0.906   5.436  2.4633  0.6290 -0.2507
  503SOL    HW3 1785   2.905   0.937   5.309 -0.5774  1.1541  1.5884
  503SOL    MW4 1786   2.973   0.901   5.350 -0.1592  0.3033  0.3248
  504SOL     OW 1787   1.729   1.154   2.508  0.5612 -0.0897 -0.5717
  504SOL    HW2 1788   1.634   1.146   2.516  0.7513 -0.6280  2.3809
  504SOL    HW3 1789   1.744   1.247   2.492 -0.4579  0.0501 -0.7724
  504SOL    MW4 1790   1.718   1.165   2.507 -0.0308  0.0099 -0.5644
  505SOL     OW 1791   1.540   3.512   1.485 -1.0208  0.8059 -0.2541
  505SOL    HW2 1792   1.617   3.456   1.475 -0.5771  1.2043  0.7482
  505SOL    HW3 1793   1.539   3.567   1.407 -0.9587  0.0037 -0.8249
  505SOL    MW4 1794   1.550   3.512   1.474  0.6823 -0.4019 -0.2154
  506SOL     OW 1795   1.284   6.038   4.907 -0.6458  0.6261 -0.0870
  506SOL    HW2 1796   1.352   5.995   4.958 -2.0963  0.7271  2.0437
  506SOL    HW3 1797   1.304   6.015   4.816  0.8639 -1.2611  0.6616
  506SOL    MW4 1798   1.295   6.029   4.901  0.3461  0.3284  0.1769
  507SOL     OW 1799   0.487   4.344   3.450 -0.0358 -0.4402  0.0210
  507SOL    HW2 1800   0.460   4.253   3.464  0.9433 -0.5553  1.3198
  507SOL    HW3 1801   0.464   4.362   3.359 -0.4273 -1.9277 -0.1979
  507SOL    MW4 1802   0.480   4.334   3.440 -1.0632  0.3643 -0.0297
  508SOL     OW 1803   1.703   6.175   2.647  0.2597 -0.2474  0.5017
  508SOL    HW2 1804   1.791   6.188   2.613 -0.0364 -0.1397 -0.2350
  508SOL    HW3 1805   1.659   6.121   2.581 -0.8227  1.3042 -0.0886
  508SOL    MW4 1806   1.709   6.169   2.634 -0.0554  0.3865  0.5368
  509SOL     OW 1807   3.834   0.782   5.099  0.1164 -0.1699  0.0444
  509SOL    HW2 1808   3.783   0.715   5.055  0.4335  0.4044 -1.2374
  509SOL    HW3 1809   3.918   0.782   5.054 -0.4692  2.2989 -1.2557
  509SOL    MW4 1810   3.838   0.773   5.087 -0.0102 -0.3169 -0.3698
  510SOL     OW 1811   5.530   6.072   2.007  0.1870 -0.3558  0.4663
  510SOL    HW2 1812   5.501   6.055   1.917  1.5843 -0.3256 -0.0077
  510SOL    HW3 1813   5.584   6.151   2.001 -0.2905  0.0653  1.4589
  510SOL    MW4 1814   5.533   6.080   1.994 -0.0714  0.2839 -0.5769
  511SOL     OW 1815   3.259   1.477   4.164 -0.1283 -0.3108  0.1850
  511SOL    HW2 1816   3.311   1.536   4.109 -0.1212 -0.4749  0.0142
  511SOL    HW3 1817   3.278   1.389   4.130 -0.0672 -0.4203  0.4957
  511SOL    MW4 1818   3.269   1.473   4.152 -0.2353  0.1744 -0.3440
  512SOL     OW 1819   2.934   2.062   1.015 -0.8227  0.3229 -0.5147
  512SOL    HW2 1820   3.018   2.079   1.057 -1.4060 -0.1114  0.9019
  512SOL    HW3 1821   2.947   1.980   0.968 -0.1767  0.7722 -1.1279
  512SOL    MW4 1822   2.947   2.053   1.014 -0.3837  0.3367  0.3681
  513SOL     OW 1823   0.957   5.575   5.394 -0.4672  0.5679 -0.3759
  513SOL    HW2 1824   1.023   5.526   5.442  0.6131  1.5861 -0.7821
  513SOL    HW3 1825   0.878   5.569   5.449  0.1323 -0.1029  0.4381
  513SOL    MW4 1826   0.955   5.568   5.408  0.5827  0.5044 -0.3035
  514SOL     OW 1827   2.242   2.421   4.999 -0.7932  0.2959 -0.5518
  514SOL    HW2 1828   2.190   2.383   4.928 -2.5226 -0.1570  0.8733
  514SOL    HW3 1829   2.225   2.364   5.074  1.6160  0.2787  0.0830
  514SOL    MW4 1830   2.233   2.408   4.999  0.3561 -0.3996  0.1862
  515SOL     OW 1831   4.192   0.049   4.746  0.0281 -0.2851 -0.0715
  515SOL    HW2 1832   4.139   0.056   4.825 -2.8016  0.5962 -1.9085
  515SOL    HW3 1833   4.129   0.040   4.674  2.3651  0.4928 -2.4050
  515SOL    MW4 1834   4.177   0.049   4.747 -0.3862 -0.7969 -0.2283
  516SOL     OW 1835   3.531   3.843   2.128 -0.4356 -0.5398  0.0420
  516SOL    HW2 1836   3.568   3.849   2.039 -3.6409 -0.7053 -1.4567
  516SOL    HW3 1837   3.532   3.750   2.148  1.1621 -0.4209  0.6468
  516SOL    MW4 1838   3.536   3.832   2.119  0.1096  0.1886 -0.9519
  517SOL     OW 1839   1.205   2.154   2.877 -0.0205 -0.2757 -0.5167
  517SOL    HW2 1840   1.261   2.098   2.824  0.1912  0.1246 -0.7171
  517SOL    HW3 1841   1.133   2.097   2.904 -1.0792 -0.0477 -2.6950
  517SOL    MW4 1842   1.203   2.139   2.874 -0.4341 -0.0470  0.4928
  518SOL     OW 1843   0.694   3.026   3.414 -0.3773 -0.0149 -0.0204
  518SOL    HW2 1844   0.700   2.969   3.491 -1.0697 -0.4800 -0.3024
  518SOL    HW3 1845   0.759   3.094   3.429 -0.7050  0.0606  1.1140
  518SOL    MW4 1846   0.703   3.027   3.426  0.3698 -0.4042 -0.2077
  519SOL     OW 1847   1.722   1.148   0.051 -0.4394 -0.0877 -0.2567
  519SOL    HW2 1848   1.715   1.081  -0.018 -1.9179  1.1571 -1.4080
  519SOL    HW3 1849   1.803   1.194   0.032 -1.0539  0.5362 -1.4949
  519SOL    MW4 1850   1.731   1.145   0.039 -0.3517 -0.2954  0.3521
  520SOL     OW 1851   4.503   4.040   0.729 -0.4656  0.1200  0.1932
  520SOL    HW2 1852   4.580   4.067   0.779 -0.2106  0.3551 -0.3317
  520SOL    HW3 1853   4.469   4.121   0.691 -0.5573 -0.0868 -0.1638
  520SOL    MW4 1854   4.508   4.054   0.731 -0.3421  0.3294 -0.1534
  521SOL     OW 1855   1.465   2.190   5.296 -0.1956  0.2935  0.1220
  521SOL    HW2 1856   1.512   2.131   5.237  0.1108 -0.6400  1.2743
  521SOL    HW3 1857   1.488   2.160   5.384 -0.5641  1.7268  0.7296
  521SOL    MW4 1858   1.474   2.178   5.300 -0.0660  0.2286  0.5339
  522SOL     OW 1859   2.410   2.082   2.751 -0.4642  0.2499  0.0496
  522SOL    HW2 1860   2.482   2.046   2.803 -1.6383  0.3219  1.8288
  522SOL    HW3 1861   2.372   2.006   2.707 -1.8192 -0.5365  2.3803
  522SOL    MW4 1862   2.415   2.067   2.752 -0.1470  0.3596  0.1426
  523SOL     OW 1863   1.841   0.063   3.521  0.6018 -0.6054 -0.0283
  523SOL    HW2 1864   1.830   0.055   3.616 -1.2098 -0.1011 -0.1632
  523SOL    HW3 1865   1.805  -0.019   3.486  0.2722 -0.3237 -0.3464
  523SOL    MW4 1866   1.835   0.051   3.529 -0.2326  0.0092  0.2899
  524SOL     OW 1867   3.020   5.723   0.186  0.3894 -0.2680  0.5279
  524SOL    HW2 1868   3.005   5.735   0.280  0.2245 -0.7606  0.5659
  524SOL    HW3 1869   2.987   5.803   0.146 -1.9069 -1.0785  0.6527
  524SOL    MW4 1870   3.014   5.735   0.193 -0.3289  0.1976  0.6481
  525SOL     OW 1871   0.708   6.291   4.389 -0.0082  0.5439  0.2901
  525SOL    HW2 1872   0.626   6.337   4.404 -0.7918 -0.1635 -1.5412
  525SOL    HW3 1873   0.775   6.359   4.388 -0.5003  1.0997  2.0395
  525SOL    MW4 1874   0.706   6.306   4.391 -0.4622  0.2291 -0.2999
  526SOL     OW 1875   3.270   1.760   4.057 -0.2949 -0.5241  0.4659
  526SOL    HW2 1876   3.288   1.835   4.000 -1.5499 -1.1372 -0.8073
  526SOL    HW3 1877   3.205   1.792   4.120 -0.9830 -0.5653 -0.2022
  526SOL    MW4 1878   3.264   1.774   4.057  0.0293 -0.0077  0.5833
  527SOL     OW 1879   3.956   2.239   5.916 -0.7962  0.4619 -0.5921
  527SOL    HW2 1880   3.916   2.284   5.841  0.3696  0.1139 -1.4513
  527SOL    HW3 1881   4.043   2.215   5.885  0.2845  1.6164  1.3576
  527SOL    MW4 1882   3.962   2.242   5.902 -0.0539 -0.1708  0.2092
  528SOL     OW 1883   5.386   3.913   5.713 -0.1214  0.5471 -0.6181
  528SOL    HW2 1884   5.408   3.971   5.640  1.7015  0.5315 -0.1421
  528SOL    HW3 1885   5.463   3.917   5.770 -1.9338  1.5065  1.9491
  528SOL    MW4 1886   5.399   3.922   5.711  0.3882 -0.0924 -0.5530
  529SOL     OW 1887   4.247   5.850   4.775  0.0777  0.1899 -0.2004
  529SOL    HW2 1888   4.172   5.791   4.784 -0.5332  1.0145  0.2766
  529SOL    HW3 1889   4.289   5.823   4.694  0.9653 -2.1767  0.9537
  529SOL    MW4 1890   4.243   5.838   4.765 -0.1133  0.1560  0.0809
  530SOL     OW 1891   3.421   3.240   4.321 -0.4862 -0.0351  0.2599
  530SOL    HW2 1892   3.500   3.286   4.350 -0.3825 -0.4675  0.6818
  530SOL    HW3 1893   3.357   3.309   4.306 -0.7019  0.1901  2.0236
  530SOL    MW4 1894   3.423   3.255   4.323  0.2667  0.1325  0.4478
  531SOL     OW 1895   2.134   0.420   5.808  0.0811  0.4037  0.6331
  531SOL    HW2 1896   2.173   0.354   5.752  1.4122 -0.3388  2.3510
  531SOL    HW3 1897   2.040   0.410   5.795  0.2731 -1.5140  0.5117
  531SOL    MW4 1898   2.127   0.410   5.799 -0.1678 -0.0640  0.1662
  532SOL     OW 1899   3.182   2.602   3.712  0.3416 -0.0036 -0.0707
  532SOL    HW2 1900   3.214   2.686   3.678  1.4498  0.2566  1.4976
  532SOL    HW3 1901   3.254   2.541   3.698 -0.2242 -0.5581 -0.6365
  532SOL    MW4 1902   3.196   2.605   3.706 -0.4798  0.1563  0.5073
  533SOL     OW 1903   1.081   2.881   6.245  0.1173  0.3532 -0.1179
  533SOL    HW2 1904   1.108   2.890   6.336  1.9323 -0.3293 -0.5400
  533SOL    HW3 1905   1.067   2.971   6.215 -0.3182  0.5896  0.7610
  533SOL    MW4 1906   1.083   2.895   6.253 -0.1389 -0.4914  0.8837
  534SOL     OW 1907   0.769   3.991   3.080  0.3713  0.6969 -0.5060
  534SOL    HW2 1908   0.685   3.976   3.124 -0.7344  2.1592 -1.9730
  534SOL    HW3 1909   0.813   3.906   3.080 -1.0122 -0.0493  0.4891
  534SOL    MW4 1910   0.764   3.978   3.086 -0.5940 -0.0890  0.1837
  535SOL     OW 1911   4.739   4.417   4.795 -0.5081  0.1863 -0.5967
  535SOL    HW2 1912   4.698   4.469   4.727  0.3304  3.2995  1.0627
  535SOL    HW3 1913   4.680   4.424   4.870  1.3576  2.0513  0.8153
  535SOL    MW4 1914   4.726   4.425   4.796 -0.2651 -0.0755 -0.5227
  536SOL     OW 1915   6.430   5.579   1.853 -0.7672 -0.1635  0.3148
  536SOL    HW2 1916   6.492   5.562   1.924 -0.3788  1.1673  0.3195
  536SOL    HW3 1917   6.480   5.563   1.773 -0.8671 -0.5343  0.3228
  536SOL    MW4 1918   6.445   5.575   1.852 -0.1299 -0.1413  0.1455
  537SOL     OW 1919   4.133   3.155   5.034  0.3094  0.0455 -0.0375
  537SOL    HW2 1920   4.117   3.124   5.123 -0.3149 -3.0067 -1.0589
  537SOL    HW3 1921   4.220   3.121   5.012  0.7420  1.3408 -0.4030
  537SOL    MW4 1922   4.142   3.146   5.043 -0.1393 -0.4924 -0.0519
  538SOL     OW 1923   5.474   2.766   5.531  0.0292 -0.0725  0.1494
  538SOL    HW2 1924   5.433   2.842   5.574  3.4880  1.6396  0.8568
  538SOL    HW3 1925   5.482   2.701   5.601 -1.7955 -0.6245 -0.1228
  538SOL    MW4 1926   5.470   2.768   5.546  0.1776 -0.1728 -0.1916
  539SOL     OW 1927   0.118   5.610   0.596 -0.2913 -0.8094  0.3284
  539SOL    HW2 1928   0.185   5.547   0.569  2.0773  1.8246 -0.4237
  539SOL    HW3 1929   0.057   5.613   0.521  0.7859 -0.6582 -0.5670
  539SOL    MW4 1930   0.119   5.602   0.582 -0.1181  0.7406 -0.2683
  540SOL     OW 1931   4.837   1.079   3.923  0.4825  0.0888 -0.7948
  540SOL    HW2 1932   4.749   1.086   3.886 -0.4460  1.7136  1.4938
  540SOL    HW3 1933   4.895   1.108   3.853 -0.7746 -0.9174 -2.3261
  540SOL    MW4 1934   4.833   1.084   3.909 -0.2359  0.0819  0.3439
  541SOL     OW 1935   2.499   3.883   4.223 -0.3556 -0.6254  0.0717
  541SOL    HW2 1936   2.455   3.866   4.140 -1.2552  0.5484  0.2794
  541SOL    HW3 1937   2.512   3.977   4.224 -2.0626 -0.3484  2.0610
  541SOL    MW4 1938   2.495   3.893   4.212 -0.6181 -0.7745 -0.6739
  542SOL     OW 1939   1.054   0.148   3.406  0.1942 -0.4121  0.1617
  542SOL    HW2 1940   1.091   0.074   3.358  1.4188 -0.4468  1.1140
  542SOL    HW3 1941   1.035   0.213   3.338  0.4688 -1.0357 -0.5283
  542SOL    MW4 1942   1.057   0.147   3.391 -0.1365  0.2163 -0.0471
  543SOL     OW 1943   3.964   2.107   6.216 -0.5425 -0.1674  0.0006
  543SOL    HW2 1944   4.001   2.098   6.304  1.6591  0.9323 -0.7665
  543SOL    HW3 1945   3.924   2.194   6.216 -1.4392 -0.5678  0.2019
  543SOL    MW4 1946   3.963   2.118   6.228  0.2015 -0.2063  0.1657
  544SOL     OW 1947   5.570   0.644   5.512 -0.1614 -0.4941 -0.1370
  544SOL    HW2 1948   5.549   0.578   5.578 -0.1757 -0.8524 -0.4963
  544SOL    HW3 1949   5.657   0.619   5.481  0.2524  0.2225  0.4139
  544SOL    MW4 1950   5.579   0.632   5.517  0.1363  0.3742 -0.0238
  545SOL     OW 1951   1.737   1.231   1.130 -0.5810 -0.1955 -0.1702
  545SOL    HW2 1952   1.717   1.319   1.097 -0.7569 -0.7022 -1.4682
  545SOL    HW3 1953   1.697   1.172   1.067  1.3314 -1.2240 -0.5048
  545SOL    MW4 1954   1.729   1.235   1.118 -0.2045  0.3309 -0.0988
  546SOL     OW 1955   2.899   4.756   2.634 -0.5532 -0.4582  0.5560
  546SOL    HW2 1956   2.844   4.834   2.640 -0.0628 -0.1869  1.8668
  546SOL    HW3 1957   2.977   4.778   2.685  0.9106 -0.7419 -1.4352
  546SOL    MW4 1958   2.902   4.769   2.641 -0.4252 -0.3538 -0.0244
  547SOL     OW 1959   5.499   2.243   4.868 -0.1010 -0.0644 -0.3997
  547SOL    HW2 1960   5.568   2.308   4.851  0.9759 -1.3788 -1.2297
  547SOL    HW3 1961   5.438   2.254   4.795 -0.8463  1.1103  0.3440
  547SOL    MW4 1962   5.500   2.253   4.856  0.3155  0.4804 -0.0268
  548SOL     OW 1963   5.900   0.057   4.284  0.1881 -0.5419  0.1850
  548SOL    HW2 1964   5.837   0.009   4.338 -2.0480  1.6201 -0.3619
  548SOL    HW3 1965   5.958   0.100   4.348 -1.9935  1.4335  0.9339
  548SOL    MW4 1966   5.900   0.056   4.300 -0.8516 -0.3411  0.4158
  549SOL     OW 1967   0.571   1.250   3.102 -0.7164 -0.1986 -0.3401
  549SOL    HW2 1968   0.609   1.335   3.082 -0.0574 -0.2518  0.6571
  549SOL    HW3 1969   0.634   1.187   3.065  1.2068 -0.3394  2.8019
  549SOL    MW4 1970   0.585   1.253   3.094 -0.2678 -0.0046 -0.0763
  550SOL     OW 1971   0.638   4.394   1.263  0.3798 -0.4324  0.7540
  550SOL    HW2 1972   0.619   4.305   1.235  1.9883 -0.7803  0.6667
  550SOL    HW3 1973   0.685   4.384   1.346 -0.1771  0.3879  1.1919
  550SOL    MW4 1974   0.642   4.381   1.270 -0.2133 -0.1101  0.1276
  551SOL     OW 1975   2.451   5.717   2.039 -0.0796  0.2132 -0.4062
  551SOL    HW2 1976   2.440   5.632   2.081  1.4491 -0.0437 -0.4831
  551SOL    HW3 1977   2.538   5.747   2.066  0.5185  0.5128 -2.5057
  551SOL    MW4 1978   2.461   5.710   2.048 -0.4353  0.1888 -0.2287
  552SOL     OW 1979   2.658   6.129   6.418 -0.8444 -0.1638 -0.0401
  552SOL    HW2 1980   2.564   6.129   6.437 -0.7496  0.9219  0.5254
  552SOL    HW3 1981   2.699   6.112   6.503 -0.5296 -1.7443 -0.4706
  552SOL    MW4 1982   2.651   6.127   6.432 -0.1061  0.3327 -0.1247
  553SOL     OW 1983   1.580   0.968   6.000 -0.5588 -0.1455  0.0693
  553SOL    HW2 1984   1.650   0.910   5.970 -1.6299 -0.8382 -1.1680
  553SOL    HW3 1985   1.620   1.054   6.004  0.5898 -0.6704  0.2282
  553SOL    MW4 1986   1.594   0.971   5.997 -0.3643 -0.6278 -0.4079
  554SOL     OW 1987   4.012   5.883   4.044  0.5541  0.1300  0.0679
  554SOL    HW2 1988   4.030   5.791   4.023 -0.1160  0.1919 -0.8440
  554SOL    HW3 1989   4.091   5.930   4.016 -0.6773  0.3614 -3.5748
  554SOL    MW4 1990   4.025   5.877   4.037  0.2784 -0.0501  0.2092
  555SOL     OW 1991   1.776   5.727   1.909 -0.5927 -0.0226 -0.5268
  555SOL    HW2 1992   1.805   5.815   1.885 -2.2862  0.8337  0.3464
  555SOL    HW3 1993   1.716   5.702   1.838  1.6289 -1.4980 -1.9831
  555SOL    MW4 1994   1.772   5.735   1.896 -0.2803  0.0428  0.0553
  556SOL     OW 1995   3.121   3.832   2.687 -0.1421 -0.0702 -0.4158
  556SOL    HW2 1996   3.150   3.741   2.693  0.1385  0.0728  0.4721
  556SOL    HW3 1997   3.181   3.881   2.743 -0.1244  0.7075 -1.0933
  556SOL    MW4 1998   3.133   3.826   2.695  0.3808  0.0894  0.1279
  557SOL     OW 1999   1.953   6.133   5.994 -0.2650  0.1840 -0.3970
  557SOL    HW2 2000   1.938   6.209   6.051 -1.0761 -0.9759  0.9917
  557SOL    HW3 2001   1.872   6.124   5.945 -0.5200 -0.3469  0.1218
  557SOL    MW4 2002   1.941   6.142   5.995  0.2195  0.2474 -0.0627
  558SOL     OW 2003   5.364   4.658   2.442 -0.2127  0.5468 -0.0526
  558SOL    HW2 2004   5.431   4.722   2.466  0.3064  0.2386 -0.6402
  558SOL    HW3 2005   5.352   4.670   2.348  1.1342 -1.3504 -0.5252
  558SOL    MW4 2006   5.371   4.668   2.433  0.2807  0.1710  0.4697
  559SOL     OW 2007   3.189   4.055   6.111 -0.3419  0.0845  0.1081
  559SOL    HW2 2008   3.174   4.120   6.180  0.7796  0.9542 -0.4198
  559SOL    HW3 2009   3.106   4.050   6.064 -0.1891  1.9039 -0.4421
  559SOL    MW4 2010   3.176   4.063   6.114 -0.0378  0.2151 -0.1480
  560SOL     OW 2011   6.409   0.033   3.550 -0.0442  0.1235  0.6731
  560SOL    HW2 2012   6.400  -0.044   3.493  1.2584  0.1048  0.4711
  560SOL    HW3 2013   6.334   0.027   3.610 -1.4326  0.1215 -0.9701
  560SOL    MW4 2014   6.398   0.022   3.551  0.3066 -0.0710  0.7844
  561SOL     OW 2015   1.369   0.865   3.132  0.0290  0.6642  0.4891
  561SOL    HW2 2016   1.372   0.882   3.226 -0.1746  0.5087  0.5235
  561SOL    HW3 2017   1.276   0.864   3.111  0.0766  0.7918  0.2689
  561SOL    MW4 2018   1.357   0.867   3.142  0.1423 -0.3440  0.5970
  562SOL     OW 2019   4.655   2.884   2.812  0.1654 -0.0757 -0.3209
  562SOL    HW2 2020   4.606   2.892   2.895  1.7956 -0.3830  0.7159
  562SOL    HW3 2021   4.632   2.963   2.764 -0.1864  0.5210  0.7789
  562SOL    MW4 2022   4.645   2.895   2.817  0.0382  0.5613 -0.0715
  563SOL     OW 2023   2.953   0.115   4.005  0.5784 -0.0309  0.0383
  563SOL    HW2 2024   3.037   0.089   4.044 -0.2658 -1.2581  1.1154
  563SOL    HW3 2025   2.915   0.177   4.068 -0.1286 -0.8814  0.4665
  563SOL    MW4 2026   2.959   0.120   4.018 -0.2685  0.1422  0.1663
  564SOL     OW 2027   3.097   6.141   5.052 -0.3893  0.1336  0.1260
  564SOL    HW2 2028   3.142   6.110   5.130  0.5524 -2.4332 -1.3352
  564SOL    HW3 2029   3.009   6.165   5.083 -1.1828 -3.8676  1.6012
  564SOL    MW4 2030   3.091   6.140   5.066 -0.3689  0.1045  0.6846
  565SOL     OW 2031   0.409   1.912   5.076 -0.2080  0.5999  0.6377
  565SOL    HW2 2032   0.390   1.820   5.094 -0.5924  0.5457 -0.0312
  565SOL    HW3 2033   0.445   1.945   5.158 -2.3269  0.4820  1.6947
  565SOL    MW4 2034   0.411   1.904   5.089 -0.1455 -0.5797 -0.1020
  566SOL     OW 2035   3.305   2.189   4.607 -0.5302  0.0823 -0.0216
  566SOL    HW2 2036   3.295   2.161   4.515 -0.0049  0.9759 -0.3611
  566SOL    HW3 2037   3.284   2.282   4.606  2.1029  0.7463  0.2477
  566SOL    MW4 2038   3.301   2.197   4.594 -0.5777 -0.3781 -0.3994
  567SOL     OW 2039   1.435   3.406   0.593  0.0578  0.3674  0.0324
  567SOL    HW2 2040   1.410   3.325   0.547  1.1097  0.7173 -1.2098
  567SOL    HW3 2041   1.356   3.432   0.641 -0.8448 -0.4370 -0.9730
  567SOL    MW4 2042   1.422   3.399   0.593 -0.2819  0.2698  0.7057
  568SOL     OW 2043   0.593   5.647   3.995  0.1771  0.0070  0.4256
  568SOL    HW2 2044   0.681   5.660   3.961  0.6408  1.1475  1.9520
  568SOL    HW3 2045   0.601   5.577   4.059 -0.6287 -1.8922 -1.4295
  568SOL    MW4 2046   0.605   5.640   3.999 -0.4259  0.1843  0.4575
  569SOL     OW 2047   2.286   5.469   3.306  0.0919  0.0342  0.4261
  569SOL    HW2 2048   2.191   5.478   3.312 -0.0338 -0.5086 -0.6902
  569SOL    HW3 2049   2.302   5.425   3.223  1.3016 -0.3188  0.8213
  569SOL    MW4 2050   2.276   5.465   3.296  0.0765 -0.9137  0.1728
  570SOL     OW 2051   1.469   3.364   5.524  0.1164 -0.1821 -0.6205
  570SOL    HW2 2052   1.557   3.341   5.555  0.4381  3.3473  1.5713
  570SOL    HW3 2053   1.417   3.377   5.603 -2.0482 -0.8378 -1.8447
  570SOL    MW4 2054   1.474   3.363   5.538 -0.0399 -0.1849 -0.6743
  571SOL     OW 2055   6.131   2.861   5.401 -0.3989  0.4324 -0.0290
  571SOL    HW2 2056   6.192   2.933   5.415  1.4422 -1.0252 -0.0821
  571SOL    HW3 2057   6.086   2.851   5.485  1.1283  0.0883  0.7899
  571SOL    MW4 2058   6.133   2.869   5.414  0.0032 -0.7340 -0.0571
  572SOL     OW 2059   5.110   5.843   5.553  0.0555  0.5873  0.2791
  572SOL    HW2 2060   5.148   5.902   5.487 -1.0305  1.3546  0.3102
  572SOL    HW3 2061   5.071   5.902   5.617  0.8947 -0.1506  1.5145
  572SOL    MW4 2062   5.110   5.859   5.553  0.0359  0.6861 -0.0498
  573SOL     OW 2063   0.343   0.237   5.871  0.1921 -1.0063 -0.4096
  573SOL    HW2 2064   0.328   0.266   5.781 -0.6206 -1.6196 -0.4838
  573SOL    HW3 2065   0.325   0.314   5.924 -1.7119 -1.2595 -0.6208
  573SOL    MW4 2066   0.339   0.251   5.866  0.2182  0.4024  0.1287
  574SOL     OW 2067   4.772   4.493   4.324 -0.4464 -0.3327 -0.6542
  574SOL    HW2 2068   4.729   4.554   4.263 -1.6042  0.1576  0.5884
  574SOL    HW3 2069   4.785   4.545   4.403  1.7262 -0.7404 -0.6904
  574SOL    MW4 2070   4.768   4.508   4.326  0.1965 -0.2483 -0.5811
  575SOL     OW 2071   3.895   5.262   2.244 -0.0503  0.3102 -0.2180
  575SOL    HW2 2072   3.806   5.298   2.241  0.5219  1.8122 -0.0665
  575SOL    HW3 2073   3.911   5.231   2.155 -1.4187 -1.8450  0.2005
  575SOL    MW4 2074   3.885   5.263   2.232 -0.1857  0.1895  0.4000
  576SOL     OW 2075   5.115   5.801   4.688 -0.5808  0.5784  0.8817
  576SOL    HW2 2076   5.149   5.874   4.635  3.5431 -0.8480  1.1894
  576SOL    HW3 2077   5.127   5.724   4.632 -0.6383 -0.3738  2.1562
  576SOL    MW4 2078   5.121   5.800   4.673  0.1867  0.2515  0.2157
  577SOL     OW 2079   2.812   4.496   0.032 -0.1442 -0.2246 -0.0644
  577SOL    HW2 2080   2.780   4.406   0.031 -0.5303 -0.0933  0.3217
  577SOL    HW3 2081   2.735   4.548   0.008 -0.9225  0.3024  3.1328
  577SOL    MW4 2082   2.797   4.491   0.029 -0.1850  0.0228 -0.0652
  578SOL     OW 2083   5.169   6.416   6.238 -0.3189  0.3294  0.2472
  578SOL    HW2 2084   5.150   6.505   6.208  2.6801  0.3259 -2.2086
  578SOL    HW3 2085   5.218   6.428   6.319 -2.6064  0.6723  1.6642
  578SOL    MW4 2086   5.173   6.430   6.245  0.0394  0.4178 -0.2846
  579SOL     OW 2087   0.026   2.422   2.341 -0.8728 -0.0784 -0.8601
  579SOL    HW2 2088   0.085   2.488   2.304 -0.1938 -0.8252 -1.1432
  579SOL    HW3 2089  -0.050   2.472   2.369 -0.3113  0.8501 -0.9239
  579SOL    MW4 2090   0.024   2.437   2.340  0.4692  0.3629 -0.4820
  580SOL     OW 2091   3.609   5.624   1.228  0.2985  0.4119  0.1016
  580SOL    HW2 2092   3.702   5.640   1.212  0.3987 -1.4885 -1.6029
  580SOL    HW3 2093   3.563   5.670   1.158  0.1582 -0.6849 -0.5627
  580SOL    MW4 2094   3.615   5.632   1.217 -0.0666  0.2731  0.0463
  581SOL     OW 2095   6.229   1.451   6.270 -0.0307 -0.1763 -0.2785
  581SOL    HW2 2096   6.226   1.402   6.187 -0.6017  0.7718 -0.8386
  581SOL    HW3 2097   6.314   1.429   6.308  0.9886  0.6815 -1.9441
  581SOL    MW4 2098   6.240   1.441   6.264  0.2782  0.6001  0.1363
  582SOL     OW 2099   2.100   3.968   0.551 -0.1037 -0.3625  0.1810
  582SOL    HW2 2100   2.107   3.901   0.620  0.2911 -1.2373 -0.6808
  582SOL    HW3 2101   2.173   4.028   0.568 -0.7590  0.1533  1.2624
  582SOL    MW4 2102   2.111   3.967   0.562 -0.0785 -0.0947 -0.1208
  583SOL     OW 2103   3.557   4.058   4.659 -0.2465  0.3118  0.7716
  583SOL    HW2 2104   3.552   4.024   4.570 -1.8282 -0.4753  1.1294
  583SOL    HW3 2105   3.627   4.007   4.700  0.1767  0.3552  0.1221
  583SOL    MW4 2106   3.566   4.047   4.653  0.1061  0.7478 -0.5156
  584SOL     OW 2107   2.116   1.364   4.783 -0.5262 -0.1872 -0.1882
  584SOL    HW2 2108   2.107   1.412   4.865  2.8673 -3.3621  2.3495
  584SOL    HW3 2109   2.061   1.286   4.794 -0.3609 -0.4598 -1.1495
  584SOL    MW4 2110   2.107   1.360   4.795  0.0002  0.0480 -0.1465
  585SOL     OW 2111   4.142   5.714   2.684 -0.3252 -0.0805  0.3763
  585SOL    HW2 2112   4.223   5.666   2.666 -0.7921 -0.7557  0.0217
  585SOL    HW3 2113   4.082   5.647   2.718 -0.5749  0.5063  1.1059
  585SOL    MW4 2114   4.145   5.698   2.686  0.3187 -0.1582 -0.0103
  586SOL     OW 2115   0.446   4.350   2.010  0.0662 -0.4009  0.1027
  586SOL    HW2 2116   0.359   4.366   2.047 -0.1662  1.0438 -0.9981
  586SOL    HW3 2117   0.506   4.394   2.070 -0.2235  1.0504 -0.6370
  586SOL    MW4 2118   0.442   4.358   2.023  0.1638  0.3407 -0.1921
  587SOL     OW 2119   3.600   1.201   2.278  0.1152 -0.0308 -0.0406
  587SOL    HW2 2120   3.565   1.139   2.342  1.0179 -1.2027 -0.6317
  587SOL    HW3 2121   3.663   1.253   2.327 -0.0944 -0.0899  0.2968
  587SOL    MW4 2122   3.603   1.200   2.293  0.2580 -0.5349  0.3195
  588SOL     OW 2123   5.870   2.217   1.067 -0.0490 -0.3960 -0.1534
  588SOL    HW2 2124   5.824   2.134   1.058 -0.5727 -0.3728  1.8877
  588SOL    HW3 2125   5.802   2.280   1.092  0.7927  0.0212  1.1663
  588SOL    MW4 2126   5.855   2.215   1.069  0.4109  0.1954 -0.3847
  589SOL     OW 2127   1.582   1.378   1.981  0.3597 -0.7877 -0.1095
  589SOL    HW2 2128   1.657   1.436   1.965  0.5955 -0.3930  2.1048
  589SOL    HW3 2129   1.616   1.312   2.041 -0.9287 -0.8949  0.5321
  589SOL    MW4 2130   1.596   1.377   1.987 -0.0403 -0.0375  0.5249
  590SOL     OW 2131   3.851   6.102   1.745  0.1735  0.3373 -0.5642
  590SOL    HW2 2132   3.882   6.072   1.831 -0.0520 -1.7295 -1.1409
  590SOL    HW3 2133   3.804   6.183   1.764  0.1254 -0.0595  1.2710
  590SOL    MW4 2134   3.849   6.109   1.759  0.9005  0.1043  0.0408
  591SOL     OW 2135   3.017   6.102   5.921  0.5680 -0.2818  0.3268
  591SOL    HW2 2136   2.946   6.039   5.908  1.0068 -0.6901 -0.1967
  591SOL    HW3 2137   3.012   6.160   5.845  0.0551  0.4364  0.8991
  591SOL    MW4 2138   3.007   6.101   5.909 -0.5856 -0.0687  0.7124
  592SOL     OW 2139   5.316   0.399   0.601 -0.2577 -0.4424  0.3259
  592SOL    HW2 2140   5.244   0.347   0.566  1.0482 -2.8427  1.0217
  592SOL    HW3 2141   5.277   0.450   0.672 -0.9377 -3.4546  2.2722
  592SOL    MW4 2142   5.302   0.399   0.606  0.0087  0.1877 -0.1856
  593SOL     OW 2143   2.295   4.475   1.443  0.2887 -0.1024 -0.5726
  593SOL    HW2 2144   2.279   4.569   1.445 -0.7672 -0.2759  1.6613
  593SOL    HW3 2145   2.389   4.467   1.425  0.4669  1.3747 -0.3858
  593SOL    MW4 2146   2.305   4.486   1.441 -0.1618  0.1893  0.1791
  594SOL     OW 2147   3.354   4.696   1.208  0.5119 -0.1823  0.2278
  594SOL    HW2 2148   3.370   4.715   1.300 -0.4971  1.5628  0.0747
  594SOL    HW3 2149   3.261   4.674   1.203  0.3629  0.5517 -0.4826
  594SOL    MW4 2150   3.344   4.695   1.219 -0.7015  0.0447  0.2546
  595SOL     OW 2151   5.952   2.495   5.464  0.1290 -0.0225  0.1252
  595SOL    HW2 2152   6.034   2.532   5.431  0.1698 -0.1640  0.0655
  595SOL    HW3 2153   5.905   2.569   5.501  0.6570 -0.0785  0.9374
  595SOL    MW4 2154   5.956   2.509   5.464  0.1466 -0.6460 -0.3431
  596SOL     OW 2155   5.224   2.831   1.944 -0.2727 -0.1423 -0.7431
  596SOL    HW2 2156   5.235   2.918   1.907 -0.9368  0.2371 -0.0785
  596SOL    HW3 2157   5.133   2.808   1.923 -0.0938 -0.6919 -0.9376
  596SOL    MW4 2158   5.213   2.839   1.936 -0.4616 -0.2854  0.2176
  597SOL     OW 2159   0.708   1.601   0.549  0.3078 -0.2978 -0.5832
  597SOL    HW2 2160   0.641   1.645   0.497  0.2832  0.5788  0.1560
  597SOL    HW3 2161   0.786   1.656   0.539  0.5255 -0.5633 -0.3489
  597SOL    MW4 2162   0.709   1.614   0.541 -0.7306  0.6243  0.2381
  598SOL     OW 2163   4.230   4.732   2.307 -0.3109 -0.0862  0.0664
  598SOL    HW2 2164   4.209   4.754   2.216 -0.9183 -2.9628 -0.5866
  598SOL    HW3 2165   4.147   4.743   2.354 -0.8184 -1.6038 -0.4204
  598SOL    MW4 2166   4.216   4.736   2.301 -0.4121 -0.1316 -0.0156
  599SOL     OW 2167   5.617   2.795   2.931  0.1943 -0.6717 -0.3161
  599SOL    HW2 2168   5.537   2.748   2.906  1.5001 -3.6995  0.6541
  599SOL    HW3 2169   5.660   2.813   2.848 -1.3281  0.8547 -0.8449
  599SOL    MW4 2170   5.612   2.791   2.917  0.1076  0.8538  0.1473
  600SOL     OW 2171   4.364   5.667   0.740  0.0728  0.0224 -0.4046
  600SOL    HW2 2172   4.337   5.676   0.648  0.2650  0.7052 -0.3997
  600SOL    HW3 2173   4.382   5.573   0.750 -0.3761 -0.1309 -0.9431
  600SOL    MW4 2174   4.362   5.656   0.729 -0.3438  0.3385 -0.4335
  601SOL     OW 2175   5.203   5.245   1.115 -0.6761 -0.4815 -0.6878
  601SOL    HW2 2176   5.188   5.160   1.073  1.7963  0.3368 -3.6742
  601SOL    HW3 2177   5.134   5.301   1.081 -2.0145 -1.1007  0.8954
  601SOL    MW4 2178   5.192   5.241   1.105 -0.5654 -0.4934  0.1650
  602SOL     OW 2179   4.976   0.613   0.284  0.2617 -0.5480 -0.2465
  602SOL    HW2 2180   4.894   0.630   0.330  0.4979  1.3703 -0.4237
  602SOL    HW3 2181   5.044   0.641   0.346  0.7005 -0.6589 -0.6713
  602SOL    MW4 2182   4.974   0.619   0.299  0.2696 -0.0356 -0.5133
  603SOL     OW 2183   5.952   0.246   0.979  0.6251  0.3043  0.1568
  603SOL    HW2 2184   5.899   0.265   1.056  0.6470  0.7573  0.0647
  603SOL    HW3 2185   6.031   0.205   1.014 -0.3637 -1.6754  0.1967
  603SOL    MW4 2186   5.956   0.244   0.994 -0.3019 -0.2856 -0.0600
  604SOL     OW 2187   4.526   2.159   0.270 -0.5902  0.1061 -0.0580
  604SOL    HW2 2188   4.481   2.074   0.269 -0.6223  0.0544  1.8644
  604SOL    HW3 2189   4.619   2.137   0.277 -0.4345  0.2332 -1.5399
  604SOL    MW4 2190   4.533   2.145   0.271 -0.8648  0.4085  0.0815
  605SOL     OW 2191   5.960   5.522   4.452  0.0036  0.0625 -0.4442
  605SOL    HW2 2192   5.881   5.577   4.459 -0.0578  0.2184 -2.0832
  605SOL    HW3 2193   6.032   5.584   4.460  0.0572 -0.2309  2.4137
  605SOL    MW4 2194   5.959   5.538   4.454  0.2134 -0.5370  0.4515
  606SOL     OW 2195   5.851   5.196   5.593  0.3932 -0.1176  0.1365
  606SOL    HW2 2196   5.790   5.232   5.658  1.1239  1.9443 -0.2202
  606SOL    HW3 2197   5.937   5.208   5.632  0.7184 -0.9066 -0.3098
  606SOL    MW4 2198   5.854   5.203   5.607 -0.1891  0.0641 -0.3883
  607SOL     OW 2199   2.318   1.977   4.499  0.4571  0.2192  0.5689
  607SOL    HW2 2200   2.299   1.915   4.429  0.5228  0.3433  0.4410
  607SOL    HW3 2201   2.414   1.983   4.501  0.4347  0.6784  0.2639
  607SOL    MW4 2202   2.328   1.970   4.490  0.3182  0.0766  0.3994
  608SOL     OW 2203   2.274   3.981   0.202  0.0165  0.0796 -0.1689
  608SOL    HW2 2204   2.304   4.057   0.250 -1.2281 -0.4185  1.4961
  608SOL    HW3 2205   2.313   3.990   0.115  2.5988  0.8636  0.9833
  608SOL    MW4 2206   2.283   3.992   0.197 -0.3556 -0.2119 -0.0418
  609SOL     OW 2207   1.669   1.336   6.243 -0.3778  0.0228 -0.0077
  609SOL    HW2 2208   1.599   1.301   6.299 -0.5459 -1.9637 -1.3657
  609SOL    HW3 2209   1.749   1.321   6.293 -0.5211 -1.7853 -0.2260
  609SOL    MW4 2210   1.670   1.329   6.257 -0.1432  0.3604  0.4292
  610SOL     OW 2211   1.214   3.502   5.983  0.4042 -0.7064  0.1706
  610SOL    HW2 2212   1.271   3.442   5.933 -0.3354 -1.5541  0.3232
  610SOL    HW3 2213   1.174   3.558   5.916  1.7766  0.2427  0.0991
  610SOL    MW4 2214   1.217   3.501   5.967  0.8520 -0.2490  0.3218
  611SOL     OW 2215   5.973   1.842   0.897 -0.1603  0.0910 -0.2962
  611SOL    HW2 2216   5.921   1.826   0.976 -1.8985 -0.7136 -1.5479
  611SOL    HW3 2217   5.975   1.757   0.852 -0.3742  0.8512 -1.7860
  611SOL    MW4 2218   5.967   1.829   0.902 -0.3149  0.1960  0.2700
  612SOL     OW 2219   3.346   3.176   4.818 -0.0544  0.3745 -0.4310
  612SOL    HW2 2220   3.301   3.105   4.865 -0.4244  0.7053 -0.2766
  612SOL    HW3 2221   3.371   3.137   4.735  0.6472 -0.2357  0.0524
  612SOL    MW4 2222   3.343   3.161   4.813  0.4963  0.5051 -0.0794
  613SOL     OW 2223   5.849   4.587   4.416 -0.8643  0.1376  0.1546
  613SOL    HW2 2224   5.905   4.663   4.400 -0.3496 -0.1976  0.3352
  613SOL    HW3 2225   5.857   4.534   4.336  0.1027 -0.5366  0.6682
  613SOL    MW4 2226   5.858   4.590   4.404  0.0435  0.3551  0.1564
  614SOL     OW 2227   6.183   1.158   1.457 -0.5461  0.0571 -0.3288
  614SOL    HW2 2228   6.223   1.173   1.371  1.2378 -1.4040  0.1921
  614SOL    HW3 2229   6.130   1.236   1.472  0.0730  0.9105 -2.2056
  614SOL    MW4 2230   6.181   1.170   1.447  0.3508  0.4068  0.8896
  615SOL     OW 2231   3.913   2.891   1.329 -0.1226 -0.1166  0.5392
  615SOL    HW2 2232   3.952   2.811   1.294  1.5144  0.5791  0.6427
  615SOL    HW3 2233   3.945   2.960   1.271 -1.1454  0.5254  0.7142
  615SOL    MW4 2234   3.923   2.890   1.317 -1.0128 -0.7190  0.5402
  616SOL     OW 2235   1.577   1.805   1.400 -0.1962 -0.1074  0.0702
  616SOL    HW2 2236   1.639   1.739   1.370 -0.8143 -0.5673 -0.2239
  616SOL    HW3 2237   1.493   1.779   1.361 -0.1769  1.7056 -1.3314
  616SOL    MW4 2238   1.574   1.793   1.391 -0.0385 -0.1980 -0.0115
  617SOL     OW 2239   5.462   5.888   0.295  0.0787  0.1378 -0.3252
  617SOL    HW2 2240   5.476   5.814   0.353  1.1014 -0.9992 -1.9408
  617SOL    HW3 2241   5.487   5.965   0.347  0.8595 -0.8191  0.7523
  617SOL    MW4 2242   5.467   5.889   0.309 -0.1167 -0.4256  0.1433
  618SOL     OW 2243   2.394   1.204   2.288  0.0767 -0.1436  0.1621
  618SOL    HW2 2244   2.453   1.276   2.311 -1.4836  1.1366  0.3183
  618SOL    HW3 2245   2.346   1.185   2.369 -0.6869 -0.2212 -0.2989
  618SOL    MW4 2246   2.395   1.211   2.302  0.3957 -0.3604  0.2034
  619SOL     OW 2247   2.073   1.606   2.096  0.9027 -0.7140 -0.0280
  619SOL    HW2 2248   2.000   1.664   2.120  1.0109  0.8041 -2.9247
  619SOL    HW3 2249   2.130   1.607   2.173 -0.5610  0.6775  1.1198
  619SOL    MW4 2250   2.071   1.614   2.110 -0.9233  0.0820 -0.3299
  620SOL     OW 2251   3.450   3.208   2.777 -0.7663  0.0152  0.4033
  620SOL    HW2 2252   3.484   3.295   2.757 -0.7230 -0.2750 -0.8335
  620SOL    HW3 2253   3.372   3.199   2.723 -0.3558 -0.9911 -0.0576
  620SOL    MW4 2254   3.445   3.218   2.768  0.2720 -0.5336 -0.1640
  621SOL     OW 2255   0.840   2.077   3.431  0.5392  0.2706  0.1806
  621SOL    HW2 2256   0.745   2.087   3.427  0.5511  0.7470  0.8902
  621SOL    HW3 2257   0.862   2.098   3.521  1.2974 -0.0670  0.0780
  621SOL    MW4 2258   0.830   2.081   3.442  0.3940 -0.4377 -0.0921
  622SOL     OW 2259   4.583   3.783   0.869 -0.5221 -0.1912  0.0161
  622SOL    HW2 2260   4.531   3.706   0.845  0.5080 -1.2490  1.0771
  622SOL    HW3 2261   4.547   3.853   0.814 -0.0514 -1.8792 -2.6428
  622SOL    MW4 2262   4.571   3.782   0.858 -0.0422  0.6637  0.2290
  623SOL     OW 2263   5.489   6.382   4.625 -0.2545 -0.0331 -0.1692
  623SOL    HW2 2264   5.509   6.405   4.716  0.5036  0.3905 -0.4345
  623SOL    HW3 2265   5.574   6.374   4.583 -0.6099  1.8299 -1.3417
  623SOL    MW4 2266   5.503   6.384   4.632 -0.5300  0.1628 -0.5833
  624SOL     OW 2267   2.671   3.462   3.598 -0.1760  0.1341 -0.5329
  624SOL    HW2 2268   2.694   3.525   3.666  0.5461  0.9750 -1.5326
  624SOL    HW3 2269   2.588   3.424   3.629  1.3280 -1.3422  2.0238
  624SOL    MW4 2270   2.663   3.466   3.611 -0.6034  0.6260  0.0898
  625SOL     OW 2271   3.183   4.252   3.239  0.1205  0.0134  0.5713
  625SOL    HW2 2272   3.153   4.333   3.281 -0.8749 -0.1053  0.1118
  625SOL    HW3 2273   3.185   4.188   3.311 -0.7745  0.0170  0.6048
  625SOL    MW4 2274   3.179   4.254   3.254  0.1698  0.0691 -0.7734
  626SOL     OW 2275   4.904   0.807   2.156  0.2162  0.2676 -0.2655
  626SOL    HW2 2276   4.875   0.855   2.234  0.3143  0.5403 -0.3969
  626SOL    HW3 2277   4.933   0.722   2.190  1.0197  0.6777  0.0978
  626SOL    MW4 2278   4.904   0.802   2.171  0.8024  0.2554 -0.3109
  627SOL     OW 2279   5.745   0.982   1.435  0.1873 -0.4815 -0.2175
  627SOL    HW2 2280   5.721   0.901   1.479  1.0564 -0.3036  0.6050
  627SOL    HW3 2281   5.841   0.983   1.436  0.1861  0.9697  0.5767
  627SOL    MW4 2282   5.754   0.972   1.441  0.4213 -0.3155  0.2517
  628SOL     OW 2283   3.092   4.939   4.187 -0.0793  0.3289 -0.4904
  628SOL    HW2 2284   3.144   4.870   4.145 -0.4951 -0.5835  0.4555
  628SOL    HW3 2285   3.011   4.942   4.136 -0.4027 -0.4718 -0.0337
  628SOL    MW4 2286   3.088   4.930   4.175 -0.1069  0.0802 -0.2490
  629SOL     OW 2287   6.195   3.177   0.507  0.0572 -0.4512  0.3994
  629SOL    HW2 2288   6.129   3.153   0.442  0.9191  1.0637 -1.0908
  629SOL    HW3 2289   6.144   3.210   0.581 -0.8911 -0.1802 -0.3526
  629SOL    MW4 2290   6.179   3.178   0.508 -0.8985 -0.4035  0.0786
  630SOL     OW 2291   6.354   2.083   5.291  0.1169  0.0914  0.2896
  630SOL    HW2 2292   6.294   2.156   5.309  2.0248  1.5765  0.9067
  630SOL    HW3 2293   6.369   2.086   5.197  0.1830  0.4725  0.3138
  630SOL    MW4 2294   6.348   2.093   5.281  0.0576  0.0759 -0.0073
  631SOL     OW 2295   0.863   1.115   5.456 -0.2084 -0.0169 -0.1972
  631SOL    HW2 2296   0.827   1.189   5.505  0.3562 -0.1443  0.4159
  631SOL    HW3 2297   0.858   1.041   5.516  0.1546 -0.2586 -0.4569
  631SOL    MW4 2298   0.858   1.115   5.470 -0.3836 -0.1307 -0.2206
  632SOL     OW 2299   3.555   4.283   5.817  0.0991  0.0651  0.3857
  632SOL    HW2 2300   3.476   4.250   5.860  0.1020  0.5942  0.8120
  632SOL    HW3 2301   3.590   4.348   5.878  0.1532  0.7781 -0.3808
  632SOL    MW4 2302   3.549   4.287   5.831  0.0170  0.1272  0.5330
  633SOL     OW 2303   4.979   6.304   0.467 -0.6187  0.1069  0.2325
  633SOL    HW2 2304   4.935   6.249   0.532  0.7818 -0.9620  0.3229
  633SOL    HW3 2305   5.039   6.357   0.518  0.8865 -1.1251 -0.1943
  633SOL    MW4 2306   4.981   6.304   0.483  0.4224  0.6871 -0.0135
  634SOL     OW 2307   6.087   5.321   2.055  0.3010 -0.0596 -0.1743
  634SOL    HW2 2308   5.998   5.342   2.083 -0.6046 -0.8572 -2.2465
  634SOL    HW3 2309   6.117   5.400   2.010  0.5459  0.1094  0.2795
  634SOL    MW4 2310   6.079   5.335   2.053  0.4797  0.1825 -0.0569
  635SOL     OW 2311   3.389   2.394   0.387 -0.2272  0.2910  0.0960
  635SOL    HW2 2312   3.475   2.434   0.376 -0.4245  0.5732 -0.4424
  635SOL    HW3 2313   3.337   2.461   0.431 -0.4191  0.4494 -0.3674
  635SOL    MW4 2314   3.393   2.408   0.392 -0.4003 -0.1132  0.2358
  636SOL     OW 2315   4.663   0.147   3.924  0.6026  0.0493  0.4533
  636SOL    HW2 2316   4.716   0.184   3.854  2.1597 -0.3457  1.3731
  636SOL    HW3 2317   4.649   0.056   3.899 -0.1315  0.3005 -0.0619
  636SOL    MW4 2318   4.668   0.140   3.912  0.8053  0.1130  0.7207
  637SOL     OW 2319   0.527   3.696   0.875  0.0095  0.1380 -0.8728
  637SOL    HW2 2320   0.434   3.718   0.867  0.0813  0.3557 -1.1261
  637SOL    HW3 2321   0.528   3.601   0.888 -0.1246 -0.3387 -3.6736
  637SOL    MW4 2322   0.515   3.687   0.876 -0.1621 -0.2636  0.5992
  638SOL     OW 2323   0.879   0.156   2.310 -0.1118 -0.2618  0.2260
  638SOL    HW2 2324   0.913   0.067   2.306 -2.1832 -1.1747  1.5972
  638SOL    HW3 2325   0.937   0.206   2.252  2.0770 -2.1303  0.6565
  638SOL    MW4 2326   0.891   0.151   2.302 -0.4141  0.2562  0.2128
  639SOL     OW 2327   6.398   6.221   5.601  0.3446  0.2083  0.1141
  639SOL    HW2 2328   6.320   6.233   5.655 -1.3877  0.2583 -2.2213
  639SOL    HW3 2329   6.455   6.294   5.625 -0.7970  0.7998  1.1350
  639SOL    MW4 2330   6.395   6.232   5.611 -0.0138 -0.1579  0.1358
  640SOL     OW 2331   5.191   2.214   2.548  0.7228 -0.0301 -0.4924
  640SOL    HW2 2332   5.198   2.152   2.620 -3.5287  0.9363  1.0753
  640SOL    HW3 2333   5.151   2.164   2.477 -1.3628  0.4269  0.2796
  640SOL    MW4 2334   5.187   2.199   2.548  0.2689 -0.0564  0.1488
  641SOL     OW 2335   3.823   2.808   3.522  0.0165  0.0433 -0.4776
  641SOL    HW2 2336   3.760   2.855   3.576 -1.0063 -0.2291 -1.3917
  641SOL    HW3 2337   3.856   2.737   3.578  0.0804  0.6385  0.2462
  641SOL    MW4 2338   3.819   2.805   3.536  0.4539  0.0964 -0.1483
  642SOL     OW 2339   3.291   5.198   4.777 -0.6518 -0.2920  0.3494
  642SOL    HW2 2340   3.374   5.150   4.787 -0.6306  0.0317  1.9071
  642SOL    HW3 2341   3.229   5.151   4.833 -1.6355 -0.7170 -1.0523
  642SOL    MW4 2342   3.294   5.185   4.786  0.0406 -0.5342  0.0349
  643SOL     OW 2343   3.812   4.123   3.223  0.3270 -0.4560  1.0651
  643SOL    HW2 2344   3.886   4.098   3.167  0.9406  0.2894  1.5229
  643SOL    HW3 2345   3.738   4.072   3.189  0.9453 -0.8768  0.3112
  643SOL    MW4 2346   3.812   4.113   3.211 -0.0854  0.6022 -0.0076
  644SOL     OW 2347   2.774   1.649   2.149 -0.5237  0.2369  0.5853
  644SOL    HW2 2348   2.788   1.638   2.055 -0.2792  2.1825  0.3547
  644SOL    HW3 2349   2.826   1.580   2.189  0.1504 -0.0166 -0.6756
  644SOL    MW4 2350   2.783   1.639   2.142  0.3179 -0.0152 -0.2943
  645SOL     OW 2351   2.623   1.198   1.017 -0.1960 -0.2501 -0.3350
  645SOL    HW2 2352   2.614   1.290   0.993  1.8813  0.1380  0.2340
  645SOL    HW3 2353   2.588   1.150   0.942  0.8117  0.9752 -1.6309
  645SOL    MW4 2354   2.617   1.204   1.004 -0.1935 -0.0160  0.5942
  646SOL     OW 2355   5.209   5.612   0.883 -0.2894 -0.2457  0.6534
  646SOL    HW2 2356   5.178   5.625   0.793  0.6174  1.6491  0.5824
  646SOL    HW3 2357   5.300   5.639   0.881 -0.5485  0.9120  2.3842
  646SOL    MW4 2358   5.217   5.617   0.871  0.6353  0.2383 -0.1431
  647SOL     OW 2359   0.277   2.218   4.237  0.6709  0.1532 -0.2294
  647SOL    HW2 2360   0.319   2.168   4.167  1.9027  2.0714 -0.9446
  647SOL    HW3 2361   0.232   2.152   4.290 -2.1767 -1.2797 -3.9630
  647SOL    MW4 2362   0.276   2.203   4.235  0.0914  0.2356  0.1807
  648SOL     OW 2363   0.565   1.710   2.428  0.0725 -0.3248  0.1574
  648SOL    HW2 2364   0.522   1.653   2.364 -0.0377 -0.6516  0.5232
  648SOL    HW3 2365   0.558   1.798   2.389 -0.6369 -0.4201  0.0576
  648SOL    MW4 2366   0.558   1.714   2.414  0.4323 -0.0028  0.2236
  649SOL     OW 2367   4.846   2.951   1.068  0.6567  0.0640 -0.6479
  649SOL    HW2 2368   4.855   2.865   1.109  1.0040  0.7165  0.7016
  649SOL    HW3 2369   4.799   2.934   0.986 -0.7715 -1.1968  0.3738
  649SOL    MW4 2370   4.841   2.937   1.062  0.6182  0.0228  0.0194
  650SOL     OW 2371   2.235   6.423   5.936  0.0274  0.7370 -0.0781
  650SOL    HW2 2372   2.296   6.482   5.890  0.7136  0.5789  0.6090
  650SOL    HW3 2373   2.292   6.363   5.984 -0.6738  0.8482  0.9137
  650SOL    MW4 2374   2.251   6.423   5.936 -0.3354  0.4162  0.2058
  651SOL     OW 2375   5.791   5.247   1.823  0.2017  0.0510  0.1963
  651SOL    HW2 2376   5.786   5.330   1.871  0.3573  0.2561 -0.1422
  651SOL    HW3 2377   5.756   5.182   1.885 -1.5381  0.6187 -0.1345
  651SOL    MW4 2378   5.786   5.250   1.838  0.5405 -0.1702  0.2588
  652SOL     OW 2379   1.647   4.264   2.606  0.2080 -0.6281 -0.0026
  652SOL    HW2 2380   1.560   4.296   2.583  0.1040 -1.5793 -0.9881
  652SOL    HW3 2381   1.704   4.341   2.599 -0.7194  0.2798  1.8237
  652SOL    MW4 2382   1.643   4.279   2.602  0.1048  0.0829 -0.5954
  653SOL     OW 2383   5.068   5.013   0.666  0.0152 -0.3812 -0.0116
  653SOL    HW2 2384   5.053   4.931   0.618 -0.9321 -1.0962  1.4196
  653SOL    HW3 2385   4.980   5.042   0.689  0.4333 -0.0512  1.2400
  653SOL    MW4 2386   5.054   5.006   0.663  0.3004  0.1607 -0.1268
  654SOL     OW 2387   0.869   1.322   1.950  1.0274 -0.5197 -0.2552
  654SOL    HW2 2388   0.908   1.251   1.900  1.6643  0.0172 -0.5343
  654SOL    HW3 2389   0.940   1.354   2.006  0.0512 -1.8908  1.9186
  654SOL    MW4 2390   0.884   1.317   1.951 -0.8394  0.2598  0.0774
  655SOL     OW 2391   5.107   5.019   0.954 -0.3726  0.2332  0.2250
  655SOL    HW2 2392   5.093   5.050   0.865  0.6264 -0.4097 -0.1741
  655SOL    HW3 2393   5.021   4.987   0.983 -1.3360  2.8616  0.4922
  655SOL    MW4 2394   5.094   5.019   0.946 -0.2994 -0.1509 -0.1198
  656SOL     OW 2395   4.354   0.911   3.771  0.2241  0.4185  0.0395
  656SOL    HW2 2396   4.363   0.817   3.790 -2.0237  0.2650  0.6889
  656SOL    HW3 2397   4.431   0.951   3.811 -0.2019 -0.8620  2.3551
  656SOL    MW4 2398   4.365   0.904   3.779  0.2966  0.2432 -0.3084
  657SOL     OW 2399   0.871   4.105   2.613  0.2472  0.0226 -0.1398
  657SOL    HW2 2400   0.830   4.066   2.536 -0.0855 -0.0756  0.0866
  657SOL    HW3 2401   0.951   4.054   2.625  0.2462 -0.0327 -0.3552
  657SOL    MW4 2402   0.876   4.093   2.604 -0.3530  0.0573  0.1529
  658SOL     OW 2403   1.821   2.066   6.256  0.6342 -0.2603 -0.2325
  658SOL    HW2 2404   1.744   2.076   6.200  0.2119 -1.0292  0.2065
  658SOL    HW3 2405   1.786   2.042   6.342  1.2568  1.0907  0.4369
  658SOL    MW4 2406   1.806   2.064   6.260 -0.7954  0.3196  0.7855
  659SOL     OW 2407   5.013   1.813   4.932  0.0220 -0.1551  0.0470
  659SOL    HW2 2408   4.944   1.771   4.881  1.0004  0.2360 -1.6656
  659SOL    HW3 2409   5.013   1.766   5.015 -2.0278 -0.4202 -0.0358
  659SOL    MW4 2410   5.004   1.802   4.937  0.3298  0.5964 -0.4071
  660SOL     OW 2411   5.313   1.791   6.233 -0.1993  0.0567  0.0314
  660SOL    HW2 2412   5.219   1.772   6.230 -0.0681 -1.2249  2.1757
  660SOL    HW3 2413   5.350   1.735   6.164 -1.0965  1.7456 -1.9363
  660SOL    MW4 2414   5.306   1.781   6.223 -0.1075 -0.1487 -0.1685
  661SOL     OW 2415   2.298   6.388   4.823  0.0119  0.4280  0.0758
  661SOL    HW2 2416   2.375   6.378   4.767 -1.2861 -1.4282 -1.5243
  661SOL    HW3 2417   2.262   6.473   4.799 -0.4170 -0.2498 -1.8671
  661SOL    MW4 2418   2.303   6.398   4.813  0.1319  0.0667 -0.2045
  662SOL     OW 2419   4.745   1.040   2.608 -0.2350  0.1230 -0.1098
  662SOL    HW2 2420   4.675   1.087   2.653  1.8123 -0.1443  3.7447
  662SOL    HW3 2421   4.808   1.108   2.584  0.6398 -0.0980  1.4185
  662SOL    MW4 2422   4.744   1.055   2.611  0.5166  0.3390 -0.6070
  663SOL     OW 2423   6.084   2.825   2.673  0.1503  0.3255 -0.3183
  663SOL    HW2 2424   6.038   2.884   2.614 -0.1962  0.8425  0.4575
  663SOL    HW3 2425   6.158   2.792   2.621 -0.9574 -0.3747 -1.5126
  663SOL    MW4 2426   6.088   2.828   2.658 -0.0782  0.9534 -0.1833
  664SOL     OW 2427   2.292   1.579   3.055  0.6699  0.4208 -0.1250
  664SOL    HW2 2428   2.328   1.666   3.072 -0.0372  0.3832  1.9293
  664SOL    HW3 2429   2.293   1.536   3.140 -1.3312 -0.6601 -0.5838
  664SOL    MW4 2430   2.297   1.585   3.068 -0.0434 -0.3150 -0.2103
  665SOL     OW 2431   4.200   4.787   4.005  0.1843 -0.5117 -0.1872
  665SOL    HW2 2432   4.263   4.721   3.977  0.1544  0.0197 -1.5564
  665SOL    HW3 2433   4.122   4.770   3.953  0.0435  0.3639 -0.2740
  665SOL    MW4 2434   4.198   4.776   3.995  0.2385 -0.3150 -0.1428
  666SOL     OW 2435   1.937   4.906   3.983 -0.0858  0.3201  0.0021
  666SOL    HW2 2436   2.029   4.885   3.966 -0.1492 -0.5029  0.6556
  666SOL    HW3 2437   1.887   4.840   3.935 -0.2892 -0.8195  1.7047
  666SOL    MW4 2438   1.942   4.895   3.975  0.2218 -0.0884  0.0107
  667SOL     OW 2439   2.398   4.748   0.338  0.0809  1.1822  0.0887
  667SOL    HW2 2440   2.327   4.806   0.365 -1.6227 -0.8249  0.1934
  667SOL    HW3 2441   2.364   4.660   0.354  1.0112 -0.0173 -3.6246
  667SOL    MW4 2442   2.384   4.744   0.344 -0.1555 -0.4555  0.4936
  668SOL     OW 2443   0.982   6.274   4.831 -0.1874  0.1262 -0.1458
  668SOL    HW2 2444   1.061   6.269   4.885 -0.5603 -0.4740  0.3713
  668SOL    HW3 2445   0.910   6.273   4.895 -0.6060  0.7570 -0.6047
  668SOL    MW4 2446   0.983   6.273   4.847  0.4029  0.0940 -0.4928
  669SOL     OW 2447   0.308   1.948   3.640 -0.1950  0.3557  0.4087
  669SOL    HW2 2448   0.387   1.972   3.688 -0.3180  0.7955  0.3918
  669SOL    HW3 2449   0.314   1.853   3.632 -0.1041  0.2887  1.1668
  669SOL    MW4 2450   0.319   1.939   3.645 -0.4283  0.2364  0.3470
  670SOL     OW 2451   0.265   2.400   4.695  0.0156 -0.5401  0.0938
  670SOL    HW2 2452   0.219   2.402   4.779  0.5570 -1.5854  0.4388
  670SOL    HW3 2453   0.290   2.308   4.684  0.8476 -0.2306 -0.7205
  670SOL    MW4 2454   0.262   2.388   4.705 -0.3296  0.7325  0.2893
  671SOL     OW 2455   1.002   2.399   5.362  0.1264  0.5324  0.6840
  671SOL    HW2 2456   1.032   2.320   5.407  0.6865  0.1093 -0.3980
  671SOL    HW3 2457   0.907   2.391   5.360  0.2097 -0.3948  0.0901
  671SOL    MW4 2458   0.993   2.387   5.368  0.3863 -0.6590  0.4021
  672SOL     OW 2459   4.046   0.525   3.850 -0.3607 -0.0488  0.6207
  672SOL    HW2 2460   4.046   0.522   3.945  0.5505 -1.8082  0.6012
  672SOL    HW3 2461   4.126   0.480   3.824 -1.9839 -2.2895 -0.9927
  672SOL    MW4 2462   4.056   0.518   3.859  0.0311  0.2703  0.2850
  673SOL     OW 2463   6.184   2.944   5.869 -0.0693 -0.5848  0.0658
  673SOL    HW2 2464   6.114   3.006   5.884 -0.6103 -0.7878 -1.4603
  673SOL    HW3 2465   6.263   2.998   5.860 -0.3093 -0.2300  0.0939
  673SOL    MW4 2466   6.185   2.959   5.870 -0.3969  0.0383 -0.6763
  674SOL     OW 2467   0.414   4.391   3.159  0.3258 -0.3240  0.3498
  674SOL    HW2 2468   0.385   4.317   3.105 -0.2126  0.7511 -0.8929
  674SOL    HW3 2469   0.332   4.431   3.189  0.4524  1.6162 -1.6239
  674SOL    MW4 2470   0.399   4.386   3.155  0.0795  0.1983 -0.2679
  675SOL     OW 2471   1.490   3.467   3.683  0.5844 -0.2922  0.2892
  675SOL    HW2 2472   1.436   3.538   3.719  1.3077  0.4694 -0.0948
  675SOL    HW3 2473   1.447   3.443   3.601  1.5816  1.2965 -0.7442
  675SOL    MW4 2474   1.477   3.473   3.677 -0.5038 -0.6697 -0.2917
  676SOL     OW 2475   0.170   4.384   4.937 -0.3340 -0.5810  0.3859
  676SOL    HW2 2476   0.201   4.296   4.957 -0.0979 -0.3200  1.2020
  676SOL    HW3 2477   0.078   4.372   4.915 -1.1954 -0.6909  3.6049
  676SOL    MW4 2478   0.162   4.370   4.936  0.5210 -0.8959  0.3531
  677SOL     OW 2479   4.149   2.921   2.157  0.7445  0.1257  0.2081
  677SOL    HW2 2480   4.097   2.863   2.101  0.3086  0.4471  0.2764
  677SOL    HW3 2481   4.087   2.988   2.186  0.5925 -0.7641  2.1548
  677SOL    MW4 2482   4.134   2.922   2.154  0.2915 -0.4724  0.3689
  678SOL     OW 2483   5.276   4.185   3.639  0.0168 -0.6626  0.6587
  678SOL    HW2 2484   5.307   4.186   3.548 -1.9751 -0.1055 -0.0894
  678SOL    HW3 2485   5.322   4.257   3.681 -0.5947  0.4642 -0.5242
  678SOL    MW4 2486   5.286   4.194   3.632  0.0098  0.4239 -0.2558
  679SOL     OW 2487   3.429   5.564   4.516 -0.1544  0.5583 -0.2564
  679SOL    HW2 2488   3.340   5.535   4.534  0.0874 -0.4280 -0.6173
  679SOL    HW3 2489   3.443   5.543   4.424 -0.5613  3.3857 -1.0501
  679SOL    MW4 2490   3.419   5.558   4.506  0.2366 -0.1061 -0.1010
  680SOL     OW 2491   0.377   1.188   2.931  0.8075 -0.0808  0.2982
  680SOL    HW2 2492   0.331   1.270   2.914  1.1111 -0.0388 -0.3401
  680SOL    HW3 2493   0.443   1.212   2.996  0.5546  0.0658  0.5038
  680SOL    MW4 2494   0.380   1.202   2.938  0.0345 -0.4678  0.2726
  681SOL     OW 2495   0.269   4.493   3.587  0.3399 -0.8359 -0.5670
  681SOL    HW2 2496   0.281   4.528   3.675  0.7364  2.4076 -1.7814
  681SOL    HW3 2497   0.357   4.473   3.556  0.3373 -0.6040 -0.7280
  681SOL    MW4 2498   0.282   4.495   3.594  0.4147 -0.1119  0.4567
  682SOL     OW 2499   2.272   3.369   5.534 -0.5436  0.0191 -0.0861
  682SOL    HW2 2500   2.286   3.294   5.591 -1.0708 -0.3317 -0.4140
  682SOL    HW3 2501   2.348   3.426   5.550 -1.0000  0.2287  1.4311
  682SOL    MW4 2502   2.284   3.367   5.543 -0.0304 -0.2315 -0.4481
  683SOL     OW 2503   2.771   5.809   5.435 -0.2860 -0.7933 -0.2168
  683SOL    HW2 2504   2.721   5.810   5.517 -1.1937 -1.2661 -0.7498
  683SOL    HW3 2505   2.798   5.718   5.425  0.7927 -0.5228  0.1143
  683SOL    MW4 2506   2.768   5.797   5.445  0.4741  1.0113 -0.2150
  684SOL     OW 2507   2.243   0.143   0.775 -0.0795  0.1427  0.1397
  684SOL    HW2 2508   2.235   0.226   0.728 -0.5198 -0.0823 -0.1937
  684SOL    HW3 2509   2.157   0.102   0.764  0.4085 -0.7514 -0.4536
  684SOL    MW4 2510   2.231   0.149   0.767  0.8927 -0.2663  0.5121
  685SOL     OW 2511   0.318   2.697   4.603 -0.0998  0.8324 -0.4115
  685SOL    HW2 2512   0.299   2.603   4.616 -0.5401  0.6192 -2.2831
  685SOL    HW3 2513   0.312   2.734   4.691 -1.2451 -0.6741  0.2156
  685SOL    MW4 2514   0.315   2.689   4.617  0.1785  0.6916  0.2844
  686SOL     OW 2515   5.360   4.480   5.409 -0.0137 -0.0756  0.7718
  686SOL    HW2 2516   5.435   4.421   5.406 -0.7208 -0.9615 -0.4711
  686SOL    HW3 2517   5.374   4.534   5.487  2.5653  0.6705 -0.1116
  686SOL    MW4 2518   5.372   4.479   5.418 -0.5012 -0.1287  0.4424
  687SOL     OW 2519   6.013   0.719   5.668  0.0829 -0.1655  0.3861
  687SOL    HW2 2520   5.982   0.661   5.599  1.2613 -1.7592  1.1337
  687SOL    HW3 2521   5.972   0.687   5.748  0.6314  0.1188  0.7924
  687SOL    MW4 2522   6.004   0.707   5.669 -0.6766  0.1939  0.3825
  688SOL     OW 2523   5.956   4.289   4.359  0.3345  0.3262 -0.0050
  688SOL    HW2 2524   5.889   4.314   4.423 -0.8862 -1.4371 -0.5055
  688SOL    HW3 2525   6.014   4.230   4.407 -0.2797 -0.5832 -0.3526
  688SOL    MW4 2526   5.955   4.284   4.374 -0.4740  0.1628 -0.1108
  689SOL     OW 2527   1.596   4.504   0.042 -0.6671  0.2543  0.1158
  689SOL    HW2 2528   1.672   4.560   0.030  0.2178 -0.4570  1.9685
  689SOL    HW3 2529   1.521   4.563   0.042  0.2068  1.4178  1.6602
  689SOL    MW4 2530   1.596   4.519   0.040 -0.5366 -0.3937  0.0286
  690SOL     OW 2531   6.023   0.522   3.568 -0.4800  0.2240  0.5328
  690SOL    HW2 2532   6.084   0.461   3.610  0.5731 -0.3091 -1.6477
  690SOL    HW3 2533   6.057   0.609   3.588 -0.3008  0.0157  1.1730
  690SOL    MW4 2534   6.035   0.525   3.576  0.0073  0.3189  0.6450
  691SOL     OW 2535   4.379   6.405   0.545  0.4190  0.1882 -0.6185
  691SOL    HW2 2536   4.368   6.375   0.635  1.1511  1.4283 -0.0930
  691SOL    HW3 2537   4.291   6.411   0.510  0.1985 -2.0206 -0.5912
  691SOL    MW4 2538   4.366   6.402   0.552 -0.0694  0.1126  0.5363
  692SOL     OW 2539   4.864   4.942   5.229 -0.1256  0.5105  0.1984
  692SOL    HW2 2540   4.790   4.899   5.271  0.0884  0.6873  0.7566
  692SOL    HW3 2541   4.904   4.994   5.298  0.4804  0.4708 -0.1208
  692SOL    MW4 2542   4.859   4.943   5.243  0.2609  0.1102  0.7059
  693SOL     OW 2543   1.780   2.293   0.955 -0.0745  0.2200 -0.2226
  693SOL    HW2 2544   1.852   2.351   0.932  1.4688 -0.9860  1.3325
  693SOL    HW3 2545   1.746   2.328   1.037 -1.4596  0.9087 -1.0559
  693SOL    MW4 2546   1.785   2.305   0.963  0.0157  0.0281  0.0998
  694SOL     OW 2547   4.172   0.523   0.145 -0.4004 -0.2901 -0.3490
  694SOL    HW2 2548   4.149   0.433   0.171 -0.7596 -0.3766 -0.9638
  694SOL    HW3 2549   4.090   0.571   0.149  0.2731  0.8271  3.1127
  694SOL    MW4 2550   4.159   0.517   0.149 -0.6313  0.0419  0.3632
  695SOL     OW 2551   5.510   4.623   5.203  0.1232 -0.1131 -0.5066
  695SOL    HW2 2552   5.450   4.578   5.263 -1.0063  0.0762 -1.4616
  695SOL    HW3 2553   5.589   4.639   5.256  0.1062 -2.1059  0.2107
  695SOL    MW4 2554   5.513   4.619   5.218 -0.1361  0.1389  0.0431
  696SOL     OW 2555   2.571   0.275   3.193  0.3468 -0.6890  0.2401
  696SOL    HW2 2556   2.635   0.222   3.147  0.8245  0.6195 -0.6650
  696SOL    HW3 2557   2.622   0.338   3.243 -0.2038 -0.2079  0.2195
  696SOL    MW4 2558   2.586   0.276   3.193  0.4337 -0.1062  0.2209
  697SOL     OW 2559   2.527   1.526   1.540 -0.2302 -0.7927  0.2943
  697SOL    HW2 2560   2.590   1.470   1.585 -0.2768 -1.6862 -0.7155
  697SOL    HW3 2561   2.500   1.590   1.606  0.3041 -1.5695  1.2882
  697SOL    MW4 2562   2.532   1.527   1.555 -0.2019 -0.0361  0.2054
  698SOL     OW 2563   4.220   4.211   5.430  0.0044 -0.3170  0.0914
  698SOL    HW2 2564   4.312   4.201   5.454 -0.0454  0.8804  0.8586
  698SOL    HW3 2565   4.215   4.298   5.390 -0.2707 -1.4986 -2.7046
  698SOL    MW4 2566   4.231   4.221   5.428  0.8346  0.6887  0.2837
  699SOL     OW 2567   4.022   4.497   5.717  0.0038 -0.4140 -0.5374
  699SOL    HW2 2568   3.937   4.538   5.703  1.1345  2.5922  0.4353
  699SOL    HW3 2569   4.047   4.524   5.805  1.3912 -2.4156 -0.2530
  699SOL    MW4 2570   4.014   4.506   5.726 -0.2685  0.1273  0.1531
  700SOL     OW 2571   3.031   2.691   4.372 -0.1287 -0.2478  0.2863
  700SOL    HW2 2572   2.959   2.700   4.309 -0.6928 -1.9015  0.6410
  700SOL    HW3 2573   3.088   2.624   4.334  0.9390  0.6417  0.2894
  700SOL    MW4 2574   3.029   2.683   4.359  0.3286 -0.0475 -0.1504
  701SOL     OW 2575   0.320   0.698   4.294  0.0931 -0.8564 -0.2301
  701SOL    HW2 2576   0.389   0.727   4.354  0.9470 -2.0082 -0.6069
  701SOL    HW3 2577   0.242   0.687   4.349 -0.4023  2.3753 -0.1265
  701SOL    MW4 2578   0.319   0.700   4.309  0.0498 -0.0781  0.0119
  702SOL     OW 2579   1.172   4.076   0.484 -0.4480 -0.2027  0.0950
  702SOL    HW2 2580   1.212   4.132   0.551  1.5542 -0.0465 -1.1453
  702SOL    HW3 2581   1.126   4.136   0.426 -1.0506 -0.2052  0.5577
  702SOL    MW4 2582   1.171   4.091   0.485  0.0064 -0.1906  0.2291
  703SOL     OW 2583   3.404   2.875   4.226 -0.4876  0.3946 -0.1484
  703SOL    HW2 2584   3.327   2.891   4.281  0.0717  1.2614  0.4057
  703SOL    HW3 2585   3.393   2.785   4.196 -0.7118 -0.2012  1.5668
  703SOL    MW4 2586   3.392   2.865   4.230 -0.2188  0.1480  0.5108
  704SOL     OW 2587   4.738   0.363   1.396 -0.0647  0.5740  0.7617
  704SOL    HW2 2588   4.740   0.296   1.328  0.9803 -1.8428  2.9744
  704SOL    HW3 2589   4.800   0.430   1.366 -0.4835  0.1678 -1.1175
  704SOL    MW4 2590   4.747   0.363   1.383 -0.3949 -0.1564 -0.2601
  705SOL     OW 2591   4.016   0.022   4.520 -0.2240 -0.7433 -0.0632
  705SOL    HW2 2592   3.932   0.063   4.500 -0.4707 -1.4436 -0.5104
  705SOL    HW3 2593   3.995  -0.071   4.531  0.0149 -0.5443  2.7198
  705SOL    MW4 2594   4.002   0.015   4.519  0.0839  0.0826  0.1380
  706SOL     OW 2595   2.632   5.837   0.357 -0.0785 -0.4720 -0.1499
  706SOL    HW2 2596   2.685   5.780   0.412  1.2314  0.7159 -0.1120
  706SOL    HW3 2597   2.608   5.783   0.282 -0.6911 -1.6820  0.9004
  706SOL    MW4 2598   2.636   5.823   0.354  0.0044  0.2770 -0.5546
  707SOL     OW 2599   3.770   2.564   5.332  0.1477  0.3211  0.0964
  707SOL    HW2 2600   3.692   2.568   5.388  0.1368 -0.0236  0.1119
  707SOL    HW3 2601   3.735   2.563   5.243  0.1889  1.5231  0.0507
  707SOL    MW4 2602   3.755   2.564   5.328 -0.1272 -0.1012 -0.4888
  708SOL     OW 2603   5.593   4.740   4.451 -0.3386 -0.6503 -0.0970
  708SOL    HW2 2604   5.677   4.694   4.457  0.0452 -0.0847 -0.9626
  708SOL    HW3 2605   5.539   4.699   4.519  0.9453 -0.3574  1.1711
  708SOL    MW4 2606   5.597   4.729   4.461  0.8784  0.2624 -0.1074
  709SOL     OW 2607   2.833   4.855   0.894 -0.1830  0.1325  0.1054
  709SOL    HW2 2608   2.765   4.813   0.946 -0.3839  0.8593  0.4442
  709SOL    HW3 2609   2.909   4.857   0.951 -0.6873  1.8519  0.8012
  709SOL    MW4 2610   2.834   4.850   0.908 -0.2772  0.6723 -0.4735
  710SOL     OW 2611   2.465   1.081   4.169 -0.0709  0.0721  0.2860
  710SOL    HW2 2612   2.391   1.087   4.229  0.9714  0.2805  1.5881
  710SOL    HW3 2613   2.528   1.145   4.201  0.5257  0.1856 -1.0362
  710SOL    MW4 2614   2.464   1.090   4.181 -0.2992  0.0794 -0.2126
  711SOL     OW 2615   5.534   2.626   0.380  0.1775  0.1206  0.4189
  711SOL    HW2 2616   5.506   2.623   0.288  1.2942  0.3412  0.0517
  711SOL    HW3 2617   5.627   2.602   0.377  0.0204 -0.6872  1.5929
  711SOL    MW4 2618   5.543   2.623   0.367 -0.1672 -0.1721 -0.5709
  712SOL     OW 2619   4.879   0.430   4.002 -0.0471  0.3972  0.0537
  712SOL    HW2 2620   4.947   0.417   4.068 -0.7614 -1.3816  0.5194
  712SOL    HW3 2621   4.827   0.503   4.035  0.3821  0.3757  0.8068
  712SOL    MW4 2622   4.881   0.438   4.015  0.0821  0.0417 -0.4442
  713SOL     OW 2623   4.140   0.793   0.863  0.2499  0.4001 -0.5288
  713SOL    HW2 2624   4.099   0.715   0.827 -0.2077  0.0487  0.6910
  713SOL    HW3 2625   4.074   0.862   0.852 -0.6499 -0.1098  1.2064
  713SOL    MW4 2626   4.126   0.792   0.857 -0.5032 -0.1897 -0.4888
  714SOL     OW 2627   0.875   0.486   1.514 -0.4309 -0.6368  0.3841
  714SOL    HW2 2628   0.856   0.576   1.489  0.6780 -0.6307 -0.5120
  714SOL    HW3 2629   0.849   0.481   1.606  1.8107  1.3558  1.2612
  714SOL    MW4 2630   0.869   0.497   1.523 -0.4452  0.2699  0.5708
  715SOL     OW 2631   2.441   2.269   1.100 -0.7501  0.7503  0.0702
  715SOL    HW2 2632   2.500   2.272   1.176 -0.2679  1.8556 -0.3344
  715SOL    HW3 2633   2.474   2.336   1.041 -1.5527  0.3879 -0.8168
  715SOL    MW4 2634   2.453   2.278   1.102  0.3294 -1.0957 -0.5402
  716SOL     OW 2635   0.115   2.550   1.838 -0.6455  0.5958 -0.3725
  716SOL    HW2 2636   0.208   2.530   1.832 -0.2538  1.6573  1.3495
  716SOL    HW3 2637   0.111   2.646   1.832 -1.6801  0.5441 -0.7982
  716SOL    MW4 2638   0.127   2.560   1.836 -0.2573  0.0529 -0.2476
  717SOL     OW 2639   2.200   0.171   6.152 -0.0100  0.0981  0.1178
  717SOL    HW2 2640   2.183   0.105   6.085  0.7336  0.6824 -0.6655
  717SOL    HW3 2641   2.292   0.157   6.176 -0.6267 -1.0501  2.0915
  717SOL    MW4 2642   2.210   0.160   6.146 -0.0230 -0.8339  0.2600
  718SOL     OW 2643   5.885   2.907   4.406 -0.2847 -0.2486 -0.0978
  718SOL    HW2 2644   5.882   2.864   4.492  0.3301  2.8084  1.6017
  718SOL    HW3 2645   5.795   2.935   4.390 -0.6098 -1.7264 -1.0214
  718SOL    MW4 2646   5.873   2.905   4.415 -0.2627  0.2402 -0.6490
  719SOL     OW 2647   0.152   0.683   0.331  0.2140  0.3466  0.0501
  719SOL    HW2 2648   0.115   0.698   0.244  0.4471  0.3873 -0.0412
  719SOL    HW3 2649   0.217   0.615   0.319  0.0271  0.1295  0.2496
  719SOL    MW4 2650   0.156   0.676   0.318  0.1362  0.3945  0.2324
  720SOL     OW 2651   4.321   4.827   0.769  0.3094  0.0648 -0.1302
  720SOL    HW2 2652   4.404   4.874   0.764  0.3864 -0.0362  0.1398
  720SOL    HW3 2653   4.286   4.850   0.855  0.6109 -0.7968  0.2285
  720SOL    MW4 2654   4.327   4.836   0.780 -0.0907  0.1247 -0.4930
  721SOL     OW 2655   4.760   1.747   4.130  0.1277  0.1248 -0.5434
  721SOL    HW2 2656   4.708   1.784   4.059  0.1736  1.4080  0.0593
  721SOL    HW3 2657   4.717   1.778   4.210 -0.8762 -2.5691  0.0794
  721SOL    MW4 2658   4.747   1.756   4.132 -0.2755  0.2880 -0.2408
  722SOL     OW 2659   5.202   5.205   5.983  0.0175  0.4865  0.0272
  722SOL    HW2 2660   5.244   5.124   5.953 -1.4193  0.2662 -1.5487
  722SOL    HW3 2661   5.256   5.275   5.946  1.2860  0.2921  1.4210
  722SOL    MW4 2662   5.215   5.203   5.974 -0.2880  0.3859 -0.3298
  723SOL     OW 2663   6.058   5.798   1.319 -0.6835 -0.5759  0.9166
  723SOL    HW2 2664   6.064   5.800   1.224 -1.9915 -0.0431  0.8247
  723SOL    HW3 2665   6.136   5.750   1.347  0.5747  0.6397 -0.3289
  723SOL    MW4 2666   6.069   5.792   1.310  0.3118 -0.3602 -0.0853
  724SOL     OW 2667   4.324   1.406   1.037  0.3536 -0.3817  0.2719
  724SOL    HW2 2668   4.390   1.411   1.106  0.9955 -1.0998 -0.2702
  724SOL    HW3 2669   4.341   1.322   0.993 -0.0918  0.0212 -0.7081
  724SOL    MW4 2670   4.335   1.396   1.040 -0.1768  1.1632  0.5149
  725SOL     OW 2671   2.332   1.282   0.343 -0.2438  0.5355  0.3089
  725SOL    HW2 2672   2.370   1.289   0.255  0.4917 -1.5799  0.4030
  725SOL    HW3 2673   2.259   1.343   0.342 -0.8320 -0.1010 -2.1268
  725SOL    MW4 2674   2.327   1.291   0.331  0.4966  0.4448 -0.2291
  726SOL     OW 2675   4.266   5.572   1.053 -0.2259  0.0559 -0.3005
  726SOL    HW2 2676   4.273   5.576   1.148 -0.7823 -1.1128 -0.1998
  726SOL    HW3 2677   4.238   5.660   1.027  2.0770  1.0687  0.3947
  726SOL    MW4 2678   4.264   5.584   1.062  0.4297 -0.1801  0.0501
  727SOL     OW 2679   2.261   1.809   1.101  0.1034 -0.0356 -0.8359
  727SOL    HW2 2680   2.262   1.902   1.078 -2.0489 -0.3056 -2.3090
  727SOL    HW3 2681   2.321   1.768   1.038 -0.1157  0.1639 -1.1770
  727SOL    MW4 2682   2.269   1.816   1.089  0.2779  0.3064 -0.0832
  728SOL     OW 2683   2.272   1.693   5.833 -0.2821 -0.6791  0.1099
  728SOL    HW2 2684   2.278   1.603   5.801 -1.9722 -0.4082 -1.1350
  728SOL    HW3 2685   2.184   1.699   5.872  0.8479 -0.3172  2.8034
  728SOL    MW4 2686   2.261   1.682   5.834 -0.1064 -0.4273  0.3565
  729SOL     OW 2687   0.959   0.592   6.157 -0.4520  0.1760 -0.3223
  729SOL    HW2 2688   0.866   0.575   6.141 -0.3118 -0.5230 -0.4321
  729SOL    HW3 2689   0.992   0.621   6.072  0.0152 -2.3049 -1.0939
  729SOL    MW4 2690   0.951   0.593   6.144  0.1317 -0.6966 -0.0119
  730SOL     OW 2691   0.062   3.592   3.814  0.1858  0.0323  0.0760
  730SOL    HW2 2692   0.072   3.523   3.748  0.4859  0.4927 -0.3642
  730SOL    HW3 2693   0.151   3.613   3.840  0.1623  0.9733 -0.5495
  730SOL    MW4 2694   0.075   3.585   3.809  0.0883 -0.3709  0.1061
  731SOL     OW 2695   0.789   2.679   2.641  0.1722 -0.5075 -0.1096
  731SOL    HW2 2696   0.874   2.636   2.650 -0.6005 -2.1945 -0.5403
  731SOL    HW3 2697   0.784   2.702   2.548  0.0121 -0.7490 -0.1622
  731SOL    MW4 2698   0.800   2.677   2.630 -0.0059 -0.0011 -0.2452
  732SOL     OW 2699   0.983   5.136   1.046 -0.4909  0.8053  0.1183
  732SOL    HW2 2700   1.003   5.094   1.129  0.4424  0.7842 -0.1127
  732SOL    HW3 2701   0.931   5.071   0.998  0.1888  0.2466  0.1198
  732SOL    MW4 2702   0.978   5.122   1.050  0.3495 -0.2942  0.3655
  733SOL     OW 2703   1.953   4.913   5.058 -0.5661 -0.2914 -0.5009
  733SOL    HW2 2704   1.901   4.983   5.098  0.1258  0.4340 -0.8403
  733SOL    HW3 2705   2.006   4.958   4.991 -1.6919 -1.4600 -2.2625
  733SOL    MW4 2706   1.953   4.928   5.054 -0.6563 -0.0990 -0.2755
  734SOL     OW 2707   2.756   5.438   2.981 -0.0807 -0.3498 -0.1915
  734SOL    HW2 2708   2.695   5.368   2.958  0.6462 -0.5210 -1.7888
  734SOL    HW3 2709   2.732   5.464   3.070 -0.1669 -2.8485  0.5761
  734SOL    MW4 2710   2.745   5.432   2.989 -0.3663  0.4557  0.0636
  735SOL     OW 2711   1.508   3.667   3.902  0.0374 -0.0878  0.2643
  735SOL    HW2 2712   1.526   3.751   3.861 -0.0952  0.0660  0.5158
  735SOL    HW3 2713   1.442   3.687   3.969  0.8320 -0.1897  1.0955
  735SOL    MW4 2714   1.502   3.680   3.905 -0.2485 -0.1278  0.1705
  736SOL     OW 2715   4.848   2.050   1.433  0.1227 -0.0855 -0.1887
  736SOL    HW2 2716   4.928   2.089   1.466 -0.1742  0.4866 -0.1304
  736SOL    HW3 2717   4.876   1.968   1.393  0.5354 -0.6006  1.1205
  736SOL    MW4 2718   4.862   2.044   1.432 -0.1011 -0.0923  0.1553
  737SOL     OW 2719   5.784   3.867   4.704 -0.2291 -0.2019  0.1648
  737SOL    HW2 2720   5.747   3.813   4.634 -1.1980  0.0751  0.4460
  737SOL    HW3 2721   5.867   3.825   4.726 -0.7764 -1.3640  0.1038
  737SOL    MW4 2722   5.790   3.854   4.698 -0.6491 -0.1720 -0.0398
  738SOL     OW 2723   1.333   3.448   5.296 -0.0669  0.3439  0.2944
  738SOL    HW2 2724   1.379   3.412   5.371  0.6973 -0.1075 -0.3813
  738SOL    HW3 2725   1.326   3.376   5.234  0.7837  1.1306 -0.7561
  738SOL    MW4 2726   1.338   3.434   5.298  0.1383 -0.2865 -0.1038
  739SOL     OW 2727   4.176   5.515   4.363  0.0344  0.1029  0.2461
  739SOL    HW2 2728   4.251   5.522   4.303  1.4534 -2.9729  1.4647
  739SOL    HW3 2729   4.201   5.569   4.438  0.0311  0.8185 -0.2564
  739SOL    MW4 2730   4.190   5.523   4.365  0.5763 -0.2508 -0.6210
  740SOL     OW 2731   4.785   4.152   1.988  0.2229 -0.2079  0.3794
  740SOL    HW2 2732   4.794   4.097   2.066  1.5047 -0.3852  0.1181
  740SOL    HW3 2733   4.733   4.100   1.928 -1.0174  0.0364  1.1939
  740SOL    MW4 2734   4.779   4.138   1.991  0.5337 -0.0902  0.2826
  741SOL     OW 2735   0.301   2.752   4.887  0.3091 -0.2800 -0.2084
  741SOL    HW2 2736   0.334   2.665   4.911  0.5987  0.1301  0.9308
  741SOL    HW3 2737   0.221   2.763   4.938  0.8457  0.5464  0.4705
  741SOL    MW4 2738   0.295   2.742   4.897  0.0065  0.2133  0.0943
  742SOL     OW 2739   6.027   5.172   3.032 -0.7202 -0.8853  0.5601
  742SOL    HW2 2740   5.941   5.136   3.054 -1.7136  1.0724  0.0957
  742SOL    HW3 2741   6.022   5.187   2.937  0.1419 -0.7620  0.5297
  742SOL    MW4 2742   6.015   5.169   3.022  0.7139 -0.2382 -0.7169
  743SOL     OW 2743   1.275   1.692   3.336 -0.1258  0.6524 -0.0654
  743SOL    HW2 2744   1.267   1.736   3.251  1.6935  3.7994  1.2213
  743SOL    HW3 2745   1.204   1.727   3.388  1.2182  2.0193  0.9197
  743SOL    MW4 2746   1.265   1.702   3.331  0.0161 -0.1717 -0.1538
  744SOL     OW 2747   2.011   6.381   1.735 -0.3934  0.4294  0.0187
  744SOL    HW2 2748   1.942   6.398   1.799  1.0729  0.0896  1.7769
  744SOL    HW3 2749   2.086   6.433   1.767  0.8431 -0.9371 -0.5559
  744SOL    MW4 2750   2.012   6.390   1.748  0.3680  0.4633 -0.2200
  745SOL     OW 2751   1.352   1.856   6.083 -0.7553 -0.3546 -0.0820
  745SOL    HW2 2752   1.314   1.840   6.169 -1.4671  3.2555  0.4388
  745SOL    HW3 2753   1.285   1.906   6.036  0.9974  0.9073 -1.3711
  745SOL    MW4 2754   1.338   1.860   6.088  0.7953  0.2248 -0.2367
  746SOL     OW 2755   0.785   3.035   2.511 -0.0725 -0.2766  0.7943
  746SOL    HW2 2756   0.774   3.105   2.447  1.4579 -0.3700  0.4025
  746SOL    HW3 2757   0.739   3.066   2.589  0.6462  1.2049  0.6635
  746SOL    MW4 2758   0.777   3.048   2.513  0.4538  0.6790 -0.0299
  747SOL     OW 2759   0.224   2.452   0.121  0.1702  0.1995  0.1685
  747SOL    HW2 2760   0.238   2.360   0.100  0.4947  0.0259  1.1041
  747SOL    HW3 2761   0.154   2.479   0.062  0.2159 -0.5839 -0.2663
  747SOL    MW4 2762   0.217   2.443   0.110  0.5613 -0.1667  0.4189
  748SOL     OW 2763   0.833   2.377   3.268  0.0220 -0.0152 -0.3128
  748SOL    HW2 2764   0.892   2.437   3.313 -2.0259  1.9048 -0.0078
  748SOL    HW3 2765   0.873   2.291   3.278  0.9566  0.6692  2.9991
  748SOL    MW4 2766   0.846   2.373   3.275  0.0175  0.1145 -0.5469
  749SOL     OW 2767   1.914   4.404   2.847 -0.2858  0.0981 -0.1025
  749SOL    HW2 2768   1.985   4.341   2.837  2.0018  2.5128 -0.0547
  749SOL    HW3 2769   1.949   4.471   2.905 -2.8972  1.0491  0.4919
  749SOL    MW4 2770   1.928   4.405   2.853 -0.6065  0.3105 -0.0639
  750SOL     OW 2771   6.341   0.840   5.406 -0.5022 -0.2418  0.6273
  750SOL    HW2 2772   6.435   0.848   5.390 -0.5568 -0.8608 -0.0391
  750SOL    HW3 2773   6.300   0.871   5.326 -0.8539 -0.3985  0.7454
  750SOL    MW4 2774   6.348   0.845   5.394 -0.7253 -0.2383 -0.0829
  751SOL     OW 2775   6.386   5.744   2.907 -0.1098 -0.0303 -0.2502
  751SOL    HW2 2776   6.321   5.729   2.838  0.1664 -3.1886 -0.0078
  751SOL    HW3 2777   6.336   5.740   2.989  0.0311  0.0627 -0.1589
  751SOL    MW4 2778   6.371   5.741   2.909 -0.4548 -0.1464 -0.5408
  752SOL     OW 2779   3.450   0.010   5.813 -0.3069 -0.4301  0.4511
  752SOL    HW2 2780   3.540  -0.021   5.803  0.0687  1.1664 -1.6205
  752SOL    HW3 2781   3.397  -0.070   5.810  0.8762 -1.2024 -1.0591
  752SOL    MW4 2782   3.455  -0.005   5.811  0.7571  0.2480 -0.0524
  753SOL     OW 2783   2.203   2.411   5.641  0.1766  0.5047 -0.5543
  753SOL    HW2 2784   2.230   2.321   5.624  0.5961  0.8966 -2.0953
  753SOL    HW3 2785   2.107   2.407   5.643  0.1995 -0.0624  0.0707
  753SOL    MW4 2786   2.194   2.399   5.639  0.3813  0.7649  0.2823
  754SOL     OW 2787   1.774   4.037   0.315 -0.3170 -0.3092 -0.5395
  754SOL    HW2 2788   1.843   3.976   0.288 -0.9897 -1.5212  0.3870
  754SOL    HW3 2789   1.809   4.080   0.393 -1.2694 -2.2937  1.0733
  754SOL    MW4 2790   1.787   4.035   0.321 -0.0040  0.1939 -0.3199
  755SOL     OW 2791   2.819   2.594   2.585 -0.5486 -0.4498 -0.0757
  755SOL    HW2 2792   2.797   2.610   2.493  0.7176 -1.5817 -0.5981
  755SOL    HW3 2793   2.762   2.654   2.633  0.0414  1.5196 -1.6661
  755SOL    MW4 2794   2.808   2.604   2.579  0.4237  0.4688  0.7702
  756SOL     OW 2795   1.688   5.406   4.247  0.4105  0.8590 -0.1718
  756SOL    HW2 2796   1.728   5.477   4.197 -0.4655  1.3660 -0.1840
  756SOL    HW3 2797   1.596   5.408   4.221  0.3181 -0.1095  0.0418
  756SOL    MW4 2798   1.681   5.415   4.237  0.3319  0.8349 -0.4601
  757SOL     OW 2799   3.676   6.176   0.006 -0.2107 -0.1212 -0.5194
  757SOL    HW2 2800   3.607   6.168  -0.060 -0.8549  0.3806  0.0885
  757SOL    HW3 2801   3.634   6.151   0.088 -0.0705  1.5378  0.0873
  757SOL    MW4 2802   3.661   6.171   0.008 -0.9827  0.0840  0.3479
  758SOL     OW 2803   3.682   1.899   4.484 -0.1813  0.3834  0.2420
  758SOL    HW2 2804   3.720   1.825   4.438  0.5738  1.9517 -1.7593
  758SOL    HW3 2805   3.627   1.859   4.552  1.2365 -1.9624  0.0964
  758SOL    MW4 2806   3.680   1.884   4.487 -0.3175 -0.0675  0.5794
  759SOL     OW 2807   4.215   2.086   2.091 -0.0424 -0.1335  0.3778
  759SOL    HW2 2808   4.219   2.151   2.160 -2.0521 -0.1492  0.5658
  759SOL    HW3 2809   4.175   2.009   2.132 -0.1908 -0.5451 -0.5002
  759SOL    MW4 2810   4.210   2.084   2.105 -0.1384 -0.2652  0.1115
  760SOL     OW 2811   2.647   5.020   2.164 -0.2870  0.3882  0.0146
  760SOL    HW2 2812   2.703   4.993   2.092 -1.1256 -0.9786 -0.1597
  760SOL    HW3 2813   2.705   5.068   2.223  0.5771  0.8399 -1.1684
  760SOL    MW4 2814   2.662   5.023   2.163 -0.1599 -0.1670 -0.3873
  761SOL     OW 2815   0.311   3.249   3.872 -0.1746 -0.3176 -0.5383
  761SOL    HW2 2816   0.349   3.314   3.812  2.6972  0.5472  1.9419
  761SOL    HW3 2817   0.253   3.300   3.929  1.6868  0.0870  1.0844
  761SOL    MW4 2818   0.308   3.265   3.872 -0.2981  0.1356  1.1367
  762SOL     OW 2819   1.336   3.969   0.278  0.4128 -0.5165 -0.1359
  762SOL    HW2 2820   1.270   4.000   0.339  0.6020  0.1006 -0.2372
  762SOL    HW3 2821   1.335   4.032   0.206  1.0154 -0.5701 -0.2015
  762SOL    MW4 2822   1.327   3.981   0.276 -0.0634  0.1984  0.4358
  763SOL     OW 2823   5.533   3.302   4.697  0.0306  0.0443 -0.3570
  763SOL    HW2 2824   5.582   3.342   4.769 -0.8604  0.1084  0.2286
  763SOL    HW3 2825   5.551   3.208   4.705 -1.8796 -0.2264  1.3975
  763SOL    MW4 2826   5.542   3.295   4.707  0.1552  0.4587 -0.4820
  764SOL     OW 2827   1.716   1.650   3.121  0.0958 -0.0522  0.0878
  764SOL    HW2 2828   1.675   1.630   3.205 -0.7698  3.3548  0.6247
  764SOL    HW3 2829   1.643   1.657   3.059  0.6659 -1.7858 -0.8705
  764SOL    MW4 2830   1.701   1.648   3.124  0.9470  0.2536  0.1972
  765SOL     OW 2831   4.495   4.050   2.259 -0.5632  0.4930  0.3750
  765SOL    HW2 2832   4.446   3.982   2.305  0.7894 -0.7756  0.0314
  765SOL    HW3 2833   4.535   4.004   2.185 -0.7570  1.9849 -0.6890
  765SOL    MW4 2834   4.494   4.035   2.255  0.3451  0.2528 -0.3452
  766SOL     OW 2835   6.332   2.522   3.703  0.0984 -0.2934 -0.2478
  766SOL    HW2 2836   6.285   2.554   3.780 -0.4937 -0.8828 -0.3579
  766SOL    HW3 2837   6.407   2.582   3.694 -0.0118 -0.0173  0.5839
  766SOL    MW4 2838   6.336   2.534   3.712  0.0366  0.3935  0.1783
  767SOL     OW 2839   4.373   1.705   0.124 -0.0832  0.1787 -0.9381
  767SOL    HW2 2840   4.412   1.774   0.176 -0.5682 -0.0188 -0.2950
  767SOL    HW3 2841   4.279   1.710   0.143 -0.3849  0.5985 -2.3851
  767SOL    MW4 2842   4.365   1.714   0.133 -0.1017 -0.0868  0.2886
  768SOL     OW 2843   0.504   4.163   2.452 -0.2516 -0.0296  0.1445
  768SOL    HW2 2844   0.485   4.238   2.508 -1.4076  1.1037 -1.7010
  768SOL    HW3 2845   0.421   4.141   2.411  0.1321 -2.1431  0.3795
  768SOL    MW4 2846   0.490   4.170   2.454  0.1077 -0.4729 -0.2755
  769SOL     OW 2847   4.143   5.369   4.069 -0.4826  0.4227 -0.2287
  769SOL    HW2 2848   4.078   5.310   4.108 -1.8471  1.6292 -0.6178
  769SOL    HW3 2849   4.144   5.344   3.976 -1.8439  1.6467 -0.6118
  769SOL    MW4 2850   4.134   5.358   4.062 -0.4543 -0.0790  0.2802
  770SOL     OW 2851   0.344   6.076   3.120 -0.0238  0.1657  0.2074
  770SOL    HW2 2852   0.338   6.144   3.053 -1.8591 -0.1195  0.0432
  770SOL    HW3 2853   0.433   6.085   3.156  0.5037  1.2341 -1.2787
  770SOL    MW4 2854   0.355   6.086   3.116 -0.1741 -0.5806  0.8605
  771SOL     OW 2855   2.275   2.817   2.383 -0.5019 -0.2475 -0.3557
  771SOL    HW2 2856   2.208   2.758   2.417  0.3564 -0.2557  1.4492
  771SOL    HW3 2857   2.232   2.902   2.378 -0.5509 -0.1377  1.3141
  771SOL    MW4 2858   2.260   2.820   2.387  0.3910  0.1927  0.0600
  772SOL     OW 2859   1.403   4.328   2.794 -0.2900 -0.0933  0.3089
  772SOL    HW2 2860   1.495   4.335   2.819 -0.1329 -1.2891  0.1210
  772SOL    HW3 2861   1.355   4.344   2.875  0.0128  1.7784  0.1664
  772SOL    MW4 2862   1.408   4.331   2.808 -0.6240  0.0583  0.0235
  773SOL     OW 2863   3.233   0.305   5.404  0.1049  0.2566  0.1476
  773SOL    HW2 2864   3.320   0.289   5.367  0.3050  0.7450  0.3910
  773SOL    HW3 2865   3.186   0.352   5.335 -0.3920 -1.1144 -0.4624
  773SOL    MW4 2866   3.238   0.309   5.390  0.4057 -0.0102  0.2794
  774SOL     OW 2867   1.324   0.563   6.076 -0.2428  0.2395 -0.1036
  774SOL    HW2 2868   1.388   0.535   6.010  0.5734  1.6929  0.0214
  774SOL    HW3 2869   1.251   0.599   6.025  0.5474  1.6950 -0.2327
  774SOL    MW4 2870   1.323   0.564   6.060 -0.2020  0.6624  0.0749
  775SOL     OW 2871   3.819   0.181   4.011 -0.2971 -0.2264  0.4281
  775SOL    HW2 2872   3.912   0.161   4.025 -0.4499 -0.0109  1.9095
  775SOL    HW3 2873   3.819   0.268   3.972  0.1177  0.2271  1.3921
  775SOL    MW4 2874   3.831   0.190   4.008  0.6412  0.2109 -0.2002
  776SOL     OW 2875   0.420   2.697   3.982 -0.1851  0.4843 -0.1696
  776SOL    HW2 2876   0.326   2.686   3.998 -0.9585  0.3229 -3.9955
  776SOL    HW3 2877   0.457   2.610   4.000 -0.7807  0.4337  0.9360
  776SOL    MW4 2878   0.413   2.684   3.987  0.1680  0.4987 -0.5001
  777SOL     OW 2879   5.035   1.991   2.471 -0.0830  0.4263  0.2515
  777SOL    HW2 2880   5.025   1.940   2.390 -0.9213  0.5007  0.3041
  777SOL    HW3 2881   5.123   1.968   2.502  0.1170  0.1344 -0.4977
  777SOL    MW4 2882   5.045   1.981   2.465 -0.3042 -0.5755  0.0218
  778SOL     OW 2883   5.845   3.024   1.832 -0.1320  0.2301 -0.2441
  778SOL    HW2 2884   5.820   3.084   1.762 -0.8422 -0.8164 -0.9103
  778SOL    HW3 2885   5.940   3.018   1.826 -0.0391  1.3405 -0.1079
  778SOL    MW4 2886   5.854   3.031   1.822  0.0072 -0.1764 -0.6724
  779SOL     OW 2887   2.858   3.747   6.180  0.9963 -0.1602 -0.4400
  779SOL    HW2 2888   2.789   3.684   6.198  1.4501 -0.5374  0.0363
  779SOL    HW3 2889   2.826   3.798   6.106 -1.3191  1.9367  1.7879
  779SOL    MW4 2890   2.845   3.745   6.173 -0.3127  0.3822  0.2338
  780SOL     OW 2891   0.996   1.121   3.122 -0.1379 -0.4182  0.3026
  780SOL    HW2 2892   0.912   1.122   3.077 -0.2531  0.2374  0.5144
  780SOL    HW3 2893   1.055   1.167   3.062 -0.9726  3.2309  2.0248
  780SOL    MW4 2894   0.993   1.127   3.108 -0.4321  0.3115  0.6200
  781SOL     OW 2895   5.243   2.194   4.741 -0.3342 -0.0040  0.2004
  781SOL    HW2 2896   5.187   2.218   4.816 -1.6586  0.7260 -0.9676
  781SOL    HW3 2897   5.244   2.098   4.742 -0.8871 -0.0151  0.7662
  781SOL    MW4 2898   5.235   2.185   4.751 -0.1660  0.3442 -0.6700
  782SOL     OW 2899   3.421   1.067   5.144  0.3899 -0.3244 -0.0920
  782SOL    HW2 2900   3.403   1.143   5.088  1.8968 -1.3893 -2.1536
  782SOL    HW3 2901   3.497   1.094   5.196 -0.4874  0.3621  0.8721
  782SOL    MW4 2902   3.429   1.081   5.143 -0.1311 -0.4623  0.5438
  783SOL     OW 2903   0.883   5.182   2.376  0.1277  0.0707 -0.4736
  783SOL    HW2 2904   0.833   5.206   2.298 -0.9317 -0.0917  0.1273
  783SOL    HW3 2905   0.816   5.158   2.440  0.9897 -0.0758  0.3924
  783SOL    MW4 2906   0.868   5.182   2.374  0.4355  0.1191 -1.2673
  784SOL     OW 2907   0.346   2.215   0.059 -0.8336 -0.2541 -0.2149
  784SOL    HW2 2908   0.393   2.254  -0.015  0.8735 -2.1126 -0.2086
  784SOL    HW3 2909   0.284   2.154   0.018 -0.1238 -1.0311 -0.1797
  784SOL    MW4 2910   0.344   2.212   0.044  0.0957 -0.4139  0.6548
  785SOL     OW 2911   1.384   0.511   1.091 -1.0091  0.5171 -0.0251
  785SOL    HW2 2912   1.465   0.486   1.138 -1.3554  1.9808  1.4546
  785SOL    HW3 2913   1.322   0.441   1.112 -0.8627  0.6653  0.9512
  785SOL    MW4 2914   1.387   0.498   1.100  0.1720 -0.0543  0.6775
  786SOL     OW 2915   2.683   3.982   4.615 -0.6395 -0.0799 -0.4733
  786SOL    HW2 2916   2.655   4.029   4.693  0.9023  0.7499 -0.3656
  786SOL    HW3 2917   2.652   3.893   4.627 -0.3771  0.0170  1.1213
  786SOL    MW4 2918   2.675   3.977   4.627 -0.1971 -0.3183 -0.6686
  787SOL     OW 2919   5.329   0.179   1.077 -0.0222  0.6323  0.2366
  787SOL    HW2 2920   5.265   0.245   1.049 -1.4760 -0.5893  0.5451
  787SOL    HW3 2921   5.278   0.118   1.131  1.5172 -0.1465  0.8676
  787SOL    MW4 2922   5.314   0.180   1.080 -0.1243 -0.0393  0.0845
  788SOL     OW 2923   0.476   3.184   2.010 -0.3119 -0.1327  0.6156
  788SOL    HW2 2924   0.511   3.271   2.031 -1.1983 -0.1279  2.2635
  788SOL    HW3 2925   0.408   3.200   1.945  0.5568  0.2127 -0.2281
  788SOL    MW4 2926   0.472   3.198   2.004  0.2373 -0.0050 -0.7094
  789SOL     OW 2927   4.640   1.537   5.528 -0.0932  0.5312 -0.3532
  789SOL    HW2 2928   4.639   1.526   5.433  0.7958 -0.6192 -0.2586
  789SOL    HW3 2929   4.705   1.606   5.544 -0.2719  0.7518 -0.5804
  789SOL    MW4 2930   4.649   1.545   5.518 -0.0423 -0.1641  0.2706
  790SOL     OW 2931   6.263   5.514   3.537  0.0101 -0.0381 -0.8371
  790SOL    HW2 2932   6.205   5.475   3.602  0.3841  0.8336  0.0371
  790SOL    HW3 2933   6.319   5.442   3.507 -0.7450 -0.6303 -0.8503
  790SOL    MW4 2934   6.263   5.499   3.541  0.6631 -0.2260  0.2509
  791SOL     OW 2935   4.964   4.988   1.668 -0.1372 -0.2556 -0.6242
  791SOL    HW2 2936   4.963   4.931   1.591  0.7761 -0.1255 -0.7476
  791SOL    HW3 2937   4.872   4.997   1.693 -0.3669 -0.9972 -1.1814
  791SOL    MW4 2938   4.951   4.982   1.661  0.0730 -0.1079 -0.4936
  792SOL     OW 2939   5.842   5.668   2.955 -0.3296  0.3473 -0.1141
  792SOL    HW2 2940   5.817   5.697   3.043 -0.0224  1.9030 -0.5201
  792SOL    HW3 2941   5.914   5.607   2.970  1.2622  2.3319  0.6397
  792SOL    MW4 2942   5.848   5.664   2.969  0.5243  0.3699 -0.0049
  793SOL     OW 2943   3.467   5.313   3.216  0.1629 -0.6145  0.2752
  793SOL    HW2 2944   3.528   5.364   3.163 -0.2965 -0.8750 -0.5188
  793SOL    HW3 2945   3.432   5.247   3.157 -0.6901 -0.6408  0.7794
  793SOL    MW4 2946   3.470   5.311   3.201  0.3686 -0.0718 -0.0835
  794SOL     OW 2947   4.586   0.464   4.201  0.2084  0.4381  0.1836
  794SOL    HW2 2948   4.542   0.406   4.139  1.9906  0.5119 -1.2424
  794SOL    HW3 2949   4.516   0.520   4.236 -1.1800 -1.0589 -0.0882
  794SOL    MW4 2950   4.571   0.464   4.198 -0.3937  0.0787 -0.8911
  795SOL     OW 2951   3.977   3.088   1.158  0.0343  0.4646 -0.1711
  795SOL    HW2 2952   3.939   3.073   1.071 -1.0030  2.5594 -0.1481
  795SOL    HW3 2953   4.061   3.131   1.142 -0.1485  0.8337 -0.1612
  795SOL    MW4 2954   3.983   3.092   1.145  0.5157 -0.4317 -0.1126
  796SOL     OW 2955   1.188   3.216   4.724  0.3153  0.2443  0.1162
  796SOL    HW2 2956   1.265   3.159   4.717  2.9243  3.4692  0.3371
  796SOL    HW3 2957   1.209   3.276   4.795 -2.5125  1.2263  0.2402
  796SOL    MW4 2958   1.201   3.216   4.732  0.0414  0.5128 -0.0871
  797SOL     OW 2959   4.626   2.573   3.657  0.0754  0.1038  0.0182
  797SOL    HW2 2960   4.671   2.503   3.609  1.3773  0.8470  0.1222
  797SOL    HW3 2961   4.606   2.639   3.591 -1.2559 -0.3818 -0.1007
  797SOL    MW4 2962   4.629   2.572   3.642 -1.2533 -0.1362 -0.7644
  798SOL     OW 2963   2.191   1.018   5.007 -0.5628  0.5257  0.5218
  798SOL    HW2 2964   2.283   1.044   5.001 -0.9586  1.8835 -0.0238
  798SOL    HW3 2965   2.193   0.923   4.996  0.9152  0.3081  2.1461
  798SOL    MW4 2966   2.204   1.009   5.005  0.3239 -0.6771  0.0200
  799SOL     OW 2967   4.338   2.349   1.508  0.4720 -0.6412  0.0067
  799SOL    HW2 2968   4.243   2.352   1.494  0.6769  1.3710 -1.4021
  799SOL    HW3 2969   4.375   2.351   1.419  1.8336  0.0070  0.5564
  799SOL    MW4 2970   4.330   2.350   1.494 -0.0225  0.0699 -0.0360
  800SOL     OW 2971   2.920   4.057   3.972  0.5989  0.0167  0.6773
  800SOL    HW2 2972   2.948   4.144   3.943 -0.1451 -0.4902 -1.7832
  800SOL    HW3 2973   2.966   3.996   3.913 -0.0996 -1.1842  1.3371
  800SOL    MW4 2974   2.930   4.060   3.960 -0.1387  0.6105 -0.3258
  801SOL     OW 2975   1.084   5.042   5.733 -0.2504  0.1653 -0.1834
  801SOL    HW2 2976   1.081   4.985   5.810  1.2743  0.3121 -0.0016
  801SOL    HW3 2977   1.173   5.075   5.730  0.2545 -1.1334 -2.9455
  801SOL    MW4 2978   1.095   5.038   5.743 -0.0886 -0.0948  0.1714
  802SOL     OW 2979   4.799   2.088   0.224 -0.0100 -0.3158  0.5786
  802SOL    HW2 2980   4.893   2.073   0.215  0.0159 -0.7246  1.3978
  802SOL    HW3 2981   4.758   2.011   0.185  0.0083 -0.3807  0.6871
  802SOL    MW4 2982   4.806   2.076   0.218 -0.0547 -0.2753 -0.2051
  803SOL     OW 2983   2.118   1.848   3.704 -0.6700  0.6648 -0.4965
  803SOL    HW2 2984   2.124   1.774   3.644 -1.3401  0.2778 -0.0921
  803SOL    HW3 2985   2.168   1.822   3.780  1.9401  1.9642 -1.6473
  803SOL    MW4 2986   2.125   1.835   3.706  0.7081 -0.3076 -0.4516
  804SOL     OW 2987   3.139   3.199   4.052 -0.5642  0.1068  0.8085
  804SOL    HW2 2988   3.092   3.281   4.035 -0.8425 -0.2229 -0.0589
  804SOL    HW3 2989   3.231   3.219   4.035 -0.7675 -0.0652 -0.6113
  804SOL    MW4 2990   3.145   3.212   4.047 -0.3056  0.5238  0.1288
  805SOL     OW 2991   4.141   3.828   3.899  0.0223  0.1744 -0.7238
  805SOL    HW2 2992   4.161   3.876   3.818  1.9806 -0.5752 -0.7401
  805SOL    HW3 2993   4.199   3.867   3.965 -0.3810 -0.3163 -0.0625
  805SOL    MW4 2994   4.151   3.840   3.897 -0.6213  0.4564 -0.0291
  806SOL     OW 2995   4.520   2.778   2.002 -0.2796 -0.2210 -0.0407
  806SOL    HW2 2996   4.548   2.798   1.912  0.4998 -1.0435 -0.0066
  806SOL    HW3 2997   4.437   2.731   1.991  0.2879 -1.1713 -0.4100
  806SOL    MW4 2998   4.513   2.774   1.988  0.1133 -0.4665  0.6876
  807SOL     OW 2999   0.955   3.425   1.515 -0.2433 -0.3763  0.0030
  807SOL    HW2 3000   0.876   3.422   1.460 -1.3564  1.1604  1.4162
  807SOL    HW3 3001   1.026   3.401   1.456 -1.6575 -1.0213 -1.5224
  807SOL    MW4 3002   0.954   3.421   1.500  0.2229  0.4950 -0.1568
  808SOL     OW 3003   0.610   4.537   4.731  0.2402  0.1190 -0.2496
  808SOL    HW2 3004   0.517   4.520   4.723  0.1295  0.4173  0.3107
  808SOL    HW3 3005   0.618   4.633   4.726  0.7084  0.0220 -2.0233
  808SOL    MW4 3006   0.599   4.548   4.729  0.1016  0.1426  0.1801
  809SOL     OW 3007   3.224   0.204   2.369  0.4176 -0.8197 -0.1848
  809SOL    HW2 3008   3.161   0.205   2.441  2.7671  3.0589  2.1683
  809SOL    HW3 3009   3.289   0.138   2.395  0.1789 -0.9063  0.2045
  809SOL    MW4 3010   3.224   0.195   2.382 -0.1133 -0.3506 -0.3886
  810SOL     OW 3011   5.926   1.365   3.397  0.2343 -0.1012 -0.1242
  810SOL    HW2 3012   5.838   1.337   3.422  0.5767  0.7613  2.2424
  810SOL    HW3 3013   5.978   1.353   3.476  2.2097 -0.3821 -1.4218
  810SOL    MW4 3014   5.921   1.360   3.411 -0.2627 -0.2350  0.1306
  811SOL     OW 3015   0.000   1.629   4.916 -0.3005 -0.1052 -0.1141
  811SOL    HW2 3016  -0.085   1.624   4.872 -1.1278  1.3638  1.2070
  811SOL    HW3 3017   0.047   1.552   4.885 -1.8109 -0.5487 -1.4844
  811SOL    MW4 3018  -0.005   1.618   4.906  0.3555 -0.1253 -0.4909
  812SOL     OW 3019   5.713   4.027   1.075 -0.0625  0.0448 -0.0895
  812SOL    HW2 3020   5.643   4.027   1.140 -0.3563 -1.1513 -0.3814
  812SOL    HW3 3021   5.667   4.032   0.991  0.1516 -1.0885 -0.2970
  812SOL    MW4 3022   5.698   4.027   1.073 -0.2482 -0.2899  0.5766
  813SOL     OW 3023   1.132   4.230   0.960  0.0046 -0.2292  0.3366
  813SOL    HW2 3024   1.174   4.144   0.965 -0.2281 -0.3082  1.0708
  813SOL    HW3 3025   1.041   4.211   0.938 -0.0825 -0.1838  0.6508
  813SOL    MW4 3026   1.125   4.216   0.958  0.4338 -0.0346 -0.3663
  814SOL     OW 3027   2.629   4.511   0.934  0.0906  0.2648 -0.0764
  814SOL    HW2 3028   2.668   4.531   0.849  1.4822  0.7468  0.6382
  814SOL    HW3 3029   2.628   4.595   0.980  1.0450 -0.3038  1.0253
  814SOL    MW4 3030   2.634   4.525   0.929  0.0844  0.0575 -0.0158
  815SOL     OW 3031   5.664   3.327   3.835 -0.2256  0.0488  0.2907
  815SOL    HW2 3032   5.571   3.308   3.825 -0.3456 -0.3986  1.9441
  815SOL    HW3 3033   5.703   3.244   3.862  0.7520  0.1186 -0.8188
  815SOL    MW4 3034   5.657   3.313   3.837 -0.3837  0.7039 -0.2925
  816SOL     OW 3035   3.347   1.202   4.396  0.4839 -0.5827  0.1249
  816SOL    HW2 3036   3.430   1.245   4.414 -0.0428  0.5847 -0.1093
  816SOL    HW3 3037   3.362   1.153   4.315  1.8704 -3.0936  1.7821
  816SOL    MW4 3038   3.360   1.201   4.388  0.1007 -0.3028 -0.1803
  817SOL     OW 3039   6.266   5.982   5.538  0.0587  0.2676  0.3389
  817SOL    HW2 3040   6.206   6.038   5.489  1.9609  2.3535  0.2588
  817SOL    HW3 3041   6.288   6.032   5.616  1.2960 -0.6760  0.6245
  817SOL    MW4 3042   6.261   5.996   5.542 -0.0893  0.2633 -0.0303
  818SOL     OW 3043   1.322   3.133   3.668  0.1780 -0.4508 -0.0578
  818SOL    HW2 3044   1.319   3.191   3.744  0.1853  1.2340 -1.2889
  818SOL    HW3 3045   1.413   3.133   3.641  0.1980 -1.1356 -0.0109
  818SOL    MW4 3046   1.333   3.140   3.674 -0.0565 -0.0034 -0.5202
  819SOL     OW 3047   0.110   4.222   5.589 -0.2057 -0.2958  1.0571
  819SOL    HW2 3048   0.165   4.146   5.609 -0.1715 -0.3232  0.8641
  819SOL    HW3 3049   0.153   4.295   5.632 -0.7890 -0.5495  2.1182
  819SOL    MW4 3050   0.123   4.221   5.597 -0.0258 -0.1054 -0.5871
  820SOL     OW 3051   2.363   5.317   0.010 -0.3961  0.2686 -0.3270
  820SOL    HW2 3052   2.323   5.306  -0.076  0.3806  1.1173 -0.8203
  820SOL    HW3 3053   2.343   5.408   0.035  1.3628  0.7968 -0.6960
  820SOL    MW4 3054   2.355   5.328   0.002  0.2778 -0.2635 -0.0423
  821SOL     OW 3055   3.233   2.010   6.363  0.0552 -0.0545  0.0816
  821SOL    HW2 3056   3.262   2.047   6.446  0.6805 -1.5335  0.5614
  821SOL    HW3 3057   3.187   2.082   6.320 -0.7970  0.5927  1.9420
  821SOL    MW4 3058   3.231   2.024   6.368  0.2513 -0.4418 -0.4219
  822SOL     OW 3059   2.754   5.162   6.408 -0.3348  0.0714 -0.2946
  822SOL    HW2 3060   2.829   5.155   6.349 -1.1396 -0.4186 -1.2895
  822SOL    HW3 3061   2.693   5.220   6.363 -0.4302  0.7481  0.6625
  822SOL    MW4 3062   2.756   5.169   6.394 -0.3783 -0.1266  0.0974
  823SOL     OW 3063   0.425   4.154   4.791 -0.0902 -0.6556 -0.4255
  823SOL    HW2 3064   0.363   4.146   4.863 -0.8336  0.5661 -0.8933
  823SOL    HW3 3065   0.510   4.169   4.833 -0.6902  1.1911  0.2126
  823SOL    MW4 3066   0.428   4.155   4.806 -0.2800 -0.2893 -0.4344
  824SOL     OW 3067   1.002   0.476   4.511  0.3376  0.3905  0.2217
  824SOL    HW2 3068   0.917   0.447   4.544  0.6298 -0.2258  0.4567
  824SOL    HW3 3069   1.004   0.570   4.528  0.5427  0.0724  2.1197
  824SOL    MW4 3070   0.991   0.484   4.518 -0.3474 -0.3225  0.0301
  825SOL     OW 3071   3.586   5.798   0.024 -0.0780 -0.1707 -0.1171
  825SOL    HW2 3072   3.508   5.798  -0.032  0.3445 -0.4836 -0.7154
  825SOL    HW3 3073   3.648   5.854  -0.022 -0.4035  1.1632  1.0254
  825SOL    MW4 3074   3.584   5.805   0.010 -0.6484 -0.3450  0.2319
  826SOL     OW 3075   3.823   3.650   4.466  0.0036  0.6231  0.1983
  826SOL    HW2 3076   3.809   3.560   4.498  0.8530  1.1174  2.1553
  826SOL    HW3 3077   3.911   3.648   4.428  0.6678  0.9250  1.6365
  826SOL    MW4 3078   3.833   3.638   4.466  0.9659 -0.1643  0.4360
  827SOL     OW 3079   0.144   2.599   4.011 -0.1883 -0.4599 -0.0521
  827SOL    HW2 3080   0.154   2.529   3.947 -0.5632 -0.7203  0.1707
  827SOL    HW3 3081   0.170   2.559   4.094  1.0184  0.0859 -0.1455
  827SOL    MW4 3082   0.149   2.585   4.014 -0.8763  0.3161 -0.1800
  828SOL     OW 3083   4.524   6.094   5.192  0.4263 -0.3290 -0.5474
  828SOL    HW2 3084   4.442   6.082   5.144  0.1810  0.4383 -0.3368
  828SOL    HW3 3085   4.496   6.104   5.283  0.6819  0.7726 -0.5806
  828SOL    MW4 3086   4.510   6.093   5.198  0.3080  0.0040  0.2572
  829SOL     OW 3087   2.011   5.466   3.372  0.0025 -0.2439  0.9993
  829SOL    HW2 3088   2.047   5.499   3.455 -0.7804 -0.7380  1.5477
  829SOL    HW3 3089   2.013   5.371   3.382 -1.5810 -0.2920  1.1181
  829SOL    MW4 3090   2.016   5.458   3.384  0.4904 -0.6287  0.1814
  830SOL     OW 3091   1.544   3.563   4.534 -0.2375 -0.4487  0.4935
  830SOL    HW2 3092   1.573   3.608   4.614  0.3480 -0.3498  0.2276
  830SOL    HW3 3093   1.623   3.557   4.480 -0.9272  0.7702 -0.7018
  830SOL    MW4 3094   1.559   3.568   4.538 -0.1990 -0.4488 -0.1561
  831SOL     OW 3095   4.739   1.292   2.820 -0.4730  0.1333 -0.3666
  831SOL    HW2 3096   4.796   1.215   2.819 -0.3335  0.2264  0.0205
  831SOL    HW3 3097   4.681   1.281   2.745 -1.9477 -1.4896  0.9284
  831SOL    MW4 3098   4.739   1.280   2.810 -0.2897 -0.6191 -0.1426
  832SOL     OW 3099   4.938   2.703   0.855  0.4149 -0.0305 -0.5766
  832SOL    HW2 3100   4.846   2.683   0.874  0.4491  1.7037  1.9647
  832SOL    HW3 3101   4.963   2.640   0.787 -2.1831 -1.5903 -0.2323
  832SOL    MW4 3102   4.929   2.692   0.849  0.8125  0.4164 -0.6635
  833SOL     OW 3103   1.884   0.551   4.713  0.1479  0.3131  0.4261
  833SOL    HW2 3104   1.827   0.603   4.657  2.1358  1.9377 -0.2191
  833SOL    HW3 3105   1.854   0.569   4.802 -2.6644 -1.8385  0.0566
  833SOL    MW4 3106   1.872   0.560   4.718  0.0277  0.4003 -0.1085
  834SOL     OW 3107   5.310   4.399   1.970  0.0460  0.2696  0.5199
  834SOL    HW2 3108   5.280   4.310   1.988 -0.4470  0.6386  1.5389
  834SOL    HW3 3109   5.404   4.389   1.952  0.2561 -0.3079  1.8526
  834SOL    MW4 3110   5.319   4.386   1.970 -0.3433 -0.3631 -0.1825
  835SOL     OW 3111   2.137   3.112   0.073 -0.0413  0.1129  0.1006
  835SOL    HW2 3112   2.157   3.079   0.161 -1.5043 -1.4082 -0.0690
  835SOL    HW3 3113   2.105   3.201   0.087  1.7318  0.6659  0.8586
  835SOL    MW4 3114   2.135   3.119   0.087 -0.3301  1.0539  0.2310
  836SOL     OW 3115   4.546   1.470   0.599 -0.6304  0.0877  0.4286
  836SOL    HW2 3116   4.641   1.470   0.597 -0.6380 -0.4150 -0.2199
  836SOL    HW3 3117   4.520   1.478   0.507 -1.2158  0.8981  0.6527
  836SOL    MW4 3118   4.555   1.471   0.587  0.0094  0.5261 -0.1245
  837SOL     OW 3119   2.303   5.160   0.502 -0.1889  0.8027  0.3786
  837SOL    HW2 3120   2.389   5.153   0.461  0.6007 -1.3844  2.2313
  837SOL    HW3 3121   2.248   5.098   0.455 -0.1535  0.6177  0.5793
  837SOL    MW4 3122   2.307   5.151   0.490  0.4760 -0.3381  0.1496
  838SOL     OW 3123   1.255   0.828   4.384  0.4502 -0.5861 -0.2749
  838SOL    HW2 3124   1.219   0.903   4.433  0.3035 -1.6004  1.2367
  838SOL    HW3 3125   1.336   0.862   4.346 -0.1696  0.6510 -0.5740
  838SOL    MW4 3126   1.261   0.843   4.385 -0.3664 -0.2821  0.3164
  839SOL     OW 3127   1.734   1.613   6.234 -0.3586  0.0150  0.4701
  839SOL    HW2 3128   1.744   1.521   6.212 -1.1903 -0.0309  0.2684
  839SOL    HW3 3129   1.797   1.628   6.304  0.4812 -0.4611 -0.1684
  839SOL    MW4 3130   1.744   1.603   6.240 -0.0022 -0.1473  0.2403
  840SOL     OW 3131   5.379   3.139   5.464  0.1097 -0.2415 -0.0595
  840SOL    HW2 3132   5.430   3.150   5.544 -1.0917 -1.0790  0.8526
  840SOL    HW3 3133   5.340   3.225   5.448  1.0275  0.1551 -0.2471
  840SOL    MW4 3134   5.380   3.152   5.472 -0.2720  0.5193  0.3521
  841SOL     OW 3135   1.584   3.338   1.817 -0.2281  0.0849 -0.2372
  841SOL    HW2 3136   1.495   3.357   1.786  0.3104  0.5197 -1.5828
  841SOL    HW3 3137   1.583   3.362   1.909 -1.1375  1.3475 -0.5534
  841SOL    MW4 3138   1.572   3.343   1.825 -0.1586 -0.3642  0.9424
  842SOL     OW 3139   3.082   4.580   4.958  0.0896 -0.0194 -0.3249
  842SOL    HW2 3140   2.989   4.598   4.972  0.1633  2.3715 -2.3702
  842SOL    HW3 3141   3.119   4.576   5.047 -1.5346  1.6282  0.4892
  842SOL    MW4 3142   3.075   4.582   4.972 -0.3619  0.3934 -0.1888
  843SOL     OW 3143   0.407   0.259   4.386 -0.1872  0.1892  0.0416
  843SOL    HW2 3144   0.465   0.335   4.378 -0.6634  0.5397 -0.1729
  843SOL    HW3 3145   0.337   0.276   4.323 -0.1881 -0.5356 -0.1617
  843SOL    MW4 3146   0.405   0.271   4.377  0.4197 -0.3173 -0.5139
  844SOL     OW 3147   0.466   1.113   2.032 -0.2401 -1.0477  0.7831
  844SOL    HW2 3148   0.416   1.048   1.983  0.7663  0.3993 -2.4350
  844SOL    HW3 3149   0.401   1.174   2.065 -0.8809 -1.2658 -0.0505
  844SOL    MW4 3150   0.451   1.112   2.030  0.2508  0.1229  0.3721
  845SOL     OW 3151   4.816   4.870   0.792 -0.4221  0.3713 -0.4177
  845SOL    HW2 3152   4.738   4.851   0.740  0.4525 -1.1768 -1.2409
  845SOL    HW3 3153   4.829   4.965   0.783 -0.2738  0.1679 -3.1010
  845SOL    MW4 3154   4.807   4.880   0.784 -0.3510  0.2164 -0.0868
  846SOL     OW 3155   0.037   2.833   1.521  0.0469 -0.0383 -0.2789
  846SOL    HW2 3156   0.115   2.875   1.557  0.8721 -2.1000  0.5496
  846SOL    HW3 3157  -0.036   2.873   1.569  0.8459 -0.0385  0.9926
  846SOL    MW4 3158   0.038   2.844   1.532 -0.3742 -0.6205  0.1972
  847SOL     OW 3159   5.460   5.211   0.156 -0.3038 -0.0931 -0.2894
  847SOL    HW2 3160   5.381   5.159   0.149  0.1714 -0.7007 -1.5695
  847SOL    HW3 3161   5.449   5.262   0.236 -1.5015 -0.9481  0.1139
  847SOL    MW4 3162   5.449   5.211   0.166  0.2937  0.1112 -0.0335
  848SOL     OW 3163   5.840   3.052   3.559  0.3087 -0.7349  0.1403
  848SOL    HW2 3164   5.874   3.141   3.555  0.8025 -0.9614 -0.9166
  848SOL    HW3 3165   5.841   3.021   3.469 -0.7715 -1.4804  0.3604
  848SOL    MW4 3166   5.845   3.059   3.547  0.3856  0.5273 -0.0840
  849SOL     OW 3167   4.713   1.396   4.387  0.5668 -0.0726 -0.3308
  849SOL    HW2 3168   4.683   1.321   4.439 -1.9868  0.2692 -1.1234
  849SOL    HW3 3169   4.722   1.361   4.298  2.0382 -0.0044 -0.2333
  849SOL    MW4 3170   4.710   1.381   4.382  0.1048 -0.8551  0.3718
  850SOL     OW 3171   2.736   2.787   0.284 -0.8352 -0.2242 -0.6703
  850SOL    HW2 3172   2.732   2.691   0.282  0.0751 -0.4429  2.5104
  850SOL    HW3 3173   2.817   2.808   0.237 -0.5256 -1.0908 -0.5529
  850SOL    MW4 3174   2.747   2.777   0.278 -0.2092  0.1095 -0.4885
  851SOL     OW 3175   5.927   4.518   1.670 -0.0944  0.2771 -0.1043
  851SOL    HW2 3176   5.886   4.594   1.630 -1.3736 -0.2985  0.0524
  851SOL    HW3 3177   5.985   4.554   1.736  0.9587  1.1887 -1.4621
  851SOL    MW4 3178   5.929   4.532   1.673 -0.2184  0.1642 -0.3961
  852SOL     OW 3179   0.840   2.896   4.667 -0.2568  0.6140  0.0376
  852SOL    HW2 3180   0.869   2.969   4.722  1.9450  0.9072 -1.3827
  852SOL    HW3 3181   0.921   2.850   4.644 -1.3078 -0.5907 -1.3939
  852SOL    MW4 3182   0.855   2.900   4.671  0.1254 -0.0058 -0.1576
  853SOL     OW 3183   4.988   4.174   4.684  0.5713  0.3897 -0.1266
  853SOL    HW2 3184   4.923   4.194   4.616  1.2432  0.8950 -0.6356
  853SOL    HW3 3185   4.937   4.159   4.763 -0.1369  1.2739 -0.4069
  853SOL    MW4 3186   4.973   4.174   4.685 -0.5233  0.3216  0.1419
  854SOL     OW 3187   2.083   2.385   2.176  0.0497 -0.0602  0.0939
  854SOL    HW2 3188   2.143   2.459   2.166 -1.0223  0.9105  0.5765
  854SOL    HW3 3189   2.088   2.339   2.093  0.3027  0.8949 -0.4392
  854SOL    MW4 3190   2.092   2.389   2.164 -0.3293  0.0838 -0.0514
  855SOL     OW 3191   4.211   5.692   5.255  0.0961  0.5308 -0.0223
  855SOL    HW2 3192   4.209   5.786   5.237 -2.0859  0.5811  0.2465
  855SOL    HW3 3193   4.169   5.652   5.180 -1.7682  0.0685  1.2100
  855SOL    MW4 3194   4.205   5.699   5.243  0.8751 -0.2811 -0.0428
  856SOL     OW 3195   5.050   3.671   2.517 -0.2455  0.4660 -0.2877
  856SOL    HW2 3196   5.064   3.722   2.438 -0.6027 -1.4275 -1.6285
  856SOL    HW3 3197   5.018   3.587   2.487 -0.1101 -0.4350  1.8645
  856SOL    MW4 3198   5.048   3.667   2.503 -0.1134  0.0025  0.2419
  857SOL     OW 3199   4.532   2.728   4.502  0.0889 -0.0337 -0.4860
  857SOL    HW2 3200   4.457   2.787   4.512  0.1390 -0.2478  1.3977
  857SOL    HW3 3201   4.503   2.646   4.542  1.3330 -0.1161  0.2924
  857SOL    MW4 3202   4.518   2.725   4.509 -0.7168 -0.0269  0.1762
  858SOL     OW 3203   2.663   2.307   2.240  0.0819  0.0585 -0.5427
  858SOL    HW2 3204   2.611   2.271   2.167  0.0309 -0.6654 -0.1551
  858SOL    HW3 3205   2.627   2.266   2.318  0.3764  0.5612 -0.1341
  858SOL    MW4 3206   2.651   2.297   2.240  0.2276 -0.3709  0.2771
  859SOL     OW 3207   4.930   3.280   1.436 -0.2921  0.0808  0.0744
  859SOL    HW2 3208   4.834   3.272   1.434 -0.2750 -0.3550  0.5642
  859SOL    HW3 3209   4.958   3.259   1.347 -0.7041  1.0649 -0.3013
  859SOL    MW4 3210   4.921   3.276   1.424 -1.0895 -0.0839  0.0099
  860SOL     OW 3211   0.602   1.768   3.041 -0.1825  0.0262  0.2849
  860SOL    HW2 3212   0.510   1.755   3.019  0.3715 -1.3884 -1.5146
  860SOL    HW3 3213   0.640   1.806   2.961  1.5333 -3.2615 -0.6639
  860SOL    MW4 3214   0.595   1.772   3.027 -0.8945  0.0013 -0.2680
  861SOL     OW 3215   3.755   1.331   0.021  0.2811 -0.3199  0.0524
  861SOL    HW2 3216   3.843   1.370   0.023  0.3786 -0.5369  1.7318
  861SOL    HW3 3217   3.771   1.237   0.026 -0.0130 -0.5030 -1.8870
  861SOL    MW4 3218   3.769   1.324   0.022 -0.2396  0.7023 -0.8828
  862SOL     OW 3219   2.164   1.545   6.290 -0.1909 -0.4270 -0.0667
  862SOL    HW2 3220   2.231   1.611   6.306  0.5936 -0.5180 -2.5735
  862SOL    HW3 3221   2.094   1.567   6.352  0.9426  1.4143  0.6456
  862SOL    MW4 3222   2.163   1.556   6.301 -0.4876 -0.0705  0.0428
  863SOL     OW 3223   4.943   4.175   3.109  0.4038  0.5077 -0.2079
  863SOL    HW2 3224   4.956   4.219   3.025  0.6083 -0.4495 -0.6868
  863SOL    HW3 3225   5.031   4.157   3.141  0.3562 -1.2530 -0.9427
  863SOL    MW4 3226   4.956   4.178   3.102  0.5753 -0.8489  0.6312
  864SOL     OW 3227   3.295   2.854   3.639 -0.3954 -0.0153 -0.2172
  864SOL    HW2 3228   3.329   2.891   3.720  0.3924 -2.0469  0.4550
  864SOL    HW3 3229   3.250   2.926   3.596  0.9522  1.6385  1.0239
  864SOL    MW4 3230   3.293   2.868   3.644 -0.5214  0.0290  0.2781
  865SOL     OW 3231   5.372   3.935   0.620  0.0207 -0.0794 -0.0310
  865SOL    HW2 3232   5.441   3.874   0.594  0.3565 -0.9736  2.7139
  865SOL    HW3 3233   5.293   3.902   0.579  0.7894 -0.3783 -1.3193
  865SOL    MW4 3234   5.371   3.923   0.611 -0.0403 -0.1640  0.1344
  866SOL     OW 3235   4.911   6.373   2.414 -0.5109 -0.3599 -0.3106
  866SOL    HW2 3236   4.932   6.455   2.458  2.2093 -0.8386 -0.5608
  866SOL    HW3 3237   4.946   6.384   2.326  0.6318 -2.0388 -0.1066
  866SOL    MW4 3238   4.919   6.385   2.408 -0.2691  0.4419  0.5116
  867SOL     OW 3239   5.395   6.026   4.397 -0.6790 -0.1768  0.5466
  867SOL    HW2 3240   5.428   5.963   4.333  0.3381  0.1310  0.7369
  867SOL    HW3 3241   5.413   6.111   4.357 -0.2626  0.0121  1.1261
  867SOL    MW4 3242   5.402   6.029   4.383 -0.2991  0.2783  0.0534
  868SOL     OW 3243   6.106   6.048   1.762  0.3101  0.1207 -0.1713
  868SOL    HW2 3244   6.198   6.038   1.788  0.5185 -3.7092 -1.7877
  868SOL    HW3 3245   6.105   6.028   1.669 -2.1737  0.2408 -0.2392
  868SOL    MW4 3246   6.118   6.044   1.753 -0.3253  0.1972 -0.3103
  869SOL     OW 3247   2.027   1.429   5.051 -0.2179  0.1432 -0.2382
  869SOL    HW2 3248   1.977   1.497   5.096 -0.9603 -0.8212  0.4383
  869SOL    HW3 3249   2.080   1.390   5.121 -1.2981 -1.2990 -0.1958
  869SOL    MW4 3250   2.027   1.433   5.066  0.2561  0.4153  0.1545
  870SOL     OW 3251   3.339   2.363   2.127 -0.5771 -0.4209 -0.4506
  870SOL    HW2 3252   3.374   2.449   2.150 -1.0244 -0.1027 -0.9252
  870SOL    HW3 3253   3.291   2.378   2.045 -2.6395 -0.6085  0.6501
  870SOL    MW4 3254   3.337   2.377   2.119 -0.3937  0.1072  0.3067
  871SOL     OW 3255   3.384   2.129   0.309  0.3464  0.0110 -0.1586
  871SOL    HW2 3256   3.299   2.109   0.271  0.8730 -1.3053 -0.6900
  871SOL    HW3 3257   3.386   2.225   0.314 -0.9480  0.0796 -0.6062
  871SOL    MW4 3258   3.373   2.139   0.305  0.0002  0.1538 -0.1150
  872SOL     OW 3259   3.856   2.360   6.166 -0.6233 -0.3117 -0.3370
  872SOL    HW2 3260   3.763   2.342   6.182 -0.7554  0.0558 -0.6919
  872SOL    HW3 3261   3.875   2.316   6.083 -0.6293  0.1140 -0.5645
  872SOL    MW4 3262   3.846   2.352   6.157  0.7011 -0.2711  0.1606
  873SOL     OW 3263   5.228   0.976   5.544 -0.0346  0.3232 -0.0903
  873SOL    HW2 3264   5.158   0.968   5.479  0.4013  1.4091 -0.7175
  873SOL    HW3 3265   5.270   1.059   5.523  0.3279  0.5260  1.3921
  873SOL    MW4 3266   5.224   0.986   5.532  0.0255 -0.6824 -0.3764
  874SOL     OW 3267   4.950   0.024   5.599 -0.6744  0.0951 -0.1380
  874SOL    HW2 3268   4.881   0.089   5.593 -1.5730 -0.8136  0.1086
  874SOL    HW3 3269   4.964  -0.005   5.509 -0.3270  0.5675 -0.2376
  874SOL    MW4 3270   4.943   0.029   5.586 -0.3884 -0.3690  0.2631
  875SOL     OW 3271   1.289   6.025   2.783  0.1830  0.2512 -0.4834
  875SOL    HW2 3272   1.324   6.045   2.697 -0.4911 -1.1050 -1.1065
  875SOL    HW3 3273   1.284   6.109   2.827  0.3386  1.0021 -1.8495
  875SOL    MW4 3274   1.293   6.039   2.778  0.1308 -0.6127  0.1373
  876SOL     OW 3275   3.246   5.598   5.628  0.9908 -0.2587 -0.5477
  876SOL    HW2 3276   3.228   5.689   5.604  0.0847 -0.2423  0.1510
  876SOL    HW3 3277   3.212   5.547   5.554 -0.7928 -0.1493  0.1430
  876SOL    MW4 3278   3.239   5.603   5.615  0.2981 -0.1225  0.1300
  877SOL     OW 3279   2.988   3.197   0.787  0.6095 -0.1790  0.1044
  877SOL    HW2 3280   3.059   3.261   0.778  0.3098  0.4511  1.8601
  877SOL    HW3 3281   2.976   3.188   0.881 -0.0472 -2.0892 -0.1155
  877SOL    MW4 3282   2.996   3.204   0.798  0.1156 -0.1795 -0.1338
  878SOL     OW 3283   3.303   3.470   1.047  0.0752 -0.3136  0.3629
  878SOL    HW2 3284   3.338   3.405   0.986  2.1063 -1.5822  2.6564
  878SOL    HW3 3285   3.306   3.426   1.132 -0.1855  2.2080  1.7732
  878SOL    MW4 3286   3.308   3.455   1.050  0.2447 -0.1668 -0.0639
  879SOL     OW 3287   1.213   3.513   1.379  0.4283 -0.1414 -0.9618
  879SOL    HW2 3288   1.262   3.444   1.424 -0.9325  0.2014  1.2200
  879SOL    HW3 3289   1.218   3.588   1.438  0.1113  0.9673 -2.2972
  879SOL    MW4 3290   1.220   3.514   1.393  0.7816  0.2604 -0.0038
  880SOL     OW 3291   2.373   1.382   5.532  0.1877  0.0019  0.7573
  880SOL    HW2 3292   2.458   1.425   5.536 -0.1755  1.0050 -0.9573
  880SOL    HW3 3293   2.387   1.307   5.474 -0.2332  0.6413 -0.2094
  880SOL    MW4 3294   2.386   1.378   5.525  0.2452  0.5734  0.7379
  881SOL     OW 3295   4.578   4.431   0.905  0.0322  0.2961  0.6297
  881SOL    HW2 3296   4.575   4.340   0.874 -0.3973 -0.6158  3.1181
  881SOL    HW3 3297   4.500   4.472   0.867 -1.1307 -1.0934  1.4214
  881SOL    MW4 3298   4.567   4.424   0.896 -0.2474 -0.3892 -0.0151
  882SOL     OW 3299   1.782   5.317   2.584 -0.5246 -0.1023 -0.5336
  882SOL    HW2 3300   1.845   5.246   2.601 -0.5984  0.0678  0.5503
  882SOL    HW3 3301   1.834   5.384   2.540  0.0887  0.0578  0.3908
  882SOL    MW4 3302   1.797   5.316   2.581  0.3306  0.0636 -0.0928
  883SOL     OW 3303   3.928   0.559   5.239 -0.3234 -0.0932 -0.2696
  883SOL    HW2 3304   3.855   0.498   5.249 -0.8660  0.5091 -0.5231
  883SOL    HW3 3305   3.887   0.643   5.220  0.3982  0.4405  0.4591
  883SOL    MW4 3306   3.913   0.562   5.238  0.1118 -0.3235 -0.5323
  884SOL     OW 3307   2.698   0.189   2.060 -0.2773  0.1138  0.2032
  884SOL    HW2 3308   2.702   0.114   2.120  0.9344 -1.2299 -1.4357
  884SOL    HW3 3309   2.723   0.264   2.113 -3.4445 -0.1745  2.4322
  884SOL    MW4 3310   2.702   0.189   2.075 -0.4927  0.2472  0.3465
  885SOL     OW 3311   6.244   5.212   3.904  0.0502 -0.1633 -0.0535
  885SOL    HW2 3312   6.175   5.161   3.946  1.3273 -1.1512  0.9292
  885SOL    HW3 3313   6.268   5.278   3.969 -0.1311  0.3440 -0.4926
  885SOL    MW4 3314   6.238   5.214   3.918  0.1002 -0.4431  0.7599
  886SOL     OW 3315   0.774   2.142   4.672  0.1951  0.3169  0.0805
  886SOL    HW2 3316   0.813   2.152   4.759  0.8713 -0.2048 -0.1437
  886SOL    HW3 3317   0.849   2.148   4.612  0.2737 -2.6353 -0.2568
  886SOL    MW4 3318   0.789   2.144   4.676 -0.1629  0.3473  0.0227
  887SOL     OW 3319   5.545   4.985   3.691  0.1234 -0.4614  0.2480
  887SOL    HW2 3320   5.622   5.042   3.691  0.0790 -0.4003  0.3485
  887SOL    HW3 3321   5.491   5.018   3.763 -0.4163  0.0735 -0.3811
  887SOL    MW4 3322   5.548   4.997   3.701 -0.5258  0.5448 -0.0769
  888SOL     OW 3323   0.703   5.539   5.501 -0.6870 -0.7498  0.2323
  888SOL    HW2 3324   0.687   5.473   5.433 -1.8517  1.6638 -2.0583
  888SOL    HW3 3325   0.622   5.541   5.552  0.3598 -2.8926  2.1178
  888SOL    MW4 3326   0.690   5.531   5.499 -0.6516 -0.3812 -0.2772
  889SOL     OW 3327   5.755   2.419   0.504 -0.0213  0.0831 -0.3505
  889SOL    HW2 3328   5.716   2.333   0.488  0.3727 -0.3542  0.9043
  889SOL    HW3 3329   5.850   2.403   0.499  0.0514  0.4320 -0.0975
  889SOL    MW4 3330   5.763   2.405   0.502 -0.3849  0.3776 -0.0422
  890SOL     OW 3331   5.894   2.515   0.014 -0.2988 -0.1269 -0.5645
  890SOL    HW2 3332   5.893   2.473  -0.071 -0.3921  1.8161 -1.5794
  890SOL    HW3 3333   5.985   2.541   0.028  0.2155 -2.4042  1.0402
  890SOL    MW4 3334   5.906   2.513   0.005 -0.2252 -0.2415  0.0007
  891SOL     OW 3335   5.170   4.874   5.259  0.2218 -0.1147  0.0736
  891SOL    HW2 3336   5.106   4.809   5.288 -0.5362  1.1971  1.5137
  891SOL    HW3 3337   5.197   4.918   5.339 -1.0432  2.8758 -0.9927
  891SOL    MW4 3338   5.165   4.871   5.273  0.2511  0.3057 -0.1673
  892SOL     OW 3339   1.290   0.130   4.390  0.7543  0.2629  0.2842
  892SOL    HW2 3340   1.226   0.201   4.394  1.7413  1.1677  0.6999
  892SOL    HW3 3341   1.253   0.062   4.446  0.4302  1.0097  1.0047
  892SOL    MW4 3342   1.277   0.130   4.398 -0.4214  0.3352 -0.8520
  893SOL     OW 3343   4.618   6.098   0.007  0.3213  0.9515 -0.0281
  893SOL    HW2 3344   4.683   6.058  -0.050  0.3856  3.2830 -1.7226
  893SOL    HW3 3345   4.667   6.124   0.085  0.6467 -0.4568  0.2587
  893SOL    MW4 3346   4.633   6.096   0.010 -0.0129 -0.2496 -0.3981
  894SOL     OW 3347   3.919   1.085   6.081 -0.3427  0.7209 -0.2430
  894SOL    HW2 3348   3.863   1.157   6.108 -0.3607 -0.2987  2.7402
  894SOL    HW3 3349   3.959   1.053   6.162  0.3642 -2.0311 -1.5470
  894SOL    MW4 3350   3.917   1.090   6.095 -0.3487  0.3325  0.9609
  895SOL     OW 3351   5.650   2.289   2.120  0.1491  0.0651 -0.1259
  895SOL    HW2 3352   5.656   2.217   2.183  0.3824 -0.3959 -0.6697
  895SOL    HW3 3353   5.719   2.350   2.147  0.4894 -0.3040 -0.1517
  895SOL    MW4 3354   5.660   2.288   2.132 -0.0986  0.1448 -0.3354
  896SOL     OW 3355   1.328   6.243   2.941  1.0968 -0.2300  0.9690
  896SOL    HW2 3356   1.300   6.220   3.030 -0.7704  1.3105  0.8483
  896SOL    HW3 3357   1.250   6.282   2.901  2.5173  1.1157 -0.6221
  896SOL    MW4 3358   1.314   6.245   2.948 -0.4569  0.3176  0.6578
  897SOL     OW 3359   5.479   6.016   4.948 -0.4037  0.4645 -0.3329
  897SOL    HW2 3360   5.543   6.029   4.878  1.8237  1.5423  1.7682
  897SOL    HW3 3361   5.396   6.046   4.911  1.0121  2.5855 -1.9781
  897SOL    MW4 3362   5.476   6.021   4.934 -0.1328  0.2335  0.1445
  898SOL     OW 3363   2.244   3.244   4.292  0.0645  0.0309  0.0511
  898SOL    HW2 3364   2.334   3.277   4.296 -0.3569  1.3400 -0.7169
  898SOL    HW3 3365   2.191   3.314   4.329 -0.6833 -0.5875  0.1751
  898SOL    MW4 3366   2.249   3.258   4.297  0.5997 -0.1799 -0.0947
  899SOL     OW 3367   3.763   4.959   4.148  0.5314 -0.2242 -0.1631
  899SOL    HW2 3368   3.741   4.943   4.056 -0.9572  0.3044  0.0783
  899SOL    HW3 3369   3.679   4.977   4.190  1.3196  0.7648  1.0593
  899SOL    MW4 3370   3.749   4.959   4.141 -0.6703  0.1019 -0.9464
  900SOL     OW 3371   2.139   1.073   5.269  0.3070  0.1875  0.0203
  900SOL    HW2 3372   2.121   1.064   5.175 -0.0347  0.5233  0.0524
  900SOL    HW3 3373   2.052   1.068   5.310  0.5585 -1.3037  0.4309
  900SOL    MW4 3374   2.125   1.071   5.262 -0.0493 -0.1934  0.0049
  901SOL     OW 3375   3.650   0.375   2.098  1.1320  0.2391  0.4109
  901SOL    HW2 3376   3.674   0.467   2.088 -3.2788  1.6790  0.9464
  901SOL    HW3 3377   3.668   0.356   2.190 -1.6901  2.0018  1.4329
  901SOL    MW4 3378   3.656   0.385   2.109  0.4407 -0.9017 -0.6345
  902SOL     OW 3379   5.620   2.069   5.226 -0.4854  0.1900  0.4550
  902SOL    HW2 3380   5.570   2.043   5.149 -0.0935  2.2793 -0.5634
  902SOL    HW3 3381   5.624   2.164   5.222 -1.1024  0.4747  3.4943
  902SOL    MW4 3382   5.614   2.078   5.216 -0.4141  0.1062  0.0042
  903SOL     OW 3383   1.632   0.448   1.749  0.2070 -0.1087 -0.2614
  903SOL    HW2 3384   1.593   0.520   1.699  1.5858  0.0291 -1.1755
  903SOL    HW3 3385   1.557   0.405   1.790 -1.4075 -1.6133 -4.2150
  903SOL    MW4 3386   1.617   0.451   1.748  0.2385  1.1094 -0.2151
  904SOL     OW 3387   4.238   1.114   3.113 -0.4675 -0.0647 -0.5548
  904SOL    HW2 3388   4.330   1.140   3.120 -0.5887  0.6403 -1.4403
  904SOL    HW3 3389   4.237   1.048   3.044 -0.2227 -2.2644  1.3913
  904SOL    MW4 3390   4.250   1.109   3.105 -0.4084  0.3644 -0.2329
  905SOL     OW 3391   1.131   3.163   5.325  0.7438  0.7083  0.2767
  905SOL    HW2 3392   1.225   3.148   5.340  0.5001  0.3578  1.5662
  905SOL    HW3 3393   1.115   3.128   5.237  1.8411  0.8856 -0.0099
  905SOL    MW4 3394   1.142   3.157   5.315 -0.4877  0.4433 -0.5319
  906SOL     OW 3395   4.287   1.412   3.318  0.0405 -0.0296  0.6280
  906SOL    HW2 3396   4.350   1.440   3.384 -1.7506  2.3498  1.4829
  906SOL    HW3 3397   4.216   1.372   3.368 -0.7861  0.6924  0.0660
  906SOL    MW4 3398   4.286   1.410   3.333  0.6958  0.0245 -0.1568
  907SOL     OW 3399   0.638   3.712   0.547  0.5302 -0.0158  0.0110
  907SOL    HW2 3400   0.642   3.751   0.460 -2.0770  0.5737  0.0736
  907SOL    HW3 3401   0.686   3.773   0.603 -0.8640  1.5674 -0.4316
  907SOL    MW4 3402   0.645   3.725   0.543 -0.3535  0.3320 -0.6239
  908SOL     OW 3403   3.290   2.283   3.386 -0.1230  0.2376  0.1957
  908SOL    HW2 3404   3.354   2.347   3.354 -0.2549  1.6234  2.4625
  908SOL    HW3 3405   3.209   2.333   3.397 -0.8299 -0.8317  0.0439
  908SOL    MW4 3406   3.287   2.298   3.384 -0.0288  0.4150 -0.8939
  909SOL     OW 3407   0.107   0.309   5.048  0.0892  0.2513  0.2959
  909SOL    HW2 3408   0.160   0.262   4.983  0.2941 -1.2889  1.5331
  909SOL    HW3 3409   0.167   0.374   5.084  0.5149 -0.0850  0.2041
  909SOL    MW4 3410   0.122   0.312   5.044 -0.4192  0.1368 -0.2999
  910SOL     OW 3411   3.761   4.100   0.430 -0.5513  0.2839 -0.1481
  910SOL    HW2 3412   3.762   4.010   0.397 -2.8865  0.3279 -0.5359
  910SOL    HW3 3413   3.747   4.090   0.525 -0.6829  0.2249 -0.1729
  910SOL    MW4 3414   3.759   4.087   0.438  0.4597  0.1893  0.0012
  911SOL     OW 3415   4.635   2.761   4.234  0.2308  0.0594  0.7154
  911SOL    HW2 3416   4.628   2.758   4.329  1.2212  0.9458  0.8406
  911SOL    HW3 3417   4.728   2.780   4.218 -0.0549  0.5801 -0.4059
  911SOL    MW4 3418   4.646   2.763   4.244 -0.1918  0.1036 -0.2203
  912SOL     OW 3419   1.660   1.825   3.859 -0.2615  0.7003 -0.7426
  912SOL    HW2 3420   1.586   1.769   3.884  0.6276 -0.5918 -0.9102
  912SOL    HW3 3421   1.675   1.880   3.936 -1.1404  0.7175 -0.5675
  912SOL    MW4 3422   1.652   1.825   3.873  0.0521  0.1206  0.0458
  913SOL     OW 3423   2.562   2.831   2.468  0.1161  0.2504  0.4848
  913SOL    HW2 3424   2.578   2.923   2.448 -1.1975  1.4821  4.1384
  913SOL    HW3 3425   2.466   2.823   2.467  0.2244 -1.5813 -1.3642
  913SOL    MW4 3426   2.551   2.842   2.465 -0.2703  0.3967  0.9724
  914SOL     OW 3427   4.457   0.273   4.055 -0.0369 -0.4761 -0.1529
  914SOL    HW2 3428   4.391   0.255   3.988  1.6037 -1.8141 -1.4977
  914SOL    HW3 3429   4.538   0.238   4.018  1.1448 -0.2410  2.0837
  914SOL    MW4 3430   4.459   0.266   4.041  0.3344  0.5501  0.0389
  915SOL     OW 3431   5.160   5.642   4.327  0.6468  0.2233 -0.0397
  915SOL    HW2 3432   5.073   5.618   4.361 -0.3952  1.9405 -1.3428
  915SOL    HW3 3433   5.214   5.652   4.405 -0.5765  0.0327  0.8677
  915SOL    MW4 3434   5.155   5.640   4.341 -0.4071  0.5927  0.5274
  916SOL     OW 3435   6.136   3.025   1.905 -0.0067 -0.0391 -1.2077
  916SOL    HW2 3436   6.183   2.945   1.879  0.2113  0.0575 -1.1102
  916SOL    HW3 3437   6.086   2.999   1.982  0.5415  0.0727 -0.8009
  916SOL    MW4 3438   6.136   3.011   1.912  0.5650  0.4612  0.7108
  917SOL     OW 3439   0.242   2.922   0.446  0.0776  0.1454  0.0484
  917SOL    HW2 3440   0.211   2.880   0.526  0.0296 -0.3752 -0.2413
  917SOL    HW3 3441   0.226   3.015   0.461 -1.6483 -0.0915 -0.0933
  917SOL    MW4 3442   0.236   2.929   0.459  0.1698 -0.1334 -0.1926
  918SOL     OW 3443   0.540   0.225   3.502  0.0739 -0.3208 -0.7760
  918SOL    HW2 3444   0.455   0.219   3.459 -0.0217 -2.7202 -0.3983
  918SOL    HW3 3445   0.599   0.176   3.446  0.9600  0.3292 -0.4350
  918SOL    MW4 3446   0.536   0.218   3.489 -0.1264 -0.2452  0.0228
  919SOL     OW 3447   1.019   0.426   3.282 -0.4589 -0.0676 -0.1840
  919SOL    HW2 3448   0.962   0.472   3.220 -1.1025 -1.8432 -0.9664
  919SOL    HW3 3449   1.060   0.496   3.332 -0.3485  1.4319 -2.2163
  919SOL    MW4 3450   1.017   0.441   3.280 -0.1203 -0.2621  0.2201
  920SOL     OW 3451   0.207   5.689   3.219  0.0146 -0.5356 -0.5400
  920SOL    HW2 3452   0.262   5.647   3.285  0.6387 -0.5680 -1.0655
  920SOL    HW3 3453   0.122   5.647   3.228  0.4720 -1.5307 -0.6936
  920SOL    MW4 3454   0.203   5.678   3.229  0.4276 -0.2234  0.2086
  921SOL     OW 3455   3.324   4.411   4.438 -0.4691  0.6182  0.4535
  921SOL    HW2 3456   3.272   4.332   4.422  0.1021  0.5636 -1.4226
  921SOL    HW3 3457   3.260   4.481   4.445 -0.8986  0.2854 -0.0490
  921SOL    MW4 3458   3.309   4.409   4.437 -0.0400  0.2791  0.1218
  922SOL     OW 3459   1.947   4.732   3.058  0.0253  0.9044  0.0415
  922SOL    HW2 3460   2.023   4.717   3.115  0.1543 -0.0694 -0.3588
  922SOL    HW3 3461   1.873   4.695   3.106 -0.0700  1.1978  0.1184
  922SOL    MW4 3462   1.948   4.725   3.072 -0.2668  0.2331  0.0312
  923SOL     OW 3463   2.553   6.089   5.614 -0.1850 -0.0834  0.3415
  923SOL    HW2 3464   2.463   6.111   5.593 -0.2124 -0.2762  0.2562
  923SOL    HW3 3465   2.605   6.129   5.544 -0.2535 -0.4836  0.0573
  923SOL    MW4 3466   2.548   6.097   5.602 -0.2151 -0.0051  0.3735
  924SOL     OW 3467   4.963   1.512   3.758 -0.0811 -0.5463  0.6646
  924SOL    HW2 3468   4.873   1.506   3.726  0.7044 -2.3962 -1.4992
  924SOL    HW3 3469   4.962   1.470   3.843 -1.4724  0.6773  1.2923
  924SOL    MW4 3470   4.951   1.506   3.765 -0.1495  0.3511  0.1529
  925SOL     OW 3471   2.772   4.811   1.703 -0.3610  0.3176  0.1656
  925SOL    HW2 3472   2.723   4.871   1.647 -0.1442  0.7673  0.4466
  925SOL    HW3 3473   2.864   4.826   1.679 -0.3805 -0.9056 -0.7394
  925SOL    MW4 3474   2.778   4.821   1.692 -0.8466 -0.0755  0.7051
  926SOL     OW 3475   1.652   2.975   2.286 -0.2818 -0.4277 -0.0853
  926SOL    HW2 3476   1.699   2.898   2.318  0.3948  0.6265  1.5715
  926SOL    HW3 3477   1.586   2.992   2.352  0.8662  1.5528  0.6216
  926SOL    MW4 3478   1.650   2.967   2.299  0.3520  0.8236 -0.5421
  927SOL     OW 3479   0.009   2.213   4.094 -0.0287  0.7405 -0.3622
  927SOL    HW2 3480  -0.046   2.286   4.120 -0.6693 -0.3149  1.4391
  927SOL    HW3 3481   0.076   2.207   4.162  0.9661  0.6285 -1.3358
  927SOL    MW4 3482   0.011   2.222   4.106  0.1941 -0.1969 -0.0235
  928SOL     OW 3483   3.711   1.783   4.937  0.5179 -0.2106 -0.6101
  928SOL    HW2 3484   3.691   1.869   4.976 -0.0691 -0.7150  0.2390
  928SOL    HW3 3485   3.659   1.780   4.857 -0.3786 -0.2425 -0.0333
  928SOL    MW4 3486   3.702   1.794   4.932 -0.1762  0.3077 -0.2061
  929SOL     OW 3487   0.413   6.281   0.690 -0.6556 -0.8717 -0.0383
  929SOL    HW2 3488   0.431   6.306   0.599 -1.3145 -2.8135 -0.7573
  929SOL    HW3 3489   0.327   6.239   0.686 -1.3521  0.3162  1.7622
  929SOL    MW4 3490   0.404   6.279   0.677  0.1684  0.2471 -0.5611
  930SOL     OW 3491   0.623   1.334   3.662 -0.6198 -0.1055  0.1467
  930SOL    HW2 3492   0.640   1.241   3.677  2.2428  0.3721  0.4893
  930SOL    HW3 3493   0.629   1.345   3.567 -1.5629 -0.3459  0.0521
  930SOL    MW4 3494   0.626   1.323   3.651  0.0203  0.4500  0.0042
  931SOL     OW 3495   0.668   5.588   1.095 -0.1495 -0.7890  0.2910
  931SOL    HW2 3496   0.696   5.605   1.005  0.7308  1.1330  0.8570
  931SOL    HW3 3497   0.726   5.518   1.125 -0.9513 -1.9727 -0.8410
  931SOL    MW4 3498   0.680   5.581   1.087  0.0280 -0.1383  0.5011
  932SOL     OW 3499   6.343   3.471   4.432 -0.0341 -0.2157 -0.1762
  932SOL    HW2 3500   6.298   3.453   4.350  0.1533  1.4417 -0.6775
  932SOL    HW3 3501   6.428   3.427   4.423 -0.4096 -0.9059 -0.4271
  932SOL    MW4 3502   6.349   3.463   4.420 -0.1105  0.5790 -0.1804
  933SOL     OW 3503   6.169   3.447   0.929  0.0122  0.7274  0.6098
  933SOL    HW2 3504   6.121   3.523   0.895  1.0176  2.0508  2.0099
  933SOL    HW3 3505   6.259   3.477   0.938  0.7436 -1.1041 -0.1240
  933SOL    MW4 3506   6.174   3.461   0.926 -1.0216  0.1640  0.4052
  934SOL     OW 3507   5.386   6.149   0.982  0.3029  0.7064  0.0828
  934SOL    HW2 3508   5.292   6.161   0.977  0.0738  0.3160  2.3534
  934SOL    HW3 3509   5.400   6.057   0.957 -0.1530  0.2193  1.5682
  934SOL    MW4 3510   5.376   6.138   0.978 -0.0602 -0.0001  0.4698
  935SOL     OW 3511   3.160   2.736   3.315  0.1109  0.0063  0.0218
  935SOL    HW2 3512   3.217   2.720   3.240  0.6477 -2.2515  0.8240
  935SOL    HW3 3513   3.152   2.832   3.320  1.7731  0.2750 -1.6154
  935SOL    MW4 3514   3.166   2.747   3.306 -0.2402 -0.3161  0.0309
  936SOL     OW 3515   0.776   1.576   5.728  0.0193 -0.0642 -0.0389
  936SOL    HW2 3516   0.718   1.572   5.804 -0.7747 -1.0268 -0.6857
  936SOL    HW3 3517   0.857   1.615   5.763 -0.2780 -0.5962  1.3190
  936SOL    MW4 3518   0.779   1.581   5.743 -0.3806  0.5489  0.0155
  937SOL     OW 3519   1.302   3.158   0.570  0.2139 -0.4051 -0.2195
  937SOL    HW2 3520   1.219   3.201   0.549  0.8929  0.3679 -1.3842
  937SOL    HW3 3521   1.279   3.094   0.637 -1.5324 -1.0221 -1.3645
  937SOL    MW4 3522   1.288   3.155   0.576  0.0996 -0.4409 -0.2997
  938SOL     OW 3523   1.750   2.427   5.956 -0.3707 -0.3785  0.5721
  938SOL    HW2 3524   1.787   2.487   6.020 -0.5132 -0.6460  0.9114
  938SOL    HW3 3525   1.671   2.393   5.998  1.0962 -2.8957  1.5786
  938SOL    MW4 3526   1.744   2.430   5.970 -0.4285 -0.0250  0.2920
  939SOL     OW 3527   1.654   1.476   2.641  0.0710 -0.1247  0.3411
  939SOL    HW2 3528   1.668   1.440   2.728  0.9166  0.1051  0.3104
  939SOL    HW3 3529   1.599   1.553   2.656  0.7505  0.2994  0.7689
  939SOL    MW4 3530   1.649   1.482   2.654 -0.3944  0.8797  0.1605
  940SOL     OW 3531   0.376   3.121   1.659 -0.5339  0.1132 -0.3797
  940SOL    HW2 3532   0.364   3.160   1.573  0.5316  2.0805  0.2930
  940SOL    HW3 3533   0.297   3.146   1.708 -0.5822  0.0561 -0.4292
  940SOL    MW4 3534   0.364   3.130   1.654  0.2890  0.0854  0.2480
  941SOL     OW 3535   4.775   2.441   4.480  0.0865 -0.2371 -0.6842
  941SOL    HW2 3536   4.800   2.353   4.506 -0.5834 -0.7050 -1.5633
  941SOL    HW3 3537   4.828   2.499   4.535  1.6879 -1.1751 -1.1754
  941SOL    MW4 3538   4.785   2.437   4.491  0.4145 -0.1855 -0.4482
  942SOL     OW 3539   4.242   1.274   4.723  0.0341 -0.1839  0.0383
  942SOL    HW2 3540   4.263   1.310   4.637 -0.8703  0.0975 -0.0763
  942SOL    HW3 3541   4.322   1.286   4.774  1.1001 -1.7714 -1.1970
  942SOL    MW4 3542   4.255   1.281   4.718 -0.7562  0.4602 -0.2712
  943SOL     OW 3543   2.638   3.203   4.844 -0.0730  0.2361 -0.5616
  943SOL    HW2 3544   2.605   3.127   4.796  0.4859  1.7394 -3.5967
  943SOL    HW3 3545   2.723   3.175   4.877 -1.4872 -1.6225  1.8631
  943SOL    MW4 3546   2.645   3.189   4.842 -0.2322 -0.3264  0.1793
  944SOL     OW 3547   4.817   2.398   0.122  0.1310 -0.4044 -0.1296
  944SOL    HW2 3548   4.865   2.349   0.189 -0.6790  2.4088  2.7545
  944SOL    HW3 3549   4.727   2.367   0.129  0.0157  0.0019  0.1967
  944SOL    MW4 3550   4.811   2.388   0.131 -0.0499  0.4926  0.0313
  945SOL     OW 3551   2.771   2.154   3.027  0.7871 -0.9717  0.0076
  945SOL    HW2 3552   2.847   2.119   2.982  2.1894  0.7996  0.8727
  945SOL    HW3 3553   2.754   2.238   2.983 -0.4566 -1.1667  0.0728
  945SOL    MW4 3554   2.779   2.160   3.015 -0.5887  0.1958 -0.0622
  946SOL     OW 3555   0.015   3.125   4.106 -0.3626 -0.2284 -0.5292
  946SOL    HW2 3556  -0.035   3.203   4.130  1.4282  0.3510  1.5685
  946SOL    HW3 3557  -0.019   3.056   4.163  0.5638 -0.0559  0.2484
  946SOL    MW4 3558   0.004   3.126   4.116  0.4535  0.4211 -0.3643
  947SOL     OW 3559   5.751   2.807   2.691  0.4495  0.1769 -0.5571
  947SOL    HW2 3560   5.834   2.838   2.727 -0.4452 -0.3665  2.1757
  947SOL    HW3 3561   5.708   2.886   2.658  1.2495  0.7462 -0.2610
  947SOL    MW4 3562   5.756   2.821   2.691  0.0111 -0.1915 -0.0314
  948SOL     OW 3563   5.989   4.356   3.772 -0.8934  0.1049  0.0491
  948SOL    HW2 3564   6.005   4.450   3.766  0.4118  0.1664  3.0143
  948SOL    HW3 3565   5.898   4.346   3.742 -0.3582  1.9002 -2.5733
  948SOL    MW4 3566   5.979   4.367   3.767 -0.3529 -0.4029  0.2991
  949SOL     OW 3567   5.178   3.363   0.984  0.0110 -0.3607  0.1996
  949SOL    HW2 3568   5.144   3.452   0.994 -1.1489 -0.5870 -1.3203
  949SOL    HW3 3569   5.142   3.315   1.058 -0.2026  0.2107  0.4705
  949SOL    MW4 3570   5.168   3.368   0.995  0.0125  0.2440 -0.6103
  950SOL     OW 3571   3.606   5.044   2.093  0.2750  0.3156  0.1052
  950SOL    HW2 3572   3.689   5.021   2.051 -0.5610  0.4564 -1.7146
  950SOL    HW3 3573   3.605   5.140   2.093  0.6168  0.3347  1.2233
  950SOL    MW4 3574   3.617   5.053   2.087 -0.6142  0.0682  0.1320
  951SOL     OW 3575   4.898   4.041   4.218 -0.4490 -0.1340  0.3131
  951SOL    HW2 3576   4.951   4.099   4.163  1.3208  0.4079  2.4441
  951SOL    HW3 3577   4.887   4.090   4.300 -2.8693 -0.9572  0.5544
  951SOL    MW4 3578   4.903   4.055   4.222 -0.3016 -0.1762 -0.3115
  952SOL     OW 3579   1.184   0.632   0.062  0.1128  0.8525  0.1914
  952SOL    HW2 3580   1.272   0.643   0.027  0.2243  1.4133  0.6375
  952SOL    HW3 3581   1.130   0.691   0.009  0.4897  2.6785  1.7243
  952SOL    MW4 3582   1.188   0.642   0.051 -0.2036  0.3415  0.0955
  953SOL     OW 3583   1.164   3.825   4.800  0.5682  0.6749 -0.1602
  953SOL    HW2 3584   1.209   3.908   4.816  0.5407  1.5091 -3.6519
  953SOL    HW3 3585   1.234   3.760   4.797  1.3573  1.4963 -2.5630
  953SOL    MW4 3586   1.179   3.827   4.802 -0.3473  0.2391  0.1074
  954SOL     OW 3587   0.343   2.832   3.576 -0.1805  0.2262  0.0289
  954SOL    HW2 3588   0.377   2.764   3.634 -1.0269  0.2308  0.5515
  954SOL    HW3 3589   0.360   2.799   3.488  0.0126 -0.3541  0.2787
  954SOL    MW4 3590   0.350   2.819   3.572  0.3774  0.2517  0.1575
  955SOL     OW 3591   3.854   1.211   2.657 -0.6315  0.1699 -0.0915
  955SOL    HW2 3592   3.860   1.282   2.593 -1.4257  0.7170  0.4117
  955SOL    HW3 3593   3.784   1.239   2.716 -2.4054 -1.9693 -1.0449
  955SOL    MW4 3594   3.846   1.224   2.656  0.1075 -0.3842  0.3848
  956SOL     OW 3595   5.772   1.110   0.749 -0.0557 -0.4553 -0.3532
  956SOL    HW2 3596   5.733   1.054   0.681 -2.6078 -0.3675  0.9162
  956SOL    HW3 3597   5.773   1.055   0.827  2.7778 -0.5273 -0.3353
  956SOL    MW4 3598   5.767   1.095   0.750  0.3887  0.4428 -0.0820
  957SOL     OW 3599   4.404   5.522   4.945 -0.4295  1.3342  0.0526
  957SOL    HW2 3600   4.481   5.467   4.929 -0.5066  0.6692  1.7946
  957SOL    HW3 3601   4.342   5.497   4.876 -0.8284 -1.5106  1.3123
  957SOL    MW4 3602   4.406   5.512   4.934  0.6304 -0.0832 -0.0964
  958SOL     OW 3603   5.282   5.179   3.314  0.0799 -0.2260 -0.4968
  958SOL    HW2 3604   5.331   5.117   3.369  1.6267 -0.2089 -1.7864
  958SOL    HW3 3605   5.258   5.127   3.237  0.2839  0.4589 -1.0206
  958SOL    MW4 3606   5.285   5.164   3.311 -0.8724 -0.1561 -0.2952
  959SOL     OW 3607   3.226   4.215   0.241  0.4494 -0.1157 -0.3575
  959SOL    HW2 3608   3.142   4.183   0.209  0.6971  1.0318 -2.3541
  959SOL    HW3 3609   3.203   4.274   0.313 -0.5342  0.6379 -1.2563
  959SOL    MW4 3610   3.212   4.219   0.246  0.3763 -0.3384 -0.2847
  960SOL     OW 3611   4.371   5.968   5.980 -0.0994 -0.1513 -0.1140
  960SOL    HW2 3612   4.401   5.878   5.968 -0.2412 -0.1208 -0.7620
  960SOL    HW3 3613   4.450   6.021   5.974 -0.2914 -0.0075 -2.5142
  960SOL    MW4 3614   4.385   5.963   5.977  0.3093 -0.3703  0.6292
  961SOL     OW 3615   4.223   3.525   3.981 -0.0943 -0.2939 -0.1738
  961SOL    HW2 3616   4.258   3.503   4.068  1.9780  0.0435 -0.8855
  961SOL    HW3 3617   4.182   3.611   3.993  2.1878  0.8421  0.0215
  961SOL    MW4 3618   4.222   3.533   3.994  0.1431 -0.4623  0.3295
  962SOL     OW 3619   1.257   4.484   0.747  0.2364 -0.4831  0.2045
  962SOL    HW2 3620   1.272   4.391   0.732  0.0162 -0.2129 -2.0659
  962SOL    HW3 3621   1.163   4.497   0.730  0.7790  0.5765 -2.7584
  962SOL    MW4 3622   1.247   4.474   0.742  0.1254  0.8689 -0.4284
  963SOL     OW 3623   5.875   6.116   2.206 -0.0057  0.4628  0.1754
  963SOL    HW2 3624   5.868   6.108   2.111 -1.7466 -0.0642  0.3112
  963SOL    HW3 3625   5.878   6.211   2.222 -0.2418  0.5663 -0.3760
  963SOL    MW4 3626   5.875   6.128   2.196 -0.7221  0.2809 -0.0504
  964SOL     OW 3627   3.703   5.740   3.012  0.1787  0.0783  0.2554
  964SOL    HW2 3628   3.733   5.784   2.932  0.6005  0.4862  0.6357
  964SOL    HW3 3629   3.760   5.774   3.081 -1.4006  1.2142  1.0842
  964SOL    MW4 3630   3.714   5.751   3.010 -0.0263 -0.3185 -0.4588
  965SOL     OW 3631   2.315   0.261   1.436  0.5117 -0.3855 -0.2478
  965SOL    HW2 3632   2.303   0.341   1.385 -0.0399  1.4453  2.5372
  965SOL    HW3 3633   2.351   0.198   1.374 -1.7940  1.0542 -3.2974
  965SOL    MW4 3634   2.318   0.264   1.421  0.8012 -0.3751 -0.3016
  966SOL     OW 3635   5.294   3.411   5.434 -0.1208  0.1647 -0.5435
  966SOL    HW2 3636   5.338   3.493   5.409 -0.6520  1.2880  1.9426
  966SOL    HW3 3637   5.233   3.436   5.503 -1.6354 -2.0721 -0.9641
  966SOL    MW4 3638   5.292   3.425   5.439  0.0294 -0.2574  0.1453
  967SOL     OW 3639   1.217   3.748   0.147  0.0400  0.1955  0.3843
  967SOL    HW2 3640   1.224   3.843   0.137  1.0608 -0.0822 -2.1128
  967SOL    HW3 3641   1.269   3.729   0.225 -1.4191  1.7898  1.8395
  967SOL    MW4 3642   1.225   3.758   0.156  0.3414 -0.5397 -0.7612
  968SOL     OW 3643   5.726   1.581   0.549 -0.0965 -0.1521  0.1340
  968SOL    HW2 3644   5.682   1.666   0.556  1.0863  0.8525 -2.8363
  968SOL    HW3 3645   5.660   1.523   0.511 -1.1156 -0.8606  2.7640
  968SOL    MW4 3646   5.711   1.585   0.545  0.0708 -0.3161 -0.4381
  969SOL     OW 3647   1.300   3.870   5.575  0.1025  0.1373  0.0808
  969SOL    HW2 3648   1.275   3.866   5.483  0.5691 -2.2123  0.0025
  969SOL    HW3 3649   1.393   3.848   5.576  0.2907  0.8925  1.0638
  969SOL    MW4 3650   1.309   3.867   5.563  0.7746 -0.1423  0.1472
  970SOL     OW 3651   4.733   4.263   3.668  0.0988 -0.5175 -0.7984
  970SOL    HW2 3652   4.761   4.340   3.619 -1.4410  1.0340  0.6200
  970SOL    HW3 3653   4.814   4.226   3.704  0.8738  0.3726 -1.6012
  970SOL    MW4 3654   4.747   4.268   3.666 -0.3171  0.5470  0.3107
  971SOL     OW 3655   4.218   2.703   4.826  0.4692 -0.4553  0.3601
  971SOL    HW2 3656   4.277   2.769   4.863  0.0872 -0.2819  0.6793
  971SOL    HW3 3657   4.186   2.654   4.902 -2.4617  1.6669  0.6724
  971SOL    MW4 3658   4.221   2.706   4.841  0.2150 -0.1267  0.4540
  972SOL     OW 3659   4.799   3.405   1.078  0.4862  0.1473 -0.2219
  972SOL    HW2 3660   4.806   3.444   0.991 -1.4614  1.3877  0.1186
  972SOL    HW3 3661   4.826   3.475   1.138  0.7510 -0.3343  0.2312
  972SOL    MW4 3662   4.804   3.419   1.074  0.5204 -0.5609 -1.1665
  973SOL     OW 3663   3.046   3.583   1.353  0.4110  0.4459 -0.2025
  973SOL    HW2 3664   3.104   3.532   1.409  0.6706  0.5956 -0.3368
  973SOL    HW3 3665   2.963   3.584   1.401  0.9207  1.4721  0.7067
  973SOL    MW4 3666   3.043   3.577   1.367 -0.2982  0.0786 -0.8417
  974SOL     OW 3667   4.379   5.867   3.422 -0.1097  0.1083  0.0925
  974SOL    HW2 3668   4.459   5.916   3.402 -0.5823  0.5957 -0.6808
  974SOL    HW3 3669   4.308   5.924   3.392 -0.7262 -0.5114  0.3424
  974SOL    MW4 3670   4.380   5.881   3.415 -0.4240 -0.0658 -0.0280
  975SOL     OW 3671   2.408   0.869   2.138  0.2783  0.5649 -0.2258
  975SOL    HW2 3672   2.432   0.785   2.178 -0.1262  0.7127  0.3544
  975SOL    HW3 3673   2.314   0.877   2.156  0.3541  1.2270 -0.1087
  975SOL    MW4 3674   2.398   0.859   2.146 -0.0604 -0.1421 -0.8362
  976SOL     OW 3675   4.816   4.894   0.400 -0.6403 -0.1195 -0.2725
  976SOL    HW2 3676   4.902   4.863   0.429 -0.8242 -0.7786 -0.4238
  976SOL    HW3 3677   4.823   4.990   0.403 -0.1817 -0.1683  0.5408
  976SOL    MW4 3678   4.828   4.903   0.404 -0.6333  0.1013  0.3511
  977SOL     OW 3679   4.497   5.096   4.755 -0.1327 -0.1105 -0.6444
  977SOL    HW2 3680   4.582   5.135   4.734 -0.5497  1.1908 -0.0315
  977SOL    HW3 3681   4.435   5.141   4.696 -0.3377 -1.4463 -1.4835
  977SOL    MW4 3682   4.500   5.107   4.744  0.1732  0.1017  0.1200
  978SOL     OW 3683   2.150   1.125   0.145 -0.0752 -0.0823 -0.0070
  978SOL    HW2 3684   2.126   1.033   0.159  0.7500 -0.0930  1.5860
  978SOL    HW3 3685   2.151   1.135   0.050 -3.1150 -0.9036 -0.2151
  978SOL    MW4 3686   2.147   1.114   0.134 -0.1477 -0.5330  0.4860
  979SOL     OW 3687   1.225   5.743   1.679 -0.2456 -0.1680  0.0897
  979SOL    HW2 3688   1.170   5.821   1.679 -0.2779 -0.1496  2.1473
  979SOL    HW3 3689   1.176   5.679   1.627  0.1824  1.3918 -2.3775
  979SOL    MW4 3690   1.211   5.745   1.672  0.0059 -1.0583  0.2798
  980SOL     OW 3691   0.919   3.127   3.987  0.5584  0.4485 -0.4878
  980SOL    HW2 3692   0.845   3.073   4.016  1.1114 -0.4058 -0.6435
  980SOL    HW3 3693   0.956   3.163   4.068  2.7543 -2.7695  0.1185
  980SOL    MW4 3694   0.914   3.125   4.002  0.3514 -0.2364  0.3668
  981SOL     OW 3695   4.611   0.955   1.117  0.2186  0.0942  0.8417
  981SOL    HW2 3696   4.595   0.861   1.125  0.9542 -0.0263  0.9068
  981SOL    HW3 3697   4.705   0.963   1.103 -0.0113  0.7308 -0.5688
  981SOL    MW4 3698   4.621   0.943   1.116 -0.0949  0.0003 -0.2583
  982SOL     OW 3699   1.618   0.706   3.731 -0.3860  0.1982 -0.1993
  982SOL    HW2 3700   1.648   0.784   3.683  2.2938  0.8481  2.1996
  982SOL    HW3 3701   1.524   0.718   3.740 -0.6273  1.2772 -2.9733
  982SOL    MW4 3702   1.610   0.718   3.726 -0.1769 -0.4274  0.4299
  983SOL     OW 3703   6.172   1.450   4.124 -0.2397  0.3768 -0.4999
  983SOL    HW2 3704   6.091   1.500   4.126  0.2571  1.1922  0.1003
  983SOL    HW3 3705   6.152   1.369   4.171 -0.7890  0.4495 -0.6125
  983SOL    MW4 3706   6.159   1.446   4.131 -0.0028 -0.0036 -0.0844
  984SOL     OW 3707   5.946   4.420   1.350 -0.5231 -0.5420 -0.3478
  984SOL    HW2 3708   6.000   4.498   1.367 -0.8754 -0.3354 -0.1549
  984SOL    HW3 3709   5.985   4.352   1.405 -0.3912 -0.4213 -0.2908
  984SOL    MW4 3710   5.959   4.421   1.360  0.4636 -0.3083  0.2314
  985SOL     OW 3711   2.577   5.933   5.253  0.1370  0.1944  0.5006
  985SOL    HW2 3712   2.648   5.913   5.314  0.2056  0.4354  0.5011
  985SOL    HW3 3713   2.508   5.871   5.275  0.3212  0.0048  0.5469
  985SOL    MW4 3714   2.577   5.922   5.264 -0.4953 -0.3311  0.0384
  986SOL     OW 3715   0.250   3.233   0.469 -0.9576 -0.6750  0.1829
  986SOL    HW2 3716   0.163   3.251   0.434 -0.5276  0.8657 -0.1765
  986SOL    HW3 3717   0.308   3.296   0.425 -0.0805  0.0731  2.2395
  986SOL    MW4 3718   0.247   3.244   0.459  0.4043 -0.4140  0.3737
  987SOL     OW 3719   4.078   0.410   4.144 -0.6626  0.4693 -0.2573
  987SOL    HW2 3720   4.105   0.326   4.107  0.9212  1.4954 -1.5310
  987SOL    HW3 3721   4.032   0.386   4.225 -0.2213 -1.6156 -0.5634
  987SOL    MW4 3722   4.076   0.396   4.150  0.1386  0.4054  0.1168
  988SOL     OW 3723   0.824   0.489   3.480 -0.1296  0.0382 -0.6124
  988SOL    HW2 3724   0.887   0.469   3.410 -0.7982  0.4762 -1.3631
  988SOL    HW3 3725   0.818   0.408   3.531  1.2169  0.0706 -0.3742
  988SOL    MW4 3726   0.831   0.476   3.477 -0.3560 -0.1036  0.4232
  989SOL     OW 3727   5.397   6.315   3.878  0.2143  0.3164 -0.2964
  989SOL    HW2 3728   5.313   6.331   3.922  0.1825 -0.4137 -0.0867
  989SOL    HW3 3729   5.444   6.399   3.885 -0.4634  0.7092 -0.3502
  989SOL    MW4 3730   5.392   6.329   3.885 -0.1285 -0.1010  0.3643
  990SOL     OW 3731   2.146   4.379   5.546  0.1790  0.1752 -0.0680
  990SOL    HW2 3732   2.092   4.445   5.504  1.0737  1.6470  1.0044
  990SOL    HW3 3733   2.087   4.335   5.607 -0.2828  0.4191 -0.3408
  990SOL    MW4 3734   2.131   4.382   5.549 -0.3352 -0.4069 -0.4121
  991SOL     OW 3735   4.729   4.465   5.358 -0.2242 -0.2353  0.2116
  991SOL    HW2 3736   4.743   4.374   5.333  0.6440 -0.7135  2.2398
  991SOL    HW3 3737   4.756   4.470   5.450  0.9988  2.3661 -0.1845
  991SOL    MW4 3738   4.734   4.454   5.367 -0.1028  0.3555  0.6137
  992SOL     OW 3739   2.316   3.226   2.729  0.4191 -0.2759  0.2972
  992SOL    HW2 3740   2.265   3.149   2.757  2.5414 -0.7962  3.1697
  992SOL    HW3 3741   2.317   3.283   2.805  1.0707  1.4352 -0.9367
  992SOL    MW4 3742   2.309   3.223   2.743  0.0352 -0.2606 -0.2577
  993SOL     OW 3743   3.367   1.422   0.432 -0.3106 -0.6384  0.2915
  993SOL    HW2 3744   3.386   1.350   0.372  2.4857 -0.3285  0.6702
  993SOL    HW3 3745   3.452   1.460   0.451 -1.6514  2.8836  0.0385
  993SOL    MW4 3746   3.380   1.417   0.426 -1.0207  0.0505  0.2333
  994SOL     OW 3747   6.250   3.067   3.854 -0.6058  0.1336  0.4946
  994SOL    HW2 3748   6.222   3.157   3.840  1.0473  0.5184 -0.6521
  994SOL    HW3 3749   6.296   3.068   3.937  0.5838  0.6804 -0.1480
  994SOL    MW4 3750   6.253   3.079   3.863  0.4918 -0.2955  0.0520
  995SOL     OW 3751   5.408   4.588   3.943  0.4058 -0.0264 -0.1502
  995SOL    HW2 3752   5.394   4.497   3.916  1.2408 -0.2498  0.1168
  995SOL    HW3 3753   5.431   4.582   4.035  1.0751  0.3941 -0.2848
  995SOL    MW4 3754   5.409   4.575   3.951 -0.3516 -0.5042  0.1599
  996SOL     OW 3755   1.068   5.927   5.049  0.2212  0.1930 -0.4162
  996SOL    HW2 3756   1.107   5.942   5.135  0.2039  1.4423 -0.6037
  996SOL    HW3 3757   1.134   5.958   4.987 -0.2532  0.4534 -0.8051
  996SOL    MW4 3758   1.082   5.933   5.052  0.0556  0.0016  0.1397
  997SOL     OW 3759   0.230   1.984   1.107  0.1196  0.6959  0.8436
  997SOL    HW2 3760   0.322   2.009   1.098 -0.0266  0.3803 -3.4218
  997SOL    HW3 3761   0.181   2.066   1.098 -0.0522  0.5009 -0.0972
  997SOL    MW4 3762   0.235   1.998   1.105  0.0681  0.0150  0.3865
  998SOL     OW 3763   1.663   2.329   0.093 -0.6215 -0.0156 -0.1206
  998SOL    HW2 3764   1.595   2.295   0.034  0.0116  2.2332 -2.3511
  998SOL    HW3 3765   1.726   2.257   0.100 -1.3938 -0.8342 -1.1369
  998SOL    MW4 3766   1.662   2.315   0.086 -0.6879  0.0296 -0.0339
  999SOL     OW 3767   4.064   4.808   5.413 -0.8067  0.1046  0.1877
  999SOL    HW2 3768   4.085   4.834   5.503 -0.7991 -0.6916  0.4274
  999SOL    HW3 3769   4.019   4.724   5.422  1.0237 -1.0298 -0.6449
  999SOL    MW4 3770   4.061   4.800   5.426  0.3960  0.0086  0.1295
 1000SOL     OW 3771   1.371   4.371   1.558  0.6614  0.1972 -0.5476
 1000SOL    HW2 3772   1.297   4.315   1.532 -0.4319  0.8230  1.1046
 1000SOL    HW3 3773   1.338   4.460   1.549  0.3655  0.4653  2.3592
 1000SOL    MW4 3774   1.357   4.375   1.553  0.3149  0.3576 -0.5017
 1001SOL     OW 3775   6.424   1.934   1.890 -0.1240 -0.4072 -0.4161
 1001SOL    HW2 3776   6.395   1.979   1.811  1.0906  0.1122 -0.5836
 1001SOL    HW3 3777   6.367   1.969   1.959 -0.7998 -0.4307 -0.9462
 1001SOL    MW4 3778   6.413   1.944   1.889  0.3139  0.0080  0.1532
 1002SOL     OW 3779   1.338   3.359   0.996 -0.5011  0.1220  0.4970
 1002SOL    HW2 3780   1.352   3.302   1.071 -3.3086 -0.4133  0.7453
 1002SOL    HW3 3781   1.319   3.445   1.034  0.6922  0.5251  0.2391
 1002SOL    MW4 3782   1.337   3.363   1.011  0.1103 -0.1213  0.0515
 1003SOL     OW 3783   5.820   0.554   6.331  0.3072 -0.2298 -0.2999
 1003SOL    HW2 3784   5.774   0.500   6.396  0.6794 -0.9117 -0.5830
 1003SOL    HW3 3785   5.752   0.604   6.288  0.0307  0.0898  0.4849
 1003SOL    MW4 3786   5.805   0.553   6.334 -0.6502 -0.6114  0.7471
 1004SOL     OW 3787   2.644   4.760   4.581 -0.3144  0.3856  0.3118
 1004SOL    HW2 3788   2.677   4.690   4.525  0.8590  2.3567 -1.6524
 1004SOL    HW3 3789   2.690   4.749   4.664  0.2075 -0.8691 -0.1292
 1004SOL    MW4 3790   2.654   4.750   4.584  0.2015  0.1310 -1.0816
 1005SOL     OW 3791   5.388   3.713   4.565 -0.3856 -0.0553  0.4673
 1005SOL    HW2 3792   5.351   3.646   4.507  2.6863 -0.8421 -0.7989
 1005SOL    HW3 3793   5.363   3.796   4.524  1.0175 -0.5869 -1.6518
 1005SOL    MW4 3794   5.380   3.715   4.552  0.4286 -0.5128 -0.2724
 1006SOL     OW 3795   0.776   3.165   1.981 -0.1362 -0.5585 -0.3020
 1006SOL    HW2 3796   0.787   3.249   2.025  0.7060 -1.1599  0.6568
 1006SOL    HW3 3797   0.723   3.186   1.904 -2.4789  0.3637  1.4428
 1006SOL    MW4 3798   0.770   3.179   1.976 -0.2594 -0.0355 -0.3230
 1007SOL     OW 3799   5.028   4.993   6.238  0.4106 -0.1491 -0.4749
 1007SOL    HW2 3800   5.012   5.085   6.258 -0.6493 -0.2327 -0.8656
 1007SOL    HW3 3801   4.996   4.982   6.148 -0.7822 -1.1883  0.0370
 1007SOL    MW4 3802   5.021   5.004   6.229 -0.1802 -0.4263  0.0791
 1008SOL     OW 3803   2.910   3.978   5.690 -0.1510  0.7078 -0.4766
 1008SOL    HW2 3804   2.950   4.000   5.774  0.0505 -2.3298  0.3671
 1008SOL    HW3 3805   2.984   3.958   5.633 -0.3284  1.0170 -0.8158
 1008SOL    MW4 3806   2.925   3.978   5.693  0.0581  0.3636 -0.0196
 1009SOL     OW 3807   6.428   4.843   1.571 -0.8259  0.4638  0.6161
 1009SOL    HW2 3808   6.379   4.867   1.650 -0.5415  3.0050  0.1075
 1009SOL    HW3 3809   6.517   4.875   1.588 -0.0023 -1.5944  0.3959
 1009SOL    MW4 3810   6.433   4.851   1.584  0.5146  0.2392 -0.6644
 1010SOL     OW 3811   0.798   3.262   0.194  0.5177  0.0268  0.4877
 1010SOL    HW2 3812   0.814   3.355   0.180 -1.1972  0.7384  2.6251
 1010SOL    HW3 3813   0.808   3.250   0.288  1.7910 -2.2292  0.1320
 1010SOL    MW4 3814   0.801   3.272   0.204  0.3264  0.2618  0.3229
 1011SOL     OW 3815   2.784   5.213   0.302 -0.1686  0.5138  0.7906
 1011SOL    HW2 3816   2.753   5.266   0.375 -0.2156  0.3464  0.8931
 1011SOL    HW3 3817   2.756   5.124   0.323  2.1929 -0.0534  1.9509
 1011SOL    MW4 3818   2.776   5.208   0.315  0.2203  0.1280  0.3438
 1012SOL     OW 3819   1.061   2.191   4.594  0.3506 -0.4638  0.2149
 1012SOL    HW2 3820   1.097   2.232   4.673 -0.9841 -0.5728  0.9107
 1012SOL    HW3 3821   1.128   2.128   4.567  1.2607  0.2694  0.6710
 1012SOL    MW4 3822   1.075   2.188   4.601  0.3222 -0.1382 -0.0211
 1013SOL     OW 3823   4.691   5.344   5.839 -0.2113  0.3989  0.1179
 1013SOL    HW2 3824   4.781   5.330   5.810  0.2373 -0.5791  1.8605
 1013SOL    HW3 3825   4.657   5.410   5.778  2.4850  2.8291  0.9911
 1013SOL    MW4 3826   4.698   5.351   5.827  0.1803 -0.3171  0.1812
 1014SOL     OW 3827   1.984   0.065   0.759 -0.1981 -0.0827 -0.1522
 1014SOL    HW2 3828   1.979   0.058   0.664 -2.4403 -1.5127 -0.0147
 1014SOL    HW3 3829   1.960   0.155   0.778  0.5558  0.2937 -0.9407
 1014SOL    MW4 3830   1.980   0.076   0.749  0.2984  0.3344 -0.1549
 1015SOL     OW 3831   2.652   5.003   2.862 -0.0422  0.0563 -0.6795
 1015SOL    HW2 3832   2.645   4.984   2.768 -2.5923 -2.9062 -0.0383
 1015SOL    HW3 3833   2.595   4.939   2.904  0.6650  1.5529  2.9209
 1015SOL    MW4 3834   2.644   4.992   2.855  0.1480 -0.0313  0.1750
 1016SOL     OW 3835   4.730   3.909   1.195 -0.5133  0.1985  0.4731
 1016SOL    HW2 3836   4.634   3.907   1.193 -0.5699 -0.9449  1.8598
 1016SOL    HW3 3837   4.751   3.967   1.268 -0.1524  0.3823  0.2220
 1016SOL    MW4 3838   4.720   3.916   1.204  0.4104  0.1474  0.1322
 1017SOL     OW 3839   3.945   5.694   5.469 -0.0354 -0.2198  0.0354
 1017SOL    HW2 3840   3.868   5.640   5.450 -0.1880  0.7888 -2.5519
 1017SOL    HW3 3841   4.019   5.642   5.438  0.1247 -0.2224  0.4131
 1017SOL    MW4 3842   3.945   5.680   5.462  0.8837  0.2975  0.6866
 1018SOL     OW 3843   3.490   1.839   0.362  0.2000 -0.1090  0.4124
 1018SOL    HW2 3844   3.515   1.930   0.343  0.5834 -0.3106 -0.0645
 1018SOL    HW3 3845   3.536   1.818   0.444 -1.6833  0.8563  1.7968
 1018SOL    MW4 3846   3.499   1.848   0.371  0.0103  0.0308  0.2273
 1019SOL     OW 3847   2.279   5.270   5.219  0.5125 -0.4765  0.0716
 1019SOL    HW2 3848   2.365   5.261   5.259  0.1049 -1.0765  0.8340
 1019SOL    HW3 3849   2.228   5.320   5.282  0.0885 -0.7557 -0.0435
 1019SOL    MW4 3850   2.284   5.275   5.232  0.2036  0.2048  0.2817
 1020SOL     OW 3851   0.498   0.870   4.429 -0.2783 -0.2456  0.3560
 1020SOL    HW2 3852   0.432   0.876   4.498 -2.8033  1.3437 -1.9511
 1020SOL    HW3 3853   0.529   0.960   4.418  1.1975 -0.7297  0.3764
 1020SOL    MW4 3854   0.493   0.883   4.436 -0.2698  0.3217  0.6034
 1021SOL     OW 3855   2.044   1.502   0.161 -0.5888 -0.3529 -0.0060
 1021SOL    HW2 3856   2.136   1.528   0.160 -0.3380 -1.2483 -0.4456
 1021SOL    HW3 3857   2.038   1.435   0.228 -0.7497 -0.8880 -0.5452
 1021SOL    MW4 3858   2.055   1.497   0.169  0.1900 -0.0666 -0.1551
 1022SOL     OW 3859   2.501   3.941   5.133  0.4987 -0.2198  1.1037
 1022SOL    HW2 3860   2.593   3.929   5.107 -0.1576 -1.7190 -0.7649
 1022SOL    HW3 3861   2.495   4.034   5.156  1.8145  0.7667 -1.9769
 1022SOL    MW4 3862   2.513   3.952   5.132  0.5013  0.2092  0.0530
 1023SOL     OW 3863   5.143   0.789   4.946 -0.1990  0.3146 -0.1357
 1023SOL    HW2 3864   5.170   0.730   5.016 -2.3418  0.0631  0.5504
 1023SOL    HW3 3865   5.120   0.732   4.873 -1.4434  0.3216  0.2323
 1023SOL    MW4 3866   5.144   0.774   4.946 -0.1447 -0.8878 -0.3604
 1024SOL     OW 3867   2.272   5.980   3.748 -0.1865  0.0058  0.2828
 1024SOL    HW2 3868   2.323   6.025   3.681 -1.0672  1.0686  0.3048
 1024SOL    HW3 3869   2.309   5.892   3.751  0.3125  0.1403 -1.1245
 1024SOL    MW4 3870   2.283   5.974   3.739 -0.1271  0.0539  0.0256
 1025SOL     OW 3871   0.058   1.852   6.318 -0.3307  0.8894 -0.0145
 1025SOL    HW2 3872  -0.035   1.873   6.325 -0.6870  0.2394 -2.0724
 1025SOL    HW3 3873   0.070   1.778   6.378 -0.5230  2.5692  2.1977
 1025SOL    MW4 3874   0.047   1.845   6.327 -0.5530 -0.7415  0.0651
 1026SOL     OW 3875   1.115   0.280   5.811 -0.3209 -0.2770 -0.2324
 1026SOL    HW2 3876   1.087   0.368   5.785 -0.1403 -0.5962 -1.5408
 1026SOL    HW3 3877   1.047   0.251   5.871  0.2308  1.2124  1.1952
 1026SOL    MW4 3878   1.102   0.288   5.816 -0.4381 -0.3597  0.7041
 1027SOL     OW 3879   0.438   0.354   1.012  0.2441  0.0067  0.5210
 1027SOL    HW2 3880   0.481   0.268   1.012  1.3009  0.5127  0.0842
 1027SOL    HW3 3881   0.511   0.416   1.011 -0.5141  0.9091  0.7385
 1027SOL    MW4 3882   0.453   0.351   1.012  0.9045  0.6194  0.3595
 1028SOL     OW 3883   3.405   3.030   3.820 -0.0534 -0.1198  0.0324
 1028SOL    HW2 3884   3.409   3.056   3.912 -0.4860  0.6170 -0.1519
 1028SOL    HW3 3885   3.373   3.107   3.774 -0.2171 -0.6037 -0.6916
 1028SOL    MW4 3886   3.402   3.043   3.826 -0.6795  0.5164 -0.2872
 1029SOL     OW 3887   6.407   2.442   5.034 -0.0970 -0.2008 -0.8278
 1029SOL    HW2 3888   6.393   2.530   4.998 -0.8675 -0.2659 -0.7100
 1029SOL    HW3 3889   6.319   2.413   5.060  0.0354 -1.2995 -1.5381
 1029SOL    MW4 3890   6.393   2.450   5.033 -0.0693  0.1850  0.1801
 1030SOL     OW 3891   0.469   2.941   4.984 -0.0355 -0.2380  0.4089
 1030SOL    HW2 3892   0.412   2.866   4.970  1.1549 -1.0517 -0.2832
 1030SOL    HW3 3893   0.557   2.905   4.983  0.6344  1.2668 -0.8743
 1030SOL    MW4 3894   0.473   2.927   4.982  0.0186 -0.6329 -0.1521
 1031SOL     OW 3895   1.609   4.844   2.819  0.6829  0.1382 -0.1151
 1031SOL    HW2 3896   1.586   4.901   2.745  1.8472 -0.2679 -0.8269
 1031SOL    HW3 3897   1.566   4.760   2.799  0.9455  0.0474 -0.3058
 1031SOL    MW4 3898   1.600   4.840   2.806  0.1728 -0.8405 -0.4849
 1032SOL     OW 3899   2.225   4.678   5.388 -0.2169 -0.2522  0.2956
 1032SOL    HW2 3900   2.132   4.659   5.377  0.1021 -1.1974 -1.0630
 1032SOL    HW3 3901   2.248   4.732   5.312 -0.2066  2.3544  2.0207
 1032SOL    MW4 3902   2.216   4.682   5.377  0.1127 -0.4916 -0.1962
 1033SOL     OW 3903   0.865   4.032   5.023 -0.0295 -0.3726 -0.4297
 1033SOL    HW2 3904   0.937   4.085   4.988  0.2720 -0.1845  0.4501
 1033SOL    HW3 3905   0.792   4.093   5.031 -0.3199 -0.5839 -1.4066
 1033SOL    MW4 3906   0.865   4.047   5.019  0.0642 -0.2105  0.5484
 1034SOL     OW 3907   5.504   2.769   4.982 -0.0479 -0.2447  0.5569
 1034SOL    HW2 3908   5.446   2.693   4.971  0.7704 -0.9765  1.1694
 1034SOL    HW3 3909   5.536   2.761   5.072  1.4371 -0.1594  0.0470
 1034SOL    MW4 3910   5.500   2.758   4.993 -0.5240  0.3787  0.2106
 1035SOL     OW 3911   2.324   2.000   4.166  0.4829  0.1198 -0.3439
 1035SOL    HW2 3912   2.311   2.043   4.082 -1.9872  0.2553  0.0297
 1035SOL    HW3 3913   2.299   1.909   4.150  0.1663  0.1095  0.1760
 1035SOL    MW4 3914   2.319   1.994   4.153  0.0897  0.1002 -0.0350
 1036SOL     OW 3915   5.960   1.582   1.967 -0.6027  0.2334  0.2684
 1036SOL    HW2 3916   5.902   1.637   1.915  0.3196  2.1183  1.1595
 1036SOL    HW3 3917   5.990   1.515   1.905 -2.6948 -0.0540 -0.5294
 1036SOL    MW4 3918   5.956   1.580   1.952 -0.6617 -0.4478  0.1755
 1037SOL     OW 3919   4.791   4.106   5.633  0.3261 -0.2181 -0.2618
 1037SOL    HW2 3920   4.873   4.073   5.669  0.1037 -1.4544 -0.8415
 1037SOL    HW3 3921   4.740   4.133   5.710  0.9063 -0.3026  0.1586
 1037SOL    MW4 3922   4.795   4.105   5.648  0.0561 -0.1542 -0.1255
 1038SOL     OW 3923   4.861   1.844   2.635 -0.1940  0.4087  0.5126
 1038SOL    HW2 3924   4.777   1.865   2.594 -0.2464  3.4293  1.8540
 1038SOL    HW3 3925   4.924   1.899   2.589  0.4686  0.5404  1.5345
 1038SOL    MW4 3926   4.858   1.854   2.624 -0.4738 -0.2516 -0.3880
 1039SOL     OW 3927   2.554   1.651   3.985  0.1904  0.0328 -0.2162
 1039SOL    HW2 3928   2.471   1.630   4.028 -1.1345 -0.4629 -2.7761
 1039SOL    HW3 3929   2.528   1.702   3.908  1.8859 -2.4928 -2.6891
 1039SOL    MW4 3930   2.540   1.655   3.981  0.0709  0.2820 -0.2649
 1040SOL     OW 3931   4.680   0.788   6.136 -0.1757 -0.5695  0.2311
 1040SOL    HW2 3932   4.626   0.718   6.172 -0.2563 -0.8636 -0.4455
 1040SOL    HW3 3933   4.636   0.869   6.163 -0.8140 -0.8036 -0.1079
 1040SOL    MW4 3934   4.667   0.789   6.144 -0.3515  0.3161 -0.0300
 1041SOL     OW 3935   0.307   4.093   1.999 -0.3902 -0.4205  0.7756
 1041SOL    HW2 3936   0.325   4.184   1.976  0.2116 -0.3799  1.3838
 1041SOL    HW3 3937   0.223   4.074   1.958 -1.6492  1.1143  2.5187
 1041SOL    MW4 3938   0.298   4.102   1.991  0.0944  0.0028  0.4042
 1042SOL     OW 3939   5.392   0.772   4.816  0.4060 -0.3281 -0.4120
 1042SOL    HW2 3940   5.470   0.739   4.861  0.4871 -1.5331 -1.3784
 1042SOL    HW3 3941   5.326   0.778   4.885  1.0702 -0.2566  0.2283
 1042SOL    MW4 3942   5.394   0.768   4.831  0.2916 -0.5185 -0.1562
 1043SOL     OW 3943   1.762   2.258   3.554 -0.2074 -0.0983  0.0038
 1043SOL    HW2 3944   1.854   2.264   3.579  0.1656  0.0235 -1.3109
 1043SOL    HW3 3945   1.731   2.178   3.595  0.3390  0.1331  0.8879
 1043SOL    MW4 3946   1.770   2.249   3.563 -0.0520  0.1954 -0.1569
 1044SOL     OW 3947   5.263   3.228   0.170 -0.6672 -0.5108  0.0908
 1044SOL    HW2 3948   5.195   3.204   0.107 -0.0854  1.1398 -1.2402
 1044SOL    HW3 3949   5.214   3.258   0.247 -1.4429  0.0295 -0.5999
 1044SOL    MW4 3950   5.247   3.229   0.172 -0.2154 -0.1993  0.3452
 1045SOL     OW 3951   1.329   2.010   0.233 -0.5757 -0.2629  0.2280
 1045SOL    HW2 3952   1.295   2.098   0.216 -0.3935 -0.3239 -0.4489
 1045SOL    HW3 3953   1.420   2.024   0.261 -1.1453 -0.0874  2.1870
 1045SOL    MW4 3954   1.336   2.023   0.235 -0.0026  0.2129  0.0710
 1046SOL     OW 3955   1.223   5.997   0.578  0.2346 -0.8353 -0.2965
 1046SOL    HW2 3956   1.273   5.937   0.523  0.2285 -0.8362 -0.3009
 1046SOL    HW3 3957   1.181   5.941   0.643  1.5125 -0.6934  0.7038
 1046SOL    MW4 3958   1.224   5.982   0.579  0.0069 -0.5564  0.3787
 1047SOL     OW 3959   5.686   3.308   2.329 -0.1003 -0.7772 -0.5918
 1047SOL    HW2 3960   5.635   3.348   2.399 -0.4714 -1.9754 -0.1565
 1047SOL    HW3 3961   5.721   3.382   2.279  0.9684  0.1462  1.4082
 1047SOL    MW4 3962   5.684   3.323   2.331  0.1938  0.0673  0.3366
 1048SOL     OW 3963   4.164   1.265   6.131 -0.0525 -0.1052  0.2475
 1048SOL    HW2 3964   4.249   1.233   6.100 -0.2187  1.0691 -1.5643
 1048SOL    HW3 3965   4.169   1.257   6.226  2.0377 -0.1736  0.1836
 1048SOL    MW4 3966   4.176   1.259   6.139 -0.0608  0.4296 -0.3911
 1049SOL     OW 3967   5.300   3.216   2.907  0.6970  0.0712  0.3018
 1049SOL    HW2 3968   5.295   3.147   2.841  0.5295 -0.2511  0.6516
 1049SOL    HW3 3969   5.210   3.229   2.936  0.2299  2.4778 -1.8402
 1049SOL    MW4 3970   5.287   3.209   2.902  0.1461  0.0111 -0.3772
 1050SOL     OW 3971   2.946   1.401   3.875  0.1616 -0.2432 -1.3172
 1050SOL    HW2 3972   3.028   1.351   3.873 -0.7196 -1.8027 -0.9001
 1050SOL    HW3 3973   2.945   1.443   3.961  0.7818  0.2597 -1.5534
 1050SOL    MW4 3974   2.956   1.400   3.886  0.2532 -0.3147  0.2727
 1051SOL     OW 3975   2.547   1.613   3.406 -0.1330  0.1179  0.6745
 1051SOL    HW2 3976   2.479   1.555   3.372 -0.1140  0.4015  0.1490
 1051SOL    HW3 3977   2.504   1.698   3.413  0.2166  0.3378  0.1716
 1051SOL    MW4 3978   2.532   1.616   3.403 -0.3767  0.0503  0.5524
 1052SOL     OW 3979   4.442   2.808   3.815 -0.3426 -0.3493 -0.3986
 1052SOL    HW2 3980   4.476   2.721   3.833 -0.2553 -0.1181  0.6276
 1052SOL    HW3 3981   4.381   2.825   3.887  0.9526  1.1322  0.4060
 1052SOL    MW4 3982   4.438   2.799   3.827 -0.1564 -0.1277 -0.0503
 1053SOL     OW 3983   3.106   5.281   3.404  1.0697  0.0922 -0.1826
 1053SOL    HW2 3984   3.038   5.237   3.353  3.3181 -3.4623 -0.4437
 1053SOL    HW3 3985   3.148   5.341   3.343  0.9894 -0.9637 -1.3044
 1053SOL    MW4 3986   3.102   5.283   3.389  0.4708 -0.2395 -0.1691
 1054SOL     OW 3987   1.953   5.267   0.678 -0.0829 -0.6287  0.4006
 1054SOL    HW2 3988   1.937   5.226   0.593  0.4978 -0.8987  0.4158
 1054SOL    HW3 3989   2.017   5.210   0.720  0.4824  0.1106  0.5651
 1054SOL    MW4 3990   1.959   5.254   0.672  0.2658 -0.4726  0.1548
 1055SOL     OW 3991   1.218   3.529   4.270  0.0666 -0.8147  0.1809
 1055SOL    HW2 3992   1.249   3.600   4.213  0.5614 -0.5305  0.7922
 1055SOL    HW3 3993   1.144   3.491   4.223 -0.2970  0.2007 -0.0902
 1055SOL    MW4 3994   1.213   3.534   4.256  0.3886  0.5576  0.0762
 1056SOL     OW 3995   4.099   6.253   2.901 -0.1835 -0.4942 -0.5197
 1056SOL    HW2 3996   4.093   6.337   2.946  1.6148 -0.9526  0.6794
 1056SOL    HW3 3997   4.065   6.270   2.813 -3.9742  0.4007  0.9289
 1056SOL    MW4 3998   4.094   6.266   2.895  0.1656 -0.0188  0.0187
 1057SOL     OW 3999   1.204   3.121   0.976 -0.0976  0.2064  0.5898
 1057SOL    HW2 4000   1.267   3.193   0.964  1.4034 -1.2837 -1.0951
 1057SOL    HW3 4001   1.123   3.155   0.937  0.2636  1.3522  0.7757
 1057SOL    MW4 4002   1.202   3.135   0.969 -0.0183 -0.1820 -0.1600
 1058SOL     OW 4003   1.993   1.863   5.682 -0.0566 -0.1728 -0.0220
 1058SOL    HW2 4004   2.049   1.913   5.742  1.6512 -0.8895 -0.9333
 1058SOL    HW3 4005   2.031   1.878   5.596 -2.2986  0.5968 -0.9231
 1058SOL    MW4 4006   2.006   1.871   5.679 -0.0053  0.0845  0.6687
 1059SOL     OW 4007   2.386   4.405   2.421  0.1570 -0.5067 -0.2630
 1059SOL    HW2 4008   2.457   4.342   2.433  0.0800 -0.5240  0.0932
 1059SOL    HW3 4009   2.430   4.484   2.388  0.0853 -1.1995 -2.1728
 1059SOL    MW4 4010   2.401   4.407   2.418 -0.1495 -0.3156 -0.4662
 1060SOL     OW 4011   1.349   0.565   4.996 -0.5507 -0.0749  0.2011
 1060SOL    HW2 4012   1.258   0.569   4.967 -0.2026 -2.0637 -1.3451
 1060SOL    HW3 4013   1.361   0.475   5.025  0.7613  0.3472  1.0655
 1060SOL    MW4 4014   1.339   0.554   4.996 -0.0485  0.2098 -0.2390
 1061SOL     OW 4015   2.371   3.381   1.497  0.7265  0.2139 -0.1580
 1061SOL    HW2 4016   2.330   3.357   1.580  0.3350  0.4384 -0.2845
 1061SOL    HW3 4017   2.299   3.380   1.433  0.5232  2.4672 -0.0368
 1061SOL    MW4 4018   2.356   3.378   1.499 -0.7851  0.5780  0.3790
 1062SOL     OW 4019   2.600   3.863   6.316 -1.0082  0.2908 -0.2173
 1062SOL    HW2 4020   2.542   3.790   6.296 -1.6955  0.4666  1.0514
 1062SOL    HW3 4021   2.670   3.823   6.368 -1.4933  0.5502  0.6537
 1062SOL    MW4 4022   2.602   3.848   6.320 -0.1710 -0.0056 -0.3692
 1063SOL     OW 4023   4.256   4.077   1.075  0.3631 -0.0644 -0.0552
 1063SOL    HW2 4024   4.287   4.154   1.028  1.8637  0.2510  1.3747
 1063SOL    HW3 4025   4.331   4.017   1.077 -0.8489 -1.7407 -1.3725
 1063SOL    MW4 4026   4.270   4.079   1.069 -0.4654  0.2660 -0.3205
 1064SOL     OW 4027   5.558   2.987   3.631 -0.5574  0.4570 -0.1026
 1064SOL    HW2 4028   5.505   3.043   3.574  0.5102  2.9595  1.2461
 1064SOL    HW3 4029   5.647   2.996   3.597 -0.4986 -1.6037 -0.6873
 1064SOL    MW4 4030   5.563   2.995   3.619  0.4139  0.0494  0.3811
 1065SOL     OW 4031   3.715   2.029   5.304  0.8088  0.3193 -0.2678
 1065SOL    HW2 4032   3.741   2.031   5.212  0.5324  1.5129 -0.3303
 1065SOL    HW3 4033   3.655   1.955   5.310  0.9759  0.1197 -1.0082
 1065SOL    MW4 4034   3.711   2.019   5.293 -0.1263  0.1510  0.5192
 1066SOL     OW 4035   4.197   5.734   3.586  0.0097 -0.1787  0.2380
 1066SOL    HW2 4036   4.271   5.777   3.542  0.1186 -0.2827  0.3176
 1066SOL    HW3 4037   4.144   5.806   3.620 -0.1854 -0.0940 -0.2414
 1066SOL    MW4 4038   4.200   5.749   3.585 -0.1778 -0.1839  0.0118
 1067SOL     OW 4039   0.211   6.400   4.156 -0.3854 -0.1611  0.1932
 1067SOL    HW2 4040   0.200   6.337   4.085 -1.2433  0.7662 -0.5378
 1067SOL    HW3 4041   0.294   6.445   4.136 -1.8951  2.0078 -1.8786
 1067SOL    MW4 4042   0.221   6.398   4.144 -0.1142  0.4111 -0.4239
 1068SOL     OW 4043   0.421   6.328   3.787  0.1031  0.6837 -0.0954
 1068SOL    HW2 4044   0.477   6.254   3.763  0.6616 -0.1885  3.3695
 1068SOL    HW3 4045   0.480   6.391   3.827 -0.9389  1.2160  0.6536
 1068SOL    MW4 4046   0.436   6.326   3.789  0.3405  0.3512  0.2419
 1069SOL     OW 4047   6.184   5.980   1.505 -0.4269  0.3442  0.0824
 1069SOL    HW2 4048   6.156   5.923   1.434  0.5017 -0.3223  0.2342
 1069SOL    HW3 4049   6.272   5.949   1.528 -0.3445  1.1336  0.9046
 1069SOL    MW4 4050   6.192   5.969   1.499 -0.4731 -0.3267 -0.3466
 1070SOL     OW 4051   1.339   5.200   5.784 -0.0618 -0.2253  0.3412
 1070SOL    HW2 4052   1.341   5.277   5.727 -0.5168 -0.2163  0.3343
 1070SOL    HW3 4053   1.429   5.167   5.783 -0.3597 -1.0633 -1.5195
 1070SOL    MW4 4054   1.352   5.206   5.777  0.2376  0.6354  0.2164
 1071SOL     OW 4055   4.029   3.439   1.263 -0.1882  0.2578 -0.1047
 1071SOL    HW2 4056   4.007   3.392   1.343 -0.0048  0.0444 -0.1800
 1071SOL    HW3 4057   4.011   3.531   1.284  0.0619  0.2300  0.2567
 1071SOL    MW4 4058   4.024   3.445   1.277  0.0393 -0.4392 -0.0852
 1072SOL     OW 4059   1.740   4.620   3.253  0.1196 -0.8432 -0.7499
 1072SOL    HW2 4060   1.662   4.574   3.223  0.5260 -1.4733 -0.8733
 1072SOL    HW3 4061   1.715   4.712   3.253 -1.5529 -1.2074  1.9754
 1072SOL    MW4 4062   1.727   4.626   3.249 -0.5301 -0.0439 -0.0155
 1073SOL     OW 4063   0.916   5.772   1.984  0.3647 -0.0903  0.0211
 1073SOL    HW2 4064   0.947   5.688   2.018 -1.3760 -0.4519  0.8162
 1073SOL    HW3 4065   0.889   5.821   2.062 -0.9735  0.2125 -0.6066
 1073SOL    MW4 4066   0.917   5.767   1.999 -0.5270  0.0827 -0.0721
 1074SOL     OW 4067   2.253   4.548   5.111 -0.4231 -0.4617 -0.5775
 1074SOL    HW2 4068   2.161   4.574   5.114 -0.6992 -1.4518 -0.3277
 1074SOL    HW3 4069   2.263   4.486   5.183  0.4331 -0.3907 -0.6301
 1074SOL    MW4 4070   2.242   4.544   5.121 -0.2295 -0.0082 -0.2311
 1075SOL     OW 4071   5.416   3.881   2.494  0.2279  0.3274  0.0566
 1075SOL    HW2 4072   5.430   3.975   2.487 -0.5966  0.4655  0.2361
 1075SOL    HW3 4073   5.343   3.871   2.555  0.5075 -0.4425  0.2883
 1075SOL    MW4 4074   5.409   3.892   2.501  0.1637  0.5415  0.0622
 1076SOL     OW 4075   6.131   5.850   3.593  0.1641  0.0032 -0.0693
 1076SOL    HW2 4076   6.166   5.933   3.559 -1.2345  0.9717  0.7646
 1076SOL    HW3 4077   6.077   5.816   3.522 -0.5263  0.6170  0.1513
 1076SOL    MW4 4078   6.129   5.857   3.579 -0.3247 -0.3692 -0.3199
 1077SOL     OW 4079   1.721   1.495   4.619 -0.4643  0.0909 -0.1819
 1077SOL    HW2 4080   1.723   1.416   4.674  1.4634  0.1500 -0.0979
 1077SOL    HW3 4081   1.718   1.462   4.530 -2.1903 -0.0129 -0.1274
 1077SOL    MW4 4082   1.721   1.480   4.615  0.1184  0.6174 -0.1030
 1078SOL     OW 4083   0.402   4.264   0.090  0.6191  0.1633  0.0092
 1078SOL    HW2 4084   0.348   4.206   0.036 -1.4744  1.1419  0.9284
 1078SOL    HW3 4085   0.479   4.211   0.112 -0.4191 -1.6815 -0.5388
 1078SOL    MW4 4086   0.405   4.249   0.086  0.0091 -0.0094  0.1306
 1079SOL     OW 4087   5.788   3.361   6.048 -0.2124 -0.0131  0.5358
 1079SOL    HW2 4088   5.803   3.435   5.990 -0.6541 -0.3339  0.0116
 1079SOL    HW3 4089   5.727   3.395   6.114 -2.7205 -0.6567 -1.2951
 1079SOL    MW4 4090   5.782   3.376   6.049  0.0560  0.3419  0.2312
 1080SOL     OW 4091   3.725   5.426   2.760 -0.5501 -0.5445 -0.6139
 1080SOL    HW2 4092   3.757   5.338   2.740 -1.4934 -1.1110  0.2730
 1080SOL    HW3 4093   3.681   5.455   2.680 -0.6928 -1.0948 -0.7346
 1080SOL    MW4 4094   3.724   5.418   2.746 -0.4241 -0.3580  0.4314
 1081SOL     OW 4095   1.489   0.620   3.051 -0.6607  0.1819 -0.2953
 1081SOL    HW2 4096   1.424   0.562   3.093  1.4868 -1.8362  0.4449
 1081SOL    HW3 4097   1.465   0.708   3.081 -2.2275 -0.6473  1.0743
 1081SOL    MW4 4098   1.477   0.624   3.060 -0.4535  1.0113 -0.9689
 1082SOL     OW 4099   6.426   1.726   2.390  0.3458 -0.0050 -0.7544
 1082SOL    HW2 4100   6.492   1.778   2.437  0.8011 -0.8798 -0.4042
 1082SOL    HW3 4101   6.388   1.670   2.457 -0.5967  0.3171 -1.0078
 1082SOL    MW4 4102   6.430   1.725   2.405 -0.1983  0.2817  0.0383
 1083SOL     OW 4103   2.010   2.278   6.355  0.5378  0.3061 -0.0241
 1083SOL    HW2 4104   1.977   2.270   6.445  1.0946 -1.2495  0.0685
 1083SOL    HW3 4105   1.943   2.236   6.301 -0.0066  1.6146 -0.4262
 1083SOL    MW4 4106   1.997   2.272   6.360  0.4264  0.3293  0.0765
 1084SOL     OW 4107   2.545   5.555   3.821  0.4218  0.0164 -0.4171
 1084SOL    HW2 4108   2.528   5.520   3.908 -0.1528  0.2975 -0.4088
 1084SOL    HW3 4109   2.465   5.602   3.798  0.4586 -0.2930 -1.2120
 1084SOL    MW4 4110   2.532   5.557   3.829 -0.6944  0.2826  0.0264
 1085SOL     OW 4111   3.095   3.631   6.068  0.2592 -0.8158 -0.0533
 1085SOL    HW2 4112   3.011   3.649   6.110  0.4720 -0.2550  0.1408
 1085SOL    HW3 4113   3.156   3.691   6.111  0.7284 -1.1175 -0.2972
 1085SOL    MW4 4114   3.092   3.641   6.079 -0.1922 -0.2647 -0.1972
 1086SOL     OW 4115   3.877   3.846   2.335 -0.3244  0.1239 -0.0545
 1086SOL    HW2 4116   3.801   3.789   2.342 -0.3226  0.2783  1.7244
 1086SOL    HW3 4117   3.941   3.809   2.396  1.5050 -0.6587 -2.3046
 1086SOL    MW4 4118   3.876   3.834   2.344 -0.6970 -0.4603 -0.3570
 1087SOL     OW 4119   2.466   1.433   5.142  0.3918 -0.1797 -0.1003
 1087SOL    HW2 4120   2.512   1.490   5.204  0.9756  0.8975 -1.4798
 1087SOL    HW3 4121   2.536   1.390   5.093 -0.0654 -0.8418 -0.1824
 1087SOL    MW4 4122   2.481   1.435   5.144  0.3938  0.0089 -0.4631
 1088SOL     OW 4123   2.547   4.076   2.809  0.6084  0.4286 -0.5592
 1088SOL    HW2 4124   2.537   4.110   2.897  0.3998  2.5792 -1.3529
 1088SOL    HW3 4125   2.517   4.147   2.752 -0.1103 -1.2222 -2.3457
 1088SOL    MW4 4126   2.542   4.090   2.813  0.0157 -0.6234  0.2076
 1089SOL     OW 4127   1.865   4.798   4.247  0.6506  0.5151  0.2458
 1089SOL    HW2 4128   1.884   4.708   4.223  2.5702  1.1844 -0.9708
 1089SOL    HW3 4129   1.886   4.849   4.169  1.1387  2.1722  1.4012
 1089SOL    MW4 4130   1.870   4.793   4.234  0.2471 -0.5511 -0.0574
 1090SOL     OW 4131   0.944   2.445   0.971  0.2837  0.1178 -0.9824
 1090SOL    HW2 4132   0.990   2.388   0.908  1.6387  0.6245 -0.5013
 1090SOL    HW3 4133   0.921   2.523   0.919  2.1970  0.9314 -0.7233
 1090SOL    MW4 4134   0.947   2.448   0.956 -0.5346  0.7627 -0.2147
 1091SOL     OW 4135   6.052   5.487   2.955 -0.1543 -0.3272  0.2583
 1091SOL    HW2 4136   6.115   5.435   3.006 -1.5554 -1.1009  1.2539
 1091SOL    HW3 4137   6.024   5.427   2.885  0.4317  0.1368 -0.3970
 1091SOL    MW4 4138   6.057   5.472   2.952  0.2947 -0.2245 -0.1975
 1092SOL     OW 4139   4.675   1.967   6.240  0.1043 -0.4032 -0.7683
 1092SOL    HW2 4140   4.764   1.989   6.213  1.2090  0.7177  3.0319
 1092SOL    HW3 4141   4.626   2.048   6.229  0.7955  0.3407  1.1868
 1092SOL    MW4 4142   4.680   1.980   6.235 -0.2737 -0.7240 -0.6501
 1093SOL     OW 4143   3.102   0.249   2.774  0.3171  0.0989  0.2284
 1093SOL    HW2 4144   3.020   0.214   2.809  0.1799  0.6483  0.4777
 1093SOL    HW3 4145   3.118   0.327   2.827  1.5301 -0.5514  0.8545
 1093SOL    MW4 4146   3.093   0.255   2.786 -0.0627 -0.1718 -0.0208
 1094SOL     OW 4147   1.915   3.589   1.359  0.0949 -0.2115  0.2436
 1094SOL    HW2 4148   1.875   3.520   1.411  0.7531 -1.2236 -0.5673
 1094SOL    HW3 4149   1.857   3.598   1.283  0.9909 -1.1997 -0.5863
 1094SOL    MW4 4150   1.902   3.581   1.356 -0.0729 -0.1415  0.2377
 1095SOL     OW 4151   2.961   5.618   2.437 -0.0730 -0.0357 -0.0108
 1095SOL    HW2 4152   2.879   5.571   2.455  0.0406 -0.9788 -1.7019
 1095SOL    HW3 4153   3.029   5.561   2.473 -0.1029  0.4075  0.7681
 1095SOL    MW4 4154   2.959   5.604   2.444 -0.0420  0.3916 -0.2953
 1096SOL     OW 4155   5.138   4.895   4.832  0.6031  0.1375  0.5892
 1096SOL    HW2 4156   5.146   4.812   4.784 -0.4361 -0.2985  1.1265
 1096SOL    HW3 4157   5.166   4.961   4.769 -1.7000 -0.3106 -1.0563
 1096SOL    MW4 4158   5.143   4.893   4.817 -0.3216  0.1637  0.2680
 1097SOL     OW 4159   6.034   1.564   0.849 -0.1479 -0.5202  0.7924
 1097SOL    HW2 4160   6.099   1.551   0.780 -0.2563  0.1060  0.5677
 1097SOL    HW3 4161   5.967   1.498   0.831  0.5976 -1.4211  1.2494
 1097SOL    MW4 4162   6.034   1.553   0.838 -0.2120 -0.0226  0.0405
 1098SOL     OW 4163   5.091   5.318   5.560  0.2397 -0.3194  0.6118
 1098SOL    HW2 4164   5.183   5.344   5.556 -0.1263  1.1066 -3.4346
 1098SOL    HW3 4165   5.042   5.400   5.555 -1.1488 -1.1572 -0.6756
 1098SOL    MW4 4166   5.096   5.332   5.559 -0.3945 -0.5395  0.3943
 1099SOL     OW 4167   5.662   3.073   2.638 -0.0598  0.1350  0.2602
 1099SOL    HW2 4168   5.684   3.093   2.729 -2.5715 -1.1504  1.2382
 1099SOL    HW3 4169   5.739   3.101   2.589  0.5077  2.9799  2.4723
 1099SOL    MW4 4170   5.675   3.079   2.644  0.1739 -0.1284  0.4858
 1100SOL     OW 4171   0.976   6.275   5.887 -0.2456 -0.2413  0.2363
 1100SOL    HW2 4172   1.069   6.289   5.871 -0.4393 -0.7746 -1.6039
 1100SOL    HW3 4173   0.938   6.267   5.800 -1.7945 -1.4535  0.9714
 1100SOL    MW4 4174   0.983   6.275   5.873  0.2368 -0.2822 -0.6357
 1101SOL     OW 4175   4.357   1.070   2.767  0.5847  0.0355  0.0390
 1101SOL    HW2 4176   4.264   1.051   2.764  0.5362  0.1955  0.4187
 1101SOL    HW3 4177   4.399   0.985   2.754  0.3849 -0.0526 -0.0348
 1101SOL    MW4 4178   4.351   1.056   2.765  0.2456  0.5307  0.3546
 1102SOL     OW 4179   1.179   2.579   5.648  1.0536 -0.4462 -0.0030
 1102SOL    HW2 4180   1.148   2.605   5.561 -2.7555  0.9965  1.5503
 1102SOL    HW3 4181   1.238   2.649   5.675 -1.1324  1.4405  0.1525
 1102SOL    MW4 4182   1.182   2.592   5.640  0.3820  0.0168  0.3446
 1103SOL     OW 4183   2.812   3.311   1.827 -0.2779 -0.3903  0.2638
 1103SOL    HW2 4184   2.822   3.406   1.817  0.5860 -0.4900  0.0915
 1103SOL    HW3 4185   2.847   3.293   1.915  1.5485 -0.8028 -0.5047
 1103SOL    MW4 4186   2.818   3.321   1.837 -0.5794 -0.5729  0.0786
 1104SOL     OW 4187   5.572   0.974   5.223 -0.2068 -0.1462  0.4346
 1104SOL    HW2 4188   5.611   0.944   5.141 -1.2009  0.2172 -0.1874
 1104SOL    HW3 4189   5.486   0.933   5.226 -0.2034 -0.1169  1.2795
 1104SOL    MW4 4190   5.566   0.965   5.213  0.0563 -0.5142  0.5205
 1105SOL     OW 4191   0.815   3.554   5.566 -0.1163 -0.4551  0.1552
 1105SOL    HW2 4192   0.846   3.470   5.600  0.3072 -0.5894 -0.5481
 1105SOL    HW3 4193   0.802   3.608   5.644  0.3101 -0.9341  0.5626
 1105SOL    MW4 4194   0.817   3.550   5.581 -0.3490  0.2516  0.4957
 1106SOL     OW 4195   5.491   4.121   0.453 -0.1831  0.3653 -0.1425
 1106SOL    HW2 4196   5.469   4.072   0.532 -1.4197  2.7183  1.0519
 1106SOL    HW3 4197   5.586   4.119   0.449  0.0284  1.5566  2.3789
 1106SOL    MW4 4198   5.500   4.114   0.463  0.2688  0.4807  0.3594
 1107SOL     OW 4199   5.040   4.901   3.011  0.7668 -0.4607  0.4130
 1107SOL    HW2 4200   5.032   4.810   2.984  1.0677 -0.2895 -0.2767
 1107SOL    HW3 4201   4.950   4.931   3.023  0.6751 -1.0056  1.2211
 1107SOL    MW4 4202   5.027   4.893   3.009 -0.1933 -0.6150  0.2091
 1108SOL     OW 4203   1.392   4.721   0.421 -0.6252 -0.1473  0.8010
 1108SOL    HW2 4204   1.437   4.715   0.505  1.0511  0.9183  0.0247
 1108SOL    HW3 4205   1.335   4.798   0.429  0.3435  0.6072  0.6278
 1108SOL    MW4 4206   1.391   4.731   0.433 -0.4067 -0.5310 -0.0790
 1109SOL     OW 4207   5.384   0.876   2.279  0.6975 -0.6264  0.1855
 1109SOL    HW2 4208   5.413   0.788   2.302  2.2459 -0.1335  0.2149
 1109SOL    HW3 4209   5.464   0.928   2.272 -0.2647  1.5387  3.1228
 1109SOL    MW4 4210   5.398   0.872   2.281 -0.0608  0.1207  0.3456
 1110SOL     OW 4211   1.023   2.284   1.306 -0.5261  0.1158  0.2779
 1110SOL    HW2 4212   0.994   2.374   1.321  3.5705  1.6776  0.1618
 1110SOL    HW3 4213   1.065   2.286   1.220  3.8770 -0.4520  2.1532
 1110SOL    MW4 4214   1.025   2.296   1.297 -0.5779  0.6379 -0.3306
 1111SOL     OW 4215   1.876   1.112   4.176  0.5702  0.3200 -0.2005
 1111SOL    HW2 4216   1.937   1.039   4.162  0.6193  0.2899  0.1716
 1111SOL    HW3 4217   1.926   1.176   4.227  0.3356  0.3561 -0.0142
 1111SOL    MW4 4218   1.890   1.111   4.181  0.1062  0.4176 -0.1679
 1112SOL     OW 4219   5.802   5.048   3.146 -0.1544 -0.3530 -0.2341
 1112SOL    HW2 4220   5.760   5.047   3.060  1.1653  1.8704 -0.9996
 1112SOL    HW3 4221   5.749   5.108   3.198  1.0071  1.1181 -0.6731
 1112SOL    MW4 4222   5.790   5.056   3.142 -0.3409 -0.1538 -0.2148
 1113SOL     OW 4223   5.380   1.334   0.073 -0.2776 -0.5958  0.1377
 1113SOL    HW2 4224   5.396   1.240   0.069 -3.4866 -1.3438  1.6410
 1113SOL    HW3 4225   5.303   1.343   0.129 -0.9766  2.8370 -1.1350
 1113SOL    MW4 4226   5.372   1.323   0.080 -0.2163  0.3904  0.2705
 1114SOL     OW 4227   6.011   1.546   1.605 -0.7896  0.6286 -0.7250
 1114SOL    HW2 4228   6.067   1.500   1.667 -0.0335 -0.2435 -2.0159
 1114SOL    HW3 4229   5.986   1.480   1.541 -0.6116  1.7403 -1.9887
 1114SOL    MW4 4230   6.015   1.531   1.605  0.2223 -0.1070  0.1855
 1115SOL     OW 4231   2.336   5.726   3.815  0.1839 -0.3566 -0.4275
 1115SOL    HW2 4232   2.250   5.688   3.832 -1.2239  2.8303  0.2750
 1115SOL    HW3 4233   2.367   5.756   3.901  1.4162 -0.2513 -0.8793
 1115SOL    MW4 4234   2.329   5.725   3.829  0.1362 -0.0299  0.5761
 1116SOL     OW 4235   1.812   1.644   2.206  0.6073  0.2791 -0.1396
 1116SOL    HW2 4236   1.789   1.622   2.116 -0.1950 -0.9698  0.3408
 1116SOL    HW3 4237   1.851   1.564   2.241  3.3937  1.5354 -0.1224
 1116SOL    MW4 4238   1.814   1.630   2.199 -0.7258  0.3863 -0.3687
 1117SOL     OW 4239   5.132   3.823   6.246 -0.0232 -0.2395  0.0628
 1117SOL    HW2 4240   5.056   3.876   6.270 -0.6379 -1.3171  0.6139
 1117SOL    HW3 4241   5.137   3.756   6.315 -0.5115 -2.1243 -1.6126
 1117SOL    MW4 4242   5.122   3.821   6.258 -0.2693 -0.0904 -0.4957
 1118SOL     OW 4243   2.949   0.179   5.187 -0.0649 -0.6298  0.1977
 1118SOL    HW2 4244   2.950   0.171   5.091 -0.5255  0.8081  0.0535
 1118SOL    HW3 4245   2.861   0.153   5.212 -1.1997  2.4965 -0.1678
 1118SOL    MW4 4246   2.938   0.175   5.177 -0.7351 -0.4370 -0.1963
 1119SOL     OW 4247   3.059   6.300   1.142 -0.3523 -0.0263  0.5366
 1119SOL    HW2 4248   2.969   6.267   1.143  0.0361 -1.1256  0.5508
 1119SOL    HW3 4249   3.051   6.394   1.161 -1.5933  0.1595 -0.7641
 1119SOL    MW4 4250   3.046   6.308   1.145 -0.1276  0.5810  0.1655
 1120SOL     OW 4251   5.592   2.801   0.650 -0.1996  0.6416 -0.1196
 1120SOL    HW2 4252   5.619   2.859   0.579  1.1844 -0.2676 -0.3958
 1120SOL    HW3 4253   5.673   2.755   0.674 -1.4702 -2.3050 -0.9870
 1120SOL    MW4 4254   5.606   2.803   0.644  0.2381 -0.6153  0.0315
 1121SOL     OW 4255   2.133   3.686   5.358  0.2436  0.0510 -0.2473
 1121SOL    HW2 4256   2.130   3.756   5.292  1.5820 -0.7972 -1.2606
 1121SOL    HW3 4257   2.207   3.632   5.332  0.3354 -0.7563  1.5424
 1121SOL    MW4 4258   2.142   3.688   5.346  0.3679 -0.1690 -0.4454
 1122SOL     OW 4259   6.270   6.318   0.943 -0.0488 -0.4147  0.3152
 1122SOL    HW2 4260   6.346   6.372   0.923 -0.5592 -0.0363 -0.6605
 1122SOL    HW3 4261   6.199   6.380   0.958 -0.7333 -0.7809 -1.1989
 1122SOL    MW4 4262   6.271   6.333   0.942 -0.0558 -0.4781  0.1066
 1123SOL     OW 4263   0.933   5.542   4.214 -0.2325  0.0284  0.1478
 1123SOL    HW2 4264   0.917   5.628   4.252  0.7307  0.5665 -0.6406
 1123SOL    HW3 4265   1.003   5.555   4.150 -0.3957 -1.2476 -0.3367
 1123SOL    MW4 4266   0.940   5.555   4.211 -0.2143 -0.1026 -0.4148
 1124SOL     OW 4267   1.321   3.352   4.975  0.1201  0.6520  0.7133
 1124SOL    HW2 4268   1.395   3.322   4.921 -1.8296 -1.5614 -0.9402
 1124SOL    HW3 4269   1.323   3.447   4.967  1.8506  0.5640 -0.5841
 1124SOL    MW4 4270   1.331   3.361   4.967 -0.1407 -0.1618  0.6652
 1125SOL     OW 4271   2.082   0.886   2.840 -0.6318 -0.3829  0.8009
 1125SOL    HW2 4272   2.009   0.927   2.793  0.7182  1.8860  0.5674
 1125SOL    HW3 4273   2.119   0.824   2.777 -0.4276  0.7493 -0.2289
 1125SOL    MW4 4274   2.077   0.883   2.826  0.6348 -0.1007 -0.3370
 1126SOL     OW 4275   3.648   5.322   3.760  0.2978  0.5999  0.0338
 1126SOL    HW2 4276   3.658   5.359   3.847  0.2784 -0.8324  0.6802
 1126SOL    HW3 4277   3.591   5.246   3.772  0.9554 -0.1106 -1.0782
 1126SOL    MW4 4278   3.641   5.317   3.773 -0.0654  0.1619  0.0502
 1127SOL     OW 4279   1.780   3.540   2.623 -0.1064 -0.0692  0.3966
 1127SOL    HW2 4280   1.702   3.536   2.568  0.3083  0.4577 -0.2456
 1127SOL    HW3 4281   1.846   3.580   2.568  1.0153 -1.7036  0.4816
 1127SOL    MW4 4282   1.778   3.545   2.609  0.0091  0.7601 -0.2500
 1128SOL     OW 4283   5.145   3.845   0.480  0.1449 -0.2182 -0.0420
 1128SOL    HW2 4284   5.172   3.804   0.397 -0.6279  1.4120 -1.1463
 1128SOL    HW3 4285   5.058   3.809   0.497  0.7917 -1.4876  0.7540
 1128SOL    MW4 4286   5.137   3.835   0.471 -0.3633 -0.1632  0.0168
 1129SOL     OW 4287   1.068   3.650   2.428 -0.1803  0.4310  0.0872
 1129SOL    HW2 4288   1.048   3.581   2.491 -2.8007  0.3809 -0.6713
 1129SOL    HW3 4289   1.137   3.614   2.373 -1.4049 -1.6002 -0.2209
 1129SOL    MW4 4290   1.074   3.636   2.429  0.6099 -0.2945  0.5126
 1130SOL     OW 4291   2.449   2.407   0.672  0.4053 -0.4693  0.1689
 1130SOL    HW2 4292   2.459   2.343   0.602  0.3855  0.6499 -0.8818
 1130SOL    HW3 4293   2.358   2.436   0.666  0.2074 -0.8328  1.0993
 1130SOL    MW4 4294   2.438   2.402   0.662 -0.6929 -0.7721  0.4000
 1131SOL     OW 4295   0.288   4.429   5.658  0.2462 -0.2508  0.0683
 1131SOL    HW2 4296   0.267   4.520   5.638  0.4746 -0.1389  0.3311
 1131SOL    HW3 4297   0.345   4.401   5.587 -1.0483 -0.6585 -0.8351
 1131SOL    MW4 4298   0.293   4.438   5.646 -0.3549  0.1665 -0.0257
 1132SOL     OW 4299   6.102   5.862   1.025  0.3150  0.1112  0.4127
 1132SOL    HW2 4300   6.193   5.882   1.044  0.1627  2.9660 -1.3049
 1132SOL    HW3 4301   6.105   5.794   0.958  1.2441  1.1368 -0.6064
 1132SOL    MW4 4302   6.114   5.856   1.019  0.5803  0.5307  0.4635
 1133SOL     OW 4303   5.723   1.481   5.945  0.3565 -0.5334 -0.5600
 1133SOL    HW2 4304   5.641   1.524   5.970  0.3014 -0.9493 -0.0206
 1133SOL    HW3 4305   5.710   1.457   5.853  0.0210 -0.2595 -0.5865
 1133SOL    MW4 4306   5.710   1.483   5.936  0.4063  0.4769  0.3563
 1134SOL     OW 4307   0.537   1.722   4.752 -0.3387 -0.8675 -0.0716
 1134SOL    HW2 4308   0.453   1.678   4.738 -0.7765  0.4684 -2.0161
 1134SOL    HW3 4309   0.591   1.698   4.677 -0.5468  1.6771 -1.1447
 1134SOL    MW4 4310   0.533   1.713   4.740 -0.4156 -0.1126 -0.2456
 1135SOL     OW 4311   4.705   4.193   5.375 -0.2255 -0.1074 -0.0706
 1135SOL    HW2 4312   4.738   4.148   5.453  0.7148  0.0005 -0.3940
 1135SOL    HW3 4313   4.763   4.164   5.304 -1.3663 -0.5898 -0.8407
 1135SOL    MW4 4314   4.717   4.183   5.376 -0.0831 -0.6849 -0.7500
 1136SOL     OW 4315   4.727   0.434   3.224 -0.0299  0.3371  0.2956
 1136SOL    HW2 4316   4.818   0.414   3.204  0.0985 -0.0732  1.2542
 1136SOL    HW3 4317   4.721   0.429   3.319 -1.3775 -1.0758  0.1885
 1136SOL    MW4 4318   4.738   0.431   3.233  0.2838 -0.5990 -0.4155
 1137SOL     OW 4319   4.741   4.226   1.150  0.4638  0.0937 -0.1185
 1137SOL    HW2 4320   4.653   4.241   1.184  0.6729 -1.0033  0.9908
 1137SOL    HW3 4321   4.771   4.312   1.121 -1.7466  0.1498 -2.5069
 1137SOL    MW4 4322   4.734   4.239   1.151 -0.5244 -0.4529 -0.1088
 1138SOL     OW 4323   1.533   4.406   0.956  0.8295 -0.2787  0.1476
 1138SOL    HW2 4324   1.446   4.440   0.976  0.5947 -1.2740  0.8940
 1138SOL    HW3 4325   1.575   4.396   1.041  1.3264 -0.7169 -0.1442
 1138SOL    MW4 4326   1.527   4.409   0.970 -0.4418 -0.2238  0.0686
 1139SOL     OW 4327   5.133   1.341   0.227  0.0826  0.5523  1.0205
 1139SOL    HW2 4328   5.181   1.304   0.301  0.0007 -0.1130  0.7470
 1139SOL    HW3 4329   5.042   1.343   0.257  0.1157  0.7289  1.1112
 1139SOL    MW4 4330   5.127   1.336   0.241  0.1559  0.5259 -0.5365
 1140SOL     OW 4331   5.029   5.788   6.334  0.0593  0.2786 -0.3264
 1140SOL    HW2 4332   4.996   5.715   6.282 -3.4138  1.6576 -0.3106
 1140SOL    HW3 4333   5.030   5.756   6.424 -1.6551  0.2700 -0.2915
 1140SOL    MW4 4334   5.025   5.774   6.339 -0.3084  0.5590 -0.2441
 1141SOL     OW 4335   3.770   4.490   0.525  0.3942  0.0357 -0.3467
 1141SOL    HW2 4336   3.723   4.446   0.596  0.6301  0.7357  0.2521
 1141SOL    HW3 4337   3.773   4.425   0.455  0.0881 -0.6393  0.2508
 1141SOL    MW4 4338   3.764   4.475   0.525 -0.2576 -0.6104  0.2624
 1142SOL     OW 4339   0.420   2.250   0.951  0.0392 -0.0938 -0.0581
 1142SOL    HW2 4340   0.367   2.277   1.027  0.0692 -0.2383  0.0145
 1142SOL    HW3 4341   0.510   2.273   0.976  0.0932 -0.4675  0.0983
 1142SOL    MW4 4342   0.425   2.257   0.964 -0.0361  0.0953  0.0830
 1143SOL     OW 4343   2.364   5.657   5.689 -0.5499 -0.1629 -0.3156
 1143SOL    HW2 4344   2.307   5.659   5.612 -1.2830  1.5486  0.2406
 1143SOL    HW3 4345   2.305   5.665   5.764  0.3690  1.8659  0.2593
 1143SOL    MW4 4346   2.349   5.658   5.688  0.4254 -0.2561  0.0025
 1144SOL     OW 4347   3.091   1.730   4.498  0.1894 -0.1197 -0.0667
 1144SOL    HW2 4348   3.108   1.787   4.423 -1.1638  1.6373  0.8749
 1144SOL    HW3 4349   2.999   1.704   4.489  0.1146 -0.1880  0.7791
 1144SOL    MW4 4350   3.081   1.734   4.487  0.0866  0.0222 -0.1700
 1145SOL     OW 4351   4.278   3.122   4.713  0.0583 -0.4780  0.3142
 1145SOL    HW2 4352   4.311   3.099   4.800  0.9279 -0.4729 -0.0060
 1145SOL    HW3 4353   4.315   3.055   4.655 -0.2720 -0.3072 -0.0956
 1145SOL    MW4 4354   4.287   3.110   4.717 -0.4188 -0.1110 -0.3030
 1146SOL     OW 4355   5.774   5.025   1.629 -0.0334 -0.3611  0.4884
 1146SOL    HW2 4356   5.728   4.954   1.673 -0.9859  1.4757  2.6893
 1146SOL    HW3 4357   5.775   5.096   1.694 -0.6977  2.2483 -2.1482
 1146SOL    MW4 4358   5.768   5.025   1.644  0.0236  0.2572 -0.1270
 1147SOL     OW 4359   6.374   5.838   3.914 -0.2874  0.5894 -0.7204
 1147SOL    HW2 4360   6.421   5.796   3.986 -2.0960  0.9898  0.7988
 1147SOL    HW3 4361   6.309   5.773   3.887 -1.0387  1.2246 -0.4880
 1147SOL    MW4 4362   6.371   5.824   3.920  0.0166  0.0735 -0.5428
 1148SOL     OW 4363   4.341   6.235   2.766  0.6080  0.1822  1.0683
 1148SOL    HW2 4364   4.266   6.243   2.826 -0.6858  2.2697 -0.6737
 1148SOL    HW3 4365   4.308   6.181   2.695 -0.0074  2.5725 -0.6030
 1148SOL    MW4 4366   4.326   6.229   2.765  0.5041  0.5494  0.6192
 1149SOL     OW 4367   5.569   1.522   2.663 -0.2057  0.1806 -0.4110
 1149SOL    HW2 4368   5.585   1.607   2.623 -0.6262  0.1700 -0.5992
 1149SOL    HW3 4369   5.506   1.539   2.733  0.5615  0.2101  0.3050
 1149SOL    MW4 4370   5.563   1.535   2.667 -0.2190  0.0402 -0.5732
 1150SOL     OW 4371   2.910   2.859   3.741 -0.5787  0.5264 -0.4818
 1150SOL    HW2 4372   3.004   2.870   3.736 -0.7196  1.4401 -1.7250
 1150SOL    HW3 4373   2.896   2.764   3.737  0.2670  0.3940 -0.3697
 1150SOL    MW4 4374   2.920   2.848   3.740 -0.1663  0.3216 -0.4433
 1151SOL     OW 4375   2.803   3.564   2.112  0.4274  0.5782  0.1066
 1151SOL    HW2 4376   2.809   3.470   2.131 -0.5666  0.3127 -0.7766
 1151SOL    HW3 4377   2.794   3.605   2.198 -0.2053 -0.2303  0.4438
 1151SOL    MW4 4378   2.803   3.557   2.126  0.3482 -0.1362 -0.5115
 1152SOL     OW 4379   6.394   5.940   4.794  0.3464 -0.1654 -0.2708
 1152SOL    HW2 4380   6.434   5.910   4.712  0.1920  0.7496 -0.6850
 1152SOL    HW3 4381   6.312   5.982   4.768 -0.3948 -1.0960  0.4854
 1152SOL    MW4 4382   6.389   5.941   4.780  0.4199  0.2493 -0.6263
 1153SOL     OW 4383   4.834   3.175   0.351  0.3372 -0.3057  0.0430
 1153SOL    HW2 4384   4.760   3.119   0.328  0.4638 -0.9559  1.1388
 1153SOL    HW3 4385   4.847   3.161   0.445  1.5093  0.2034 -0.0191
 1153SOL    MW4 4386   4.826   3.166   0.360 -0.0898 -0.3856 -0.1530
 1154SOL     OW 4387   4.764   3.174   3.272 -0.2491 -0.2645 -0.0879
 1154SOL    HW2 4388   4.836   3.129   3.227 -0.2477  0.2396 -0.5981
 1154SOL    HW3 4389   4.806   3.223   3.342 -0.0979 -0.0240 -0.3434
 1154SOL    MW4 4390   4.779   3.174   3.275 -0.8285 -0.0612 -0.4154
 1155SOL     OW 4391   4.619   3.523   3.707 -0.4351  0.6135 -0.3437
 1155SOL    HW2 4392   4.568   3.516   3.627 -0.3205 -0.9293 -0.3196
 1155SOL    HW3 4393   4.557   3.502   3.777 -0.1777  0.4316 -0.1665
 1155SOL    MW4 4394   4.604   3.519   3.706  0.0819 -0.2191 -0.0022
 1156SOL     OW 4395   4.184   6.111   4.743 -0.0176 -0.2150  0.0440
 1156SOL    HW2 4396   4.204   6.019   4.759 -0.5403 -0.8999 -2.7126
 1156SOL    HW3 4397   4.254   6.141   4.685 -0.2022  0.9618  0.4019
 1156SOL    MW4 4398   4.196   6.103   4.737 -0.4963 -0.0429  0.3936
 1157SOL     OW 4399   0.385   3.342   0.214 -0.5209  0.1664  0.5417
 1157SOL    HW2 4400   0.371   3.275   0.147 -0.8756  1.2021 -0.4655
 1157SOL    HW3 4401   0.398   3.423   0.164 -0.4374  0.9114  1.7278
 1157SOL    MW4 4402   0.385   3.344   0.198 -0.4398  0.1603 -0.2987
 1158SOL     OW 4403   5.883   0.564   0.371  0.0920 -0.0073 -0.3709
 1158SOL    HW2 4404   5.973   0.596   0.382  0.6178 -1.4233 -0.2628
 1158SOL    HW3 4405   5.894   0.474   0.341 -1.2297 -1.1521  2.2107
 1158SOL    MW4 4406   5.896   0.556   0.369 -0.5595 -0.2980  0.0583
 1159SOL     OW 4407   0.974   3.849   1.960  0.3242  0.9144 -0.3574
 1159SOL    HW2 4408   0.899   3.800   1.927  1.0469 -0.2574 -0.2970
 1159SOL    HW3 4409   0.949   3.941   1.948 -0.7538  0.5425 -1.1500
 1159SOL    MW4 4410   0.961   3.855   1.954  0.4528 -0.4316 -0.0268
 1160SOL     OW 4411   4.963   5.329   3.764  0.0460 -0.5407  0.7371
 1160SOL    HW2 4412   4.899   5.378   3.713  0.8873 -0.5010 -0.3117
 1160SOL    HW3 4413   5.031   5.393   3.785 -0.2615 -0.5697  1.8833
 1160SOL    MW4 4414   4.964   5.344   3.760  0.1844 -0.0001 -0.2162
 1161SOL     OW 4415   5.975   3.159   0.984  0.3057 -0.2775  0.5189
 1161SOL    HW2 4416   6.005   3.188   0.898  2.4292  1.8332  1.8589
 1161SOL    HW3 4417   5.986   3.235   1.040 -0.2087 -1.8251  2.8521
 1161SOL    MW4 4418   5.981   3.173   0.980  0.0518 -0.0978  0.1556
 1162SOL     OW 4419   5.973   0.772   5.241  0.0477 -0.0724  0.3560
 1162SOL    HW2 4420   6.017   0.774   5.156  2.0315 -2.1616  1.2427
 1162SOL    HW3 4421   5.905   0.705   5.231  0.1504 -0.1771  0.3642
 1162SOL    MW4 4422   5.970   0.764   5.228 -0.2883  0.1115 -0.0644
 1163SOL     OW 4423   3.218   4.549   4.102 -0.3637 -0.1376  0.6123
 1163SOL    HW2 4424   3.287   4.531   4.038 -0.1582  0.9587  0.4967
 1163SOL    HW3 4425   3.143   4.576   4.049 -0.0877  1.1052  0.8231
 1163SOL    MW4 4426   3.217   4.551   4.087  0.1219  0.6850 -0.2277
 1164SOL     OW 4427   1.861   6.060   5.692  0.1608 -1.0486  0.5859
 1164SOL    HW2 4428   1.910   6.001   5.749  0.1118 -0.2190  1.5343
 1164SOL    HW3 4429   1.782   6.082   5.742 -0.6533 -1.4986 -0.4576
 1164SOL    MW4 4430   1.857   6.055   5.706  0.5442 -0.3072  0.0231
 1165SOL     OW 4431   0.987   4.650   5.263  0.1473 -0.0660  0.4154
 1165SOL    HW2 4432   1.076   4.678   5.282  0.8202 -2.1127  0.5151
 1165SOL    HW3 4433   0.988   4.555   5.275 -2.5149  0.0166  2.2492
 1165SOL    MW4 4434   0.999   4.641   5.267  0.9488  0.1131  0.2598
 1166SOL     OW 4435   5.681   0.920   0.143 -0.2836  0.0991  0.2950
 1166SOL    HW2 4436   5.683   0.825   0.157 -0.2023 -0.2094 -1.5443
 1166SOL    HW3 4437   5.715   0.932   0.054 -0.0883  1.8837  0.5656
 1166SOL    MW4 4438   5.686   0.909   0.133  0.1716 -0.1785  0.4770
 1167SOL     OW 4439   4.917   5.597   4.437  0.2710 -0.7845 -0.3341
 1167SOL    HW2 4440   4.860   5.600   4.515 -0.4654 -0.3092 -0.8721
 1167SOL    HW3 4441   4.884   5.668   4.382  0.0022 -1.8780 -1.6197
 1167SOL    MW4 4442   4.905   5.607   4.440 -0.5132  0.9003  0.6959
 1168SOL     OW 4443   1.639   4.332   1.542 -0.1944  0.1783  0.5852
 1168SOL    HW2 4444   1.661   4.245   1.507 -1.2367  0.1659 -0.0714
 1168SOL    HW3 4445   1.543   4.332   1.547 -0.2575  1.6281 -0.2993
 1168SOL    MW4 4446   1.629   4.320   1.538 -0.3755 -0.3982  0.1531
 1169SOL     OW 4447   5.052   3.081   6.420  0.0733 -0.2266 -0.0352
 1169SOL    HW2 4448   5.103   3.035   6.352 -0.0399  0.1160 -0.3535
 1169SOL    HW3 4449   4.969   3.101   6.378 -0.6055 -1.3776  0.6905
 1169SOL    MW4 4450   5.048   3.077   6.405 -0.2484  0.3882  0.1274
 1170SOL     OW 4451   0.829   0.438   0.794 -0.0103  0.1265  0.3388
 1170SOL    HW2 4452   0.791   0.495   0.862  0.2180 -2.0014  2.3742
 1170SOL    HW3 4453   0.754   0.394   0.755 -0.0064 -0.4073  0.9112
 1170SOL    MW4 4454   0.814   0.440   0.798  0.3517 -0.8765 -0.0481
 1171SOL     OW 4455   5.692   1.346   2.849 -0.1385  0.0700 -0.0794
 1171SOL    HW2 4456   5.696   1.255   2.821  1.8241 -0.2389  1.0127
 1171SOL    HW3 4457   5.682   1.396   2.768  2.2904 -0.9633 -1.1042
 1171SOL    MW4 4458   5.692   1.341   2.835  0.7490  0.0075  0.6334
 1172SOL     OW 4459   2.477   3.638   4.428  0.1279  0.2996  0.2699
 1172SOL    HW2 4460   2.479   3.553   4.383 -0.0019  0.4812 -0.0876
 1172SOL    HW3 4461   2.479   3.702   4.356  0.6400  0.6019  0.5450
 1172SOL    MW4 4462   2.478   3.635   4.412  0.2692 -0.7827 -0.1141
 1173SOL     OW 4463   3.884   3.727   3.893 -0.0164  0.3883  0.3565
 1173SOL    HW2 4464   3.978   3.746   3.891  0.3871 -1.5072  0.0796
 1173SOL    HW3 4465   3.846   3.787   3.829  1.2089  0.1575 -0.6114
 1173SOL    MW4 4466   3.891   3.738   3.885 -0.7554 -0.3831  0.3589
 1174SOL     OW 4467   3.936   0.171   2.232 -0.1795  0.0515  0.2333
 1174SOL    HW2 4468   3.958   0.261   2.207  2.3470 -0.4573  0.3777
 1174SOL    HW3 4469   4.015   0.138   2.276 -1.1327 -2.1635  0.4154
 1174SOL    MW4 4470   3.949   0.178   2.235  0.1489  0.3324 -0.4814
 1175SOL     OW 4471   5.671   2.094   5.941 -0.1785  0.0148 -0.1255
 1175SOL    HW2 4472   5.706   2.013   5.976  0.0645  0.4356  0.6367
 1175SOL    HW3 4473   5.654   2.148   6.019 -1.3120  0.2964 -0.5492
 1175SOL    MW4 4474   5.673   2.091   5.956 -0.0194  0.0408 -0.0175
 1176SOL     OW 4475   4.066   0.304   6.348 -0.2487 -0.2308 -0.2357
 1176SOL    HW2 4476   4.087   0.379   6.292  2.0844 -1.5831 -1.3640
 1176SOL    HW3 4477   4.152   0.270   6.375 -1.2674 -0.8738  2.5468
 1176SOL    MW4 4478   4.080   0.309   6.344  0.8449 -0.2212 -0.6184
 1177SOL     OW 4479   2.805   5.382   6.066  0.3099  0.1310  0.4510
 1177SOL    HW2 4480   2.863   5.448   6.103 -0.1777  1.6169 -1.2494
 1177SOL    HW3 4481   2.731   5.379   6.127  0.9777  0.0943  1.2833
 1177SOL    MW4 4482   2.803   5.390   6.079  0.1192 -0.0890  0.5520
 1178SOL     OW 4483   5.589   3.718   3.138  0.1691  1.1778 -0.1903
 1178SOL    HW2 4484   5.559   3.681   3.221  1.0862  0.6641 -0.0710
 1178SOL    HW3 4485   5.549   3.661   3.072  0.8252  0.5115 -0.0339
 1178SOL    MW4 4486   5.579   3.705   3.140 -0.2928  0.0764 -0.3579
 1179SOL     OW 4487   0.018   2.799   5.277 -0.2163  0.3497 -0.7959
 1179SOL    HW2 4488   0.113   2.794   5.282 -0.3492 -1.0320  1.6067
 1179SOL    HW3 4489  -0.002   2.891   5.295  0.6045  0.4206 -0.2209
 1179SOL    MW4 4490   0.028   2.810   5.280  0.2122  0.0507 -0.5321
 1180SOL     OW 4491   5.983   4.730   5.079  0.6807  0.0932  0.1049
 1180SOL    HW2 4492   5.901   4.732   5.030  0.5900 -0.8577  0.2011
 1180SOL    HW3 4493   6.050   4.757   5.016  0.3459  0.5320 -0.0668
 1180SOL    MW4 4494   5.981   4.734   5.064  0.1508 -0.0049 -0.4937
 1181SOL     OW 4495   5.800   3.167   5.778 -0.2212 -0.2797 -0.2558
 1181SOL    HW2 4496   5.722   3.221   5.764  0.9508  1.0259 -2.3411
 1181SOL    HW3 4497   5.774   3.079   5.750 -0.5812  0.4443 -2.3876
 1181SOL    MW4 4498   5.786   3.163   5.772  0.1897  0.3265  0.3360
 1182SOL     OW 4499   1.310   1.395   3.609  0.0145 -0.5373 -0.1815
 1182SOL    HW2 4500   1.398   1.391   3.645 -0.1946  0.8132  0.5256
 1182SOL    HW3 4501   1.316   1.346   3.527  1.2573 -0.9926  0.1534
 1182SOL    MW4 4502   1.322   1.388   3.603  0.5019 -0.8327 -0.3926
 1183SOL     OW 4503   0.642   4.520   5.033 -0.3484  0.3657  0.3202
 1183SOL    HW2 4504   0.613   4.513   4.942  0.4563  0.3741  0.0529
 1183SOL    HW3 4505   0.574   4.571   5.077 -0.1610  1.3846 -0.5517
 1183SOL    MW4 4506   0.629   4.526   5.027  0.1952  0.2928 -0.5540
 1184SOL     OW 4507   3.217   2.267   2.898  0.2382 -0.1714  0.6867
 1184SOL    HW2 4508   3.172   2.249   2.980  0.2813  0.2655  0.8102
 1184SOL    HW3 4509   3.162   2.226   2.831  0.0433 -0.2671  0.9019
 1184SOL    MW4 4510   3.204   2.259   2.900 -0.6824  0.2352 -0.2992
 1185SOL     OW 4511   4.424   1.135   0.347  0.3658 -0.1310  0.0360
 1185SOL    HW2 4512   4.480   1.190   0.293 -1.2370  0.4103 -1.1822
 1185SOL    HW3 4513   4.433   1.171   0.435  1.2967  0.4420 -0.2731
 1185SOL    MW4 4514   4.432   1.147   0.351  0.4683  0.0161 -0.1343
 1186SOL     OW 4515   2.551   5.219   3.011  0.2596 -0.0537 -0.6446
 1186SOL    HW2 4516   2.595   5.159   2.950  0.7293 -1.2372  0.8004
 1186SOL    HW3 4517   2.583   5.193   3.097 -1.8163  0.3396  0.2921
 1186SOL    MW4 4518   2.561   5.208   3.014  0.5671  0.1126 -0.0423
 1187SOL     OW 4519   2.598   3.697   0.885  0.0252  0.5662 -0.7110
 1187SOL    HW2 4520   2.684   3.736   0.896 -0.6145  2.2836 -1.5124
 1187SOL    HW3 4521   2.548   3.727   0.961  0.1023 -0.4364 -0.2408
 1187SOL    MW4 4522   2.603   3.706   0.896 -0.0164  0.3631  0.2957
 1188SOL     OW 4523   6.138   4.890   3.034  0.2079  0.0674  0.1970
 1188SOL    HW2 4524   6.130   4.985   3.025 -0.0616  0.0856  0.6288
 1188SOL    HW3 4525   6.055   4.856   3.003  1.4633 -0.2581 -3.1930
 1188SOL    MW4 4526   6.126   4.898   3.029 -0.4379  0.2743 -0.1875
 1189SOL     OW 4527   3.156   4.284   5.767  0.4953  0.7713 -0.2196
 1189SOL    HW2 4528   3.208   4.214   5.805 -0.2519  0.0426 -0.5260
 1189SOL    HW3 4529   3.197   4.364   5.800  2.4806  0.2854 -1.2811
 1189SOL    MW4 4530   3.169   4.286   5.776  0.0925 -0.3258  0.3975
 1190SOL     OW 4531   1.522   5.720   0.204  0.4197 -0.1253  0.0112
 1190SOL    HW2 4532   1.541   5.807   0.170 -1.3902  0.7622  1.0768
 1190SOL    HW3 4533   1.481   5.674   0.131 -4.0144  1.9625  0.8119
 1190SOL    MW4 4534   1.519   5.725   0.190  0.0456 -0.3407  0.3672
 1191SOL     OW 4535   3.837   3.484   5.320  0.6722  0.0404 -0.0250
 1191SOL    HW2 4536   3.924   3.484   5.280  0.3944 -0.0324 -0.6482
 1191SOL    HW3 4537   3.792   3.558   5.280  0.6000  0.3806  0.6614
 1191SOL    MW4 4538   3.842   3.493   5.309 -0.0726  0.1613 -0.2268
 1192SOL     OW 4539   2.936   4.003   2.989  0.7517 -0.4117 -0.7240
 1192SOL    HW2 4540   2.920   4.012   2.895  0.1621  2.3969 -0.4561
 1192SOL    HW3 4541   2.989   4.079   3.012 -0.2472 -0.2619  1.4165
 1192SOL    MW4 4542   2.941   4.014   2.980  0.3716  0.2983  0.0306
 1193SOL     OW 4543   1.929   5.252   6.404 -0.4110  0.4304 -0.1423
 1193SOL    HW2 4544   1.991   5.283   6.469 -0.3501  0.3713 -0.1712
 1193SOL    HW3 4545   1.873   5.327   6.385 -0.2384  0.5336 -0.2438
 1193SOL    MW4 4546   1.930   5.266   6.410  0.4323  0.5201 -0.4702
 1194SOL     OW 4547   4.591   5.832   5.843  0.0040  0.3691 -0.2263
 1194SOL    HW2 4548   4.653   5.878   5.900  0.3314  0.6041 -0.7577
 1194SOL    HW3 4549   4.602   5.740   5.865 -0.2644  0.4998  0.4682
 1194SOL    MW4 4550   4.601   5.826   5.853  0.8008  0.2737  0.5514
 1195SOL     OW 4551   1.324   4.005   0.939  0.0425 -0.0302 -0.3369
 1195SOL    HW2 4552   1.400   4.036   0.988 -0.4346  0.1660  0.2853
 1195SOL    HW3 4553   1.358   3.937   0.881  0.5653 -0.4414  0.4502
 1195SOL    MW4 4554   1.338   4.000   0.938 -0.1296  0.2866  0.6311
 1196SOL     OW 4555   3.630   1.158   5.280 -0.1290 -0.6504 -0.4642
 1196SOL    HW2 4556   3.699   1.125   5.223  1.2202  0.4835  0.4410
 1196SOL    HW3 4557   3.673   1.169   5.365 -0.9110  1.7584 -0.2992
 1196SOL    MW4 4558   3.645   1.155   5.284  0.3177 -0.0979  0.1731
 1197SOL     OW 4559   1.867   0.576   3.180  0.2604 -0.0799 -0.4041
 1197SOL    HW2 4560   1.858   0.514   3.252 -0.1389 -0.6880 -0.9613
 1197SOL    HW3 4561   1.884   0.520   3.103 -3.5235  0.1580 -1.5881
 1197SOL    MW4 4562   1.868   0.560   3.179  0.1364 -0.7291  0.4465
 1198SOL     OW 4563   0.102   6.045   5.765 -0.2000  0.0167  0.0835
 1198SOL    HW2 4564   0.062   6.105   5.702  0.4021 -0.3156 -0.6211
 1198SOL    HW3 4565   0.113   5.963   5.717  1.7110  0.2098  0.1069
 1198SOL    MW4 4566   0.098   6.042   5.750 -0.0634 -0.4548  0.6465
 1199SOL     OW 4567   4.489   4.557   5.278  0.4040 -0.1909  0.6806
 1199SOL    HW2 4568   4.572   4.537   5.322  0.5173  0.3050  0.6975
 1199SOL    HW3 4569   4.487   4.653   5.273  0.0254 -0.2170  0.3082
 1199SOL    MW4 4570   4.500   4.567   5.283 -0.8025 -0.0025  0.2600
 1200SOL     OW 4571   1.556   1.150   5.685  0.3057  0.0119 -0.7867
 1200SOL    HW2 4572   1.558   1.245   5.695  0.7249 -0.2273  2.8499
 1200SOL    HW3 4573   1.647   1.123   5.695  0.0566 -0.8483 -0.7385
 1200SOL    MW4 4574   1.568   1.159   5.688 -0.2580 -0.4329  0.3630
 1201SOL     OW 4575   2.975   4.688   4.046 -0.1511 -0.2998  0.0016
 1201SOL    HW2 4576   2.930   4.672   4.128  1.5171  1.3143  1.3114
 1201SOL    HW3 4577   2.908   4.725   3.988 -1.6042 -2.4540  0.2093
 1201SOL    MW4 4578   2.960   4.691   4.049  0.3477 -0.1054  0.9436
 1202SOL     OW 4579   3.783   4.670   5.664 -0.3695 -0.0762  0.1413
 1202SOL    HW2 4580   3.699   4.702   5.696 -0.4193  0.2189 -0.2755
 1202SOL    HW3 4581   3.769   4.652   5.571  0.0463  0.0571  0.0466
 1202SOL    MW4 4582   3.770   4.672   5.656  0.1313 -0.2307 -0.2382
 1203SOL     OW 4583   4.601   4.701   3.561 -0.9002  0.0977  0.5890
 1203SOL    HW2 4584   4.563   4.752   3.632 -1.0955  0.1380  0.4602
 1203SOL    HW3 4585   4.525   4.674   3.509 -0.6675  1.3913 -0.4920
 1203SOL    MW4 4586   4.586   4.704   3.563  0.1906  0.2169 -0.3613
 1204SOL     OW 4587   0.001   3.238   1.432 -0.3887 -0.5067  0.1700
 1204SOL    HW2 4588  -0.011   3.144   1.421  0.5223 -0.4885 -1.1781
 1204SOL    HW3 4589   0.021   3.270   1.345 -0.0914  0.8521  0.7133
 1204SOL    MW4 4590   0.002   3.230   1.419  0.1048  0.3883 -0.2490
 1205SOL     OW 4591   1.832   4.216   6.302 -0.5050  0.7803 -0.6290
 1205SOL    HW2 4592   1.884   4.281   6.254 -0.5226  1.5048  0.2921
 1205SOL    HW3 4593   1.741   4.241   6.286 -0.5118  0.9882 -0.2653
 1205SOL    MW4 4594   1.827   4.228   6.294  0.3435 -0.3615 -0.4860
 1206SOL     OW 4595   0.156   0.454   3.340  0.1307  0.1545  0.7846
 1206SOL    HW2 4596   0.130   0.466   3.248 -0.8881 -2.5095  0.6416
 1206SOL    HW3 4597   0.076   0.426   3.384  0.0570  3.4002  3.0535
 1206SOL    MW4 4598   0.142   0.452   3.334  0.1484 -0.1439 -0.9536
 1207SOL     OW 4599   4.592   6.411   0.358 -0.0639 -0.1502  0.2275
 1207SOL    HW2 4600   4.657   6.476   0.384 -0.0254 -0.3358  0.6089
 1207SOL    HW3 4601   4.531   6.408   0.432 -0.6984  0.2709 -0.2668
 1207SOL    MW4 4602   4.592   6.419   0.371  0.2586  0.2012  0.2410
 1208SOL     OW 4603   5.160   0.686   0.479  0.0431  0.2739 -0.9311
 1208SOL    HW2 4604   5.188   0.632   0.553 -0.0620  0.1786 -0.9615
 1208SOL    HW3 4605   5.237   0.688   0.421 -0.0300 -0.0322 -1.0394
 1208SOL    MW4 4606   5.174   0.680   0.481 -0.0187  0.2121 -0.2059
 1209SOL     OW 4607   0.274   0.309   2.704 -0.1439 -0.1660  0.2067
 1209SOL    HW2 4608   0.333   0.339   2.634 -2.8420  0.2809 -2.0711
 1209SOL    HW3 4609   0.287   0.372   2.775  0.0879  1.6649 -1.3654
 1209SOL    MW4 4610   0.283   0.322   2.704  0.5043 -0.2333 -0.1795
 1210SOL     OW 4611   5.565   2.862   1.338 -0.6162 -0.2324 -0.2715
 1210SOL    HW2 4612   5.623   2.835   1.267 -0.7738 -0.5189 -0.2935
 1210SOL    HW3 4613   5.515   2.935   1.302 -1.8415 -1.3847 -1.0236
 1210SOL    MW4 4614   5.566   2.868   1.324  0.2117 -0.2414 -0.0427
 1211SOL     OW 4615   3.604   5.076   1.205 -0.3362  0.2632  0.8882
 1211SOL    HW2 4616   3.518   5.044   1.233 -1.0196  1.1754 -0.0701
 1211SOL    HW3 4617   3.652   5.091   1.286 -0.2381 -2.4051  1.4040
 1211SOL    MW4 4618   3.599   5.074   1.219 -0.3975 -0.3082  0.0373
 1212SOL     OW 4619   5.253   5.120   3.671  0.2072 -0.1551  0.3507
 1212SOL    HW2 4620   5.235   5.026   3.672 -1.1762 -0.0262 -2.2247
 1212SOL    HW3 4621   5.212   5.154   3.750 -0.7521 -1.5227  0.4704
 1212SOL    MW4 4622   5.245   5.112   3.681  0.5411  0.2697  0.3492
 1213SOL     OW 4623   0.233   2.363   2.869  0.1110  0.1829  0.4813
 1213SOL    HW2 4624   0.169   2.386   2.802  0.9576 -0.1340 -0.4408
 1213SOL    HW3 4625   0.181   2.352   2.949 -0.8650  0.8302 -0.0540
 1213SOL    MW4 4626   0.218   2.365   2.871 -0.0883  0.6706  0.3013
 1214SOL     OW 4627   3.265   3.462   4.255 -0.4378 -0.3471  0.3983
 1214SOL    HW2 4628   3.214   3.452   4.335 -1.3821 -1.2144 -0.2938
 1214SOL    HW3 4629   3.201   3.456   4.184  0.4736 -0.3225 -0.4509
 1214SOL    MW4 4630   3.250   3.460   4.256 -0.0301  0.5128  0.6314
 1215SOL     OW 4631   3.397   2.414   3.730 -0.2044 -0.0928  0.1204
 1215SOL    HW2 4632   3.475   2.422   3.675 -1.0186  1.7796 -0.8525
 1215SOL    HW3 4633   3.430   2.421   3.819  0.9293 -1.3578 -0.1571
 1215SOL    MW4 4634   3.411   2.416   3.734 -0.4394  0.2879 -0.8572
 1216SOL     OW 4635   5.218   0.671   4.222  0.0327 -0.0664  0.2781
 1216SOL    HW2 4636   5.284   0.726   4.179  0.6728 -1.5270 -0.7051
 1216SOL    HW3 4637   5.153   0.733   4.256 -0.3062  1.2384 -2.4482
 1216SOL    MW4 4638   5.218   0.686   4.220 -0.0712 -0.5150  0.1383
 1217SOL     OW 4639   0.451   4.289   3.776  0.4001  0.4144  0.1361
 1217SOL    HW2 4640   0.378   4.305   3.717  0.1346 -0.4650  0.2105
 1217SOL    HW3 4641   0.527   4.279   3.719  0.9839  3.6631  0.1370
 1217SOL    MW4 4642   0.452   4.290   3.761  0.3199  0.0290  0.5185
 1218SOL     OW 4643   5.498   5.498   5.177  0.2595  0.0792 -0.3292
 1218SOL    HW2 4644   5.520   5.422   5.122  0.0953  0.5792 -1.0994
 1218SOL    HW3 4645   5.545   5.571   5.137  0.8508  0.2926  0.7325
 1218SOL    MW4 4646   5.507   5.498   5.165 -0.3256  0.2227 -0.2312
 1219SOL     OW 4647   4.387   4.407   2.608 -0.6130 -0.1869 -0.4273
 1219SOL    HW2 4648   4.410   4.499   2.614  1.3049 -0.6139 -0.3977
 1219SOL    HW3 4649   4.337   4.399   2.527 -1.2623  0.9393 -0.1520
 1219SOL    MW4 4650   4.383   4.418   2.598 -0.0698 -0.1705 -0.0236
 1220SOL     OW 4651   3.033   3.542   5.293 -0.0095  0.2381  0.1350
 1220SOL    HW2 4652   3.018   3.496   5.210  0.8319  1.4549 -0.7219
 1220SOL    HW3 4653   2.954   3.594   5.306 -0.3109 -0.2549  0.3154
 1220SOL    MW4 4654   3.020   3.542   5.284 -0.0015  0.5123  0.0814
 1221SOL     OW 4655   3.590   0.159   6.165 -0.1605  0.2115 -0.2005
 1221SOL    HW2 4656   3.500   0.133   6.144 -0.6535  0.1608  1.7736
 1221SOL    HW3 4657   3.637   0.077   6.178 -0.0790  0.2480 -0.2646
 1221SOL    MW4 4658   3.584   0.145   6.164  0.1467  0.2295  0.4089
 1222SOL     OW 4659   4.332   6.233   4.503  0.3957  0.0046 -0.2378
 1222SOL    HW2 4660   4.288   6.288   4.439  0.6359 -0.1755 -0.5604
 1222SOL    HW3 4661   4.424   6.261   4.499  0.3943  0.0579  0.0942
 1222SOL    MW4 4662   4.338   6.244   4.494 -0.2733 -0.1986 -0.3303
 1223SOL     OW 4663   2.832   1.304   3.290  0.3601 -0.1498  0.3847
 1223SOL    HW2 4664   2.846   1.232   3.229 -0.6775  0.1005 -0.1788
 1223SOL    HW3 4665   2.819   1.262   3.374  1.3904 -0.5211  0.3767
 1223SOL    MW4 4666   2.832   1.289   3.293 -0.3765  0.6993 -0.2837
 1224SOL     OW 4667   3.772   4.038   0.700  0.0346  0.6199 -0.4484
 1224SOL    HW2 4668   3.856   4.085   0.701 -0.0205  0.8958 -2.7026
 1224SOL    HW3 4669   3.721   4.078   0.770  1.0864  1.8127 -0.3243
 1224SOL    MW4 4670   3.777   4.050   0.709  0.6391  0.2854 -0.0622
 1225SOL     OW 4671   2.481   0.489   2.681 -0.2792 -0.2522 -0.0153
 1225SOL    HW2 4672   2.520   0.573   2.706 -0.9096  0.1505 -0.3594
 1225SOL    HW3 4673   2.460   0.447   2.765  1.2192 -0.6604  0.1966
 1225SOL    MW4 4674   2.483   0.495   2.696  0.0468  0.3881 -0.1717
 1226SOL     OW 4675   4.303   3.615   0.006 -0.6272  0.1327  0.1619
 1226SOL    HW2 4676   4.372   3.635   0.069  1.4274  1.6690 -2.3895
 1226SOL    HW3 4677   4.233   3.677   0.026  1.3162  2.8540 -0.9399
 1226SOL    MW4 4678   4.303   3.626   0.017 -0.3275 -0.2201  0.1719
 1227SOL     OW 4679   1.994   5.578   0.052  0.8654  0.0917 -0.2850
 1227SOL    HW2 4680   1.961   5.599  -0.035  2.8835  1.7078 -0.7279
 1227SOL    HW3 4681   1.941   5.631   0.111 -0.3136 -0.7901 -0.4958
 1227SOL    MW4 4682   1.982   5.588   0.048  0.1342  0.2381 -0.3848
 1228SOL     OW 4683   4.139   3.765   2.061 -0.4160 -0.1183  0.0206
 1228SOL    HW2 4684   4.208   3.775   2.126 -2.9089  1.6337  2.6068
 1228SOL    HW3 4685   4.142   3.672   2.036  1.9964 -0.3436  0.9628
 1228SOL    MW4 4686   4.148   3.754   2.066 -0.4377 -0.1118  0.0892
 1229SOL     OW 4687   1.287   1.983   3.561 -0.4454  0.0399  0.3505
 1229SOL    HW2 4688   1.276   1.895   3.597 -2.2566 -0.3750 -1.0643
 1229SOL    HW3 4689   1.275   2.041   3.637 -2.5911 -0.8472  0.7680
 1229SOL    MW4 4690   1.284   1.979   3.576 -0.0866 -0.1410  0.1555
 1230SOL     OW 4691   0.998   6.147   3.425  0.0656  0.5795  0.3071
 1230SOL    HW2 4692   1.006   6.159   3.330 -1.5560  0.0313  0.0808
 1230SOL    HW3 4693   1.020   6.233   3.462 -1.4269  1.4274 -0.6985
 1230SOL    MW4 4694   1.002   6.160   3.417 -0.7052  0.2471  0.4564
 1231SOL     OW 4695   4.286   5.207   0.268 -0.7128  0.4031  0.2606
 1231SOL    HW2 4696   4.308   5.262   0.193  0.5034  1.2183  1.1851
 1231SOL    HW3 4697   4.238   5.133   0.230  3.2613 -1.3602 -1.9298
 1231SOL    MW4 4698   4.282   5.204   0.253 -0.3632 -0.3672  0.0292
 1232SOL     OW 4699   1.953   1.968   1.670 -0.3763 -0.3797 -0.8360
 1232SOL    HW2 4700   1.940   1.919   1.751  0.1172  1.4446  0.4073
 1232SOL    HW3 4701   1.870   2.016   1.658 -0.1511 -0.0067 -0.9316
 1232SOL    MW4 4702   1.940   1.968   1.679  0.8605  0.2044 -0.1502
 1233SOL     OW 4703   4.888   4.628   4.542 -0.4371 -0.8440 -0.8644
 1233SOL    HW2 4704   4.890   4.674   4.626  0.5012 -0.9128 -0.8387
 1233SOL    HW3 4705   4.935   4.546   4.558 -1.3538 -1.4473 -1.1371
 1233SOL    MW4 4706   4.894   4.623   4.555  0.0484  0.2059 -0.1445
 1234SOL     OW 4707   5.394   3.757   1.831  0.1621 -0.4192  1.0688
 1234SOL    HW2 4708   5.464   3.691   1.836  0.6258 -0.0263  0.0129
 1234SOL    HW3 4709   5.322   3.712   1.786  0.2221 -0.4135  0.9678
 1234SOL    MW4 4710   5.394   3.742   1.826 -0.2761  0.1465 -0.0980
 1235SOL     OW 4711   3.544   1.009   1.673 -0.0549  0.0832 -0.0027
 1235SOL    HW2 4712   3.601   1.029   1.599 -1.1481 -0.3176 -0.9767
 1235SOL    HW3 4713   3.602   1.011   1.749  0.7158  2.5094 -0.5804
 1235SOL    MW4 4714   3.559   1.012   1.673  0.1223 -0.4868 -0.2986
 1236SOL     OW 4715   4.492   0.679   1.930  0.5243 -1.0578  0.3456
 1236SOL    HW2 4716   4.587   0.675   1.941  0.4858  0.5843  1.7463
 1236SOL    HW3 4717   4.467   0.591   1.903  2.4483 -1.5021 -0.1446
 1236SOL    MW4 4718   4.501   0.667   1.928 -0.5617 -0.2222  0.2599
 1237SOL     OW 4719   0.695   6.238   1.036  0.4914 -0.9325  0.1328
 1237SOL    HW2 4720   0.695   6.333   1.049  0.2835 -1.0268  0.9252
 1237SOL    HW3 4721   0.742   6.204   1.113  2.3295 -1.3628 -1.1290
 1237SOL    MW4 4722   0.701   6.246   1.048  0.2515  0.3436  0.0888
 1238SOL     OW 4723   3.631   3.047   2.975  0.7621 -0.4191  0.6616
 1238SOL    HW2 4724   3.562   3.093   2.927  1.3974  1.0619  1.1154
 1238SOL    HW3 4725   3.636   2.961   2.933 -0.7525 -0.2518  0.0631
 1238SOL    MW4 4726   3.622   3.042   2.963 -0.4862  0.1470 -0.0571
 1239SOL     OW 4727   0.329   5.878   0.197 -0.0329  0.2907  0.2084
 1239SOL    HW2 4728   0.364   5.854   0.111 -0.4230 -0.1115  0.1588
 1239SOL    HW3 4729   0.389   5.837   0.259  0.1182  0.3916  0.1318
 1239SOL    MW4 4730   0.341   5.870   0.194  0.7381  0.6149 -0.0003
 1240SOL     OW 4731   4.964   5.504   6.267  0.2494  0.0426  0.4420
 1240SOL    HW2 4732   5.053   5.469   6.264  0.1782 -0.0866 -2.0846
 1240SOL    HW3 4733   4.908   5.426   6.271  0.1705  0.1267  3.2175
 1240SOL    MW4 4734   4.968   5.489   6.267 -0.1997  0.4320 -0.3060
 1241SOL     OW 4735   6.401   1.417   2.917  0.1437 -0.4954  0.2949
 1241SOL    HW2 4736   6.377   1.460   2.999  1.3336 -0.5725  0.7073
 1241SOL    HW3 4737   6.342   1.454   2.852 -0.4223  0.0047  1.0790
 1241SOL    MW4 4738   6.390   1.427   2.920  0.9215  0.5120  0.1565
 1242SOL     OW 4739   1.806   2.215   1.946  0.0897 -0.1360 -0.0196
 1242SOL    HW2 4740   1.781   2.136   1.995 -0.2481 -1.0783 -1.6617
 1242SOL    HW3 4741   1.742   2.281   1.972 -0.6878 -0.9097  0.0580
 1242SOL    MW4 4742   1.794   2.213   1.956 -0.0344 -0.4084 -0.1134
 1243SOL     OW 4743   5.792   4.689   1.469 -0.6881 -0.6171 -0.0885
 1243SOL    HW2 4744   5.731   4.730   1.530 -1.2123 -1.9313  0.3097
 1243SOL    HW3 4745   5.749   4.608   1.443  0.1918 -0.8015 -1.0563
 1243SOL    MW4 4746   5.778   4.684   1.473  0.7902  0.1159 -0.4603
 1244SOL     OW 4747   3.906   5.852   0.273 -0.2249  0.6267 -0.3393
 1244SOL    HW2 4748   3.948   5.794   0.336  0.9178  0.2523 -1.4171
 1244SOL    HW3 4749   3.813   5.827   0.276 -0.0742  0.1245  0.6480
 1244SOL    MW4 4750   3.899   5.841   0.282  0.6878 -0.3888 -0.2519
 1245SOL     OW 4751   5.702   0.706   1.496  0.8776 -0.5462  0.1347
 1245SOL    HW2 4752   5.737   0.626   1.458  0.7372 -1.7327  2.3719
 1245SOL    HW3 4753   5.629   0.677   1.551  0.4111  1.1925  0.5060
 1245SOL    MW4 4754   5.697   0.692   1.498  0.0558 -0.9523 -0.3343
 1246SOL     OW 4755   6.076   0.423   6.293  0.1635  0.6565  0.3078
 1246SOL    HW2 4756   5.987   0.455   6.308 -0.4131 -0.6417 -0.2027
 1246SOL    HW3 4757   6.133   0.489   6.335 -0.9756  1.9331 -0.0893
 1246SOL    MW4 4758   6.072   0.436   6.301  0.2186 -0.2227  0.0269
 1247SOL     OW 4759   2.976   3.064   0.450 -0.1189 -0.3673  0.2067
 1247SOL    HW2 4760   3.029   3.141   0.431 -0.9003  0.1064 -0.1386
 1247SOL    HW3 4761   2.885   3.094   0.441 -0.4477 -1.2358  0.4240
 1247SOL    MW4 4762   2.971   3.078   0.446 -0.7603 -0.5201  0.3122
 1248SOL     OW 4763   5.730   3.974   2.173  0.3415 -0.0661  0.0498
 1248SOL    HW2 4764   5.800   3.985   2.108 -0.3092 -0.7195 -0.7873
 1248SOL    HW3 4765   5.655   4.021   2.136  0.3775  0.7773  1.0233
 1248SOL    MW4 4766   5.729   3.982   2.159  0.1409 -0.0169  1.0805
 1249SOL     OW 4767   6.193   4.097   1.344  0.2665  0.3965  0.0021
 1249SOL    HW2 4768   6.176   4.175   1.397 -1.6388 -0.5835  0.9621
 1249SOL    HW3 4769   6.110   4.082   1.297  0.6676 -0.9136 -0.3239
 1249SOL    MW4 4770   6.180   4.105   1.345  0.0150 -0.3210  0.0358
 1250SOL     OW 4771   3.927   6.108   0.159  0.0428  0.5135 -0.4510
 1250SOL    HW2 4772   3.863   6.095   0.090  0.1205 -0.4065 -0.3698
 1250SOL    HW3 4773   3.935   6.021   0.200  0.3240  0.9394  0.4150
 1250SOL    MW4 4774   3.919   6.095   0.156  0.4958 -0.0006 -0.4741
 1251SOL     OW 4775   4.566   2.328   5.886  0.1616 -0.5342  0.6573
 1251SOL    HW2 4776   4.558   2.402   5.946  0.7907  0.1826 -0.0980
 1251SOL    HW3 4777   4.660   2.323   5.867 -0.1198  0.0053 -1.1115
 1251SOL    MW4 4778   4.578   2.337   5.891  0.1651  0.6736 -0.4088
 1252SOL     OW 4779   5.256   2.342   4.162  0.0935 -0.3898 -0.4151
 1252SOL    HW2 4780   5.224   2.306   4.245 -1.8280  0.6535 -0.6467
 1252SOL    HW3 4781   5.204   2.421   4.148  2.7247  1.3953 -0.9499
 1252SOL    MW4 4782   5.245   2.347   4.171 -0.1191  0.1737 -0.9152
 1253SOL     OW 4783   1.129   1.368   3.942 -0.5574 -0.2658 -0.6342
 1253SOL    HW2 4784   1.155   1.295   3.999  1.5489 -0.0630 -1.2422
 1253SOL    HW3 4785   1.179   1.354   3.861  0.6785  2.3419 -0.4176
 1253SOL    MW4 4786   1.139   1.357   3.939  0.3713 -0.1001  0.5611
 1254SOL     OW 4787   4.408   2.395   1.227  0.9703  0.1358  0.0726
 1254SOL    HW2 4788   4.405   2.452   1.149  1.4328  0.9637  0.6463
 1254SOL    HW3 4789   4.376   2.311   1.196  1.0420  0.4861 -0.9953
 1254SOL    MW4 4790   4.403   2.392   1.212 -0.4350  0.1633  0.1908
 1255SOL     OW 4791   2.550   5.903   1.731  0.1225 -0.1585  0.0865
 1255SOL    HW2 4792   2.473   5.891   1.786 -0.7116  0.2033 -0.9551
 1255SOL    HW3 4793   2.584   5.989   1.755 -0.9192  0.5105 -0.7417
 1255SOL    MW4 4794   2.544   5.913   1.741 -0.1516 -0.4298 -0.1704
 1256SOL     OW 4795   5.501   4.291   3.005  0.0520 -0.2369  0.5395
 1256SOL    HW2 4796   5.592   4.296   2.976 -0.2717 -0.1575 -0.5187
 1256SOL    HW3 4797   5.486   4.198   3.021  0.2781 -0.2700  0.5507
 1256SOL    MW4 4798   5.511   4.279   3.003  0.2856  0.1234 -0.4446
 1257SOL     OW 4799   3.838   2.312   5.247  0.3672 -0.0628  0.3051
 1257SOL    HW2 4800   3.919   2.288   5.292 -0.4107 -1.0240  1.2456
 1257SOL    HW3 4801   3.807   2.390   5.292  0.0777 -0.4789  0.8336
 1257SOL    MW4 4802   3.844   2.319   5.259 -0.1948  0.6939  0.0457
 1258SOL     OW 4803   1.637   4.335   2.950 -0.9299  0.0458  0.3215
 1258SOL    HW2 4804   1.644   4.254   3.000 -1.4772  0.7045  1.5040
 1258SOL    HW3 4805   1.723   4.346   2.910 -0.6989 -0.8522  0.5581
 1258SOL    MW4 4806   1.649   4.326   2.951  0.0829 -0.2020 -0.8211
 1259SOL     OW 4807   2.525   3.611   0.197  0.0001  0.7134 -0.4540
 1259SOL    HW2 4808   2.470   3.533   0.185  0.8033  0.3362 -2.0730
 1259SOL    HW3 4809   2.472   3.670   0.250 -1.0669 -0.4971 -0.1050
 1259SOL    MW4 4810   2.511   3.608   0.202 -0.0833  0.7368  0.0828
 1260SOL     OW 4811   1.917   3.969   2.483  0.2613  0.5527  0.5157
 1260SOL    HW2 4812   1.881   3.968   2.394  0.4348 -0.5343  0.4467
 1260SOL    HW3 4813   1.841   3.979   2.540  0.1734  1.5203  0.2455
 1260SOL    MW4 4814   1.902   3.970   2.478 -0.1249 -0.6534 -0.3700
 1261SOL     OW 4815   0.394   3.382   1.186  0.1560 -0.1976  0.0277
 1261SOL    HW2 4816   0.455   3.319   1.147  0.4412 -0.3509  0.7070
 1261SOL    HW3 4817   0.373   3.345   1.271 -2.3472 -1.0955 -0.8791
 1261SOL    MW4 4818   0.399   3.369   1.192 -0.0880 -1.1250 -0.0949
 1262SOL     OW 4819   5.570   1.710   4.557  0.3581  0.2945  0.3282
 1262SOL    HW2 4820   5.499   1.687   4.497  0.8368 -0.9960  0.2068
 1262SOL    HW3 4821   5.575   1.635   4.617  0.3359  1.2505  1.5642
 1262SOL    MW4 4822   5.561   1.697   4.557  0.1523  0.3177  0.4662
 1263SOL     OW 4823   0.624   4.704   2.845 -0.6119 -0.0686  0.2266
 1263SOL    HW2 4824   0.605   4.696   2.939 -3.3135  1.7946 -0.0151
 1263SOL    HW3 4825   0.716   4.730   2.841  0.1788 -2.2066  2.1809
 1263SOL    MW4 4826   0.633   4.706   2.857  0.7415 -0.2248 -0.3574
 1264SOL     OW 4827   1.801   4.630   1.488 -0.0492 -0.1256 -0.2551
 1264SOL    HW2 4828   1.771   4.541   1.506 -3.3374  1.0865  1.1140
 1264SOL    HW3 4829   1.815   4.632   1.393 -1.7783 -1.6394 -0.5903
 1264SOL    MW4 4830   1.799   4.618   1.478  0.0613 -0.0366 -0.8088
 1265SOL     OW 4831   5.304   4.098   1.894 -0.7884  0.1149 -0.5093
 1265SOL    HW2 4832   5.367   4.105   1.822 -0.2904  2.2602  0.0869
 1265SOL    HW3 4833   5.358   4.090   1.973 -1.2883  0.3454 -0.1403
 1265SOL    MW4 4834   5.320   4.098   1.895  0.0230 -0.7381 -0.2149
 1266SOL     OW 4835   2.119   1.195   6.266  0.2851 -0.2364  0.1719
 1266SOL    HW2 4836   2.088   1.113   6.226  0.2461 -1.1164  1.9157
 1266SOL    HW3 4837   2.214   1.192   6.254  0.1621  0.1928 -1.0478
 1266SOL    MW4 4838   2.127   1.184   6.259 -0.3654  0.5104  0.5236
 1267SOL     OW 4839   3.657   0.395   0.973  0.3423  0.1437 -0.6332
 1267SOL    HW2 4840   3.715   0.373   0.900 -0.1592  0.5660 -1.1689
 1267SOL    HW3 4841   3.599   0.463   0.938  0.9326  1.2904  0.5567
 1267SOL    MW4 4842   3.657   0.401   0.959  0.1747 -0.2205  0.3259
 1268SOL     OW 4843   1.204   5.113   4.531 -0.1153  0.1909 -0.2674
 1268SOL    HW2 4844   1.294   5.111   4.564 -0.3111 -0.9524  0.2351
 1268SOL    HW3 4845   1.214   5.102   4.436  0.2992  0.6977 -0.2895
 1268SOL    MW4 4846   1.218   5.111   4.523  0.4889  0.6131  0.3516
 1269SOL     OW 4847   0.027   5.007   2.557  0.0716 -0.0378  0.1388
 1269SOL    HW2 4848   0.084   4.963   2.494  1.7845  0.7259  1.1077
 1269SOL    HW3 4849   0.019   4.945   2.630 -2.0514 -0.9946 -0.8189
 1269SOL    MW4 4850   0.033   4.993   2.558 -0.8563 -0.5711 -0.0888
 1270SOL     OW 4851   2.570   5.282   0.481 -0.3288  0.3170  0.8078
 1270SOL    HW2 4852   2.569   5.283   0.577 -0.5545 -1.7390  0.8665
 1270SOL    HW3 4853   2.533   5.367   0.456 -0.6174  0.7426  2.5401
 1270SOL    MW4 4854   2.565   5.294   0.490 -0.7028  0.1563  0.5759
 1271SOL     OW 4855   1.526   2.722   1.252 -0.2464 -0.3739  0.6245
 1271SOL    HW2 4856   1.543   2.633   1.281 -1.3381 -0.6721  0.4020
 1271SOL    HW3 4857   1.434   2.737   1.275 -1.6935 -1.1299 -3.7982
 1271SOL    MW4 4858   1.516   2.712   1.259  0.3059  0.2402  0.7399
 1272SOL     OW 4859   5.021   6.231   5.428  0.3335  0.0478 -0.0752
 1272SOL    HW2 4860   4.947   6.172   5.446  1.0782 -0.9016 -0.0289
 1272SOL    HW3 4861   5.049   6.207   5.339  0.1712  0.8675 -0.3553
 1272SOL    MW4 4862   5.015   6.220   5.419 -0.1631  0.1516  0.0873
 1273SOL     OW 4863   1.355   6.179   2.101 -0.2762 -0.3648 -0.1194
 1273SOL    HW2 4864   1.444   6.194   2.133 -0.6924  1.1790  0.4294
 1273SOL    HW3 4865   1.344   6.084   2.105  0.9780 -0.5060  0.8066
 1273SOL    MW4 4866   1.365   6.169   2.106 -0.2530  0.3593 -0.0042
 1274SOL     OW 4867   0.118   5.711   4.103 -0.5992  0.0048 -0.7380
 1274SOL    HW2 4868   0.173   5.699   4.180  0.1615  0.6387 -1.1637
 1274SOL    HW3 4869   0.142   5.638   4.045  0.2167  0.5787 -1.1493
 1274SOL    MW4 4870   0.129   5.700   4.105 -0.4064 -0.2164  0.6761
 1275SOL     OW 4871   0.202   3.293   2.477  0.2173  0.2291 -0.1190
 1275SOL    HW2 4872   0.224   3.254   2.392 -0.7345 -0.8130  0.0856
 1275SOL    HW3 4873   0.275   3.269   2.534  0.3820  0.0815 -0.3865
 1275SOL    MW4 4874   0.215   3.285   2.473  0.4024 -0.0727  0.6266
 1276SOL     OW 4875   1.309   2.123   5.026  0.4355 -0.4425  0.0737
 1276SOL    HW2 4876   1.228   2.159   5.061  0.9269  1.1389 -0.3025
 1276SOL    HW3 4877   1.283   2.043   4.981 -0.5992 -1.0447  1.6741
 1276SOL    MW4 4878   1.295   2.118   5.024  0.9162  0.0819 -0.3598
 1277SOL     OW 4879   0.277   0.647   5.824 -0.2782  0.5176 -0.1590
 1277SOL    HW2 4880   0.243   0.618   5.739 -2.1415 -1.9929  1.3031
 1277SOL    HW3 4881   0.372   0.648   5.813 -0.2556 -2.9605 -1.4333
 1277SOL    MW4 4882   0.285   0.643   5.812 -0.4455  0.3849  0.2158
 1278SOL     OW 4883   4.231   1.383   4.004  0.6497  0.5868 -0.0520
 1278SOL    HW2 4884   4.222   1.318   3.934  2.7806  0.5033 -0.3263
 1278SOL    HW3 4885   4.151   1.376   4.055 -0.7447  0.2576 -2.1586
 1278SOL    MW4 4886   4.219   1.374   4.001  0.5236 -0.0272 -0.3016
 1279SOL     OW 4887   1.210   5.515   3.722 -0.4151 -0.0762  0.3608
 1279SOL    HW2 4888   1.174   5.585   3.775  1.1081  1.8172 -0.9327
 1279SOL    HW3 4889   1.201   5.546   3.632 -1.4349 -2.4413 -0.4217
 1279SOL    MW4 4890   1.204   5.528   3.717 -0.1410  0.3020 -0.4810
 1280SOL     OW 4891   3.358   4.689   0.784 -0.3143 -0.1598 -0.2323
 1280SOL    HW2 4892   3.301   4.764   0.798  0.2711  0.2439  0.0077
 1280SOL    HW3 4893   3.447   4.723   0.793 -0.0450 -1.2533  1.8171
 1280SOL    MW4 4894   3.362   4.703   0.787 -0.5611 -0.1124 -0.6906
 1281SOL     OW 4895   3.925   3.025   1.589 -0.4831 -0.3987 -0.1885
 1281SOL    HW2 4896   3.835   3.012   1.620 -1.3437  1.0783 -1.8800
 1281SOL    HW3 4897   3.930   2.974   1.508  0.0799 -0.1252 -0.3305
 1281SOL    MW4 4898   3.914   3.016   1.583  0.6463 -0.0235 -0.0407
 1282SOL     OW 4899   0.512   6.225   1.328  0.0635  0.1605 -0.5082
 1282SOL    HW2 4900   0.582   6.260   1.383 -0.6489  0.4012  0.2628
 1282SOL    HW3 4901   0.486   6.299   1.272 -0.3492  0.4123  0.0069
 1282SOL    MW4 4902   0.518   6.240   1.328 -0.1554  1.1466  0.4465
 1283SOL     OW 4903   4.618   1.975   2.548 -0.7248 -0.0273  0.7602
 1283SOL    HW2 4904   4.626   1.981   2.453  1.5386 -0.7023  0.8519
 1283SOL    HW3 4905   4.539   1.922   2.561 -1.3293  0.4436 -0.7121
 1283SOL    MW4 4906   4.609   1.969   2.537  0.8046  0.9133 -0.5614
 1284SOL     OW 4907   5.950   1.580   5.031  0.0145  0.0591  0.0461
 1284SOL    HW2 4908   5.985   1.527   5.102  1.8248  0.7774 -0.2462
 1284SOL    HW3 4909   5.886   1.523   4.988 -0.9023 -0.5027  2.0088
 1284SOL    MW4 4910   5.946   1.565   5.035  0.4816 -0.2347  0.3302
 1285SOL     OW 4911   4.281   6.266   2.301 -0.4035  0.6229  0.2107
 1285SOL    HW2 4912   4.291   6.278   2.207 -0.5483  1.0559  0.2504
 1285SOL    HW3 4913   4.266   6.354   2.335 -0.6215  0.4342  0.6053
 1285SOL    MW4 4914   4.281   6.279   2.293 -0.3269 -0.0344 -0.3005
 1286SOL     OW 4915   5.727   0.376   4.891 -0.4723  0.1706  0.0760
 1286SOL    HW2 4916   5.651   0.375   4.833 -1.9819  1.9766  1.8845
 1286SOL    HW3 4917   5.733   0.286   4.924 -0.5822 -0.4679 -1.5216
 1286SOL    MW4 4918   5.718   0.364   4.887 -0.2076 -0.3429 -0.8303
 1287SOL     OW 4919   0.784   3.296   2.414 -0.1116  0.3529  0.6885
 1287SOL    HW2 4920   0.837   3.336   2.482 -0.9354 -0.2518  1.7208
 1287SOL    HW3 4921   0.701   3.343   2.417  0.3791  1.4292 -1.0480
 1287SOL    MW4 4922   0.780   3.307   2.423 -0.2087  0.1128  0.4715
 1288SOL     OW 4923   4.919   6.282   6.223  0.0515 -0.3450 -0.2950
 1288SOL    HW2 4924   5.006   6.320   6.226 -0.7811  2.0361 -3.0696
 1288SOL    HW3 4925   4.933   6.189   6.245  3.0108  0.2409  0.7201
 1288SOL    MW4 4926   4.932   6.275   6.227 -0.5911 -0.1115 -0.3197
 1289SOL     OW 4927   5.866   5.514   4.779 -0.1151  0.1999 -0.5894
 1289SOL    HW2 4928   5.924   5.465   4.720  0.7318  0.6912 -0.1715
 1289SOL    HW3 4929   5.898   5.604   4.776 -0.5105  0.3727  0.0838
 1289SOL    MW4 4930   5.878   5.519   4.770 -0.3957  0.0775 -0.2951
 1290SOL     OW 4931   5.880   1.341   6.157 -0.3803  0.7261  0.1915
 1290SOL    HW2 4932   5.828   1.332   6.077  0.3414  0.5907 -0.2657
 1290SOL    HW3 4933   5.968   1.314   6.132 -0.1545  0.6400  1.0454
 1290SOL    MW4 4934   5.885   1.336   6.143  0.3879 -0.5575 -0.3004
 1291SOL     OW 4935   2.424   0.357   4.225  0.0564 -0.4434 -0.3557
 1291SOL    HW2 4936   2.516   0.355   4.199  0.0489  0.7991 -0.5496
 1291SOL    HW3 4937   2.424   0.329   4.316  0.5134 -1.3067 -0.6075
 1291SOL    MW4 4938   2.436   0.353   4.234 -0.1348  0.4342  0.0703
 1292SOL     OW 4939   4.474   5.936   4.562  0.2236  0.1868  0.2220
 1292SOL    HW2 4940   4.527   5.868   4.604  0.6417  0.2275 -0.2201
 1292SOL    HW3 4941   4.465   6.005   4.628  0.9238  0.2793  0.2271
 1292SOL    MW4 4942   4.480   5.936   4.576  0.2951 -0.4737 -0.5528
 1293SOL     OW 4943   4.283   3.111   1.080  0.7491 -0.0115 -0.0511
 1293SOL    HW2 4944   4.354   3.175   1.089 -0.6144  1.4369  0.8580
 1293SOL    HW3 4945   4.254   3.120   0.990  1.6378 -0.5473 -0.4020
 1293SOL    MW4 4946   4.289   3.120   1.070  0.1289 -1.1389  0.1299
 1294SOL     OW 4947   2.556   4.128   2.144  0.3113 -0.2811  0.1303
 1294SOL    HW2 4948   2.632   4.178   2.175 -0.4881  0.5104  0.8834
 1294SOL    HW3 4949   2.503   4.115   2.222 -1.4319  1.1496 -0.7391
 1294SOL    MW4 4950   2.559   4.133   2.158  0.0566  0.0771 -0.5223
 1295SOL     OW 4951   3.195   4.575   5.236 -0.1941  0.2812  0.5480
 1295SOL    HW2 4952   3.208   4.610   5.324 -0.1036 -3.3412  2.1485
 1295SOL    HW3 4953   3.268   4.515   5.223 -2.1466 -2.0756 -0.3865
 1295SOL    MW4 4954   3.206   4.571   5.246 -0.2062 -0.1285 -0.2725
 1296SOL     OW 4955   3.115   3.376   6.203  0.6570 -0.4998 -0.2371
 1296SOL    HW2 4956   3.210   3.371   6.190  0.3292  0.1749 -4.1435
 1296SOL    HW3 4957   3.086   3.444   6.143 -2.3023 -0.2173  1.3168
 1296SOL    MW4 4958   3.123   3.384   6.193  0.5162  0.3710  0.0840
 1297SOL     OW 4959   3.363   5.544   1.344  0.3213  0.3050  0.1404
 1297SOL    HW2 4960   3.447   5.578   1.315  0.0741  0.4456 -0.4215
 1297SOL    HW3 4961   3.383   5.493   1.423  0.8385  0.8947  0.4005
 1297SOL    MW4 4962   3.377   5.542   1.351  0.4388 -0.1836 -0.3518
 1298SOL     OW 4963   5.676   3.881   1.550  0.5657 -0.1738 -0.4102
 1298SOL    HW2 4964   5.623   3.804   1.570  0.6209  0.4380  2.7304
 1298SOL    HW3 4965   5.758   3.846   1.516 -0.4465 -1.2999 -1.8047
 1298SOL    MW4 4966   5.680   3.866   1.548  0.0549  0.2841  0.2207
 1299SOL     OW 4967   5.312   4.381   2.507 -0.0369  0.2283  0.0647
 1299SOL    HW2 4968   5.308   4.376   2.602 -2.6003 -2.1040 -0.0611
 1299SOL    HW3 4969   5.321   4.475   2.489 -1.7960  1.0088  2.6117
 1299SOL    MW4 4970   5.312   4.393   2.517 -0.1833  0.4613 -0.2664
 1300SOL     OW 4971   1.842   3.225   4.142 -0.1676 -0.5658  0.2691
 1300SOL    HW2 4972   1.787   3.217   4.220 -1.7968 -1.7745 -0.9416
 1300SOL    HW3 4973   1.910   3.159   4.154 -1.1104 -1.5807  0.1366
 1300SOL    MW4 4974   1.844   3.216   4.154 -0.3043  0.4480 -1.1840
 1301SOL     OW 4975   2.974   4.039   5.954 -0.1536  0.5042 -0.2465
 1301SOL    HW2 4976   2.888   4.001   5.970 -0.6866  0.7729 -2.2022
 1301SOL    HW3 4977   2.963   4.133   5.971  0.7646  0.1365  3.0654
 1301SOL    MW4 4978   2.961   4.046   5.958  0.4147  0.1851 -0.2135
 1302SOL     OW 4979   2.505   3.196   5.509 -0.4537 -0.6655 -0.6719
 1302SOL    HW2 4980   2.460   3.111   5.512 -1.0337 -0.3519 -0.2862
 1302SOL    HW3 4981   2.560   3.197   5.587 -0.7545 -0.5166 -0.4639
 1302SOL    MW4 4982   2.506   3.185   5.520 -0.0583  0.0189  0.2936
 1303SOL     OW 4983   3.781   3.885   3.689 -0.4678  0.3363 -0.6591
 1303SOL    HW2 4984   3.780   3.977   3.715 -0.7288  0.3911 -0.8661
 1303SOL    HW3 4985   3.771   3.886   3.594 -0.6260  0.0887 -0.6472
 1303SOL    MW4 4986   3.780   3.897   3.680  0.3931 -0.0180 -0.0602
 1304SOL     OW 4987   4.878   3.658   3.715 -0.1071 -0.0569  0.0421
 1304SOL    HW2 4988   4.793   3.617   3.701 -1.5065  3.0965 -1.7103
 1304SOL    HW3 4989   4.917   3.664   3.628  1.6375 -0.7794  0.7246
 1304SOL    MW4 4990   4.872   3.654   3.702 -0.2386  0.1206 -0.3476
 1305SOL     OW 4991   1.374   4.704   0.094  0.1319  0.3326  0.4308
 1305SOL    HW2 4992   1.445   4.730   0.153 -1.1125  0.5300  1.8830
 1305SOL    HW3 4993   1.343   4.786   0.056 -0.4328  0.4449  1.1145
 1305SOL    MW4 4994   1.379   4.718   0.097 -0.0144 -0.0774 -0.2991
 1306SOL     OW 4995   2.541   0.367   6.408  0.4708 -0.1629 -0.4452
 1306SOL    HW2 4996   2.602   0.332   6.474 -1.0734  0.9784  1.7214
 1306SOL    HW3 4997   2.591   0.435   6.363  1.7905 -1.4448 -0.9910
 1306SOL    MW4 4998   2.556   0.371   6.411  0.0284 -0.6019 -0.8024
 1307SOL     OW 4999   5.703   5.076   0.116  0.3419  0.0115  0.5599
 1307SOL    HW2 5000   5.667   5.014   0.052 -1.8381  1.8799 -0.1703
 1307SOL    HW3 5001   5.629   5.133   0.137  1.4595  0.5426  3.4888
 1307SOL    MW4 5002   5.688   5.075   0.110 -0.3967 -0.2615  0.1483
 1308SOL     OW 5003   0.876   5.215   1.904  0.0873 -0.1099  0.1359
 1308SOL    HW2 5004   0.861   5.259   1.988  2.7834  1.3723 -0.0620
 1308SOL    HW3 5005   0.938   5.145   1.924 -0.0914 -0.4503 -0.4673
 1308SOL    MW4 5006   0.882   5.211   1.918  1.0393  0.1261  0.2664
 1309SOL     OW 5007   4.188   0.047   1.525 -0.4161 -0.0619 -0.1376
 1309SOL    HW2 5008   4.279   0.051   1.552 -0.4521  0.3213 -0.0754
 1309SOL    HW3 5009   4.141   0.022   1.605 -0.3014 -0.8306 -0.3058
 1309SOL    MW4 5010   4.194   0.044   1.539  0.1865  0.1158 -0.2237
 1310SOL     OW 5011   5.067   2.117   6.292  0.4717 -0.6000  0.1272
 1310SOL    HW2 5012   5.015   2.196   6.304  0.7957 -0.7587  3.4336
 1310SOL    HW3 5013   5.013   2.059   6.238 -0.8017  0.9212 -0.2750
 1310SOL    MW4 5014   5.053   2.120   6.286 -0.0275 -0.0236 -0.0602
 1311SOL     OW 5015   3.170   4.169   5.085 -0.6102  0.1616  0.8385
 1311SOL    HW2 5016   3.166   4.079   5.116  0.5656  0.2165  1.2165
 1311SOL    HW3 5017   3.146   4.222   5.161 -2.2851  0.1626  0.3499
 1311SOL    MW4 5018   3.166   4.164   5.099  0.4182  0.6642 -0.6522
 1312SOL     OW 5019   0.696   3.922   0.806 -0.4044 -0.7293  0.4289
 1312SOL    HW2 5020   0.656   3.842   0.841 -1.1365  0.3929  2.3330
 1312SOL    HW3 5021   0.627   3.962   0.754 -0.2234 -1.0408 -0.0581
 1312SOL    MW4 5022   0.682   3.916   0.804 -0.0000 -0.7091 -0.4779
 1313SOL     OW 5023   3.427   4.655   6.188  0.2633 -0.2684 -0.2389
 1313SOL    HW2 5024   3.410   4.684   6.278  1.6354 -2.3636  0.7974
 1313SOL    HW3 5025   3.458   4.565   6.198 -1.8448 -1.4758 -3.0125
 1313SOL    MW4 5026   3.429   4.647   6.201  0.5410  0.2682 -0.0149
 1314SOL     OW 5027   1.385   2.626   3.902 -0.2692  0.3408  0.8017
 1314SOL    HW2 5028   1.443   2.577   3.844  0.6023  0.5930  1.4548
 1314SOL    HW3 5029   1.361   2.703   3.850  0.0205  0.2661  0.5505
 1314SOL    MW4 5030   1.389   2.630   3.887 -0.3050 -0.1201  0.0745
 1315SOL     OW 5031   2.118   0.626   5.584 -0.1233  1.1596 -0.1400
 1315SOL    HW2 5032   2.184   0.679   5.627  0.4033 -0.1306  0.6949
 1315SOL    HW3 5033   2.117   0.544   5.633 -0.9935  0.4347 -1.3115
 1315SOL    MW4 5034   2.126   0.622   5.596 -0.1637  0.1443 -0.0560
 1316SOL     OW 5035   4.847   6.413   3.557 -0.5749 -0.3661 -0.3910
 1316SOL    HW2 5036   4.789   6.482   3.526  0.5981  0.6592 -0.3892
 1316SOL    HW3 5037   4.828   6.405   3.650 -2.6625 -2.0262 -0.8751
 1316SOL    MW4 5038   4.837   6.421   3.565 -0.1998 -0.2716 -0.3750
 1317SOL     OW 5039   6.044   1.475   5.289 -0.5384 -0.0465 -0.0873
 1317SOL    HW2 5040   5.957   1.500   5.321 -0.0683  0.3709  0.9213
 1317SOL    HW3 5041   6.086   1.559   5.266 -0.3783 -0.2359 -0.4883
 1317SOL    MW4 5042   6.038   1.490   5.290 -0.0764  0.1929 -0.0087
 1318SOL     OW 5043   1.631   1.066   2.843 -0.5050 -0.2694  0.6702
 1318SOL    HW2 5044   1.647   1.160   2.850  2.2029 -0.4942 -1.1325
 1318SOL    HW3 5045   1.655   1.031   2.929  1.2943  0.4208  0.4919
 1318SOL    MW4 5046   1.636   1.074   2.855 -0.6436 -0.2139  0.7710
 1319SOL     OW 5047   0.272   5.101   3.160 -0.1824  0.2625  0.1450
 1319SOL    HW2 5048   0.321   5.019   3.172 -0.6763 -0.3553 -1.7885
 1319SOL    HW3 5049   0.204   5.098   3.228  0.8544 -0.1020  1.1854
 1319SOL    MW4 5050   0.269   5.090   3.171  0.1499 -0.5509 -0.0894
 1320SOL     OW 5051   1.268   4.284   4.622 -0.2965  0.2437 -0.8757
 1320SOL    HW2 5052   1.249   4.365   4.669  0.8082 -0.9288  1.8197
 1320SOL    HW3 5053   1.204   4.281   4.551 -1.7571  2.4056  0.2588
 1320SOL    MW4 5054   1.257   4.294   4.619 -0.4286 -0.0020  0.7416
 1321SOL     OW 5055   4.392   2.284   5.654 -0.0571  0.4231  0.2532
 1321SOL    HW2 5056   4.426   2.236   5.578 -0.8854  0.1829  0.0171
 1321SOL    HW3 5057   4.467   2.294   5.712  0.3600 -0.3015 -0.1420
 1321SOL    MW4 5058   4.406   2.279   5.652 -0.0310  0.2357  0.4229
 1322SOL     OW 5059   2.857   1.029   0.533 -0.0957 -0.3806 -0.3958
 1322SOL    HW2 5060   2.818   0.942   0.537  0.3017 -0.6082 -1.3010
 1322SOL    HW3 5061   2.866   1.056   0.625 -1.5640 -0.6799 -0.1339
 1322SOL    MW4 5062   2.853   1.021   0.546  0.0119 -0.6034 -0.0069
 1323SOL     OW 5063   2.565   4.224   5.649 -0.5935  0.1487 -0.5488
 1323SOL    HW2 5064   2.485   4.271   5.671 -1.3159 -0.8291 -1.0392
 1323SOL    HW3 5065   2.536   4.137   5.622  0.7923 -1.1755  1.8688
 1323SOL    MW4 5066   2.551   4.219   5.648 -0.7220 -0.2026 -0.0552
 1324SOL     OW 5067   1.205   4.192   1.959  0.4262 -0.4114  0.2598
 1324SOL    HW2 5068   1.172   4.176   1.871 -1.3263 -1.6468  1.0855
 1324SOL    HW3 5069   1.243   4.109   1.987 -0.0051 -0.3550  1.0544
 1324SOL    MW4 5070   1.205   4.179   1.951  0.6478 -0.2281 -0.0555
 1325SOL     OW 5071   1.861   1.013   3.796  0.4660 -0.0984 -0.4553
 1325SOL    HW2 5072   1.796   0.983   3.733 -0.7910  1.3078  0.1360
 1325SOL    HW3 5073   1.877   1.104   3.772  1.7536 -0.2348 -0.1828
 1325SOL    MW4 5074   1.855   1.021   3.784 -0.0181  0.2417 -0.0741
 1326SOL     OW 5075   4.193   1.830   0.715 -0.8530 -0.1393 -0.7738
 1326SOL    HW2 5076   4.240   1.912   0.731 -0.1964 -0.5470 -0.5727
 1326SOL    HW3 5077   4.258   1.761   0.733 -0.8176 -0.6897 -2.7382
 1326SOL    MW4 5078   4.208   1.831   0.720  0.0400 -0.0463 -0.1300
 1327SOL     OW 5079   2.435   4.915   4.955 -0.1134 -0.4330  0.0725
 1327SOL    HW2 5080   2.509   4.866   4.919  0.8272 -0.6609  2.2028
 1327SOL    HW3 5081   2.445   5.003   4.919  0.8722 -0.6054 -0.0966
 1327SOL    MW4 5082   2.446   4.920   4.945  0.2395  0.1229 -0.3827
 1328SOL     OW 5083   3.395   6.059   1.063  0.4774  0.0772  0.7611
 1328SOL    HW2 5084   3.310   6.059   1.019 -0.1504 -2.4119  1.8114
 1328SOL    HW3 5085   3.379   6.105   1.145  0.2074 -0.2169  0.8731
 1328SOL    MW4 5086   3.382   6.065   1.068  0.3570  0.3539  0.2471
 1329SOL     OW 5087   1.825   2.924   3.827  0.2624  0.5431  0.2565
 1329SOL    HW2 5088   1.857   2.843   3.868  1.4747  0.6967 -0.3779
 1329SOL    HW3 5089   1.742   2.941   3.872  0.1420 -0.8774  0.6250
 1329SOL    MW4 5090   1.818   2.915   3.838  0.6596  0.2146 -0.2643
 1330SOL     OW 5091   0.334   1.365   3.423  0.1366 -0.0561  0.2227
 1330SOL    HW2 5092   0.295   1.289   3.380 -0.4516  0.5436 -0.3259
 1330SOL    HW3 5093   0.428   1.350   3.416  0.0331 -0.4477 -0.4034
 1330SOL    MW4 5094   0.341   1.353   3.416 -0.5681  0.0145 -0.0812
 1331SOL     OW 5095   6.093   5.619   3.831  0.2254 -0.4128 -0.0234
 1331SOL    HW2 5096   6.083   5.680   3.758  1.7290  0.6781  0.6271
 1331SOL    HW3 5097   6.186   5.599   3.833  0.3968  0.3288  2.1348
 1331SOL    MW4 5098   6.104   5.625   3.822 -0.1952 -0.5163 -0.3310
 1332SOL     OW 5099   1.301   4.636   1.500 -0.0439 -0.1063  0.2321
 1332SOL    HW2 5100   1.346   4.692   1.563 -1.1459 -0.9586  1.8301
 1332SOL    HW3 5101   1.211   4.631   1.532 -0.4494 -1.1919 -0.9945
 1332SOL    MW4 5102   1.295   4.643   1.512  0.3929  0.3852  0.2734
 1333SOL     OW 5103   4.828   3.756   0.216  0.3138 -0.0813 -0.0299
 1333SOL    HW2 5104   4.817   3.722   0.128 -2.8172 -0.7493  0.5215
 1333SOL    HW3 5105   4.842   3.850   0.204  2.9387 -0.5321 -1.2773
 1333SOL    MW4 5106   4.829   3.764   0.203  0.2960  0.0792  0.4177
 1334SOL     OW 5107   2.830   2.408   4.170 -0.0857  0.0016  0.2828
 1334SOL    HW2 5108   2.851   2.341   4.105  0.1710 -0.9456  1.3318
 1334SOL    HW3 5109   2.777   2.363   4.235 -0.8934  1.1037  0.4134
 1334SOL    MW4 5110   2.826   2.394   4.170 -0.1477  0.1699 -0.6649
 1335SOL     OW 5111   4.621   4.621   4.136 -0.2262  0.1638  0.2808
 1335SOL    HW2 5112   4.570   4.542   4.157  1.0494 -0.7567  0.0023
 1335SOL    HW3 5113   4.582   4.690   4.191 -1.2617 -0.6785  0.6452
 1335SOL    MW4 5114   4.609   4.620   4.146  0.2282  0.0488  0.0069
 1336SOL     OW 5115   3.228   3.696   5.423 -0.0567  0.0404 -0.1470
 1336SOL    HW2 5116   3.250   3.642   5.498  1.7783  1.0913  0.1193
 1336SOL    HW3 5117   3.152   3.653   5.384  0.4162 -1.8507  0.9212
 1336SOL    MW4 5118   3.221   3.683   5.427  0.0593 -0.4697  1.1397
 1337SOL     OW 5119   2.868   5.254   2.628 -0.1537 -0.0042 -0.0692
 1337SOL    HW2 5120   2.863   5.180   2.567  1.6766  0.1609 -0.4735
 1337SOL    HW3 5121   2.804   5.317   2.594 -0.6728 -0.7793 -0.5720
 1337SOL    MW4 5122   2.859   5.253   2.616  0.5434  0.2718  1.1863
 1338SOL     OW 5123   3.607   3.920   3.182 -0.1776 -0.5186 -0.0204
 1338SOL    HW2 5124   3.642   3.872   3.107 -1.0627 -1.4250  0.1315
 1338SOL    HW3 5125   3.525   3.876   3.203 -1.4127  1.5047 -0.3301
 1338SOL    MW4 5126   3.601   3.908   3.174  0.3575  0.3789 -0.0447
 1339SOL     OW 5127   0.883   4.754   3.767  0.0368  0.2111  0.4812
 1339SOL    HW2 5128   0.888   4.818   3.696 -0.3958  0.2981  0.5252
 1339SOL    HW3 5129   0.858   4.672   3.725  1.9276 -0.2901  0.2218
 1339SOL    MW4 5130   0.881   4.752   3.752 -0.1747 -0.5453  0.2758
 1340SOL     OW 5131   5.570   5.899   4.199  0.4098 -0.1834 -0.2476
 1340SOL    HW2 5132   5.638   5.932   4.140  0.5923 -1.1420 -0.5935
 1340SOL    HW3 5133   5.513   5.845   4.143  0.0562 -0.3621  0.2709
 1340SOL    MW4 5134   5.571   5.896   4.184  0.4172 -0.0134  0.5756
 1341SOL     OW 5135   2.496   1.002   2.903 -0.4627  0.0628 -0.1365
 1341SOL    HW2 5136   2.428   1.070   2.904 -1.6680 -1.0884  0.1103
 1341SOL    HW3 5137   2.546   1.019   2.823 -0.3337  1.6087  0.2619
 1341SOL    MW4 5138   2.493   1.013   2.893  0.1151 -0.0235 -0.2593
 1342SOL     OW 5139   2.728   5.060   4.857  0.3589 -0.0257 -0.7446
 1342SOL    HW2 5140   2.729   5.051   4.762 -0.0294  0.4650 -0.7980
 1342SOL    HW3 5141   2.787   5.133   4.876  1.1513 -0.6978 -0.5316
 1342SOL    MW4 5142   2.736   5.068   4.847 -0.4038 -0.1946 -0.7237
 1343SOL     OW 5143   5.810   0.036   0.863 -0.3560 -0.4522 -0.1756
 1343SOL    HW2 5144   5.727   0.074   0.892  0.6933  0.6465  1.5463
 1343SOL    HW3 5145   5.877   0.091   0.902  1.2638 -3.0492  0.9815
 1343SOL    MW4 5146   5.808   0.048   0.872 -0.2260  0.4979 -0.5944
 1344SOL     OW 5147   5.920   4.470   2.314 -0.2210  0.0986  0.1631
 1344SOL    HW2 5148   5.962   4.386   2.333 -1.1305 -0.1952  0.9962
 1344SOL    HW3 5149   5.978   4.535   2.354  2.0785  0.2026 -3.0100
 1344SOL    MW4 5150   5.933   4.468   2.322 -0.5822 -0.2192 -0.0205
 1345SOL     OW 5151   1.560   4.440   1.982  0.6062 -0.6273 -0.5924
 1345SOL    HW2 5152   1.475   4.441   1.938  0.2046  0.5608  0.1455
 1345SOL    HW3 5153   1.624   4.429   1.912 -0.0473  0.7733 -1.4386
 1345SOL    MW4 5154   1.557   4.439   1.967 -0.8474 -0.6371  0.6565
 1346SOL     OW 5155   0.651   4.614   5.755  0.1317  0.1210  0.1324
 1346SOL    HW2 5156   0.598   4.552   5.804  0.9658 -1.9853 -1.4796
 1346SOL    HW3 5157   0.587   4.666   5.705 -0.5278 -0.6235  0.1849
 1346SOL    MW4 5158   0.635   4.613   5.755 -0.7728 -0.2503  0.1633
 1347SOL     OW 5159   3.666   2.423   0.069 -0.2742  0.6603  0.9194
 1347SOL    HW2 5160   3.754   2.421   0.032  0.0512  0.1659  1.7099
 1347SOL    HW3 5161   3.679   2.431   0.163 -0.9986 -1.8898  1.3095
 1347SOL    MW4 5162   3.679   2.424   0.076 -0.1607 -0.0037 -0.0277
 1348SOL     OW 5163   5.189   4.146   2.437  0.3127 -0.2544 -0.4605
 1348SOL    HW2 5164   5.231   4.229   2.458  0.8354 -0.8074  0.7670
 1348SOL    HW3 5165   5.217   4.128   2.347  0.2011  0.8824 -0.7325
 1348SOL    MW4 5166   5.199   4.154   2.428 -0.1935  0.0923  0.0962
 1349SOL     OW 5167   6.108   3.305   3.838 -0.1174  0.3786  0.2755
 1349SOL    HW2 5168   6.149   3.324   3.754  0.7831 -0.9431  0.3929
 1349SOL    HW3 5169   6.064   3.386   3.862  0.8380  1.2353 -0.7748
 1349SOL    MW4 5170   6.107   3.318   3.830  0.2235  0.0710  0.7948
 1350SOL     OW 5171   3.739   3.268   4.796 -0.0037 -0.4031 -0.3386
 1350SOL    HW2 5172   3.705   3.191   4.751  0.9780 -1.1093  0.0974
 1350SOL    HW3 5173   3.667   3.297   4.852 -0.8094 -0.2420 -1.4330
 1350SOL    MW4 5174   3.725   3.262   4.798  0.1620 -0.0105  0.4355
 1351SOL     OW 5175   5.169   6.434   5.769 -0.3079 -0.2119 -0.1628
 1351SOL    HW2 5176   5.174   6.339   5.777  0.5450 -0.3058 -1.4162
 1351SOL    HW3 5177   5.089   6.450   5.719 -1.2020 -0.1647  1.2567
 1351SOL    MW4 5178   5.159   6.424   5.763  0.4382 -0.3553 -0.7711
 1352SOL     OW 5179   1.462   4.613   1.249 -0.0726 -0.2689 -0.1528
 1352SOL    HW2 5180   1.406   4.590   1.174  0.0590 -1.5540  0.1174
 1352SOL    HW3 5181   1.407   4.599   1.325  0.5457 -1.3760  0.1080
 1352SOL    MW4 5182   1.448   4.608   1.249 -0.0539  0.8432 -0.1992
 1353SOL     OW 5183   0.549   4.111   4.159  0.0218 -0.3137  0.2724
 1353SOL    HW2 5184   0.486   4.170   4.118  0.5308  1.0994  1.4161
 1353SOL    HW3 5185   0.595   4.166   4.223 -0.9597 -2.4501  3.0101
 1353SOL    MW4 5186   0.547   4.126   4.162 -0.6933  0.4376  0.3905
 1354SOL     OW 5187   2.948   0.692   3.896  0.1021  0.4461 -0.0668
 1354SOL    HW2 5188   2.968   0.661   3.808  0.2151 -0.7117  0.3551
 1354SOL    HW3 5189   3.013   0.650   3.952  1.2038  2.5857  0.3760
 1354SOL    MW4 5190   2.959   0.682   3.892  0.1881  0.2314 -0.1406
 1355SOL     OW 5191   1.080   1.742   3.778  0.0169  0.1047  0.1346
 1355SOL    HW2 5192   1.071   1.810   3.845  0.8600 -1.8126  2.3268
 1355SOL    HW3 5193   1.003   1.687   3.789  1.3373 -1.6304  1.3298
 1355SOL    MW4 5194   1.069   1.744   3.789 -1.0442 -0.2131  0.0176
 1356SOL     OW 5195   3.673   2.116   5.896  0.0801  0.0363 -0.2624
 1356SOL    HW2 5196   3.670   2.056   5.971  2.0392 -1.1693 -1.0642
 1356SOL    HW3 5197   3.765   2.121   5.874 -0.1945  2.3013 -1.1291
 1356SOL    MW4 5198   3.684   2.109   5.903  0.1185 -0.6331 -0.7568
 1357SOL     OW 5199   4.080   4.450   5.081  0.1763  0.5161  0.0998
 1357SOL    HW2 5200   4.110   4.427   5.169 -1.3463  0.8436  0.7357
 1357SOL    HW3 5201   4.129   4.529   5.059  0.0242  0.8661  0.9799
 1357SOL    MW4 5202   4.090   4.457   5.089  0.5631  0.1260  0.0768
 1358SOL     OW 5203   4.035   5.425   5.333 -0.6055 -0.5198 -0.3302
 1358SOL    HW2 5204   4.063   5.334   5.321  0.3522 -0.3061  0.1439
 1358SOL    HW3 5205   4.043   5.464   5.246 -0.3364 -0.7150 -0.3963
 1358SOL    MW4 5206   4.040   5.418   5.320  0.0577  0.8018  0.2717
 1359SOL     OW 5207   2.923   6.255   3.411 -0.2016 -0.4472 -0.0629
 1359SOL    HW2 5208   2.972   6.185   3.368  1.1997  0.1046  0.5747
 1359SOL    HW3 5209   2.881   6.212   3.486  1.6835 -0.4333  1.0812
 1359SOL    MW4 5210   2.924   6.240   3.416 -0.1709  0.2378  0.2169
 1360SOL     OW 5211   1.364   0.685   2.800 -0.2939 -0.2178 -0.1993
 1360SOL    HW2 5212   1.326   0.599   2.780 -1.0499  0.0745 -0.0706
 1360SOL    HW3 5213   1.408   0.673   2.884 -1.8436 -0.0715  0.6656
 1360SOL    MW4 5214   1.365   0.672   2.809  0.1909  0.0913 -0.2242
 1361SOL     OW 5215   2.728   5.360   5.632 -0.6126  0.0548  0.5470
 1361SOL    HW2 5216   2.786   5.316   5.693 -2.2859 -0.8195  1.5566
 1361SOL    HW3 5217   2.661   5.402   5.686 -0.5434  1.6841 -0.5352
 1361SOL    MW4 5218   2.727   5.360   5.647  0.0854  0.1623  0.8105
 1362SOL     OW 5219  -0.001   1.223   1.875  0.1547  0.0978  0.1757
 1362SOL    HW2 5220   0.000   1.209   1.970 -0.6644 -0.4575  0.1092
 1362SOL    HW3 5221   0.071   1.168   1.843  1.5852  1.6183  0.6243
 1362SOL    MW4 5222   0.009   1.214   1.884 -0.5137 -0.2905 -0.0745
 1363SOL     OW 5223   3.844   2.376   5.692 -0.0912  0.1689  0.5278
 1363SOL    HW2 5224   3.794   2.319   5.634  1.1584 -2.0806  1.4856
 1363SOL    HW3 5225   3.917   2.407   5.638  0.4323 -0.9830  0.5321
 1363SOL    MW4 5226   3.847   2.372   5.678 -0.4878 -0.0859  0.3957
 1364SOL     OW 5227   4.970   4.446   1.476  0.1631  0.0873 -0.6232
 1364SOL    HW2 5228   4.947   4.453   1.569 -0.5422 -1.9246 -0.6032
 1364SOL    HW3 5229   4.890   4.469   1.430 -0.6212 -2.3754 -0.6244
 1364SOL    MW4 5230   4.956   4.450   1.482  0.1800  0.3610 -0.0789
 1365SOL     OW 5231   4.306   5.659   0.457 -0.0895  0.0765 -0.0926
 1365SOL    HW2 5232   4.339   5.583   0.409  0.6576  0.1856  0.2300
 1365SOL    HW3 5233   4.211   5.649   0.454 -0.0288 -0.4645 -0.7041
 1365SOL    MW4 5234   4.298   5.647   0.450  0.3962  0.4909 -0.5619
 1366SOL     OW 5235   5.078   3.472   3.506 -0.0845  0.2168 -0.5395
 1366SOL    HW2 5236   5.117   3.559   3.511 -0.4601  0.4552 -1.5456
 1366SOL    HW3 5237   5.132   3.418   3.563 -0.0300  1.1748  0.3400
 1366SOL    MW4 5238   5.090   3.476   3.514  0.1948 -0.1147  0.2565
 1367SOL     OW 5239   1.822   4.143   4.881 -0.0639  0.2717 -0.1636
 1367SOL    HW2 5240   1.810   4.223   4.831  1.7227  0.5530 -0.2072
 1367SOL    HW3 5241   1.889   4.165   4.946 -0.3175 -0.8832  0.5157
 1367SOL    MW4 5242   1.829   4.156   4.883  0.7992  0.0136 -0.2663
 1368SOL     OW 5243   2.985   1.576   0.277  0.3986  0.2444  0.2873
 1368SOL    HW2 5244   3.076   1.598   0.297 -0.2105  2.6454  0.6446
 1368SOL    HW3 5245   2.934   1.617   0.347 -1.0076 -1.0098  0.0621
 1368SOL    MW4 5246   2.990   1.584   0.289  0.3775 -0.3505  0.2422
 1369SOL     OW 5247   5.277   0.549   5.807  0.0474  0.3361 -0.0851
 1369SOL    HW2 5248   5.346   0.531   5.743 -0.8533 -0.3036 -0.9145
 1369SOL    HW3 5249   5.245   0.636   5.783  0.8011  0.8055  0.5474
 1369SOL    MW4 5250   5.282   0.558   5.795  1.2645 -0.2216 -0.7038
 1370SOL     OW 5251   2.155   3.717   3.302 -0.7412 -0.7164 -0.0476
 1370SOL    HW2 5252   2.185   3.749   3.387 -0.8232  0.0853 -0.3144
 1370SOL    HW3 5253   2.065   3.750   3.295  0.3244  2.2369 -1.8979
 1370SOL    MW4 5254   2.147   3.726   3.312  0.2511  0.7422 -0.8069
 1371SOL     OW 5255   3.349   4.835   5.173 -0.5349  0.1413  0.6868
 1371SOL    HW2 5256   3.337   4.804   5.263 -0.6327 -1.2354  0.2175
 1371SOL    HW3 5257   3.262   4.831   5.134 -0.6320  1.4410  0.7302
 1371SOL    MW4 5258   3.336   4.831   5.180 -0.3572  0.2424 -0.0271
 1372SOL     OW 5259   6.218   3.922   2.925 -0.1870  0.0967  0.1599
 1372SOL    HW2 5260   6.150   3.956   2.982  0.6317  1.5105  0.3409
 1372SOL    HW3 5261   6.244   3.997   2.871  0.6500 -0.6222 -0.4782
 1372SOL    MW4 5262   6.213   3.936   2.925 -0.0721 -0.0268 -0.2307
 1373SOL     OW 5263   1.397   1.138   2.996  0.0280 -0.3627 -0.2756
 1373SOL    HW2 5264   1.459   1.115   2.928  0.9229 -0.2527  0.4840
 1373SOL    HW3 5265   1.376   1.055   3.039 -0.5202 -0.4293 -0.6593
 1373SOL    MW4 5266   1.402   1.124   2.993  0.0072  0.3359 -0.0332
 1374SOL     OW 5267   2.364   3.987   6.375 -0.4803 -0.0676 -0.3119
 1374SOL    HW2 5268   2.315   3.918   6.330  0.3649  0.3196 -1.9133
 1374SOL    HW3 5269   2.454   3.954   6.379 -0.4808  0.0383  0.8644
 1374SOL    MW4 5270   2.370   3.973   6.369  0.2011  0.1686  0.2615
 1375SOL     OW 5271   0.743   4.997   3.020  0.0099 -0.0360  0.5526
 1375SOL    HW2 5272   0.778   5.034   3.101  1.4871 -1.1448  0.4586
 1375SOL    HW3 5273   0.754   5.067   2.955 -2.6904  1.4884  1.5623
 1375SOL    MW4 5274   0.749   5.011   3.022  0.0583  0.3033  0.8517
 1376SOL     OW 5275   5.308   1.481   5.170  0.3544  0.0826  0.0948
 1376SOL    HW2 5276   5.322   1.425   5.094  0.4996 -2.1476  1.6608
 1376SOL    HW3 5277   5.383   1.540   5.170  1.9491 -1.8134  0.0619
 1376SOL    MW4 5278   5.320   1.481   5.160 -0.3056 -0.4688  0.3773
 1377SOL     OW 5279   3.490   0.492   0.659 -0.2455 -0.3374  0.0970
 1377SOL    HW2 5280   3.454   0.507   0.571  0.1911  0.7500  0.0759
 1377SOL    HW3 5281   3.462   0.404   0.682 -0.1165 -0.7593 -1.2615
 1377SOL    MW4 5282   3.481   0.483   0.650  0.0103 -0.5356  0.8879
 1378SOL     OW 5283   0.573   4.467   2.218  0.1862  0.0603  0.5823
 1378SOL    HW2 5284   0.661   4.495   2.243  0.4440  0.8407 -1.0599
 1378SOL    HW3 5285   0.514   4.521   2.270  0.6455 -0.5989  1.8363
 1378SOL    MW4 5286   0.577   4.478   2.228 -0.0688 -0.5212 -0.1674
 1379SOL     OW 5287   3.107   2.525   0.851 -0.2846 -0.0856 -0.1553
 1379SOL    HW2 5288   3.193   2.497   0.820  0.2340  0.5285  0.6922
 1379SOL    HW3 5289   3.084   2.599   0.795 -0.9948 -1.1939 -1.4159
 1379SOL    MW4 5290   3.115   2.531   0.839 -0.0971  0.0289 -0.4734
 1380SOL     OW 5291   6.196   0.949   6.230 -0.2673  0.7591  0.3482
 1380SOL    HW2 5292   6.166   0.947   6.139  0.9097  2.6076 -0.1160
 1380SOL    HW3 5293   6.158   0.870   6.269 -1.9593  0.6506 -1.3639
 1380SOL    MW4 5294   6.187   0.938   6.223  0.2276 -0.8737 -0.2379
 1381SOL     OW 5295   3.378   0.983   4.166  0.0813 -0.5305  0.0182
 1381SOL    HW2 5296   3.297   0.932   4.164 -1.4848  1.7880 -2.1896
 1381SOL    HW3 5297   3.438   0.934   4.109 -1.1407 -0.3233 -1.5052
 1381SOL    MW4 5298   3.376   0.969   4.158 -0.1823  0.5069 -0.0671
 1382SOL     OW 5299   2.789   0.350   1.425 -0.6823  0.1285 -0.2061
 1382SOL    HW2 5300   2.734   0.304   1.362  2.6296  0.0662 -3.4097
 1382SOL    HW3 5301   2.843   0.282   1.464  0.5325  0.6291 -0.9400
 1382SOL    MW4 5302   2.789   0.335   1.422 -0.1009 -0.3953 -0.4278
 1383SOL     OW 5303   1.333   0.146   2.567 -0.3518 -0.3601 -0.1962
 1383SOL    HW2 5304   1.407   0.088   2.551 -0.7662 -1.6455  2.1137
 1383SOL    HW3 5305   1.329   0.154   2.662 -0.2656  3.6176 -0.3778
 1383SOL    MW4 5306   1.342   0.139   2.577  0.1393 -0.4875 -0.0645
 1384SOL     OW 5307   2.064   3.364   2.951  0.1146 -0.1170 -0.2158
 1384SOL    HW2 5308   2.088   3.441   2.899 -1.0181  0.5120  0.1519
 1384SOL    HW3 5309   2.105   3.380   3.036 -0.9780  0.6351  0.2020
 1384SOL    MW4 5310   2.073   3.376   2.955  0.1191  0.0782 -0.1071
 1385SOL     OW 5311   4.840   5.915   0.365  0.2362  0.3505  0.8018
 1385SOL    HW2 5312   4.774   5.868   0.416  1.3630  0.4186  2.3775
 1385SOL    HW3 5313   4.875   5.849   0.304 -0.8576  0.1778  0.3380
 1385SOL    MW4 5314   4.836   5.900   0.363 -0.2121  0.0211 -0.0768
 1386SOL     OW 5315   2.389   4.727   0.947  0.4413 -0.1856 -0.3545
 1386SOL    HW2 5316   2.363   4.709   0.857 -1.7380 -1.1980  0.4289
 1386SOL    HW3 5317   2.318   4.779   0.983  2.7927  3.1990 -0.0882
 1386SOL    MW4 5318   2.376   4.732   0.940 -0.1720 -0.6528 -0.7183
 1387SOL     OW 5319   3.422   5.776   1.084 -0.7881  0.6328  0.4633
 1387SOL    HW2 5320   3.413   5.756   0.991  2.4814 -1.0157  0.3482
 1387SOL    HW3 5321   3.433   5.871   1.086  1.0500  0.5398 -1.1735
 1387SOL    MW4 5322   3.423   5.786   1.072 -0.0108 -0.1898 -0.2482
 1388SOL     OW 5323   5.574   3.429   2.580  0.3428 -0.1748 -0.3724
 1388SOL    HW2 5324   5.482   3.404   2.574  0.2179  0.3060 -0.4871
 1388SOL    HW3 5325   5.576   3.522   2.558  0.8039 -0.0752  0.0606
 1388SOL    MW4 5326   5.562   3.438   2.576 -0.5041  0.4969  0.0788
 1389SOL     OW 5327   0.194   0.421   3.044  0.0739  0.5563 -0.4400
 1389SOL    HW2 5328   0.140   0.342   3.034 -1.1404  1.0554  1.4965
 1389SOL    HW3 5329   0.284   0.388   3.045 -0.3933 -0.8292  0.2410
 1389SOL    MW4 5330   0.198   0.406   3.043 -0.2015  0.4770  0.5856
 1390SOL     OW 5331   1.844   4.257   0.151  0.3406  0.0736 -0.0035
 1390SOL    HW2 5332   1.824   4.238   0.059 -2.1728 -0.4063  0.5556
 1390SOL    HW3 5333   1.791   4.194   0.200  1.3021  0.6086  1.7860
 1390SOL    MW4 5334   1.834   4.246   0.145 -0.5039 -0.0027 -0.3877
 1391SOL     OW 5335   0.619   3.142   3.145 -0.3594  0.1088 -0.5193
 1391SOL    HW2 5336   0.544   3.197   3.122 -1.5100 -1.1944 -0.0512
 1391SOL    HW3 5337   0.616   3.135   3.240 -0.0452 -0.5047 -0.5486
 1391SOL    MW4 5338   0.609   3.148   3.154  0.3572 -0.4320 -0.4584
 1392SOL     OW 5339   2.159   5.088   3.982  0.2280  0.7006 -0.0338
 1392SOL    HW2 5340   2.193   5.147   4.049  0.5634  0.4089  0.0527
 1392SOL    HW3 5341   2.067   5.076   4.005  0.5187 -0.0006  0.8081
 1392SOL    MW4 5342   2.151   5.094   3.994 -0.4340  0.7180 -0.1483
 1393SOL     OW 5343   0.502   3.931   1.863  0.0462 -0.3638  0.2284
 1393SOL    HW2 5344   0.579   3.982   1.836  0.1528 -1.1090 -0.9775
 1393SOL    HW3 5345   0.451   3.990   1.917  1.3141  0.2581  0.7803
 1393SOL    MW4 5346   0.506   3.945   1.866  0.0532  0.3411  0.0585
 1394SOL     OW 5347   0.595   3.862   3.629 -0.2215  0.0184  0.1785
 1394SOL    HW2 5348   0.659   3.839   3.696  0.5370 -1.2543 -0.9180
 1394SOL    HW3 5349   0.592   3.958   3.629  1.2138  0.0784  0.6977
 1394SOL    MW4 5350   0.603   3.872   3.638 -0.3125  0.6417 -0.2783
 1395SOL     OW 5351   3.879   4.190   1.703 -0.7177 -0.0296 -0.2773
 1395SOL    HW2 5352   3.902   4.275   1.665  1.5635  0.4972  2.0194
 1395SOL    HW3 5353   3.882   4.129   1.629  1.5190  1.2447 -1.3452
 1395SOL    MW4 5354   3.882   4.193   1.688  0.6312  0.0498  0.6656
 1396SOL     OW 5355   1.592   0.791   0.031  0.5505  0.5708 -0.0210
 1396SOL    HW2 5356   1.526   0.754  -0.028  1.4363 -1.4731  0.1542
 1396SOL    HW3 5357   1.627   0.714   0.077  2.2860  1.7189  0.6582
 1396SOL    MW4 5358   1.588   0.776   0.029 -0.7613  0.5807  0.2369
 1397SOL     OW 5359   5.392   6.185   3.158 -0.0686 -0.7714 -0.1311
 1397SOL    HW2 5360   5.371   6.279   3.157 -1.0594 -0.9623  1.0658
 1397SOL    HW3 5361   5.307   6.141   3.152  0.2512 -1.5811  0.9671
 1397SOL    MW4 5362   5.378   6.192   3.157 -0.8414  0.7359  0.5261
 1398SOL     OW 5363   5.156   0.790   5.728  0.4838  0.5012  0.4398
 1398SOL    HW2 5364   5.067   0.822   5.737  0.1265 -0.4819  0.5372
 1398SOL    HW3 5365   5.198   0.853   5.669 -0.5700  0.4197 -0.4411
 1398SOL    MW4 5366   5.150   0.802   5.721  0.0236 -0.3095 -0.0982
 1399SOL     OW 5367   1.540   2.064   6.154 -0.1554 -0.0347  0.1802
 1399SOL    HW2 5368   1.518   2.122   6.081 -1.3264 -0.7959 -0.1000
 1399SOL    HW3 5369   1.524   1.976   6.121  1.5398 -0.5417  0.6197
 1399SOL    MW4 5370   1.535   2.060   6.140 -0.1133  0.1276  0.0401
 1400SOL     OW 5371   5.559   1.258   4.051 -0.5026 -0.1753 -0.1228
 1400SOL    HW2 5372   5.537   1.350   4.069  0.3282  0.1695 -0.7734
 1400SOL    HW3 5373   5.519   1.209   4.123 -0.7244  0.7261  0.3849
 1400SOL    MW4 5374   5.551   1.264   4.063  0.1209  0.4936  0.0128
 1401SOL     OW 5375   0.038   4.686   0.183 -0.5513  0.7971  0.1290
 1401SOL    HW2 5376  -0.023   4.633   0.132 -1.1444  0.2092  1.4094
 1401SOL    HW3 5377   0.061   4.758   0.124 -0.8172 -0.1116 -1.1404
 1401SOL    MW4 5378   0.033   4.689   0.168  0.3069  0.0659 -0.3984
 1402SOL     OW 5379   2.004   4.856   6.389  0.4462  0.4648 -0.3745
 1402SOL    HW2 5380   2.056   4.776   6.390 -1.4711 -0.9534  2.9006
 1402SOL    HW3 5381   2.055   4.917   6.336  4.2756 -1.4604  0.6956
 1402SOL    MW4 5382   2.018   4.854   6.382 -0.8126 -0.5176  0.0407
 1403SOL     OW 5383   5.882   3.778   3.861  0.0925 -0.4101 -0.1447
 1403SOL    HW2 5384   5.875   3.716   3.789  2.5797 -0.9442 -0.0218
 1403SOL    HW3 5385   5.931   3.852   3.825  0.7945 -0.3906  0.8089
 1403SOL    MW4 5386   5.887   3.780   3.847  0.0691 -0.0426  0.4016
 1404SOL     OW 5387   4.046   1.814   4.026 -0.3045 -0.4576 -0.0009
 1404SOL    HW2 5388   3.992   1.737   4.041 -0.9471  0.0000  0.1097
 1404SOL    HW3 5389   4.130   1.794   4.067 -0.5640 -0.9762  0.2849
 1404SOL    MW4 5390   4.050   1.802   4.033  0.4677  0.5321 -0.0069
 1405SOL     OW 5391   2.960   6.268   5.510 -0.6846 -0.7059 -0.0063
 1405SOL    HW2 5392   2.952   6.300   5.600 -1.2221 -2.1947  0.5047
 1405SOL    HW3 5393   3.010   6.336   5.465  0.5205 -0.3941  1.6843
 1405SOL    MW4 5394   2.966   6.281   5.516 -0.1577  0.4392 -0.3636
 1406SOL     OW 5395   5.223   4.502   5.010 -0.5322 -0.1089  0.2153
 1406SOL    HW2 5396   5.202   4.470   5.098 -0.2261 -1.7912 -0.2963
 1406SOL    HW3 5397   5.319   4.508   5.009 -0.5800  1.0396  0.3395
 1406SOL    MW4 5398   5.233   4.499   5.022 -0.0541 -0.2911  0.6971
 1407SOL     OW 5399   4.806   6.148   4.872 -0.5367  0.6265 -0.1441
 1407SOL    HW2 5400   4.871   6.086   4.904  1.2616  1.6160 -1.7160
 1407SOL    HW3 5401   4.741   6.093   4.827  0.1356 -0.2436 -0.0796
 1407SOL    MW4 5402   4.806   6.132   4.870 -0.3257 -0.2044 -0.1953
 1408SOL     OW 5403   3.045   0.647   2.701 -0.0763  0.3730  0.5593
 1408SOL    HW2 5404   3.073   0.596   2.625 -0.9635 -0.9165  1.0714
 1408SOL    HW3 5405   3.050   0.587   2.775 -0.7664  1.1313  1.2560
 1408SOL    MW4 5406   3.049   0.633   2.701 -0.1139  0.4128  0.2737
 1409SOL     OW 5407   0.711   1.562   2.115 -0.3413  0.2891 -1.0484
 1409SOL    HW2 5408   0.779   1.628   2.128 -3.0600  2.9452  1.2971
 1409SOL    HW3 5409   0.683   1.574   2.024  1.7934 -0.4579 -1.8645
 1409SOL    MW4 5410   0.716   1.573   2.105  0.3274 -0.4900 -0.1076
 1410SOL     OW 5411   2.724   6.363   2.254 -0.0928  0.8400 -0.1366
 1410SOL    HW2 5412   2.710   6.349   2.347 -2.3504 -0.4635 -0.5814
 1410SOL    HW3 5413   2.799   6.308   2.233  0.8606  1.6604  0.9923
 1410SOL    MW4 5414   2.732   6.354   2.263 -0.1530 -0.2659  0.3017
 1411SOL     OW 5415   3.735   6.342   2.765 -0.1913 -0.9233 -0.3434
 1411SOL    HW2 5416   3.821   6.339   2.723  0.4381  0.5374  0.7478
 1411SOL    HW3 5417   3.755   6.338   2.859 -1.1361  1.4233  0.0197
 1411SOL    MW4 5418   3.749   6.341   2.772 -0.7055 -0.0760 -0.1115
 1412SOL     OW 5419   2.765   1.369   1.658  0.1434  0.7425  0.0316
 1412SOL    HW2 5420   2.814   1.289   1.640 -0.3589  0.7653 -1.5958
 1412SOL    HW3 5421   2.805   1.405   1.737  1.0790 -0.5485  0.1662
 1412SOL    MW4 5422   2.777   1.363   1.666  0.0727 -0.3863 -0.1132
 1413SOL     OW 5423   3.345   5.606   2.384 -0.5305 -0.9802  0.3573
 1413SOL    HW2 5424   3.354   5.654   2.467 -0.6459  0.1102 -0.2512
 1413SOL    HW3 5425   3.274   5.650   2.338  0.4012 -0.7364 -0.8897
 1413SOL    MW4 5426   3.337   5.618   2.389 -0.1818 -0.1425 -0.1038
 1414SOL     OW 5427   4.005   1.826   4.844 -0.3474  0.3105 -0.2021
 1414SOL    HW2 5428   4.061   1.787   4.911 -0.7425  1.0449  0.5676
 1414SOL    HW3 5429   3.917   1.799   4.868 -0.5670  1.1854  0.0061
 1414SOL    MW4 5430   4.001   1.817   4.856 -0.9652 -0.9952  0.2274
 1415SOL     OW 5431   5.115   0.408   4.126 -0.6193 -0.1983  0.7818
 1415SOL    HW2 5432   5.153   0.342   4.184 -0.9484  1.9683  3.6401
 1415SOL    HW3 5433   5.186   0.469   4.108 -0.2130 -1.3561 -2.1684
 1415SOL    MW4 5434   5.129   0.407   4.131 -0.4406 -0.4393 -0.0991
 1416SOL     OW 5435   0.716   4.650   3.343 -0.5670 -0.0426 -0.7737
 1416SOL    HW2 5436   0.807   4.637   3.370  0.2863  1.5671 -2.6607
 1416SOL    HW3 5437   0.675   4.693   3.418  0.3866 -0.2095 -0.1335
 1416SOL    MW4 5438   0.723   4.654   3.357  0.5107  0.8758 -0.6152
 1417SOL     OW 5439   5.636   5.075   1.401 -0.5224 -0.6901 -0.0534
 1417SOL    HW2 5440   5.677   5.062   1.486 -2.6272 -1.5447  0.8829
 1417SOL    HW3 5441   5.643   5.169   1.384  1.8424 -0.7971 -0.0119
 1417SOL    MW4 5442   5.643   5.086   1.410  0.4328 -0.0439 -0.5128
 1418SOL     OW 5443   1.681   3.984   2.635  0.3970  0.2549  0.3168
 1418SOL    HW2 5444   1.683   4.080   2.628  2.0470  0.3447  1.3790
 1418SOL    HW3 5445   1.627   3.956   2.562  0.1204  1.9847 -0.1943
 1418SOL    MW4 5446   1.674   3.993   2.625  0.2414 -0.3403  0.0687
 1419SOL     OW 5447   2.203   1.904   1.878 -0.3738  0.4427  0.2528
 1419SOL    HW2 5448   2.182   1.815   1.851 -0.6273  0.8926 -1.0819
 1419SOL    HW3 5449   2.299   1.907   1.881 -0.3516  0.2989 -0.3196
 1419SOL    MW4 5450   2.213   1.893   1.875 -0.4231  0.1106  0.1299
 1420SOL     OW 5451   3.223   5.519   3.263  0.1405  0.2213  0.6293
 1420SOL    HW2 5452   3.257   5.604   3.291 -1.4977  0.2448  2.8072
 1420SOL    HW3 5453   3.301   5.466   3.247  1.1747  1.6100  0.9236
 1420SOL    MW4 5454   3.238   5.523   3.264  0.1754  0.3037  0.2014
 1421SOL     OW 5455   2.017   4.461   1.858 -0.1800  0.2731  0.2448
 1421SOL    HW2 5456   1.939   4.412   1.832  0.1664  0.6830 -1.7467
 1421SOL    HW3 5457   2.020   4.535   1.797  0.0771  2.0442  2.2723
 1421SOL    MW4 5458   2.007   4.464   1.847  0.3909  0.7064  0.1538
 1422SOL     OW 5459   2.985   3.276   2.795 -0.2026  0.1488 -0.0757
 1422SOL    HW2 5460   2.906   3.269   2.849  0.4431 -2.6968  0.6654
 1422SOL    HW3 5461   3.050   3.314   2.853 -0.5894  1.0457 -0.2088
 1422SOL    MW4 5462   2.983   3.281   2.810 -0.1881 -0.2567 -0.9572
 1423SOL     OW 5463   4.073   0.795   4.984  0.2128 -0.4219  0.3882
 1423SOL    HW2 5464   4.129   0.719   5.001  0.0652 -0.7217 -0.4377
 1423SOL    HW3 5465   4.089   0.854   5.058  0.6967 -1.0419  0.7820
 1423SOL    MW4 5466   4.082   0.793   4.996  0.3296  0.1342  0.7044
 1424SOL     OW 5467   4.163   0.116   3.449  0.4180  0.1878 -0.0974
 1424SOL    HW2 5468   4.099   0.162   3.504  0.6719 -0.6852  0.9618
 1424SOL    HW3 5469   4.241   0.109   3.504  0.0359 -2.4825  0.2549
 1424SOL    MW4 5470   4.165   0.121   3.463  0.6904  0.2517 -0.5399
 1425SOL     OW 5471   3.892   4.682   3.435 -0.3073 -0.2133 -0.1650
 1425SOL    HW2 5472   3.903   4.655   3.344  1.6827  1.9927 -0.6901
 1425SOL    HW3 5473   3.869   4.602   3.482 -0.4006 -1.5913 -2.4203
 1425SOL    MW4 5474   3.890   4.668   3.429  0.2961 -0.3364 -0.2840
 1426SOL     OW 5475   3.453   0.439   4.426  0.4072 -0.2700  0.1512
 1426SOL    HW2 5476   3.412   0.354   4.412  0.6084 -0.3970  0.3492
 1426SOL    HW3 5477   3.529   0.439   4.368 -0.4159  0.3562 -0.9895
 1426SOL    MW4 5478   3.457   0.428   4.416  0.3058 -0.3602  0.0898
 1427SOL     OW 5479   6.327   1.118   3.885 -0.0298 -0.2456  0.1678
 1427SOL    HW2 5480   6.237   1.149   3.897 -0.3268 -1.4631  1.3434
 1427SOL    HW3 5481   6.317   1.024   3.866  1.0241 -0.7679  1.9401
 1427SOL    MW4 5482   6.313   1.109   3.884 -0.3051 -0.5429 -0.0543
 1428SOL     OW 5483   1.408   2.473   4.864  0.2773 -0.1931 -0.3708
 1428SOL    HW2 5484   1.469   2.503   4.796 -0.1408 -0.2313 -0.7666
 1428SOL    HW3 5485   1.343   2.420   4.816 -0.4276  0.3727 -0.0511
 1428SOL    MW4 5486   1.408   2.470   4.848  0.5764 -0.1257  0.2622
 1429SOL     OW 5487   6.340   5.252   2.191 -0.0172 -0.3544  0.1332
 1429SOL    HW2 5488   6.264   5.306   2.172 -0.3829 -0.3013  1.5922
 1429SOL    HW3 5489   6.335   5.180   2.128 -1.6745 -0.7198  0.6216
 1429SOL    MW4 5490   6.330   5.249   2.180 -0.0081 -0.0915  0.0843
 1430SOL     OW 5491   2.274   3.447   5.130 -0.3297  0.4158 -0.0233
 1430SOL    HW2 5492   2.254   3.467   5.039  2.6230  1.6719 -0.4908
 1430SOL    HW3 5493   2.362   3.408   5.128 -1.4574 -2.6741  2.0190
 1430SOL    MW4 5494   2.283   3.444   5.118 -0.3063 -0.1201 -0.0526
 1431SOL     OW 5495   5.953   2.865   1.262 -0.6911  0.5554 -0.0393
 1431SOL    HW2 5496   5.974   2.784   1.309 -1.7140  0.8765  1.0390
 1431SOL    HW3 5497   5.873   2.843   1.213 -1.3336  1.0756  0.7569
 1431SOL    MW4 5498   5.945   2.851   1.262 -0.2769 -0.9136  0.0273
 1432SOL     OW 5499   2.848   0.978   0.001 -0.1026  0.3597  0.2835
 1432SOL    HW2 5500   2.799   0.896   0.010  2.9154 -1.8196 -1.2836
 1432SOL    HW3 5501   2.844   1.019   0.087 -1.5133 -1.5548  1.1931
 1432SOL    MW4 5502   2.841   0.973   0.013 -0.1106  0.3413  0.7524
 1433SOL     OW 5503   2.242   3.516   4.576 -0.0636  0.4004 -0.1160
 1433SOL    HW2 5504   2.165   3.512   4.519 -2.0058  2.9370  2.0575
 1433SOL    HW3 5505   2.298   3.582   4.536  0.7442 -0.9473 -1.3210
 1433SOL    MW4 5506   2.239   3.524   4.563 -0.2797  0.1704  0.5661
 1434SOL     OW 5507   2.795   2.620   2.286 -0.7329 -0.0644 -0.8709
 1434SOL    HW2 5508   2.810   2.651   2.197 -0.6669  1.0913 -0.4666
 1434SOL    HW3 5509   2.850   2.542   2.294 -0.3556  0.1154 -1.6755
 1434SOL    MW4 5510   2.804   2.614   2.276 -0.0185 -0.4050  0.4965
 1435SOL     OW 5511   3.062   4.303   3.918  0.1866  0.0453  0.0484
 1435SOL    HW2 5512   3.073   4.310   4.012 -0.2927  1.0315  0.0391
 1435SOL    HW3 5513   3.150   4.287   3.884  0.6976  1.7878  0.4842
 1435SOL    MW4 5514   3.075   4.302   3.926 -0.3177  0.6057 -0.5985
 1436SOL     OW 5515   0.058   6.166   5.348 -0.0914  0.1041  0.0527
 1436SOL    HW2 5516   0.141   6.206   5.373  1.4136 -2.1277 -1.0595
 1436SOL    HW3 5517   0.014   6.149   5.432  0.8821  0.6637  0.7050
 1436SOL    MW4 5518   0.063   6.169   5.363  0.0272  0.2039 -0.5706
 1437SOL     OW 5519   0.244   0.093   3.629 -0.1635 -0.2252  0.3151
 1437SOL    HW2 5520   0.166   0.042   3.604  1.1108 -2.0464 -0.1444
 1437SOL    HW3 5521   0.300   0.030   3.674  2.1763  0.3094 -1.6550
 1437SOL    MW4 5522   0.241   0.078   3.632 -0.0777  0.4763  0.1040
 1438SOL     OW 5523   1.067   0.961   5.867 -0.2260 -0.5621 -0.7572
 1438SOL    HW2 5524   0.986   0.995   5.906  0.6493 -0.7947  1.4276
 1438SOL    HW3 5525   1.123   1.038   5.857  1.0872 -0.9388  2.5101
 1438SOL    MW4 5526   1.063   0.976   5.871  0.0543  0.1177  0.2071
 1439SOL     OW 5527   4.005   5.670   5.887  0.4244 -0.0032 -0.1993
 1439SOL    HW2 5528   3.966   5.730   5.950 -1.4761 -1.3232 -0.0503
 1439SOL    HW3 5529   4.045   5.601   5.940 -0.6210 -0.7780 -0.3735
 1439SOL    MW4 5530   4.005   5.668   5.902  0.0346 -0.1773  0.1425
 1440SOL     OW 5531   0.377   5.316   0.907 -0.1971  0.1703  1.0158
 1440SOL    HW2 5532   0.312   5.247   0.903  0.1042 -0.0788  0.2234
 1440SOL    HW3 5533   0.328   5.398   0.897 -0.3843 -0.0177  0.3912
 1440SOL    MW4 5534   0.362   5.318   0.905 -0.4957  0.4567  0.4951
 1441SOL     OW 5535   4.396   1.042   4.536 -0.4539  0.1354 -0.1557
 1441SOL    HW2 5536   4.304   1.067   4.540 -0.3578  0.4303  0.4908
 1441SOL    HW3 5537   4.413   1.023   4.444 -1.3513 -0.6611 -0.1666
 1441SOL    MW4 5538   4.386   1.043   4.525  0.0110  0.1175 -0.1244
 1442SOL     OW 5539   5.688   2.776   3.976 -0.0370  0.5247 -0.2181
 1442SOL    HW2 5540   5.632   2.836   4.025 -0.5142 -0.0967  0.0064
 1442SOL    HW3 5541   5.639   2.757   3.896 -1.1319 -1.6130  0.8752
 1442SOL    MW4 5542   5.674   2.782   3.972 -0.2942  0.7595 -0.9563
 1443SOL     OW 5543   1.749   5.486   6.000  0.4063  0.0229  0.7346
 1443SOL    HW2 5544   1.653   5.483   5.991  0.5902 -2.3108 -1.9086
 1443SOL    HW3 5545   1.769   5.409   6.054  0.9293 -2.5058 -2.7547
 1443SOL    MW4 5546   1.739   5.475   6.006 -0.1168 -0.1108 -0.4312
 1444SOL     OW 5547   6.427   5.753   0.801  0.6628 -0.4050 -0.2790
 1444SOL    HW2 5548   6.465   5.689   0.742  0.7333 -0.3632 -0.2790
 1444SOL    HW3 5549   6.392   5.821   0.744  1.4441  0.0335 -0.2463
 1444SOL    MW4 5550   6.428   5.754   0.786  0.6466  0.4765  0.2685
 1445SOL     OW 5551   3.130   5.266   3.776 -0.2644 -0.0605 -0.1045
 1445SOL    HW2 5552   3.076   5.327   3.727  1.1072  1.6751  0.4595
 1445SOL    HW3 5553   3.183   5.321   3.833  0.9341 -1.7955  0.5343
 1445SOL    MW4 5554   3.130   5.281   3.777 -0.0598  0.1873  0.6007
 1446SOL     OW 5555   3.226   4.229   2.634 -0.1181 -0.8576  0.5271
 1446SOL    HW2 5556   3.305   4.179   2.612 -0.4891 -0.4806 -1.8615
 1446SOL    HW3 5557   3.258   4.316   2.658  0.2619 -1.0309  0.6468
 1446SOL    MW4 5558   3.241   4.234   2.634  0.0218 -0.4163  0.1065
 1447SOL     OW 5559   4.199   6.420   4.313 -0.2833  0.4966 -0.3449
 1447SOL    HW2 5560   4.279   6.470   4.332 -0.1543  0.7375 -1.4690
 1447SOL    HW3 5561   4.139   6.445   4.383  0.1455  1.4031 -0.2785
 1447SOL    MW4 5562   4.202   6.430   4.325  0.5436 -0.0106  0.4951
 1448SOL     OW 5563   4.251   2.710   6.106 -0.2608 -0.3332 -0.5537
 1448SOL    HW2 5564   4.206   2.651   6.166  0.3323  0.6561  0.9365
 1448SOL    HW3 5565   4.196   2.789   6.104  0.3811  0.1376 -0.2504
 1448SOL    MW4 5566   4.238   2.713   6.114  0.1957 -0.2902  0.6908
 1449SOL     OW 5567   4.178   4.503   1.756  0.4195 -0.3028 -0.4022
 1449SOL    HW2 5568   4.101   4.558   1.765  1.1298  0.5674  0.5997
 1449SOL    HW3 5569   4.230   4.521   1.834  1.8235 -0.5912 -1.2302
 1449SOL    MW4 5570   4.175   4.512   1.767  0.2199 -0.1590  0.6714
 1450SOL     OW 5571   2.269   0.785   1.275  0.3399 -0.2900 -0.3671
 1450SOL    HW2 5572   2.188   0.769   1.227  0.3246  0.1150 -0.4825
 1450SOL    HW3 5573   2.324   0.709   1.256  0.6251  0.2061 -1.6378
 1450SOL    MW4 5574   2.266   0.773   1.266 -0.0469 -0.3294 -0.0949
 1451SOL     OW 5575   1.695   5.152   1.884 -0.0562  0.0657  0.3046
 1451SOL    HW2 5576   1.785   5.122   1.898 -0.1263 -1.0589 -1.3801
 1451SOL    HW3 5577   1.640   5.087   1.928 -0.1191 -1.1074 -1.4016
 1451SOL    MW4 5578   1.700   5.140   1.892 -0.0153  0.0769 -0.2734
 1452SOL     OW 5579   3.441   4.297   0.088 -0.4472  0.0923  0.6334
 1452SOL    HW2 5580   3.373   4.293   0.156 -0.0080 -0.9446  1.0369
 1452SOL    HW3 5581   3.522   4.276   0.135 -0.0964 -0.3557 -0.1683
 1452SOL    MW4 5582   3.442   4.294   0.103  0.0978  0.0661 -0.5454
 1453SOL     OW 5583   3.653   5.484   6.118 -0.4662 -0.2574  1.0260
 1453SOL    HW2 5584   3.586   5.552   6.110 -1.0605 -1.0038 -1.1268
 1453SOL    HW3 5585   3.603   5.403   6.131  0.1834 -0.4410  2.4934
 1453SOL    MW4 5586   3.637   5.482   6.119 -0.8490 -0.0199 -0.0114
 1454SOL     OW 5587   4.345   1.947   5.468 -0.0403 -0.0971 -0.5610
 1454SOL    HW2 5588   4.318   1.919   5.555 -1.6501 -1.2048 -1.3541
 1454SOL    HW3 5589   4.265   1.982   5.428  0.7442  0.6934 -1.4824
 1454SOL    MW4 5590   4.331   1.948   5.474  1.0274  0.2258 -0.1938
 1455SOL     OW 5591   3.380   3.858   5.784  0.1749  0.3283 -0.2667
 1455SOL    HW2 5592   3.472   3.873   5.809  0.1973  0.5250 -0.4673
 1455SOL    HW3 5593   3.378   3.872   5.690 -0.0294  0.1580 -0.2883
 1455SOL    MW4 5594   3.392   3.862   5.775  0.2230 -0.0391 -0.0420
 1456SOL     OW 5595   0.913   1.131   1.485  0.0073 -0.5670 -0.4724
 1456SOL    HW2 5596   0.944   1.121   1.575  1.7415 -1.6802 -1.1390
 1456SOL    HW3 5597   0.987   1.169   1.438 -0.3201 -1.4353 -1.7386
 1456SOL    MW4 5598   0.927   1.135   1.491  0.1092  0.3702 -0.5329
 1457SOL     OW 5599   0.137   1.208   5.532  0.2823 -0.7444 -0.1559
 1457SOL    HW2 5600   0.176   1.134   5.577 -1.2077  0.0245  2.6704
 1457SOL    HW3 5601   0.056   1.174   5.495  1.4805 -1.3646 -2.3255
 1457SOL    MW4 5602   0.131   1.194   5.533 -1.0354 -0.3897 -0.3487
 1458SOL     OW 5603   3.297   4.664   3.367 -0.2446 -0.4023 -0.2985
 1458SOL    HW2 5604   3.328   4.635   3.453 -0.6903 -1.2512 -0.4192
 1458SOL    HW3 5605   3.218   4.714   3.385  0.7501  1.1660 -0.0525
 1458SOL    MW4 5606   3.291   4.667   3.381 -0.5136 -0.0792 -0.1085
 1459SOL     OW 5607   3.697   5.384   1.084 -0.2099  1.1347  0.0514
 1459SOL    HW2 5608   3.659   5.457   1.132 -0.4537  1.8252 -1.1533
 1459SOL    HW3 5609   3.744   5.425   1.011  0.4052  0.1354 -0.1393
 1459SOL    MW4 5610   3.698   5.399   1.080  0.1286  0.4725 -0.3725
 1460SOL     OW 5611   1.960   4.292   1.592  0.4651 -0.2500  0.5297
 1460SOL    HW2 5612   1.945   4.373   1.641  0.0518 -0.4922  0.8103
 1460SOL    HW3 5613   2.000   4.232   1.655 -1.3895 -1.0465  1.0050
 1460SOL    MW4 5614   1.963   4.295   1.607  0.0102  0.0666  0.3996
 1461SOL     OW 5615   4.717   2.434   1.339 -0.0683 -0.4144 -0.0184
 1461SOL    HW2 5616   4.695   2.481   1.419 -0.1137 -0.3096 -0.0918
 1461SOL    HW3 5617   4.636   2.431   1.289  0.3419  1.0034 -0.8096
 1461SOL    MW4 5618   4.704   2.440   1.343 -0.2874 -0.0152 -0.3505
 1462SOL     OW 5619   5.351   5.016   5.436 -0.3547  0.9111 -0.4838
 1462SOL    HW2 5620   5.398   4.933   5.451 -0.4789  0.7472 -0.9764
 1462SOL    HW3 5621   5.381   5.074   5.505 -0.6994  0.2670  0.2213
 1462SOL    MW4 5622   5.361   5.012   5.447  0.0288 -0.5139 -0.5508
 1463SOL     OW 5623   1.493   2.313   6.017  0.4176 -0.3197 -0.6764
 1463SOL    HW2 5624   1.412   2.349   6.055 -0.5413 -1.3450 -1.6587
 1463SOL    HW3 5625   1.479   2.320   5.922  1.4286 -0.6576 -0.8603
 1463SOL    MW4 5626   1.480   2.319   6.009 -0.0948  0.5130  0.2637
 1464SOL     OW 5627   5.834   4.463   2.006  0.5085 -0.0562  0.0230
 1464SOL    HW2 5628   5.850   4.491   2.096  1.0649 -0.9366  0.2148
 1464SOL    HW3 5629   5.886   4.523   1.953  1.0276 -0.1900  0.3690
 1464SOL    MW4 5630   5.843   4.474   2.011 -0.3361  0.5706  0.1204
 1465SOL     OW 5631   0.094   5.144   4.805  0.2689 -0.0177 -0.0394
 1465SOL    HW2 5632   0.157   5.123   4.736 -1.1720  0.9008 -1.7398
 1465SOL    HW3 5633   0.032   5.204   4.763 -1.9719 -1.1858  1.3739
 1465SOL    MW4 5634   0.094   5.149   4.790 -0.0066 -0.7516  0.0394
 1466SOL     OW 5635   4.503   2.172   0.596 -0.7670 -0.3236  0.0051
 1466SOL    HW2 5636   4.479   2.208   0.511  0.5951 -0.5511 -0.4999
 1466SOL    HW3 5637   4.419   2.146   0.635 -1.5993  1.4522 -0.4709
 1466SOL    MW4 5638   4.488   2.173   0.590  0.4721 -0.5045 -0.1911
 1467SOL     OW 5639   1.578   2.682   5.027 -0.2769 -0.2017  0.0297
 1467SOL    HW2 5640   1.547   2.631   5.101  0.1860 -0.7821 -0.1649
 1467SOL    HW3 5641   1.628   2.620   4.974 -0.1832  0.3192 -0.5113
 1467SOL    MW4 5642   1.581   2.667   5.030 -0.2768 -0.1135 -0.2717
 1468SOL     OW 5643   0.031   1.020   0.572  0.2763 -0.1535 -0.0325
 1468SOL    HW2 5644  -0.054   1.064   0.575 -0.8000 -1.9692 -1.6933
 1468SOL    HW3 5645   0.066   1.043   0.486  0.5844 -0.9583 -0.1283
 1468SOL    MW4 5646   0.024   1.029   0.561  0.5390  0.4750  0.5421
 1469SOL     OW 5647   4.981   5.000   4.468  0.0243  0.0117 -0.2430
 1469SOL    HW2 5648   5.055   5.040   4.513  1.0106 -0.4978 -1.3566
 1469SOL    HW3 5649   4.966   5.056   4.392  0.6849 -1.0449 -1.1915
 1469SOL    MW4 5650   4.989   5.012   4.464  0.2012 -0.6326 -0.2662
 1470SOL     OW 5651   5.032   4.780   2.123  0.1662 -0.2920 -0.0805
 1470SOL    HW2 5652   5.079   4.845   2.174 -1.1262 -1.0412  2.2195
 1470SOL    HW3 5653   5.074   4.697   2.145 -0.6994 -0.6865  0.1345
 1470SOL    MW4 5654   5.043   4.777   2.133 -0.1262 -0.0549  0.2930
 1471SOL     OW 5655   4.958   2.065   5.025 -0.1920 -0.1936 -0.3368
 1471SOL    HW2 5656   4.984   1.975   5.006  0.0113  0.1544 -1.8263
 1471SOL    HW3 5657   4.863   2.066   5.010 -0.1798 -0.1316 -0.4082
 1471SOL    MW4 5658   4.949   2.053   5.021 -0.0383  0.8458  0.1526
 1472SOL     OW 5659   1.766   0.874   5.464  0.0195  0.3031  0.7143
 1472SOL    HW2 5660   1.812   0.812   5.521 -1.5584 -0.7903  0.8680
 1472SOL    HW3 5661   1.688   0.899   5.514  0.2520  1.8774  0.3422
 1472SOL    MW4 5662   1.762   0.869   5.478  0.2102  0.0715 -0.2592
 1473SOL     OW 5663   4.619   1.169   3.240 -0.0642 -0.6004  0.2893
 1473SOL    HW2 5664   4.574   1.179   3.156  0.2822  0.1433  0.1839
 1473SOL    HW3 5665   4.617   1.257   3.279  0.5990 -0.7304  0.6379
 1473SOL    MW4 5666   4.613   1.182   3.234  0.1224 -0.4342  0.2906
 1474SOL     OW 5667   1.474   1.066   2.450  0.3977  0.1420  0.6941
 1474SOL    HW2 5668   1.461   1.043   2.542  1.3758 -0.7280  0.6204
 1474SOL    HW3 5669   1.512   0.988   2.410 -0.3886  0.3651 -0.5524
 1474SOL    MW4 5670   1.477   1.053   2.457 -0.2737  0.0844  0.2086
 1475SOL     OW 5671   4.983   2.695   3.625 -0.8150 -0.1373  0.1791
 1475SOL    HW2 5672   4.918   2.651   3.571 -1.5130 -0.5277  1.3174
 1475SOL    HW3 5673   5.065   2.650   3.604 -1.2082 -0.7953  0.0143
 1475SOL    MW4 5674   4.985   2.683   3.615 -0.2766  0.1737 -0.1358
 1476SOL     OW 5675   2.884   3.958   2.695 -0.0896 -0.6194 -0.2245
 1476SOL    HW2 5676   2.962   3.904   2.684  0.7432  0.0804  1.7738
 1476SOL    HW3 5677   2.816   3.897   2.724 -0.1705 -1.1406 -1.4563
 1476SOL    MW4 5678   2.885   3.943   2.697 -1.0542 -0.2666  0.0808
 1477SOL     OW 5679   2.761   1.855   1.273  0.1465 -0.3145 -0.0102
 1477SOL    HW2 5680   2.801   1.939   1.296 -0.4528  0.2338 -0.9311
 1477SOL    HW3 5681   2.668   1.869   1.287 -0.0503 -0.5250 -1.0581
 1477SOL    MW4 5682   2.754   1.868   1.278 -0.5755  0.0939  0.3139
 1478SOL     OW 5683   2.423   1.818   3.098  0.0340 -0.1872 -0.9325
 1478SOL    HW2 5684   2.498   1.773   3.138 -0.1948 -1.7007 -2.0900
 1478SOL    HW3 5685   2.461   1.871   3.029  0.1711  0.2164 -0.5482
 1478SOL    MW4 5686   2.438   1.819   3.094  0.1722 -0.2964 -0.1522
 1479SOL     OW 5687   1.453   0.490   4.322 -0.1524  0.7425 -0.3233
 1479SOL    HW2 5688   1.547   0.473   4.330 -0.5654 -1.2752  1.1247
 1479SOL    HW3 5689   1.426   0.435   4.248 -0.2760  0.9034 -0.3966
 1479SOL    MW4 5690   1.462   0.480   4.313 -0.2582  0.2841 -0.5370
 1480SOL     OW 5691   0.001   5.368   2.441  0.0276  0.2455 -0.8486
 1480SOL    HW2 5692   0.083   5.342   2.483 -0.9009 -2.3822 -0.5342
 1480SOL    HW3 5693  -0.003   5.314   2.362 -0.7502  1.3984 -1.6272
 1480SOL    MW4 5694   0.011   5.358   2.436  0.0478 -0.5158  0.2829
 1481SOL     OW 5695   2.215   3.689   2.322  0.1711  0.0283  0.5328
 1481SOL    HW2 5696   2.197   3.729   2.236  1.2555 -1.4016 -0.4161
 1481SOL    HW3 5697   2.301   3.723   2.346  1.2434 -1.8471 -0.4258
 1481SOL    MW4 5698   2.224   3.699   2.314  0.0335  0.2183  0.1289
 1482SOL     OW 5699   6.070   4.474   3.321  0.4007  0.0251  0.4132
 1482SOL    HW2 5700   6.080   4.409   3.390  0.6858  0.0129  0.3606
 1482SOL    HW3 5701   6.018   4.543   3.360 -1.9360 -1.2657 -0.2089
 1482SOL    MW4 5702   6.064   4.474   3.335 -0.2991 -0.1041  0.1296
 1483SOL     OW 5703   1.155   0.060   6.050 -0.2625 -0.2601 -0.3334
 1483SOL    HW2 5704   1.152   0.001   6.125  1.7466 -0.0489 -0.0482
 1483SOL    HW3 5705   1.067   0.097   6.045 -0.6165 -0.7830  1.5069
 1483SOL    MW4 5706   1.143   0.057   6.059  0.7626  0.0225  0.0249
 1484SOL     OW 5707   5.614   2.344   3.795 -0.1395 -0.3684  0.4240
 1484SOL    HW2 5708   5.658   2.393   3.726  0.1498 -3.5277 -1.8471
 1484SOL    HW3 5709   5.543   2.402   3.824 -0.1097  1.2149 -2.3332
 1484SOL    MW4 5710   5.611   2.358   3.790  0.1969  0.0061 -0.4263
 1485SOL     OW 5711   3.819   1.387   0.307  0.3048 -0.0503  0.2985
 1485SOL    HW2 5712   3.778   1.364   0.225 -0.8657 -0.4821  0.9878
 1485SOL    HW3 5713   3.852   1.304   0.342 -0.2868 -0.0710  0.8317
 1485SOL    MW4 5714   3.818   1.373   0.301 -0.4209 -1.1911  0.2494
 1486SOL     OW 5715   4.884   1.133   3.484  0.3086 -0.8935  0.0818
 1486SOL    HW2 5716   4.913   1.212   3.436  0.5271  0.0687  1.7310
 1486SOL    HW3 5717   4.935   1.062   3.445  0.8923 -0.0561 -0.7422
 1486SOL    MW4 5718   4.895   1.134   3.472 -0.4473 -0.6736 -0.1650
 1487SOL     OW 5719   0.699   2.634   5.394 -0.2656  0.4039 -0.3709
 1487SOL    HW2 5720   0.717   2.542   5.413 -1.2748  0.1892 -0.3768
 1487SOL    HW3 5721   0.760   2.682   5.449 -0.1368 -0.2620  0.0894
 1487SOL    MW4 5722   0.709   2.628   5.404  0.4172 -0.1733  0.1371
 1488SOL     OW 5723   1.862   5.320   2.903  0.1176 -0.0042 -0.2171
 1488SOL    HW2 5724   1.857   5.241   2.849  2.6353  0.0885 -0.6671
 1488SOL    HW3 5725   1.937   5.307   2.960  0.8626  2.2123 -0.5798
 1488SOL    MW4 5726   1.871   5.308   2.903  0.5771  0.4249 -0.9879
 1489SOL     OW 5727   2.188   3.347   0.862 -0.0250 -0.5734 -0.1644
 1489SOL    HW2 5728   2.227   3.311   0.942 -0.3114 -1.0404 -0.2333
 1489SOL    HW3 5729   2.263   3.382   0.814  0.4761 -2.3074 -0.7295
 1489SOL    MW4 5730   2.203   3.347   0.866 -0.7425 -0.0138 -0.2253
 1490SOL     OW 5731   4.074   5.668   1.491 -0.2150 -0.2795 -0.7427
 1490SOL    HW2 5732   4.009   5.666   1.421 -0.8489  1.2966 -0.2268
 1490SOL    HW3 5733   4.097   5.760   1.501 -1.3732 -0.2155  2.2337
 1490SOL    MW4 5734   4.069   5.680   1.483 -0.7351  0.3874  1.1564
 1491SOL     OW 5735   3.132   3.075   3.562 -0.4452 -0.0023 -0.4507
 1491SOL    HW2 5736   3.127   3.043   3.472 -1.0482 -0.6621 -0.1907
 1491SOL    HW3 5737   3.056   3.131   3.572 -0.4837 -0.0844 -0.2886
 1491SOL    MW4 5738   3.122   3.078   3.552 -0.2384  0.0999 -0.4584
 1492SOL     OW 5739   5.350   1.333   2.250  0.1539  0.2840 -0.0857
 1492SOL    HW2 5740   5.274   1.315   2.305  0.1979  1.1023  0.2444
 1492SOL    HW3 5741   5.366   1.250   2.205  1.3722 -1.0879  2.6544
 1492SOL    MW4 5742   5.342   1.319   2.251  0.2414 -0.2531  0.0028
 1493SOL     OW 5743   2.674   2.995   3.667  0.3627  0.2876  0.0360
 1493SOL    HW2 5744   2.745   2.944   3.705 -0.9499 -1.3911  0.3335
 1493SOL    HW3 5745   2.711   3.031   3.586  1.5987 -0.4160  0.2674
 1493SOL    MW4 5746   2.688   2.993   3.661 -0.4943  0.0886 -0.1526
 1494SOL     OW 5747   1.628   5.139   4.020 -0.0625 -0.3654  0.0248
 1494SOL    HW2 5748   1.716   5.177   4.013  0.5213 -1.4909  0.8332
 1494SOL    HW3 5749   1.583   5.194   4.084 -0.3765  0.9393 -1.2743
 1494SOL    MW4 5750   1.634   5.151   4.028 -0.4528  0.1600  0.3911
 1495SOL     OW 5751   2.800   5.294   1.155  0.6410 -0.0614 -0.2279
 1495SOL    HW2 5752   2.773   5.208   1.122 -2.7368  0.9602 -0.4897
 1495SOL    HW3 5753   2.752   5.304   1.237  1.4207  1.3636  0.0883
 1495SOL    MW4 5754   2.790   5.284   1.162  0.0958 -0.2302 -0.6650
 1496SOL     OW 5755   5.671   6.319   5.580  0.4247 -0.3147  0.2504
 1496SOL    HW2 5756   5.733   6.380   5.621 -1.1302  1.7963 -0.3672
 1496SOL    HW3 5757   5.585   6.349   5.610 -0.4479 -1.9613 -0.4610
 1496SOL    MW4 5758   5.668   6.331   5.590  0.5077 -0.5944  0.3440
 1497SOL     OW 5759   3.101   0.935   3.032 -0.7513 -0.0230  0.0389
 1497SOL    HW2 5760   3.188   0.967   3.057 -0.8740 -0.0513  0.5303
 1497SOL    HW3 5761   3.101   0.843   3.060 -0.1649 -0.6828 -1.9676
 1497SOL    MW4 5762   3.113   0.927   3.039 -0.5294 -0.7795 -0.5747
 1498SOL     OW 5763   1.232   1.037   1.748  0.0191  0.4133 -0.2659
 1498SOL    HW2 5764   1.266   0.948   1.739 -0.8472  0.1308 -0.8703
 1498SOL    HW3 5765   1.309   1.090   1.772  0.0542 -0.9338  2.9525
 1498SOL    MW4 5766   1.247   1.033   1.750  0.3084  0.0880 -0.6315
 1499SOL     OW 5767   6.350   1.381   3.429 -0.5846 -0.2555 -0.3382
 1499SOL    HW2 5768   6.350   1.477   3.434 -1.0720 -0.2477 -0.4253
 1499SOL    HW3 5769   6.352   1.353   3.520 -2.0953 -0.1440 -0.2334
 1499SOL    MW4 5770   6.350   1.390   3.442  0.1734 -0.3708 -0.4120
 1500SOL     OW 5771   2.096   2.330   0.385 -0.4653 -0.1358 -0.5355
 1500SOL    HW2 5772   2.119   2.333   0.293 -4.4899 -3.0891 -1.9162
 1500SOL    HW3 5773   2.148   2.258   0.421  1.5890  1.4298 -0.1738
 1500SOL    MW4 5774   2.106   2.321   0.378  0.5049 -0.0367  0.3424
 1501SOL     OW 5775   1.688   6.092   5.917 -0.0794 -0.2322 -0.0650
 1501SOL    HW2 5776   1.617   6.156   5.907 -1.3388 -1.3808  1.0454
 1501SOL    HW3 5777   1.643   6.008   5.930  1.4678 -0.9382  1.1538
 1501SOL    MW4 5778   1.673   6.089   5.918  0.4121 -0.3685 -0.1438
 1502SOL     OW 5779   6.286   2.686   1.000 -0.3453  0.3712 -0.0261
 1502SOL    HW2 5780   6.273   2.664   1.092 -1.0095 -1.2360 -0.4666
 1502SOL    HW3 5781   6.353   2.624   0.970 -0.8250  0.2216 -0.8395
 1502SOL    MW4 5782   6.293   2.675   1.008 -0.3213 -0.8185 -0.1059
 1503SOL     OW 5783   6.158   1.298   3.247 -0.1512  0.3728 -0.3258
 1503SOL    HW2 5784   6.213   1.313   3.324 -0.4238 -0.5865  0.0674
 1503SOL    HW3 5785   6.071   1.327   3.274 -0.0383  1.0389 -0.6458
 1503SOL    MW4 5786   6.154   1.304   3.260 -0.5601 -0.2158 -0.3014
 1504SOL     OW 5787   6.143   3.730   3.491  0.5576 -0.0005 -0.4399
 1504SOL    HW2 5788   6.178   3.642   3.495  1.7603  0.4989  0.6322
 1504SOL    HW3 5789   6.206   3.784   3.539 -1.2748  1.0708  0.8957
 1504SOL    MW4 5790   6.156   3.726   3.498  0.6339 -0.2746 -0.3128
 1505SOL     OW 5791   4.543   2.599   6.050 -0.1939  0.2948  0.1514
 1505SOL    HW2 5792   4.576   2.652   5.977  0.8373  0.9677  1.0724
 1505SOL    HW3 5793   4.449   2.618   6.052 -0.4596 -0.5602 -1.6418
 1505SOL    MW4 5794   4.535   2.608   6.040 -0.7654  0.5577  0.2538
 1506SOL     OW 5795   5.778   1.988   4.642 -0.2069  0.5174  0.1163
 1506SOL    HW2 5796   5.774   2.007   4.736  0.9549 -1.5649  0.6370
 1506SOL    HW3 5797   5.688   1.995   4.613 -0.7681  0.1034  1.6393
 1506SOL    MW4 5798   5.766   1.991   4.651  0.0300 -0.0095  0.1936
 1507SOL     OW 5799   4.726   0.034   1.798  0.3909  0.1581  0.1430
 1507SOL    HW2 5800   4.660  -0.031   1.775  2.5980 -1.8514 -0.9960
 1507SOL    HW3 5801   4.717   0.102   1.732 -1.1407  0.4295  0.5962
 1507SOL    MW4 5802   4.716   0.034   1.786 -0.5853  0.5182 -0.5234
 1508SOL     OW 5803   5.821   2.647   0.718  0.1558  0.3729 -0.0452
 1508SOL    HW2 5804   5.786   2.575   0.665  1.3936  0.0157 -0.4039
 1508SOL    HW3 5805   5.868   2.702   0.655  1.4376  0.0727  0.6229
 1508SOL    MW4 5806   5.822   2.644   0.702 -0.5186  0.0864 -0.0718
 1509SOL     OW 5807   3.710   5.549   0.547  0.0804 -0.2981  0.3785
 1509SOL    HW2 5808   3.640   5.492   0.578 -0.1324 -0.2495 -0.0002
 1509SOL    HW3 5809   3.710   5.538   0.452  0.1676  0.1783  0.3183
 1509SOL    MW4 5810   3.701   5.540   0.538 -0.2202  0.3841 -0.1601
 1510SOL     OW 5811   0.963   0.662   0.508  0.5227  0.1151 -0.1617
 1510SOL    HW2 5812   0.950   0.753   0.483  0.2069 -0.3031 -1.6298
 1510SOL    HW3 5813   1.036   0.632   0.453  0.7103 -0.4914  0.3927
 1510SOL    MW4 5814   0.971   0.670   0.497  0.1945 -0.0586 -0.4126
 1511SOL     OW 5815   1.588   0.809   1.131 -0.1885 -0.0054 -0.0341
 1511SOL    HW2 5816   1.629   0.775   1.211  1.0938 -0.0089 -0.6703
 1511SOL    HW3 5817   1.497   0.824   1.156 -0.3602 -2.0693  0.8320
 1511SOL    MW4 5818   1.582   0.806   1.145  0.0476  0.4683 -0.8238
 1512SOL     OW 5819   1.611   2.440   2.642  0.0250  0.0391  0.2719
 1512SOL    HW2 5820   1.594   2.448   2.548  0.9293 -0.2184  0.0784
 1512SOL    HW3 5821   1.630   2.347   2.655  0.1810  0.1230  0.6563
 1512SOL    MW4 5822   1.611   2.429   2.631 -0.8560 -0.3796  0.0670
 1513SOL     OW 5823   1.946   2.876   0.676  0.3369 -0.2864  0.3323
 1513SOL    HW2 5824   1.995   2.917   0.748 -1.3016  0.4009  1.1019
 1513SOL    HW3 5825   1.938   2.946   0.611 -1.9345  0.5324  1.3878
 1513SOL    MW4 5826   1.951   2.891   0.677 -0.0874  0.2516  0.2311
 1514SOL     OW 5827   3.011   2.707   1.525 -0.1964  0.2000 -0.1056
 1514SOL    HW2 5828   2.990   2.777   1.587  0.7705 -0.2471  0.7544
 1514SOL    HW3 5829   3.005   2.627   1.576  1.1551 -0.1319 -0.4223
 1514SOL    MW4 5830   3.008   2.706   1.540 -0.0840 -0.3325  0.1068
 1515SOL     OW 5831   0.130   5.954   2.943  0.1699 -0.5676  0.4320
 1515SOL    HW2 5832   0.067   5.890   2.908 -0.3661  0.3369 -0.3150
 1515SOL    HW3 5833   0.124   5.944   3.038 -3.8637  1.9161  0.6672
 1515SOL    MW4 5834   0.121   5.944   2.951  0.0141  0.0584 -0.4008
 1516SOL     OW 5835   5.327   0.256   5.577  0.1042  0.5038  1.3154
 1516SOL    HW2 5836   5.235   0.277   5.566  0.2138 -0.2421 -1.9848
 1516SOL    HW3 5837   5.329   0.162   5.592  0.3278 -0.4929 -3.4131
 1516SOL    MW4 5838   5.315   0.246   5.577  0.2525 -0.1570 -0.2497
 1517SOL     OW 5839   2.817   1.989   4.726  0.2832 -0.3311  0.3845
 1517SOL    HW2 5840   2.909   1.999   4.748  0.3067 -0.8830  0.5402
 1517SOL    HW3 5841   2.778   2.075   4.746  1.0252  0.3772 -1.0779
 1517SOL    MW4 5842   2.824   2.002   4.731 -0.1548 -0.1130 -0.4584
 1518SOL     OW 5843   1.817   5.029   1.172 -0.6318  0.4018  0.1085
 1518SOL    HW2 5844   1.817   5.115   1.213  0.1716  0.0649  0.8493
 1518SOL    HW3 5845   1.731   4.993   1.189 -1.3197  1.4200 -1.0214
 1518SOL    MW4 5846   1.806   5.036   1.179 -0.0252 -0.5305 -0.1047
 1519SOL     OW 5847   3.090   3.121   2.168  0.8455 -0.2329 -0.2749
 1519SOL    HW2 5848   3.170   3.163   2.200  0.3976  0.4228  0.0220
 1519SOL    HW3 5849   3.084   3.040   2.217 -0.3157  1.1674  2.0776
 1519SOL    MW4 5850   3.100   3.116   2.179  0.2178  0.1959 -0.2583
 1520SOL     OW 5851   4.824   5.907   3.500 -0.0363  0.4167  0.0099
 1520SOL    HW2 5852   4.802   5.869   3.585 -0.6594  2.0441  0.6073
 1520SOL    HW3 5853   4.881   5.981   3.520  2.6554 -1.1545 -1.2489
 1520SOL    MW4 5854   4.828   5.912   3.514 -0.3461  0.0290 -0.4092
 1521SOL     OW 5855   4.449   1.039   5.237  0.2748  0.3352  0.1085
 1521SOL    HW2 5856   4.467   1.028   5.143  0.4015 -0.6827  0.2330
 1521SOL    HW3 5857   4.530   1.009   5.280  0.5251  1.5524  0.5390
 1521SOL    MW4 5858   4.462   1.033   5.230 -0.5643 -0.6127 -0.0363
 1522SOL     OW 5859   4.309   5.182   1.292  0.3538  0.1701 -0.0127
 1522SOL    HW2 5860   4.324   5.096   1.252  1.9932  0.5403 -0.2664
 1522SOL    HW3 5861   4.319   5.244   1.219  0.8162  0.6764  0.4764
 1522SOL    MW4 5862   4.313   5.179   1.277 -0.0702  0.7622 -0.5373
 1523SOL     OW 5863   3.303   3.787   0.055  1.0261  0.0631 -0.5796
 1523SOL    HW2 5864   3.215   3.767   0.086  0.8550  0.2202 -0.9591
 1523SOL    HW3 5865   3.335   3.853   0.117  1.2861 -0.7572  0.1883
 1523SOL    MW4 5866   3.296   3.793   0.067  0.5217  0.1276  0.0338
 1524SOL     OW 5867   4.047   2.380   4.875 -0.0966 -0.6174 -0.2120
 1524SOL    HW2 5868   4.064   2.303   4.930 -0.1845 -0.5900 -0.1461
 1524SOL    HW3 5869   4.070   2.454   4.930 -1.1527 -0.5469  0.1554
 1524SOL    MW4 5870   4.052   2.379   4.890 -0.0038 -0.4481  0.1286
 1525SOL     OW 5871   0.951   4.487   0.341  0.8332 -0.6431 -0.4224
 1525SOL    HW2 5872   0.948   4.539   0.261  0.5983 -1.1998 -0.7794
 1525SOL    HW3 5873   1.032   4.515   0.384  1.1848 -0.6547 -1.0651
 1525SOL    MW4 5874   0.961   4.498   0.336 -0.5939  0.2604  0.2174
 1526SOL     OW 5875   0.846   5.202   3.605  0.5137  0.0122  0.3646
 1526SOL    HW2 5876   0.751   5.200   3.605  0.5101  0.0232 -0.1228
 1526SOL    HW3 5877   0.869   5.269   3.540  0.8557 -0.5460 -0.1036
 1526SOL    MW4 5878   0.837   5.210   3.597 -0.1870 -0.1647 -0.0006
 1527SOL     OW 5879   1.604   4.021   0.997  0.2458  0.0864 -0.4462
 1527SOL    HW2 5880   1.597   3.977   0.913  0.4759  1.9019 -1.4708
 1527SOL    HW3 5881   1.697   4.043   1.005  0.4055 -0.9289  0.7672
 1527SOL    MW4 5882   1.615   4.018   0.987 -0.2752  0.5980  0.3244
 1528SOL     OW 5883   5.280   0.918   0.289 -0.1267  0.5499 -0.4269
 1528SOL    HW2 5884   5.198   0.918   0.238 -0.1349 -0.4447 -0.4474
 1528SOL    HW3 5885   5.314   0.829   0.278 -0.1093  0.3166  1.2764
 1528SOL    MW4 5886   5.273   0.906   0.281 -0.0882 -0.5082 -0.1943
 1529SOL     OW 5887   5.056   2.027   0.270 -0.6226  0.0101 -0.3129
 1529SOL    HW2 5888   5.117   2.029   0.197 -2.5990 -0.8041 -2.0946
 1529SOL    HW3 5889   5.040   2.119   0.290  0.8110  0.2346 -0.0787
 1529SOL    MW4 5890   5.062   2.040   0.263  0.7801 -0.3041  0.0819
 1530SOL     OW 5891   2.578   2.055   1.529 -0.6383 -0.1232  0.1418
 1530SOL    HW2 5892   2.574   2.148   1.506  0.4267 -0.7596 -3.0478
 1530SOL    HW3 5893   2.571   2.009   1.446  2.4645 -2.8017  1.1646
 1530SOL    MW4 5894   2.576   2.061   1.515 -0.5739  0.9066  0.0512
 1531SOL     OW 5895   5.480   4.640   1.430 -0.7883  0.1572  0.0182
 1531SOL    HW2 5896   5.522   4.556   1.445  0.1815  0.6246 -0.0258
 1531SOL    HW3 5897   5.398   4.635   1.479  0.6126  0.2832  2.5556
 1531SOL    MW4 5898   5.474   4.628   1.439 -0.3297  0.8782  0.2531
 1532SOL     OW 5899   6.327   4.000   0.672 -0.3472  0.2085  0.4141
 1532SOL    HW2 5900   6.242   4.027   0.705 -0.0913  1.8523 -0.1829
 1532SOL    HW3 5901   6.385   4.073   0.691  1.0357 -1.0016  1.1005
 1532SOL    MW4 5902   6.324   4.013   0.678  0.4377 -0.5088 -0.0285
 1533SOL     OW 5903   4.352   5.517   2.645  0.0737 -0.2023 -0.2664
 1533SOL    HW2 5904   4.274   5.461   2.652 -1.2885  1.7832  1.4033
 1533SOL    HW3 5905   4.399   5.502   2.727  0.7847 -0.4155 -0.7088
 1533SOL    MW4 5906   4.348   5.507   2.657  0.4155 -0.1861  0.2264
 1534SOL     OW 5907   5.594   5.782   4.585  0.5445 -0.4762  0.2447
 1534SOL    HW2 5908   5.606   5.718   4.655  0.2545  0.4504  1.1619
 1534SOL    HW3 5909   5.580   5.865   4.630 -1.7637 -0.1897 -0.8311
 1534SOL    MW4 5910   5.594   5.784   4.600 -0.5545  0.0345 -0.4491
 1535SOL     OW 5911   5.842   0.685   3.905  0.3870 -0.1965 -0.0363
 1535SOL    HW2 5912   5.831   0.621   3.976 -0.8953  1.1704  1.0804
 1535SOL    HW3 5913   5.926   0.727   3.924  0.5088 -0.5047  0.1113
 1535SOL    MW4 5914   5.852   0.683   3.917  0.0433 -0.2351  0.1970
 1536SOL     OW 5915   4.384   6.052   1.536 -0.3496  0.0776  0.1890
 1536SOL    HW2 5916   4.397   5.967   1.579 -0.0884  0.1944  0.3428
 1536SOL    HW3 5917   4.291   6.055   1.517 -0.2667 -0.4949 -0.3425
 1536SOL    MW4 5918   4.374   6.041   1.539 -0.1801 -0.0982 -0.3579
 1537SOL     OW 5919   4.059   2.877   4.267 -0.4900  0.2508 -0.2178
 1537SOL    HW2 5920   4.022   2.791   4.284 -0.7652  0.0611 -1.6650
 1537SOL    HW3 5921   3.985   2.937   4.272 -0.5025  0.2457 -0.3344
 1537SOL    MW4 5922   4.045   2.874   4.270  0.0755 -0.2153 -0.2243
 1538SOL     OW 5923   1.905   3.039   5.139 -0.6486  0.2862  0.2969
 1538SOL    HW2 5924   1.988   3.003   5.171  0.1036  0.1389 -1.7023
 1538SOL    HW3 5925   1.843   2.967   5.146 -0.0817 -0.2595 -0.1368
 1538SOL    MW4 5926   1.908   3.025   5.145  0.3112 -0.1300 -0.0295
 1539SOL     OW 5927   2.340   4.679   3.877  0.2957 -0.2476 -0.6897
 1539SOL    HW2 5928   2.310   4.588   3.881 -1.4975  0.3286  1.5261
 1539SOL    HW3 5929   2.327   4.706   3.786  0.2872 -2.0049 -1.2365
 1539SOL    MW4 5930   2.334   4.671   3.866 -0.1169  0.2013 -0.0639
 1540SOL     OW 5931   4.126   6.278   4.969 -0.3857  0.1731 -0.1745
 1540SOL    HW2 5932   4.041   6.252   5.005  1.0045 -2.3650  1.5814
 1540SOL    HW3 5933   4.133   6.228   4.887 -1.2700  1.7736 -1.2758
 1540SOL    MW4 5934   4.116   6.268   4.963  0.0638 -0.4979 -0.0427
 1541SOL     OW 5935   1.650   2.411   3.155  0.1235  0.1326 -0.0554
 1541SOL    HW2 5936   1.598   2.406   3.074 -2.3555  1.8542  1.2876
 1541SOL    HW3 5937   1.638   2.325   3.195 -2.1311  0.5767  0.3753
 1541SOL    MW4 5938   1.641   2.399   3.150  0.6257  0.0918  0.0242
 1542SOL     OW 5939   1.369   5.089   5.139  0.2323  0.1596  0.3159
 1542SOL    HW2 5940   1.387   5.151   5.068 -1.3599 -0.8132 -0.9975
 1542SOL    HW3 5941   1.439   5.105   5.203  2.0677  0.6789 -1.7197
 1542SOL    MW4 5942   1.381   5.099   5.138  0.0506 -0.2321 -0.7302
 1543SOL     OW 5943   1.640   4.996   4.440  0.0111 -0.4498 -0.1630
 1543SOL    HW2 5944   1.568   4.933   4.432  1.7322 -2.7363  1.4758
 1543SOL    HW3 5945   1.686   4.972   4.520  2.1499  1.4620 -0.7015
 1543SOL    MW4 5946   1.636   4.985   4.449  0.1264 -0.5286 -0.0364
 1544SOL     OW 5947   6.414   3.205   2.632 -0.3731  0.0958  0.3256
 1544SOL    HW2 5948   6.485   3.243   2.579 -0.3005 -0.7402 -0.1995
 1544SOL    HW3 5949   6.350   3.175   2.568  0.0358 -1.5708  0.6445
 1544SOL    MW4 5950   6.415   3.206   2.617 -0.2514  0.7170 -0.1956
 1545SOL     OW 5951   3.194   6.241   6.114 -0.5702  0.0316 -0.0358
 1545SOL    HW2 5952   3.149   6.211   6.035  0.1397 -1.9968  0.2632
 1545SOL    HW3 5953   3.183   6.169   6.177  0.9822  0.5236  0.8639
 1545SOL    MW4 5954   3.187   6.227   6.112  0.2562  0.4796  0.0246
 1546SOL     OW 5955   0.199   1.076   1.775  0.6079 -0.1694  0.7648
 1546SOL    HW2 5956   0.259   1.117   1.713 -0.0069 -2.5450 -1.6026
 1546SOL    HW3 5957   0.255   1.027   1.836  1.1676 -0.4318  0.0502
 1546SOL    MW4 5958   0.214   1.075   1.775  0.3599  0.2833 -0.2646
 1547SOL     OW 5959   1.422   4.825   4.436  0.2037  0.2015  0.4217
 1547SOL    HW2 5960   1.490   4.764   4.409  0.2182  0.1564  0.5603
 1547SOL    HW3 5961   1.411   4.809   4.530  1.8302  2.0022  0.9732
 1547SOL    MW4 5962   1.429   4.815   4.445  0.4693  0.9112  0.0946
 1548SOL     OW 5963   6.204   0.015   6.304  0.3554  0.3274  0.2838
 1548SOL    HW2 5964   6.195   0.043   6.394  2.5055 -0.4953  0.8327
 1548SOL    HW3 5965   6.126   0.047   6.260 -1.4130 -0.3805  2.6996
 1548SOL    MW4 5966   6.193   0.023   6.310  0.2169  0.3621 -0.2640
 1549SOL     OW 5967   0.203   4.606   4.486  0.1765  0.0676  0.2527
 1549SOL    HW2 5968   0.114   4.573   4.471 -0.4489  1.5923  0.4110
 1549SOL    HW3 5969   0.251   4.581   4.407 -1.1225  1.5478 -1.0815
 1549SOL    MW4 5970   0.198   4.598   4.474 -0.7595  0.5934 -0.5364
 1550SOL     OW 5971   3.222   6.267   1.731 -0.2550 -0.0552 -0.3210
 1550SOL    HW2 5972   3.278   6.193   1.753 -0.7059 -0.4433 -0.4671
 1550SOL    HW3 5973   3.283   6.337   1.707  0.1692 -0.4443 -0.3904
 1550SOL    MW4 5974   3.238   6.266   1.731 -0.0805 -0.7674  0.7546
 1551SOL     OW 5975   0.857   5.731   0.546  0.1120 -0.3964  0.2420
 1551SOL    HW2 5976   0.811   5.665   0.496 -1.0939  0.7520 -0.2230
 1551SOL    HW3 5977   0.821   5.815   0.515  0.6843  0.4243  1.6703
 1551SOL    MW4 5978   0.846   5.734   0.535  0.4472 -0.3236  0.1155
 1552SOL     OW 5979   4.728   0.622   5.595 -0.1846 -0.6842 -0.0720
 1552SOL    HW2 5980   4.819   0.629   5.566 -0.9536  1.2391 -2.3325
 1552SOL    HW3 5981   4.720   0.686   5.666  0.4024 -1.5252  0.7803
 1552SOL    MW4 5982   4.739   0.631   5.601  0.1557 -0.4657  0.2959
 1553SOL     OW 5983   1.744   1.945   0.072  0.0753 -0.4472 -0.5079
 1553SOL    HW2 5984   1.808   1.875   0.056  1.4491  0.8859 -1.1261
 1553SOL    HW3 5985   1.659   1.904   0.058  0.8253 -2.0501 -0.5750
 1553SOL    MW4 5986   1.741   1.931   0.068  0.2059  0.1291  0.5699
 1554SOL     OW 5987   3.721   3.939   0.162  0.0703 -0.3251  0.5284
 1554SOL    HW2 5988   3.729   3.845   0.148  0.9944 -0.0974 -0.5843
 1554SOL    HW3 5989   3.632   3.951   0.198  0.1543 -1.6578  1.2118
 1554SOL    MW4 5990   3.710   3.928   0.165 -0.3023 -0.1776  0.2511
 1555SOL     OW 5991   6.187   0.077   3.729 -0.1596  0.4242 -0.0965
 1555SOL    HW2 5992   6.114   0.067   3.668 -0.5451  0.5114  0.3517
 1555SOL    HW3 5993   6.157   0.035   3.810  0.6068 -0.2983 -0.1702
 1555SOL    MW4 5994   6.173   0.070   3.732  0.2583 -0.1310  0.3769
 1556SOL     OW 5995   5.130   5.335   2.913 -0.1376 -0.5376 -0.8147
 1556SOL    HW2 5996   5.069   5.399   2.877  0.9697  0.7088 -0.5199
 1556SOL    HW3 5997   5.216   5.377   2.908  0.2754 -0.9121  1.8153
 1556SOL    MW4 5998   5.133   5.349   2.908  0.2954 -0.5648 -0.1059
 1557SOL     OW 5999   4.336   1.158   1.580  0.0380 -0.3442  0.3013
 1557SOL    HW2 6000   4.344   1.247   1.616 -0.6546  0.1022 -0.6279
 1557SOL    HW3 6001   4.406   1.109   1.624 -1.5449 -0.1762  3.2613
 1557SOL    MW4 6002   4.346   1.163   1.591 -0.2968 -0.0305 -0.1204
 1558SOL     OW 6003   5.433   0.600   2.287  0.6658  0.8651 -0.3051
 1558SOL    HW2 6004   5.517   0.562   2.312 -0.3579 -0.6421  0.9824
 1558SOL    HW3 6005   5.432   0.596   2.192  2.0699  0.9757 -0.3427
 1558SOL    MW4 6006   5.444   0.595   2.278 -0.6113  0.4344 -0.6456
 1559SOL     OW 6007   4.156   5.975   5.278 -0.1222 -0.2432  0.1276
 1559SOL    HW2 6008   4.068   5.956   5.309  0.6080  1.3239  3.7891
 1559SOL    HW3 6009   4.208   5.982   5.358  2.9495  0.6692 -1.7730
 1559SOL    MW4 6010   4.151   5.974   5.293 -0.2826  0.5541 -0.7548
 1560SOL     OW 6011   5.696   5.106   6.206 -0.0946  0.6381 -0.2343
 1560SOL    HW2 6012   5.645   5.062   6.274  1.0750 -0.2434  0.1160
 1560SOL    HW3 6013   5.657   5.076   6.124  1.4276 -2.2345 -0.0773
 1560SOL    MW4 6014   5.684   5.096   6.204  0.3133  0.6612 -0.0167
 1561SOL     OW 6015   0.054   2.772   2.484  0.0509 -0.0330  0.3120
 1561SOL    HW2 6016   0.110   2.799   2.557 -1.0287  0.0177  1.1552
 1561SOL    HW3 6017   0.092   2.815   2.407  1.0170  0.1846  0.8957
 1561SOL    MW4 6018   0.066   2.782   2.484 -0.0525 -0.7546 -0.6951
 1562SOL     OW 6019   3.061   2.616   2.718  0.6021  0.2929  0.7195
 1562SOL    HW2 6020   2.967   2.616   2.701  0.8594  0.4472 -0.8687
 1562SOL    HW3 6021   3.069   2.582   2.807 -0.8232 -1.9901  0.0645
 1562SOL    MW4 6022   3.049   2.612   2.727 -0.4419  0.1254 -0.1470
 1563SOL     OW 6023   4.519   1.792   5.310 -0.1327 -0.3023  0.7819
 1563SOL    HW2 6024   4.479   1.825   5.230  1.3611 -0.5547 -0.1153
 1563SOL    HW3 6025   4.471   1.834   5.381  0.6222  2.5439 -0.2736
 1563SOL    MW4 6026   4.507   1.802   5.309 -0.6472  0.3513 -0.3314
 1564SOL     OW 6027   4.964   3.498   0.479 -0.4160  0.8274  0.0868
 1564SOL    HW2 6028   4.948   3.593   0.481 -1.1071  0.7877 -1.5630
 1564SOL    HW3 6029   4.921   3.469   0.398  0.7587 -0.7157 -0.0172
 1564SOL    MW4 6030   4.956   3.507   0.469 -0.1236 -0.2160 -0.2467
 1565SOL     OW 6031   4.757   1.373   4.838  0.2153 -0.6275 -0.2670
 1565SOL    HW2 6032   4.775   1.465   4.821  1.9439 -1.0937 -1.1594
 1565SOL    HW3 6033   4.769   1.330   4.754  1.8060 -1.9863  0.6005
 1565SOL    MW4 6034   4.761   1.379   4.825  0.5034 -0.1313  0.0250
 1566SOL     OW 6035   4.616   0.485   2.223  0.8260  0.6377 -0.6731
 1566SOL    HW2 6036   4.529   0.454   2.199 -0.3565  2.9686  0.2697
 1566SOL    HW3 6037   4.674   0.446   2.157 -0.7980 -1.4200 -1.0108
 1566SOL    MW4 6038   4.612   0.476   2.211  0.4724 -0.5063 -0.0445
 1567SOL     OW 6039   6.339   1.650   3.456  0.0486  0.4395  0.2356
 1567SOL    HW2 6040   6.335   1.651   3.551  4.1912 -0.5693  0.6014
 1567SOL    HW3 6041   6.348   1.743   3.431  1.6462  0.5650  1.1346
 1567SOL    MW4 6042   6.340   1.663   3.465  0.2850 -0.1127 -0.4117
 1568SOL     OW 6043   2.970   3.268   2.518  0.2326  0.2647  0.2244
 1568SOL    HW2 6044   2.995   3.178   2.497 -1.8753 -0.3071 -0.0918
 1568SOL    HW3 6045   2.948   3.266   2.611  0.4776  0.5256  0.2894
 1568SOL    MW4 6046   2.970   3.256   2.527  0.3032 -0.3891  0.0942
 1569SOL     OW 6047   2.281   0.717   0.654 -0.0545  0.1339  0.3837
 1569SOL    HW2 6048   2.348   0.721   0.586  1.0104 -0.7948  1.3363
 1569SOL    HW3 6049   2.263   0.624   0.665  0.3231  0.2096  1.8567
 1569SOL    MW4 6050   2.287   0.705   0.647  0.3203 -0.2153  0.4374
 1570SOL     OW 6051   4.742   3.277   3.742 -0.0420 -0.1860 -0.2680
 1570SOL    HW2 6052   4.662   3.229   3.762  0.5198 -0.6178  1.0374
 1570SOL    HW3 6053   4.717   3.369   3.746 -0.3659 -0.3052  0.7175
 1570SOL    MW4 6054   4.729   3.283   3.745 -0.2846 -0.2025  0.0524
 1571SOL     OW 6055   4.836   5.998   6.290 -0.5362 -0.5585 -0.2886
 1571SOL    HW2 6056   4.905   5.944   6.330 -0.1543 -0.2494 -0.5158
 1571SOL    HW3 6057   4.809   5.949   6.213  0.5018  0.0166 -1.0449
 1571SOL    MW4 6058   4.842   5.984   6.285  1.1100  0.1944 -0.5032
 1572SOL     OW 6059   2.241   5.690   5.946 -0.3734 -0.0563 -0.3353
 1572SOL    HW2 6060   2.240   5.766   6.005 -2.0120 -1.1730  1.1784
 1572SOL    HW3 6061   2.211   5.617   6.000 -1.4617 -1.2588 -2.4248
 1572SOL    MW4 6062   2.237   5.690   5.961 -0.4361 -0.9269  0.5773
 1573SOL     OW 6063   3.515   6.026   5.264 -0.2081 -0.0948 -0.2871
 1573SOL    HW2 6064   3.493   6.101   5.208 -0.7256  0.2872  0.4045
 1573SOL    HW3 6065   3.578   5.976   5.214 -0.9376  0.0379 -1.3754
 1573SOL    MW4 6066   3.520   6.029   5.250  0.3762 -0.2885 -0.6957
 1574SOL     OW 6067   6.031   3.712   0.890  0.2736  0.1504  0.1265
 1574SOL    HW2 6068   5.943   3.717   0.928  0.7272 -1.2563  1.4519
 1574SOL    HW3 6069   6.017   3.727   0.796 -1.2289  0.9974  0.4443
 1574SOL    MW4 6070   6.017   3.715   0.883 -0.5017 -0.4084  0.5042
 1575SOL     OW 6071   0.182   6.273   1.526  0.1829 -0.0455  0.0581
 1575SOL    HW2 6072   0.163   6.314   1.441  0.0134  0.8128  0.4937
 1575SOL    HW3 6073   0.115   6.310   1.585  2.8647  2.8684  1.5931
 1575SOL    MW4 6074   0.170   6.284   1.522  0.4265 -0.4819 -0.7738
 1576SOL     OW 6075   1.386   0.761   0.498  0.1346  0.1809 -0.3910
 1576SOL    HW2 6076   1.379   0.857   0.502  0.8275  0.2443 -0.4760
 1576SOL    HW3 6077   1.311   0.733   0.445  0.1361  0.7071 -0.6762
 1576SOL    MW4 6078   1.375   0.770   0.492 -0.1782  0.1962  0.2416
 1577SOL     OW 6079   4.795   6.023   1.668  0.0974  0.2034  0.0128
 1577SOL    HW2 6080   4.724   6.079   1.700 -0.1594  0.7939 -1.5344
 1577SOL    HW3 6081   4.821   6.061   1.585  0.2347 -1.7007 -0.8799
 1577SOL    MW4 6082   4.789   6.035   1.661  0.1498  0.3204 -0.0914
 1578SOL     OW 6083   4.867   5.167   0.085 -0.2081  0.3013 -0.0386
 1578SOL    HW2 6084   4.855   5.178   0.180  0.3889 -0.4277  0.1320
 1578SOL    HW3 6085   4.903   5.079   0.076  0.8865  0.8108 -0.8473
 1578SOL    MW4 6086   4.870   5.157   0.097 -0.9367  0.2957 -0.0285
 1579SOL     OW 6087   5.257   3.532   3.186 -0.1570 -0.4444 -0.3489
 1579SOL    HW2 6088   5.240   3.453   3.237  2.7159 -1.1782 -0.3366
 1579SOL    HW3 6089   5.308   3.588   3.245 -1.1678  0.9285 -0.7462
 1579SOL    MW4 6090   5.262   3.529   3.200 -0.0200 -0.7535  0.3990
 1580SOL     OW 6091   3.395   5.403   4.258  0.4736  0.1069  0.1683
 1580SOL    HW2 6092   3.483   5.365   4.264  0.5093  0.0811 -0.5083
 1580SOL    HW3 6093   3.337   5.327   4.250  0.2467  0.0417  1.9051
 1580SOL    MW4 6094   3.399   5.388   4.258 -0.3379  0.1096 -0.1374
 1581SOL     OW 6095   3.473   2.388   2.454 -0.8910  0.1300 -0.4263
 1581SOL    HW2 6096   3.466   2.436   2.536 -1.7525 -0.9222  0.1323
 1581SOL    HW3 6097   3.389   2.344   2.444  0.1599 -1.9827 -0.4708
 1581SOL    MW4 6098   3.461   2.389   2.463  0.7539  0.7930 -0.3807
 1582SOL     OW 6099   5.793   3.387   3.589  0.0531 -0.6377 -0.2051
 1582SOL    HW2 6100   5.834   3.466   3.625  1.0608 -1.7847  1.3058
 1582SOL    HW3 6101   5.749   3.347   3.664 -0.4171 -1.5293 -0.9343
 1582SOL    MW4 6102   5.793   3.392   3.604 -0.5693  1.0704 -0.1463
 1583SOL     OW 6103   0.452   0.836   3.472 -0.5934 -0.1847 -0.1411
 1583SOL    HW2 6104   0.539   0.818   3.506 -1.3486 -1.7094  1.0996
 1583SOL    HW3 6105   0.467   0.884   3.391  1.3544  0.4152  0.5407
 1583SOL    MW4 6106   0.465   0.840   3.466 -0.0338 -0.9630  0.6278
 1584SOL     OW 6107   4.881   0.843   1.034  0.1134 -0.1756  0.0271
 1584SOL    HW2 6108   4.945   0.831   1.104  1.4595 -0.8430 -1.2590
 1584SOL    HW3 6109   4.923   0.904   0.974 -0.5259 -0.4926 -0.7552
 1584SOL    MW4 6110   4.895   0.850   1.035  0.2649  0.2028 -0.3206
 1585SOL     OW 6111   3.879   1.576   4.027 -0.4175 -0.1765 -0.3735
 1585SOL    HW2 6112   3.794   1.619   4.017 -0.1942  0.2022 -0.6869
 1585SOL    HW3 6113   3.872   1.496   3.973  0.5293  1.4911 -3.1910
 1585SOL    MW4 6114   3.867   1.571   4.018 -0.2334 -0.2437 -0.1418
 1586SOL     OW 6115   2.486   4.442   6.211 -0.0997 -0.3808  0.4638
 1586SOL    HW2 6116   2.540   4.515   6.241  0.1264  0.3878 -1.6252
 1586SOL    HW3 6117   2.400   4.481   6.193 -0.6773 -1.1178  1.5153
 1586SOL    MW4 6118   2.482   4.457   6.212 -0.2287 -0.3936 -0.2332
 1587SOL     OW 6119   3.684   2.069   5.010  0.0093  0.4835 -0.2674
 1587SOL    HW2 6120   3.636   2.129   5.067  0.7319 -0.5998  1.5853
 1587SOL    HW3 6121   3.730   2.125   4.948 -1.2468  1.6861 -0.1366
 1587SOL    MW4 6122   3.684   2.084   5.009  0.2130  0.5664 -0.7405
 1588SOL     OW 6123   2.752   1.610   3.037  0.1610  0.2527 -0.6321
 1588SOL    HW2 6124   2.839   1.635   3.007  0.7818 -1.0543 -0.0176
 1588SOL    HW3 6125   2.749   1.640   3.128 -1.0619  2.6504 -1.3793
 1588SOL    MW4 6126   2.763   1.617   3.045  0.2115  0.3696  0.0109
 1589SOL     OW 6127   3.895   4.095   4.158  0.3277  0.2919  0.1663
 1589SOL    HW2 6128   3.972   4.146   4.134  0.5327 -0.1356 -0.0990
 1589SOL    HW3 6129   3.869   4.129   4.243 -0.1751  1.5644 -0.4685
 1589SOL    MW4 6130   3.901   4.106   4.166 -0.2790  0.4203  0.0269
 1590SOL     OW 6131   2.887   5.317   4.689 -0.2517 -0.1591  0.2991
 1590SOL    HW2 6132   2.824   5.300   4.619 -1.3138  0.4957  1.0644
 1590SOL    HW3 6133   2.866   5.405   4.719 -0.0272 -0.5517  1.6544
 1590SOL    MW4 6134   2.876   5.326   4.684  0.2404  0.1236  0.0255
 1591SOL     OW 6135   6.023   3.390   5.111 -0.2660 -0.4229  0.2651
 1591SOL    HW2 6136   6.048   3.442   5.188 -1.0936 -1.3428  1.1886
 1591SOL    HW3 6137   6.086   3.414   5.044  0.4068  0.4981  1.2029
 1591SOL    MW4 6138   6.034   3.400   5.112  0.2449  0.6396 -0.1382
 1592SOL     OW 6139   4.192   1.696   4.995 -0.1886  0.1436  0.2701
 1592SOL    HW2 6140   4.249   1.737   5.060 -0.7079  0.0057  0.8209
 1592SOL    HW3 6141   4.159   1.617   5.038 -0.7524  0.1933 -0.0560
 1592SOL    MW4 6142   4.195   1.691   5.010  0.0294 -0.0383  0.1647
 1593SOL     OW 6143   4.487   2.675   2.703 -0.0328  0.4949 -0.1282
 1593SOL    HW2 6144   4.502   2.654   2.611  1.3450 -1.8370  0.5452
 1593SOL    HW3 6145   4.541   2.753   2.719  0.2184  0.5422 -1.1329
 1593SOL    MW4 6146   4.496   2.683   2.693 -0.2979  0.1824 -0.2835
 1594SOL     OW 6147   2.708   4.548   2.095 -0.3995 -0.2260  0.0842
 1594SOL    HW2 6148   2.717   4.619   2.158  2.1739 -0.5323  0.1658
 1594SOL    HW3 6149   2.786   4.555   2.039 -1.0938 -1.7779 -1.1548
 1594SOL    MW4 6150   2.720   4.558   2.096  0.7430 -0.6241  0.4410
 1595SOL     OW 6151   3.055   3.479   4.035  0.1751 -0.0010 -0.1621
 1595SOL    HW2 6152   3.104   3.539   3.978  2.1164 -1.6368 -0.3101
 1595SOL    HW3 6153   3.016   3.536   4.101 -1.3318  1.8476 -2.4629
 1595SOL    MW4 6154   3.056   3.495   4.036  0.1182  0.0885 -0.1221
 1596SOL     OW 6155   5.928   5.744   5.778 -0.1193  0.4446  0.3329
 1596SOL    HW2 6156   5.958   5.729   5.867  0.1024  1.3357  0.4164
 1596SOL    HW3 6157   5.988   5.692   5.724 -1.3664 -1.5739  0.7907
 1596SOL    MW4 6158   5.940   5.735   5.782  0.1281  0.1256 -0.0284
 1597SOL     OW 6159   4.258   1.400   4.471 -0.3024 -0.1605 -0.1659
 1597SOL    HW2 6160   4.322   1.461   4.508  0.9058 -0.8297 -1.1184
 1597SOL    HW3 6161   4.300   1.365   4.393 -1.8242 -0.6503 -0.7925
 1597SOL    MW4 6162   4.272   1.404   4.466 -0.2250  0.2146  0.3886
 1598SOL     OW 6163   4.930   1.960   6.106  0.5737  0.0553 -1.0917
 1598SOL    HW2 6164   4.955   2.016   6.032  0.0478 -0.8385 -1.9689
 1598SOL    HW3 6165   4.958   1.872   6.080  2.1656 -0.0032  0.6257
 1598SOL    MW4 6166   4.937   1.956   6.093  0.0424 -0.0375  0.5378
 1599SOL     OW 6167   4.617   1.531   6.279  0.0562  0.5992  0.1811
 1599SOL    HW2 6168   4.598   1.605   6.221 -0.5527  0.2628 -0.0506
 1599SOL    HW3 6169   4.532   1.505   6.314  0.3791  0.6212  1.0195
 1599SOL    MW4 6170   4.603   1.538   6.276 -0.6337 -0.0143 -0.3336
 1600SOL     OW 6171   1.067   2.336   3.875 -0.1433  0.2392 -0.2089
 1600SOL    HW2 6172   1.032   2.383   3.799  2.1538  3.0880  0.3352
 1600SOL    HW3 6173   1.139   2.283   3.839 -0.5475 -0.2344 -0.3297
 1600SOL    MW4 6174   1.072   2.335   3.860 -0.4087  0.0470 -0.4306
 1601SOL     OW 6175   4.051   5.198   4.981 -0.4421  0.2363  0.3145
 1601SOL    HW2 6176   4.076   5.133   4.915  1.4599 -0.0734  1.2846
 1601SOL    HW3 6177   4.089   5.280   4.950  1.3009 -0.0999  1.4557
 1601SOL    MW4 6178   4.059   5.200   4.968 -0.2728 -0.0263  0.4023
 1602SOL     OW 6179   1.915   1.621   0.896  0.6940 -0.1451  0.3410
 1602SOL    HW2 6180   1.955   1.571   0.967 -0.3242 -0.8446  0.4448
 1602SOL    HW3 6181   1.914   1.561   0.822  0.3947  0.0808  0.1602
 1602SOL    MW4 6182   1.920   1.607   0.896  0.1560  0.6937 -0.1931
 1603SOL     OW 6183   2.449   0.259   3.760  0.1629 -0.4004  0.3059
 1603SOL    HW2 6184   2.442   0.277   3.666  1.0645 -0.7998  0.1484
 1603SOL    HW3 6185   2.498   0.334   3.795 -0.3292 -0.1623  0.4963
 1603SOL    MW4 6186   2.454   0.271   3.752 -0.2674 -0.0326 -0.0757
 1604SOL     OW 6187   1.061   5.123   1.329 -0.1610  0.2643  0.4262
 1604SOL    HW2 6188   1.063   5.196   1.392 -2.0749  0.1178  0.7043
 1604SOL    HW3 6189   1.109   5.053   1.373 -0.7748  0.4286  1.4039
 1604SOL    MW4 6190   1.068   5.124   1.343 -0.3714 -0.0218 -0.1743
 1605SOL     OW 6191   4.339   1.576   0.789  0.0463 -0.2787  0.1233
 1605SOL    HW2 6192   4.333   1.538   0.876  2.1230  3.3237  2.1105
 1605SOL    HW3 6193   4.422   1.543   0.754  0.6713  0.4705  0.8388
 1605SOL    MW4 6194   4.349   1.567   0.796 -0.6130  0.2843  0.6288
 1606SOL     OW 6195   5.351   1.634   2.529  0.0562 -0.3725  0.2189
 1606SOL    HW2 6196   5.409   1.567   2.567 -0.4683 -0.6407  0.5559
 1606SOL    HW3 6197   5.282   1.584   2.486  0.0352 -0.0492 -0.1304
 1606SOL    MW4 6198   5.350   1.618   2.528  0.1278  0.0377 -0.4065
 1607SOL     OW 6199   5.794   3.811   5.814 -0.2244  0.5192 -0.5679
 1607SOL    HW2 6200   5.858   3.869   5.855 -0.0621 -0.0727  0.0237
 1607SOL    HW3 6201   5.709   3.846   5.842 -0.1458 -1.5389  2.7744
 1607SOL    MW4 6202   5.791   3.824   5.823  0.1110 -0.2335 -0.3475
 1608SOL     OW 6203   3.671   0.092   0.701  0.2422 -0.0552  0.2789
 1608SOL    HW2 6204   3.658   0.034   0.777  0.9192 -0.7753 -0.1409
 1608SOL    HW3 6205   3.667   0.034   0.625  0.8460  0.4659 -0.1577
 1608SOL    MW4 6206   3.669   0.077   0.701  0.1338 -0.7924 -0.0701
 1609SOL     OW 6207   1.251   6.152   3.194 -0.3618 -0.5016 -0.5760
 1609SOL    HW2 6208   1.342   6.123   3.205  0.3537  1.0106 -2.0573
 1609SOL    HW3 6209   1.206   6.075   3.160 -0.0163 -1.7208  1.5705
 1609SOL    MW4 6210   1.257   6.138   3.191 -0.3855 -0.3787  0.1544
 1610SOL     OW 6211   2.237   5.396   0.678 -0.1595 -0.0532 -0.9597
 1610SOL    HW2 6212   2.282   5.337   0.618  0.0345 -0.3447 -0.5334
 1610SOL    HW3 6213   2.294   5.473   0.685  0.9697 -0.9761  0.6170
 1610SOL    MW4 6214   2.250   5.399   0.671  0.1591  0.1872 -0.0000
 1611SOL     OW 6215   4.301   6.270   0.793  0.0245 -0.2211  0.2232
 1611SOL    HW2 6216   4.312   6.342   0.855  3.2179  0.5131 -0.9823
 1611SOL    HW3 6217   4.295   6.192   0.848 -1.4243  0.7281  1.4998
 1611SOL    MW4 6218   4.301   6.269   0.808  0.1442  0.0176  0.0470
 1612SOL     OW 6219   0.651   1.183   1.489  0.2631  0.4791 -0.1605
 1612SOL    HW2 6220   0.630   1.155   1.400  0.3889  0.8173 -0.2962
 1612SOL    HW3 6221   0.737   1.144   1.507  0.3716  0.6602 -0.2945
 1612SOL    MW4 6222   0.660   1.174   1.480  0.1620  0.3258 -0.2565
 1613SOL     OW 6223   2.428   5.136   2.063 -0.7486  0.4098  0.1146
 1613SOL    HW2 6224   2.502   5.080   2.086 -0.4779  0.0263 -1.5142
 1613SOL    HW3 6225   2.460   5.188   1.990 -1.5449  1.4994  0.5223
 1613SOL    MW4 6226   2.442   5.135   2.056  0.0114  0.3468 -0.1850
 1614SOL     OW 6227   1.689   3.185   4.363 -0.4635 -0.0732 -0.0268
 1614SOL    HW2 6228   1.732   3.227   4.438 -0.4275  0.1616 -0.1802
 1614SOL    HW3 6229   1.604   3.229   4.357 -0.1709  0.4115 -0.5818
 1614SOL    MW4 6230   1.683   3.196   4.372 -0.2545 -0.5432 -0.0541
 1615SOL     OW 6231   0.926   3.773   4.942 -0.1433 -0.0268  0.1402
 1615SOL    HW2 6232   0.905   3.863   4.967 -0.5784  0.0548 -0.4937
 1615SOL    HW3 6233   1.002   3.782   4.884  0.8129 -0.2080  1.3374
 1615SOL    MW4 6234   0.933   3.786   4.938 -0.3877 -0.2784 -0.6721
 1616SOL     OW 6235   0.705   2.253   0.988 -0.5593  0.1462  0.4640
 1616SOL    HW2 6236   0.719   2.219   1.077  0.3471 -1.5972 -0.3044
 1616SOL    HW3 6237   0.775   2.316   0.975  0.2089 -0.6862  0.4801
 1616SOL    MW4 6238   0.716   2.256   0.998 -0.3968 -0.3656 -0.1901
 1617SOL     OW 6239   3.542   4.832   3.737  1.1630 -0.2371 -0.1480
 1617SOL    HW2 6240   3.541   4.747   3.694  0.8828  0.3147 -1.2536
 1617SOL    HW3 6241   3.558   4.895   3.667 -0.5803  0.7975  0.3132
 1617SOL    MW4 6242   3.544   4.830   3.722  0.3228 -0.0800 -0.2791
 1618SOL     OW 6243   1.386   6.155   4.536  0.2248 -0.3772 -0.0622
 1618SOL    HW2 6244   1.360   6.247   4.538 -0.9654 -0.7051  0.4820
 1618SOL    HW3 6245   1.480   6.156   4.556  0.0338  0.6536  0.8851
 1618SOL    MW4 6246   1.395   6.167   4.539  0.1514  0.5109  0.9958
 1619SOL     OW 6247   5.319   5.582   5.377  0.2034  0.0317  0.0821
 1619SOL    HW2 6248   5.359   5.519   5.438 -0.2794  0.1029  0.4782
 1619SOL    HW3 6249   5.357   5.560   5.292 -0.7280 -1.4679  0.0240
 1619SOL    MW4 6250   5.329   5.571   5.374  0.4050 -0.7976 -0.1422
 1620SOL     OW 6251   1.889   0.522   1.038 -0.2876  0.0393 -0.2996
 1620SOL    HW2 6252   1.882   0.524   1.133 -2.3547  0.7834 -0.4248
 1620SOL    HW3 6253   1.798   0.523   1.007  0.3242 -0.9500 -2.2715
 1620SOL    MW4 6254   1.876   0.522   1.046  0.0650  0.5338  0.0203
 1621SOL     OW 6255   0.396   4.441   1.650  0.4207 -0.0491  0.0554
 1621SOL    HW2 6256   0.464   4.488   1.697  0.3707  1.1039 -0.9790
 1621SOL    HW3 6257   0.437   4.359   1.624  1.5641  0.7840 -0.8665
 1621SOL    MW4 6258   0.410   4.436   1.653 -0.2080  0.0944  0.3126
 1622SOL     OW 6259   1.155   5.588   5.689 -0.0361  0.0111  0.0783
 1622SOL    HW2 6260   1.132   5.549   5.773 -0.0197 -0.9917 -0.3702
 1622SOL    HW3 6261   1.173   5.513   5.631  0.3193  0.6867 -0.7143
 1622SOL    MW4 6262   1.155   5.573   5.692 -0.3324 -0.1487 -0.3113
 1623SOL     OW 6263   2.083   0.734   1.088 -0.3385  0.6969  0.1071
 1623SOL    HW2 6264   2.030   0.811   1.070 -0.5949  0.5537  0.2559
 1623SOL    HW3 6265   2.032   0.661   1.054  1.1786  0.8288 -2.7536
 1623SOL    MW4 6266   2.070   0.735   1.082  0.0316  0.7846 -0.1514
 1624SOL     OW 6267   0.786   4.847   4.868  0.5602  0.1539  0.1704
 1624SOL    HW2 6268   0.822   4.760   4.886  0.2257 -0.0589 -0.2002
 1624SOL    HW3 6269   0.833   4.877   4.790  1.6073  0.8496  1.0343
 1624SOL    MW4 6270   0.797   4.839   4.860 -0.3619  0.1412 -0.1951
 1625SOL     OW 6271   6.347   0.197   1.960  0.5049  0.3082  0.4636
 1625SOL    HW2 6272   6.305   0.169   1.879  0.1929 -0.2952  0.8314
 1625SOL    HW3 6273   6.426   0.143   1.966  1.9285  2.0860 -0.7214
 1625SOL    MW4 6274   6.352   0.186   1.950 -0.5023  0.3733  0.3863
 1626SOL     OW 6275   1.956   3.232   6.173 -0.3917  0.2901  1.0299
 1626SOL    HW2 6276   1.882   3.276   6.132 -0.1416 -0.8714 -0.8248
 1626SOL    HW3 6277   1.991   3.175   6.103  4.0917  2.9028  0.7679
 1626SOL    MW4 6278   1.951   3.230   6.158 -0.4685  0.0401  0.1196
 1627SOL     OW 6279   4.397   3.683   2.616  0.1279 -0.2604  0.5224
 1627SOL    HW2 6280   4.360   3.752   2.670  0.8709  0.0622  0.6317
 1627SOL    HW3 6281   4.490   3.681   2.640 -0.0356 -1.8522  1.1397
 1627SOL    MW4 6282   4.404   3.692   2.626 -0.0102  0.3537 -0.3049
 1628SOL     OW 6283   2.700   4.282   3.646 -0.8628  0.3556 -0.2032
 1628SOL    HW2 6284   2.731   4.217   3.584 -0.9046 -0.2726  0.4205
 1628SOL    HW3 6285   2.653   4.232   3.713 -1.7557  1.1181 -0.2325
 1628SOL    MW4 6286   2.698   4.267   3.647 -0.3970  0.2950  0.0767
 1629SOL     OW 6287   2.968   5.289   1.788 -0.1389  0.4750  0.0092
 1629SOL    HW2 6288   2.873   5.275   1.789 -0.3564  1.8272  1.1006
 1629SOL    HW3 6289   2.986   5.341   1.867  1.8620 -1.8070  1.1783
 1629SOL    MW4 6290   2.958   5.294   1.798 -0.0220 -0.2388 -0.2877
 1630SOL     OW 6291   5.238   2.049   1.267  0.2290  0.3796  0.0273
 1630SOL    HW2 6292   5.235   1.963   1.308 -3.3434  0.8749  1.1717
 1630SOL    HW3 6293   5.212   2.033   1.176 -0.8098  0.2558  0.3348
 1630SOL    MW4 6294   5.234   2.036   1.260  0.1695  0.4040 -0.2742
 1631SOL     OW 6295   3.742   6.399   3.143  0.0030 -0.4515 -0.6656
 1631SOL    HW2 6296   3.780   6.332   3.086  1.5281 -0.0180 -0.2160
 1631SOL    HW3 6297   3.714   6.351   3.221  0.8296 -0.6269 -0.4635
 1631SOL    MW4 6298   3.744   6.384   3.145  0.0305  0.1270 -0.4825
 1632SOL     OW 6299   6.062   5.040   1.025 -0.1125 -0.0326  0.0740
 1632SOL    HW2 6300   6.017   5.088   1.094 -0.5477  1.7030 -1.3293
 1632SOL    HW3 6301   6.118   5.106   0.984 -1.1105 -0.5405 -2.2699
 1632SOL    MW4 6302   6.064   5.055   1.029 -0.3805 -0.1534 -0.0134
 1633SOL     OW 6303   4.725   2.356   3.488  0.3966 -0.0023  0.1870
 1633SOL    HW2 6304   4.684   2.315   3.412  0.6902  1.8036 -1.0137
 1633SOL    HW3 6305   4.733   2.286   3.552 -1.2618 -1.2291 -0.8696
 1633SOL    MW4 6306   4.721   2.342   3.486 -0.1456 -0.5165  0.6621
 1634SOL     OW 6307   5.089   0.672   3.418  0.1989 -0.8608 -0.5830
 1634SOL    HW2 6308   5.089   0.757   3.375 -2.5282 -0.0701  0.8063
 1634SOL    HW3 6309   5.066   0.610   3.349 -0.7835 -0.0657 -0.9837
 1634SOL    MW4 6310   5.086   0.675   3.403 -0.0394 -0.0776 -0.0137
 1635SOL     OW 6311   1.019   0.849   6.422  0.0676 -0.0261  0.2730
 1635SOL    HW2 6312   0.977   0.919   6.372 -0.3498 -1.0442 -0.8479
 1635SOL    HW3 6313   1.062   0.894   6.494 -0.8803  1.3063  0.0546
 1635SOL    MW4 6314   1.019   0.865   6.425 -0.2033 -0.0648 -0.9594
 1636SOL     OW 6315   5.134   3.637   0.031  0.0181 -0.1346  0.1905
 1636SOL    HW2 6316   5.166   3.647   0.120 -0.2120  2.0496  0.0697
 1636SOL    HW3 6317   5.045   3.604   0.041  0.2153 -0.5278  0.7203
 1636SOL    MW4 6318   5.127   3.634   0.044  0.1402  0.3006 -0.0868
 1637SOL     OW 6319   6.196   0.605   5.314 -0.0520  0.1229  0.0787
 1637SOL    HW2 6320   6.236   0.668   5.374  0.5628 -1.1225  1.0153
 1637SOL    HW3 6321   6.111   0.643   5.293  0.9511  2.1058 -0.7596
 1637SOL    MW4 6322   6.190   0.619   5.319 -0.3034  0.7103 -0.6803
 1638SOL     OW 6323   2.387   2.086   5.328  0.0725  0.0933  0.0952
 1638SOL    HW2 6324   2.327   2.144   5.281  0.7921  2.3146  1.7528
 1638SOL    HW3 6325   2.473   2.123   5.314  0.9650 -2.2431 -1.0725
 1638SOL    MW4 6326   2.390   2.098   5.320 -0.4579  0.3888 -0.0304
 1639SOL     OW 6327   2.714   6.100   1.830  0.6624 -0.2004 -0.2753
 1639SOL    HW2 6328   2.787   6.070   1.776 -1.6033  0.0539 -3.8145
 1639SOL    HW3 6329   2.704   6.193   1.808  0.8712  0.5102  2.2784
 1639SOL    MW4 6330   2.722   6.108   1.820 -0.0362 -0.1944 -0.7654
 1640SOL     OW 6331   5.085   1.456   2.820 -0.2236 -0.3043  0.2246
 1640SOL    HW2 6332   5.012   1.471   2.879 -1.4414 -1.4780 -0.9074
 1640SOL    HW3 6333   5.058   1.496   2.737 -0.0861 -1.6622 -0.5140
 1640SOL    MW4 6334   5.072   1.463   2.817 -0.0858 -0.0902 -0.1992
 1641SOL     OW 6335   4.517   4.665   3.087  0.2846  0.4095  0.4869
 1641SOL    HW2 6336   4.570   4.704   3.017  1.1381 -0.3529  0.6956
 1641SOL    HW3 6337   4.508   4.573   3.063 -0.6057  0.4353  0.6770
 1641SOL    MW4 6338   4.523   4.658   3.075  0.1995 -0.2047  0.4700
 1642SOL     OW 6339   0.858   1.437   0.145 -0.1265  0.2312  0.2035
 1642SOL    HW2 6340   0.828   1.375   0.211  0.5436 -1.0562 -0.6581
 1642SOL    HW3 6341   0.833   1.398   0.062  1.7921  0.2540 -0.4394
 1642SOL    MW4 6342   0.851   1.424   0.143 -0.2009  0.6801  0.4438
 1643SOL     OW 6343   3.405   5.175   3.694 -0.1304 -0.2886 -0.1592
 1643SOL    HW2 6344   3.439   5.227   3.621  0.3566  0.3982  0.5422
 1643SOL    HW3 6345   3.315   5.206   3.706 -0.3563 -0.7010 -0.7265
 1643SOL    MW4 6346   3.397   5.186   3.686  0.0369 -0.6992  0.1513
 1644SOL     OW 6347   4.992   3.360   0.772  0.7021 -0.1253 -0.0388
 1644SOL    HW2 6348   5.039   3.338   0.852 -1.5256 -1.1460  1.0876
 1644SOL    HW3 6349   4.947   3.442   0.794  0.9983  0.2066 -0.6644
 1644SOL    MW4 6350   4.992   3.368   0.786  0.1169 -0.4113 -0.4566
 1645SOL     OW 6351   1.247   5.256   3.635 -0.1006  0.1369 -0.9273
 1645SOL    HW2 6352   1.244   5.348   3.661 -2.4009  0.1734 -1.1305
 1645SOL    HW3 6353   1.239   5.207   3.717 -1.2681  0.1857 -0.9885
 1645SOL    MW4 6354   1.246   5.262   3.649  0.1193  0.0772  0.4101
 1646SOL     OW 6355   6.266   3.385   2.832 -0.3163  0.3061 -0.1442
 1646SOL    HW2 6356   6.297   3.348   2.749  0.2061  0.1864  0.1029
 1646SOL    HW3 6357   6.332   3.359   2.896  0.4076  2.1716 -0.0665
 1646SOL    MW4 6358   6.279   3.376   2.830 -0.1625 -0.1922 -0.0271
 1647SOL     OW 6359   5.731   5.075   0.814 -0.2997  0.0737  0.0306
 1647SOL    HW2 6360   5.648   5.105   0.852 -2.3987 -3.0650 -1.6233
 1647SOL    HW3 6361   5.712   5.064   0.721  2.6705  1.1909 -0.8202
 1647SOL    MW4 6362   5.717   5.077   0.807 -0.0629  0.4138 -0.4310
 1648SOL     OW 6363   0.105   3.450   3.592 -0.0896  0.2665 -0.2264
 1648SOL    HW2 6364   0.059   3.442   3.509 -2.0604 -0.9864  0.8897
 1648SOL    HW3 6365   0.186   3.400   3.581 -2.1372 -3.3445 -0.2479
 1648SOL    MW4 6366   0.110   3.442   3.580 -0.1549 -0.4714  0.3376
 1649SOL     OW 6367   2.115   4.385   1.206  0.2107  0.0523  0.5999
 1649SOL    HW2 6368   2.165   4.412   1.283  0.7088  1.2089 -0.1210
 1649SOL    HW3 6369   2.168   4.411   1.131 -1.2458  0.9275 -0.1760
 1649SOL    MW4 6370   2.128   4.392   1.206 -0.1990 -0.0627 -0.4981
 1650SOL     OW 6371   0.459   2.774   5.831  0.2098  0.2437 -0.1098
 1650SOL    HW2 6372   0.425   2.835   5.897 -0.4163  0.4182 -0.5864
 1650SOL    HW3 6373   0.416   2.691   5.851 -0.7479  0.5400 -0.9018
 1650SOL    MW4 6374   0.449   2.771   5.843 -0.0995 -0.2075  0.3466
 1651SOL     OW 6375   0.789   4.310   6.379  0.4337  0.2077 -0.1089
 1651SOL    HW2 6376   0.700   4.342   6.368 -0.4501 -2.0850 -0.2476
 1651SOL    HW3 6377   0.840   4.356   6.313 -0.9209  0.6274 -0.8991
 1651SOL    MW4 6378   0.784   4.320   6.369  0.0517  0.5758  0.9555
 1652SOL     OW 6379   4.202   1.040   1.134 -0.3769  0.1354 -0.5470
 1652SOL    HW2 6380   4.120   0.999   1.106 -1.2137  1.2625  0.1401
 1652SOL    HW3 6381   4.189   1.058   1.227 -0.5464  2.9660 -1.0340
 1652SOL    MW4 6382   4.189   1.037   1.143 -0.2376  0.0114  0.1843
 1653SOL     OW 6383   1.966   4.390   4.545  0.2600 -0.5030 -0.0391
 1653SOL    HW2 6384   2.032   4.326   4.572 -0.6516 -1.8174 -0.7883
 1653SOL    HW3 6385   1.894   4.377   4.606  0.4635  0.5311  0.4280
 1653SOL    MW4 6386   1.966   4.380   4.556 -0.4009 -0.1583 -0.2112
 1654SOL     OW 6387   4.708   0.605   3.815  0.0708 -0.0574 -0.5639
 1654SOL    HW2 6388   4.772   0.673   3.836  1.2604 -1.6151  1.2549
 1654SOL    HW3 6389   4.755   0.523   3.831 -1.6119 -1.3131 -1.7282
 1654SOL    MW4 6390   4.723   0.603   3.820 -0.5072  0.4409  0.2055
 1655SOL     OW 6391   5.779   1.198   0.313  0.2038 -0.7074  0.1049
 1655SOL    HW2 6392   5.848   1.221   0.374  0.9239 -0.2772 -0.8501
 1655SOL    HW3 6393   5.809   1.117   0.271 -0.1584 -0.8554  0.1249
 1655SOL    MW4 6394   5.792   1.190   0.315  0.0126  0.4210 -0.0528
 1656SOL     OW 6395   1.621   1.972   5.841  0.4458  0.0151  0.5373
 1656SOL    HW2 6396   1.681   2.010   5.777  2.0522 -2.4348  0.4529
 1656SOL    HW3 6397   1.659   1.887   5.863 -2.5103 -1.2940  1.2196
 1656SOL    MW4 6398   1.634   1.966   5.836 -0.2282 -0.0189  0.1585
 1657SOL     OW 6399   5.810   1.882   0.207  0.0172  0.2666 -0.4262
 1657SOL    HW2 6400   5.718   1.856   0.199 -0.2389  0.9769  0.1102
 1657SOL    HW3 6401   5.859   1.808   0.170 -0.7878  0.1260 -1.2581
 1657SOL    MW4 6402   5.804   1.869   0.201  0.1484 -0.4022 -0.7168
 1658SOL     OW 6403   5.565   6.158   3.432 -0.1496  0.0470 -0.2612
 1658SOL    HW2 6404   5.530   6.153   3.343  0.5753  0.2034 -0.5642
 1658SOL    HW3 6405   5.545   6.248   3.460 -0.6863 -0.1105 -0.1307
 1658SOL    MW4 6406   5.558   6.169   3.424 -0.2567  0.2286  0.6365
 1659SOL     OW 6407   0.063   5.876   0.135  0.4617  0.4572 -0.1928
 1659SOL    HW2 6408  -0.003   5.885   0.204  0.7715 -1.4009  0.3944
 1659SOL    HW3 6409   0.146   5.873   0.181  0.7942  0.6015 -0.7658
 1659SOL    MW4 6410   0.065   5.877   0.150  0.1602 -0.0275 -0.4185
 1660SOL     OW 6411   0.788   1.896   2.115  0.0185 -0.0107  0.1896
 1660SOL    HW2 6412   0.844   1.841   2.169  0.8873  1.2445  0.6126
 1660SOL    HW3 6413   0.846   1.927   2.045 -0.5222  0.1709 -0.1853
 1660SOL    MW4 6414   0.803   1.893   2.113 -0.0334  0.1947 -0.4052
 1661SOL     OW 6415   0.855   2.337   2.190 -0.1788  0.2580 -0.0026
 1661SOL    HW2 6416   0.806   2.404   2.237  1.9907  0.0655  2.7611
 1661SOL    HW3 6417   0.804   2.257   2.203 -1.6262  0.8771 -1.4490
 1661SOL    MW4 6418   0.842   2.336   2.198 -0.2757 -0.1381 -0.4940
 1662SOL     OW 6419   2.477   1.849   0.354  0.4165  0.1785 -0.4609
 1662SOL    HW2 6420   2.426   1.779   0.396  1.4544  0.2547  1.0265
 1662SOL    HW3 6421   2.513   1.808   0.275 -0.7582 -0.2987 -0.7670
 1662SOL    MW4 6422   2.475   1.834   0.349  0.0654 -0.2525  0.8785
 1663SOL     OW 6423   0.530   0.754   4.997 -0.2402 -0.1920 -0.7733
 1663SOL    HW2 6424   0.456   0.693   4.998 -0.2580 -0.2325 -2.3228
 1663SOL    HW3 6425   0.604   0.703   5.031 -0.7711 -0.3405  0.1792
 1663SOL    MW4 6426   0.530   0.739   5.002  0.5634 -0.7494  0.0140
 1664SOL     OW 6427   4.786   6.413   1.175 -0.4087  0.3994  0.4201
 1664SOL    HW2 6428   4.859   6.473   1.157  0.8661 -0.8484  1.1933
 1664SOL    HW3 6429   4.769   6.424   1.269 -0.4062 -0.1949  0.4910
 1664SOL    MW4 6430   4.793   6.423   1.185 -0.3849 -0.8377 -0.3118
 1665SOL     OW 6431   0.849   4.410   2.056 -0.2125 -0.2435  0.5716
 1665SOL    HW2 6432   0.805   4.356   2.121 -0.1463  2.4851  3.0759
 1665SOL    HW3 6433   0.941   4.410   2.082 -0.2159  1.0378  0.6792
 1665SOL    MW4 6434   0.856   4.403   2.068  0.3424 -0.1366  0.1850
 1666SOL     OW 6435   0.665   0.049   5.299 -0.0728 -0.3920  0.3482
 1666SOL    HW2 6436   0.755   0.023   5.319  1.0457  2.1170 -1.0052
 1666SOL    HW3 6437   0.645   0.119   5.361 -0.9844 -0.6846  0.4053
 1666SOL    MW4 6438   0.674   0.055   5.310 -0.0507  0.1283 -0.2338
 1667SOL     OW 6439   5.597   0.954   3.012  0.2269  0.3729 -0.6517
 1667SOL    HW2 6440   5.648   0.882   3.048 -2.4449 -0.1427  2.5804
 1667SOL    HW3 6441   5.621   1.030   3.065 -0.3717  0.7564 -0.9119
 1667SOL    MW4 6442   5.607   0.954   3.024  0.4684 -0.3444 -0.2330
 1668SOL     OW 6443   3.621   5.005   3.527  0.3029 -0.1973 -0.0415
 1668SOL    HW2 6444   3.558   5.001   3.455 -0.4983 -3.9391  0.6510
 1668SOL    HW3 6445   3.705   4.985   3.485  0.2606  0.1011 -0.2756
 1668SOL    MW4 6446   3.624   5.002   3.512  0.6076  0.5752  0.0523
 1669SOL     OW 6447   4.809   3.426   0.251 -0.6488  0.6485 -0.5301
 1669SOL    HW2 6448   4.795   3.340   0.292  0.1897  0.0644 -1.4194
 1669SOL    HW3 6449   4.880   3.411   0.189  1.9529  2.7817  1.7073
 1669SOL    MW4 6450   4.817   3.412   0.248  0.4653 -0.1256 -0.5477
 1670SOL     OW 6451   1.356   3.392   2.069  0.6740  0.1243 -0.0438
 1670SOL    HW2 6452   1.451   3.395   2.082  0.5998  1.6468  0.3039
 1670SOL    HW3 6453   1.333   3.300   2.087  1.8686  0.0527  1.3833
 1670SOL    MW4 6454   1.366   3.380   2.073 -0.0369 -0.0260  0.3970
 1671SOL     OW 6455   1.966   3.409   2.043  0.1510 -0.1877  0.5284
 1671SOL    HW2 6456   1.938   3.421   2.133  0.5100 -0.1509  0.6358
 1671SOL    HW3 6457   2.058   3.381   2.049  0.8845  1.9640  0.1048
 1671SOL    MW4 6458   1.975   3.407   2.055  0.7029  0.0494 -0.0439
 1672SOL     OW 6459   4.137   6.076   1.200  0.2831  0.2049 -0.1261
 1672SOL    HW2 6460   4.046   6.067   1.228 -0.1819 -0.8493 -1.8002
 1672SOL    HW3 6461   4.184   6.007   1.245  0.1510  0.4056  0.3216
 1672SOL    MW4 6462   4.131   6.066   1.210 -0.3776 -0.5022 -0.1469
 1673SOL     OW 6463   5.740   4.189   3.963  0.0383 -0.2361  0.1692
 1673SOL    HW2 6464   5.696   4.105   3.978  0.4049 -0.7964 -1.6221
 1673SOL    HW3 6465   5.831   4.172   3.986  0.6155 -1.1162 -2.4305
 1673SOL    MW4 6466   5.746   4.175   3.968 -0.3149  0.2020  0.2101
 1674SOL     OW 6467   1.578   3.812   5.559 -0.4842  0.1887 -0.6492
 1674SOL    HW2 6468   1.568   3.763   5.641 -2.8026 -0.1273 -1.0589
 1674SOL    HW3 6469   1.665   3.851   5.566  0.3473 -1.7325  0.9045
 1674SOL    MW4 6470   1.588   3.811   5.571  0.2316 -0.2097 -0.6539
 1675SOL     OW 6471   4.618   0.625   2.724 -0.2957  0.7803  0.1269
 1675SOL    HW2 6472   4.653   0.650   2.639  0.1114  1.2957  0.4397
 1675SOL    HW3 6473   4.555   0.694   2.746  0.7671  1.5354  0.9514
 1675SOL    MW4 6474   4.614   0.637   2.716 -0.1747 -0.5230 -0.4103
 1676SOL     OW 6475   5.274   5.161   0.555 -0.8220  0.2699  0.3488
 1676SOL    HW2 6476   5.207   5.111   0.601  0.4805 -1.0291  0.8887
 1676SOL    HW3 6477   5.313   5.216   0.622  1.0984 -1.6471  0.8967
 1676SOL    MW4 6478   5.270   5.162   0.570  0.5200  0.2598  0.2214
 1677SOL     OW 6479   5.268   0.632   5.147  0.3240 -0.2666  0.0518
 1677SOL    HW2 6480   5.326   0.559   5.123  2.3878  0.8241  1.3871
 1677SOL    HW3 6481   5.312   0.674   5.220 -0.6196  2.5320 -0.8602
 1677SOL    MW4 6482   5.282   0.628   5.153  0.0374 -0.3213 -0.1955
 1678SOL     OW 6483   4.946   2.007   3.079 -0.2078 -0.1745  0.3741
 1678SOL    HW2 6484   5.029   2.052   3.097  1.6517 -2.4184 -1.9281
 1678SOL    HW3 6485   4.902   2.064   3.016  1.2605 -0.6246 -1.1058
 1678SOL    MW4 6486   4.951   2.021   3.073  0.0085 -0.0767 -0.3243
 1679SOL     OW 6487   4.154   4.009   4.649  0.4045 -0.4757  0.3598
 1679SOL    HW2 6488   4.071   4.054   4.631  0.4732 -0.7986 -0.8439
 1679SOL    HW3 6489   4.128   3.925   4.686  0.2232 -0.1622  0.9461
 1679SOL    MW4 6490   4.140   4.004   4.651  0.3103 -0.8768  0.4835
 1680SOL     OW 6491   6.285   3.624   2.345 -0.5888  0.4923 -0.2670
 1680SOL    HW2 6492   6.320   3.622   2.255  2.0481  1.5649  0.6396
 1680SOL    HW3 6493   6.361   3.604   2.400 -1.9354  0.8127  1.7926
 1680SOL    MW4 6494   6.300   3.621   2.340 -0.4865 -0.3627  0.6311
 1681SOL     OW 6495   2.385   2.873   4.207  0.0948  0.3807  0.1301
 1681SOL    HW2 6496   2.442   2.951   4.207 -0.5187  0.8502  1.2551
 1681SOL    HW3 6497   2.315   2.895   4.146 -1.2561  1.6499  2.0314
 1681SOL    MW4 6498   2.383   2.887   4.199  0.4907 -0.0823 -0.7478
 1682SOL     OW 6499   4.786   6.273   3.166 -0.6455 -0.7083  0.0068
 1682SOL    HW2 6500   4.862   6.315   3.126  0.2295 -1.8997  0.3723
 1682SOL    HW3 6501   4.817   6.244   3.252 -1.0072 -2.6580 -0.4847
 1682SOL    MW4 6502   4.800   6.275   3.172  0.5924  0.3677 -0.2776
 1683SOL     OW 6503   2.699   2.034   5.936 -0.1069 -0.4192  0.4876
 1683SOL    HW2 6504   2.641   2.044   6.012 -1.7685 -2.2885 -0.4651
 1683SOL    HW3 6505   2.754   1.959   5.958  2.1336  1.3416  1.3906
 1683SOL    MW4 6506   2.699   2.025   5.949  0.2050 -0.0477 -0.2271
 1684SOL     OW 6507   3.276   1.578   6.106  0.1390 -0.5266 -0.5184
 1684SOL    HW2 6508   3.340   1.648   6.093  0.5102 -0.3570  1.8268
 1684SOL    HW3 6509   3.328   1.503   6.136 -0.7424 -0.0538  2.5498
 1684SOL    MW4 6510   3.291   1.577   6.108  0.2383  0.2307 -0.1598
 1685SOL     OW 6511   6.190   3.094   1.209 -0.3011  0.3334 -0.0887
 1685SOL    HW2 6512   6.180   3.176   1.258 -0.3758  0.8014 -0.8724
 1685SOL    HW3 6513   6.110   3.088   1.156 -0.6122 -0.5976  0.4597
 1685SOL    MW4 6514   6.178   3.104   1.208  0.1718  0.2032 -0.4077
 1686SOL     OW 6515   5.891   0.452   0.662 -0.6010  0.1111 -0.1290
 1686SOL    HW2 6516   5.867   0.473   0.572 -0.2130  0.7832 -0.0834
 1686SOL    HW3 6517   5.820   0.397   0.694 -0.3599 -0.7862 -1.0927
 1686SOL    MW4 6518   5.879   0.448   0.654 -0.4246  0.2510 -0.0201
 1687SOL     OW 6519   5.596   5.562   2.372 -0.5250  0.0638  0.5710
 1687SOL    HW2 6520   5.578   5.541   2.280  1.4111 -1.1770  0.4206
 1687SOL    HW3 6521   5.513   5.550   2.417 -1.1923 -0.6025 -0.8082
 1687SOL    MW4 6522   5.583   5.558   2.366 -0.3137  0.0367 -0.2586
 1688SOL     OW 6523   4.314   5.272   5.736  0.8831 -0.4531 -0.1741
 1688SOL    HW2 6524   4.291   5.261   5.829  2.1543  0.3465  0.2644
 1688SOL    HW3 6525   4.282   5.360   5.715  0.6854 -0.5959 -0.4792
 1688SOL    MW4 6526   4.307   5.282   5.746  0.2647 -0.9929 -0.5374
 1689SOL     OW 6527   4.839   2.350   1.616  0.1889  0.0919 -0.3614
 1689SOL    HW2 6528   4.906   2.297   1.660  1.5050  2.1476  0.2017
 1689SOL    HW3 6529   4.873   2.362   1.527 -0.5505 -0.6957 -0.7742
 1689SOL    MW4 6530   4.853   2.344   1.610 -0.2358  0.1398  0.5272
 1690SOL     OW 6531   6.117   2.506   4.553  0.3413 -0.0232 -0.0408
 1690SOL    HW2 6532   6.130   2.518   4.647 -1.6401  0.6917  0.1813
 1690SOL    HW3 6533   6.175   2.433   4.530  2.9164  1.5065  1.1668
 1690SOL    MW4 6534   6.126   2.498   4.562 -0.5199  0.0045  0.0306
 1691SOL     OW 6535   2.675   5.752   4.314  0.2777 -0.3294 -0.3127
 1691SOL    HW2 6536   2.731   5.783   4.242  1.1621 -2.3517 -0.5649
 1691SOL    HW3 6537   2.723   5.776   4.393 -0.0335  0.7005 -0.4275
 1691SOL    MW4 6538   2.689   5.759   4.315  0.0826 -0.3569  0.6548
 1692SOL     OW 6539   5.622   2.848   3.380  0.1652  0.2212  0.9546
 1692SOL    HW2 6540   5.675   2.914   3.336  1.5451  0.4247  2.7998
 1692SOL    HW3 6541   5.560   2.898   3.433 -0.6518 -0.0097  0.2420
 1692SOL    MW4 6542   5.621   2.863   3.381  0.4904  0.0694 -0.4664
 1693SOL     OW 6543   6.060   2.268   2.016  0.0469  0.6370  0.3673
 1693SOL    HW2 6544   6.036   2.247   1.926 -1.1338 -0.3481  0.8875
 1693SOL    HW3 6545   6.140   2.219   2.032 -0.0206  0.4103  0.0207
 1693SOL    MW4 6546   6.067   2.259   2.006 -0.2534 -0.4482 -0.0980
 1694SOL     OW 6547   5.831   1.573   0.135 -0.5976  0.3163  1.3470
 1694SOL    HW2 6548   5.753   1.523   0.159 -0.8614  1.7162  3.7385
 1694SOL    HW3 6549   5.810   1.610   0.049 -0.5129 -3.2397 -0.3666
 1694SOL    MW4 6550   5.818   1.572   0.127 -0.4680 -0.3918  0.4831
 1695SOL     OW 6551   3.068   5.410   0.822  0.1558 -0.0137  0.7723
 1695SOL    HW2 6552   3.102   5.499   0.824 -0.3317  0.1902  0.1945
 1695SOL    HW3 6553   3.145   5.355   0.808  0.1139  0.5649 -2.4150
 1695SOL    MW4 6554   3.082   5.414   0.821 -0.7244  0.1209 -0.4031
 1696SOL     OW 6555   0.328   3.782   6.207 -0.5501  0.7338 -0.3140
 1696SOL    HW2 6556   0.257   3.827   6.253 -0.2155  1.6438 -0.6479
 1696SOL    HW3 6557   0.407   3.807   6.255 -0.4890 -0.7019  0.3765
 1696SOL    MW4 6558   0.329   3.791   6.219  0.4902  0.0578  0.4247
 1697SOL     OW 6559   1.201   0.647   0.340 -0.1453 -1.2850  0.0142
 1697SOL    HW2 6560   1.168   0.667   0.252  2.4771 -0.1900 -0.8142
 1697SOL    HW3 6561   1.279   0.594   0.325  1.1365  0.0525  1.5524
 1697SOL    MW4 6562   1.207   0.643   0.327 -0.5050 -0.3790  0.0787
 1698SOL     OW 6563   3.384   5.282   2.300  0.2304  0.3463 -0.1288
 1698SOL    HW2 6564   3.389   5.212   2.366 -0.8638 -1.3726 -1.7512
 1698SOL    HW3 6565   3.370   5.362   2.351  0.7224 -0.7132  1.7768
 1698SOL    MW4 6566   3.383   5.283   2.316  0.1481 -0.7874  0.6386
 1699SOL     OW 6567   1.989   2.598   5.005 -0.4131 -0.6054 -0.6603
 1699SOL    HW2 6568   2.066   2.541   5.010  0.4289  0.4318 -1.2045
 1699SOL    HW3 6569   1.968   2.617   5.097 -0.0170 -0.9116 -0.5030
 1699SOL    MW4 6570   1.996   2.593   5.018  0.2648  0.2504  0.6867
 1700SOL     OW 6571   1.749   4.377   4.711 -0.3720 -0.2197 -0.5251
 1700SOL    HW2 6572   1.664   4.357   4.671 -0.6237  1.8446 -1.1236
 1700SOL    HW3 6573   1.768   4.467   4.684  0.0907  0.8455  2.8926
 1700SOL    MW4 6574   1.740   4.386   4.702 -0.2288 -0.9501 -0.3940
 1701SOL     OW 6575   2.370   6.387   0.008 -0.4269 -0.0344 -0.1944
 1701SOL    HW2 6576   2.456   6.402   0.047  0.0791  0.9166 -1.5798
 1701SOL    HW3 6577   2.313   6.451   0.050 -0.1073  0.3399 -0.3231
 1701SOL    MW4 6578   2.374   6.397   0.019 -0.0034  0.6857  0.1417
 1702SOL     OW 6579   1.778   3.304   0.141  0.1283  0.4626 -0.4087
 1702SOL    HW2 6580   1.781   3.323   0.234 -1.5422  1.5015 -0.5308
 1702SOL    HW3 6581   1.753   3.212   0.136  2.3461 -0.2310  0.1415
 1702SOL    MW4 6582   1.775   3.294   0.152  0.2088  0.3918  0.5299
 1703SOL     OW 6583   1.802   6.212   0.435 -0.1902 -0.3117  0.0687
 1703SOL    HW2 6584   1.817   6.157   0.511  0.9198 -1.1950 -0.7536
 1703SOL    HW3 6585   1.806   6.151   0.361 -2.0179  0.3856 -0.6576
 1703SOL    MW4 6586   1.804   6.197   0.435 -0.6958 -0.4226 -0.1396
 1704SOL     OW 6587   1.929   2.732   6.330  0.1648  0.4165  0.4055
 1704SOL    HW2 6588   1.927   2.822   6.363  2.0117  0.5147  0.3463
 1704SOL    HW3 6589   1.863   2.686   6.381 -0.1115  1.5828  1.1353
 1704SOL    MW4 6590   1.920   2.738   6.341 -0.0255 -0.3531  0.3621
 1705SOL     OW 6591   1.935   6.346   6.215 -0.2808 -0.0318  0.4944
 1705SOL    HW2 6592   1.875   6.359   6.289 -0.0381  1.4235  0.4605
 1705SOL    HW3 6593   2.021   6.337   6.256 -0.2902 -0.3669  0.4439
 1705SOL    MW4 6594   1.938   6.347   6.230 -0.0022 -0.2223 -0.0653
 1706SOL     OW 6595   1.097   5.546   3.006  0.0416 -0.1043 -0.2559
 1706SOL    HW2 6596   1.088   5.639   3.027  0.9184  0.0984 -0.7247
 1706SOL    HW3 6597   1.148   5.509   3.078  0.5116 -0.0131 -0.5322
 1706SOL    MW4 6598   1.103   5.553   3.018 -0.6278 -0.5192 -0.3197
 1707SOL     OW 6599   5.563   2.671   6.083 -0.3226 -0.3694  0.1001
 1707SOL    HW2 6600   5.469   2.688   6.082 -0.2852 -0.1374  0.3231
 1707SOL    HW3 6601   5.570   2.578   6.104 -0.4937 -0.2043  0.9565
 1707SOL    MW4 6602   5.552   2.661   6.086  0.4689  0.4374  0.0727
 1708SOL     OW 6603   0.947   2.376   4.413  0.0362 -0.4360 -0.2993
 1708SOL    HW2 6604   1.026   2.401   4.366 -0.0966 -0.0790 -0.3313
 1708SOL    HW3 6605   0.978   2.313   4.479  0.5810  0.7654  0.6278
 1708SOL    MW4 6606   0.962   2.371   4.416 -0.5824 -0.0069  0.5294
 1709SOL     OW 6607   2.377   2.543   3.800  0.2027  0.0955 -0.5071
 1709SOL    HW2 6608   2.464   2.516   3.831  0.8326  2.3598 -0.1671
 1709SOL    HW3 6609   2.393   2.622   3.748 -1.6167  0.2690 -0.8816
 1709SOL    MW4 6610   2.391   2.550   3.797 -0.3619 -0.1109 -0.0632
 1710SOL     OW 6611   1.834   3.163   0.773  0.5405 -0.5446 -0.1384
 1710SOL    HW2 6612   1.771   3.092   0.786  2.6591 -3.1188 -2.6465
 1710SOL    HW3 6613   1.785   3.231   0.726 -1.0498 -1.1503  0.5663
 1710SOL    MW4 6614   1.819   3.162   0.769  0.5328 -0.4495 -0.5180
 1711SOL     OW 6615   2.197   3.788   3.836 -0.4588  0.3549 -0.4960
 1711SOL    HW2 6616   2.249   3.708   3.824  0.6115  1.2198 -1.8307
 1711SOL    HW3 6617   2.124   3.760   3.891  1.1814 -0.9906  1.1131
 1711SOL    MW4 6618   2.194   3.774   3.842 -0.2515 -0.0091 -0.1456
 1712SOL     OW 6619   6.290   0.683   5.689 -0.1242 -0.2752  0.4082
 1712SOL    HW2 6620   6.195   0.685   5.674 -0.3470 -2.5357  1.1226
 1712SOL    HW3 6621   6.300   0.710   5.781  0.0913  1.4115 -0.0877
 1712SOL    MW4 6622   6.279   0.687   5.699 -0.4031  0.0478 -0.3350
 1713SOL     OW 6623   3.593   0.621   1.544 -0.0104 -0.0390 -0.3443
 1713SOL    HW2 6624   3.648   0.693   1.514 -1.4258  0.2824 -2.4518
 1713SOL    HW3 6625   3.518   0.664   1.585  0.7108 -0.4496  1.5231
 1713SOL    MW4 6626   3.590   0.636   1.545  0.3889 -0.0012  0.3569
 1714SOL     OW 6627   2.636   1.005   1.544 -0.6565  0.2608 -0.2938
 1714SOL    HW2 6628   2.603   1.071   1.606 -2.2302 -2.0405  1.4728
 1714SOL    HW3 6629   2.630   1.048   1.459 -0.4049  2.8246  0.8681
 1714SOL    MW4 6630   2.631   1.020   1.541 -0.2325 -0.5795  0.1310
 1715SOL     OW 6631   4.833   6.434   2.823  0.9209  0.9079 -0.6386
 1715SOL    HW2 6632   4.821   6.476   2.738 -1.1083 -1.0164 -1.3876
 1715SOL    HW3 6633   4.924   6.404   2.822  1.0599  1.3249 -1.9255
 1715SOL    MW4 6634   4.844   6.435   2.812  0.5657  0.2921  0.0588
 1716SOL     OW 6635   0.092   6.255   3.335 -0.0864  0.4748  0.5569
 1716SOL    HW2 6636   0.038   6.201   3.277 -0.0018 -0.3092  1.1849
 1716SOL    HW3 6637   0.085   6.212   3.421  3.5039 -1.1533  0.1979
 1716SOL    MW4 6638   0.084   6.242   3.339 -0.6941  0.4791  0.1469
 1717SOL     OW 6639   4.195   2.115   3.204 -0.0838 -0.1893 -0.0636
 1717SOL    HW2 6640   4.242   2.091   3.285 -0.4030 -1.6273 -0.2702
 1717SOL    HW3 6641   4.251   2.081   3.134 -0.3084  0.1371 -0.4006
 1717SOL    MW4 6642   4.209   2.107   3.206  0.4694 -0.3786  0.3249
 1718SOL     OW 6643   4.418   4.772   0.439  0.1965  0.0475 -0.2405
 1718SOL    HW2 6644   4.471   4.754   0.362  0.2337  0.7569 -0.3898
 1718SOL    HW3 6645   4.341   4.716   0.429  0.3399 -0.0820 -0.6401
 1718SOL    MW4 6646   4.415   4.762   0.427  0.4556 -0.1088 -0.2980
 1719SOL     OW 6647   1.984   4.262   5.729  0.1673  0.0654 -0.3860
 1719SOL    HW2 6648   1.964   4.227   5.815 -0.7372 -1.2730 -1.1062
 1719SOL    HW3 6649   1.909   4.316   5.707  0.8293  1.1874  0.0430
 1719SOL    MW4 6650   1.972   4.264   5.737  0.2398 -0.3156 -0.3097
 1720SOL     OW 6651   1.409   2.666   1.879 -0.5414  0.5578  0.2171
 1720SOL    HW2 6652   1.455   2.667   1.795 -1.3884 -0.5426 -0.2898
 1720SOL    HW3 6653   1.451   2.735   1.930 -0.8413  2.1228 -1.5491
 1720SOL    MW4 6654   1.421   2.675   1.874  0.2427 -0.1343 -0.3665
 1721SOL     OW 6655   2.272   1.136   3.782  0.2730 -0.1068  0.2893
 1721SOL    HW2 6656   2.356   1.135   3.826  0.7300  1.9899 -0.4282
 1721SOL    HW3 6657   2.217   1.194   3.835 -0.4045 -0.6722  0.2178
 1721SOL    MW4 6658   2.276   1.144   3.795  0.1961  0.1328  0.1758
 1722SOL     OW 6659   3.468   3.656   5.264  0.2549  0.3750 -0.2878
 1722SOL    HW2 6660   3.516   3.647   5.346  1.8869 -0.0012 -1.2353
 1722SOL    HW3 6661   3.378   3.675   5.291  0.4018 -1.2404  1.6164
 1722SOL    MW4 6662   3.462   3.657   5.278 -0.0503  0.1952  0.2592
 1723SOL     OW 6663   4.570   6.196   6.137  0.6462  0.0695 -0.1359
 1723SOL    HW2 6664   4.612   6.264   6.189 -0.5224  0.9889 -0.3418
 1723SOL    HW3 6665   4.591   6.114   6.182  1.9790  0.5662  0.1833
 1723SOL    MW4 6666   4.578   6.194   6.150 -0.0725  0.1845  0.0387
 1724SOL     OW 6667   5.298   6.334   2.442  0.2827  0.0926 -0.1507
 1724SOL    HW2 6668   5.250   6.257   2.411  0.8010 -1.0715  1.7740
 1724SOL    HW3 6669   5.383   6.329   2.396  0.7318 -1.1401  0.7508
 1724SOL    MW4 6670   5.303   6.323   2.432  0.4963 -0.0039 -0.1010
 1725SOL     OW 6671   1.873   6.129   3.111 -0.2645  0.1900  0.2696
 1725SOL    HW2 6672   1.786   6.129   3.072  0.0887  0.7418 -0.5438
 1725SOL    HW3 6673   1.867   6.068   3.184 -1.5005  0.6949  0.6052
 1725SOL    MW4 6674   1.861   6.121   3.115  0.9784 -0.0231  0.3684
 1726SOL     OW 6675   1.468   4.746   4.722 -0.1997 -0.2067  0.1203
 1726SOL    HW2 6676   1.441   4.671   4.776  1.2607 -1.2168 -0.4726
 1726SOL    HW3 6677   1.545   4.781   4.767  0.0502 -0.0365 -0.4345
 1726SOL    MW4 6678   1.475   4.740   4.735  0.3146  0.1200 -0.7111
 1727SOL     OW 6679   2.913   2.212   3.992  0.4458  0.3849  0.0587
 1727SOL    HW2 6680   2.922   2.241   3.901 -0.6378 -0.4459 -0.3378
 1727SOL    HW3 6681   2.858   2.134   3.986  1.1003 -0.2020  1.3487
 1727SOL    MW4 6682   2.907   2.205   3.979  0.3487  0.5687  0.0939
 1728SOL     OW 6683   0.009   2.121   0.991 -0.4035 -0.3908  0.0813
 1728SOL    HW2 6684  -0.049   2.045   0.983 -0.8412  0.0296 -0.8779
 1728SOL    HW3 6685  -0.013   2.176   0.916 -1.0155  1.3025  1.4390
 1728SOL    MW4 6686  -0.002   2.118   0.980  0.3708  1.2609  0.0039
 1729SOL     OW 6687   0.563   0.522   3.359 -0.2855  0.2895 -0.6394
 1729SOL    HW2 6688   0.643   0.518   3.411  0.5154 -1.9570 -1.9074
 1729SOL    HW3 6689   0.493   0.531   3.423  0.7629 -1.0390  0.7641
 1729SOL    MW4 6690   0.564   0.523   3.374  0.2433 -0.4620 -0.5245
 1730SOL     OW 6691   4.536   0.662   1.142 -0.5815  0.6743 -0.2099
 1730SOL    HW2 6692   4.466   0.619   1.191 -0.6413 -0.2974 -1.1101
 1730SOL    HW3 6693   4.506   0.659   1.051  0.7156  0.0652 -0.6277
 1730SOL    MW4 6694   4.522   0.656   1.137  0.9319 -0.1736 -0.1708
 1731SOL     OW 6695   1.532   6.184   5.603 -0.2193  0.6737 -0.0802
 1731SOL    HW2 6696   1.485   6.221   5.528 -0.4674 -0.7251 -0.6269
 1731SOL    HW3 6697   1.522   6.250   5.672 -2.5317  0.6598 -0.3403
 1731SOL    MW4 6698   1.524   6.198   5.602  0.0520  0.1790 -0.1362
 1732SOL     OW 6699   2.165   3.155   1.502  0.4757 -0.3157 -0.1487
 1732SOL    HW2 6700   2.185   3.090   1.569  1.0989 -0.9033 -0.8893
 1732SOL    HW3 6701   2.082   3.126   1.464  0.7136 -0.6479 -0.4243
 1732SOL    MW4 6702   2.156   3.143   1.506 -0.5122 -0.5484  0.0245
 1733SOL     OW 6703   2.711   3.975   0.213 -0.4808 -0.4957 -0.3568
 1733SOL    HW2 6704   2.639   3.985   0.276 -1.2141 -1.0344 -1.0848
 1733SOL    HW3 6705   2.725   3.881   0.207  0.5950 -0.3729  0.1030
 1733SOL    MW4 6706   2.703   3.964   0.220 -0.1117  0.1856  0.7036
 1734SOL     OW 6707   0.748   3.973   2.415  0.2925  0.0675  0.0618
 1734SOL    HW2 6708   0.735   3.943   2.325 -0.0404  0.2775  0.0371
 1734SOL    HW3 6709   0.670   4.026   2.434  1.3906  1.9189 -0.3037
 1734SOL    MW4 6710   0.736   3.976   2.405 -0.2014 -0.0665 -0.7064
 1735SOL     OW 6711   5.609   5.340   1.346 -0.1773  0.0704  0.2633
 1735SOL    HW2 6712   5.519   5.360   1.371  0.4275  2.6763  0.6282
 1735SOL    HW3 6713   5.603   5.314   1.254 -1.1248  2.2539 -0.3511
 1735SOL    MW4 6714   5.596   5.339   1.337  0.5767  0.5054 -0.1593
 1736SOL     OW 6715   3.374   1.613   3.136 -0.1823 -0.0997  0.3920
 1736SOL    HW2 6716   3.431   1.665   3.192 -0.6490  0.3364  0.4713
 1736SOL    HW3 6717   3.402   1.634   3.047 -0.0097 -0.1304  0.4381
 1736SOL    MW4 6718   3.385   1.623   3.132  0.3283  0.2044 -0.1063
 1737SOL     OW 6719   5.070   4.132   5.373 -0.1889  0.6211 -0.2230
 1737SOL    HW2 6720   5.069   4.040   5.399 -2.1089  0.2898 -1.2734
 1737SOL    HW3 6721   5.146   4.140   5.314  0.4615 -0.0629  0.4992
 1737SOL    MW4 6722   5.080   4.121   5.368  0.4005 -0.3051  0.2163
 1738SOL     OW 6723   0.846   5.786   6.172 -0.0440 -0.1252 -0.1308
 1738SOL    HW2 6724   0.752   5.774   6.156 -0.1121  1.8974 -1.7680
 1738SOL    HW3 6725   0.851   5.822   6.261 -0.9903  1.1053 -0.5438
 1738SOL    MW4 6726   0.834   5.789   6.182  0.1189  0.1614  0.0083
 1739SOL     OW 6727   0.809   1.535   2.763  0.3295  0.6429  0.2469
 1739SOL    HW2 6728   0.899   1.566   2.775 -0.0601  0.9396  2.9074
 1739SOL    HW3 6729   0.819   1.440   2.749  1.0761  0.8231 -0.6042
 1739SOL    MW4 6730   0.822   1.526   2.763 -0.4304  0.7914 -0.1278
 1740SOL     OW 6731   5.197   0.882   3.756  0.9716 -0.1443  0.2752
 1740SOL    HW2 6732   5.144   0.841   3.826 -0.5423 -1.2830 -1.4493
 1740SOL    HW3 6733   5.147   0.960   3.732  0.1084 -1.0817 -1.1753
 1740SOL    MW4 6734   5.183   0.887   3.762  0.5342 -0.1594  0.3876
 1741SOL     OW 6735   3.853   1.948   3.551  0.1563  0.0933 -0.3460
 1741SOL    HW2 6736   3.802   1.904   3.618 -1.6391  0.5527 -1.3448
 1741SOL    HW3 6737   3.929   1.892   3.537  0.0018 -0.5556  1.2644
 1741SOL    MW4 6738   3.856   1.935   3.558  0.7228 -0.0616  0.3301
 1742SOL     OW 6739   2.674   1.320   2.040 -0.1861  0.0147 -0.0891
 1742SOL    HW2 6740   2.680   1.250   1.975 -2.3632  0.4246 -0.8323
 1742SOL    HW3 6741   2.730   1.389   2.006  1.7184 -1.1845  0.4781
 1742SOL    MW4 6742   2.682   1.320   2.027 -0.1751 -0.4724 -0.2452
 1743SOL     OW 6743   1.676   2.684   2.906 -0.5511 -0.1734 -0.1556
 1743SOL    HW2 6744   1.642   2.595   2.914  0.3902 -0.6391 -1.0058
 1743SOL    HW3 6745   1.722   2.684   2.822 -0.9969  1.2805 -0.4342
 1743SOL    MW4 6746   1.678   2.672   2.896 -0.0666 -0.2570 -0.3966
 1744SOL     OW 6747   3.194   3.865   1.872 -0.0384 -0.4806  0.7059
 1744SOL    HW2 6748   3.156   3.852   1.786  0.8865 -0.8002  0.3267
 1744SOL    HW3 6749   3.134   3.821   1.932  0.3252 -1.9894  0.0017
 1744SOL    MW4 6750   3.181   3.858   1.869  0.6512  0.0807 -0.3044
 1745SOL     OW 6751   3.668   2.807   2.850  0.6564  0.2292 -0.4372
 1745SOL    HW2 6752   3.744   2.793   2.907  0.9739  1.6125 -0.4844
 1745SOL    HW3 6753   3.698   2.782   2.763  1.0780  0.8210 -0.4640
 1745SOL    MW4 6754   3.682   2.802   2.846  0.2903 -0.0435  0.2407
 1746SOL     OW 6755   2.037   2.258   3.593 -0.1448  0.6172 -0.1823
 1746SOL    HW2 6756   2.027   2.189   3.658  1.6081 -0.3246 -0.8441
 1746SOL    HW3 6757   2.058   2.336   3.644 -0.7842  0.3651  0.4830
 1746SOL    MW4 6758   2.038   2.259   3.608 -0.4661  0.1233  0.3711
 1747SOL     OW 6759   5.701   4.743   2.161 -0.1069  0.0846 -0.0469
 1747SOL    HW2 6760   5.629   4.773   2.106 -0.3065  0.3965  0.3753
 1747SOL    HW3 6761   5.660   4.679   2.220  0.3164 -1.0682 -0.9544
 1747SOL    MW4 6762   5.686   4.738   2.162  0.3070  0.0591 -0.3876
 1748SOL     OW 6763   5.815   1.708   1.718 -1.0892 -0.1749  0.3348
 1748SOL    HW2 6764   5.853   1.796   1.725 -0.6867 -0.4083  1.1857
 1748SOL    HW3 6765   5.880   1.658   1.669 -2.1115  0.4326 -1.7441
 1748SOL    MW4 6766   5.828   1.713   1.712 -0.2980  0.4398 -0.0540
 1749SOL     OW 6767   4.297   4.334   1.569 -0.5159 -0.4750 -0.0448
 1749SOL    HW2 6768   4.255   4.385   1.638  0.8827  0.2665  0.3087
 1749SOL    HW3 6769   4.229   4.274   1.539 -1.7650  0.5497  0.5872
 1749SOL    MW4 6770   4.283   4.333   1.574 -0.2299 -0.2826  0.3812
 1750SOL     OW 6771   4.379   2.369   3.280 -0.3086  0.1580  0.2297
 1750SOL    HW2 6772   4.320   2.329   3.215  0.9372 -0.0116 -0.8440
 1750SOL    HW3 6773   4.409   2.450   3.238  0.1001  0.3181  0.8264
 1750SOL    MW4 6774   4.375   2.374   3.266  1.1105  0.2477 -0.8477
 1751SOL     OW 6775   4.839   1.436   0.529 -0.3797  0.3697 -0.0641
 1751SOL    HW2 6776   4.847   1.531   0.522  1.0519  0.2305 -0.6457
 1751SOL    HW3 6777   4.850   1.404   0.439 -0.0459 -0.3988  0.2410
 1751SOL    MW4 6778   4.841   1.444   0.516 -0.4239 -1.0730 -0.2294
 1752SOL     OW 6779   3.150   3.509   3.278 -0.7349  0.0829 -0.0864
 1752SOL    HW2 6780   3.072   3.453   3.282  0.5698 -1.7655  1.0164
 1752SOL    HW3 6781   3.222   3.448   3.267  0.7313  1.6330  0.5490
 1752SOL    MW4 6782   3.149   3.494   3.277 -0.5012  0.5346 -0.5121
 1753SOL     OW 6783   0.322   3.235   1.414  0.6709 -0.1952  0.2054
 1753SOL    HW2 6784   0.310   3.159   1.357  2.7039  0.5666 -1.3624
 1753SOL    HW3 6785   0.234   3.257   1.444 -0.1146 -2.3645 -0.3169
 1753SOL    MW4 6786   0.309   3.228   1.411  0.0720  0.4451  0.2486
 1754SOL     OW 6787   2.150   3.824   4.453 -0.1336  0.3521 -0.4520
 1754SOL    HW2 6788   2.065   3.794   4.485  0.3666 -0.8525 -0.2313
 1754SOL    HW3 6789   2.165   3.774   4.373  1.6193 -1.5462  0.9745
 1754SOL    MW4 6790   2.141   3.814   4.447  0.3249 -0.4315 -0.1947
 1755SOL     OW 6791   4.496   0.013   5.062  0.1509 -0.1830  0.6315
 1755SOL    HW2 6792   4.562  -0.044   5.101  0.2125 -0.8119 -0.3628
 1755SOL    HW3 6793   4.540   0.097   5.050  0.3890 -0.2394  1.0924
 1755SOL    MW4 6794   4.510   0.016   5.066 -0.0089 -0.2596 -0.3340
 1756SOL     OW 6795   3.920   4.443   1.607 -0.4032 -0.1357  0.3683
 1756SOL    HW2 6796   3.832   4.444   1.568 -0.9015 -1.1425  1.4069
 1756SOL    HW3 6797   3.969   4.509   1.558 -2.1222  1.4020  0.6532
 1756SOL    MW4 6798   3.915   4.452   1.595 -0.0969 -0.3986  0.6029
 1757SOL     OW 6799   1.786   1.232   5.047  0.0964  0.5376 -0.6150
 1757SOL    HW2 6800   1.731   1.293   5.096  0.0323  1.8257 -2.1889
 1757SOL    HW3 6801   1.871   1.274   5.042  0.4447 -0.1407 -0.5872
 1757SOL    MW4 6802   1.790   1.245   5.052  0.0099  0.1918  0.5673
 1758SOL     OW 6803   6.223   5.903   4.537 -0.1826  0.3479  0.5145
 1758SOL    HW2 6804   6.221   5.936   4.447  0.7835  0.6551  0.5954
 1758SOL    HW3 6805   6.133   5.874   4.554 -0.3649  0.2684 -0.5500
 1758SOL    MW4 6806   6.211   5.904   4.527 -0.6911  0.1394  0.5203
 1759SOL     OW 6807   2.105   1.836   0.163  0.0036 -0.7374  0.1158
 1759SOL    HW2 6808   2.125   1.905   0.099 -1.2032 -0.5946 -0.1243
 1759SOL    HW3 6809   2.064   1.883   0.236 -1.3935 -1.2493 -0.3083
 1759SOL    MW4 6810   2.103   1.852   0.164 -0.0741 -0.2806 -0.2506
 1760SOL     OW 6811   2.253   1.121   2.857  0.5292  0.2094 -0.4449
 1760SOL    HW2 6812   2.206   1.038   2.853 -0.2065  0.5681  0.4273
 1760SOL    HW3 6813   2.203   1.174   2.919  2.2167  0.5111  0.7297
 1760SOL    MW4 6814   2.240   1.117   2.865 -0.3129 -0.4534  0.3541
 1761SOL     OW 6815   2.105   6.283   1.218 -0.1586 -0.3735  0.2028
 1761SOL    HW2 6816   2.191   6.324   1.219 -0.0156 -0.6631 -0.2003
 1761SOL    HW3 6817   2.054   6.337   1.157 -0.1521 -0.4202  0.1558
 1761SOL    MW4 6818   2.109   6.296   1.210  0.1769 -0.2009 -0.0827
 1762SOL     OW 6819   1.403   6.166   6.335 -0.0245 -0.0498 -0.1430
 1762SOL    HW2 6820   1.475   6.213   6.294 -0.6364  0.7340 -0.3445
 1762SOL    HW3 6821   1.401   6.081   6.290  1.3066 -0.4335  0.4654
 1762SOL    MW4 6822   1.412   6.161   6.324 -0.2958 -0.7730  0.7675
 1763SOL     OW 6823   4.491   5.796   4.944 -0.6463 -0.0772  0.1340
 1763SOL    HW2 6824   4.451   5.709   4.939 -1.8958  0.4997 -0.2634
 1763SOL    HW3 6825   4.423   5.856   4.914  0.3589  1.0029 -0.0913
 1763SOL    MW4 6826   4.477   5.792   4.939 -0.0753  0.1262 -0.3031
 1764SOL     OW 6827   5.601   0.489   1.081  0.1045 -0.8932  0.0460
 1764SOL    HW2 6828   5.647   0.571   1.100 -2.5779  1.2266 -1.8812
 1764SOL    HW3 6829   5.630   0.466   0.993  0.8206 -2.0904  0.5642
 1764SOL    MW4 6830   5.611   0.497   1.072 -0.0396 -0.1728 -0.6122
 1765SOL     OW 6831   0.043   3.941   4.894  0.1689  0.3979 -0.0472
 1765SOL    HW2 6832  -0.032   3.886   4.915  0.6322 -0.1582  0.1496
 1765SOL    HW3 6833   0.019   3.984   4.812 -0.3123  0.1241 -0.0491
 1765SOL    MW4 6834   0.030   3.940   4.886  0.9273  0.7092 -0.3482
 1766SOL     OW 6835   2.581   4.647   6.369 -0.3981 -0.1511  0.1664
 1766SOL    HW2 6836   2.621   4.734   6.363 -0.1522 -0.3370 -1.2205
 1766SOL    HW3 6837   2.513   4.657   6.435  1.3111  0.4030  1.9285
 1766SOL    MW4 6838   2.577   4.660   6.377  0.1887 -0.3792  0.1111
 1767SOL     OW 6839   3.873   0.488   5.875 -0.2988  0.4705  0.4007
 1767SOL    HW2 6840   3.870   0.452   5.786  0.5429  0.7735  0.2405
 1767SOL    HW3 6841   3.872   0.411   5.932  2.6438  0.0570  0.0444
 1767SOL    MW4 6842   3.872   0.473   5.871  0.3750 -0.5532 -0.1225
 1768SOL     OW 6843   1.450   0.988   1.497 -0.3885  0.1794  0.0312
 1768SOL    HW2 6844   1.532   0.941   1.512  0.1414  0.0689 -2.6554
 1768SOL    HW3 6845   1.385   0.919   1.481 -0.9096  0.2812  1.5946
 1768SOL    MW4 6846   1.452   0.973   1.497  0.3424  0.4166  0.1016
 1769SOL     OW 6847   4.435   2.975   4.247 -0.6849 -0.2783 -0.4005
 1769SOL    HW2 6848   4.374   2.957   4.177 -1.2039 -1.2925  0.2885
 1769SOL    HW3 6849   4.499   2.904   4.242  0.4144  0.7244 -1.0634
 1769SOL    MW4 6850   4.436   2.963   4.237 -0.0575 -0.2653  0.1711
 1770SOL     OW 6851   4.567   5.200   1.852  0.3064 -0.2031  0.1018
 1770SOL    HW2 6852   4.549   5.264   1.783  0.5319  0.6482  0.8222
 1770SOL    HW3 6853   4.502   5.219   1.920 -0.6536 -1.7653 -0.3288
 1770SOL    MW4 6854   4.556   5.211   1.852  0.5406  0.4009 -0.0290
 1771SOL     OW 6855   0.959   0.384   0.217  0.2249 -0.4796 -0.9527
 1771SOL    HW2 6856   1.022   0.427   0.159 -0.2530 -0.7705 -1.7000
 1771SOL    HW3 6857   0.890   0.449   0.231 -0.6761 -1.0722 -2.3670
 1771SOL    MW4 6858   0.958   0.398   0.211  0.2974  0.2524  0.6072
 1772SOL     OW 6859   4.268   2.885   4.025  0.6364  0.2086  0.1993
 1772SOL    HW2 6860   4.219   2.956   3.984 -0.2345 -0.5992 -0.2115
 1772SOL    HW3 6861   4.206   2.846   4.088  1.5234  0.6137  1.3574
 1772SOL    MW4 6862   4.253   2.889   4.028  0.3331  0.9812 -0.1879
 1773SOL     OW 6863   6.251   2.770   1.821 -0.2354  0.2003 -0.1501
 1773SOL    HW2 6864   6.200   2.701   1.864  0.8043 -0.2715  0.3626
 1773SOL    HW3 6865   6.311   2.801   1.889  2.5754 -1.6565 -1.5918
 1773SOL    MW4 6866   6.252   2.765   1.836  0.2404 -0.4596  0.3640
 1774SOL     OW 6867   6.161   3.906   1.033  0.0201  0.5350  0.3172
 1774SOL    HW2 6868   6.090   3.961   1.066 -0.5567 -1.0056  1.7387
 1774SOL    HW3 6869   6.118   3.836   0.984  0.5176 -0.4558  1.2496
 1774SOL    MW4 6870   6.146   3.904   1.031 -0.6277  0.0010  0.2301
 1775SOL     OW 6871   2.670   3.230   0.816  0.7283  0.3588  0.2933
 1775SOL    HW2 6872   2.599   3.293   0.830 -0.4317 -0.4056 -1.6840
 1775SOL    HW3 6873   2.718   3.229   0.898 -1.9310  0.4365  1.9682
 1775SOL    MW4 6874   2.667   3.238   0.828  0.1387 -0.1637  0.1836
 1776SOL     OW 6875   1.683   4.144   4.140 -0.6685 -0.0226 -0.1326
 1776SOL    HW2 6876   1.616   4.127   4.206 -1.1894  0.5578 -0.4969
 1776SOL    HW3 6877   1.649   4.219   4.091  0.1406  0.1307 -0.4723
 1776SOL    MW4 6878   1.669   4.152   4.142  0.1151 -0.1559 -0.0671
 1777SOL     OW 6879   5.948   6.041   2.535 -0.0670  0.2331  0.1722
 1777SOL    HW2 6880   5.989   6.105   2.477 -0.0140 -1.7168 -2.1262
 1777SOL    HW3 6881   5.856   6.042   2.510 -0.2182  0.0340  0.7223
 1777SOL    MW4 6882   5.941   6.050   2.524 -0.3867 -1.1171 -0.1533
 1778SOL     OW 6883   2.050   3.450   4.356  0.5743  0.1709  0.1539
 1778SOL    HW2 6884   2.075   3.529   4.308  1.9461  0.8330  1.8647
 1778SOL    HW3 6885   1.959   3.465   4.382  0.5876  0.8462 -0.1835
 1778SOL    MW4 6886   2.041   3.462   4.353 -0.0362  0.1293  1.1175
 1779SOL     OW 6887   3.004   5.075   1.960  0.0732  0.8293  0.4851
 1779SOL    HW2 6888   3.089   5.065   2.002  0.8958  0.3268 -1.1890
 1779SOL    HW3 6889   3.018   5.143   1.893 -0.2709 -0.6008 -1.1110
 1779SOL    MW4 6890   3.017   5.083   1.957  0.9363 -0.3134  0.1162
 1780SOL     OW 6891   6.247   4.946   4.549 -0.9630  0.1384  0.1855
 1780SOL    HW2 6892   6.193   4.883   4.502 -0.4282  0.3601 -0.7507
 1780SOL    HW3 6893   6.318   4.967   4.488  0.3018 -0.2969  1.4638
 1780SOL    MW4 6894   6.250   4.941   4.535 -0.4536 -0.1579  0.0193
 1781SOL     OW 6895   1.254   2.044   1.477 -0.2712 -0.2093  0.3300
 1781SOL    HW2 6896   1.209   2.118   1.518  0.5959  0.9407 -0.7381
 1781SOL    HW3 6897   1.191   2.009   1.414  0.2146  1.2550 -1.0043
 1781SOL    MW4 6898   1.239   2.049   1.474  0.5293 -0.2445  0.6133
 1782SOL     OW 6899   6.221   2.330   4.242  0.0776  0.6362 -0.6125
 1782SOL    HW2 6900   6.129   2.342   4.263  0.2788 -0.6533  1.1925
 1782SOL    HW3 6901   6.258   2.419   4.244 -1.2543  1.2717 -2.2561
 1782SOL    MW4 6902   6.214   2.343   4.245  0.0386 -0.0360  0.0184
 1783SOL     OW 6903   1.874   0.367   2.108  0.2531 -0.4940  0.5559
 1783SOL    HW2 6904   1.898   0.275   2.095 -0.3295 -0.4858 -0.7728
 1783SOL    HW3 6905   1.790   0.377   2.062  1.0677  1.0632 -0.7050
 1783SOL    MW4 6906   1.866   0.356   2.100 -0.0384 -0.0484  0.4632
 1784SOL     OW 6907   4.304   5.090   5.478 -0.1339 -0.0639  0.1772
 1784SOL    HW2 6908   4.381   5.138   5.511 -0.5081 -0.1654  1.2283
 1784SOL    HW3 6909   4.277   5.036   5.552 -1.4156  0.2157 -0.0745
 1784SOL    MW4 6910   4.311   5.089   5.492  0.0101  0.0757  0.0523
 1785SOL     OW 6911   3.238   5.782   4.658 -0.0077 -0.4938 -0.0356
 1785SOL    HW2 6912   3.194   5.699   4.635 -0.1189 -0.5803  0.4903
 1785SOL    HW3 6913   3.292   5.801   4.581 -2.1569  0.4547 -1.4291
 1785SOL    MW4 6914   3.239   5.773   4.645 -0.0591 -0.2229 -0.6160
 1786SOL     OW 6915   5.615   2.111   2.575  0.6974 -0.1785 -0.4947
 1786SOL    HW2 6916   5.675   2.141   2.644  0.2300  0.2996 -0.2899
 1786SOL    HW3 6917   5.558   2.048   2.619 -0.5936  1.2289 -0.0167
 1786SOL    MW4 6918   5.615   2.107   2.590 -0.0453 -0.3384  0.0439
 1787SOL     OW 6919   1.038   0.942   0.453  0.1439  0.5025  0.0011
 1787SOL    HW2 6920   1.071   0.934   0.364 -1.2739 -2.9681 -0.3990
 1787SOL    HW3 6921   1.117   0.945   0.508  1.0505  0.3525 -1.2499
 1787SOL    MW4 6922   1.053   0.941   0.449 -0.1819 -0.1757  0.1627
 1788SOL     OW 6923   4.609   5.153   3.466  0.4725  0.3041  0.0347
 1788SOL    HW2 6924   4.652   5.100   3.533 -0.8691  1.2064  1.6884
 1788SOL    HW3 6925   4.582   5.090   3.399  3.2542 -0.4291 -0.5551
 1788SOL    MW4 6926   4.611   5.138   3.466 -0.0865  0.0368 -0.2048
 1789SOL     OW 6927   1.919   3.828   5.799 -0.1001  0.2894  0.4714
 1789SOL    HW2 6928   2.004   3.813   5.758 -0.2626  0.3609  0.1079
 1789SOL    HW3 6929   1.880   3.741   5.808 -0.2600  0.3174  0.0516
 1789SOL    MW4 6930   1.925   3.815   5.795  0.7529  0.2171  0.0048
 1790SOL     OW 6931   0.517   2.930   3.841  0.3474 -0.7094 -0.0028
 1790SOL    HW2 6932   0.571   2.978   3.903 -1.0640  0.3560  0.4716
 1790SOL    HW3 6933   0.487   2.853   3.888  1.0340 -1.0387 -0.1013
 1790SOL    MW4 6934   0.520   2.927   3.855 -0.0866 -0.3937  0.2470
 1791SOL     OW 6935   2.210   4.619   2.676 -0.5338  0.3817 -0.3301
 1791SOL    HW2 6936   2.195   4.592   2.586 -0.3424  0.8482 -0.5044
 1791SOL    HW3 6937   2.125   4.655   2.705 -1.5558 -2.5709  0.7109
 1791SOL    MW4 6938   2.197   4.620   2.668 -0.0022 -0.6634 -0.2521
 1792SOL     OW 6939   4.891   0.575   1.301  0.2997  0.3790  0.2149
 1792SOL    HW2 6940   4.949   0.649   1.284 -1.3258  1.8481  0.6874
 1792SOL    HW3 6941   4.866   0.544   1.214  0.5391  0.7840 -0.0020
 1792SOL    MW4 6942   4.895   0.581   1.287  0.0122  0.2273  0.5077
 1793SOL     OW 6943   2.285   2.530   2.725 -0.5114 -0.2371  0.3569
 1793SOL    HW2 6944   2.290   2.484   2.641 -1.4697  1.7649 -0.8610
 1793SOL    HW3 6945   2.376   2.548   2.749 -0.2701  0.5492 -1.0763
 1793SOL    MW4 6946   2.298   2.526   2.717  0.4934  0.5991  0.5939
 1794SOL     OW 6947   5.532   4.038   1.316  0.3061 -0.2560  0.6428
 1794SOL    HW2 6948   5.477   3.961   1.304  0.3597 -0.2138  0.0852
 1794SOL    HW3 6949   5.581   4.021   1.397  1.0347 -1.2461  0.0178
 1794SOL    MW4 6950   5.531   4.026   1.325  0.1232 -0.4888  0.1332
 1795SOL     OW 6951   3.791   1.692   4.352  0.2511 -0.3073 -0.1004
 1795SOL    HW2 6952   3.872   1.742   4.343 -0.9834  2.0456  0.7737
 1795SOL    HW3 6953   3.810   1.627   4.419  1.5776 -0.1927 -0.3408
 1795SOL    MW4 6954   3.804   1.690   4.360 -0.1883  0.1418  0.1017
 1796SOL     OW 6955   3.957   6.377   2.030 -0.0809 -0.3248 -0.3845
 1796SOL    HW2 6956   3.910   6.446   2.075 -2.8239 -2.0821 -0.3332
 1796SOL    HW3 6957   4.042   6.416   2.008 -1.2843  2.8286  0.0766
 1796SOL    MW4 6958   3.962   6.391   2.033 -0.0226  0.4663 -0.3197
 1797SOL     OW 6959   0.742   2.904   5.829 -0.0650  0.4080  0.1809
 1797SOL    HW2 6960   0.650   2.884   5.812  0.4764 -0.3041 -2.4424
 1797SOL    HW3 6961   0.775   2.940   5.746  1.9736  0.8801  1.1109
 1797SOL    MW4 6962   0.735   2.906   5.816  0.3533  0.0694  0.4352
 1798SOL     OW 6963   5.127   1.494   6.276  0.4194 -0.0789  0.1804
 1798SOL    HW2 6964   5.091   1.532   6.196  0.0483  0.3947  0.5635
 1798SOL    HW3 6965   5.122   1.565   6.341  2.8424  0.3012  0.0497
 1798SOL    MW4 6966   5.121   1.508   6.274 -0.2796 -0.0347  0.0095
 1799SOL     OW 6967   5.666   6.146   2.724 -0.3543 -0.2776  0.2059
 1799SOL    HW2 6968   5.660   6.057   2.692 -3.1624 -0.1147  0.0333
 1799SOL    HW3 6969   5.586   6.159   2.776 -0.0498  2.1274  0.2130
 1799SOL    MW4 6970   5.655   6.136   2.727 -0.4386 -0.4327  0.1207
 1800SOL     OW 6971   1.139   0.242   3.838 -0.1900  0.7597  0.0874
 1800SOL    HW2 6972   1.199   0.200   3.899 -0.5822 -0.9231 -0.6310
 1800SOL    HW3 6973   1.090   0.170   3.799 -0.3229  1.8193 -1.8240
 1800SOL    MW4 6974   1.140   0.227   3.841  1.2505 -0.0304  0.2718
 1801SOL     OW 6975   4.883   4.579   6.053  0.3892  0.7029 -0.0640
 1801SOL    HW2 6976   4.966   4.577   6.100  0.6962  3.1989 -0.3514
 1801SOL    HW3 6977   4.840   4.659   6.084 -1.0211  0.4912 -1.3525
 1801SOL    MW4 6978   4.888   4.589   6.063 -0.3783  0.3409  0.2951
 1802SOL     OW 6979   0.504   1.996   4.670  0.5206 -0.4500 -0.6555
 1802SOL    HW2 6980   0.594   2.025   4.678  0.7217 -0.5933 -2.1263
 1802SOL    HW3 6981   0.502   1.910   4.711  0.6597  0.2225  0.8154
 1802SOL    MW4 6982   0.515   1.988   4.677  0.3449 -0.8441  0.0580
 1803SOL     OW 6983   5.289   2.690   4.325  0.6081  0.4604 -0.5607
 1803SOL    HW2 6984   5.272   2.768   4.379 -0.9662 -1.1016  1.3402
 1803SOL    HW3 6985   5.360   2.645   4.371 -0.3184 -0.5753 -0.1329
 1803SOL    MW4 6986   5.296   2.695   4.338  0.1704  0.3729  0.1533
 1804SOL     OW 6987   1.724   3.237   5.549 -0.2514 -0.0196  0.8919
 1804SOL    HW2 6988   1.778   3.171   5.507  0.1146  0.1174  1.1367
 1804SOL    HW3 6989   1.780   3.272   5.619 -1.2972 -1.1866  2.3761
 1804SOL    MW4 6990   1.739   3.233   5.553  0.2399  0.0496  0.1048
 1805SOL     OW 6991   3.275   5.855   1.881  0.0193 -0.1505  0.6479
 1805SOL    HW2 6992   3.321   5.939   1.881  2.5091 -1.4173  1.1176
 1805SOL    HW3 6993   3.186   5.877   1.907  0.4947  2.3775  0.4401
 1805SOL    MW4 6994   3.270   5.869   1.885  0.1963 -0.1459  0.3327
 1806SOL     OW 6995   5.421   2.445   2.798  0.1138 -0.1705 -0.3646
 1806SOL    HW2 6996   5.457   2.468   2.712  0.7061 -1.6265 -0.5485
 1806SOL    HW3 6997   5.489   2.391   2.838 -1.2279 -1.7255 -0.0750
 1806SOL    MW4 6998   5.435   2.441   2.792 -0.0580  0.1458  0.4527
 1807SOL     OW 6999   2.711   4.220   0.075  0.2875 -0.2965  0.1520
 1807SOL    HW2 7000   2.713   4.128   0.103  0.3057 -0.7046 -1.1344
 1807SOL    HW3 7001   2.644   4.260   0.130 -0.8396 -1.4578 -0.3191
 1807SOL    MW4 7002   2.703   4.213   0.086  0.3011  0.4239  0.4131
 1808SOL     OW 7003   3.952   1.154   0.381 -0.1582  0.5000 -0.2062
 1808SOL    HW2 7004   3.898   1.100   0.439  2.3009 -3.1170 -0.9461
 1808SOL    HW3 7005   3.987   1.222   0.438 -0.9669 -0.5375  1.6129
 1808SOL    MW4 7006   3.950   1.156   0.396  0.6342 -0.3692  0.1847
 1809SOL     OW 7007   0.884   2.844   5.193 -0.1470  0.4427  0.4831
 1809SOL    HW2 7008   0.844   2.790   5.124 -1.8214  0.0185  1.7239
 1809SOL    HW3 7009   0.813   2.900   5.223  0.8494  1.3850  1.1514
 1809SOL    MW4 7010   0.869   2.844   5.188 -0.1344  0.2697  0.2258
 1810SOL     OW 7011   5.872   6.088   0.636 -0.1018  0.1199  0.0367
 1810SOL    HW2 7012   5.943   6.030   0.665  1.0879  1.4211 -0.1982
 1810SOL    HW3 7013   5.793   6.048   0.672  1.0775  0.5482  3.4742
 1810SOL    MW4 7014   5.871   6.075   0.645  0.0896  0.1719  0.2016
 1811SOL     OW 7015   1.263   1.133   5.781  0.0854  0.3129 -0.0529
 1811SOL    HW2 7016   1.357   1.121   5.769  0.3605 -0.9356  2.5911
 1811SOL    HW3 7017   1.251   1.228   5.782  0.9823  0.5162 -2.0802
 1811SOL    MW4 7018   1.274   1.144   5.779  0.4843  0.4477  0.6651
 1812SOL     OW 7019   0.255   4.818   5.755 -0.3326  0.2123 -0.1519
 1812SOL    HW2 7020   0.292   4.837   5.842  0.7034 -1.9580 -0.0441
 1812SOL    HW3 7021   0.179   4.875   5.748  0.8410  2.0690  1.2464
 1812SOL    MW4 7022   0.250   4.828   5.766  0.3829  0.0693  0.3873
 1813SOL     OW 7023   5.440   1.810   3.787  0.2557 -0.0553 -0.2438
 1813SOL    HW2 7024   5.352   1.840   3.809  1.2979  1.0897  2.8974
 1813SOL    HW3 7025   5.484   1.888   3.752  0.6372 -0.0276  0.2867
 1813SOL    MW4 7026   5.434   1.824   3.785 -0.2168 -0.5611  0.4481
 1814SOL     OW 7027   0.029   1.480   4.554 -0.1732 -0.0155 -0.0127
 1814SOL    HW2 7028   0.091   1.543   4.590 -0.3147 -0.0776  0.3395
 1814SOL    HW3 7029  -0.001   1.521   4.472 -1.3978  1.0990  0.9356
 1814SOL    MW4 7030   0.033   1.494   4.548  0.0027  0.0346  0.1335
 1815SOL     OW 7031   3.052   5.488   3.578  0.0141  0.5447  0.6486
 1815SOL    HW2 7032   3.069   5.425   3.509 -4.2378 -0.8159  0.5171
 1815SOL    HW3 7033   3.113   5.560   3.562  1.5940 -1.2831 -2.2953
 1815SOL    MW4 7034   3.062   5.489   3.567 -0.0144 -0.6468  0.3441
 1816SOL     OW 7035   1.543   2.450   2.910  0.3351 -0.2966  0.5642
 1816SOL    HW2 7036   1.579   2.440   2.822 -0.8475  0.2934 -0.0025
 1816SOL    HW3 7037   1.453   2.418   2.903  0.3094 -0.4878  1.6252
 1816SOL    MW4 7038   1.536   2.444   2.897  0.3143  0.5159  0.0624
 1817SOL     OW 7039   3.605   2.564   1.894  0.1706 -0.0152  0.0176
 1817SOL    HW2 7040   3.536   2.586   1.956  0.8376 -1.2272  1.2620
 1817SOL    HW3 7041   3.673   2.524   1.947  1.3871  0.1717 -1.3233
 1817SOL    MW4 7042   3.605   2.561   1.909 -0.3244  0.0745  0.3311
 1818SOL     OW 7043   1.649   2.943   4.497  0.3199 -0.2174 -0.3612
 1818SOL    HW2 7044   1.561   2.912   4.475  0.2047  0.1787 -0.4550
 1818SOL    HW3 7045   1.651   3.034   4.468 -0.5466  1.0544  3.1974
 1818SOL    MW4 7046   1.638   2.951   4.490  0.3476 -0.7573 -0.5600
 1819SOL     OW 7047   3.476   6.295   3.055 -0.3426 -0.5483  0.3752
 1819SOL    HW2 7048   3.421   6.372   3.068 -0.7931 -0.7698 -0.1976
 1819SOL    HW3 7049   3.551   6.310   3.113  0.5971  1.2890 -1.2056
 1819SOL    MW4 7050   3.479   6.307   3.065  0.0237  0.3823 -0.3023
 1820SOL     OW 7051   5.423   0.096   1.749 -0.6771  0.0034 -0.1874
 1820SOL    HW2 7052   5.438   0.153   1.673 -2.0778 -1.0973 -1.3439
 1820SOL    HW3 7053   5.461   0.012   1.723  1.4588  0.3330  1.5441
 1820SOL    MW4 7054   5.430   0.093   1.735  0.5644 -0.0309  0.3342
 1821SOL     OW 7055   0.178   4.837   2.999 -0.8744  0.3601  0.8191
 1821SOL    HW2 7056   0.172   4.743   3.020 -1.0594  0.2332  0.2061
 1821SOL    HW3 7057   0.262   4.846   2.954 -1.4575  0.2459 -0.3258
 1821SOL    MW4 7058   0.189   4.826   2.996 -0.1880  0.2324 -0.1578
 1822SOL     OW 7059   1.387   3.313   4.159  0.0394 -0.1411  0.3893
 1822SOL    HW2 7060   1.471   3.350   4.133  0.3688 -0.3484  1.1118
 1822SOL    HW3 7061   1.351   3.377   4.220 -0.4189  0.0335 -0.0580
 1822SOL    MW4 7062   1.393   3.326   4.164  0.3062  0.6242 -0.5226
 1823SOL     OW 7063   2.870   4.213   0.484 -0.2421  0.1086  0.7293
 1823SOL    HW2 7064   2.947   4.266   0.504 -0.9955  0.2665  3.8360
 1823SOL    HW3 7065   2.893   4.165   0.405  2.0276  2.0424  0.1078
 1823SOL    MW4 7066   2.883   4.214   0.476 -0.1930  0.4467 -0.0399
 1824SOL     OW 7067   1.303   1.706   1.020 -0.0573 -0.2631 -0.0071
 1824SOL    HW2 7068   1.338   1.769   0.957  0.2986  0.5440  0.9745
 1824SOL    HW3 7069   1.323   1.621   0.982 -0.1140  0.2057 -1.1261
 1824SOL    MW4 7070   1.310   1.703   1.007  0.0383  0.2239 -0.4373
 1825SOL     OW 7071   0.516   6.401   0.404  0.3840 -0.5901 -0.0518
 1825SOL    HW2 7072   0.506   6.386   0.310 -1.6185  0.8808 -0.1494
 1825SOL    HW3 7073   0.551   6.490   0.411 -0.6324 -0.2177  0.5785
 1825SOL    MW4 7074   0.520   6.411   0.393  1.4968 -0.2966  0.2566
 1826SOL     OW 7075   5.184   0.163   4.890  0.1413  0.4444 -0.0694
 1826SOL    HW2 7076   5.173   0.176   4.795 -2.1867 -0.9686 -0.0880
 1826SOL    HW3 7077   5.134   0.235   4.930  2.9415  2.3784  0.2305
 1826SOL    MW4 7078   5.176   0.174   4.882 -0.3480 -0.2485 -0.4116
 1827SOL     OW 7079   1.618   0.364   2.595  0.3638 -0.4136  0.1872
 1827SOL    HW2 7080   1.623   0.273   2.625 -1.7747 -0.4912  0.4482
 1827SOL    HW3 7081   1.683   0.369   2.525  0.0488 -2.3253 -0.3080
 1827SOL    MW4 7082   1.627   0.352   2.590  0.0694 -0.5601 -0.5918
 1828SOL     OW 7083   2.284   1.600   0.168 -0.9018 -0.0588  0.1747
 1828SOL    HW2 7084   2.243   1.683   0.190  1.7564  0.7762  2.6859
 1828SOL    HW3 7085   2.324   1.614   0.082 -0.0905  1.4524  0.7715
 1828SOL    MW4 7086   2.284   1.613   0.160  0.5720  0.1248  0.3139
 1829SOL     OW 7087   4.313   3.967   4.415 -0.3164 -0.6940  0.4231
 1829SOL    HW2 7088   4.405   3.991   4.428 -0.6451 -0.2245  2.0879
 1829SOL    HW3 7089   4.281   3.948   4.502 -1.1160 -3.5820 -0.4013
 1829SOL    MW4 7090   4.321   3.968   4.428 -0.1901 -0.3984 -0.9717
 1830SOL     OW 7091   4.396   5.691   4.172 -0.0699 -0.0480  0.2613
 1830SOL    HW2 7092   4.465   5.625   4.184 -0.8532 -0.7544  1.0949
 1830SOL    HW3 7093   4.430   5.769   4.215 -0.3781 -0.8476  2.0913
 1830SOL    MW4 7094   4.409   5.692   4.179  0.3423  0.2567  0.1579
 1831SOL     OW 7095   0.589   1.777   0.800  0.1480  0.1705  0.3573
 1831SOL    HW2 7096   0.533   1.809   0.729 -0.4417 -0.7184  0.4076
 1831SOL    HW3 7097   0.657   1.843   0.808 -1.3987  1.7969  0.9327
 1831SOL    MW4 7098   0.590   1.790   0.792  0.7194 -0.2573 -0.0016
 1832SOL     OW 7099   2.972   6.289   2.129  0.3427 -0.2205  0.1348
 1832SOL    HW2 7100   3.051   6.236   2.135 -1.9815 -4.6330 -2.7325
 1832SOL    HW3 7101   2.981   6.336   2.045  0.3605  0.1969  0.3651
 1832SOL    MW4 7102   2.983   6.288   2.119 -0.4759 -0.1269  0.5654
 1833SOL     OW 7103   3.841   6.163   3.006 -0.2324  0.4241  0.3241
 1833SOL    HW2 7104   3.929   6.166   2.968  0.4080  1.6919  1.8043
 1833SOL    HW3 7105   3.842   6.088   3.064 -0.5132 -0.2205 -0.4807
 1833SOL    MW4 7106   3.853   6.154   3.008  0.2741  0.2362  0.3335
 1834SOL     OW 7107   5.908   0.905   2.531  0.2162 -0.0916 -0.0784
 1834SOL    HW2 7108   5.967   0.965   2.487 -0.6277  1.1785  0.4293
 1834SOL    HW3 7109   5.946   0.893   2.618  0.1506  0.0784 -0.0260
 1834SOL    MW4 7110   5.921   0.911   2.537 -0.0384 -0.2423  0.1459
 1835SOL     OW 7111   1.203   4.482   5.602  0.3609 -0.2037  0.1640
 1835SOL    HW2 7112   1.184   4.397   5.561  0.2818 -0.1035 -0.0119
 1835SOL    HW3 7113   1.124   4.503   5.651  0.8832 -0.8586  1.3088
 1835SOL    MW4 7114   1.190   4.473   5.603  0.1561  0.4149 -0.0293
 1836SOL     OW 7115   2.019   3.151   5.867  0.4128 -0.2096  0.3553
 1836SOL    HW2 7116   1.981   3.235   5.839  0.9629 -0.3581 -0.9065
 1836SOL    HW3 7117   2.038   3.105   5.785 -0.1673 -1.7144  1.0284
 1836SOL    MW4 7118   2.016   3.156   5.852 -0.1735 -0.2889  0.1422
 1837SOL     OW 7119   4.798   0.351   0.294  0.3110  0.4207  0.2827
 1837SOL    HW2 7120   4.833   0.393   0.373  1.1098  0.8559 -0.2844
 1837SOL    HW3 7121   4.866   0.364   0.228  0.1860 -0.9924 -0.1644
 1837SOL    MW4 7122   4.812   0.358   0.296  0.1179  0.4811  0.4597
 1838SOL     OW 7123   6.098   4.432   4.177 -0.0142 -0.5742  0.4786
 1838SOL    HW2 7124   6.053   4.374   4.237 -2.3312 -0.3649 -0.9166
 1838SOL    HW3 7125   6.135   4.374   4.110 -0.9621 -0.5819 -0.0574
 1838SOL    MW4 7126   6.097   4.417   4.176 -0.4120 -0.3459  0.5896
 1839SOL     OW 7127   4.937   2.659   5.912 -0.2266  0.4615  0.2016
 1839SOL    HW2 7128   4.914   2.569   5.891  0.7364  0.1211  0.5452
 1839SOL    HW3 7129   4.986   2.690   5.835 -0.0071  0.4785  0.3474
 1839SOL    MW4 7130   4.941   2.651   5.899 -0.0887 -0.2228 -0.1736
 1840SOL     OW 7131   5.940   0.624   2.457 -0.6709 -0.1159 -0.0101
 1840SOL    HW2 7132   5.871   0.594   2.399  1.0758 -2.0172 -1.2232
 1840SOL    HW3 7133   5.951   0.717   2.435 -1.2004 -0.3870 -1.4979
 1840SOL    MW4 7134   5.932   0.632   2.446 -0.1862  0.2974 -0.5317
 1841SOL     OW 7135   0.171   2.146   2.460 -0.3142  0.0543  0.0973
 1841SOL    HW2 7136   0.137   2.231   2.434  1.7969  0.5744 -1.2383
 1841SOL    HW3 7137   0.232   2.165   2.531 -1.0797 -0.5870  0.9590
 1841SOL    MW4 7138   0.175   2.160   2.466 -0.3315  0.2431 -0.6053
 1842SOL     OW 7139   4.655   3.047   1.254  0.3474  0.3205  0.1687
 1842SOL    HW2 7140   4.621   2.963   1.284 -0.3356 -0.2268 -1.9758
 1842SOL    HW3 7141   4.728   3.025   1.196 -0.9081  1.0126 -1.8153
 1842SOL    MW4 7142   4.660   3.033   1.250  0.3576 -0.6921  0.3352
 1843SOL     OW 7143   2.006   4.638   0.715  0.5972 -0.2409 -0.0526
 1843SOL    HW2 7144   2.098   4.663   0.707  1.4474 -3.4240 -2.7242
 1843SOL    HW3 7145   1.959   4.699   0.659  1.0493  1.3033  1.1957
 1843SOL    MW4 7146   2.012   4.649   0.707 -0.3264  0.0773 -0.1432
 1844SOL     OW 7147   5.587   2.992   4.134  0.3283 -0.2579  0.3807
 1844SOL    HW2 7148   5.653   3.041   4.086  0.0012  1.2816  1.4254
 1844SOL    HW3 7149   5.503   3.024   4.100  0.0986 -1.1444  0.0795
 1844SOL    MW4 7150   5.585   3.003   4.123 -0.4161  0.7207 -0.3376
 1845SOL     OW 7151   1.052   3.540   5.049  0.0442 -0.0921  0.1677
 1845SOL    HW2 7152   1.141   3.573   5.060 -0.0853  0.5030 -0.5100
 1845SOL    HW3 7153   0.999   3.617   5.032 -0.7268 -0.3697  1.2135
 1845SOL    MW4 7154   1.056   3.554   5.048  0.3680 -0.5419  0.2556
 1846SOL     OW 7155   3.084   0.173   6.055 -0.3332  0.3959  0.2745
 1846SOL    HW2 7156   3.070   0.268   6.064 -0.3549  0.2459  2.3326
 1846SOL    HW3 7157   3.178   0.161   6.068 -0.1209  0.2223 -1.2492
 1846SOL    MW4 7158   3.094   0.184   6.058  0.3070  0.5683 -0.0813
 1847SOL     OW 7159   2.264   4.757   1.506  0.2594  0.5459 -0.1975
 1847SOL    HW2 7160   2.316   4.776   1.585  0.0124 -0.4356  0.2203
 1847SOL    HW3 7161   2.310   4.803   1.436 -0.3975  2.7736  0.7318
 1847SOL    MW4 7162   2.277   4.766   1.508  0.5946 -0.2771  0.0735
 1848SOL     OW 7163   1.887   1.606   5.195  0.5028  0.2873 -0.4086
 1848SOL    HW2 7164   1.935   1.616   5.277 -0.2868 -1.6175  0.3295
 1848SOL    HW3 7165   1.804   1.652   5.210  0.4486  0.1300 -0.2273
 1848SOL    MW4 7166   1.882   1.614   5.208 -0.0136 -0.1370 -0.2704
 1849SOL     OW 7167   2.515   6.316   0.369 -0.1357  0.0101  0.3588
 1849SOL    HW2 7168   2.438   6.355   0.410  0.2101  0.2153  0.8335
 1849SOL    HW3 7169   2.512   6.224   0.394 -0.8405 -0.2340 -0.5845
 1849SOL    MW4 7170   2.505   6.309   0.378 -0.1441  0.4220  0.1007
 1850SOL     OW 7171   2.109   5.488   3.827 -0.5322 -0.6414 -0.4893
 1850SOL    HW2 7172   2.069   5.543   3.895  2.1786 -0.5523  1.1588
 1850SOL    HW3 7173   2.099   5.539   3.747 -2.6333 -0.1487  0.0101
 1850SOL    MW4 7174   2.102   5.502   3.825  0.7991  0.0976 -0.1734
 1851SOL     OW 7175   5.993   2.079   0.071 -0.5039  0.3469 -0.1539
 1851SOL    HW2 7176   5.944   2.017   0.125 -1.6227  0.8967 -0.5007
 1851SOL    HW3 7177   5.946   2.080  -0.012 -1.0016  2.2491  0.1116
 1851SOL    MW4 7178   5.980   2.071   0.067  0.7586 -0.2384 -0.4021
 1852SOL     OW 7179   3.115   1.203   0.076 -0.2009 -0.0409  0.1403
 1852SOL    HW2 7180   3.144   1.207  -0.015  0.9295  2.6879  0.5455
 1852SOL    HW3 7181   3.192   1.228   0.127 -0.8966 -1.2409  1.8524
 1852SOL    MW4 7182   3.129   1.207   0.071 -0.1129  0.2921  0.4009
 1853SOL     OW 7183   0.277   3.190   2.210 -0.3591  0.4995 -0.9670
 1853SOL    HW2 7184   0.213   3.254   2.180 -1.1670  0.3106  0.2750
 1853SOL    HW3 7185   0.347   3.193   2.145 -0.4177  2.5643 -0.9937
 1853SOL    MW4 7186   0.278   3.199   2.198  0.0581  0.2652 -0.1430
 1854SOL     OW 7187   0.519   1.387   5.417 -0.0603 -0.6351  0.0411
 1854SOL    HW2 7188   0.459   1.444   5.465  1.6126 -0.2334  1.7729
 1854SOL    HW3 7189   0.463   1.317   5.384 -1.7263  0.5433  0.2199
 1854SOL    MW4 7190   0.504   1.385   5.419 -0.2011 -0.2978 -0.1277
 1855SOL     OW 7191   1.600   1.396   5.150 -0.2273 -0.0737 -0.4122
 1855SOL    HW2 7192   1.609   1.456   5.224 -1.7774 -0.9669  0.5663
 1855SOL    HW3 7193   1.512   1.360   5.159 -0.0609 -1.0156 -2.0962
 1855SOL    MW4 7194   1.590   1.399   5.161 -0.4481  0.3664  0.5607
 1856SOL     OW 7195   1.328   0.342   1.472  0.1847 -0.1790  0.2046
 1856SOL    HW2 7196   1.253   0.393   1.502  1.1814  0.3236  1.9359
 1856SOL    HW3 7197   1.294   0.253   1.462 -0.8633  0.2331 -0.0350
 1856SOL    MW4 7198   1.313   0.337   1.474  0.1824  0.0887  0.8174
 1857SOL     OW 7199   2.872   3.640   5.748  0.4784  0.2757 -0.1935
 1857SOL    HW2 7200   2.818   3.711   5.783 -0.1299 -1.0094  1.5787
 1857SOL    HW3 7201   2.961   3.676   5.748  0.4379  0.5544  2.2520
 1857SOL    MW4 7202   2.877   3.654   5.752  0.2716 -0.1284 -0.1581
 1858SOL     OW 7203   2.462   5.097   3.763 -0.4184 -0.7333  0.2403
 1858SOL    HW2 7204   2.484   5.052   3.845  2.0056 -3.4263 -1.6932
 1858SOL    HW3 7205   2.497   5.185   3.774  3.4607 -2.1506  0.8159
 1858SOL    MW4 7206   2.469   5.103   3.775 -0.0792 -0.1148  0.1535
 1859SOL     OW 7207   1.092   2.669   5.403  0.1021 -0.1961  0.2678
 1859SOL    HW2 7208   1.015   2.723   5.422 -0.2378 -1.0156  1.3553
 1859SOL    HW3 7209   1.058   2.580   5.399  0.6802 -0.3682 -1.3465
 1859SOL    MW4 7210   1.077   2.664   5.405  0.8226 -0.1679  0.1849
 1860SOL     OW 7211   2.455   2.751   0.436  0.3295 -0.4535  0.2750
 1860SOL    HW2 7212   2.493   2.821   0.382  0.6076 -0.9032 -0.1203
 1860SOL    HW3 7213   2.368   2.784   0.460  0.9532  0.5786  1.1809
 1860SOL    MW4 7214   2.449   2.765   0.432  0.1230 -0.6580  0.1708
 1861SOL     OW 7215   2.142   4.055   2.980 -0.7648  0.0362 -0.0518
 1861SOL    HW2 7216   2.138   4.092   2.892 -1.5467 -1.9541 -0.9182
 1861SOL    HW3 7217   2.051   4.036   3.002 -0.4153 -1.2111  0.3940
 1861SOL    MW4 7218   2.129   4.057   2.972 -0.2224 -0.7807  0.0896
 1862SOL     OW 7219   1.581   6.338   6.185 -0.2426  0.0565 -0.0985
 1862SOL    HW2 7220   1.590   6.433   6.195  0.0994  0.3369 -2.4762
 1862SOL    HW3 7221   1.579   6.324   6.090 -3.3313 -2.0488  0.1372
 1862SOL    MW4 7222   1.582   6.348   6.174 -0.4301  0.2858 -0.0052
 1863SOL     OW 7223   2.018   1.333   2.153  0.1735 -0.0590 -0.1978
 1863SOL    HW2 7224   2.024   1.422   2.117 -0.3783  0.3347  0.6589
 1863SOL    HW3 7225   2.062   1.278   2.088 -1.8274  0.4364 -2.0610
 1863SOL    MW4 7226   2.025   1.338   2.140 -0.7141  0.4445  0.1251
 1864SOL     OW 7227   6.419   2.448   6.388  0.2885 -0.3166  0.2160
 1864SOL    HW2 7228   6.405   2.459   6.294  0.1352 -1.2493  0.1239
 1864SOL    HW3 7229   6.334   2.468   6.427  0.4443  0.4193  0.1917
 1864SOL    MW4 7230   6.406   2.452   6.381 -0.1192 -0.0368  0.8818
 1865SOL     OW 7231   5.029   4.446   2.342  0.0077 -0.2008  0.4509
 1865SOL    HW2 7232   5.013   4.373   2.403  1.5750  0.5591  1.8635
 1865SOL    HW3 7233   4.979   4.519   2.379 -0.4846 -0.1922 -0.2147
 1865SOL    MW4 7234   5.020   4.446   2.355  0.0709 -0.2171 -0.8937
 1866SOL     OW 7235   3.388   5.888   4.453 -0.2239  0.3140  0.5363
 1866SOL    HW2 7236   3.416   5.978   4.474 -1.5590  1.1366 -1.0011
 1866SOL    HW3 7237   3.309   5.899   4.401 -0.7896 -1.8048  0.8613
 1866SOL    MW4 7238   3.382   5.902   4.449  0.0761 -0.3894  0.3208
 1867SOL     OW 7239   2.507   1.624   4.909  0.0209  0.7742  0.1385
 1867SOL    HW2 7240   2.427   1.639   4.859  0.8936  3.1629 -0.7204
 1867SOL    HW3 7241   2.479   1.573   4.985 -1.8631 -0.4389 -1.2852
 1867SOL    MW4 7242   2.493   1.620   4.912 -0.3684  0.4136 -0.0664
 1868SOL     OW 7243   3.459   4.702   3.128  0.5163 -0.4985 -0.3250
 1868SOL    HW2 7244   3.413   4.672   3.206  1.0189 -2.4750 -0.7193
 1868SOL    HW3 7245   3.392   4.746   3.076  0.4326  2.0464  1.7131
 1868SOL    MW4 7246   3.444   4.704   3.132 -0.3394 -0.5156  0.2312
 1869SOL     OW 7247   0.374   4.557   0.651  0.2456  0.3059 -0.0142
 1869SOL    HW2 7248   0.395   4.587   0.739  1.0046  2.0437 -0.7367
 1869SOL    HW3 7249   0.281   4.576   0.640  0.0781 -0.2022  0.5072
 1869SOL    MW4 7250   0.365   4.563   0.661 -0.0985 -0.1747  0.7359
 1870SOL     OW 7251   5.305   3.520   6.262  0.4058  0.5171 -0.5355
 1870SOL    HW2 7252   5.254   3.441   6.242 -1.6707  1.9861 -1.4051
 1870SOL    HW3 7253   5.268   3.552   6.344  0.0088  1.5170 -1.0893
 1870SOL    MW4 7254   5.293   3.514   6.270  0.6100  0.1775  0.5878
 1871SOL     OW 7255   1.658   0.583   0.216  0.1731  0.1820  0.7127
 1871SOL    HW2 7256   1.598   0.517   0.250  0.6261 -0.7445 -0.2184
 1871SOL    HW3 7257   1.672   0.643   0.290 -2.4260  0.8602  0.7413
 1871SOL    MW4 7258   1.652   0.582   0.231 -0.1205 -0.0932 -0.2450
 1872SOL     OW 7259   0.231   6.009   4.422  1.2207 -0.3659 -0.1649
 1872SOL    HW2 7260   0.219   6.104   4.433  1.1671 -0.3432 -0.3983
 1872SOL    HW3 7261   0.303   6.001   4.359  1.8782 -0.4966  0.6010
 1872SOL    MW4 7262   0.239   6.021   4.415 -0.1447 -0.0525  0.8630
 1873SOL     OW 7263   3.234   0.554   2.275 -0.3756 -0.2219 -0.1241
 1873SOL    HW2 7264   3.280   0.533   2.193  0.0687  1.6960 -0.4286
 1873SOL    HW3 7265   3.257   0.483   2.334  0.6730 -0.7864 -1.1545
 1873SOL    MW4 7266   3.243   0.542   2.272  0.1292  0.1485 -0.2921
 1874SOL     OW 7267   4.944   0.746   4.523  0.1085  0.2917 -0.0879
 1874SOL    HW2 7268   4.936   0.654   4.498  2.2986 -0.2756  1.0576
 1874SOL    HW3 7269   4.990   0.745   4.607 -0.9484  2.4080  0.6046
 1874SOL    MW4 7270   4.949   0.734   4.531 -0.8932  0.3521  0.4964
 1875SOL     OW 7271   3.978   0.876   4.015  0.6801  0.0270 -0.4495
 1875SOL    HW2 7272   3.932   0.915   4.089 -0.7923  1.6877 -2.1279
 1875SOL    HW3 7273   4.036   0.811   4.054  1.0971  1.8706  2.2936
 1875SOL    MW4 7274   3.980   0.873   4.030  0.1020 -0.2773  0.0729
 1876SOL     OW 7275   5.586   5.043   5.955  0.1785 -0.7725  0.3419
 1876SOL    HW2 7276   5.628   5.115   5.910  0.9254 -0.3583  1.6517
 1876SOL    HW3 7277   5.492   5.057   5.941  0.2750  0.8056  1.0582
 1876SOL    MW4 7278   5.579   5.054   5.947 -0.1857 -0.5805  0.0602
 1877SOL     OW 7279   3.700   1.347   3.633 -0.0661 -0.1100  0.3952
 1877SOL    HW2 7280   3.775   1.367   3.689 -0.2084 -1.7771  1.2581
 1877SOL    HW3 7281   3.731   1.276   3.576 -0.2915  0.7603 -0.8541
 1877SOL    MW4 7282   3.714   1.340   3.633  0.2132  0.5152 -0.6175
 1878SOL     OW 7283   1.520   5.811   3.192  0.3698 -0.4623  0.0384
 1878SOL    HW2 7284   1.615   5.799   3.192  0.5000  0.5217 -0.5334
 1878SOL    HW3 7285   1.496   5.820   3.100 -0.2141 -0.1924  0.2092
 1878SOL    MW4 7286   1.529   5.810   3.180 -0.1397 -0.1280  0.0804
 1879SOL     OW 7287   0.984   0.849   1.509  0.7289 -0.4357  0.3599
 1879SOL    HW2 7288   0.973   0.944   1.506  0.1137 -0.5317 -1.2270
 1879SOL    HW3 7289   0.921   0.815   1.446 -0.3818 -2.0484  2.2490
 1879SOL    MW4 7290   0.974   0.857   1.500  0.3076 -0.1248  0.6127
 1880SOL     OW 7291   0.656   0.975   0.005 -0.3054 -0.0561 -0.1670
 1880SOL    HW2 7292   0.687   0.886   0.020  2.5688  0.9192  0.3422
 1880SOL    HW3 7293   0.713   1.029   0.060 -1.2960  2.1861 -1.2290
 1880SOL    MW4 7294   0.667   0.970   0.014  1.0586  0.0350  0.4701
 1881SOL     OW 7295   0.265   5.980   1.816 -0.0802  0.7018 -0.1268
 1881SOL    HW2 7296   0.311   6.014   1.740  0.7136 -0.1660 -0.0508
 1881SOL    HW3 7297   0.185   5.941   1.780 -0.1735  1.1425 -0.3998
 1881SOL    MW4 7298   0.260   5.979   1.801  0.5140  0.1192  0.2043
 1882SOL     OW 7299   5.541   2.620   4.660  0.6331  0.0091  0.0559
 1882SOL    HW2 7300   5.461   2.598   4.707  1.5026  0.8512  2.0325
 1882SOL    HW3 7301   5.609   2.570   4.704  1.2912 -0.2822 -1.2534
 1882SOL    MW4 7302   5.539   2.611   4.672 -0.3287 -0.1093  0.3030
 1883SOL     OW 7303   0.152   5.126   1.243 -0.2347  0.4887  0.3864
 1883SOL    HW2 7304   0.069   5.089   1.272 -0.1445  0.9684  1.2707
 1883SOL    HW3 7305   0.145   5.127   1.147 -1.5864  1.2825  0.4667
 1883SOL    MW4 7306   0.140   5.121   1.234 -0.4300 -0.2314 -0.1201
 1884SOL     OW 7307   0.706   5.092   2.598 -0.2267 -0.3689  0.2352
 1884SOL    HW2 7308   0.633   5.147   2.628  0.2855  1.0265 -0.9848
 1884SOL    HW3 7309   0.670   5.003   2.598 -1.3636  0.0553  1.3704
 1884SOL    MW4 7310   0.691   5.087   2.602 -0.4625  0.2839 -0.6473
 1885SOL     OW 7311   4.717   5.023   2.683  0.3030  0.3547 -0.2507
 1885SOL    HW2 7312   4.762   4.941   2.661 -0.0785  0.0598  0.0540
 1885SOL    HW3 7313   4.773   5.065   2.749 -1.0747 -1.2267  2.0658
 1885SOL    MW4 7314   4.731   5.018   2.689  0.0615  0.0767  0.2307
 1886SOL     OW 7315   2.336   1.429   3.311  0.1315 -0.6759  0.3760
 1886SOL    HW2 7316   2.287   1.371   3.369  0.4235 -2.6781 -1.2577
 1886SOL    HW3 7317   2.417   1.383   3.293  0.7612  0.6414 -0.3437
 1886SOL    MW4 7318   2.340   1.416   3.316 -0.8193  0.2721 -0.1992
 1887SOL     OW 7319   3.278   2.215   2.374  0.1444  0.3870 -0.4462
 1887SOL    HW2 7320   3.183   2.199   2.371  0.4243 -1.3895 -1.1601
 1887SOL    HW3 7321   3.299   2.246   2.286  0.6344 -2.2004 -1.3301
 1887SOL    MW4 7322   3.268   2.217   2.362  0.4448 -0.7692  0.3924
 1888SOL     OW 7323   2.604   2.310   4.681 -0.0962 -0.1415  0.0384
 1888SOL    HW2 7324   2.545   2.260   4.737 -0.5105 -0.2760 -0.5039
 1888SOL    HW3 7325   2.545   2.359   4.623  0.3171 -0.7676 -0.9352
 1888SOL    MW4 7326   2.588   2.310   4.681  0.7478  0.4303  0.2569
 1889SOL     OW 7327   5.136   6.037   2.153 -0.8522 -0.5027  0.2368
 1889SOL    HW2 7328   5.190   6.109   2.121  0.8460 -1.1234  1.5474
 1889SOL    HW3 7329   5.059   6.037   2.096 -0.1806  1.3693 -0.7429
 1889SOL    MW4 7330   5.133   6.047   2.142  0.6748 -0.0519  0.4892
 1890SOL     OW 7331   5.518   1.634   5.572  0.5061  0.3792 -0.1255
 1890SOL    HW2 7332   5.426   1.610   5.560  0.7751 -0.2409 -1.0961
 1890SOL    HW3 7333   5.541   1.679   5.490  1.2606 -0.1344 -0.1974
 1890SOL    MW4 7334   5.509   1.637   5.559 -0.6454 -1.0642 -0.0681
 1891SOL     OW 7335   6.307   4.525   0.035 -0.1566 -0.0878 -0.0518
 1891SOL    HW2 7336   6.303   4.586  -0.039  2.3017  0.2246 -0.0364
 1891SOL    HW3 7337   6.381   4.467   0.014 -0.9476 -1.5547  1.0414
 1891SOL    MW4 7338   6.317   4.526   0.023 -0.1965 -0.0825 -0.3158
 1892SOL     OW 7339   0.513   5.141   2.168 -0.1318 -0.0935  0.3683
 1892SOL    HW2 7340   0.558   5.079   2.225 -1.3058 -0.4063  0.9846
 1892SOL    HW3 7341   0.465   5.087   2.106  0.3866  0.2357 -0.3323
 1892SOL    MW4 7342   0.513   5.126   2.168  0.3783  0.6264 -0.2866
 1893SOL     OW 7343   0.917   3.885   6.182 -0.9107  0.2076 -0.0461
 1893SOL    HW2 7344   0.989   3.943   6.209 -0.5770  0.5138 -1.4743
 1893SOL    HW3 7345   0.838   3.939   6.190 -0.8997  0.1128  0.8067
 1893SOL    MW4 7346   0.916   3.900   6.187  0.1296 -0.2146  0.6651
 1894SOL     OW 7347   5.219   0.472   3.846 -0.4176  0.2253  0.6911
 1894SOL    HW2 7348   5.274   0.416   3.900 -0.4002  1.4563  2.0146
 1894SOL    HW3 7349   5.279   0.510   3.782  0.1293  0.9409  1.6150
 1894SOL    MW4 7350   5.234   0.470   3.845 -0.8787 -0.3030  0.3798
 1895SOL     OW 7351   1.936   0.156   2.825 -0.5966  0.1115 -0.5021
 1895SOL    HW2 7352   1.845   0.164   2.853 -0.8704 -3.9721  0.4610
 1895SOL    HW3 7353   1.968   0.077   2.870  3.1095  0.7688 -1.6305
 1895SOL    MW4 7354   1.929   0.146   2.834  0.0646  0.1020  0.4383
 1896SOL     OW 7355   2.316   4.288   1.642  0.5294  0.1427  1.0668
 1896SOL    HW2 7356   2.301   4.364   1.586  0.6484 -0.4508  0.2097
 1896SOL    HW3 7357   2.243   4.289   1.703 -1.0923 -0.6415 -0.7397
 1896SOL    MW4 7358   2.305   4.298   1.643 -0.3182  0.1820 -0.2002
 1897SOL     OW 7359   2.913   4.303   4.411  0.7856  0.8182  0.3317
 1897SOL    HW2 7360   2.970   4.295   4.334  2.8289  1.0550  1.7339
 1897SOL    HW3 7361   2.850   4.232   4.402  1.5162  0.3101 -1.1184
 1897SOL    MW4 7362   2.912   4.293   4.399 -0.0280 -0.1548 -0.2434
 1898SOL     OW 7363   2.896   3.134   5.380 -0.2756  0.0580 -0.2247
 1898SOL    HW2 7364   2.912   3.179   5.463 -0.6066  0.1762 -0.2257
 1898SOL    HW3 7365   2.826   3.072   5.398  1.3221 -1.6987  0.2141
 1898SOL    MW4 7366   2.889   3.132   5.393 -0.2986  0.1300  0.0806
 1899SOL     OW 7367   4.022   3.834   1.784 -0.1293 -0.2290  0.6042
 1899SOL    HW2 7368   3.975   3.831   1.700  1.5133 -0.7574 -0.3538
 1899SOL    HW3 7369   3.961   3.877   1.844 -2.3934 -2.1484 -0.1609
 1899SOL    MW4 7370   4.008   3.839   1.781  0.4719  0.1412  0.5499
 1900SOL     OW 7371   5.475   1.118   2.068 -0.0637  0.6518  0.1849
 1900SOL    HW2 7372   5.515   1.032   2.052  0.3154  0.5842  1.3623
 1900SOL    HW3 7373   5.461   1.155   1.981  1.5970  0.2179 -0.3032
 1900SOL    MW4 7374   5.478   1.111   2.054 -0.3653 -0.1306 -0.0966
 1901SOL     OW 7375   1.316   0.949   6.070  0.1831  0.6961  0.1902
 1901SOL    HW2 7376   1.258   0.925   5.998 -0.4450  2.0256  0.2290
 1901SOL    HW3 7377   1.399   0.972   6.027 -0.2808  1.7739 -0.1631
 1901SOL    MW4 7378   1.319   0.949   6.055  0.0429 -0.2727 -0.2279
 1902SOL     OW 7379   4.251   3.400   0.666  0.3728  0.5413  0.3220
 1902SOL    HW2 7380   4.334   3.361   0.641 -0.0553 -0.4180  0.3212
 1902SOL    HW3 7381   4.228   3.458   0.593 -0.2523 -1.2590 -0.9872
 1902SOL    MW4 7382   4.259   3.402   0.653 -0.3260 -0.1853 -0.2599
 1903SOL     OW 7383   3.403   1.898   3.499  0.2806 -0.6564 -0.0655
 1903SOL    HW2 7384   3.468   1.958   3.535  0.5160 -1.6288  1.1977
 1903SOL    HW3 7385   3.446   1.857   3.424 -0.7234  2.4831 -2.5780
 1903SOL    MW4 7386   3.417   1.900   3.493 -0.0187 -0.0699 -0.1770
 1904SOL     OW 7387   6.026   2.338   2.327  0.2616  0.4693 -0.4308
 1904SOL    HW2 7388   5.944   2.387   2.333 -0.5362 -0.7187 -1.1489
 1904SOL    HW3 7389   6.037   2.322   2.233  0.1145 -1.3074 -0.1670
 1904SOL    MW4 7390   6.016   2.343   2.315 -0.3381 -0.3748  0.0621
 1905SOL     OW 7391   1.678   3.022   0.090 -0.0979  0.3790  0.3152
 1905SOL    HW2 7392   1.758   3.028   0.037 -0.2103 -0.8245 -0.0165
 1905SOL    HW3 7393   1.607   3.026   0.027 -0.2804  0.7403  0.5435
 1905SOL    MW4 7394   1.679   3.023   0.075 -0.2110  0.2470 -0.3755
 1906SOL     OW 7395   5.286   0.182   5.988  0.0988 -0.0717  0.0784
 1906SOL    HW2 7396   5.241   0.180   5.904 -2.1713 -0.5078  1.2113
 1906SOL    HW3 7397   5.325   0.095   5.997  0.0658 -0.1336 -0.3648
 1906SOL    MW4 7398   5.285   0.170   5.978 -0.6875  0.7334 -0.1902
 1907SOL     OW 7399   0.380   5.683   4.232  0.0540  0.2911  0.0838
 1907SOL    HW2 7400   0.448   5.668   4.167 -0.6717  0.7803 -0.8152
 1907SOL    HW3 7401   0.408   5.632   4.308  1.6104  0.7924 -0.1188
 1907SOL    MW4 7402   0.393   5.674   4.233  0.1775 -0.3789  0.0018
 1908SOL     OW 7403   3.942   4.929   0.834 -0.5768 -0.2293  0.1242
 1908SOL    HW2 7404   3.921   4.945   0.926 -0.8492  1.5299 -0.2184
 1908SOL    HW3 7405   3.878   4.979   0.785  0.3325 -0.1323 -1.0118
 1908SOL    MW4 7406   3.931   4.938   0.840 -0.0664  0.0081 -0.2434
 1909SOL     OW 7407   0.439   4.010   2.772 -0.6431  0.1625 -0.1264
 1909SOL    HW2 7408   0.401   4.093   2.742  0.1767  0.4289 -0.4333
 1909SOL    HW3 7409   0.529   4.031   2.794 -0.4067 -0.6722 -0.2851
 1909SOL    MW4 7410   0.446   4.024   2.771 -0.6623  0.1085  0.0904
 1910SOL     OW 7411   5.885   2.770   1.602 -0.3772  1.1575  0.0878
 1910SOL    HW2 7412   5.889   2.856   1.560 -1.4324  0.5925 -1.2253
 1910SOL    HW3 7413   5.927   2.711   1.539  1.4975  0.8746  1.5233
 1910SOL    MW4 7414   5.891   2.774   1.588  0.5976 -0.5637  0.6793
 1911SOL     OW 7415   4.115   0.779   1.840  0.0510 -0.1363 -0.1648
 1911SOL    HW2 7416   4.200   0.823   1.836 -0.2454  0.4064 -0.5851
 1911SOL    HW3 7417   4.124   0.704   1.782 -0.2784  0.8482 -1.5423
 1911SOL    MW4 7418   4.128   0.775   1.832 -0.8351 -0.2244  0.0253
 1912SOL     OW 7419   2.970   1.767   3.893  0.1865 -0.2073 -0.1218
 1912SOL    HW2 7420   3.018   1.847   3.871 -0.0772 -0.1620 -0.5557
 1912SOL    HW3 7421   2.915   1.751   3.816 -0.0448 -0.5920  0.1219
 1912SOL    MW4 7422   2.969   1.776   3.880  0.0715 -0.1653  0.4779
 1913SOL     OW 7423   1.292   4.063   4.787 -0.5702 -0.5754  0.3456
 1913SOL    HW2 7424   1.379   4.069   4.827 -0.3877 -0.0736 -0.1075
 1913SOL    HW3 7425   1.293   4.130   4.719 -1.0721 -1.0321 -0.1217
 1913SOL    MW4 7426   1.304   4.072   4.783 -0.4197  0.0361  0.0003
 1914SOL     OW 7427   3.009   6.395   1.873 -0.4625  0.3328  0.5486
 1914SOL    HW2 7428   2.947   6.365   1.807  1.3344  0.2829 -1.1976
 1914SOL    HW3 7429   3.092   6.355   1.848  0.5545  1.3571  2.1092
 1914SOL    MW4 7430   3.011   6.385   1.861  0.3956 -0.1434  0.5888
 1915SOL     OW 7431   6.033   3.152   5.966  0.0948 -0.0595 -0.3662
 1915SOL    HW2 7432   5.941   3.160   5.940 -0.1956 -2.3630 -0.2789
 1915SOL    HW3 7433   6.030   3.141   6.061  0.4171 -0.6520 -0.4226
 1915SOL    MW4 7434   6.020   3.152   5.975 -0.0521  0.0214 -0.2923
 1916SOL     OW 7435   3.116   2.497   3.436  0.4299 -0.4256 -0.1156
 1916SOL    HW2 7436   3.129   2.585   3.402 -2.3804  1.6060  3.3665
 1916SOL    HW3 7437   3.129   2.506   3.531 -2.4783 -3.1025  0.6976
 1916SOL    MW4 7438   3.119   2.510   3.444 -0.2941 -0.3849 -0.0452
 1917SOL     OW 7439   5.120   0.215   4.586 -0.9842 -0.4349 -0.1527
 1917SOL    HW2 7440   5.024   0.212   4.594 -1.0925 -1.4360 -1.5136
 1917SOL    HW3 7441   5.147   0.123   4.583 -0.3474 -0.2399 -3.1535
 1917SOL    MW4 7442   5.111   0.203   4.587 -0.0557  0.2607 -0.8542
 1918SOL     OW 7443   5.371   3.073   4.928 -0.5338  0.1371  0.8768
 1918SOL    HW2 7444   5.408   3.030   5.004 -0.6149 -0.6621  0.4756
 1918SOL    HW3 7445   5.305   3.012   4.895  2.5075 -1.6858 -2.4589
 1918SOL    MW4 7446   5.367   3.060   4.933  0.7053  0.7608  0.6756
 1919SOL     OW 7447   1.632   1.434   1.612  0.4944 -0.5374 -0.1218
 1919SOL    HW2 7448   1.630   1.517   1.659  2.0708 -0.4789 -0.1097
 1919SOL    HW3 7449   1.551   1.433   1.561 -0.1422  0.4283  0.8304
 1919SOL    MW4 7450   1.621   1.445   1.611 -0.4085 -0.9799 -0.6384
 1920SOL     OW 7451   4.386   3.717   4.746 -0.6443 -0.0636 -0.0547
 1920SOL    HW2 7452   4.293   3.727   4.725 -0.4699 -0.1090 -0.8908
 1920SOL    HW3 7453   4.403   3.623   4.736 -0.8137 -0.2848  1.4787
 1920SOL    MW4 7454   4.376   3.706   4.742  0.0936 -0.3573  0.0823
 1921SOL     OW 7455   2.930   0.640   0.126  0.1471 -0.3605  0.0976
 1921SOL    HW2 7456   2.976   0.556   0.130  2.0803  0.6836  3.3333
 1921SOL    HW3 7457   2.912   0.662   0.217 -0.0105  2.8703 -0.5971
 1921SOL    MW4 7458   2.934   0.632   0.138 -0.5085  0.2780 -0.3206
 1922SOL     OW 7459   0.271   5.220   5.030  0.0057 -0.2565  0.5474
 1922SOL    HW2 7460   0.300   5.303   4.992  0.0084  0.2562  1.6234
 1922SOL    HW3 7461   0.198   5.192   4.976 -0.5515  0.8940  0.6704
 1922SOL    MW4 7462   0.265   5.227   5.018  0.2616  0.1940  0.0074
 1923SOL     OW 7463   1.203   0.669   4.737 -0.1601  0.4929  0.3539
 1923SOL    HW2 7464   1.145   0.728   4.689 -1.5313 -0.0195  1.2855
 1923SOL    HW3 7465   1.150   0.641   4.812  1.2603 -0.1446  1.1548
 1923SOL    MW4 7466   1.188   0.673   4.741  0.3627  0.3062  0.5205
 1924SOL     OW 7467   2.744   1.992   3.592  0.9054 -0.1662 -0.6482
 1924SOL    HW2 7468   2.709   1.988   3.503  0.8510  0.5764 -0.6679
 1924SOL    HW3 7469   2.762   2.085   3.606 -2.0592  0.2654  1.2470
 1924SOL    MW4 7470   2.742   2.004   3.582 -0.4825 -0.4646 -0.9383
 1925SOL     OW 7471   1.061   0.328   2.209  0.4491 -0.2856 -0.0386
 1925SOL    HW2 7472   0.994   0.389   2.179 -1.9240 -2.7102  0.0280
 1925SOL    HW3 7473   1.083   0.359   2.297  0.7073  1.5041 -0.6795
 1925SOL    MW4 7474   1.055   0.340   2.217 -0.7099 -0.0991 -0.7841
 1926SOL     OW 7475   3.360   4.716   5.427  0.1543 -0.0881 -0.2622
 1926SOL    HW2 7476   3.440   4.676   5.393 -0.0333 -0.7587  0.0779
 1926SOL    HW3 7477   3.383   4.745   5.516 -0.1550 -0.8530  0.0746
 1926SOL    MW4 7478   3.373   4.715   5.434 -0.0588  0.1040 -0.1232
 1927SOL     OW 7479   2.709   0.509   3.301  0.0627  0.5958  0.0464
 1927SOL    HW2 7480   2.715   0.536   3.210 -0.3077  0.9707  0.1273
 1927SOL    HW3 7481   2.648   0.572   3.340  0.2883  0.4956  0.5710
 1927SOL    MW4 7482   2.702   0.521   3.294  0.7369  0.5936  1.1384
 1928SOL     OW 7483   0.416   5.209   0.509 -0.5092 -0.7577 -0.2584
 1928SOL    HW2 7484   0.511   5.200   0.508 -0.4263  0.0509 -0.7570
 1928SOL    HW3 7485   0.385   5.139   0.566  0.4311 -0.6076  0.4431
 1928SOL    MW4 7486   0.424   5.198   0.516 -0.0788  0.1858 -0.3483
 1929SOL     OW 7487   4.173   0.214   5.779 -0.5383 -0.2807 -0.0980
 1929SOL    HW2 7488   4.162   0.123   5.806  0.4573 -0.1941  0.6799
 1929SOL    HW3 7489   4.176   0.264   5.861 -1.1438  0.4718 -0.5119
 1929SOL    MW4 7490   4.172   0.209   5.793  0.4707  0.3669  0.0416
 1930SOL     OW 7491   0.860   2.219   4.193 -0.5835  0.4242  0.0423
 1930SOL    HW2 7492   0.885   2.261   4.275  3.1018  0.9783 -1.2168
 1930SOL    HW3 7493   0.824   2.290   4.139  1.2392  1.0729 -0.3827
 1930SOL    MW4 7494   0.858   2.234   4.197  0.0930 -0.3157  0.3832
 1931SOL     OW 7495   5.476   4.293   5.688 -0.1089 -0.0655 -0.7382
 1931SOL    HW2 7496   5.397   4.240   5.676  1.3962 -2.7946  0.5264
 1931SOL    HW3 7497   5.545   4.243   5.646  1.3779  1.0708  0.2491
 1931SOL    MW4 7498   5.474   4.280   5.681 -0.4926 -0.2315 -0.3929
 1932SOL     OW 7499   1.680   6.392   3.136  0.2568  0.0220 -0.6676
 1932SOL    HW2 7500   1.680   6.315   3.080  0.8159 -0.4859  0.0104
 1932SOL    HW3 7501   1.754   6.444   3.106 -1.0153  1.0797 -2.1345
 1932SOL    MW4 7502   1.690   6.389   3.125  0.0933 -0.2373 -0.3195
 1933SOL     OW 7503   2.009   0.021   4.473  0.1730  0.3380  0.1503
 1933SOL    HW2 7504   1.972  -0.043   4.411  0.1750  0.2454  0.2453
 1933SOL    HW3 7505   2.103   0.017   4.458  0.0246  2.9081 -2.4380
 1933SOL    MW4 7506   2.016   0.012   4.463  0.6952  0.1790 -0.5888
 1934SOL     OW 7507   2.580   1.500   3.646  0.5612 -0.0539  0.4694
 1934SOL    HW2 7508   2.669   1.510   3.679  1.1880 -1.1128 -0.8047
 1934SOL    HW3 7509   2.579   1.548   3.564 -0.6522  1.6184  1.4137
 1934SOL    MW4 7510   2.591   1.507   3.640 -0.1009  0.1460 -0.4587
 1935SOL     OW 7511   5.257   3.795   0.838 -0.1165  0.3655  0.4850
 1935SOL    HW2 7512   5.260   3.712   0.790 -0.6153  1.1278 -0.9171
 1935SOL    HW3 7513   5.309   3.855   0.785 -0.5757  1.2146  0.9805
 1935SOL    MW4 7514   5.264   3.792   0.825  0.2846  0.0577 -0.0104
 1936SOL     OW 7515   5.580   3.606   1.584 -0.0823 -0.2607  0.1108
 1936SOL    HW2 7516   5.649   3.574   1.641  0.5105  1.6283  0.5374
 1936SOL    HW3 7517   5.502   3.556   1.609  1.1574 -2.6770 -0.6276
 1936SOL    MW4 7518   5.579   3.596   1.595  0.1929 -0.2485  0.0219
 1937SOL     OW 7519   3.274   0.922   6.097  0.2877  0.3332 -0.1249
 1937SOL    HW2 7520   3.186   0.921   6.135 -0.5236  3.0571 -1.6405
 1937SOL    HW3 7521   3.327   0.872   6.159 -1.7871  0.8755  2.2757
 1937SOL    MW4 7522   3.269   0.916   6.110  0.7723  0.6126  0.0747
 1938SOL     OW 7523   6.380   4.848   2.813 -0.8362  0.3304 -0.3102
 1938SOL    HW2 7524   6.330   4.925   2.842 -0.3878  0.2424  0.7500
 1938SOL    HW3 7525   6.453   4.843   2.875 -0.1860 -0.2437 -1.1183
 1938SOL    MW4 7526   6.383   4.858   2.825  0.0128  0.1847 -0.0186
 1939SOL     OW 7527   1.864   5.673   6.231  0.3697  0.0184  0.1502
 1939SOL    HW2 7528   1.904   5.757   6.211  0.8741 -0.3055 -0.2413
 1939SOL    HW3 7529   1.840   5.636   6.146  3.0232 -1.6152 -0.0042
 1939SOL    MW4 7530   1.866   5.679   6.217 -0.0866 -0.1038 -0.5377
 1940SOL     OW 7531   4.363   3.189   0.315  0.6007  0.4169  0.4243
 1940SOL    HW2 7532   4.309   3.190   0.235  0.2233 -1.4384  0.6037
 1940SOL    HW3 7533   4.386   3.097   0.326  1.0761  0.7260  2.1907
 1940SOL    MW4 7534   4.359   3.177   0.306  0.0835  0.9286 -0.2664
 1941SOL     OW 7535   2.702   5.749   2.650  0.0490 -0.1245 -0.3029
 1941SOL    HW2 7536   2.664   5.707   2.728 -0.7199 -2.5325 -1.8624
 1941SOL    HW3 7537   2.787   5.782   2.680 -0.6857  0.0362  1.8129
 1941SOL    MW4 7538   2.708   5.747   2.664 -0.4095 -0.0995  0.4407
 1942SOL     OW 7539   2.062   5.491   0.483  0.2027  0.2701 -0.0948
 1942SOL    HW2 7540   1.990   5.429   0.485 -1.4330  2.0959  1.1686
 1942SOL    HW3 7541   2.119   5.464   0.555 -1.8661  1.6633  2.2054
 1942SOL    MW4 7542   2.060   5.479   0.493  0.1787 -0.2587  0.1472
 1943SOL     OW 7543   4.226   2.669   5.838 -0.5297  0.3316 -0.1026
 1943SOL    HW2 7544   4.208   2.582   5.804  1.9245 -0.0115 -0.7340
 1943SOL    HW3 7545   4.231   2.657   5.933 -1.9262  0.1807 -0.0252
 1943SOL    MW4 7546   4.224   2.656   5.846 -0.2329 -0.1463  0.0853
 1944SOL     OW 7547   5.491   4.274   5.087  0.4931 -0.4645  0.0866
 1944SOL    HW2 7548   5.567   4.242   5.039  0.6193 -0.3654  0.2225
 1944SOL    HW3 7549   5.525   4.304   5.171  0.4933  0.7384 -0.3236
 1944SOL    MW4 7550   5.505   4.274   5.091 -0.2794  0.1711  0.0736
 1945SOL     OW 7551   6.010   2.917   3.766 -0.7716 -0.1008 -0.2406
 1945SOL    HW2 7552   5.960   2.978   3.711 -1.6957  1.4316  2.1428
 1945SOL    HW3 7553   6.089   2.964   3.789 -0.6076 -0.5388  0.1187
 1945SOL    MW4 7554   6.014   2.931   3.761  0.1240  0.2618  0.6330
 1946SOL     OW 7555   0.158   2.950   4.341  0.5248 -0.1647 -0.3073
 1946SOL    HW2 7556   0.118   2.868   4.369 -1.7971  1.3597  1.1874
 1946SOL    HW3 7557   0.232   2.961   4.401 -0.6990  0.0292  1.2416
 1946SOL    MW4 7558   0.163   2.940   4.353 -0.2218  0.3828  0.1004
 1947SOL     OW 7559   4.555   4.338   1.488  0.4303 -0.1086 -0.1200
 1947SOL    HW2 7560   4.568   4.270   1.422 -0.3441 -0.1284 -0.2623
 1947SOL    HW3 7561   4.461   4.335   1.508  0.8739 -1.2239  2.1845
 1947SOL    MW4 7562   4.544   4.329   1.482  0.0358  0.1607 -0.4090
 1948SOL     OW 7563   3.648   3.296   1.481  0.1869 -0.2835  0.0797
 1948SOL    HW2 7564   3.671   3.284   1.389  2.1187 -1.7319  0.6848
 1948SOL    HW3 7565   3.586   3.226   1.499  0.1724 -0.2945 -0.0117
 1948SOL    MW4 7566   3.643   3.285   1.471  0.0551  0.6092 -0.0329
 1949SOL     OW 7567   1.350   3.327   3.873 -0.3848 -0.3145  0.0283
 1949SOL    HW2 7568   1.387   3.327   3.961 -1.5953  2.5378  0.6523
 1949SOL    HW3 7569   1.410   3.381   3.821 -1.6892  1.4023  0.1924
 1949SOL    MW4 7570   1.362   3.334   3.877  0.2115 -0.9241 -0.0523
 1950SOL     OW 7571   1.405   4.338   5.757 -0.2685 -0.4368 -0.1147
 1950SOL    HW2 7572   1.349   4.399   5.710 -0.3639 -1.3563 -1.2377
 1950SOL    HW3 7573   1.354   4.257   5.762  1.1869 -1.5626 -1.8775
 1950SOL    MW4 7574   1.391   4.335   5.752 -0.1760 -0.2598  0.0405
 1951SOL     OW 7575   6.059   0.318   5.794 -0.1737  0.9375 -0.5048
 1951SOL    HW2 7576   6.139   0.335   5.745 -0.6729  0.6740 -1.4373
 1951SOL    HW3 7577   6.012   0.401   5.793  0.0913  1.0972  0.0581
 1951SOL    MW4 7578   6.063   0.331   5.787 -0.0055  0.4627  0.2186
 1952SOL     OW 7579   3.508   2.771   2.495 -0.1762 -0.1510  0.3318
 1952SOL    HW2 7580   3.596   2.752   2.526 -0.2669 -0.5507  0.3444
 1952SOL    HW3 7581   3.479   2.845   2.548  0.1260 -0.0590  0.3704
 1952SOL    MW4 7582   3.516   2.779   2.506 -0.0704 -0.5887  0.1987
 1953SOL     OW 7583   2.338   3.182   1.052 -0.1637 -0.1076 -0.2568
 1953SOL    HW2 7584   2.346   3.091   1.022  0.1688  0.1735 -1.0552
 1953SOL    HW3 7585   2.244   3.195   1.063 -0.1225 -1.1960  2.0256
 1953SOL    MW4 7586   2.327   3.171   1.049  0.1525  0.1028 -0.0660
 1954SOL     OW 7587   1.280   6.401   0.953 -0.4113 -0.1666 -0.0818
 1954SOL    HW2 7588   1.287   6.412   0.858  0.4239  1.2938  0.1210
 1954SOL    HW3 7589   1.366   6.368   0.980 -0.1811  0.7530  0.3243
 1954SOL    MW4 7590   1.292   6.398   0.944  0.2515 -0.2135 -0.5365
 1955SOL     OW 7591   3.996   1.105   3.865 -0.2175 -0.4413  0.0246
 1955SOL    HW2 7592   4.007   1.025   3.916 -0.7099 -1.4735 -1.4085
 1955SOL    HW3 7593   4.084   1.141   3.857 -0.0832 -0.4570  1.2535
 1955SOL    MW4 7594   4.009   1.099   3.871  0.3103 -0.1095  0.4086
 1956SOL     OW 7595   3.251   3.701   4.636 -0.3387  0.1947 -0.2125
 1956SOL    HW2 7596   3.254   3.720   4.729  0.8533  1.6525 -0.5138
 1956SOL    HW3 7597   3.341   3.710   4.606 -0.6982 -0.2259 -1.5206
 1956SOL    MW4 7598   3.263   3.705   4.644  0.0794  0.0011  0.1931
 1957SOL     OW 7599   4.830   2.374   0.538 -0.0251  0.5441  0.3716
 1957SOL    HW2 7600   4.760   2.439   0.531  0.4365  1.4120  2.7673
 1957SOL    HW3 7601   4.893   2.413   0.599  1.9709 -0.7290 -0.7533
 1957SOL    MW4 7602   4.829   2.388   0.545 -0.7161  0.5302  0.3746
 1958SOL     OW 7603   2.059   5.198   3.292  0.2865 -0.5746  1.1151
 1958SOL    HW2 7604   2.024   5.114   3.260  1.1685 -0.8122  0.7587
 1958SOL    HW3 7605   2.153   5.184   3.297  0.3813  0.2222  1.6014
 1958SOL    MW4 7606   2.066   5.185   3.288 -0.3460 -0.0762 -0.4068
 1959SOL     OW 7607   3.826   2.255   0.869 -0.3275  0.1407 -0.7957
 1959SOL    HW2 7608   3.758   2.310   0.908 -2.7650 -2.2669 -1.4155
 1959SOL    HW3 7609   3.825   2.174   0.920  0.5622 -0.7915 -2.1903
 1959SOL    MW4 7610   3.817   2.252   0.881 -0.7774  0.3319 -0.3564
 1960SOL     OW 7611   5.497   3.794   5.018  0.4237 -0.0621  0.0850
 1960SOL    HW2 7612   5.516   3.869   4.960 -1.7634  1.2487  0.9207
 1960SOL    HW3 7613   5.456   3.730   4.960 -0.3988  0.6319 -0.1309
 1960SOL    MW4 7614   5.494   3.796   5.002 -0.3625  0.1332  0.7587
 1961SOL     OW 7615   4.743   5.990   2.594 -0.3422 -0.0883  0.2347
 1961SOL    HW2 7616   4.721   6.062   2.654 -1.4236 -1.1541  1.1626
 1961SOL    HW3 7617   4.701   5.913   2.632 -3.5554 -0.3893 -3.2905
 1961SOL    MW4 7618   4.734   5.990   2.607  0.1325  0.2578  0.2393
 1962SOL     OW 7619   5.671   4.443   1.418  0.4280  0.3218 -0.1071
 1962SOL    HW2 7620   5.752   4.418   1.375  2.0128  0.7512  2.4026
 1962SOL    HW3 7621   5.675   4.400   1.504 -0.9114  2.1436  0.9448
 1962SOL    MW4 7622   5.682   4.434   1.424 -0.3757 -0.8216 -0.3132
 1963SOL     OW 7623   1.237   4.582   4.361 -0.1007  0.3631  0.1496
 1963SOL    HW2 7624   1.314   4.528   4.344  0.1863 -0.0711  2.4607
 1963SOL    HW3 7625   1.165   4.535   4.318  0.4948 -0.7284  0.2940
 1963SOL    MW4 7626   1.237   4.568   4.353 -0.3478 -0.3955  0.3174
 1964SOL     OW 7627   0.772   3.973   4.115  0.3046  0.6433 -0.0868
 1964SOL    HW2 7628   0.684   4.005   4.133  0.2390  1.3964 -1.5764
 1964SOL    HW3 7629   0.821   3.991   4.195 -0.7883  0.6147  0.5967
 1964SOL    MW4 7630   0.767   3.980   4.128  0.5263 -0.0108 -0.6335
 1965SOL     OW 7631   3.235   2.370   1.538 -0.2123 -0.6242  0.4688
 1965SOL    HW2 7632   3.245   2.284   1.579  2.4303 -0.1732  0.9722
 1965SOL    HW3 7633   3.316   2.382   1.489 -0.8372  1.2945 -0.1588
 1965SOL    MW4 7634   3.247   2.360   1.537  0.4772  0.1106 -0.1956
 1966SOL     OW 7635   2.538   1.667   5.330  0.3716 -0.4120  0.5163
 1966SOL    HW2 7636   2.567   1.631   5.413  0.0787  0.7313  1.1304
 1966SOL    HW3 7637   2.577   1.754   5.326 -1.6522  0.5566  0.6547
 1966SOL    MW4 7638   2.547   1.674   5.340  0.0522  0.5386 -0.3709
 1967SOL     OW 7639   4.636   6.216   2.785 -0.1022  0.6476 -0.2345
 1967SOL    HW2 7640   4.546   6.242   2.764 -0.3718  1.7848  2.0096
 1967SOL    HW3 7641   4.689   6.293   2.764 -0.2212  1.3665  1.8750
 1967SOL    MW4 7642   4.631   6.229   2.780  0.5933 -0.1466 -0.6584
 1968SOL     OW 7643   1.731   5.811   3.523  0.1756 -0.8285  0.0264
 1968SOL    HW2 7644   1.713   5.738   3.465  1.5666  0.3058 -1.9829
 1968SOL    HW3 7645   1.645   5.848   3.543 -0.4417 -2.2022  0.0064
 1968SOL    MW4 7646   1.718   5.806   3.518  0.2374 -0.4159  0.3738
 1969SOL     OW 7647   5.026   6.377   2.162 -0.7834  0.2943  0.0859
 1969SOL    HW2 7648   5.115   6.344   2.148 -1.0626 -0.4846  0.1414
 1969SOL    HW3 7649   4.985   6.373   2.076 -1.1301 -0.4282  0.2849
 1969SOL    MW4 7650   5.032   6.372   2.149 -0.6520  0.2424 -0.0336
 1970SOL     OW 7651   6.010   3.539   3.962 -0.3965  0.3147  0.1508
 1970SOL    HW2 7652   6.103   3.556   3.949 -0.5256  0.9788  0.0963
 1970SOL    HW3 7653   5.971   3.625   3.974 -0.8524 -0.0302  1.2235
 1970SOL    MW4 7654   6.017   3.552   3.961 -0.0921 -0.6510 -0.1321
 1971SOL     OW 7655   0.290   0.202   1.238 -0.2384  0.3756 -0.1742
 1971SOL    HW2 7656   0.318   0.229   1.325  1.1085  1.3695 -0.8579
 1971SOL    HW3 7657   0.260   0.283   1.196  0.0466  0.1010 -0.9381
 1971SOL    MW4 7658   0.290   0.216   1.244 -0.1305  0.4841 -0.2355
 1972SOL     OW 7659   2.939   5.399   0.559  0.6836  0.0209  0.0170
 1972SOL    HW2 7660   2.919   5.311   0.589 -0.8349  1.1481  2.7669
 1972SOL    HW3 7661   2.976   5.443   0.636  0.3774  2.0585 -0.9125
 1972SOL    MW4 7662   2.941   5.393   0.573 -0.1412 -0.3989 -0.2439
 1973SOL     OW 7663   3.144   0.587   4.058  0.1744  0.3093 -0.1536
 1973SOL    HW2 7664   3.229   0.549   4.034  0.2031 -0.2091  0.7472
 1973SOL    HW3 7665   3.165   0.653   4.124 -0.0978  0.3622 -0.1212
 1973SOL    MW4 7666   3.158   0.590   4.063  0.3294 -0.2447 -0.2530
 1974SOL     OW 7667   0.056   3.052   3.693 -0.0178 -0.0624 -0.5506
 1974SOL    HW2 7668   0.022   3.079   3.608  1.2468  0.1839 -0.9934
 1974SOL    HW3 7669  -0.022   3.047   3.749 -0.6458  1.6372 -1.2102
 1974SOL    MW4 7670   0.041   3.054   3.690 -0.0382  0.6743  0.0072
 1975SOL     OW 7671   2.641   4.586   1.668  0.2885 -0.4322  0.0887
 1975SOL    HW2 7672   2.685   4.669   1.687 -0.4556 -0.2439  1.1043
 1975SOL    HW3 7673   2.679   4.524   1.730  2.7074 -1.5604 -2.3308
 1975SOL    MW4 7674   2.652   4.589   1.679  0.1638 -0.4745  0.0751
 1976SOL     OW 7675   1.150   1.224   2.860  0.1868 -0.8678 -0.1837
 1976SOL    HW2 7676   1.128   1.137   2.827  0.7662 -1.1162  0.0852
 1976SOL    HW3 7677   1.238   1.215   2.896  1.0951  0.2914 -1.9525
 1976SOL    MW4 7678   1.159   1.211   2.860 -0.2291  0.3330 -0.1362
 1977SOL     OW 7679   6.392   0.955   1.471  0.1844  0.3733  0.0989
 1977SOL    HW2 7680   6.333   1.027   1.495 -0.3547  0.6859 -1.9525
 1977SOL    HW3 7681   6.344   0.876   1.498  0.2661  0.7113  1.3124
 1977SOL    MW4 7682   6.378   0.954   1.478  0.0328 -0.3052  0.2502
 1978SOL     OW 7683   5.852   2.678   1.872  0.3629  0.0766 -0.3848
 1978SOL    HW2 7684   5.838   2.713   1.784  0.0058 -0.4665 -0.5491
 1978SOL    HW3 7685   5.813   2.591   1.870 -0.3928  0.3770  0.5623
 1978SOL    MW4 7686   5.845   2.671   1.860  0.3687 -0.9583 -0.6685
 1979SOL     OW 7687   2.726   0.444   0.391  0.1180 -0.4810  0.1412
 1979SOL    HW2 7688   2.793   0.511   0.372  0.2715 -0.3312  1.1406
 1979SOL    HW3 7689   2.732   0.383   0.318  1.6788 -0.7160  0.4094
 1979SOL    MW4 7690   2.736   0.445   0.379 -0.1716  0.4157  0.2578
 1980SOL     OW 7691   5.140   5.595   1.718  0.5046  0.4290  0.1576
 1980SOL    HW2 7692   5.151   5.594   1.813  0.1308  0.0279  0.1954
 1980SOL    HW3 7693   5.116   5.685   1.697  0.1337  0.4045  0.4912
 1980SOL    MW4 7694   5.138   5.607   1.728 -0.5500 -0.3576 -0.2591
 1981SOL     OW 7695   0.463   1.967   0.977 -0.5166  0.0292  0.0880
 1981SOL    HW2 7696   0.456   2.057   0.944 -0.5180 -0.1219 -0.3224
 1981SOL    HW3 7697   0.487   1.915   0.901  0.3209 -0.1954  0.4919
 1981SOL    MW4 7698   0.465   1.972   0.963  0.3060 -0.1226 -0.4848
 1982SOL     OW 7699   1.259   4.855   3.726 -0.4111  0.6634  0.7845
 1982SOL    HW2 7700   1.297   4.889   3.645 -0.7241  0.0119  0.3519
 1982SOL    HW3 7701   1.222   4.932   3.770  1.8017  1.4010  1.4605
 1982SOL    MW4 7702   1.259   4.869   3.721  0.6255 -0.0049  0.3387
 1983SOL     OW 7703   1.470   1.038   2.063  0.4341 -0.0598  0.4640
 1983SOL    HW2 7704   1.480   1.079   1.977  2.8192 -2.0587 -0.3309
 1983SOL    HW3 7705   1.491   1.108   2.125  0.2374  0.9960 -0.6070
 1983SOL    MW4 7706   1.474   1.053   2.059 -0.1189 -0.1916  0.6705
 1984SOL     OW 7707   0.186   5.965   3.311  0.3897  0.1975  0.0486
 1984SOL    HW2 7708   0.183   5.874   3.280  1.2756  0.0811  0.2659
 1984SOL    HW3 7709   0.209   6.016   3.233  2.1315 -0.0391  0.3711
 1984SOL    MW4 7710   0.189   5.960   3.296 -0.3269 -0.2984  0.1578
 1985SOL     OW 7711   5.420   0.891   6.028 -0.3270  0.3041  0.2058
 1985SOL    HW2 7712   5.355   0.937   5.975 -1.6581  0.2219  1.7036
 1985SOL    HW3 7713   5.422   0.938   6.111  1.7628  0.4688  0.1324
 1985SOL    MW4 7714   5.412   0.903   6.032 -0.2291 -0.2833 -0.5996
 1986SOL     OW 7715   6.320   3.539   2.039 -0.2614 -0.2545  0.1052
 1986SOL    HW2 7716   6.255   3.471   2.023 -1.9280  0.1526  4.0034
 1986SOL    HW3 7717   6.298   3.608   1.978 -2.7084 -0.6864  0.4030
 1986SOL    MW4 7718   6.308   3.539   2.029 -0.1962  0.4219 -0.4383
 1987SOL     OW 7719   4.663   3.187   4.063 -0.3210  0.2747  0.0942
 1987SOL    HW2 7720   4.748   3.181   4.107  0.4009  2.1699 -0.9575
 1987SOL    HW3 7721   4.663   3.113   4.001  0.2063 -0.2150  0.6646
 1987SOL    MW4 7722   4.675   3.176   4.061 -0.0630  0.6506 -0.2958
 1988SOL     OW 7723   1.425   5.880   1.485  0.0124  0.1545 -0.0671
 1988SOL    HW2 7724   1.371   5.861   1.562  0.8876  2.3037  1.1376
 1988SOL    HW3 7725   1.509   5.907   1.520  0.9902 -0.4127 -1.8569
 1988SOL    MW4 7726   1.429   5.881   1.500 -0.2155  0.2508  0.4824
 1989SOL     OW 7727   0.261   2.403   3.562  0.3550  0.0777 -0.3174
 1989SOL    HW2 7728   0.253   2.312   3.534 -1.0092  0.2629 -0.5706
 1989SOL    HW3 7729   0.219   2.405   3.648 -1.0993  0.7682 -1.0022
 1989SOL    MW4 7730   0.255   2.391   3.570  0.3307 -0.4665  0.0686
 1990SOL     OW 7731   2.010   1.066   3.484  0.0028 -0.0861 -0.2815
 1990SOL    HW2 7732   2.029   1.064   3.390 -0.8995  1.2337 -0.5080
 1990SOL    HW3 7733   2.042   0.981   3.516 -0.5323 -0.9525 -1.9323
 1990SOL    MW4 7734   2.017   1.054   3.475 -0.2138 -0.3159 -0.0539
 1991SOL     OW 7735   5.714   0.038   1.227 -0.5416 -0.0555  0.3115
 1991SOL    HW2 7736   5.791  -0.002   1.266 -1.2240 -0.6938  1.0369
 1991SOL    HW3 7737   5.685  -0.025   1.161  1.5856  1.7260 -2.6167
 1991SOL    MW4 7738   5.720   0.025   1.223  0.2520 -0.0348 -0.0525
 1992SOL     OW 7739   1.057   6.131   2.572  0.1396  0.1405 -0.3466
 1992SOL    HW2 7740   1.039   6.042   2.540 -0.1867  0.4457 -1.0399
 1992SOL    HW3 7741   1.148   6.147   2.546  0.8064 -0.6556  1.3872
 1992SOL    MW4 7742   1.067   6.121   2.564  0.0324 -0.2956 -0.3045
 1993SOL     OW 7743   3.011   3.807   3.531 -0.1132  0.7291 -0.0396
 1993SOL    HW2 7744   2.932   3.793   3.478  0.1434 -1.2026  0.0362
 1993SOL    HW3 7745   3.069   3.858   3.475  0.8504 -2.6456 -2.4414
 1993SOL    MW4 7746   3.008   3.812   3.517 -0.5886  0.0627 -0.0296
 1994SOL     OW 7747   5.067   4.736   5.639  0.2018  0.0036  0.2849
 1994SOL    HW2 7748   5.083   4.700   5.552 -0.3533 -0.4474  0.3631
 1994SOL    HW3 7749   5.090   4.829   5.631 -1.0734  0.2740 -0.7183
 1994SOL    MW4 7750   5.072   4.744   5.627  0.1201 -0.1596  0.1324
 1995SOL     OW 7751   0.811   4.385   4.600 -0.2467  0.5815  0.0317
 1995SOL    HW2 7752   0.729   4.434   4.609  0.1278  1.1106  0.6291
 1995SOL    HW3 7753   0.859   4.404   4.680 -0.3125 -1.1973  0.5147
 1995SOL    MW4 7754   0.806   4.394   4.611  0.6704 -0.0615  0.0643
 1996SOL     OW 7755   5.500   5.203   3.894 -0.0495 -0.5740 -0.7356
 1996SOL    HW2 7756   5.506   5.258   3.816 -0.0963 -1.1811 -1.1774
 1996SOL    HW3 7757   5.573   5.232   3.950 -0.6093  0.5328 -0.5560
 1996SOL    MW4 7758   5.511   5.214   3.891 -0.9618  0.3821  0.3846
 1997SOL     OW 7759   3.160   0.893   2.603 -0.5931 -0.2523  0.1792
 1997SOL    HW2 7760   3.132   0.930   2.519  0.9182 -1.8929 -1.1253
 1997SOL    HW3 7761   3.088   0.836   2.629 -2.0949  1.9815  1.2499
 1997SOL    MW4 7762   3.147   0.890   2.595  0.2297  0.4300 -0.1023
 1998SOL     OW 7763   0.027   0.827   2.439  0.5472  0.3703  0.3649
 1998SOL    HW2 7764   0.067   0.742   2.456 -0.5932 -0.3755 -0.5331
 1998SOL    HW3 7765   0.042   0.877   2.520  0.3282 -1.0331  1.3083
 1998SOL    MW4 7766   0.035   0.822   2.452  0.3785  0.3610 -0.5467
 1999SOL     OW 7767   0.365   6.279   4.901 -0.0077  0.0739 -0.2498
 1999SOL    HW2 7768   0.402   6.200   4.862 -1.7104 -0.8392 -0.1280
 1999SOL    HW3 7769   0.277   6.286   4.863  0.1218  1.9376 -0.2754
 1999SOL    MW4 7770   0.358   6.269   4.891  0.8159  0.0508  0.2472
 2000SOL     OW 7771   4.076   3.644   5.414  0.5613 -0.1055 -0.2648
 2000SOL    HW2 7772   4.146   3.699   5.379 -0.0816  1.1490  0.3635
 2000SOL    HW3 7773   3.995   3.687   5.386  0.0075  0.6767  2.2272
 2000SOL    MW4 7774   4.074   3.657   5.406  0.2756 -0.0052 -0.5908
 2001SOL     OW 7775   0.365   4.297   0.532 -0.2241 -0.1123 -0.4793
 2001SOL    HW2 7776   0.288   4.251   0.566 -0.8981  0.4881 -1.1487
 2001SOL    HW3 7777   0.364   4.382   0.575  0.8253 -0.5782  0.4976
 2001SOL    MW4 7778   0.354   4.302   0.542  0.3209 -0.5022 -0.1579
 2002SOL     OW 7779   5.814   5.344   2.558  1.1600 -0.3431 -0.0504
 2002SOL    HW2 7780   5.777   5.321   2.473  1.2506 -2.6445  0.4599
 2002SOL    HW3 7781   5.741   5.334   2.620  1.4482 -0.1156  0.3343
 2002SOL    MW4 7782   5.800   5.340   2.555 -0.5782  0.0766 -0.7862
 2003SOL     OW 7783   1.712   5.528   1.181 -0.2855 -0.4810  0.4101
 2003SOL    HW2 7784   1.650   5.586   1.225  3.1567  1.2799  3.4394
 2003SOL    HW3 7785   1.712   5.448   1.233 -1.8607 -1.5883 -1.1988
 2003SOL    MW4 7786   1.704   5.525   1.194 -0.2030  0.0375  0.0700
 2004SOL     OW 7787   1.413   3.364   6.336 -0.6419  0.0102  0.3399
 2004SOL    HW2 7788   1.375   3.447   6.309 -0.2502 -0.5416 -2.1977
 2004SOL    HW3 7789   1.507   3.380   6.338 -0.6319 -0.1056  0.8826
 2004SOL    MW4 7790   1.420   3.377   6.332  0.5226 -0.6186 -0.0024
 2005SOL     OW 7791   6.278   0.180   0.541  0.0041  0.7961  0.2137
 2005SOL    HW2 7792   6.242   0.266   0.564 -0.1312  0.2794  2.0236
 2005SOL    HW3 7793   6.372   0.188   0.559  0.4349  1.2559 -1.8704
 2005SOL    MW4 7794   6.286   0.193   0.546  0.2734  0.0832  0.4573
 2006SOL     OW 7795   3.754   5.187   3.197 -0.1392  0.0234 -0.0990
 2006SOL    HW2 7796   3.777   5.202   3.288  0.2886 -0.1224 -0.1801
 2006SOL    HW3 7797   3.658   5.186   3.196 -0.1497  0.6764  0.2379
 2006SOL    MW4 7798   3.744   5.188   3.209  0.3324  0.4228  0.1301
 2007SOL     OW 7799   5.911   0.016   2.534 -0.0190  0.0528 -0.0728
 2007SOL    HW2 7800   5.823   0.003   2.570  0.2580  0.9143  0.9509
 2007SOL    HW3 7801   5.965  -0.051   2.577  0.3275  1.1306  1.2040
 2007SOL    MW4 7802   5.906   0.005   2.544 -0.0198 -0.0510 -0.1952
 2008SOL     OW 7803   4.959   0.534   2.186 -0.1343  0.5822  0.5121
 2008SOL    HW2 7804   4.907   0.454   2.182  1.3176 -0.3808 -0.2957
 2008SOL    HW3 7805   5.004   0.530   2.270  2.1101 -0.9637 -0.6603
 2008SOL    MW4 7806   4.958   0.523   2.196  0.4122 -0.3284 -0.5178
 2009SOL     OW 7807   3.613   1.846   1.149 -0.3891 -0.4566 -0.0699
 2009SOL    HW2 7808   3.673   1.902   1.100 -0.1299 -0.8577 -0.2141
 2009SOL    HW3 7809   3.648   1.847   1.238 -0.7093  0.0596  0.0573
 2009SOL    MW4 7810   3.626   1.854   1.154 -0.5434 -0.2520  0.2773
 2010SOL     OW 7811   5.278   4.686   6.067 -0.1648 -0.6475 -0.3261
 2010SOL    HW2 7812   5.357   4.633   6.071 -0.1312 -0.5712  0.1263
 2010SOL    HW3 7813   5.233   4.656   5.988 -0.4715 -1.8164  0.2624
 2010SOL    MW4 7814   5.282   4.675   6.057  0.0667  0.1751  0.6637
 2011SOL     OW 7815   3.245   4.419   4.780  0.2106  0.1151  0.1608
 2011SOL    HW2 7816   3.193   4.356   4.729  2.2398 -1.2892 -0.2804
 2011SOL    HW3 7817   3.188   4.442   4.854 -0.3994 -2.7854  0.7142
 2011SOL    MW4 7818   3.230   4.414   4.783 -0.4154 -0.4449 -0.0533
 2012SOL     OW 7819   4.211   4.885   5.194 -0.2073 -0.1917 -0.4240
 2012SOL    HW2 7820   4.183   4.976   5.197  0.4736  0.0620  2.9533
 2012SOL    HW3 7821   4.163   4.843   5.266  0.3872 -2.2299 -1.1339
 2012SOL    MW4 7822   4.201   4.891   5.204 -0.6867  0.0490  0.4338
 2013SOL     OW 7823   3.741   5.754   5.715 -0.0542  0.1546  0.3279
 2013SOL    HW2 7824   3.799   5.816   5.669 -0.7603  0.6407  0.0743
 2013SOL    HW3 7825   3.788   5.734   5.796  1.7914 -1.6651 -1.0965
 2013SOL    MW4 7826   3.755   5.760   5.719 -0.3222 -0.0941 -0.2405
 2014SOL     OW 7827   0.968   5.975   4.380 -0.2448  0.4291  0.4338
 2014SOL    HW2 7828   0.994   6.035   4.450 -0.4985  0.2402  0.6920
 2014SOL    HW3 7829   1.007   5.891   4.405 -1.2337  0.1004  0.9165
 2014SOL    MW4 7830   0.977   5.972   4.393 -0.0312  0.4557 -0.2986
 2015SOL     OW 7831   1.601   2.997   1.637  0.3085  0.0121  0.6076
 2015SOL    HW2 7832   1.513   3.028   1.657  0.1097 -1.4426  2.3250
 2015SOL    HW3 7833   1.590   2.903   1.623  1.6800 -0.3284  1.6375
 2015SOL    MW4 7834   1.588   2.989   1.638  0.4438 -0.0534 -0.1793
 2016SOL     OW 7835   5.426   0.015   0.341 -0.0102 -0.6258  0.2224
 2016SOL    HW2 7836   5.411   0.039   0.433  1.2785  1.9908 -0.1430
 2016SOL    HW3 7837   5.359   0.062   0.293 -1.4100 -2.8920 -0.1938
 2016SOL    MW4 7838   5.415   0.024   0.347  0.3421  0.1462 -0.5150
 2017SOL     OW 7839   2.502   0.390   5.758 -0.3026 -0.1990  0.4362
 2017SOL    HW2 7840   2.509   0.485   5.757  0.2995 -0.2374  0.1206
 2017SOL    HW3 7841   2.523   0.364   5.668 -0.2861 -0.6375  0.5654
 2017SOL    MW4 7842   2.506   0.399   5.746 -0.2073  0.2651 -0.5427
 2018SOL     OW 7843   4.225   4.420   2.841  0.1625  0.4110  0.2420
 2018SOL    HW2 7844   4.159   4.352   2.828  2.2122 -1.7711  0.6540
 2018SOL    HW3 7845   4.283   4.414   2.765  1.3285  0.5312  1.0865
 2018SOL    MW4 7846   4.224   4.410   2.830  0.2362  0.1282  0.3149
 2019SOL     OW 7847   3.807   0.652   3.522 -0.4132 -0.2041  0.3209
 2019SOL    HW2 7848   3.855   0.706   3.585 -0.8013  1.7949 -1.0029
 2019SOL    HW3 7849   3.872   0.592   3.486  0.0461 -0.6276  1.7937
 2019SOL    MW4 7850   3.822   0.652   3.526  0.1747  0.4933  0.7303
 2020SOL     OW 7851   4.438   6.426   5.932  0.0931  0.1503 -0.9132
 2020SOL    HW2 7852   4.488   6.413   5.851  1.0849  0.3161 -0.3477
 2020SOL    HW3 7853   4.439   6.521   5.946 -0.6846  0.1888 -1.0735
 2020SOL    MW4 7854   4.445   6.437   5.923  0.2776  0.3552 -0.9626
 2021SOL     OW 7855   2.648   2.222   5.308  0.1139 -0.1473 -0.2052
 2021SOL    HW2 7856   2.697   2.294   5.267 -0.6004 -0.3017 -1.3915
 2021SOL    HW3 7857   2.699   2.200   5.386  1.1155  0.6983 -0.5846
 2021SOL    MW4 7858   2.662   2.229   5.313 -0.1425 -0.0850 -0.4909
 2022SOL     OW 7859   5.054   3.553   1.320 -0.1866  0.2010  0.4238
 2022SOL    HW2 7860   4.966   3.582   1.298  0.0448 -0.0562 -0.8809
 2022SOL    HW3 7861   5.106   3.573   1.243  0.7870 -0.1780  0.9638
 2022SOL    MW4 7862   5.049   3.559   1.307 -0.3924 -0.0566  0.1615
 2023SOL     OW 7863   5.572   2.110   4.254  0.2736 -0.0381  0.2685
 2023SOL    HW2 7864   5.538   2.106   4.343  0.0023 -1.2990  0.1177
 2023SOL    HW3 7865   5.510   2.059   4.202  1.1695 -0.4742 -0.4025
 2023SOL    MW4 7866   5.559   2.103   4.259 -0.1485 -0.0582 -0.6131
 2024SOL     OW 7867   1.198   2.618   5.160  0.1529 -0.5460  0.1983
 2024SOL    HW2 7868   1.148   2.623   5.241  1.0544  0.9312  0.7004
 2024SOL    HW3 7869   1.249   2.538   5.168  0.0899 -0.5138  1.0028
 2024SOL    MW4 7870   1.198   2.608   5.171 -0.0021  0.0317 -0.2482
 2025SOL     OW 7871   5.310   4.934   0.169 -0.3666 -0.5406  0.0123
 2025SOL    HW2 7872   5.244   4.868   0.190 -1.2455  0.1725 -0.4234
 2025SOL    HW3 7873   5.306   4.943   0.074  0.5709 -0.6830 -0.0535
 2025SOL    MW4 7874   5.301   4.927   0.160  0.2308  0.3856  0.1487
 2026SOL     OW 7875   3.185   0.910   4.812 -0.1798  0.2711 -0.1000
 2026SOL    HW2 7876   3.245   0.966   4.761  1.2200  0.9019  2.1166
 2026SOL    HW3 7877   3.146   0.969   4.876 -1.8503 -0.5234 -0.3387
 2026SOL    MW4 7878   3.188   0.925   4.814 -0.2599 -0.4440  0.0449
 2027SOL     OW 7879   3.728   1.568   1.178  0.3281  0.5893 -0.2930
 2027SOL    HW2 7880   3.684   1.558   1.094 -3.0279 -0.7259  1.4160
 2027SOL    HW3 7881   3.739   1.663   1.188  1.6023  0.7360 -2.4943
 2027SOL    MW4 7882   3.723   1.579   1.169 -0.2063 -0.4154  0.3361
 2028SOL     OW 7883   2.806   5.133   5.274 -0.0993 -0.0893  0.2823
 2028SOL    HW2 7884   2.786   5.044   5.247  0.7069 -0.0081 -0.6773
 2028SOL    HW3 7885   2.894   5.128   5.311  0.0242  0.3332  0.0548
 2028SOL    MW4 7886   2.815   5.121   5.275 -0.5324 -0.0980 -0.4512
 2029SOL     OW 7887   2.243   2.136   0.543  0.3685  0.2125  0.6692
 2029SOL    HW2 7888   2.338   2.129   0.548  0.4704  1.7622  1.3464
 2029SOL    HW3 7889   2.211   2.086   0.618  0.7375  1.0186  1.3805
 2029SOL    MW4 7890   2.252   2.128   0.553 -0.0783 -0.3454  0.1780
 2030SOL     OW 7891   1.359   3.180   6.125  0.0317 -0.3334 -0.5951
 2030SOL    HW2 7892   1.264   3.174   6.126  0.0934 -1.9583 -0.7710
 2030SOL    HW3 7893   1.381   3.236   6.199 -1.0338 -0.7502  0.0666
 2030SOL    MW4 7894   1.350   3.186   6.135  0.0270  0.0022  0.3417
 2031SOL     OW 7895   0.221   3.976   1.086  0.7228  0.3345  0.7035
 2031SOL    HW2 7896   0.239   3.928   1.005 -1.6135 -0.3666  0.5122
 2031SOL    HW3 7897   0.287   3.944   1.148  3.1496  1.5505 -1.0822
 2031SOL    MW4 7898   0.232   3.965   1.084 -0.4539 -0.0982  0.1510
 2032SOL     OW 7899   0.965   1.096   1.747  0.4549 -1.0283  0.0044
 2032SOL    HW2 7900   0.922   1.040   1.812 -0.6767  0.8801  0.9882
 2032SOL    HW3 7901   1.056   1.065   1.746  0.3407 -1.5797  1.9854
 2032SOL    MW4 7902   0.971   1.084   1.755  1.0836 -0.2288 -0.2881
 2033SOL     OW 7903   3.705   2.576   1.516 -0.0322 -0.4718 -0.9197
 2033SOL    HW2 7904   3.671   2.638   1.581  0.1865  0.6343 -1.8391
 2033SOL    HW3 7905   3.800   2.579   1.527 -0.0699 -1.4594 -0.2466
 2033SOL    MW4 7906   3.713   2.584   1.526 -0.2197  0.9042  0.0887
 2034SOL     OW 7907   3.873   5.087   5.448  0.1390  0.6305  0.0485
 2034SOL    HW2 7908   3.857   5.077   5.542 -0.2239  0.3155 -0.0403
 2034SOL    HW3 7909   3.950   5.033   5.431 -0.5719 -0.3714 -0.0576
 2034SOL    MW4 7910   3.881   5.078   5.458  0.2643  0.1727  0.2633
 2035SOL     OW 7911   1.583   1.378   3.661  0.2133  0.3525  0.2882
 2035SOL    HW2 7912   1.607   1.377   3.754 -0.3754  0.0097  0.4406
 2035SOL    HW3 7913   1.619   1.297   3.626  0.0048  0.2418  0.3294
 2035SOL    MW4 7914   1.591   1.368   3.668 -0.0612 -0.1824 -0.1194
 2036SOL     OW 7915   4.100   5.416   3.148 -0.5809  0.7077  0.0078
 2036SOL    HW2 7916   4.071   5.358   3.078 -0.6390 -1.0265  1.3985
 2036SOL    HW3 7917   4.019   5.450   3.186 -0.5764  0.8474 -0.1044
 2036SOL    MW4 7918   4.085   5.413   3.144  0.3916  1.2797 -0.3875
 2037SOL     OW 7919   0.005   0.467   0.455 -0.4588  0.2591  0.8041
 2037SOL    HW2 7920  -0.004   0.458   0.550 -0.3436 -0.1223  0.7808
 2037SOL    HW3 7921   0.051   0.551   0.444 -0.9365  0.5602  1.0581
 2037SOL    MW4 7922   0.010   0.477   0.466 -0.7896  0.2672 -0.3836
 2038SOL     OW 7923   2.250   4.020   2.576  0.3473 -0.0521 -0.5046
 2038SOL    HW2 7924   2.171   3.979   2.541 -0.2454  0.3772  0.2858
 2038SOL    HW3 7925   2.217   4.086   2.638  1.3328 -0.4240  0.4477
 2038SOL    MW4 7926   2.235   4.023   2.580 -0.1541  0.2592 -0.4812
 2039SOL     OW 7927   4.650   2.173   1.740  0.2881 -0.2700  0.1374
 2039SOL    HW2 7928   4.598   2.126   1.675 -0.4474 -1.3780  1.4554
 2039SOL    HW3 7929   4.715   2.221   1.690 -0.0682 -1.3193 -1.3862
 2039SOL    MW4 7930   4.651   2.173   1.725  0.2484  0.4421 -0.1180
 2040SOL     OW 7931   5.082   1.207   1.466 -0.4094  0.2147 -0.3173
 2040SOL    HW2 7932   5.012   1.270   1.478 -0.8428  0.0700 -1.7899
 2040SOL    HW3 7933   5.131   1.208   1.548 -1.8148  0.7066  0.5441
 2040SOL    MW4 7934   5.080   1.215   1.478  0.4815  0.2648  0.5848
 2041SOL     OW 7935   2.305   1.871   2.596 -0.0526  0.1830  0.0710
 2041SOL    HW2 7936   2.367   1.799   2.607  0.1310  0.5436  1.7903
 2041SOL    HW3 7937   2.222   1.836   2.629 -0.4039  0.1864 -0.7999
 2041SOL    MW4 7938   2.302   1.857   2.602 -0.2401 -0.4365  0.7812
 2042SOL     OW 7939   2.715   3.512   6.204  0.0900 -0.3962 -0.1599
 2042SOL    HW2 7940   2.757   3.460   6.273  0.4003  0.5673  0.4070
 2042SOL    HW3 7941   2.753   3.479   6.123  0.9169 -0.4880  0.2477
 2042SOL    MW4 7942   2.726   3.501   6.203  0.0286  0.0172 -0.0638
 2043SOL     OW 7943   1.947   5.767   4.376 -0.8966 -0.4124  0.2045
 2043SOL    HW2 7944   1.937   5.682   4.418 -0.5494  0.7474  2.7685
 2043SOL    HW3 7945   1.879   5.822   4.415  0.9782  1.3796  1.1141
 2043SOL    MW4 7946   1.936   5.763   4.386 -0.5154 -0.1859 -0.0838
 2044SOL     OW 7947   0.613   5.371   0.733 -0.1215  0.0469 -0.3048
 2044SOL    HW2 7948   0.612   5.466   0.717  1.3252 -0.1353 -1.6993
 2044SOL    HW3 7949   0.532   5.354   0.782  0.2270  2.1816  1.1572
 2044SOL    MW4 7950   0.602   5.381   0.738  0.1986 -0.0240 -0.6367
 2045SOL     OW 7951   3.361   2.049   4.334  0.2757  0.0774 -0.6499
 2045SOL    HW2 7952   3.453   2.057   4.359  0.0947 -2.5100  1.2765
 2045SOL    HW3 7953   3.353   2.101   4.254  3.8460 -1.1085 -1.9569
 2045SOL    MW4 7954   3.372   2.057   4.327 -0.4009 -0.0472 -0.0425
 2046SOL     OW 7955   5.311   2.699   0.832 -0.0653  0.3282  0.2867
 2046SOL    HW2 7956   5.332   2.749   0.911 -2.2150  3.3704 -0.8847
 2046SOL    HW3 7957   5.390   2.702   0.779  0.3456  1.1168  0.9324
 2046SOL    MW4 7958   5.324   2.706   0.836 -0.2850  0.0023 -0.0262
 2047SOL     OW 7959   3.544   0.282   5.789 -0.3434  0.6008 -0.4370
 2047SOL    HW2 7960   3.527   0.191   5.814 -0.4837  0.5503 -0.7132
 2047SOL    HW3 7961   3.470   0.305   5.733  0.4760  0.3891 -1.6426
 2047SOL    MW4 7962   3.532   0.273   5.785 -0.2362 -0.6471  0.6073
 2048SOL     OW 7963   3.058   3.728   0.188  0.0627  0.1119 -0.0535
 2048SOL    HW2 7964   3.035   3.644   0.149  0.6428  0.2226 -0.6727
 2048SOL    HW3 7965   3.036   3.719   0.280  2.0668 -1.4897  0.3393
 2048SOL    MW4 7966   3.052   3.716   0.195  0.3176  0.6190 -0.7566
 2049SOL     OW 7967   4.264   6.063   5.040 -0.1219  0.1008 -0.0544
 2049SOL    HW2 7968   4.228   6.023   5.119 -0.0484  1.0722  0.4863
 2049SOL    HW3 7969   4.212   6.142   5.027 -0.9155 -0.6545 -1.6822
 2049SOL    MW4 7970   4.253   6.068   5.049 -0.2313  0.0346 -0.5761
 2050SOL     OW 7971   0.549   3.453   2.081 -0.2405  0.4778 -0.5301
 2050SOL    HW2 7972   0.565   3.532   2.030  1.1304  0.4537 -0.1838
 2050SOL    HW3 7973   0.476   3.476   2.138  0.2739  1.5788 -0.2840
 2050SOL    MW4 7974   0.542   3.466   2.082  0.2742 -0.2398 -0.1853
 2051SOL     OW 7975   2.519   0.608   3.834  0.0073  0.5754  0.4590
 2051SOL    HW2 7976   2.424   0.611   3.850  0.0431 -1.8852  1.5247
 2051SOL    HW3 7977   2.558   0.612   3.921  0.8120 -0.1619  0.1340
 2051SOL    MW4 7978   2.511   0.609   3.848 -0.6349  0.0475 -0.4234
 2052SOL     OW 7979   4.467   1.537   4.594 -0.1051  0.5213  0.2405
 2052SOL    HW2 7980   4.557   1.566   4.580  0.1638 -0.6640 -0.6705
 2052SOL    HW3 7981   4.436   1.588   4.669  0.8037  2.0569 -0.3811
 2052SOL    MW4 7982   4.474   1.547   4.602 -0.0312 -0.8771  0.1724
 2053SOL     OW 7983   2.617   3.848   5.779 -0.0854  0.4621 -0.2266
 2053SOL    HW2 7984   2.544   3.905   5.755 -1.0390 -0.6307 -0.0221
 2053SOL    HW3 7985   2.576   3.765   5.803  1.3445 -0.9319 -2.2767
 2053SOL    MW4 7986   2.602   3.844   5.779  0.0913 -0.1683 -0.2840
 2054SOL     OW 7987   4.843   2.371   5.858  0.4694  0.6697 -0.1669
 2054SOL    HW2 7988   4.861   2.383   5.765  0.5813 -0.7605 -0.3511
 2054SOL    HW3 7989   4.884   2.287   5.880  1.0113  1.2930  1.3316
 2054SOL    MW4 7990   4.850   2.362   5.848  0.2249  0.2175  0.5347
 2055SOL     OW 7991   1.122   0.682   3.132  0.3985 -0.1260  0.0737
 2055SOL    HW2 7992   1.091   0.754   3.186 -1.9403 -1.4719  0.6940
 2055SOL    HW3 7993   1.047   0.660   3.076  1.2139 -1.7387 -0.4530
 2055SOL    MW4 7994   1.108   0.688   3.132  0.1027  0.3740 -0.1753
 2056SOL     OW 7995   1.835   3.065   2.102 -0.3995  0.0900 -0.4772
 2056SOL    HW2 7996   1.782   3.080   2.023 -1.5391 -1.5009 -0.0695
 2056SOL    HW3 7997   1.771   3.059   2.173  0.5120  0.1687  0.3798
 2056SOL    MW4 7998   1.819   3.066   2.101  0.0171 -0.3838 -0.1964
 2057SOL     OW 7999   2.280   4.700   0.702 -0.2390  0.0269  0.3781
 2057SOL    HW2 8000   2.317   4.785   0.677 -2.0154  0.5887 -0.5242
 2057SOL    HW3 8001   2.330   4.636   0.652  1.1781  0.5037  1.1292
 2057SOL    MW4 8002   2.292   4.703   0.692  0.4566 -0.2736  1.1523
 2058SOL     OW 8003   0.137   4.219   3.819  0.1878  0.1947 -0.1921
 2058SOL    HW2 8004   0.150   4.156   3.889  1.8404  0.3098 -0.3414
 2058SOL    HW3 8005   0.104   4.298   3.862  0.5970  0.0601  0.3705
 2058SOL    MW4 8006   0.135   4.221   3.834  0.4616  0.8666  0.1865
 2059SOL     OW 8007   4.682   1.682   0.250 -0.4621  0.1571  0.3305
 2059SOL    HW2 8008   4.706   1.722   0.334 -0.7175 -1.9147  1.4605
 2059SOL    HW3 8009   4.664   1.756   0.193  0.7005  1.6582  1.7985
 2059SOL    MW4 8010   4.683   1.697   0.254 -0.0377  0.4423  0.3342
 2060SOL     OW 8011   5.373   1.673   3.111  0.2795 -0.4533 -0.3694
 2060SOL    HW2 8012   5.450   1.660   3.166 -0.4022 -0.4173  0.6337
 2060SOL    HW3 8013   5.304   1.621   3.153 -0.4559  0.1736 -0.7544
 2060SOL    MW4 8014   5.374   1.665   3.124  0.4198 -0.1179  0.8628
 2061SOL     OW 8015   2.994   1.568   4.109  0.0465  0.5063  0.3556
 2061SOL    HW2 8016   3.010   1.648   4.058 -0.7906  1.2168  1.1922
 2061SOL    HW3 8017   3.082   1.537   4.130  0.4273  0.2128 -1.4560
 2061SOL    MW4 8018   3.008   1.575   4.105 -0.6942  0.1695 -0.3765
 2062SOL     OW 8019   5.594   2.059   3.766  0.1752 -0.0758 -0.0300
 2062SOL    HW2 8020   5.668   2.024   3.814  0.9021 -0.7351 -1.5517
 2062SOL    HW3 8021   5.598   2.154   3.778  0.4530 -0.2166  1.0017
 2062SOL    MW4 8022   5.604   2.067   3.774  0.2654  0.5511 -0.3116
 2063SOL     OW 8023   2.575   0.663   4.566 -0.0260  0.3123  0.1794
 2063SOL    HW2 8024   2.494   0.615   4.548 -0.1670  0.2763  0.9052
 2063SOL    HW3 8025   2.547   0.754   4.579 -0.2931 -0.0977  2.9270
 2063SOL    MW4 8026   2.560   0.669   4.565 -0.0478 -0.3743 -0.1717
 2064SOL     OW 8027   5.420   0.012   5.630 -0.0199  0.2278 -0.1895
 2064SOL    HW2 8028   5.362   0.012   5.706  2.1741  0.4162  1.5809
 2064SOL    HW3 8029   5.380  -0.052   5.570 -0.1501 -2.4705  2.5010
 2064SOL    MW4 8030   5.407   0.003   5.632 -0.5255  0.4560 -0.5609
 2065SOL     OW 8031   1.354   3.621   4.768 -0.0141 -0.1816 -0.0958
 2065SOL    HW2 8032   1.429   3.680   4.777  1.4786 -2.0568  0.3928
 2065SOL    HW3 8033   1.332   3.625   4.675  1.2558 -0.2349 -0.4228
 2065SOL    MW4 8034   1.361   3.630   4.757  0.0913 -0.2574 -0.4355
 2066SOL     OW 8035   3.986   1.407   4.763  0.3700  0.1994  0.2410
 2066SOL    HW2 8036   3.997   1.448   4.849  1.8200  2.6663 -1.0038
 2066SOL    HW3 8037   4.071   1.367   4.744  0.0522 -0.3531 -0.0538
 2066SOL    MW4 8038   3.998   1.407   4.772 -0.3647 -0.2873  0.2556
 2067SOL     OW 8039   0.394   5.566   3.816  0.8149 -0.4637  0.1980
 2067SOL    HW2 8040   0.456   5.584   3.887  1.9841 -0.3597 -0.8181
 2067SOL    HW3 8041   0.381   5.651   3.775  1.6726 -0.8348 -0.8962
 2067SOL    MW4 8042   0.401   5.580   3.820 -0.2087 -0.6287 -0.3326
 2068SOL     OW 8043   4.600   2.112   1.307  0.1002  0.0632 -0.2108
 2068SOL    HW2 8044   4.694   2.110   1.323  0.3401 -0.9571 -1.5498
 2068SOL    HW3 8045   4.591   2.092   1.213 -1.5376 -1.4971  0.2217
 2068SOL    MW4 8046   4.611   2.109   1.296  0.0051 -0.2417  0.3489
 2069SOL     OW 8047   3.628   0.144   4.941 -0.0933 -0.4981 -0.1895
 2069SOL    HW2 8048   3.567   0.148   4.867  0.2477 -1.7487 -0.5583
 2069SOL    HW3 8049   3.571   0.142   5.018 -0.4683  0.1089 -0.4436
 2069SOL    MW4 8050   3.612   0.144   4.941  0.6932 -0.0253  0.1273
 2070SOL     OW 8051   5.635   2.576   0.993 -0.1006  0.0071 -0.0217
 2070SOL    HW2 8052   5.653   2.504   1.052  2.3069 -1.0807 -1.9231
 2070SOL    HW3 8053   5.636   2.537   0.906  3.3463  2.5053 -1.3378
 2070SOL    MW4 8054   5.637   2.561   0.989 -0.2086 -0.6310 -0.3820
 2071SOL     OW 8055   3.253   5.960   5.750  0.1247 -0.3933  0.0108
 2071SOL    HW2 8056   3.235   5.914   5.669 -1.0981  0.7846 -0.4348
 2071SOL    HW3 8057   3.173   5.950   5.802 -0.1608  1.0910 -0.0747
 2071SOL    MW4 8058   3.240   5.953   5.746 -0.5860 -0.1161  0.0395
 2072SOL     OW 8059   4.177   5.279   3.813 -0.1023 -0.1142 -0.2540
 2072SOL    HW2 8060   4.210   5.190   3.806 -0.5749 -0.2052 -1.6571
 2072SOL    HW3 8061   4.253   5.334   3.792 -0.0157 -0.2138 -0.2009
 2072SOL    MW4 8062   4.191   5.275   3.809 -0.7864  0.1847 -0.1001
 2073SOL     OW 8063   2.012   3.745   4.023 -1.0135  0.6873  0.9697
 2073SOL    HW2 8064   1.968   3.665   4.053  0.8660 -0.3402  1.1888
 2073SOL    HW3 8065   1.952   3.816   4.047 -3.3818 -0.7045 -0.4623
 2073SOL    MW4 8066   1.998   3.744   4.030 -0.0036 -0.1641  0.4133
 2074SOL     OW 8067   4.754   2.794   6.316 -0.2694  0.1308  0.3109
 2074SOL    HW2 8068   4.830   2.787   6.259 -0.2423  0.5474  0.2865
 2074SOL    HW3 8069   4.687   2.836   6.262 -0.5942 -0.4530  0.2609
 2074SOL    MW4 8070   4.755   2.799   6.302  0.0128  0.1351  0.5509
 2075SOL     OW 8071   4.036   3.223   4.513 -0.0663 -0.6402  0.0105
 2075SOL    HW2 8072   4.068   3.271   4.589  0.6195 -1.8639  0.5383
 2075SOL    HW3 8073   4.099   3.243   4.444  0.6521 -1.3546  0.4431
 2075SOL    MW4 8074   4.049   3.232   4.514  0.5478 -0.4866 -0.0157
 2076SOL     OW 8075   0.643   5.965   4.091  0.1412 -0.5369  0.5539
 2076SOL    HW2 8076   0.700   6.035   4.123  1.5832 -1.1826 -0.4622
 2076SOL    HW3 8077   0.577   5.953   4.160  0.7200  0.8317  1.3773
 2076SOL    MW4 8078   0.642   5.972   4.104  0.0204 -0.3897 -1.1944
 2077SOL     OW 8079   3.520   6.310   4.284  0.0434  0.2884 -0.0989
 2077SOL    HW2 8080   3.498   6.392   4.328 -0.4262  0.6373 -0.9550
 2077SOL    HW3 8081   3.591   6.273   4.336  0.0195  1.0637  0.5016
 2077SOL    MW4 8082   3.527   6.316   4.296  0.0762 -0.1473  0.5366
 2078SOL     OW 8083   1.211   3.864   0.651 -0.2339 -0.3429  0.1919
 2078SOL    HW2 8084   1.126   3.822   0.637  0.7182 -1.7905 -1.6316
 2078SOL    HW3 8085   1.209   3.941   0.594 -0.3314 -0.3205  0.2238
 2078SOL    MW4 8086   1.199   3.869   0.642  0.0436 -0.4530  0.3621
 2079SOL     OW 8087   3.202   2.113   1.645 -0.3091  0.2155  0.9111
 2079SOL    HW2 8088   3.125   2.078   1.601 -0.4839 -0.5051  1.7497
 2079SOL    HW3 8089   3.265   2.040   1.643 -0.5285 -0.0358  2.3403
 2079SOL    MW4 8090   3.200   2.098   1.639 -0.0585 -0.0494  0.0666
 2080SOL     OW 8091   5.391   2.550   3.477 -0.4784 -0.6548  0.3429
 2080SOL    HW2 8092   5.331   2.477   3.469  0.0469 -1.0934  0.3690
 2080SOL    HW3 8093   5.398   2.566   3.571 -0.4644 -0.6806  0.3463
 2080SOL    MW4 8094   5.384   2.543   3.488  0.0351  0.0361 -0.3201
 2081SOL     OW 8095   4.306   3.521   3.285 -0.6846  0.0657  0.0976
 2081SOL    HW2 8096   4.332   3.568   3.206 -1.8475  0.0779 -0.2995
 2081SOL    HW3 8097   4.263   3.588   3.340 -0.5981 -0.1161  0.3901
 2081SOL    MW4 8098   4.304   3.536   3.282  0.6622 -0.2286  0.0184
 2082SOL     OW 8099   4.124   6.320   3.289  0.2351 -0.3890  0.0042
 2082SOL    HW2 8100   4.041   6.332   3.243  0.1507 -0.8949  0.0114
 2082SOL    HW3 8101   4.129   6.392   3.351 -0.0962 -0.2315 -0.1536
 2082SOL    MW4 8102   4.114   6.331   3.291 -0.3746 -0.1567 -0.1997
 2083SOL     OW 8103   0.803   1.012   3.416  0.0212  0.5282 -0.7130
 2083SOL    HW2 8104   0.773   1.020   3.506 -1.6463 -0.9334 -1.0890
 2083SOL    HW3 8105   0.831   1.101   3.392  0.6665  0.8970  1.2682
 2083SOL    MW4 8106   0.802   1.025   3.425 -0.5586  0.0045 -0.2479
 2084SOL     OW 8107   5.927   3.698   5.426  0.2491 -0.1521  0.0598
 2084SOL    HW2 8108   5.861   3.766   5.443 -0.6384 -0.8984 -0.3134
 2084SOL    HW3 8109   5.911   3.632   5.493  1.1917  0.0596  0.4986
 2084SOL    MW4 8110   5.916   3.698   5.437  0.1501 -0.1360  0.2622
 2085SOL     OW 8111   0.118   4.173   0.659 -0.3215  0.5610  0.5814
 2085SOL    HW2 8112   0.150   4.189   0.747 -1.7167  0.1130  1.1952
 2085SOL    HW3 8113   0.069   4.252   0.636  1.6742  1.5444 -0.6295
 2085SOL    MW4 8114   0.116   4.186   0.667 -0.2691 -0.4426 -0.7522
 2086SOL     OW 8115   5.702   2.979   5.046  1.0868  0.1491 -0.0434
 2086SOL    HW2 8116   5.744   3.046   4.992  0.5887 -0.5710 -1.3700
 2086SOL    HW3 8117   5.610   2.980   5.020  0.6216  0.3927  1.4637
 2086SOL    MW4 8118   5.695   2.988   5.036 -0.4269 -0.3253  0.4596
 2087SOL     OW 8119   4.505   4.665   2.374 -0.0889 -0.7824  0.3434
 2087SOL    HW2 8120   4.547   4.717   2.306 -1.0819  0.6540  0.7736
 2087SOL    HW3 8121   4.412   4.675   2.358 -0.3355 -0.6690  1.7273
 2087SOL    MW4 8122   4.499   4.673   2.363  0.0125  0.3285  0.2938
 2088SOL     OW 8123   0.533   1.912   2.224  0.1106 -0.5092  0.5890
 2088SOL    HW2 8124   0.506   2.003   2.231 -0.8031 -0.6978 -0.2895
 2088SOL    HW3 8125   0.600   1.912   2.156  1.5268 -0.2299  1.9187
 2088SOL    MW4 8126   0.538   1.924   2.216  0.3095 -0.2019  0.5569
 2089SOL     OW 8127   1.912   6.109   0.674  0.3371  0.6884  0.1350
 2089SOL    HW2 8128   1.990   6.163   0.673 -0.0462  1.3099  1.7299
 2089SOL    HW3 8129   1.881   6.112   0.764 -0.6829 -0.7752 -0.1271
 2089SOL    MW4 8130   1.918   6.116   0.686  0.0642 -0.0811  0.4534
 2090SOL     OW 8131   5.616   2.796   6.329  0.5663 -0.6013 -0.1143
 2090SOL    HW2 8132   5.543   2.856   6.321  0.6824 -0.3200  0.8359
 2090SOL    HW3 8133   5.623   2.755   6.242  0.1150  0.3089 -0.5934
 2090SOL    MW4 8134   5.608   2.798   6.316  0.6224 -0.1249  0.2205
 2091SOL     OW 8135   4.772   0.065   5.921 -0.0869 -0.1417  0.0987
 2091SOL    HW2 8136   4.740   0.034   6.006 -0.3821  0.2360  0.1239
 2091SOL    HW3 8137   4.817  -0.011   5.884  2.7858  0.5129  1.9168
 2091SOL    MW4 8138   4.774   0.051   5.928  0.0856  0.8206 -0.3164
 2092SOL     OW 8139   2.169   5.676   1.254 -0.2888  0.3567 -0.6816
 2092SOL    HW2 8140   2.078   5.704   1.260  0.0644  1.4143  0.0496
 2092SOL    HW3 8141   2.197   5.705   1.167 -0.8088 -0.5136 -1.1512
 2092SOL    MW4 8142   2.161   5.683   1.243 -0.0159 -0.3719  0.4183
 2093SOL     OW 8143   1.771   5.745   0.601 -0.3319  0.6502  0.2606
 2093SOL    HW2 8144   1.786   5.769   0.693  0.6673  0.0066  0.2836
 2093SOL    HW3 8145   1.769   5.649   0.602 -0.2035  0.6380 -0.3992
 2093SOL    MW4 8146   1.773   5.735   0.613  0.5374  0.2752 -0.6052
 2094SOL     OW 8147   3.656   2.882   1.567 -0.4026  0.0875  0.2655
 2094SOL    HW2 8148   3.637   2.914   1.478  0.2140 -1.9371 -0.6515
 2094SOL    HW3 8149   3.593   2.928   1.623  0.4218  2.8699 -0.8896
 2094SOL    MW4 8150   3.645   2.892   1.562 -0.5639  0.2550 -0.0191
 2095SOL     OW 8151   5.335   5.727   3.398  0.0920 -0.2471  0.6552
 2095SOL    HW2 8152   5.313   5.641   3.433 -2.5823 -1.4147 -3.1921
 2095SOL    HW3 8153   5.382   5.708   3.316 -1.1025  1.8839 -0.6046
 2095SOL    MW4 8154   5.339   5.713   3.392  0.1737  0.9562  0.3014
 2096SOL     OW 8155   3.665   3.250   5.878 -0.2985  0.6827  0.1436
 2096SOL    HW2 8156   3.648   3.163   5.841  0.5812  0.0839  1.0738
 2096SOL    HW3 8157   3.578   3.286   5.896 -0.6752 -0.0788 -0.1012
 2096SOL    MW4 8158   3.651   3.243   5.875 -0.0671  0.5612  0.0948
 2097SOL     OW 8159   1.347   4.056   2.579  0.2515  0.3871  0.1399
 2097SOL    HW2 8160   1.303   4.140   2.568  1.8895  1.2023 -0.5414
 2097SOL    HW3 8161   1.397   4.065   2.660 -2.3560 -1.2970  2.1026
 2097SOL    MW4 8162   1.348   4.068   2.588 -0.3322 -0.2795  0.3542
 2098SOL     OW 8163   6.347   4.981   1.349  0.2592 -0.1074  0.5189
 2098SOL    HW2 8164   6.268   4.928   1.342 -0.4326  1.0008 -0.5208
 2098SOL    HW3 8165   6.382   4.961   1.436 -1.8900  0.3677  1.5594
 2098SOL    MW4 8166   6.341   4.971   1.359  0.0343 -0.2657 -0.1550
 2099SOL     OW 8167   5.988   4.474   4.722 -0.0402 -0.0412  0.1721
 2099SOL    HW2 8168   6.056   4.407   4.730  1.8486  1.5180 -1.5769
 2099SOL    HW3 8169   5.965   4.473   4.629 -2.4809 -0.5155  0.7206
 2099SOL    MW4 8170   5.994   4.465   4.710 -0.1727  0.0127 -0.5700
 2100SOL     OW 8171   5.143   4.192   1.149 -0.1034  0.0595 -0.4219
 2100SOL    HW2 8172   5.214   4.217   1.208  0.8097  0.6903 -1.7258
 2100SOL    HW3 8173   5.095   4.274   1.132 -0.0801 -0.0187 -0.8930
 2100SOL    MW4 8174   5.146   4.206   1.154  0.3283  0.6182 -0.1540
 2101SOL     OW 8175   4.035   1.095   1.837 -0.0700  0.0520 -0.5595
 2101SOL    HW2 8176   4.115   1.137   1.868  0.0331 -0.3151 -0.3184
 2101SOL    HW3 8177   4.062   1.046   1.759 -0.1828  0.4009 -0.8197
 2101SOL    MW4 8178   4.049   1.094   1.831 -0.0183 -0.2681  0.1219
 2102SOL     OW 8179   4.625   5.102   4.319  0.2596  0.0838  0.3416
 2102SOL    HW2 8180   4.544   5.131   4.277  0.1934  1.4002  1.3338
 2102SOL    HW3 8181   4.620   5.006   4.317 -0.5875  0.1373 -0.9781
 2102SOL    MW4 8182   4.614   5.093   4.314  0.7861  0.1353  0.0016
 2103SOL     OW 8183   0.146   0.579   2.481 -0.3905 -0.2082 -0.2194
 2103SOL    HW2 8184   0.222   0.567   2.425 -0.8889  0.5347 -1.0792
 2103SOL    HW3 8185   0.181   0.611   2.564  0.2739 -0.4274 -0.4162
 2103SOL    MW4 8186   0.160   0.581   2.485  0.0335 -0.0713  0.3552
 2104SOL     OW 8187   3.911   1.539   2.011 -0.0735 -0.1008 -0.0610
 2104SOL    HW2 8188   3.830   1.536   2.062  0.8363 -1.5619  1.3883
 2104SOL    HW3 8189   3.889   1.494   1.929 -2.1581  4.0633 -2.1014
 2104SOL    MW4 8190   3.897   1.532   2.007 -0.0119  0.6982  0.0489
 2105SOL     OW 8191   4.003   2.850   5.886  0.2108 -0.1052 -0.0675
 2105SOL    HW2 8192   3.955   2.803   5.954 -0.2145  1.8712  1.0895
 2105SOL    HW3 8193   4.075   2.792   5.863 -0.5576 -1.5131  0.9206
 2105SOL    MW4 8194   4.007   2.836   5.892  0.4241  0.0675  0.4361
 2106SOL     OW 8195   4.475   5.611   2.933  0.1518 -0.5483  0.3129
 2106SOL    HW2 8196   4.411   5.674   2.899  0.5066  0.0966  0.8053
 2106SOL    HW3 8197   4.455   5.604   3.026  1.2936  0.2997  0.6484
 2106SOL    MW4 8198   4.464   5.619   2.941 -0.4155 -0.6386  0.2241
 2107SOL     OW 8199   0.524   3.945   3.203 -0.3105 -0.1358  0.1205
 2107SOL    HW2 8200   0.552   3.865   3.248  0.7944  0.5738  0.7093
 2107SOL    HW3 8201   0.429   3.946   3.214 -0.2918 -1.1489  0.4714
 2107SOL    MW4 8202   0.515   3.934   3.210 -0.0057 -0.0983 -0.2231
 2108SOL     OW 8203   6.113   5.558   0.573  0.2199 -0.5433  0.2247
 2108SOL    HW2 8204   6.132   5.618   0.645  0.0209 -0.6274  0.3479
 2108SOL    HW3 8205   6.192   5.560   0.518  0.4658 -0.6555  0.5680
 2108SOL    MW4 8206   6.126   5.566   0.575  0.2849  0.1695  0.0921
 2109SOL     OW 8207   0.396   2.638   2.327 -1.0810 -0.3327  0.2305
 2109SOL    HW2 8208   0.412   2.727   2.296 -0.7723 -0.1798  0.8252
 2109SOL    HW3 8209   0.416   2.640   2.420  0.5766 -1.4044 -0.0509
 2109SOL    MW4 8210   0.401   2.650   2.335  0.8014 -0.0605 -0.0337
 2110SOL     OW 8211   5.011   0.817   2.741  0.4548 -0.8100  0.2481
 2110SOL    HW2 8212   4.973   0.903   2.761  2.0579  0.2093 -0.8060
 2110SOL    HW3 8213   4.962   0.756   2.795 -1.0577  0.7116  0.6835
 2110SOL    MW4 8214   5.000   0.821   2.751 -0.4585 -0.5990 -0.4869
 2111SOL     OW 8215   6.092   0.235   2.554  0.0639 -0.0113  0.1469
 2111SOL    HW2 8216   6.031   0.161   2.558  1.5050 -1.2014  1.6080
 2111SOL    HW3 8217   6.159   0.207   2.491  0.1190  0.4410  0.0046
 2111SOL    MW4 8218   6.093   0.221   2.546 -0.5954 -0.1563  0.1076
 2112SOL     OW 8219   2.708   6.355   1.725 -0.4390  0.2401  0.1509
 2112SOL    HW2 8220   2.705   6.316   1.638  1.0551 -0.1978  0.2620
 2112SOL    HW3 8221   2.665   6.439   1.716  0.7281  0.7205 -1.3243
 2112SOL    MW4 8222   2.702   6.361   1.713  0.1084  0.1220 -0.6871
 2113SOL     OW 8223   3.459   4.466   2.926  0.0442  0.3337 -0.2134
 2113SOL    HW2 8224   3.520   4.395   2.906 -0.6826 -0.4165  0.1958
 2113SOL    HW3 8225   3.480   4.534   2.862  2.1746  0.6298  0.7056
 2113SOL    MW4 8226   3.470   4.466   2.915  0.2391 -0.2217  0.4641
 2114SOL     OW 8227   1.654   1.250   3.255  0.0826 -0.4392  0.2036
 2114SOL    HW2 8228   1.563   1.245   3.285 -0.2458 -0.7708 -0.8041
 2114SOL    HW3 8229   1.666   1.172   3.201  0.3045  0.6422 -1.3935
 2114SOL    MW4 8230   1.644   1.239   3.252  0.4031  0.3063 -0.2964
 2115SOL     OW 8231   1.646   5.148   3.057  0.1196 -0.6268 -0.2911
 2115SOL    HW2 8232   1.568   5.205   3.055  0.3016 -0.3847 -0.7719
 2115SOL    HW3 8233   1.684   5.164   3.144  1.1679  1.3846 -1.0513
 2115SOL    MW4 8234   1.641   5.158   3.068  0.1610 -0.0998  0.0021
 2116SOL     OW 8235   4.419   1.839   0.984 -0.1367  0.5291 -0.5234
 2116SOL    HW2 8236   4.488   1.810   1.043  0.1497 -0.5713 -1.3506
 2116SOL    HW3 8237   4.447   1.806   0.898 -2.1092 -0.7435 -0.7445
 2116SOL    MW4 8238   4.432   1.831   0.980 -0.6527 -0.1002  0.4745
 2117SOL     OW 8239   6.129   1.047   3.516  0.3131  0.3109  0.2713
 2117SOL    HW2 8240   6.121   1.141   3.534  1.4239  0.9234 -2.0809
 2117SOL    HW3 8241   6.048   1.025   3.470 -0.4189 -0.1855  1.7143
 2117SOL    MW4 8242   6.117   1.056   3.512 -0.1114  0.1541  0.1104
 2118SOL     OW 8243   1.659   1.490   5.427  0.0220  0.2557 -0.2619
 2118SOL    HW2 8244   1.690   1.571   5.468 -0.3049  0.9377 -1.3153
 2118SOL    HW3 8245   1.724   1.424   5.452 -0.2600  0.5790  1.4944
 2118SOL    MW4 8246   1.672   1.492   5.436  0.2823 -0.0547 -0.1917
 2119SOL     OW 8247   3.550   6.231   0.869  0.4486  0.1765  0.1259
 2119SOL    HW2 8248   3.508   6.166   0.925  0.3320  0.0107 -0.1462
 2119SOL    HW3 8249   3.493   6.308   0.875 -0.3177 -0.2862 -0.8085
 2119SOL    MW4 8250   3.537   6.233   0.877 -0.0126  0.5911  0.0452
 2120SOL     OW 8251   1.611   5.093   5.855  0.4798 -0.5021  0.6374
 2120SOL    HW2 8252   1.639   5.089   5.946  1.3621  2.2665  0.5802
 2120SOL    HW3 8253   1.684   5.134   5.808 -0.6787 -0.1197 -0.9479
 2120SOL    MW4 8254   1.624   5.098   5.861  0.3508  0.2767  0.4868
 2121SOL     OW 8255   2.997   1.940   3.582  0.0047  0.0375 -0.1976
 2121SOL    HW2 8256   3.013   1.851   3.552  0.3697  0.3418 -0.9541
 2121SOL    HW3 8257   2.904   1.942   3.605 -0.0670 -0.4612 -0.4372
 2121SOL    MW4 8258   2.987   1.929   3.581  0.2615 -0.0111  0.5121
 2122SOL     OW 8259   3.462   3.510   3.873 -0.1518  0.3214 -0.3163
 2122SOL    HW2 8260   3.537   3.467   3.831  0.3280  0.8833 -0.0551
 2122SOL    HW3 8261   3.498   3.543   3.956 -0.8471  0.0514  0.0972
 2122SOL    MW4 8262   3.477   3.509   3.878  0.0578 -0.3404 -0.5341
 2123SOL     OW 8263   0.897   5.153   4.061 -0.2544 -0.0950 -0.3338
 2123SOL    HW2 8264   0.932   5.215   3.997 -2.8746  0.8908 -0.9158
 2123SOL    HW3 8265   0.918   5.067   4.024  1.0228  0.4211 -0.8891
 2123SOL    MW4 8266   0.904   5.150   4.048  0.6141 -0.2650  0.0296
 2124SOL     OW 8267   4.184   2.109   4.406  0.6874  0.2738  0.3368
 2124SOL    HW2 8268   4.139   2.151   4.479 -0.1783  0.2162 -0.1366
 2124SOL    HW3 8269   4.114   2.091   4.343  1.3649  0.0360 -0.3650
 2124SOL    MW4 8270   4.169   2.112   4.407 -0.0844 -0.2783  0.3135
 2125SOL     OW 8271   2.021   1.748   4.467 -0.0785  0.1255  0.0067
 2125SOL    HW2 8272   1.975   1.815   4.516  0.0055 -1.0172  1.7342
 2125SOL    HW3 8273   2.050   1.685   4.533  0.8886 -0.9994 -1.4112
 2125SOL    MW4 8274   2.019   1.748   4.482 -0.3388 -0.1510 -0.3998
 2126SOL     OW 8275   2.052   2.678   5.938 -0.4712  0.3788 -0.2666
 2126SOL    HW2 8276   1.981   2.695   6.001 -0.5771  2.2374 -0.8290
 2126SOL    HW3 8277   2.089   2.594   5.966 -2.1921 -0.1239  0.6836
 2126SOL    MW4 8278   2.047   2.669   5.950 -0.2634 -0.0207  0.4369
 2127SOL     OW 8279   0.802   1.600   2.475  0.1637 -0.4803 -0.0291
 2127SOL    HW2 8280   0.806   1.586   2.570  0.3423  0.9935  0.2043
 2127SOL    HW3 8281   0.717   1.642   2.461  0.1996 -0.5611 -0.5070
 2127SOL    MW4 8282   0.791   1.604   2.486 -0.0227  0.0323  0.0380
 2128SOL     OW 8283   4.865   4.739   3.395 -0.3651  0.2472  0.3455
 2128SOL    HW2 8284   4.786   4.783   3.426  1.1129  0.9126  3.6101
 2128SOL    HW3 8285   4.880   4.668   3.457  1.3873 -0.1130 -0.4207
 2128SOL    MW4 8286   4.857   4.736   3.407 -0.0068 -0.0459 -0.5357
 2129SOL     OW 8287   0.496   2.924   1.350 -0.1686 -0.4472  0.1973
 2129SOL    HW2 8288   0.581   2.964   1.364 -0.7340  0.8598  0.0124
 2129SOL    HW3 8289   0.445   2.990   1.303 -0.4023 -2.2021 -2.2834
 2129SOL    MW4 8290   0.500   2.938   1.345 -0.7961 -0.1010 -0.3547
 2130SOL     OW 8291   5.662   5.607   4.075  0.6351 -0.3237  0.4648
 2130SOL    HW2 8292   5.667   5.621   4.169 -1.0230 -0.8550  0.6621
 2130SOL    HW3 8293   5.569   5.613   4.054  0.7484 -2.0476 -0.8352
 2130SOL    MW4 8294   5.650   5.610   4.084  0.6649 -0.0452 -0.0895
 2131SOL     OW 8295   3.387   2.718   0.959  0.4223  0.0158 -0.1832
 2131SOL    HW2 8296   3.352   2.782   1.022  3.0364  1.3186  0.0866
 2131SOL    HW3 8297   3.481   2.717   0.977  0.8354 -1.7510 -2.1865
 2131SOL    MW4 8298   3.395   2.726   0.970  0.3860  0.4778 -0.5018
 2132SOL     OW 8299   3.165   1.232   3.785 -0.2412 -0.3478 -0.1240
 2132SOL    HW2 8300   3.176   1.144   3.750 -2.0394 -0.4169 -0.6256
 2132SOL    HW3 8301   3.220   1.233   3.864 -0.8040 -2.1940  0.3545
 2132SOL    MW4 8302   3.174   1.220   3.791  0.4009  0.2597  0.0824
 2133SOL     OW 8303   2.177   2.482   0.615  0.0418  0.4320  0.0504
 2133SOL    HW2 8304   2.115   2.466   0.686  1.5396  0.5827  1.4368
 2133SOL    HW3 8305   2.151   2.421   0.546  1.4276 -3.3089  2.5577
 2133SOL    MW4 8306   2.165   2.472   0.615 -0.3875 -0.8617  0.2877
 2134SOL     OW 8307   3.682   5.154   1.687 -0.7417 -0.3519  0.4684
 2134SOL    HW2 8308   3.652   5.216   1.753 -2.1842 -0.5879  0.0592
 2134SOL    HW3 8309   3.769   5.128   1.717 -0.2697  1.5332  0.8663
 2134SOL    MW4 8310   3.690   5.159   1.700  0.6571  0.4777  0.1990
 2135SOL     OW 8311   4.688   0.422   3.502  0.0790  0.4200 -0.2472
 2135SOL    HW2 8312   4.761   0.453   3.556 -0.4211  0.4415  0.4387
 2135SOL    HW3 8313   4.617   0.484   3.521 -1.2415 -1.5735  1.8674
 2135SOL    MW4 8314   4.688   0.434   3.512 -0.0817 -0.1078  0.8902
 2136SOL     OW 8315   0.263   0.227   1.969  0.4933 -0.0947  0.0829
 2136SOL    HW2 8316   0.321   0.250   1.898  0.5323  0.4234  0.2796
 2136SOL    HW3 8317   0.261   0.305   2.025  0.9978 -0.7275  1.0086
 2136SOL    MW4 8318   0.270   0.240   1.967  0.1074 -0.1412 -0.5170
 2137SOL     OW 8319   4.516   1.425   1.228 -0.5366  0.0801 -0.1485
 2137SOL    HW2 8320   4.570   1.360   1.273 -0.4675 -0.0588 -0.4279
 2137SOL    HW3 8321   4.573   1.459   1.159 -0.3928  0.8176  0.3226
 2137SOL    MW4 8322   4.531   1.421   1.225 -0.2841  0.3281  0.5192
 2138SOL     OW 8323   3.169   0.158   4.682  0.1871 -0.2713 -0.1552
 2138SOL    HW2 8324   3.162   0.154   4.586  0.6624 -0.1011 -0.1965
 2138SOL    HW3 8325   3.256   0.124   4.701  1.8263  3.4878 -0.0781
 2138SOL    MW4 8326   3.179   0.153   4.672 -0.6067  0.3454 -0.0448
 2139SOL     OW 8327   5.811   1.827   2.201  0.3275  0.6547  0.3633
 2139SOL    HW2 8328   5.855   1.892   2.147 -0.0739  1.4284  0.9518
 2139SOL    HW3 8329   5.877   1.798   2.264  0.9333 -0.5841 -0.7997
 2139SOL    MW4 8330   5.825   1.832   2.202  0.6786  0.0839 -0.6012
 2140SOL     OW 8331   1.764   1.714   5.852  0.0072 -0.0180  0.1418
 2140SOL    HW2 8332   1.764   1.692   5.759 -0.1618  2.2892 -0.4740
 2140SOL    HW3 8333   1.679   1.686   5.884 -1.2615  2.0396 -1.2217
 2140SOL    MW4 8334   1.753   1.708   5.844 -0.5919  0.4012  0.5872
 2141SOL     OW 8335   3.539   6.368   0.192  0.1329 -0.3493  0.3560
 2141SOL    HW2 8336   3.620   6.380   0.142 -1.3127  0.4925 -1.9654
 2141SOL    HW3 8337   3.496   6.453   0.188 -1.3260 -1.0406  0.6915
 2141SOL    MW4 8338   3.544   6.381   0.185 -0.4311 -0.4462  0.4510
 2142SOL     OW 8339   0.333   3.940   3.513 -0.3292 -0.4727 -0.5645
 2142SOL    HW2 8340   0.327   3.990   3.594 -0.0170 -0.0707 -0.7896
 2142SOL    HW3 8341   0.419   3.897   3.517  0.7006  1.3755 -1.7223
 2142SOL    MW4 8342   0.343   3.941   3.524  0.7787  0.6639 -0.3387
 2143SOL     OW 8343   4.673   1.941   1.913 -0.5668 -0.0684 -0.0806
 2143SOL    HW2 8344   4.593   1.944   1.966  1.2007  1.7021  2.7797
 2143SOL    HW3 8345   4.674   2.024   1.866  1.5960  2.1079  3.4264
 2143SOL    MW4 8346   4.662   1.952   1.914  0.1584  0.4005 -0.5892
 2144SOL     OW 8347   5.058   3.003   0.278 -0.6988 -0.2282 -0.2665
 2144SOL    HW2 8348   4.977   3.054   0.288  0.5784  2.3040 -1.6587
 2144SOL    HW3 8349   5.076   3.007   0.184  1.2711 -0.3020  0.0708
 2144SOL    MW4 8350   5.049   3.010   0.267 -0.9695 -0.5287  0.1443
 2145SOL     OW 8351   4.283   4.578   4.870 -0.5999 -0.1459 -0.2074
 2145SOL    HW2 8352   4.234   4.502   4.839  0.7270 -1.3035  0.4395
 2145SOL    HW3 8353   4.218   4.630   4.918 -1.5777 -0.7390 -0.8518
 2145SOL    MW4 8354   4.268   4.575   4.872 -0.5724  0.0405  0.0550
 2146SOL     OW 8355   5.288   2.506   0.080 -0.5712 -0.2813  0.2914
 2146SOL    HW2 8356   5.305   2.414   0.101 -3.1229 -0.9827 -0.2926
 2146SOL    HW3 8357   5.232   2.537   0.151 -1.2229  0.2519 -0.4381
 2146SOL    MW4 8358   5.283   2.498   0.092 -0.1258  0.7997 -0.3805
 2147SOL     OW 8359   2.800   3.434   0.672 -0.0250  0.4732 -1.1112
 2147SOL    HW2 8360   2.862   3.415   0.602  0.0540 -0.8730 -0.7107
 2147SOL    HW3 8361   2.793   3.352   0.721 -2.6437  0.3596 -1.5368
 2147SOL    MW4 8362   2.807   3.421   0.669 -0.2466 -0.1022 -0.0104
 2148SOL     OW 8363   5.557   3.261   5.911 -0.3950 -0.2387  0.0746
 2148SOL    HW2 8364   5.531   3.331   5.850 -1.1369 -0.2978  0.3044
 2148SOL    HW3 8365   5.640   3.290   5.947 -0.8953  0.7539  0.4899
 2148SOL    MW4 8366   5.564   3.274   5.907  0.4021  0.0569  0.0127
 2149SOL     OW 8367   3.104   0.538   5.540 -0.0523 -0.0437  0.3876
 2149SOL    HW2 8368   3.009   0.533   5.549  0.1855 -0.8986  3.5433
 2149SOL    HW3 8369   3.128   0.457   5.494 -0.8971  1.0969 -2.2692
 2149SOL    MW4 8370   3.095   0.526   5.535  0.0842  0.1035 -0.2507
 2150SOL     OW 8371   1.101   3.856   1.346 -0.0929  0.2308  0.3158
 2150SOL    HW2 8372   1.107   3.853   1.251 -1.9331  0.1287  0.1689
 2150SOL    HW3 8373   1.184   3.896   1.374  1.3256 -1.5337 -1.1649
 2150SOL    MW4 8374   1.113   3.861   1.337 -0.3657 -0.3303  0.0096
 2151SOL     OW 8375   4.271   5.483   1.584  0.4869  1.2851 -0.0202
 2151SOL    HW2 8376   4.228   5.416   1.637  1.3827 -0.0610 -0.9266
 2151SOL    HW3 8377   4.274   5.561   1.640 -0.0833  0.4043  1.2666
 2151SOL    MW4 8378   4.266   5.485   1.599 -0.3024  0.0315 -0.1929
 2152SOL     OW 8379   2.276   2.586   2.113  0.4370  0.0270 -0.3769
 2152SOL    HW2 8380   2.359   2.604   2.156  0.1444 -2.2122  1.3002
 2152SOL    HW3 8381   2.235   2.672   2.103  1.0775  0.7990  2.7153
 2152SOL    MW4 8382   2.282   2.600   2.117 -0.3111 -0.8391 -0.1879
 2153SOL     OW 8383   4.830   5.022   4.937  0.2749  0.4690  0.1955
 2153SOL    HW2 8384   4.814   4.997   4.846 -1.9708  0.6639  0.4729
 2153SOL    HW3 8385   4.758   4.981   4.986  1.1828  0.7323  1.8291
 2153SOL    MW4 8386   4.819   5.013   4.931  0.5584 -0.3246 -0.2856
 2154SOL     OW 8387   4.336   5.920   1.859  0.0523 -0.4257  0.1155
 2154SOL    HW2 8388   4.280   5.867   1.917  1.3773 -1.7069  0.2917
 2154SOL    HW3 8389   4.411   5.943   1.913  0.7056 -0.5431 -0.7259
 2154SOL    MW4 8390   4.338   5.916   1.874  0.7894 -0.0055  0.6880
 2155SOL     OW 8391   1.049   4.015   5.899 -0.6518 -0.5129  0.1092
 2155SOL    HW2 8392   1.055   3.998   5.993 -0.7932  0.3383  0.2781
 2155SOL    HW3 8393   1.021   3.931   5.862  0.6802 -1.2427  0.6658
 2155SOL    MW4 8394   1.046   4.001   5.907  0.1130  0.2066 -0.1337
 2156SOL     OW 8395   3.852   5.029   5.699  0.3353 -0.5989  0.1259
 2156SOL    HW2 8396   3.922   5.075   5.744  0.5395 -0.3498 -0.4325
 2156SOL    HW3 8397   3.856   4.939   5.732  0.3195 -0.3620  0.7770
 2156SOL    MW4 8398   3.861   5.023   5.709  0.2093 -0.0285  0.5486
 2157SOL     OW 8399   2.592   0.514   5.352 -0.2113  0.4191 -0.4818
 2157SOL    HW2 8400   2.618   0.583   5.413  2.2521 -1.2427  0.5066
 2157SOL    HW3 8401   2.667   0.506   5.293 -0.6440 -1.1113 -0.8472
 2157SOL    MW4 8402   2.605   0.522   5.352  0.4721  0.1675  0.0871
 2158SOL     OW 8403   4.981   5.480   2.752  0.2977  0.1416 -0.3512
 2158SOL    HW2 8404   4.909   5.525   2.796 -1.7016 -1.7527 -1.4949
 2158SOL    HW3 8405   5.015   5.545   2.690 -2.6579  0.1864 -2.1381
 2158SOL    MW4 8406   4.976   5.494   2.749  0.1749  0.0599  0.1395
 2159SOL     OW 8407   5.927   1.561   2.496  0.0764 -0.4941 -0.0313
 2159SOL    HW2 8408   5.907   1.514   2.414  2.3568 -1.6133 -0.0408
 2159SOL    HW3 8409   5.955   1.648   2.468  1.5504 -1.1022 -0.5723
 2159SOL    MW4 8410   5.928   1.566   2.481  0.4090  0.1743 -0.1845
 2160SOL     OW 8411   2.576   1.310   3.214  0.0689  0.5128 -0.6709
 2160SOL    HW2 8412   2.663   1.318   3.252  0.4888  0.1060 -1.5111
 2160SOL    HW3 8413   2.590   1.320   3.120 -0.7527  0.1494 -0.8429
 2160SOL    MW4 8414   2.589   1.312   3.206 -0.4201  0.3187  0.2020
 2161SOL     OW 8415   1.783   2.049   2.182 -0.8140 -0.0442 -0.1049
 2161SOL    HW2 8416   1.778   2.136   2.222  0.7694 -0.2406  0.5938
 2161SOL    HW3 8417   1.876   2.037   2.163 -1.1217 -1.2543 -0.9793
 2161SOL    MW4 8418   1.795   2.059   2.185 -0.0167  0.0228  0.1056
 2162SOL     OW 8419   1.430   3.326   4.465 -0.1034  0.3840 -0.3887
 2162SOL    HW2 8420   1.335   3.329   4.452  0.0716  0.1379 -1.9710
 2162SOL    HW3 8421   1.453   3.416   4.490 -0.5084  1.0354 -2.1958
 2162SOL    MW4 8422   1.420   3.338   4.466  0.3220  0.5560 -0.5541
 2163SOL     OW 8423   3.417   3.587   1.716 -0.1173  0.0194  0.1370
 2163SOL    HW2 8424   3.473   3.659   1.687 -1.2492  0.2599 -1.6139
 2163SOL    HW3 8425   3.361   3.625   1.783  0.9193  0.1036  0.9793
 2163SOL    MW4 8426   3.417   3.601   1.721 -0.3095 -0.1256  0.4208
 2164SOL     OW 8427   5.213   1.977   1.795 -0.2575  0.0272 -0.0435
 2164SOL    HW2 8428   5.137   1.919   1.802 -0.0149 -0.2281  0.5262
 2164SOL    HW3 8429   5.246   1.984   1.885  0.2933  0.2741 -0.2614
 2164SOL    MW4 8430   5.207   1.970   1.808 -0.6287  0.1293  0.4365
 2165SOL     OW 8431   1.678   0.245   0.214 -0.6395  0.4124  0.4935
 2165SOL    HW2 8432   1.751   0.292   0.253 -0.7867  0.9014  0.1890
 2165SOL    HW3 8433   1.696   0.248   0.120 -0.5075 -0.3837  0.4836
 2165SOL    MW4 8434   1.690   0.251   0.206 -0.7740  0.2571  0.1008
 2166SOL     OW 8435   4.467   3.766   3.801 -0.3781  0.3536 -0.2255
 2166SOL    HW2 8436   4.491   3.684   3.759 -0.0148  1.2562 -1.8741
 2166SOL    HW3 8437   4.509   3.763   3.887 -0.2857 -1.1115 -0.2964
 2166SOL    MW4 8438   4.476   3.755   3.807  0.0495  0.1222 -0.9275
 2167SOL     OW 8439   3.413   5.489   1.827 -0.7531 -0.1138 -0.5565
 2167SOL    HW2 8440   3.348   5.558   1.816 -1.7278 -0.8866  0.1113
 2167SOL    HW3 8441   3.381   5.438   1.901  1.9925  0.9854  1.5496
 2167SOL    MW4 8442   3.400   5.491   1.835  0.1109  0.8174  0.1822
 2168SOL     OW 8443   0.859   5.998   0.206  0.1480 -0.0597 -0.7753
 2168SOL    HW2 8444   0.802   5.988   0.282  1.2066 -1.1358 -0.0831
 2168SOL    HW3 8445   0.946   6.015   0.243 -0.0814  4.7541 -1.7834
 2168SOL    MW4 8446   0.863   5.999   0.221  0.2779  0.1033  0.6347
 2169SOL     OW 8447   0.198   3.472   5.385 -0.5721 -0.2105  0.3683
 2169SOL    HW2 8448   0.152   3.409   5.440 -0.9611 -0.7379 -0.5337
 2169SOL    HW3 8449   0.128   3.523   5.344 -0.4129 -1.0986 -1.1089
 2169SOL    MW4 8450   0.182   3.470   5.387  0.2811 -0.2355 -0.6756
 2170SOL     OW 8451   4.865   6.268   5.795  0.2706  0.0194  1.1273
 2170SOL    HW2 8452   4.876   6.326   5.719  0.0448  0.1025  1.1593
 2170SOL    HW3 8453   4.952   6.228   5.806  0.8395  1.3948  1.9553
 2170SOL    MW4 8454   4.878   6.271   5.786 -0.2228  0.1728  0.9187
 2171SOL     OW 8455   2.565   3.995   0.445  0.0248  0.8518 -0.2612
 2171SOL    HW2 8456   2.498   4.021   0.508 -0.0608  0.9690 -0.4003
 2171SOL    HW3 8457   2.613   3.924   0.489 -1.7717 -0.9751 -1.0895
 2171SOL    MW4 8458   2.562   3.989   0.459 -0.3272  0.5795 -0.4462
 2172SOL     OW 8459   5.735   2.446   5.943  0.3560  0.4724  0.4845
 2172SOL    HW2 8460   5.742   2.539   5.925  0.4582  0.4112  0.1956
 2172SOL    HW3 8461   5.641   2.429   5.950  0.3564  0.7341  1.3073
 2172SOL    MW4 8462   5.723   2.456   5.942  0.0990  0.2246 -0.3256
 2173SOL     OW 8463   1.679   1.337   2.904 -0.2480  0.5397  0.1039
 2173SOL    HW2 8464   1.750   1.334   2.969  0.1495 -0.2854 -0.3506
 2173SOL    HW3 8465   1.603   1.368   2.954  0.6538  2.5026  0.3563
 2173SOL    MW4 8466   1.679   1.340   2.919  0.0916  0.1857  0.7090
 2174SOL     OW 8467   5.851   1.926   5.298 -0.2918  0.4421 -0.1459
 2174SOL    HW2 8468   5.836   1.908   5.205  1.8711  2.9383 -1.0954
 2174SOL    HW3 8469   5.797   2.002   5.317 -1.5451 -0.6847  1.0039
 2174SOL    MW4 8470   5.842   1.933   5.288 -0.1077  0.2178 -0.0769
 2175SOL     OW 8471   1.866   1.533   3.781 -0.0859 -0.4446  0.0676
 2175SOL    HW2 8472   1.838   1.605   3.726 -0.4490 -0.1388  0.6364
 2175SOL    HW3 8473   1.785   1.493   3.812 -0.0090  1.1066  2.5953
 2175SOL    MW4 8474   1.852   1.537   3.778  0.5482 -0.4675  0.4029
 2176SOL     OW 8475   1.996   1.988   2.440  0.8098  0.2505 -0.4914
 2176SOL    HW2 8476   2.051   2.060   2.409  0.0007  0.6603 -1.0119
 2176SOL    HW3 8477   1.984   2.006   2.533 -0.5795  1.6272 -0.9005
 2176SOL    MW4 8478   2.002   2.000   2.448  0.0488 -0.0466  0.2229
 2177SOL     OW 8479   3.740   6.084   2.099 -0.6750 -0.0978  0.0839
 2177SOL    HW2 8480   3.787   6.008   2.063  0.2120  0.9011 -0.9380
 2177SOL    HW3 8481   3.653   6.050   2.120  0.7822 -2.3275  3.2278
 2177SOL    MW4 8482   3.735   6.069   2.097  0.4617  0.0272 -0.0184
 2178SOL     OW 8483   5.011   5.727   0.181 -0.0325 -0.3635 -0.5017
 2178SOL    HW2 8484   5.051   5.646   0.211  0.6999  0.5912  1.1979
 2178SOL    HW3 8485   5.078   5.794   0.194 -0.7810  0.6112 -1.4365
 2178SOL    MW4 8486   5.025   5.725   0.186  0.8344  0.7389 -0.0657
 2179SOL     OW 8487   2.649   5.650   1.695 -0.0547  0.0893  0.1101
 2179SOL    HW2 8488   2.625   5.743   1.696 -0.7937 -0.0948  0.0357
 2179SOL    HW3 8489   2.684   5.634   1.783 -2.5932 -0.2200  1.1573
 2179SOL    MW4 8490   2.651   5.660   1.707 -0.4390  0.2467  0.1865
 2180SOL     OW 8491   0.124   5.171   3.962 -0.3996 -0.0836 -0.4799
 2180SOL    HW2 8492   0.184   5.100   3.939  1.1772  1.9550 -3.6253
 2180SOL    HW3 8493   0.037   5.138   3.940  0.2767 -1.1028 -1.7751
 2180SOL    MW4 8494   0.121   5.158   3.956 -0.5032  0.1022 -0.0317
 2181SOL     OW 8495   0.008   3.410   0.831  0.2143 -0.2610  0.1488
 2181SOL    HW2 8496   0.102   3.419   0.848  0.3533 -2.0388  0.5397
 2181SOL    HW3 8497  -0.008   3.316   0.835 -1.9664  0.0990  2.1902
 2181SOL    MW4 8498   0.018   3.399   0.834  0.0461  0.3903  0.3909
 2182SOL     OW 8499   5.830   0.611   4.395 -0.0790 -0.2823 -0.4614
 2182SOL    HW2 8500   5.818   0.516   4.406 -1.4017 -0.1953 -0.9014
 2182SOL    HW3 8501   5.771   0.634   4.323  0.3538  0.8525 -0.4746
 2182SOL    MW4 8502   5.821   0.601   4.387  0.1479 -0.0318 -0.1622
 2183SOL     OW 8503   4.805   3.882   3.368  0.3617 -0.2564  0.5745
 2183SOL    HW2 8504   4.900   3.885   3.381  0.7255 -0.6614 -1.7225
 2183SOL    HW3 8505   4.792   3.912   3.278 -1.8482  1.2771  1.3203
 2183SOL    MW4 8506   4.816   3.887   3.358 -0.5408 -0.2703 -0.3323
 2184SOL     OW 8507   6.155   2.832   3.541 -0.7769 -0.5876  0.0522
 2184SOL    HW2 8508   6.250   2.831   3.551 -0.1645  1.9079 -3.4839
 2184SOL    HW3 8509   6.123   2.877   3.619  1.1758  0.4208  0.3292
 2184SOL    MW4 8510   6.163   2.838   3.552 -0.3619 -0.1132  0.2452
 2185SOL     OW 8511   1.143   6.361   3.583 -0.5923  0.2472 -0.0782
 2185SOL    HW2 8512   1.068   6.397   3.629 -1.4240  0.0605 -1.2240
 2185SOL    HW3 8513   1.207   6.432   3.581 -1.0128  0.6398  0.3152
 2185SOL    MW4 8514   1.141   6.375   3.588  0.2396  0.2418 -0.7316
 2186SOL     OW 8515   0.904   3.642   6.019  0.0911  0.1389 -0.7652
 2186SOL    HW2 8516   0.928   3.726   6.058  1.2377 -0.0119 -1.0970
 2186SOL    HW3 8517   0.858   3.595   6.088 -0.1774  0.8749 -0.4405
 2186SOL    MW4 8518   0.901   3.647   6.033 -0.3958  0.2758  0.6175
 2187SOL     OW 8519   3.897   0.042   5.753 -0.2528  0.5906  0.2557
 2187SOL    HW2 8520   3.828   0.089   5.706  0.0582  0.1724 -0.6623
 2187SOL    HW3 8521   3.947  -0.002   5.683 -0.1900 -0.6267  1.0372
 2187SOL    MW4 8522   3.895   0.043   5.737  0.2900 -0.1138  0.2102
 2188SOL     OW 8523   4.972   6.307   1.899 -0.1462 -0.5082 -0.3214
 2188SOL    HW2 8524   4.919   6.368   1.849 -0.1322 -0.8585 -0.7735
 2188SOL    HW3 8525   5.056   6.306   1.855  0.4172  0.4191  0.6853
 2188SOL    MW4 8526   4.976   6.315   1.887 -0.4233  0.6552  0.4807
 2189SOL     OW 8527   5.605   2.194   0.427  0.2657 -0.3874 -0.2276
 2189SOL    HW2 8528   5.586   2.239   0.344  0.7357 -1.1812 -0.7809
 2189SOL    HW3 8529   5.519   2.166   0.459  0.1477 -0.7889 -0.8676
 2189SOL    MW4 8530   5.591   2.196   0.420  0.2328 -0.1762  0.0335
 2190SOL     OW 8531   1.520   3.880   2.440 -0.5714  0.0901  0.1890
 2190SOL    HW2 8532   1.503   3.797   2.485  1.3751  0.1926  1.2388
 2190SOL    HW3 8533   1.449   3.938   2.468 -0.7654 -0.6021  1.1827
 2190SOL    MW4 8534   1.509   3.877   2.450 -0.1057 -0.0563 -0.1240
 2191SOL     OW 8535   0.568   2.097   3.357  0.0190 -0.4119 -0.1737
 2191SOL    HW2 8536   0.528   2.027   3.306 -0.5646  1.2637 -2.1503
 2191SOL    HW3 8537   0.552   2.176   3.306 -1.3052  1.5567  2.9852
 2191SOL    MW4 8538   0.561   2.098   3.344 -0.6147 -0.3233 -0.5010
 2192SOL     OW 8539   3.446   4.311   2.317  0.0327  0.3631 -0.3138
 2192SOL    HW2 8540   3.360   4.270   2.317  0.2229 -0.0449 -0.8577
 2192SOL    HW3 8541   3.500   4.254   2.262  1.0342 -0.2005  1.1739
 2192SOL    MW4 8542   3.442   4.298   2.310 -0.1524 -0.5953 -0.0321
 2193SOL     OW 8543   6.012   3.153   6.253 -0.1939 -0.6843 -0.1349
 2193SOL    HW2 8544   5.917   3.145   6.259 -0.5222  1.7664 -0.9591
 2193SOL    HW3 8545   6.038   3.194   6.336  0.0024 -0.3412 -0.3660
 2193SOL    MW4 8546   6.003   3.158   6.265 -0.6272 -0.1262  0.2727
 2194SOL     OW 8547   0.738   0.089   1.908 -0.8682  0.1794 -0.2670
 2194SOL    HW2 8548   0.653   0.069   1.870 -0.6566  1.9476 -1.8126
 2194SOL    HW3 8549   0.798   0.090   1.834  0.1081  0.9359  0.5108
 2194SOL    MW4 8550   0.735   0.087   1.893  0.3724  0.0142 -0.1152
 2195SOL     OW 8551   5.238   3.562   4.384  0.0367 -0.0661  0.1642
 2195SOL    HW2 8552   5.155   3.604   4.406  1.0361  1.0305  2.1396
 2195SOL    HW3 8553   5.243   3.486   4.441  0.0876 -0.5291 -0.4465
 2195SOL    MW4 8554   5.228   3.558   4.394 -0.4385  0.3818  0.0152
 2196SOL     OW 8555   1.741   4.347   1.786 -0.0308  0.1277 -0.1811
 2196SOL    HW2 8556   1.729   4.254   1.807 -0.1252  0.2731  0.4473
 2196SOL    HW3 8557   1.712   4.356   1.695 -0.6802 -0.3287 -0.0226
 2196SOL    MW4 8558   1.736   4.336   1.777  0.0964  0.1345 -0.0163
 2197SOL     OW 8559   6.293   3.488   3.363 -0.2730  0.2683 -0.0182
 2197SOL    HW2 8560   6.229   3.421   3.388  0.0829  0.0100  0.2287
 2197SOL    HW3 8561   6.253   3.535   3.291  0.7213 -2.2352 -2.3683
 2197SOL    MW4 8562   6.279   3.485   3.357 -0.6595  0.0668  0.7951
 2198SOL     OW 8563   2.953   5.831   6.260  0.4249  0.3254  0.3596
 2198SOL    HW2 8564   2.969   5.737   6.258  2.2474  0.6163 -0.2506
 2198SOL    HW3 8565   2.860   5.840   6.241  0.3276 -1.3264 -0.0888
 2198SOL    MW4 8566   2.943   5.820   6.257 -0.3030  0.0430 -0.4431
 2199SOL     OW 8567   5.955   5.798   3.371  0.2963 -0.0931 -0.4764
 2199SOL    HW2 8568   5.862   5.817   3.385  0.3934  0.9274 -1.0895
 2199SOL    HW3 8569   5.984   5.865   3.308  1.9117  0.8564  1.1653
 2199SOL    MW4 8570   5.947   5.810   3.364 -0.2979 -0.2635  0.0616
 2200SOL     OW 8571   5.804   0.447   1.435  0.1649 -0.3454  0.1683
 2200SOL    HW2 8572   5.885   0.418   1.477  0.6366 -0.5869 -0.8636
 2200SOL    HW3 8573   5.809   0.410   1.346  0.9399  3.0223 -1.3651
 2200SOL    MW4 8574   5.815   0.438   1.429  0.1143  0.3883  0.7882
 2201SOL     OW 8575   1.213   5.088   3.850  0.0607  0.1360  0.3983
 2201SOL    HW2 8576   1.137   5.041   3.884 -1.3654  0.8892 -1.5643
 2201SOL    HW3 8577   1.288   5.040   3.885 -1.3093 -2.4433  0.0424
 2201SOL    MW4 8578   1.213   5.076   3.859  0.1937  0.5924 -0.0792
 2202SOL     OW 8579   0.830   4.458   1.051  0.1004 -0.0674 -0.9492
 2202SOL    HW2 8580   0.796   4.519   0.985  0.1642  0.5337 -0.4361
 2202SOL    HW3 8581   0.755   4.438   1.106  0.4214  0.7966 -0.1704
 2202SOL    MW4 8582   0.816   4.463   1.050 -0.1481  0.4889  0.6321
 2203SOL     OW 8583   5.306   3.937   4.415  0.4358  0.4077 -0.0304
 2203SOL    HW2 8584   5.318   4.016   4.468 -0.0978  0.9579 -0.6911
 2203SOL    HW3 8585   5.295   3.971   4.326  3.3843 -0.5955 -0.8590
 2203SOL    MW4 8586   5.306   3.952   4.410  0.4236  0.0454  0.1607
 2204SOL     OW 8587   5.188   6.327   4.991  0.4194  0.1881  0.0258
 2204SOL    HW2 8588   5.137   6.398   4.950  0.0658  0.4855  0.9631
 2204SOL    HW3 8589   5.244   6.371   5.054  0.6573 -0.3125  0.1648
 2204SOL    MW4 8590   5.189   6.343   4.994 -0.3891  0.1083 -0.9569
 2205SOL     OW 8591   2.058   0.521   4.318  0.4864 -0.7034  0.1770
 2205SOL    HW2 8592   2.003   0.580   4.266  0.4265 -2.8716 -2.4509
 2205SOL    HW3 8593   2.001   0.447   4.339  1.2384 -1.0200  1.1916
 2205SOL    MW4 8594   2.043   0.519   4.314 -0.3293 -0.1944  0.1021
 2206SOL     OW 8595   0.950   3.406   5.289 -0.1115  0.5262  0.6009
 2206SOL    HW2 8596   0.975   3.455   5.211 -0.1575  0.4253  0.5222
 2206SOL    HW3 8597   1.019   3.341   5.301 -1.0646 -0.7503 -0.4906
 2206SOL    MW4 8598   0.962   3.404   5.280  1.0974  0.3454 -0.4485
 2207SOL     OW 8599   1.088   2.153   5.470  0.2561 -0.5489  0.0727
 2207SOL    HW2 8600   1.018   2.092   5.494 -0.0685 -0.0872  0.3101
 2207SOL    HW3 8601   1.152   2.099   5.423  0.4607 -1.2822  1.1657
 2207SOL    MW4 8602   1.088   2.138   5.467  0.3418 -0.0049 -0.2069
 2208SOL     OW 8603   1.290   4.015   3.799 -0.8881 -0.0319  0.1344
 2208SOL    HW2 8604   1.302   4.110   3.803  2.0904 -0.1589 -1.8723
 2208SOL    HW3 8605   1.225   4.002   3.730 -1.5260  0.5381  0.6169
 2208SOL    MW4 8606   1.283   4.026   3.790 -0.0381 -0.8015  0.1909
 2209SOL     OW 8607   5.276   3.740   3.777  0.1304  0.5309  0.6630
 2209SOL    HW2 8608   5.300   3.655   3.813 -0.7427 -0.2252 -0.4700
 2209SOL    HW3 8609   5.213   3.776   3.840 -0.6494 -0.3392  0.3927
 2209SOL    MW4 8610   5.271   3.734   3.790 -0.0829 -0.8229 -0.1627
 2210SOL     OW 8611   0.008   5.487   2.934  0.5494  0.1005 -0.4480
 2210SOL    HW2 8612   0.095   5.455   2.960  0.4851  0.2537 -0.0269
 2210SOL    HW3 8613   0.016   5.583   2.938  0.1375  0.1068  0.3638
 2210SOL    MW4 8614   0.021   5.496   2.938  0.1791  0.5208 -0.1972
 2211SOL     OW 8615   2.665   2.634   4.471 -0.0834  0.3086 -0.5738
 2211SOL    HW2 8616   2.686   2.727   4.470 -1.4025  0.6261 -1.6104
 2211SOL    HW3 8617   2.743   2.592   4.508 -0.1550  1.9521  1.6786
 2211SOL    MW4 8618   2.678   2.640   4.476  0.7612 -0.0896  0.4899
 2212SOL     OW 8619   0.547   6.076   6.078 -0.3312 -0.8340 -0.2496
 2212SOL    HW2 8620   0.483   6.111   6.016 -2.9602  0.1155  2.7260
 2212SOL    HW3 8621   0.623   6.133   6.069 -1.7218  1.0354 -0.6568
 2212SOL    MW4 8622   0.549   6.088   6.069 -0.2189  0.4088  0.0787
 2213SOL     OW 8623   3.010   0.914   6.214  0.1924  0.9391 -0.0421
 2213SOL    HW2 8624   2.978   0.934   6.302  0.6981  0.0318  0.3586
 2213SOL    HW3 8625   2.981   0.825   6.197  0.7297  0.8478 -0.4996
 2213SOL    MW4 8626   3.002   0.905   6.224 -0.3108  0.0122  0.0432
 2214SOL     OW 8627   4.965   4.242   6.224 -0.1685  0.2721  1.0201
 2214SOL    HW2 8628   4.974   4.156   6.265  0.7041 -1.1823 -1.8953
 2214SOL    HW3 8629   4.921   4.224   6.140 -0.6759  2.7973  0.6611
 2214SOL    MW4 8630   4.961   4.228   6.218 -0.1119 -0.2132  0.1751
 2215SOL     OW 8631   4.911   0.432   0.551 -0.0375  0.0278  0.1718
 2215SOL    HW2 8632   4.852   0.408   0.622  0.7825  0.2037  0.9263
 2215SOL    HW3 8633   4.880   0.517   0.520 -0.9881 -0.4901 -0.3485
 2215SOL    MW4 8634   4.899   0.440   0.556 -0.1638  0.2651 -0.6621
 2216SOL     OW 8635   1.324   3.741   3.547  0.7403 -0.4894  0.1387
 2216SOL    HW2 8636   1.254   3.694   3.593 -0.6371  1.9626  0.7501
 2216SOL    HW3 8637   1.333   3.695   3.463 -0.2097 -2.0400  0.8413
 2216SOL    MW4 8638   1.316   3.729   3.542  0.0421  0.4742  0.1080
 2217SOL     OW 8639   5.864   3.003   5.280  0.3919 -0.4343 -0.1941
 2217SOL    HW2 8640   5.951   3.032   5.252  0.0941 -0.2392 -0.9414
 2217SOL    HW3 8641   5.821   2.973   5.200 -0.1534 -0.7392  0.2028
 2217SOL    MW4 8642   5.870   3.003   5.266  0.5701  1.0707  0.0752
 2218SOL     OW 8643   0.911   3.056   5.484 -0.2618 -0.1079  0.3982
 2218SOL    HW2 8644   0.987   3.099   5.443 -0.2839 -1.6893 -1.4269
 2218SOL    HW3 8645   0.840   3.072   5.422 -0.9388 -0.3739  1.1052
 2218SOL    MW4 8646   0.912   3.064   5.470  0.4708  0.1882 -0.3865
 2219SOL     OW 8647   3.107   1.322   4.953  1.0458 -0.3190  0.1114
 2219SOL    HW2 8648   3.109   1.332   4.858 -1.4611 -2.4999 -0.3020
 2219SOL    HW3 8649   3.042   1.386   4.982  1.4558  0.0123  0.3043
 2219SOL    MW4 8650   3.098   1.332   4.944  0.0476 -0.1330  0.2188
 2220SOL     OW 8651   6.234   2.615   3.215 -0.2856  0.1025  0.1187
 2220SOL    HW2 8652   6.239   2.577   3.303  3.2082 -0.8169 -0.3412
 2220SOL    HW3 8653   6.256   2.543   3.157  2.4412  1.7533 -1.0859
 2220SOL    MW4 8654   6.237   2.601   3.219  0.0610  0.0187 -0.2329
 2221SOL     OW 8655   3.389   2.127   2.642  0.4034  0.1215  0.3674
 2221SOL    HW2 8656   3.345   2.202   2.682  0.6898  1.5983 -1.8728
 2221SOL    HW3 8657   3.384   2.144   2.548  1.9229 -1.8772 -0.1467
 2221SOL    MW4 8658   3.383   2.139   2.635  0.8745 -0.4295 -0.4195
 2222SOL     OW 8659   3.660   1.106   5.902  0.8400 -0.1681  0.0926
 2222SOL    HW2 8660   3.744   1.091   5.858  0.0447  0.0249 -1.5829
 2222SOL    HW3 8661   3.607   1.152   5.837 -0.0804  1.0900  1.6369
 2222SOL    MW4 8662   3.664   1.110   5.888 -0.3749  0.1379 -0.3662
 2223SOL     OW 8663   1.981   1.083   4.824  0.0659  0.1468  0.2734
 2223SOL    HW2 8664   2.050   1.030   4.862 -0.0795  0.3961  0.8976
 2223SOL    HW3 8665   1.902   1.029   4.829  0.1253  0.0273 -0.0458
 2223SOL    MW4 8666   1.980   1.069   4.830 -0.5312  0.0716  0.3915
 2224SOL     OW 8667   2.092   5.572   3.007  0.2204 -0.1405 -0.1210
 2224SOL    HW2 8668   2.179   5.569   2.967  0.3325  1.5818 -0.0678
 2224SOL    HW3 8669   2.091   5.654   3.056 -0.9570 -0.8042  1.0357
 2224SOL    MW4 8670   2.104   5.582   3.008  0.5027 -0.0837 -0.5865
 2225SOL     OW 8671   2.242   5.087   0.110  0.4809  0.6225 -0.0979
 2225SOL    HW2 8672   2.171   5.067   0.049  1.4934  0.4259 -1.2692
 2225SOL    HW3 8673   2.279   5.170   0.077  2.7503 -0.8160 -1.4626
 2225SOL    MW4 8674   2.238   5.096   0.097 -0.0759  0.4732 -0.6311
 2226SOL     OW 8675   6.327   3.282   2.262  0.1025  0.8903 -0.4586
 2226SOL    HW2 8676   6.238   3.313   2.277  0.2016  1.5749 -1.2100
 2226SOL    HW3 8677   6.374   3.359   2.230  1.2606  0.8127  0.9819
 2226SOL    MW4 8678   6.321   3.296   2.260 -0.2270  0.3842  0.0680
 2227SOL     OW 8679   1.038   2.196   3.122  0.0478 -0.3290  0.1411
 2227SOL    HW2 8680   1.113   2.237   3.166 -1.8866  0.5969  2.7893
 2227SOL    HW3 8681   1.016   2.121   3.176 -0.6280 -0.9248 -0.9229
 2227SOL    MW4 8682   1.045   2.191   3.135  0.3959  0.2781  0.1356
 2228SOL     OW 8683   3.815   5.903   4.238 -0.2960  0.0371 -0.2802
 2228SOL    HW2 8684   3.891   5.930   4.186  0.9244 -0.1766  1.3135
 2228SOL    HW3 8685   3.808   5.809   4.222  0.8452 -0.2639  0.8398
 2228SOL    MW4 8686   3.824   5.894   4.229  0.3267 -0.3072  0.5711
 2229SOL     OW 8687   5.224   2.361   1.875  0.4592  0.3760  0.2858
 2229SOL    HW2 8688   5.157   2.304   1.837 -0.2041  0.5509  1.1496
 2229SOL    HW3 8689   5.254   2.313   1.952  0.2656  0.9469  0.7281
 2229SOL    MW4 8690   5.219   2.347   1.880 -0.3358 -0.0168 -0.1137
 2230SOL     OW 8691   0.489   0.831   2.310  0.1448  0.1549 -0.1358
 2230SOL    HW2 8692   0.445   0.840   2.395  0.2085 -0.4489 -0.0367
 2230SOL    HW3 8693   0.442   0.891   2.253 -0.0474  0.4003  0.2693
 2230SOL    MW4 8694   0.477   0.840   2.314  0.5765  0.1471  0.4843
 2231SOL     OW 8695   1.221   4.498   0.421  0.0249 -0.0550  0.2452
 2231SOL    HW2 8696   1.290   4.562   0.401  1.1714 -1.5001 -0.6704
 2231SOL    HW3 8697   1.254   4.450   0.497  0.2296 -0.9996 -0.4221
 2231SOL    MW4 8698   1.235   4.500   0.428 -0.2043 -0.2133 -0.0510
 2232SOL     OW 8699   4.559   4.745   5.677 -0.0177 -0.3865  0.1617
 2232SOL    HW2 8700   4.553   4.738   5.773 -2.2032 -0.8699  0.0344
 2232SOL    HW3 8701   4.542   4.656   5.646  2.1439 -0.5607 -0.6781
 2232SOL    MW4 8702   4.556   4.732   5.686  0.3216  0.4003 -0.8034
 2233SOL     OW 8703   5.032   5.202   3.526 -0.3463  0.9021 -0.1665
 2233SOL    HW2 8704   5.008   5.237   3.612 -0.1285  1.4239 -0.3145
 2233SOL    HW3 8705   5.113   5.153   3.541 -0.7232  0.3433  0.0657
 2233SOL    MW4 8706   5.039   5.200   3.539 -0.1270  0.1004  0.1465
 2234SOL     OW 8707   1.606   4.687   3.558  0.4564  0.4454  0.5380
 2234SOL    HW2 8708   1.545   4.656   3.491  0.5638 -0.9651  1.0539
 2234SOL    HW3 8709   1.651   4.607   3.588  2.2538  1.3802  0.4657
 2234SOL    MW4 8710   1.604   4.672   3.553  0.4092 -0.2270 -0.0744
 2235SOL     OW 8711   1.519   0.026   4.532  0.2206 -0.0602  0.3525
 2235SOL    HW2 8712   1.445   0.078   4.501 -0.5363 -0.2695  1.6943
 2235SOL    HW3 8713   1.532   0.055   4.623  1.3557 -0.5080  0.3508
 2235SOL    MW4 8714   1.511   0.037   4.540 -0.2339  0.2025 -0.0814
 2236SOL     OW 8715   2.062   4.649   4.842 -0.2955 -0.1348 -0.2396
 2236SOL    HW2 8716   2.009   4.577   4.877 -2.1958  1.5166  0.5103
 2236SOL    HW3 8717   2.064   4.634   4.748 -1.2449 -0.8125 -0.1699
 2236SOL    MW4 8718   2.055   4.637   4.834  0.0120  0.1542  0.5685
 2237SOL     OW 8719   4.164   4.540   0.996  0.3208  0.3915 -0.1609
 2237SOL    HW2 8720   4.078   4.570   0.968  1.1933  2.4417 -0.7842
 2237SOL    HW3 8721   4.225   4.573   0.930  1.7524  0.1454  0.9759
 2237SOL    MW4 8722   4.161   4.548   0.984 -0.2815 -0.1469  0.1818
 2238SOL     OW 8723   3.208   4.209   2.353 -0.2009 -0.3904 -0.0077
 2238SOL    HW2 8724   3.222   4.116   2.336 -1.1056 -0.6827  0.7900
 2238SOL    HW3 8725   3.196   4.215   2.447  1.7153  0.7995  0.2282
 2238SOL    MW4 8726   3.208   4.197   2.363 -0.2869  0.2395  0.2219
 2239SOL     OW 8727   3.273   3.602   2.757 -0.4462  0.1620  0.0164
 2239SOL    HW2 8728   3.350   3.629   2.707 -1.0355  1.3650 -0.2702
 2239SOL    HW3 8729   3.259   3.511   2.732  1.4954 -0.4265  0.8727
 2239SOL    MW4 8730   3.281   3.593   2.747 -0.1344  0.7541  0.0435
 2240SOL     OW 8731   3.019   3.589   0.795  0.0073  0.4142 -0.8001
 2240SOL    HW2 8732   2.957   3.536   0.744 -0.0325 -0.6115  0.2633
 2240SOL    HW3 8733   2.976   3.673   0.805 -1.7276 -0.5970  0.7900
 2240SOL    MW4 8734   3.005   3.593   0.789 -0.3151 -0.4535 -0.3614
 2241SOL     OW 8735   0.525   0.317   5.640  0.7668 -0.5501  0.4577
 2241SOL    HW2 8736   0.571   0.326   5.557 -1.5740  1.4467 -0.7492
 2241SOL    HW3 8737   0.550   0.394   5.691 -0.3676  0.0276  0.1853
 2241SOL    MW4 8738   0.534   0.328   5.636  0.0893  0.0336 -0.3696
 2242SOL     OW 8739   1.561   2.253   4.754 -0.0578 -0.4101 -0.4301
 2242SOL    HW2 8740   1.527   2.300   4.829 -0.6859 -0.0631 -0.9198
 2242SOL    HW3 8741   1.631   2.309   4.720 -0.0543 -0.3663 -0.3502
 2242SOL    MW4 8742   1.566   2.267   4.759  0.2910 -0.5621 -0.5041
 2243SOL     OW 8743   3.616   6.083   2.456  0.2937  0.3837 -0.2818
 2243SOL    HW2 8744   3.628   6.122   2.543  1.0221 -0.7724  0.1683
 2243SOL    HW3 8745   3.683   6.124   2.402  0.5170  0.3562 -0.0282
 2243SOL    MW4 8746   3.626   6.093   2.461  0.7423 -0.4365  0.2817
 2244SOL     OW 8747   2.410   2.649   1.363 -0.5267  0.3144 -0.6189
 2244SOL    HW2 8748   2.429   2.732   1.406  0.6392  0.2398 -0.9493
 2244SOL    HW3 8749   2.340   2.610   1.415  0.6961  0.3083  1.0925
 2244SOL    MW4 8750   2.403   2.655   1.375  0.3294 -0.5571 -0.2974
 2245SOL     OW 8751   4.353   6.354   6.276 -0.3078 -0.2088  0.3849
 2245SOL    HW2 8752   4.449   6.357   6.274 -0.2945 -0.6906  0.2213
 2245SOL    HW3 8753   4.329   6.312   6.193 -0.7105  1.0394 -0.1494
 2245SOL    MW4 8754   4.363   6.349   6.265  0.1476  0.2195 -0.1388
 2246SOL     OW 8755   0.282   1.206   0.973  0.3106  0.1815 -0.7252
 2246SOL    HW2 8756   0.244   1.280   0.926 -0.8088  0.6907  0.8662
 2246SOL    HW3 8757   0.214   1.138   0.970 -1.7355  1.6530  3.5117
 2246SOL    MW4 8758   0.268   1.207   0.967  0.2893  0.0380 -0.3350
 2247SOL     OW 8759   0.616   4.081   0.138  0.0561  0.2021 -0.0180
 2247SOL    HW2 8760   0.600   4.040   0.052  1.4299  1.1091 -0.7366
 2247SOL    HW3 8761   0.707   4.060   0.158 -0.7643 -1.6893  2.2121
 2247SOL    MW4 8762   0.626   4.073   0.129  0.2124  0.2831 -0.0310
 2248SOL     OW 8763   4.401   5.531   5.352 -0.2699 -0.2933 -0.5048
 2248SOL    HW2 8764   4.483   5.580   5.346 -0.6200  0.5136  0.8000
 2248SOL    HW3 8765   4.335   5.590   5.315 -0.7652  0.4868  1.4648
 2248SOL    MW4 8766   4.403   5.545   5.346 -0.4603 -0.9687  0.2068
 2249SOL     OW 8767   1.144   3.443   2.826  0.2021 -0.5287  0.2041
 2249SOL    HW2 8768   1.217   3.505   2.821  0.2133 -0.5985 -0.7724
 2249SOL    HW3 8769   1.186   3.357   2.830  0.1940 -0.5728 -0.4201
 2249SOL    MW4 8770   1.159   3.440   2.826 -0.6737 -0.4112 -0.2377
 2250SOL     OW 8771   2.162   4.694   3.219 -0.1478  0.1966 -0.1691
 2250SOL    HW2 8772   2.224   4.761   3.246  1.1399 -0.9074 -0.3300
 2250SOL    HW3 8773   2.180   4.619   3.276 -2.6515  0.4461  1.1420
 2250SOL    MW4 8774   2.172   4.693   3.230 -0.7351  0.5998  0.4484
 2251SOL     OW 8775   1.601   0.133   5.146  0.3731 -0.3316 -0.3177
 2251SOL    HW2 8776   1.593   0.097   5.235  1.4545  1.0098  0.3609
 2251SOL    HW3 8777   1.693   0.155   5.137  0.6288 -1.9918 -2.4409
 2251SOL    MW4 8778   1.612   0.131   5.157  0.0106 -0.4484  0.1953
 2252SOL     OW 8779   5.783   4.115   3.241  0.0275  0.5261 -0.5345
 2252SOL    HW2 8780   5.723   4.094   3.169 -1.0191  0.1260  0.4217
 2252SOL    HW3 8781   5.769   4.208   3.257 -0.2511  0.4622 -0.3956
 2252SOL    MW4 8782   5.773   4.124   3.233 -0.4100 -0.1619  0.1715
 2253SOL     OW 8783   3.940   3.100   2.173  0.0907  0.0850  0.6661
 2253SOL    HW2 8784   3.981   3.156   2.107 -0.3808  0.8145  0.9723
 2253SOL    HW3 8785   3.972   3.134   2.256 -1.5792  1.0928  0.9503
 2253SOL    MW4 8786   3.950   3.112   2.175 -0.3823  0.3784 -0.1627
 2254SOL     OW 8787   6.279   4.673   3.176  0.3127 -0.2086 -0.0823
 2254SOL    HW2 8788   6.243   4.747   3.126  0.1555 -1.6175 -2.1745
 2254SOL    HW3 8789   6.202   4.623   3.203  0.4972 -0.5533 -0.2002
 2254SOL    MW4 8790   6.264   4.676   3.173  0.1241  0.0107  0.1494
 2255SOL     OW 8791   0.385   1.697   1.976 -0.0434 -0.0838 -0.0725
 2255SOL    HW2 8792   0.316   1.723   1.915  0.7778  0.5126 -0.7739
 2255SOL    HW3 8793   0.368   1.748   2.055 -1.7108 -1.6008  0.6191
 2255SOL    MW4 8794   0.374   1.707   1.978  0.2787 -0.3697  0.4180
 2256SOL     OW 8795   2.416   4.008   5.613  0.3779  0.6838  0.3303
 2256SOL    HW2 8796   2.353   4.049   5.554  0.1571 -0.5768 -0.3464
 2256SOL    HW3 8797   2.371   4.005   5.698 -0.5450 -0.2982 -0.1681
 2256SOL    MW4 8798   2.402   4.013   5.617 -0.7079 -0.2231 -0.1325
 2257SOL     OW 8799   1.379   6.325   5.313 -0.1082 -0.0139 -0.0186
 2257SOL    HW2 8800   1.433   6.308   5.235 -1.0697 -0.5212 -0.5901
 2257SOL    HW3 8801   1.293   6.347   5.278 -0.3218  0.6476  0.8939
 2257SOL    MW4 8802   1.375   6.325   5.298 -0.0487  0.7058  0.3129
 2258SOL     OW 8803   3.383   2.948   5.583  0.0198  0.0412 -0.7126
 2258SOL    HW2 8804   3.439   3.022   5.560  1.0120 -0.4909 -0.0313
 2258SOL    HW3 8805   3.392   2.887   5.510 -0.1834  0.2341 -0.9019
 2258SOL    MW4 8806   3.391   2.950   5.570  0.2541  0.0246 -0.1773
 2259SOL     OW 8807   1.415   4.511   4.856 -1.1021  0.1139  0.1922
 2259SOL    HW2 8808   1.451   4.422   4.857  1.0603  0.8950 -1.2687
 2259SOL    HW3 8809   1.389   4.527   4.947 -0.6654 -1.6579  0.6729
 2259SOL    MW4 8810   1.416   4.501   4.868  0.0840  0.0998  0.8464
 2260SOL     OW 8811   6.291   4.061   4.242 -1.1418  0.0061 -0.4417
 2260SOL    HW2 8812   6.320   3.972   4.262 -0.5727  0.4974  0.9769
 2260SOL    HW3 8813   6.260   4.096   4.325 -2.1271  0.8768 -1.1411
 2260SOL    MW4 8814   6.291   4.054   4.255  0.4328 -0.4612  0.1809
 2261SOL     OW 8815   4.011   0.512   3.409 -0.1772  0.5458 -0.4837
 2261SOL    HW2 8816   3.975   0.491   3.322  0.9684 -1.6915 -0.4952
 2261SOL    HW3 8817   4.106   0.503   3.398  0.0886  1.6088  0.6991
 2261SOL    MW4 8818   4.019   0.508   3.396  0.6908  0.7477  0.1404
 2262SOL     OW 8819   2.292   0.222   3.203 -0.4616  0.5225 -0.2767
 2262SOL    HW2 8820   2.274   0.129   3.188 -0.4998  0.4711  0.0659
 2262SOL    HW3 8821   2.387   0.230   3.196 -0.4107  0.3601  0.1981
 2262SOL    MW4 8822   2.302   0.211   3.200  0.5042 -0.2463  0.0875
 2263SOL     OW 8823   1.616   1.759   0.682  0.2466 -0.3792  0.1017
 2263SOL    HW2 8824   1.560   1.706   0.625  0.7606 -0.1625 -0.6124
 2263SOL    HW3 8825   1.684   1.793   0.624  0.5861  0.1185  0.7833
 2263SOL    MW4 8826   1.617   1.756   0.667  0.2458  0.3782 -0.1492
 2264SOL     OW 8827   3.689   2.957   3.732 -0.0868  0.5579 -0.6686
 2264SOL    HW2 8828   3.594   2.966   3.741 -0.3546 -2.3996  0.3302
 2264SOL    HW3 8829   3.723   2.975   3.820  0.0111 -0.7076 -0.4299
 2264SOL    MW4 8830   3.681   2.961   3.745 -0.0847 -0.3442 -0.0827
 2265SOL     OW 8831   2.661   3.180   5.742  0.0753 -0.3409  0.0122
 2265SOL    HW2 8832   2.752   3.192   5.717  0.3519  0.0089  1.1209
 2265SOL    HW3 8833   2.645   3.248   5.807 -0.1617 -2.1085  1.8958
 2265SOL    MW4 8834   2.671   3.191   5.747  0.5437  0.6024  0.3756
 2266SOL     OW 8835   2.352   5.242   6.144  0.2288  0.2839 -0.3820
 2266SOL    HW2 8836   2.342   5.149   6.167  0.8395  0.3199  0.0746
 2266SOL    HW3 8837   2.401   5.241   6.062 -0.1454  0.1884 -0.6000
 2266SOL    MW4 8838   2.357   5.229   6.137  0.3719  0.5331  0.2252
 2267SOL     OW 8839   3.400   4.778   0.021  0.0262 -0.4019 -0.4377
 2267SOL    HW2 8840   3.468   4.733   0.070  0.5766  0.9787  0.0999
 2267SOL    HW3 8841   3.318   4.739   0.052  0.5075 -1.8003 -0.8095
 2267SOL    MW4 8842   3.398   4.767   0.031  0.3151 -0.3913 -0.0125
 2268SOL     OW 8843   6.194   0.559   2.012 -0.2517  0.3372  0.2280
 2268SOL    HW2 8844   6.139   0.519   2.080 -0.0791 -0.8498 -0.3110
 2268SOL    HW3 8845   6.153   0.644   1.995 -0.6868  0.3637  1.3326
 2268SOL    MW4 8846   6.182   0.565   2.019  0.1177  0.6951 -0.2652
 2269SOL     OW 8847   4.834   3.499   4.538  0.2970 -0.0065  0.7616
 2269SOL    HW2 8848   4.815   3.424   4.482 -0.5999  0.1795  0.8002
 2269SOL    HW3 8849   4.791   3.478   4.621  1.1407 -0.0265  1.2053
 2269SOL    MW4 8850   4.826   3.486   4.541  0.5828 -0.0049  0.4169
 2270SOL     OW 8851   4.301   1.026   2.177  0.1546  0.1309 -0.5549
 2270SOL    HW2 8852   4.225   1.027   2.236 -0.6318 -0.5407 -1.5089
 2270SOL    HW3 8853   4.316   0.933   2.159  0.0584  0.3243 -1.7663
 2270SOL    MW4 8854   4.293   1.014   2.182  0.0330 -0.2743 -0.2622
 2271SOL     OW 8855   6.326   1.968   4.127 -0.6122  0.0062  0.0339
 2271SOL    HW2 8856   6.339   2.062   4.114 -1.2404 -0.0628 -1.2779
 2271SOL    HW3 8857   6.237   1.961   4.162 -0.5743 -0.0929  0.1100
 2271SOL    MW4 8858   6.316   1.980   4.130  0.3270 -0.0221  0.4430
 2272SOL     OW 8859   3.423   0.042   2.432 -0.4592  0.2384 -0.2776
 2272SOL    HW2 8860   3.513   0.051   2.400 -1.3848  2.8677 -2.5168
 2272SOL    HW3 8861   3.430   0.057   2.527  1.5929 -1.3205 -0.1041
 2272SOL    MW4 8862   3.436   0.045   2.440  0.1761  0.1560  0.0648
 2273SOL     OW 8863   1.239   5.061   3.411 -0.3981  0.3209 -0.1760
 2273SOL    HW2 8864   1.315   5.011   3.441 -1.0226 -0.0608  0.8340
 2273SOL    HW3 8865   1.229   5.131   3.475  0.0871  1.4028 -1.2345
 2273SOL    MW4 8866   1.247   5.064   3.423 -0.0359  0.1605  0.2380
 2274SOL     OW 8867   3.829   1.110   4.829 -0.2502  0.7144  0.1333
 2274SOL    HW2 8868   3.772   1.042   4.794  0.7931 -0.8711  1.3861
 2274SOL    HW3 8869   3.918   1.079   4.812  0.2737  2.3135 -0.2546
 2274SOL    MW4 8870   3.833   1.097   4.822 -0.2104  0.1644 -0.0242
 2275SOL     OW 8871   0.505   2.330   2.428 -0.7570  0.2839 -0.1763
 2275SOL    HW2 8872   0.575   2.389   2.400 -0.2993  0.3032  0.9419
 2275SOL    HW3 8873   0.461   2.377   2.500 -1.1137 -0.2549 -0.0363
 2275SOL    MW4 8874   0.509   2.344   2.434  0.1285  0.0212 -0.3038
 2276SOL     OW 8875   0.672   1.792   2.774 -0.3535 -0.3170 -0.2817
 2276SOL    HW2 8876   0.706   1.703   2.762 -2.9706 -1.0208 -4.3388
 2276SOL    HW3 8877   0.747   1.849   2.756  0.5697 -1.7140 -0.9998
 2276SOL    MW4 8878   0.687   1.788   2.770 -0.0857 -0.1574 -0.7515
 2277SOL     OW 8879   3.416   2.538   2.673 -0.2849 -0.1089  0.0795
 2277SOL    HW2 8880   3.450   2.628   2.669  2.9083 -1.2097 -1.7593
 2277SOL    HW3 8881   3.338   2.540   2.618  1.0523  1.1566 -1.9354
 2277SOL    MW4 8882   3.411   2.550   2.665  0.5512  0.1118  0.3858
 2278SOL     OW 8883   2.372   5.746   5.263  0.1253  0.2329  0.4092
 2278SOL    HW2 8884   2.352   5.775   5.174  0.8084 -0.4724  0.0124
 2278SOL    HW3 8885   2.428   5.669   5.251  0.1927  0.1075  1.4498
 2278SOL    MW4 8886   2.377   5.739   5.249 -0.6410  0.2595 -0.2187
 2279SOL     OW 8887   3.379   2.769   5.378  0.5165 -0.5671  0.0754
 2279SOL    HW2 8888   3.435   2.813   5.313 -0.0267  0.3985  0.2351
 2279SOL    HW3 8889   3.290   2.794   5.353  0.3215  0.2023  1.4445
 2279SOL    MW4 8890   3.375   2.778   5.366  0.6955 -0.1295 -0.2624
 2280SOL     OW 8891   4.895   0.760   5.205 -0.4059  0.2105  0.8095
 2280SOL    HW2 8892   4.961   0.696   5.230 -0.4397  0.3100  1.1543
 2280SOL    HW3 8893   4.891   0.754   5.109  1.2328  1.3044  0.6267
 2280SOL    MW4 8894   4.903   0.751   5.196  0.0485  0.0786 -0.1259
 2281SOL     OW 8895   3.456   1.160   3.615  0.0594  0.5774 -0.1709
 2281SOL    HW2 8896   3.420   1.249   3.621 -0.6246  0.2536  0.7403
 2281SOL    HW3 8897   3.527   1.159   3.680  0.6057  0.6958 -0.7578
 2281SOL    MW4 8898   3.460   1.172   3.625  0.1237  0.3412  0.1421
 2282SOL     OW 8899   4.286   0.063   0.243  0.2004  0.0388  0.2328
 2282SOL    HW2 8900   4.274  -0.031   0.230 -0.0864  0.3223 -1.8693
 2282SOL    HW3 8901   4.200   0.095   0.267  0.1304 -0.1197  0.1981
 2282SOL    MW4 8902   4.273   0.054   0.245 -0.0993  0.1839 -0.4165
 2283SOL     OW 8903   0.938   4.620   5.755  0.0880 -0.2731 -0.1627
 2283SOL    HW2 8904   0.845   4.633   5.775  0.4644  1.6266  0.5773
 2283SOL    HW3 8905   0.966   4.549   5.813 -0.8359 -0.6925 -0.2135
 2283SOL    MW4 8906   0.930   4.612   5.765 -0.2217  0.3015 -0.3553
 2284SOL     OW 8907   5.705   3.174   1.407  0.4097  0.1175 -0.7623
 2284SOL    HW2 8908   5.613   3.159   1.431  0.7203  0.6002  0.8095
 2284SOL    HW3 8909   5.705   3.169   1.311 -1.7403  2.7138 -1.0265
 2284SOL    MW4 8910   5.693   3.171   1.397  0.0019  0.4022 -0.4681
 2285SOL     OW 8911   4.896   2.536   2.981 -0.5037  0.1110 -0.3517
 2285SOL    HW2 8912   4.808   2.506   3.000 -0.8522  0.9615 -0.5840
 2285SOL    HW3 8913   4.897   2.628   3.007  0.1746  0.2366 -0.7787
 2285SOL    MW4 8914   4.885   2.544   2.987  0.4076 -0.1794 -0.7153
 2286SOL     OW 8915   0.508   0.943   2.834 -0.0604  0.5235 -0.0520
 2286SOL    HW2 8916   0.471   1.020   2.878  0.1494  2.8129 -3.4813
 2286SOL    HW3 8917   0.433   0.885   2.820 -0.5752  0.9259  0.9432
 2286SOL    MW4 8918   0.493   0.945   2.838  0.0441  0.0024 -0.4261
 2287SOL     OW 8919   0.938   1.693   2.238  0.7413  0.0907  0.6275
 2287SOL    HW2 8920   0.989   1.621   2.202  1.7256  0.7021  0.7536
 2287SOL    HW3 8921   0.896   1.657   2.316 -3.0738 -1.8661 -2.0262
 2287SOL    MW4 8922   0.940   1.679   2.243  0.2141  0.6128  0.5063
 2288SOL     OW 8923   3.232   0.382   3.359  0.0046 -0.0370  0.4911
 2288SOL    HW2 8924   3.142   0.349   3.360  0.4289 -1.7897 -3.2451
 2288SOL    HW3 8925   3.232   0.448   3.289  2.2396 -2.7984 -2.4085
 2288SOL    MW4 8926   3.220   0.387   3.350 -0.3247  0.4951 -0.0377
 2289SOL     OW 8927   5.673   1.032   1.154  0.4709  0.1105 -0.5604
 2289SOL    HW2 8928   5.705   0.977   1.083  0.0129 -1.0968  0.1550
 2289SOL    HW3 8929   5.686   0.981   1.233  0.8750  1.3929  0.2411
 2289SOL    MW4 8930   5.679   1.018   1.155  0.4683 -0.1720  0.4163
 2290SOL     OW 8931   4.513   4.267   5.563 -0.1859 -0.4881 -0.0362
 2290SOL    HW2 8932   4.572   4.268   5.487 -1.5473 -0.6666 -1.1202
 2290SOL    HW3 8933   4.544   4.193   5.615 -0.8456 -2.0613 -1.7656
 2290SOL    MW4 8934   4.525   4.258   5.560 -0.1694 -0.3714  0.2612
 2291SOL     OW 8935   2.654   5.000   1.554  0.3603  0.3257 -0.1541
 2291SOL    HW2 8936   2.584   5.022   1.615  1.6841  1.6311  0.9813
 2291SOL    HW3 8937   2.684   5.085   1.520  0.8760 -0.2599 -1.2142
 2291SOL    MW4 8938   2.649   5.014   1.558  0.1121  0.3525 -0.0238
 2292SOL     OW 8939   0.369   0.858   0.263  0.1044  0.0841 -0.5697
 2292SOL    HW2 8940   0.444   0.866   0.323  0.5261  1.0519 -1.2081
 2292SOL    HW3 8941   0.311   0.795   0.306  0.6148  0.3995  0.6261
 2292SOL    MW4 8942   0.372   0.850   0.277  0.1578  0.0616 -0.0106
 2293SOL     OW 8943   4.579   6.300   2.184  0.4857  0.1956 -0.1222
 2293SOL    HW2 8944   4.515   6.266   2.247  0.5545 -0.7358 -0.5411
 2293SOL    HW3 8945   4.664   6.277   2.222  0.5964  1.3618  0.3941
 2293SOL    MW4 8946   4.582   6.293   2.198 -0.7308 -0.4439  0.0257
 2294SOL     OW 8947   2.131   1.068   0.798 -0.0547  0.2543  0.0183
 2294SOL    HW2 8948   2.201   1.029   0.850  0.3115 -0.0578 -0.7039
 2294SOL    HW3 8949   2.080   1.119   0.862  0.6644  0.2725  0.5940
 2294SOL    MW4 8950   2.133   1.069   0.814  0.6401 -0.8641  0.0344
 2295SOL     OW 8951   6.034   4.245   2.701  0.6084  0.5574 -0.0291
 2295SOL    HW2 8952   5.966   4.313   2.700  0.2291  0.2556  1.6083
 2295SOL    HW3 8953   6.104   4.284   2.753  0.7551  0.0303  0.1677
 2295SOL    MW4 8954   6.034   4.259   2.708  0.2818 -0.0634  0.9148
 2296SOL     OW 8955   4.565   0.558   6.212 -0.7052 -0.0594  0.0962
 2296SOL    HW2 8956   4.521   0.550   6.128 -0.4307 -2.7498  0.1305
 2296SOL    HW3 8957   4.608   0.474   6.225  0.5091  0.8084  2.2603
 2296SOL    MW4 8958   4.565   0.546   6.203  0.2496  0.0426  0.6787
 2297SOL     OW 8959   1.326   0.214   1.156  0.1705  0.4524  0.1592
 2297SOL    HW2 8960   1.421   0.204   1.161  0.1966  0.5207 -0.1969
 2297SOL    HW3 8961   1.301   0.162   1.080 -0.4612 -2.3518  2.1262
 2297SOL    MW4 8962   1.335   0.206   1.147 -0.0257 -0.4184 -0.2206
 2298SOL     OW 8963   1.530   5.673   6.176 -0.1810 -0.0725  0.0902
 2298SOL    HW2 8964   1.467   5.619   6.130 -1.3210  1.0760  0.2504
 2298SOL    HW3 8965   1.516   5.654   6.269  1.5283 -1.7465  0.0578
 2298SOL    MW4 8966   1.520   5.664   6.182  0.4217  0.2385 -0.4341
 2299SOL     OW 8967   6.381   0.979   1.192  0.0115 -0.4095  0.0215
 2299SOL    HW2 8968   6.373   1.072   1.169  1.3099 -0.7639 -2.2133
 2299SOL    HW3 8969   6.384   0.978   1.287  1.2569  1.9844  0.1014
 2299SOL    MW4 8970   6.381   0.991   1.201 -0.6539  0.0946 -0.5076
 2300SOL     OW 8971   2.841   1.399   0.670 -0.1127  0.4276 -0.3220
 2300SOL    HW2 8972   2.785   1.435   0.602 -0.3362 -0.6625 -0.7353
 2300SOL    HW3 8973   2.929   1.399   0.631  0.4569  3.1859  0.7228
 2300SOL    MW4 8974   2.845   1.403   0.656  0.0398  0.2978 -0.1758
 2301SOL     OW 8975   5.978   0.511   2.703  0.2300  0.2052 -0.5523
 2301SOL    HW2 8976   6.048   0.447   2.689 -0.5582 -1.0009  0.6869
 2301SOL    HW3 8977   5.958   0.544   2.615  0.9264 -0.9773 -1.1891
 2301SOL    MW4 8978   5.985   0.507   2.689 -0.6636  0.9233  0.8551
 2302SOL     OW 8979   6.062   1.226   3.885 -0.6535  0.7151 -0.4775
 2302SOL    HW2 8980   6.025   1.309   3.913  0.7701  1.7367 -1.4629
 2302SOL    HW3 8981   6.040   1.164   3.954  0.0040  2.3766  1.2876
 2302SOL    MW4 8982   6.054   1.229   3.898 -0.2263  0.4964 -0.2857
 2303SOL     OW 8983   3.810   4.879   4.964 -0.3550 -0.2991 -0.0429
 2303SOL    HW2 8984   3.779   4.952   5.017  0.9797  1.6598 -1.7752
 2303SOL    HW3 8985   3.730   4.834   4.936 -1.3260  1.2188  0.1380
 2303SOL    MW4 8986   3.795   4.883   4.967 -0.0900  0.9267 -0.1084
 2304SOL     OW 8987   4.017   0.920   1.635 -0.1663  0.0957 -0.8832
 2304SOL    HW2 8988   3.942   0.866   1.610  2.2444 -3.0084 -2.1295
 2304SOL    HW3 8989   4.052   0.877   1.713  0.0938  1.7960 -0.0162
 2304SOL    MW4 8990   4.012   0.907   1.642  0.3596 -0.7462 -0.1891
 2305SOL     OW 8991   3.883   2.645   0.314 -0.1822 -0.0893  0.0611
 2305SOL    HW2 8992   3.918   2.733   0.307  1.0539 -0.3944  1.8160
 2305SOL    HW3 8993   3.946   2.598   0.368 -1.1157 -1.8986 -0.3376
 2305SOL    MW4 8994   3.896   2.650   0.320  0.0397 -0.1446 -0.3016
 2306SOL     OW 8995   3.009   1.853   6.374  0.0487  0.2300 -0.1342
 2306SOL    HW2 8996   3.042   1.766   6.396  0.0375  0.4096  0.6415
 2306SOL    HW3 8997   3.086   1.909   6.375  0.0545  0.2281 -0.6204
 2306SOL    MW4 8998   3.023   1.849   6.377 -0.3488 -0.1506  0.6967
 2307SOL     OW 8999   1.783   2.589   1.891 -0.3126  0.0284  0.0261
 2307SOL    HW2 9000   1.834   2.549   1.821 -1.2351  1.0703 -1.2784
 2307SOL    HW3 9001   1.734   2.516   1.930  0.4807 -0.6130 -0.1590
 2307SOL    MW4 9002   1.783   2.574   1.887  0.1432 -0.1344  0.7254
 2308SOL     OW 9003   0.267   5.979   3.908  0.6938  0.2556  0.0518
 2308SOL    HW2 9004   0.213   5.947   3.836  1.2411 -0.6918  0.0468
 2308SOL    HW3 9005   0.356   5.973   3.875  0.9296  0.0671  0.7049
 2308SOL    MW4 9006   0.272   5.974   3.895  0.1810  0.2071 -0.0614
 2309SOL     OW 9007   3.094   2.204   6.235  0.3004  0.0844 -0.4271
 2309SOL    HW2 9008   3.077   2.175   6.146 -1.2174  2.4569 -1.0126
 2309SOL    HW3 9009   3.018   2.175   6.285  1.0623 -1.0811  0.0991
 2309SOL    MW4 9010   3.082   2.197   6.230  0.3345 -0.1758 -0.3495
 2310SOL     OW 9011   1.446   3.770   2.169  0.3476 -0.5646  0.2120
 2310SOL    HW2 9012   1.477   3.809   2.251  0.3437 -0.0999 -0.0090
 2310SOL    HW3 9013   1.415   3.844   2.117  0.2097 -0.8759 -0.1498
 2310SOL    MW4 9014   1.446   3.785   2.173  0.1856  0.5732  0.3137
 2311SOL     OW 9015   3.642   0.855   4.413  0.0872 -0.0616  0.0195
 2311SOL    HW2 9016   3.682   0.769   4.405  0.3376  0.0370  0.1765
 2311SOL    HW3 9017   3.549   0.840   4.403  0.2620 -0.0999 -1.8140
 2311SOL    MW4 9018   3.635   0.842   4.411 -0.0570 -0.6204 -0.0696
 2312SOL     OW 9019   1.488   2.781   3.232  0.5765  0.6832  0.2146
 2312SOL    HW2 9020   1.486   2.865   3.277  1.0339  2.0613 -2.1708
 2312SOL    HW3 9021   1.573   2.743   3.257  1.1714  1.7803 -0.0661
 2312SOL    MW4 9022   1.499   2.787   3.241  0.0237 -0.1143 -0.0142
 2313SOL     OW 9023   4.141   5.909   3.121  0.1738  0.1121 -0.4484
 2313SOL    HW2 9024   4.113   5.949   3.203 -0.5073  1.1692 -1.1700
 2313SOL    HW3 9025   4.179   5.825   3.147  0.9294  0.8750  1.0472
 2313SOL    MW4 9026   4.142   5.903   3.135  0.2397  0.3210  0.2944
 2314SOL     OW 9027   3.646   5.382   2.192 -0.3889 -0.0007 -0.3088
 2314SOL    HW2 9028   3.560   5.366   2.230  0.1098 -0.2578  0.7293
 2314SOL    HW3 9029   3.627   5.404   2.100 -1.6311  0.8999  0.1306
 2314SOL    MW4 9030   3.632   5.383   2.185  0.3984  0.3974 -0.3182
 2315SOL     OW 9031   0.564   3.539   1.476  0.1896 -0.7586 -0.0465
 2315SOL    HW2 9032   0.473   3.539   1.508 -0.5008  0.9710 -1.8549
 2315SOL    HW3 9033   0.585   3.631   1.463  0.8772 -1.2614 -3.1881
 2315SOL    MW4 9034   0.554   3.551   1.479  0.2692  0.1484 -0.4514
 2316SOL     OW 9035   1.901   4.659   2.060  0.0009  0.2342  0.4757
 2316SOL    HW2 9036   1.921   4.586   2.002 -1.1698  0.1333  0.1745
 2316SOL    HW3 9037   1.894   4.620   2.147  1.0722  0.2767  0.5963
 2316SOL    MW4 9038   1.903   4.644   2.064 -0.1156  0.3867 -0.2406
 2317SOL     OW 9039   6.275   4.580   2.128  0.0629 -0.5365 -0.2203
 2317SOL    HW2 9040   6.245   4.655   2.180  1.0635 -0.1568 -0.1582
 2317SOL    HW3 9041   6.367   4.600   2.109  0.1290 -1.3956 -0.8481
 2317SOL    MW4 9042   6.283   4.592   2.132 -0.5412 -0.0217  0.3324
 2318SOL     OW 9043   0.231   2.409   0.625 -0.0573 -0.5414  0.1281
 2318SOL    HW2 9044   0.154   2.363   0.590 -1.0318 -0.2430  1.7704
 2318SOL    HW3 9045   0.297   2.341   0.634 -0.4910 -1.0251 -0.2743
 2318SOL    MW4 9046   0.230   2.394   0.622 -0.7957  0.3180 -0.0831
 2319SOL     OW 9047   2.362   3.933   3.416  0.7283  0.5337 -0.1515
 2319SOL    HW2 9048   2.383   4.021   3.445  2.7905  0.8607 -2.3531
 2319SOL    HW3 9049   2.330   3.943   3.326 -1.3830 -0.7848  0.3728
 2319SOL    MW4 9050   2.360   3.946   3.408  0.1159 -0.6008 -0.2699
 2320SOL     OW 9051   2.826   5.566   5.135 -0.5829  0.1295 -0.3043
 2320SOL    HW2 9052   2.850   5.476   5.111 -0.8236  0.2016 -0.8430
 2320SOL    HW3 9053   2.824   5.613   5.051  0.1408  0.7875  0.0379
 2320SOL    MW4 9054   2.829   5.560   5.120 -0.0411  0.1440  0.2512
 2321SOL     OW 9055   5.029   0.483   3.645  0.4190  0.3954  0.0126
 2321SOL    HW2 9056   5.094   0.479   3.715 -0.7601 -0.0806  1.1184
 2321SOL    HW3 9057   5.057   0.556   3.591  1.0644  1.1184  1.2774
 2321SOL    MW4 9058   5.041   0.492   3.647 -0.7204  0.1399 -0.0360
 2322SOL     OW 9059   5.950   6.320   4.652 -0.4272 -0.0500  0.1372
 2322SOL    HW2 9060   5.921   6.410   4.666 -0.6229 -0.0600 -0.1951
 2322SOL    HW3 9061   6.024   6.326   4.592 -0.6074 -0.1307 -0.0940
 2322SOL    MW4 9062   5.956   6.333   4.646  0.8001  0.0996  0.2659
 2323SOL     OW 9063   2.193   6.405   3.750 -0.0655  0.3189  0.6668
 2323SOL    HW2 9064   2.206   6.348   3.826  0.3287  0.7229  0.9061
 2323SOL    HW3 9065   2.174   6.491   3.788  0.8510  0.6842  0.3121
 2323SOL    MW4 9066   2.192   6.409   3.765  0.5008 -0.1981 -0.5783
 2324SOL     OW 9067   5.383   6.360   6.057  0.2133  0.5126  0.1943
 2324SOL    HW2 9068   5.304   6.348   6.109 -0.0247  0.8703 -0.0839
 2324SOL    HW3 9069   5.449   6.387   6.121 -0.0557  0.8610  0.3251
 2324SOL    MW4 9070   5.381   6.362   6.073  0.1068  0.8841 -0.4975
 2325SOL     OW 9071   3.488   1.852   5.262 -0.5200 -0.4387 -0.1507
 2325SOL    HW2 9072   3.473   1.858   5.357  0.3404  0.0578 -0.0301
 2325SOL    HW3 9073   3.536   1.770   5.251  1.5363  0.6474  0.1776
 2325SOL    MW4 9074   3.493   1.842   5.273 -0.2841 -0.9026  0.2426
 2326SOL     OW 9075   2.758   2.897   4.464  0.1390  0.4042 -0.0557
 2326SOL    HW2 9076   2.697   2.936   4.527  1.3638 -0.8147  1.9975
 2326SOL    HW3 9077   2.844   2.912   4.502  0.9499 -0.0072 -1.6824
 2326SOL    MW4 9078   2.761   2.904   4.478 -0.4221 -0.1681  0.5038
 2327SOL     OW 9079   4.378   0.187   3.603  0.7757  0.3940 -0.3247
 2327SOL    HW2 9080   4.359   0.268   3.556  0.5703  0.5656  0.0479
 2327SOL    HW3 9081   4.468   0.165   3.577  0.4674  0.1692 -1.2373
 2327SOL    MW4 9082   4.388   0.195   3.593  0.0804  0.0453  0.0924
 2328SOL     OW 9083   0.272   3.159   4.603 -0.5280  0.0730 -0.0378
 2328SOL    HW2 9084   0.281   3.075   4.558  1.2045 -0.0664  0.5044
 2328SOL    HW3 9085   0.226   3.138   4.684  0.7486 -0.5627  0.5577
 2328SOL    MW4 9086   0.267   3.145   4.607  0.3059 -0.1077  0.2667
 2329SOL     OW 9087   4.310   0.105   0.892 -0.5234 -0.6854 -0.1727
 2329SOL    HW2 9088   4.218   0.126   0.879 -1.4675 -3.8135  0.5061
 2329SOL    HW3 9089   4.327   0.130   0.983 -0.5499  0.2356 -0.4063
 2329SOL    MW4 9090   4.300   0.111   0.902  0.1059  0.0982 -0.0145
 2330SOL     OW 9091   1.031   6.344   2.386  0.0175  0.5075  0.0923
 2330SOL    HW2 9092   1.004   6.272   2.443  0.0149 -0.4015 -1.0186
 2330SOL    HW3 9093   1.068   6.301   2.309 -1.1982  1.6581 -1.1965
 2330SOL    MW4 9094   1.032   6.329   2.384  0.6386 -0.2620 -0.2380
 2331SOL     OW 9095   2.128   1.817   2.858  0.0942  0.3325  0.4275
 2331SOL    HW2 9096   2.134   1.880   2.929 -0.5973  2.2718 -1.1194
 2331SOL    HW3 9097   2.079   1.743   2.894 -0.9055  1.6001  1.7442
 2331SOL    MW4 9098   2.122   1.815   2.872 -0.1668 -0.0099 -0.2825
 2332SOL     OW 9099   0.587   5.916   3.204 -0.3418  0.1070  0.0629
 2332SOL    HW2 9100   0.524   5.863   3.155 -0.3262  0.4454 -0.3242
 2332SOL    HW3 9101   0.597   5.869   3.287  1.2719 -1.6700 -1.0572
 2332SOL    MW4 9102   0.580   5.903   3.209 -0.0377  0.5692  0.3525
 2333SOL     OW 9103   0.955   0.507   1.955 -0.1778 -0.0350 -0.1804
 2333SOL    HW2 9104   0.884   0.474   1.899 -2.2253  2.3177  0.8033
 2333SOL    HW3 9105   0.977   0.593   1.917  0.7949  0.1011  0.6613
 2333SOL    MW4 9106   0.948   0.514   1.942 -0.8133  0.3124  0.1793
 2334SOL     OW 9107   6.145   1.747   4.393 -0.4847  0.2785 -0.0036
 2334SOL    HW2 9108   6.075   1.682   4.403 -0.3921  0.2895  0.8227
 2334SOL    HW3 9109   6.114   1.806   4.324 -1.4404  0.4683  0.5654
 2334SOL    MW4 9110   6.132   1.746   4.385 -0.2980 -0.1601 -0.5460
 2335SOL     OW 9111   2.760   4.292   2.211  0.2134 -0.7841  0.0251
 2335SOL    HW2 9112   2.854   4.284   2.229  0.2845  1.0771  0.7236
 2335SOL    HW3 9113   2.748   4.385   2.189 -1.4444 -1.0221 -0.1966
 2335SOL    MW4 9114   2.771   4.304   2.210  0.5014  0.0117 -0.0589
 2336SOL     OW 9115   4.734   0.488   1.073  0.7230  0.2149 -0.1817
 2336SOL    HW2 9116   4.682   0.410   1.094  0.3196  0.1824 -1.2342
 2336SOL    HW3 9117   4.675   0.562   1.087  0.4107  0.1869 -1.2325
 2336SOL    MW4 9118   4.719   0.487   1.077  0.1033 -0.0205  0.1242
 2337SOL     OW 9119   3.996   3.986   2.125  0.3330 -0.3760  0.3242
 2337SOL    HW2 9120   4.045   3.907   2.101  0.3422 -0.5243  0.8187
 2337SOL    HW3 9121   3.928   3.954   2.185 -1.2636 -0.3962 -1.4235
 2337SOL    MW4 9122   3.994   3.971   2.130  0.3546  0.1955 -0.1667
 2338SOL     OW 9123   3.678   0.874   4.108  0.4249 -0.3336 -0.1928
 2338SOL    HW2 9124   3.695   0.932   4.182 -1.6546  1.3099 -0.8935
 2338SOL    HW3 9125   3.700   0.927   4.031  0.2439 -1.1398 -0.8117
 2338SOL    MW4 9126   3.683   0.888   4.107 -0.1601  0.3794  0.0191
 2339SOL     OW 9127   1.938   6.125   2.214 -0.4630  0.5603  0.2485
 2339SOL    HW2 9128   1.943   6.033   2.192 -3.0183  0.6154 -0.8776
 2339SOL    HW3 9129   1.994   6.169   2.150  0.4814 -0.1425  0.5732
 2339SOL    MW4 9130   1.946   6.119   2.203  0.4580 -0.0875  0.2030
 2340SOL     OW 9131   6.001   1.797   2.423  0.4307  0.1135 -0.0975
 2340SOL    HW2 9132   6.090   1.805   2.387  0.5542 -0.5914  0.0401
 2340SOL    HW3 9133   6.007   1.838   2.509  0.3711  0.9503 -0.4800
 2340SOL    MW4 9134   6.014   1.803   2.429 -0.3139 -0.3075  0.1363
 2341SOL     OW 9135   1.457   1.253   2.249  0.3409  0.0712 -0.2031
 2341SOL    HW2 9136   1.364   1.259   2.225  0.6018 -0.2965 -1.4191
 2341SOL    HW3 9137   1.459   1.191   2.322 -0.2471 -1.0575 -1.1139
 2341SOL    MW4 9138   1.445   1.245   2.255 -0.5071  0.1558 -0.3192
 2342SOL     OW 9139   5.119   2.274   5.013  0.1064 -0.0291 -0.2435
 2342SOL    HW2 9140   5.055   2.209   5.039 -1.1534  0.3550 -2.1689
 2342SOL    HW3 9141   5.067   2.352   4.991  1.3406  0.7419 -0.5452
 2342SOL    MW4 9142   5.104   2.276   5.013 -0.0087  0.5111  0.1445
 2343SOL     OW 9143   3.158   5.308   5.900 -0.9070  0.0321  0.3071
 2343SOL    HW2 9144   3.148   5.399   5.874  1.0337  0.3092  0.3805
 2343SOL    HW3 9145   3.235   5.307   5.957 -0.6702 -1.6986  0.0386
 2343SOL    MW4 9146   3.167   5.320   5.904 -0.3765 -0.3939  0.1473
 2344SOL     OW 9147   4.159   4.437   3.643 -0.7686 -0.0074  0.4331
 2344SOL    HW2 9148   4.172   4.413   3.551  0.4864 -0.3961  0.6854
 2344SOL    HW3 9149   4.147   4.532   3.642 -1.4430 -0.0881 -0.1851
 2344SOL    MW4 9150   4.159   4.446   3.631  0.0331 -0.0991 -0.4014
 2345SOL     OW 9151   1.690   1.166   3.510 -0.2441 -0.4294 -0.5579
 2345SOL    HW2 9152   1.691   1.204   3.422  0.1521  0.6549 -0.0979
 2345SOL    HW3 9153   1.731   1.080   3.499  2.0247  0.6468 -1.0323
 2345SOL    MW4 9154   1.696   1.159   3.497 -0.2634 -0.0153 -0.6411
 2346SOL     OW 9155   2.851   2.132   6.368  0.6450 -0.1169  0.0181
 2346SOL    HW2 9156   2.878   2.135   6.460  0.2013 -3.3892  0.4023
 2346SOL    HW3 9157   2.790   2.058   6.364 -0.2780  0.6625 -2.7197
 2346SOL    MW4 9158   2.846   2.122   6.380  0.6061 -0.3832 -0.1627
 2347SOL     OW 9159   4.158   4.041   3.152  0.3361 -0.3739 -0.0263
 2347SOL    HW2 9160   4.122   3.956   3.179  0.1412 -0.3663 -0.2572
 2347SOL    HW3 9161   4.251   4.023   3.136  0.3205 -0.5172  0.0408
 2347SOL    MW4 9162   4.166   4.027   3.153 -0.1951  0.2888  0.7833
 2348SOL     OW 9163   5.011   0.316   5.033 -0.3678 -0.2106 -0.4544
 2348SOL    HW2 9164   4.949   0.251   4.999 -0.3092 -0.5207  0.0338
 2348SOL    HW3 9165   4.991   0.395   4.983 -0.1037 -0.7291 -1.4161
 2348SOL    MW4 9166   5.000   0.318   5.022 -0.1555 -0.3206 -0.3938
 2349SOL     OW 9167   0.044   1.338   3.194 -0.2443 -0.2429 -0.1700
 2349SOL    HW2 9168  -0.002   1.355   3.276 -1.3948  0.5721 -0.9638
 2349SOL    HW3 9169   0.109   1.271   3.217  0.0770  0.6105  1.6035
 2349SOL    MW4 9170   0.047   1.332   3.208 -0.6414 -0.4261  0.0842
 2350SOL     OW 9171   2.872   2.893   1.714 -0.1800  0.0262  0.0554
 2350SOL    HW2 9172   2.847   2.966   1.658 -0.2829  0.9149  1.2322
 2350SOL    HW3 9173   2.893   2.933   1.799 -2.4351 -1.4591  1.4433
 2350SOL    MW4 9174   2.871   2.908   1.718  0.2170  0.7823  0.0141
 2351SOL     OW 9175   5.818   1.740   4.765  0.1602 -0.0886 -0.1735
 2351SOL    HW2 9176   5.777   1.801   4.704 -1.6605 -2.3530 -1.3589
 2351SOL    HW3 9177   5.789   1.770   4.852 -1.1035  0.4556 -0.7524
 2351SOL    MW4 9178   5.809   1.752   4.769  0.9595 -0.4000 -0.1110
 2352SOL     OW 9179   3.005   3.801   0.469  0.7154 -0.6701  0.0204
 2352SOL    HW2 9180   3.092   3.809   0.507  0.5499  1.7894  0.0684
 2352SOL    HW3 9181   2.991   3.884   0.424 -1.1754 -1.4426 -0.9361
 2352SOL    MW4 9182   3.014   3.813   0.468 -0.0019 -0.2976  0.2233
 2353SOL     OW 9183   3.616   1.612   5.313  0.0795 -0.5578 -0.3942
 2353SOL    HW2 9184   3.599   1.574   5.400 -0.0528 -0.8194 -0.5323
 2353SOL    HW3 9185   3.664   1.543   5.266  1.1203 -0.0025 -0.1678
 2353SOL    MW4 9186   3.620   1.598   5.318 -0.4999 -0.2696 -0.1360
 2354SOL     OW 9187   6.401   3.889   0.393 -0.5042  0.5306 -0.2579
 2354SOL    HW2 9188   6.381   3.928   0.478 -0.4826  1.2339 -0.5638
 2354SOL    HW3 9189   6.337   3.928   0.333  0.0906  0.7834 -0.7470
 2354SOL    MW4 9190   6.390   3.899   0.396 -0.3992 -0.5792 -0.5493
 2355SOL     OW 9191   0.417   2.591   2.599 -0.1325 -0.1687 -0.2047
 2355SOL    HW2 9192   0.391   2.651   2.669  0.9788 -2.0077  1.9016
 2355SOL    HW3 9193   0.490   2.541   2.636  0.0949 -1.6718 -2.4731
 2355SOL    MW4 9194   0.423   2.593   2.613  0.1068  0.0746  0.1267
 2356SOL     OW 9195   6.268   2.069   6.159 -0.2585  0.3519  0.2783
 2356SOL    HW2 9196   6.214   2.035   6.230  0.2627  1.7412  1.3866
 2356SOL    HW3 9197   6.217   2.141   6.122  0.8866  1.8755  1.5333
 2356SOL    MW4 9198   6.255   2.074   6.163 -0.0574  0.0607 -0.0905
 2357SOL     OW 9199   5.710   1.282   2.092 -0.5022 -0.2829  0.5638
 2357SOL    HW2 9200   5.686   1.372   2.113 -1.0821 -0.0542 -0.9643
 2357SOL    HW3 9201   5.629   1.232   2.103 -0.3936 -0.4654  0.5475
 2357SOL    MW4 9202   5.697   1.287   2.096 -0.3305  1.0649 -0.0553
 2358SOL     OW 9203   1.660   3.988   3.428  0.6885  0.2429 -1.1233
 2358SOL    HW2 9204   1.693   3.954   3.511  0.6258 -1.1301 -1.6252
 2358SOL    HW3 9205   1.697   4.076   3.421  0.6402  0.4009  0.3752
 2358SOL    MW4 9206   1.670   3.995   3.438  0.3227  0.3238  0.3982
 2359SOL     OW 9207   1.754   4.404   4.347 -0.6655  0.2774  0.1513
 2359SOL    HW2 9208   1.812   4.366   4.414  1.2386  1.9077 -0.4759
 2359SOL    HW3 9209   1.726   4.330   4.294  1.7173 -0.4943 -0.1377
 2359SOL    MW4 9210   1.758   4.390   4.349  0.0121 -0.1925 -0.2954
 2360SOL     OW 9211   1.499   4.687   0.697  0.0502  0.2252 -0.7257
 2360SOL    HW2 9212   1.440   4.615   0.720  1.7191 -0.7538  0.7357
 2360SOL    HW3 9213   1.521   4.727   0.781  0.7269  1.1757 -1.3389
 2360SOL    MW4 9214   1.494   4.683   0.711 -0.3958 -0.6974 -0.0149
 2361SOL     OW 9215   2.332   4.208   0.346  0.2165 -0.1324 -0.3078
 2361SOL    HW2 9216   2.241   4.238   0.342  0.2929 -0.0073 -1.7327
 2361SOL    HW3 9217   2.343   4.176   0.435 -0.8084  1.1336  0.3055
 2361SOL    MW4 9218   2.321   4.208   0.357 -0.1146 -0.3841 -0.4382
 2362SOL     OW 9219   1.981   5.089   2.519 -0.2428  0.2477  0.0955
 2362SOL    HW2 9220   1.958   5.139   2.441 -0.3106  0.2256  0.1017
 2362SOL    HW3 9221   2.076   5.076   2.511 -0.4617 -1.0627 -0.7665
 2362SOL    MW4 9222   1.991   5.094   2.507  0.1641  0.0170  0.5513
 2363SOL     OW 9223   4.291   1.177   5.449 -0.2587  0.2908  0.3079
 2363SOL    HW2 9224   4.332   1.163   5.364 -2.0376 -1.5649 -0.3284
 2363SOL    HW3 9225   4.238   1.257   5.437  2.4309  2.3082  0.9427
 2363SOL    MW4 9226   4.289   1.186   5.436  0.1049  0.0844 -0.1571
 2364SOL     OW 9227   0.956   5.523   6.292 -0.3024 -0.0305 -0.2661
 2364SOL    HW2 9228   0.896   5.595   6.272 -1.0816 -0.6707 -0.2706
 2364SOL    HW3 9229   0.942   5.460   6.222  0.6162 -0.0483 -0.4384
 2364SOL    MW4 9230   0.946   5.524   6.280  0.3660  0.3855 -0.2061
 2365SOL     OW 9231   5.404   0.292   5.306  0.2701  0.1237  0.5453
 2365SOL    HW2 9232   5.384   0.201   5.282 -2.3149  0.5313  0.8401
 2365SOL    HW3 9233   5.384   0.297   5.400  0.6565  0.9380  0.5951
 2365SOL    MW4 9234   5.399   0.280   5.315 -0.5357  0.2742 -0.1194
 2366SOL     OW 9235   2.667   2.565   1.288  0.2238 -0.2165  0.0401
 2366SOL    HW2 9236   2.729   2.637   1.299  0.1691  0.0172 -1.0169
 2366SOL    HW3 9237   2.586   2.596   1.327  0.5892 -0.2692  0.8530
 2366SOL    MW4 9238   2.665   2.579   1.294 -0.1658 -0.2102  0.2597
 2367SOL     OW 9239   5.444   4.858   5.680 -0.2477 -0.0033  0.2920
 2367SOL    HW2 9240   5.428   4.766   5.701 -0.3179 -0.1562 -0.3968
 2367SOL    HW3 9241   5.538   4.863   5.662  0.0707  0.3932  1.8930
 2367SOL    MW4 9242   5.455   4.847   5.680 -0.0570  0.0602 -0.5157
 2368SOL     OW 9243   2.846   0.155   2.836 -0.4170  0.3297  0.3676
 2368SOL    HW2 9244   2.782   0.110   2.781 -1.2238  0.6831  0.9997
 2368SOL    HW3 9245   2.830   0.121   2.924  0.3062  0.3844  0.5244
 2368SOL    MW4 9246   2.836   0.145   2.841  0.2601 -0.0931 -0.4633
 2369SOL     OW 9247   2.993   4.641   1.592 -0.5135  0.0468 -0.3254
 2369SOL    HW2 9248   2.937   4.593   1.653 -0.9219  1.8650  0.8018
 2369SOL    HW3 9249   2.943   4.641   1.510 -0.5395 -1.3306 -0.3386
 2369SOL    MW4 9250   2.979   4.634   1.589 -0.0354 -0.1932 -0.0195
 2370SOL     OW 9251   1.269   5.418   0.988 -0.1635  0.5643 -0.0737
 2370SOL    HW2 9252   1.291   5.370   1.068  0.5409  0.0111 -0.5925
 2370SOL    HW3 9253   1.353   5.441   0.950 -0.4970  1.2331 -0.4303
 2370SOL    MW4 9254   1.283   5.415   0.994 -0.7523 -0.2815  0.1099
 2371SOL     OW 9255   4.099   3.617   0.897  0.5298  0.2270 -0.0301
 2371SOL    HW2 9256   4.097   3.647   0.806  2.0670  0.3419 -0.0556
 2371SOL    HW3 9257   4.189   3.632   0.925  0.2764 -0.5293  1.2790
 2371SOL    MW4 9258   4.111   3.623   0.889 -0.2888 -0.4102  0.0823
 2372SOL     OW 9259   2.088   1.255   3.078 -0.1099 -0.6673  0.1485
 2372SOL    HW2 9260   2.003   1.299   3.082 -0.6062 -1.5149 -0.7679
 2372SOL    HW3 9261   2.148   1.315   3.123 -1.5106 -0.9030  2.4995
 2372SOL    MW4 9262   2.085   1.269   3.085  0.6341  0.3183  0.2140
 2373SOL     OW 9263   6.227   0.315   6.059  0.3381  0.5826 -0.1694
 2373SOL    HW2 9264   6.203   0.399   6.019 -0.7837  0.4432  0.1497
 2373SOL    HW3 9265   6.174   0.312   6.140  1.2037  0.0682  0.3908
 2373SOL    MW4 9266   6.217   0.326   6.065  0.0708 -0.4684  0.0762
 2374SOL     OW 9267   1.498   0.963   0.753  0.2122 -0.1513  0.0919
 2374SOL    HW2 9268   1.448   0.905   0.810  1.7521 -0.0875  1.5663
 2374SOL    HW3 9269   1.565   0.906   0.714  0.2167  0.1608 -0.3659
 2374SOL    MW4 9270   1.500   0.947   0.755 -0.0425  0.5552 -0.2007
 2375SOL     OW 9271   6.231   6.192   0.696 -0.0459  0.5538 -0.0902
 2375SOL    HW2 9272   6.261   6.233   0.777  2.0308  0.1910 -0.6290
 2375SOL    HW3 9273   6.182   6.260   0.651  0.8425  1.5281  0.3811
 2375SOL    MW4 9274   6.228   6.206   0.701 -0.3709 -0.4274 -0.7676
 2376SOL     OW 9275   4.592   2.412   1.871  0.5233 -0.3759 -0.2471
 2376SOL    HW2 9276   4.600   2.336   1.814 -0.1161 -2.7593  2.6173
 2376SOL    HW3 9277   4.523   2.465   1.831 -0.6217 -2.4418 -1.1831
 2376SOL    MW4 9278   4.584   2.409   1.858  0.3262  0.2462  0.3934
 2377SOL     OW 9279   0.937   3.151   1.597  0.4762 -0.1744  0.1325
 2377SOL    HW2 9280   0.960   3.241   1.575 -0.2978  0.3081  1.1829
 2377SOL    HW3 9281   0.844   3.156   1.621  0.7055 -1.0384  1.2709
 2377SOL    MW4 9282   0.928   3.164   1.598 -0.5109  0.3987 -0.3793
 2378SOL     OW 9283   4.558   3.453   1.273  0.2006 -0.3866 -0.4075
 2378SOL    HW2 9284   4.476   3.471   1.319  0.2310  0.9967 -0.8247
 2378SOL    HW3 9285   4.540   3.375   1.221 -0.3817 -0.9409  0.5956
 2378SOL    MW4 9286   4.545   3.445   1.272 -0.3319 -0.5231 -0.2604
 2379SOL     OW 9287   1.427   2.723   2.267 -0.4360 -0.7662 -0.3719
 2379SOL    HW2 9288   1.454   2.762   2.184 -0.3334  0.2564  0.1280
 2379SOL    HW3 9289   1.333   2.710   2.258 -1.1723  2.8090  0.6451
 2379SOL    MW4 9290   1.418   2.726   2.255  0.0078  0.3270  0.4755
 2380SOL     OW 9291   4.182   2.132   5.753 -0.0581  0.3939 -0.7071
 2380SOL    HW2 9292   4.207   2.040   5.749 -0.0699  0.2440  1.4728
 2380SOL    HW3 9293   4.261   2.180   5.727  1.2025 -0.1857  1.7770
 2380SOL    MW4 9294   4.196   2.126   5.749 -0.4525 -0.0000  0.0384
 2381SOL     OW 9295   4.851   0.175   3.039 -0.2241 -0.1859  0.2243
 2381SOL    HW2 9296   4.839   0.114   2.966  0.0207 -0.2690  0.2545
 2381SOL    HW3 9297   4.946   0.181   3.051 -0.2623 -2.5610  2.5600
 2381SOL    MW4 9298   4.862   0.168   3.031 -0.0964 -0.6004 -0.1452
 2382SOL     OW 9299   6.053   6.176   4.322 -0.1680 -0.1249 -0.0167
 2382SOL    HW2 9300   6.100   6.093   4.328  0.6156  0.2850 -0.3931
 2382SOL    HW3 9301   6.110   6.232   4.269 -0.2670  0.9445  0.9734
 2382SOL    MW4 9302   6.067   6.173   4.316 -0.0635 -0.4377 -0.5339
 2383SOL     OW 9303   3.761   3.182   3.591  0.2296  0.3833 -0.6842
 2383SOL    HW2 9304   3.735   3.104   3.641  0.1435  1.4596  1.0210
 2383SOL    HW3 9305   3.777   3.149   3.502  2.0883 -1.9276  0.3943
 2383SOL    MW4 9306   3.759   3.167   3.586 -0.7161  0.0600 -0.7061
 2384SOL     OW 9307   3.677   2.450   0.344  0.0121 -0.4715  0.3431
 2384SOL    HW2 9308   3.733   2.527   0.332 -1.0433  0.3881  0.7563
 2384SOL    HW3 9309   3.710   2.409   0.424  0.9106 -0.7703 -0.1572
 2384SOL    MW4 9310   3.689   2.455   0.353 -0.0057  0.6344  0.4150
 2385SOL     OW 9311   5.871   0.520   5.202 -0.1711  0.1944  0.4855
 2385SOL    HW2 9312   5.923   0.497   5.125 -0.5856  1.3922 -0.1898
 2385SOL    HW3 9313   5.793   0.465   5.195 -0.5956  0.8722 -0.4425
 2385SOL    MW4 9314   5.867   0.510   5.191 -0.7231 -0.0774  0.7315
 2386SOL     OW 9315   4.274   0.600   5.021  0.4287  0.5939  0.0522
 2386SOL    HW2 9316   4.318   0.590   4.937  0.9336  0.3500  0.3419
 2386SOL    HW3 9317   4.320   0.540   5.080 -0.5904 -0.0287  0.2506
 2386SOL    MW4 9318   4.286   0.591   5.018 -0.1885 -0.2316  0.1240
 2387SOL     OW 9319   2.790   0.314   1.841 -0.3704 -0.0350 -0.3535
 2387SOL    HW2 9320   2.874   0.278   1.813 -0.4180 -0.7254  0.3392
 2387SOL    HW3 9321   2.759   0.251   1.906 -1.9925 -0.4543 -1.4674
 2387SOL    MW4 9322   2.797   0.301   1.846 -0.0603 -0.0502 -0.4183
 2388SOL     OW 9323   3.910   2.297   3.626 -0.1949  0.5867  0.7179
 2388SOL    HW2 9324   3.925   2.390   3.610 -1.3254  0.6797  0.1471
 2388SOL    HW3 9325   3.841   2.273   3.565  1.9236 -1.2718 -1.1674
 2388SOL    MW4 9326   3.903   2.306   3.616 -0.2214  0.1114 -0.1969
 2389SOL     OW 9327   6.391   0.829   4.620  0.2976  0.4649  0.3634
 2389SOL    HW2 9328   6.407   0.778   4.699 -3.6549 -0.9265  0.4839
 2389SOL    HW3 9329   6.390   0.920   4.650 -1.0691 -0.0355  1.9859
 2389SOL    MW4 9330   6.393   0.834   4.634 -0.1539 -0.8657 -0.8964
 2390SOL     OW 9331   4.713   4.118   0.907 -0.5021 -0.4585  0.6040
 2390SOL    HW2 9332   4.738   4.137   0.997  1.8572 -0.8980  0.1031
 2390SOL    HW3 9333   4.796   4.101   0.862 -1.7922 -3.6006 -0.8742
 2390SOL    MW4 9334   4.727   4.118   0.913  0.0849  0.2544  0.5521
 2391SOL     OW 9335   3.370   3.282   0.090  0.5892  0.2087 -0.6807
 2391SOL    HW2 9336   3.313   3.226   0.038 -0.0921 -1.1237  1.3631
 2391SOL    HW3 9337   3.384   3.360   0.036 -2.8168  0.3988 -1.4843
 2391SOL    MW4 9338   3.364   3.285   0.076  0.3742 -0.1524 -0.3120
 2392SOL     OW 9339   5.029   5.955   2.607  0.7598 -0.4595  0.3637
 2392SOL    HW2 9340   4.935   5.963   2.592  0.4632 -2.9802  0.4157
 2392SOL    HW3 9341   5.070   6.003   2.535 -0.5812 -0.2848 -0.2975
 2392SOL    MW4 9342   5.022   5.962   2.596 -0.0483 -0.3542  0.1140
 2393SOL     OW 9343   0.389   1.860   0.036 -0.1847  0.1983  0.3823
 2393SOL    HW2 9344   0.359   1.903   0.117 -1.1551  1.4044 -0.5822
 2393SOL    HW3 9345   0.378   1.927  -0.032 -1.6748 -1.5575 -1.1869
 2393SOL    MW4 9346   0.384   1.875   0.038 -0.2157  0.4518 -0.2772
 2394SOL     OW 9347   5.352   2.273   0.894 -0.1037  0.6408  0.5380
 2394SOL    HW2 9348   5.407   2.352   0.893 -1.8830  1.9584  1.0890
 2394SOL    HW3 9349   5.298   2.281   0.815 -1.1010  0.6143  1.1940
 2394SOL    MW4 9350   5.352   2.285   0.884 -0.0755  0.1428 -0.0579
 2395SOL     OW 9351   4.253   3.696   1.717  0.0464  0.1128  0.3111
 2395SOL    HW2 9352   4.188   3.750   1.762 -1.8705 -1.4143 -0.5122
 2395SOL    HW3 9353   4.289   3.754   1.649 -0.7528  0.8567  0.5080
 2395SOL    MW4 9354   4.249   3.711   1.714  0.5734  0.1936 -0.0771
 2396SOL     OW 9355   2.321   4.956   3.052  0.1155  0.1578  0.7526
 2396SOL    HW2 9356   2.298   4.864   3.048  1.1409 -0.0683 -0.6796
 2396SOL    HW3 9357   2.268   4.997   2.983  1.8215  0.0929 -0.6677
 2396SOL    MW4 9358   2.311   4.950   3.042 -0.0456  0.0292 -0.8785
 2397SOL     OW 9359   2.396   2.937   0.962  0.0983 -0.1979  0.0782
 2397SOL    HW2 9360   2.478   2.943   0.914 -1.6087 -0.9845 -3.2447
 2397SOL    HW3 9361   2.403   2.854   1.010  1.1794 -0.3080 -0.2432
 2397SOL    MW4 9362   2.408   2.927   0.962 -0.1623 -0.1213  0.0343
 2398SOL     OW 9363   0.827   0.178   6.375 -0.2203  0.2135  0.0635
 2398SOL    HW2 9364   0.867   0.091   6.368 -0.6483  0.0291 -0.1527
 2398SOL    HW3 9365   0.894   0.238   6.344  0.2267 -0.0007  0.6110
 2398SOL    MW4 9366   0.841   0.175   6.370  0.2415  1.1809  0.6901
 2399SOL     OW 9367   0.511   5.644   0.249  0.3290 -0.8118  0.4947
 2399SOL    HW2 9368   0.418   5.620   0.250 -0.5890  2.1205 -0.7002
 2399SOL    HW3 9369   0.552   5.584   0.187 -1.4097 -0.4779 -1.0717
 2399SOL    MW4 9370   0.504   5.633   0.241  0.2969  0.1147 -0.5092
 2400SOL     OW 9371   1.993   0.428   3.817  0.4637  0.1848  0.2314
 2400SOL    HW2 9372   2.054   0.496   3.847  2.4304 -0.5706 -1.8575
 2400SOL    HW3 9373   2.045   0.348   3.812 -1.1606 -0.9235  0.0898
 2400SOL    MW4 9374   2.008   0.427   3.821 -0.0393  0.7426 -0.3612
 2401SOL     OW 9375   3.294   1.887   2.715 -0.4781  0.0930 -0.3285
 2401SOL    HW2 9376   3.327   1.976   2.712  1.9967 -0.6834  1.3066
 2401SOL    HW3 9377   3.283   1.868   2.808 -1.2646 -1.2336 -0.6593
 2401SOL    MW4 9378   3.297   1.896   2.727  0.1082  0.0612 -0.3245
 2402SOL     OW 9379   4.652   2.159   3.040  0.2010  0.7510 -0.3016
 2402SOL    HW2 9380   4.562   2.129   3.048  0.3624  0.0936 -0.9316
 2402SOL    HW3 9381   4.645   2.255   3.036 -0.3080  0.8382  1.7597
 2402SOL    MW4 9382   4.639   2.168   3.041  0.2748 -0.0667  0.2792
 2403SOL     OW 9383   4.324   3.067   2.476 -0.5941 -0.7959  0.1417
 2403SOL    HW2 9384   4.282   2.984   2.452 -1.2383 -0.4479  0.0509
 2403SOL    HW3 9385   4.358   3.102   2.394 -0.1293 -1.0709  0.2130
 2403SOL    MW4 9386   4.323   3.061   2.462  0.5556 -0.0298  0.0940
 2404SOL     OW 9387   5.241   4.532   4.301 -0.3831 -0.3580 -0.5312
 2404SOL    HW2 9388   5.326   4.570   4.279 -0.7849  0.6319 -0.4316
 2404SOL    HW3 9389   5.185   4.608   4.320 -1.5453 -0.9280 -1.5247
 2404SOL    MW4 9390   5.245   4.547   4.300 -0.4157 -0.0989  0.1736
 2405SOL     OW 9391   0.632   0.785   1.835  0.5312 -0.0393  0.4709
 2405SOL    HW2 9392   0.633   0.707   1.891  0.8549  0.5395  1.2961
 2405SOL    HW3 9393   0.692   0.846   1.879 -0.6468  1.1286  0.5186
 2405SOL    MW4 9394   0.640   0.782   1.849  0.3532  0.7532 -0.0590
 2406SOL     OW 9395   4.985   2.022   1.993  0.2256 -0.1225 -0.3419
 2406SOL    HW2 9396   5.060   2.058   2.040  0.1564  1.5664 -1.4482
 2406SOL    HW3 9397   4.910   2.070   2.028 -0.3089 -1.4761  0.4258
 2406SOL    MW4 9398   4.985   2.033   2.004  0.2308  0.3542 -0.6563
 2407SOL     OW 9399   2.788   2.277   3.590 -0.5537  0.8859 -0.8061
 2407SOL    HW2 9400   2.799   2.296   3.497 -0.8318  1.0362 -0.8089
 2407SOL    HW3 9401   2.693   2.277   3.603 -0.4970  1.5675 -0.3738
 2407SOL    MW4 9402   2.777   2.280   3.580 -0.4419  0.8246 -0.3155
 2408SOL     OW 9403   5.378   5.571   2.526 -0.0622  0.0596  0.1552
 2408SOL    HW2 9404   5.320   5.574   2.602  0.2682 -0.8352  0.4574
 2408SOL    HW3 9405   5.325   5.606   2.454  0.2932  2.9147  1.1573
 2408SOL    MW4 9406   5.363   5.576   2.526  0.0957  0.3118  0.7339
 2409SOL     OW 9407   4.489   3.520   0.781 -0.0754  0.3649 -0.2476
 2409SOL    HW2 9408   4.543   3.515   0.702  0.0000 -1.3269 -0.1287
 2409SOL    HW3 9409   4.401   3.499   0.752 -0.3558  1.3507 -0.1384
 2409SOL    MW4 9410   4.485   3.517   0.767 -0.0131 -0.2696  0.2080
 2410SOL     OW 9411   5.161   5.012   2.402 -0.4462 -0.5214 -0.3007
 2410SOL    HW2 9412   5.073   5.049   2.403  0.2823  1.3361 -1.0262
 2410SOL    HW3 9413   5.179   4.993   2.310  1.3470  2.9776 -0.8466
 2410SOL    MW4 9414   5.152   5.014   2.390  0.0293  0.1556  0.1027
 2411SOL     OW 9415   3.673   1.238   6.156  0.0479  0.5481 -0.0399
 2411SOL    HW2 9416   3.673   1.165   6.218  0.0176  0.9878  0.4818
 2411SOL    HW3 9417   3.666   1.196   6.070 -1.1244 -0.0160  0.3100
 2411SOL    MW4 9418   3.672   1.223   6.153 -0.0343 -0.2322 -0.0393
 2412SOL     OW 9419   3.827   4.042   1.449  0.4987 -0.0985 -0.1123
 2412SOL    HW2 9420   3.748   4.059   1.398  0.1619 -0.8768  0.1396
 2412SOL    HW3 9421   3.899   4.051   1.387  0.2817  1.3452 -0.1850
 2412SOL    MW4 9422   3.826   4.045   1.434  0.3493 -0.0833 -0.0966
 2413SOL     OW 9423   3.516   0.481   6.346 -0.1403  0.1690 -0.1774
 2413SOL    HW2 9424   3.533   0.395   6.384 -1.6608  0.1957  0.6104
 2413SOL    HW3 9425   3.597   0.502   6.299  1.7249 -0.0488  2.6770
 2413SOL    MW4 9426   3.529   0.473   6.345 -0.1041 -1.1002 -0.2216
 2414SOL     OW 9427   5.825   4.740   1.900  0.6746 -0.1780  0.1158
 2414SOL    HW2 9428   5.900   4.800   1.907 -0.9856  2.1027 -0.4759
 2414SOL    HW3 9429   5.788   4.738   1.989  0.5443 -0.0537  0.0651
 2414SOL    MW4 9430   5.830   4.747   1.913 -0.0029  0.2865 -0.1142
 2415SOL     OW 9431   0.154   1.389   4.875 -0.5408  0.6162 -0.3955
 2415SOL    HW2 9432   0.104   1.308   4.864 -1.0654  0.8524  0.1581
 2415SOL    HW3 9433   0.229   1.380   4.817 -0.6752 -0.2057 -0.4455
 2415SOL    MW4 9434   0.157   1.377   4.866  0.2459  0.5991  0.2834
 2416SOL     OW 9435   1.060   4.870   0.524  0.2479 -0.4383  0.3271
 2416SOL    HW2 9436   1.045   4.832   0.437 -0.3224  2.1282 -0.7937
 2416SOL    HW3 9437   1.149   4.906   0.518 -0.0247  0.2763  0.5933
 2416SOL    MW4 9438   1.070   4.870   0.511 -0.2856 -0.1316 -0.6059
 2417SOL     OW 9439   1.417   0.196   0.285  0.7461 -0.7085 -0.3174
 2417SOL    HW2 9440   1.418   0.143   0.365  1.0106  1.5592  1.2957
 2417SOL    HW3 9441   1.509   0.204   0.260  0.5559 -2.9882 -2.0670
 2417SOL    MW4 9442   1.430   0.190   0.292 -0.0079 -0.0737 -0.2889
 2418SOL     OW 9443   5.609   3.999   3.054  0.3107 -0.2857  0.1187
 2418SOL    HW2 9444   5.595   3.910   3.086 -0.8121 -0.1785 -0.0338
 2418SOL    HW3 9445   5.674   3.990   2.985  0.1155 -1.0105  0.0203
 2418SOL    MW4 9446   5.616   3.986   3.049  0.1437  0.0740 -0.0039
 2419SOL     OW 9447   4.660   3.629   4.372 -0.2789 -0.2521 -0.2834
 2419SOL    HW2 9448   4.715   3.569   4.422 -0.0217 -0.7340 -1.1218
 2419SOL    HW3 9449   4.701   3.632   4.285 -0.1649  1.3002 -0.2066
 2419SOL    MW4 9450   4.673   3.622   4.367 -0.1457 -0.6634 -0.6110
 2420SOL     OW 9451   0.398   1.784   4.402 -0.6365  0.0513  0.0583
 2420SOL    HW2 9452   0.465   1.850   4.383  0.4457 -1.1755 -0.5015
 2420SOL    HW3 9453   0.329   1.801   4.338  0.1839 -0.1108 -0.8994
 2420SOL    MW4 9454   0.398   1.795   4.391  0.6646  0.0827  0.2669
 2421SOL     OW 9455   2.331   5.290   1.035  0.0124  0.2921  0.6103
 2421SOL    HW2 9456   2.252   5.294   1.088 -0.7031 -1.5764 -0.2064
 2421SOL    HW3 9457   2.350   5.381   1.013 -3.3527  0.7235 -1.1905
 2421SOL    MW4 9458   2.323   5.303   1.039  0.2891  0.1729 -0.6572
 2422SOL     OW 9459   4.171   0.978   5.204  0.7389 -0.2839 -0.5932
 2422SOL    HW2 9460   4.263   1.001   5.195  0.8348 -0.2940  0.2583
 2422SOL    HW3 9461   4.128   1.061   5.227  0.7694 -0.5512  0.4658
 2422SOL    MW4 9462   4.177   0.992   5.206  0.5216 -0.0305  0.1653
 2423SOL     OW 9463   0.331   6.369   3.281 -0.3582 -0.3043 -0.1949
 2423SOL    HW2 9464   0.311   6.460   3.302  0.9585  0.1031 -0.5731
 2423SOL    HW3 9465   0.259   6.319   3.319 -0.9638  0.8682  0.2591
 2423SOL    MW4 9466   0.319   6.375   3.289 -0.3496 -0.0161 -0.5488
 2424SOL     OW 9467   1.759   4.706   6.320 -0.2521  0.0773  0.2776
 2424SOL    HW2 9468   1.696   4.778   6.320 -0.0750  0.2410  1.4583
 2424SOL    HW3 9469   1.833   4.739   6.369  0.7458 -0.1525 -1.0166
 2424SOL    MW4 9470   1.760   4.720   6.326  0.4300  0.4192  0.4356
 2425SOL     OW 9471   2.156   0.062   5.398  0.0714 -0.1512  0.0598
 2425SOL    HW2 9472   2.088  -0.003   5.414  0.3086 -0.8318 -1.5140
 2425SOL    HW3 9473   2.238   0.016   5.414  0.2597 -0.4220 -1.5597
 2425SOL    MW4 9474   2.158   0.048   5.402  0.0771 -0.3751 -0.4741
 2426SOL     OW 9475   4.439   2.535   5.124  0.0556 -0.2914 -0.1293
 2426SOL    HW2 9476   4.497   2.589   5.071  0.0211 -0.4529 -0.3335
 2426SOL    HW3 9477   4.497   2.477   5.173  0.1106  0.1731  0.3598
 2426SOL    MW4 9478   4.454   2.534   5.124 -0.7105 -0.2360  0.2189
 2427SOL     OW 9479   2.200   4.822   4.070  0.8989  0.2315 -0.6390
 2427SOL    HW2 9480   2.234   4.763   4.003  0.8733  0.0517 -0.4929
 2427SOL    HW3 9481   2.212   4.909   4.033 -0.1887  0.0804 -1.3691
 2427SOL    MW4 9482   2.206   4.826   4.057  0.1897 -0.4507 -0.2100
 2428SOL     OW 9483   3.048   3.891   3.791 -0.0674  0.5812 -0.0230
 2428SOL    HW2 9484   3.117   3.833   3.824 -0.6021 -0.3290 -0.4688
 2428SOL    HW3 9485   3.017   3.848   3.711 -0.8600  1.1981 -0.0513
 2428SOL    MW4 9486   3.053   3.877   3.785 -0.4073 -0.6627 -0.2916
 2429SOL     OW 9487   5.690   5.181   2.865  0.0234  0.0172 -0.0333
 2429SOL    HW2 9488   5.603   5.142   2.859  0.5408 -1.0288 -1.2747
 2429SOL    HW3 9489   5.675   5.267   2.904 -1.2252 -1.1298  2.1725
 2429SOL    MW4 9490   5.677   5.188   2.869 -0.1736 -0.2471  0.1208
 2430SOL     OW 9491   5.752   3.414   0.714  0.4697 -0.1772  0.0006
 2430SOL    HW2 9492   5.754   3.436   0.807 -1.3194  0.2832 -0.0392
 2430SOL    HW3 9493   5.690   3.342   0.707 -2.0562  1.9157 -1.1630
 2430SOL    MW4 9494   5.744   3.408   0.725  0.2681  0.5970  0.2178
 2431SOL     OW 9495   2.455   4.662   2.324 -0.2536 -0.6628  0.3469
 2431SOL    HW2 9496   2.390   4.681   2.257  0.2546  0.2049  0.0875
 2431SOL    HW3 9497   2.434   4.723   2.395  0.0026 -0.6943  0.4484
 2431SOL    MW4 9498   2.443   4.672   2.325 -0.6652  0.3564 -0.0410
 2432SOL     OW 9499   3.958   0.331   4.389 -0.1885  0.1376 -0.0897
 2432SOL    HW2 9500   3.981   0.323   4.481 -0.7637  1.1875  0.1553
 2432SOL    HW3 9501   3.896   0.260   4.373  0.2139 -0.2859  0.2287
 2432SOL    MW4 9502   3.953   0.321   4.399 -0.4520 -0.3579 -0.0733
 2433SOL     OW 9503   2.812   4.656   1.367 -0.2150  0.4606 -0.0252
 2433SOL    HW2 9504   2.832   4.609   1.286 -0.4550  2.5940 -1.4089
 2433SOL    HW3 9505   2.759   4.595   1.418  0.0856 -1.0044 -1.4047
 2433SOL    MW4 9506   2.808   4.642   1.363  0.3323  0.7857 -0.5592
 2434SOL     OW 9507   4.526   0.552   1.631 -0.0165 -0.0642 -0.3435
 2434SOL    HW2 9508   4.436   0.586   1.639  0.8472  2.0114  1.5926
 2434SOL    HW3 9509   4.578   0.608   1.688  2.2621 -2.3098 -0.0242
 2434SOL    MW4 9510   4.521   0.564   1.640 -0.1898  0.2006  0.4809
 2435SOL     OW 9511   0.613   2.826   6.425 -0.1877 -0.0315 -0.1732
 2435SOL    HW2 9512   0.575   2.756   6.478  0.0009  0.3682  0.4970
 2435SOL    HW3 9513   0.697   2.791   6.396  0.6347  0.4874  1.4773
 2435SOL    MW4 9514   0.619   2.812   6.428  0.8156  0.3312  0.2058
 2436SOL     OW 9515   0.282   4.897   1.164 -0.0375  0.1496  0.0011
 2436SOL    HW2 9516   0.205   4.840   1.166 -0.8334  1.1107 -1.3669
 2436SOL    HW3 9517   0.247   4.985   1.175  1.3246  0.3941  3.9483
 2436SOL    MW4 9518   0.267   4.901   1.166  0.1877  0.2502 -0.5935
 2437SOL     OW 9519   5.389   1.696   2.069  0.4945 -0.3237  0.0778
 2437SOL    HW2 9520   5.459   1.702   2.133  0.0396  1.6980  0.4587
 2437SOL    HW3 9521   5.431   1.717   1.985  0.3949  0.9188  0.3093
 2437SOL    MW4 9522   5.404   1.700   2.066  0.0526  0.4192 -0.5590
 2438SOL     OW 9523   1.329   2.895   3.804 -0.3630 -0.4613 -0.4851
 2438SOL    HW2 9524   1.240   2.905   3.837 -0.1148 -0.6689  0.2654
 2438SOL    HW3 9525   1.337   2.961   3.735 -2.4810 -3.1510 -3.6098
 2438SOL    MW4 9526   1.318   2.905   3.800 -0.4365  0.3814  0.2580
 2439SOL     OW 9527   1.171   5.399   5.468  0.1538  0.4072  0.4067
 2439SOL    HW2 9528   1.127   5.314   5.475  0.5144  0.2083  0.3025
 2439SOL    HW3 9529   1.250   5.381   5.417  0.3796  0.7477  0.6304
 2439SOL    MW4 9530   1.175   5.385   5.462  0.1997 -0.3055  0.2464
 2440SOL     OW 9531   0.574   0.891   5.906  0.4473 -0.5388  0.0838
 2440SOL    HW2 9532   0.559   0.872   5.999  1.4013  0.6323  0.5076
 2440SOL    HW3 9533   0.544   0.981   5.895  1.7095 -0.1525 -0.3705
 2440SOL    MW4 9534   0.568   0.900   5.917  0.4936  0.2348  0.3509
 2441SOL     OW 9535   1.125   4.394   2.134 -0.7739  0.1496 -0.3426
 2441SOL    HW2 9536   1.149   4.328   2.069  0.9080 -0.1202  0.5115
 2441SOL    HW3 9537   1.118   4.345   2.216 -1.6873  0.6920 -0.0753
 2441SOL    MW4 9538   1.127   4.379   2.136 -0.0770 -0.1867  0.7323
 2442SOL     OW 9539   2.586   0.911   4.895  1.1071  0.3787  0.0191
 2442SOL    HW2 9540   2.660   0.905   4.834  0.9085  0.2313 -0.2030
 2442SOL    HW3 9541   2.569   0.821   4.921 -0.2309  0.1829 -1.3959
 2442SOL    MW4 9542   2.594   0.899   4.890 -0.7274  0.6788  0.2582
 2443SOL     OW 9543   1.805   2.784   2.107  0.1202  0.1811  0.3116
 2443SOL    HW2 9544   1.833   2.866   2.066  3.1825 -0.6951  0.4218
 2443SOL    HW3 9545   1.787   2.726   2.033  2.6376 -0.4372  0.0856
 2443SOL    MW4 9546   1.807   2.787   2.092  0.2560 -0.4149 -0.0621
 2444SOL     OW 9547   4.657   5.020   1.161  0.0598 -0.1105  0.4701
 2444SOL    HW2 9548   4.681   5.049   1.249  0.7113 -0.1526  0.3146
 2444SOL    HW3 9549   4.731   4.964   1.134 -0.7795 -1.2439  0.4427
 2444SOL    MW4 9550   4.670   5.016   1.169  0.0062 -0.6644  0.0254
 2445SOL     OW 9551   1.891   5.221   2.279  0.1418 -0.2170  0.2106
 2445SOL    HW2 9552   1.806   5.252   2.247 -1.8145 -0.6579  4.2280
 2445SOL    HW3 9553   1.947   5.298   2.277 -0.9152  0.5779 -0.8163
 2445SOL    MW4 9554   1.887   5.235   2.275  0.3076  0.3489  0.0391
 2446SOL     OW 9555   2.886   1.044   2.883 -0.8239 -0.6596  0.0610
 2446SOL    HW2 9556   2.955   0.998   2.931 -0.0474  0.8653  0.4496
 2446SOL    HW3 9557   2.807   1.030   2.936  0.0574  1.2033  2.0102
 2446SOL    MW4 9558   2.884   1.036   2.897  0.0349  0.1618  0.2952
 2447SOL     OW 9559   2.716   0.739   4.059  0.2417  0.1625 -0.2242
 2447SOL    HW2 9560   2.713   0.688   4.141 -0.0792  0.0436 -0.3097
 2447SOL    HW3 9561   2.801   0.716   4.020  0.7901  0.8759  0.4942
 2447SOL    MW4 9562   2.727   0.729   4.065 -0.1557 -0.9117 -0.0819
 2448SOL     OW 9563   5.522   0.437   5.702  0.5079 -0.6939 -0.8558
 2448SOL    HW2 9564   5.582   0.400   5.767  0.9769  0.3668 -0.6649
 2448SOL    HW3 9565   5.464   0.365   5.679 -0.1639 -0.9092  1.3012
 2448SOL    MW4 9566   5.522   0.423   5.708  0.1488  0.1844  0.1347
 2449SOL     OW 9567   0.250   0.076   5.244 -0.3851  0.3009  0.4087
 2449SOL    HW2 9568   0.272  -0.000   5.296  0.2069  0.7372  0.8102
 2449SOL    HW3 9569   0.189   0.044   5.178 -0.5585 -0.4052  0.9063
 2449SOL    MW4 9570   0.245   0.062   5.242 -0.3723  0.3712  0.4134
 2450SOL     OW 9571   2.276   1.634   2.262 -0.3485  0.3322  0.4052
 2450SOL    HW2 9572   2.309   1.652   2.174 -0.1554  1.6682  0.7352
 2450SOL    HW3 9573   2.282   1.718   2.307  1.0460 -0.6748  2.1851
 2450SOL    MW4 9574   2.281   1.647   2.256  0.6938  0.2247  0.0090
 2451SOL     OW 9575   1.399   2.783   5.272 -0.0911 -0.3571 -0.6045
 2451SOL    HW2 9576   1.359   2.704   5.234  0.4846 -0.7464 -0.4234
 2451SOL    HW3 9577   1.355   2.856   5.228 -0.7746 -0.7733 -0.6336
 2451SOL    MW4 9578   1.388   2.782   5.261  0.4331 -0.0137 -0.2390
 2452SOL     OW 9579   0.588   2.408   3.530 -0.1431 -0.1370  0.3461
 2452SOL    HW2 9580   0.539   2.479   3.573 -0.4653 -0.5538  0.6694
 2452SOL    HW3 9581   0.563   2.329   3.578  0.6130 -0.3985  0.3132
 2452SOL    MW4 9582   0.578   2.407   3.542  0.4189  0.6838  0.4558
 2453SOL     OW 9583   3.254   3.770   3.003 -0.3914 -0.2140 -0.2312
 2453SOL    HW2 9584   3.274   3.860   2.976 -0.5291  0.0594  0.5470
 2453SOL    HW3 9585   3.269   3.718   2.924 -0.2759  0.4842 -0.6863
 2453SOL    MW4 9586   3.259   3.775   2.989  0.5792 -0.2176 -0.5272
 2454SOL     OW 9587   2.481   3.153   3.810  0.0431  0.2869  0.0505
 2454SOL    HW2 9588   2.393   3.116   3.816 -0.3894  1.3956  1.2106
 2454SOL    HW3 9589   2.532   3.087   3.763 -1.5262 -0.1358 -1.1392
 2454SOL    MW4 9590   2.476   3.139   3.805 -0.0305 -0.2138 -0.5692
 2455SOL     OW 9591   3.482   4.748   0.327  0.9929  0.4053 -0.0828
 2455SOL    HW2 9592   3.571   4.756   0.361 -0.1638 -0.3077  3.5254
 2455SOL    HW3 9593   3.434   4.702   0.396 -2.1232  0.4452 -2.0390
 2455SOL    MW4 9594   3.488   4.743   0.341 -0.5412  0.0819 -0.3439
 2456SOL     OW 9595   3.578   4.244   1.721  0.4280 -0.1539 -0.5525
 2456SOL    HW2 9596   3.672   4.228   1.734  0.1049 -1.4779  0.3371
 2456SOL    HW3 9597   3.535   4.176   1.772 -1.0514  1.1148 -0.0276
 2456SOL    MW4 9598   3.585   4.233   1.729  0.1976 -0.0361  0.2943
 2457SOL     OW 9599   5.134   3.657   5.028  0.4074 -0.0348 -0.0452
 2457SOL    HW2 9600   5.193   3.664   4.953  0.0253  0.6727 -0.2844
 2457SOL    HW3 9601   5.157   3.730   5.085 -1.8514  1.8054 -1.3197
 2457SOL    MW4 9602   5.145   3.667   5.026 -0.2285  0.0660 -0.3361
 2458SOL     OW 9603   5.365   4.225   0.808 -0.3113  0.1760  0.0285
 2458SOL    HW2 9604   5.299   4.163   0.840 -0.8707  0.9527  0.3891
 2458SOL    HW3 9605   5.334   4.251   0.721 -0.8321  1.0379  0.4629
 2458SOL    MW4 9606   5.352   4.220   0.801  0.2309  0.3523 -0.5274
 2459SOL     OW 9607   2.571   4.368   1.151 -0.1530  0.4157  0.6511
 2459SOL    HW2 9608   2.623   4.405   1.222  0.2996  0.4756  0.2933
 2459SOL    HW3 9609   2.596   4.419   1.074 -2.1953  1.8240  0.8089
 2459SOL    MW4 9610   2.581   4.380   1.150 -0.1765  0.0223 -0.3700
 2460SOL     OW 9611   2.780   3.868   1.816 -0.3049  0.4825  0.4299
 2460SOL    HW2 9612   2.702   3.856   1.870 -0.3802  0.4286  0.3108
 2460SOL    HW3 9613   2.759   3.823   1.734  0.6127 -1.3185  1.1269
 2460SOL    MW4 9614   2.767   3.860   1.812  0.7358  0.0278  0.6222
 2461SOL     OW 9615   5.388   1.866   1.601 -0.1253 -0.5432  0.0219
 2461SOL    HW2 9616   5.330   1.920   1.655  0.5125 -0.2433  0.4243
 2461SOL    HW3 9617   5.337   1.846   1.523 -1.0728 -0.9776  0.7297
 2461SOL    MW4 9618   5.373   1.870   1.598  0.0154  0.0868 -0.5262
 2462SOL     OW 9619   2.680   5.462   2.544  0.2912  0.4594  0.4487
 2462SOL    HW2 9620   2.675   5.555   2.570  1.3528  0.4625  0.6972
 2462SOL    HW3 9621   2.589   5.432   2.545 -0.1858  1.7634 -0.6415
 2462SOL    MW4 9622   2.667   5.471   2.548 -0.1257 -0.6918 -0.0744
 2463SOL     OW 9623   3.786   0.338   0.073 -0.5322 -0.1980  0.3769
 2463SOL    HW2 9624   3.865   0.342   0.021 -0.2261  1.0236  0.9093
 2463SOL    HW3 9625   3.735   0.267   0.034  0.1762 -0.0450 -0.8600
 2463SOL    MW4 9626   3.789   0.329   0.061 -0.2414 -0.1532  0.2853
 2464SOL     OW 9627   3.093   5.694   0.903  0.4326 -0.3426 -0.4658
 2464SOL    HW2 9628   3.029   5.704   0.832  1.3373 -0.1342 -1.2807
 2464SOL    HW3 9629   3.176   5.725   0.865  0.6909  1.0049  1.1107
 2464SOL    MW4 9630   3.096   5.699   0.889 -0.1709  0.0912 -0.0764
 2465SOL     OW 9631   4.545   1.103   3.847  0.0505  0.3103 -0.2140
 2465SOL    HW2 9632   4.571   1.127   3.758  1.3788  1.3810  0.4299
 2465SOL    HW3 9633   4.553   1.184   3.897 -0.7353 -0.2635  0.8884
 2465SOL    MW4 9634   4.549   1.117   3.842 -0.5372  0.2269  0.1999
 2466SOL     OW 9635   4.842   3.177   4.652  0.2125 -0.3807 -0.2204
 2466SOL    HW2 9636   4.778   3.239   4.617 -1.3653 -2.6930 -1.7471
 2466SOL    HW3 9637   4.798   3.135   4.725 -0.4893 -2.5908 -1.7982
 2466SOL    MW4 9638   4.828   3.179   4.657 -0.2338 -0.2953  0.0578
 2467SOL     OW 9639   6.317   6.060   5.948  0.1831 -0.3541 -0.1633
 2467SOL    HW2 9640   6.393   6.056   5.890 -0.9033  1.5816 -1.8379
 2467SOL    HW3 9641   6.248   6.099   5.895 -2.2023 -2.5020  1.1175
 2467SOL    MW4 9642   6.318   6.064   5.934 -0.0200 -0.1352  0.3763
 2468SOL     OW 9643   2.074   3.006   5.591  0.3044 -0.3383 -0.3540
 2468SOL    HW2 9644   2.025   3.054   5.525 -1.3721  0.9640  1.6882
 2468SOL    HW3 9645   2.032   2.920   5.594  0.2599 -0.3346 -0.8390
 2468SOL    MW4 9646   2.062   3.001   5.583  0.7027  0.2504  0.2196
 2469SOL     OW 9647   2.076   2.671   2.485  0.6681  0.9303  0.1943
 2469SOL    HW2 9648   2.053   2.581   2.505  0.8060  0.3262 -2.0892
 2469SOL    HW3 9649   2.000   2.705   2.437  1.7579  1.0686 -1.5087
 2469SOL    MW4 9650   2.063   2.664   2.481  0.6290  0.2754  0.1298
 2470SOL     OW 9651   3.691   2.747   1.285 -0.0947  0.6313 -0.4933
 2470SOL    HW2 9652   3.676   2.702   1.368 -0.6633 -2.2305 -2.0098
 2470SOL    HW3 9653   3.762   2.808   1.303 -0.9926  0.9774  2.3363
 2470SOL    MW4 9654   3.698   2.749   1.298  0.0163  0.1336 -0.5519
 2471SOL     OW 9655   5.199   2.132   5.253 -0.3391  0.6811 -0.1346
 2471SOL    HW2 9656   5.272   2.071   5.252 -0.1831  0.8025  1.1670
 2471SOL    HW3 9657   5.184   2.155   5.162  0.8107  0.1403 -0.4721
 2471SOL    MW4 9658   5.206   2.127   5.241  0.0477 -0.0722 -0.1165
 2472SOL     OW 9659   0.268   2.897   5.613 -0.1370 -0.2065  0.2955
 2472SOL    HW2 9660   0.232   2.967   5.668  0.2807 -0.0760  0.4116
 2472SOL    HW3 9661   0.361   2.893   5.638 -0.1942 -0.9204  0.4175
 2472SOL    MW4 9662   0.276   2.906   5.624  0.1384 -0.0294  0.1764
 2473SOL     OW 9663   4.826   1.590   0.028  0.1543  0.1959 -0.1889
 2473SOL    HW2 9664   4.791   1.634   0.105 -0.1544 -0.5229  0.0837
 2473SOL    HW3 9665   4.749   1.564  -0.023  0.3072 -0.5967 -0.0306
 2473SOL    MW4 9666   4.811   1.593   0.031 -0.5082 -0.2124  0.1984
 2474SOL     OW 9667   4.915   5.442   1.690 -0.6253 -0.3332  0.0498
 2474SOL    HW2 9668   4.878   5.402   1.769  0.2719  0.3844  0.8511
 2474SOL    HW3 9669   4.982   5.502   1.722 -0.5563  0.3190 -1.2392
 2474SOL    MW4 9670   4.919   5.445   1.705  0.4189  0.1533  0.0948
 2475SOL     OW 9671   0.923   2.900   0.347  0.0965  0.0691  0.1459
 2475SOL    HW2 9672   0.844   2.882   0.297  0.5248 -0.0424 -0.5038
 2475SOL    HW3 9673   0.917   2.993   0.369  1.0217  0.7702 -2.1954
 2475SOL    MW4 9674   0.912   2.910   0.343 -0.0722 -0.0877  0.2709
 2476SOL     OW 9675   0.300   1.645   1.498  0.1388 -0.4870 -0.6378
 2476SOL    HW2 9676   0.395   1.643   1.490  0.1727 -0.6525 -0.2413
 2476SOL    HW3 9677   0.284   1.640   1.592 -0.2684 -1.0454 -0.7277
 2476SOL    MW4 9678   0.311   1.644   1.509 -0.3154 -0.1977 -0.0661
 2477SOL     OW 9679   1.313   0.867   4.967 -0.1918 -0.4413  0.4914
 2477SOL    HW2 9680   1.376   0.803   4.934  0.2347  0.0183  0.3997
 2477SOL    HW3 9681   1.364   0.947   4.981 -1.1068  0.5871 -1.5087
 2477SOL    MW4 9682   1.328   0.869   4.965 -0.0581  0.0450  0.1092
 2478SOL     OW 9683   3.668   4.716   6.074 -0.5442  0.2857 -0.0496
 2478SOL    HW2 9684   3.578   4.706   6.104 -0.2011  0.7690  1.2287
 2478SOL    HW3 9685   3.688   4.633   6.030 -1.6353  0.2094 -0.4259
 2478SOL    MW4 9686   3.659   4.703   6.072 -0.0207 -0.5498 -0.0520
 2479SOL     OW 9687   6.190   3.892   3.273 -0.3073  0.4518 -0.0193
 2479SOL    HW2 9688   6.183   3.826   3.342 -0.4205  0.1214 -0.3393
 2479SOL    HW3 9689   6.215   3.842   3.195 -1.5813  0.6052 -0.5511
 2479SOL    MW4 9690   6.192   3.877   3.272 -0.6311  0.1556  0.3341
 2480SOL     OW 9691   0.967   3.432   4.150 -0.6276  0.3268 -0.8313
 2480SOL    HW2 9692   0.908   3.361   4.176 -0.6748  0.8747  0.6960
 2480SOL    HW3 9693   0.917   3.512   4.169  0.2688  0.7813 -0.3536
 2480SOL    MW4 9694   0.952   3.433   4.156 -0.2174 -0.0209 -0.0929
 2481SOL     OW 9695   3.790   5.887   2.781  0.5191 -0.2503 -0.3820
 2481SOL    HW2 9696   3.879   5.913   2.806 -0.1573  0.3791  1.5882
 2481SOL    HW3 9697   3.744   5.970   2.766  0.2717 -0.5738 -1.4854
 2481SOL    MW4 9698   3.796   5.901   2.782  0.3864 -0.3738  0.2051
 2482SOL     OW 9699   4.894   3.431   2.449  0.6808  0.2130  0.0535
 2482SOL    HW2 9700   4.897   3.343   2.411 -0.7437  0.6680 -1.2169
 2482SOL    HW3 9701   4.849   3.419   2.532  1.6918 -0.4270  0.5460
 2482SOL    MW4 9702   4.889   3.418   2.455  0.1813  0.2831  0.2547
 2483SOL     OW 9703   0.823   2.911   4.380 -0.2717  0.4571  0.3417
 2483SOL    HW2 9704   0.883   2.983   4.362 -1.0121  1.0020  0.0485
 2483SOL    HW3 9705   0.818   2.908   4.476  1.6256 -0.7707  0.4525
 2483SOL    MW4 9706   0.831   2.920   4.391  0.4402  0.0637 -0.1409
 2484SOL     OW 9707   5.280   5.802   2.086  0.1131 -0.2283  0.0642
 2484SOL    HW2 9708   5.221   5.877   2.101  1.0155  0.4768  0.2038
 2484SOL    HW3 9709   5.360   5.826   2.133  0.0656 -1.7560  0.9746
 2484SOL    MW4 9710   5.283   5.815   2.094 -0.3617  0.6665  0.2874
 2485SOL     OW 9711   0.064   5.625   5.432  0.5017 -0.1966  0.3251
 2485SOL    HW2 9712   0.096   5.709   5.464  1.8485 -1.4663  2.5834
 2485SOL    HW3 9713  -0.026   5.620   5.463 -0.2009  1.0875 -1.3498
 2485SOL    MW4 9714   0.056   5.635   5.440 -0.1577 -0.2294  0.4202
 2486SOL     OW 9715   4.179   4.035   1.576  0.1467  0.3833 -0.1650
 2486SOL    HW2 9716   4.267   3.999   1.584 -0.4755 -1.5671 -1.4275
 2486SOL    HW3 9717   4.166   4.046   1.482 -1.4582 -0.7536 -0.1117
 2486SOL    MW4 9718   4.189   4.032   1.565 -0.3021 -0.0651  0.1063
 2487SOL     OW 9719   0.576   0.797   1.552 -0.1272  0.2094  0.5995
 2487SOL    HW2 9720   0.594   0.822   1.643  2.0822  0.0234  0.2716
 2487SOL    HW3 9721   0.544   0.707   1.558  0.8770 -0.1296  1.1634
 2487SOL    MW4 9722   0.575   0.788   1.565 -0.5773 -0.8991 -0.2080
 2488SOL     OW 9723   3.968   6.186   4.570  0.1652  0.3008  0.1681
 2488SOL    HW2 9724   4.050   6.157   4.609 -0.2190  0.0363  0.8054
 2488SOL    HW3 9725   3.906   6.188   4.643 -0.6651 -0.5522 -0.4859
 2488SOL    MW4 9726   3.970   6.182   4.585 -0.4714 -0.0010  0.1572
 2489SOL     OW 9727   4.660   4.762   1.559 -0.3004  0.3209  0.7388
 2489SOL    HW2 9728   4.679   4.709   1.482  1.0988  0.5935  0.8829
 2489SOL    HW3 9729   4.635   4.699   1.626  0.7411 -0.1165  0.7285
 2489SOL    MW4 9730   4.659   4.747   1.558  0.0820  0.1125 -0.0458
 2490SOL     OW 9731   3.818   1.365   2.433 -0.1278  0.2405  0.3641
 2490SOL    HW2 9732   3.876   1.313   2.377  1.0788 -0.1317  1.9175
 2490SOL    HW3 9733   3.853   1.453   2.428  0.6530 -0.0056  1.3897
 2490SOL    MW4 9734   3.830   1.369   2.425 -0.1768 -0.1337 -0.4151
 2491SOL     OW 9735   0.733   4.212   2.241  1.0132 -0.0076 -0.0108
 2491SOL    HW2 9736   0.737   4.176   2.152 -0.2816  0.4453 -0.2714
 2491SOL    HW3 9737   0.657   4.170   2.280  1.0386  0.4771  0.5711
 2491SOL    MW4 9738   0.723   4.202   2.234  0.5257 -0.1275  0.4823
 2492SOL     OW 9739   3.459   2.720   3.417  0.2442  0.1324  0.1915
 2492SOL    HW2 9740   3.400   2.763   3.478  0.1853  1.3718 -0.6954
 2492SOL    HW3 9741   3.493   2.791   3.362  1.1771 -0.7894 -0.4713
 2492SOL    MW4 9742   3.456   2.735   3.418  0.3499 -0.0868 -0.2479
 2493SOL     OW 9743   3.669   1.019   6.311 -0.1048  0.0538  0.0308
 2493SOL    HW2 9744   3.716   1.012   6.393  0.2570 -1.5889 -0.2833
 2493SOL    HW3 9745   3.579   1.037   6.336  0.2706  1.0346  0.7151
 2493SOL    MW4 9746   3.663   1.020   6.325  0.0415 -0.2033 -1.0066
 2494SOL     OW 9747   4.205   1.541   6.179  0.6313 -0.2653 -0.2033
 2494SOL    HW2 9748   4.247   1.570   6.098 -1.6296  1.4585 -0.8520
 2494SOL    HW3 9749   4.162   1.459   6.156 -0.4020  0.4630 -0.9042
 2494SOL    MW4 9750   4.205   1.534   6.166 -0.0015 -0.2160  0.5409
 2495SOL     OW 9751   3.546   5.167   2.694 -0.1764  0.0780 -0.4066
 2495SOL    HW2 9752   3.636   5.170   2.664  0.4136 -0.6773  1.1796
 2495SOL    HW3 9753   3.552   5.166   2.790 -1.9074  0.9909 -0.2398
 2495SOL    MW4 9754   3.558   5.167   2.703 -0.1970  0.0250 -0.0184
 2496SOL     OW 9755   0.862   1.559   3.715  0.7264 -0.5032 -0.0841
 2496SOL    HW2 9756   0.837   1.492   3.779  0.2796 -1.2575 -1.0202
 2496SOL    HW3 9757   0.779   1.601   3.691  1.0536  0.7417  0.8420
 2496SOL    MW4 9758   0.848   1.556   3.721 -0.0964  0.3550  0.2763
 2497SOL     OW 9759   5.695   4.639   5.430  0.0933 -0.4003  0.0393
 2497SOL    HW2 9760   5.774   4.640   5.376  0.8094 -0.0306  1.0500
 2497SOL    HW3 9761   5.686   4.729   5.461 -0.7815 -0.4209 -0.1292
 2497SOL    MW4 9762   5.704   4.651   5.427 -0.3734 -0.6547  0.3539
 2498SOL     OW 9763   2.847   4.527   4.578 -0.1966  0.2117  0.2435
 2498SOL    HW2 9764   2.870   4.440   4.546 -0.2788  0.1629  0.3165
 2498SOL    HW3 9765   2.820   4.512   4.669 -0.4260  0.2840  0.1853
 2498SOL    MW4 9766   2.847   4.513   4.586 -0.2308 -0.0880 -0.1858
 2499SOL     OW 9767   0.408   5.842   0.491  0.4210  0.4154  0.0872
 2499SOL    HW2 9768   0.451   5.908   0.545  0.3789 -0.8880  1.7911
 2499SOL    HW3 9769   0.315   5.854   0.508  0.4772 -0.9449  1.5083
 2499SOL    MW4 9770   0.402   5.853   0.500  0.2232 -0.0466 -0.0386
 2500SOL     OW 9771   3.197   3.391   0.686 -0.3151  0.0031  0.1295
 2500SOL    HW2 9772   3.244   3.434   0.614 -0.0861  0.5671  0.6013
 2500SOL    HW3 9773   3.169   3.464   0.742 -1.9417 -0.3097 -0.2437
 2500SOL    MW4 9774   3.200   3.407   0.684  0.3763 -0.3050  0.1177
 2501SOL     OW 9775   2.861   4.052   1.996 -0.2544  0.4376 -0.1969
 2501SOL    HW2 9776   2.824   3.983   1.941  0.5414 -1.8780  1.9723
 2501SOL    HW3 9777   2.952   4.058   1.970 -0.0977 -0.0341  0.2103
 2501SOL    MW4 9778   2.868   4.044   1.986 -0.0013  0.2702 -0.3467
 2502SOL     OW 9779   3.556   1.774   4.707  0.2388  0.1015 -0.1893
 2502SOL    HW2 9780   3.493   1.703   4.695  0.8134 -0.3419 -0.6799
 2502SOL    HW3 9781   3.503   1.850   4.732 -0.2769 -0.8401  1.8580
 2502SOL    MW4 9782   3.541   1.775   4.709  0.3024  0.1143  0.2834
 2503SOL     OW 9783   4.055   2.334   1.502 -0.0187 -0.2189 -0.4039
 2503SOL    HW2 9784   4.032   2.420   1.536  0.3362  0.5495 -2.0381
 2503SOL    HW3 9785   3.974   2.283   1.509 -1.2512  1.3097 -2.6041
 2503SOL    MW4 9786   4.041   2.339   1.507 -0.7396  0.4009  0.1099
 2504SOL     OW 9787   3.259   1.486   1.622  0.9558 -0.0964 -0.4154
 2504SOL    HW2 9788   3.240   1.393   1.614 -3.6051  0.5827  0.2378
 2504SOL    HW3 9789   3.317   1.492   1.698 -0.7120 -2.2391  1.1381
 2504SOL    MW4 9790   3.264   1.475   1.631  0.2839 -0.3435 -0.0543
 2505SOL     OW 9791   1.482   3.250   3.248 -0.2116 -0.4281 -0.4729
 2505SOL    HW2 9792   1.497   3.155   3.254 -1.5928 -0.7214 -1.1253
 2505SOL    HW3 9793   1.484   3.268   3.154 -1.2919 -0.0694 -0.4410
 2505SOL    MW4 9794   1.484   3.240   3.236  0.3755 -0.3161  0.0033
 2506SOL     OW 9795   1.875   1.485   4.094 -0.1737 -0.6262  0.0375
 2506SOL    HW2 9796   1.907   1.534   4.019  0.4130 -0.9490  0.0726
 2506SOL    HW3 9797   1.852   1.553   4.159  2.1471 -0.4116  0.7042
 2506SOL    MW4 9798   1.876   1.501   4.093  0.3798 -0.5140 -0.0157
 2507SOL     OW 9799   1.113   4.778   2.133 -0.6359 -0.4798 -0.0818
 2507SOL    HW2 9800   1.086   4.844   2.197 -1.1258  0.1478 -0.9178
 2507SOL    HW3 9801   1.055   4.704   2.150  0.4688 -1.0500  1.4160
 2507SOL    MW4 9802   1.102   4.777   2.144  0.1725  0.5280 -0.4669
 2508SOL     OW 9803   4.409   6.199   1.188  0.2026 -0.4085 -0.0543
 2508SOL    HW2 9804   4.467   6.123   1.186  0.7163 -0.1189 -3.4680
 2508SOL    HW3 9805   4.338   6.176   1.128 -0.4532  1.2116  0.0478
 2508SOL    MW4 9806   4.407   6.186   1.180  0.8415  0.0029 -0.1384
 2509SOL     OW 9807   5.346   0.474   4.770 -0.0154 -0.3843 -0.1954
 2509SOL    HW2 9808   5.365   0.567   4.761 -0.2025 -0.5161 -2.2351
 2509SOL    HW3 9809   5.371   0.454   4.860 -0.7702  1.8000  0.5692
 2509SOL    MW4 9810   5.352   0.484   4.781 -0.1260  0.0223 -0.3663
 2510SOL     OW 9811   2.157   2.055   6.419 -0.4136  0.5318  0.1472
 2510SOL    HW2 9812   2.247   2.084   6.432 -0.2521 -0.0519  0.3860
 2510SOL    HW3 9813   2.111   2.132   6.386  0.1424  0.8703  0.1515
 2510SOL    MW4 9814   2.163   2.069   6.416  0.9306 -0.2493 -0.1908
 2511SOL     OW 9815   1.831   2.673   1.056 -0.4263 -0.1155 -0.4774
 2511SOL    HW2 9816   1.892   2.746   1.054 -0.6046  0.1384  1.3124
 2511SOL    HW3 9817   1.745   2.713   1.041 -0.3475 -0.2085 -1.1857
 2511SOL    MW4 9818   1.828   2.688   1.054  0.0712  0.7751 -0.2191
 2512SOL     OW 9819   4.119   0.699   4.184  0.1850 -0.0677 -0.3414
 2512SOL    HW2 9820   4.093   0.607   4.191  0.9786 -0.1952  1.7858
 2512SOL    HW3 9821   4.090   0.738   4.266 -1.3670  1.9632 -1.7649
 2512SOL    MW4 9822   4.112   0.692   4.196 -0.2879 -0.2763 -0.0568
 2513SOL     OW 9823   3.519   5.024   4.823  0.6192  0.3840  0.1488
 2513SOL    HW2 9824   3.589   5.001   4.761  2.2001  0.9265  1.6649
 2513SOL    HW3 9825   3.497   4.941   4.866  0.8128  0.3345  0.1508
 2513SOL    MW4 9826   3.525   5.010   4.821 -0.3682 -0.1126 -0.0983
 2514SOL     OW 9827   1.141   0.515   0.877  0.1156  0.1427 -0.1905
 2514SOL    HW2 9828   1.084   0.585   0.843  0.4687  0.3250 -0.4099
 2514SOL    HW3 9829   1.119   0.439   0.823 -1.2104 -0.2842  0.8976
 2514SOL    MW4 9830   1.130   0.514   0.865  0.3598 -0.2429 -0.4011
 2515SOL     OW 9831   4.051   1.772   3.744  0.1740 -0.1308  0.0043
 2515SOL    HW2 9832   4.128   1.823   3.717 -0.3920  0.5811 -0.2811
 2515SOL    HW3 9833   4.042   1.791   3.838  1.6855 -2.0086  0.5906
 2515SOL    MW4 9834   4.060   1.781   3.753  0.0060  0.5745 -0.7255
 2516SOL     OW 9835   5.706   5.862   0.990  0.0584  0.2292 -0.4267
 2516SOL    HW2 9836   5.749   5.778   1.007  0.9892  0.6884 -0.4575
 2516SOL    HW3 9837   5.725   5.915   1.068 -0.7493  0.3335 -0.2907
 2516SOL    MW4 9838   5.714   5.858   1.003 -0.1583 -0.1771 -0.3033
 2517SOL     OW 9839   4.981   4.193   3.453  0.2398  0.3491 -0.0008
 2517SOL    HW2 9840   5.056   4.249   3.472  0.5386  0.6676 -1.9190
 2517SOL    HW3 9841   4.906   4.252   3.447  0.5425  0.6233 -1.9478
 2517SOL    MW4 9842   4.981   4.208   3.454 -0.1317  0.0677 -0.0851
 2518SOL     OW 9843   3.930   3.417   3.870  0.3885  0.2465 -0.1646
 2518SOL    HW2 9844   3.967   3.389   3.954  2.4178  0.7329 -0.8249
 2518SOL    HW3 9845   3.935   3.512   3.873 -1.0775  0.3413 -0.2111
 2518SOL    MW4 9846   3.936   3.426   3.882 -0.0991  0.3225  0.4818
 2519SOL     OW 9847   5.748   5.758   2.495  0.2279 -0.0335  0.2471
 2519SOL    HW2 9848   5.823   5.719   2.539 -0.3271 -1.8745 -0.3718
 2519SOL    HW3 9849   5.701   5.684   2.456 -1.9701  1.0522  0.6964
 2519SOL    MW4 9850   5.752   5.743   2.495  0.1639 -0.0281 -0.4579
 2520SOL     OW 9851   4.920   2.852   1.886  1.0178  0.3736 -0.1006
 2520SOL    HW2 9852   4.864   2.777   1.909 -0.8512  1.3264 -1.2600
 2520SOL    HW3 9853   4.909   2.913   1.960  0.4809  0.5596 -0.3264
 2520SOL    MW4 9854   4.911   2.850   1.899 -0.1604  0.1304 -0.3274
 2521SOL     OW 9855   1.658   1.768   5.175  0.2719  0.2050  0.4473
 2521SOL    HW2 9856   1.604   1.759   5.253  1.0630  0.4029  1.0344
 2521SOL    HW3 9857   1.642   1.857   5.145  1.3188  0.7672  1.4503
 2521SOL    MW4 9858   1.649   1.779   5.181  0.2563  0.3315 -0.1262
 2522SOL     OW 9859   6.253   5.910   0.331  0.0801 -0.6003 -0.0880
 2522SOL    HW2 9860   6.244   5.989   0.277  2.3878  0.1922  0.5983
 2522SOL    HW3 9861   6.168   5.866   0.322 -1.1168  1.6859 -0.8815
 2522SOL    MW4 9862   6.241   5.914   0.322 -0.1936  0.0881  0.0832
 2523SOL     OW 9863   5.441   5.874   1.118  0.0606  0.4372  0.0962
 2523SOL    HW2 9864   5.445   5.926   1.198 -0.6691  0.2563  0.2518
 2523SOL    HW3 9865   5.530   5.879   1.082  0.4112  0.4815  0.9412
 2523SOL    MW4 9866   5.454   5.881   1.124 -0.2879  0.2376  0.2584
 2524SOL     OW 9867   5.629   3.715   2.558 -0.2162  0.5485 -1.0018
 2524SOL    HW2 9868   5.661   3.675   2.477 -1.4526 -2.1756 -0.2778
 2524SOL    HW3 9869   5.550   3.763   2.531 -1.2786 -1.2749 -1.3527
 2524SOL    MW4 9870   5.623   3.716   2.544  0.5493  0.4797 -0.4214
 2525SOL     OW 9871   0.805   5.639   3.046 -0.1769 -0.1357  0.2856
 2525SOL    HW2 9872   0.839   5.553   3.020  0.0014  0.1603 -0.4860
 2525SOL    HW3 9873   0.842   5.654   3.134 -1.6028 -1.5914  1.1873
 2525SOL    MW4 9874   0.814   5.630   3.054 -0.3499 -0.1862  0.6142
 2526SOL     OW 9875   1.809   1.522   1.942 -0.2356  0.2031 -0.8184
 2526SOL    HW2 9876   1.863   1.466   1.887 -1.2409 -0.3216 -1.2903
 2526SOL    HW3 9877   1.838   1.611   1.922  1.2965 -0.1218 -0.1444
 2526SOL    MW4 9878   1.820   1.526   1.932 -0.0727 -0.8241 -0.1396
 2527SOL     OW 9879   4.426   3.141   2.987 -0.0664  0.4619  0.3527
 2527SOL    HW2 9880   4.364   3.131   3.060 -0.0121  0.3394  0.3805
 2527SOL    HW3 9881   4.381   3.103   2.912 -0.6621  1.7282  0.0279
 2527SOL    MW4 9882   4.412   3.135   2.987 -0.4207  0.6911 -0.1457
 2528SOL     OW 9883   5.411   3.624   4.155 -0.1973 -0.3446 -0.0664
 2528SOL    HW2 9884   5.393   3.717   4.143  1.0925  0.3557  2.6040
 2528SOL    HW3 9885   5.358   3.599   4.230  0.5662 -1.3772  0.1495
 2528SOL    MW4 9886   5.402   3.633   4.163 -0.2440 -0.2360  0.3387
 2529SOL     OW 9887   2.835   3.363   3.889 -0.3271 -0.3030 -0.1986
 2529SOL    HW2 9888   2.843   3.268   3.885  0.8115 -0.1894 -0.9733
 2529SOL    HW3 9889   2.914   3.392   3.935  0.2001  0.3790 -1.4925
 2529SOL    MW4 9890   2.846   3.354   3.894  0.3844 -0.3985  0.6248
 2530SOL     OW 9891   4.504   4.363   4.163  0.2573 -0.5195  0.5820
 2530SOL    HW2 9892   4.522   4.300   4.093 -1.1198 -0.3233  0.0326
 2530SOL    HW3 9893   4.449   4.315   4.225 -0.2955 -0.0422  0.4629
 2530SOL    MW4 9894   4.499   4.348   4.162 -0.4053  0.6084 -0.3944
 2531SOL     OW 9895   0.801   4.729   2.080  0.1902 -0.2475 -0.0590
 2531SOL    HW2 9896   0.823   4.636   2.078 -1.1828 -0.5946 -0.8418
 2531SOL    HW3 9897   0.815   4.760   1.991 -1.3332 -0.2406 -0.3328
 2531SOL    MW4 9898   0.805   4.721   2.068 -0.3409  0.0939 -0.0763
 2532SOL     OW 9899   0.580   5.014   0.990 -0.0865  0.1828  0.4778
 2532SOL    HW2 9900   0.519   4.966   0.934  0.6912  0.8593 -1.0344
 2532SOL    HW3 9901   0.525   5.073   1.042 -0.7389  1.0438 -1.1078
 2532SOL    MW4 9902   0.565   5.016   0.989 -0.3883 -0.1986 -0.4360
 2533SOL     OW 9903   5.764   3.239   1.670  0.0732  0.3961  0.6452
 2533SOL    HW2 9904   5.678   3.216   1.706  0.0839 -1.3625 -0.3491
 2533SOL    HW3 9905   5.754   3.228   1.575  1.1047  1.2501  0.4167
 2533SOL    MW4 9906   5.751   3.235   1.662 -0.3319 -0.1661 -0.0631
 2534SOL     OW 9907   3.024   6.382   6.336 -0.2543  0.2523 -0.0183
 2534SOL    HW2 9908   3.110   6.347   6.358  0.2307  1.4197  0.0500
 2534SOL    HW3 9909   2.999   6.337   6.255  0.1624 -0.5003  0.2634
 2534SOL    MW4 9910   3.032   6.372   6.328 -0.2151  0.2381  0.1962
 2535SOL     OW 9911   3.839   6.106   5.587 -0.2447  0.2569  0.0005
 2535SOL    HW2 9912   3.753   6.145   5.570 -0.8734 -0.7663  0.7047
 2535SOL    HW3 9913   3.901   6.177   5.574 -1.2753  1.2447  0.3528
 2535SOL    MW4 9914   3.836   6.120   5.583 -0.1661  0.1782  0.0074
 2536SOL     OW 9915   3.887   1.989   2.913 -0.4470 -0.3850 -0.0587
 2536SOL    HW2 9916   3.936   1.976   2.832  1.0828 -1.4432  0.9780
 2536SOL    HW3 9917   3.896   2.083   2.932 -0.7591 -0.1419 -1.0463
 2536SOL    MW4 9918   3.895   2.000   2.905  0.1982 -0.1746 -0.1701
 2537SOL     OW 9919   1.666   6.248   1.909  0.1156  0.2484 -0.0683
 2537SOL    HW2 9920   1.703   6.336   1.913 -1.9131  1.1343  3.3524
 2537SOL    HW3 9921   1.591   6.255   1.850  0.9478  0.3070 -1.1536
 2537SOL    MW4 9922   1.661   6.260   1.902 -0.0234  0.2213  0.2672
 2538SOL     OW 9923   6.223   1.931   0.975 -0.1429 -0.0493  0.5549
 2538SOL    HW2 9924   6.236   1.904   1.066 -0.7245  2.0768  1.3217
 2538SOL    HW3 9925   6.135   1.901   0.953 -0.5567  0.6725  1.1899
 2538SOL    MW4 9926   6.213   1.923   0.984  0.3536 -0.2682 -0.3407
 2539SOL     OW 9927   4.092   2.530   0.429  0.0527 -0.3414  0.2719
 2539SOL    HW2 9928   4.143   2.508   0.507  1.9100  2.3063 -0.0751
 2539SOL    HW3 9929   4.145   2.496   0.356  1.7018  2.6873 -0.1090
 2539SOL    MW4 9930   4.106   2.523   0.430 -0.0818  0.3612 -0.3248
 2540SOL     OW 9931   2.252   1.913   1.513 -0.8474  0.5848 -0.0666
 2540SOL    HW2 9932   2.160   1.891   1.499 -1.2300  2.2714 -0.4018
 2540SOL    HW3 9933   2.250   1.986   1.575  0.4551 -1.5137  2.6677
 2540SOL    MW4 9934   2.239   1.919   1.519  0.0778 -0.6963 -0.2661
 2541SOL     OW 9935   5.655   0.347   5.212  0.1441  0.2322  0.0739
 2541SOL    HW2 9936   5.569   0.334   5.252 -0.5828  1.1810 -1.0723
 2541SOL    HW3 9937   5.693   0.260   5.207 -1.4130 -0.4552 -0.7396
 2541SOL    MW4 9938   5.649   0.334   5.216 -0.1783  0.1008 -0.8883
 2542SOL     OW 9939   3.704   1.872   1.998 -0.2611  0.6307 -0.3163
 2542SOL    HW2 9940   3.672   1.789   2.033 -2.4062  1.6918  0.4361
 2542SOL    HW3 9941   3.790   1.852   1.963 -0.2110 -1.6436  0.9220
 2542SOL    MW4 9942   3.711   1.858   1.998  0.3135 -0.0455 -0.1919
 2543SOL     OW 9943   2.919   2.958   3.045 -0.2928 -0.0305  0.6178
 2543SOL    HW2 9944   2.857   2.886   3.055  0.1493 -0.4109  0.6311
 2543SOL    HW3 9945   2.961   2.941   2.960  0.3613 -0.2141  0.9772
 2543SOL    MW4 9946   2.917   2.946   3.035  0.1059 -0.2908 -0.1286
 2544SOL     OW 9947   5.062   0.939   0.574 -0.2605  0.0090  0.2861
 2544SOL    HW2 9948   5.012   0.985   0.506  1.3075  0.5212 -0.5720
 2544SOL    HW3 9949   5.076   0.851   0.538  0.8664  0.3870 -0.2333
 2544SOL    MW4 9950   5.058   0.933   0.560  0.6280  0.8238  0.0707
 2545SOL     OW 9951   1.967   2.752   1.477 -0.5494 -0.2718  0.3933
 2545SOL    HW2 9952   1.959   2.686   1.407 -0.1670 -2.2549  2.1207
 2545SOL    HW3 9953   1.879   2.788   1.487 -0.6654 -0.1529 -0.9012
 2545SOL    MW4 9954   1.955   2.748   1.469  0.1707  0.4435  0.5375
 2546SOL     OW 9955   4.903   6.025   2.004 -0.1105 -0.5977  0.2691
 2546SOL    HW2 9956   4.924   5.961   1.936 -0.4230  0.4469 -0.8578
 2546SOL    HW3 9957   4.907   6.110   1.958  0.0127  0.1600  1.6449
 2546SOL    MW4 9958   4.906   6.028   1.989 -0.1838 -0.1937  0.5083
 2547SOL     OW 9959   3.347   0.066   6.083  0.0874 -0.1776 -0.4333
 2547SOL    HW2 9960   3.291  -0.011   6.096  0.1642 -0.1910 -0.1792
 2547SOL    HW3 9961   3.388   0.051   5.998  0.4070 -0.6092 -0.2058
 2547SOL    MW4 9962   3.345   0.054   6.074  0.3505  0.8082  0.1332
 2548SOL     OW 9963   1.806   5.029   0.006 -0.0622  0.2737 -0.3141
 2548SOL    HW2 9964   1.830   5.120  -0.004 -1.0764  0.6068  0.0982
 2548SOL    HW3 9965   1.888   4.981  -0.002  0.5172  1.2363 -0.2774
 2548SOL    MW4 9966   1.820   5.034   0.004 -0.1536  0.1741  0.1197
 2549SOL     OW 9967   0.059   5.764   1.062  0.1753 -0.0915  0.6055
 2549SOL    HW2 9968   0.144   5.808   1.059 -0.0488  0.3128 -1.4328
 2549SOL    HW3 9969   0.037   5.748   0.970 -1.4836 -1.1252  1.1346
 2549SOL    MW4 9970   0.067   5.768   1.049 -0.6507  0.2666 -0.0124
 2550SOL     OW 9971   3.033   5.142   0.921  0.1100  0.0605  0.6122
 2550SOL    HW2 9972   3.117   5.131   0.877 -0.8585  1.1445 -1.6675
 2550SOL    HW3 9973   3.014   5.236   0.915 -1.2490 -0.1547  1.0983
 2550SOL    MW4 9974   3.041   5.153   0.914 -0.1455 -0.1547 -0.6344
 2551SOL     OW 9975   1.922   2.334   5.644 -0.5807 -0.1337  0.0170
 2551SOL    HW2 9976   1.883   2.376   5.567  1.0509  0.1715 -0.6741
 2551SOL    HW3 9977   1.860   2.352   5.715 -0.9557  1.6623 -0.7155
 2551SOL    MW4 9978   1.909   2.342   5.643 -0.5115  0.3041  0.2912
 2552SOL     OW 9979   3.830   3.241   3.076 -0.4112  0.4665  0.5294
 2552SOL    HW2 9980   3.772   3.173   3.042  0.2943 -0.4637  1.1184
 2552SOL    HW3 9981   3.894   3.256   3.006 -0.6076  0.5675  0.3730
 2552SOL    MW4 9982   3.831   3.234   3.062  0.5216  0.1192  0.2491
 2553SOL     OW 9983   5.382   5.408   5.904  0.2340  0.1760 -0.1813
 2553SOL    HW2 9984   5.379   5.484   5.962 -0.1096 -1.0947  1.5155
 2553SOL    HW3 9985   5.475   5.387   5.897  0.3515  0.8560 -0.8394
 2553SOL    MW4 9986   5.394   5.415   5.910 -0.5557  0.2080  1.2644
 2554SOL     OW 9987   4.967   1.438   4.031  0.2561  0.2165 -0.4964
 2554SOL    HW2 9988   4.983   1.499   4.103  0.9385 -0.4031 -0.0998
 2554SOL    HW3 9989   5.038   1.374   4.038 -0.0720 -0.2517 -1.2958
 2554SOL    MW4 9990   4.978   1.437   4.042 -0.2676 -0.0104  0.7370
 2555SOL     OW 9991   4.581   1.747   6.113  0.1820  0.1032 -0.3257
 2555SOL    HW2 9992   4.638   1.721   6.041 -1.9147  1.7130 -2.7461
 2555SOL    HW3 9993   4.631   1.813   6.161  0.9043  0.5013 -1.5814
 2555SOL    MW4 9994   4.595   1.753   6.110 -0.4920 -0.0287 -0.0668
 2556SOL     OW 9995   1.987   4.706   2.781  0.0965  0.7278 -0.4885
 2556SOL    HW2 9996   1.930   4.765   2.731 -0.1660  0.1390 -0.9050
 2556SOL    HW3 9997   1.968   4.725   2.872 -1.6344 -0.2309 -0.5956
 2556SOL    MW4 9998   1.977   4.716   2.786 -0.3943 -0.2253 -0.4632
 2557SOL     OW 9999   4.695   2.970   2.309  0.4202 -0.5062  0.6462
 2557SOL    HW210000   4.757   3.040   2.331  2.4629 -1.3497 -1.9535
 2557SOL    HW310001   4.614   3.016   2.287  1.9729  1.2470 -1.8993
 2557SOL    MW410002   4.693   2.985   2.309 -0.5018 -0.3873  0.5719
 2558SOL     OW10003   3.080   3.806   1.627 -0.0933  0.4178  0.2949
 2558SOL    HW210004   3.138   3.762   1.564 -0.3425  0.3736  0.0960
 2558SOL    HW310005   3.054   3.887   1.583 -0.0063  0.5407  0.4731
 2558SOL    MW410006   3.084   3.811   1.613  0.0656  0.0234 -0.1025
 2559SOL     OW10007   0.832   1.940   1.406 -0.1355  0.0408 -0.5245
 2559SOL    HW210008   0.810   1.947   1.499  0.0775  0.0226 -0.4732
 2559SOL    HW310009   0.821   2.029   1.373  2.9317  0.8132  0.2093
 2559SOL    MW410010   0.827   1.953   1.414 -0.1869  0.1363 -0.4335
 2560SOL     OW10011   5.717   0.442   2.808 -0.1749 -0.5223  0.5559
 2560SOL    HW210012   5.708   0.491   2.890 -1.7978 -0.2540  0.2648
 2560SOL    HW310013   5.801   0.470   2.772  1.6997 -2.3268  3.1705
 2560SOL    MW410014   5.727   0.453   2.814  0.0574 -0.0812 -0.0123
 2561SOL     OW10015   5.917   3.817   1.405 -0.3122 -0.4042 -0.1230
 2561SOL    HW210016   5.913   3.735   1.354 -0.3019  0.1190 -0.9801
 2561SOL    HW310017   6.009   3.826   1.428 -0.3212 -0.6587  0.0246
 2561SOL    MW410018   5.929   3.807   1.401 -0.0936  0.1251 -0.8254
 2562SOL     OW10019   3.375   0.542   5.136  0.6548 -0.1249 -0.4371
 2562SOL    HW210020   3.408   0.612   5.080  0.0761 -0.1028 -0.7528
 2562SOL    HW310021   3.343   0.587   5.214  2.6113 -0.2459  0.5150
 2562SOL    MW410022   3.375   0.557   5.139  0.4159  0.2718  0.4741
 2563SOL     OW10023   4.295   2.291   5.093 -0.1181  0.2439 -0.4652
 2563SOL    HW210024   4.363   2.236   5.053  0.0681  0.1746 -0.0598
 2563SOL    HW310025   4.332   2.380   5.092 -0.1134  0.2422 -0.4396
 2563SOL    MW410026   4.309   2.296   5.087 -0.5559  0.1025 -0.7381
 2564SOL     OW10027   5.146   4.887   3.345  0.0188  0.5580  0.5576
 2564SOL    HW210028   5.184   4.831   3.277  0.7157  1.8169 -0.1180
 2564SOL    HW310029   5.080   4.832   3.387  0.4288 -0.6466 -0.3201
 2564SOL    MW410030   5.142   4.872   3.342 -0.1320  0.7617 -0.2089
 2565SOL     OW10031   2.597   1.053   5.715  0.1038  0.6464  0.1584
 2565SOL    HW210032   2.511   1.037   5.755  0.1201 -0.5307 -0.2344
 2565SOL    HW310033   2.615   0.973   5.664  0.7510  1.4964 -0.9927
 2565SOL    MW410034   2.588   1.040   5.713 -0.1563 -0.0202 -0.2722
 2566SOL     OW10035   0.031   0.619   3.969 -0.2469  0.2261 -0.7267
 2566SOL    HW210036  -0.014   0.652   3.891 -1.8735 -0.1638  0.0065
 2566SOL    HW310037   0.114   0.585   3.935 -0.3583  1.2120 -2.0941
 2566SOL    MW410038   0.036   0.619   3.954 -0.4032  0.4313 -0.2787
 2567SOL     OW10039   0.932   2.559   1.328 -0.7646 -0.0449 -0.3720
 2567SOL    HW210040   0.907   2.597   1.244  0.1310  3.8341  0.9298
 2567SOL    HW310041   0.874   2.601   1.392 -0.2529 -1.5569  1.1810
 2567SOL    MW410042   0.921   2.570   1.325 -0.0715  0.0565  0.6640
 2568SOL     OW10043   0.605   3.448   0.381 -0.0350  0.4010 -0.8558
 2568SOL    HW210044   0.587   3.372   0.326  0.4917  0.3540 -0.9631
 2568SOL    HW310045   0.518   3.479   0.408 -0.2682  0.0449 -1.1933
 2568SOL    MW410046   0.591   3.442   0.377 -0.5340  0.3160  0.2925
 2569SOL     OW10047   5.079   4.012   5.726  0.6509  0.2038 -0.5309
 2569SOL    HW210048   5.092   3.979   5.637  0.9378  1.4407 -0.9667
 2569SOL    HW310049   5.108   3.941   5.783 -0.2596 -0.9119 -1.4014
 2569SOL    MW410050   5.084   3.998   5.722  0.1177 -0.6443 -0.5051
 2570SOL     OW10051   0.393   4.295   4.043 -0.0947 -0.1489 -0.6035
 2570SOL    HW210052   0.381   4.386   4.069 -2.7759  0.0430 -2.1024
 2570SOL    HW310053   0.393   4.297   3.947 -0.4766 -1.7309 -0.6694
 2570SOL    MW410054   0.391   4.307   4.034  0.1300  0.7409 -0.2371
 2571SOL     OW10055   5.584   3.314   1.996 -0.3743  0.2522 -0.5636
 2571SOL    HW210056   5.664   3.309   2.048 -1.8972 -0.2602  1.8705
 2571SOL    HW310057   5.517   3.271   2.050 -2.4412  1.1607 -2.2506
 2571SOL    MW410058   5.586   3.307   2.010 -0.2754  0.0977 -0.2995
 2572SOL     OW10059   3.884   3.012   2.558  0.0940  0.2993  0.3062
 2572SOL    HW210060   3.899   3.048   2.645  1.0448  1.0356 -0.1539
 2572SOL    HW310061   3.936   3.066   2.499  0.9168 -1.2968 -0.5098
 2572SOL    MW410062   3.892   3.024   2.562  0.4173 -0.0736  0.5876
 2573SOL     OW10063   1.213   0.935   2.026 -0.3891  0.1057  0.0173
 2573SOL    HW210064   1.294   0.984   2.040  0.1906 -0.8716  0.2071
 2573SOL    HW310065   1.229   0.885   1.946 -0.0263 -1.5744  1.0861
 2573SOL    MW410066   1.226   0.935   2.018 -0.1771  0.1643 -0.3186
 2574SOL     OW10067   3.803   3.207   6.114 -0.4171 -0.3466  0.0148
 2574SOL    HW210068   3.759   3.219   6.030  0.1619 -1.1227 -0.4072
 2574SOL    HW310069   3.813   3.112   6.123  0.0138 -0.2431  0.7013
 2574SOL    MW410070   3.798   3.196   6.104 -0.3780 -0.0169 -0.1156
 2575SOL     OW10071   5.644   5.704   5.060  0.6609  0.0598 -0.2211
 2575SOL    HW210072   5.633   5.666   4.973 -0.6656  1.0687 -0.5239
 2575SOL    HW310073   5.571   5.764   5.069  0.0107 -0.9947  2.1266
 2575SOL    MW410074   5.633   5.707   5.050 -0.7680 -0.1067  0.0467
 2576SOL     OW10075   4.293   2.278   2.828 -0.1959 -0.0576 -0.3918
 2576SOL    HW210076   4.373   2.317   2.792  0.0213  1.9450  1.9977
 2576SOL    HW310077   4.223   2.331   2.790 -0.2111 -0.2210 -0.5904
 2576SOL    MW410078   4.294   2.290   2.818 -0.1237 -0.6962  0.5665
 2577SOL     OW10079   6.293   5.135   0.854  0.5005 -0.2074 -0.3836
 2577SOL    HW210080   6.332   5.200   0.913 -0.6570  0.4702 -0.3317
 2577SOL    HW310081   6.253   5.187   0.784 -2.0798 -0.6787  0.6218
 2577SOL    MW410082   6.293   5.150   0.853  0.4754  0.0980 -0.0311
 2578SOL     OW10083   3.776   4.885   3.879 -0.3436  0.4006  0.3327
 2578SOL    HW210084   3.813   4.958   3.830  1.3068 -1.2690 -1.0354
 2578SOL    HW310085   3.704   4.853   3.824  0.3493 -0.3532 -0.1468
 2578SOL    MW410086   3.771   4.890   3.866  0.4130 -0.6626 -0.4855
 2579SOL     OW10087   5.893   5.684   6.361  0.3661 -0.6808  0.0720
 2579SOL    HW210088   5.820   5.725   6.315 -0.0415 -0.6624  0.7161
 2579SOL    HW310089   5.901   5.597   6.321  0.7305 -0.2699 -0.7684
 2579SOL    MW410090   5.885   5.678   6.350  0.0756  0.0553  0.0406
 2580SOL     OW10091   5.520   2.306   5.474 -0.6230 -0.6302  0.3647
 2580SOL    HW210092   5.544   2.332   5.385 -0.8240 -1.6416  0.0075
 2580SOL    HW310093   5.425   2.300   5.473 -0.5771 -1.5047  0.3923
 2580SOL    MW410094   5.511   2.308   5.462  0.1418  0.4556 -0.1927
 2581SOL     OW10095   0.194   0.614   5.519  0.2100  0.0302 -0.1203
 2581SOL    HW210096   0.139   0.687   5.549  0.7680  0.9163 -1.1608
 2581SOL    HW310097   0.135   0.561   5.466 -0.0094  0.1487 -0.0022
 2581SOL    MW410098   0.179   0.617   5.516 -0.8374  0.1083  0.1227
 2582SOL     OW10099   3.639   6.350   4.724  0.0038  0.1050  0.5198
 2582SOL    HW210100   3.684   6.267   4.742 -2.0490 -0.9118  1.2882
 2582SOL    HW310101   3.668   6.408   4.795  2.3750  0.5064 -0.6747
 2582SOL    MW410102   3.649   6.347   4.736 -0.3688 -0.2584  0.0990
 2583SOL     OW10103   1.883   3.353   5.762  0.4868 -0.1517  0.0292
 2583SOL    HW210104   1.858   3.413   5.833  0.4590 -0.4955  0.3186
 2583SOL    HW310105   1.935   3.406   5.702  0.4151  0.1747  0.2521
 2583SOL    MW410106   1.886   3.368   5.764  0.0650 -0.2910 -0.1059
 2584SOL     OW10107   5.608   2.387   0.773 -0.0061  0.0297 -0.1676
 2584SOL    HW210108   5.604   2.400   0.679 -0.9042 -2.4672 -0.5330
 2584SOL    HW310109   5.688   2.337   0.787  1.0648  1.8752  0.6542
 2584SOL    MW410110   5.618   2.382   0.763  0.0960 -0.7132 -0.9485
 2585SOL     OW10111   0.182   4.388   2.101 -0.7010  0.0228 -0.1574
 2585SOL    HW210112   0.097   4.352   2.127  0.0892  0.3135  3.4031
 2585SOL    HW310113   0.166   4.481   2.088 -1.1536 -0.1361 -0.7452
 2585SOL    MW410114   0.169   4.395   2.103 -0.2025 -0.4809  0.0387
 2586SOL     OW10115   1.196   5.396   0.139  0.5233 -0.2348 -0.4135
 2586SOL    HW210116   1.253   5.417   0.213  0.3909 -0.8355 -0.1360
 2586SOL    HW310117   1.199   5.300   0.133  0.2786 -0.2091 -0.9842
 2586SOL    MW410118   1.204   5.386   0.148 -0.1143 -0.1146 -0.2038
 2587SOL     OW10119   2.452   5.384   1.314 -0.7119  0.4181 -0.0413
 2587SOL    HW210120   2.404   5.409   1.394 -0.3530  1.9048 -0.2553
 2587SOL    HW310121   2.479   5.468   1.276  0.7318 -0.3284 -0.7405
 2587SOL    MW410122   2.449   5.398   1.320  0.0298 -0.6908 -0.8902
 2588SOL     OW10123   5.713   5.821   3.178 -0.1442  0.7684 -0.0448
 2588SOL    HW210124   5.694   5.874   3.255  1.0704 -0.6713  1.3298
 2588SOL    HW310125   5.746   5.883   3.113  0.2361  1.8259  1.1258
 2588SOL    MW410126   5.715   5.836   3.179  0.1203  0.5141  0.2663
 2589SOL     OW10127   4.175   6.234   0.183  0.0609  0.2368 -0.5536
 2589SOL    HW210128   4.217   6.192   0.109  0.5239 -2.6907  1.2362
 2589SOL    HW310129   4.086   6.198   0.185 -0.2275  0.9340 -0.1572
 2589SOL    MW410130   4.169   6.224   0.173  0.2556  0.1185  0.1751
 2590SOL     OW10131   1.120   0.968   2.769  0.2530 -0.3192 -0.1443
 2590SOL    HW210132   1.208   0.929   2.767 -0.1634 -1.3183  0.2299
 2590SOL    HW310133   1.063   0.895   2.793 -0.6758  0.3340 -0.3432
 2590SOL    MW410134   1.124   0.953   2.772 -0.4916  0.3777  0.0396
 2591SOL     OW10135   4.944   3.026   3.492 -0.2889  0.2706  0.7527
 2591SOL    HW210136   4.920   2.998   3.581  0.7433  1.3155  1.3939
 2591SOL    HW310137   4.896   3.108   3.480 -0.0263  0.3937  0.5447
 2591SOL    MW410138   4.934   3.033   3.502  0.5453  0.5067  0.5750
 2592SOL     OW10139   4.183   5.284   1.794 -0.0300  0.1320  0.0320
 2592SOL    HW210140   4.231   5.237   1.862 -1.5841 -1.8113 -0.1213
 2592SOL    HW310141   4.165   5.370   1.833 -0.0855 -0.5960  1.7340
 2592SOL    MW410142   4.187   5.289   1.808  0.4130 -0.7567 -0.1517
 2593SOL     OW10143   1.903   0.058   5.969  1.2710 -0.0931 -0.5432
 2593SOL    HW210144   1.906   0.020   6.056  2.0965  0.4886 -0.3005
 2593SOL    HW310145   1.945  -0.007   5.913  0.7359 -0.4695 -0.5183
 2593SOL    MW410146   1.909   0.045   5.973 -0.3127 -0.0651  0.1662
 2594SOL     OW10147   4.110   2.847   5.233  0.3225 -0.1360 -0.4586
 2594SOL    HW210148   4.160   2.901   5.294  0.7764 -1.3837  0.3118
 2594SOL    HW310149   4.026   2.891   5.225  0.0890 -0.1738  1.4275
 2594SOL    MW410150   4.106   2.860   5.240  0.1671  0.8766 -0.0025
 2595SOL     OW10151   3.972   2.713   4.684  0.2970  0.1586 -0.4465
 2595SOL    HW210152   3.960   2.797   4.639  2.6764 -0.3532 -2.1920
 2595SOL    HW310153   4.052   2.724   4.735  0.2077 -0.8171 -0.0696
 2595SOL    MW410154   3.981   2.725   4.685 -0.6173 -0.3727 -0.1280
 2596SOL     OW10155   2.138   4.068   0.975  0.2306  0.2589  0.0017
 2596SOL    HW210156   2.184   4.151   0.961  0.9324 -0.1089  0.0641
 2596SOL    HW310157   2.172   4.011   0.907 -0.0888 -0.0431  0.0960
 2596SOL    MW410158   2.149   4.072   0.964 -0.2579 -0.2698  0.0766
 2597SOL     OW10159   4.646   5.546   3.838 -0.1813  0.3908 -0.1801
 2597SOL    HW210160   4.693   5.519   3.758 -0.4460  0.1764 -0.2644
 2597SOL    HW310161   4.557   5.513   3.826  0.1411 -0.9652  0.8551
 2597SOL    MW410162   4.641   5.538   3.826  0.3584  0.8645 -0.1863
 2598SOL     OW10163   5.453   4.469   6.071  0.4825  0.3483 -0.2046
 2598SOL    HW210164   5.499   4.398   6.027  2.3297  1.3332  0.0306
 2598SOL    HW310165   5.414   4.429   6.149  0.1416 -0.6999 -0.8963
 2598SOL    MW410166   5.454   4.454   6.076 -0.4517  0.2096  0.8005
 2599SOL     OW10167   3.468   2.699   0.325  0.2685  0.0469  0.2137
 2599SOL    HW210168   3.470   2.676   0.232  0.8055  0.1863  0.1909
 2599SOL    HW310169   3.523   2.777   0.332 -1.5175  1.3929  0.2870
 2599SOL    MW410170   3.475   2.707   0.314  0.1095 -0.9421  0.1079
 2600SOL     OW10171   6.331   5.946   1.168 -0.4786  0.0177 -0.0982
 2600SOL    HW210172   6.396   5.878   1.154  0.6743  0.8397  0.9862
 2600SOL    HW310173   6.341   6.005   1.092  0.6997  0.6114  0.4858
 2600SOL    MW410174   6.341   5.945   1.156  0.5459 -0.2611  0.0496
 2601SOL     OW10175   2.229   2.268   6.194  0.2862  0.2524 -0.0038
 2601SOL    HW210176   2.145   2.270   6.241  1.1774 -2.8840  2.0506
 2601SOL    HW310177   2.248   2.175   6.183  3.8131  0.7954  0.2953
 2601SOL    MW410178   2.220   2.256   6.199  0.5325 -0.0761  0.3671
 2602SOL     OW10179   1.630   4.684   2.446 -0.4384  0.3705 -0.3132
 2602SOL    HW210180   1.629   4.763   2.392  0.0369  0.4019 -0.2766
 2602SOL    HW310181   1.592   4.617   2.390  0.7631  0.2183 -0.9807
 2602SOL    MW410182   1.625   4.686   2.431 -0.1534  0.4391  0.2383
 2603SOL     OW10183   0.356   1.131   2.642  0.4101  0.3743  0.2847
 2603SOL    HW210184   0.410   1.184   2.700 -0.3808  2.4057 -0.7631
 2603SOL    HW310185   0.276   1.113   2.692  0.6297  0.2524  0.5959
 2603SOL    MW410186   0.353   1.135   2.656  0.0058  0.3237 -0.7239
 2604SOL     OW10187   4.976   1.483   0.900 -0.2400 -0.1819 -0.0272
 2604SOL    HW210188   5.005   1.555   0.845  0.3541  1.1855  1.9632
 2604SOL    HW310189   5.055   1.433   0.919 -0.6098 -1.2670 -1.2026
 2604SOL    MW410190   4.990   1.486   0.896 -0.2269  0.2452 -0.0773
 2605SOL     OW10191   5.407   3.228   4.204  0.3526 -0.4956  0.0997
 2605SOL    HW210192   5.368   3.195   4.284  1.5069  1.5144  1.5859
 2605SOL    HW310193   5.354   3.304   4.180 -0.0852 -1.1693 -1.1926
 2605SOL    MW410194   5.395   3.234   4.211  0.0868  0.1184  0.1544
 2606SOL     OW10195   0.972   2.068   0.097 -0.6117 -0.2586  0.0557
 2606SOL    HW210196   0.902   2.131   0.081  0.2855  0.6320 -0.5241
 2606SOL    HW310197   0.942   1.987   0.055 -1.6917 -0.1789  0.6403
 2606SOL    MW410198   0.959   2.065   0.089 -1.1760 -0.4441  0.4410
 2607SOL     OW10199   1.385   3.202   1.217 -0.2562 -0.2083 -0.6122
 2607SOL    HW210200   1.392   3.236   1.306 -0.8921 -1.2125 -0.1723
 2607SOL    HW310201   1.471   3.164   1.200 -0.4825 -0.9943 -0.0169
 2607SOL    MW410202   1.397   3.202   1.226 -0.5539  0.3756 -0.0716
 2608SOL     OW10203   3.316   2.243   4.128  0.3387  0.3885  0.1342
 2608SOL    HW210204   3.232   2.226   4.171  1.2283 -1.1203  1.4002
 2608SOL    HW310205   3.324   2.338   4.126  0.0430  0.5704  3.0236
 2608SOL    MW410206   3.306   2.253   4.134 -0.3577  0.4247  0.3144
 2609SOL     OW10207   0.634   2.015   4.153 -0.0638  0.2784 -0.1126
 2609SOL    HW210208   0.705   2.068   4.118 -0.2807  1.1141  0.6752
 2609SOL    HW310209   0.642   2.024   4.248 -1.3500  0.5662 -0.0128
 2609SOL    MW410210   0.645   2.023   4.161 -0.4144  0.7204  0.6193
 2610SOL     OW10211   0.075   3.869   2.049 -0.2768 -0.7283  0.4926
 2610SOL    HW210212  -0.011   3.856   2.089 -0.0696 -0.8063  0.9243
 2610SOL    HW310213   0.130   3.901   2.121 -0.3782  1.0645 -0.1668
 2610SOL    MW410214   0.071   3.872   2.064 -0.2169 -0.2936 -0.1606
 2611SOL     OW10215   1.311   0.046   1.515 -0.6066 -0.5272 -0.2044
 2611SOL    HW210216   1.272   0.003   1.591 -0.5258  1.2164  0.8809
 2611SOL    HW310217   1.243   0.043   1.448 -1.4653 -0.3052  0.6289
 2611SOL    MW410218   1.297   0.040   1.517 -0.1256  0.2464 -0.0913
 2612SOL     OW10219   3.432   0.747   2.337 -0.5294  0.1436  0.3266
 2612SOL    HW210220   3.518   0.713   2.359  0.0132  0.6040 -1.0211
 2612SOL    HW310221   3.374   0.671   2.344  0.2600 -0.5305 -0.3010
 2612SOL    MW410222   3.435   0.732   2.341  0.0121 -0.4494 -0.2622
 2613SOL     OW10223   1.784   3.644   1.118  0.3150  0.2614 -0.4564
 2613SOL    HW210224   1.811   3.735   1.132  2.0225 -0.1601 -0.8459
 2613SOL    HW310225   1.798   3.628   1.025  0.8603 -0.6430 -0.2376
 2613SOL    MW410226   1.789   3.654   1.108 -0.5307 -0.2316 -0.3384
 2614SOL     OW10227   0.225   4.745   4.887  0.3465 -0.0134  0.1218
 2614SOL    HW210228   0.259   4.659   4.863  0.3556 -0.2500  0.9629
 2614SOL    HW310229   0.165   4.768   4.815  2.3216  0.4734 -1.4623
 2614SOL    MW410230   0.221   4.737   4.874 -0.0333 -0.0269  0.0398
 2615SOL     OW10231   1.616   4.368   3.954 -0.2991  0.4797 -0.0380
 2615SOL    HW210232   1.539   4.425   3.963  0.1568  1.3264 -1.3336
 2615SOL    HW310233   1.587   4.298   3.896 -0.0921  0.8398 -0.5887
 2615SOL    MW410234   1.602   4.366   3.948  0.3555 -0.4298  0.3279
 2616SOL     OW10235   2.253   0.529   5.072  0.2627  0.3972 -0.0553
 2616SOL    HW210236   2.209   0.606   5.038  0.6306  0.7574  0.2725
 2616SOL    HW310237   2.221   0.521   5.162  0.6775  0.5242  0.1079
 2616SOL    MW410238   2.243   0.538   5.080  0.4152  0.6925  0.4100
 2617SOL     OW10239   5.963   6.137   6.414  0.0875 -0.1420 -0.0725
 2617SOL    HW210240   5.966   6.058   6.467 -0.5748  0.0260  0.2233
 2617SOL    HW310241   6.051   6.143   6.376  0.3039 -0.7338  0.3110
 2617SOL    MW410242   5.975   6.128   6.416  0.0767 -0.2605 -0.6115
 2618SOL     OW10243   0.344   4.001   3.818  0.4141 -0.1462 -0.1178
 2618SOL    HW210244   0.286   3.988   3.893 -0.0080 -1.1002 -0.6007
 2618SOL    HW310245   0.381   4.088   3.831 -1.1804  0.5116  0.1635
 2618SOL    MW410246   0.342   4.011   3.830 -0.0170 -0.1027 -0.2797
 2619SOL     OW10247   1.096   1.511   2.097 -0.4013 -0.2378  0.0783
 2619SOL    HW210248   1.121   1.451   2.167 -1.4831  0.1775  0.8544
 2619SOL    HW310249   1.156   1.491   2.025 -0.5237 -2.0004  0.4311
 2619SOL    MW410250   1.107   1.501   2.097 -0.1548  0.0092 -0.0219
 2620SOL     OW10251   2.595   5.381   4.954  0.0391 -0.0329  0.5611
 2620SOL    HW210252   2.596   5.443   5.027  1.1045  0.8322 -0.1749
 2620SOL    HW310253   2.682   5.341   4.955 -0.4210 -1.0781  0.6291
 2620SOL    MW410254   2.606   5.384   4.964  0.4905  0.2726 -0.1070
 2621SOL     OW10255   2.774   4.901   1.950  0.1921  0.1499  0.0714
 2621SOL    HW210256   2.769   4.869   1.860  0.7713 -0.6962  0.3243
 2621SOL    HW310257   2.856   4.951   1.952  0.3433 -0.0993  0.2012
 2621SOL    MW410258   2.784   4.903   1.938 -0.0681 -0.3780  0.6601
 2622SOL     OW10259   3.056   2.134   2.700  0.2980  0.3036 -0.0216
 2622SOL    HW210260   3.046   2.062   2.638 -0.6223  1.0405 -0.7642
 2622SOL    HW310261   2.995   2.201   2.669  1.8286  1.8090  0.0637
 2622SOL    MW410262   3.046   2.133   2.688  0.2586 -0.1691 -0.3934
 2623SOL     OW10263   0.837   1.096   4.393 -0.1382  0.5790 -0.2456
 2623SOL    HW210264   0.901   1.071   4.460 -2.1107 -0.1162  1.5163
 2623SOL    HW310265   0.878   1.071   4.310  0.6563 -2.7103  0.9817
 2623SOL    MW410266   0.851   1.089   4.391  0.9476 -0.2465  0.2202
 2624SOL     OW10267   5.837   0.981   2.193  0.1035  0.3454 -0.0110
 2624SOL    HW210268   5.892   0.902   2.194 -0.0710  0.1468 -2.0646
 2624SOL    HW310269   5.899   1.053   2.188  0.2173  0.2184 -0.4446
 2624SOL    MW410270   5.852   0.980   2.193 -0.5813 -0.1214 -0.1125
 2625SOL     OW10271   1.803   5.750   3.158  0.1900 -0.0900  0.7370
 2625SOL    HW210272   1.781   5.670   3.207  0.1872  0.5955  1.9007
 2625SOL    HW310273   1.891   5.773   3.190  0.2779  0.2497  0.2554
 2625SOL    MW410274   1.812   5.742   3.169 -0.2245  0.2297  0.4275
 2626SOL     OW10275   4.399   5.314   4.123  0.2158 -0.6433  1.3318
 2626SOL    HW210276   4.415   5.225   4.089 -0.0277  0.4336 -1.9418
 2626SOL    HW310277   4.310   5.334   4.095  1.3802  1.7987 -0.9886
 2626SOL    MW410278   4.389   5.305   4.115 -0.2457 -0.5002 -0.0641
 2627SOL     OW10279   4.412   3.603   0.302 -0.2367 -0.4251  0.2541
 2627SOL    HW210280   4.455   3.680   0.340 -0.0128 -0.6648  0.4895
 2627SOL    HW310281   4.476   3.568   0.240 -0.2917 -0.4876  0.2328
 2627SOL    MW410282   4.426   3.609   0.299 -0.8388 -0.0120 -0.1907
 2628SOL     OW10283   4.475   1.524   0.336 -0.1764  0.0165 -0.0663
 2628SOL    HW210284   4.545   1.585   0.314 -0.4675 -0.1583 -1.6086
 2628SOL    HW310285   4.396   1.564   0.299 -0.6200 -0.5862  0.2075
 2628SOL    MW410286   4.474   1.538   0.328  0.0922 -0.2916  0.5988
 2629SOL     OW10287   0.968   4.450   4.833  0.3460 -0.3503 -0.2828
 2629SOL    HW210288   0.929   4.503   4.902  0.2274  0.5174 -1.0048
 2629SOL    HW310289   1.040   4.503   4.798 -0.1046 -0.4160 -1.3730
 2629SOL    MW410290   0.973   4.464   4.837  0.3025  0.0825  0.5472
 2630SOL     OW10291   4.024   2.182   1.901 -0.1748  0.5512 -0.1577
 2630SOL    HW210292   4.107   2.212   1.865 -0.3619  0.4181 -0.7277
 2630SOL    HW310293   4.048   2.127   1.976  0.2067  1.2226  0.2126
 2630SOL    MW410294   4.038   2.178   1.906  0.0016  0.0925  0.2065
 2631SOL     OW10295   1.878   0.473   0.633 -0.2835  0.6892 -0.5823
 2631SOL    HW210296   1.844   0.551   0.676  0.1468  1.0820 -0.9454
 2631SOL    HW310297   1.893   0.410   0.704  0.6129  1.3948 -0.1305
 2631SOL    MW410298   1.876   0.475   0.648  0.1751 -0.2367  0.1290
 2632SOL     OW10299   3.713   4.979   5.980  0.2959  0.4684 -0.2678
 2632SOL    HW210300   3.689   4.889   6.004  1.1898  0.5047  0.8412
 2632SOL    HW310301   3.639   5.011   5.929 -0.9427 -0.2166  1.0405
 2632SOL    MW410302   3.700   4.971   5.976 -0.5409  0.0109 -0.2079
 2633SOL     OW10303   1.960   1.811   4.114 -0.5919 -0.4470  0.0348
 2633SOL    HW210304   1.914   1.757   4.178 -0.5865  0.2231  0.6088
 2633SOL    HW310305   1.895   1.873   4.083  0.0067  0.8215  1.2051
 2633SOL    MW410306   1.946   1.812   4.118  0.1247  0.6567 -0.2932
 2634SOL     OW10307   0.420   2.745   2.850 -0.2600 -0.2181  0.3525
 2634SOL    HW210308   0.494   2.804   2.858  0.9658 -1.5165 -0.7623
 2634SOL    HW310309   0.434   2.678   2.917  0.0398 -0.9045 -0.3697
 2634SOL    MW410310   0.431   2.744   2.860 -0.3981 -0.1906 -0.2552
 2635SOL     OW10311   4.682   6.372   4.613 -0.0742 -0.3354  0.0661
 2635SOL    HW210312   4.759   6.429   4.620 -0.2706  0.0587 -0.7892
 2635SOL    HW310313   4.617   6.414   4.669 -0.4660  0.7470 -1.1400
 2635SOL    MW410314   4.684   6.385   4.621 -0.2596 -0.2411 -0.0413
 2636SOL     OW10315   6.046   3.279   3.090 -0.2187 -0.8477 -0.3345
 2636SOL    HW210316   6.011   3.191   3.073  0.8269 -1.3011 -0.2380
 2636SOL    HW310317   6.057   3.317   3.002 -0.5226 -0.8752 -0.3849
 2636SOL    MW410318   6.043   3.272   3.076 -0.6081  0.0738 -0.2156
 2637SOL     OW10319   1.439   0.766   5.809 -0.5895  0.1665 -0.1938
 2637SOL    HW210320   1.519   0.726   5.774 -1.7956 -3.5056  0.8384
 2637SOL    HW310321   1.468   0.809   5.890  0.3525 -1.5716  0.4532
 2637SOL    MW410322   1.454   0.766   5.815 -0.8891  0.1676  0.1586
 2638SOL     OW10323   3.460   5.472   0.843 -0.0195 -0.4060 -0.1679
 2638SOL    HW210324   3.506   5.427   0.772  0.0907 -1.0262  0.2830
 2638SOL    HW310325   3.427   5.401   0.899 -1.3124  0.0317 -0.3430
 2638SOL    MW410326   3.462   5.456   0.841 -0.1041  0.5051  0.6168
 2639SOL     OW10327   1.668   4.348   2.213  0.6084 -0.2065  0.0535
 2639SOL    HW210328   1.704   4.261   2.195  0.5579 -0.2158 -0.0049
 2639SOL    HW310329   1.645   4.382   2.127  1.8918  0.4242 -0.0572
 2639SOL    MW410330   1.670   4.341   2.199 -0.1177  0.1575  0.1154
 2640SOL     OW10331   5.363   3.946   2.920 -0.5035  0.2771 -0.1636
 2640SOL    HW210332   5.452   3.965   2.947 -1.1351  2.0065  0.8625
 2640SOL    HW310333   5.359   3.975   2.829  0.0886 -0.1985 -0.3441
 2640SOL    MW410334   5.374   3.953   2.912  0.0459 -0.2585  0.2611
 2641SOL     OW10335   2.163   3.302   2.500  0.0254  0.4790  0.1073
 2641SOL    HW210336   2.204   3.281   2.584  0.4762 -0.4016 -0.3155
 2641SOL    HW310337   2.219   3.259   2.434 -0.5510  0.7955 -0.6104
 2641SOL    MW410338   2.176   3.293   2.502 -0.0814  0.1221  0.0765
 2642SOL     OW10339   2.403   2.176   4.815 -0.3426 -0.6045 -0.5328
 2642SOL    HW210340   2.338   2.239   4.848  1.0855  0.4585  0.3805
 2642SOL    HW310341   2.384   2.095   4.863 -2.1594 -0.9062 -1.6746
 2642SOL    MW410342   2.392   2.174   4.826 -0.3557 -0.7208  0.0079
 2643SOL     OW10343   3.120   4.138   6.390 -0.3190 -0.5332 -0.7608
 2643SOL    HW210344   3.075   4.054   6.400 -1.0534  0.0629  1.3844
 2643SOL    HW310345   3.210   4.115   6.368 -0.3020 -1.9315  0.6152
 2643SOL    MW410346   3.126   4.124   6.388 -0.0383 -0.3093 -0.0836
 2644SOL     OW10347   2.529   4.096   1.699 -0.5175 -0.9841 -0.0505
 2644SOL    HW210348   2.452   4.153   1.701 -0.5929 -1.0398  2.3700
 2644SOL    HW310349   2.497   4.011   1.729  0.5297 -0.8316  1.6885
 2644SOL    MW410350   2.515   4.093   1.703  0.4920 -0.2852  0.4567
 2645SOL     OW10351   3.751   0.714   1.843 -0.0738  0.4629 -0.0794
 2645SOL    HW210352   3.752   0.801   1.805 -0.0203  0.5092  0.0261
 2645SOL    HW310353   3.659   0.687   1.840 -0.1995  0.8059  0.5216
 2645SOL    MW410354   3.739   0.722   1.838  0.5868  0.1407 -0.0925
 2646SOL     OW10355   1.672   6.119   2.181  0.1320 -0.0457 -0.1620
 2646SOL    HW210356   1.664   6.168   2.100  1.0302 -0.9562 -0.8211
 2646SOL    HW310357   1.762   6.135   2.210  0.0505 -0.3245  0.2556
 2646SOL    MW410358   1.683   6.128   2.174  0.1079 -0.3855 -0.4612
 2647SOL     OW10359   0.985   3.702   2.821  0.1579  0.1211 -0.0019
 2647SOL    HW210360   0.929   3.694   2.744  1.1017  0.6494 -0.7751
 2647SOL    HW310361   1.040   3.778   2.802  0.0987  0.5340  1.4045
 2647SOL    MW410362   0.985   3.711   2.808  0.4908  0.4511  0.0482
 2648SOL     OW10363   0.119   4.862   6.416 -0.4155  0.0398 -0.0171
 2648SOL    HW210364   0.169   4.835   6.339  2.0044 -0.4626  1.6013
 2648SOL    HW310365   0.090   4.951   6.396  1.7056  0.6035 -0.8253
 2648SOL    MW410366   0.122   4.870   6.403  0.1704 -0.7645  0.8474
 2649SOL     OW10367   2.841   1.710   1.489  0.1141  0.1164 -0.3692
 2649SOL    HW210368   2.788   1.733   1.565 -0.1098  0.8461 -0.7399
 2649SOL    HW310369   2.811   1.768   1.420  0.6508 -0.2066 -0.8847
 2649SOL    MW410370   2.830   1.721   1.490  0.2225 -0.0178  0.3595
 2650SOL     OW10371   5.707   4.976   0.527  0.2876 -0.1249  0.0833
 2650SOL    HW210372   5.767   4.958   0.455 -1.2595  2.1699 -1.9187
 2650SOL    HW310373   5.622   4.947   0.496 -1.1518  4.2671 -0.8116
 2650SOL    MW410374   5.704   4.970   0.514  0.2925  0.3414 -0.0314
 2651SOL     OW10375   5.040   0.427   2.836 -0.0285  0.1736 -0.3977
 2651SOL    HW210376   5.088   0.404   2.757 -2.2053 -2.6010 -1.1039
 2651SOL    HW310377   5.093   0.391   2.908  0.7273  0.4738 -0.7969
 2651SOL    MW410378   5.053   0.419   2.835  0.8835 -0.1406  0.0978
 2652SOL     OW10379   6.228   5.776   4.938  0.3651  0.1312 -1.0238
 2652SOL    HW210380   6.275   5.846   4.893  0.1272  0.0927 -1.3349
 2652SOL    HW310381   6.242   5.794   5.031 -0.0678  0.8557 -1.0852
 2652SOL    MW410382   6.236   5.788   4.945 -1.1581 -0.2269 -0.4248
 2653SOL     OW10383   1.398   5.362   5.326 -0.1806  0.0362 -0.0190
 2653SOL    HW210384   1.491   5.350   5.305  0.6617  2.5403  1.6882
 2653SOL    HW310385   1.357   5.384   5.242  0.7781 -0.9112 -0.7663
 2653SOL    MW410386   1.405   5.364   5.312 -0.2820 -0.4570 -0.2288
 2654SOL     OW10387   4.380   0.753   4.186 -0.0539 -0.7957  0.5972
 2654SOL    HW210388   4.285   0.755   4.183 -0.0531  0.8295  1.1333
 2654SOL    HW310389   4.407   0.843   4.200  1.5988 -1.1429 -0.0142
 2654SOL    MW410390   4.371   0.765   4.187  0.0373  0.1439  0.3842
 2655SOL     OW10391   6.001   4.035   3.735  0.4065  0.3961 -0.0054
 2655SOL    HW210392   6.096   4.029   3.730  0.3676  0.3624 -0.8789
 2655SOL    HW310393   5.972   4.033   3.644 -0.3513  1.7885  0.1708
 2655SOL    MW410394   6.009   4.034   3.722  0.3175  0.3067 -0.1925
 2656SOL     OW10395   5.591   3.568   1.880 -0.2887 -0.6628  0.3552
 2656SOL    HW210396   5.579   3.488   1.932 -2.2144  0.7721  2.3083
 2656SOL    HW310397   5.645   3.624   1.935 -1.7410  0.5988  0.5637
 2656SOL    MW410398   5.596   3.565   1.894 -0.3338  0.4324 -0.4208
 2657SOL     OW10399   3.058   0.226   1.787  0.6751 -0.1009 -0.5353
 2657SOL    HW210400   3.048   0.138   1.824 -1.8967  1.6065  3.4323
 2657SOL    HW310401   3.125   0.267   1.842 -0.5650  1.3994 -0.0883
 2657SOL    MW410402   3.066   0.220   1.799 -0.1075 -0.8173 -0.4216
 2658SOL     OW10403   1.061   0.710   4.216  0.1956  0.7850 -0.0862
 2658SOL    HW210404   1.137   0.730   4.271  0.2585  1.5141 -0.4264
 2658SOL    HW310405   1.077   0.621   4.184  1.2923  1.2003 -0.7585
 2658SOL    MW410406   1.073   0.701   4.219 -0.1056 -0.0754 -0.2273
 2659SOL     OW10407   1.994   1.575   4.676  0.2016 -0.1513 -0.7161
 2659SOL    HW210408   2.025   1.488   4.702 -0.8056 -0.6511 -1.1242
 2659SOL    HW310409   1.903   1.561   4.649  0.1959  0.9318 -1.3276
 2659SOL    MW410410   1.986   1.562   4.676  0.2666 -0.0031 -0.0930
 2660SOL     OW10411   1.562   5.735   4.026  0.0789  0.3858 -0.2770
 2660SOL    HW210412   1.602   5.802   3.971  1.3240 -1.0565 -1.2119
 2660SOL    HW310413   1.530   5.669   3.964  1.9629 -1.5384  0.6624
 2660SOL    MW410414   1.563   5.735   4.011 -0.3618 -0.5876  0.0380
 2661SOL     OW10415   2.358   2.807   3.420 -0.3440 -0.8673  0.0429
 2661SOL    HW210416   2.302   2.884   3.413  1.0324  0.6171  3.2021
 2661SOL    HW310417   2.298   2.732   3.418 -2.0181  0.4342 -0.2923
 2661SOL    MW410418   2.343   2.807   3.419 -0.5724 -0.0972 -0.2403
 2662SOL     OW10419   2.141   6.279   5.044 -0.2838 -0.3925 -0.0650
 2662SOL    HW210420   2.072   6.255   4.981  0.4070 -0.9243 -0.6317
 2662SOL    HW310421   2.222   6.277   4.993  0.2758 -0.7130  0.8143
 2662SOL    MW410422   2.142   6.275   5.029 -0.7039  0.5354  0.3898
 2663SOL     OW10423   3.856   5.545   0.907  0.5110 -0.0331 -0.4149
 2663SOL    HW210424   3.923   5.493   0.861  1.3501 -1.7492  2.4506
 2663SOL    HW310425   3.903   5.622   0.939  0.4460  0.0999 -0.6368
 2663SOL    MW410426   3.871   5.548   0.905 -0.1101  0.3740  0.3548
 2664SOL     OW10427   3.297   3.776   4.140  0.1220 -0.2645  0.4641
 2664SOL    HW210428   3.270   3.794   4.230  1.7451 -0.7152  1.0862
 2664SOL    HW310429   3.385   3.813   4.134  0.6734 -1.6257 -0.4165
 2664SOL    MW410430   3.305   3.783   4.151 -0.0625 -0.1858  0.1663
 2665SOL     OW10431   5.111   0.899   4.360 -0.3548  0.0065  0.2575
 2665SOL    HW210432   5.156   0.944   4.432  0.2955  0.1067 -0.2010
 2665SOL    HW310433   5.050   0.839   4.403 -2.0522  2.0847  0.8936
 2665SOL    MW410434   5.109   0.897   4.375  0.1493 -0.8402  0.5147
 2666SOL     OW10435   2.340   2.485   1.595 -0.0027  0.0505  0.4166
 2666SOL    HW210436   2.436   2.480   1.599  0.0296  0.2991  0.0646
 2666SOL    HW310437   2.314   2.529   1.675  0.1401 -0.4661  0.7524
 2666SOL    MW410438   2.349   2.490   1.606  0.3777  0.2053 -0.0879
 2667SOL     OW10439   0.596   5.481   0.016  0.3342  0.4692  0.1551
 2667SOL    HW210440   0.558   5.546  -0.044 -0.1459  2.4037  2.3746
 2667SOL    HW310441   0.524   5.419   0.032 -0.4354  1.4882  0.7786
 2667SOL    MW410442   0.581   5.481   0.010  0.0292  0.3255  0.4266
 2668SOL     OW10443   0.253   0.731   2.088  0.4930  0.1703 -0.0621
 2668SOL    HW210444   0.225   0.791   2.157 -1.0733 -2.5326  1.8536
 2668SOL    HW310445   0.314   0.671   2.131  1.6068  0.0348 -1.7561
 2668SOL    MW410446   0.257   0.731   2.103 -0.5572  0.2454 -0.1432
 2669SOL     OW10447   2.653   1.510   0.154 -0.2681 -0.2372  0.1459
 2669SOL    HW210448   2.593   1.437   0.139 -0.1100 -0.0005 -1.9364
 2669SOL    HW310449   2.735   1.469   0.180 -0.6981 -0.6738  0.8446
 2669SOL    MW410450   2.656   1.495   0.155 -0.7072 -0.3434 -0.2579
 2670SOL     OW10451   2.139   4.592   2.412 -0.4045 -0.3279 -0.0618
 2670SOL    HW210452   2.105   4.504   2.427  0.3313 -0.2820  2.3472
 2670SOL    HW310453   2.230   4.578   2.386  0.3720 -0.3440  2.3586
 2670SOL    MW410454   2.147   4.579   2.411  0.0527  0.3510 -0.2584
 2671SOL     OW10455   0.665   2.611   6.113  0.4749  0.4808 -0.1627
 2671SOL    HW210456   0.726   2.642   6.179  0.8907  1.4619 -0.9724
 2671SOL    HW310457   0.706   2.636   6.030 -1.6753  2.5066 -0.7145
 2671SOL    MW410458   0.678   2.619   6.110 -0.4631  0.0649 -0.3110
 2672SOL     OW10459   4.297   2.636   1.916  0.6975  0.6446 -0.0342
 2672SOL    HW210460   4.264   2.574   1.982  1.5519  1.3278  1.0693
 2672SOL    HW310461   4.300   2.585   1.835 -2.0479  0.2601  0.0014
 2672SOL    MW410462   4.293   2.621   1.914  0.7616 -0.0979 -0.0837
 2673SOL     OW10463   5.958   3.873   0.021 -0.4284  0.2772 -0.3785
 2673SOL    HW210464   5.975   3.783   0.050  0.3909  0.9575  1.3744
 2673SOL    HW310465   5.947   3.865  -0.074 -0.5623 -1.6908 -0.2440
 2673SOL    MW410466   5.959   3.860   0.012  0.4742 -0.1193  0.4618
 2674SOL     OW10467   1.503   1.557   6.391 -0.0290  0.0421  0.4261
 2674SOL    HW210468   1.525   1.508   6.470  2.2944  2.7712  1.6768
 2674SOL    HW310469   1.577   1.543   6.332 -0.8304 -0.4203 -0.4973
 2674SOL    MW410470   1.515   1.549   6.394 -0.1439  0.0377 -0.1223
 2675SOL     OW10471   0.157   5.925   0.537  0.1722 -0.0506 -0.8629
 2675SOL    HW210472   0.099   5.849   0.542 -1.1971  1.0162  0.4512
 2675SOL    HW310473   0.130   5.971   0.458 -0.4258  0.1464 -0.5512
 2675SOL    MW410474   0.146   5.921   0.527 -0.0220  0.0394 -0.1893
 2676SOL     OW10475   2.262   2.510   5.390 -0.0281 -0.0760  0.7186
 2676SOL    HW210476   2.228   2.493   5.478  1.2313 -0.1973  1.1883
 2676SOL    HW310477   2.356   2.494   5.396  0.6011  2.7743  0.1280
 2676SOL    MW410478   2.270   2.506   5.402 -0.4132 -0.5432 -0.1728
 2677SOL     OW10479   3.132   4.399   6.126 -0.0312 -1.1823  0.3591
 2677SOL    HW210480   3.066   4.368   6.064  0.5318 -1.4492 -0.1072
 2677SOL    HW310481   3.087   4.395   6.211 -1.5131  1.2010 -0.2345
 2677SOL    MW410482   3.117   4.394   6.129 -0.2906 -0.1392 -0.4614
 2678SOL     OW10483   0.421   2.211   3.875  0.3694  0.0831  0.2723
 2678SOL    HW210484   0.404   2.130   3.922  0.0562 -0.5659 -0.9086
 2678SOL    HW310485   0.453   2.183   3.789 -0.0279  1.2023 -0.2628
 2678SOL    MW410486   0.423   2.197   3.870  0.2706  0.3990 -0.4448
 2679SOL     OW10487   0.772   1.407   4.191  0.0979  0.1175 -0.0219
 2679SOL    HW210488   0.774   1.342   4.261 -1.1277  0.0236 -0.0470
 2679SOL    HW310489   0.708   1.472   4.221 -2.3689 -1.1680 -2.0710
 2679SOL    MW410490   0.764   1.407   4.204  0.4865 -0.1176 -0.7193
 2680SOL     OW10491   6.171   5.100   3.276 -0.6408 -0.4141 -0.7229
 2680SOL    HW210492   6.105   5.117   3.344 -0.1419 -0.5527 -0.1979
 2680SOL    HW310493   6.147   5.160   3.205 -0.5732  0.4672 -0.0241
 2680SOL    MW410494   6.159   5.110   3.276 -0.0237  0.3111  0.3162
 2681SOL     OW10495   2.788   4.502   2.716 -0.2766 -0.1547  0.0152
 2681SOL    HW210496   2.847   4.438   2.676 -0.7400 -0.3075 -0.4356
 2681SOL    HW310497   2.792   4.578   2.659  1.4830  0.8612  1.3842
 2681SOL    MW410498   2.796   4.503   2.703  0.7360 -0.6751  0.1929
 2682SOL     OW10499   1.508   5.856   4.945  0.2354  0.4030  0.0618
 2682SOL    HW210500   1.437   5.810   4.900  0.1717 -0.0649  0.6235
 2682SOL    HW310501   1.480   5.858   5.037 -0.0241  2.0632 -0.0293
 2682SOL    MW410502   1.495   5.850   4.951 -0.4847 -0.3156  0.2099
 2683SOL     OW10503   0.550   2.933   5.500  0.4303 -0.0045 -0.2267
 2683SOL    HW210504   0.549   2.837   5.506  0.8743 -0.1580 -2.1509
 2683SOL    HW310505   0.533   2.952   5.408  3.6989  1.6510 -0.6243
 2683SOL    MW410506   0.547   2.922   5.489  1.0643 -0.0438  0.6028
 2684SOL     OW10507   5.787   3.381   6.430 -0.5926 -0.0938  0.2742
 2684SOL    HW210508   5.729   3.393   6.355 -1.5947 -1.9380  0.6852
 2684SOL    HW310509   5.834   3.463   6.438 -1.9406  0.8612 -1.1258
 2684SOL    MW410510   5.785   3.393   6.422  0.3218 -0.1209 -0.0070
 2685SOL     OW10511   5.283   1.110   3.387  0.4472 -0.3430 -0.2265
 2685SOL    HW210512   5.265   1.178   3.322 -0.2169 -0.7620 -0.4983
 2685SOL    HW310513   5.277   1.155   3.471 -1.5646 -0.3477 -0.3134
 2685SOL    MW410514   5.279   1.125   3.389  0.0899  0.2638  0.3712
 2686SOL     OW10515   5.049   0.220   2.140 -0.3274 -0.4794  0.4303
 2686SOL    HW210516   5.111   0.250   2.207 -0.4334  0.9313 -0.0884
 2686SOL    HW310517   5.056   0.124   2.143  1.8188 -0.3572  0.4266
 2686SOL    MW410518   5.058   0.211   2.150 -0.1337 -0.6277 -0.9778
 2687SOL     OW10519   0.239   1.701   6.113 -0.0723  0.1057 -0.2188
 2687SOL    HW210520   0.172   1.757   6.152  0.1164  0.8207 -0.9177
 2687SOL    HW310521   0.322   1.743   6.136  0.0786  0.0106 -0.5897
 2687SOL    MW410522   0.241   1.714   6.121  0.4145 -0.2903  0.0229
 2688SOL     OW10523   3.928   1.711   5.176 -0.4264  0.2507 -0.5189
 2688SOL    HW210524   3.853   1.719   5.117  0.1563 -0.0681 -1.3189
 2688SOL    HW310525   3.969   1.797   5.174 -0.8326  0.4624  0.0160
 2688SOL    MW410526   3.923   1.723   5.168  0.2751  0.6804  0.2584
 2689SOL     OW10527   4.880   1.057   3.123  0.6388  0.7940  0.6002
 2689SOL    HW210528   4.919   0.976   3.156  0.0771 -0.2652 -1.1483
 2689SOL    HW310529   4.785   1.043   3.133  0.3689  0.0229 -2.0611
 2689SOL    MW410530   4.872   1.044   3.128 -0.1375 -0.0778 -0.5481
 2690SOL     OW10531   0.399   3.265   3.043  0.1360 -0.2402  0.0787
 2690SOL    HW210532   0.370   3.308   2.962  0.6153 -3.1830 -1.7741
 2690SOL    HW310533   0.354   3.181   3.043  2.4839 -1.6003  1.2559
 2690SOL    MW410534   0.389   3.260   3.032  0.3255  0.3528 -0.1319
 2691SOL     OW10535   5.901   4.845   4.677  0.6106 -0.2315  0.0377
 2691SOL    HW210536   5.932   4.803   4.597 -2.7550 -1.0734 -0.9761
 2691SOL    HW310537   5.912   4.939   4.662 -1.0517 -0.3033 -1.9794
 2691SOL    MW410538   5.907   4.852   4.665 -0.1918  0.5453  0.1905
 2692SOL     OW10539   2.026   3.318   0.635  0.0395 -0.1586 -0.2195
 2692SOL    HW210540   2.092   3.341   0.700  1.4675  1.0580 -2.0023
 2692SOL    HW310541   1.965   3.261   0.682  0.1125  1.8644  2.5918
 2692SOL    MW410542   2.027   3.313   0.650 -0.4621 -0.0741  0.2187
 2693SOL     OW10543   0.120   6.283   4.792 -0.5482  0.1889 -0.1441
 2693SOL    HW210544   0.080   6.346   4.732  0.6459  0.1099 -1.0603
 2693SOL    HW310545   0.088   6.197   4.761  1.5146 -0.0263 -1.9347
 2693SOL    MW410546   0.110   6.280   4.780  0.4326 -0.2800 -0.7664
 2694SOL     OW10547   3.124   2.493   4.190  0.6397  0.5353  0.0964
 2694SOL    HW210548   3.103   2.551   4.116 -0.3472  1.4605  1.0531
 2694SOL    HW310549   3.059   2.423   4.185  0.5052  0.6565  0.1477
 2694SOL    MW410550   3.113   2.492   4.180 -0.6387 -0.4190  0.5007
 2695SOL     OW10551   3.282   1.298   1.185  0.5543  0.4630 -0.2346
 2695SOL    HW210552   3.198   1.300   1.231  1.5646  1.2039  1.7032
 2695SOL    HW310553   3.286   1.211   1.145 -1.1728  0.4780 -0.4830
 2695SOL    MW410554   3.272   1.287   1.186  0.2177 -0.1347  0.0915
 2696SOL     OW10555   5.126   1.486   2.435 -0.4562  0.0778 -0.0731
 2696SOL    HW210556   5.084   1.494   2.349  0.9522  2.4597 -0.6150
 2696SOL    HW310557   5.077   1.546   2.490 -0.9194 -0.9367  0.6443
 2696SOL    MW410558   5.114   1.495   2.431 -0.5806  0.0816  0.1085
 2697SOL     OW10559   6.225   5.227   3.625 -0.4821 -0.1508 -0.4701
 2697SOL    HW210560   6.198   5.138   3.602  0.6342 -0.5145 -0.4354
 2697SOL    HW310561   6.221   5.229   3.720 -1.1519  0.0611 -0.4949
 2697SOL    MW410562   6.221   5.216   3.634  0.7771  0.1409 -0.6405
 2698SOL     OW10563   4.666   4.410   2.358  0.6110 -0.0720  0.1008
 2698SOL    HW210564   4.621   4.366   2.286  0.5605  0.1103  0.0208
 2698SOL    HW310565   4.598   4.464   2.399  0.7444  0.1649  0.0122
 2698SOL    MW410566   4.651   4.411   2.354 -0.2110  0.6946 -0.4743
 2699SOL     OW10567   5.739   5.219   4.095 -1.0007  0.4183 -0.0027
 2699SOL    HW210568   5.772   5.302   4.060  2.7465 -1.5998 -1.8537
 2699SOL    HW310569   5.776   5.214   4.183  1.1168 -0.3774 -0.8793
 2699SOL    MW410570   5.749   5.230   4.102  0.1270  0.1629 -0.2359
 2700SOL     OW10571   4.059   3.495   5.129 -0.1599  0.0755 -0.1368
 2700SOL    HW210572   4.027   3.535   5.048  0.0858 -0.3936 -0.4731
 2700SOL    HW310573   4.154   3.493   5.118 -0.0864  0.4967  0.3983
 2700SOL    MW410574   4.067   3.500   5.117 -0.8989 -0.2063  0.1113
 2701SOL     OW10575   0.144   2.243   5.325 -0.0943 -0.5495 -0.0312
 2701SOL    HW210576   0.095   2.166   5.297  1.2383 -2.5478  2.7043
 2701SOL    HW310577   0.099   2.273   5.404  0.0380  0.8529 -0.4585
 2701SOL    MW410578   0.132   2.237   5.332  0.6506 -0.0325  0.1920
 2702SOL     OW10579   1.511   3.598   3.193  0.4069  0.3295 -0.0369
 2702SOL    HW210580   1.438   3.537   3.180 -0.5318  1.2869  0.6290
 2702SOL    HW310581   1.555   3.600   3.107 -1.5680  1.2893 -1.0808
 2702SOL    MW410582   1.507   3.590   3.180 -0.1028  0.3570  0.2102
 2703SOL     OW10583   1.865   0.449   5.273  0.8504 -0.0366  0.1501
 2703SOL    HW210584   1.794   0.433   5.336  0.9539  0.7018  0.4638
 2703SOL    HW310585   1.868   0.370   5.220  0.2363 -0.3512  0.5717
 2703SOL    MW410586   1.856   0.437   5.275 -0.1537  0.2747 -0.1686
 2704SOL     OW10587   5.287   1.897   2.521  0.2043  0.2660  0.2140
 2704SOL    HW210588   5.344   1.931   2.452  0.3800  0.4880  0.4687
 2704SOL    HW310589   5.297   1.802   2.516 -0.8064  0.2012 -0.9532
 2704SOL    MW410590   5.296   1.889   2.511 -0.2595 -0.8284  0.0723
 2705SOL     OW10591   2.673   1.436   0.437  0.1519  0.2800  0.2876
 2705SOL    HW210592   2.662   1.471   0.349 -1.0559  1.1507  0.7666
 2705SOL    HW310593   2.646   1.344   0.431  2.9825 -0.5862 -0.8902
 2705SOL    MW410594   2.668   1.428   0.425 -0.0873  0.4291 -0.1805
 2706SOL     OW10595   3.241   1.162   2.647  0.2194  0.6884  0.2102
 2706SOL    HW210596   3.187   1.087   2.672  0.6621  0.5925  0.8981
 2706SOL    HW310597   3.297   1.177   2.723  2.0588 -0.0079 -0.9679
 2706SOL    MW410598   3.241   1.154   2.660 -0.1377  0.1046 -0.0731
 2707SOL     OW10599   0.794   1.361   0.422 -0.1503  0.2379  0.2614
 2707SOL    HW210600   0.870   1.331   0.472  0.7893  1.5016 -0.3691
 2707SOL    HW310601   0.769   1.444   0.463 -0.3010  0.5353 -0.4167
 2707SOL    MW410602   0.801   1.368   0.434  0.7501 -0.8863 -0.2222
 2708SOL     OW10603   2.167   0.130   1.881 -0.5487 -0.4436  0.0670
 2708SOL    HW210604   2.239   0.179   1.921 -0.9885  0.9556 -0.7606
 2708SOL    HW310605   2.115   0.197   1.835 -1.4650 -1.6316 -0.7027
 2708SOL    MW410606   2.169   0.146   1.880  0.3328 -0.2244 -0.0489
 2709SOL     OW10607   2.841   5.105   2.396  0.0511  0.6117  0.1378
 2709SOL    HW210608   2.885   5.187   2.372 -0.3197  1.2538  1.5487
 2709SOL    HW310609   2.904   5.037   2.373  0.5394  1.3062 -0.6632
 2709SOL    MW410610   2.855   5.107   2.390  0.0839  0.3828 -0.1693
 2710SOL     OW10611   3.075   1.991   3.307  0.8171 -0.4863  0.1566
 2710SOL    HW210612   3.053   1.983   3.400  0.4551 -1.6277 -0.0209
 2710SOL    HW310613   3.100   1.903   3.281  1.7102 -0.0124 -0.6412
 2710SOL    MW410614   3.076   1.978   3.316 -0.5508  0.1441  0.3483
 2711SOL     OW10615   3.938   5.119   1.743  0.4903 -0.5326  0.6890
 2711SOL    HW210616   4.002   5.184   1.772 -1.3648  1.0396  1.5465
 2711SOL    HW310617   3.976   5.080   1.665  0.5736  3.6304 -1.6253
 2711SOL    MW410618   3.951   5.123   1.737  0.3628 -0.3300  0.1509
 2712SOL     OW10619   0.847   2.335   0.359  0.6139 -0.1615  0.1509
 2712SOL    HW210620   0.841   2.246   0.395  1.9256  0.0748  1.0285
 2712SOL    HW310621   0.830   2.392   0.434  1.5121  0.3230 -0.0001
 2712SOL    MW410622   0.844   2.331   0.374 -0.3093  0.1845 -0.9080
 2713SOL     OW10623   2.885   3.600   4.512  0.2128  0.5209 -0.1362
 2713SOL    HW210624   2.866   3.536   4.581  0.5684 -0.5639 -1.0070
 2713SOL    HW310625   2.892   3.683   4.558 -1.2540  0.1159  0.9169
 2713SOL    MW410626   2.884   3.602   4.527  0.1908 -0.6035  0.0895
 2714SOL     OW10627   5.413   3.697   2.252 -0.4516  0.0341 -0.0191
 2714SOL    HW210628   5.386   3.748   2.328 -1.1322  0.4763 -0.5436
 2714SOL    HW310629   5.380   3.609   2.270  2.6912 -0.8956  1.9545
 2714SOL    MW410630   5.405   3.692   2.265  0.2188  0.6365 -0.1614
 2715SOL     OW10631   3.658   5.444   0.298  0.3840 -0.9439  0.0465
 2715SOL    HW210632   3.578   5.391   0.307  0.5370 -1.4661 -1.3706
 2715SOL    HW310633   3.730   5.381   0.306  0.6104 -0.7199 -0.2102
 2715SOL    MW410634   3.657   5.429   0.300  0.1106 -0.6643 -0.0183
 2716SOL     OW10635   1.441   5.586   0.796  0.2135 -0.1377 -0.9027
 2716SOL    HW210636   1.372   5.587   0.729  0.2100  1.8655 -0.9064
 2716SOL    HW310637   1.474   5.675   0.798  1.7182 -0.6879  0.2554
 2716SOL    MW410638   1.436   5.598   0.787 -0.2613  0.5504  0.5683
 2717SOL     OW10639   6.349   1.556   3.937 -0.0375 -0.6016  0.5235
 2717SOL    HW210640   6.291   1.517   4.002  0.2903  1.8853  2.4671
 2717SOL    HW310641   6.329   1.649   3.940  1.1451 -0.2080 -1.8116
 2717SOL    MW410642   6.339   1.563   3.946 -0.0274 -0.9049  0.2515
 2718SOL     OW10643   5.153   5.224   0.089 -0.1948 -0.3689 -0.5741
 2718SOL    HW210644   5.059   5.215   0.106 -0.3178  2.9707  1.1951
 2718SOL    HW310645   5.159   5.262   0.002 -0.5422  0.3753 -0.2737
 2718SOL    MW410646   5.142   5.228   0.080 -0.3470 -0.6920  0.1777
 2719SOL     OW10647   3.007   3.922   4.237  0.3510  0.0277  0.6125
 2719SOL    HW210648   2.993   3.970   4.156  0.5217  0.6105  0.9217
 2719SOL    HW310649   2.962   3.973   4.304  1.7269  0.5554  1.1825
 2719SOL    MW410650   3.000   3.935   4.235  0.1400 -0.0686  0.0103
 2720SOL     OW10651   2.552   1.092   0.760 -0.3137  0.1037 -0.3691
 2720SOL    HW210652   2.474   1.037   0.758  0.4696 -1.0397 -2.3575
 2720SOL    HW310653   2.592   1.080   0.674  1.0916  2.0847 -0.0627
 2720SOL    MW410654   2.547   1.083   0.748  0.2733 -0.3564 -0.0043
 2721SOL     OW10655   1.612   1.110   4.001 -0.5033  0.1064 -0.5170
 2721SOL    HW210656   1.653   1.046   3.943  0.8108  0.2949  0.1812
 2721SOL    HW310657   1.679   1.133   4.065 -1.5794  0.7055  0.4534
 2721SOL    MW410658   1.626   1.105   4.002 -0.2424  0.5252 -0.2710
 2722SOL     OW10659   3.413   2.721   5.902 -0.4684  0.3623 -0.1526
 2722SOL    HW210660   3.498   2.683   5.923 -0.9162 -0.3726  0.3870
 2722SOL    HW310661   3.403   2.709   5.808 -0.2909 -0.2095 -0.0997
 2722SOL    MW410662   3.423   2.715   5.892 -0.1237 -0.2006 -0.1318
 2723SOL     OW10663   1.515   0.731   4.192  0.2746  0.4072 -0.0765
 2723SOL    HW210664   1.435   0.770   4.158  0.7846  1.5693  0.0238
 2723SOL    HW310665   1.488   0.644   4.223 -0.5041 -0.0611 -1.9814
 2723SOL    MW410666   1.501   0.724   4.192  0.1659  0.1396  0.7472
 2724SOL     OW10667   4.353   5.604   6.029 -0.1469  0.0852  0.1032
 2724SOL    HW210668   4.267   5.565   6.047  0.4481 -0.3374  2.2505
 2724SOL    HW310669   4.380   5.643   6.112  0.6948  2.3868 -1.1481
 2724SOL    MW410670   4.345   5.604   6.042  0.1701  0.2926 -0.7667
 2725SOL     OW10671   3.497   6.221   5.065 -0.4420 -0.1838  0.3694
 2725SOL    HW210672   3.499   6.155   4.995 -2.0174  0.4403 -0.3202
 2725SOL    HW310673   3.545   6.295   5.030 -1.9834  0.4672 -0.4725
 2725SOL    MW410674   3.504   6.222   5.051  0.0523  0.4094  0.6286
 2726SOL     OW10675   5.832   4.255   0.732  0.5320 -0.1259 -0.1241
 2726SOL    HW210676   5.748   4.215   0.756  0.5532 -0.4280 -0.5449
 2726SOL    HW310677   5.833   4.339   0.778  0.7774 -0.8909  1.3237
 2726SOL    MW410678   5.821   4.261   0.741  0.0589  0.1754  0.0685
 2727SOL     OW10679   0.468   3.511   6.034 -0.0804  0.3837  0.5073
 2727SOL    HW210680   0.487   3.569   5.960  0.0380  1.6582  1.4968
 2727SOL    HW310681   0.498   3.425   6.006 -0.5024  0.7416 -1.1097
 2727SOL    MW410682   0.474   3.507   6.021 -0.1862  0.0388 -0.0641
 2728SOL     OW10683   2.475   5.651   4.801  0.0009  0.1347 -0.1564
 2728SOL    HW210684   2.418   5.649   4.724 -0.4667  0.3305  0.1816
 2728SOL    HW310685   2.513   5.563   4.804  0.4084  0.2744 -0.8908
 2728SOL    MW410686   2.472   5.639   4.791 -0.0761  0.7769 -0.4226
 2729SOL     OW10687   1.009   1.928   0.876  0.3552  0.7711  1.3623
 2729SOL    HW210688   0.913   1.922   0.870  0.4783 -0.2282 -0.2866
 2729SOL    HW310689   1.032   1.876   0.952 -0.2846 -1.1130  0.3448
 2729SOL    MW410690   0.999   1.921   0.885  1.1057  0.0237 -0.0963
 2730SOL     OW10691   0.104   3.918   6.365  0.4498 -0.0882  0.2234
 2730SOL    HW210692   0.138   3.896   6.452 -0.5590 -0.1014  0.6241
 2730SOL    HW310693   0.011   3.898   6.370  0.0428  1.5505 -0.3227
 2730SOL    MW410694   0.096   3.912   6.377 -0.2680  0.1407 -0.2879
 2731SOL     OW10695   5.756   3.054   6.250 -0.1733 -0.2949  0.1497
 2731SOL    HW210696   5.670   3.087   6.277 -0.3837 -0.7835  0.0971
 2731SOL    HW310697   5.759   2.965   6.284  0.5213 -0.1171  0.5878
 2731SOL    MW410698   5.745   3.047   6.258 -0.0046 -0.5077 -0.5142
 2732SOL     OW10699   5.680   3.694   4.490  0.2212 -0.2040  0.1692
 2732SOL    HW210700   5.688   3.601   4.514 -2.3144 -0.6982 -0.6549
 2732SOL    HW310701   5.587   3.714   4.501  0.7337  2.3299  0.5140
 2732SOL    MW410702   5.669   3.684   4.495  0.0186  0.4135 -0.9382
 2733SOL     OW10703   4.317   1.372   2.758  0.1664  0.0143  0.1055
 2733SOL    HW210704   4.304   1.389   2.851 -0.1012 -0.2665  0.1207
 2733SOL    HW310705   4.247   1.311   2.735  0.8458 -0.7247 -0.0473
 2733SOL    MW410706   4.306   1.366   2.767 -0.0787  0.4905 -0.2535
 2734SOL     OW10707   3.075   0.620   0.796 -0.2877  0.6966 -0.1889
 2734SOL    HW210708   3.096   0.713   0.798  0.6262  0.4885  0.1515
 2734SOL    HW310709   3.107   0.590   0.710 -0.5001  0.6719 -0.2612
 2734SOL    MW410710   3.082   0.628   0.785  0.8311  0.1520  0.2374
 2735SOL     OW10711   1.137   5.195   0.387  0.4000  0.3709  0.6632
 2735SOL    HW210712   1.049   5.230   0.400 -0.2749  0.7970 -3.6274
 2735SOL    HW310713   1.194   5.271   0.394 -0.1721  0.9992 -0.9578
 2735SOL    MW410714   1.133   5.210   0.389  0.3068  0.0001 -0.3867
 2736SOL     OW10715   2.568   0.987   2.377 -0.1305  0.1597  0.2903
 2736SOL    HW210716   2.501   0.926   2.409 -0.2877 -0.1888 -0.6506
 2736SOL    HW310717   2.518   1.052   2.327  0.2464 -0.3502 -0.7923
 2736SOL    MW410718   2.552   0.987   2.374  0.6372 -0.6408 -0.8106
 2737SOL     OW10719   2.985   3.208   4.691  0.4681  0.7183  0.6758
 2737SOL    HW210720   2.981   3.116   4.663  0.3891  0.8628  0.1905
 2737SOL    HW310721   3.070   3.238   4.659  0.1926  1.0068  0.1922
 2737SOL    MW410722   2.996   3.200   4.683 -0.2399 -0.3707  0.3295
 2738SOL     OW10723   0.862   2.358   2.969 -0.5243 -0.6128 -0.1050
 2738SOL    HW210724   0.941   2.321   3.009 -1.0253 -0.1028  1.4511
 2738SOL    HW310725   0.883   2.450   2.954 -1.3470 -0.0351  1.9481
 2738SOL    MW410726   0.875   2.365   2.972  0.0398  0.0959 -0.2228
 2739SOL     OW10727   0.296   2.849   1.671  0.7651  0.7068  0.1416
 2739SOL    HW210728   0.376   2.805   1.642  0.1773 -0.3843  0.1239
 2739SOL    HW310729   0.309   2.941   1.648  2.1610  0.6110  0.4711
 2739SOL    MW410730   0.308   2.856   1.665  0.2320  0.3091 -0.6256
 2740SOL     OW10731   2.494   1.032   3.437 -0.0055  0.2615  0.3210
 2740SOL    HW210732   2.485   1.075   3.351 -1.1874  1.4753  1.0046
 2740SOL    HW310733   2.556   1.088   3.485  2.0502 -1.3829 -0.2779
 2740SOL    MW410734   2.501   1.045   3.432 -0.1048  0.3796 -0.7213
 2741SOL     OW10735   1.583   0.818   2.385  0.0308  0.2509 -0.0100
 2741SOL    HW210736   1.637   0.767   2.324 -1.1624 -0.0926 -0.8244
 2741SOL    HW310737   1.575   0.762   2.462 -0.2604 -0.2885 -0.4194
 2741SOL    MW410738   1.589   0.804   2.387  0.2425 -0.0221  0.1372
 2742SOL     OW10739   4.476   3.282   0.581  0.4698 -0.3256 -0.1803
 2742SOL    HW210740   4.551   3.336   0.556  2.7384 -3.0534  0.2097
 2742SOL    HW310741   4.435   3.257   0.499  1.1260 -0.2856 -0.5224
 2742SOL    MW410742   4.480   3.286   0.567 -0.4128 -0.4477  0.2194
 2743SOL     OW10743   4.547   0.989   1.386  0.3266 -0.7409 -0.1409
 2743SOL    HW210744   4.546   0.997   1.291  2.5094  0.6553 -0.1269
 2743SOL    HW310745   4.624   0.935   1.405  0.1825 -0.6163  0.8501
 2743SOL    MW410746   4.557   0.983   1.376 -0.5004  0.4283 -0.6974
 2744SOL     OW10747   6.405   0.615   2.208  0.7693 -0.2388  0.6764
 2744SOL    HW210748   6.384   0.565   2.287  0.9476 -1.0921  0.1987
 2744SOL    HW310749   6.348   0.578   2.140  1.6800 -0.5526  0.0594
 2744SOL    MW410750   6.394   0.603   2.209  0.1774 -0.4958  0.4887
 2745SOL     OW10751   1.638   6.103   4.192 -0.2064  0.8763 -0.3312
 2745SOL    HW210752   1.662   6.126   4.103 -0.6272 -1.2335 -1.0389
 2745SOL    HW310753   1.664   6.179   4.244  0.9090  1.7703 -2.1002
 2745SOL    MW410754   1.645   6.116   4.187 -0.5122  0.7946  0.1237
 2746SOL     OW10755   1.979   1.014   0.514  0.1681 -0.0737  0.1612
 2746SOL    HW210756   1.959   0.940   0.572  0.2898  0.0409  0.3516
 2746SOL    HW310757   1.950   0.986   0.427 -1.0184  0.1624  0.4601
 2746SOL    MW410758   1.972   1.001   0.510 -0.5114  0.3039  0.5505
 2747SOL     OW10759   5.729   6.360   3.817  0.3896  0.1337 -0.2078
 2747SOL    HW210760   5.657   6.356   3.754 -0.0231  2.6719  0.0047
 2747SOL    HW310761   5.775   6.277   3.806 -1.8330 -1.0586 -1.2141
 2747SOL    MW410762   5.725   6.348   3.807 -0.3751 -0.6405 -0.0380
 2748SOL     OW10763   3.550   2.326   6.247  0.1160  0.1007  0.0958
 2748SOL    HW210764   3.577   2.366   6.329  0.7569  2.4480 -1.1703
 2748SOL    HW310765   3.468   2.369   6.224  1.8198  2.4219 -2.3000
 2748SOL    MW410766   3.543   2.337   6.255 -0.4263  0.1207 -0.7232
 2749SOL     OW10767   5.875   3.831   2.617 -0.5604  0.3378 -0.7251
 2749SOL    HW210768   5.790   3.787   2.612  0.5412 -1.8848 -1.0210
 2749SOL    HW310769   5.878   3.886   2.538 -0.7446 -1.4737 -2.0552
 2749SOL    MW410770   5.864   3.833   2.606  0.1491 -0.1854  0.0371
 2750SOL     OW10771   3.171   2.553   6.010  0.5805  0.2979  0.0272
 2750SOL    HW210772   3.245   2.595   5.966  1.9750 -2.1212 -0.0830
 2750SOL    HW310773   3.094   2.596   5.973  1.8683  2.7552 -0.0128
 2750SOL    MW410774   3.171   2.564   5.999 -0.0874  0.0948 -0.2866
 2751SOL     OW10775   2.688   2.879   0.547  0.2847 -0.3368 -0.0453
 2751SOL    HW210776   2.646   2.800   0.582 -0.1105 -0.1746 -0.1564
 2751SOL    HW310777   2.723   2.851   0.463  0.6716 -0.5536  0.1832
 2751SOL    MW410778   2.687   2.865   0.541 -0.4524 -0.8514  0.0445
 2752SOL     OW10779   4.334   3.291   5.930  0.0101 -0.1909 -0.4988
 2752SOL    HW210780   4.254   3.343   5.941  0.1347  0.0150 -0.5616
 2752SOL    HW310781   4.303   3.206   5.898 -0.2447 -0.3632  0.1870
 2752SOL    MW410782   4.319   3.286   5.927  0.3732 -0.4161 -0.6708
 2753SOL     OW10783  -0.001   5.306   0.564  0.0053 -0.5081 -0.1296
 2753SOL    HW210784  -0.060   5.295   0.490 -1.1670 -1.3397  0.8878
 2753SOL    HW310785   0.037   5.219   0.577 -1.1196 -0.8279  1.2836
 2753SOL    MW410786  -0.004   5.293   0.556  0.1510 -0.0146  0.2223
 2754SOL     OW10787   0.794   1.383   5.197 -0.0334 -0.0315  1.0994
 2754SOL    HW210788   0.741   1.460   5.221 -1.1330  0.2291 -1.7629
 2754SOL    HW310789   0.730   1.312   5.190 -0.2296  0.3048 -2.5182
 2754SOL    MW410790   0.778   1.384   5.199 -0.2300  0.0054 -0.0276
 2755SOL     OW10791   0.524   1.648   3.937 -0.5137 -0.5753  0.3319
 2755SOL    HW210792   0.534   1.553   3.926  1.6390 -0.2982 -0.7068
 2755SOL    HW310793   0.430   1.661   3.949 -0.8220 -2.8694  0.9637
 2755SOL    MW410794   0.513   1.637   3.937  0.4303 -0.3739  0.3560
 2756SOL     OW10795   1.741   0.711   1.329 -0.3833  0.1143  0.2382
 2756SOL    HW210796   1.691   0.633   1.351  0.1641 -0.9681 -2.0980
 2756SOL    HW310797   1.833   0.683   1.334 -0.1197  0.9830  0.5763
 2756SOL    MW410798   1.747   0.697   1.333  0.8492  0.2238 -0.0617
 2757SOL     OW10799   0.295   2.744   5.298 -0.0808 -0.2872 -0.1655
 2757SOL    HW210800   0.351   2.722   5.373 -1.0153  1.0584  0.9873
 2757SOL    HW310801   0.260   2.660   5.269  0.2324 -0.8379  0.9646
 2757SOL    MW410802   0.298   2.730   5.304  0.3714  0.1349  0.0229
 2758SOL     OW10803   6.170   6.213   5.764 -0.4256  0.2870 -0.4183
 2758SOL    HW210804   6.159   6.302   5.798  0.4520  0.0823  0.4398
 2758SOL    HW310805   6.084   6.173   5.776  0.3911 -0.6798  4.3985
 2758SOL    MW410806   6.157   6.220   5.770 -0.2756 -0.4620  0.1261
 2759SOL     OW10807   3.059   1.452   3.211 -0.0038 -0.0934  0.2074
 2759SOL    HW210808   3.111   1.419   3.284 -0.0956 -1.4315 -0.3168
 2759SOL    HW310809   2.970   1.423   3.229  0.1533 -1.3811 -0.9613
 2759SOL    MW410810   3.055   1.444   3.223 -0.7487  0.2773 -0.0508
 2760SOL     OW10811   4.858   4.070   1.380  0.1034 -0.1798 -0.7404
 2760SOL    HW210812   4.952   4.075   1.394 -0.1338  3.2235  0.6472
 2760SOL    HW310813   4.841   4.133   1.309 -1.2407  0.5802  0.1996
 2760SOL    MW410814   4.868   4.079   1.373 -0.2760  0.2865  0.5650
 2761SOL     OW10815   2.198   0.532   2.955 -0.0517  0.5362  0.4315
 2761SOL    HW210816   2.212   0.588   3.031  0.5362 -0.2807  0.9457
 2761SOL    HW310817   2.263   0.462   2.964 -0.5919 -0.0929 -0.3251
 2761SOL    MW410818   2.209   0.530   2.966  0.0972  0.4432  0.5008
 2762SOL     OW10819   3.980   2.392   2.204  0.1144 -0.0627 -0.5119
 2762SOL    HW210820   4.004   2.323   2.266 -0.0345  0.5045  0.1871
 2762SOL    HW310821   3.906   2.355   2.156  0.7053 -0.7964 -0.8773
 2762SOL    MW410822   3.973   2.378   2.206  0.0583  0.4034 -0.4068
 2763SOL     OW10823   3.859   6.290   1.349  0.4302  0.2901  0.0589
 2763SOL    HW210824   3.920   6.359   1.323 -1.9308  2.9611  1.0700
 2763SOL    HW310825   3.818   6.261   1.267 -0.4787  2.1013 -0.1620
 2763SOL    MW410826   3.861   6.295   1.334 -0.2798  0.2071 -0.5216
 2764SOL     OW10827   3.761   0.759   0.456  0.8491 -0.4122  0.2948
 2764SOL    HW210828   3.856   0.761   0.447  0.9883 -0.3039  1.5675
 2764SOL    HW310829   3.745   0.700   0.531 -0.0738 -0.3376  0.1712
 2764SOL    MW410830   3.771   0.751   0.465 -0.0488 -0.0788 -0.1758
 2765SOL     OW10831   5.078   1.047   6.373  0.1621  0.1975 -0.2178
 2765SOL    HW210832   5.054   0.990   6.300 -0.1293  0.7915 -0.5837
 2765SOL    HW310833   5.023   1.124   6.364 -0.3604  0.0000  1.0110
 2765SOL    MW410834   5.068   1.049   6.362  0.2851  0.7592  0.2681
 2766SOL     OW10835   4.599   5.692   1.947  0.2331  0.1967 -0.6130
 2766SOL    HW210836   4.541   5.645   2.007  0.4008  2.5589  1.5525
 2766SOL    HW310837   4.685   5.654   1.963  0.1044  0.1083 -0.1086
 2766SOL    MW410838   4.602   5.681   1.957  0.3016  0.8512 -0.0473
 2767SOL     OW10839   2.256   1.123   2.546  0.3703 -0.1804  0.5594
 2767SOL    HW210840   2.273   1.149   2.637  1.0402  0.4268  0.2767
 2767SOL    HW310841   2.294   1.035   2.540 -1.6466 -1.1743  1.4434
 2767SOL    MW410842   2.264   1.115   2.557  0.1953  0.0069 -0.3249
 2768SOL     OW10843   1.444   1.404   3.045 -0.4679  0.0683  0.2346
 2768SOL    HW210844   1.441   1.311   3.069  0.4876  0.3541  1.5735
 2768SOL    HW310845   1.478   1.448   3.123 -0.0644  1.4489 -0.6798
 2768SOL    MW410846   1.448   1.397   3.059 -0.2788 -0.3233 -0.3104
 2769SOL     OW10847   3.476   2.337   5.926 -0.4603  0.1718  0.3863
 2769SOL    HW210848   3.517   2.422   5.945 -0.3481 -0.0525  1.1959
 2769SOL    HW310849   3.545   2.273   5.942 -0.1038 -0.0086 -1.6229
 2769SOL    MW410850   3.491   2.340   5.931  0.5417 -0.1104 -0.3465
 2770SOL     OW10851   1.642   3.120   1.150 -0.9571  0.4498  0.5059
 2770SOL    HW210852   1.671   3.108   1.240  0.2198 -1.7477 -0.0607
 2770SOL    HW310853   1.697   3.190   1.115 -1.0799  0.9673  1.3502
 2770SOL    MW410854   1.653   3.127   1.157 -0.2552  0.0455  0.1495
 2771SOL     OW10855   4.233   4.457   5.319 -0.0321  0.3867 -0.4357
 2771SOL    HW210856   4.316   4.503   5.308 -0.3500  1.0062 -0.2820
 2771SOL    HW310857   4.179   4.517   5.370 -0.1126 -0.5615  0.6367
 2771SOL    MW410858   4.237   4.471   5.324  0.1046 -0.1353 -0.0805
 2772SOL     OW10859   4.897   3.759   0.554  0.4911  0.0513 -0.2898
 2772SOL    HW210860   4.815   3.807   0.544  0.4327  0.1559  0.6106
 2772SOL    HW310861   4.895   3.727   0.644  0.9875 -0.7934 -0.5672
 2772SOL    MW410862   4.885   3.761   0.565  0.2448 -0.0324 -0.5680
 2773SOL     OW10863   1.125   1.457   4.356  0.2075  0.0638  0.4073
 2773SOL    HW210864   1.170   1.468   4.272 -1.3393 -0.4177 -0.5301
 2773SOL    HW310865   1.138   1.541   4.401 -0.2260  0.9007 -0.9649
 2773SOL    MW410866   1.133   1.470   4.351  0.2988 -0.0336 -0.4001
 2774SOL     OW10867   0.139   2.952   2.268  0.0553  0.1606  0.5005
 2774SOL    HW210868   0.183   3.030   2.234 -1.7369  1.0732  0.1629
 2774SOL    HW310869   0.046   2.968   2.252 -0.3318 -2.3081 -0.0980
 2774SOL    MW410870   0.132   2.965   2.262 -0.4658  0.1225  0.0576
 2775SOL     OW10871   1.150   0.066   0.357 -0.2235 -0.1732  0.2401
 2775SOL    HW210872   1.067   0.086   0.314 -0.1431  0.9762  0.5740
 2775SOL    HW310873   1.176   0.149   0.398  1.0280 -0.5441  0.2392
 2775SOL    MW410874   1.143   0.080   0.357 -0.0369 -0.3599  0.0090
 2776SOL     OW10875   0.672   4.409   0.198  0.0120  0.3740  0.0020
 2776SOL    HW210876   0.734   4.379   0.132  0.2461 -0.5466  0.6202
 2776SOL    HW310877   0.642   4.329   0.240 -3.5957  0.4914 -1.9798
 2776SOL    MW410878   0.676   4.394   0.195  0.0365  0.5713  0.0989
 2777SOL     OW10879   0.947   0.998   4.163 -0.7574 -0.2955  0.2502
 2777SOL    HW210880   0.945   0.903   4.173 -1.9057 -0.3914 -0.7144
 2777SOL    HW310881   0.921   1.014   4.072 -0.1389  0.9308  0.2578
 2777SOL    MW410882   0.943   0.988   4.152 -0.3664 -0.0456  0.4040
 2778SOL     OW10883   5.294   2.355   1.367  0.2956 -0.5232 -0.6646
 2778SOL    HW210884   5.258   2.358   1.278  1.8357 -1.6962 -1.3893
 2778SOL    HW310885   5.373   2.409   1.362  1.0626 -1.5901 -0.3621
 2778SOL    MW410886   5.300   2.363   1.354 -0.0832  0.2103  0.3472
 2779SOL     OW10887   4.700   3.937   4.036 -0.1526 -0.1511 -0.1741
 2779SOL    HW210888   4.751   3.954   3.957 -0.1182 -3.2155 -0.9142
 2779SOL    HW310889   4.763   3.948   4.108  0.4649  0.0917 -0.7473
 2779SOL    MW410890   4.715   3.941   4.035 -0.3310 -0.0072 -0.5249
 2780SOL     OW10891   0.072   5.902   3.684 -0.3456 -0.3764 -0.1809
 2780SOL    HW210892   0.033   5.876   3.767  0.8039 -2.9859 -0.3775
 2780SOL    HW310893   0.065   5.825   3.629  2.0670  0.1321 -1.3145
 2780SOL    MW410894   0.066   5.889   3.688 -0.4530  0.7909 -0.1620
 2781SOL     OW10895   4.313   0.658   5.774  0.0801 -0.5046  0.0722
 2781SOL    HW210896   4.303   0.735   5.831 -0.0439  0.6192 -1.4150
 2781SOL    HW310897   4.393   0.616   5.806  1.2933  1.3652 -0.2964
 2781SOL    MW410898   4.322   0.663   5.786  0.0119  0.5351 -0.8319
 2782SOL     OW10899   1.986   5.001   5.524  0.2111 -0.0928  0.6547
 2782SOL    HW210900   2.015   5.022   5.435  0.5674 -0.4549  0.6835
 2782SOL    HW310901   2.067   4.991   5.574  0.0099  0.2606  1.0560
 2782SOL    MW410902   2.001   5.002   5.519  0.2891  0.0800  0.1562
 2783SOL     OW10903   0.733   4.959   5.111  0.3619 -0.0498  0.7877
 2783SOL    HW210904   0.639   4.970   5.093  0.4176  0.0208  0.5294
 2783SOL    HW310905   0.766   4.913   5.034  0.6248  0.3339  0.6708
 2783SOL    MW410906   0.725   4.954   5.098  0.3113  0.3984  0.8678
 2784SOL     OW10907   4.634   1.203   6.379  0.1891 -0.6485  0.0299
 2784SOL    HW210908   4.721   1.233   6.353  0.4448 -1.8927 -0.6391
 2784SOL    HW310909   4.650   1.145   6.454 -0.1415 -0.3244  0.3567
 2784SOL    MW410910   4.648   1.199   6.386 -0.3708  0.3697  0.1332
 2785SOL     OW10911   1.341   6.165   2.533 -0.1608  0.2729  0.0097
 2785SOL    HW210912   1.381   6.252   2.528  1.5413 -0.3008  1.9487
 2785SOL    HW310913   1.398   6.109   2.481 -0.3483  0.0477  0.0447
 2785SOL    MW410914   1.354   6.169   2.526 -0.0216  0.1931  0.7258
 2786SOL     OW10915   5.254   1.199   0.419  0.0601  0.2207  0.5886
 2786SOL    HW210916   5.256   1.109   0.385 -1.2922  0.6345 -0.6822
 2786SOL    HW310917   5.346   1.225   0.424  0.3804 -0.2037 -1.9438
 2786SOL    MW410918   5.266   1.191   0.415 -0.4435 -0.2899  0.6051
 2787SOL     OW10919   4.980   3.606   3.139  0.1116  0.7660 -0.0664
 2787SOL    HW210920   5.072   3.600   3.165  0.0174  2.6839  0.8167
 2787SOL    HW310921   4.978   3.675   3.072 -1.0886  3.1377  2.2678
 2787SOL    MW410922   4.992   3.614   3.133 -0.0864 -0.0612  0.6545
 2788SOL     OW10923   2.943   6.137   2.640  0.6655  0.4014 -0.1929
 2788SOL    HW210924   2.988   6.128   2.556 -1.4654  1.3821 -1.5277
 2788SOL    HW310925   2.982   6.214   2.681 -0.2503  1.7290 -1.6949
 2788SOL    MW410926   2.954   6.146   2.634  0.0433 -0.4138  0.0177
 2789SOL     OW10927   2.744   3.446   0.273  0.0266  0.1409  0.6908
 2789SOL    HW210928   2.660   3.492   0.277 -0.9787 -1.4375 -0.7072
 2789SOL    HW310929   2.720   3.354   0.264  1.9060 -0.3031 -0.3435
 2789SOL    MW410930   2.730   3.440   0.273  0.1187  0.2753 -0.2853
 2790SOL     OW10931   1.044   3.480   2.019 -0.3867  0.2346 -0.4053
 2790SOL    HW210932   0.967   3.461   2.073  0.6177  0.8489  1.3249
 2790SOL    HW310933   1.020   3.450   1.931 -1.3748 -2.5842  0.7304
 2790SOL    MW410934   1.030   3.474   2.014 -0.6141  0.6531 -0.0055
 2791SOL     OW10935   5.359   1.579   1.232  0.5503 -0.0564 -0.0933
 2791SOL    HW210936   5.291   1.546   1.292  0.9750 -2.5775 -0.8836
 2791SOL    HW310937   5.439   1.579   1.284  0.1979  1.9792  0.5473
 2791SOL    MW410938   5.360   1.575   1.247 -0.2463 -0.0924  0.4180
 2792SOL     OW10939   2.093   1.633   0.501  0.3964 -0.4207 -0.4146
 2792SOL    HW210940   2.055   1.676   0.425 -0.7400 -0.6827 -0.0069
 2792SOL    HW310941   2.029   1.567   0.526  1.3131 -1.1708  0.0399
 2792SOL    MW410942   2.080   1.630   0.494 -0.3238 -0.2977  1.0679
 2793SOL     OW10943   5.155   2.591   5.196 -0.3474 -0.1085  0.4569
 2793SOL    HW210944   5.143   2.686   5.189 -0.6733 -0.1993 -0.4059
 2793SOL    HW310945   5.176   2.575   5.288  0.5716  0.9003  0.4346
 2793SOL    MW410946   5.156   2.601   5.207 -0.1440 -0.0787 -0.4356
 2794SOL     OW10947   4.236   3.624   2.947  0.0274 -0.2708 -0.3893
 2794SOL    HW210948   4.154   3.629   2.996 -0.0473 -1.4841 -0.3418
 2794SOL    HW310949   4.225   3.546   2.891  0.2554  0.8443 -2.0529
 2794SOL    MW410950   4.224   3.614   2.946  0.1518 -0.2200  0.2120
 2795SOL     OW10951   3.019   1.276   2.002  0.5195  0.1268  0.2934
 2795SOL    HW210952   3.112   1.297   1.987  0.6565  1.3580  2.4287
 2795SOL    HW310953   3.021   1.192   2.046  0.5299 -0.3522 -0.5984
 2795SOL    MW410954   3.032   1.268   2.006 -0.4327  0.0014  0.1869
 2796SOL     OW10955   1.048   3.409   0.181  0.3261 -0.4089  0.6532
 2796SOL    HW210956   1.135   3.369   0.180 -0.6824 -2.7759 -0.2379
 2796SOL    HW310957   1.042   3.451   0.267  3.0741  1.7393 -0.0427
 2796SOL    MW410958   1.059   3.409   0.193  0.3231 -0.3305 -0.2858
 2797SOL     OW10959   5.882   4.286   5.382  0.2047 -0.2352 -0.0428
 2797SOL    HW210960   5.911   4.334   5.460  0.5171 -0.3653 -0.0747
 2797SOL    HW310961   5.931   4.203   5.386  1.0158  0.1866 -0.9300
 2797SOL    MW410962   5.892   4.281   5.393 -0.6778  0.6465  0.2626
 2798SOL     OW10963   1.848   4.117   1.066  0.1364  0.0480  0.0080
 2798SOL    HW210964   1.831   4.172   1.143  1.4194  0.0697  0.3027
 2798SOL    HW310965   1.940   4.133   1.045  0.3521 -1.4368 -0.3292
 2798SOL    MW410966   1.858   4.126   1.074 -0.1513 -0.5025  0.0366
 2799SOL     OW10967   5.226   1.350   0.959  0.3824 -0.0832 -0.6856
 2799SOL    HW210968   5.307   1.401   0.960  0.7241 -0.5563  1.4011
 2799SOL    HW310969   5.227   1.305   0.875  2.1732  0.1117 -0.8038
 2799SOL    MW410970   5.237   1.351   0.948  0.0168  0.1774  0.4384
 2800SOL     OW10971   5.445   3.396   0.898  0.1759  0.3239 -0.8031
 2800SOL    HW210972   5.352   3.373   0.905  0.2893  0.1543  0.4052
 2800SOL    HW310973   5.474   3.352   0.819 -0.2672 -1.5034 -0.0075
 2800SOL    MW410974   5.436   3.387   0.889 -0.5051 -0.3827  0.0986
 2801SOL     OW10975   2.028   4.895   3.477  0.2284  0.3251 -0.2084
 2801SOL    HW210976   2.105   4.929   3.524 -0.4009  0.3478  0.8346
 2801SOL    HW310977   1.987   4.834   3.538  0.2078 -0.8054 -1.3061
 2801SOL    MW410978   2.033   4.892   3.491 -0.3107 -0.2573  0.0650
 2802SOL     OW10979   0.743   3.365   1.354 -0.4338 -0.4413 -0.1805
 2802SOL    HW210980   0.682   3.433   1.383  1.6446  0.6077  2.0706
 2802SOL    HW310981   0.771   3.394   1.267 -0.1631  1.2567  0.4206
 2802SOL    MW410982   0.739   3.378   1.346 -0.0297  0.8061 -0.4577
 2803SOL     OW10983   4.675   4.730   0.596 -0.4426  0.2532 -0.1814
 2803SOL    HW210984   4.583   4.736   0.571 -0.6094  0.4205  0.4508
 2803SOL    HW310985   4.721   4.783   0.532 -0.8009  0.2776 -0.4204
 2803SOL    MW410986   4.669   4.738   0.585  0.3211  0.8901  0.3258
 2804SOL     OW10987   2.086   4.383   0.498  0.3082  0.2908 -0.1326
 2804SOL    HW210988   2.038   4.351   0.575  0.1253  1.1251  0.1143
 2804SOL    HW310989   2.018   4.418   0.441  0.5157  0.3804 -0.3231
 2804SOL    MW410990   2.070   4.384   0.501 -0.3260  0.3057 -0.2901
 2805SOL     OW10991   1.765   0.274   4.870 -0.1062 -0.3694  0.7466
 2805SOL    HW210992   1.697   0.339   4.854 -1.0450 -1.6360 -0.6979
 2805SOL    HW310993   1.841   0.305   4.820 -1.0033 -1.0344 -1.1305
 2805SOL    MW410994   1.766   0.286   4.861 -0.6488 -0.0290 -0.5726
 2806SOL     OW10995   0.549   6.089   4.567  0.3625 -0.0091 -0.3813
 2806SOL    HW210996   0.572   6.152   4.498  0.0537 -0.6994 -1.1373
 2806SOL    HW310997   0.539   6.006   4.520 -1.5695 -0.1652  0.2228
 2806SOL    MW410998   0.551   6.087   4.552 -0.4280 -0.2737  0.2280
 2807SOL     OW10999   3.976   6.206   3.558  0.3813  0.3577  0.5579
 2807SOL    HW211000   4.018   6.260   3.626  1.5198 -0.3544  0.4501
 2807SOL    HW311001   4.016   6.236   3.476  0.4410 -0.1090  0.4157
 2807SOL    MW411002   3.987   6.217   3.556  0.2541  0.7187  0.6360
 2808SOL     OW11003   1.292   4.992   2.477 -0.3954 -0.0273  0.0778
 2808SOL    HW211004   1.209   4.984   2.429 -0.7692 -0.5298  0.7939
 2808SOL    HW311005   1.296   5.083   2.504 -0.0905  0.3110 -1.0577
 2808SOL    MW411006   1.282   5.003   2.474 -0.2585 -0.1586  0.0837
 2809SOL     OW11007   1.195   5.196   1.768 -0.0531  0.1997 -0.8085
 2809SOL    HW211008   1.284   5.164   1.753 -0.0370 -0.6732  0.8729
 2809SOL    HW311009   1.157   5.133   1.829 -0.8353  2.1184  0.8035
 2809SOL    MW411010   1.202   5.183   1.774  0.0841  0.1959  0.4140
 2810SOL     OW11011   5.938   4.665   3.493 -0.2073  0.2973 -0.0562
 2810SOL    HW211012   5.977   4.744   3.457 -0.7681  1.0792  1.0046
 2810SOL    HW311013   5.959   4.667   3.586 -0.8235 -0.4465  0.1150
 2810SOL    MW411014   5.946   4.675   3.501  0.5291  0.3802  0.6077
 2811SOL     OW11015   3.274   1.645   5.806  0.6510  0.0264  0.5051
 2811SOL    HW211016   3.226   1.593   5.741  1.1900  0.0160  0.1035
 2811SOL    HW311017   3.252   1.604   5.890 -1.8421  1.3946  0.6253
 2811SOL    MW411018   3.265   1.632   5.808  0.3198  0.2692 -0.1282
 2812SOL     OW11019   0.020   3.678   1.714 -0.1594 -0.3650 -0.1887
 2812SOL    HW211020   0.016   3.617   1.640 -0.7714 -0.2839 -0.2282
 2812SOL    HW311021   0.039   3.763   1.673 -1.6784 -0.0965 -0.3995
 2812SOL    MW411022   0.022   3.681   1.698  0.1433  0.6604  0.4755
 2813SOL     OW11023   6.429   4.051   3.301  0.3455  0.7279  0.3619
 2813SOL    HW211024   6.357   3.988   3.303 -0.4266  1.5623 -0.3105
 2813SOL    HW311025   6.441   4.077   3.393 -2.0791  2.6168  0.2177
 2813SOL    MW411026   6.421   4.046   3.314 -0.3690  0.1102  0.0706
 2814SOL     OW11027   3.451   2.973   1.800  0.2956 -0.0259  0.0143
 2814SOL    HW211028   3.511   3.010   1.864  0.7854 -1.9488  0.7356
 2814SOL    HW311029   3.417   2.894   1.842 -0.1169 -0.8233 -1.7177
 2814SOL    MW411030   3.454   2.968   1.814  0.3888  0.2623  0.1877
 2815SOL     OW11031   2.288   4.715   2.115 -0.2803  0.5013 -0.3735
 2815SOL    HW211032   2.233   4.780   2.071  1.5794  1.9951 -0.6226
 2815SOL    HW311033   2.276   4.635   2.064  1.0752  1.9262 -3.1244
 2815SOL    MW411034   2.279   4.713   2.103 -0.1848  0.5722 -0.3890
 2816SOL     OW11035   3.461   5.869   3.091  0.1634  0.5747  0.6349
 2816SOL    HW211036   3.407   5.817   3.031 -0.0162 -0.4917  1.6934
 2816SOL    HW311037   3.550   5.836   3.078  0.0250 -0.1309  1.4252
 2816SOL    MW411038   3.465   5.858   3.081 -0.2345 -0.2088  0.0081
 2817SOL     OW11039   3.793   5.021   0.013  0.1360  0.1193  0.2715
 2817SOL    HW211040   3.821   4.975   0.092  1.0902  1.2029  0.5876
 2817SOL    HW311041   3.803   4.956  -0.058  2.7388  0.1848  0.4845
 2817SOL    MW411042   3.798   5.006   0.014  0.3000  0.1600  0.1205
 2818SOL     OW11043   5.404   2.543   3.838  0.5869 -0.4030  0.3355
 2818SOL    HW211044   5.374   2.588   3.917  1.5367  1.7131 -0.4408
 2818SOL    HW311045   5.330   2.487   3.814 -0.0273 -0.4917  2.2527
 2818SOL    MW411046   5.390   2.542   3.845 -0.3975 -0.5108 -0.2537
 2819SOL     OW11047   3.459   2.481   4.403 -0.6929 -0.1277 -0.1045
 2819SOL    HW211048   3.385   2.457   4.459 -0.5343 -0.4397 -0.0271
 2819SOL    HW311049   3.532   2.431   4.438 -0.6757 -0.6022 -0.8176
 2819SOL    MW411050   3.459   2.472   4.415  0.1664 -0.1553 -0.4302
 2820SOL     OW11051   6.409   3.698   3.156  0.3321 -0.1301 -0.4750
 2820SOL    HW211052   6.467   3.720   3.084  1.8188 -1.9131  0.1039
 2820SOL    HW311053   6.456   3.727   3.234 -0.0954 -0.5111 -0.0673
 2820SOL    MW411054   6.423   3.705   3.157 -0.7096 -0.2625  0.1070
 2821SOL     OW11055   0.498   3.433   5.062  0.3712  0.9059 -0.7952
 2821SOL    HW211056   0.563   3.364   5.064  0.2785  0.8331  0.2543
 2821SOL    HW311057   0.534   3.503   5.117 -0.8814  0.4121  0.7660
 2821SOL    MW411058   0.511   3.433   5.070 -0.5808 -0.9486 -0.2934
 2822SOL     OW11059   1.567   0.455   4.645  0.2472  0.3000  0.7233
 2822SOL    HW211060   1.574   0.480   4.737  1.7434  0.7215  0.5329
 2822SOL    HW311061   1.474   0.460   4.625  0.0464  1.5567  1.8533
 2822SOL    MW411062   1.556   0.459   4.655  0.3101 -0.1255 -0.4647
 2823SOL     OW11063   5.918   1.571   4.427  0.3385 -0.4769  0.2792
 2823SOL    HW211064   5.892   1.502   4.366  3.3520 -2.2394  0.7759
 2823SOL    HW311065   5.837   1.595   4.473 -0.8573 -3.7465  0.1071
 2823SOL    MW411066   5.904   1.565   4.425 -0.6735  0.2060  0.2148
 2824SOL     OW11067   2.158   2.826   2.069 -0.3162 -0.2857 -0.5944
 2824SOL    HW211068   2.119   2.869   2.145  1.2455  2.0495 -0.9927
 2824SOL    HW311069   2.087   2.824   2.004 -1.3394 -1.2905  0.5013
 2824SOL    MW411070   2.143   2.832   2.070  0.5752  0.0609 -0.4649
 2825SOL     OW11071   0.924   0.911   5.625  0.4937  0.0656 -0.4260
 2825SOL    HW211072   0.996   0.894   5.565  1.3692  2.1170 -0.0430
 2825SOL    HW311073   0.964   0.954   5.701 -0.7486 -1.3569  1.1281
 2825SOL    MW411074   0.939   0.915   5.627  0.1030  0.3201 -0.5657
 2826SOL     OW11075   2.788   6.221   1.174 -0.0326 -0.1213 -0.6025
 2826SOL    HW211076   2.757   6.263   1.093 -1.5859  0.8499  0.4308
 2826SOL    HW311077   2.797   6.129   1.150 -0.6720  0.1020 -1.8453
 2826SOL    MW411078   2.785   6.215   1.160 -0.2828  0.5873 -0.0850
 2827SOL     OW11079   3.424   0.121   4.412  0.2930  0.2541  0.0161
 2827SOL    HW211080   3.332   0.109   4.389 -0.0321 -0.4273  1.5228
 2827SOL    HW311081   3.430   0.092   4.503  1.2559  3.5001  1.1518
 2827SOL    MW411082   3.413   0.116   4.421  0.5780  0.2482  0.6925
 2828SOL     OW11083   1.940   2.551   1.294 -0.4170 -0.6063 -0.1831
 2828SOL    HW211084   1.908   2.586   1.211 -1.4138 -2.2657 -0.5368
 2828SOL    HW311085   2.028   2.517   1.274  0.1298  0.6902 -0.0775
 2828SOL    MW411086   1.948   2.551   1.280 -0.1067  0.1952 -0.0172
 2829SOL     OW11087   3.511   0.674   3.129  0.2191  0.2345  0.3698
 2829SOL    HW211088   3.511   0.732   3.053 -1.0106 -0.2815 -0.0428
 2829SOL    HW311089   3.457   0.719   3.194 -0.7394 -0.4243  0.0491
 2829SOL    MW411090   3.504   0.688   3.128  0.1022 -0.1181 -0.8516
 2830SOL     OW11091   1.283   5.391   5.063  0.3835  0.5377  0.0337
 2830SOL    HW211092   1.189   5.402   5.073  0.5032  0.1435  2.0651
 2830SOL    HW311093   1.293   5.326   4.993 -0.9378 -0.7439  0.9717
 2830SOL    MW411094   1.272   5.384   5.055  0.4749 -0.1153 -0.5969
 2831SOL     OW11095   6.200   0.171   1.074 -0.0673 -0.5474 -0.2137
 2831SOL    HW211096   6.280   0.196   1.029 -0.0466 -0.5366 -0.1712
 2831SOL    HW311097   6.231   0.124   1.152 -0.1071 -0.8580 -0.3828
 2831SOL    MW411098   6.215   0.168   1.078 -0.0895  0.2374  0.0636
 2832SOL     OW11099   5.592   2.352   4.473 -0.1616  0.5882  0.1511
 2832SOL    HW211100   5.588   2.369   4.379 -0.0994  1.4310  0.2920
 2832SOL    HW311101   5.683   2.370   4.497  0.3035 -1.3815  0.0731
 2832SOL    MW411102   5.604   2.357   4.464 -0.0830  0.0257  0.3409
 2833SOL     OW11103   4.475   2.562   4.779  0.1710 -0.1506 -0.0442
 2833SOL    HW211104   4.566   2.585   4.801  0.1755  0.1406 -0.3532
 2833SOL    HW311105   4.429   2.646   4.781 -0.2400 -0.3860  0.7916
 2833SOL    MW411106   4.481   2.576   4.782  0.1127  0.4891 -0.4411
 2834SOL     OW11107   5.575   6.435   3.550  0.0575 -0.4027 -0.5644
 2834SOL    HW211108   5.493   6.484   3.555 -0.3506 -0.9760 -1.3283
 2834SOL    HW311109   5.639   6.497   3.516  0.0242  0.1372  0.3370
 2834SOL    MW411110   5.572   6.449   3.546 -0.4053  0.1497  0.4221
 2835SOL     OW11111   1.710   4.279   0.781 -0.0181 -0.5226 -0.4478
 2835SOL    HW211112   1.804   4.296   0.785  0.1034 -0.2492 -2.9154
 2835SOL    HW311113   1.671   4.342   0.842  1.2711  0.9628 -1.0836
 2835SOL    MW411114   1.717   4.290   0.789 -0.2059  0.0166  0.3358
 2836SOL     OW11115   2.847   3.288   2.143  0.0527  0.0899  0.1390
 2836SOL    HW211116   2.798   3.207   2.162  0.3634  0.2420  1.7431
 2836SOL    HW311117   2.939   3.261   2.146  0.1285  0.2735 -0.4996
 2836SOL    MW411118   2.853   3.273   2.146 -0.6844 -0.0309 -0.0327
 2837SOL     OW11119   3.706   0.207   2.630 -0.4031 -0.3108  0.0670
 2837SOL    HW211120   3.652   0.248   2.697 -1.6511 -0.7351 -0.6428
 2837SOL    HW311121   3.789   0.186   2.675 -0.5832  0.8901  1.0178
 2837SOL    MW411122   3.710   0.209   2.645  0.6191  0.0946 -0.1407
 2838SOL     OW11123   1.273   3.071   2.320 -0.2654 -0.3529  0.4209
 2838SOL    HW211124   1.333   3.023   2.378 -0.8532 -0.9628  0.5299
 2838SOL    HW311125   1.200   3.011   2.305 -0.4798  0.0867 -0.3504
 2838SOL    MW411126   1.271   3.057   2.326  0.0077 -0.6438  0.5260
 2839SOL     OW11127   0.501   4.653   2.396  0.0928 -0.5881  0.6887
 2839SOL    HW211128   0.528   4.586   2.458  1.6114 -1.3932 -0.7436
 2839SOL    HW311129   0.407   4.639   2.384  0.0522 -1.3103  1.7385
 2839SOL    MW411130   0.492   4.642   2.403  0.0253 -0.2348 -0.2015
 2840SOL     OW11131   4.489   5.778   3.919  0.1096  0.0673 -0.0328
 2840SOL    HW211132   4.469   5.760   4.011  0.0126 -1.0417 -0.2578
 2840SOL    HW311133   4.508   5.692   3.881 -1.9046  0.2039 -1.5400
 2840SOL    MW411134   4.489   5.764   3.926 -0.1131  0.3879  0.0077
 2841SOL     OW11135   1.022   5.577   2.159 -0.5024  0.1165  0.1984
 2841SOL    HW211136   1.075   5.647   2.197  0.2272 -0.1039 -0.3827
 2841SOL    HW311137   1.085   5.507   2.139 -1.3863 -1.2578  1.9473
 2841SOL    MW411138   1.038   5.577   2.161 -0.4307 -0.2025  0.1243
 2842SOL     OW11139   1.075   3.805   4.245 -0.9297  0.6151 -0.6857
 2842SOL    HW211140   1.098   3.846   4.162 -1.0313  1.3455 -0.3622
 2842SOL    HW311141   0.993   3.758   4.228 -0.5232  0.0717 -1.2015
 2842SOL    MW411142   1.068   3.804   4.232  0.2889  0.5047  0.3094
 2843SOL     OW11143   6.225   1.845   2.234  0.4873  0.5880  0.1445
 2843SOL    HW211144   6.276   1.779   2.281  0.7627  1.0262  0.4701
 2843SOL    HW311145   6.216   1.809   2.146 -0.0480 -0.2428  0.5308
 2843SOL    MW411146   6.231   1.831   2.228  0.4199  0.2997  0.7252
 2844SOL     OW11147   5.747   1.744   3.671  0.6602  0.4380 -0.2346
 2844SOL    HW211148   5.719   1.784   3.753  0.1887  0.6869 -0.5158
 2844SOL    HW311149   5.759   1.818   3.612 -0.7411  0.1445 -0.9210
 2844SOL    MW411150   5.745   1.759   3.674  0.2130  0.9919  0.6369
 2845SOL     OW11151   4.619   0.221   1.160 -0.2078 -0.1194  0.3118
 2845SOL    HW211152   4.538   0.171   1.162 -0.7367  0.7242  1.5262
 2845SOL    HW311153   4.688   0.155   1.167 -0.8330 -0.7685  0.4297
 2845SOL    MW411154   4.618   0.206   1.161  0.2869 -0.1650 -0.2871
 2846SOL     OW11155   5.454   1.058   6.231 -0.5312  0.4298 -0.0982
 2846SOL    HW211156   5.533   1.094   6.191  0.1998 -0.5958  0.3659
 2846SOL    HW311157   5.388   1.126   6.219  1.1572  2.6448  2.2119
 2846SOL    MW411158   5.456   1.071   6.224 -0.4666 -0.4195  0.6269
 2847SOL     OW11159   6.219   1.560   3.693 -0.2939  0.1287  0.2082
 2847SOL    HW211160   6.265   1.552   3.777 -0.1361  0.2846  0.1371
 2847SOL    HW311161   6.130   1.586   3.717 -0.4623 -0.5789  0.3693
 2847SOL    MW411162   6.213   1.562   3.707  0.6480 -0.0137 -0.4372
 2848SOL     OW11163   3.537   2.070   3.643 -0.2538  0.0401  0.0442
 2848SOL    HW211164   3.547   1.984   3.683 -1.1892 -0.1005  0.0014
 2848SOL    HW311165   3.449   2.099   3.669 -0.4803  0.3931 -1.0357
 2848SOL    MW411166   3.527   2.063   3.652 -0.1976  0.1536 -0.1982
 2849SOL     OW11167   4.428   1.634   3.092  0.0797 -0.5544 -0.4404
 2849SOL    HW211168   4.366   1.563   3.075 -0.4149 -0.4611  0.8666
 2849SOL    HW311169   4.494   1.625   3.023 -0.3720 -1.8280 -0.7337
 2849SOL    MW411170   4.428   1.623   3.081  0.2962 -0.0425 -0.0501
 2850SOL     OW11171   4.220   0.533   0.432  0.3090  0.4813  0.4298
 2850SOL    HW211172   4.217   0.495   0.344  1.2169  0.1140  0.5432
 2850SOL    HW311173   4.213   0.458   0.491 -1.1957  0.8099  0.6885
 2850SOL    MW411174   4.219   0.518   0.428 -0.1850  0.0189 -0.3292
 2851SOL     OW11175   0.045   5.133   6.353 -0.0512  0.0715 -0.0647
 2851SOL    HW211176   0.072   5.159   6.441 -0.7558 -1.4923  0.6455
 2851SOL    HW311177  -0.047   5.157   6.347 -0.1014 -0.1562 -0.2437
 2851SOL    MW411178   0.036   5.140   6.364 -0.2209 -0.0605  0.6015
 2852SOL     OW11179   2.444   0.193   0.954  0.0958  0.4603  0.0410
 2852SOL    HW211180   2.468   0.283   0.935  1.8387 -0.3486 -2.0286
 2852SOL    HW311181   2.366   0.177   0.902  0.5986  0.4057 -0.7188
 2852SOL    MW411182   2.437   0.202   0.945  0.4544  0.1618  0.3426
 2853SOL     OW11183   4.381   0.236   2.612  0.1467  0.1811 -0.3048
 2853SOL    HW211184   4.376   0.310   2.672 -1.2608  0.2922 -0.5287
 2853SOL    HW311185   4.468   0.200   2.626  0.4835  1.2606  0.5388
 2853SOL    MW411186   4.392   0.241   2.622  0.1397 -0.9369  0.3104
 2854SOL     OW11187   1.376   2.894   4.517 -0.8184  0.4140  0.6143
 2854SOL    HW211188   1.335   2.946   4.447  1.3730  3.0448  1.1253
 2854SOL    HW311189   1.383   2.954   4.591  0.2183 -1.1852  1.8841
 2854SOL    MW411190   1.372   2.909   4.517  0.1838  0.1399  0.0789
 2855SOL     OW11191   5.389   1.620   0.045 -0.0413 -0.0068  1.1382
 2855SOL    HW211192   5.394   1.525   0.030 -0.4902  0.0746  0.4365
 2855SOL    HW311193   5.343   1.654  -0.031 -0.0037  0.7677  1.4516
 2855SOL    MW411194   5.384   1.612   0.033 -0.0649  0.1672 -0.8288
 2856SOL     OW11195   2.384   4.954   6.000 -0.1407  0.5391 -0.5469
 2856SOL    HW211196   2.462   4.929   6.050 -0.1769 -0.8417 -1.1263
 2856SOL    HW311197   2.312   4.910   6.044 -0.2790 -0.0234 -1.3110
 2856SOL    MW411198   2.385   4.945   6.012  0.2654 -0.0242  0.0076
 2857SOL     OW11199   1.641   0.742   5.261 -0.3866 -0.9680  0.3240
 2857SOL    HW211200   1.558   0.790   5.264  0.5722  0.8926 -1.0169
 2857SOL    HW311201   1.689   0.771   5.338  0.0179 -0.0816 -0.2540
 2857SOL    MW411202   1.636   0.752   5.271 -0.0618 -0.1609 -0.2153
 2858SOL     OW11203   1.949   0.972   5.879 -0.3189 -0.6308  0.3549
 2858SOL    HW211204   1.882   1.024   5.835 -1.1479 -2.6232 -0.8920
 2858SOL    HW311205   2.032   1.012   5.854 -0.9185 -0.0159 -0.7044
 2858SOL    MW411206   1.951   0.984   5.870 -0.2480  0.2079 -0.5027
 2859SOL     OW11207   1.569   5.788   2.485  0.2281 -0.1253  0.0411
 2859SOL    HW211208   1.623   5.725   2.436  1.7042  0.8521  0.3407
 2859SOL    HW311209   1.605   5.786   2.574  0.6222  1.4708 -0.0620
 2859SOL    MW411210   1.581   5.779   2.490  0.7240  0.5013  0.3976
 2860SOL     OW11211   2.394   5.442   2.146 -0.1493  0.1189  0.2009
 2860SOL    HW211212   2.439   5.358   2.137  1.8691  1.2599 -1.4892
 2860SOL    HW311213   2.380   5.452   2.240  2.2289 -0.8145  0.7213
 2860SOL    MW411214   2.398   5.432   2.157 -0.3993 -0.2508 -0.2531
 2861SOL     OW11215   5.498   4.520   4.932  0.2536  0.1624  0.6678
 2861SOL    HW211216   5.519   4.428   4.951  0.6604  0.1881  0.3557
 2861SOL    HW311217   5.536   4.568   5.005  1.6067  0.2374 -0.0450
 2861SOL    MW411218   5.506   4.514   4.944  0.0783 -0.6168 -0.2304
 2862SOL     OW11219   4.187   4.205   6.308 -0.0534  0.0778 -0.4305
 2862SOL    HW211220   4.129   4.265   6.263 -0.5383 -0.4442 -0.5115
 2862SOL    HW311221   4.219   4.254   6.384  0.9684  1.0534 -1.4481
 2862SOL    MW411222   4.184   4.219   6.312  0.1156  0.9497  0.3136
 2863SOL     OW11223   3.728   3.241   1.222  0.0671  0.1034 -0.0733
 2863SOL    HW211224   3.808   3.193   1.201 -0.4383 -0.4118 -0.8742
 2863SOL    HW311225   3.724   3.310   1.155  0.4022  0.8215  0.6252
 2863SOL    MW411226   3.738   3.244   1.210 -0.0357  0.2833 -0.0936
 2864SOL     OW11227   5.476   4.622   4.661  0.4350  0.1781  0.2165
 2864SOL    HW211228   5.385   4.642   4.684  0.0866 -0.7973 -0.2819
 2864SOL    HW311229   5.512   4.584   4.741  0.8766  1.9469  0.9176
 2864SOL    MW411230   5.468   4.620   4.675 -0.3950 -0.0266  0.3709
 2865SOL     OW11231   4.871   2.351   0.935  0.1287  0.0429  0.5667
 2865SOL    HW211232   4.891   2.318   1.022 -0.6826  2.1414  1.6319
 2865SOL    HW311233   4.794   2.301   0.907  0.7200 -1.0171  0.8035
 2865SOL    MW411234   4.864   2.340   0.943  0.4611 -0.3008  0.3139
 2866SOL     OW11235   5.961   4.675   2.937  0.1913 -0.1465 -0.0502
 2866SOL    HW211236   6.028   4.692   2.870  0.8934 -0.1310  0.6413
 2866SOL    HW311237   5.996   4.602   2.987 -0.4773 -0.3548  0.1138
 2866SOL    MW411238   5.974   4.668   2.935  0.5903  0.3123  0.2282
 2867SOL     OW11239   0.069   4.340   6.428  0.6160  0.3459 -0.3550
 2867SOL    HW211240   0.106   4.282   6.362 -1.2385 -0.8005 -0.4695
 2867SOL    HW311241   0.116   4.318   6.509  1.5745  0.3985 -0.8882
 2867SOL    MW411242   0.080   4.330   6.430  0.2443  0.4045  0.0643
 2868SOL     OW11243   6.388   4.690   2.417  0.0276 -0.4749  0.3755
 2868SOL    HW211244   6.360   4.621   2.476  1.2368  0.0955  1.6674
 2868SOL    HW311245   6.475   4.715   2.448  0.1126  0.8031 -0.7886
 2868SOL    MW411246   6.396   4.684   2.429 -0.0716  0.0678 -0.2319
 2869SOL     OW11247   1.163   3.635   3.313  0.7772  0.2626  0.1294
 2869SOL    HW211248   1.107   3.559   3.296 -0.7278  1.6264 -1.4337
 2869SOL    HW311249   1.197   3.659   3.227  0.3657  1.9796  0.4162
 2869SOL    MW411250   1.160   3.628   3.299 -0.5096  0.1746 -0.5206
 2870SOL     OW11251   3.385   4.755   4.243  0.5611  0.5176 -0.6091
 2870SOL    HW211252   3.318   4.710   4.192  0.9638 -0.7133 -0.0748
 2870SOL    HW311253   3.357   4.746   4.334  1.5429 -0.2057 -0.3605
 2870SOL    MW411254   3.372   4.748   4.248 -0.4236 -0.0486 -0.3939
 2871SOL     OW11255   6.238   2.079   2.850  0.5923  0.2933  0.1840
 2871SOL    HW211256   6.178   2.035   2.910 -1.8024 -1.2507 -3.0536
 2871SOL    HW311257   6.326   2.057   2.882 -0.4964 -4.1419  0.7169
 2871SOL    MW411258   6.242   2.070   2.862  0.3606 -0.3391  0.2184
 2872SOL     OW11259   4.113   5.990   1.528 -0.0620  0.3690  0.2181
 2872SOL    HW211260   4.088   6.037   1.608 -0.4469  1.4133 -0.4819
 2872SOL    HW311261   4.033   5.991   1.474 -0.4594 -2.1822  0.6349
 2872SOL    MW411262   4.099   5.997   1.532 -0.0265 -0.1956  0.4263
 2873SOL     OW11263   1.877   1.172   4.546  0.2375 -0.5271 -0.0594
 2873SOL    HW211264   1.856   1.203   4.634 -0.4229 -0.6943 -0.1592
 2873SOL    HW311265   1.899   1.079   4.558 -0.9930 -0.8487 -0.2355
 2873SOL    MW411266   1.877   1.164   4.559 -0.0007 -0.1799  0.0307
 2874SOL     OW11267   1.482   4.253   4.940  0.0532 -0.0054  0.3865
 2874SOL    HW211268   1.566   4.290   4.966 -0.0086  0.2860  0.1846
 2874SOL    HW311269   1.470   4.177   4.996  0.2798  0.1683  0.6716
 2874SOL    MW411270   1.491   4.248   4.951  0.0932  0.6317  0.8038
 2875SOL     OW11271   3.193   5.193   4.256 -0.2561 -0.6128 -0.3343
 2875SOL    HW211272   3.170   5.103   4.234  0.3485 -0.6549 -0.8248
 2875SOL    HW311273   3.199   5.194   4.351  1.4172 -1.5279 -0.3876
 2875SOL    MW411274   3.191   5.181   4.265 -0.3532  0.1602 -0.0523
 2876SOL     OW11275   3.161   5.876   4.248  0.1658  0.4243  0.1644
 2876SOL    HW211276   3.125   5.794   4.283  2.7395 -0.7329  0.2832
 2876SOL    HW311277   3.107   5.894   4.170  1.3788 -3.1113 -1.6885
 2876SOL    MW411278   3.149   5.868   4.242  0.5670 -0.0428  0.3961
 2877SOL     OW11279   5.562   1.819   0.134  0.1952 -0.5855  0.3496
 2877SOL    HW211280   5.547   1.734   0.093 -1.5056 -0.0602 -0.2092
 2877SOL    HW311281   5.487   1.832   0.192  0.1369  0.7594  0.0202
 2877SOL    MW411282   5.550   1.810   0.136 -0.2142  0.0166  0.4480
 2878SOL     OW11283   4.025   1.247   2.290 -0.2228 -0.2189 -0.6043
 2878SOL    HW211284   4.089   1.242   2.360 -1.3778  0.9809  0.6125
 2878SOL    HW311285   4.001   1.156   2.272  0.4884 -0.5674  0.1674
 2878SOL    MW411286   4.030   1.235   2.297 -0.1001 -0.3618  0.2728
 2879SOL     OW11287   3.117   4.180   1.886  0.2428 -0.0257  0.1478
 2879SOL    HW211288   3.195   4.124   1.880 -1.1628 -2.1668  0.7293
 2879SOL    HW311289   3.100   4.206   1.795  1.5343  0.3698 -0.0053
 2879SOL    MW411290   3.125   4.176   1.873 -0.1745 -0.1513  0.0244
 2880SOL     OW11291   1.997   3.232   4.916 -0.4815 -0.0066  0.2972
 2880SOL    HW211292   2.083   3.200   4.944 -0.9386 -1.4212  0.1314
 2880SOL    HW311293   2.017   3.293   4.845  0.3134 -2.2045 -1.5143
 2880SOL    MW411294   2.011   3.236   4.911 -0.4910  0.1701 -0.3833
 2881SOL     OW11295   4.201   1.945   2.493 -0.3257  0.0245  0.5367
 2881SOL    HW211296   4.115   1.938   2.535 -0.0968  1.2539  1.2438
 2881SOL    HW311297   4.232   2.033   2.515 -0.1883  0.7495 -2.2350
 2881SOL    MW411298   4.194   1.956   2.501  0.7929 -0.6832  0.4870
 2882SOL     OW11299   5.997   4.574   0.652  0.4805 -0.0564 -0.1488
 2882SOL    HW211300   6.070   4.616   0.607  0.8869 -0.6327 -0.0386
 2882SOL    HW311301   5.922   4.630   0.633  1.2361  1.4310  1.0704
 2882SOL    MW411302   5.996   4.587   0.643  0.0537 -0.1297  0.4665
 2883SOL     OW11303   1.089   4.178   2.951 -0.4277  0.1717 -0.1539
 2883SOL    HW211304   1.167   4.222   2.984 -1.7939  1.9543  0.9218
 2883SOL    HW311305   1.040   4.247   2.906 -1.8372 -0.6474  0.0469
 2883SOL    MW411306   1.093   4.193   2.949 -0.1411  0.0527  0.3669
 2884SOL     OW11307   5.345   4.686   0.490 -0.1394  0.0557 -0.1713
 2884SOL    HW211308   5.356   4.674   0.584  1.5823  1.7351 -0.0978
 2884SOL    HW311309   5.383   4.772   0.472 -0.4651 -0.2008 -2.4040
 2884SOL    MW411310   5.351   4.696   0.500  0.4871 -0.2770  0.6329
 2885SOL     OW11311   0.493   0.553   0.541 -0.3140 -0.1440 -0.1919
 2885SOL    HW211312   0.538   0.471   0.562  0.6904 -0.1080 -2.0694
 2885SOL    HW311313   0.430   0.529   0.473 -0.8318  0.4475  0.0674
 2885SOL    MW411314   0.490   0.539   0.535  0.3671 -0.4630 -0.4820
 2886SOL     OW11315   0.176   4.182   0.243 -0.5552 -0.2083 -0.0751
 2886SOL    HW211316   0.261   4.210   0.209  0.5501 -0.8039  2.0453
 2886SOL    HW311317   0.184   4.087   0.253 -2.2354 -0.5987 -1.7435
 2886SOL    MW411318   0.188   4.173   0.240 -0.0241  0.1540 -0.5267
 2887SOL     OW11319   1.145   3.826   1.074 -0.2279 -0.3250 -0.2072
 2887SOL    HW211320   1.203   3.890   1.034  0.1946 -0.6692 -0.1425
 2887SOL    HW311321   1.201   3.751   1.095 -0.1766  0.2699  2.0963
 2887SOL    MW411322   1.160   3.824   1.072  0.5354 -0.3054 -0.0124
 2888SOL     OW11323   0.887   5.817   0.007 -0.2509  0.1244  0.6552
 2888SOL    HW211324   0.980   5.809  -0.013  0.2050  1.7105  2.0084
 2888SOL    HW311325   0.882   5.875   0.083 -2.2647 -1.0001  1.4888
 2888SOL    MW411326   0.898   5.823   0.014  0.1764  0.4079  0.8309
 2889SOL     OW11327   0.313   1.276   6.358 -0.0651 -0.0291  0.6641
 2889SOL    HW211328   0.334   1.186   6.383 -1.4172 -0.8491 -0.9225
 2889SOL    HW311329   0.269   1.313   6.435  1.0489 -0.4851  1.5525
 2889SOL    MW411330   0.310   1.269   6.372  0.1113  0.1766  0.0846
 2890SOL     OW11331   0.735   1.994   5.682 -0.3404 -0.6002  0.3639
 2890SOL    HW211332   0.797   1.976   5.611 -0.6633 -0.7959  0.1266
 2890SOL    HW311333   0.649   1.982   5.641 -0.5256 -1.5991  1.0185
 2890SOL    MW411334   0.732   1.990   5.667  0.2059  0.2506  0.3015
 2891SOL     OW11335   6.021   1.871   6.203  0.1523  0.3930 -0.0754
 2891SOL    HW211336   6.038   1.842   6.113 -3.3734 -1.7144 -0.2609
 2891SOL    HW311337   6.054   1.800   6.258 -1.5501 -0.4429 -0.0585
 2891SOL    MW411338   6.028   1.858   6.198 -0.2587  0.0760  0.1603
 2892SOL     OW11339   3.623   2.023   6.207 -0.3404  0.0018  0.2628
 2892SOL    HW211340   3.536   1.985   6.208 -0.7112  0.7761 -0.7660
 2892SOL    HW311341   3.608   2.118   6.211  0.5172  0.0996  1.6683
 2892SOL    MW411342   3.610   2.031   6.207 -0.4429  0.2619 -0.1491
 2893SOL     OW11343   4.239   1.197   3.806 -0.7159 -0.0009  0.1604
 2893SOL    HW211344   4.276   1.112   3.830  1.8638  1.2086  0.8177
 2893SOL    HW311345   4.290   1.225   3.730 -0.3686  1.6423  0.9524
 2893SOL    MW411346   4.251   1.190   3.799 -0.4703  0.0484 -0.5219
 2894SOL     OW11347   2.870   1.018   1.285  0.1904 -0.3046 -0.3813
 2894SOL    HW211348   2.874   0.995   1.192  0.5557 -2.0240  0.0216
 2894SOL    HW311349   2.787   1.065   1.295  0.9561  1.4953 -1.8742
 2894SOL    MW411350   2.860   1.022   1.274 -0.1369 -0.2703  0.3899
 2895SOL     OW11351   3.982   5.516   2.827  0.5219  0.2873 -0.0407
 2895SOL    HW211352   3.985   5.508   2.922  2.4856 -1.7393 -0.1856
 2895SOL    HW311353   3.897   5.479   2.802  1.4447 -2.6815  0.7858
 2895SOL    MW411354   3.971   5.510   2.836 -0.6808 -0.1524 -0.1602
 2896SOL     OW11355   1.828   1.825   1.942  0.2617 -0.1647 -0.0473
 2896SOL    HW211356   1.858   1.874   2.019 -0.6085 -1.1474  0.9620
 2896SOL    HW311357   1.739   1.857   1.926  0.3723 -0.0934 -0.5417
 2896SOL    MW411358   1.820   1.836   1.950 -0.8179  0.2767 -0.0271
 2897SOL     OW11359   0.613   2.617   0.853 -0.1266  0.4007  0.0200
 2897SOL    HW211360   0.637   2.529   0.823  0.7197  0.5844  0.1259
 2897SOL    HW311361   0.518   2.618   0.850 -0.1094 -0.0853 -1.2385
 2897SOL    MW411362   0.604   2.605   0.849 -0.3043 -0.2316  0.2147
 2898SOL     OW11363   2.226   0.150   0.135 -0.0685 -0.4220  0.4214
 2898SOL    HW211364   2.255   0.197   0.213 -0.3312  0.2255  0.1391
 2898SOL    HW311365   2.152   0.097   0.165  2.1254 -3.1419  1.4615
 2898SOL    MW411366   2.220   0.149   0.149 -0.1114 -0.3474  0.1762
 2899SOL     OW11367   3.943   2.565   0.059 -0.9817  0.2679  0.1745
 2899SOL    HW211368   3.959   2.649   0.016 -0.4390  0.3069  0.4470
 2899SOL    HW311369   3.928   2.587   0.151 -2.7837  0.2494 -0.0696
 2899SOL    MW411370   3.943   2.579   0.065  0.0912  0.1759  1.1427
 2900SOL     OW11371   0.834   4.419   5.559 -0.1082 -0.7723 -0.2184
 2900SOL    HW211372   0.740   4.428   5.541 -0.3229 -2.5712 -0.1253
 2900SOL    HW311373   0.856   4.498   5.609 -1.7202 -0.6443  0.3453
 2900SOL    MW411374   0.824   4.431   5.563  0.1386 -0.2933  0.1040
 2901SOL     OW11375   1.079   1.736   0.033 -0.5132 -0.0060  0.7148
 2901SOL    HW211376   0.988   1.743   0.007 -0.6338  0.0234  1.1330
 2901SOL    HW311377   1.123   1.693  -0.040 -1.1971 -1.6873  1.2667
 2901SOL    MW411378   1.073   1.731   0.020  0.2202  0.5916 -0.2928
 2902SOL     OW11379   3.660   5.735   0.276  0.1507 -0.1577 -0.1390
 2902SOL    HW211380   3.614   5.780   0.205  0.0124  0.3684  0.2738
 2902SOL    HW311381   3.655   5.643   0.253 -1.7734 -0.1853  0.2539
 2902SOL    MW411382   3.653   5.729   0.263  0.0789  0.3461 -0.1419
 2903SOL     OW11383   0.523   5.605   4.714 -0.0041  0.2758 -0.1717
 2903SOL    HW211384   0.511   5.561   4.629  1.7983  2.6588 -1.8030
 2903SOL    HW311385   0.597   5.561   4.754  0.6378  0.6237 -0.9517
 2903SOL    MW411386   0.531   5.593   4.708  0.2072  0.3853  0.0877
 2904SOL     OW11387   5.739   2.363   4.055 -0.4701 -0.0713  0.0511
 2904SOL    HW211388   5.713   2.375   3.964 -0.5356  0.1218  0.0939
 2904SOL    HW311389   5.762   2.451   4.085  1.3615 -0.3946 -0.3124
 2904SOL    MW411390   5.738   2.376   4.047 -0.4119 -0.0696  0.6523
 2905SOL     OW11391   5.680   2.436   1.882 -0.3469  0.9867  0.6292
 2905SOL    HW211392   5.651   2.366   1.940 -2.2324  1.6219  0.5505
 2905SOL    HW311393   5.730   2.392   1.813 -0.0168 -0.0487  1.5082
 2905SOL    MW411394   5.683   2.421   1.880  0.0742  0.3134  0.0884
 2906SOL     OW11395   1.585   3.230   2.979  0.3463 -0.1158  0.4070
 2906SOL    HW211396   1.536   3.200   2.903  0.7701 -0.4415  0.2554
 2906SOL    HW311397   1.657   3.281   2.943 -0.8808  1.9349  0.6961
 2906SOL    MW411398   1.588   3.233   2.964  0.1519 -0.4698 -0.4469
 2907SOL     OW11399   3.653   3.416   0.603  0.6625  0.0013 -0.3391
 2907SOL    HW211400   3.665   3.449   0.514  1.3842 -0.1608 -0.3131
 2907SOL    HW311401   3.605   3.334   0.592  0.4604  0.1468 -0.5521
 2907SOL    MW411402   3.648   3.409   0.590  0.0789 -0.7145  0.9468
 2908SOL     OW11403   6.189   4.858   2.221 -0.4764 -0.2417 -0.5080
 2908SOL    HW211404   6.101   4.892   2.204 -1.2276 -2.1325 -0.5361
 2908SOL    HW311405   6.208   4.887   2.310 -0.0668  2.2554 -1.3060
 2908SOL    MW411406   6.180   4.867   2.230  0.4330 -0.3485  0.7090
 2909SOL     OW11407   2.104   0.734   4.964 -0.0112  0.1735  0.2942
 2909SOL    HW211408   2.089   0.747   4.870 -2.7767 -2.6674  0.1895
 2909SOL    HW311409   2.017   0.719   5.001  1.1978 -1.0304  2.9238
 2909SOL    MW411410   2.091   0.734   4.956 -0.2449 -0.0479 -0.2567
 2910SOL     OW11411   1.031   5.485   4.627 -0.3604  0.0842 -0.1232
 2910SOL    HW211412   1.000   5.534   4.703  0.7701 -0.2798  0.6029
 2910SOL    HW311413   0.989   5.399   4.634  0.1486 -0.1288  0.3992
 2910SOL    MW411414   1.022   5.480   4.638 -0.0373 -0.3753 -1.1783
 2911SOL     OW11415   6.047   0.922   5.004 -0.0265  0.1536 -0.1864
 2911SOL    HW211416   6.046   0.891   4.914 -1.3133  0.4831 -0.2993
 2911SOL    HW311417   6.051   1.017   4.997  0.5585  0.1576  0.1233
 2911SOL    MW411418   6.047   0.931   4.991  0.0625 -0.0657 -0.1644
 2912SOL     OW11419   5.529   1.813   5.815  0.3859 -0.0848  0.4125
 2912SOL    HW211420   5.487   1.756   5.751  0.7853 -0.0419  0.1135
 2912SOL    HW311421   5.473   1.890   5.818  0.1298 -0.2690  0.4352
 2912SOL    MW411422   5.516   1.816   5.807  0.1191 -0.6123 -0.3172
 2913SOL     OW11423   0.032   4.253   4.503 -0.0531 -0.2047  0.3505
 2913SOL    HW211424  -0.025   4.187   4.543 -0.9795  0.6110  0.4047
 2913SOL    HW311425   0.017   4.244   4.409 -0.2964  0.0192  0.3654
 2913SOL    MW411426   0.023   4.243   4.496 -0.1736 -0.3589  0.1202
 2914SOL     OW11427   5.960   4.624   5.342  0.2194  0.0726 -0.2601
 2914SOL    HW211428   5.952   4.638   5.248  0.1670 -1.1103 -0.4501
 2914SOL    HW311429   6.004   4.539   5.350 -2.1548 -1.1647  0.7444
 2914SOL    MW411430   5.965   4.614   5.331 -0.1988  0.0804  0.4169
 2915SOL     OW11431   3.396   2.445   0.823 -0.3826 -0.3400  0.1625
 2915SOL    HW211432   3.410   2.386   0.749 -0.5882  0.2056 -0.3208
 2915SOL    HW311433   3.444   2.524   0.800 -0.0362 -0.3397  0.8469
 2915SOL    MW411434   3.404   2.447   0.811  0.2938  0.3639 -0.1081
 2916SOL     OW11435   0.030   3.283   4.772  0.1649  0.0442  0.5701
 2916SOL    HW211436  -0.020   3.228   4.711 -0.1187 -0.0454  0.8802
 2916SOL    HW311437  -0.007   3.371   4.760  0.1106  0.0270  0.6104
 2916SOL    MW411438   0.018   3.287   4.762  0.9487 -0.2001  0.9244
 2917SOL     OW11439   2.581   2.079   0.231 -0.0038  0.2207  0.1860
 2917SOL    HW211440   2.586   1.986   0.252  1.0040  0.1031 -0.5090
 2917SOL    HW311441   2.506   2.086   0.172  1.0133 -0.4755 -1.2537
 2917SOL    MW411442   2.571   2.068   0.226 -0.6384  0.1007  0.0136
 2918SOL     OW11443   3.905   4.615   3.150 -0.2359  0.6744  0.2330
 2918SOL    HW211444   3.960   4.610   3.072 -0.4779  1.0298  0.0335
 2918SOL    HW311445   3.856   4.533   3.150 -0.4167  0.7815 -0.1304
 2918SOL    MW411446   3.905   4.604   3.140 -0.1250 -0.2839 -0.3345
 2919SOL     OW11447   2.900   5.617   4.012 -0.2559  0.4276 -0.0997
 2919SOL    HW211448   2.865   5.575   3.934  0.5347  1.5413 -1.0939
 2919SOL    HW311449   2.995   5.608   4.005 -0.2047 -0.9319  1.6196
 2919SOL    MW411450   2.908   5.610   4.001  0.1408 -0.2839 -0.0690
 2920SOL     OW11451   4.749   6.071   3.878 -0.3972  0.1690 -0.1623
 2920SOL    HW211452   4.841   6.098   3.874 -0.0217 -0.8332  1.0678
 2920SOL    HW311453   4.721   6.095   3.967 -1.1485 -0.1216 -0.3112
 2920SOL    MW411454   4.757   6.078   3.889  0.6967 -0.0950 -0.0422
 2921SOL     OW11455   5.935   4.650   4.045  0.2042  0.0936  0.3401
 2921SOL    HW211456   5.854   4.604   4.020  0.0940  0.5708 -0.1997
 2921SOL    HW311457   5.990   4.582   4.083 -0.8632 -0.0432  1.7098
 2921SOL    MW411458   5.931   4.635   4.047  0.4337 -0.1765  0.0624
 2922SOL     OW11459   2.455   3.662   6.192  0.3967 -0.0450  0.1667
 2922SOL    HW211460   2.538   3.619   6.172 -0.2859 -0.9354 -0.8943
 2922SOL    HW311461   2.411   3.602   6.251 -0.9969 -1.4397 -2.1111
 2922SOL    MW411462   2.460   3.648   6.197 -0.3244 -0.2032 -0.4556
 2923SOL     OW11463   1.510   1.066   5.056  0.1700 -0.2647  0.2805
 2923SOL    HW211464   1.468   1.150   5.035  0.5968 -0.4731 -1.5970
 2923SOL    HW311465   1.480   1.046   5.145 -2.3053  0.4453 -0.3078
 2923SOL    MW411466   1.500   1.074   5.065 -0.2570 -0.2154  0.6515
 2924SOL     OW11467   0.173   1.386   1.182 -0.0000 -0.2766  0.2930
 2924SOL    HW211468   0.229   1.343   1.116  1.6857  2.4398 -0.2206
 2924SOL    HW311469   0.120   1.447   1.131  0.1101  0.6510  1.2665
 2924SOL    MW411470   0.174   1.388   1.166  0.3273  0.6025 -0.6119
 2925SOL     OW11471   4.192   0.096   2.350  0.3016  0.0917  0.0517
 2925SOL    HW211472   4.197   0.070   2.443  1.3787  0.3979  0.0837
 2925SOL    HW311473   4.280   0.126   2.329  0.8888 -2.5877 -1.8470
 2925SOL    MW411474   4.204   0.096   2.360  0.9819  0.0447 -0.6846
 2926SOL     OW11475   4.220   2.970   2.861 -0.5514  0.2860  0.3388
 2926SOL    HW211476   4.235   2.897   2.920 -0.8846  0.6534  0.8876
 2926SOL    HW311477   4.215   2.930   2.774  3.3372  0.0476  0.0400
 2926SOL    MW411478   4.221   2.955   2.857  0.1931 -0.1389 -0.1652
 2927SOL     OW11479   6.127   3.757   2.717 -0.3844 -0.0265 -0.4449
 2927SOL    HW211480   6.134   3.796   2.804  1.5452  0.2693 -0.6849
 2927SOL    HW311481   6.043   3.789   2.683 -1.0630  0.0423  1.1936
 2927SOL    MW411482   6.117   3.767   2.724  0.3324  0.4114 -0.5163
 2928SOL     OW11483   0.331   3.521   1.669  0.1183  0.6981 -0.4097
 2928SOL    HW211484   0.269   3.537   1.598  0.7370  0.8689 -0.9125
 2928SOL    HW311485   0.337   3.606   1.715  1.0437  1.0761 -1.2103
 2928SOL    MW411486   0.324   3.535   1.666  0.0563 -0.1808  0.1177
 2929SOL     OW11487   5.739   1.196   3.701 -0.1490 -0.0832  0.0774
 2929SOL    HW211488   5.780   1.114   3.674  0.1511  0.3137 -0.6833
 2929SOL    HW311489   5.670   1.169   3.762  0.1093 -0.8783  0.0269
 2929SOL    MW411490   5.735   1.182   3.706  0.2124  0.1479 -0.0305
 2930SOL     OW11491   0.472   6.040   4.823  0.0406  0.4493  0.2423
 2930SOL    HW211492   0.494   6.056   4.731  1.3992 -0.7548  0.3145
 2930SOL    HW311493   0.556   6.017   4.863 -0.4499  1.4005  1.9022
 2930SOL    MW411494   0.486   6.039   4.816 -0.2029 -0.1237 -0.5145
 2931SOL     OW11495   0.298   4.603   3.864  0.1915  0.3315 -0.0406
 2931SOL    HW211496   0.382   4.642   3.839 -0.0501 -0.2034 -1.8803
 2931SOL    HW311497   0.310   4.575   3.955  1.8635  0.6431 -0.1347
 2931SOL    MW411498   0.311   4.604   3.872 -0.2186  0.1194  0.6034
 2932SOL     OW11499   4.937   5.491   3.109  0.3167 -0.1851 -0.2002
 2932SOL    HW211500   4.856   5.523   3.149  0.0535 -0.6701 -0.3308
 2932SOL    HW311501   4.996   5.477   3.182  1.2389  2.7066 -0.2916
 2932SOL    MW411502   4.934   5.493   3.124  0.3758 -0.2442  0.0180
 2933SOL     OW11503   3.108   4.722   0.363  0.1681  0.2115 -0.0539
 2933SOL    HW211504   3.055   4.802   0.359 -0.6305 -0.2241  1.1304
 2933SOL    HW311505   3.140   4.710   0.274  1.3953  2.5670 -0.0093
 2933SOL    MW411506   3.105   4.731   0.351  0.4385 -0.2423  0.0487
 2934SOL     OW11507   3.550   5.053   2.966  0.4540 -0.1211  0.1548
 2934SOL    HW211508   3.638   5.020   2.987 -0.0074  0.3931  3.4788
 2934SOL    HW311509   3.503   4.976   2.935  1.3308 -1.0611  1.0626
 2934SOL    MW411510   3.555   5.038   2.965 -0.2377 -0.3725 -0.1153
 2935SOL     OW11511   2.554   6.072   4.783  0.0375  0.4087  0.1436
 2935SOL    HW211512   2.573   6.000   4.722 -1.4341 -0.7777  1.0375
 2935SOL    HW311513   2.603   6.050   4.862  3.0978  2.6552 -0.9074
 2935SOL    MW411514   2.563   6.059   4.785  0.9450 -0.1184  0.6210
 2936SOL     OW11515   4.678   6.135   0.301  0.7997 -0.8824 -1.0041
 2936SOL    HW211516   4.717   6.223   0.303 -1.4324  0.2215  2.5533
 2936SOL    HW311517   4.751   6.076   0.317  1.9480  0.5195 -0.8665
 2936SOL    MW411518   4.693   6.139   0.303  0.0626 -0.1810 -0.3706
 2937SOL     OW11519   2.966   4.816   5.336 -0.1150 -0.1097 -0.1132
 2937SOL    HW211520   2.885   4.823   5.285 -0.5758 -2.9495  0.0800
 2937SOL    HW311521   2.949   4.867   5.416 -1.0202  0.7527 -0.8252
 2937SOL    MW411522   2.953   4.824   5.340  0.6718 -0.1452 -0.4691
 2938SOL     OW11523   2.070   1.301   2.417 -0.0617  0.5637 -0.5730
 2938SOL    HW211524   2.074   1.300   2.322  0.1528 -1.0483 -0.5739
 2938SOL    HW311525   2.141   1.242   2.445 -0.6452  0.3634  0.5591
 2938SOL    MW411526   2.080   1.293   2.408  0.1537  0.1179  0.3199
 2939SOL     OW11527   0.514   2.359   6.293 -0.0705  0.0073 -0.5139
 2939SOL    HW211528   0.602   2.383   6.322  0.0143 -0.2140 -0.5842
 2939SOL    HW311529   0.466   2.442   6.289 -0.0328  0.0612  0.0893
 2939SOL    MW411530   0.519   2.373   6.297 -0.2130 -0.1342 -0.1316
 2940SOL     OW11531   0.227   3.013   3.088  0.2938 -0.1040  0.0164
 2940SOL    HW211532   0.147   3.018   3.037  0.7954  1.9880 -0.6479
 2940SOL    HW311533   0.206   2.954   3.160 -2.5147  1.8805  0.9860
 2940SOL    MW411534   0.214   3.006   3.091  0.3074 -0.9422  0.2465
 2941SOL     OW11535   1.448   5.453   5.668  0.4381  0.7257  0.6048
 2941SOL    HW211536   1.479   5.543   5.672  0.4403  0.6893  1.8469
 2941SOL    HW311537   1.507   5.410   5.607  1.1375  1.3050  0.8614
 2941SOL    MW411538   1.460   5.459   5.660 -0.5064  0.1491  0.6405
 2942SOL     OW11539   4.870   6.121   0.654 -0.5331 -0.1451  0.3584
 2942SOL    HW211540   4.786   6.076   0.646 -0.0017 -1.0487 -0.4762
 2942SOL    HW311541   4.934   6.058   0.618  0.2641  1.2273 -0.7391
 2942SOL    MW411542   4.867   6.107   0.648 -0.1038 -0.1654  0.1838
 2943SOL     OW11543   3.537   4.937   0.935  0.3238 -0.2695  0.3543
 2943SOL    HW211544   3.456   4.955   0.982  0.7500 -0.5109  1.2078
 2943SOL    HW311545   3.577   4.865   0.984 -0.2181 -2.0055 -1.5746
 2943SOL    MW411546   3.531   4.930   0.948 -0.5333  0.3543  0.1963
 2944SOL     OW11547   5.755   4.159   5.645  0.7497  0.3205  0.1315
 2944SOL    HW211548   5.809   4.147   5.723  1.2274  0.1443 -0.2237
 2944SOL    HW311549   5.756   4.253   5.628 -0.9100  0.6267  1.4312
 2944SOL    MW411550   5.762   4.170   5.653 -0.0424 -0.0529  0.5023
 2945SOL     OW11551   0.690   0.785   5.383 -0.2211 -0.2486 -0.6483
 2945SOL    HW211552   0.620   0.740   5.430  0.8417 -0.5951  0.6469
 2945SOL    HW311553   0.653   0.871   5.363 -0.3126  0.4020  1.9800
 2945SOL    MW411554   0.676   0.791   5.386  0.6889  0.0348 -0.0251
 2946SOL     OW11555   5.556   1.150   0.469  0.2775  0.4129  0.1021
 2946SOL    HW211556   5.555   1.064   0.509  0.0822  0.2676 -0.2156
 2946SOL    HW311557   5.639   1.153   0.421  0.0344  0.1963 -0.3338
 2946SOL    MW411558   5.567   1.139   0.468  0.3905  0.5164 -0.6778
 2947SOL     OW11559   2.390   1.299   1.425 -0.2625 -0.0099 -0.1438
 2947SOL    HW211560   2.319   1.357   1.400 -0.9017 -1.0895 -0.9128
 2947SOL    HW311561   2.456   1.356   1.465 -0.0538  1.5393 -2.5269
 2947SOL    MW411562   2.390   1.314   1.427  0.2796  0.0375  0.3190
 2948SOL     OW11563   2.208   2.967   0.340  0.2815  0.1149 -0.5254
 2948SOL    HW211564   2.130   3.002   0.384 -0.9342 -0.3695 -2.2114
 2948SOL    HW311565   2.179   2.884   0.303  0.9526  0.9250 -3.0152
 2948SOL    MW411566   2.194   2.961   0.341 -0.4381  0.1570 -0.0592
 2949SOL     OW11567   3.168   3.985   3.408 -0.1152 -0.0533 -0.7152
 2949SOL    HW211568   3.190   4.036   3.486 -1.0847 -0.3106 -0.2531
 2949SOL    HW311569   3.241   3.925   3.397 -0.7924 -1.2915  1.1078
 2949SOL    MW411570   3.180   3.984   3.417  0.0915 -0.7255 -0.1960
 2950SOL     OW11571   4.045   4.627   2.899  0.1095  0.3671  0.2362
 2950SOL    HW211572   4.066   4.702   2.844  1.4408 -1.0671 -1.3272
 2950SOL    HW311573   4.126   4.576   2.902 -0.5829 -0.7265  1.7438
 2950SOL    MW411574   4.059   4.630   2.892 -0.1358  0.2724  0.0765
 2951SOL     OW11575   5.842   6.137   4.948 -0.5047 -0.2813  0.0883
 2951SOL    HW211576   5.817   6.113   4.859 -0.9833 -1.2760  0.4689
 2951SOL    HW311577   5.859   6.053   4.991  2.8134  0.2371  0.0965
 2951SOL    MW411578   5.841   6.123   4.942 -0.0264  0.1545  0.4338
 2952SOL     OW11579   3.326   1.404   3.639  0.4982  0.5969  0.2307
 2952SOL    HW211580   3.329   1.487   3.686  1.4033  0.0041  1.2638
 2952SOL    HW311581   3.257   1.354   3.682  1.7906 -0.2132  1.4512
 2952SOL    MW411582   3.317   1.408   3.651 -0.0279 -0.0236  0.1047
 2953SOL     OW11583   2.813   4.224   5.241 -0.1639  0.2320 -0.1490
 2953SOL    HW211584   2.767   4.178   5.312  0.3190  0.3465  0.2456
 2953SOL    HW311585   2.888   4.265   5.284 -0.1031  0.6645 -0.6546
 2953SOL    MW411586   2.817   4.223   5.256 -0.3588  0.0910 -0.0864
 2954SOL     OW11587   0.083   5.631   3.586 -0.0702  0.3316 -0.1835
 2954SOL    HW211588   0.165   5.581   3.583 -0.0333  0.4301 -1.5367
 2954SOL    HW311589   0.022   5.581   3.532 -0.3755  1.1474 -0.6120
 2954SOL    MW411590   0.086   5.618   3.579  0.1115  0.0909  0.2842
 2955SOL     OW11591   4.825   4.496   0.463  0.0921 -0.1042 -0.0260
 2955SOL    HW211592   4.775   4.552   0.521 -2.1798  1.6882 -3.3741
 2955SOL    HW311593   4.908   4.541   0.451 -0.7386  1.2881 -0.7270
 2955SOL    MW411594   4.829   4.509   0.469  0.1475 -0.8778 -0.1115
 2956SOL     OW11595   5.892   6.239   6.057 -0.6638  0.2155 -0.0954
 2956SOL    HW211596   5.804   6.203   6.068  0.2806 -1.8764  1.3072
 2956SOL    HW311597   5.928   6.192   5.981 -0.8085  1.2570 -0.8340
 2956SOL    MW411598   5.885   6.228   6.048  0.2745 -0.6082 -0.1085
 2957SOL     OW11599   1.394   5.828   5.202 -0.1587 -0.3881 -0.3763
 2957SOL    HW211600   1.321   5.882   5.231  1.3812  0.7493  1.6168
 2957SOL    HW311601   1.412   5.770   5.276  0.5784 -1.0617 -1.0603
 2957SOL    MW411602   1.387   5.827   5.215  0.0082  0.5853  0.0494
 2958SOL     OW11603   4.230   2.765   3.050 -0.2502 -0.1258 -0.3198
 2958SOL    HW211604   4.196   2.677   3.034  0.9891 -0.9958  1.5601
 2958SOL    HW311605   4.163   2.808   3.103  0.4474 -1.0255  1.3588
 2958SOL    MW411606   4.217   2.759   3.055  0.1152  0.4006  0.1600
 2959SOL     OW11607   1.110   1.224   5.138 -0.1070  0.2733 -0.0524
 2959SOL    HW211608   1.025   1.225   5.094  0.8409  0.9081 -1.9830
 2959SOL    HW311609   1.123   1.134   5.166 -2.3634  0.5717  2.3272
 2959SOL    MW411610   1.101   1.212   5.136  0.4533 -0.0501 -0.7017
 2960SOL     OW11611   6.426   1.754   2.682  0.1319  0.1284  0.2673
 2960SOL    HW211612   6.381   1.827   2.640  0.5229 -0.0342 -0.4500
 2960SOL    HW311613   6.357   1.690   2.699 -0.2839  0.8358  1.2972
 2960SOL    MW411614   6.411   1.755   2.678  0.4749  0.4478 -0.1642
 2961SOL     OW11615   5.451   3.663   3.378 -0.5309  0.4994  0.2470
 2961SOL    HW211616   5.468   3.574   3.411 -0.2788  0.2326 -0.5676
 2961SOL    HW311617   5.380   3.696   3.433  0.3985  0.3784  1.5666
 2961SOL    MW411618   5.444   3.655   3.389  0.0843 -0.1230 -0.3977
 2962SOL     OW11619   1.647   0.252   3.384  0.0388  0.1578  0.2546
 2962SOL    HW211620   1.582   0.275   3.450 -0.2351  0.1017  0.0043
 2962SOL    HW311621   1.716   0.207   3.433 -0.4542 -0.4387  0.4080
 2962SOL    MW411622   1.648   0.249   3.399 -0.6414 -0.1859 -0.4391
 2963SOL     OW11623   1.148   0.895   5.464 -0.1392  0.4124 -0.8884
 2963SOL    HW211624   1.164   0.989   5.463 -3.1487  1.0135 -1.0403
 2963SOL    HW311625   1.110   0.875   5.379 -0.4115 -0.7726 -0.5187
 2963SOL    MW411626   1.145   0.905   5.453 -0.3600  0.8899 -0.8676
 2964SOL     OW11627   5.270   4.726   3.132 -0.0052  0.3120  1.4213
 2964SOL    HW211628   5.359   4.757   3.146 -0.9484  2.9764  2.1381
 2964SOL    HW311629   5.254   4.741   3.039  0.7611 -1.7484  0.8905
 2964SOL    MW411630   5.280   4.732   3.122 -0.3813  0.4896  0.3174
 2965SOL     OW11631   1.307   4.935   6.400 -0.6340 -0.0619  0.0388
 2965SOL    HW211632   1.260   4.989   6.464 -0.9155  0.7495 -0.8410
 2965SOL    HW311633   1.268   4.958   6.316  0.3176 -0.5021 -0.5320
 2965SOL    MW411634   1.295   4.945   6.398 -0.0661 -0.3850  0.1365
 2966SOL     OW11635   2.398   5.182   4.835  0.1871 -0.1792 -0.5831
 2966SOL    HW211636   2.369   5.250   4.774 -1.3402  0.5906  0.9127
 2966SOL    HW311637   2.480   5.215   4.871 -0.0750  0.4292 -0.5421
 2966SOL    MW411638   2.405   5.195   4.831  0.6105 -0.4445 -0.2554
 2967SOL     OW11639   3.187   3.941   0.981 -0.4747 -0.3281  0.0427
 2967SOL    HW211640   3.130   3.870   1.010 -1.9000  0.0689 -1.6518
 2967SOL    HW311641   3.272   3.898   0.967 -0.9810 -1.4490  0.2560
 2967SOL    MW411642   3.191   3.926   0.983 -0.2157 -0.6914  0.0813
 2968SOL     OW11643   5.728   4.957   2.362 -0.1509 -0.1678 -0.2440
 2968SOL    HW211644   5.811   4.950   2.410 -0.7028 -1.4252  0.5931
 2968SOL    HW311645   5.735   4.891   2.293 -0.8104 -0.9606  0.4232
 2968SOL    MW411646   5.740   4.947   2.359 -0.1677  0.9275 -0.0838
 2969SOL     OW11647   0.293   0.484   0.812 -0.0137 -0.1816 -0.5693
 2969SOL    HW211648   0.336   0.415   0.863 -0.4946  0.0633  0.1731
 2969SOL    HW311649   0.322   0.566   0.852  0.2080  0.0460 -1.1767
 2969SOL    MW411650   0.302   0.485   0.824 -0.0766 -0.0348 -0.3987
 2970SOL     OW11651   6.422   4.974   4.352  0.7253 -0.1099 -0.5244
 2970SOL    HW211652   6.455   5.061   4.330 -0.7714  0.2013 -1.6570
 2970SOL    HW311653   6.440   4.921   4.275  0.1156 -0.3564 -0.5040
 2970SOL    MW411654   6.428   4.979   4.339 -0.4836 -0.4055 -0.5805
 2971SOL     OW11655   5.090   5.198   5.084 -0.7061  0.2418  0.4665
 2971SOL    HW211656   5.049   5.271   5.130 -0.9714  0.4444 -0.0777
 2971SOL    HW311657   5.168   5.236   5.044  0.6005 -0.3695  2.3334
 2971SOL    MW411658   5.095   5.213   5.085 -0.0382 -0.1714  0.1832
 2972SOL     OW11659   2.006   1.388   6.103  0.3043  0.3398  0.0018
 2972SOL    HW211660   2.049   1.453   6.158  3.6541 -0.9565 -0.8874
 2972SOL    HW311661   2.024   1.304   6.145 -2.4747 -0.2514  0.2077
 2972SOL    MW411662   2.014   1.385   6.116 -0.6816  0.0692  0.2218
 2973SOL     OW11663   1.329   5.664   2.514 -0.1833  0.2975  0.0466
 2973SOL    HW211664   1.401   5.728   2.508  0.9209 -0.9565 -0.7957
 2973SOL    HW311665   1.354   5.595   2.452 -1.9095 -0.4012  0.0824
 2973SOL    MW411666   1.342   5.663   2.505 -0.2887 -0.2470  0.4160
 2974SOL     OW11667   1.843   2.787   2.393  0.0253  0.5525  0.4181
 2974SOL    HW211668   1.883   2.871   2.375 -0.0085  0.6863  0.9389
 2974SOL    HW311669   1.825   2.749   2.307  1.4713  0.3794  0.1643
 2974SOL    MW411670   1.846   2.793   2.379  0.2817  0.1900  0.0423
 2975SOL     OW11671   1.906   4.899   0.347 -0.2586 -0.3556 -0.1768
 2975SOL    HW211672   1.879   4.830   0.286  0.9938 -1.5965  0.5869
 2975SOL    HW311673   1.856   4.881   0.427  0.4358 -0.7079  0.1887
 2975SOL    MW411674   1.896   4.887   0.349  0.4179 -0.4927 -0.2664
 2976SOL     OW11675   2.531   5.657   0.148 -0.0019 -0.3724 -0.5386
 2976SOL    HW211676   2.527   5.565   0.172 -0.9434 -0.6028 -1.4775
 2976SOL    HW311677   2.452   5.695   0.185  0.3380  0.0507 -0.2333
 2976SOL    MW411678   2.520   5.650   0.156  0.1752 -0.1281  0.0188
 2977SOL     OW11679   5.145   5.024   5.669  0.1827  0.1940  0.1133
 2977SOL    HW211680   5.239   5.018   5.652  0.4872  1.9648  0.9319
 2977SOL    HW311681   5.112   5.085   5.604 -0.1930  0.4672  0.5515
 2977SOL    MW411682   5.153   5.031   5.659 -0.1504 -0.5198 -0.0445
 2978SOL     OW11683   3.860   6.072   0.486 -0.5249 -0.0679  0.2294
 2978SOL    HW211684   3.911   6.007   0.437 -0.6371 -0.5244  0.7014
 2978SOL    HW311685   3.777   6.079   0.439  0.5943  2.0618 -1.6460
 2978SOL    MW411686   3.856   6.064   0.473 -0.4842 -0.4867 -0.0173
 2979SOL     OW11687   2.248   2.627   4.057  0.5340  1.0240  0.3166
 2979SOL    HW211688   2.220   2.713   4.025 -1.9066 -0.0375 -0.6232
 2979SOL    HW311689   2.312   2.598   3.992 -1.8308  0.3765 -1.9038
 2979SOL    MW411690   2.253   2.634   4.044 -0.1364  0.5637  0.1064
 2980SOL     OW11691   4.158   3.943   3.640  0.0548  0.7413  0.5017
 2980SOL    HW211692   4.104   3.967   3.564  0.9041 -0.2251 -0.4274
 2980SOL    HW311693   4.248   3.962   3.613  0.4432 -0.3705  0.9623
 2980SOL    MW411694   4.163   3.949   3.626 -0.1775 -0.3565  0.1162
 2981SOL     OW11695   0.349   3.201   0.723  0.5550 -0.0429 -0.1608
 2981SOL    HW211696   0.405   3.278   0.733 -1.4028  1.3793  0.7779
 2981SOL    HW311697   0.321   3.203   0.632  1.6536 -0.5023 -0.5143
 2981SOL    MW411698   0.352   3.211   0.713 -0.0142 -0.1967  0.6559
 2982SOL     OW11699   3.129   4.769   2.104  0.1770  0.3831 -0.2236
 2982SOL    HW211700   3.202   4.738   2.159 -0.3299  2.8861  2.0746
 2982SOL    HW311701   3.172   4.809   2.028  1.1113  0.2836  0.2362
 2982SOL    MW411702   3.145   4.770   2.101  0.0357  0.1847 -0.6786
 2983SOL     OW11703   0.824   1.867   4.538  0.1310 -0.0046  0.3536
 2983SOL    HW211704   0.889   1.853   4.607  0.9762 -0.4766 -0.5215
 2983SOL    HW311705   0.780   1.782   4.529 -0.5099  0.2685  0.8309
 2983SOL    MW411706   0.827   1.854   4.546  0.1087 -0.5712 -0.1458
 2984SOL     OW11707   4.675   2.179   0.842  0.4851 -0.3321  0.5533
 2984SOL    HW211708   4.646   2.186   0.751 -0.0856 -0.4184  0.7262
 2984SOL    HW311709   4.602   2.140   0.888  0.5844  0.1591  1.1465
 2984SOL    MW411710   4.662   2.175   0.836 -0.2638  0.3300  0.2353
 2985SOL     OW11711   0.272   1.839   2.184  0.1654 -0.0899 -0.6051
 2985SOL    HW211712   0.329   1.915   2.173  0.1878  0.0356  0.3100
 2985SOL    HW311713   0.184   1.875   2.185  0.0381 -0.2910 -2.0844
 2985SOL    MW411714   0.268   1.853   2.182  0.1929 -0.5324 -0.1892
 2986SOL     OW11715   4.507   4.138   3.992  0.8102 -0.4389  0.3056
 2986SOL    HW211716   4.469   4.100   3.913  3.5091 -0.0433 -1.3156
 2986SOL    HW311717   4.580   4.079   4.014 -0.0319 -0.7140  2.7678
 2986SOL    MW411718   4.512   4.125   3.985 -0.4165  0.3503  0.4629
 2987SOL     OW11719   4.072   2.541   2.996 -0.7525  0.1120  0.2490
 2987SOL    HW211720   4.083   2.490   2.916  0.8910  0.3562  0.2945
 2987SOL    HW311721   4.003   2.604   2.975 -1.5687 -0.9475 -0.3836
 2987SOL    MW411722   4.064   2.542   2.983  0.0586 -0.5813 -0.1856
 2988SOL     OW11723   5.773   2.778   4.647  0.5620 -0.4862  0.1567
 2988SOL    HW211724   5.793   2.737   4.731  0.0511 -2.2120 -0.5165
 2988SOL    HW311725   5.682   2.754   4.630  0.4362  0.4326 -0.5752
 2988SOL    MW411726   5.763   2.769   4.656 -0.7246 -0.0153 -0.5623
 2989SOL     OW11727   4.647   4.022   0.464 -0.1788  0.1322 -1.1733
 2989SOL    HW211728   4.598   4.046   0.542  0.0853  1.2998 -1.3578
 2989SOL    HW311729   4.713   4.090   0.455  1.8891 -1.7051 -0.6087
 2989SOL    MW411730   4.649   4.034   0.473  0.1206 -0.5259 -0.0216
 2990SOL     OW11731   2.825   3.624   3.794 -0.1331  0.0440  0.3414
 2990SOL    HW211732   2.853   3.545   3.841  0.3996  0.0311  0.0035
 2990SOL    HW311733   2.906   3.668   3.770 -0.4167  0.3890 -0.0006
 2990SOL    MW411734   2.839   3.620   3.797 -0.2368  0.0683 -0.0608
 2991SOL     OW11735   0.313   2.801   0.983 -0.4911  0.2493 -0.1232
 2991SOL    HW211736   0.306   2.738   0.911 -0.3472  1.4083 -1.1904
 2991SOL    HW311737   0.385   2.859   0.957  1.5798 -1.0031  2.3619
 2991SOL    MW411738   0.322   2.800   0.970 -0.0688 -0.7847  0.5757
 2992SOL     OW11739   5.442   6.265   1.653  0.0977  0.1256  0.3278
 2992SOL    HW211740   5.418   6.272   1.561 -1.2340  2.4178  0.7750
 2992SOL    HW311741   5.535   6.246   1.652  0.1167  0.1484 -1.5001
 2992SOL    MW411742   5.451   6.264   1.641 -0.0025 -0.0167  0.1975
 2993SOL     OW11743   4.583   5.563   5.707 -0.5698 -0.1436 -0.0169
 2993SOL    HW211744   4.498   5.603   5.689 -0.8629 -0.9790 -0.5442
 2993SOL    HW311745   4.628   5.563   5.623 -1.0430 -1.9651 -0.3215
 2993SOL    MW411746   4.578   5.568   5.694 -0.1320 -0.0292  0.4618
 2994SOL     OW11747   4.795   5.803   6.087 -0.2233 -0.1757 -0.4207
 2994SOL    HW211748   4.867   5.781   6.028 -0.1276 -0.3426 -0.2450
 2994SOL    HW311749   4.749   5.720   6.099 -0.9022  0.0873 -1.1417
 2994SOL    MW411750   4.799   5.789   6.081 -0.2389  0.2639  0.2236
 2995SOL     OW11751   2.214   0.483   6.087 -0.1338  0.2655  0.4263
 2995SOL    HW211752   2.241   0.405   6.135 -0.4816  1.0800  2.0190
 2995SOL    HW311753   2.198   0.452   5.998 -0.9599 -1.6436  1.1738
 2995SOL    MW411754   2.215   0.469   6.081  0.2916  0.4509  0.5540
 2996SOL     OW11755   0.284   3.198   4.248 -0.1656 -0.0503  0.2113
 2996SOL    HW211756   0.254   3.108   4.248  0.4786 -0.3144 -1.4310
 2996SOL    HW311757   0.252   3.235   4.330  0.0512 -1.9237  1.1893
 2996SOL    MW411758   0.276   3.191   4.259 -0.3588  0.6137 -0.5915
 2997SOL     OW11759   4.966   3.366   0.030  0.2551 -0.4251  0.2870
 2997SOL    HW211760   4.963   3.405  -0.057  1.4924  0.6508  0.6928
 2997SOL    HW311761   4.944   3.274   0.015 -2.3450  0.2874 -0.7439
 2997SOL    MW411762   4.963   3.359   0.016 -0.1827 -0.1702 -0.2918
 2998SOL     OW11763   2.442   2.614   4.962 -0.0075  0.5904 -0.2236
 2998SOL    HW211764   2.364   2.560   4.967  0.5178 -0.0819  1.0038
 2998SOL    HW311765   2.460   2.640   5.052  0.0904  2.3500 -0.7086
 2998SOL    MW411766   2.434   2.610   4.974  0.0763 -0.2536  0.6381
 2999SOL     OW11767   2.401   5.676   4.312  0.7613 -0.2176 -0.4711
 2999SOL    HW211768   2.495   5.688   4.327  0.5469  1.1904 -0.0166
 2999SOL    HW311769   2.385   5.712   4.225  0.6798 -0.6442 -0.6316
 2999SOL    MW411770   2.411   5.682   4.303 -0.3665  0.3294 -0.0932
 3000SOL     OW11771   4.088   5.202   1.454 -0.4197  0.5993 -0.1944
 3000SOL    HW211772   4.156   5.196   1.386 -0.2169  1.3110 -0.0659
 3000SOL    HW311773   4.088   5.294   1.479 -0.5780  0.3629  0.6956
 3000SOL    MW411774   4.097   5.214   1.448  0.1133 -0.3763 -0.2029
 3001SOL     OW11775   6.303   3.025   2.178 -0.0588 -0.3047 -0.5243
 3001SOL    HW211776   6.219   2.986   2.203  0.4548 -0.3315  1.3319
 3001SOL    HW311777   6.287   3.120   2.179 -0.1283 -0.3177 -0.3605
 3001SOL    MW411778   6.290   3.033   2.182 -0.2630 -0.5582 -0.2876
 3002SOL     OW11779   0.234   4.163   6.320  0.4528 -0.3313 -0.6353
 3002SOL    HW211780   0.242   4.167   6.225 -1.8346 -0.1568 -0.8690
 3002SOL    HW311781   0.172   4.092   6.336 -0.3174  0.5837  0.6267
 3002SOL    MW411782   0.227   4.154   6.310 -0.0628  0.2872  0.1088
 3003SOL     OW11783   1.116   2.933   5.755 -0.8216  0.0176 -0.9078
 3003SOL    HW211784   1.096   2.890   5.838 -0.9566  0.6969 -0.5831
 3003SOL    HW311785   1.203   2.900   5.732 -1.3987 -1.2958 -1.2435
 3003SOL    MW411786   1.125   2.923   5.763  0.7589 -0.1599  0.2195
 3004SOL     OW11787   4.917   2.944   3.760 -0.1426 -0.3208 -0.0204
 3004SOL    HW211788   4.827   2.947   3.791 -0.6895  0.0314 -1.5573
 3004SOL    HW311789   4.926   2.858   3.718 -0.2529  0.2064 -1.1821
 3004SOL    MW411790   4.907   2.933   3.758 -0.0018 -0.1380 -0.0246
 3005SOL     OW11791   3.408   0.579   2.740 -0.0886 -0.4615 -0.2146
 3005SOL    HW211792   3.441   0.666   2.720  1.0506 -0.7608  0.2201
 3005SOL    HW311793   3.374   0.586   2.829  1.3805 -0.7811  0.4068
 3005SOL    MW411794   3.408   0.591   2.749  0.4682 -0.2231  0.2917
 3006SOL     OW11795   4.884   0.052   5.006 -0.1448 -0.0170 -0.0498
 3006SOL    HW211796   4.913   0.012   4.924  0.4719 -2.9948  1.4781
 3006SOL    HW311797   4.840  -0.020   5.053 -0.9270  1.7201  2.0187
 3006SOL    MW411798   4.882   0.037   5.001  0.3500 -0.0130  0.6288
 3007SOL     OW11799   2.428   0.110   2.626 -0.2610  0.6259 -0.0613
 3007SOL    HW211800   2.364   0.127   2.695  1.0526 -1.5802  1.8383
 3007SOL    HW311801   2.399   0.028   2.587 -0.8050  1.6890 -2.0179
 3007SOL    MW411802   2.416   0.102   2.630  0.0778  0.5340 -0.4841
 3008SOL     OW11803   1.709   0.873   1.597  0.3619 -0.4662 -0.1656
 3008SOL    HW211804   1.734   0.914   1.680 -0.9179  2.5625 -1.1331
 3008SOL    HW311805   1.790   0.871   1.546  0.8295 -0.9211  0.5694
 3008SOL    MW411806   1.723   0.878   1.601 -1.0769 -0.5590  0.6332
 3009SOL     OW11807   4.594   5.976   1.962  0.3187  0.9351 -0.0705
 3009SOL    HW211808   4.603   5.881   1.959  0.8417  0.9612  0.4866
 3009SOL    HW311809   4.660   6.004   2.025  1.9363  1.8888 -2.0799
 3009SOL    MW411810   4.604   5.967   1.970  0.4162 -0.1526 -0.3345
 3010SOL     OW11811   3.310   0.995   0.610 -0.1252  0.3824 -0.2884
 3010SOL    HW211812   3.244   1.048   0.566 -0.5104 -0.8315 -1.2508
 3010SOL    HW311813   3.326   0.922   0.549  2.4696  0.9018 -0.3180
 3010SOL    MW411814   3.303   0.992   0.596 -0.0750  0.0900  0.0093
 3011SOL     OW11815   3.630   0.388   1.705 -0.4790  0.4097  0.1117
 3011SOL    HW211816   3.685   0.381   1.783 -0.3593 -0.8816 -0.0674
 3011SOL    HW311817   3.654   0.472   1.666  2.6902 -0.8717 -0.9335
 3011SOL    MW411818   3.640   0.398   1.710 -0.3398  0.4543  0.0469
 3012SOL     OW11819   0.860   0.589   3.855  0.3175  0.1102 -0.4086
 3012SOL    HW211820   0.805   0.596   3.777  0.4506  0.8425 -0.4521
 3012SOL    HW311821   0.867   0.495   3.872 -2.6938  0.0008  0.8607
 3012SOL    MW411822   0.854   0.578   3.847  0.2326  0.7037  0.3132
 3013SOL     OW11823   6.103   5.571   3.322  0.1833 -0.2019  0.2440
 3013SOL    HW211824   6.163   5.558   3.395 -0.1620  0.2836  0.6225
 3013SOL    HW311825   6.040   5.635   3.354 -0.3933 -0.5213 -0.2357
 3013SOL    MW411826   6.103   5.578   3.336 -0.4121 -0.2386 -0.1476
 3014SOL     OW11827   4.255   0.898   5.922  0.4443 -0.5389  0.0327
 3014SOL    HW211828   4.250   0.945   5.839 -0.5619 -1.4561 -0.4429
 3014SOL    HW311829   4.167   0.866   5.938  0.4301  0.2792  1.8696
 3014SOL    MW411830   4.243   0.900   5.913 -0.5219 -0.1820 -0.7084
 3015SOL     OW11831   5.729   1.647   6.312 -0.0610 -0.2361 -0.0486
 3015SOL    HW211832   5.755   1.715   6.249  2.5872 -0.7543  0.3413
 3015SOL    HW311833   5.700   1.574   6.258  0.5295 -0.0525 -0.6348
 3015SOL    MW411834   5.729   1.647   6.296  0.0221 -0.2075 -0.0978
 3016SOL     OW11835   5.994   2.222   1.748  0.1977 -0.0760 -0.5257
 3016SOL    HW211836   6.066   2.259   1.696  0.9881  2.0306  1.8297
 3016SOL    HW311837   5.916   2.234   1.693  0.9629  2.1886 -1.2435
 3016SOL    MW411838   5.993   2.229   1.734 -0.6675  0.3681  0.3677
 3017SOL     OW11839   4.371   1.623   2.354 -0.1068  0.1584  1.0030
 3017SOL    HW211840   4.446   1.677   2.377 -1.1045  1.9652  0.1798
 3017SOL    HW311841   4.364   1.631   2.259 -1.2868 -0.0320  1.0552
 3017SOL    MW411842   4.380   1.631   2.344 -0.2460  0.2196  0.0881
 3018SOL     OW11843   0.934   4.830   0.252  0.1574  0.0942  0.4956
 3018SOL    HW211844   0.934   4.744   0.209  2.7777  0.8756 -1.2934
 3018SOL    HW311845   0.843   4.860   0.244 -0.0365 -0.9033 -2.3825
 3018SOL    MW411846   0.922   4.822   0.245 -0.4683  0.5514  0.0055
 3019SOL     OW11847   1.426   5.312   3.423  0.2000  0.2301  0.5187
 3019SOL    HW211848   1.388   5.275   3.502  0.1022 -0.3210  0.2200
 3019SOL    HW311849   1.354   5.315   3.360  0.4367  0.0152  0.2333
 3019SOL    MW411850   1.412   5.308   3.425  0.4503 -0.5163 -0.5006
 3020SOL     OW11851   4.935   3.062   5.199  0.0223 -0.0339 -0.0885
 3020SOL    HW211852   4.876   2.999   5.240 -2.3437  1.1417 -1.4233
 3020SOL    HW311853   4.921   3.143   5.247 -0.2063  0.4989 -1.0283
 3020SOL    MW411854   4.925   3.064   5.210  0.6011 -0.0295  0.2028
 3021SOL     OW11855   0.257   1.046   6.109 -0.1051 -0.5727 -0.1115
 3021SOL    HW211856   0.231   1.002   6.028 -1.0896  0.4318 -0.3671
 3021SOL    HW311857   0.185   1.028   6.170  0.7244 -1.4875  0.6134
 3021SOL    MW411858   0.244   1.038   6.107 -0.1105 -0.5060 -0.0835
 3022SOL     OW11859   2.658   5.899   6.225  0.7268 -0.4021  0.4264
 3022SOL    HW211860   2.669   5.949   6.307  0.9247 -2.4120  1.6915
 3022SOL    HW311861   2.586   5.839   6.243  0.0964 -0.2096 -1.2718
 3022SOL    MW411862   2.650   5.898   6.238 -0.3818  0.2188  0.2926
 3023SOL     OW11863   1.624   0.491   5.420  0.1868  0.3753 -0.0460
 3023SOL    HW211864   1.558   0.430   5.388  2.0482 -1.4360 -0.6822
 3023SOL    HW311865   1.613   0.569   5.365 -0.6706 -0.3425 -0.9273
 3023SOL    MW411866   1.614   0.494   5.408  0.1947  0.4936 -0.4942
 3024SOL     OW11867   0.568   1.338   2.643 -0.1112  0.1026  0.4849
 3024SOL    HW211868   0.606   1.345   2.556  1.0588 -0.5720  0.9143
 3024SOL    HW311869   0.533   1.425   2.661  0.6787  0.5749 -0.1936
 3024SOL    MW411870   0.568   1.351   2.634  0.6563  0.1023  0.0492
 3025SOL     OW11871   1.822   0.033   1.930  0.0570  0.1093  0.1158
 3025SOL    HW211872   1.813   0.119   1.889  1.8883  0.1107 -0.3608
 3025SOL    HW311873   1.879   0.049   2.005  0.6598 -0.7336 -0.1518
 3025SOL    MW411874   1.828   0.047   1.935  0.2217  0.1174  0.5071
 3026SOL     OW11875   0.796   2.999   0.835  0.2099  0.5089  0.4046
 3026SOL    HW211876   0.776   2.944   0.759 -0.6283  1.9714 -0.4891
 3026SOL    HW311877   0.843   2.941   0.895  0.0575 -0.9485 -0.8167
 3026SOL    MW411878   0.799   2.984   0.832 -0.0736  0.2600  0.3008
 3027SOL     OW11879   0.291   5.563   6.115 -0.7554  0.3519 -0.0118
 3027SOL    HW211880   0.274   5.474   6.145  0.9865  0.0983  0.3471
 3027SOL    HW311881   0.268   5.562   6.022 -1.1959 -0.3317  0.0962
 3027SOL    MW411882   0.286   5.551   6.107  0.6198 -0.1689  0.5590
 3028SOL     OW11883   0.208   2.520   6.088 -0.3592 -0.0012 -0.3942
 3028SOL    HW211884   0.217   2.425   6.081  0.3103 -0.0501  0.8936
 3028SOL    HW311885   0.280   2.547   6.144 -1.4248  1.0850  0.5014
 3028SOL    MW411886   0.219   2.511   6.094  0.5340 -0.4268  0.4902
 3029SOL     OW11887   1.685   4.408   3.555 -0.0050 -0.2037 -0.0763
 3029SOL    HW211888   1.706   4.319   3.582 -0.8110 -0.3099  0.2157
 3029SOL    HW311889   1.755   4.431   3.494  0.8924 -0.5828  0.7781
 3029SOL    MW411890   1.697   4.399   3.551 -0.2470 -0.1262  0.5677
 3030SOL     OW11891   2.699   5.038   1.132  0.1075  0.6101  0.6410
 3030SOL    HW211892   2.621   5.067   1.178 -1.0397 -0.5389 -0.4954
 3030SOL    HW311893   2.757   5.004   1.200 -1.2523 -0.4129  1.3179
 3030SOL    MW411894   2.696   5.037   1.147 -0.4216  0.0735 -0.1195
 3031SOL     OW11895   1.924   4.078   4.465 -0.3242  0.3354 -0.1955
 3031SOL    HW211896   1.950   4.070   4.557 -1.0684  2.2394  0.2292
 3031SOL    HW311897   2.005   4.062   4.416  0.4194  0.7262  0.8585
 3031SOL    MW411898   1.938   4.075   4.470  0.0905  0.1948  0.3739
 3032SOL     OW11899   0.374   2.978   2.564 -0.0274 -0.1710  0.3152
 3032SOL    HW211900   0.404   2.933   2.485  0.3026  0.2234  0.2196
 3032SOL    HW311901   0.311   2.917   2.602 -0.7870 -0.0411 -0.6638
 3032SOL    MW411902   0.369   2.964   2.558  0.2635 -0.5780 -0.1092
 3033SOL     OW11903   3.604   6.074   1.334  0.5884 -0.0417  0.1985
 3033SOL    HW211904   3.604   6.053   1.240 -0.2591 -0.7587  0.3466
 3033SOL    HW311905   3.580   6.167   1.338 -2.7269 -0.7538 -0.1992
 3033SOL    MW411906   3.601   6.084   1.322  0.5435  0.0091  0.6753
 3034SOL     OW11907   4.021   3.694   1.352 -0.3151 -0.1648  0.3252
 3034SOL    HW211908   3.962   3.730   1.285 -0.7230 -1.6071 -0.1157
 3034SOL    HW311909   3.992   3.735   1.433 -0.2491  1.0959 -0.2503
 3034SOL    MW411910   4.010   3.704   1.354 -0.0037  0.2874  0.7913
 3035SOL     OW11911   3.610   5.883   0.833 -1.0580  0.0417 -0.4614
 3035SOL    HW211912   3.655   5.802   0.856  0.8150  0.3830 -2.5450
 3035SOL    HW311913   3.584   5.871   0.742  1.3296  2.5192 -1.6126
 3035SOL    MW411914   3.612   5.871   0.824 -0.1348  0.1827 -0.3817
 3036SOL     OW11915   2.606   2.259   4.310  0.2798 -0.5189 -0.1448
 3036SOL    HW211916   2.575   2.291   4.226  1.9391 -0.7232 -0.8631
 3036SOL    HW311917   2.609   2.164   4.299 -0.1523 -0.5993  0.3898
 3036SOL    MW411918   2.602   2.250   4.298  0.1467  0.2783  0.6418
 3037SOL     OW11919   5.658   0.399   0.841 -0.2374  0.0363 -0.4223
 3037SOL    HW211920   5.585   0.453   0.810 -0.8267  0.2858  1.3204
 3037SOL    HW311921   5.625   0.309   0.835 -0.5503  0.1215 -0.0208
 3037SOL    MW411922   5.644   0.394   0.836  0.3616 -0.2301  0.1729
 3038SOL     OW11923   1.520   6.396   3.828  0.1951  0.5903  0.1374
 3038SOL    HW211924   1.572   6.450   3.769 -0.6185  0.5485 -0.6340
 3038SOL    HW311925   1.585   6.350   3.881  0.9542  0.3267 -0.9867
 3038SOL    MW411926   1.536   6.397   3.827  0.4825  0.0207 -0.4609
 3039SOL     OW11927   3.634   1.276   3.997 -0.2130  0.3496 -0.5015
 3039SOL    HW211928   3.667   1.301   4.083 -1.8065 -0.0403  0.2590
 3039SOL    HW311929   3.566   1.340   3.977  0.3323  0.6115 -1.6235
 3039SOL    MW411930   3.630   1.288   4.006 -0.3576 -0.0800  0.2650
 3040SOL     OW11931   4.606   5.492   1.264  0.6351 -0.2924 -0.0095
 3040SOL    HW211932   4.659   5.492   1.344 -0.1346 -0.0880  0.5173
 3040SOL    HW311933   4.666   5.520   1.195  1.0207  0.7031  0.7033
 3040SOL    MW411934   4.621   5.496   1.266 -0.5846 -0.2242 -0.5525
 3041SOL     OW11935   0.755   0.455   1.764  0.2554 -0.4668  0.7743
 3041SOL    HW211936   0.674   0.494   1.734  0.6889 -1.2799 -1.6275
 3041SOL    HW311937   0.734   0.363   1.778  0.6764 -0.6214  0.4237
 3041SOL    MW411938   0.742   0.448   1.762 -0.2265 -0.4899 -0.5274
 3042SOL     OW11939   2.911   1.452   2.272 -0.1674  0.1446  0.0822
 3042SOL    HW211940   2.819   1.433   2.288  0.0031 -1.5898 -0.7614
 3042SOL    HW311941   2.937   1.388   2.205  1.3808  1.2806 -0.4541
 3042SOL    MW411942   2.902   1.441   2.265  0.2584 -0.0023 -0.3602
 3043SOL     OW11943   4.756   0.789   1.926  0.6120 -0.8147  0.1625
 3043SOL    HW211944   4.779   0.854   1.861 -0.1010 -0.0688  0.6348
 3043SOL    HW311945   4.826   0.793   1.991  0.2840 -0.1043  0.4811
 3043SOL    MW411946   4.768   0.798   1.926 -0.0622 -0.0246  0.1454
 3044SOL     OW11947   3.014   6.433   2.398  0.0969 -0.5959 -0.0280
 3044SOL    HW211948   2.953   6.506   2.411  0.8880  0.4651 -1.7841
 3044SOL    HW311949   3.021   6.425   2.303  3.4852  0.1164  0.0170
 3044SOL    MW411950   3.007   6.442   2.387  0.4941  0.8098 -0.1571
 3045SOL     OW11951   4.442   1.921   2.091  0.0946 -0.0427  0.5497
 3045SOL    HW211952   4.363   1.975   2.082 -0.9491 -1.5215  0.5459
 3045SOL    HW311953   4.414   1.833   2.065  1.4057 -0.8797  1.8538
 3045SOL    MW411954   4.428   1.917   2.086 -0.5092 -0.1957 -0.2819
 3046SOL     OW11955   2.810   2.040   1.712 -0.6755  0.2078 -0.7998
 3046SOL    HW211956   2.878   2.042   1.645 -0.1418  1.0418 -0.2602
 3046SOL    HW311957   2.728   2.035   1.663 -0.2448 -0.5860 -1.4650
 3046SOL    MW411958   2.808   2.040   1.697  0.3356  0.5947  0.1439
 3047SOL     OW11959   5.685   5.569   6.122  0.2242 -0.0820 -0.6576
 3047SOL    HW211960   5.683   5.520   6.040  3.1207 -1.2196 -0.1655
 3047SOL    HW311961   5.687   5.502   6.190  0.4690  0.7833  0.2134
 3047SOL    MW411962   5.685   5.553   6.120  0.3036  0.3988  0.5867
 3048SOL     OW11963   0.478   0.677   3.154 -0.1659 -0.0878 -0.2173
 3048SOL    HW211964   0.511   0.624   3.227  1.7488  0.0579 -0.9117
 3048SOL    HW311965   0.556   0.700   3.105 -1.0974  2.2322 -0.7259
 3048SOL    MW411966   0.493   0.673   3.157  0.2893  0.6175  0.4403
 3049SOL     OW11967   0.227   0.076   3.071 -0.1488  0.5191 -0.3585
 3049SOL    HW211968   0.136   0.091   3.096 -0.2337  1.9615 -1.3933
 3049SOL    HW311969   0.256   0.004   3.127 -1.4563  1.0589  1.0809
 3049SOL    MW411970   0.219   0.069   3.082  0.7646 -0.0573  0.4506
 3050SOL     OW11971   4.551   5.912   4.273  0.3136  0.0613  0.6785
 3050SOL    HW211972   4.551   5.999   4.232  1.4929  0.4234  1.3961
 3050SOL    HW311973   4.530   5.928   4.365 -2.5274 -0.7721  0.2686
 3050SOL    MW411974   4.548   5.926   4.280 -0.3009 -0.2302 -0.5264
 3051SOL     OW11975   3.291   0.667   5.374 -0.6540  0.0582  0.3166
 3051SOL    HW211976   3.257   0.755   5.356 -2.9405 -1.2065 -2.4333
 3051SOL    HW311977   3.228   0.629   5.435 -0.9323 -0.3705 -0.2296
 3051SOL    MW411978   3.278   0.674   5.379 -0.4052  0.0712  0.6452
 3052SOL     OW11979   6.331   1.132   5.842  0.1975  0.0807  0.6049
 3052SOL    HW211980   6.422   1.135   5.871  0.4634 -2.6939  0.2941
 3052SOL    HW311981   6.336   1.131   5.747 -0.3280  1.8422  0.5111
 3052SOL    MW411982   6.344   1.133   5.833 -0.0329  1.2304 -0.1340
 3053SOL     OW11983   6.429   2.481   5.823 -0.1124  0.1401 -0.4130
 3053SOL    HW211984   6.507   2.535   5.811  0.8106 -0.5090  2.0105
 3053SOL    HW311985   6.356   2.537   5.796  1.0325  1.5629 -0.6498
 3053SOL    MW411986   6.430   2.495   5.818  0.0710 -0.0535 -0.0353
 3054SOL     OW11987   5.888   5.937   0.213  0.2687 -0.0188  0.1751
 3054SOL    HW211988   5.971   5.892   0.202  0.4198  0.4729 -0.8314
 3054SOL    HW311989   5.824   5.880   0.171 -0.2719 -1.3349  2.5663
 3054SOL    MW411990   5.890   5.924   0.206  0.2624  0.4875 -0.1858
 3055SOL     OW11991   2.237   4.917   1.073  0.5968 -0.1190  0.3791
 3055SOL    HW211992   2.173   4.880   1.134  0.2433  1.4646  1.0298
 3055SOL    HW311993   2.313   4.936   1.128  1.3014 -1.1628 -0.2202
 3055SOL    MW411994   2.238   4.915   1.089 -0.5124  0.7906  0.5790
 3056SOL     OW11995   6.072   2.230   5.985 -0.2662  0.1179 -0.0356
 3056SOL    HW211996   5.995   2.212   5.932 -1.2329 -0.1233  1.4007
 3056SOL    HW311997   6.084   2.325   5.978 -0.7677  0.1761 -0.1610
 3056SOL    MW411998   6.064   2.240   5.977 -0.4470  0.2957 -0.0493
 3057SOL     OW11999   6.005   3.285   0.722 -0.1026 -0.0606  0.0870
 3057SOL    HW212000   6.064   3.333   0.780  0.6544 -1.0832  0.2058
 3057SOL    HW312001   5.924   3.336   0.721  0.2270  0.5042  1.2322
 3057SOL    MW412002   6.002   3.298   0.729  0.2624  0.1920 -0.3569
 3058SOL     OW12003   1.070   1.494   3.016 -0.1329  0.0207  0.2092
 3058SOL    HW212004   1.064   1.409   2.972  1.5918 -0.5826  1.0146
 3058SOL    HW312005   1.129   1.545   2.960 -0.1875  0.2487  0.3612
 3058SOL    MW412006   1.077   1.489   3.003  0.2921  0.0116  0.1772
 3059SOL     OW12007   3.736   3.801   0.464  0.2439 -0.6149 -0.0470
 3059SOL    HW212008   3.728   3.719   0.415 -0.0400 -0.7576  0.2350
 3059SOL    HW312009   3.768   3.775   0.550 -0.1603 -0.4717  0.1543
 3059SOL    MW412010   3.739   3.787   0.469  0.0080  0.8674  0.0306
 3060SOL     OW12011   0.701   0.902   2.623  0.0385 -0.1518  0.0273
 3060SOL    HW212012   0.671   0.922   2.535  0.7426  2.3275  0.2683
 3060SOL    HW312013   0.625   0.919   2.679  0.6064  1.9738  0.2202
 3060SOL    MW412014   0.687   0.907   2.619 -0.1816  0.4671  0.0507
 3061SOL     OW12015   1.066   1.249   0.792  0.2812 -0.3635 -0.1332
 3061SOL    HW212016   1.146   1.220   0.835  0.2752 -0.0752  0.0767
 3061SOL    HW312017   1.046   1.333   0.833 -2.3195 -2.1495  2.7780
 3061SOL    MW412018   1.074   1.256   0.803 -0.5267 -0.0991 -0.0183
 3062SOL     OW12019   3.448   1.043   3.367 -0.6500 -0.3302  0.0508
 3062SOL    HW212020   3.444   1.099   3.445 -0.6119  3.0427 -2.1526
 3062SOL    HW312021   3.541   1.022   3.358 -0.3368  1.0461 -0.1699
 3062SOL    MW412022   3.460   1.048   3.376  0.1667  0.0376  0.1045
 3063SOL     OW12023   0.270   1.341   1.433  0.1323  0.7380 -0.1464
 3063SOL    HW212024   0.249   1.348   1.340  0.2872  0.2637 -0.2199
 3063SOL    HW312025   0.194   1.378   1.478 -0.8369 -0.8328 -0.4133
 3063SOL    MW412026   0.258   1.346   1.427 -0.2170 -0.1955 -0.0657
 3064SOL     OW12027   1.947   0.280   4.365  0.2967  0.3976  0.0401
 3064SOL    HW212028   1.861   0.293   4.406 -0.0667 -0.9520 -0.2306
 3064SOL    HW312029   1.979   0.197   4.402  1.5485  0.9353  0.2237
 3064SOL    MW412030   1.940   0.271   4.375 -0.2137  0.6216  1.0611
 3065SOL     OW12031   1.494   3.639   5.812  0.1637 -0.9602  0.3872
 3065SOL    HW212032   1.420   3.579   5.803 -0.5496 -0.1375  0.6346
 3065SOL    HW312033   1.455   3.720   5.845  1.1850 -0.5279  0.5590
 3065SOL    MW412034   1.479   3.642   5.815  0.2374  0.6243 -0.2976
 3066SOL     OW12035   0.516   2.675   1.678 -0.5069 -0.3574 -0.1180
 3066SOL    HW212036   0.523   2.622   1.598  0.6964 -0.8837  0.3079
 3066SOL    HW312037   0.477   2.617   1.742  1.3691 -0.9901  0.5217
 3066SOL    MW412038   0.512   2.660   1.676 -0.3260  0.1133  0.3717
 3067SOL     OW12039   4.824   1.020   5.516  0.5449  0.0647  0.3733
 3067SOL    HW212040   4.733   0.991   5.512  0.6444 -0.2747  0.5853
 3067SOL    HW312041   4.819   1.113   5.538  0.2122  0.3080 -0.6726
 3067SOL    MW412042   4.812   1.029   5.518 -0.0140  0.0501  0.6595
 3068SOL     OW12043   4.332   3.420   2.583  0.4706  0.0281  0.5769
 3068SOL    HW212044   4.366   3.509   2.591 -0.8298  0.6191 -0.2032
 3068SOL    HW312045   4.386   3.380   2.515  1.4782 -0.0255  1.3652
 3068SOL    MW412046   4.344   3.427   2.575 -0.0648  0.7412 -0.1626
 3069SOL     OW12047   3.691   0.314   4.586  0.3216 -0.2828  0.0922
 3069SOL    HW212048   3.675   0.371   4.511 -1.2009 -1.1322 -0.2729
 3069SOL    HW312049   3.786   0.312   4.595  0.4839  0.6333 -1.1859
 3069SOL    MW412050   3.701   0.321   4.577 -0.4613 -0.0427 -0.5623
 3070SOL     OW12051   2.340   4.485   1.070  0.6245 -0.0589  0.0930
 3070SOL    HW212052   2.425   4.463   1.108  0.9336  0.3122 -0.3704
 3070SOL    HW312053   2.357   4.563   1.018 -0.3463  0.9977  1.3069
 3070SOL    MW412054   2.354   4.492   1.068 -0.6210  0.3868 -0.2973
 3071SOL     OW12055   5.338   0.396   0.291  0.2323 -0.3067  0.5579
 3071SOL    HW212056   5.266   0.357   0.341 -0.5553  0.5720  0.1468
 3071SOL    HW312057   5.412   0.396   0.351 -0.3933 -0.2905  1.3387
 3071SOL    MW412058   5.338   0.391   0.305 -0.0143 -0.4713 -0.0802
 3072SOL     OW12059   3.774   0.334   5.328  0.0209 -0.3963  0.3254
 3072SOL    HW212060   3.690   0.353   5.369  0.3924  1.2782  0.3609
 3072SOL    HW312061   3.822   0.284   5.394 -0.7726 -1.0341  0.4450
 3072SOL    MW412062   3.769   0.330   5.342  0.2017 -0.1947 -0.2491
 3073SOL     OW12063   1.353   2.800   5.708 -0.1309 -0.5548  0.3325
 3073SOL    HW212064   1.422   2.759   5.760 -0.6732  0.3317  1.8310
 3073SOL    HW312065   1.397   2.830   5.628  1.1542 -0.2566  1.1246
 3073SOL    MW412066   1.368   2.799   5.704  0.2849  0.3344  0.1837
 3074SOL     OW12067   1.852   4.861   2.602  0.4682 -0.6235 -0.0675
 3074SOL    HW212068   1.762   4.890   2.613  0.5034 -0.8822  0.9176
 3074SOL    HW312069   1.901   4.942   2.583  0.1690 -0.3680  0.2446
 3074SOL    MW412070   1.847   4.875   2.601  0.0755  0.2173 -0.5038
 3075SOL     OW12071   2.038   3.639   0.006 -0.1967 -0.2560  0.3588
 3075SOL    HW212072   2.036   3.544   0.015 -0.7018 -0.3588 -0.7690
 3075SOL    HW312073   1.952   3.668   0.037 -1.0686 -0.4175 -1.7753
 3075SOL    MW412074   2.027   3.630   0.012 -0.1831  0.1057  0.3326
 3076SOL     OW12075   2.800   0.627   3.059  0.4923 -0.2401 -0.1755
 3076SOL    HW212076   2.801   0.587   2.972  3.9937  3.8686 -2.4596
 3076SOL    HW312077   2.762   0.714   3.045 -2.5924 -0.7232  3.4681
 3076SOL    MW412078   2.795   0.634   3.046  0.0485  0.4099 -0.1772
 3077SOL     OW12079   2.762   3.720   0.088  0.1044  0.1040 -0.1107
 3077SOL    HW212080   2.809   3.642   0.059  0.5368 -0.4271  1.8772
 3077SOL    HW312081   2.678   3.686   0.119 -0.0016  0.5321  0.0680
 3077SOL    MW412082   2.757   3.705   0.088 -0.0583 -0.0322  0.5428
 3078SOL     OW12083   4.238   3.712   6.158 -0.1078 -0.4504  0.2958
 3078SOL    HW212084   4.262   3.803   6.176  1.1799  0.1430 -3.5582
 3078SOL    HW312085   4.156   3.699   6.206  0.1021  2.4332  1.6546
 3078SOL    MW412086   4.231   3.722   6.167 -0.7017  0.0421  0.2457
 3079SOL     OW12087   3.256   4.194   5.511 -0.1334  0.0803 -0.1271
 3079SOL    HW212088   3.211   4.235   5.585 -0.4158  0.5278 -0.5395
 3079SOL    HW312089   3.347   4.221   5.521 -0.2827  0.6681 -0.2866
 3079SOL    MW412090   3.262   4.203   5.522 -0.6588 -0.7584 -0.3618
 3080SOL     OW12091   3.318   0.151   0.943  0.8935 -0.5489 -0.2124
 3080SOL    HW212092   3.394   0.121   0.992  1.4916  0.2479 -0.6370
 3080SOL    HW312093   3.305   0.241   0.971  2.7384  0.7684 -3.2415
 3080SOL    MW412094   3.326   0.159   0.953  0.6683  0.1199  0.0705
 3081SOL     OW12095   5.390   3.346   4.992  0.9556 -0.8087  0.7721
 3081SOL    HW212096   5.317   3.374   5.048 -0.0125  1.3934 -1.3927
 3081SOL    HW312097   5.375   3.253   4.978 -1.0602 -0.5752  0.9994
 3081SOL    MW412098   5.378   3.337   4.997  0.5463  0.2868  0.0650
 3082SOL     OW12099   4.431   0.648   3.904 -0.1467 -0.2324 -0.2592
 3082SOL    HW212100   4.526   0.661   3.904  0.1152 -1.9077 -0.0719
 3082SOL    HW312101   4.405   0.665   3.995  0.0926 -0.4668 -0.1441
 3082SOL    MW412102   4.440   0.652   3.916 -0.1302 -0.4702  0.0686
 3083SOL     OW12103   1.975   2.024   2.712  0.5711  0.0129 -0.0170
 3083SOL    HW212104   2.031   1.958   2.752 -0.3381 -0.6217  0.2484
 3083SOL    HW312105   1.970   2.094   2.778 -3.5960 -2.4095  2.7550
 3083SOL    MW412106   1.981   2.025   2.726 -0.0003  0.3905 -0.2152
 3084SOL     OW12107   5.714   3.137   2.902  0.1846  0.2335 -0.1719
 3084SOL    HW212108   5.638   3.117   2.957  1.2444  0.0427  1.2749
 3084SOL    HW312109   5.725   3.232   2.911 -0.1732  0.3309 -0.7687
 3084SOL    MW412110   5.705   3.147   2.911  0.5692  0.6038  0.3973
 3085SOL     OW12111   6.104   5.828   0.037 -0.2524  0.1554 -0.4662
 3085SOL    HW212112   6.032   5.797  -0.018 -1.5895 -0.7587  1.6597
 3085SOL    HW312113   6.122   5.755   0.097  1.4891  0.8962 -0.0073
 3085SOL    MW412114   6.097   5.814   0.038 -0.0643 -0.1995 -0.2638
 3086SOL     OW12115   6.263   0.476   1.562  0.5600 -0.4123 -0.1368
 3086SOL    HW212116   6.262   0.566   1.530  0.2376 -0.1111  0.6838
 3086SOL    HW312117   6.290   0.484   1.654  0.2682 -1.1226  0.0161
 3086SOL    MW412118   6.267   0.489   1.570 -0.3022 -0.4338  0.1131
 3087SOL     OW12119   4.855   4.487   5.591 -0.2638 -0.4027 -0.0851
 3087SOL    HW212120   4.879   4.559   5.533 -0.0121  0.2465  0.8192
 3087SOL    HW312121   4.928   4.425   5.584 -1.7150 -2.0111 -3.0719
 3087SOL    MW412122   4.867   4.488   5.582 -0.0183 -0.3148  0.1022
 3088SOL     OW12123   2.071   2.853   1.054  0.2600  0.2906  0.4386
 3088SOL    HW212124   2.090   2.921   0.989 -0.9235  0.5556  0.3439
 3088SOL    HW312125   2.156   2.815   1.075  0.6582  0.1078 -1.3673
 3088SOL    MW412126   2.085   2.857   1.048 -0.0535 -0.1832 -0.0479
 3089SOL     OW12127   6.094   1.825   4.674  0.1526  0.2430 -0.0425
 3089SOL    HW212128   6.011   1.814   4.720  0.6964  0.0661  0.9194
 3089SOL    HW312129   6.081   1.783   4.589 -0.3686 -0.8040  0.5461
 3089SOL    MW412130   6.082   1.818   4.669  0.3970  0.0276 -0.0778
 3090SOL     OW12131   4.212   5.832   2.350 -0.7573  0.1877 -0.5151
 3090SOL    HW212132   4.237   5.898   2.414  0.6326  0.2694 -1.1128
 3090SOL    HW312133   4.131   5.795   2.385 -0.9925  1.4571  0.3675
 3090SOL    MW412134   4.205   5.836   2.363  0.3731  0.8446  0.2518
 3091SOL     OW12135   1.873   1.028   2.302 -0.0919  0.3561 -0.0298
 3091SOL    HW212136   1.845   1.057   2.388 -0.0159  1.7417 -0.4467
 3091SOL    HW312137   1.832   1.089   2.241 -0.3218 -0.7308 -1.0017
 3091SOL    MW412138   1.864   1.040   2.305 -0.1179  0.0125  0.7448
 3092SOL     OW12139   2.651   4.052   3.907  0.4239 -0.0451 -0.0611
 3092SOL    HW212140   2.746   4.040   3.918  0.4841  0.1585 -0.3602
 3092SOL    HW312141   2.616   3.963   3.906  0.3232 -0.1159  2.5014
 3092SOL    MW412142   2.659   4.039   3.908  0.6041  0.5686 -0.1715
 3093SOL     OW12143   5.450   5.704   3.132  0.3323  0.1538 -0.5276
 3093SOL    HW212144   5.402   5.729   3.054  0.5514  0.1139 -0.6757
 3093SOL    HW312145   5.536   5.743   3.122  1.0520 -1.5232 -1.2793
 3093SOL    MW412146   5.455   5.712   3.121  0.0080  0.2294 -0.4242
 3094SOL     OW12147   1.821   5.033   2.866 -0.1880  0.4356 -0.0161
 3094SOL    HW212148   1.768   5.082   2.929  0.0369  1.2215 -0.4198
 3094SOL    HW312149   1.761   4.969   2.828 -0.6517  0.8056  0.0836
 3094SOL    MW412150   1.806   5.031   2.870 -0.4826 -0.1791  0.1684
 3095SOL     OW12151   6.284   5.644   4.155  0.0231  0.3447 -0.8614
 3095SOL    HW212152   6.375   5.674   4.152  0.1246  0.0765 -0.5907
 3095SOL    HW312153   6.256   5.663   4.244 -0.1812  0.4151 -0.9419
 3095SOL    MW412154   6.293   5.650   4.166  0.1322  0.5318 -0.7141
 3096SOL     OW12155   1.734   5.937   1.149  0.0684 -0.7322  0.6525
 3096SOL    HW212156   1.767   6.026   1.165  1.2176 -1.0311 -0.0088
 3096SOL    HW312157   1.644   5.950   1.120  0.0143  0.1768  1.1868
 3096SOL    MW412158   1.727   5.951   1.148  0.2458 -0.0116  0.2544
 3097SOL     OW12159   5.773   0.208   2.354 -0.4865  0.0792 -0.5327
 3097SOL    HW212160   5.833   0.156   2.408  0.7819  0.5079 -1.5058
 3097SOL    HW312161   5.748   0.149   2.282 -0.0176  0.4071 -0.9665
 3097SOL    MW412162   5.777   0.193   2.352  0.2632  0.1393  0.2757
 3098SOL     OW12163   0.366   5.607   1.174  0.3808  0.8520 -0.9699
 3098SOL    HW212164   0.456   5.632   1.151  0.9385 -1.0266 -0.9362
 3098SOL    HW312165   0.326   5.583   1.090 -0.0575  1.5040 -0.9596
 3098SOL    MW412166   0.372   5.607   1.160  0.5542 -0.5112  0.4269
 3099SOL     OW12167   3.665   2.329   4.537  0.0990 -0.1120  0.1398
 3099SOL    HW212168   3.739   2.386   4.556 -1.6899  2.3178  0.3810
 3099SOL    HW312169   3.626   2.312   4.623 -1.8134  1.9529 -0.2257
 3099SOL    MW412170   3.669   2.334   4.551 -0.4272  0.1996  0.4477
 3100SOL     OW12171   0.488   5.478   4.486 -0.0511  0.7384 -0.3975
 3100SOL    HW212172   0.414   5.420   4.469  0.7049 -0.8490  1.3459
 3100SOL    HW312173   0.561   5.437   4.438  0.5547 -0.0093  1.0830
 3100SOL    MW412174   0.488   5.465   4.477 -0.6782 -0.5508 -0.0356
 3101SOL     OW12175   1.280   2.026   4.555 -0.5687  0.4561 -0.3003
 3101SOL    HW212176   1.289   1.937   4.521 -0.7314  1.0055 -1.8715
 3101SOL    HW312177   1.367   2.047   4.589 -1.1543 -1.1999  2.5855
 3101SOL    MW412178   1.293   2.017   4.555  0.3832  0.6023  0.4944
 3102SOL     OW12179   2.779   4.781   4.844  0.0038 -0.4499 -0.2857
 3102SOL    HW212180   2.776   4.877   4.850 -0.7436 -0.5032  0.4614
 3102SOL    HW312181   2.860   4.762   4.798 -0.4654  0.5941 -1.6035
 3102SOL    MW412182   2.789   4.791   4.839  0.0418  0.6886  0.0268
 3103SOL     OW12183   1.188   5.990   5.298 -0.3905 -0.4718 -0.4690
 3103SOL    HW212184   1.163   6.082   5.308  0.7671 -0.1035 -0.7882
 3103SOL    HW312185   1.188   5.956   5.387 -0.8808 -0.1769 -0.3526
 3103SOL    MW412186   1.184   5.998   5.311 -0.0096 -0.3927  0.7946
 3104SOL     OW12187   3.268   4.345   1.483 -0.8897 -0.7907 -0.3433
 3104SOL    HW212188   3.179   4.340   1.517 -0.8681 -3.3562 -0.4286
 3104SOL    HW312189   3.319   4.286   1.539  0.9371  1.0896  0.0877
 3104SOL    MW412190   3.263   4.336   1.495  0.7071  0.4899  0.4667
 3105SOL     OW12191   2.020   6.120   4.584 -0.1107 -0.2314 -0.2528
 3105SOL    HW212192   1.993   6.147   4.496  0.1605 -0.0117 -0.2698
 3105SOL    HW312193   2.110   6.150   4.591  0.1420 -0.9817 -0.2103
 3105SOL    MW412194   2.028   6.127   4.573 -0.5436 -0.1075  0.5726
 3106SOL     OW12195   2.119   3.587   1.624 -0.2573  0.1633  0.2110
 3106SOL    HW212196   2.158   3.652   1.566 -0.5744 -0.2071 -0.4325
 3106SOL    HW312197   2.184   3.517   1.629 -0.1849  0.2422  0.3944
 3106SOL    MW412198   2.133   3.586   1.617 -0.0352  0.1032  0.4020
 3107SOL     OW12199   2.960   5.540   6.213  0.2607  0.2052  0.3486
 3107SOL    HW212200   3.052   5.540   6.241  0.6020 -0.2618 -0.7437
 3107SOL    HW312201   2.912   5.503   6.288  0.9984  0.1124  0.7860
 3107SOL    MW412202   2.966   5.535   6.227 -0.2534  0.1706 -0.2596
 3108SOL     OW12203   3.274   0.432   1.033 -0.2550 -0.3205 -0.0105
 3108SOL    HW212204   3.184   0.403   1.050 -1.2767  2.1810 -0.5628
 3108SOL    HW312205   3.263   0.511   0.979  2.3372 -0.4700 -0.8836
 3108SOL    MW412206   3.260   0.439   1.028 -0.3996 -0.1172 -0.3347
 3109SOL     OW12207   4.868   4.063   2.226 -0.7543 -0.0092 -0.5004
 3109SOL    HW212208   4.894   4.146   2.268 -4.5115  0.9046  0.3928
 3109SOL    HW312209   4.922   3.997   2.269  0.5834  1.6983  0.5981
 3109SOL    MW412210   4.879   4.065   2.237 -0.2739  0.4332  0.2431
 3110SOL     OW12211   0.558   3.237   4.461 -0.2990  0.3098 -0.4496
 3110SOL    HW212212   0.586   3.210   4.548  0.2161 -0.1037 -0.7362
 3110SOL    HW312213   0.478   3.187   4.444 -0.5887  0.6439 -0.0842
 3110SOL    MW412214   0.551   3.227   4.470 -0.1942  0.4163  0.7211
 3111SOL     OW12215   6.045   4.628   3.789 -0.0673  0.2139 -0.3431
 3111SOL    HW212216   6.138   4.620   3.812 -0.0033  0.2172 -0.6053
 3111SOL    HW312217   6.003   4.654   3.871  0.3655  1.6307 -0.5421
 3111SOL    MW412218   6.052   4.631   3.803  0.1153  0.1881 -0.2635
 3112SOL     OW12219   4.193   1.217   6.399  0.0911  0.0797  0.2690
 3112SOL    HW212220   4.194   1.175   6.485  0.8939  1.5905  1.0487
 3112SOL    HW312221   4.270   1.274   6.400 -0.6109  1.1018 -0.9615
 3112SOL    MW412222   4.204   1.219   6.410  0.4672 -0.7571  0.1936
 3113SOL     OW12223   0.467   2.371   3.271  0.4543 -0.4458  0.2338
 3113SOL    HW212224   0.371   2.371   3.277  0.3820  0.5582 -0.5494
 3113SOL    HW312225   0.497   2.407   3.354  0.0729  0.5582 -0.0417
 3113SOL    MW412226   0.458   2.376   3.283 -0.1013 -0.0945  0.0775
 3114SOL     OW12227   2.551   0.043   1.434  0.3248  0.1980  0.1064
 3114SOL    HW212228   2.612   0.087   1.493 -2.4598  1.7407  2.0571
 3114SOL    HW312229   2.588  -0.044   1.421  2.8258  1.0178  1.2505
 3114SOL    MW412230   2.564   0.038   1.440  0.0712 -0.2001  0.3834
 3115SOL     OW12231   0.360   6.067   5.863 -0.0657 -0.2845 -0.9398
 3115SOL    HW212232   0.372   5.973   5.875 -1.9947 -0.4676 -0.0712
 3115SOL    HW312233   0.268   6.077   5.839  0.0803  1.3864 -0.9501
 3115SOL    MW412234   0.350   6.056   5.862  0.5514 -0.0559  0.0405
 3116SOL     OW12235   2.194   0.304   5.537 -0.0418  0.1335 -0.4949
 3116SOL    HW212236   2.170   0.217   5.506  0.0579  0.4575 -1.5275
 3116SOL    HW312237   2.165   0.363   5.467 -1.2390  1.0620  0.7383
 3116SOL    MW412238   2.187   0.300   5.523 -0.3241  0.3950 -0.3617
 3117SOL     OW12239   3.602   5.441   4.017 -0.0185 -0.8657 -0.0459
 3117SOL    HW212240   3.507   5.428   4.013 -0.2541  0.0906  1.4956
 3117SOL    HW312241   3.618   5.517   3.961 -0.5117  0.3532  1.3954
 3117SOL    MW412242   3.591   5.449   4.009 -0.5495 -0.3503  0.3114
 3118SOL     OW12243   0.391   0.548   4.616  0.1824  0.2590 -0.3908
 3118SOL    HW212244   0.305   0.549   4.573  0.3056 -0.7855 -0.6817
 3118SOL    HW312245   0.409   0.640   4.634 -1.4807  0.4321  0.6399
 3118SOL    MW412246   0.382   0.560   4.613  0.3759 -0.4126  0.5615
 3119SOL     OW12247   0.870   6.257   3.929 -0.1536 -0.0770  0.4447
 3119SOL    HW212248   0.815   6.232   4.004 -0.1630  0.9554  0.7991
 3119SOL    HW312249   0.928   6.183   3.916 -0.7914 -0.6676  0.8699
 3119SOL    MW412250   0.870   6.244   3.937  0.4551  0.5335 -0.3758
 3120SOL     OW12251   0.636   0.057   3.847  0.3651  0.0442  0.1336
 3120SOL    HW212252   0.675   0.074   3.933 -2.5656  2.7435  1.0964
 3120SOL    HW312253   0.672   0.126   3.791  1.0935 -0.7908 -0.4539
 3120SOL    MW412254   0.646   0.069   3.851  0.5009  0.0542  0.1802
 3121SOL     OW12255   4.327   6.101   6.401 -0.0599 -0.4291  0.4832
 3121SOL    HW212256   4.416   6.092   6.435 -0.3380 -0.2486  1.2857
 3121SOL    HW312257   4.329   6.180   6.348  0.3919 -0.7237  0.0601
 3121SOL    MW412258   4.339   6.110   6.399  0.0317  0.1210  0.6230
 3122SOL     OW12259   3.931   3.431   3.263  0.2581  0.4085  0.6440
 3122SOL    HW212260   3.857   3.478   3.301  0.3405 -0.5434  2.0424
 3122SOL    HW312261   3.893   3.379   3.192 -0.2082  0.7721  0.6208
 3122SOL    MW412262   3.916   3.430   3.259 -0.4565  0.2704 -0.1562
 3123SOL     OW12263   4.279   3.139   1.595  0.1691  0.4083 -0.1580
 3123SOL    HW212264   4.245   3.112   1.509  0.0136  2.0375 -0.6509
 3123SOL    HW312265   4.288   3.234   1.588 -1.2961  0.7994  2.1252
 3123SOL    MW412266   4.276   3.148   1.582 -0.6144 -0.0593 -0.8384
 3124SOL     OW12267   3.606   1.131   0.308  0.1219  0.0369 -0.6642
 3124SOL    HW212268   3.537   1.171   0.255 -1.0983 -0.3163  0.6188
 3124SOL    HW312269   3.581   1.149   0.398  0.3769 -2.2215 -0.0879
 3124SOL    MW412270   3.594   1.139   0.313 -1.0809 -0.0676  0.0054
 3125SOL     OW12271   6.028   3.477   2.708  0.1553  0.8215  0.7249
 3125SOL    HW212272   6.113   3.439   2.732 -0.2725 -0.1932  0.6775
 3125SOL    HW312273   6.042   3.572   2.713  1.1858  0.6643  1.0778
 3125SOL    MW412274   6.041   3.484   2.712 -0.5475  0.0055  0.0512
 3126SOL     OW12275   1.544   5.855   0.848 -0.0908 -0.6487 -0.4118
 3126SOL    HW212276   1.628   5.853   0.893 -0.7270  1.2375  1.0182
 3126SOL    HW312277   1.539   5.942   0.809 -0.7298 -1.2949 -1.8657
 3126SOL    MW412278   1.554   5.866   0.849 -0.0141 -0.1311 -0.1574
 3127SOL     OW12279   3.091   2.864   2.270 -0.3230  0.6850 -0.3059
 3127SOL    HW212280   3.030   2.820   2.211  0.6978 -0.7738 -0.3083
 3127SOL    HW312281   3.161   2.801   2.284  0.3987  1.7229  0.9696
 3127SOL    MW412282   3.092   2.850   2.264 -0.3079  0.3251  0.0910
 3128SOL     OW12283   5.757   5.962   4.020  0.1584  0.2709 -0.0589
 3128SOL    HW212284   5.815   5.903   3.972 -0.0754  0.6322 -0.8018
 3128SOL    HW312285   5.811   6.038   4.040  0.2835  0.0793  0.3505
 3128SOL    MW412286   5.771   5.964   4.017  0.5232 -0.1147  0.2872
 3129SOL     OW12287   3.834   2.965   5.348  0.5039 -0.2725 -0.0627
 3129SOL    HW212288   3.813   2.925   5.432  1.8844  0.2141  0.5449
 3129SOL    HW312289   3.855   3.056   5.369  0.2417  0.0278 -1.0285
 3129SOL    MW412290   3.834   2.972   5.362  0.7529 -0.3151  0.2144
 3130SOL     OW12291   4.382   5.878   2.750  0.2471  0.3501 -0.3627
 3130SOL    HW212292   4.381   5.930   2.830  0.4475  0.1030 -0.1970
 3130SOL    HW312293   4.338   5.932   2.685 -1.9150 -0.3008  0.4564
 3130SOL    MW412294   4.376   5.892   2.752  0.1169 -0.3490 -0.5273
 3131SOL     OW12295   1.963   0.887   1.470  0.0905 -0.2586 -0.3541
 3131SOL    HW212296   2.042   0.916   1.515 -1.1059  2.5939  0.1264
 3131SOL    HW312297   1.960   0.941   1.391 -0.5265 -1.5673 -1.2611
 3131SOL    MW412298   1.973   0.898   1.466  0.0354 -0.3961 -0.1577
 3132SOL     OW12299   6.104   6.313   2.693  0.1344 -0.4657  0.2939
 3132SOL    HW212300   6.159   6.241   2.662  1.4132  0.4488  0.3646
 3132SOL    HW312301   6.160   6.390   2.688 -1.1783  0.5262  0.3056
 3132SOL    MW412302   6.119   6.314   2.689  0.5279  0.3179 -0.1712
 3133SOL     OW12303   3.143   5.501   1.139 -0.0862 -0.0531  0.0618
 3133SOL    HW212304   3.167   5.557   1.065  1.3216  0.7163  1.0510
 3133SOL    HW312305   3.217   5.508   1.200 -0.5730 -1.7898  0.9163
 3133SOL    MW412306   3.156   5.509   1.138  0.1618 -0.0736  0.3247
 3134SOL     OW12307   5.545   5.065   5.204 -0.3925 -0.0632 -0.6430
 3134SOL    HW212308   5.508   4.986   5.164  0.8563 -1.5965  1.0648
 3134SOL    HW312309   5.486   5.084   5.277 -0.8032  0.7603 -1.1650
 3134SOL    MW412310   5.532   5.057   5.208 -0.2832 -0.0472 -0.5810
 3135SOL     OW12311   1.785   2.008   1.298 -0.5587  0.2675 -0.2557
 3135SOL    HW212312   1.714   1.967   1.346  1.5788 -1.0295  2.0185
 3135SOL    HW312313   1.796   2.094   1.339 -0.2934  0.1254 -0.0220
 3135SOL    MW412314   1.777   2.014   1.310 -0.3137 -0.3084  0.1505
 3136SOL     OW12315   5.720   0.497   2.355 -0.2618  0.1989 -0.3166
 3136SOL    HW212316   5.750   0.411   2.324 -0.1762  0.6543 -1.5282
 3136SOL    HW312317   5.682   0.479   2.441  0.2153 -0.9727 -0.3316
 3136SOL    MW412318   5.719   0.483   2.362 -0.2034 -0.4508 -0.2446
 3137SOL     OW12319   0.708   3.614   4.463  0.5076 -0.1681 -0.6516
 3137SOL    HW212320   0.708   3.710   4.463  0.3177 -0.1575 -1.3406
 3137SOL    HW312321   0.617   3.590   4.479  0.6132 -0.2361 -0.1633
 3137SOL    MW412322   0.696   3.623   4.465 -0.3028 -0.5102  0.1413
 3138SOL     OW12323   4.632   5.811   2.317 -0.6626  0.1437 -0.0671
 3138SOL    HW212324   4.639   5.832   2.410 -0.8740  1.3499 -0.3018
 3138SOL    HW312325   4.566   5.741   2.312 -0.9039  0.3157  0.6614
 3138SOL    MW412326   4.624   5.805   2.328  0.0593 -0.2778  0.3768
 3139SOL     OW12327   3.578   3.018   1.337 -0.6373 -0.2329 -0.0369
 3139SOL    HW212328   3.533   2.954   1.283  2.0096 -1.3600 -1.1090
 3139SOL    HW312329   3.639   3.061   1.277  0.0036  0.9365  1.3687
 3139SOL    MW412330   3.580   3.015   1.322  0.3206 -0.1224 -0.6505
 3140SOL     OW12331   5.265   4.065   6.241 -0.1849  0.6814 -0.3154
 3140SOL    HW212332   5.270   4.091   6.149  1.0453  0.0382 -0.4511
 3140SOL    HW312333   5.225   3.978   6.239  0.8332  0.1956 -0.3601
 3140SOL    MW412334   5.260   4.057   6.229  0.4641 -0.6962 -0.1602
 3141SOL     OW12335   0.709   3.794   4.764 -0.1509 -0.2689  0.4004
 3141SOL    HW212336   0.793   3.809   4.808  0.2048  1.6742 -0.8210
 3141SOL    HW312337   0.700   3.699   4.761  2.5824 -0.5778 -0.4752
 3141SOL    MW412338   0.719   3.784   4.769 -0.2321  0.0724 -0.4192
 3142SOL     OW12339   4.692   0.902   4.262 -0.0289  0.3086  0.1372
 3142SOL    HW212340   4.679   0.872   4.352  1.7683  1.1361  0.7316
 3142SOL    HW312341   4.754   0.840   4.225  0.5590  0.9296  0.0521
 3142SOL    MW412342   4.698   0.890   4.269  0.1751  0.2684  0.2448
 3143SOL     OW12343   5.891   1.952   1.486 -0.0307  0.1079  0.5402
 3143SOL    HW212344   5.949   2.014   1.442  1.5178 -0.9237  1.0628
 3143SOL    HW312345   5.868   1.996   1.568  3.3319 -1.0129  2.2463
 3143SOL    MW412346   5.895   1.966   1.491  0.0194  0.5679  0.5417
 3144SOL     OW12347   4.329   1.246   3.546 -0.0164  0.0772  0.1441
 3144SOL    HW212348   4.348   1.173   3.487  1.6611 -0.1824  0.9511
 3144SOL    HW312349   4.403   1.306   3.535 -0.4267  0.7466  0.8886
 3144SOL    MW412350   4.341   1.244   3.537  0.0196  0.6022 -0.2698
 3145SOL     OW12351   6.363   5.946   2.091 -0.3814  0.1251  0.6090
 3145SOL    HW212352   6.311   5.866   2.087  3.1741 -2.4292 -0.0544
 3145SOL    HW312353   6.436   5.924   2.149  0.9790  2.7615  0.0712
 3145SOL    MW412354   6.366   5.932   2.098  0.1185 -0.3391 -0.5008
 3146SOL     OW12355   2.659   1.373   3.957 -0.4912  0.2744 -0.2258
 3146SOL    HW212356   2.742   1.409   3.926 -0.2613 -0.4823 -0.5181
 3146SOL    HW312357   2.598   1.446   3.955 -0.1484  0.5412 -1.2281
 3146SOL    MW412358   2.662   1.387   3.953  0.1341  0.1293  0.0236
 3147SOL     OW12359   2.877   2.306   2.058  0.4281  0.1591  0.1127
 3147SOL    HW212360   2.790   2.294   2.095  1.4530  0.3989  2.7987
 3147SOL    HW312361   2.902   2.219   2.028 -1.0322  0.2526 -1.5844
 3147SOL    MW412362   2.869   2.293   2.059 -0.1378  0.6269  0.9843
 3148SOL     OW12363   4.397   1.148   6.011  0.2383  0.3316  0.0790
 3148SOL    HW212364   4.348   1.076   5.971  1.7517 -0.7265  0.0093
 3148SOL    HW312365   4.434   1.195   5.936 -0.2133  0.7825  0.1411
 3148SOL    MW412366   4.396   1.144   5.995  0.1187 -0.3225 -0.9126
 3149SOL     OW12367   1.143   4.996   5.297 -0.0393  0.3485  0.0882
 3149SOL    HW212368   1.108   4.940   5.227 -0.2402 -0.0911  0.5366
 3149SOL    HW312369   1.210   5.049   5.254 -1.0888  1.0436 -0.7457
 3149SOL    MW412370   1.147   4.996   5.282 -0.2632 -0.4047 -0.3361
 3150SOL     OW12371   4.835   2.669   0.160 -0.9272 -0.3659 -0.4901
 3150SOL    HW212372   4.829   2.721   0.079 -1.5156 -0.9020 -0.8034
 3150SOL    HW312373   4.835   2.578   0.129 -0.1014 -0.5608  0.0624
 3150SOL    MW412374   4.834   2.664   0.145 -0.4579 -0.1973  0.5205
 3151SOL     OW12375   2.515   3.055   0.657 -0.1527  0.0116 -0.0566
 3151SOL    HW212376   2.559   2.980   0.617  0.3468 -0.5661  1.5049
 3151SOL    HW312377   2.580   3.093   0.716 -1.2978 -0.0491  1.3043
 3151SOL    MW412378   2.529   3.050   0.660  0.4197  0.2694 -0.0652
 3152SOL     OW12379   2.596   4.731   3.465  0.1873  0.1275  0.3196
 3152SOL    HW212380   2.624   4.806   3.517 -1.6396  0.6941  0.5434
 3152SOL    HW312381   2.652   4.659   3.495  1.9811  1.3553  0.0910
 3152SOL    MW412382   2.607   4.731   3.476  0.1808  0.3755 -0.4736
 3153SOL     OW12383   1.819   3.951   5.560 -0.3609 -0.4953  0.0459
 3153SOL    HW212384   1.865   3.906   5.631  1.2512  1.3041  0.2324
 3153SOL    HW312385   1.766   4.018   5.604  0.6636  0.6473 -0.4087
 3153SOL    MW412386   1.818   3.954   5.575  0.4992  0.2118  0.1648
 3154SOL     OW12387   1.992   1.530   3.347 -0.3725  0.1916 -0.0152
 3154SOL    HW212388   1.926   1.538   3.416 -0.2572 -3.2983  0.6723
 3154SOL    HW312389   1.941   1.520   3.267 -0.6115  0.3614  0.1128
 3154SOL    MW412390   1.977   1.530   3.346  0.8107 -0.1265 -0.4668
 3155SOL     OW12391   6.079   3.106   5.128 -0.0695  0.5264  0.0198
 3155SOL    HW212392   6.060   3.199   5.142  0.2750  0.2652  2.9789
 3155SOL    HW312393   6.161   3.091   5.176 -0.7621 -1.5132  0.6850
 3155SOL    MW412394   6.087   3.117   5.136  0.1781 -0.5379 -0.2011
 3156SOL     OW12395   4.335   3.362   5.043 -0.2091  0.3558 -0.0431
 3156SOL    HW212396   4.405   3.299   5.025  0.6106  1.8026 -2.2879
 3156SOL    HW312397   4.257   3.308   5.057  1.2916 -1.3279  2.8597
 3156SOL    MW412398   4.334   3.347   5.042 -0.0366  0.0966 -0.5376
 3157SOL     OW12399   1.902   3.505   4.750  0.4066 -0.3923 -1.0112
 3157SOL    HW212400   1.848   3.548   4.816  1.2118 -1.3330  0.3105
 3157SOL    HW312401   1.930   3.576   4.691 -0.1655  0.4975 -0.2315
 3157SOL    MW412402   1.899   3.520   4.751  0.4504 -0.3681 -0.0961
 3158SOL     OW12403   2.761   3.514   1.197  0.3240  0.0667  0.0074
 3158SOL    HW212404   2.852   3.505   1.167  0.0804  0.7883 -0.9910
 3158SOL    HW312405   2.721   3.429   1.178  1.0821 -0.6891  1.5889
 3158SOL    MW412406   2.768   3.501   1.191  0.6260 -0.2614 -0.2150
 3159SOL     OW12407   2.495   3.416   0.902 -0.6805 -0.2386 -0.0489
 3159SOL    HW212408   2.453   3.434   0.987 -1.0758 -0.5031 -0.1849
 3159SOL    HW312409   2.552   3.492   0.887  0.4015 -0.8010  1.0629
 3159SOL    MW412410   2.497   3.429   0.911  0.3430  0.3425  0.0186
 3160SOL     OW12411   3.934   5.254   6.158  0.1310  0.1343  0.0626
 3160SOL    HW212412   3.942   5.163   6.128  0.1454 -0.7285  2.4753
 3160SOL    HW312413   3.959   5.251   6.250  0.2267  2.6362  0.1813
 3160SOL    MW412414   3.938   5.241   6.166  0.6160 -0.0275  0.2708
 3161SOL     OW12415   5.423   0.359   3.998  0.4107 -0.7253 -0.1520
 3161SOL    HW212416   5.468   0.277   3.976  3.0819  0.0687  1.7670
 3161SOL    HW312417   5.471   0.426   3.949 -0.2658 -0.0608  0.0755
 3161SOL    MW412418   5.436   0.357   3.989  0.0697 -0.2689  0.5126
 3162SOL     OW12419   2.742   1.780   2.735 -0.0210  0.4803  0.0239
 3162SOL    HW212420   2.749   1.720   2.810 -0.2922 -0.1614 -0.4503
 3162SOL    HW312421   2.664   1.751   2.688  0.4674  0.4992 -0.8273
 3162SOL    MW412422   2.733   1.768   2.738  0.3826  0.4614  0.3151
 3163SOL     OW12423   3.237   2.052   1.111 -0.4178  0.7703  0.2743
 3163SOL    HW212424   3.302   2.111   1.147  1.5092 -0.9646 -0.1373
 3163SOL    HW312425   3.224   1.985   1.179  0.3399 -0.3936 -0.6767
 3163SOL    MW412426   3.244   2.051   1.125  0.0303  0.3326  0.5860
 3164SOL     OW12427   1.457   2.881   2.920  0.2542  0.4993  0.4477
 3164SOL    HW212428   1.534   2.826   2.905 -1.6292 -2.1516 -0.2778
 3164SOL    HW312429   1.446   2.881   3.015 -0.0103 -0.9218  0.4422
 3164SOL    MW412430   1.466   2.873   2.931  0.7154 -0.2047  0.2306
 3165SOL     OW12431   2.699   1.984   3.272 -0.3372  0.4573 -0.5503
 3165SOL    HW212432   2.617   2.032   3.284 -0.2752  0.9779 -2.0866
 3165SOL    HW312433   2.749   2.037   3.210  0.6836 -0.4539 -0.5276
 3165SOL    MW412434   2.695   1.998   3.266 -0.0795  0.6263  0.4567
 3166SOL     OW12435   0.581   4.520   2.636  0.7020  0.1783 -0.0154
 3166SOL    HW212436   0.656   4.460   2.638  1.4812  1.1240 -0.1702
 3166SOL    HW312437   0.585   4.566   2.719 -0.9729 -1.2236  0.9116
 3166SOL    MW412438   0.591   4.518   2.647  0.2728  0.1119 -0.2063
 3167SOL     OW12439   2.402   1.120   1.984 -0.0183  0.4579 -0.1225
 3167SOL    HW212440   2.421   1.032   2.015  1.0944  0.7168 -0.0429
 3167SOL    HW312441   2.413   1.176   2.061 -2.0812  0.5334  0.1781
 3167SOL    MW412442   2.406   1.116   1.998 -0.0650 -0.4691  0.4228
 3168SOL     OW12443   2.210   0.710   2.366  0.0463  0.0982  0.0963
 3168SOL    HW212444   2.183   0.778   2.304  0.9073  1.2016  0.8969
 3168SOL    HW312445   2.131   0.688   2.415 -0.2805  0.3738 -0.3054
 3168SOL    MW412446   2.196   0.716   2.364  0.1833 -0.0344 -0.4670
 3169SOL     OW12447   0.676   1.908   3.771  0.3544 -0.6447  1.2142
 3169SOL    HW212448   0.668   1.852   3.849 -0.6283 -0.7164  1.0658
 3169SOL    HW312449   0.767   1.939   3.774  0.2935 -0.5286  2.4717
 3169SOL    MW412450   0.687   1.904   3.782 -0.2312  0.5105  0.7164
 3170SOL     OW12451   2.564   0.662   5.781 -0.8813  0.6124  0.1459
 3170SOL    HW212452   2.653   0.659   5.814 -0.2336 -2.2161 -1.4656
 3170SOL    HW312453   2.509   0.677   5.858  0.9049  1.3942  1.3075
 3170SOL    MW412454   2.568   0.664   5.796  0.3313  0.6991  0.2700
 3171SOL     OW12455   1.456   1.665   3.933  0.0593  0.1006 -0.3273
 3171SOL    HW212456   1.385   1.640   3.992 -0.3405 -1.4466 -1.4019
 3171SOL    HW312457   1.415   1.673   3.848  0.9996  0.1802 -0.7875
 3171SOL    MW412458   1.441   1.662   3.930  0.8163  0.2048  0.6250
 3172SOL     OW12459   2.725   5.462   0.906 -0.1234 -0.5040 -0.1448
 3172SOL    HW212460   2.758   5.408   0.978  0.2644 -2.8364 -1.9531
 3172SOL    HW312461   2.801   5.510   0.875 -0.1151 -0.1113  0.4721
 3172SOL    MW412462   2.739   5.461   0.911 -0.7034  0.3689  0.0727
 3173SOL     OW12463   6.014   3.394   4.206 -0.3784 -1.2140  0.0788
 3173SOL    HW212464   5.988   3.453   4.135  0.5054 -0.9310 -0.0201
 3173SOL    HW312465   6.014   3.307   4.165  1.8925 -0.8782 -0.8383
 3173SOL    MW412466   6.011   3.390   4.191  0.0534  0.2839 -0.0162
 3174SOL     OW12467   1.627   6.385   0.253  0.0594 -0.3963  0.1338
 3174SOL    HW212468   1.650   6.471   0.217  1.3426 -1.2197 -1.1378
 3174SOL    HW312469   1.544   6.363   0.212 -1.1608  0.9385  1.7758
 3174SOL    MW412470   1.619   6.394   0.243  0.3132 -0.3630  0.4171
 3175SOL     OW12471   2.630   1.917   0.835 -0.1655 -0.0998 -0.4107
 3175SOL    HW212472   2.550   1.873   0.865 -0.7488 -0.2238 -2.0630
 3175SOL    HW312473   2.610   2.010   0.841 -0.7263 -0.1349 -1.5100
 3175SOL    MW412474   2.616   1.923   0.840 -1.3927  0.4038  0.4205
 3176SOL     OW12475   3.287   0.992   1.796 -0.5708 -0.3379 -0.0228
 3176SOL    HW212476   3.374   1.000   1.756 -0.4135 -0.6756  0.2541
 3176SOL    HW312477   3.303   1.000   1.890 -0.9778  0.7992 -0.0325
 3176SOL    MW412478   3.300   0.994   1.803 -0.0306  0.1866 -0.0392
 3177SOL     OW12479   5.969   5.042   2.081  0.1097 -0.5422 -0.0834
 3177SOL    HW212480   6.005   5.004   2.001  0.5905  0.6356 -0.4504
 3177SOL    HW312481   6.010   5.128   2.087 -1.7587  0.3854  0.1287
 3177SOL    MW412482   5.979   5.048   2.071  0.2542  0.0683  0.3145
 3178SOL     OW12483   2.144   3.727   0.712  0.0064  0.3057  0.3330
 3178SOL    HW212484   2.231   3.712   0.676 -0.0970 -0.1448  0.2613
 3178SOL    HW312485   2.085   3.679   0.653 -0.4200  1.5979 -0.3168
 3178SOL    MW412486   2.148   3.719   0.700  0.4663 -0.0271  0.4137
 3179SOL     OW12487   2.326   3.413   0.214  0.1619 -0.3244 -0.6755
 3179SOL    HW212488   2.247   3.463   0.234  1.7244  1.8284  0.5538
 3179SOL    HW312489   2.336   3.353   0.288  0.0732 -0.0849 -0.4688
 3179SOL    MW412490   2.317   3.412   0.226  0.6399 -0.4043  0.1175
 3180SOL     OW12491   1.555   4.978   2.602 -0.0951  0.1360 -0.0024
 3180SOL    HW212492   1.512   5.062   2.585  0.2606  0.1304 -1.0545
 3180SOL    HW312493   1.510   4.917   2.544  0.7031 -0.0549 -0.4393
 3180SOL    MW412494   1.543   4.981   2.592 -0.1919 -0.0902 -0.0388
 3181SOL     OW12495   2.044   0.609   1.747  0.3574 -0.2755  0.2950
 3181SOL    HW212496   2.117   0.628   1.688 -1.1492  1.4986 -1.1287
 3181SOL    HW312497   2.041   0.684   1.806  0.1838 -0.7357  0.8788
 3181SOL    MW412498   2.053   0.621   1.747 -0.7697  0.2399 -0.1211
 3182SOL     OW12499   0.885   1.372   4.493 -0.5030 -0.1271  0.5763
 3182SOL    HW212500   0.875   1.277   4.495  2.0271 -0.4397  1.4655
 3182SOL    HW312501   0.973   1.386   4.458 -0.3853  1.8404  1.5434
 3182SOL    MW412502   0.895   1.361   4.488  0.1840  0.0767  0.0127
 3183SOL     OW12503   0.798   2.473   4.022 -0.0317  0.1116 -0.1629
 3183SOL    HW212504   0.812   2.560   4.059  2.3150 -0.3903  0.2769
 3183SOL    HW312505   0.876   2.457   3.969 -0.0510 -2.0198  0.3771
 3183SOL    MW412506   0.810   2.483   4.020  0.2393  0.3522 -0.3308
 3184SOL     OW12507   4.130   3.742   0.653 -0.2215 -0.2339  0.2301
 3184SOL    HW212508   4.177   3.822   0.674 -1.4750  0.5114  0.3223
 3184SOL    HW312509   4.164   3.716   0.567  2.0594 -1.0936  1.3176
 3184SOL    MW412510   4.141   3.749   0.644 -0.2588  0.1339 -0.6318
 3185SOL     OW12511   0.880   3.227   3.473  0.2037  1.0005  1.0550
 3185SOL    HW212512   0.975   3.212   3.470 -0.2378 -2.7336  0.3252
 3185SOL    HW312513   0.864   3.256   3.563  1.8829 -0.1823  1.8020
 3185SOL    MW412514   0.890   3.229   3.485  0.6340  0.2778 -0.8770
 3186SOL     OW12515   3.591   4.582   0.113  0.5770 -0.3717 -0.0941
 3186SOL    HW212516   3.550   4.496   0.102 -0.3041  0.1849 -1.4963
 3186SOL    HW312517   3.567   4.609   0.201 -0.4671 -0.9070 -0.1903
 3186SOL    MW412518   3.582   4.574   0.123  0.4233 -0.1765 -0.0036
 3187SOL     OW12519   0.419   5.315   1.458  0.7473 -0.2623  0.1130
 3187SOL    HW212520   0.432   5.250   1.528 -1.8742  0.9678  1.9454
 3187SOL    HW312521   0.468   5.391   1.487  1.7751 -0.5754 -0.7603
 3187SOL    MW412522   0.427   5.316   1.471  0.6078 -0.1910 -0.0556
 3188SOL     OW12523   0.010   6.433   4.584  0.2653 -0.6938 -0.4002
 3188SOL    HW212524   0.018   6.528   4.577  1.4935 -0.8584 -1.5616
 3188SOL    HW312525  -0.077   6.414   4.548 -0.2144  0.0176  0.3361
 3188SOL    MW412526   0.000   6.443   4.578  0.0614  0.2178  0.3789
 3189SOL     OW12527   2.507   1.487   1.906 -0.4493  0.0452  0.0484
 3189SOL    HW212528   2.543   1.432   1.975 -0.8996 -1.8953 -1.1878
 3189SOL    HW312529   2.428   1.442   1.878 -0.0318  0.5212 -2.0449
 3189SOL    MW412530   2.501   1.474   1.912 -0.2740  0.4144 -0.2407
 3190SOL     OW12531   4.467   2.564   6.415 -0.1282  0.0115 -0.1760
 3190SOL    HW212532   4.483   2.473   6.438 -0.0291  0.0882  0.0594
 3190SOL    HW312533   4.544   2.590   6.364  0.5043  0.3733  0.9378
 3190SOL    MW412534   4.479   2.555   6.411 -0.3478 -0.2160 -0.4574
 3191SOL     OW12535   0.184   1.930   0.838  0.0232 -0.2569  0.1799
 3191SOL    HW212536   0.216   1.938   0.928  1.5066 -0.7585 -0.2800
 3191SOL    HW312537   0.153   1.840   0.832 -0.9821  0.0601  0.4558
 3191SOL    MW412538   0.184   1.920   0.849 -0.4762 -0.4431 -0.0858
 3192SOL     OW12539   1.028   1.942   2.967  0.0182 -0.1929  0.1377
 3192SOL    HW212540   0.970   1.935   3.042 -1.0011  0.6333 -0.5477
 3192SOL    HW312541   1.002   1.870   2.910  0.8033 -0.8307  0.5550
 3192SOL    MW412542   1.017   1.932   2.969 -0.4956 -0.2313 -0.0193
 3193SOL     OW12543   4.429   5.331   1.068  0.4856 -0.4316 -0.2453
 3193SOL    HW212544   4.381   5.412   1.049  1.7260  0.0178 -1.6360
 3193SOL    HW312545   4.498   5.360   1.128 -0.3134 -0.8887  0.9388
 3193SOL    MW412546   4.432   5.346   1.074 -0.3118 -0.5862 -0.3238
 3194SOL     OW12547   5.845   4.021   5.204  0.2063 -0.1973  0.5299
 3194SOL    HW212548   5.809   4.096   5.157 -0.4392 -1.2583 -0.7538
 3194SOL    HW312549   5.936   4.016   5.176  0.5995  0.8191  1.5809
 3194SOL    MW412550   5.852   4.030   5.194 -0.1716 -0.5085  0.6743
 3195SOL     OW12551   5.175   2.948   4.784  0.7352  0.4377  0.2984
 3195SOL    HW212552   5.141   3.034   4.761  0.2657 -0.0919 -1.0827
 3195SOL    HW312553   5.195   2.906   4.700 -0.7370 -1.4498  0.8010
 3195SOL    MW412554   5.173   2.953   4.770 -0.0925 -1.1474 -0.0602
 3196SOL     OW12555   4.542   3.441   3.462 -0.2461 -0.3520 -0.6922
 3196SOL    HW212556   4.482   3.489   3.405  1.0674  0.4774 -1.4359
 3196SOL    HW312557   4.629   3.470   3.434  0.4574  1.0666  2.5111
 3196SOL    MW412558   4.545   3.451   3.451 -0.4196 -0.1728  0.5708
 3197SOL     OW12559   2.791   1.086   0.265  0.8954 -0.1518 -0.0912
 3197SOL    HW212560   2.800   1.079   0.360  0.2021 -0.4196 -0.0396
 3197SOL    HW312561   2.801   1.179   0.247  1.5946 -0.1705  0.1807
 3197SOL    MW412562   2.793   1.097   0.275 -0.8882  0.4971 -0.0617
 3198SOL     OW12563   0.385   0.889   1.891  0.4785  0.1707  0.1433
 3198SOL    HW212564   0.350   0.826   1.954  1.4323  0.0157  0.5289
 3198SOL    HW312565   0.478   0.870   1.887  1.1310  2.6999  1.5764
 3198SOL    MW412566   0.392   0.878   1.899  0.3668 -0.3127  0.4983
 3199SOL     OW12567   2.030   0.574   2.562  0.4206 -0.0163 -0.0459
 3199SOL    HW212568   2.104   0.611   2.611 -0.6574  2.2851 -0.0371
 3199SOL    HW312569   1.952   0.610   2.604 -0.6158  0.0781 -1.9274
 3199SOL    MW412570   2.030   0.583   2.574  0.2533 -0.0760 -0.8793
 3200SOL     OW12571   5.239   1.263   3.139 -0.1947 -0.4416  0.1917
 3200SOL    HW212572   5.180   1.337   3.155 -2.4190 -1.9101 -0.7571
 3200SOL    HW312573   5.317   1.303   3.100 -1.9900  1.3186 -1.8737
 3200SOL    MW412574   5.242   1.278   3.136 -0.5373  0.8053  0.1579
 3201SOL     OW12575   2.979   0.682   2.271 -0.1380 -0.4075  0.2311
 3201SOL    HW212576   3.066   0.643   2.274 -0.6704 -1.7181 -0.7115
 3201SOL    HW312577   2.958   0.688   2.178 -1.1641 -0.3514  0.4550
 3201SOL    MW412578   2.988   0.677   2.259  0.0935  0.7359 -0.1935
 3202SOL     OW12579   6.285   2.104   5.618  0.6215  0.3780 -0.1789
 3202SOL    HW212580   6.253   2.058   5.541 -0.3894  1.5584 -0.4977
 3202SOL    HW312581   6.226   2.179   5.628  0.3482 -0.0771  2.1195
 3202SOL    MW412582   6.273   2.108   5.609 -0.3383  0.0318  0.4577
 3203SOL     OW12583   1.682   1.782   0.965  0.0504  0.1317  0.1046
 3203SOL    HW212584   1.640   1.780   0.879  0.3082 -0.0849 -0.0190
 3203SOL    HW312585   1.773   1.757   0.948 -0.2901 -1.6199  0.6642
 3203SOL    MW412586   1.688   1.779   0.951 -0.3959  0.0044 -0.5851
 3204SOL     OW12587   0.424   3.775   2.573  0.7834 -0.2928 -0.5086
 3204SOL    HW212588   0.435   3.869   2.586  0.3681 -0.4602  1.2338
 3204SOL    HW312589   0.506   3.737   2.603  0.3273 -0.5893  0.4015
 3204SOL    MW412590   0.436   3.783   2.579 -0.1956  0.5252  0.4159
 3205SOL     OW12591   4.703   1.462   3.658  0.0365  0.2909  0.1505
 3205SOL    HW212592   4.702   1.368   3.642  2.7020  0.0619  0.7795
 3205SOL    HW312593   4.615   1.491   3.637 -1.1508 -2.4801  0.8611
 3205SOL    MW412594   4.691   1.454   3.653 -0.0142  0.0657 -0.0983
 3206SOL     OW12595   4.065   2.110   4.951  0.1832 -0.1039 -0.0029
 3206SOL    HW212596   4.158   2.108   4.927  0.0360 -0.3201 -0.5750
 3206SOL    HW312597   4.026   2.039   4.901 -0.4836  0.6647 -0.5933
 3206SOL    MW412598   4.072   2.100   4.941 -0.5101  0.3071 -0.1832
 3207SOL     OW12599   3.257   0.812   5.840  0.2596 -0.2308  0.0421
 3207SOL    HW212600   3.335   0.831   5.788  0.2220  1.3599  0.5389
 3207SOL    HW312601   3.261   0.873   5.913  0.5687 -2.7131  2.2471
 3207SOL    MW412602   3.268   0.822   5.843  1.0489 -0.3288 -0.0605
 3208SOL     OW12603   6.434   3.582   5.803  0.1950  0.0079  0.1708
 3208SOL    HW212604   6.351   3.558   5.761 -0.9973  0.9898  1.8693
 3208SOL    HW312605   6.418   3.569   5.896  1.7172  0.9302  0.5868
 3208SOL    MW412606   6.421   3.577   5.810 -0.3392 -0.6686 -0.7033
 3209SOL     OW12607   4.831   1.639   4.805  0.1652  0.0502  0.4059
 3209SOL    HW212608   4.778   1.648   4.725 -1.0157 -2.6511  0.7719
 3209SOL    HW312609   4.773   1.667   4.876  0.4588  0.4002  0.5089
 3209SOL    MW412610   4.816   1.644   4.804  0.4349  0.0367 -0.5200
 3210SOL     OW12611   1.446   1.729   4.931 -0.1622 -0.5786  0.6983
 3210SOL    HW212612   1.394   1.708   5.009 -0.3130  0.5943  0.9209
 3210SOL    HW312613   1.533   1.694   4.951 -0.1995 -0.2831  1.3979
 3210SOL    MW412614   1.451   1.721   4.944 -0.1391  0.5001 -0.1386
 3211SOL     OW12615   2.831   2.533   1.903 -0.1415  0.3422  0.1655
 3211SOL    HW212616   2.831   2.450   1.950  2.1900 -0.1666 -0.6389
 3211SOL    HW312617   2.865   2.512   1.816  1.6972  2.2933  0.3270
 3211SOL    MW412618   2.835   2.519   1.897 -0.5097  0.2363  0.0814
 3212SOL     OW12619   0.768   4.453   0.570 -0.0585 -0.5948  0.0930
 3212SOL    HW212620   0.810   4.457   0.483 -1.4047 -0.8276 -0.5855
 3212SOL    HW312621   0.698   4.518   0.565  1.2672  1.1037  1.8350
 3212SOL    MW412622   0.765   4.462   0.558 -0.7823  0.0917 -0.3430
 3213SOL     OW12623   4.025   1.368   3.559  0.1193 -0.3225  0.4722
 3213SOL    HW212624   3.965   1.420   3.613  0.9544  0.7591  0.3932
 3213SOL    HW312625   4.099   1.348   3.616  0.0166 -1.0484  0.3610
 3213SOL    MW412626   4.027   1.372   3.574  1.1187 -0.0036 -0.9571
 3214SOL     OW12627   2.216   2.216   3.184  0.2227 -0.8328 -0.1385
 3214SOL    HW212628   2.214   2.243   3.092  0.5284  1.5150  0.4682
 3214SOL    HW312629   2.134   2.250   3.221  1.6393  1.4146  1.1710
 3214SOL    MW412630   2.205   2.224   3.177 -0.3321  0.1753 -0.4218
 3215SOL     OW12631   3.816   0.797   0.865 -0.0740 -0.1888  0.5982
 3215SOL    HW212632   3.731   0.841   0.875  0.0296 -0.4175  3.2429
 3215SOL    HW312633   3.800   0.728   0.800 -1.7995  0.0657  0.7022
 3215SOL    MW412634   3.803   0.794   0.858 -0.3494  0.3261 -0.4418
 3216SOL     OW12635   3.443   6.034   1.580  0.1571 -0.5055  0.1494
 3216SOL    HW212636   3.484   5.952   1.607  1.7195  0.3934  0.6327
 3216SOL    HW312637   3.470   6.046   1.489  1.2426  0.2274  0.5534
 3216SOL    MW412638   3.452   6.024   1.571 -0.5120 -0.3128  0.0350
 3217SOL     OW12639   2.295   4.838   5.189  0.5898 -0.3742  0.8670
 3217SOL    HW212640   2.257   4.915   5.231  2.1537 -0.1800  2.0437
 3217SOL    HW312641   2.305   4.862   5.097 -0.2496  0.2748  0.9323
 3217SOL    MW412642   2.291   4.851   5.183  0.8725  0.2905  0.6899
 3218SOL     OW12643   5.840   1.290   2.332  0.2053  0.5021 -0.4119
 3218SOL    HW212644   5.817   1.270   2.241 -0.8824  1.7172 -0.4299
 3218SOL    HW312645   5.760   1.327   2.370  0.4449 -0.5340  1.2262
 3218SOL    MW412646   5.826   1.292   2.325  0.4728  0.3729 -0.2957
 3219SOL     OW12647   0.891   3.947   1.025 -0.0654  0.1080  0.5736
 3219SOL    HW212648   0.979   3.916   1.001 -0.0414  1.0241 -0.6043
 3219SOL    HW312649   0.846   3.958   0.941 -1.5705 -1.0417  1.1830
 3219SOL    MW412650   0.897   3.944   1.011  0.6342 -0.0240 -0.3023
 3220SOL     OW12651   0.960   4.417   2.819  0.1386  0.7070  0.3997
 3220SOL    HW212652   0.905   4.441   2.893  0.5187  2.7817  0.0715
 3220SOL    HW312653   0.898   4.407   2.746 -0.0916 -0.0460  0.6827
 3220SOL    MW412654   0.944   4.419   2.819 -0.4379 -0.1883 -0.2689
 3221SOL     OW12655   1.072   1.238   2.367  0.3987  0.3250 -1.0109
 3221SOL    HW212656   1.141   1.298   2.395 -2.0778  3.7105 -1.4526
 3221SOL    HW312657   0.996   1.295   2.352 -2.3010 -3.0316 -1.2761
 3221SOL    MW412658   1.071   1.253   2.368  0.1286 -0.6245 -0.3346
 3222SOL     OW12659   0.664   6.162   3.727  0.2274 -0.2623  0.3560
 3222SOL    HW212660   0.686   6.184   3.637 -1.5326  1.6217  0.3052
 3222SOL    HW312661   0.744   6.179   3.777  1.1386 -1.0830 -0.7897
 3222SOL    MW412662   0.677   6.167   3.722  0.0874  0.2720  0.2725
 3223SOL     OW12663   4.917   2.730   4.066  0.1344 -0.1935 -0.1945
 3223SOL    HW212664   4.976   2.678   4.120  0.3167 -0.4811 -0.6622
 3223SOL    HW312665   4.897   2.673   3.991 -2.3811 -0.9653  0.9240
 3223SOL    MW412666   4.922   2.715   4.063  0.5683 -0.1016  0.1760
 3224SOL     OW12667   2.904   2.181   0.196 -0.2479  0.3497  0.7300
 3224SOL    HW212668   2.899   2.085   0.201 -0.0078  0.2297 -0.9252
 3224SOL    HW312669   2.814   2.210   0.203 -0.8477 -0.2745 -2.7117
 3224SOL    MW412670   2.892   2.172   0.198  0.0266 -0.1292  0.0999
 3225SOL     OW12671   3.699   3.955   1.032 -0.5119 -0.4724  0.0696
 3225SOL    HW212672   3.668   3.995   1.113 -2.3085  0.0974 -0.8305
 3225SOL    HW312673   3.778   4.005   1.009 -1.1328  0.7189  0.4343
 3225SOL    MW412674   3.705   3.967   1.040  0.6230  0.0727  0.0905
 3226SOL     OW12675   5.789   0.317   1.184 -0.2322  0.2994 -0.3945
 3226SOL    HW212676   5.737   0.238   1.199  0.1603  0.4057  1.9412
 3226SOL    HW312677   5.726   0.381   1.152 -1.1450 -0.1670  0.4106
 3226SOL    MW412678   5.774   0.315   1.182 -0.7805  0.2356 -0.0717
 3227SOL     OW12679   0.355   4.872   0.902  0.0487 -0.4654 -0.0685
 3227SOL    HW212680   0.318   4.879   0.990  2.1023  0.7725  0.7650
 3227SOL    HW312681   0.381   4.780   0.895 -0.9631 -0.7951  0.2183
 3227SOL    MW412682   0.353   4.861   0.912 -0.4932 -0.1528 -0.0902
 3228SOL     OW12683   3.801   4.242   4.409 -0.2041 -0.1249 -0.0783
 3228SOL    HW212684   3.836   4.195   4.485 -0.5062  0.0841  0.1912
 3228SOL    HW312685   3.728   4.294   4.444 -0.2352  0.1046 -0.4787
 3228SOL    MW412686   3.796   4.243   4.423 -0.1998 -0.6487  0.2724
 3229SOL     OW12687   2.987   2.879   5.717  0.0809  0.2509 -0.2473
 3229SOL    HW212688   2.899   2.910   5.698 -0.1867 -0.6561 -0.5106
 3229SOL    HW312689   3.044   2.949   5.685 -0.3698 -0.7614 -3.6328
 3229SOL    MW412690   2.983   2.892   5.710 -0.5692  0.0346  0.0584
 3230SOL     OW12691   5.533   3.145   1.789  0.0026  0.0132 -0.5544
 3230SOL    HW212692   5.549   3.055   1.817 -0.5450  0.0678 -0.0419
 3230SOL    HW312693   5.543   3.197   1.869  0.0746  0.3757 -0.7977
 3230SOL    MW412694   5.536   3.140   1.803 -0.2410 -0.2869 -0.0643
 3231SOL     OW12695   2.542   5.965   5.977  0.0697 -0.0996 -0.0419
 3231SOL    HW212696   2.559   5.897   5.911  0.1943  1.7577 -2.0173
 3231SOL    HW312697   2.584   5.931   6.057  1.8144 -1.4947 -1.4550
 3231SOL    MW412698   2.550   5.951   5.979  1.0162  0.1368  0.8911
 3232SOL     OW12699   5.689   4.572   3.864  0.1896  0.1955 -0.3631
 3232SOL    HW212700   5.603   4.593   3.900  0.8991  1.5472  0.6392
 3232SOL    HW312701   5.676   4.489   3.817 -1.7907  0.7168 -0.8225
 3232SOL    MW412702   5.676   4.564   3.863  0.1639 -0.4378 -0.2908
 3233SOL     OW12703   3.181   5.860   5.491  0.2197 -0.1523 -0.6476
 3233SOL    HW212704   3.167   5.797   5.420  0.4252 -1.1321  0.1582
 3233SOL    HW312705   3.092   5.882   5.521  0.1618 -0.4449 -0.6034
 3233SOL    MW412706   3.167   5.855   5.486  0.0705  0.0978 -0.0638
 3234SOL     OW12707   0.956   2.686   0.762 -0.2719  0.5538  0.0996
 3234SOL    HW212708   1.001   2.700   0.845 -0.1607 -0.6068  0.2439
 3234SOL    HW312709   1.018   2.716   0.696 -0.0828  0.8171  0.3913
 3234SOL    MW412710   0.970   2.692   0.764  0.1127 -0.1194 -0.3158
 3235SOL     OW12711   4.192   1.524   2.562  0.3319 -0.5112 -0.0573
 3235SOL    HW212712   4.240   1.568   2.492  1.4153  0.2499  1.1245
 3235SOL    HW312713   4.257   1.468   2.604 -0.4289 -1.3427  0.0563
 3235SOL    MW412714   4.207   1.522   2.558  0.5023  0.3009  0.4142
 3236SOL     OW12715   1.155   4.047   6.173 -0.1113  0.1754  0.4108
 3236SOL    HW212716   1.202   4.130   6.183  1.0074 -0.5722  1.6025
 3236SOL    HW312717   1.219   3.980   6.194 -0.6396 -1.1069 -1.7237
 3236SOL    MW412718   1.169   4.049   6.177 -0.7431  0.1483  0.5238
 3237SOL     OW12719   2.268   0.174   2.864 -0.0896  0.2638  0.2189
 3237SOL    HW212720   2.224   0.189   2.948 -0.2507 -0.1407  0.2074
 3237SOL    HW312721   2.272   0.079   2.855 -2.2098  0.2335 -1.3255
 3237SOL    MW412722   2.263   0.163   2.874 -0.3236  0.9332 -0.2857
 3238SOL     OW12723   4.941   2.369   6.298  0.3932  0.2610  0.1151
 3238SOL    HW212724   4.883   2.416   6.239  1.4516  1.2875 -0.1384
 3238SOL    HW312725   4.897   2.372   6.383 -0.6745 -0.3915 -0.3942
 3238SOL    MW412726   4.928   2.375   6.302 -0.2403  0.3389  0.0245
 3239SOL     OW12727   4.167   5.975   4.451 -0.0191  0.3444  0.2319
 3239SOL    HW212728   4.255   5.980   4.488  0.7231 -0.9902 -1.2022
 3239SOL    HW312729   4.162   6.050   4.391 -0.9545  2.0724  2.3455
 3239SOL    MW412730   4.178   5.986   4.448 -0.4094 -0.6319 -0.6318
 3240SOL     OW12731   4.000   3.568   4.871 -0.0816  0.0710  0.4815
 3240SOL    HW212732   3.904   3.566   4.863 -0.0331  0.4349 -0.3349
 3240SOL    HW312733   4.026   3.476   4.864 -0.4315 -0.1348  1.7071
 3240SOL    MW412734   3.990   3.556   4.869  0.1581  0.1914 -0.1646
 3241SOL     OW12735   0.360   2.964   6.012  0.5750  0.5811  0.6303
 3241SOL    HW212736   0.397   3.046   5.980  0.2900 -0.1606 -1.8251
 3241SOL    HW312737   0.273   2.959   5.973  1.9132 -2.5171 -2.5292
 3241SOL    MW412738   0.353   2.974   6.003 -0.0724  0.3191  1.0011
 3242SOL     OW12739   4.842   0.100   0.731  0.0321 -0.4393  0.1290
 3242SOL    HW212740   4.843   0.108   0.635  1.2185  1.6771  0.2423
 3242SOL    HW312741   4.758   0.059   0.751 -0.5136 -0.3615 -1.8000
 3242SOL    MW412742   4.831   0.096   0.721  0.0159 -0.1049  0.1918
 3243SOL     OW12743   3.653   0.257   4.211  0.3853  0.1389  0.8386
 3243SOL    HW212744   3.570   0.234   4.170  1.5223  0.6237 -1.9159
 3243SOL    HW312745   3.720   0.220   4.153  2.1352  0.1830  2.7096
 3243SOL    MW412746   3.651   0.249   4.198 -0.1020 -0.2377 -0.4085
 3244SOL     OW12747   3.616   3.378   1.789  0.6871  0.1137  0.6138
 3244SOL    HW212748   3.662   3.344   1.713  1.6303  2.4160  0.0568
 3244SOL    HW312749   3.546   3.432   1.753  0.3868  0.2598  1.3973
 3244SOL    MW412750   3.613   3.381   1.775 -0.0689  0.5072  0.0588
 3245SOL     OW12751   6.118   2.299   4.783  0.5512  0.6348 -0.1394
 3245SOL    HW212752   6.062   2.244   4.837 -1.1540  1.6486 -0.8240
 3245SOL    HW312753   6.076   2.300   4.697 -0.3145  4.0605  0.1632
 3245SOL    MW412754   6.105   2.292   4.778 -0.1054  0.4132  0.1481
 3246SOL     OW12755   5.066   5.412   4.060 -0.4062  0.2494  0.5122
 3246SOL    HW212756   5.096   5.470   3.991  1.1898 -2.3157 -1.1049
 3246SOL    HW312757   5.131   5.420   4.129  1.5983 -1.7780 -1.0093
 3246SOL    MW412758   5.078   5.421   4.060 -0.5835  0.4665 -0.6161
 3247SOL     OW12759   3.100   4.242   2.961  0.7221  0.2339 -0.2140
 3247SOL    HW212760   3.151   4.244   3.042  0.3547  0.5544  0.0163
 3247SOL    HW312761   3.097   4.333   2.932 -1.4890  0.6277  0.9411
 3247SOL    MW412762   3.106   4.254   2.968  0.5364  0.5307  0.0553
 3248SOL     OW12763   3.733   0.959   2.151 -0.0177 -0.2201 -0.3072
 3248SOL    HW212764   3.688   1.040   2.174 -0.5309 -0.3109 -0.9615
 3248SOL    HW312765   3.664   0.899   2.125  0.3513 -0.9092  0.2616
 3248SOL    MW412766   3.718   0.962   2.150  0.2951  0.0472  0.0586
 3249SOL     OW12767   3.906   5.496   4.723  0.2363  0.1746 -0.0854
 3249SOL    HW212768   3.895   5.481   4.629  0.9162  0.5073 -0.2243
 3249SOL    HW312769   3.823   5.468   4.762  0.2464 -0.7397 -0.6885
 3249SOL    MW412770   3.893   5.490   4.716  0.2605  0.5723  0.9674
 3250SOL     OW12771   1.742   1.398   4.361  0.0620 -0.5696 -0.0728
 3250SOL    HW212772   1.673   1.421   4.298  0.8405 -0.2020 -0.8093
 3250SOL    HW312773   1.821   1.389   4.308  0.4646 -1.6128  0.6751
 3250SOL    MW412774   1.743   1.400   4.345 -0.4255 -0.3518  0.1253
 3251SOL     OW12775   5.675   2.696   2.088  0.6977  0.3119 -0.0814
 3251SOL    HW212776   5.599   2.647   2.057  1.0257 -1.1722  1.3061
 3251SOL    HW312777   5.739   2.688   2.017  0.6804 -1.1710  0.0363
 3251SOL    MW412778   5.673   2.688   2.075 -0.3316  0.0180  0.4612
 3252SOL     OW12779   6.208   5.053   2.453  0.2561  0.6850  0.3961
 3252SOL    HW212780   6.298   5.029   2.475  1.3522 -0.2008 -4.0231
 3252SOL    HW312781   6.217   5.120   2.385 -2.4537  0.5184 -0.2569
 3252SOL    MW412782   6.221   5.059   2.447 -0.8297  0.4831 -0.9209
 3253SOL     OW12783   4.502   1.615   1.460  0.2441  0.1364  0.2286
 3253SOL    HW212784   4.510   1.551   1.390  0.3803  0.5430 -0.1319
 3253SOL    HW312785   4.441   1.575   1.522 -0.3943  0.0538 -0.4410
 3253SOL    MW412786   4.495   1.602   1.459 -0.5112 -0.6782  0.1003
 3254SOL     OW12787   1.403   1.432   1.465  0.2293  0.1546  0.0994
 3254SOL    HW212788   1.393   1.515   1.418  0.6708  1.0595  1.5283
 3254SOL    HW312789   1.321   1.423   1.515 -0.3564 -0.9363 -1.0003
 3254SOL    MW412790   1.391   1.442   1.465  0.3559  0.1776  0.5829
 3255SOL     OW12791   1.078   0.673   5.916 -0.4272 -0.6760 -0.2234
 3255SOL    HW212792   1.075   0.766   5.894 -0.0068 -0.5100  0.4098
 3255SOL    HW312793   1.066   0.629   5.832 -1.1577 -0.0568 -0.4598
 3255SOL    MW412794   1.076   0.679   5.902  0.8133 -0.9028 -0.4839
 3256SOL     OW12795   4.463   5.129   5.216 -0.0442  0.1088  0.1501
 3256SOL    HW212796   4.417   5.203   5.176  0.2677 -0.6162 -1.6165
 3256SOL    HW312797   4.407   5.105   5.291 -1.8143  0.1720 -1.0751
 3256SOL    MW412798   4.449   5.136   5.221  0.1027 -0.0401  0.1405
 3257SOL     OW12799   2.698   3.760   1.564  0.1948  0.4013 -0.0997
 3257SOL    HW212800   2.617   3.715   1.538  0.6507 -0.1634 -0.5742
 3257SOL    HW312801   2.764   3.726   1.505  0.5624  1.7329 -0.4821
 3257SOL    MW412802   2.696   3.750   1.553  0.6372  0.1526 -0.8723
 3258SOL     OW12803   1.377   2.159   4.246  0.4508  0.0222 -0.4463
 3258SOL    HW212804   1.381   2.204   4.331  0.2185  1.3508 -1.1069
 3258SOL    HW312805   1.283   2.147   4.230  0.3615  1.5319 -1.3517
 3258SOL    MW412806   1.365   2.164   4.255  0.5467  0.1191  0.6811
 3259SOL     OW12807   5.736   0.271   4.251  0.0548  0.5856  0.2699
 3259SOL    HW212808   5.744   0.326   4.329 -1.9668 -1.1341  1.8018
 3259SOL    HW312809   5.804   0.205   4.260  1.2079  1.6007 -0.5813
 3259SOL    MW412810   5.746   0.270   4.262  0.2262 -0.4766 -0.5957
 3260SOL     OW12811   4.403   2.457   2.474  0.4636  0.6163 -0.0312
 3260SOL    HW212812   4.347   2.498   2.408  0.4369 -0.1305 -0.4878
 3260SOL    HW312813   4.492   2.481   2.447  0.5741 -1.0155 -1.3333
 3260SOL    MW412814   4.408   2.466   2.462 -0.0501 -0.4333 -0.2458
 3261SOL     OW12815   2.434   2.356   5.941  0.4413  0.0499  0.3046
 3261SOL    HW212816   2.455   2.446   5.914  1.5077  0.1126  1.2604
 3261SOL    HW312817   2.470   2.302   5.871 -2.1735  0.3871 -1.4427
 3261SOL    MW412818   2.442   2.361   5.928 -0.0101  0.6527 -0.3699
 3262SOL     OW12819   3.892   5.203   2.698  0.1481 -0.4366 -0.3196
 3262SOL    HW212820   3.906   5.122   2.649  0.0733  0.2339 -1.4773
 3262SOL    HW312821   3.968   5.257   2.677  0.5245 -0.4363  0.9623
 3262SOL    MW412822   3.904   5.199   2.689  0.1202  0.5918 -0.0996
 3263SOL     OW12823   1.234   0.442   2.738 -0.3560 -0.6370 -0.0893
 3263SOL    HW212824   1.149   0.420   2.777  0.2862 -1.4122  0.9530
 3263SOL    HW312825   1.222   0.426   2.644 -1.9464  1.2608 -0.2752
 3263SOL    MW412826   1.221   0.437   2.731 -0.3402  0.6071 -0.0317
 3264SOL     OW12827   0.329   3.267   3.581  0.2835 -0.6689  0.3599
 3264SOL    HW212828   0.385   3.344   3.567 -2.9335  1.8707  0.2611
 3264SOL    HW312829   0.324   3.225   3.495 -0.2376  0.8000 -0.3646
 3264SOL    MW412830   0.336   3.272   3.568  0.0724 -0.5766  0.2633
 3265SOL     OW12831   0.270   0.489   5.208  0.3593  0.1053 -0.1070
 3265SOL    HW212832   0.187   0.512   5.248  0.0246 -0.0608 -0.6952
 3265SOL    HW312833   0.281   0.551   5.136  1.4198  1.0243  0.8092
 3265SOL    MW412834   0.261   0.500   5.204 -0.3676  0.3855 -0.3116
 3266SOL     OW12835   2.840   6.324   4.795 -0.1422 -0.3194  0.2133
 3266SOL    HW212836   2.749   6.318   4.764 -0.5042  1.3887  0.8414
 3266SOL    HW312837   2.843   6.265   4.870  0.0252 -2.4405 -1.3789
 3266SOL    MW412838   2.828   6.316   4.801  0.2182 -0.2043  0.0414
 3267SOL     OW12839   6.406   2.677   5.521  0.1499 -0.0384 -0.4169
 3267SOL    HW212840   6.492   2.679   5.564  0.6698 -2.7892 -1.1010
 3267SOL    HW312841   6.425   2.703   5.431 -0.0568  0.9004 -0.2021
 3267SOL    MW412842   6.420   2.681   5.515  0.0319 -1.1378 -0.1642
 3268SOL     OW12843   4.760   5.229   4.665  0.2799 -0.2597  0.3265
 3268SOL    HW212844   4.835   5.222   4.724 -1.0134  0.5608  2.1592
 3268SOL    HW312845   4.756   5.145   4.621  0.9458 -1.1473  1.8668
 3268SOL    MW412846   4.770   5.217   4.667 -0.2430 -0.4207  1.0022
 3269SOL     OW12847   0.839   2.106   0.520 -0.0770  0.2919  0.1136
 3269SOL    HW212848   0.764   2.089   0.463 -0.7737  0.6614  0.8932
 3269SOL    HW312849   0.911   2.057   0.480 -0.6107  0.3109 -0.9139
 3269SOL    MW412850   0.839   2.098   0.507  0.1957 -0.9392  0.5397
 3270SOL     OW12851   0.352   5.465   0.494  0.2802  0.5542  0.4350
 3270SOL    HW212852   0.378   5.375   0.511  1.0888 -0.1629 -3.7221
 3270SOL    HW312853   0.412   5.517   0.548 -0.8662 -1.2260  3.7423
 3270SOL    MW412854   0.363   5.460   0.504 -0.2611  0.1338  0.3008
 3271SOL     OW12855   2.189   4.440   3.300 -0.6397 -0.1206 -0.3027
 3271SOL    HW212856   2.277   4.438   3.337 -0.3505  1.7554 -0.7822
 3271SOL    HW312857   2.199   4.405   3.212 -0.5729 -0.8412 -0.0133
 3271SOL    MW412858   2.202   4.435   3.293  0.2486 -0.0676  0.6222
 3272SOL     OW12859   0.596   0.130   2.360 -0.2147  0.0142 -0.4796
 3272SOL    HW212860   0.578   0.048   2.406  0.8351 -0.9092 -1.6565
 3272SOL    HW312861   0.689   0.127   2.341 -0.2754  1.2315 -1.0479
 3272SOL    MW412862   0.606   0.119   2.364 -0.3020  0.1026  0.0939
 3273SOL     OW12863   5.346   2.977   1.040 -0.0506 -0.6719 -0.3716
 3273SOL    HW212864   5.376   3.054   1.089  0.2506 -0.3203 -1.0939
 3273SOL    HW312865   5.253   2.992   1.025 -0.2403 -0.9726  0.4216
 3273SOL    MW412866   5.338   2.989   1.045 -0.0463 -0.0120 -0.5430
 3274SOL     OW12867   0.600   4.219   1.809 -0.1564 -0.2464 -0.0519
 3274SOL    HW212868   0.539   4.270   1.862 -1.3902 -1.7326  0.0183
 3274SOL    HW312869   0.673   4.279   1.793 -0.1914  0.5775  2.4469
 3274SOL    MW412870   0.601   4.234   1.814 -0.0960 -0.0273 -0.2768
 3275SOL     OW12871   2.877   0.248   2.402 -0.6873  0.7779 -0.1666
 3275SOL    HW212872   2.808   0.274   2.463 -0.7160  0.0820  0.1027
 3275SOL    HW312873   2.875   0.315   2.333 -2.0755  0.4071 -0.5092
 3275SOL    MW412874   2.868   0.260   2.401 -0.0452  0.1237 -0.2346
 3276SOL     OW12875   2.920   1.094   0.794  0.0644  0.6833 -0.4820
 3276SOL    HW212876   3.003   1.139   0.808  0.8000  0.0313 -2.3978
 3276SOL    HW312877   2.853   1.157   0.821  1.1148  2.1483 -1.1798
 3276SOL    MW412878   2.922   1.108   0.799 -0.1570  0.7890  0.0469
 3277SOL     OW12879   5.761   0.712   3.109 -0.0578  0.0128  0.1084
 3277SOL    HW212880   5.752   0.629   3.155  0.9644 -1.3187 -1.9733
 3277SOL    HW312881   5.843   0.705   3.061  0.7108  2.7615  0.8273
 3277SOL    MW412882   5.770   0.700   3.109  0.1928  0.1097  0.5180
 3278SOL     OW12883   4.947   1.137   4.376 -0.2858  0.0013  0.3190
 3278SOL    HW212884   5.001   1.058   4.368 -0.7874 -0.3474  0.3279
 3278SOL    HW312885   4.870   1.119   4.322  0.2357  1.0598 -0.8095
 3278SOL    MW412886   4.944   1.124   4.368 -0.5488 -0.0319 -0.6107
 3279SOL     OW12887   5.674   2.274   2.997 -0.1255 -0.5472  0.1431
 3279SOL    HW212888   5.609   2.331   3.039 -0.6277 -0.7012 -0.4066
 3279SOL    HW312889   5.756   2.293   3.043 -0.6325 -0.6236  1.1065
 3279SOL    MW412890   5.676   2.284   3.008 -0.1138 -0.4556  0.1499
 3280SOL     OW12891   0.217   5.849   5.586  0.4025  0.7226  0.5647
 3280SOL    HW212892   0.276   5.786   5.627 -1.7906 -1.5154  0.4996
 3280SOL    HW312893   0.270   5.929   5.577  3.6128 -1.2752 -0.1162
 3280SOL    MW412894   0.232   5.851   5.590  1.1955  0.3775 -0.1460
 3281SOL     OW12895   4.657   1.888   0.085 -0.4395 -0.1963  1.1535
 3281SOL    HW212896   4.563   1.906   0.089 -0.6049 -0.8169  0.3183
 3281SOL    HW312897   4.681   1.904  -0.006 -0.2102 -2.2635  0.7953
 3281SOL    MW412898   4.648   1.893   0.074 -0.3618  0.1595 -0.7181
 3282SOL     OW12899   1.691   5.952   3.896  0.0589 -0.7693  0.6656
 3282SOL    HW212900   1.671   6.046   3.892 -2.0940 -1.2016 -0.6210
 3282SOL    HW312901   1.784   5.946   3.873  0.6436  1.1172  2.2438
 3282SOL    MW412902   1.701   5.964   3.893  0.0363 -0.0868 -0.2121
 3283SOL     OW12903   1.194   2.609   2.133 -0.1333  0.4153  0.3597
 3283SOL    HW212904   1.116   2.575   2.089  0.5701 -0.3339 -0.3382
 3283SOL    HW312905   1.251   2.639   2.062 -0.5987  2.8528  0.9356
 3283SOL    MW412906   1.191   2.609   2.118 -0.5747  0.1228  0.8457
 3284SOL     OW12907   2.112   2.933   3.728  0.6851  0.4886 -0.3295
 3284SOL    HW212908   2.078   2.853   3.688  0.0999  0.8227 -0.5221
 3284SOL    HW312909   2.153   2.980   3.656  1.6385  0.0500 -0.0805
 3284SOL    MW412910   2.113   2.929   3.713 -0.4270  0.0084  0.4410
 3285SOL     OW12911   2.514   2.551   5.756 -0.9146 -0.8491 -0.3551
 3285SOL    HW212912   2.609   2.558   5.757 -0.9663  0.1345  0.4571
 3285SOL    HW312913   2.494   2.489   5.686  0.2934 -0.6708 -0.8784
 3285SOL    MW412914   2.524   2.544   5.747  0.2709  0.0959 -0.5057
 3286SOL     OW12915   1.445   2.007   1.677 -0.4841  0.7376  0.5048
 3286SOL    HW212916   1.387   2.017   1.602  1.2107  0.2334 -0.9335
 3286SOL    HW312917   1.422   1.922   1.714  0.6651 -0.4667 -1.3471
 3286SOL    MW412918   1.434   1.997   1.672  0.2848 -0.2004 -0.5994
 3287SOL     OW12919   3.453   1.213   4.827  0.5259  0.3236 -0.2364
 3287SOL    HW212920   3.419   1.256   4.906  0.1635 -0.3404 -0.0193
 3287SOL    HW312921   3.540   1.251   4.815  0.6120  0.3919  0.5276
 3287SOL    MW412922   3.460   1.224   4.836 -0.4192  0.1766  0.0773
 3288SOL     OW12923   1.484   1.001   3.620  0.3164  0.2623  0.1390
 3288SOL    HW212924   1.535   1.067   3.573 -0.5407  0.6269 -0.3172
 3288SOL    HW312925   1.432   0.958   3.552  0.4929 -0.5428  0.5036
 3288SOL    MW412926   1.484   1.004   3.605 -0.2916  0.2725 -0.6069
 3289SOL     OW12927   3.159   1.815   5.551  0.2177  0.4603  0.5782
 3289SOL    HW212928   3.150   1.781   5.640  2.6895  0.4632  0.8783
 3289SOL    HW312929   3.119   1.902   5.555 -0.2571  0.2122  1.5126
 3289SOL    MW412930   3.152   1.822   5.563  0.3337  0.3377 -0.5836
 3290SOL     OW12931   4.162   1.723   1.052 -0.5367 -0.0065  0.2922
 3290SOL    HW212932   4.087   1.745   0.997 -1.0418 -1.9227  0.1624
 3290SOL    HW312933   4.235   1.769   1.011 -1.1680 -0.2002 -1.1320
 3290SOL    MW412934   4.162   1.732   1.039 -0.2358 -0.5946  0.3666
 3291SOL     OW12935   2.547   5.257   0.753 -0.3708 -0.2951  0.0293
 3291SOL    HW212936   2.531   5.183   0.812  0.1284 -0.9297 -0.6196
 3291SOL    HW312937   2.602   5.317   0.804  0.0902 -0.8568  0.1908
 3291SOL    MW412938   2.552   5.255   0.768 -0.3024  0.1747 -0.2800
 3292SOL     OW12939   4.311   1.300   1.869 -0.2089 -0.1599 -0.0745
 3292SOL    HW212940   4.269   1.346   1.942 -0.6043 -1.7415  0.7561
 3292SOL    HW312941   4.362   1.231   1.911  1.2655  0.1932 -1.2147
 3292SOL    MW412942   4.312   1.297   1.885  0.0717  0.0485  0.2488
 3293SOL     OW12943   4.617   5.326   0.430  0.1430 -0.2391 -0.0031
 3293SOL    HW212944   4.548   5.261   0.419  1.8905 -2.0899 -0.7132
 3293SOL    HW312945   4.592   5.398   0.371 -0.9487 -1.0548 -0.5706
 3293SOL    MW412946   4.605   5.327   0.421 -0.4796  0.5437  0.1788
 3294SOL     OW12947   3.792   4.695   4.235  0.0259  0.1343  0.2819
 3294SOL    HW212948   3.718   4.688   4.295 -1.2608 -0.3441 -1.3032
 3294SOL    HW312949   3.788   4.785   4.202 -0.2013 -0.0640 -0.2347
 3294SOL    MW412950   3.782   4.706   4.239 -0.3550 -0.1171 -0.2944
 3295SOL     OW12951   0.277   4.794   3.402  0.4031 -0.1981 -0.2369
 3295SOL    HW212952   0.293   4.792   3.496  0.7549  1.5669 -0.2381
 3295SOL    HW312953   0.181   4.791   3.394  0.3567  0.1209  0.1858
 3295SOL    MW412954   0.266   4.793   3.413 -0.3382  0.2324  0.0356
 3296SOL     OW12955   5.341   5.384   1.968 -0.4836 -0.4115  0.8087
 3296SOL    HW212956   5.410   5.366   1.904  0.8440  0.4048  1.9669
 3296SOL    HW312957   5.286   5.305   1.966 -0.3212 -0.5288 -1.0947
 3296SOL    MW412958   5.343   5.371   1.959 -0.9037 -0.1134  0.4698
 3297SOL     OW12959   3.717   0.321   3.383  0.1309 -0.3907 -0.1424
 3297SOL    HW212960   3.704   0.334   3.290 -0.8810  1.4685  0.2055
 3297SOL    HW312961   3.642   0.269   3.412 -0.9777  1.2425  0.0371
 3297SOL    MW412962   3.705   0.316   3.375 -0.0496  0.5085  0.0249
 3298SOL     OW12963   1.707   3.011   0.382 -0.5960  0.3234  0.0616
 3298SOL    HW212964   1.649   3.029   0.308  0.1330  0.0180 -0.5915
 3298SOL    HW312965   1.673   2.930   0.420  0.4656 -0.8836 -1.4448
 3298SOL    MW412966   1.695   3.003   0.377 -0.4646  0.1941 -0.4675
 3299SOL     OW12967   1.642   2.062   3.006  0.1092 -0.1095 -0.0712
 3299SOL    HW212968   1.719   2.022   3.047  0.5962  0.6166 -0.2525
 3299SOL    HW312969   1.673   2.094   2.921  0.1971  2.0928  0.7101
 3299SOL    MW412970   1.656   2.061   3.000 -0.1170 -0.3891  0.1350
 3300SOL     OW12971   2.519   2.569   2.877  0.9767 -0.0161 -0.5661
 3300SOL    HW212972   2.580   2.495   2.871  2.5852  1.2806 -1.2421
 3300SOL    HW312973   2.576   2.646   2.871 -0.8055  1.2712 -1.8636
 3300SOL    MW412974   2.535   2.569   2.875  0.3213 -0.0250  0.3522
 3301SOL     OW12975   0.423   3.736   3.037 -0.2635  0.3374 -0.4553
 3301SOL    HW212976   0.475   3.812   3.064 -1.4538  0.6670  1.0658
 3301SOL    HW312977   0.485   3.681   2.989  1.1937  1.2551  0.2664
 3301SOL    MW412978   0.438   3.739   3.034 -0.0429  0.3150 -0.0922
 3302SOL     OW12979   0.480   6.431   4.444  0.2020  0.3917  0.1400
 3302SOL    HW212980   0.393   6.394   4.433  0.8295 -0.7711 -1.1264
 3302SOL    HW312981   0.469   6.525   4.429 -0.8466  0.2673  0.1214
 3302SOL    MW412982   0.467   6.438   4.441 -0.1888 -0.0799  0.3132
 3303SOL     OW12983   5.270   3.670   5.628 -0.1914  0.1359  0.5390
 3303SOL    HW212984   5.179   3.680   5.599 -0.7924 -0.7845  2.0170
 3303SOL    HW312985   5.298   3.760   5.648 -0.4128  0.5464 -0.8505
 3303SOL    MW412986   5.262   3.683   5.627 -0.1097 -0.3532 -0.1133
 3304SOL     OW12987   5.194   0.584   0.757 -0.1107 -0.1269  0.0653
 3304SOL    HW212988   5.249   0.610   0.831 -1.5885  2.6409  0.3256
 3304SOL    HW312989   5.106   0.576   0.793 -0.7436  0.6145 -1.2057
 3304SOL    MW412990   5.190   0.587   0.771  0.2688  0.2714 -0.8534
 3305SOL     OW12991   5.971   1.619   3.812 -0.2207 -0.5219  0.0492
 3305SOL    HW212992   5.931   1.532   3.813  1.4176 -1.3256 -1.0734
 3305SOL    HW312993   5.914   1.671   3.756 -1.1726 -0.8611  0.6740
 3305SOL    MW412994   5.958   1.614   3.805 -0.8434 -0.4714  0.4608
 3306SOL     OW12995   3.451   5.521   3.688  0.1230  0.3582  0.0474
 3306SOL    HW212996   3.477   5.590   3.749  3.4360  1.5768 -2.4498
 3306SOL    HW312997   3.519   5.454   3.697 -0.3386 -0.2732 -1.0386
 3306SOL    MW412998   3.463   5.521   3.697 -0.2923  0.8441 -0.6703
 3307SOL     OW12999   0.582   0.913   5.632 -0.4493 -0.0040 -0.0466
 3307SOL    HW213000   0.595   0.886   5.722 -0.8709 -1.0426 -0.2853
 3307SOL    HW313001   0.669   0.910   5.592 -0.1050  1.3567  0.5418
 3307SOL    MW413002   0.595   0.909   5.638 -0.3264 -0.6262  0.1414
 3308SOL     OW13003   5.714   2.381   0.169 -0.8982 -0.2411  0.0930
 3308SOL    HW213004   5.800   2.387   0.126 -0.6113 -0.2419  0.6520
 3308SOL    HW313005   5.669   2.461   0.143 -0.7948 -0.3260 -0.3505
 3308SOL    MW413006   5.719   2.393   0.160  0.5146  1.0758  0.7628
 3309SOL     OW13007   1.225   6.308   4.945 -0.6166  0.3202 -0.0064
 3309SOL    HW213008   1.208   6.318   5.039  1.6574  1.5376  0.3296
 3309SOL    HW313009   1.258   6.219   4.936 -2.6990 -0.5168 -0.0226
 3309SOL    MW413010   1.227   6.298   4.957 -0.5782  0.4448 -0.4002
 3310SOL     OW13011   6.100   2.753   5.136 -0.3217  0.6097 -0.3983
 3310SOL    HW213012   6.122   2.831   5.187  1.0109  0.5148 -0.7979
 3310SOL    HW313013   6.170   2.745   5.072  0.8745 -2.2064  1.0791
 3310SOL    MW413014   6.112   2.762   5.134  0.5051  0.2197 -0.1187
 3311SOL     OW13015   3.381   2.267   1.204 -0.0986 -0.1292 -0.4717
 3311SOL    HW213016   3.316   2.336   1.194 -1.4706 -1.5161 -1.5832
 3311SOL    HW313017   3.432   2.293   1.282 -0.1258  2.4058 -1.2175
 3311SOL    MW413018   3.379   2.279   1.213 -0.0632 -0.3348  0.3343
 3312SOL     OW13019   1.363   1.319   0.522  0.0191 -0.4868  0.4631
 3312SOL    HW213020   1.395   1.325   0.612  2.4261  2.2710 -0.4269
 3312SOL    HW313021   1.353   1.410   0.494 -0.1109 -1.2359 -2.2261
 3312SOL    MW413022   1.366   1.332   0.530  0.5650 -0.1751  0.1167
 3313SOL     OW13023   2.209   1.055   4.359  0.0527 -0.0395  0.0176
 3313SOL    HW213024   2.129   1.021   4.400  1.0894 -1.0052  1.2928
 3313SOL    HW313025   2.260   1.092   4.432  0.8567  0.4186 -0.7551
 3313SOL    MW413026   2.205   1.055   4.374  0.1959  0.1171 -0.0483
 3314SOL     OW13027   1.749   5.004   4.732  0.0446 -0.3473 -0.1011
 3314SOL    HW213028   1.759   4.930   4.792  2.0680  0.6954  0.9701
 3314SOL    HW313029   1.830   5.005   4.681 -0.1721  0.7890 -0.4619
 3314SOL    MW413030   1.761   4.995   4.733  0.2919 -0.1685 -0.1710
 3315SOL     OW13031   1.705   3.319   0.402 -0.3617  0.4751  0.3278
 3315SOL    HW213032   1.708   3.363   0.487 -0.6752  1.8445 -0.3476
 3315SOL    HW313033   1.654   3.239   0.418  0.0781  0.4218  1.5400
 3315SOL    MW413034   1.698   3.314   0.415 -0.0055  1.0440  0.1089
 3316SOL     OW13035   4.876   0.652   2.905  0.4300 -0.6541 -0.1121
 3316SOL    HW213036   4.938   0.581   2.886  1.7166  0.5451 -0.6095
 3316SOL    HW313037   4.798   0.631   2.854  0.8563 -1.6171 -0.3817
 3316SOL    MW413038   4.874   0.640   2.896  0.2271 -0.2797  0.3308
 3317SOL     OW13039   4.485   5.160   1.505 -0.2235 -0.3004 -0.2713
 3317SOL    HW213040   4.438   5.180   1.424 -0.2212 -0.1421 -0.2351
 3317SOL    HW313041   4.501   5.246   1.544  0.6854 -0.2973 -0.6138
 3317SOL    MW413042   4.481   5.174   1.499  0.2252 -0.3869 -0.6821
 3318SOL     OW13043   5.316   4.586   3.622  0.4200  0.4776  0.3227
 3318SOL    HW213044   5.380   4.623   3.560 -0.0661  1.4643  0.3921
 3318SOL    HW313045   5.289   4.660   3.676 -1.2067  0.2076 -0.0679
 3318SOL    MW413046   5.321   4.601   3.621  0.0463  0.2387 -0.6197
 3319SOL     OW13047   4.454   1.026   4.268 -0.0393  0.0660  0.0979
 3319SOL    HW213048   4.444   1.118   4.245  0.7011 -0.1383 -1.1378
 3319SOL    HW313049   4.543   1.004   4.240  0.3860 -0.6168  1.8597
 3319SOL    MW413050   4.465   1.035   4.261 -0.3392  0.3985 -0.6033
 3320SOL     OW13051   6.020   2.409   0.604  0.1034 -0.1758 -0.1674
 3320SOL    HW213052   6.064   2.484   0.642  0.7431 -0.7692  0.2908
 3320SOL    HW313053   5.966   2.374   0.676 -0.5727  0.1231 -0.5160
 3320SOL    MW413054   6.018   2.414   0.618 -0.0370  0.4668  0.0309
 3321SOL     OW13055   0.745   2.642   1.120 -0.1484  0.7745  0.4142
 3321SOL    HW213056   0.684   2.601   1.181 -1.4741  2.5122  0.3332
 3321SOL    HW313057   0.699   2.643   1.037  1.0448 -0.2147 -0.2803
 3321SOL    MW413058   0.731   2.637   1.117  0.3125  0.0737 -0.4659
 3322SOL     OW13059   0.006   3.646   1.034  1.0549 -0.5041 -0.0159
 3322SOL    HW213060  -0.012   3.727   1.081 -2.6186 -0.8817 -0.4744
 3322SOL    HW313061  -0.005   3.669   0.941 -1.0823 -1.5881 -0.1192
 3322SOL    MW413062   0.002   3.660   1.028 -0.2578 -0.0182  0.8964
 3323SOL     OW13063   4.579   4.622   1.129 -0.1491 -0.5430  0.2631
 3323SOL    HW213064   4.601   4.617   1.036 -2.0811  2.2501 -0.4604
 3323SOL    HW313065   4.510   4.557   1.140  1.3183 -2.1908  0.2562
 3323SOL    MW413066   4.573   4.613   1.118  0.0644  0.2427 -0.1896
 3324SOL     OW13067   5.343   1.532   2.830  0.2535 -0.2254 -0.2629
 3324SOL    HW213068   5.249   1.515   2.840  0.4091 -1.6165 -1.0337
 3324SOL    HW313069   5.376   1.537   2.920  0.0488 -3.4627  0.1160
 3324SOL    MW413070   5.335   1.531   2.843 -0.1008  0.2948 -0.0293
 3325SOL     OW13071   2.959   1.666   1.174 -0.0800 -0.1536  0.3578
 3325SOL    HW213072   2.932   1.577   1.151 -1.2582 -0.1807  1.7162
 3325SOL    HW313073   2.877   1.716   1.178  0.6489  1.3331 -1.6000
 3325SOL    MW413074   2.945   1.661   1.171 -0.0729 -0.0171  0.0161
 3326SOL     OW13075   5.565   1.376   6.230  0.7525 -0.7084  0.3110
 3326SOL    HW213076   5.599   1.315   6.164  0.6405  0.6798 -1.0812
 3326SOL    HW313077   5.521   1.320   6.293 -0.5935 -2.0096 -1.6735
 3326SOL    MW413078   5.564   1.360   6.230 -0.0710 -0.1007  0.2875
 3327SOL     OW13079   4.540   3.121   2.660  0.1049  0.0199  0.2420
 3327SOL    HW213080   4.582   3.198   2.622  2.2398 -0.7021  0.9490
 3327SOL    HW313081   4.463   3.105   2.606  1.0962  1.0710 -1.5700
 3327SOL    MW413082   4.535   3.129   2.648  0.6497  0.4074  0.5424
 3328SOL     OW13083   6.095   1.229   2.691 -0.9397  0.0150 -0.2544
 3328SOL    HW213084   6.084   1.207   2.599 -2.0639 -0.0073 -0.1266
 3328SOL    HW313085   6.073   1.322   2.696  0.3158  0.3293 -0.1976
 3328SOL    MW413086   6.091   1.239   2.680  0.7252 -0.1338 -0.1368
 3329SOL     OW13087   6.389   3.147   3.464  0.0161  0.0439 -0.2476
 3329SOL    HW213088   6.344   3.104   3.391  0.2093 -0.1276 -0.2672
 3329SOL    HW313089   6.472   3.178   3.428  0.6220 -1.0373  0.1537
 3329SOL    MW413090   6.394   3.145   3.450 -0.5718 -0.4376  0.3280
 3330SOL     OW13091   3.441   1.795   0.869  0.6497 -0.6313  0.3412
 3330SOL    HW213092   3.363   1.852   0.867  1.0470 -0.0027  1.5916
 3330SOL    HW313093   3.410   1.712   0.833 -0.7520 -0.5444  1.2381
 3330SOL    MW413094   3.426   1.792   0.864 -0.1423  0.1867  0.2711
 3331SOL     OW13095   0.886   5.924   5.646 -0.1075 -0.2600 -0.1108
 3331SOL    HW213096   0.977   5.923   5.674 -0.1352  1.5894  0.1591
 3331SOL    HW313097   0.848   5.845   5.685  0.6164  0.5695  2.4633
 3331SOL    MW413098   0.893   5.914   5.655 -0.1688 -0.1770 -0.2224
 3332SOL     OW13099   0.266   4.561   1.441  0.1483 -0.7683 -0.5557
 3332SOL    HW213100   0.316   4.517   1.510 -0.3563 -0.5486 -0.0408
 3332SOL    HW313101   0.332   4.592   1.380  0.6398 -0.5979  0.0503
 3332SOL    MW413102   0.281   4.559   1.442 -0.6781 -0.6140 -0.8329
 3333SOL     OW13103   5.375   6.131   5.646  0.0822 -0.0844 -0.0107
 3333SOL    HW213104   5.357   6.072   5.573 -1.0260 -0.0609  0.2274
 3333SOL    HW313105   5.431   6.080   5.705 -0.7079 -0.8453  0.1043
 3333SOL    MW413106   5.380   6.116   5.644 -0.1485  0.3047 -0.1969
 3334SOL     OW13107   5.173   5.326   6.236  0.4358  0.4171 -0.1387
 3334SOL    HW213108   5.263   5.343   6.263  0.1253  0.7254  0.7644
 3334SOL    HW313109   5.180   5.293   6.147  1.4581  0.2332 -0.0061
 3334SOL    MW413110   5.185   5.324   6.228 -0.3750  0.1567  0.1347
 3335SOL     OW13111   1.609   4.360   1.217  0.2705 -0.2458  0.1207
 3335SOL    HW213112   1.704   4.373   1.217  0.0190  2.0378  0.6385
 3335SOL    HW313113   1.574   4.440   1.257 -1.8825 -1.0143 -0.1035
 3335SOL    MW413114   1.617   4.372   1.222 -0.5399  0.1839  0.2275
 3336SOL     OW13115   2.207   0.040   4.168  0.7343 -0.0407  0.3166
 3336SOL    HW213116   2.277   0.009   4.111 -1.0130  0.2074 -2.1338
 3336SOL    HW313117   2.215   0.136   4.167  0.3639 -0.0083 -0.0145
 3336SOL    MW413118   2.217   0.049   4.160 -0.2508 -0.3159 -0.1174
 3337SOL     OW13119   3.957   5.247   0.018  0.2031  0.0389  0.0351
 3337SOL    HW213120   4.040   5.204   0.038 -0.9835 -1.8697  1.1423
 3337SOL    HW313121   3.891   5.178   0.028 -1.6069  1.6587 -0.1209
 3337SOL    MW413122   3.959   5.232   0.022 -0.5907 -0.4902  0.0041
 3338SOL     OW13123   0.288   3.153   5.736  0.3033 -0.1983 -0.5501
 3338SOL    HW213124   0.253   3.241   5.733  1.7322  0.4077 -0.3239
 3338SOL    HW313125   0.381   3.163   5.715  0.6124 -1.5639  0.0344
 3338SOL    MW413126   0.296   3.166   5.733  0.0770  0.0997 -0.0126
 3339SOL     OW13127   4.736   3.689   1.935 -0.5752 -0.2901 -0.1972
 3339SOL    HW213128   4.722   3.700   1.841 -0.6823  1.2074 -0.0430
 3339SOL    HW313129   4.761   3.598   1.946  0.5062 -0.2284 -1.8161
 3339SOL    MW413130   4.737   3.679   1.924  0.1831 -0.3162 -0.1332
 3340SOL     OW13131   1.212   4.839   4.784 -0.1966 -0.3240 -0.1481
 3340SOL    HW213132   1.298   4.849   4.742 -0.1608  0.3395  0.0697
 3340SOL    HW313133   1.155   4.900   4.737 -1.1980 -2.4870 -1.9302
 3340SOL    MW413134   1.216   4.849   4.772 -0.1015 -0.4573 -0.2755
 3341SOL     OW13135   1.947   2.384   4.075 -0.2888 -0.2281 -0.1815
 3341SOL    HW213136   1.975   2.292   4.077  1.4011  0.0460 -3.9544
 3341SOL    HW313137   1.997   2.425   4.146  2.4753 -1.4419 -1.2819
 3341SOL    MW413138   1.957   2.377   4.085 -0.6627  0.1322 -0.1947
 3342SOL     OW13139   2.180   1.664   3.497  0.6995  0.3145  0.0476
 3342SOL    HW213140   2.206   1.592   3.555  1.9586  0.9458  0.2856
 3342SOL    HW313141   2.137   1.620   3.423 -1.6948 -0.4559  1.7951
 3342SOL    MW413142   2.178   1.648   3.495  0.2009 -0.0759  0.8905
 3343SOL     OW13143   1.846   0.382   5.780  0.1179 -0.0996 -0.8073
 3343SOL    HW213144   1.758   0.400   5.746  0.4695  1.5836 -0.9107
 3343SOL    HW313145   1.835   0.380   5.875 -0.0136  0.2502 -0.8134
 3343SOL    MW413146   1.833   0.384   5.788  0.4424 -0.3492  0.3383
 3344SOL     OW13147   0.473   0.582   6.262  0.0325 -0.6877  0.2504
 3344SOL    HW213148   0.474   0.676   6.243  0.6061 -0.4577  1.3629
 3344SOL    HW313149   0.421   0.544   6.191  0.6232  0.3415 -0.7617
 3344SOL    MW413150   0.466   0.589   6.250  0.4289 -0.0989 -0.3102
 3345SOL     OW13151   0.575   6.344   5.699 -0.5576 -0.0276 -0.1485
 3345SOL    HW213152   0.636   6.281   5.663 -0.4566 -0.5375  0.8762
 3345SOL    HW313153   0.627   6.395   5.762 -0.6706  0.9841 -0.8517
 3345SOL    MW413154   0.590   6.343   5.703  0.3355  0.3037 -0.1921
 3346SOL     OW13155   0.051   2.311   2.028 -0.9525  0.0350  0.2064
 3346SOL    HW213156   0.059   2.385   1.968 -1.3481  0.1944  0.3472
 3346SOL    HW313157   0.024   2.350   2.111  0.2446 -0.1051  0.6822
 3346SOL    MW413158   0.048   2.326   2.031 -0.2918 -0.5429  0.3992
 3347SOL     OW13159   1.677   5.864   2.741  0.2803 -0.2070  0.1651
 3347SOL    HW213160   1.607   5.884   2.803  1.2976  0.0177  1.2813
 3347SOL    HW313161   1.726   5.793   2.782  1.8559  0.9349  0.3464
 3347SOL    MW413162   1.674   5.858   2.755 -0.1979  0.3801  0.0574
 3348SOL     OW13163   3.432   4.101   0.599  0.1745 -0.2756 -0.2766
 3348SOL    HW213164   3.481   4.120   0.679 -0.9429  0.3031  0.2963
 3348SOL    HW313165   3.420   4.006   0.600 -0.1758 -0.2383  0.4743
 3348SOL    MW413166   3.437   4.091   0.610  0.6757 -0.1763  0.1819
 3349SOL     OW13167   5.248   3.405   1.862 -0.1187  0.0382  0.2285
 3349SOL    HW213168   5.321   3.420   1.801 -0.8335 -0.5645 -0.7966
 3349SOL    HW313169   5.170   3.405   1.807 -0.9038  0.5977  1.3051
 3349SOL    MW413170   5.248   3.407   1.847 -0.6710 -0.7415  0.0076
 3350SOL     OW13171   4.162   2.563   2.360  0.0973 -0.1112  0.2424
 3350SOL    HW213172   4.100   2.538   2.428  1.6358 -1.6149  1.1936
 3350SOL    HW313173   4.142   2.504   2.287  2.5047 -3.2095  1.8118
 3350SOL    MW413174   4.151   2.552   2.359 -0.5823 -0.7460 -0.1238
 3351SOL     OW13175   0.291   2.270   1.667  0.5229 -0.1431  0.1304
 3351SOL    HW213176   0.316   2.197   1.610 -0.3255  0.2676 -0.7956
 3351SOL    HW313177   0.254   2.228   1.744 -0.5665 -0.7224 -0.6733
 3351SOL    MW413178   0.290   2.254   1.669 -0.4574 -0.1725  0.4068
 3352SOL     OW13179   1.052   4.810   5.582  0.2254  0.1782 -0.3883
 3352SOL    HW213180   1.022   4.746   5.646  2.7781 -2.0513 -1.2147
 3352SOL    HW313181   1.081   4.885   5.635 -0.0407 -0.5644  0.8528
 3352SOL    MW413182   1.052   4.812   5.598  0.3460  0.1080 -0.1972
 3353SOL     OW13183   4.051   5.071   3.505  0.1597  0.1888  0.0208
 3353SOL    HW213184   3.986   5.041   3.441 -3.3204  1.4887  2.5926
 3353SOL    HW313185   4.081   4.991   3.549 -1.1941 -0.3448  0.0214
 3353SOL    MW413186   4.046   5.057   3.503  0.3870  0.5477 -0.2413
 3354SOL     OW13187   5.628   3.317   5.114 -0.1972 -0.2909 -0.1594
 3354SOL    HW213188   5.693   3.313   5.044 -1.1723 -0.5577 -1.0751
 3354SOL    HW313189   5.544   3.321   5.068 -0.8592 -0.5686  1.0029
 3354SOL    MW413190   5.625   3.317   5.098 -0.0442 -0.6339 -0.7152
 3355SOL     OW13191   0.658   3.169   1.670  0.1731  0.0904  0.7102
 3355SOL    HW213192   0.651   3.264   1.664  0.8589  0.0711 -0.7422
 3355SOL    HW313193   0.568   3.138   1.659  0.1838  0.5093 -0.7645
 3355SOL    MW413194   0.645   3.178   1.668 -0.2973 -0.6625  0.0776
 3356SOL     OW13195   2.772   1.706   3.299 -0.1289  0.0644 -0.0680
 3356SOL    HW213196   2.752   1.798   3.311 -1.9543 -0.5722  3.2068
 3356SOL    HW313197   2.699   1.660   3.341  1.5679 -2.8135  0.0550
 3356SOL    MW413198   2.760   1.712   3.306 -0.4896  0.0564 -0.1596
 3357SOL     OW13199   1.431   3.365   2.453  0.1158  0.6179 -0.3072
 3357SOL    HW213200   1.386   3.413   2.384 -0.0881  0.2529 -0.4288
 3357SOL    HW313201   1.361   3.324   2.503  0.2904  0.4271 -0.2179
 3357SOL    MW413202   1.416   3.366   2.451 -0.6484  0.2331 -0.3739
 3358SOL     OW13203   6.402   3.688   5.269 -0.2051 -0.1859  0.1726
 3358SOL    HW213204   6.413   3.618   5.206 -1.0155 -0.5761  0.4417
 3358SOL    HW313205   6.316   3.671   5.308 -0.4709  1.0253  0.1507
 3358SOL    MW413206   6.392   3.677   5.266  0.2002  0.3338 -0.1867
 3359SOL     OW13207   6.155   1.299   6.015  0.5298  0.1241 -0.1246
 3359SOL    HW213208   6.218   1.235   5.981  0.1398 -0.1040 -0.4321
 3359SOL    HW313209   6.119   1.340   5.936 -0.5993 -0.6145 -0.0204
 3359SOL    MW413210   6.158   1.296   6.000 -0.4296 -0.3228  0.3291
 3360SOL     OW13211   2.217   5.049   1.375  0.1555  0.1248  0.3942
 3360SOL    HW213212   2.148   4.987   1.354 -0.5444  0.1962  2.2680
 3360SOL    HW313213   2.208   5.064   1.470  0.4598  2.8596  0.0848
 3360SOL    MW413214   2.207   5.043   1.385  0.0464  0.2720  0.0066
 3361SOL     OW13215   0.558   3.580   6.286  0.0797  0.4228  0.4314
 3361SOL    HW213216   0.512   3.557   6.206  1.2597 -0.3651 -0.0435
 3361SOL    HW313217   0.651   3.566   6.266  0.3271 -0.9252  2.2727
 3361SOL    MW413218   0.565   3.575   6.273  0.0407  0.2332  0.3670
 3362SOL     OW13219   2.998   1.876   5.816  0.1379 -0.0485  0.3702
 3362SOL    HW213220   2.976   1.802   5.873  1.4856 -0.5262  0.2961
 3362SOL    HW313221   2.936   1.870   5.744 -0.0428 -0.8447  0.5841
 3362SOL    MW413222   2.987   1.865   5.814 -0.0628 -0.0326 -0.4445
 3363SOL     OW13223   1.076   2.689   3.253 -0.0104  0.0487 -0.5351
 3363SOL    HW213224   1.076   2.609   3.306  0.6496 -0.1962 -0.8892
 3363SOL    HW313225   0.996   2.735   3.279 -0.0536 -0.3993  0.1642
 3363SOL    MW413226   1.066   2.685   3.264 -0.5539 -0.3812 -0.3220
 3364SOL     OW13227   6.407   5.215   1.541  0.3955  0.1828  0.2175
 3364SOL    HW213228   6.449   5.297   1.515  0.0480  0.8573  1.6641
 3364SOL    HW313229   6.360   5.237   1.621 -0.5637 -1.1915  0.0625
 3364SOL    MW413230   6.406   5.228   1.548 -0.0252  0.3326  0.2364
 3365SOL     OW13231   5.162   2.980   2.447 -0.3888 -0.3002 -0.0281
 3365SOL    HW213232   5.137   3.034   2.522 -0.3288  0.6295 -0.6597
 3365SOL    HW313233   5.088   2.920   2.435 -0.5373 -0.2431  0.5717
 3365SOL    MW413234   5.149   2.979   2.455  0.3220  0.4031 -0.5432
 3366SOL     OW13235   2.985   5.763   3.690  0.2148  0.1062  0.2342
 3366SOL    HW213236   2.984   5.701   3.617  0.5532  0.4867 -0.1061
 3366SOL    HW313237   2.898   5.758   3.728 -0.2748  0.5676 -0.7760
 3366SOL    MW413238   2.974   5.754   3.685  0.1494 -0.1829  0.6368
 3367SOL     OW13239   4.122   0.083   2.991 -0.1735 -0.7110 -0.7758
 3367SOL    HW213240   4.102   0.165   3.038  2.8543  1.2908 -2.6428
 3367SOL    HW313241   4.063   0.084   2.916 -1.3539 -1.2318  0.0964
 3367SOL    MW413242   4.111   0.094   2.987 -0.3195 -0.0506 -0.1289
 3368SOL     OW13243   2.074   4.872   2.017  0.2521  0.1451  0.0782
 3368SOL    HW213244   2.009   4.823   2.067 -2.0591  1.6331 -1.3328
 3368SOL    HW313245   2.052   4.856   1.926 -0.0565  3.0567 -0.4391
 3368SOL    MW413246   2.063   4.863   2.012  0.6781  0.0880 -0.2035
 3369SOL     OW13247   2.360   2.523   3.100 -0.1549 -0.1585  0.5002
 3369SOL    HW213248   2.416   2.462   3.148 -0.0547 -1.7675 -1.4927
 3369SOL    HW313249   2.400   2.528   3.013 -1.3184  1.2047  0.0062
 3369SOL    MW413250   2.373   2.515   3.094 -0.8382  0.4604 -0.0690
 3370SOL     OW13251   1.647   3.583   5.379  0.0712 -0.5500  0.1186
 3370SOL    HW213252   1.572   3.538   5.417 -0.9276  0.4319 -0.6093
 3370SOL    HW313253   1.635   3.675   5.403 -0.7880  0.1851 -2.7375
 3370SOL    MW413254   1.636   3.590   5.387 -0.0999 -0.2942 -0.5074
 3371SOL     OW13255   1.348   3.631   2.793  0.1964 -0.5013 -0.0861
 3371SOL    HW213256   1.410   3.603   2.860 -0.2475 -1.2108  0.0371
 3371SOL    HW313257   1.307   3.709   2.830  0.9768 -0.0523 -0.1497
 3371SOL    MW413258   1.351   3.638   2.807 -0.0709 -0.3076 -0.0214
 3372SOL     OW13259   0.535   5.937   3.841 -0.4291  0.1829 -0.1065
 3372SOL    HW213260   0.565   5.931   3.931 -0.0212 -2.3346 -0.3305
 3372SOL    HW313261   0.570   6.021   3.809  0.3618  0.5830  1.7138
 3372SOL    MW413262   0.544   5.947   3.848  0.0212 -0.2511 -0.2336
 3373SOL     OW13263   0.786   3.148   0.480 -0.3876  0.1635  0.8684
 3373SOL    HW213264   0.769   3.206   0.554 -1.8192 -0.8498  1.4026
 3373SOL    HW313265   0.699   3.133   0.441  0.0451 -0.9771  0.2789
 3373SOL    MW413266   0.772   3.154   0.484  0.3598 -0.2352 -0.6556
 3374SOL     OW13267   5.916   2.230   5.415  0.0526 -0.3961  0.8054
 3374SOL    HW213268   5.831   2.202   5.449 -1.3235  1.1023 -1.1676
 3374SOL    HW313269   5.918   2.324   5.430  0.7558 -0.2004 -0.3804
 3374SOL    MW413270   5.905   2.239   5.421 -0.3470  0.0865  0.0280
 3375SOL     OW13271   3.498   4.352   5.549  0.2980  0.6384  0.0467
 3375SOL    HW213272   3.589   4.376   5.534  1.1275 -0.8791  2.0955
 3375SOL    HW313273   3.493   4.332   5.643 -1.4930 -1.7502 -0.4330
 3375SOL    MW413274   3.509   4.352   5.559 -0.2701 -0.4355 -0.7765
 3376SOL     OW13275   4.555   5.474   4.532  0.2574 -0.6077  0.8778
 3376SOL    HW213276   4.576   5.465   4.440  0.0370  2.7323  0.3656
 3376SOL    HW313277   4.640   5.484   4.576  0.3008  0.0899  0.6564
 3376SOL    MW413278   4.569   5.474   4.526 -0.0212  0.0338  0.4606
 3377SOL     OW13279   1.071   0.273   0.756 -0.6741  0.9443 -0.0365
 3377SOL    HW213280   1.071   0.271   0.660  0.7214  1.5838 -0.0782
 3377SOL    HW313281   0.987   0.313   0.779 -1.0995  0.6180 -0.9867
 3377SOL    MW413282   1.060   0.278   0.746  0.0342 -0.0656  0.5993
 3378SOL     OW13283   5.560   0.301   2.156  0.1785 -0.8517  0.0825
 3378SOL    HW213284   5.535   0.308   2.248 -0.5199  1.2403 -0.2122
 3378SOL    HW313285   5.494   0.245   2.117 -2.0624  1.5585  0.0881
 3378SOL    MW413286   5.548   0.295   2.163 -0.2256 -0.6842 -0.1095
 3379SOL     OW13287   5.311   4.272   1.343  0.7148  0.2574 -0.4517
 3379SOL    HW213288   5.343   4.344   1.289  3.1121  0.8986  1.6705
 3379SOL    HW313289   5.372   4.200   1.324 -0.3474 -0.5355 -0.9253
 3379SOL    MW413290   5.324   4.272   1.333 -0.3042  0.9684 -0.2967
 3380SOL     OW13291   6.181   1.101   0.860  0.6654 -0.8581  0.3892
 3380SOL    HW213292   6.274   1.113   0.876  1.2168  0.7127 -3.1434
 3380SOL    HW313293   6.173   1.011   0.826  1.0628 -0.6980 -0.1413
 3380SOL    MW413294   6.192   1.090   0.858  0.2475 -0.3822 -0.7201
 3381SOL     OW13295   0.436   0.337   2.443  0.5639 -0.1553  0.2924
 3381SOL    HW213296   0.349   0.305   2.422  0.3419  0.0970  0.7912
 3381SOL    HW313297   0.495   0.268   2.415  0.2024 -0.3283 -0.0506
 3381SOL    MW413298   0.432   0.324   2.437 -0.6044 -0.0474  0.0129
 3382SOL     OW13299   2.259   1.024   0.466 -0.3402 -0.2466  0.0460
 3382SOL    HW213300   2.270   1.115   0.441 -0.4319  0.2608  1.7452
 3382SOL    HW313301   2.168   1.017   0.494 -0.6481 -1.1456 -1.0719
 3382SOL    MW413302   2.248   1.035   0.466  0.2542  0.8356 -0.5358
 3383SOL     OW13303   0.305   5.017   0.654  0.0076  0.1403 -0.1820
 3383SOL    HW213304   0.215   4.996   0.629  0.5282 -0.5510 -1.5694
 3383SOL    HW313305   0.309   4.994   0.747 -0.3263 -3.3645 -0.8608
 3383SOL    MW413306   0.294   5.011   0.663  0.0170 -0.3950 -0.4587
 3384SOL     OW13307   4.042   4.443   0.222  0.1006  0.3650 -0.5782
 3384SOL    HW213308   4.033   4.358   0.265  0.0482  0.6631  0.0005
 3384SOL    HW313309   4.126   4.437   0.177  0.1962  0.0846 -0.3680
 3384SOL    MW413310   4.052   4.431   0.221 -0.0005  0.0417 -0.1671
 3385SOL     OW13311   1.221   2.499   1.577  0.0257  0.2072 -0.0542
 3385SOL    HW213312   1.296   2.440   1.579  0.1130  0.2977 -0.6390
 3385SOL    HW313313   1.225   2.541   1.491 -0.5968  0.3378 -0.0258
 3385SOL    MW413314   1.231   2.497   1.566 -0.5863 -0.1328  0.3166
 3386SOL     OW13315   0.296   2.740   1.272 -0.2672 -0.4304 -0.4013
 3386SOL    HW213316   0.293   2.762   1.179  0.1234 -0.3260 -0.3900
 3386SOL    HW313317   0.351   2.808   1.312 -1.8973  0.5845  0.2209
 3386SOL    MW413318   0.303   2.752   1.265 -0.1965  0.1718 -0.0567
 3387SOL     OW13319   2.177   0.905   1.651 -0.3333 -0.6379 -0.1711
 3387SOL    HW213320   2.196   0.998   1.659 -2.4127 -0.2320  0.6195
 3387SOL    HW313321   2.122   0.885   1.727 -1.1787 -2.1532 -1.1244
 3387SOL    MW413322   2.172   0.914   1.662 -0.1067  0.0667 -0.4116
 3388SOL     OW13323   0.138   3.935   4.449 -0.6086  0.0069 -0.0025
 3388SOL    HW213324   0.073   3.884   4.400 -0.4293  1.3498 -1.7303
 3388SOL    HW313325   0.212   3.876   4.460 -0.7370 -0.3903 -1.1921
 3388SOL    MW413326   0.139   3.920   4.444  0.6808  0.0297 -0.5420
 3389SOL     OW13327   0.608   1.806   1.849 -0.0225  0.4239  0.4725
 3389SOL    HW213328   0.529   1.763   1.882 -2.0768  2.4449 -1.5213
 3389SOL    HW313329   0.591   1.900   1.858  0.7478  1.0244 -2.8676
 3389SOL    MW413330   0.595   1.813   1.855 -0.3089 -0.2642 -0.2370
 3390SOL     OW13331   3.459   4.085   2.577  0.4354  0.2451 -0.4059
 3390SOL    HW213332   3.420   4.042   2.501 -0.3171 -0.1003  0.1700
 3390SOL    HW313333   3.528   4.141   2.540 -0.6861  0.9815 -1.4497
 3390SOL    MW413334   3.463   4.087   2.562  0.3920  0.6529 -0.1027
 3391SOL     OW13335   1.636   4.743   2.071 -0.1418 -0.2473 -0.4158
 3391SOL    HW213336   1.730   4.744   2.048 -0.1440  0.5483 -0.4195
 3391SOL    HW313337   1.607   4.654   2.047  1.7884 -2.5762  4.5328
 3391SOL    MW413338   1.645   4.731   2.065 -0.4924  0.5507 -0.0935
 3392SOL     OW13339   0.701   6.213   0.496  0.1225  0.1061  0.0948
 3392SOL    HW213340   0.655   6.292   0.468  0.3870 -0.7146 -3.0636
 3392SOL    HW313341   0.767   6.245   0.557 -1.0076  2.0543  0.3778
 3392SOL    MW413342   0.704   6.227   0.500 -0.2784 -0.2408 -0.1631
 3393SOL     OW13343   4.219   3.994   0.498  0.2954  0.5832 -0.2100
 3393SOL    HW213344   4.262   4.047   0.565  0.3470  0.8472 -0.4522
 3393SOL    HW313345   4.291   3.961   0.445  0.4280 -1.2030  0.9918
 3393SOL    MW413346   4.234   3.997   0.500  0.2195  0.3392  0.0261
 3394SOL     OW13347   4.499   0.850   4.722 -0.2635  0.1919  0.0381
 3394SOL    HW213348   4.440   0.892   4.659  0.3420 -0.6681 -1.1173
 3394SOL    HW313349   4.469   0.759   4.726 -1.4942  0.6098  2.4443
 3394SOL    MW413350   4.487   0.844   4.714  0.7811  0.2295 -0.5635
 3395SOL     OW13351   2.827   1.817   6.166  0.9287  0.4226 -0.1044
 3395SOL    HW213352   2.895   1.840   6.229  1.3145  1.1017 -0.7628
 3395SOL    HW313353   2.871   1.761   6.102 -0.3757 -4.1226  2.5026
 3395SOL    MW413354   2.841   1.813   6.166  0.3777 -0.2129  0.1352
 3396SOL     OW13355   3.181   2.203   0.128 -0.5634 -0.0542 -0.2458
 3396SOL    HW213356   3.197   2.298   0.136 -1.3818 -0.0170  1.5481
 3396SOL    HW313357   3.092   2.192   0.161 -0.1204 -1.5728  0.4854
 3396SOL    MW413358   3.171   2.214   0.133  0.3920  0.2572  0.7166
 3397SOL     OW13359   5.107   4.472   6.177 -0.1131  0.0313 -0.3593
 3397SOL    HW213360   5.072   4.387   6.204  0.0735  0.4639  1.3732
 3397SOL    HW313361   5.186   4.484   6.230  0.1857  1.0489 -0.9918
 3397SOL    MW413362   5.113   4.463   6.187 -0.3913  0.4286 -0.5033
 3398SOL     OW13363   5.379   0.062   0.590  0.0161  0.2801 -0.2850
 3398SOL    HW213364   5.328  -0.014   0.617  0.0099  0.7414  1.0963
 3398SOL    HW313365   5.313   0.128   0.566 -0.1269  1.0218  1.9046
 3398SOL    MW413366   5.363   0.061   0.590 -0.1654  0.2705  0.1269
 3399SOL     OW13367   5.775   4.116   0.450  0.5593  0.0070 -0.2971
 3399SOL    HW213368   5.805   4.171   0.377  1.2442  0.6415  0.4408
 3399SOL    HW313369   5.814   4.157   0.528  0.2824 -0.9705  0.3690
 3399SOL    MW413370   5.784   4.129   0.451 -0.3791  0.0834 -0.9915
 3400SOL     OW13371   2.114   5.435   1.131  0.5717 -0.0442  0.4890
 3400SOL    HW213372   2.061   5.456   1.054  1.0425 -1.3148 -0.1994
 3400SOL    HW313373   2.141   5.521   1.166  0.7626  0.5394 -1.0346
 3400SOL    MW413374   2.111   5.449   1.126 -0.3366  0.0999 -0.2780
 3401SOL     OW13375   5.286   6.011   5.395 -0.6271  0.0540  0.6819
 3401SOL    HW213376   5.356   5.959   5.358 -0.9178 -1.0835  1.6765
 3401SOL    HW313377   5.231   6.035   5.320  0.8318  1.0225 -0.1151
 3401SOL    MW413378   5.288   6.008   5.380  0.4056 -0.7106 -0.2424
 3402SOL     OW13379   5.392   3.455   0.463 -0.2183  0.2805 -0.4005
 3402SOL    HW213380   5.310   3.414   0.436 -0.6097  0.7924 -0.0137
 3402SOL    HW313381   5.441   3.386   0.507 -0.8967  0.2340  0.2967
 3402SOL    MW413382   5.388   3.441   0.465  0.5459  0.3764 -0.2122
 3403SOL     OW13383   0.012   6.083   4.176  0.3434  0.0607  0.0868
 3403SOL    HW213384   0.058   6.108   4.095  1.1303  0.2261  0.5697
 3403SOL    HW313385   0.073   6.024   4.220 -1.6194 -3.2072 -1.2252
 3403SOL    MW413386   0.026   6.078   4.171  0.4821  0.0837 -0.3865
 3404SOL     OW13387   3.795   2.346   1.953 -0.3243  0.4712 -0.0830
 3404SOL    HW213388   3.859   2.280   1.927 -1.9106 -0.8426 -0.8118
 3404SOL    HW313389   3.753   2.311   2.031 -1.1618  0.6036 -0.4575
 3404SOL    MW413390   3.798   2.333   1.960 -0.0897 -0.3168  0.2276
 3405SOL     OW13391   5.359   5.036   1.489  0.1887 -0.6337  0.3551
 3405SOL    HW213392   5.284   5.000   1.443 -0.7521  0.6107  0.8714
 3405SOL    HW313393   5.426   5.046   1.421 -0.9459  0.5612 -0.6272
 3405SOL    MW413394   5.358   5.032   1.474 -0.2091  0.2535  0.1349
 3406SOL     OW13395   1.849   3.580   0.844 -0.2813  0.5887 -0.9949
 3406SOL    HW213396   1.937   3.586   0.882 -0.0113 -0.5165 -1.4126
 3406SOL    HW313397   1.826   3.670   0.821  0.2769  1.0414  0.1403
 3406SOL    MW413398   1.857   3.593   0.846 -0.2244  0.2781 -0.4074
 3407SOL     OW13399   3.530   3.757   3.684 -0.1231  0.1823 -0.0498
 3407SOL    HW213400   3.524   3.679   3.739 -1.7166 -0.2083 -0.7162
 3407SOL    HW313401   3.622   3.781   3.686  0.4163 -1.7364  0.1273
 3407SOL    MW413402   3.541   3.750   3.692 -0.0910  0.8487  0.1216
 3408SOL     OW13403   1.517   1.435   4.183 -0.1441  0.1674  0.1296
 3408SOL    HW213404   1.438   1.487   4.199  0.0532  0.3487  0.5138
 3408SOL    HW313405   1.536   1.448   4.090 -1.1997 -0.7459 -0.2414
 3408SOL    MW413406   1.509   1.443   4.173  0.1210 -0.0470  0.4817
 3409SOL     OW13407   6.014   5.086   4.541  0.2387 -0.2550  0.3684
 3409SOL    HW213408   6.017   5.165   4.594  0.8006  0.7950 -1.1806
 3409SOL    HW313409   6.101   5.047   4.551  0.7144  0.5209 -0.6036
 3409SOL    MW413410   6.026   5.091   4.549 -0.2194  0.2836 -0.3040
 3410SOL     OW13411   5.123   1.507   4.478  0.0816 -0.2943 -0.3269
 3410SOL    HW213412   5.214   1.530   4.458 -0.1245  2.1391  1.1010
 3410SOL    HW313413   5.128   1.460   4.562 -0.1029  2.5146  1.3717
 3410SOL    MW413414   5.136   1.504   4.487 -0.4041 -0.4007 -0.4029
 3411SOL     OW13415   0.386   2.152   2.267 -0.2295 -0.2624  0.8664
 3411SOL    HW213416   0.310   2.145   2.325  0.1845  0.9315  1.5987
 3411SOL    HW313417   0.449   2.204   2.317  0.8351 -0.7102  0.0291
 3411SOL    MW413418   0.385   2.158   2.282 -0.3907 -0.3953 -0.2244
 3412SOL     OW13419   4.761   2.240   2.144  0.3654  0.5428  0.0671
 3412SOL    HW213420   4.668   2.263   2.147  0.2893  0.1686  0.8513
 3412SOL    HW313421   4.805   2.321   2.119 -0.4083  0.0232 -3.6693
 3412SOL    MW413422   4.754   2.253   2.141  0.2874  0.0700  0.2149
 3413SOL     OW13423   4.999   2.772   6.177  0.1720 -0.4714  0.4023
 3413SOL    HW213424   4.996   2.728   6.092  1.2788  0.1245  0.0275
 3413SOL    HW313425   5.058   2.718   6.229  2.5499  1.0912 -0.4502
 3413SOL    MW413426   5.007   2.759   6.172  0.0642  0.0561  0.6014
 3414SOL     OW13427   5.072   1.815   0.426 -0.1676  0.2430 -0.2381
 3414SOL    HW213428   5.110   1.750   0.366 -1.4535 -0.7164 -0.0504
 3414SOL    HW313429   5.072   1.896   0.376 -1.5652 -0.6062 -1.7190
 3414SOL    MW413430   5.077   1.817   0.411  0.2836 -0.5488 -0.0880
 3415SOL     OW13431   2.357   6.299   1.901 -0.0646 -0.1235 -0.4714
 3415SOL    HW213432   2.387   6.235   1.836  4.1509 -0.9015  1.9264
 3415SOL    HW313433   2.360   6.383   1.855  0.4641 -0.9054 -1.9438
 3415SOL    MW413434   2.361   6.302   1.886 -0.3030 -0.5193 -0.0375
 3416SOL     OW13435   0.637   0.283   5.955  0.4883  0.2599 -0.0613
 3416SOL    HW213436   0.553   0.270   5.911  0.2908  1.2983 -0.0211
 3416SOL    HW313437   0.633   0.226   6.032  0.7189 -1.3639 -1.1835
 3416SOL    MW413438   0.625   0.274   5.959  0.6558 -0.2001  0.3081
 3417SOL     OW13439   3.935   1.691   1.516 -0.8167  0.2691  0.1829
 3417SOL    HW213440   4.022   1.684   1.477 -0.7235 -0.2389  0.4699
 3417SOL    HW313441   3.886   1.746   1.455 -0.5385 -0.1164 -0.4033
 3417SOL    MW413442   3.940   1.698   1.503 -0.1877  0.1609 -0.3647
 3418SOL     OW13443   0.367   3.850   5.098  0.0372  0.0370 -0.5636
 3418SOL    HW213444   0.321   3.777   5.056  1.6848 -0.2377 -2.0023
 3418SOL    HW313445   0.321   3.863   5.181 -0.5908 -2.3359 -0.4788
 3418SOL    MW413446   0.355   3.842   5.104  0.2689 -0.6933 -0.5763
 3419SOL     OW13447   3.187   3.334   5.418  0.3736  0.7742 -0.0078
 3419SOL    HW213448   3.121   3.398   5.392 -1.4049 -0.3716  1.4130
 3419SOL    HW313449   3.198   3.348   5.512  0.3195 -0.6652  0.2318
 3419SOL    MW413450   3.180   3.345   5.427  0.3403  0.2211 -0.4023
 3420SOL     OW13451   1.643   2.508   1.461 -0.1352 -0.0563  0.3858
 3420SOL    HW213452   1.719   2.450   1.456 -0.0854  0.1289 -2.1034
 3420SOL    HW313453   1.570   2.449   1.480  0.3136 -0.5318  0.6784
 3420SOL    MW413454   1.643   2.493   1.463 -0.6411  0.1709  0.1287
 3421SOL     OW13455   6.066   2.389   1.041  0.7547  0.5508  0.1912
 3421SOL    HW213456   6.017   2.470   1.052  1.0401  0.5915  1.2490
 3421SOL    HW313457   6.004   2.320   1.066  1.2942  0.6187  1.7808
 3421SOL    MW413458   6.051   2.390   1.045  0.2889 -0.0308  0.3460
 3422SOL     OW13459   4.995   3.540   3.930 -0.0224  0.3023  0.2764
 3422SOL    HW213460   4.939   3.598   3.982  0.9984  0.7029  0.9626
 3422SOL    HW313461   4.978   3.564   3.839  0.7166  2.0172  0.5554
 3422SOL    MW413462   4.985   3.551   3.925 -0.8504  0.2996  0.0130
 3423SOL     OW13463   5.691   1.443   5.648 -0.1964  0.7594  0.6831
 3423SOL    HW213464   5.625   1.510   5.627  1.6787  1.7667 -2.7071
 3423SOL    HW313465   5.649   1.360   5.627 -0.1217  1.4601 -2.6576
 3423SOL    MW413466   5.676   1.441   5.643 -0.2954 -0.2295  0.2273
 3424SOL     OW13467   5.155   5.386   1.337  0.3370  0.2924  0.0472
 3424SOL    HW213468   5.183   5.338   1.260 -0.9131  2.2089 -1.6881
 3424SOL    HW313469   5.081   5.335   1.372  0.6129 -0.3321 -0.2695
 3424SOL    MW413470   5.149   5.373   1.332 -0.5659  0.0499  1.0045
 3425SOL     OW13471   2.343   5.242   2.814 -0.3615 -0.5425  0.1432
 3425SOL    HW213472   2.392   5.212   2.890 -0.2335  0.0941  0.3173
 3425SOL    HW313473   2.270   5.181   2.806 -0.2074 -0.7867  0.5976
 3425SOL    MW413474   2.340   5.230   2.823  0.2718  0.7527 -0.1177
 3426SOL     OW13475   0.940   3.383   1.793  0.3659 -0.0969  0.2379
 3426SOL    HW213476   0.978   3.295   1.792  0.3780 -0.0934  0.5709
 3426SOL    HW313477   0.935   3.407   1.700 -0.8831 -0.9826  0.0503
 3426SOL    MW413478   0.945   3.374   1.780  0.0866  0.3209 -0.3633
 3427SOL     OW13479   1.348   5.372   0.366  0.5768  0.3392 -0.1840
 3427SOL    HW213480   1.404   5.297   0.384  0.3481 -0.1385 -1.4075
 3427SOL    HW313481   1.346   5.421   0.449  0.3101 -1.2575  0.7815
 3427SOL    MW413482   1.355   5.369   0.379 -0.0738  0.0018  0.9044
 3428SOL     OW13483   1.569   2.565   4.656 -0.2022  0.0006  0.4734
 3428SOL    HW213484   1.621   2.645   4.664  1.2366 -0.8908  0.3771
 3428SOL    HW313485   1.487   2.594   4.614  0.4375  1.3492  0.0919
 3428SOL    MW413486   1.565   2.580   4.652 -0.1422  0.2420 -0.5068
 3429SOL     OW13487   5.786   4.421   4.893  0.2591  0.3888  0.0580
 3429SOL    HW213488   5.826   4.404   4.978  0.0986 -3.1892 -0.4228
 3429SOL    HW313489   5.860   4.430   4.833  0.3580  0.2627  0.1617
 3429SOL    MW413490   5.801   4.420   4.896 -0.3276  0.1669 -0.1182
 3430SOL     OW13491   6.235   2.136   2.408  0.3631  0.0465  0.5255
 3430SOL    HW213492   6.280   2.204   2.458 -1.1943  0.5117  1.3625
 3430SOL    HW313493   6.149   2.173   2.389  0.7386 -0.2587 -2.2260
 3430SOL    MW413494   6.230   2.150   2.412 -0.7030 -0.3469  0.2217
 3431SOL     OW13495   2.104   2.334   1.573  0.0925  0.2064 -0.2654
 3431SOL    HW213496   2.126   2.260   1.629 -0.5695  2.3120  3.0662
 3431SOL    HW313497   2.181   2.391   1.577  0.3984  0.0199 -2.3495
 3431SOL    MW413498   2.117   2.332   1.581 -0.2751  0.3433 -0.0600
 3432SOL     OW13499   4.464   0.684   0.858  0.1252  0.7051 -0.4888
 3432SOL    HW213500   4.476   0.591   0.839  0.2991  0.7197 -0.4528
 3432SOL    HW313501   4.374   0.703   0.833 -0.3933  0.1773  0.8915
 3432SOL    MW413502   4.454   0.675   0.852 -0.0136  0.4139  0.7192
 3433SOL     OW13503   3.753   4.785   0.433  0.1977  0.5775 -0.1536
 3433SOL    HW213504   3.813   4.831   0.374 -0.5346  0.7989 -0.7395
 3433SOL    HW313505   3.795   4.700   0.449  2.4193  1.9836  2.2912
 3433SOL    MW413506   3.767   4.780   0.427 -0.4228 -0.1278 -0.2197
 3434SOL     OW13507   4.650   4.010   3.569  0.1245 -0.2484  0.1628
 3434SOL    HW213508   4.683   4.092   3.607  0.3655 -0.5969  0.7073
 3434SOL    HW313509   4.721   3.980   3.512 -0.1735  0.1898 -0.4513
 3434SOL    MW413510   4.664   4.017   3.566 -0.0085 -0.0179  0.5094
 3435SOL     OW13511   1.753   2.367   0.358  0.2608  0.2399  0.0405
 3435SOL    HW213512   1.722   2.358   0.268  0.6683  1.3082 -0.2221
 3435SOL    HW313513   1.793   2.454   0.361  1.7891 -0.4392  0.7744
 3435SOL    MW413514   1.754   2.377   0.347 -0.0449 -0.1931  0.0864
 3436SOL     OW13515   3.012   1.801   5.134  0.0195 -0.0352  0.0329
 3436SOL    HW213516   3.056   1.744   5.197 -1.1458 -1.2524 -0.2018
 3436SOL    HW313517   2.919   1.787   5.150 -0.3000  1.6206 -0.2299
 3436SOL    MW413518   3.006   1.792   5.144  0.2871  0.2309  0.5053
 3437SOL     OW13519   3.572   2.897   0.687  0.1385 -0.4985 -0.0172
 3437SOL    HW213520   3.648   2.933   0.641  0.6641 -0.4663  0.8542
 3437SOL    HW313521   3.580   2.929   0.776 -1.7192  0.7227 -0.2416
 3437SOL    MW413522   3.583   2.906   0.692  0.2848  0.3726 -0.2806
 3438SOL     OW13523   5.846   0.890   4.568  0.2001 -0.2877 -0.1811
 3438SOL    HW213524   5.916   0.852   4.621  0.1055 -2.1755 -1.2955
 3438SOL    HW313525   5.797   0.814   4.535 -2.0019  0.9328  0.0385
 3438SOL    MW413526   5.849   0.875   4.571 -0.6294 -0.2534 -0.3183
 3439SOL     OW13527   6.008   6.242   3.512 -0.1567  0.1150  0.0445
 3439SOL    HW213528   5.976   6.183   3.580 -0.8220  0.4433  0.0281
 3439SOL    HW313529   6.095   6.208   3.489  0.4538  0.4991  1.6686
 3439SOL    MW413530   6.015   6.230   3.518 -0.3177 -0.0330 -0.0716
 3440SOL     OW13531   4.113   5.142   0.789  0.0143  0.3043  0.4756
 3440SOL    HW213532   4.059   5.065   0.809  0.2948 -0.2716 -0.8345
 3440SOL    HW313533   4.115   5.144   0.693 -1.2141  2.8173  0.4222
 3440SOL    MW413534   4.106   5.132   0.779 -0.1553 -0.2290  0.3030
 3441SOL     OW13535   1.192   3.495   0.753  0.1483 -0.3563 -0.0250
 3441SOL    HW213536   1.105   3.533   0.766  0.1300 -0.2609 -0.4273
 3441SOL    HW313537   1.180   3.401   0.765  0.2430 -0.2299  1.2525
 3441SOL    MW413538   1.179   3.488   0.756 -0.9668  0.0952  0.2889
 3442SOL     OW13539   1.013   6.188   1.828  0.4147 -0.2076 -0.4364
 3442SOL    HW213540   1.052   6.126   1.889  1.5506  0.5145 -0.3893
 3442SOL    HW313541   1.089   6.232   1.787 -0.3331  0.1725 -1.4651
 3442SOL    MW413542   1.028   6.186   1.830  0.4081  1.2688 -0.7049
 3443SOL     OW13543   4.615   3.137   0.172  0.1017  0.3775  0.3852
 3443SOL    HW213544   4.546   3.201   0.190 -0.6790 -0.2337 -0.4040
 3443SOL    HW313545   4.674   3.181   0.111  0.3545  0.8479  0.9537
 3443SOL    MW413546   4.614   3.151   0.167 -0.0424  0.5103 -0.1248
 3444SOL     OW13547   2.648   3.390   2.725  0.6385 -0.0655  0.7373
 3444SOL    HW213548   2.565   3.376   2.771 -0.4446 -0.6904 -1.2844
 3444SOL    HW313549   2.693   3.456   2.777  0.0798 -1.6257  3.3642
 3444SOL    MW413550   2.643   3.397   2.738 -0.5144  0.6134  0.3464
 3445SOL     OW13551   4.002   3.818   0.389 -0.0349 -0.4524 -0.0821
 3445SOL    HW213552   3.911   3.819   0.419 -0.4188  1.4944 -1.1413
 3445SOL    HW313553   4.037   3.903   0.416  0.0572  0.7888 -3.5557
 3445SOL    MW413554   3.995   3.829   0.396  0.6299  0.6225 -0.3336
 3446SOL     OW13555   6.396   5.113   2.980 -0.7411 -0.0782  0.0404
 3446SOL    HW213556   6.471   5.062   3.010 -0.7138  0.3030  0.6303
 3446SOL    HW313557   6.430   5.164   2.907  0.1340  1.6197  1.5658
 3446SOL    MW413558   6.411   5.113   2.974  0.4517  0.4105 -0.4782
 3447SOL     OW13559   6.292   0.011   1.286  0.4129 -0.2204 -0.2947
 3447SOL    HW213560   6.259   0.046   1.369  3.2588  1.7071  0.1546
 3447SOL    HW313561   6.299  -0.084   1.301 -0.1396 -0.0422  1.2672
 3447SOL    MW413562   6.288   0.003   1.299 -0.4537 -0.3908 -0.2948
 3448SOL     OW13563   0.262   0.901   4.614 -0.2342  0.5485 -0.0512
 3448SOL    HW213564   0.222   0.975   4.566 -0.2743  0.5078 -0.0810
 3448SOL    HW313565   0.187   0.856   4.653 -0.3387 -0.2383 -1.1121
 3448SOL    MW413566   0.247   0.905   4.613  0.2785 -0.3837  0.1789
 3449SOL     OW13567   0.667   1.615   4.515  0.5598  0.8733  0.0523
 3449SOL    HW213568   0.713   1.530   4.516 -0.6065  0.2138 -0.3924
 3449SOL    HW313569   0.617   1.614   4.434  0.8462  2.1919 -0.1634
 3449SOL    MW413570   0.667   1.603   4.505 -0.0183 -0.4851  0.1789
 3450SOL     OW13571   2.521   2.903   1.422  0.0536  0.4844  0.4126
 3450SOL    HW213572   2.486   2.979   1.376 -0.0833 -0.7266 -1.6310
 3450SOL    HW313573   2.605   2.886   1.378  0.1540 -0.4267  0.9514
 3450SOL    MW413574   2.527   2.911   1.410 -0.3215  0.2684 -0.1419
 3451SOL     OW13575   2.206   2.439   1.268 -0.1882 -0.2292  0.4154
 3451SOL    HW213576   2.267   2.409   1.200  0.4199  1.8505 -0.0434
 3451SOL    HW313577   2.201   2.366   1.329  1.0615 -1.2956 -0.6677
 3451SOL    MW413578   2.214   2.425   1.267 -0.7173 -0.3865  0.0652
 3452SOL     OW13579   5.236   2.099   3.153  0.2009 -0.1058  0.6148
 3452SOL    HW213580   5.303   2.044   3.114 -1.4290 -2.7455  1.2817
 3452SOL    HW313581   5.216   2.164   3.085  2.0388 -0.4325 -0.2967
 3452SOL    MW413582   5.242   2.100   3.139 -0.0987 -1.0227 -0.2325
 3453SOL     OW13583   1.608   2.189   3.333 -0.1551  0.7509  0.4177
 3453SOL    HW213584   1.569   2.102   3.341  0.2299  0.1150 -3.0059
 3453SOL    HW313585   1.659   2.200   3.413 -3.8032 -0.1525  3.1000
 3453SOL    MW413586   1.610   2.179   3.344  0.2820  0.0006 -0.1684
 3454SOL     OW13587   3.963   4.443   2.495  0.0034  0.0620 -0.1406
 3454SOL    HW213588   4.040   4.392   2.471  2.5559  3.2645  0.5347
 3454SOL    HW313589   3.914   4.453   2.414  0.4369 -1.7472 -0.6729
 3454SOL    MW413590   3.967   4.437   2.481  0.1486 -0.2264  0.1051
 3455SOL     OW13591   0.437   2.586   3.684 -0.1710  0.5035 -0.2153
 3455SOL    HW213592   0.355   2.538   3.687  0.4555 -0.7463 -1.6468
 3455SOL    HW313593   0.477   2.570   3.770 -0.4691 -0.6811 -0.2720
 3455SOL    MW413594   0.432   2.577   3.696  0.2602 -0.4185  0.1064
 3456SOL     OW13595   1.568   5.209   6.342  0.4152  0.2902  0.3627
 3456SOL    HW213596   1.610   5.294   6.353  0.2912  0.2264  1.3957
 3456SOL    HW313597   1.507   5.221   6.269  0.5395  1.0256  0.3812
 3456SOL    MW413598   1.566   5.221   6.333 -0.2943  0.3796 -0.3434
 3457SOL     OW13599   3.780   4.917   2.511  0.3140 -0.4119  0.0298
 3457SOL    HW213600   3.725   4.859   2.564 -0.1672 -1.5888 -1.6639
 3457SOL    HW313601   3.723   4.947   2.441  0.8196  1.4360  0.3560
 3457SOL    MW413602   3.765   4.913   2.509  0.5744 -0.3675  0.1193
 3458SOL     OW13603   3.924   1.772   0.897  0.1455  0.1211 -0.1362
 3458SOL    HW213604   3.840   1.727   0.892 -0.2990  0.7946  0.8871
 3458SOL    HW313605   3.975   1.737   0.824 -1.2752  0.2233 -1.2244
 3458SOL    MW413606   3.920   1.762   0.886 -0.1934  0.2994 -0.1535
 3459SOL     OW13607   3.926   5.615   6.239 -0.0996  0.2603  0.4219
 3459SOL    HW213608   3.897   5.705   6.230  0.7039  0.3705 -1.4972
 3459SOL    HW313609   3.849   5.563   6.214 -0.2874  0.4323  0.6378
 3459SOL    MW413610   3.912   5.620   6.234 -0.0226 -0.2186 -0.0696
 3460SOL     OW13611   5.849   6.215   0.938  0.7922 -0.3736 -0.6617
 3460SOL    HW213612   5.813   6.301   0.915  1.0242 -0.6054 -1.9778
 3460SOL    HW313613   5.896   6.187   0.859  0.5311 -1.8126 -0.3272
 3460SOL    MW413614   5.851   6.223   0.924  0.0625 -0.0393  0.0856
 3461SOL     OW13615   4.789   6.087   2.978  0.4201  0.3304  0.2381
 3461SOL    HW213616   4.794   6.141   3.056  0.8020  0.6709 -0.0217
 3461SOL    HW313617   4.731   6.136   2.919 -0.3277 -0.1952  0.5157
 3461SOL    MW413618   4.782   6.100   2.981 -0.3073 -0.0150  0.1555
 3462SOL     OW13619   0.595   3.179   4.719 -0.5386 -0.4445 -0.3977
 3462SOL    HW213620   0.512   3.221   4.743 -0.5033 -0.5608 -0.0652
 3462SOL    HW313621   0.575   3.085   4.720 -0.2933 -0.4930  0.1146
 3462SOL    MW413622   0.581   3.172   4.722  0.0262  0.2156 -0.3787
 3463SOL     OW13623   2.400   0.817   4.374 -0.0007  0.6485 -0.1415
 3463SOL    HW213624   2.352   0.751   4.424  2.7547 -1.9522 -0.5878
 3463SOL    HW313625   2.339   0.889   4.363 -2.8293 -1.3245  1.4642
 3463SOL    MW413626   2.386   0.818   4.379 -0.1233 -0.4190  0.1944
 3464SOL     OW13627   4.795   5.762   0.787  0.5259 -0.1888 -0.4167
 3464SOL    HW213628   4.732   5.834   0.784  0.3528 -0.2806  0.5373
 3464SOL    HW313629   4.881   5.804   0.781  0.5082  0.3074  1.9363
 3464SOL    MW413630   4.798   5.777   0.786 -0.0637 -0.3367  0.3630
 3465SOL     OW13631   1.690   2.934   0.763 -0.2901 -0.5480 -0.3073
 3465SOL    HW213632   1.772   2.887   0.748 -0.6826 -1.6265  0.7472
 3465SOL    HW313633   1.661   2.904   0.850 -1.8240 -0.2310 -0.6861
 3465SOL    MW413634   1.697   2.924   0.773  0.1934  0.1050  0.1795
 3466SOL     OW13635   3.349   5.816   4.932 -0.5539 -0.8608  0.3295
 3466SOL    HW213636   3.434   5.773   4.918 -0.4447 -0.4694 -0.2667
 3466SOL    HW313637   3.295   5.787   4.859  0.0157  1.2051 -1.0014
 3466SOL    MW413638   3.353   5.806   4.921 -0.7393  0.8319  0.0096
 3467SOL     OW13639   3.618   2.389   1.008 -0.8245  0.0779  0.1819
 3467SOL    HW213640   3.604   2.350   1.094 -0.5321 -1.2125 -0.3247
 3467SOL    HW313641   3.532   2.387   0.966 -0.8372  0.0966  0.2075
 3467SOL    MW413642   3.605   2.383   1.014 -0.8244 -0.2711  0.4439
 3468SOL     OW13643   4.091   3.436   0.019 -0.4240  0.7890 -0.1464
 3468SOL    HW213644   4.172   3.484   0.035 -0.8729  1.1436  1.1446
 3468SOL    HW313645   4.053   3.422   0.105 -0.9111 -0.8652 -0.5791
 3468SOL    MW413646   4.097   3.440   0.032 -0.4313 -0.4224 -0.3882
 3469SOL     OW13647   1.982   6.220   5.489 -0.5836  0.1509  0.0133
 3469SOL    HW213648   2.028   6.159   5.431 -0.5144 -0.2423  0.4752
 3469SOL    HW313649   1.939   6.164   5.554 -1.4096  0.5360 -0.1863
 3469SOL    MW413650   1.983   6.205   5.490  0.1265  0.0730  0.5844
 3470SOL     OW13651   0.351   1.421   1.887 -0.4682  0.6859  0.3243
 3470SOL    HW213652   0.441   1.413   1.855 -1.1727 -0.5526 -1.5714
 3470SOL    HW313653   0.349   1.504   1.934  1.6845  0.6706  0.5344
 3470SOL    MW413654   0.362   1.431   1.889  0.2251  0.5908 -0.2150
 3471SOL     OW13655   0.921   0.234   6.011 -0.5645 -0.4150  0.0027
 3471SOL    HW213656   0.844   0.272   5.970 -0.2381  0.5723  0.2792
 3471SOL    HW313657   0.932   0.284   6.092 -0.7805 -1.8382  0.9649
 3471SOL    MW413658   0.912   0.245   6.017 -0.3805  0.0258  0.5006
 3472SOL     OW13659   2.262   4.857   4.753  0.3625  0.0642  0.0035
 3472SOL    HW213660   2.320   4.871   4.828 -1.1161 -0.7798  1.3719
 3472SOL    HW313661   2.190   4.804   4.788 -1.3297  1.2090 -1.5598
 3472SOL    MW413662   2.260   4.852   4.767 -0.0572 -0.1401  0.3147
 3473SOL     OW13663   5.491   5.565   2.114  0.9306  0.5184 -0.3949
 3473SOL    HW213664   5.483   5.649   2.071 -2.0142  0.6761  0.2542
 3473SOL    HW313665   5.437   5.505   2.062 -0.2221  0.0066  1.3050
 3473SOL    MW413666   5.483   5.568   2.102  0.1622 -0.9585 -0.1299
 3474SOL     OW13667   5.705   6.043   2.411 -0.1042  0.4365  0.8408
 3474SOL    HW213668   5.714   5.948   2.421  0.2399  0.2721 -0.7580
 3474SOL    HW313669   5.762   6.065   2.338 -2.1542  1.4743 -0.5424
 3474SOL    MW413670   5.714   6.033   2.403 -0.1516 -0.1212  0.1890
 3475SOL     OW13671   6.394   1.553   1.525 -0.0845 -0.6914  0.2749
 3475SOL    HW213672   6.435   1.508   1.599  0.4550 -1.9303 -0.7489
 3475SOL    HW313673   6.396   1.646   1.550 -2.2443 -1.2465  2.9194
 3475SOL    MW413674   6.400   1.559   1.538 -0.6072 -0.3558  0.2045
 3476SOL     OW13675   0.718   4.473   6.119  0.5709 -0.4941  0.2080
 3476SOL    HW213676   0.675   4.436   6.041  0.0444 -0.0430  0.2702
 3476SOL    HW313677   0.645   4.495   6.177  0.4533  3.8017 -1.1856
 3476SOL    MW413678   0.702   4.471   6.116 -0.4445  0.2948 -0.5450
 3477SOL     OW13679   1.186   1.159   4.123  0.3239 -0.3205 -0.5017
 3477SOL    HW213680   1.214   1.159   4.214 -0.2729  1.3516 -0.2763
 3477SOL    HW313681   1.105   1.107   4.123 -0.3204  0.6410  0.1734
 3477SOL    MW413682   1.179   1.152   4.135  0.2038  0.0802  0.3762
 3478SOL     OW13683   4.548   1.649   3.854 -0.1167  0.3283 -0.1302
 3478SOL    HW213684   4.454   1.635   3.849 -0.2079  0.6224  0.6159
 3478SOL    HW313685   4.586   1.561   3.856 -0.4170  0.2098  0.2931
 3478SOL    MW413686   4.541   1.635   3.853 -0.0772  0.0731  0.6811
 3479SOL     OW13687   1.678   4.891   3.282  0.1190 -0.3560  0.0192
 3479SOL    HW213688   1.629   4.956   3.332 -1.9067 -2.5423  1.1306
 3479SOL    HW313689   1.760   4.934   3.259 -1.9745  3.3519 -1.3468
 3479SOL    MW413690   1.682   4.905   3.285 -0.3622 -0.6808  0.2600
 3480SOL     OW13691   4.323   2.923   4.516  0.2630  0.2868 -0.1081
 3480SOL    HW213692   4.371   2.944   4.436  0.2805  0.1776 -0.1261
 3480SOL    HW313693   4.236   2.897   4.485  0.8941 -1.8282 -0.2638
 3480SOL    MW413694   4.317   2.923   4.501 -0.1887 -0.3066 -0.3431
 3481SOL     OW13695   6.432   6.150   3.624 -0.1286  0.1664 -0.5528
 3481SOL    HW213696   6.470   6.063   3.637 -0.8898 -0.1597 -0.4087
 3481SOL    HW313697   6.400   6.175   3.711  1.7395  1.4230 -0.1682
 3481SOL    MW413698   6.433   6.142   3.638 -0.4068 -0.2928 -0.1156
 3482SOL     OW13699   4.647   5.735   0.476 -0.4603  0.3770 -0.6396
 3482SOL    HW213700   4.683   5.675   0.542 -0.1513  0.8724 -0.3508
 3482SOL    HW313701   4.606   5.677   0.411 -0.7302 -0.1201 -0.0396
 3482SOL    MW413702   4.647   5.719   0.476  0.1586  0.1789 -0.9523
 3483SOL     OW13703   2.378   4.089   0.615  0.1690 -0.4963 -0.0109
 3483SOL    HW213704   2.451   4.140   0.650  1.5072 -1.3829 -1.4014
 3483SOL    HW313705   2.360   4.024   0.683 -0.2639  0.5808  0.9294
 3483SOL    MW413706   2.385   4.087   0.629  0.5485  0.7527  0.4703
 3484SOL     OW13707   2.928   1.415   1.013  0.6530 -0.3600 -0.3192
 3484SOL    HW213708   2.937   1.336   1.065 -1.9457 -0.3928  0.1996
 3484SOL    HW313709   2.889   1.385   0.931  0.7742  0.2398 -0.6018
 3484SOL    MW413710   2.924   1.401   1.009  0.4917  0.0931 -0.2968
 3485SOL     OW13711   2.778   3.053   1.136  0.0208 -1.1341 -0.3138
 3485SOL    HW213712   2.737   3.009   1.061 -0.0157  0.4642 -1.2840
 3485SOL    HW313713   2.734   3.137   1.141  0.3989 -1.0039  1.1985
 3485SOL    MW413714   2.767   3.058   1.127  0.6280  0.5715 -0.0842
 3486SOL     OW13715   0.725   3.378   0.659 -0.1692 -0.1176  0.5460
 3486SOL    HW213716   0.677   3.425   0.591 -0.1923  0.2037  0.7792
 3486SOL    HW313717   0.777   3.446   0.702 -0.9880 -0.1140  1.5700
 3486SOL    MW413718   0.726   3.393   0.656  0.9087  0.2520 -0.1800
 3487SOL     OW13719   5.009   3.693   4.448  0.0885  0.0082  0.1972
 3487SOL    HW213720   4.968   3.773   4.482 -0.8914 -0.2589 -0.3002
 3487SOL    HW313721   4.955   3.623   4.485  1.7269 -0.5142  1.7131
 3487SOL    MW413722   4.996   3.694   4.458  0.2263  0.5008  0.1363
 3488SOL     OW13723   2.176   5.504   4.239 -0.3036 -0.2954  0.2433
 3488SOL    HW213724   2.204   5.416   4.214  0.6374  0.5947 -2.1493
 3488SOL    HW313725   2.254   5.544   4.278  0.1570  0.3365 -1.2419
 3488SOL    MW413726   2.190   5.497   4.241  0.2778 -0.2151 -0.4339
 3489SOL     OW13727   2.591   5.383   0.182  0.0378 -0.1603  0.2795
 3489SOL    HW213728   2.644   5.313   0.220 -0.0277 -0.0028  0.6683
 3489SOL    HW313729   2.533   5.338   0.121  1.0694 -0.2544 -0.6484
 3489SOL    MW413730   2.590   5.368   0.179  0.4952 -0.1492 -0.0615
 3490SOL     OW13731   1.189   4.579   6.124  0.0728  0.4869  0.3665
 3490SOL    HW213732   1.245   4.648   6.089 -0.2465  0.2786 -0.5777
 3490SOL    HW313733   1.138   4.621   6.192 -0.6778  1.3898 -0.7169
 3490SOL    MW413734   1.190   4.593   6.128 -0.8468 -0.2448 -0.2244
 3491SOL     OW13735   5.534   5.371   2.651 -0.0556 -0.3980 -0.1247
 3491SOL    HW213736   5.533   5.428   2.574  0.7992 -0.2875 -0.0594
 3491SOL    HW313737   5.474   5.300   2.628  0.3669 -0.4959 -0.9961
 3491SOL    MW413738   5.526   5.369   2.638  0.0292  0.1657 -0.0477
 3492SOL     OW13739   5.382   0.674   3.708  0.0889 -0.0768  0.4062
 3492SOL    HW213740   5.378   0.647   3.617 -0.6891 -0.6345  0.5903
 3492SOL    HW313741   5.322   0.748   3.714 -1.3229 -1.1840  0.8087
 3492SOL    MW413742   5.373   0.680   3.697 -0.2879 -0.0797  0.2686
 3493SOL     OW13743   3.150   3.057   5.624  0.1937  0.7449  0.0687
 3493SOL    HW213744   3.131   3.102   5.542  0.2070  0.9671  0.1854
 3493SOL    HW313745   3.227   3.003   5.605 -0.2872  0.1801 -0.2814
 3493SOL    MW413746   3.158   3.056   5.611 -0.2958 -0.0840 -0.3878
 3494SOL     OW13747   5.376   6.400   2.696 -0.3732 -0.6205 -0.1877
 3494SOL    HW213748   5.333   6.361   2.620 -2.2600 -0.7019  0.8792
 3494SOL    HW313749   5.394   6.326   2.754 -0.6890 -0.3383  0.2755
 3494SOL    MW413750   5.373   6.385   2.693 -0.0539 -0.6154 -0.1027
 3495SOL     OW13751   1.272   1.777   0.346 -0.2963 -0.4455  0.5747
 3495SOL    HW213752   1.195   1.748   0.296 -0.2862  0.7349 -0.1432
 3495SOL    HW313753   1.304   1.854   0.299  1.1729 -0.7523  1.0189
 3495SOL    MW413754   1.266   1.783   0.333 -0.3240  0.1245  0.0870
 3496SOL     OW13755   5.700   5.368   6.313  0.1976  0.1197  0.1836
 3496SOL    HW213756   5.712   5.280   6.277  0.4192  0.4461 -0.5690
 3496SOL    HW313757   5.734   5.362   6.402 -0.5809 -0.7738  0.4334
 3496SOL    MW413758   5.706   5.356   6.320  0.1192 -0.1938 -0.0884
 3497SOL     OW13759   6.182   3.313   5.418 -0.1326  0.1187  0.2643
 3497SOL    HW213760   6.268   3.272   5.424  0.1639  0.7893  0.7294
 3497SOL    HW313761   6.128   3.268   5.483 -0.5285 -1.1930 -0.9148
 3497SOL    MW413762   6.186   3.302   5.427 -0.5020 -0.0369 -0.4151
 3498SOL     OW13763   2.364   4.494   0.530  0.4532  0.1979  0.0322
 3498SOL    HW213764   2.428   4.429   0.501  0.6912  0.7317 -0.6506
 3498SOL    HW313765   2.280   4.450   0.519  0.6816 -0.4528  0.7933
 3498SOL    MW413766   2.361   4.479   0.525 -0.3515 -0.3588 -0.0897
 3499SOL     OW13767   1.146   5.341   0.737 -0.1740 -0.1754  0.3694
 3499SOL    HW213768   1.175   5.376   0.821  0.1675  0.6722 -0.0815
 3499SOL    HW313769   1.052   5.326   0.747 -0.1523  0.0224  0.8636
 3499SOL    MW413770   1.137   5.344   0.749  0.0994  0.9472 -0.1049
 3500SOL     OW13771   2.088   0.071   3.373 -0.0621  0.8526 -0.5411
 3500SOL    HW213772   2.156   0.130   3.404 -0.2526 -0.1215  1.9490
 3500SOL    HW313773   2.012   0.090   3.430  0.2637 -2.5351  1.2510
 3500SOL    MW413774   2.087   0.082   3.385  0.1021  0.0703  0.6222
 3501SOL     OW13775   2.103   5.671   4.035  0.1742  0.0455 -0.4585
 3501SOL    HW213776   2.152   5.619   4.099 -0.2535 -1.9278 -1.6586
 3501SOL    HW313777   2.014   5.676   4.072  0.0035 -0.8272 -0.7415
 3501SOL    MW413778   2.097   5.665   4.049 -0.4079 -0.6468 -0.3201
 3502SOL     OW13779   2.579   3.812   3.517 -0.4839 -0.5432 -0.1865
 3502SOL    HW213780   2.595   3.742   3.454 -3.3186 -0.5841 -1.0259
 3502SOL    HW313781   2.495   3.850   3.490  0.7173  2.9824  0.4489
 3502SOL    MW413782   2.570   3.808   3.505 -0.1199  0.1478 -0.3401
 3503SOL     OW13783   4.586   3.887   2.040  0.8606  0.0374  0.2445
 3503SOL    HW213784   4.631   3.818   1.992 -1.5852 -0.5567 -1.4341
 3503SOL    HW313785   4.534   3.932   1.973 -1.7451  0.0209  2.0977
 3503SOL    MW413786   4.585   3.884   2.024  0.1033  0.4909  0.3922
 3504SOL     OW13787   1.492   6.416   2.206  0.0935  0.0236 -0.2961
 3504SOL    HW213788   1.425   6.464   2.255  0.1843  0.9351 -1.0409
 3504SOL    HW313789   1.497   6.461   2.121  1.7491  0.0478 -0.2141
 3504SOL    MW413790   1.483   6.428   2.201 -0.5282 -0.2833 -0.2555
 3505SOL     OW13791   5.511   0.472   4.350 -0.3598 -0.1861 -0.5375
 3505SOL    HW213792   5.476   0.400   4.299 -2.9254  0.6404 -0.0816
 3505SOL    HW313793   5.553   0.529   4.286 -1.7118 -0.1896 -1.4638
 3505SOL    MW413794   5.512   0.470   4.335  0.0828  0.5518  0.5441
 3506SOL     OW13795   5.311   2.757   1.190  0.2353  0.2032  0.0058
 3506SOL    HW213796   5.271   2.784   1.272 -0.5488  0.2770 -0.3907
 3506SOL    HW313797   5.325   2.839   1.142 -1.2457  0.0357 -0.7886
 3506SOL    MW413798   5.307   2.771   1.194 -0.2016 -0.3246 -0.2852
 3507SOL     OW13799   5.877   5.575   5.474 -0.0558  0.1685  0.4710
 3507SOL    HW213800   5.803   5.565   5.534  0.1484 -0.0355  0.6922
 3507SOL    HW313801   5.949   5.530   5.517  0.3918  0.9812  0.5872
 3507SOL    MW413802   5.877   5.567   5.487 -0.6384 -0.5847  0.7008
 3508SOL     OW13803   5.064   6.301   2.804 -0.7625 -0.1141  0.1632
 3508SOL    HW213804   5.117   6.324   2.728  0.4899  1.4510  1.4335
 3508SOL    HW313805   5.064   6.205   2.805 -0.4146 -0.1678 -1.4991
 3508SOL    MW413806   5.071   6.291   2.794 -0.4336  0.2165  0.1486
 3509SOL     OW13807   0.003   5.879   6.113  0.2731  0.4768  0.2382
 3509SOL    HW213808  -0.050   5.935   6.056 -0.0511  0.1085  0.1706
 3509SOL    HW313809   0.088   5.922   6.117  0.1232  0.8064 -0.0670
 3509SOL    MW413810   0.007   5.892   6.106  0.0830 -0.5268  0.3621
 3510SOL     OW13811   1.082   6.322   2.829  0.2448  0.2181  0.0998
 3510SOL    HW213812   1.080   6.409   2.792  0.0294 -0.4552 -1.5373
 3510SOL    HW313813   1.049   6.265   2.760  0.3088 -1.1594  1.1510
 3510SOL    MW413814   1.077   6.326   2.815  0.3581  0.1437  0.1164
 3511SOL     OW13815   2.664   0.181   1.235  0.1069  0.2524 -0.0028
 3511SOL    HW213816   2.613   0.134   1.300 -0.0756  1.1438  0.5129
 3511SOL    HW313817   2.739   0.124   1.217 -0.2677 -0.3675  0.3723
 3511SOL    MW413818   2.667   0.168   1.241  0.1283 -0.1250  0.6624
 3512SOL     OW13819   6.127   4.239   4.760 -0.2578  0.3539  0.1822
 3512SOL    HW213820   6.221   4.239   4.779 -0.5265  2.3318  1.8127
 3512SOL    HW313821   6.092   4.168   4.813  0.1951  0.1989  0.2789
 3512SOL    MW413822   6.135   4.230   4.770 -0.7033 -0.1290 -0.6374
 3513SOL     OW13823   5.162   3.288   3.305  0.0837  0.3387  0.1546
 3513SOL    HW213824   5.236   3.233   3.333  1.2376  1.6872 -0.1364
 3513SOL    HW313825   5.139   3.339   3.382 -0.4363  0.0631  0.1871
 3513SOL    MW413826   5.169   3.287   3.319  0.2106 -0.6503  0.1933
 3514SOL     OW13827   2.110   1.473   1.050  0.0840 -0.1288 -0.0302
 3514SOL    HW213828   2.118   1.504   1.140 -0.8118  0.3783 -0.1170
 3514SOL    HW313829   2.201   1.466   1.020  0.5366 -2.3527  1.5623
 3514SOL    MW413830   2.123   1.476   1.058 -0.3194  0.4087 -0.1823
 3515SOL     OW13831   5.782   6.115   4.365  0.0366  0.1945 -0.4092
 3515SOL    HW213832   5.877   6.116   4.358  0.1523 -0.6031  0.7028
 3515SOL    HW313833   5.758   6.022   4.365 -0.4836  0.2629  1.8630
 3515SOL    MW413834   5.791   6.103   4.364 -0.3145  0.0645  0.2442
 3516SOL     OW13835   3.040   6.027   0.437 -0.0816 -0.0394  0.5793
 3516SOL    HW213836   2.955   6.071   0.439 -1.1988 -2.0991  1.2845
 3516SOL    HW313837   3.079   6.045   0.522  0.2081  0.8916  0.2624
 3516SOL    MW413838   3.034   6.035   0.449  0.2390  0.4280 -0.0254
 3517SOL     OW13839   3.682   1.371   4.836  0.1818  0.0523 -0.3338
 3517SOL    HW213840   3.655   1.405   4.922 -0.1501 -1.6154  0.2545
 3517SOL    HW313841   3.767   1.330   4.853  0.1845 -0.1459 -0.8318
 3517SOL    MW413842   3.689   1.370   4.850  0.6816 -0.2109  0.1334
 3518SOL     OW13843   3.373   3.356   6.224 -0.7945 -0.3665 -0.3024
 3518SOL    HW213844   3.396   3.436   6.272  2.1650 -1.9254  1.1855
 3518SOL    HW313845   3.400   3.374   6.134 -2.6170  1.1647 -0.6047
 3518SOL    MW413846   3.380   3.369   6.218  0.0199 -1.0158  0.3898
 3519SOL     OW13847   2.278   6.387   3.113  0.2828  0.0133 -0.3169
 3519SOL    HW213848   2.356   6.332   3.115  0.3389 -0.4940 -4.9248
 3519SOL    HW313849   2.218   6.341   3.054 -1.6263  2.6306 -0.6123
 3519SOL    MW413850   2.280   6.373   3.105  0.2921  0.1714  0.1387
 3520SOL     OW13851   4.664   3.686   2.706 -0.3136  0.7650 -0.0781
 3520SOL    HW213852   4.649   3.729   2.790  1.3449  1.3336 -0.0373
 3520SOL    HW313853   4.732   3.739   2.664  0.7377 -0.9593 -0.6609
 3520SOL    MW413854   4.671   3.699   2.711 -0.1097  0.3159  0.4010
 3521SOL     OW13855   0.897   3.567   0.761  0.1365  0.3561 -0.0092
 3521SOL    HW213856   0.891   3.636   0.696  3.8189  1.2753  0.4028
 3521SOL    HW313857   0.913   3.613   0.844  2.6945 -0.8705  0.2673
 3521SOL    MW413858   0.898   3.582   0.764  0.1501  0.3134  0.1358
 3522SOL     OW13859   5.925   5.610   2.648  0.5715 -0.2754  0.2890
 3522SOL    HW213860   5.878   5.583   2.727 -0.2837  1.2928  0.3488
 3522SOL    HW313861   5.913   5.536   2.588 -0.5865 -0.6050  0.8782
 3522SOL    MW413862   5.917   5.596   2.651 -0.3215  0.3762  0.7719
 3523SOL     OW13863   1.652   0.614   5.689 -0.0392 -0.2911 -0.1516
 3523SOL    HW213864   1.738   0.656   5.684  0.0892 -0.3970  1.0440
 3523SOL    HW313865   1.638   0.579   5.601  0.8599  0.2691 -0.5320
 3523SOL    MW413866   1.662   0.615   5.677 -0.0445 -0.3651  0.7402
 3524SOL     OW13867   5.749   0.907   4.996  0.1693  0.6296 -0.2464
 3524SOL    HW213868   5.732   0.824   4.951 -1.8058  0.9317 -0.1343
 3524SOL    HW313869   5.843   0.907   5.012  0.8726  0.1407 -3.6768
 3524SOL    MW413870   5.759   0.896   4.992  0.7726  0.2635 -0.1872
 3525SOL     OW13871   5.115   2.570   0.299  0.0250 -0.0257  0.1649
 3525SOL    HW213872   5.028   2.608   0.286 -0.1879 -0.3458  0.6397
 3525SOL    HW313873   5.150   2.616   0.375 -0.5059 -1.2103  1.1733
 3525SOL    MW413874   5.108   2.581   0.307 -0.5981 -0.2613 -0.4560
 3526SOL     OW13875   1.167   4.535   3.015  0.2302 -0.0787  0.0588
 3526SOL    HW213876   1.076   4.506   3.009 -0.1045  1.0943 -1.0166
 3526SOL    HW313877   1.167   4.601   3.083  0.6648 -1.3443  1.3334
 3526SOL    MW413878   1.155   4.540   3.023  0.5049  0.1469  0.3064
 3527SOL     OW13879   6.365   4.352   1.539  0.5199 -0.2959  0.1643
 3527SOL    HW213880   6.439   4.295   1.518 -0.9596 -1.2079 -3.2387
 3527SOL    HW313881   6.370   4.422   1.475 -1.4841 -0.3151 -0.0603
 3527SOL    MW413882   6.375   4.354   1.528 -0.4135  0.3298  0.0465
 3528SOL     OW13883   0.275   3.663   2.789 -0.4212 -0.1153 -0.3012
 3528SOL    HW213884   0.324   3.726   2.738  0.4342  0.5633  1.2893
 3528SOL    HW313885   0.299   3.681   2.880 -1.2786 -1.7786  0.3051
 3528SOL    MW413886   0.284   3.674   2.794 -0.2459 -0.2156 -0.3058
 3529SOL     OW13887   2.780   4.308   4.990  0.5014  0.1444 -0.4023
 3529SOL    HW213888   2.768   4.271   5.077 -0.1193 -0.7220 -0.8336
 3529SOL    HW313889   2.838   4.246   4.946  0.3291  0.2579 -0.7948
 3529SOL    MW413890   2.786   4.295   4.995 -0.0925 -0.1573  0.4561
 3530SOL     OW13891   1.486   4.716   3.841 -0.0615  0.0738 -0.6265
 3530SOL    HW213892   1.579   4.701   3.859  0.0284  1.5189  0.2285
 3530SOL    HW313893   1.483   4.735   3.747  0.5003  0.0293 -0.6572
 3530SOL    MW413894   1.498   4.716   3.831  0.8428  0.0462 -0.0229
 3531SOL     OW13895   0.257   3.254   6.084 -0.8310  0.2644  0.4903
 3531SOL    HW213896   0.328   3.248   6.020 -0.6258  1.9427  0.5239
 3531SOL    HW313897   0.295   3.217   6.164 -0.9436 -1.4342 -0.1979
 3531SOL    MW413898   0.272   3.248   6.086  0.5344  0.0918 -0.5321
 3532SOL     OW13899   1.073   5.157   3.032  0.3011 -0.0594 -0.0037
 3532SOL    HW213900   1.050   5.200   2.950 -3.2906 -0.9579  0.3620
 3532SOL    HW313901   1.137   5.090   3.008 -0.5716 -0.2164 -2.0760
 3532SOL    MW413902   1.078   5.154   3.018  0.1904  0.2074  0.3610
 3533SOL     OW13903   3.256   2.766   1.884 -0.2210 -0.3530 -0.2111
 3533SOL    HW213904   3.298   2.718   1.812 -0.2188 -1.5510  0.5676
 3533SOL    HW313905   3.180   2.712   1.908 -1.6399  1.2471 -0.8928
 3533SOL    MW413906   3.252   2.752   1.878  0.0536  0.8155  0.3945
 3534SOL     OW13907   5.040   1.127   3.721 -1.4392 -0.5049 -0.0215
 3534SOL    HW213908   5.095   1.199   3.690 -1.5811  0.9503  2.7784
 3534SOL    HW313909   4.991   1.099   3.644  1.2463 -0.0939 -2.0179
 3534SOL    MW413910   5.041   1.133   3.707  0.1238 -0.4708 -0.2637
 3535SOL     OW13911   6.082   0.817   2.274 -0.6209 -0.0673  0.1256
 3535SOL    HW213912   6.155   0.860   2.319  0.7709 -1.9279 -0.2272
 3535SOL    HW313913   6.106   0.819   2.182  0.3042 -2.8574  0.2094
 3535SOL    MW413914   6.095   0.823   2.268  0.0297  0.3169  0.3218
 3536SOL     OW13915   0.699   6.290   2.083 -0.1794  0.3686 -0.4142
 3536SOL    HW213916   0.715   6.366   2.028 -1.6545 -0.0120 -1.4434
 3536SOL    HW313917   0.638   6.236   2.032  1.1899 -1.7493  0.0720
 3536SOL    MW413918   0.693   6.293   2.069  0.0271  0.2088 -0.6973
 3537SOL     OW13919   0.063   5.556   4.491 -0.0933 -0.2433 -0.1137
 3537SOL    HW213920   0.102   5.639   4.518 -1.2642  0.2392  0.1420
 3537SOL    HW313921   0.138   5.498   4.477  0.6788  0.3530  1.3510
 3537SOL    MW413922   0.078   5.559   4.493 -0.6227  0.4153  0.1182
 3538SOL     OW13923   5.037   0.185   5.263 -0.3858 -0.0604 -0.2855
 3538SOL    HW213924   5.019   0.237   5.185 -0.7518  1.9093  1.0393
 3538SOL    HW313925   4.965   0.204   5.323  0.0967 -1.1728  0.7122
 3538SOL    MW413926   5.025   0.194   5.261 -0.1451 -0.3448  0.2496
 3539SOL     OW13927   2.944   4.818   3.621  0.5339  0.1051  0.2531
 3539SOL    HW213928   2.864   4.792   3.666  0.2580 -0.2467 -0.4227
 3539SOL    HW313929   2.983   4.884   3.678  0.5011 -0.7441  1.2912
 3539SOL    MW413930   2.939   4.823   3.635 -0.2884  0.2088 -0.0964
 3540SOL     OW13931   6.034   4.703   0.894  0.6061 -0.6984 -0.0124
 3540SOL    HW213932   6.006   4.669   0.809 -0.8182 -2.4513  1.0712
 3540SOL    HW313933   6.084   4.631   0.933  2.0832  0.4472  0.2650
 3540SOL    MW413934   6.037   4.689   0.888 -0.6282 -0.3162 -0.1968
 3541SOL     OW13935   4.011   3.154   2.835  0.3242 -0.0114  0.4333
 3541SOL    HW213936   4.060   3.072   2.836 -0.6070 -0.6304 -1.3333
 3541SOL    HW313937   4.078   3.222   2.831  1.1862 -0.8525 -3.3642
 3541SOL    MW413938   4.026   3.152   2.835  0.7899  0.1207 -0.0640
 3542SOL     OW13939   3.006   1.039   2.422  0.1584 -0.5151 -0.6997
 3542SOL    HW213940   2.954   0.993   2.357 -2.4506  2.0223 -0.5838
 3542SOL    HW313941   3.064   1.096   2.371 -0.8840  0.4333 -0.8503
 3542SOL    MW413942   3.007   1.041   2.407 -0.2017  0.3632 -0.0610
 3543SOL     OW13943   2.529   3.673   1.208  0.0748  0.1387  0.2082
 3543SOL    HW213944   2.499   3.674   1.298  2.3356 -1.4020  1.0809
 3543SOL    HW313945   2.603   3.612   1.208  1.9099  2.1241 -2.0993
 3543SOL    MW413946   2.535   3.665   1.220  0.1303  0.4217  0.0775
 3544SOL     OW13947   1.755   6.259   3.386  0.3334  0.0563  0.6308
 3544SOL    HW213948   1.744   6.304   3.302  2.1687  1.5390  1.1158
 3544SOL    HW313949   1.797   6.176   3.363  0.5148  0.2966  0.0633
 3544SOL    MW413950   1.759   6.254   3.372 -0.3401  0.3031  0.6974
 3545SOL     OW13951   2.854   2.322   2.640 -0.1727 -0.0308  0.5016
 3545SOL    HW213952   2.775   2.289   2.599 -1.0392 -1.4529  3.0854
 3545SOL    HW313953   2.856   2.415   2.616 -3.0466  0.2322  0.8891
 3545SOL    MW413954   2.844   2.330   2.632  0.0632 -0.0065 -0.5263
 3546SOL     OW13955   1.266   1.985   5.327  0.4677 -0.3709 -0.6042
 3546SOL    HW213956   1.184   1.958   5.284 -2.2147  3.0461  1.8135
 3546SOL    HW313957   1.303   2.051   5.268 -0.7390  0.9241  0.0062
 3546SOL    MW413958   1.260   1.990   5.313 -0.1046 -0.4087  0.2034
 3547SOL     OW13959   5.987   2.620   2.840  0.4757 -0.1928 -0.3206
 3547SOL    HW213960   5.987   2.701   2.790  2.4283 -0.9452 -1.6285
 3547SOL    HW313961   5.994   2.648   2.931 -0.8138  1.1244 -0.5833
 3547SOL    MW413962   5.988   2.634   2.846 -0.4581  0.1601 -0.0449
 3548SOL     OW13963   3.701   0.253   1.195 -0.0501  0.4699  0.1851
 3548SOL    HW213964   3.688   0.307   1.117 -0.3749  1.0002  0.6005
 3548SOL    HW313965   3.635   0.283   1.257 -0.4088 -0.5872  0.3429
 3548SOL    MW413966   3.691   0.264   1.193 -0.4893  0.1928 -0.3005
 3549SOL     OW13967   3.992   1.695   6.245 -0.0415 -0.3162  0.7251
 3549SOL    HW213968   4.067   1.650   6.206 -0.0206  0.3681 -0.0417
 3549SOL    HW313969   3.919   1.634   6.233 -0.7659  1.0209 -3.2600
 3549SOL    MW413970   3.993   1.681   6.238 -0.7671  0.5019 -0.2936
 3550SOL     OW13971   3.548   0.209   0.012  0.6463 -0.0843 -0.1708
 3550SOL    HW213972   3.471   0.166   0.048 -0.5309  2.1936  0.2014
 3550SOL    HW313973   3.557   0.173  -0.076 -0.8052 -0.4573 -0.1855
 3550SOL    MW413974   3.539   0.199   0.005  0.0902 -0.2346 -0.1347
 3551SOL     OW13975   5.155   3.860   3.976  0.4472  0.5097  0.2030
 3551SOL    HW213976   5.103   3.838   4.053  1.4523  0.4144  0.8728
 3551SOL    HW313977   5.237   3.894   4.011  2.0716 -2.1333 -0.7779
 3551SOL    MW413978   5.159   3.862   3.991  0.1458  0.6920  0.5445
 3552SOL     OW13979   0.659   2.658   3.446  0.1305 -0.5120  0.1895
 3552SOL    HW213980   0.574   2.683   3.409  1.0514 -1.4967 -2.8472
 3552SOL    HW313981   0.644   2.570   3.481 -0.9664  0.7487  3.2841
 3552SOL    MW413982   0.646   2.649   3.446  0.0258  0.4570 -0.0602
 3553SOL     OW13983   0.168   0.802   3.680  0.4329  0.1601  0.3226
 3553SOL    HW213984   0.173   0.779   3.587 -0.0392 -0.3977  0.4327
 3553SOL    HW313985   0.196   0.894   3.683 -0.8844  0.6219 -0.5554
 3553SOL    MW413986   0.173   0.811   3.668 -0.2589  0.2224 -0.1286
 3554SOL     OW13987   2.193   2.945   3.995 -0.9293 -0.4082  0.1842
 3554SOL    HW213988   2.197   3.040   4.009  1.6357 -0.3683 -0.4275
 3554SOL    HW313989   2.143   2.935   3.914  0.3706  0.5899 -0.7875
 3554SOL    MW413990   2.187   2.956   3.986 -0.7834  1.2179  0.0934
 3555SOL     OW13991   5.412   2.062   5.852  0.2267 -0.0502 -0.1015
 3555SOL    HW213992   5.506   2.071   5.866  0.5566 -2.2455 -0.5379
 3555SOL    HW313993   5.376   2.052   5.940  0.4214  0.4943  0.0467
 3555SOL    MW413994   5.420   2.062   5.865  0.1776  0.2084 -0.7666
 3556SOL     OW13995   3.095   6.062   3.267 -0.1965  0.3298  0.2732
 3556SOL    HW213996   3.149   6.082   3.190  0.6613 -2.0973  0.1697
 3556SOL    HW313997   3.015   6.024   3.231 -0.3217  0.3329  0.5524
 3556SOL    MW413998   3.092   6.060   3.252 -0.5789  0.4469 -1.4839
 3557SOL     OW13999   5.796   3.039   3.268  0.1582 -0.0028 -0.7136
 3557SOL    HW214000   5.891   3.046   3.262  0.0834  1.9245 -0.4676
 3557SOL    HW314001   5.765   3.130   3.263 -1.8069 -0.6917 -2.8378
 3557SOL    MW414002   5.804   3.052   3.267  0.0384 -0.3043  0.4220
 3558SOL     OW14003   4.974   2.790   3.074 -0.3074 -0.3708  0.1363
 3558SOL    HW214004   4.960   2.851   3.002 -1.1449  1.0972  1.4822
 3558SOL    HW314005   4.907   2.813   3.138 -0.5538 -2.6212  0.7785
 3558SOL    MW414006   4.963   2.801   3.073  0.1953  0.5220  0.6288
 3559SOL     OW14007   3.367   1.349   5.052 -0.6386  0.7073 -0.7459
 3559SOL    HW214008   3.275   1.349   5.025 -1.1131  0.8749  0.7496
 3559SOL    HW314009   3.397   1.437   5.030 -1.2945  1.1685  0.0984
 3559SOL    MW414010   3.359   1.361   5.046 -0.2101 -0.6054  0.0131
 3560SOL     OW14011   6.355   0.735   2.882  0.1148 -0.0170 -0.2626
 3560SOL    HW214012   6.426   0.729   2.945 -2.2398 -0.5755  2.5841
 3560SOL    HW314013   6.339   0.645   2.854  0.4386  0.0952 -0.8247
 3560SOL    MW414014   6.362   0.723   2.887 -0.5923  0.8030 -1.0026
 3561SOL     OW14015   0.336   5.791   4.795  0.8734  0.4030  0.0306
 3561SOL    HW214016   0.390   5.870   4.801  0.8846  0.2745  2.3134
 3561SOL    HW314017   0.394   5.726   4.755  1.7815  0.8044  0.6543
 3561SOL    MW414018   0.351   5.793   4.790 -0.4889  0.4436  0.3924
 3562SOL     OW14019   5.926   4.965   0.303 -0.3468  0.4169  0.3946
 3562SOL    HW214020   5.905   5.002   0.217 -1.3014 -0.2467  0.3319
 3562SOL    HW314021   5.972   4.883   0.283  0.3063  0.7380  0.5329
 3562SOL    MW414022   5.930   4.959   0.289 -0.2528  0.4834 -0.2065
 3563SOL     OW14023   6.248   0.473   4.518 -0.1373 -0.4240 -0.7896
 3563SOL    HW214024   6.182   0.518   4.571 -1.3931 -1.1784 -1.6643
 3563SOL    HW314025   6.281   0.540   4.459  0.1601  0.0497 -0.0993
 3563SOL    MW414026   6.244   0.487   4.517 -0.3011 -0.1338 -0.2884
 3564SOL     OW14027   1.517   4.505   3.133  0.0205  0.6984 -0.0556
 3564SOL    HW214028   1.564   4.486   3.052  1.2302 -0.6360  0.9049
 3564SOL    HW314029   1.444   4.561   3.106  0.1758 -0.0052 -2.1103
 3564SOL    MW414030   1.514   4.510   3.118 -0.2744  0.2276  0.0098
 3565SOL     OW14031   1.015   1.689   5.804 -0.0476 -0.0356  0.6862
 3565SOL    HW214032   1.072   1.765   5.791  2.6179 -2.0715 -0.5098
 3565SOL    HW314033   1.056   1.641   5.876  0.9631 -2.4991 -1.3989
 3565SOL    MW414034   1.028   1.693   5.812 -0.2524  0.0030 -0.3000
 3566SOL     OW14035   6.177   3.313   3.573  0.1308 -0.8138 -0.0961
 3566SOL    HW214036   6.103   3.279   3.522 -1.5205  2.6521 -0.2959
 3566SOL    HW314037   6.254   3.273   3.532 -1.3798 -1.2887 -2.7209
 3566SOL    MW414038   6.177   3.303   3.561  0.0416 -0.7547 -0.1383
 3567SOL     OW14039   0.946   5.198   4.576 -0.3194  0.5701  0.1245
 3567SOL    HW214040   0.927   5.222   4.485 -1.0101 -0.2918  0.0341
 3567SOL    HW314041   1.040   5.180   4.577 -0.1420  1.4217 -0.2177
 3567SOL    MW414042   0.956   5.199   4.564 -0.2576  0.1692  0.1449
 3568SOL     OW14043   1.671   6.415   0.823  0.1219 -0.2516  0.0696
 3568SOL    HW214044   1.645   6.507   0.827 -0.2402 -0.2799 -1.0659
 3568SOL    HW314045   1.757   6.416   0.779  0.0148 -0.4674 -0.1487
 3568SOL    MW414046   1.679   6.427   0.817 -0.1613  0.4718  0.0571
 3569SOL     OW14047   2.692   6.251   1.459 -0.4175  0.2231 -0.0542
 3569SOL    HW214048   2.759   6.240   1.391 -0.2127  0.3719  0.1214
 3569SOL    HW314049   2.638   6.172   1.453  0.3929 -0.3959  0.4874
 3569SOL    MW414050   2.694   6.239   1.449  0.4478 -0.2406 -0.2607
 3570SOL     OW14051   4.075   3.190   2.427 -0.1462  0.0591 -0.8604
 3570SOL    HW214052   4.155   3.146   2.455  1.2058  0.3473 -3.8676
 3570SOL    HW314053   4.079   3.276   2.467  0.4445 -0.3208 -0.0751
 3570SOL    MW414054   4.086   3.195   2.436  0.1573 -0.3406 -0.2469
 3571SOL     OW14055   3.426   4.331   6.129  0.3519  0.1258 -0.5671
 3571SOL    HW214056   3.425   4.244   6.169  2.7632 -0.3077 -1.2861
 3571SOL    HW314057   3.336   4.361   6.135 -0.3123 -1.9176  0.7886
 3571SOL    MW414058   3.414   4.324   6.135  0.2372  0.1994 -0.0408
 3572SOL     OW14059   0.032   0.463   4.198  0.0096 -0.0111 -0.2032
 3572SOL    HW214060   0.023   0.527   4.127  0.0344  1.1019  0.7704
 3572SOL    HW314061  -0.053   0.419   4.201  0.3758 -0.9110 -1.6635
 3572SOL    MW414062   0.019   0.466   4.189  0.3837 -0.0707 -0.7320
 3573SOL     OW14063   2.234   2.112   1.708 -0.0722 -0.7160 -0.3656
 3573SOL    HW214064   2.213   2.034   1.758  0.7120  0.3060  1.6791
 3573SOL    HW314065   2.328   2.127   1.724 -0.1237  0.4298 -0.9983
 3573SOL    MW414066   2.244   2.104   1.717 -0.2516  0.3757  0.0184
 3574SOL     OW14067   6.369   2.966   5.525 -0.0305  0.1392 -0.3712
 3574SOL    HW214068   6.402   3.005   5.605 -1.1858  0.6966 -0.1406
 3574SOL    HW314069   6.385   2.872   5.535  1.3288  0.3745 -0.2367
 3574SOL    MW414070   6.375   2.959   5.537  0.5923  0.5216  0.0129
 3575SOL     OW14071   1.629   0.037   1.645 -0.5068  0.2634 -0.5202
 3575SOL    HW214072   1.575   0.106   1.606 -2.3460  1.2719  3.3717
 3575SOL    HW314073   1.696   0.084   1.696  0.6410 -0.9387 -0.8598
 3575SOL    MW414074   1.631   0.052   1.646  0.1064 -0.6831 -0.1344
 3576SOL     OW14075   6.426   2.179   0.084  0.0317 -0.2786  0.1777
 3576SOL    HW214076   6.370   2.105   0.061  0.0724 -0.9456  2.0913
 3576SOL    HW314077   6.416   2.240   0.011 -0.7939 -1.7159 -0.9553
 3576SOL    MW414078   6.418   2.177   0.071  0.3905  0.2734 -0.1118
 3577SOL     OW14079   6.379   4.407   0.731 -0.0899 -0.6026  0.6524
 3577SOL    HW214080   6.337   4.460   0.664  1.4549  0.6472  0.5986
 3577SOL    HW314081   6.326   4.419   0.809 -0.9233 -0.6754  0.1052
 3577SOL    MW414082   6.367   4.415   0.733  0.3034  0.0592 -0.0344
 3578SOL     OW14083   1.703   4.070   1.859  0.9533  0.1299  0.3078
 3578SOL    HW214084   1.697   3.976   1.848  0.2378  0.0611  1.1806
 3578SOL    HW314085   1.750   4.082   1.942  2.6593  0.5802 -0.6608
 3578SOL    MW414086   1.708   4.059   1.869  0.5845 -0.2056 -0.1669
 3579SOL     OW14087   0.097   1.800   4.211 -0.3128  0.0618 -0.2707
 3579SOL    HW214088   0.050   1.729   4.253  1.3987  0.2994  2.3230
 3579SOL    HW314089   0.036   1.874   4.212 -0.7059 -0.2524  0.9198
 3579SOL    MW414090   0.083   1.800   4.217 -0.2014  0.5535  0.1932
 3580SOL     OW14091   3.569   1.563   6.421 -0.5692  0.1579 -0.6313
 3580SOL    HW214092   3.583   1.633   6.484  0.1644  1.6377 -2.3173
 3580SOL    HW314093   3.646   1.506   6.431 -1.4698 -0.8177  1.1693
 3580SOL    MW414094   3.581   1.565   6.430  0.1733  0.1820 -0.7754
 3581SOL     OW14095   3.639   3.388   2.533  0.3409  0.1102 -0.0100
 3581SOL    HW214096   3.634   3.430   2.618  2.3194 -1.4416  0.9609
 3581SOL    HW314097   3.716   3.428   2.491  0.6509 -0.6152 -0.1600
 3581SOL    MW414098   3.649   3.399   2.538  0.1183  0.0368  0.8771
 3582SOL     OW14099   3.189   1.476   0.973  0.1226  0.3964  0.0880
 3582SOL    HW214100   3.235   1.446   1.051 -1.0772 -0.9652  0.3258
 3582SOL    HW314101   3.097   1.480   1.000 -0.2287  0.5226 -1.0736
 3582SOL    MW414102   3.183   1.472   0.987 -0.0093  0.1322  0.3875
 3583SOL     OW14103   4.217   4.318   2.406  0.8569 -0.4236 -0.5022
 3583SOL    HW214104   4.227   4.229   2.375 -0.3959 -0.8664  0.2806
 3583SOL    HW314105   4.212   4.371   2.327 -0.8529 -1.3574 -1.0579
 3583SOL    MW414106   4.218   4.314   2.392 -0.4850  0.6311  0.1623
 3584SOL     OW14107   0.547   0.880   0.868 -0.4205  0.2585  0.1530
 3584SOL    HW214108   0.620   0.833   0.827 -1.1722 -0.0595 -0.8713
 3584SOL    HW314109   0.586   0.960   0.902  0.4968 -0.1382  0.0622
 3584SOL    MW414110   0.562   0.885   0.867 -0.5250 -0.2724 -0.6917
 3585SOL     OW14111   5.006   3.368   1.725 -0.6960 -0.4389  0.5355
 3585SOL    HW214112   4.992   3.312   1.648 -0.1426 -0.2657  0.3120
 3585SOL    HW314113   4.921   3.366   1.770 -0.8639 -0.9777  0.2130
 3585SOL    MW414114   4.993   3.360   1.720 -0.3629 -0.3645  0.1995
 3586SOL     OW14115   2.877   3.925   1.303 -0.0016  0.1181 -0.3671
 3586SOL    HW214116   2.924   3.967   1.375 -3.4543 -0.5672  2.5361
 3586SOL    HW314117   2.836   3.998   1.256 -0.0429  0.3916  0.0928
 3586SOL    MW414118   2.878   3.940   1.306  0.0332 -0.1824 -0.5429
 3587SOL     OW14119   3.866   4.776   6.281  0.2167 -0.0149 -0.1435
 3587SOL    HW214120   3.809   4.750   6.208 -1.3574  1.5400  0.4663
 3587SOL    HW314121   3.875   4.696   6.333 -1.0388 -0.4273 -0.5191
 3587SOL    MW414122   3.859   4.762   6.278  0.3140 -0.2134 -0.2047
 3588SOL     OW14123   5.971   0.667   2.932 -0.9501  0.0046 -0.2412
 3588SOL    HW214124   6.002   0.747   2.890  1.4771  0.8600  2.7841
 3588SOL    HW314125   5.970   0.602   2.863  0.3219  1.8498 -2.1244
 3588SOL    MW414126   5.975   0.669   2.917 -0.2446  0.2180  0.4368
 3589SOL     OW14127   6.358   4.529   4.585  0.1301  0.1438 -0.3988
 3589SOL    HW214128   6.308   4.539   4.667 -1.4192  0.4801 -1.3355
 3589SOL    HW314129   6.397   4.442   4.591 -1.2080 -0.4512  0.0609
 3589SOL    MW414130   6.356   4.519   4.597 -0.5481 -0.2888 -0.5667
 3590SOL     OW14131   5.555   4.889   6.341  0.6746 -0.2095 -0.0241
 3590SOL    HW214132   5.590   4.816   6.290  0.9029 -2.2328  2.8482
 3590SOL    HW314133   5.460   4.881   6.333  0.7083 -0.0332 -0.6979
 3590SOL    MW414134   5.547   4.878   6.333  0.3582 -0.0679 -0.0299
 3591SOL     OW14135   1.499   2.820   0.582  0.3526  0.1905  0.1317
 3591SOL    HW214136   1.559   2.855   0.647  1.1013  2.3780 -1.5967
 3591SOL    HW314137   1.414   2.859   0.603  0.3718  0.1111  0.3555
 3591SOL    MW414138   1.495   2.829   0.593 -0.3949  0.2067  0.5253
 3592SOL     OW14139   2.605   4.456   5.322 -0.5344  0.0562  0.2212
 3592SOL    HW214140   2.551   4.490   5.394  0.6038  1.8945  0.2864
 3592SOL    HW314141   2.695   4.470   5.352  0.0061 -2.2139 -0.2074
 3592SOL    MW414142   2.610   4.462   5.336  0.5373 -0.4746 -0.0394
 3593SOL     OW14143   4.795   5.319   1.905 -0.0675 -0.4302 -0.1674
 3593SOL    HW214144   4.835   5.240   1.940 -0.0933 -1.1087 -1.5995
 3593SOL    HW314145   4.706   5.293   1.882 -0.4412  0.3215  0.3638
 3593SOL    MW414146   4.789   5.305   1.906  0.0261 -0.2350  0.3270
 3594SOL     OW14147   2.628   1.380   2.962  0.4725  0.0126  0.0580
 3594SOL    HW214148   2.669   1.458   2.999  2.6969  0.0675 -2.2433
 3594SOL    HW314149   2.551   1.413   2.916 -0.4897  0.3333  1.7884
 3594SOL    MW414150   2.623   1.395   2.961  0.8481  0.4853 -0.7326
 3595SOL     OW14151   0.711   4.798   4.447  0.0879  0.4400  0.3031
 3595SOL    HW214152   0.690   4.862   4.379 -1.5955 -0.5152 -0.1576
 3595SOL    HW314153   0.642   4.809   4.513 -0.2711 -0.9015  0.1866
 3595SOL    MW414154   0.699   4.808   4.447  0.0990  0.3173 -0.2200
 3596SOL     OW14155   2.244   4.715   4.327  0.0877  0.1881 -0.1271
 3596SOL    HW214156   2.227   4.626   4.296  0.9797  0.2239 -0.7414
 3596SOL    HW314157   2.229   4.771   4.251 -2.8054  0.8609  0.8248
 3596SOL    MW414158   2.240   4.711   4.313  0.5291  0.9754 -0.4898
 3597SOL     OW14159   0.917   0.152   1.700  0.6152  0.4561 -0.0612
 3597SOL    HW214160   0.975   0.098   1.646  0.5704 -0.2886  0.6200
 3597SOL    HW314161   0.975   0.218   1.738  0.9879 -0.1795  0.4793
 3597SOL    MW414162   0.932   0.154   1.698  0.7180 -0.9135 -0.3545
 3598SOL     OW14163   3.459   1.870   2.467 -0.5743 -0.4364 -0.3260
 3598SOL    HW214164   3.398   1.874   2.393 -0.9129 -1.3516 -0.1043
 3598SOL    HW314165   3.407   1.839   2.540  0.0211 -0.6364  0.0199
 3598SOL    MW414166   3.444   1.867   2.467 -0.2412  0.4101  0.2915
 3599SOL     OW14167   0.537   0.350   5.044  0.3068  0.2841  0.0879
 3599SOL    HW214168   0.524   0.270   5.095  0.9793 -0.2722 -0.5872
 3599SOL    HW314169   0.575   0.412   5.107 -0.8258  0.3022  0.7813
 3599SOL    MW414170   0.540   0.348   5.059  0.5452  0.4793  0.3310
 3600SOL     OW14171   0.102   1.677   0.769  0.2486  0.0944  0.1524
 3600SOL    HW214172   0.015   1.706   0.743 -0.0389 -1.0479 -0.2259
 3600SOL    HW314173   0.156   1.688   0.691  0.3782  0.5024  0.2945
 3600SOL    MW414174   0.097   1.682   0.755  0.0431  0.4610 -0.4342
 3601SOL     OW14175   1.505   0.919   5.566 -0.2597  0.3453 -0.3036
 3601SOL    HW214176   1.446   0.876   5.628  0.7568 -1.4717 -0.5224
 3601SOL    HW314177   1.501   1.012   5.589 -1.5528 -0.0111  1.0469
 3601SOL    MW414178   1.497   0.926   5.577 -1.0210  0.2512  0.1727
 3602SOL     OW14179   3.896   4.121   4.632  0.2822 -0.5620  0.5762
 3602SOL    HW214180   3.902   4.156   4.721  1.9912 -0.9599  0.6617
 3602SOL    HW314181   3.852   4.037   4.641  0.3151 -0.5299  1.0360
 3602SOL    MW414182   3.891   4.115   4.645 -0.1381  0.0071 -0.0871
 3603SOL     OW14183   3.842   2.685   3.287  0.3195 -0.0838 -0.1690
 3603SOL    HW214184   3.805   2.704   3.373 -1.6093  0.7416 -1.1317
 3603SOL    HW314185   3.935   2.669   3.304 -0.0493 -0.1234  2.0744
 3603SOL    MW414186   3.849   2.685   3.301 -0.0337  0.1032  0.6372
 3604SOL     OW14187   5.250   2.751   5.819  0.2941 -0.4059 -0.1069
 3604SOL    HW214188   5.189   2.678   5.805  0.5189 -0.7067  0.4605
 3604SOL    HW314189   5.269   2.748   5.912  2.9251 -1.7266 -0.5978
 3604SOL    MW414190   5.244   2.741   5.829  0.0274  0.0762  0.7772
 3605SOL     OW14191   3.621   1.946   2.856 -0.3875 -0.0395  0.2342
 3605SOL    HW214192   3.710   1.953   2.892 -0.4640 -2.0896  0.9465
 3605SOL    HW314193   3.575   2.021   2.894  1.2264  1.6593 -0.9248
 3605SOL    MW414194   3.627   1.957   2.866  0.1479  0.0712  0.2052
 3606SOL     OW14195   1.133   0.465   4.108  0.4156 -0.5909  0.3622
 3606SOL    HW214196   1.069   0.446   4.039  0.2895 -1.6144  0.7403
 3606SOL    HW314197   1.116   0.399   4.176  3.1519 -2.2764 -0.3992
 3606SOL    MW414198   1.123   0.454   4.108  0.1515  0.2382 -0.3968
 3607SOL     OW14199   6.132   0.972   4.476 -0.5729 -0.1464 -0.0309
 3607SOL    HW214200   6.085   0.945   4.397  1.0238  0.1560 -1.1410
 3607SOL    HW314201   6.087   1.051   4.506 -0.7021  0.2157 -1.1419
 3607SOL    MW414202   6.120   0.979   4.470 -0.7122  0.2874 -0.0183
 3608SOL     OW14203   5.198   1.780   1.352 -0.4116  0.4622  0.2221
 3608SOL    HW214204   5.254   1.721   1.302  0.1851  0.8869  0.3783
 3608SOL    HW314205   5.112   1.773   1.310 -0.3389 -0.4703  0.2085
 3608SOL    MW414206   5.194   1.771   1.340 -0.2444 -0.1286  0.4716
 3609SOL     OW14207   1.060   4.210   1.716  0.5389 -0.3719  0.3223
 3609SOL    HW214208   1.010   4.130   1.697 -1.1289  0.2162  1.9334
 3609SOL    HW314209   1.090   4.240   1.630  0.1069 -2.0168 -0.4568
 3609SOL    MW414210   1.057   4.203   1.702  0.5617  0.2190  0.0466
 3610SOL     OW14211   0.940   3.113   4.820  0.3519  0.3148  0.4112
 3610SOL    HW214212   0.974   3.082   4.903  0.5963 -0.5111  0.0168
 3610SOL    HW314213   1.017   3.143   4.771  0.2009  0.8713  0.5029
 3610SOL    MW414214   0.954   3.113   4.824  0.3162  0.1666 -0.0245
 3611SOL     OW14215   6.103   1.175   2.140  0.6368 -0.0312  0.2104
 3611SOL    HW214216   6.117   1.157   2.047 -1.7762  1.1485 -0.4473
 3611SOL    HW314217   6.100   1.270   2.145  0.4554 -0.0940  1.4682
 3611SOL    MW414218   6.105   1.185   2.128  0.2985 -0.2657 -0.0937
 3612SOL     OW14219   1.555   5.853   5.929  0.1469  0.1916  0.7319
 3612SOL    HW214220   1.594   5.797   5.862  1.7225  0.8390  1.0581
 3612SOL    HW314221   1.570   5.807   6.012  0.5246  0.5961  0.8944
 3612SOL    MW414222   1.562   5.840   5.931  0.0849  0.2303 -0.0409
 3613SOL     OW14223   5.757   6.304   5.287 -0.1111  0.6578 -0.1486
 3613SOL    HW214224   5.790   6.394   5.284  0.3992  0.4852  0.0954
 3613SOL    HW314225   5.739   6.289   5.380  0.0720  0.4187 -0.1495
 3613SOL    MW414226   5.759   6.314   5.299  0.6213 -0.1900  0.3353
 3614SOL     OW14227   6.172   0.251   2.166  0.6561 -0.0534  0.7210
 3614SOL    HW214228   6.223   0.222   2.241  0.4220  0.1668  0.9676
 3614SOL    HW314229   6.233   0.246   2.092  0.9966  0.0973  0.9900
 3614SOL    MW414230   6.187   0.246   2.166  0.1519  0.7557  0.9292
 3615SOL     OW14231   4.100   2.328   5.317 -0.5480  0.5541 -0.2195
 3615SOL    HW214232   4.082   2.421   5.307 -1.1615  0.3325 -1.4094
 3615SOL    HW314233   4.177   2.312   5.263 -0.9770  0.2135 -0.7396
 3615SOL    MW414234   4.108   2.338   5.309  0.0817  0.2638  0.6464
 3616SOL     OW14235   3.763   5.936   5.128  0.2254  0.0730  0.0249
 3616SOL    HW214236   3.708   5.860   5.111  2.1539 -1.4643  0.3640
 3616SOL    HW314237   3.835   5.903   5.182  1.2216  2.1067  0.0617
 3616SOL    MW414238   3.765   5.922   5.133  0.2838 -0.1068  0.0625
 3617SOL     OW14239   4.638   2.928   3.120  0.3286 -0.3012  0.2521
 3617SOL    HW214240   4.690   2.922   3.200 -0.0218  0.1687  0.5242
 3617SOL    HW314241   4.595   3.014   3.126  0.7418 -0.0247 -0.7202
 3617SOL    MW414242   4.639   2.938   3.131  0.5395  0.1124 -0.2180
 3618SOL     OW14243   1.985   2.742   5.663 -0.4784  0.7233 -0.0894
 3618SOL    HW214244   1.898   2.768   5.634 -0.0033  1.8431 -0.5712
 3618SOL    HW314245   1.983   2.751   5.758 -0.9158  0.6467 -0.0913
 3618SOL    MW414246   1.974   2.746   5.672  0.1560 -0.3179 -0.1654
 3619SOL     OW14247   6.386   4.985   2.091 -0.2858 -0.1551 -0.1735
 3619SOL    HW214248   6.319   4.941   2.142 -0.9419  0.9838 -0.0123
 3619SOL    HW314249   6.467   4.970   2.140 -0.9180  0.9998  1.3068
 3619SOL    MW414250   6.388   4.977   2.105  0.4241 -0.1915 -0.2631
 3620SOL     OW14251   0.855   2.485   4.669  0.3902 -0.1144  0.1625
 3620SOL    HW214252   0.850   2.451   4.580  1.8673 -0.4783  0.1820
 3620SOL    HW314253   0.773   2.532   4.682  0.4994  0.7022 -1.7090
 3620SOL    MW414254   0.844   2.487   4.659  0.0693  0.0922  0.5231
 3621SOL     OW14255   0.152   2.072   0.455 -0.2124  0.3247  0.0241
 3621SOL    HW214256   0.083   2.082   0.389  0.4615 -0.8525 -0.9034
 3621SOL    HW314257   0.115   2.111   0.534 -2.3725 -1.1847 -0.1497
 3621SOL    MW414258   0.138   2.078   0.457 -0.5818 -0.4919  0.5074
 3622SOL     OW14259   2.068   1.993   2.124 -0.1736 -0.5137  0.1867
 3622SOL    HW214260   2.119   1.953   2.195 -0.2959 -0.1875  0.4609
 3622SOL    HW314261   2.124   1.983   2.046 -1.3918 -3.8197 -0.4052
 3622SOL    MW414262   2.082   1.986   2.123 -0.2498 -0.0579 -0.1693
 3623SOL     OW14263   0.510   3.200   5.965  0.1401  0.2859 -0.2076
 3623SOL    HW214264   0.590   3.190   6.017  0.2355  1.0790 -0.1801
 3623SOL    HW314265   0.537   3.181   5.875  0.4565  0.8817 -0.2500
 3623SOL    MW414266   0.524   3.196   5.960 -0.1920  0.0070  0.0252
 3624SOL     OW14267   0.036   5.074   3.354  0.1838 -0.2571 -0.4681
 3624SOL    HW214268  -0.045   5.089   3.306  0.1671 -1.4252 -0.8464
 3624SOL    HW314269   0.036   5.139   3.424 -0.1761  0.9697 -1.5778
 3624SOL    MW414270   0.026   5.085   3.357 -0.6603  1.2127 -0.0893
 3625SOL     OW14271   3.839   2.946   3.978  0.0289 -0.3550 -0.2606
 3625SOL    HW214272   3.922   2.988   3.954 -0.8607 -0.0493 -3.2521
 3625SOL    HW314273   3.853   2.854   3.959  0.2182 -0.5940  0.9704
 3625SOL    MW414274   3.852   2.940   3.972 -0.0439  0.5592 -0.3074
 3626SOL     OW14275   1.146   2.201   1.933 -0.2165 -0.5602  0.5242
 3626SOL    HW214276   1.135   2.289   1.970 -1.2914 -0.9550  1.1950
 3626SOL    HW314277   1.057   2.169   1.921  0.1629 -1.9334  1.2068
 3626SOL    MW414278   1.133   2.209   1.936  0.1954  0.0705 -0.1713
 3627SOL     OW14279   0.704   1.277   5.865  0.0144 -0.0680 -0.0441
 3627SOL    HW214280   0.616   1.244   5.881  0.1716 -0.3175  0.3137
 3627SOL    HW314281   0.713   1.277   5.770 -0.0407 -0.9224 -0.0499
 3627SOL    MW414282   0.693   1.273   5.854  0.2902 -0.2720  0.3593
 3628SOL     OW14283   1.679   0.049   5.415 -0.2634  0.3277 -0.0133
 3628SOL    HW214284   1.691  -0.045   5.407  0.3927  0.4139 -0.0769
 3628SOL    HW314285   1.752   0.079   5.469  0.6809  1.0713 -1.6248
 3628SOL    MW414286   1.690   0.041   5.421  0.1864  0.5139 -0.0998
 3629SOL     OW14287   4.157   0.281   5.252 -0.0554  0.2509  0.0427
 3629SOL    HW214288   4.126   0.320   5.170 -3.9285 -0.1096  1.1302
 3629SOL    HW314289   4.179   0.191   5.228 -0.3632  0.3774 -0.7640
 3629SOL    MW414290   4.156   0.274   5.238  0.0506  0.1296 -0.7023
 3630SOL     OW14291   4.240   0.328   1.310 -0.0460 -0.9092  0.1464
 3630SOL    HW214292   4.167   0.347   1.368 -0.2485 -1.0917 -0.0428
 3630SOL    HW314293   4.316   0.369   1.351 -0.5358  0.6856 -0.4637
 3630SOL    MW414294   4.241   0.336   1.323 -0.0897  0.0117  1.0986
 3631SOL     OW14295   2.353   2.702   1.096  0.0112 -0.3941  0.0428
 3631SOL    HW214296   2.386   2.616   1.069  1.5927  0.1137  0.2288
 3631SOL    HW314297   2.355   2.699   1.192 -0.0652 -0.2088  0.0486
 3631SOL    MW414298   2.358   2.690   1.105 -0.5782  0.2615  0.4421
 3632SOL     OW14299   1.495   2.420   0.907 -0.0278 -0.4438  0.2702
 3632SOL    HW214300   1.590   2.405   0.901  0.1739  0.9459 -0.7337
 3632SOL    HW314301   1.467   2.424   0.816 -0.5954  1.6160  0.4977
 3632SOL    MW414302   1.504   2.419   0.894  0.5586  0.5289  0.1907
 3633SOL     OW14303   0.469   4.415   5.907  0.2002 -0.2195 -0.6244
 3633SOL    HW214304   0.424   4.387   5.827 -0.6075 -0.5564 -0.0676
 3633SOL    HW314305   0.399   4.451   5.962  0.3598 -1.9242  0.7801
 3633SOL    MW414306   0.454   4.416   5.903 -0.0921  0.2121  0.8740
 3634SOL     OW14307   0.404   1.418   0.615 -0.3098 -0.0176 -0.4564
 3634SOL    HW214308   0.426   1.335   0.573  1.0421  0.5738 -0.9630
 3634SOL    HW314309   0.477   1.436   0.675 -0.8844  0.5083  0.1067
 3634SOL    MW414310   0.416   1.409   0.617 -0.0832  0.5176  0.5769
 3635SOL     OW14311   3.793   2.982   0.101 -0.2763 -0.1191 -0.5140
 3635SOL    HW214312   3.869   2.962   0.155 -2.0398  0.7216  2.5034
 3635SOL    HW314313   3.789   3.077   0.099 -2.1322 -0.1335  0.7905
 3635SOL    MW414314   3.803   2.992   0.108 -0.7046  0.4141  0.0610
 3636SOL     OW14315   3.066   4.912   4.486  0.3021 -0.1053 -0.6876
 3636SOL    HW214316   2.995   4.972   4.511  0.3148 -0.2443 -0.3124
 3636SOL    HW314317   3.084   4.934   4.395 -0.9905 -0.8433 -1.1402
 3636SOL    MW414318   3.059   4.923   4.477  0.4756  0.3796 -0.2726
 3637SOL     OW14319   1.104   4.204   4.066  1.4111 -0.0051  0.3229
 3637SOL    HW214320   1.041   4.246   4.125  1.6785 -2.4039  2.5055
 3637SOL    HW314321   1.118   4.268   3.997 -2.3029  1.2371  0.4843
 3637SOL    MW414322   1.097   4.218   4.065 -0.5594  0.1566  0.5171
 3638SOL     OW14323   2.876   4.918   1.311 -0.7551 -0.1138  0.0858
 3638SOL    HW214324   2.831   4.838   1.340 -0.3373 -0.3364  0.1254
 3638SOL    HW314325   2.943   4.932   1.378 -0.3960 -0.1008 -0.2795
 3638SOL    MW414326   2.879   4.909   1.324  0.5775  0.8977 -0.6061
 3639SOL     OW14327   3.717   0.730   5.782 -0.1217  0.2581  0.1851
 3639SOL    HW214328   3.787   0.776   5.737 -0.5709  1.0013  0.2354
 3639SOL    HW314329   3.757   0.648   5.812  1.3431  1.5973  2.1308
 3639SOL    MW414330   3.731   0.725   5.780  0.4538  0.8337 -0.0305
 3640SOL     OW14331   5.686   3.845   0.210  0.1072  0.1773 -0.3391
 3640SOL    HW214332   5.697   3.940   0.200  0.7416  0.2727  1.0943
 3640SOL    HW314333   5.773   3.813   0.233  0.0087 -0.8442 -1.2866
 3640SOL    MW414334   5.699   3.853   0.211 -0.6983  0.2882  0.1829
 3641SOL     OW14335   1.143   3.504   3.932 -0.4604  0.5031  0.1739
 3641SOL    HW214336   1.064   3.456   3.959 -0.8668  1.4409  0.6896
 3641SOL    HW314337   1.210   3.436   3.925 -0.9485 -0.1227  1.1685
 3641SOL    MW414338   1.141   3.488   3.935  0.1844  0.2546  0.4462
 3642SOL     OW14339   3.095   3.419   4.463  0.7590 -0.3052 -0.1926
 3642SOL    HW214340   3.050   3.352   4.412  0.9847  0.4359 -1.4009
 3642SOL    HW314341   3.032   3.490   4.472  0.0599 -1.1048  2.1692
 3642SOL    MW414342   3.081   3.420   4.458 -0.3291 -0.1957 -0.2986
 3643SOL     OW14343   1.183   1.407   1.657  0.2259  0.0662  0.1200
 3643SOL    HW214344   1.230   1.431   1.737  1.3670  0.7504 -0.7341
 3643SOL    HW314345   1.161   1.315   1.669 -0.8415  0.5039  1.8042
 3643SOL    MW414346   1.186   1.398   1.669 -0.2312 -0.5930 -0.3604
 3644SOL     OW14347   1.831   4.472   0.351 -0.3859  0.5085 -0.5439
 3644SOL    HW214348   1.757   4.436   0.399 -0.5913  1.5627 -0.0280
 3644SOL    HW314349   1.847   4.410   0.281 -1.0765 -0.2753 -0.0280
 3644SOL    MW414350   1.824   4.459   0.348 -0.6858  0.1315 -0.1427
 3645SOL     OW14351   4.981   5.289   5.827  0.5338 -0.1305 -0.1721
 3645SOL    HW214352   5.040   5.244   5.887  0.2811  0.1722  0.3091
 3645SOL    HW314353   5.006   5.257   5.740 -0.4132 -2.0656  0.2251
 3645SOL    MW414354   4.992   5.279   5.823 -0.0331  0.3351  0.0301
 3646SOL     OW14355   1.675   4.918   2.275 -0.0105 -0.2063 -0.3657
 3646SOL    HW214356   1.769   4.904   2.288 -0.1462  0.0833  1.0255
 3646SOL    HW314357   1.654   4.863   2.199  1.3096 -0.1166 -0.8307
 3646SOL    MW414358   1.685   4.909   2.267  0.0703  0.1304 -0.9108
 3647SOL     OW14359   1.747   3.061   5.875 -0.0863 -0.4262 -0.1667
 3647SOL    HW214360   1.830   3.106   5.866 -0.7261  0.7845 -0.1789
 3647SOL    HW314361   1.749   2.993   5.807  1.3240 -1.1514  0.5501
 3647SOL    MW414362   1.758   3.058   5.865  0.3172  0.5477 -0.4329
 3648SOL     OW14363   0.999   2.577   2.826 -0.1672 -0.5703  0.1104
 3648SOL    HW214364   1.012   2.660   2.873  1.1151 -1.5031  1.4672
 3648SOL    HW314365   1.082   2.530   2.835 -0.9924 -2.1782 -0.2713
 3648SOL    MW414366   1.011   2.582   2.834  0.5349 -0.4373  0.3710
 3649SOL     OW14367   0.677   4.094   1.214 -0.1643 -0.2549  0.1227
 3649SOL    HW214368   0.598   4.058   1.255  0.5201 -0.8539  0.9614
 3649SOL    HW314369   0.747   4.072   1.275  0.7647 -0.4182 -0.9812
 3649SOL    MW414370   0.676   4.086   1.228 -0.0280 -0.1473  0.2055
 3650SOL     OW14371   3.173   1.428   2.957  0.1796  0.4754 -0.6615
 3650SOL    HW214372   3.143   1.451   3.045  1.0427 -0.5751 -0.0632
 3650SOL    HW314373   3.095   1.396   2.913  0.0445 -0.5985  0.3061
 3650SOL    MW414374   3.159   1.427   2.963  0.1330  0.4862  0.6162
 3651SOL     OW14375   2.329   0.024   0.515 -0.2875 -0.0653 -0.4111
 3651SOL    HW214376   2.306   0.108   0.475 -0.8706  0.2917  0.6342
 3651SOL    HW314377   2.315   0.037   0.608 -0.3350 -1.3116 -0.2216
 3651SOL    MW414378   2.324   0.037   0.522 -0.6789  0.1625  0.1677
 3652SOL     OW14379   5.580   2.848   2.332  0.3172  0.0384  0.3391
 3652SOL    HW214380   5.508   2.899   2.294 -1.7647  0.0424  3.8592
 3652SOL    HW314381   5.611   2.793   2.261 -4.0892 -0.9250 -1.1050
 3652SOL    MW414382   5.575   2.848   2.318  0.3297 -0.5776 -0.5294
 3653SOL     OW14383   4.318   6.305   2.022 -0.0064 -0.0964 -0.4183
 3653SOL    HW214384   4.305   6.252   1.944 -0.2068 -1.0719  0.2510
 3653SOL    HW314385   4.412   6.300   2.040 -0.0871 -0.5989 -0.1124
 3653SOL    MW414386   4.328   6.297   2.014  0.1912  0.3009 -0.2003
 3654SOL     OW14387   3.419   5.381   1.559 -1.2021 -1.2272 -0.0250
 3654SOL    HW214388   3.426   5.423   1.645 -0.0424  0.2624 -0.7902
 3654SOL    HW314389   3.353   5.313   1.570 -1.3483 -0.8143  1.9412
 3654SOL    MW414390   3.411   5.378   1.572  0.8908 -0.3300  0.3522
 3655SOL     OW14391   2.529   1.860   3.767 -0.5196  0.4308 -0.3296
 3655SOL    HW214392   2.575   1.843   3.685  1.3292 -2.0939  1.0933
 3655SOL    HW314393   2.596   1.896   3.825 -0.7425 -1.4384  1.1808
 3655SOL    MW414394   2.544   1.862   3.764  1.1689  0.2262  0.0874
 3656SOL     OW14395   2.022   4.648   1.639 -0.3212 -0.0801  0.4060
 3656SOL    HW214396   1.961   4.632   1.567 -0.5237  0.7885  0.3821
 3656SOL    HW314397   2.103   4.676   1.596 -0.1147 -0.5499  0.4754
 3656SOL    MW414398   2.025   4.649   1.624 -0.4043  0.0345 -0.2281
 3657SOL     OW14399   2.082   2.277   1.894  1.1266  0.2627  0.1769
 3657SOL    HW214400   2.110   2.205   1.838 -0.2190  0.3626 -0.6661
 3657SOL    HW314401   1.992   2.256   1.918  1.4087  0.6273  1.6650
 3657SOL    MW414402   2.074   2.265   1.890  0.1151 -0.1268 -0.0736
 3658SOL     OW14403   6.050   1.218   4.968  0.2189 -0.0480  0.3775
 3658SOL    HW214404   5.984   1.248   5.029 -0.3079  0.3004 -0.3501
 3658SOL    HW314405   6.132   1.255   5.001 -0.2155  1.0400  0.2764
 3658SOL    MW414406   6.052   1.227   4.980  0.2722  0.1203 -0.2715
 3659SOL     OW14407   0.823   5.770   5.073  0.0724 -0.2517  0.2152
 3659SOL    HW214408   0.908   5.798   5.108  0.0327 -0.5624  0.5661
 3659SOL    HW314409   0.766   5.762   5.149 -0.2632 -0.0847 -0.0165
 3659SOL    MW414410   0.827   5.773   5.088  0.3673  0.1498  0.0562
 3660SOL     OW14411   4.469   3.922   1.109 -0.3499  0.1834 -0.5730
 3660SOL    HW214412   4.416   3.862   1.162  1.6370 -0.5995  0.6695
 3660SOL    HW314413   4.509   3.865   1.043  0.7322  0.2711 -0.0267
 3660SOL    MW414414   4.467   3.906   1.107 -0.0946  0.5320 -0.0077
 3661SOL     OW14415   2.359   2.961   5.479  0.2312 -0.3162  0.0255
 3661SOL    HW214416   2.273   3.001   5.496  0.4968  0.1810  0.2080
 3661SOL    HW314417   2.352   2.873   5.516 -0.0506 -0.1230  0.4441
 3661SOL    MW414418   2.346   2.954   5.486  0.3713 -0.3104  0.0845
 3662SOL     OW14419   1.502   3.619   2.576 -0.1993  0.0250  0.3375
 3662SOL    HW214420   1.438   3.627   2.647 -0.4227 -0.2598  0.1722
 3662SOL    HW314421   1.476   3.539   2.530 -0.8483  0.8744 -0.8526
 3662SOL    MW414422   1.490   3.609   2.579 -0.4024  0.0352 -0.2633
 3663SOL     OW14423   0.793   0.390   4.678 -0.3397 -0.5790 -0.1285
 3663SOL    HW214424   0.854   0.319   4.697 -1.2029 -1.0608  1.0135
 3663SOL    HW314425   0.706   0.352   4.695 -0.8449  0.5876 -0.0154
 3663SOL    MW414426   0.789   0.376   4.683  0.2749 -0.0810 -0.2982
 3664SOL     OW14427   4.743   0.275   4.368 -0.0954 -0.4234 -0.2326
 3664SOL    HW214428   4.683   0.348   4.352 -1.5478 -1.4766  0.2037
 3664SOL    HW314429   4.735   0.220   4.290 -0.1928 -0.8919  0.1030
 3664SOL    MW414430   4.734   0.277   4.355  0.4388  0.6451 -0.4207
 3665SOL     OW14431   1.778   5.101   5.183 -0.5973 -0.2852 -0.1386
 3665SOL    HW214432   1.742   5.169   5.127 -2.1483 -1.0680 -0.1593
 3665SOL    HW314433   1.706   5.079   5.243  0.9269  0.3492  2.0080
 3665SOL    MW414434   1.764   5.107   5.183 -0.3957 -0.1320  0.5529
 3666SOL     OW14435   3.543   2.535   5.503  0.7065  0.0399 -0.1123
 3666SOL    HW214436   3.467   2.584   5.535  1.5729  1.2295  0.2178
 3666SOL    HW314437   3.519   2.443   5.515 -1.4693  0.2782 -1.8592
 3666SOL    MW414438   3.530   2.529   5.509  0.1689  0.5442  0.3370
 3667SOL     OW14439   5.056   3.840   2.280 -0.5711 -0.2299 -0.1899
 3667SOL    HW214440   5.020   3.788   2.209 -2.6186  0.4585  0.2675
 3667SOL    HW314441   5.112   3.904   2.237 -1.2564 -0.2360 -1.1166
 3667SOL    MW414442   5.059   3.841   2.265  0.1630 -0.3492 -0.3016
 3668SOL     OW14443   4.035   3.293   4.798  0.3396 -0.4331 -0.8463
 3668SOL    HW214444   3.951   3.248   4.795  0.1598 -0.1789  0.0454
 3668SOL    HW314445   4.088   3.242   4.860  0.9325 -0.7212 -1.5681
 3668SOL    MW414446   4.031   3.280   4.806  0.4604  0.2987  0.6645
 3669SOL     OW14447   0.808   1.873   5.933  0.3620  0.1565 -0.2388
 3669SOL    HW214448   0.829   1.914   5.849  1.7410 -3.1444 -1.6676
 3669SOL    HW314449   0.864   1.796   5.936 -0.8166 -0.7048  3.0391
 3669SOL    MW414450   0.818   1.868   5.922 -0.5158 -0.0536 -0.0137
 3670SOL     OW14451   5.767   3.218   4.862 -0.0146  0.3107  0.1226
 3670SOL    HW214452   5.859   3.239   4.846 -0.4455  1.0141 -1.5855
 3670SOL    HW314453   5.739   3.168   4.786 -0.4034 -2.1905  1.8042
 3670SOL    MW414454   5.775   3.214   4.850  0.1943 -0.4359  0.0123
 3671SOL     OW14455   1.892   0.736   5.682 -0.4030 -0.2088  0.1763
 3671SOL    HW214456   1.909   0.798   5.753 -1.1758  0.8324 -0.5160
 3671SOL    HW314457   1.979   0.711   5.651 -0.0200 -1.4149  2.0799
 3671SOL    MW414458   1.906   0.741   5.687 -0.4857  0.0152 -0.2682
 3672SOL     OW14459   3.583   1.672   5.783 -0.2419 -0.5471  0.3004
 3672SOL    HW214460   3.619   1.677   5.871 -0.8849  0.3356  0.5285
 3672SOL    HW314461   3.489   1.689   5.794 -0.3535 -0.5536 -0.5326
 3672SOL    MW414462   3.575   1.675   5.796 -0.2515 -0.0184  0.1430
 3673SOL     OW14463   2.014   6.333   2.988  0.9273  0.5759  0.2805
 3673SOL    HW214464   1.966   6.256   3.020  0.5996  0.6038 -0.1317
 3673SOL    HW314465   1.997   6.400   3.055 -0.4847  0.8998 -0.3502
 3673SOL    MW414466   2.005   6.332   3.001  0.3155  0.0927 -1.0358
 3674SOL     OW14467   5.488   0.162   4.357  0.5652 -0.1828  0.1578
 3674SOL    HW214468   5.575   0.190   4.329  0.8623 -1.3958 -0.1842
 3674SOL    HW314469   5.492   0.162   4.452  1.4150 -1.6143  0.1413
 3674SOL    MW414470   5.500   0.166   4.366  0.2448  0.4585  0.2866
 3675SOL     OW14471   4.890   3.951   6.334 -0.7869  0.4220  0.0069
 3675SOL    HW214472   4.827   3.991   6.394 -0.6917  2.8479 -1.3669
 3675SOL    HW314473   4.844   3.947   6.250 -0.3073 -1.2214 -0.2198
 3675SOL    MW414474   4.876   3.956   6.330  0.8104  0.1594  0.3010
 3676SOL     OW14475   3.773   5.146   1.419  0.1644 -0.6749  0.2069
 3676SOL    HW214476   3.864   5.177   1.420 -0.2164  0.4482  0.4635
 3676SOL    HW314477   3.737   5.173   1.503 -0.5784 -0.6078 -0.1240
 3676SOL    MW414478   3.780   5.153   1.430 -0.6421  0.1049  0.2852
 3677SOL     OW14479   3.167   4.574   5.691  0.2147 -0.6118 -0.0722
 3677SOL    HW214480   3.218   4.587   5.611 -0.7904  1.6435 -0.4311
 3677SOL    HW314481   3.233   4.560   5.759  1.4114  2.2257 -0.5038
 3677SOL    MW414482   3.183   4.574   5.689  0.1209 -0.0059  0.5478
 3678SOL     OW14483   1.041   0.616   4.948  0.2683  0.1161 -0.1569
 3678SOL    HW214484   0.952   0.614   4.913 -0.3694 -0.4517  1.3967
 3678SOL    HW314485   1.029   0.623   5.043  1.8617 -1.2060  0.1855
 3678SOL    MW414486   1.028   0.617   4.956  0.4821  0.1062 -0.0489
 3679SOL     OW14487   4.691   0.725   1.433  0.0762  0.6197  0.2115
 3679SOL    HW214488   4.760   0.680   1.385  0.0794  1.4402 -0.5679
 3679SOL    HW314489   4.644   0.655   1.479  2.0765  0.1239  1.6486
 3679SOL    MW414490   4.694   0.710   1.433 -0.4007  0.1546  0.3998
 3680SOL     OW14491   3.749   0.716   3.257 -0.0717 -0.7328 -0.2403
 3680SOL    HW214492   3.754   0.694   3.350  1.1217  2.1806  0.4685
 3680SOL    HW314493   3.656   0.705   3.235 -0.2139 -2.3613  0.9838
 3680SOL    MW414494   3.737   0.711   3.266  0.7567 -0.0291  0.4555
 3681SOL     OW14495   0.630   1.429   1.810 -0.0468 -0.3055 -0.3060
 3681SOL    HW214496   0.668   1.422   1.722  1.0185  0.7588  0.0462
 3681SOL    HW314497   0.697   1.394   1.868 -0.8037 -1.1297  0.0877
 3681SOL    MW414498   0.644   1.423   1.806 -0.1538  0.2399  0.1102
 3682SOL     OW14499   3.121   4.630   1.079  0.5207  0.2790 -0.1533
 3682SOL    HW214500   3.039   4.585   1.099  0.6595 -0.0620 -0.3535
 3682SOL    HW314501   3.097   4.723   1.080  0.0840  0.1763 -0.3952
 3682SOL    MW414502   3.107   4.637   1.082  0.0718 -0.6079  0.3643
 3683SOL     OW14503   2.657   6.371   6.233 -0.3727  0.3721  0.0546
 3683SOL    HW214504   2.665   6.294   6.290 -0.7650 -0.5343 -1.0828
 3683SOL    HW314505   2.747   6.390   6.206 -0.0205  1.5303  1.8441
 3683SOL    MW414506   2.670   6.363   6.237 -0.4086  0.5200 -0.4248
 3684SOL     OW14507   1.185   3.240   2.522 -0.0371 -0.2240  0.1356
 3684SOL    HW214508   1.204   3.193   2.440  0.0230  1.0822 -0.6242
 3684SOL    HW314509   1.129   3.180   2.571  0.7689 -1.4647 -0.4015
 3684SOL    MW414510   1.180   3.226   2.518 -0.1892  0.0035  0.3079
 3685SOL     OW14511   1.791   0.641   2.754  0.0685 -0.4534 -0.0098
 3685SOL    HW214512   1.722   0.627   2.690  0.2717 -0.4267 -0.2363
 3685SOL    HW314513   1.786   0.734   2.776 -0.2257 -0.5329  0.2763
 3685SOL    MW414514   1.781   0.651   2.749  0.0232  0.5059  0.4359
 3686SOL     OW14515   1.762   3.585   5.878 -0.4952  0.7214  0.5726
 3686SOL    HW214516   1.670   3.599   5.856 -0.5614 -2.2126 -1.6413
 3686SOL    HW314517   1.759   3.550   5.967 -1.4303  1.3802  0.8173
 3686SOL    MW414518   1.750   3.582   5.887 -0.3508  0.5070  0.2787
 3687SOL     OW14519   3.716   6.241   3.628  0.2306 -0.2123  0.1242
 3687SOL    HW214520   3.809   6.245   3.606 -0.0373  0.0443 -1.0033
 3687SOL    HW314521   3.682   6.327   3.602 -0.4200 -0.4788  0.0902
 3687SOL    MW414522   3.724   6.253   3.622  0.1526 -0.1381 -0.0367
 3688SOL     OW14523   1.874   0.219   5.117  0.2242 -0.3031 -0.3048
 3688SOL    HW214524   1.965   0.199   5.094 -0.2430 -2.4803 -0.4177
 3688SOL    HW314525   1.831   0.238   5.033  0.3974  0.0358 -0.3205
 3688SOL    MW414526   1.880   0.219   5.103 -0.4557 -0.2700 -0.2864
 3689SOL     OW14527   4.208   4.901   5.661  0.0692 -0.1446  0.5218
 3689SOL    HW214528   4.244   4.814   5.643 -3.8046 -1.3137 -3.1480
 3689SOL    HW314529   4.145   4.886   5.732 -0.2791 -0.2546  0.1912
 3689SOL    MW414530   4.204   4.887   5.668 -0.1098  0.7309 -0.0803
 3690SOL     OW14531   3.163   1.321   4.669 -0.2253  0.1634 -0.1886
 3690SOL    HW214532   3.158   1.371   4.587 -2.4887  1.4031  0.6116
 3690SOL    HW314533   3.226   1.251   4.651 -2.3679 -1.1165 -3.8185
 3690SOL    MW414534   3.170   1.318   4.656 -0.5106 -0.1598 -0.1853
 3691SOL     OW14535   3.680   1.670   1.723 -0.4560 -0.1733  0.2717
 3691SOL    HW214536   3.604   1.725   1.743  0.3301  0.4693  1.6266
 3691SOL    HW314537   3.647   1.580   1.728 -1.7334  0.1155 -1.8669
 3691SOL    MW414538   3.666   1.665   1.727  0.3268 -0.3341 -0.4716
 3692SOL     OW14539   0.408   1.684   5.755  0.4721  0.1747 -0.4614
 3692SOL    HW214540   0.393   1.636   5.673  0.0311  0.8411 -0.7768
 3692SOL    HW314541   0.321   1.696   5.792  0.5428  1.0246 -0.5514
 3692SOL    MW414542   0.395   1.679   5.749  0.0541  0.0444 -0.0978
 3693SOL     OW14543   4.136   5.804   2.061  0.0725  0.1244 -0.3223
 3693SOL    HW214544   4.173   5.812   2.149 -0.3816  0.7755 -0.1821
 3693SOL    HW314545   4.081   5.726   2.065 -0.1933  0.3299  0.0612
 3693SOL    MW414546   4.134   5.795   2.073  0.4642 -0.5527 -0.4401
 3694SOL     OW14547   1.219   4.470   0.159 -0.1264  0.2458 -0.3998
 3694SOL    HW214548   1.225   4.484   0.254 -1.6007  0.5049 -0.3190
 3694SOL    HW314549   1.267   4.544   0.121  0.4493  0.1547  0.1393
 3694SOL    MW414550   1.226   4.482   0.167  0.1975 -0.0010 -0.0039
 3695SOL     OW14551   1.021   0.342   2.897 -0.8401 -0.7624  0.3218
 3695SOL    HW214552   1.079   0.291   2.954  0.2425  0.2233  0.1506
 3695SOL    HW314553   0.982   0.278   2.838  0.2729 -1.4382  0.2883
 3695SOL    MW414554   1.024   0.327   2.897  0.6318  0.4960 -0.4333
 3696SOL     OW14555   3.597   0.037   3.567 -0.2533 -0.5240 -0.2979
 3696SOL    HW214556   3.590   0.116   3.621  0.7932  0.6626 -1.8108
 3696SOL    HW314557   3.521   0.042   3.509 -0.4353 -0.8752 -0.0890
 3696SOL    MW414558   3.586   0.048   3.566  0.1694 -0.1728 -0.6661
 3697SOL     OW14559   3.178   2.893   6.191 -0.1824 -0.2381  0.5668
 3697SOL    HW214560   3.228   2.811   6.196 -1.0147 -0.7710  0.4574
 3697SOL    HW314561   3.095   2.872   6.234 -1.3820 -0.2006 -1.6080
 3697SOL    MW414562   3.174   2.879   6.198  0.3398  0.3939  0.2752
 3698SOL     OW14563   5.351   6.199   3.637  0.3879  0.3983 -0.1998
 3698SOL    HW214564   5.444   6.175   3.638  0.9630  2.3988 -0.0403
 3698SOL    HW314565   5.340   6.255   3.714 -0.2555  2.4038 -1.6582
 3698SOL    MW414566   5.362   6.203   3.647 -0.0811 -0.0199  0.1352
 3699SOL     OW14567   4.988   2.807   2.305 -0.2966  0.6248 -0.3554
 3699SOL    HW214568   4.908   2.767   2.272 -0.1175  1.2536 -1.6114
 3699SOL    HW314569   5.033   2.736   2.351  0.5151 -1.0097 -3.3579
 3699SOL    MW414570   4.983   2.792   2.306 -0.1645 -0.5442 -0.4221
 3700SOL     OW14571   4.525   6.255   3.545  0.2183  0.1191  0.2511
 3700SOL    HW214572   4.533   6.317   3.472  0.2060  0.4442  0.5211
 3700SOL    HW314573   4.563   6.174   3.512 -0.3442  0.0779 -0.3298
 3700SOL    MW414574   4.531   6.253   3.531  0.1027 -0.0892  0.4319
 3701SOL     OW14575   2.728   5.360   1.974 -0.4002  0.4820 -0.2566
 3701SOL    HW214576   2.764   5.334   2.059  1.2092  0.1021 -1.0215
 3701SOL    HW314577   2.750   5.452   1.965 -0.6735  0.5526 -0.2248
 3701SOL    MW414578   2.735   5.369   1.984  0.1423 -0.0642 -0.3675
 3702SOL     OW14579   3.068   4.429   6.383 -0.1087 -0.8515  0.2247
 3702SOL    HW214580   3.073   4.336   6.400  1.2529 -1.1258 -1.3500
 3702SOL    HW314581   2.976   4.452   6.399 -0.7162 -2.6832 -0.3969
 3702SOL    MW414582   3.056   4.420   6.387  0.2432  0.1849  0.6513
 3703SOL     OW14583   3.900   0.941   1.099 -0.4931  0.0332  0.0448
 3703SOL    HW214584   3.886   0.890   1.179  0.4000  0.3330  0.4123
 3703SOL    HW314585   3.888   0.879   1.028  1.3035 -0.9190  0.5050
 3703SOL    MW414586   3.897   0.926   1.100 -0.2477  0.0450 -0.1819
 3704SOL     OW14587   1.179   1.392   3.264 -0.2255  0.0338 -0.1571
 3704SOL    HW214588   1.166   1.408   3.170  0.6688  0.1364 -0.2796
 3704SOL    HW314589   1.164   1.477   3.305 -1.0179 -0.1001 -0.1517
 3704SOL    MW414590   1.176   1.405   3.257  0.0640  0.8873  0.0082
 3705SOL     OW14591   4.339   3.939   6.325 -0.4802  0.0131  0.0145
 3705SOL    HW214592   4.297   3.880   6.388 -0.6350  1.5484  1.3983
 3705SOL    HW314593   4.285   4.018   6.327 -0.2490  0.2596 -1.7735
 3705SOL    MW414594   4.326   3.942   6.334  0.0904  0.5428 -0.1484
 3706SOL     OW14595   6.301   0.949   5.141 -0.1933  0.1429  0.4100
 3706SOL    HW214596   6.233   0.924   5.079  0.3578  0.7621 -0.4743
 3706SOL    HW314597   6.382   0.912   5.104  0.3386  1.5722  0.0731
 3706SOL    MW414598   6.303   0.941   5.128  0.1759 -0.3935  0.3904
 3707SOL     OW14599   2.097   6.142   0.219 -0.5714  0.6289  0.2986
 3707SOL    HW214600   2.002   6.129   0.217 -0.5574  0.6050 -0.6221
 3707SOL    HW314601   2.122   6.154   0.127  0.2231  1.3517  0.5910
 3707SOL    MW414602   2.088   6.142   0.206 -0.3440 -0.5508 -0.0719
 3708SOL     OW14603   3.713   4.311   2.845  0.5497  0.4428 -0.1812
 3708SOL    HW214604   3.740   4.330   2.934 -0.6484  1.7355 -0.0483
 3708SOL    HW314605   3.727   4.393   2.797  1.2529 -0.2550 -1.2130
 3708SOL    MW414606   3.718   4.325   2.850  0.1687 -0.0717  0.1438
 3709SOL     OW14607   5.840   1.522   2.999  0.0419 -0.1797  0.2798
 3709SOL    HW214608   5.815   1.536   3.091 -0.0565 -1.3691  0.4457
 3709SOL    HW314609   5.803   1.437   2.976  1.4962 -0.6826 -0.3525
 3709SOL    MW414610   5.832   1.513   3.008 -0.2618  0.5378  0.1773
 3710SOL     OW14611   2.098   3.814   4.924 -0.0970  0.4182 -0.3261
 3710SOL    HW214612   2.124   3.881   4.860  2.1963  0.4060  0.5025
 3710SOL    HW314613   2.133   3.732   4.888 -0.7682  0.0293 -0.1219
 3710SOL    MW414614   2.106   3.812   4.911  0.1745  0.1606 -0.4084
 3711SOL     OW14615   3.368   0.085   1.645  0.1539  0.3124  0.2935
 3711SOL    HW214616   3.375   0.169   1.690  0.3642 -1.5070  4.0780
 3711SOL    HW314617   3.458   0.060   1.626  0.6314 -1.0210  3.5909
 3711SOL    MW414618   3.381   0.093   1.649  0.6942 -0.1283  0.0906
 3712SOL     OW14619   0.221   2.337   4.983  0.7182  0.1976 -0.1111
 3712SOL    HW214620   0.269   2.406   5.029 -0.8471  1.1354  0.1889
 3712SOL    HW314621   0.129   2.362   4.990  0.0390 -2.1514  0.3613
 3712SOL    MW414622   0.215   2.349   4.990 -0.0218 -0.0885  0.8080
 3713SOL     OW14623   0.327   4.822   0.411  0.6844  0.3186  0.1280
 3713SOL    HW214624   0.317   4.885   0.482  0.8643 -0.7753  1.1612
 3713SOL    HW314625   0.419   4.798   0.412  0.4635 -0.5822  0.3249
 3713SOL    MW414626   0.338   4.827   0.421 -0.0335 -0.6458  0.0653
 3714SOL     OW14627   4.679   2.394   3.913 -0.5515  0.5114  0.1690
 3714SOL    HW214628   4.593   2.432   3.895 -0.0332  1.1978 -0.9193
 3714SOL    HW314629   4.679   2.380   4.008 -2.3148 -0.6299  0.0525
 3714SOL    MW414630   4.667   2.397   3.923  0.2448  0.4110 -0.2119
 3715SOL     OW14631   5.476   5.171   4.697  0.4930 -0.6108  0.2687
 3715SOL    HW214632   5.509   5.117   4.769  2.4937 -1.0111 -0.8494
 3715SOL    HW314633   5.490   5.117   4.619 -0.0267  0.4602 -0.5833
 3715SOL    MW414634   5.482   5.157   4.696 -0.5154  0.3439  0.3331
 3716SOL     OW14635   0.766   4.315   3.473  0.1128  0.3895 -0.8552
 3716SOL    HW214636   0.675   4.338   3.456  0.3927  1.9296 -0.3776
 3716SOL    HW314637   0.796   4.272   3.392 -0.6542  1.0419 -1.4951
 3716SOL    MW414638   0.758   4.312   3.460 -0.7684  0.4359  0.1888
 3717SOL     OW14639   5.496   4.851   1.136  0.0668  0.6988 -0.4026
 3717SOL    HW214640   5.585   4.838   1.102  0.4622  1.0717  0.4497
 3717SOL    HW314641   5.503   4.830   1.229 -1.0076 -0.3730 -0.5359
 3717SOL    MW414642   5.509   4.846   1.144 -0.0743 -0.2791  0.2354
 3718SOL     OW14643   3.228   2.952   4.956  0.3737 -0.2043 -0.0234
 3718SOL    HW214644   3.298   2.936   5.020 -1.1360 -2.2647  1.2327
 3718SOL    HW314645   3.157   2.990   5.008  0.3699  1.5158 -1.2143
 3718SOL    MW414646   3.228   2.955   4.972 -0.2885 -0.1833  0.1302
 3719SOL     OW14647   0.470   4.184   1.566 -0.0677 -0.0286  0.1675
 3719SOL    HW214648   0.533   4.193   1.637  0.5786 -1.7489 -0.1276
 3719SOL    HW314649   0.407   4.118   1.597 -0.6847  0.3587 -0.2358
 3719SOL    MW414650   0.470   4.176   1.579  0.3169 -0.0597 -0.1195
 3720SOL     OW14651   2.276   1.158   1.641 -0.4773 -0.3666 -0.0882
 3720SOL    HW214652   2.358   1.180   1.685 -0.1050 -1.1198 -0.3909
 3720SOL    HW314653   2.287   1.190   1.552  0.4569 -2.5538 -0.8128
 3720SOL    MW414654   2.289   1.165   1.635  0.0720 -0.2698  0.4126
 3721SOL     OW14655   0.237   2.042   6.288  0.4725  0.0680 -0.0522
 3721SOL    HW214656   0.173   1.970   6.288  0.8618 -0.2862 -0.0254
 3721SOL    HW314657   0.194   2.112   6.240 -1.3438  1.1393  2.8616
 3721SOL    MW414658   0.223   2.042   6.282 -0.0539 -0.3380  0.0716
 3722SOL     OW14659   6.077   1.105   2.946 -0.0816  0.1130  0.6327
 3722SOL    HW214660   6.164   1.120   2.983  0.4495 -1.3656  0.0592
 3722SOL    HW314661   6.077   1.152   2.863  0.6236 -0.8687  0.0628
 3722SOL    MW414662   6.088   1.113   2.940 -0.4084  0.1032  0.0496
 3723SOL     OW14663   4.816   3.392   3.061 -0.5195  0.4400  0.0308
 3723SOL    HW214664   4.885   3.451   3.092  1.3693 -1.2232 -0.7819
 3723SOL    HW314665   4.814   3.321   3.126 -0.0326 -0.5215 -0.9673
 3723SOL    MW414666   4.825   3.390   3.074  0.3713 -0.2496  0.1008
 3724SOL     OW14667   2.135   2.465   4.300  0.3189 -0.1411 -0.0740
 3724SOL    HW214668   2.191   2.498   4.230  0.7674 -0.1201  0.2957
 3724SOL    HW314669   2.178   2.385   4.330 -0.3124 -0.6127 -0.3803
 3724SOL    MW414670   2.148   2.459   4.294  0.8058  0.5170  0.1757
 3725SOL     OW14671   0.712   0.749   3.571 -0.1518  0.5788  0.3662
 3725SOL    HW214672   0.768   0.674   3.552  0.8758  1.3010  0.4595
 3725SOL    HW314673   0.680   0.733   3.659  0.4165  0.4492  0.5562
 3725SOL    MW414674   0.715   0.737   3.580  0.0149  0.0657 -0.1363
 3726SOL     OW14675   0.629   0.343   3.162 -0.2753  0.1092 -0.0939
 3726SOL    HW214676   0.652   0.265   3.212  0.2204 -0.4342 -1.1366
 3726SOL    HW314677   0.606   0.408   3.229 -0.0987 -0.7274  0.8133
 3726SOL    MW414678   0.629   0.341   3.178  0.1857 -0.3451 -0.0607
 3727SOL     OW14679   1.204   1.462   4.665  0.8225  0.2737  0.8184
 3727SOL    HW214680   1.230   1.377   4.701 -0.0553 -0.6015 -0.4758
 3727SOL    HW314681   1.285   1.513   4.660  1.9394 -1.5136 -0.9512
 3727SOL    MW414682   1.218   1.457   4.669 -1.0766  0.4811  0.4257
 3728SOL     OW14683   5.983   3.502   0.365 -0.8138  0.0181  0.4838
 3728SOL    HW214684   6.069   3.522   0.404 -0.3998 -0.9319  0.0770
 3728SOL    HW314685   5.927   3.574   0.394  0.3833  1.2380 -0.1369
 3728SOL    MW414686   5.987   3.514   0.374  0.2642 -0.5331  0.1381
 3729SOL     OW14687   1.550   1.407   0.195 -0.1591 -0.6571 -0.0790
 3729SOL    HW214688   1.545   1.318   0.230 -0.5364 -0.9197 -0.7923
 3729SOL    HW314689   1.607   1.454   0.257  0.2346 -1.4512  0.1662
 3729SOL    MW414690   1.557   1.402   0.208 -0.1752  0.1140 -0.3867
 3730SOL     OW14691   0.546   1.072   3.318 -0.0778  1.2176 -0.3038
 3730SOL    HW214692   0.557   1.146   3.258  2.7919  3.2787  2.4235
 3730SOL    HW314693   0.635   1.039   3.331 -1.1235 -1.9404 -0.3403
 3730SOL    MW414694   0.560   1.077   3.312  0.2250  0.9232  0.3787
 3731SOL     OW14695   3.790   5.594   2.318 -0.0259  0.3803 -0.0982
 3731SOL    HW214696   3.871   5.573   2.271  1.1958 -2.4312  2.8468
 3731SOL    HW314697   3.730   5.523   2.296  0.3159 -0.5748  1.8513
 3731SOL    MW414698   3.793   5.582   2.309  0.2771  0.0506 -0.2867
 3732SOL     OW14699   0.151   5.150   0.970 -0.2795  0.0872  0.4694
 3732SOL    HW214700   0.116   5.069   0.931  0.8571  0.1047 -0.6953
 3732SOL    HW314701   0.109   5.220   0.921  1.1938  0.1091 -0.8760
 3732SOL    MW414702   0.141   5.148   0.958 -0.0120 -0.5994 -0.0898
 3733SOL     OW14703   4.117   4.363   3.325 -0.3516 -0.1040  0.0133
 3733SOL    HW214704   4.089   4.340   3.236 -3.7992  2.2270  0.2965
 3733SOL    HW314705   4.069   4.303   3.382 -0.6680  0.4643  0.3630
 3733SOL    MW414706   4.107   4.352   3.321 -0.1266  0.4747  0.5525
 3734SOL     OW14707   5.236   1.016   5.864  0.6294  0.2334 -0.4504
 3734SOL    HW214708   5.156   1.065   5.883 -0.3150 -1.2103 -0.5405
 3734SOL    HW314709   5.207   0.942   5.811  2.0807 -0.1334 -0.7795
 3734SOL    MW414710   5.222   1.013   5.860  0.0501  0.1117 -0.1971
 3735SOL     OW14711   2.955   3.567   2.566 -0.2961 -0.0979 -0.2480
 3735SOL    HW214712   2.905   3.578   2.647 -2.4418  2.2810 -1.7310
 3735SOL    HW314713   2.961   3.472   2.554  0.7657 -0.5554  2.9902
 3735SOL    MW414714   2.949   3.556   2.575 -0.2485 -0.0071 -0.2510
 3736SOL     OW14715   3.950   5.257   4.491 -0.1731 -0.4233 -1.0159
 3736SOL    HW214716   3.980   5.167   4.502  0.5491 -0.0711  0.1532
 3736SOL    HW314717   4.030   5.307   4.474 -0.0726  0.4470  1.5329
 3736SOL    MW414718   3.965   5.252   4.490 -0.4551 -0.9307  0.6986
 3737SOL     OW14719   2.716   2.771   2.783 -0.6826  0.1379 -0.4574
 3737SOL    HW214720   2.673   2.855   2.764  0.6123  1.2958  1.4330
 3737SOL    HW314721   2.809   2.789   2.772 -0.3033 -0.7402  1.0618
 3737SOL    MW414722   2.723   2.784   2.779 -0.4556  0.6001 -0.1387
 3738SOL     OW14723   6.166   0.090   1.536 -0.4892  0.0237  0.0363
 3738SOL    HW214724   6.162   0.030   1.611 -0.4687  0.6940  0.5807
 3738SOL    HW314725   6.106   0.161   1.560  0.4636  0.8633 -0.0257
 3738SOL    MW414726   6.157   0.091   1.549 -0.2772  0.2994  0.3116
 3739SOL     OW14727   5.617   4.070   0.797 -0.2736 -0.4646  0.6425
 3739SOL    HW214728   5.634   3.999   0.736 -1.6343 -0.1374 -0.1350
 3739SOL    HW314729   5.523   4.087   0.791 -0.4930 -0.4724  2.8796
 3739SOL    MW414730   5.607   4.063   0.788 -0.1541 -0.2240  0.2740
 3740SOL     OW14731   2.429   4.966   6.358  0.1974 -0.1637 -0.2007
 3740SOL    HW214732   2.411   4.873   6.376  0.5545 -0.1880  0.0375
 3740SOL    HW314733   2.406   5.011   6.439  1.8156 -0.2734  0.3529
 3740SOL    MW414734   2.423   4.959   6.371 -0.5193 -0.4536  0.0393
 3741SOL     OW14735   5.255   0.154   2.347  0.1190 -0.3788 -0.2746
 3741SOL    HW214736   5.266   0.064   2.379  2.2251 -0.1744 -0.2605
 3741SOL    HW314737   5.344   0.190   2.348 -0.6387  1.5930 -0.6399
 3741SOL    MW414738   5.268   0.147   2.351 -0.2645  0.6459 -0.3818
 3742SOL     OW14739   0.021   4.774   4.709  0.1433  0.4060 -0.0989
 3742SOL    HW214740   0.013   4.711   4.637  0.0067 -0.5524  0.7149
 3742SOL    HW314741  -0.040   4.844   4.687  0.5519  0.4328 -1.2053
 3742SOL    MW414742   0.012   4.775   4.697  0.3261 -0.0699 -0.1308
 3743SOL     OW14743   5.193   2.484   2.210 -0.1071 -0.3016 -0.0468
 3743SOL    HW214744   5.199   2.516   2.301  0.0424 -2.2228  0.6591
 3743SOL    HW314745   5.124   2.538   2.171 -0.6721  0.1020  1.4207
 3743SOL    MW414746   5.184   2.496   2.217 -0.1291  0.7790  0.3344
 3744SOL     OW14747   1.707   2.810   1.431 -0.0956  0.1450  0.4474
 3744SOL    HW214748   1.656   2.790   1.353  1.4643 -1.7376 -0.1534
 3744SOL    HW314749   1.702   2.732   1.485  0.3797  0.7256  1.3724
 3744SOL    MW414750   1.700   2.797   1.428  0.1764  0.3455  0.0651
 3745SOL     OW14751   1.590   5.372   3.789  0.5639  0.2498 -0.2946
 3745SOL    HW214752   1.667   5.412   3.829  0.7826  0.1540 -0.6118
 3745SOL    HW314753   1.615   5.280   3.776 -0.3244 -0.2848  1.4358
 3745SOL    MW414754   1.603   5.365   3.793 -0.0983  0.1769 -0.0424
 3746SOL     OW14755   0.481   0.059   5.087 -0.0601 -0.3354  0.6735
 3746SOL    HW214756   0.413   0.080   5.151  0.5742 -0.5822  1.4399
 3746SOL    HW314757   0.557   0.035   5.140  0.3988 -0.7850 -0.1787
 3746SOL    MW414758   0.482   0.059   5.102 -0.4529  0.5715  0.0010
 3747SOL     OW14759   4.879   4.866   1.414 -0.1563  0.0811  0.8926
 3747SOL    HW214760   4.830   4.948   1.424 -0.1491  0.4777 -1.5798
 3747SOL    HW314761   4.819   4.799   1.444 -1.6437  0.7183 -0.4607
 3747SOL    MW414762   4.864   4.868   1.419  0.2708 -0.1140  0.5149
 3748SOL     OW14763   3.515   2.844   4.842 -0.2857 -0.2770  0.2486
 3748SOL    HW214764   3.600   2.813   4.873 -0.1541 -0.1602  0.0051
 3748SOL    HW314765   3.505   2.803   4.756 -0.1377  0.3198 -0.0508
 3748SOL    MW414766   3.525   2.834   4.835  0.3639  0.1454  0.2358
 3749SOL     OW14767   3.289   2.504   5.279 -0.0528  0.3156 -0.5989
 3749SOL    HW214768   3.333   2.577   5.320 -0.9039  0.6201 -0.2044
 3749SOL    HW314769   3.293   2.433   5.344  0.1634  0.2367 -0.7000
 3749SOL    MW414770   3.295   2.504   5.293  0.2292 -0.1079 -0.6885
 3750SOL     OW14771   5.538   1.552   3.796 -0.3020  0.0020 -0.2151
 3750SOL    HW214772   5.474   1.496   3.840 -0.2566  0.1476  0.0377
 3750SOL    HW314773   5.493   1.636   3.786 -1.1882 -0.6641 -2.5507
 3750SOL    MW414774   5.524   1.556   3.800 -0.3675  0.4653  0.8006
 3751SOL     OW14775   0.169   5.919   2.273 -0.4637  0.7327 -0.6450
 3751SOL    HW214776   0.127   5.887   2.353 -1.0061 -1.6089 -1.7923
 3751SOL    HW314777   0.256   5.880   2.275 -0.1703  1.3540 -0.8278
 3751SOL    MW414778   0.175   5.910   2.284  0.5522  0.7003  0.6069
 3752SOL     OW14779   4.167   3.363   5.462  0.4076 -0.0581  0.5394
 3752SOL    HW214780   4.141   3.443   5.417  2.7851 -0.4347 -1.7630
 3752SOL    HW314781   4.258   3.378   5.487  1.3585 -2.4461 -1.1452
 3752SOL    MW414782   4.176   3.375   5.459 -0.1869  0.1718  0.2602
 3753SOL     OW14783   2.181   2.747   0.581  0.8320 -0.3973  0.1562
 3753SOL    HW214784   2.156   2.657   0.602 -0.2925  0.0750  0.9555
 3753SOL    HW314785   2.101   2.798   0.595  1.5279  0.7744 -0.0006
 3753SOL    MW414786   2.167   2.742   0.586  0.0891 -0.3911  0.3670
 3754SOL     OW14787   4.896   5.707   2.270  0.8284  0.1474  0.4380
 3754SOL    HW214788   4.809   5.748   2.277  0.6479 -0.2028  0.2563
 3754SOL    HW314789   4.885   5.638   2.205  1.0276 -0.4442  1.0181
 3754SOL    MW414790   4.883   5.704   2.263 -0.1442 -0.0345  0.1601
 3755SOL     OW14791   5.910   0.676   0.815  0.1072  0.7964 -0.5206
 3755SOL    HW214792   5.958   0.620   0.877 -1.6171  0.5795  0.7046
 3755SOL    HW314793   5.882   0.616   0.746  0.8091  0.7542 -0.7769
 3755SOL    MW414794   5.912   0.661   0.814 -0.0201 -0.2614  0.0333
 3756SOL     OW14795   3.292   0.349   5.681 -0.0831  0.1260 -0.4474
 3756SOL    HW214796   3.314   0.442   5.684 -3.4428  1.1108 -2.0111
 3756SOL    HW314797   3.283   0.330   5.588 -1.8523 -1.0724 -0.0804
 3756SOL    MW414798   3.294   0.359   5.669 -0.5100  0.1817 -0.4369
 3757SOL     OW14799   3.464   1.292   2.835  0.1260  0.1933 -0.0869
 3757SOL    HW214800   3.448   1.310   2.927  0.7646  1.7091 -0.2330
 3757SOL    HW314801   3.407   1.355   2.789 -0.7164 -1.0192 -0.7571
 3757SOL    MW414802   3.454   1.303   2.841 -0.4556 -0.0142 -0.1488
 3758SOL     OW14803   2.325   4.243   4.116  0.0679  0.0419  0.5056
 3758SOL    HW214804   2.315   4.282   4.030  0.1925 -1.6919 -0.3315
 3758SOL    HW314805   2.417   4.215   4.119 -0.0846 -0.4297  0.9629
 3758SOL    MW414806   2.336   4.244   4.105 -0.1159 -0.0430  0.2137
 3759SOL     OW14807   0.798   4.674   0.827  0.2766 -0.8121 -0.3675
 3759SOL    HW214808   0.848   4.754   0.812 -1.2392  0.4904  1.1308
 3759SOL    HW314809   0.860   4.603   0.811  2.1756  0.6977 -0.0155
 3759SOL    MW414810   0.813   4.675   0.823 -0.6509  0.6084 -0.2704
 3760SOL     OW14811   1.910   5.728   3.723 -0.0001 -0.1980 -0.4768
 3760SOL    HW214812   1.921   5.814   3.762 -1.7391 -0.8755  1.7837
 3760SOL    HW314813   1.832   5.735   3.668 -0.1412 -0.2991 -0.2940
 3760SOL    MW414814   1.901   5.740   3.721 -0.4864  0.2195 -0.6962
 3761SOL     OW14815   4.886   3.984   5.151 -0.4844 -0.4344 -0.0767
 3761SOL    HW214816   4.903   3.940   5.068  1.7203  0.6045 -0.2611
 3761SOL    HW314817   4.973   4.012   5.181 -1.4777  1.2338  1.4266
 3761SOL    MW414818   4.900   3.982   5.144 -0.1122 -0.1660  0.0643
 3762SOL     OW14819   6.079   1.643   5.833  0.3287  0.6231 -0.2449
 3762SOL    HW214820   6.056   1.554   5.807 -0.7926  0.5441  0.9011
 3762SOL    HW314821   6.029   1.658   5.914  0.4417  2.3122 -0.4516
 3762SOL    MW414822   6.069   1.634   5.841 -0.0682 -0.7102  0.1492
 3763SOL     OW14823   0.745   4.957   5.627 -0.7915  0.5047 -0.6761
 3763SOL    HW214824   0.793   4.927   5.550 -0.7771 -3.0990  0.5759
 3763SOL    HW314825   0.661   4.910   5.623 -1.0082  0.6573  1.2021
 3763SOL    MW414826   0.740   4.947   5.616  0.1041  0.2791  0.1020
 3764SOL     OW14827   2.193   4.955   0.363  0.5052  0.4684  0.4157
 3764SOL    HW214828   2.196   4.996   0.277  1.0208  0.8684  0.6191
 3764SOL    HW314829   2.103   4.922   0.371 -0.1634  2.2161  0.5504
 3764SOL    MW414830   2.181   4.956   0.353  0.0404 -0.2788  0.6002
 3765SOL     OW14831   6.284   0.415   5.645 -0.3539  0.1278 -0.4944
 3765SOL    HW214832   6.296   0.510   5.652  0.0758  0.2364 -2.1526
 3765SOL    HW314833   6.371   0.381   5.624 -0.4060 -0.7029  0.5693
 3765SOL    MW414834   6.297   0.423   5.643 -0.4966 -0.4615  0.5442
 3766SOL     OW14835   2.822   5.812   1.411  0.6015 -0.3498  0.6306
 3766SOL    HW214836   2.748   5.752   1.394 -3.4620  4.0787  0.6300
 3766SOL    HW314837   2.873   5.809   1.330 -0.4087 -2.4824 -0.0147
 3766SOL    MW414838   2.819   5.803   1.398 -0.3823 -0.1661  0.1619
 3767SOL     OW14839   4.904   3.280   5.338 -0.3092 -0.5479  0.3836
 3767SOL    HW214840   4.862   3.366   5.340  1.2733  0.2760  0.2745
 3767SOL    HW314841   4.964   3.281   5.413 -0.7385 -1.8240  0.7693
 3767SOL    MW414842   4.907   3.292   5.348  0.0165 -0.0353 -0.7518
 3768SOL     OW14843   5.928   3.015   2.538 -0.4786  0.1836 -0.1898
 3768SOL    HW214844   5.958   3.106   2.540 -0.5367  0.2444 -1.3075
 3768SOL    HW314845   5.886   3.006   2.453  0.4051 -1.1643 -0.5086
 3768SOL    MW414846   5.926   3.026   2.527 -0.0786 -0.3140 -0.5942
 3769SOL     OW14847   0.412   0.080   5.555  0.0126 -0.0038  0.5445
 3769SOL    HW214848   0.473   0.029   5.608  0.3979  1.1611  1.2580
 3769SOL    HW314849   0.435   0.171   5.573 -0.5636  0.4332 -0.8012
 3769SOL    MW414850   0.423   0.085   5.564 -0.2054 -0.2500 -0.4396
 3770SOL     OW14851   4.959   0.502   4.343  0.1744 -0.5068  0.1050
 3770SOL    HW214852   4.946   0.422   4.392 -2.1301 -1.0172 -1.1607
 3770SOL    HW314853   5.035   0.485   4.288  2.3072 -0.2015  2.7946
 3770SOL    MW414854   4.967   0.490   4.342  0.2173 -0.0970  0.7715
 3771SOL     OW14855   2.038   0.246   6.364 -0.0844 -0.7633 -0.5913
 3771SOL    HW214856   2.090   0.239   6.445 -1.2539 -0.2870  0.2302
 3771SOL    HW314857   2.099   0.222   6.294  2.1296  2.4018  0.0000
 3771SOL    MW414858   2.053   0.242   6.366 -0.0665 -0.9216  0.3671
 3772SOL     OW14859   4.710   0.027   1.441  0.0043  0.8454  0.3650
 3772SOL    HW214860   4.804   0.023   1.458  0.4011  1.1369 -1.5611
 3772SOL    HW314861   4.680  -0.064   1.450  0.6660  0.5841  0.0260
 3772SOL    MW414862   4.719   0.014   1.444  0.4880  0.6379 -0.0718
 3773SOL     OW14863   3.387   0.488   2.048 -0.3566  0.1318 -0.6383
 3773SOL    HW214864   3.473   0.451   2.069  0.0849  0.2973 -2.0633
 3773SOL    HW314865   3.335   0.413   2.018 -0.4913  0.1498 -0.4548
 3773SOL    MW414866   3.391   0.473   2.047 -0.2666  0.3111  0.3282
 3774SOL     OW14867   0.300   5.411   2.483  0.8025  0.7916  0.2880
 3774SOL    HW214868   0.318   5.343   2.549 -1.3488 -0.9361 -0.8023
 3774SOL    HW314869   0.379   5.466   2.484  1.5323 -0.1368  3.0946
 3774SOL    MW414870   0.313   5.410   2.492  0.2700  0.0472  0.1015
 3775SOL     OW14871   3.806   1.067   3.560  0.0075  0.6349 -0.4739
 3775SOL    HW214872   3.755   0.994   3.595  0.1547 -0.2528 -2.0151
 3775SOL    HW314873   3.897   1.046   3.584  0.0302  0.3899 -0.7684
 3775SOL    MW414874   3.812   1.055   3.568  0.0420  0.3481 -0.1826
 3776SOL     OW14875   2.150   5.936   4.281  0.3843  0.2438  0.5078
 3776SOL    HW214876   2.086   5.982   4.227  0.2887  0.2837  0.6552
 3776SOL    HW314877   2.098   5.872   4.330  0.5619 -0.2618  0.0429
 3776SOL    MW414878   2.135   5.934   4.281 -0.3699  0.3554 -0.0203
 3777SOL     OW14879   2.597   1.954   2.903 -0.5541 -0.2894  0.4580
 3777SOL    HW214880   2.665   2.001   2.951 -0.2618 -0.2260 -0.0085
 3777SOL    HW314881   2.644   1.913   2.830 -1.2782  1.2860 -0.9799
 3777SOL    MW414882   2.612   1.955   2.900 -0.4318 -0.0502 -0.4819
 3778SOL     OW14883   0.776   1.759   4.035  0.3557 -0.6230  0.2661
 3778SOL    HW214884   0.716   1.819   4.079  0.3395  1.6922 -2.6670
 3778SOL    HW314885   0.719   1.694   3.994  0.2284 -1.2899  1.4462
 3778SOL    MW414886   0.761   1.758   4.036  0.4860  0.3444 -0.0415
 3779SOL     OW14887   2.323   0.460   2.306 -0.0270  0.4204  0.3865
 3779SOL    HW214888   2.312   0.447   2.212  2.0170 -0.1805  0.1723
 3779SOL    HW314889   2.278   0.542   2.325  0.9942  1.4573 -1.4592
 3779SOL    MW414890   2.316   0.469   2.296 -0.0501 -0.5531 -0.3682
 3780SOL     OW14891   5.938   5.918   6.145  0.2960  0.2123  0.2770
 3780SOL    HW214892   5.846   5.904   6.168  0.3460  0.7574  0.8312
 3780SOL    HW314893   5.951   6.012   6.153  0.4868  0.3627 -1.3947
 3780SOL    MW414894   5.928   5.928   6.149  0.0039 -0.2680  0.0005
 3781SOL     OW14895   5.558   0.460   0.471 -0.1134  0.1919 -0.0146
 3781SOL    HW214896   5.486   0.433   0.528 -0.1288 -1.3282 -0.7039
 3781SOL    HW314897   5.614   0.383   0.466  1.5802  1.3529  0.4953
 3781SOL    MW414898   5.556   0.446   0.478  0.2186  0.2313  0.7286
 3782SOL     OW14899   5.224   4.707   2.839  0.7316  0.2139  0.4589
 3782SOL    HW214900   5.152   4.655   2.874  0.2329  0.4635 -0.1804
 3782SOL    HW314901   5.189   4.748   2.761  1.5920  0.2814  0.0896
 3782SOL    MW414902   5.210   4.705   2.834  0.5355  0.1979  0.2276
 3783SOL     OW14903   4.198   0.773   2.959  0.0306 -0.2855  0.4620
 3783SOL    HW214904   4.127   0.796   3.019  1.2379  0.8712  1.5438
 3783SOL    HW314905   4.271   0.750   3.017  1.4440  1.4787 -0.4777
 3783SOL    MW414906   4.199   0.773   2.975  0.4951 -0.1449 -0.3196
 3784SOL     OW14907   1.082   3.271   1.277 -0.4133  0.1515  0.7598
 3784SOL    HW214908   1.174   3.249   1.262 -1.0918 -1.4600 -1.7405
 3784SOL    HW314909   1.039   3.186   1.288 -1.8320  0.7715  0.1543
 3784SOL    MW414910   1.089   3.257   1.276 -0.3459  0.2548  0.2782
 3785SOL     OW14911   5.963   5.773   4.840  0.1033 -0.0341  0.1852
 3785SOL    HW214912   6.053   5.762   4.872  0.2049  1.8360  0.7067
 3785SOL    HW314913   5.973   5.825   4.760 -0.5157  0.4382  0.4107
 3785SOL    MW414914   5.977   5.779   4.834  0.4229 -0.4556  0.5009
 3786SOL     OW14915   6.382   4.374   3.389  0.5022 -0.6039  0.1433
 3786SOL    HW214916   6.399   4.447   3.448  1.3688 -2.0438  1.7672
 3786SOL    HW314917   6.288   4.356   3.399  0.8886 -1.7816  2.3454
 3786SOL    MW414918   6.372   4.381   3.398  0.2913 -0.1059  0.0391
 3787SOL     OW14919   3.752   3.652   5.785 -0.6371  0.0645  0.0168
 3787SOL    HW214920   3.767   3.563   5.753  0.2695 -0.4772  1.8118
 3787SOL    HW314921   3.824   3.703   5.749  0.6847 -0.6539  1.5375
 3787SOL    MW414922   3.763   3.647   5.776  0.2176 -0.3264 -0.2557
 3788SOL     OW14923   5.789   3.457   0.978  0.0241 -0.4935 -0.0839
 3788SOL    HW214924   5.760   3.390   1.040 -0.5866 -0.7954 -0.6860
 3788SOL    HW314925   5.809   3.533   1.032  1.7932 -1.4790  0.7462
 3788SOL    MW414926   5.788   3.458   0.993 -0.1809  0.0055  0.1527
 3789SOL     OW14927   2.530   2.956   6.311  0.2859  0.0595  0.0746
 3789SOL    HW214928   2.440   2.985   6.299  0.4058  0.7269  0.7002
 3789SOL    HW314929   2.566   2.955   6.222 -0.6460 -1.3339 -0.3145
 3789SOL    MW414930   2.523   2.960   6.297 -0.5371  0.1345 -0.2339
 3790SOL     OW14931   4.998   4.428   1.040 -0.3680  0.0641  0.3651
 3790SOL    HW214932   5.048   4.501   1.077  2.4313 -1.1154 -0.8799
 3790SOL    HW314933   4.958   4.465   0.961 -0.8293  0.7953  0.9176
 3790SOL    MW414934   4.999   4.443   1.034  0.2298 -0.1526  0.7970
 3791SOL     OW14935   5.511   4.125   2.079  0.0811  0.5730 -0.4907
 3791SOL    HW214936   5.560   4.170   2.011  1.1355  0.3699  0.1059
 3791SOL    HW314937   5.494   4.193   2.145  0.5658  0.4014 -0.1782
 3791SOL    MW414938   5.515   4.140   2.079  0.0845 -0.1173  0.1954
 3792SOL     OW14939   2.189   5.056   2.222 -0.0058  0.5561 -0.6098
 3792SOL    HW214940   2.119   5.000   2.188 -0.4826  0.6667  0.1550
 3792SOL    HW314941   2.256   5.055   2.154  0.3838 -1.6312 -0.2670
 3792SOL    MW414942   2.188   5.049   2.209  0.1463  0.5669  0.3798
 3793SOL     OW14943   5.442   2.016   1.009  0.1182  0.3859  0.0048
 3793SOL    HW214944   5.407   2.092   0.963 -2.2128 -0.9188 -0.5111
 3793SOL    HW314945   5.486   2.052   1.086 -2.5052  2.1838  0.7855
 3793SOL    MW414946   5.443   2.031   1.013 -0.4052  0.0646 -0.3551
 3794SOL     OW14947   0.149   3.681   4.171 -0.5675  0.0542 -0.0697
 3794SOL    HW214948   0.243   3.700   4.177 -0.3877 -0.5655 -0.7769
 3794SOL    HW314949   0.144   3.600   4.120 -1.3604 -1.0707  1.6574
 3794SOL    MW414950   0.161   3.673   4.165 -0.2459  0.1038  0.5648
 3795SOL     OW14951   2.640   3.294   1.460 -0.1927 -0.1642  0.2865
 3795SOL    HW214952   2.546   3.314   1.461 -0.6529 -2.1075 -0.5287
 3795SOL    HW314953   2.651   3.226   1.526  0.2111 -1.6049 -1.2079
 3795SOL    MW414954   2.629   3.288   1.469  0.0060  0.3395 -0.0198
 3796SOL     OW14955   1.043   1.541   1.260  0.0739 -0.4117  0.3365
 3796SOL    HW214956   1.004   1.544   1.347  0.1285 -2.2988  0.4609
 3796SOL    HW314957   1.132   1.574   1.273  0.2039 -1.0297  1.0762
 3796SOL    MW414958   1.050   1.546   1.274 -0.5276  0.2324  0.0519
 3797SOL     OW14959   6.429   2.217   4.778  0.2375 -0.1967  0.0443
 3797SOL    HW214960   6.440   2.136   4.728  0.2466 -0.0807 -0.1434
 3797SOL    HW314961   6.341   2.247   4.755  0.6172  0.3826 -0.6798
 3797SOL    MW414962   6.419   2.210   4.768  0.3624  0.0977  0.3018
 3798SOL     OW14963   1.267   4.082   5.747 -0.3777  0.0533  0.1601
 3798SOL    HW214964   1.277   4.029   5.668  2.2744 -1.5653  1.4078
 3798SOL    HW314965   1.178   4.066   5.777 -1.0820 -0.1070 -1.9259
 3798SOL    MW414966   1.257   4.073   5.741  0.0065  0.0067  0.8269
 3799SOL     OW14967   2.698   3.830   5.500 -0.1171 -0.1781  0.1488
 3799SOL    HW214968   2.729   3.918   5.478 -0.3929 -0.2395 -0.4965
 3799SOL    HW314969   2.667   3.838   5.591 -0.1493  0.3921  0.0930
 3799SOL    MW414970   2.698   3.843   5.509  0.0104 -0.0029 -0.2449
 3800SOL     OW14971   0.305   2.584   3.103 -0.6024  0.1596 -0.0459
 3800SOL    HW214972   0.228   2.609   3.051 -0.5114  1.8912  0.5742
 3800SOL    HW314973   0.299   2.489   3.112 -1.4125 -0.0127 -1.9555
 3800SOL    MW414974   0.294   2.575   3.097 -0.0590  0.1273  0.2551
 3801SOL     OW14975   3.469   5.044   3.945 -0.0460  0.2590 -0.0856
 3801SOL    HW214976   3.430   5.092   3.871 -2.1299 -2.2491 -0.8165
 3801SOL    HW314977   3.532   4.985   3.904  1.1948  1.0882  0.5805
 3801SOL    MW414978   3.472   5.042   3.930 -0.2719  0.3490 -0.3603
 3802SOL     OW14979   4.913   5.081   2.451 -0.1255 -0.2765  0.3896
 3802SOL    HW214980   4.926   5.175   2.442 -0.6786 -0.2152  0.1900
 3802SOL    HW314981   4.879   5.070   2.540  4.5866 -0.8041  2.4105
 3802SOL    MW414982   4.910   5.092   2.461  0.4907 -0.0471  0.2793
 3803SOL     OW14983   1.132   4.406   1.197  0.2682 -0.6487  0.0537
 3803SOL    HW214984   1.101   4.340   1.135  2.3699 -2.1417  0.4789
 3803SOL    HW314985   1.176   4.471   1.142 -0.9618 -0.0659 -0.2796
 3803SOL    MW414986   1.134   4.406   1.181  0.4812 -0.7594  0.1316
 3804SOL     OW14987   5.652   4.867   2.906  1.1821 -0.0999  0.9942
 3804SOL    HW214988   5.626   4.852   2.997  0.7794 -0.3112  0.8480
 3804SOL    HW314989   5.585   4.926   2.871 -1.7491 -3.9476 -0.6304
 3804SOL    MW414990   5.640   4.873   2.913 -0.4380  0.4809 -0.6296
 3805SOL     OW14991   0.359   5.720   2.291 -0.3231  0.2995  0.5033
 3805SOL    HW214992   0.404   5.669   2.359  0.4119 -0.6375 -0.6357
 3805SOL    HW314993   0.430   5.765   2.245 -0.7061  0.0594 -0.3309
 3805SOL    MW414994   0.375   5.719   2.294 -0.7069  0.0171 -0.1003
 3806SOL     OW14995   0.559   3.452   2.449 -0.1677  0.2173  0.0295
 3806SOL    HW214996   0.508   3.381   2.489  1.3088 -0.8774  0.0455
 3806SOL    HW314997   0.600   3.497   2.523  1.4435 -0.9367 -0.1130
 3806SOL    MW414998   0.558   3.449   2.464  0.6830 -0.6635 -0.7806
 3807SOL     OW14999   5.097   2.999   0.989  0.0236  0.1996 -0.5484
 3807SOL    HW215000   5.078   3.007   0.896  1.1549 -2.3369 -1.0662
 3807SOL    HW315001   5.019   2.956   1.026  0.5993 -1.1550 -0.8472
 3807SOL    MW415002   5.084   2.994   0.982  0.5212 -0.1664 -0.2681
 3808SOL     OW15003   0.517   2.291   4.808  0.0904 -0.2215 -0.4298
 3808SOL    HW215004   0.441   2.339   4.776 -0.3793 -0.3419  0.4674
 3808SOL    HW315005   0.581   2.296   4.737 -1.1477 -1.0598 -1.6521
 3808SOL    MW415006   0.516   2.298   4.794  0.3698  0.2240 -0.5458
 3809SOL     OW15007   4.098   0.553   6.198 -0.4960 -0.3939 -0.2465
 3809SOL    HW215008   4.174   0.554   6.257 -0.4776  4.2197  0.0191
 3809SOL    HW315009   4.035   0.613   6.240 -4.0666 -3.3513 -0.8885
 3809SOL    MW415010   4.100   0.561   6.212 -0.0394  0.1532 -0.2181
 3810SOL     OW15011   5.350   3.464   1.607  0.0716  0.3201  0.1353
 3810SOL    HW215012   5.297   3.542   1.594 -0.3934 -0.1215 -0.6992
 3810SOL    HW315013   5.314   3.400   1.546  2.2828  0.3744 -1.3677
 3810SOL    MW415014   5.338   3.466   1.597  0.2095  0.6499 -0.0125
 3811SOL     OW15015   0.149   0.794   5.047  0.1204  0.4592  0.3982
 3811SOL    HW215016   0.189   0.816   5.131  0.2558  1.1931  0.1526
 3811SOL    HW315017   0.163   0.872   4.993 -0.3723  0.1721 -0.1560
 3811SOL    MW415018   0.156   0.807   5.051 -0.0510 -0.1380 -0.3747
 3812SOL     OW15019   3.957   1.897   2.616 -0.2177 -0.1530  0.2993
 3812SOL    HW215020   3.933   1.805   2.609 -0.4714  0.0526 -3.3988
 3812SOL    HW315021   3.879   1.944   2.586  0.9136  1.0666 -0.8737
 3812SOL    MW415022   3.943   1.891   2.611 -0.2569  0.9368  0.1892
 3813SOL     OW15023   2.537   3.124   4.199  0.2304 -0.3088  0.3338
 3813SOL    HW215024   2.612   3.065   4.198  0.1844 -0.3945 -1.1197
 3813SOL    HW315025   2.548   3.177   4.119 -1.6320 -0.8311 -0.3155
 3813SOL    MW415026   2.549   3.124   4.188  0.2112  0.5478 -0.0621
 3814SOL     OW15027   5.934   5.177   1.254  0.0490  0.4178 -0.0768
 3814SOL    HW215028   6.009   5.224   1.289  1.4779 -1.0957 -0.9749
 3814SOL    HW315029   5.917   5.107   1.317  0.4977 -0.2803 -0.7179
 3814SOL    MW415030   5.942   5.174   1.267  0.6297  0.2149 -0.3053
 3815SOL     OW15031   1.296   4.159   4.293 -0.3960  0.5255  0.4260
 3815SOL    HW215032   1.223   4.164   4.232  0.2020  0.3177 -0.3202
 3815SOL    HW315033   1.271   4.090   4.355 -0.9438  0.6444  0.3393
 3815SOL    MW415034   1.283   4.150   4.293 -0.0733  0.4837  0.2457
 3816SOL     OW15035   2.455   3.072   0.296  0.1887  0.1728  0.2558
 3816SOL    HW215036   2.367   3.042   0.320  0.3094 -0.4713 -0.0788
 3816SOL    HW315037   2.464   3.156   0.340 -1.6573  1.6318 -1.8825
 3816SOL    MW415038   2.444   3.079   0.305  0.3072  1.0200  0.3412
 3817SOL     OW15039   5.131   0.823   2.496  0.1493 -0.1547  0.0273
 3817SOL    HW215040   5.111   0.812   2.589 -2.0532  1.1173 -0.2236
 3817SOL    HW315041   5.180   0.905   2.491  0.5323 -0.3770  0.0779
 3817SOL    MW415042   5.135   0.832   2.508  1.1172  0.2077  0.2267
 3818SOL     OW15043   2.720   0.042   5.199  0.3111  0.8832 -0.4013
 3818SOL    HW215044   2.686   0.067   5.286  1.1631 -0.2443  0.2897
 3818SOL    HW315045   2.691   0.112   5.141 -3.1820  0.0732  0.1108
 3818SOL    MW415046   2.712   0.054   5.203  0.7737  0.1678 -0.1533
 3819SOL     OW15047   3.916   0.641   1.282  0.0027  0.2224 -0.1935
 3819SOL    HW215048   3.838   0.669   1.235  0.2774  0.6270 -0.4096
 3819SOL    HW315049   3.988   0.659   1.222  0.2582 -0.2289 -0.0303
 3819SOL    MW415050   3.915   0.647   1.268  0.1844  0.4064 -0.2192
 3820SOL     OW15051   1.125   0.534   1.443 -0.1446  0.1363 -0.2901
 3820SOL    HW215052   1.115   0.526   1.348  0.8047 -1.1973 -0.3053
 3820SOL    HW315053   1.048   0.490   1.478  0.6613 -1.4863 -0.4577
 3820SOL    MW415054   1.113   0.527   1.435  0.7037 -0.0308 -0.5226
 3821SOL     OW15055   5.108   6.403   3.926  0.1095 -0.0814  0.0067
 3821SOL    HW215056   5.123   6.443   4.012 -1.4534  0.1790  0.2075
 3821SOL    HW315057   5.094   6.478   3.867  0.6966 -0.2699 -0.3848
 3821SOL    MW415058   5.108   6.418   3.929  0.3355 -0.1134 -0.0997
 3822SOL     OW15059   2.545   1.118   3.894 -0.1350  0.2413 -0.8419
 3822SOL    HW215060   2.579   1.205   3.916 -0.1554 -0.1995  1.1050
 3822SOL    HW315061   2.500   1.089   3.973 -0.8683 -1.2051 -1.7402
 3822SOL    MW415062   2.544   1.126   3.907  0.2679 -0.1286  0.3041
 3823SOL     OW15063   4.839   3.580   0.827 -0.1275 -0.0276 -0.6536
 3823SOL    HW215064   4.746   3.567   0.807 -0.3801  1.0931 -0.2359
 3823SOL    HW315065   4.843   3.663   0.874  1.1339  0.1163 -0.9723
 3823SOL    MW415066   4.827   3.589   0.831 -0.0103  0.1452 -0.6609
 3824SOL     OW15067   3.757   5.871   4.761 -0.1945  0.6570 -0.3389
 3824SOL    HW215068   3.690   5.803   4.756 -0.9702  1.4493 -1.6799
 3824SOL    HW315069   3.789   5.879   4.671  1.1900  0.8106  0.1510
 3824SOL    MW415070   3.752   5.863   4.748 -0.1063 -0.5899  0.5914
 3825SOL     OW15071   4.280   1.569   3.771  0.2521 -0.1294  0.5700
 3825SOL    HW215072   4.266   1.511   3.845 -1.9320  1.7522  1.7700
 3825SOL    HW315073   4.199   1.620   3.765 -0.1701 -0.8958 -3.8074
 3825SOL    MW415074   4.267   1.568   3.780  0.1155 -0.2440 -0.1443
 3826SOL     OW15075   0.467   6.422   1.865  0.2121 -0.0551  0.2507
 3826SOL    HW215076   0.413   6.440   1.788  0.0268  0.9186  0.5889
 3826SOL    HW315077   0.474   6.327   1.868  0.9510 -0.1061 -1.4762
 3826SOL    MW415078   0.461   6.412   1.855  0.1523 -0.1561 -0.1785
 3827SOL     OW15079   2.648   0.180   1.653 -0.0885 -0.1561  0.3566
 3827SOL    HW215080   2.698   0.216   1.726  0.4039 -1.1948  0.5496
 3827SOL    HW315081   2.564   0.225   1.657 -0.2537 -0.5383  1.8768
 3827SOL    MW415082   2.643   0.191   1.663 -0.5706  0.0257  0.3536
 3828SOL     OW15083   4.367   6.387   3.111 -0.0188 -0.0673 -0.0083
 3828SOL    HW215084   4.299   6.450   3.087  0.6837  0.5412 -0.4636
 3828SOL    HW315085   4.322   6.321   3.163 -0.8197  0.6922  0.2852
 3828SOL    MW415086   4.352   6.387   3.115 -0.2135 -0.5322 -0.3248
 3829SOL     OW15087   6.104   6.247   3.098  0.7490  0.3447 -0.5800
 3829SOL    HW215088   6.090   6.210   3.011 -1.8967 -1.3274  0.4200
 3829SOL    HW315089   6.024   6.295   3.117  2.1613  2.5654  0.1557
 3829SOL    MW415090   6.092   6.248   3.089 -0.6223  0.4663 -0.1662
 3830SOL     OW15091   5.527   6.416   6.286 -0.2148 -0.0651  0.3059
 3830SOL    HW215092   5.585   6.342   6.305 -0.0890  0.0859  0.5137
 3830SOL    HW315093   5.581   6.493   6.300 -0.4706  0.0774  0.5101
 3830SOL    MW415094   5.542   6.416   6.290  0.4685  0.5093  0.3717
 3831SOL     OW15095   3.897   5.258   2.968 -0.1118 -0.2528  0.7696
 3831SOL    HW215096   3.894   5.214   2.883 -1.2761  1.6080 -0.2176
 3831SOL    HW315097   3.843   5.203   3.025  1.2579 -1.9112  0.5728
 3831SOL    MW415098   3.890   5.245   2.965  0.0965  0.5769  0.1566
 3832SOL     OW15099   2.454   6.207   1.066 -0.1876  0.3278  0.0253
 3832SOL    HW215100   2.454   6.128   1.119 -1.9615 -0.3868 -0.9512
 3832SOL    HW315101   2.439   6.278   1.128 -0.0598 -0.2556  0.7337
 3832SOL    MW415102   2.452   6.206   1.081 -0.0803 -0.0389  0.1489
 3833SOL     OW15103   5.302   6.253   2.111  0.6416  0.1292  0.3192
 3833SOL    HW215104   5.296   6.242   2.016  1.0437  2.1086  0.0180
 3833SOL    HW315105   5.388   6.216   2.134  0.2834 -0.9114  0.0264
 3833SOL    MW415106   5.313   6.247   2.102  0.0236 -0.2225 -0.5708
 3834SOL     OW15107   6.194   6.024   2.876 -0.2356 -0.1421 -0.2566
 3834SOL    HW215108   6.251   6.007   2.801  1.0104  0.5013  0.5054
 3834SOL    HW315109   6.107   5.997   2.847 -0.2285  2.0987 -2.7045
 3834SOL    MW415110   6.190   6.018   2.862  0.5450  0.0583 -0.3833
 3835SOL     OW15111   5.793   5.129   3.712  0.1150  0.2409 -0.0434
 3835SOL    HW215112   5.827   5.126   3.622  1.2137  1.2144  0.3034
 3835SOL    HW315113   5.860   5.085   3.764 -0.1674  0.3234  0.3915
 3835SOL    MW415114   5.807   5.123   3.707 -0.2089  0.2773  0.3670
 3836SOL     OW15115   1.295   0.410   4.542  0.2144 -0.0950 -0.4002
 3836SOL    HW215116   1.332   0.436   4.457 -2.4451  0.5400 -1.4544
 3836SOL    HW315117   1.208   0.450   4.543  0.1319 -0.1678  2.6272
 3836SOL    MW415118   1.289   0.419   4.531  0.1829  0.1791  0.3571
 3837SOL     OW15119   3.471   1.505   3.959  0.2593  0.2964 -0.3018
 3837SOL    HW215120   3.423   1.549   3.889 -0.3490 -1.0989 -0.8069
 3837SOL    HW315121   3.520   1.575   4.002 -2.2282  1.8312  0.2664
 3837SOL    MW415122   3.471   1.520   3.955  0.2880 -0.7467  0.3638
 3838SOL     OW15123   5.075   4.432   4.510  0.5759 -0.0948  0.0277
 3838SOL    HW215124   5.128   4.417   4.432  0.0670  0.7031 -0.4804
 3838SOL    HW315125   5.070   4.346   4.553  0.0848 -0.7580 -1.3071
 3838SOL    MW415126   5.081   4.418   4.506  0.3345 -0.4996 -0.0001
 3839SOL     OW15127   3.972   2.595   1.581  0.5665 -0.5063  0.1908
 3839SOL    HW215128   4.054   2.639   1.558  0.7192 -0.9375 -0.1134
 3839SOL    HW315129   3.950   2.630   1.667  1.6003 -1.0950  0.7284
 3839SOL    MW415130   3.980   2.605   1.590  0.0039  0.2896  0.3976
 3840SOL     OW15131   4.167   4.664   2.034  0.5375  0.3274  0.3479
 3840SOL    HW215132   4.246   4.695   1.990  0.2231  0.1627 -0.3566
 3840SOL    HW315133   4.101   4.661   1.964  0.1256 -0.3087  0.7584
 3840SOL    MW415134   4.169   4.668   2.019 -0.4779 -0.0349 -0.4556
 3841SOL     OW15135   6.113   1.480   2.178  0.0766 -0.3141  0.4849
 3841SOL    HW215136   6.186   1.490   2.116 -0.6099 -1.0995 -0.4801
 3841SOL    HW315137   6.047   1.541   2.146  0.6830  1.2208  2.0014
 3841SOL    MW415138   6.114   1.490   2.166 -0.1657 -0.0937  0.2755
 3842SOL     OW15139   2.018   4.347   6.126 -0.3042 -0.3238  0.3187
 3842SOL    HW215140   2.056   4.272   6.081 -0.5310 -0.3901  0.2391
 3842SOL    HW315141   2.089   4.412   6.129  0.3128 -1.0206  1.5367
 3842SOL    MW415142   2.033   4.346   6.120 -0.2284 -0.0952  0.0098
 3843SOL     OW15143   1.731   1.976   4.092 -0.2531 -0.0096  0.3751
 3843SOL    HW215144   1.731   2.064   4.053  0.3769  0.3834  1.2245
 3843SOL    HW315145   1.708   1.991   4.184  2.9385 -0.3265  1.3338
 3843SOL    MW415146   1.728   1.990   4.099 -0.1209  0.1419  0.0734
 3844SOL     OW15147   2.483   0.671   4.994  0.4860  0.2365  0.3965
 3844SOL    HW215148   2.545   0.614   4.949  0.9781  1.7315 -0.9034
 3844SOL    HW315149   2.413   0.612   5.023  0.7994 -0.9799 -1.1894
 3844SOL    MW415150   2.482   0.656   4.992  0.1095  0.1014  0.2418
 3845SOL     OW15151   6.081   0.181   5.198  0.1050 -0.0408 -1.1977
 3845SOL    HW215152   6.120   0.235   5.266 -1.2654  0.4321 -0.7419
 3845SOL    HW315153   6.155   0.149   5.146  1.2427 -0.8461  0.8085
 3845SOL    MW415154   6.096   0.184   5.200 -0.7123  0.4587  0.5731
 3846SOL     OW15155   0.887   0.567   2.654  0.0644  0.0449  0.2425
 3846SOL    HW215156   0.866   0.584   2.562  1.3305  1.7437  0.1965
 3846SOL    HW315157   0.868   0.475   2.667  1.1427 -0.5951 -2.1314
 3846SOL    MW415158   0.882   0.557   2.643  0.6269  0.3454  0.2160
 3847SOL     OW15159   4.580   2.919   6.152 -0.0020  0.2299 -0.7517
 3847SOL    HW215160   4.594   3.014   6.145  1.0041  0.1826  0.3308
 3847SOL    HW315161   4.546   2.893   6.066 -0.4197  1.5861 -1.0172
 3847SOL    MW415162   4.577   2.928   6.139 -0.0410  0.3109 -0.1976
 3848SOL     OW15163   5.009   5.469   0.658  0.5843 -0.4050  0.7219
 3848SOL    HW215164   4.915   5.466   0.644  0.9770  1.6406 -4.8121
 3848SOL    HW315165   5.045   5.399   0.604  2.3148  0.8824  0.0919
 3848SOL    MW415166   5.002   5.460   0.649 -0.7013 -0.6608 -0.0491
 3849SOL     OW15167   4.425   3.934   3.406  0.8564 -0.0464 -0.2128
 3849SOL    HW215168   4.431   3.927   3.310  0.0117  0.2072 -0.2940
 3849SOL    HW315169   4.513   3.958   3.434  1.6640 -2.1601 -0.7180
 3849SOL    MW415170   4.437   3.936   3.397 -0.1232 -0.2884 -0.1211
 3850SOL     OW15171   3.559   2.604   3.028  0.1539  0.2810  0.3888
 3850SOL    HW215172   3.571   2.670   2.959 -0.8183  0.8541  0.7445
 3850SOL    HW315173   3.559   2.521   2.981  0.4635  0.5919 -0.1853
 3850SOL    MW415174   3.561   2.602   3.013  0.0967  0.0067  0.5195
 3851SOL     OW15175   0.907   5.289   4.320  0.0093 -0.1002 -0.3713
 3851SOL    HW215176   0.922   5.239   4.239  1.0217 -0.8114  0.2401
 3851SOL    HW315177   0.927   5.379   4.296  0.3728 -0.3159 -0.9025
 3851SOL    MW415178   0.912   5.294   4.306  0.1674  0.4323  0.0366
 3852SOL     OW15179   2.277   6.305   2.837  0.1525 -1.0156  0.2129
 3852SOL    HW215180   2.285   6.278   2.746 -0.5775 -2.2014  0.4866
 3852SOL    HW315181   2.367   6.305   2.870  0.4534 -0.2841 -0.5762
 3852SOL    MW415182   2.290   6.302   2.830  0.2519  0.2168  0.1316
 3853SOL     OW15183   0.722   1.152   2.123  0.3088 -0.6084  0.1523
 3853SOL    HW215184   0.759   1.227   2.076 -0.3284  0.4615  1.2850
 3853SOL    HW315185   0.632   1.146   2.092  0.0166 -0.1719  0.8807
 3853SOL    MW415186   0.715   1.161   2.113  0.0401  0.1299  0.3248
 3854SOL     OW15187   6.068   4.774   4.423 -0.5518  0.5366 -0.4041
 3854SOL    HW215188   6.049   4.843   4.360  0.6443  1.1645 -0.1013
 3854SOL    HW315189   6.136   4.721   4.380 -1.5538 -0.5518 -0.6942
 3854SOL    MW415190   6.075   4.776   4.409  0.1843  0.5703 -0.4487
 3855SOL     OW15191   0.864   5.252   0.020 -0.5631  0.0262  0.2511
 3855SOL    HW215192   0.923   5.314   0.064  0.2218 -0.8795  0.5107
 3855SOL    HW315193   0.860   5.284  -0.071 -0.2108  0.4921  0.3954
 3855SOL    MW415194   0.872   5.264   0.014 -0.2096  0.0147  0.6831
 3856SOL     OW15195   2.402   3.844   1.652 -0.0947  0.0574 -0.3719
 3856SOL    HW215196   2.321   3.858   1.604 -0.4274  0.4737  0.2949
 3856SOL    HW315197   2.377   3.786   1.724 -0.2892  1.8717  1.0942
 3856SOL    MW415198   2.388   3.838   1.655 -0.0594 -0.0858 -0.5324
 3857SOL     OW15199   5.236   3.499   0.702  0.2100  0.3815 -0.0541
 3857SOL    HW215200   5.277   3.494   0.616  0.0804  1.9563 -0.2400
 3857SOL    HW315201   5.149   3.462   0.689  0.6798 -0.7174 -0.2334
 3857SOL    MW415202   5.230   3.494   0.689  0.4421 -0.2566  0.0415
 3858SOL     OW15203   5.491   4.823   2.013  0.4590 -0.4468 -0.2053
 3858SOL    HW215204   5.436   4.770   1.955  0.5282  0.1406 -0.8216
 3858SOL    HW315205   5.537   4.883   1.954  0.6318  0.0758  0.4449
 3858SOL    MW415206   5.490   4.824   1.997 -0.3345 -0.3123 -0.4394
 3859SOL     OW15207   3.597   6.362   0.512  0.6293  0.1875  0.4119
 3859SOL    HW215208   3.643   6.343   0.430  1.3245  2.0378  0.3258
 3859SOL    HW315209   3.514   6.401   0.484  0.1413 -0.6794  0.6006
 3859SOL    MW415210   3.592   6.365   0.497 -0.0050 -0.6494 -0.2358
 3860SOL     OW15211   0.995   2.198   5.895  0.4270 -0.3430  0.0896
 3860SOL    HW215212   0.961   2.253   5.966 -0.8927  0.1308 -0.8776
 3860SOL    HW315213   1.062   2.252   5.853  1.4137 -0.7283  1.0990
 3860SOL    MW415214   1.000   2.212   5.899 -0.6075 -0.1991  0.0370
 3861SOL     OW15215   4.404   3.055   1.826 -0.0562 -0.2166  0.2453
 3861SOL    HW215216   4.466   2.992   1.789  0.4591 -0.3204  1.2548
 3861SOL    HW315217   4.366   3.098   1.750  0.8817 -0.5116 -0.4142
 3861SOL    MW415218   4.408   3.052   1.811 -0.0898 -0.7971  0.1573
 3862SOL     OW15219   5.954   4.359   5.116  0.0969 -0.4018 -0.0163
 3862SOL    HW215220   6.047   4.374   5.133 -0.0399  0.0400  0.3425
 3862SOL    HW315221   5.918   4.331   5.200 -0.5326  1.5756  0.4216
 3862SOL    MW415222   5.962   4.357   5.129 -0.0276  0.3262 -0.3318
 3863SOL     OW15223   2.376   4.671   1.751  0.4024 -0.3748  0.0623
 3863SOL    HW215224   2.418   4.728   1.816  1.2715 -0.6085 -0.2712
 3863SOL    HW315225   2.434   4.594   1.747 -1.5509 -2.0683  1.6862
 3863SOL    MW415226   2.389   4.668   1.759  0.4466  0.2511 -0.4118
 3864SOL     OW15227   0.856   2.358   3.640 -0.1633  0.2067 -0.3967
 3864SOL    HW215228   0.891   2.364   3.552  1.9823 -1.9252  0.1918
 3864SOL    HW315229   0.764   2.385   3.632 -0.3244 -0.9034 -3.4614
 3864SOL    MW415230   0.848   2.362   3.628  0.4888 -0.6909  0.1684
 3865SOL     OW15231   5.917   3.175   4.438  0.4525 -0.1828  0.5405
 3865SOL    HW215232   5.860   3.212   4.370 -0.8659 -2.0636  0.5401
 3865SOL    HW315233   5.914   3.081   4.423  2.0394 -0.4673  1.7772
 3865SOL    MW415234   5.909   3.168   4.427 -0.6803  0.1768  0.2501
 3866SOL     OW15235   1.219   6.411   6.304 -0.8287 -0.2375  0.0935
 3866SOL    HW215236   1.249   6.482   6.361 -0.1907  0.2659 -0.8303
 3866SOL    HW315237   1.289   6.346   6.307 -0.3005  0.2598 -0.8980
 3866SOL    MW415238   1.232   6.412   6.312  0.4858 -1.0202  0.2140
 3867SOL     OW15239   6.433   0.330   2.616 -0.0766 -0.0851 -0.3572
 3867SOL    HW215240   6.455   0.413   2.572 -0.8735  1.2346  1.5690
 3867SOL    HW315241   6.517   0.295   2.645  0.2651  0.0646 -1.1447
 3867SOL    MW415242   6.447   0.337   2.614  0.5019 -0.5987  0.0081
 3868SOL     OW15243   2.667   4.250   6.230  0.0459 -0.0216  0.1116
 3868SOL    HW215244   2.600   4.319   6.233  0.5308  0.5916 -1.7418
 3868SOL    HW315245   2.688   4.234   6.322 -2.7802 -0.4059  0.7847
 3868SOL    MW415246   2.661   4.257   6.243  0.3559  0.2590  0.4874
 3869SOL     OW15247   2.937   5.864   2.717 -0.3668 -0.4298  0.2801
 3869SOL    HW215248   3.028   5.868   2.689  0.1825  0.4700  2.0401
 3869SOL    HW315249   2.908   5.955   2.716 -0.4657 -0.4106  2.0500
 3869SOL    MW415250   2.945   5.876   2.713  0.2116  0.4502 -0.0363
 3870SOL     OW15251   2.773   4.073   4.359 -0.7858 -0.4183 -0.5242
 3870SOL    HW215252   2.724   4.037   4.434 -1.7203 -2.1135 -1.8768
 3870SOL    HW315253   2.709   4.075   4.288  0.0859  1.1756 -1.3131
 3870SOL    MW415254   2.758   4.069   4.360  0.2681  0.0950  0.2562
 3871SOL     OW15255   4.857   1.366   2.062  0.1337  0.5225  0.5475
 3871SOL    HW215256   4.884   1.365   1.970  0.9533 -0.9187  0.7720
 3871SOL    HW315257   4.791   1.297   2.069 -0.8781  1.4919  0.7949
 3871SOL    MW415258   4.852   1.357   2.051 -0.2181 -0.0026  0.1565
 3872SOL     OW15259   6.259   1.729   0.686  0.3681  0.1162 -0.0842
 3872SOL    HW215260   6.209   1.674   0.625  1.3717  0.0916 -0.9214
 3872SOL    HW315261   6.230   1.818   0.668  0.9329  0.1498 -0.9044
 3872SOL    MW415262   6.249   1.734   0.675 -0.2967  0.0150 -0.1994
 3873SOL     OW15263   3.448   3.955   1.509 -0.5145  0.0223 -0.2891
 3873SOL    HW215264   3.355   3.966   1.486 -0.0284  0.4283 -2.2665
 3873SOL    HW315265   3.462   4.017   1.580 -1.8749 -0.4380  0.4241
 3873SOL    MW415266   3.437   3.965   1.515  0.2615 -0.2343 -0.5399
 3874SOL     OW15267   1.168   2.033   2.148  0.0261 -0.3395 -0.3102
 3874SOL    HW215268   1.127   2.071   2.226  0.2652 -1.9221  0.6175
 3874SOL    HW315269   1.168   2.105   2.084 -0.5676  0.8632  0.9843
 3874SOL    MW415270   1.162   2.048   2.150  0.5901  0.6839  0.2836
 3875SOL     OW15271   3.004   4.754   0.667  0.1597 -0.4170 -0.0160
 3875SOL    HW215272   2.950   4.786   0.739  1.3531  1.9226 -0.0446
 3875SOL    HW315273   2.954   4.776   0.588  0.9659  1.5740 -0.0356
 3875SOL    MW415274   2.990   4.761   0.666  0.3671 -0.1602  0.4155
 3876SOL     OW15275   0.371   3.722   0.258 -0.3008  0.1261 -0.2027
 3876SOL    HW215276   0.326   3.668   0.322 -0.9921 -0.4993 -1.1975
 3876SOL    HW315277   0.368   3.672   0.177  0.3784  0.9863 -0.7814
 3876SOL    MW415278   0.365   3.708   0.256 -0.2868 -0.0733 -0.4819
 3877SOL     OW15279   4.581   1.091   0.880  0.1796 -0.0406 -0.4527
 3877SOL    HW215280   4.672   1.115   0.863  0.0381  0.8179 -0.0479
 3877SOL    HW315281   4.585   1.040   0.961  0.3964 -0.7651 -0.9127
 3877SOL    MW415282   4.593   1.088   0.888 -0.4141  0.0828  0.9679
 3878SOL     OW15283   0.369   3.802   4.451  0.3820  0.8021  0.8443
 3878SOL    HW215284   0.400   3.809   4.542  1.2347 -0.0641  0.6377
 3878SOL    HW315285   0.368   3.708   4.434  1.3935  1.0053 -0.4317
 3878SOL    MW415286   0.373   3.791   4.461 -0.2536 -0.3278  0.1311
 3879SOL     OW15287   4.170   3.079   5.784  0.2777 -0.6916 -0.7526
 3879SOL    HW215288   4.107   3.029   5.836  1.3063 -1.4384 -0.1799
 3879SOL    HW315289   4.132   3.167   5.778  0.2885 -0.4758  1.5884
 3879SOL    MW415290   4.157   3.084   5.790 -0.5021  0.1618 -0.1868
 3880SOL     OW15291   6.105   2.582   4.816  0.1896  0.5872  0.5718
 3880SOL    HW215292   6.110   2.489   4.841  0.4366 -0.0386 -1.6221
 3880SOL    HW315293   6.020   2.611   4.849 -0.9241 -1.0822 -0.6595
 3880SOL    MW415294   6.094   2.574   4.824  0.0521  0.2338 -0.4430
 3881SOL     OW15295   2.307   5.805   5.008 -0.2261 -0.3454 -0.3930
 3881SOL    HW215296   2.231   5.755   4.979 -0.8067  0.8346 -0.9767
 3881SOL    HW315297   2.381   5.764   4.965 -0.4832 -1.6879  0.4017
 3881SOL    MW415298   2.306   5.793   4.999 -0.4395  0.8473 -0.1940
 3882SOL     OW15299   5.381   4.572   5.716 -0.3024 -0.5038 -0.1680
 3882SOL    HW215300   5.418   4.484   5.717 -0.7195 -0.6908 -0.8039
 3882SOL    HW315301   5.292   4.562   5.747 -0.3004 -0.2807 -0.0879
 3882SOL    MW415302   5.374   4.559   5.720  0.0633 -0.2791  0.0167
 3883SOL     OW15303   5.454   2.406   5.948 -0.4982 -0.0154 -0.3106
 3883SOL    HW215304   5.451   2.349   6.025  1.4373  0.5396  0.2350
 3883SOL    HW315305   5.382   2.375   5.893 -1.0465 -1.3558  1.0716
 3883SOL    MW415306   5.444   2.395   5.951 -0.6313 -0.4905 -0.0922
 3884SOL     OW15307   0.552   2.909   4.704 -0.1434  0.0722  0.0954
 3884SOL    HW215308   0.597   2.828   4.682  0.6437  0.6026 -0.3468
 3884SOL    HW315309   0.498   2.888   4.780 -0.2603 -0.9524 -0.2557
 3884SOL    MW415310   0.551   2.896   4.711 -0.9015 -0.0532  0.1145
 3885SOL     OW15311   4.181   0.263   3.215  0.3093 -0.0315 -0.3889
 3885SOL    HW215312   4.192   0.222   3.301 -0.7979  1.1864  0.3819
 3885SOL    HW315313   4.244   0.335   3.214  0.8623 -0.5198 -0.9206
 3885SOL    MW415314   4.191   0.267   3.226  0.2696 -0.5507 -0.5246
 3886SOL     OW15315   3.814   1.059   5.101  0.3266  0.5179 -0.2880
 3886SOL    HW215316   3.805   0.964   5.105  0.7056  0.4787 -0.3786
 3886SOL    HW315317   3.823   1.078   5.007 -1.5297  0.8065 -0.4567
 3886SOL    MW415318   3.814   1.049   5.089 -0.0127 -0.2602  0.4178
 3887SOL     OW15319   3.068   0.609   3.630  0.0467  0.2270 -0.2781
 3887SOL    HW215320   3.061   0.518   3.657  1.4691  0.1247 -0.2073
 3887SOL    HW315321   3.043   0.608   3.537  2.9472 -0.8005 -1.1691
 3887SOL    MW415322   3.064   0.597   3.621 -0.2711 -0.4397 -0.3649
 3888SOL     OW15323   5.934   5.853   5.488  0.2647 -0.7427 -0.4542
 3888SOL    HW215324   5.916   5.882   5.578 -1.4243  1.4050 -1.3970
 3888SOL    HW315325   5.938   5.758   5.494  0.1862 -0.6595  1.8816
 3888SOL    MW415326   5.932   5.844   5.501 -0.1142 -0.3166  0.2850
 3889SOL     OW15327   5.957   3.028   3.024  0.2947  0.7996  0.3279
 3889SOL    HW215328   5.871   3.069   3.015  0.0484  0.0863 -0.6370
 3889SOL    HW315329   5.938   2.938   3.050  0.5575 -0.3667 -3.1311
 3889SOL    MW415330   5.943   3.022   3.026 -0.2877 -0.2481  0.1252
 3890SOL     OW15331   5.267   5.914   1.835  0.8881  0.3429  0.5469
 3890SOL    HW215332   5.297   5.858   1.906  1.6363 -1.4787 -1.0930
 3890SOL    HW315333   5.337   5.909   1.769 -0.5579  0.4763 -1.0675
 3890SOL    MW415334   5.280   5.906   1.836 -0.3935  0.1488 -0.8067
 3891SOL     OW15335   5.369   5.439   4.739  0.2628  0.9085 -0.3949
 3891SOL    HW215336   5.399   5.351   4.716  0.1689  0.6940  0.2594
 3891SOL    HW315337   5.323   5.427   4.823  0.0526  1.5438 -0.4144
 3891SOL    MW415338   5.367   5.425   4.747  0.1099  0.2889  0.2433
 3892SOL     OW15339   4.534   0.337   0.072 -0.1462  0.2517  0.1814
 3892SOL    HW215340   4.602   0.272   0.094  0.2409 -0.3125 -2.2777
 3892SOL    HW315341   4.467   0.286   0.026 -0.5362  1.3711 -0.5224
 3892SOL    MW415342   4.534   0.322   0.069 -0.2516  0.4772 -0.1296
 3893SOL     OW15343   6.034   2.561   3.496 -0.7364  0.3759  0.5557
 3893SOL    HW215344   6.080   2.641   3.518 -0.4280 -0.4315  3.3239
 3893SOL    HW315345   6.100   2.492   3.504 -1.1653 -0.2614 -1.0131
 3893SOL    MW415346   6.049   2.562   3.500 -0.5325  0.0209 -0.3746
 3894SOL     OW15347   0.194   6.121   2.055 -0.5790 -0.7487 -0.5604
 3894SOL    HW215348   0.197   6.085   1.967 -1.3038 -1.6244 -0.2331
 3894SOL    HW315349   0.181   6.046   2.112  1.5802 -0.4288  0.4706
 3894SOL    MW415350   0.193   6.107   2.051  0.1191  0.1203  0.5567
 3895SOL     OW15351   6.007   0.376   1.843 -0.0041  0.7492 -0.5445
 3895SOL    HW215352   6.075   0.425   1.889  0.2448 -0.4991  0.4639
 3895SOL    HW315353   5.941   0.357   1.910 -0.1980 -0.1021 -0.9630
 3895SOL    MW415354   6.007   0.380   1.858  0.8470 -0.0146  0.3126
 3896SOL     OW15355   0.571   5.247   3.731 -0.7577  0.2093 -0.0990
 3896SOL    HW215356   0.591   5.327   3.682 -1.3930  0.6200  0.2894
 3896SOL    HW315357   0.497   5.208   3.684 -1.2068  0.4738  0.3785
 3896SOL    MW415358   0.563   5.252   3.718 -0.7040 -0.4573 -0.1911
 3897SOL     OW15359   2.962   0.631   3.373  0.1668  0.2170  0.3081
 3897SOL    HW215360   2.925   0.713   3.406  0.8794  1.9690 -2.8100
 3897SOL    HW315361   2.890   0.568   3.378 -0.4975  1.0771  2.4919
 3897SOL    MW415362   2.947   0.634   3.378 -0.1708  0.9133 -0.3605
 3898SOL     OW15363   5.517   3.568   5.261 -0.6005 -0.0765 -0.1356
 3898SOL    HW215364   5.595   3.612   5.227  0.3421 -1.8131 -0.3101
 3898SOL    HW315365   5.511   3.487   5.211 -1.9432 -0.4405  0.5735
 3898SOL    MW415366   5.527   3.563   5.250  0.0041 -0.3068 -0.5753
 3899SOL     OW15367   0.176   4.765   2.608 -0.3564 -0.1044  0.2977
 3899SOL    HW215368   0.211   4.792   2.693  0.1632 -1.4565  0.5303
 3899SOL    HW315369   0.172   4.670   2.612  1.8242 -0.3987 -1.9871
 3899SOL    MW415370   0.180   4.756   2.619 -0.1472 -0.1040 -0.3167
 3900SOL     OW15371   1.014   3.100   4.366 -0.2160  0.0210  0.1864
 3900SOL    HW215372   1.059   3.172   4.411 -0.4140  1.3433 -1.6093
 3900SOL    HW315373   1.084   3.051   4.324 -0.2619  1.1997 -1.3668
 3900SOL    MW415374   1.029   3.103   4.367 -0.3571  0.4680 -0.1766
 3901SOL     OW15375   1.207   6.404   1.996 -0.1366  0.2957 -0.0565
 3901SOL    HW215376   1.259   6.340   2.044 -0.5807 -0.5819 -0.7202
 3901SOL    HW315377   1.118   6.393   2.029 -0.4947 -0.4796 -1.2009
 3901SOL    MW415378   1.202   6.394   2.006  0.4643  0.2958 -0.3317
 3902SOL     OW15379   2.740   5.889   0.795 -0.2924  0.4691  0.0206
 3902SOL    HW215380   2.655   5.928   0.779  0.1768  1.5820  0.1450
 3902SOL    HW315381   2.758   5.907   0.887  0.1995  0.5132 -0.0797
 3902SOL    MW415382   2.731   5.897   0.805 -0.1310 -0.0389  0.5207
 3903SOL     OW15383   5.098   4.757   0.220  0.6647  0.0270  0.2123
 3903SOL    HW215384   5.032   4.796   0.162  1.5894  0.7211 -0.4015
 3903SOL    HW315385   5.107   4.667   0.188  1.4686  0.5231 -1.0326
 3903SOL    MW415386   5.091   4.750   0.208  0.6530 -0.5444 -0.1710
 3904SOL     OW15387   1.442   5.010   1.911  0.0371  0.1720 -0.2431
 3904SOL    HW215388   1.390   5.060   1.975 -0.6774 -1.0325  0.1602
 3904SOL    HW315389   1.427   4.919   1.935  0.3623 -0.2826 -1.6861
 3904SOL    MW415390   1.433   5.005   1.923 -0.4544 -0.1576  0.0104
 3905SOL     OW15391   1.121   5.530   3.409  0.2884 -0.4706  0.8507
 3905SOL    HW215392   1.158   5.469   3.345 -1.1197 -2.3018  1.6994
 3905SOL    HW315393   1.070   5.591   3.356  0.4659 -0.9624  0.0875
 3905SOL    MW415394   1.119   5.530   3.394  0.0104  0.1584  0.0112
 3906SOL     OW15395   3.270   5.626   4.062  0.1879  0.3985 -0.1150
 3906SOL    HW215396   3.251   5.682   3.987  0.6594  0.1303 -0.4331
 3906SOL    HW315397   3.358   5.652   4.090 -0.7079  1.8776  1.5715
 3906SOL    MW415398   3.279   5.637   4.056 -0.3135  0.7749 -0.4210
 3907SOL     OW15399   0.132   2.782   3.266  0.4659  0.0959  0.2916
 3907SOL    HW215400   0.106   2.738   3.185  1.1248  1.5045 -0.7359
 3907SOL    HW315401   0.207   2.732   3.298  1.0121  0.2749 -0.6816
 3907SOL    MW415402   0.139   2.769   3.260  0.4557  1.0796 -0.2085
 3908SOL     OW15403   6.112   4.855   1.248  0.2493  0.3378 -0.1620
 3908SOL    HW215404   6.025   4.884   1.276  0.6199  0.9147  0.4214
 3908SOL    HW315405   6.132   4.909   1.172  0.0531  0.1208 -0.3707
 3908SOL    MW415406   6.103   4.866   1.241 -0.0570 -0.6715 -0.7539
 3909SOL     OW15407   6.197   2.963   2.875  0.2842 -0.1383  0.1980
 3909SOL    HW215408   6.118   2.994   2.919  0.5228  0.9679 -0.1278
 3909SOL    HW315409   6.165   2.916   2.798 -0.0566  0.5362 -0.0784
 3909SOL    MW415410   6.183   2.961   2.871  0.1314  0.7666  0.0410
 3910SOL     OW15411   4.828   1.427   6.095  0.5673  0.6776  0.0217
 3910SOL    HW215412   4.765   1.455   6.162 -0.7113 -0.0316 -0.8602
 3910SOL    HW315413   4.893   1.376   6.144 -0.8192 -0.5794  0.6397
 3910SOL    MW415414   4.829   1.424   6.110 -0.3878  0.3512 -0.4707
 3911SOL     OW15415   4.640   5.976   0.637  0.1702  0.7208 -0.6445
 3911SOL    HW215416   4.564   6.022   0.603 -2.4424 -1.4396  1.7811
 3911SOL    HW315417   4.652   5.902   0.578 -1.6130 -0.6035  0.5563
 3911SOL    MW415418   4.632   5.973   0.625  0.0386  0.1849 -0.2829
 3912SOL     OW15419   6.239   4.000   5.408 -0.1283  0.2031  0.4376
 3912SOL    HW215420   6.251   3.913   5.445 -1.5662 -0.2399 -0.0567
 3912SOL    HW315421   6.192   4.049   5.476  0.6380  0.6058  0.6978
 3912SOL    MW415422   6.234   3.995   5.422 -0.0978 -0.1928  0.4640
 3913SOL     OW15423   6.012   2.614   1.392 -0.0756 -0.2347  0.2285
 3913SOL    HW215424   6.100   2.605   1.354 -0.5041 -0.2431 -0.7989
 3913SOL    HW315425   5.976   2.525   1.390 -0.3772 -0.1074 -0.0381
 3913SOL    MW415426   6.019   2.601   1.387  0.4164  0.3965  0.0106
 3914SOL     OW15427   4.844   4.579   3.876  0.0932  0.0768 -0.0739
 3914SOL    HW215428   4.899   4.598   3.951 -1.3414  1.6612  0.6438
 3914SOL    HW315429   4.759   4.558   3.913 -1.1929  2.7792 -1.2152
 3914SOL    MW415430   4.840   4.579   3.891 -0.2083  0.2374 -0.2558
 3915SOL     OW15431   3.529   3.833   4.442  0.2341  0.1839 -0.0272
 3915SOL    HW215432   3.612   3.787   4.428  0.5367  0.9849 -1.0114
 3915SOL    HW315433   3.505   3.867   4.356  0.6986  2.9394  0.8078
 3915SOL    MW415434   3.537   3.832   4.429  0.0591 -0.6126  0.1424
 3916SOL     OW15435   0.400   0.113   4.033 -0.1960  0.2772 -0.1410
 3916SOL    HW215436   0.382   0.201   4.066  0.2384  0.1788  0.3659
 3916SOL    HW315437   0.481   0.123   3.982 -1.1651  0.5499 -1.7063
 3916SOL    MW415438   0.409   0.126   4.030 -0.2064 -0.2406 -0.0835
 3917SOL     OW15439   0.301   3.988   5.587 -0.2623  0.7171  0.7159
 3917SOL    HW215440   0.382   4.004   5.635  0.1592 -0.6550  0.4902
 3917SOL    HW315441   0.251   3.928   5.643 -0.2755  0.0247 -0.0331
 3917SOL    MW415442   0.305   3.983   5.601 -0.0891 -0.2371  0.1816
 3918SOL     OW15443   2.270   5.261   5.639 -0.1761 -0.7917 -0.1583
 3918SOL    HW215444   2.353   5.226   5.605  0.0440  1.0318 -1.7019
 3918SOL    HW315445   2.223   5.291   5.561 -2.0523 -1.2601  0.7453
 3918SOL    MW415446   2.275   5.261   5.624 -0.0020  0.5746  0.0739
 3919SOL     OW15447   4.687   5.390   0.879  0.1846 -0.3246 -0.4194
 3919SOL    HW215448   4.594   5.379   0.898  0.3488 -0.5413  0.2901
 3919SOL    HW315449   4.716   5.458   0.940  0.5515 -0.4535 -0.4436
 3919SOL    MW415450   4.679   5.398   0.890 -0.2073  0.0521 -0.7798
 3920SOL     OW15451   3.693   0.150   5.588  0.4638  0.3734  0.4811
 3920SOL    HW215452   3.653   0.219   5.641 -0.2577  0.9747 -0.7939
 3920SOL    HW315453   3.621   0.115   5.536  1.4658  1.3137 -1.7115
 3920SOL    MW415454   3.678   0.155   5.588  0.5966 -0.3916 -0.0431
 3921SOL     OW15455   3.617   2.516   2.220  0.3126  0.4848  0.0180
 3921SOL    HW215456   3.562   2.465   2.280 -0.7021  1.5048 -0.0167
 3921SOL    HW315457   3.705   2.505   2.254  0.1203 -1.2384  0.0469
 3921SOL    MW415458   3.621   2.508   2.233  0.0361  0.3580  0.1073
 3922SOL     OW15459   5.296   5.350   4.979 -0.3635  0.3197  0.3584
 3922SOL    HW215460   5.385   5.318   4.968 -1.0045 -0.9325 -2.0094
 3922SOL    HW315461   5.305   5.430   5.030  1.6565 -1.8414  3.7836
 3922SOL    MW415462   5.309   5.356   4.984 -0.1145  0.0621  0.4273
 3923SOL     OW15463   4.047   3.337   5.706 -0.1368 -0.0145 -0.0945
 3923SOL    HW215464   4.094   3.401   5.761  0.3462 -0.4001 -0.0475
 3923SOL    HW315465   4.087   3.347   5.619 -0.5330  0.2208 -0.2536
 3923SOL    MW415466   4.059   3.347   5.702 -0.2575 -0.0763 -0.0799
 3924SOL     OW15467   2.089   2.524   4.621  0.6582 -0.4080 -0.7512
 3924SOL    HW215468   2.047   2.559   4.542 -0.9787  1.3821  0.8100
 3924SOL    HW315469   2.150   2.593   4.648 -0.9959  0.3940  1.1550
 3924SOL    MW415470   2.092   2.537   4.614  0.3481 -0.4206  0.5701
 3925SOL     OW15471   5.167   5.827   1.125  0.1755 -0.0452  0.3306
 3925SOL    HW215472   5.262   5.834   1.117  0.4846 -1.3788  2.1852
 3925SOL    HW315473   5.139   5.787   1.042  1.1751  0.6021 -0.3450
 3925SOL    MW415474   5.176   5.823   1.113  0.2907  0.0074  0.9858
 3926SOL     OW15475   1.999   0.290   4.725 -0.0848 -0.1781 -0.0112
 3926SOL    HW215476   1.971   0.206   4.690 -2.0103  0.1176  0.6920
 3926SOL    HW315477   1.984   0.352   4.653  1.0589 -0.3500 -0.4284
 3926SOL    MW415478   1.994   0.287   4.711  0.3987  0.1715 -0.1794
 3927SOL     OW15479   2.584   2.216   2.534 -0.0856  0.1062 -0.0667
 3927SOL    HW215480   2.523   2.164   2.586  0.3266  1.1438  1.5251
 3927SOL    HW315481   2.533   2.293   2.508 -0.0047  0.0536 -0.3865
 3927SOL    MW415482   2.569   2.219   2.538 -0.7157 -0.0238  0.1155
 3928SOL     OW15483   2.629   1.522   1.240  0.2093  0.6725 -0.3765
 3928SOL    HW215484   2.686   1.453   1.273  0.3469  0.7463 -0.4632
 3928SOL    HW315485   2.599   1.568   1.319 -0.4231  0.0899 -0.2661
 3928SOL    MW415486   2.632   1.519   1.255  0.4307  0.3418  0.4685
 3929SOL     OW15487   2.600   4.601   4.343 -0.3064 -0.2760  0.4653
 3929SOL    HW215488   2.583   4.530   4.281  1.4643 -0.5878  0.2660
 3929SOL    HW315489   2.596   4.680   4.290 -2.4844 -0.1627  0.7250
 3929SOL    MW415490   2.597   4.602   4.328 -0.2786 -0.2064 -0.4048
 3930SOL     OW15491   0.119   2.577   1.404  0.4643 -0.1818 -0.2543
 3930SOL    HW215492   0.192   2.615   1.354  0.5896 -0.5155 -0.3267
 3930SOL    HW315493   0.100   2.642   1.472  0.3433  0.2387 -0.6878
 3930SOL    MW415494   0.126   2.591   1.406  0.5780 -0.2604  0.3526
 3931SOL     OW15495   5.334   0.953   1.640 -0.0555  0.2052 -0.1146
 3931SOL    HW215496   5.269   0.938   1.708  0.3200 -1.7026 -0.1322
 3931SOL    HW315497   5.410   0.988   1.686 -1.4053  3.6727 -0.2445
 3931SOL    MW415498   5.335   0.956   1.655  0.4159  0.6219 -0.5568
 3932SOL     OW15499   0.868   5.640   2.559 -0.2591  0.9667 -0.2643
 3932SOL    HW215500   0.782   5.672   2.586 -0.4716 -0.6367  1.0943
 3932SOL    HW315501   0.901   5.591   2.634  1.2767  0.4349 -1.2333
 3932SOL    MW415502   0.861   5.638   2.572  0.3672  0.0393 -0.3652
 3933SOL     OW15503   2.998   2.851   1.016 -0.1072 -0.7090  0.0431
 3933SOL    HW215504   3.026   2.872   0.927  2.2434 -1.2105  0.5816
 3933SOL    HW315505   3.049   2.909   1.071  0.6458 -2.3456  1.1588
 3933SOL    MW415506   3.008   2.861   1.011  0.3247 -0.1595  0.4026
 3934SOL     OW15507   3.933   2.401   1.244 -0.3320  0.5556  0.0280
 3934SOL    HW215508   3.979   2.393   1.328 -1.8589  2.3876  1.1083
 3934SOL    HW315509   3.861   2.339   1.252 -0.2630  0.4592 -0.0966
 3934SOL    MW415510   3.930   2.391   1.256  0.7056  0.1669 -0.2364
 3935SOL     OW15511   0.700   1.393   4.839 -0.0804 -0.8214  0.5430
 3935SOL    HW215512   0.732   1.472   4.882  0.0085  0.2101 -1.2906
 3935SOL    HW315513   0.606   1.409   4.827 -0.4692 -1.9065  1.9673
 3935SOL    MW415514   0.692   1.406   4.843  0.3639  0.4035  0.3283
 3936SOL     OW15515   0.346   1.949   0.303 -0.4925 -0.0153  0.3883
 3936SOL    HW215516   0.273   1.982   0.355  0.1783  0.3194  1.1331
 3936SOL    HW315517   0.421   2.001   0.332 -0.0495 -0.0315 -0.7051
 3936SOL    MW415518   0.346   1.960   0.314 -0.0054 -0.1563  0.5573
 3937SOL     OW15519   0.340   0.482   0.305 -0.1848 -0.3678 -0.3260
 3937SOL    HW215520   0.287   0.415   0.263  0.3361 -1.8108  1.1828
 3937SOL    HW315521   0.383   0.528   0.233 -1.4924 -0.8390 -1.4528
 3937SOL    MW415522   0.339   0.479   0.290 -0.6005  0.8475  0.3220
 3938SOL     OW15523   1.849   6.000   3.354  0.0497 -0.3268  0.2255
 3938SOL    HW215524   1.936   6.010   3.393  0.2139  0.8366 -0.3928
 3938SOL    HW315525   1.801   5.946   3.417 -0.3207  3.0363  3.1613
 3938SOL    MW415526   1.854   5.994   3.368  0.0327 -0.1582  0.4345
 3939SOL     OW15527   0.694   2.804   0.664 -0.0977 -0.6997  0.0750
 3939SOL    HW215528   0.668   2.735   0.725 -1.9981 -0.6195 -0.5647
 3939SOL    HW315529   0.613   2.826   0.617  1.1258 -0.2343 -1.9509
 3939SOL    MW415530   0.680   2.798   0.666  0.1864 -0.0054 -0.1348
 3940SOL     OW15531   4.271   6.272   5.634  0.4411  0.4778 -0.8821
 3940SOL    HW215532   4.273   6.198   5.694 -0.8947  1.0010 -0.1452
 3940SOL    HW315533   4.262   6.233   5.547 -0.5657 -0.2174 -0.4741
 3940SOL    MW415534   4.270   6.257   5.630  0.1351 -0.1453 -0.6006
 3941SOL     OW15535   3.999   1.194   5.250  0.2907  0.2801  0.0735
 3941SOL    HW215536   3.934   1.136   5.210 -0.1059  1.3605 -0.9140
 3941SOL    HW315537   4.011   1.160   5.338  1.2663 -2.2504 -0.9512
 3941SOL    MW415538   3.992   1.182   5.256  0.6044  0.0789 -0.1592
 3942SOL     OW15539   1.981   4.888   1.759  0.7359  0.2304 -0.1197
 3942SOL    HW215540   2.049   4.950   1.732  1.7697 -0.9686 -0.3536
 3942SOL    HW315541   2.004   4.806   1.715  0.1567 -0.6842  1.2123
 3942SOL    MW415542   1.993   4.885   1.749  0.5814  0.6021  0.3050
 3943SOL     OW15543   5.829   1.614   3.250  0.1535  0.4991 -0.0171
 3943SOL    HW215544   5.750   1.656   3.285  0.6895 -0.1509  2.1326
 3943SOL    HW315545   5.838   1.533   3.301  1.8583  0.2465 -0.6453
 3943SOL    MW415546   5.820   1.609   3.261 -0.4466 -0.3475  0.1786
 3944SOL     OW15547   6.049   6.295   5.000 -0.4350 -0.4453  0.7503
 3944SOL    HW215548   6.090   6.246   5.071  1.2311 -1.0324 -0.5545
 3944SOL    HW315549   5.959   6.263   4.998 -0.4287 -0.6777  2.3225
 3944SOL    MW415550   6.042   6.285   5.009 -0.1874 -0.2033  0.2169
 3945SOL     OW15551   1.905   1.626   1.656 -0.0513  0.1568  0.2438
 3945SOL    HW215552   1.830   1.683   1.672  0.4804  0.5992  1.2592
 3945SOL    HW315553   1.889   1.588   1.569 -3.1940 -2.4149  1.7243
 3945SOL    MW415554   1.893   1.628   1.647 -0.4113  0.2319  0.9726
 3946SOL     OW15555   2.434   1.349   4.351 -0.1594  0.3546 -0.0659
 3946SOL    HW215556   2.396   1.413   4.291 -2.5938 -1.3728 -0.5404
 3946SOL    HW315557   2.512   1.316   4.307  0.3617  1.9669 -0.4037
 3946SOL    MW415558   2.439   1.353   4.337  0.1453  0.0010  0.2733
 3947SOL     OW15559   0.618   1.714   6.257  0.3658  0.3296  0.3633
 3947SOL    HW215560   0.560   1.790   6.253  2.5693  2.1005 -0.9717
 3947SOL    HW315561   0.563   1.642   6.287 -3.0290  1.3077 -2.8484
 3947SOL    MW415562   0.603   1.715   6.260  0.2247 -0.1646  0.2669
 3948SOL     OW15563   5.218   2.950   3.399 -0.2008  0.0751  0.5625
 3948SOL    HW215564   5.136   2.999   3.396  0.8919  2.0400 -1.9420
 3948SOL    HW315565   5.213   2.890   3.325  0.6776  0.3627  0.2604
 3948SOL    MW415566   5.207   2.949   3.389 -0.2716 -0.4114 -0.2695
 3949SOL     OW15567   5.091   2.261   2.954  0.1282 -0.2702 -1.0441
 3949SOL    HW215568   5.109   2.328   2.888 -0.7412  0.6094 -0.4151
 3949SOL    HW315569   5.001   2.234   2.938 -0.9508  1.6388  1.1422
 3949SOL    MW415570   5.082   2.267   2.943 -0.5540 -0.1418 -0.3359
 3950SOL     OW15571   3.068   4.529   3.298  0.0371 -0.6944 -0.0923
 3950SOL    HW215572   3.145   4.585   3.292 -0.5713  0.4080  1.5242
 3950SOL    HW315573   3.006   4.566   3.235  0.0204 -0.1654  0.2289
 3950SOL    MW415574   3.070   4.541   3.289  0.2731  0.6212 -0.0662
 3951SOL     OW15575   0.977   0.737   4.516 -0.2431 -0.4048 -0.2471
 3951SOL    HW215576   0.894   0.738   4.468  0.3368  0.3991 -1.2850
 3951SOL    HW315577   1.040   0.776   4.455  0.7371 -0.2856  0.8108
 3951SOL    MW415578   0.974   0.743   4.501 -0.1943 -0.6623  0.5493
 3952SOL     OW15579   3.718   3.016   5.088  0.1425 -0.1931 -0.1495
 3952SOL    HW215580   3.785   3.039   5.024 -0.7393 -0.1859 -1.1031
 3952SOL    HW315581   3.761   3.025   5.172  1.2458  0.1084 -0.7238
 3952SOL    MW415582   3.732   3.020   5.090 -0.1738  0.2012  0.5227
 3953SOL     OW15583   3.977   0.424   2.642  0.1250 -0.7330 -0.9490
 3953SOL    HW215584   3.999   0.461   2.727 -0.6490 -0.2368 -0.9580
 3953SOL    HW315585   3.885   0.447   2.628 -0.1083 -1.8476 -1.3789
 3953SOL    MW415586   3.968   0.432   2.651 -0.8365 -0.0550  0.2654
 3954SOL     OW15587   2.436   1.422   6.114 -0.2157 -0.1070 -0.0901
 3954SOL    HW215588   2.406   1.432   6.023 -0.4647 -0.4213 -0.0417
 3954SOL    HW315589   2.362   1.452   6.167  0.7546  2.3832 -0.0047
 3954SOL    MW415590   2.422   1.427   6.109 -0.3248  0.7335  0.6132
 3955SOL     OW15591   3.006   2.326   3.739 -0.3827 -0.8695 -0.3406
 3955SOL    HW215592   3.069   2.258   3.718 -2.1837 -2.9873  0.6440
 3955SOL    HW315593   2.930   2.307   3.685 -0.9342  0.3826 -0.0536
 3955SOL    MW415594   3.004   2.315   3.729  0.4312 -0.5594 -0.0611
 3956SOL     OW15595   3.051   2.796   0.506  0.6463  0.1516  0.0691
 3956SOL    HW215596   3.034   2.847   0.585  2.3435  0.3181  0.3754
 3956SOL    HW315597   3.037   2.857   0.434 -0.2591  0.1834  0.2567
 3956SOL    MW415598   3.047   2.811   0.507  0.1111 -0.5877 -0.1726
 3957SOL     OW15599   3.907   1.364   1.247 -0.0294  0.2475  0.1900
 3957SOL    HW215600   3.991   1.403   1.223  0.2358 -0.4286 -0.0325
 3957SOL    HW315601   3.842   1.429   1.222  0.3145  0.0812 -1.2846
 3957SOL    MW415602   3.910   1.377   1.240 -0.4056  0.1115  0.0219
 3958SOL     OW15603   5.355   2.268   1.628 -0.1428  0.0888  0.4040
 3958SOL    HW215604   5.327   2.293   1.540  1.4430  1.5205  0.2553
 3958SOL    HW315605   5.340   2.345   1.682 -0.8934 -0.6997  1.3686
 3958SOL    MW415606   5.350   2.281   1.624  0.4238  0.5508 -0.5416
 3959SOL     OW15607   5.339   2.158   0.456  0.4113 -0.5460 -0.1239
 3959SOL    HW215608   5.359   2.066   0.439  0.4731 -0.2833 -1.6983
 3959SOL    HW315609   5.342   2.199   0.369 -0.6835  0.7292  0.4012
 3959SOL    MW415610   5.342   2.151   0.442  0.0503  0.1383 -0.4849
 3960SOL     OW15611   5.142   6.081   3.132  0.6518  0.5059 -0.3570
 3960SOL    HW215612   5.130   6.046   3.044 -0.2978 -0.3947  0.1065
 3960SOL    HW315613   5.131   6.005   3.189  1.0865  1.1111  0.5490
 3960SOL    MW415614   5.139   6.066   3.128  0.5238  0.6156 -0.5296
 3961SOL     OW15615   2.303   2.249   4.395 -0.3753 -0.0410 -0.6025
 3961SOL    HW215616   2.323   2.171   4.448  0.1449  0.0533 -0.6591
 3961SOL    HW315617   2.384   2.268   4.348 -0.3402  0.8335 -0.2099
 3961SOL    MW415618   2.316   2.241   4.396  0.3417  0.3023  0.1537
 3962SOL     OW15619   2.016   5.007   4.629  0.1851  0.3078  0.1274
 3962SOL    HW215620   2.038   4.999   4.536  0.4415  0.8793  0.1373
 3962SOL    HW315621   2.097   4.988   4.675 -0.1463 -0.8425  0.2739
 3962SOL    MW415622   2.029   5.004   4.623  0.2574  0.1057 -0.1980
 3963SOL     OW15623   4.152   2.937   5.540  0.7144 -0.6364  0.6685
 3963SOL    HW215624   4.098   2.863   5.567 -2.1056  1.3172  0.7597
 3963SOL    HW315625   4.154   2.995   5.617  2.0760 -0.1369  0.2903
 3963SOL    MW415626   4.145   2.935   5.554 -0.2389  0.7095 -0.0915
 3964SOL     OW15627   0.473   0.336   1.797  0.0446 -0.1082  0.2893
 3964SOL    HW215628   0.519   0.261   1.759 -0.3246 -0.4561  0.5200
 3964SOL    HW315629   0.435   0.382   1.723 -0.1576 -0.4392  0.1856
 3964SOL    MW415630   0.474   0.332   1.782 -0.5511 -0.0702 -0.0985
 3965SOL     OW15631   1.225   5.117   0.143  0.5260 -0.1053  0.2508
 3965SOL    HW215632   1.320   5.104   0.154  0.2300 -1.1865  1.8129
 3965SOL    HW315633   1.190   5.114   0.231 -0.8306  1.8415 -0.1600
 3965SOL    MW415634   1.233   5.115   0.156 -0.1340 -0.1504 -0.3345
 3966SOL     OW15635   2.995   0.713   4.771  0.2095  0.0731  0.0960
 3966SOL    HW215636   3.058   0.785   4.778  1.2240 -0.7661 -0.1858
 3966SOL    HW315637   2.972   0.693   4.862 -0.1463  0.7967  0.1742
 3966SOL    MW415638   3.000   0.720   4.784  0.1024  0.6643 -0.3872
 3967SOL     OW15639   0.849   6.145   4.201 -0.4146 -0.1475 -0.1489
 3967SOL    HW215640   0.795   6.211   4.244 -2.4092 -0.8195 -1.4745
 3967SOL    HW315641   0.870   6.083   4.271 -1.6556 -0.0237  0.3693
 3967SOL    MW415642   0.845   6.145   4.216  0.0555  0.2538 -0.0058
 3968SOL     OW15643   1.473   3.741   1.636 -0.1406 -0.1102 -0.2404
 3968SOL    HW215644   1.498   3.661   1.591 -0.3932  0.4733 -1.4783
 3968SOL    HW315645   1.380   3.730   1.655  0.2852 -0.9684  1.5150
 3968SOL    MW415646   1.464   3.729   1.633  0.4749  0.1302 -0.0936
 3969SOL     OW15647   1.677   5.885   4.388 -0.0267 -0.1445  0.1570
 3969SOL    HW215648   1.684   5.938   4.309  0.0986  0.5724  0.6402
 3969SOL    HW315649   1.656   5.948   4.457 -2.2724 -1.0004  0.3573
 3969SOL    MW415650   1.675   5.900   4.387  0.5674 -0.5060  0.0698
 3970SOL     OW15651   4.734   1.460   2.492 -0.7795 -0.0894 -0.4010
 3970SOL    HW215652   4.672   1.460   2.564 -2.7344  2.2799 -1.9116
 3970SOL    HW315653   4.695   1.518   2.426  0.8036 -2.1437 -3.4300
 3970SOL    MW415654   4.721   1.468   2.493  0.0210  0.0000 -0.8647
 3971SOL     OW15655   6.392   4.237   2.384  0.7159 -0.0132 -0.1285
 3971SOL    HW215656   6.376   4.255   2.292  0.2774 -0.1709 -0.0851
 3971SOL    HW315657   6.352   4.152   2.400 -1.3907  1.0726  0.7715
 3971SOL    MW415658   6.385   4.228   2.374  0.1929 -0.1922  0.0169
 3972SOL     OW15659   3.462   2.368   1.739  0.1858  0.5617 -0.2361
 3972SOL    HW215660   3.523   2.424   1.786  0.1705  1.2360 -0.9950
 3972SOL    HW315661   3.460   2.287   1.790  1.3835  0.6777  0.0309
 3972SOL    MW415662   3.470   2.365   1.752  0.2433 -0.1217  0.4100
 3973SOL     OW15663   1.527   4.195   0.095  0.3586  0.6126  0.0014
 3973SOL    HW215664   1.433   4.208   0.079  0.4004  0.6740 -0.1971
 3973SOL    HW315665   1.565   4.282   0.083  0.6210  0.3508 -1.2118
 3973SOL    MW415666   1.519   4.208   0.091 -0.0159  0.4489  0.0590
 3974SOL     OW15667   2.322   0.521   0.985 -0.3002  0.6770 -0.2835
 3974SOL    HW215668   2.258   0.473   1.038 -0.0615  0.0575 -0.5479
 3974SOL    HW315669   2.386   0.553   1.049  0.1210 -0.2772 -0.2067
 3974SOL    MW415670   2.322   0.519   1.001 -0.6225 -0.3075 -0.2926
 3975SOL     OW15671   2.772   4.861   5.169  0.2953 -0.3914 -0.4195
 3975SOL    HW215672   2.738   4.887   5.084  0.5241  0.3944 -0.2737
 3975SOL    HW315673   2.695   4.830   5.217  0.0799 -0.3305 -0.7224
 3975SOL    MW415674   2.757   4.860   5.165 -0.0421 -0.8721  0.2340
 3976SOL     OW15675   3.563   1.602   3.541 -0.2530  0.3240  0.2289
 3976SOL    HW215676   3.656   1.594   3.565 -0.2545  0.7293  0.3724
 3976SOL    HW315677   3.524   1.519   3.568 -0.1557  0.5819  1.1977
 3976SOL    MW415678   3.570   1.590   3.548 -0.2524  0.0757 -0.7391
 3977SOL     OW15679   5.234   1.568   5.537  0.6821  0.0790  0.1800
 3977SOL    HW215680   5.189   1.629   5.480  1.5609  0.8296  0.2707
 3977SOL    HW315681   5.215   1.482   5.499 -1.2793  0.2903  0.5447
 3977SOL    MW415682   5.225   1.564   5.525  0.6660  0.3092 -0.0227
 3978SOL     OW15683   1.693   0.743   4.571 -0.6944 -0.1784  0.0877
 3978SOL    HW215684   1.679   0.817   4.513  2.2858  1.8358  1.6672
 3978SOL    HW315685   1.611   0.734   4.620 -0.8029  2.8411  0.6107
 3978SOL    MW415686   1.680   0.751   4.570 -0.0507  0.5856  0.3470
 3979SOL     OW15687   5.599   1.800   5.350 -0.0831  0.2386 -0.6493
 3979SOL    HW215688   5.684   1.841   5.336  1.0160 -0.2952  3.4425
 3979SOL    HW315689   5.540   1.873   5.370  0.3963  0.3296  0.4833
 3979SOL    MW415690   5.602   1.815   5.351 -0.1495  0.9378 -0.5165
 3980SOL     OW15691   0.326   6.277   5.401  0.6449  0.2933 -0.1461
 3980SOL    HW215692   0.360   6.229   5.326  1.2755  0.6803 -0.1206
 3980SOL    HW315693   0.399   6.333   5.429 -0.3832  2.0884 -0.8501
 3980SOL    MW415694   0.340   6.278   5.395 -0.3408  0.0680 -0.2855
 3981SOL     OW15695   2.122   5.692   0.760  0.5120 -0.4392  0.0201
 3981SOL    HW215696   2.066   5.628   0.805  0.6735  0.1761  1.1420
 3981SOL    HW315697   2.060   5.752   0.717  0.3299 -0.4498  0.2659
 3981SOL    MW415698   2.106   5.691   0.760  0.1051  0.1922  0.1127
 3982SOL     OW15699   5.978   3.483   4.487 -0.5194  0.1425 -0.2059
 3982SOL    HW215700   5.894   3.445   4.511 -0.4545  0.0209 -0.1664
 3982SOL    HW315701   5.991   3.457   4.396 -0.4039 -0.0601 -0.1315
 3982SOL    MW415702   5.969   3.475   4.478  0.7749  0.7609  0.0893
 3983SOL     OW15703   3.163   4.494   2.776  0.0736 -0.0232  0.2333
 3983SOL    HW215704   3.090   4.550   2.803 -0.2555 -0.5091  0.3747
 3983SOL    HW315705   3.239   4.552   2.773 -0.1857  0.3450  0.7604
 3983SOL    MW415706   3.163   4.509   2.779  0.7065 -0.4405  0.3871
 3984SOL     OW15707   4.520   1.301   5.793  0.6348  0.4882 -0.1126
 3984SOL    HW215708   4.544   1.233   5.730  1.8387  0.5561  0.2532
 3984SOL    HW315709   4.458   1.356   5.745 -1.8651 -1.8919  0.1957
 3984SOL    MW415710   4.515   1.299   5.778 -0.5719 -0.3802 -0.2639
 3985SOL     OW15711   3.916   1.760   1.850  0.1667  0.2570 -0.0045
 3985SOL    HW215712   3.848   1.727   1.791 -0.9424  0.3016  1.1946
 3985SOL    HW315713   3.920   1.694   1.920  0.3680  0.9539  0.6471
 3985SOL    MW415714   3.907   1.747   1.851 -0.1272  0.2123 -0.4060
 3986SOL     OW15715   2.511   3.335   5.061  0.3385 -0.3180 -0.2527
 3986SOL    HW215716   2.559   3.306   4.983  2.3341  0.6226  0.5658
 3986SOL    HW315717   2.575   3.329   5.132 -0.4999  1.7419  0.7609
 3986SOL    MW415718   2.526   3.330   5.060  0.5001  0.2353  0.6288
 3987SOL     OW15719   1.895   4.875   6.101  0.0563  0.3527  0.0340
 3987SOL    HW215720   1.851   4.886   6.016 -1.7863 -0.1517  0.8563
 3987SOL    HW315721   1.846   4.805   6.144  1.7067 -0.2330  1.0609
 3987SOL    MW415722   1.882   4.867   6.095  0.2979 -0.4326  0.1130
 3988SOL     OW15723   2.542   4.274   0.744 -0.1152  0.5170  0.0418
 3988SOL    HW215724   2.630   4.276   0.783 -0.2127  0.1241  0.2851
 3988SOL    HW315725   2.549   4.333   0.668  0.3938  0.3918 -0.0163
 3988SOL    MW415726   2.555   4.282   0.739  0.0554 -0.4833 -0.0073
 3989SOL     OW15727   0.232   4.872   4.457 -0.0788  0.0205 -0.5502
 3989SOL    HW215728   0.151   4.920   4.444  0.4790  1.2110  0.1377
 3989SOL    HW315729   0.204   4.787   4.491 -1.0445  0.4723 -0.1590
 3989SOL    MW415730   0.218   4.867   4.460  0.2539 -0.0516  0.1138
 3990SOL     OW15731   2.666   6.347   3.314 -0.4468 -0.0421  0.1714
 3990SOL    HW215732   2.753   6.317   3.340 -1.0488 -1.9116  0.2054
 3990SOL    HW315733   2.653   6.429   3.362  1.0045 -0.1032  0.7142
 3990SOL    MW415734   2.676   6.354   3.324 -0.3056  0.6362 -0.2774
 3991SOL     OW15735   3.134   2.274   1.886 -0.2947  0.2934  0.1618
 3991SOL    HW215736   3.159   2.225   1.964  2.0591  2.5268  0.9590
 3991SOL    HW315737   3.163   2.220   1.813  1.2600 -0.0542  0.9787
 3991SOL    MW415738   3.141   2.260   1.887  0.5610 -0.6764 -0.8190
 3992SOL     OW15739   4.565   4.375   5.064 -0.5038  0.6219 -0.7877
 3992SOL    HW215740   4.494   4.311   5.074 -0.1402  0.2249 -0.7155
 3992SOL    HW315741   4.540   4.447   5.121 -0.6862  0.3355 -0.5000
 3992SOL    MW415742   4.552   4.376   5.073 -0.0079  0.1438  0.1388
 3993SOL     OW15743   0.461   0.008   1.149 -0.0473  0.0127 -0.4480
 3993SOL    HW215744   0.539   0.050   1.114 -0.7426  0.6264 -1.2838
 3993SOL    HW315745   0.408   0.080   1.184  0.7233 -0.5715  2.1753
 3993SOL    MW415746   0.464   0.023   1.149  0.3262 -0.1073  0.3929
 3994SOL     OW15747   1.907   2.964   4.847 -0.5035 -0.7171  0.5732
 3994SOL    HW215748   1.989   2.917   4.862  0.0239  0.2293  0.7574
 3994SOL    HW315749   1.916   3.044   4.899 -1.5233 -0.5785  0.5494
 3994SOL    MW415750   1.919   2.968   4.856 -0.4967 -0.1403 -0.3906
 3995SOL     OW15751   1.036   4.910   3.952 -0.4520 -0.1287  0.2519
 3995SOL    HW215752   0.990   4.850   3.893  1.2150 -1.2017 -0.0276
 3995SOL    HW315753   1.046   4.861   4.034 -0.6754  0.4615  0.6369
 3995SOL    MW415754   1.032   4.896   3.955  0.7038  0.2379 -0.1251
 3996SOL     OW15755   1.011   4.912   3.304  0.0984 -0.0258  0.6383
 3996SOL    HW215756   0.952   4.980   3.270  0.2528  0.3588  1.1246
 3996SOL    HW315757   1.087   4.961   3.335  0.5497 -0.4952  0.2867
 3996SOL    MW415758   1.013   4.928   3.303 -0.2917  0.5875  0.0178
 3997SOL     OW15759   6.129   0.966   5.949 -0.0207  0.3412 -0.2681
 3997SOL    HW215760   6.188   1.029   5.908 -0.7586  0.2328 -1.5201
 3997SOL    HW315761   6.050   0.968   5.896 -0.7152 -0.3796  0.7012
 3997SOL    MW415762   6.127   0.975   5.937 -0.2180  0.0748 -0.5803
 3998SOL     OW15763   2.663   5.834   2.190 -0.4202  0.3891  0.9543
 3998SOL    HW215764   2.689   5.795   2.274 -0.3294 -1.0075  0.3202
 3998SOL    HW315765   2.725   5.906   2.177  2.1392 -1.7336  0.3406
 3998SOL    MW415766   2.675   5.838   2.199  0.0745 -0.0753  0.0459
 3999SOL     OW15767   3.649   5.668   5.434 -0.4908  0.1034  0.2701
 3999SOL    HW215768   3.608   5.582   5.440  0.6918 -0.4220  1.5336
 3999SOL    HW315769   3.633   5.708   5.519  0.2783  0.4980  0.2354
 3999SOL    MW415770   3.642   5.662   5.446 -0.0695  0.0104  0.1677
 4000SOL     OW15771   3.242   3.743   4.918 -0.3930 -0.0150 -0.3574
 4000SOL    HW215772   3.235   3.648   4.914 -1.8895  0.0726 -0.4284
 4000SOL    HW315773   3.151   3.774   4.912  0.1524  1.4603 -1.5677
 4000SOL    MW415774   3.229   3.735   4.917 -0.3492  0.8738  0.4194
 4001SOL     OW15775   5.394   2.805   2.550  0.5616  0.5271  0.2461
 4001SOL    HW215776   5.467   2.805   2.488  0.0693  1.1858 -0.3423
 4001SOL    HW315777   5.360   2.894   2.548 -2.7722 -0.5764 -2.5317
 4001SOL    MW415778   5.399   2.817   2.542  0.2212 -0.3240 -0.5325
 4002SOL     OW15779   5.105   2.603   1.072  0.5630 -0.0088  0.4858
 4002SOL    HW215780   5.182   2.641   1.115  1.2850  0.1202 -0.8730
 4002SOL    HW315781   5.103   2.644   0.986 -0.8769 -0.2249  0.3959
 4002SOL    MW415782   5.115   2.613   1.066  0.1211 -0.0546 -0.5043
 4003SOL     OW15783   0.537   2.049   1.214  0.0939  0.6992 -0.2108
 4003SOL    HW215784   0.551   1.989   1.141  0.2052  1.0505 -0.4804
 4003SOL    HW315785   0.616   2.103   1.216 -0.1241  1.0160 -0.1402
 4003SOL    MW415786   0.549   2.048   1.205  0.1805  0.1317  0.7103
 4004SOL     OW15787   4.284   0.145   3.875  0.5273 -0.4219 -0.1506
 4004SOL    HW215788   4.324   0.126   3.790  0.0023 -1.5716 -0.1591
 4004SOL    HW315789   4.203   0.192   3.853  1.3624  1.1003 -0.1693
 4004SOL    MW415790   4.279   0.149   3.861  0.0421  0.1874  0.9496
 4005SOL     OW15791   1.272   0.220   5.365  0.4842  0.0965  0.2649
 4005SOL    HW215792   1.327   0.146   5.389  0.4224 -0.0551 -0.0603
 4005SOL    HW315793   1.183   0.184   5.361  0.5063  0.0938 -0.2905
 4005SOL    MW415794   1.267   0.206   5.368 -0.5476 -0.1734  0.2097
 4006SOL     OW15795   2.783   2.988   4.214 -0.3138  0.0501  0.4189
 4006SOL    HW215796   2.760   2.952   4.299 -0.7483 -0.4852  0.0913
 4006SOL    HW315797   2.804   2.911   4.160 -2.0030  0.1835 -0.5102
 4006SOL    MW415798   2.782   2.973   4.218 -0.8430 -0.1015 -0.0139
 4007SOL     OW15799   5.159   2.335   1.081 -0.0025  0.0033 -0.0867
 4007SOL    HW215800   5.206   2.304   1.003  0.5083  0.0324  0.2016
 4007SOL    HW315801   5.147   2.428   1.067  1.8885  0.4179  0.7506
 4007SOL    MW415802   5.164   2.343   1.069  0.0178 -0.1624 -0.1880
 4008SOL     OW15803   3.585   3.456   2.792 -0.4056 -0.1695  0.2144
 4008SOL    HW215804   3.650   3.526   2.784  0.3271 -0.6616  1.5772
 4008SOL    HW315805   3.574   3.445   2.886 -1.4388 -1.0574  0.0031
 4008SOL    MW415806   3.592   3.464   2.803 -0.3611 -0.2119  0.1851
 4009SOL     OW15807   5.039   0.901   0.166 -0.0612 -0.4637 -0.2803
 4009SOL    HW215808   5.061   0.952   0.088  1.2451 -2.2859 -1.1586
 4009SOL    HW315809   4.971   0.841   0.137  0.6708 -1.3825 -0.1323
 4009SOL    MW415810   5.033   0.900   0.152 -0.3634  0.2255  0.3093
 4010SOL     OW15811   2.776   0.420   2.868  0.7897 -0.1568  0.3988
 4010SOL    HW215812   2.762   0.433   2.775 -0.3118  2.8336  0.8676
 4010SOL    HW315813   2.784   0.325   2.878  0.1334 -0.6333 -2.5962
 4010SOL    MW415814   2.775   0.409   2.857  0.0828  0.8548  0.5681
 4011SOL     OW15815   5.333   4.972   5.924  0.2011  0.0449 -0.3628
 4011SOL    HW215816   5.360   4.945   5.836 -1.4144 -1.1307 -0.5424
 4011SOL    HW315817   5.323   4.890   5.972 -0.5375  0.5857  0.4208
 4011SOL    MW415818   5.336   4.958   5.918 -0.0564 -0.0337 -0.3680
 4012SOL     OW15819   6.293   0.714   4.377 -0.4350  0.6126  0.2690
 4012SOL    HW215820   6.295   0.784   4.312 -2.4506  0.5543  0.0807
 4012SOL    HW315821   6.279   0.758   4.461 -0.4611  0.5149  0.3168
 4012SOL    MW415822   6.291   0.729   4.380  0.6227  0.4614 -0.0752
 4013SOL     OW15823   2.482   0.280   2.418 -0.0037 -0.6669 -0.2632
 4013SOL    HW215824   2.418   0.348   2.397 -0.2599 -0.3014  1.5546
 4013SOL    HW315825   2.457   0.249   2.505  2.6433 -0.0280  0.8310
 4013SOL    MW415826   2.470   0.285   2.427  0.0511  0.4531 -0.5299
 4014SOL     OW15827   6.082   5.431   6.422 -0.0906  0.3468 -0.3933
 4014SOL    HW215828   6.109   5.446   6.331  0.3513 -1.0253 -0.5087
 4014SOL    HW315829   6.139   5.488   6.474 -0.5345  1.3501 -0.9790
 4014SOL    MW415830   6.093   5.440   6.417 -0.0206 -0.1698  0.8812
 4015SOL     OW15831   5.457   1.074   0.114  0.1610  0.1260  0.1870
 4015SOL    HW215832   5.391   1.043   0.177  0.3509  0.6144  0.6349
 4015SOL    HW315833   5.538   1.033   0.141  0.0476 -0.4777 -0.3674
 4015SOL    MW415834   5.459   1.065   0.126  0.5761 -0.6259 -0.4729
 4016SOL     OW15835   4.511   3.183   3.397  0.1082 -0.3240 -0.1972
 4016SOL    HW215836   4.588   3.169   3.342  1.1428 -0.4831  1.2424
 4016SOL    HW315837   4.524   3.271   3.434 -0.2335 -0.4891  0.3192
 4016SOL    MW415838   4.522   3.193   3.395  0.2975 -0.2112 -0.2386
 4017SOL     OW15839   4.463   6.136   0.490 -0.2822 -0.5467 -0.3903
 4017SOL    HW215840   4.444   6.225   0.518  1.2360 -0.2626 -0.1569
 4017SOL    HW315841   4.533   6.145   0.425 -0.6721 -1.5159 -0.9669
 4017SOL    MW415842   4.470   6.149   0.485  0.1553 -0.3697  0.2388
 4018SOL     OW15843   6.318   1.753   5.649  0.2010  0.7472  0.1513
 4018SOL    HW215844   6.393   1.747   5.709  0.5320  0.1179 -0.3204
 4018SOL    HW315845   6.255   1.809   5.696 -0.3947 -1.3299  2.0172
 4018SOL    MW415846   6.319   1.759   5.663  0.0275 -0.4476 -0.0055
 4019SOL     OW15847   3.409   0.170   4.023 -0.0435 -0.5420  0.2610
 4019SOL    HW215848   3.463   0.145   3.948  0.7844 -1.8177  1.2283
 4019SOL    HW315849   3.397   0.264   4.014  2.2227 -0.2245 -0.0949
 4019SOL    MW415850   3.415   0.179   4.012  0.1819  0.3025 -0.1740
 4020SOL     OW15851   0.066   5.601   1.582 -0.5916  1.0171 -0.1914
 4020SOL    HW215852   0.123   5.559   1.517 -0.7042 -0.3674  0.5647
 4020SOL    HW315853  -0.016   5.616   1.535 -0.1588  1.4893 -0.8136
 4020SOL    MW415854   0.063   5.597   1.567 -0.2433 -0.0989 -0.3723
 4021SOL     OW15855   6.276   5.281   1.116 -0.4149  0.3771 -0.1357
 4021SOL    HW215856   6.302   5.373   1.127  2.1546 -0.3210  0.2509
 4021SOL    HW315857   6.253   5.252   1.204 -0.0961  0.3418 -0.0634
 4021SOL    MW415858   6.276   5.289   1.129  0.0121 -0.1465  0.6359
 4022SOL     OW15859   5.601   2.347   5.214  0.1668 -0.6432 -0.1311
 4022SOL    HW215860   5.674   2.393   5.173  0.0698  0.8200  1.2442
 4022SOL    HW315861   5.524   2.379   5.168  0.0953  0.6691  0.8489
 4022SOL    MW415862   5.601   2.357   5.202 -0.3649  0.2818  0.0295
 4023SOL     OW15863   4.677   0.005   6.252 -0.3864 -0.2961 -0.5516
 4023SOL    HW215864   4.763  -0.033   6.234  0.0512  1.1948 -1.8521
 4023SOL    HW315865   4.668  -0.000   6.347  0.6397 -1.4707 -0.4797
 4023SOL    MW415866   4.687  -0.001   6.262  0.8181  0.0072  0.1087
 4024SOL     OW15867   6.256   5.373   2.664  0.0633 -0.3334 -0.3907
 4024SOL    HW215868   6.265   5.459   2.706 -1.1466 -0.6880  0.6867
 4024SOL    HW315869   6.322   5.372   2.596  0.6287  1.1527  0.0965
 4024SOL    MW415870   6.266   5.384   2.661 -0.3892 -0.0476  0.3344
 4025SOL     OW15871   4.107   2.066   5.428  0.0435  0.0745  0.0100
 4025SOL    HW215872   4.043   2.060   5.499 -0.1338 -0.3680 -0.1849
 4025SOL    HW315873   4.109   2.159   5.405 -0.5732  0.0821 -0.0237
 4025SOL    MW415874   4.099   2.078   5.434 -0.1068  0.1019 -0.2559
 4026SOL     OW15875   1.100   4.520   3.961  0.5987  0.1678 -0.2358
 4026SOL    HW215876   1.117   4.562   3.877  1.1813  1.1673  0.3647
 4026SOL    HW315877   1.025   4.462   3.944  0.8029  0.2468 -1.4660
 4026SOL    MW415878   1.092   4.518   3.948  0.3480  0.1218  0.5584
 4027SOL     OW15879   2.618   4.885   6.173 -0.2610  0.1621 -0.1398
 4027SOL    HW215880   2.653   4.962   6.127  2.4281 -1.2278 -0.6638
 4027SOL    HW315881   2.566   4.921   6.245  3.0569  2.6330  1.2984
 4027SOL    MW415882   2.616   4.900   6.176 -0.2749 -0.6522 -0.2343
 4028SOL     OW15883   2.530   3.352   4.379 -0.4778 -0.1809  0.8120
 4028SOL    HW215884   2.561   3.293   4.310  0.4795  2.2241 -0.9347
 4028SOL    HW315885   2.583   3.331   4.455  1.4365 -0.0895 -0.4380
 4028SOL    MW415886   2.541   3.341   4.380  0.3954 -0.3298 -0.3914
 4029SOL     OW15887   2.104   5.268   1.849  0.2305 -0.4362  0.7894
 4029SOL    HW215888   2.057   5.198   1.895  1.9465 -0.9109  1.9181
 4029SOL    HW315889   2.105   5.341   1.911 -0.5086  0.1938  0.0823
 4029SOL    MW415890   2.098   5.269   1.863 -0.3695 -0.5508 -0.3047
 4030SOL     OW15891   6.014   4.028   4.890  0.6275  0.4465 -0.5159
 4030SOL    HW215892   5.925   4.019   4.925  0.3907 -0.4420 -1.2865
 4030SOL    HW315893   6.069   4.044   4.966 -0.0059 -0.4361  0.1465
 4030SOL    MW415894   6.010   4.029   4.905  0.0705  0.5579  0.2787
 4031SOL     OW15895   2.676   0.563   4.809  0.5029  0.1070 -0.4947
 4031SOL    HW215896   2.736   0.492   4.786  0.9046  0.3967 -0.3509
 4031SOL    HW315897   2.649   0.600   4.725  1.5485  0.8147 -0.5394
 4031SOL    MW415898   2.680   0.558   4.795  0.0678 -0.0376  0.0916
 4032SOL     OW15899   1.707   1.160   0.573  0.4188 -0.3757  0.2784
 4032SOL    HW215900   1.682   1.117   0.491  0.4168 -2.0293  1.0981
 4032SOL    HW315901   1.803   1.164   0.570  0.3974 -0.0433  0.0132
 4032SOL    MW415902   1.717   1.155   0.562  0.1462  0.0220  0.3424
 4033SOL     OW15903   4.808   1.939   0.847 -0.0798 -0.6107 -0.0907
 4033SOL    HW215904   4.773   2.026   0.829 -0.8199 -0.8945 -0.0271
 4033SOL    HW315905   4.895   1.939   0.805 -0.6672 -0.3435 -1.3639
 4033SOL    MW415906   4.815   1.950   0.839  0.3707  0.2720 -0.4050
 4034SOL     OW15907   1.501   3.882   3.708  0.3669 -1.0040  0.1453
 4034SOL    HW215908   1.439   3.951   3.732  2.6136  2.0130 -2.0006
 4034SOL    HW315909   1.451   3.824   3.650 -0.7505  0.7559 -0.7238
 4034SOL    MW415910   1.486   3.883   3.704 -1.5426  0.0322  0.1686
 4035SOL     OW15911   1.979   2.287   2.810  0.0901  0.1116 -0.4301
 4035SOL    HW215912   2.073   2.270   2.808  0.0264 -0.2337 -2.3253
 4035SOL    HW315913   1.967   2.351   2.880  1.5828 -0.5946  0.5222
 4035SOL    MW415914   1.989   2.293   2.819  0.1299 -0.2273 -0.6576
 4036SOL     OW15915   4.546   4.558   4.661 -0.2344 -0.1407 -0.4123
 4036SOL    HW215916   4.540   4.636   4.605 -0.9974  0.3133  0.2735
 4036SOL    HW315917   4.536   4.592   4.750  0.2314 -0.9393 -0.0435
 4036SOL    MW415918   4.544   4.573   4.665  0.0014  0.6731  0.0836
 4037SOL     OW15919   2.561   1.968   2.369  0.1307 -0.0940  0.3725
 4037SOL    HW215920   2.586   2.052   2.407 -0.4998  0.4476 -0.3809
 4037SOL    HW315921   2.634   1.945   2.311 -0.6585  1.0260 -1.1089
 4037SOL    MW415922   2.574   1.976   2.366 -0.2575 -0.2282 -0.3056
 4038SOL     OW15923   3.031   1.056   3.471 -0.7269 -0.3766 -0.2255
 4038SOL    HW215924   3.079   1.138   3.459  1.3870 -1.5002  0.1027
 4038SOL    HW315925   2.986   1.043   3.388 -2.0498  1.6425  0.0951
 4038SOL    MW415926   3.031   1.065   3.459 -0.1286 -0.0119 -0.1720
 4039SOL     OW15927   5.181   0.724   6.244 -0.2996  0.4836 -0.1066
 4039SOL    HW215928   5.229   0.741   6.325 -0.3614 -1.0013  0.2733
 4039SOL    HW315929   5.245   0.681   6.187 -0.9745 -0.9616  0.1849
 4039SOL    MW415930   5.196   0.721   6.247 -0.6231  0.2888 -0.2625
 4040SOL     OW15931   5.396   0.742   2.934  0.0756  0.2649  0.0803
 4040SOL    HW215932   5.395   0.737   2.838 -2.5768  1.7303 -0.0500
 4040SOL    HW315933   5.444   0.822   2.953  1.4459 -0.5231  0.0668
 4040SOL    MW415934   5.402   0.752   2.924 -0.2992  0.2903  0.9371
 4041SOL     OW15935   3.816   0.319   0.693  0.0371 -0.0019 -0.4151
 4041SOL    HW215936   3.782   0.232   0.673  0.1654  0.3328 -2.2506
 4041SOL    HW315937   3.901   0.303   0.732 -0.6487 -0.7298  0.8452
 4041SOL    MW415938   3.822   0.305   0.695  0.5796  0.2504  0.1537
 4042SOL     OW15939   1.307   0.136   5.663  0.8704 -0.3384  0.3863
 4042SOL    HW215940   1.252   0.191   5.719  1.0244 -2.2079  2.5424
 4042SOL    HW315941   1.380   0.192   5.637 -1.5327  1.9945 -1.9287
 4042SOL    MW415942   1.309   0.150   5.667  0.1370 -0.2458  0.1587
 4043SOL     OW15943   0.661   5.299   5.354 -0.5936  0.5942  0.3541
 4043SOL    HW215944   0.625   5.356   5.287 -0.8412  0.2156  0.1595
 4043SOL    HW315945   0.739   5.262   5.314 -0.6920  0.4376  0.3055
 4043SOL    MW415946   0.666   5.301   5.340 -0.6627 -0.0264 -0.4849
 4044SOL     OW15947   6.025   4.874   3.321  0.3663 -0.3377 -0.1773
 4044SOL    HW215948   6.099   4.927   3.293  0.2075  0.1385  0.3047
 4044SOL    HW315949   5.952   4.904   3.266  0.2265  0.0993  0.2370
 4044SOL    MW415950   6.025   4.885   3.310 -0.0919 -0.3706  0.6468
 4045SOL     OW15951   0.403   1.068   4.788 -0.9178  0.1092  0.2013
 4045SOL    HW215952   0.362   1.017   4.719  0.5089  0.6619 -1.1140
 4045SOL    HW315953   0.478   1.016   4.816 -0.2977  0.8085 -0.1279
 4045SOL    MW415954   0.408   1.055   4.782 -0.9123  0.3740 -0.0261
 4046SOL     OW15955   3.291   4.010   2.876 -0.5434 -0.6037  0.2736
 4046SOL    HW215956   3.241   4.092   2.870 -0.4486 -0.6397 -2.1634
 4046SOL    HW315957   3.382   4.037   2.881 -0.5011 -0.5240 -0.7008
 4046SOL    MW415958   3.296   4.024   2.876 -0.1456 -0.1524 -0.1739
 4047SOL     OW15959   6.393   2.626   0.543  0.0305  0.1328 -0.2696
 4047SOL    HW215960   6.409   2.532   0.538 -0.4797  0.0379 -0.2389
 4047SOL    HW315961   6.314   2.633   0.597  0.3742  0.6085  0.1809
 4047SOL    MW415962   6.385   2.614   0.550  0.3012  0.0264 -0.4345
 4048SOL     OW15963   5.468   3.926   3.698 -0.1193 -0.3976 -0.4508
 4048SOL    HW215964   5.403   3.952   3.633 -1.8339  2.9038  2.2353
 4048SOL    HW315965   5.424   3.860   3.751  0.4957 -1.5455 -1.3437
 4048SOL    MW415966   5.454   3.921   3.696 -0.0381  0.5314  0.0309
 4049SOL     OW15967   1.183   5.110   6.203 -0.3725 -0.1295  0.0314
 4049SOL    HW215968   1.174   5.051   6.129 -0.7284 -0.0895  0.0399
 4049SOL    HW315969   1.101   5.161   6.203 -0.4006 -0.1734  0.4869
 4049SOL    MW415970   1.171   5.109   6.193  0.3089 -0.0495  0.3431
 4050SOL     OW15971   5.178   1.260   4.025 -0.1442 -0.4079  0.6301
 4050SOL    HW215972   5.185   1.290   4.115 -1.0718 -0.4089  0.7091
 4050SOL    HW315973   5.242   1.313   3.977  0.0477 -0.1120  1.2065
 4050SOL    MW415974   5.188   1.271   4.030 -0.2284  0.2548 -0.1891
 4051SOL     OW15975   5.079   2.006   0.697 -0.0304 -0.1908  0.2147
 4051SOL    HW215976   5.037   2.017   0.611 -1.9668 -1.2484  0.9587
 4051SOL    HW315977   5.127   2.087   0.710  1.5906 -0.5918 -2.5054
 4051SOL    MW415978   5.080   2.018   0.687 -0.5827  0.2852 -0.1045
 4052SOL     OW15979   0.633   1.058   1.244 -0.1952 -0.0635 -0.1708
 4052SOL    HW215980   0.619   1.134   1.188 -0.7116 -0.7064 -0.9398
 4052SOL    HW315981   0.546   1.020   1.256  0.0634 -0.5815  0.1332
 4052SOL    MW415982   0.620   1.063   1.238  0.1383 -0.3118 -0.1134
 4053SOL     OW15983   5.059   1.664   5.176 -0.2381  0.6146 -0.0566
 4053SOL    HW215984   5.141   1.614   5.181 -0.4405  0.3337  0.5379
 4053SOL    HW315985   5.064   1.726   5.248 -0.9807 -0.0717  0.6081
 4053SOL    MW415986   5.070   1.665   5.186  0.3106  0.2575  0.0630
 4054SOL     OW15987   3.468   0.777   6.267  0.7112 -0.1938 -0.3757
 4054SOL    HW215988   3.418   0.696   6.255  0.5466 -0.0186 -0.9017
 4054SOL    HW315989   3.443   0.807   6.355  0.1952 -0.3175 -0.4771
 4054SOL    MW415990   3.458   0.770   6.277 -0.1517 -0.1169 -0.0354
 4055SOL     OW15991   3.022   4.736   4.710  0.4060 -0.5066 -0.0682
 4055SOL    HW215992   3.028   4.820   4.663  1.0547 -0.1173  0.6876
 4055SOL    HW315993   3.031   4.670   4.641  2.2018  0.0582 -0.4445
 4055SOL    MW415994   3.024   4.738   4.694 -0.3425  0.1997  0.5128
 4056SOL     OW15995   4.153   0.852   5.455 -0.6321  0.1840 -0.0229
 4056SOL    HW215996   4.069   0.866   5.498 -0.8212 -0.3342 -0.2070
 4056SOL    HW315997   4.139   0.881   5.365 -0.7850 -0.4007 -0.1959
 4056SOL    MW415998   4.140   0.858   5.449  0.0238 -0.3781  0.5000
 4057SOL     OW15999   3.521   4.927   1.702 -0.4580 -0.5646 -0.3728
 4057SOL    HW216000   3.570   4.852   1.666  2.1670  0.8949 -0.0666
 4057SOL    HW316001   3.581   5.001   1.695 -2.0841  1.0611  1.5125
 4057SOL    MW416002   3.535   4.927   1.696 -0.0831 -0.2205  0.2920
 4058SOL     OW16003   2.966   5.966   0.062 -0.5229 -1.2533  0.0489
 4058SOL    HW216004   2.952   5.917  -0.019 -0.5577 -0.8989 -0.1624
 4058SOL    HW316005   3.027   6.036   0.038 -0.0666 -1.5057  0.4712
 4058SOL    MW416006   2.972   5.969   0.048 -0.4848  0.0728 -0.1044
 4059SOL     OW16007   5.208   5.678   5.023 -0.0448 -0.7970 -0.0567
 4059SOL    HW216008   5.192   5.706   5.113 -0.3876 -1.2264  0.0216
 4059SOL    HW316009   5.258   5.749   4.984  0.0074 -0.5560  0.4404
 4059SOL    MW416010   5.212   5.691   5.030  0.0625  0.0002 -0.0107
 4060SOL     OW16011   2.496   4.654   5.756 -0.5928 -0.0842 -0.4252
 4060SOL    HW216012   2.466   4.745   5.752 -0.8041 -0.0275  1.4727
 4060SOL    HW316013   2.591   4.660   5.762 -0.5115 -0.0619 -1.5399
 4060SOL    MW416014   2.505   4.667   5.757  0.4275 -0.1480  0.1494
 4061SOL     OW16015   2.671   6.233   2.522 -0.5369  0.0640 -0.1466
 4061SOL    HW216016   2.627   6.161   2.566  0.5614 -1.6990 -1.7645
 4061SOL    HW316017   2.765   6.212   2.528 -0.1743  1.4104 -0.5771
 4061SOL    MW416018   2.678   6.221   2.528  0.0641  0.2091 -0.3921
 4062SOL     OW16019   4.967   6.358   4.755 -0.1393 -0.1668 -0.1333
 4062SOL    HW216020   4.922   6.274   4.758  0.3086 -0.3887  0.7554
 4062SOL    HW316021   5.049   6.340   4.709  0.1209 -0.3054  0.3772
 4062SOL    MW416022   4.972   6.345   4.749 -0.2752  0.0933  0.2831
 4063SOL     OW16023   2.989   4.273   0.908  0.2487  0.4392  0.1463
 4063SOL    HW216024   3.066   4.243   0.860 -0.8139 -0.6458 -0.9773
 4063SOL    HW316025   2.960   4.351   0.861 -0.4742 -0.3076 -0.6746
 4063SOL    MW416026   2.995   4.279   0.895  0.6053 -0.3704  0.0408
 4064SOL     OW16027   4.615   2.671   1.518  0.1897 -0.5741 -0.1861
 4064SOL    HW216028   4.558   2.736   1.478 -2.2607 -1.3688  1.7222
 4064SOL    HW316029   4.702   2.690   1.484 -1.2414  0.3680 -3.7500
 4064SOL    MW416030   4.619   2.682   1.508 -0.1471 -0.0419  0.7685
 4065SOL     OW16031   1.610   6.191   2.942 -0.0901  0.0802 -0.1169
 4065SOL    HW216032   1.515   6.203   2.951 -0.0493  1.4100 -1.1629
 4065SOL    HW316033   1.623   6.173   2.849  0.6894 -0.2577  0.0455
 4065SOL    MW416034   1.599   6.190   2.931  0.0734 -0.6529  0.4368
 4066SOL     OW16035   1.173   4.258   5.454 -0.7038  0.0855 -0.0429
 4066SOL    HW216036   1.176   4.285   5.362  0.0274  0.8778  0.2032
 4066SOL    HW316037   1.095   4.202   5.460 -0.2543 -0.7053 -1.3221
 4066SOL    MW416038   1.163   4.254   5.443  0.3575 -0.0101  0.3516
 4067SOL     OW16039   6.282   2.299   2.667  0.0298  0.5397 -0.1025
 4067SOL    HW216040   6.189   2.318   2.653 -0.1401 -0.5854 -0.6758
 4067SOL    HW316041   6.282   2.234   2.737  0.4281  0.9400  0.2747
 4067SOL    MW416042   6.270   2.293   2.675 -0.8605  0.5363  0.4603
 4068SOL     OW16043   5.198   3.428   5.156  0.1168  0.2912  0.0919
 4068SOL    HW216044   5.161   3.502   5.107 -0.5879 -0.8822 -1.2399
 4068SOL    HW316045   5.217   3.463   5.242 -1.0176  1.8049 -0.2318
 4068SOL    MW416046   5.196   3.442   5.161  0.7254 -0.4447  0.2352
 4069SOL     OW16047   4.628   0.279   6.175 -0.0810  0.5900  0.4218
 4069SOL    HW216048   4.640   0.195   6.220  2.4487  0.3661 -0.5310
 4069SOL    HW316049   4.550   0.267   6.121 -0.2355 -0.8414  0.9298
 4069SOL    MW416050   4.619   0.267   6.174  0.1638  0.1970 -0.5474
 4070SOL     OW16051   1.212   2.651   1.338  0.0466 -1.1687  0.4730
 4070SOL    HW216052   1.247   2.588   1.274 -1.2323 -0.6509 -0.7982
 4070SOL    HW316053   1.121   2.625   1.351 -0.9195  1.0709 -1.0675
 4070SOL    MW416054   1.205   2.640   1.331  0.1312  0.4387 -0.1503
 4071SOL     OW16055   1.747   2.464   4.952  0.6814 -0.5524 -0.6895
 4071SOL    HW216056   1.751   2.434   4.861 -0.4453 -0.6244 -0.7350
 4071SOL    HW316057   1.834   2.499   4.970  0.9856 -0.7467 -1.7211
 4071SOL    MW416058   1.759   2.464   4.942 -0.4891  0.4884  0.1796
 4072SOL     OW16059   3.586   5.750   2.257  0.4143 -0.2976  0.3170
 4072SOL    HW216060   3.653   5.701   2.304  0.2928  1.1274  2.1094
 4072SOL    HW316061   3.503   5.712   2.285  0.3983 -0.9232 -0.5463
 4072SOL    MW416062   3.584   5.739   2.267  0.7496  0.2069 -0.0266
 4073SOL     OW16063   5.864   6.133   3.716 -0.2295  0.3400 -0.4430
 4073SOL    HW216064   5.772   6.108   3.707  0.4247 -1.9538 -1.5950
 4073SOL    HW316065   5.907   6.055   3.750  1.0957  1.9006  1.7442
 4073SOL    MW416066   5.857   6.119   3.719  0.1012  0.0294 -0.0793
 4074SOL     OW16067   0.225   3.978   2.242 -0.0851  0.2028 -0.1839
 4074SOL    HW216068   0.216   4.037   2.317 -1.0438  0.0936 -0.1951
 4074SOL    HW316069   0.255   4.034   2.171  1.1041  0.2553  0.3415
 4074SOL    MW416070   0.228   3.993   2.243 -0.3375  0.3403 -0.5677
 4075SOL     OW16071   5.491   5.219   5.619  0.0547  0.1600  0.0130
 4075SOL    HW216072   5.560   5.227   5.684 -1.2834  1.5852  1.3486
 4075SOL    HW316073   5.526   5.266   5.542  0.6953  0.6102  0.5656
 4075SOL    MW416074   5.505   5.226   5.617  0.1451 -0.1999  0.2914
 4076SOL     OW16075   2.116   1.094   1.942 -0.4002  0.0268 -0.2838
 4076SOL    HW216076   2.084   1.141   1.866 -0.4431  1.1852  0.4272
 4076SOL    HW316077   2.211   1.108   1.942 -0.4291  0.2310  0.0056
 4076SOL    MW416078   2.125   1.102   1.932 -0.1433  0.3691 -0.2621
 4077SOL     OW16079   5.929   3.775   3.069  0.1513 -0.6972 -0.8026
 4077SOL    HW216080   5.993   3.708   3.092  1.1545  0.6222  0.5032
 4077SOL    HW316081   5.975   3.858   3.084 -0.9217  0.3118 -2.6696
 4077SOL    MW416082   5.944   3.777   3.074  0.1841  0.2068  0.8082
 4078SOL     OW16083   5.755   4.343   2.888  0.3723 -0.0633 -0.1670
 4078SOL    HW216084   5.738   4.285   2.814 -1.3387 -1.2932  1.1372
 4078SOL    HW316085   5.839   4.313   2.923  1.2813  0.6328 -1.6431
 4078SOL    MW416086   5.764   4.332   2.883  0.8095 -0.0368  1.1308
 4079SOL     OW16087   3.225   4.009   4.045 -0.7010 -0.0360  0.0699
 4079SOL    HW216088   3.241   3.915   4.056  1.0807  0.2324  0.0771
 4079SOL    HW316089   3.264   4.049   4.123 -0.6141  0.7764 -0.3750
 4079SOL    MW416090   3.232   4.002   4.057  0.2948 -0.3267  0.1361
 4080SOL     OW16091   2.751   5.574   0.436 -0.9114 -0.0676  0.4258
 4080SOL    HW216092   2.812   5.566   0.510  0.8889  2.3351 -0.6596
 4080SOL    HW316093   2.801   5.544   0.361 -1.2839  1.2104 -0.3703
 4080SOL    MW416094   2.765   5.569   0.436  0.0383 -0.3794  0.1956
 4081SOL     OW16095   5.403   5.054   1.761  0.0423  0.1759  0.4372
 4081SOL    HW216096   5.408   5.009   1.677  0.2926  0.8430  0.0908
 4081SOL    HW316097   5.441   5.140   1.745  2.8515 -0.6560  1.9292
 4081SOL    MW416098   5.409   5.059   1.748  0.2703  0.0762  0.1691
 4082SOL     OW16099   0.359   3.518   2.275  0.3708  0.1951  0.2995
 4082SOL    HW216100   0.431   3.484   2.327  0.9663  0.0746 -0.5809
 4082SOL    HW316101   0.381   3.610   2.259 -0.6679  0.7101  1.7039
 4082SOL    MW416102   0.371   3.525   2.279  0.5292  0.0687  0.2495
 4083SOL     OW16103   0.874   5.295   0.776  0.1548 -0.3121 -0.4610
 4083SOL    HW216104   0.782   5.318   0.766 -0.2553 -1.9874 -0.8647
 4083SOL    HW316105   0.875   5.224   0.840  0.7612 -2.5087 -2.7598
 4083SOL    MW416106   0.862   5.289   0.783 -0.0701  0.2539 -0.1019
 4084SOL     OW16107   0.341   4.879   3.712 -0.0974 -0.4065 -0.2484
 4084SOL    HW216108   0.246   4.876   3.700 -0.3270  1.1378  0.8936
 4084SOL    HW316109   0.353   4.896   3.805  1.3827 -2.7718  0.0756
 4084SOL    MW416110   0.330   4.881   3.723 -0.5562  0.2653  0.0331
 4085SOL     OW16111   5.565   6.318   5.065  0.1350  0.1103 -0.1616
 4085SOL    HW216112   5.625   6.291   5.135  1.3829  0.4450 -1.0729
 4085SOL    HW316113   5.528   6.235   5.033  0.5621 -0.1549  0.0177
 4085SOL    MW416114   5.568   6.303   5.070 -0.1910  0.6272  0.0646
 4086SOL     OW16115   5.441   3.489   2.995 -0.1286  0.2605  0.1588
 4086SOL    HW216116   5.377   3.499   3.066  0.5070 -0.5456  0.8694
 4086SOL    HW316117   5.434   3.397   2.969  0.2147  0.3528 -0.2743
 4086SOL    MW416118   5.431   3.478   3.001 -0.2909  0.4562 -0.0670
 4087SOL     OW16119   1.048   5.302   1.540 -0.3229 -0.6154  0.5164
 4087SOL    HW216120   1.086   5.275   1.623  2.7454 -1.6318 -1.0830
 4087SOL    HW316121   1.051   5.398   1.542 -0.7480 -0.6068  1.7156
 4087SOL    MW416122   1.053   5.311   1.551  0.4542  0.1475  0.4303
 4088SOL     OW16123   5.111   5.829   3.260  0.5459 -0.0842  0.7035
 4088SOL    HW216124   5.047   5.771   3.303  0.5802  0.4435  1.4966
 4088SOL    HW316125   5.194   5.810   3.305  0.3302  1.3913  1.7874
 4088SOL    MW416126   5.114   5.819   3.272 -0.1027 -0.0858  0.0504
 4089SOL     OW16127   5.715   5.744   3.704 -0.5975  0.1090  0.4116
 4089SOL    HW216128   5.721   5.651   3.685 -2.8221  0.1604 -0.9168
 4089SOL    HW316129   5.645   5.752   3.769  0.2472  0.8050  1.2770
 4089SOL    MW416130   5.706   5.733   3.710  0.3737  0.3497  0.0218
 4090SOL     OW16131   5.791   3.047   2.296  0.0118  0.6416 -0.1447
 4090SOL    HW216132   5.744   3.130   2.303  0.0507  0.5542  1.7665
 4090SOL    HW316133   5.722   2.981   2.291 -0.0213  0.7290 -0.9945
 4090SOL    MW416134   5.775   3.050   2.296 -0.5264  0.0162 -0.1436
 4091SOL     OW16135   5.175   2.377   3.763 -0.4599  0.3805 -0.2276
 4091SOL    HW216136   5.119   2.437   3.813  0.5369  0.1295  1.2472
 4091SOL    HW316137   5.131   2.369   3.678 -1.3459  2.1023  0.0209
 4091SOL    MW416138   5.162   2.384   3.758 -0.7316  0.2723 -0.2229
 4092SOL     OW16139   3.863   6.007   0.800 -0.4371  0.3350 -0.3291
 4092SOL    HW216140   3.777   5.965   0.800 -0.4416  0.2693 -2.2010
 4092SOL    HW316141   3.845   6.100   0.818 -0.7627  0.1111  0.5113
 4092SOL    MW416142   3.850   6.014   0.802  0.5573 -0.3207 -0.1290
 4093SOL     OW16143   2.738   0.426   2.580 -0.1140 -0.0616 -0.3926
 4093SOL    HW216144   2.645   0.437   2.598  0.3461  1.1278  1.6219
 4093SOL    HW316145   2.761   0.497   2.520 -0.0157  1.3828  1.2725
 4093SOL    MW416146   2.729   0.437   2.575 -0.4503 -0.0545  0.6839
 4094SOL     OW16147   6.165   3.868   1.514 -0.1421  0.3970 -0.2612
 4094SOL    HW216148   6.218   3.794   1.484 -0.5550  0.2352 -0.6029
 4094SOL    HW316149   6.196   3.943   1.464  1.4274  0.8256  1.2660
 4094SOL    MW416150   6.176   3.868   1.504 -0.1764  0.3895  0.4292
 4095SOL     OW16151   0.543   5.176   6.193 -0.2601  0.2956 -0.1382
 4095SOL    HW216152   0.585   5.144   6.273 -0.6189 -0.6868 -0.3286
 4095SOL    HW316153   0.604   5.153   6.123 -0.0700  0.9167 -0.1835
 4095SOL    MW416154   0.557   5.168   6.194 -0.2978  0.3411 -0.4539
 4096SOL     OW16155   1.171   2.161   6.166  0.1719 -0.0092 -0.6468
 4096SOL    HW216156   1.082   2.130   6.150  0.5056 -0.2315 -2.2014
 4096SOL    HW316157   1.211   2.093   6.220 -0.7160  0.2952  0.4270
 4096SOL    MW416158   1.165   2.148   6.171  0.8213 -0.5193  1.0606
 4097SOL     OW16159   2.871   2.686   4.154  0.2842  0.5992  0.9067
 4097SOL    HW216160   2.847   2.593   4.155  0.4486  0.5578  1.7192
 4097SOL    HW316161   2.947   2.690   4.095  1.2797 -0.0563  2.0874
 4097SOL    MW416162   2.878   2.674   4.146  0.5500  0.0421  0.3827
 4098SOL     OW16163   0.174   1.705   1.808  0.3704 -0.6362 -0.1126
 4098SOL    HW216164   0.113   1.737   1.742  0.1966 -0.9734 -0.1124
 4098SOL    HW316165   0.125   1.708   1.890 -0.1136 -2.2234 -0.3137
 4098SOL    MW416166   0.160   1.710   1.810  0.5313  0.2162  0.2391
 4099SOL     OW16167   2.840   3.774   3.321  0.7077 -0.0910 -0.8225
 4099SOL    HW216168   2.794   3.690   3.328  0.1027  0.1414 -1.7868
 4099SOL    HW316169   2.906   3.759   3.254 -0.2262  0.5461 -1.9035
 4099SOL    MW416170   2.842   3.761   3.313 -0.0779  0.1655 -0.1425
 4100SOL     OW16171   1.935   5.844   2.258 -0.1655  0.0875  0.3263
 4100SOL    HW216172   1.904   5.882   2.341 -1.4906  2.2361 -1.0538
 4100SOL    HW316173   1.862   5.789   2.229  0.0662 -0.2114  0.3093
 4100SOL    MW416174   1.921   5.842   2.265  0.1020  0.1589 -0.0007
 4101SOL     OW16175   3.142   0.123   4.395  0.1086 -0.6481 -0.2657
 4101SOL    HW216176   3.083   0.169   4.335  0.3141 -0.7699 -0.5655
 4101SOL    HW316177   3.092   0.046   4.423 -0.0118 -0.5573 -0.2289
 4101SOL    MW416178   3.128   0.119   4.391  0.4069 -1.0239 -0.0434
 4102SOL     OW16179   2.977   2.373   2.309 -0.2535 -0.0132  0.2151
 4102SOL    HW216180   2.971   2.363   2.214  1.2861 -0.3900  0.1274
 4102SOL    HW316181   2.957   2.286   2.344  3.0417 -0.9961 -0.0205
 4102SOL    MW416182   2.974   2.360   2.301 -0.6667 -0.2449 -0.3136
 4103SOL     OW16183   0.419   5.389   2.895  0.0288 -0.0538 -0.3758
 4103SOL    HW216184   0.404   5.476   2.859 -0.2015 -0.0654 -0.3061
 4103SOL    HW316185   0.359   5.382   2.969 -0.5598 -0.5943 -0.8969
 4103SOL    MW416186   0.409   5.399   2.900  0.3331 -0.1153  0.2078
 4104SOL     OW16187   1.690   6.350   4.339 -0.0898  0.0715 -0.0759
 4104SOL    HW216188   1.711   6.419   4.277 -0.5624 -0.7038 -1.1169
 4104SOL    HW316189   1.636   6.393   4.405 -0.5235  0.6587 -0.7977
 4104SOL    MW416190   1.686   6.365   4.340  0.5209  0.1031  0.0695
 4105SOL     OW16191   4.024   2.141   0.699 -0.0349  0.6020 -1.0261
 4105SOL    HW216192   3.963   2.162   0.770  0.1037  0.1005 -0.7537
 4105SOL    HW316193   3.974   2.083   0.642  0.0522  0.5221 -1.0206
 4105SOL    MW416194   4.009   2.136   0.701 -0.1988  0.5685 -0.2296
 4106SOL     OW16195   6.117   0.880   3.174 -0.5981 -0.8380 -0.5092
 4106SOL    HW216196   6.192   0.922   3.132  0.0216 -1.7875 -0.3859
 4106SOL    HW316197   6.138   0.787   3.173 -0.0900 -0.8699  2.7316
 4106SOL    MW416198   6.130   0.873   3.169  0.4523 -0.2617 -0.3634
 4107SOL     OW16199   2.465   0.287   5.486 -0.0879 -0.4845 -0.1494
 4107SOL    HW216200   2.370   0.299   5.489  0.1029  1.2327  2.3432
 4107SOL    HW316201   2.496   0.362   5.434 -0.0327 -0.2840  0.1680
 4107SOL    MW416202   2.456   0.299   5.480  0.3337 -0.5350 -0.3103
 4108SOL     OW16203   6.127   0.560   6.041  0.4324 -0.2607 -0.2033
 4108SOL    HW216204   6.118   0.548   6.136  2.6986 -2.4535 -0.1485
 4108SOL    HW316205   6.042   0.593   6.013 -0.3664  0.3479  2.5520
 4108SOL    MW416206   6.115   0.563   6.050 -0.1749  0.6482  0.2851
 4109SOL     OW16207   0.491   2.445   2.925 -0.9872  0.9711 -0.3828
 4109SOL    HW216208   0.550   2.431   2.851 -1.5360 -0.5042 -0.5840
 4109SOL    HW316209   0.416   2.389   2.906 -0.8778  0.0735  1.5857
 4109SOL    MW416210   0.489   2.436   2.912 -0.2244  0.0024 -0.3005
 4110SOL     OW16211   3.865   1.367   3.852  0.3602 -0.3627  0.3544
 4110SOL    HW216212   3.788   1.325   3.889  0.0694 -0.9952 -0.9039
 4110SOL    HW316213   3.925   1.294   3.832  0.6052 -0.0273 -0.1648
 4110SOL    MW416214   3.863   1.352   3.854 -1.8396 -0.2711  0.2280
 4111SOL     OW16215   0.156   0.681   3.004 -0.2367 -0.3670 -0.1628
 4111SOL    HW216216   0.182   0.594   3.034 -0.6343  0.0826  1.6239
 4111SOL    HW316217   0.176   0.738   3.077 -1.6744  0.7528 -0.6047
 4111SOL    MW416218   0.162   0.677   3.017 -0.0148  0.0634  0.1931
 4112SOL     OW16219   0.825   2.151   4.967  0.1859 -0.4340  0.5692
 4112SOL    HW216220   0.848   2.058   4.971  0.0722 -0.7058 -2.5079
 4112SOL    HW316221   0.730   2.152   4.960  0.1895 -0.0861  0.5593
 4112SOL    MW416222   0.816   2.139   4.966  0.0937  0.0111  0.1320
 4113SOL     OW16223   5.679   1.826   6.063 -0.7702 -0.3060  0.3478
 4113SOL    HW216224   5.768   1.794   6.052 -0.5933 -0.2112  1.4627
 4113SOL    HW316225   5.634   1.799   5.982  0.5012  0.5139 -0.6725
 4113SOL    MW416226   5.685   1.818   6.051  0.3693 -0.2818  0.4213
 4114SOL     OW16227   1.735   0.270   1.370  0.3408 -0.3903  0.2893
 4114SOL    HW216228   1.828   0.281   1.389  0.4464 -2.7625  1.5953
 4114SOL    HW316229   1.695   0.353   1.394  2.0880  0.6126 -0.1268
 4114SOL    MW416230   1.742   0.282   1.376  0.0233 -0.0027 -0.0961
 4115SOL     OW16231   3.320   5.481   4.913  0.6190 -0.1259 -0.0791
 4115SOL    HW216232   3.390   5.525   4.865 -0.4276  2.3254  0.5011
 4115SOL    HW316233   3.297   5.406   4.858  1.8441  0.5829 -1.6394
 4115SOL    MW416234   3.326   5.477   4.899 -0.3356  0.2380 -0.1550
 4116SOL     OW16235   4.672   0.798   4.536  0.1562 -0.0384 -0.7360
 4116SOL    HW216236   4.761   0.784   4.568 -0.0578 -2.7237 -1.0859
 4116SOL    HW316237   4.622   0.821   4.614 -0.0762 -5.0537  0.9346
 4116SOL    MW416238   4.677   0.799   4.551 -0.5630  0.2932  0.2287
 4117SOL     OW16239   2.820   5.914   5.832 -0.2685  0.2267  0.4096
 4117SOL    HW216240   2.819   5.820   5.847  2.6344 -0.2085 -1.4053
 4117SOL    HW316241   2.761   5.927   5.758 -0.3719 -0.1952  0.4146
 4117SOL    MW416242   2.812   5.904   5.824 -0.7506  0.2006  0.1669
 4118SOL     OW16243   2.261   5.064   2.482 -0.1814  0.1230 -0.3411
 4118SOL    HW216244   2.246   5.068   2.388  0.0359  0.9224 -0.3470
 4118SOL    HW316245   2.313   5.142   2.502 -1.7677  0.9752  0.7154
 4118SOL    MW416246   2.265   5.075   2.472  0.7387  0.2074  0.6010
 4119SOL     OW16247   2.080   5.701   4.817 -0.1097  0.0737  0.5643
 4119SOL    HW216248   2.020   5.658   4.757 -0.1202  1.3442 -0.3894
 4119SOL    HW316249   2.129   5.762   4.762  1.0114  0.1317  1.5805
 4119SOL    MW416250   2.079   5.704   4.802 -0.1222 -0.1535 -0.1050
 4120SOL     OW16251   0.555   5.630   0.612  0.3659  0.3397 -0.2477
 4120SOL    HW216252   0.624   5.666   0.666 -0.2815  1.4947 -0.1487
 4120SOL    HW316253   0.504   5.707   0.584  1.4891  0.0305 -3.6951
 4120SOL    MW416254   0.557   5.645   0.615 -0.3265 -0.4372  0.0016
 4121SOL     OW16255   4.746   2.758   2.169 -0.6614 -0.0033  0.0321
 4121SOL    HW216256   4.681   2.753   2.100 -0.0860 -0.8770 -0.4697
 4121SOL    HW316257   4.733   2.844   2.209 -1.0530  0.4866 -1.1103
 4121SOL    MW416258   4.736   2.769   2.165 -0.4161 -0.1977 -0.1345
 4122SOL     OW16259   1.101   0.712   3.756  0.0321  0.6514  0.1345
 4122SOL    HW216260   1.064   0.765   3.685 -0.8439  0.7972  0.6848
 4122SOL    HW316261   1.025   0.675   3.800  0.6069 -0.5337  0.1757
 4122SOL    MW416262   1.086   0.714   3.753 -0.7141 -0.1188  0.0180
 4123SOL     OW16263   5.055   4.209   4.058 -0.6066 -0.1110  0.1459
 4123SOL    HW216264   5.014   4.290   4.089 -1.4161 -0.7543  0.8171
 4123SOL    HW316265   5.037   4.208   3.964 -2.8758 -0.7298  0.5181
 4123SOL    MW416266   5.047   4.220   4.050 -0.0065 -0.2429  0.0589
 4124SOL     OW16267   5.547   3.447   3.493 -0.2126 -0.8841  0.8065
 4124SOL    HW216268   5.548   3.384   3.421  1.9008  1.5269 -1.4537
 4124SOL    HW316269   5.630   3.432   3.539  0.1712  0.0335  0.4252
 4124SOL    MW416270   5.558   3.437   3.490  0.1909  1.4210 -0.8183
 4125SOL     OW16271   0.019   6.336   1.739 -0.3642 -0.4019 -0.1431
 4125SOL    HW216272   0.069   6.375   1.812  1.3236 -0.1070 -1.3996
 4125SOL    HW316273  -0.011   6.252   1.773  0.1415 -0.1480  0.9926
 4125SOL    MW416274   0.022   6.330   1.753 -0.4251  0.0975 -0.2330
 4126SOL     OW16275   4.681   2.912   0.817 -0.7272 -0.0340 -0.5513
 4126SOL    HW216276   4.665   2.868   0.733 -2.0280  1.7063 -1.2812
 4126SOL    HW316277   4.602   2.895   0.869 -1.3791  1.5743 -0.9501
 4126SOL    MW416278   4.669   2.904   0.813 -0.2972  0.3256  0.2760
 4127SOL     OW16279   2.890   1.333   0.133 -0.3637  0.0752  0.4334
 4127SOL    HW216280   2.958   1.270   0.112 -0.3762  0.2691 -0.2326
 4127SOL    HW316281   2.935   1.403   0.180 -0.0844  0.2419 -0.0778
 4127SOL    MW416282   2.905   1.334   0.136 -0.3344 -0.0975 -0.2158
 4128SOL     OW16283   3.128   0.751   1.856 -0.1301 -0.4003  0.0393
 4128SOL    HW216284   3.184   0.824   1.830  1.4491 -1.3264  0.6983
 4128SOL    HW316285   3.075   0.733   1.778 -1.9618  2.5970  0.4371
 4128SOL    MW416286   3.128   0.758   1.842 -0.5747 -0.3080 -0.0072
 4129SOL     OW16287   2.855   1.185   4.801 -0.4879 -0.3763 -0.1245
 4129SOL    HW216288   2.926   1.171   4.864 -2.1004  0.4157  2.0147
 4129SOL    HW316289   2.828   1.097   4.775 -0.5828 -0.7860  1.2914
 4129SOL    MW416290   2.861   1.172   4.806 -0.0010 -0.6893  0.8507
 4130SOL     OW16291   1.273   3.404   3.109 -1.0390  0.8777  0.3322
 4130SOL    HW216292   1.207   3.416   3.041  0.6915 -0.5206 -1.7049
 4130SOL    HW316293   1.263   3.313   3.136  0.0622  0.6345 -0.0432
 4130SOL    MW416294   1.263   3.394   3.104 -0.3200  0.5725 -0.4838
 4131SOL     OW16295   3.460   5.049   4.500 -0.4881 -0.3366 -0.7004
 4131SOL    HW216296   3.495   5.137   4.516  0.0765 -0.2366 -2.2871
 4131SOL    HW316297   3.477   5.033   4.407 -2.0520 -1.4803 -0.8288
 4131SOL    MW416298   3.467   5.058   4.490  0.5367 -0.2643 -0.3312
 4132SOL     OW16299   3.503   2.347   1.453 -0.3709  0.3814 -0.2177
 4132SOL    HW216300   3.561   2.423   1.445 -0.0121  0.3575  1.5845
 4132SOL    HW316301   3.507   2.325   1.546 -1.5958 -0.9701 -0.4601
 4132SOL    MW416302   3.511   2.354   1.464  0.4021  0.2819 -0.5000
 4133SOL     OW16303   3.389   0.216   0.669 -0.4188  0.2946 -0.4316
 4133SOL    HW216304   3.373   0.208   0.763  2.4033  0.4361  0.1471
 4133SOL    HW316305   3.475   0.177   0.656 -0.0843  1.6232 -2.7322
 4133SOL    MW416306   3.398   0.210   0.680 -0.5141  0.1445 -0.0763
 4134SOL     OW16307   5.885   3.663   1.718  0.0574  0.1789 -0.0585
 4134SOL    HW216308   5.906   3.677   1.626  1.0407 -0.2996  0.0792
 4134SOL    HW316309   5.916   3.574   1.736 -1.3534 -0.2520  0.3939
 4134SOL    MW416310   5.891   3.653   1.708  0.3350 -0.7003 -0.6874
 4135SOL     OW16311   5.164   0.274   1.898  0.2464 -0.7687 -0.4367
 4135SOL    HW216312   5.109   0.230   1.963  1.2102 -1.8845 -0.3562
 4135SOL    HW316313   5.102   0.302   1.830 -0.6912 -0.1115  0.6405
 4135SOL    MW416314   5.149   0.272   1.898  0.1545 -0.1457  0.1756
 4136SOL     OW16315   1.194   2.837   2.672 -0.1168  0.2562  0.3692
 4136SOL    HW216316   1.155   2.833   2.759 -0.1508  0.1317  0.3490
 4136SOL    HW316317   1.276   2.789   2.680 -1.4283 -2.3146 -0.3464
 4136SOL    MW416318   1.200   2.830   2.684  0.0410 -0.2814 -0.5938
 4137SOL     OW16319   3.341   5.407   3.921  0.8208 -0.0970  0.0517
 4137SOL    HW216320   3.302   5.475   3.977  0.2439 -0.5280  0.1825
 4137SOL    HW316321   3.360   5.452   3.839  0.0914  0.1446  0.0052
 4137SOL    MW416322   3.338   5.422   3.917 -0.5270  0.5516  0.3076
 4138SOL     OW16323   5.551   4.251   5.960  0.3833  0.1037  0.0525
 4138SOL    HW216324   5.535   4.269   5.867 -0.2019 -3.8103 -0.7786
 4138SOL    HW316325   5.495   4.176   5.980  1.6243 -0.1407  3.1953
 4138SOL    MW416326   5.541   4.243   5.950 -0.1260 -0.2798  0.2279
 4139SOL     OW16327   4.289   3.242   3.247 -0.1940  0.1940 -0.7371
 4139SOL    HW216328   4.354   3.206   3.307  0.1650  0.7303 -0.7953
 4139SOL    HW316329   4.292   3.337   3.262 -3.3917  0.0840  1.7899
 4139SOL    MW416330   4.298   3.250   3.257  0.4760 -0.1889  0.8690
 4140SOL     OW16331   5.685   3.237   1.134 -0.4004 -0.7493 -0.1630
 4140SOL    HW216332   5.700   3.161   1.077 -0.0610  0.3955 -1.6616
 4140SOL    HW316333   5.590   3.243   1.140 -0.4494 -0.7761 -0.7885
 4140SOL    MW416334   5.675   3.228   1.127  0.0622  0.5414  0.2026
 4141SOL     OW16335   6.404   0.233   1.477 -0.2280 -0.3020 -0.1516
 4141SOL    HW216336   6.351   0.311   1.487 -1.3907 -1.2418  1.5902
 4141SOL    HW316337   6.353   0.163   1.518  1.0521 -1.8609 -1.0485
 4141SOL    MW416338   6.391   0.234   1.484  0.0130 -0.0855  0.2293
 4142SOL     OW16339   0.708   1.679   5.479 -0.0525  0.1243 -0.4589
 4142SOL    HW216340   0.707   1.663   5.574 -0.9802 -1.0000 -0.6336
 4142SOL    HW316341   0.796   1.654   5.452  0.1910  0.3576  0.0971
 4142SOL    MW416342   0.719   1.673   5.488  0.4991 -0.2879  0.0971
 4143SOL     OW16343   2.534   5.379   4.054 -0.1983  0.4496  0.0512
 4143SOL    HW216344   2.595   5.306   4.045 -0.5918  0.1523 -0.2261
 4143SOL    HW316345   2.570   5.432   4.125  0.1804  0.0773  0.1382
 4143SOL    MW416346   2.547   5.376   4.062  0.4160  0.1389 -0.3481
 4144SOL     OW16347   3.210   4.151   0.766 -0.5084 -0.3744 -0.5795
 4144SOL    HW216348   3.220   4.069   0.815  5.3983  0.5560  0.5679
 4144SOL    HW316349   3.260   4.137   0.686 -0.2982  1.7666 -0.8714
 4144SOL    MW416350   3.218   4.138   0.762 -0.2612  0.4660  0.4243
 4145SOL     OW16351   4.828   2.832   3.333 -0.2385 -0.4317 -0.2526
 4145SOL    HW216352   4.865   2.895   3.394 -2.9948  0.7983  0.3015
 4145SOL    HW316353   4.843   2.747   3.373  0.4559  0.1500  0.7540
 4145SOL    MW416354   4.834   2.829   3.346  0.0448 -0.5113  0.9098
 4146SOL     OW16355   4.825   4.027   0.157  0.4454 -0.1712 -0.3745
 4146SOL    HW216356   4.736   4.028   0.122  0.3658 -2.1282 -0.3664
 4146SOL    HW316357   4.825   4.095   0.224 -0.8639  0.2584 -0.7645
 4146SOL    MW416358   4.813   4.036   0.161 -0.6415 -0.0793 -0.0785
 4147SOL     OW16359   0.971   3.420   2.605  0.2981 -0.3708  0.0094
 4147SOL    HW216360   1.004   3.455   2.688  0.0993  0.4647 -0.2500
 4147SOL    HW316361   1.041   3.364   2.572  0.5788 -0.3039  0.4949
 4147SOL    MW416362   0.984   3.417   2.611 -0.0418  0.1782  0.3482
 4148SOL     OW16363   5.151   0.553   2.398  0.1301 -0.7504 -0.0411
 4148SOL    HW216364   5.235   0.538   2.357  0.4385 -1.3611  0.7907
 4148SOL    HW316365   5.157   0.643   2.432  0.4013 -0.7555 -0.0739
 4148SOL    MW416366   5.163   0.563   2.397 -0.2713  0.1675 -0.1132
 4149SOL     OW16367   5.007   4.589   2.974 -0.1022  0.3720 -0.3340
 4149SOL    HW216368   4.916   4.581   3.001 -0.0296  1.1716  0.1968
 4149SOL    HW316369   5.057   4.543   3.041 -0.0956  0.1829 -0.4689
 4149SOL    MW416370   5.001   4.582   2.986 -0.1911  0.2663 -0.2283
 4150SOL     OW16371   0.970   0.810   2.108 -0.1959  0.0780 -0.5884
 4150SOL    HW216372   1.063   0.828   2.092  0.1633 -0.5400  0.6925
 4150SOL    HW316373   0.970   0.739   2.172 -1.5485  0.4236 -0.1757
 4150SOL    MW416374   0.982   0.803   2.114  0.0270 -0.2634 -0.1303
 4151SOL     OW16375   5.078   1.309   1.214  0.3209 -0.3466  0.0206
 4151SOL    HW216376   5.101   1.268   1.298  1.3268  0.2721  0.0676
 4151SOL    HW316377   5.157   1.303   1.161 -0.5257 -1.3835 -1.1780
 4151SOL    MW416378   5.091   1.303   1.218 -0.3352  0.2447  0.0747
 4152SOL     OW16379   3.158   4.648   0.097 -0.0539  0.0714 -0.0540
 4152SOL    HW216380   3.147   4.566   0.049 -0.9182 -0.1781  0.5432
 4152SOL    HW316381   3.103   4.711   0.051 -0.0656  0.0971 -0.0047
 4152SOL    MW416382   3.149   4.645   0.085  0.0623  0.0104 -0.2586
 4153SOL     OW16383   0.261   0.707   1.690 -0.2969 -0.0580 -0.1006
 4153SOL    HW216384   0.323   0.755   1.745  1.6720 -2.4354 -0.0088
 4153SOL    HW316385   0.266   0.750   1.605  0.9727  0.2861  0.1152
 4153SOL    MW416386   0.270   0.719   1.686 -0.2881  0.0858 -0.1337
 4154SOL     OW16387   3.280   5.236   0.826 -0.1082 -0.4187  0.1806
 4154SOL    HW216388   3.326   5.219   0.744 -2.8804 -2.1608 -1.1568
 4154SOL    HW316389   3.347   5.223   0.894  2.3863  1.4690 -1.7066
 4154SOL    MW416390   3.295   5.232   0.824  0.0642  0.0929 -0.1628
 4155SOL     OW16391   2.055   5.427   1.611 -0.1283  0.1172  0.7262
 4155SOL    HW216392   2.069   5.379   1.692 -2.5055 -0.1320  1.0699
 4155SOL    HW316393   2.020   5.361   1.550  1.1895  0.3970 -0.3724
 4155SOL    MW416394   2.052   5.412   1.614 -0.2069 -0.2477  0.1577
 4156SOL     OW16395   0.166   0.829   4.104  0.5018 -0.4579  0.1258
 4156SOL    HW216396   0.133   0.758   4.049  0.4184 -0.9892  0.8399
 4156SOL    HW316397   0.230   0.787   4.161  2.0333  0.4554 -0.8545
 4156SOL    MW416398   0.170   0.814   4.104  0.0842  0.5323 -0.3511
 4157SOL     OW16399   4.884   0.812   3.570  0.4251 -0.0505 -0.2128
 4157SOL    HW216400   4.890   0.831   3.664 -1.0856 -1.0029  0.1103
 4157SOL    HW316401   4.966   0.767   3.549  0.9034  0.4279  0.5728
 4157SOL    MW416402   4.896   0.809   3.579 -0.4053  0.1226  0.5624
 4158SOL     OW16403   1.144   3.715   3.029 -0.2774  0.2828 -0.2331
 4158SOL    HW216404   1.125   3.801   3.064  0.4710  2.0878 -3.7647
 4158SOL    HW316405   1.083   3.704   2.956  1.0679 -1.1904 -1.2140
 4158SOL    MW416406   1.134   3.725   3.024  0.1902  0.5625  0.5479
 4159SOL     OW16407   3.868   4.976   1.967 -0.4412 -0.5179 -0.2473
 4159SOL    HW216408   3.941   4.975   2.029 -0.9204  1.6453  0.4490
 4159SOL    HW316409   3.904   5.016   1.888 -0.6952 -0.0431 -0.1278
 4159SOL    MW416410   3.882   4.981   1.965 -0.5542  0.3810 -0.7431
 4160SOL     OW16411   0.373   0.780   0.670 -0.1925  0.8866  0.5473
 4160SOL    HW216412   0.408   0.694   0.647 -0.4660  1.4298 -2.2860
 4160SOL    HW316413   0.441   0.820   0.725  1.2831 -0.0723 -0.5083
 4160SOL    MW416414   0.387   0.774   0.674  0.4863  0.9813  0.3231
 4161SOL     OW16415   2.665   3.310   5.299 -0.2327  0.1019 -0.1734
 4161SOL    HW216416   2.618   3.279   5.376 -1.3939  0.8215 -0.5761
 4161SOL    HW316417   2.750   3.266   5.304 -0.1895  0.3371  1.6420
 4161SOL    MW416418   2.670   3.300   5.310 -0.1204  0.2680 -0.0201
 4162SOL     OW16419   1.140   6.286   0.549 -0.4582 -0.2417 -0.4167
 4162SOL    HW216420   1.146   6.316   0.459 -0.1171  0.5998 -0.1277
 4162SOL    HW316421   1.182   6.200   0.549  2.6342  1.1171 -0.4745
 4162SOL    MW416422   1.146   6.279   0.537  0.8690  0.5841 -0.0921
 4163SOL     OW16423   2.387   3.789   2.646 -0.6216 -0.0557  0.1632
 4163SOL    HW216424   2.440   3.792   2.725 -0.5399  2.3630  0.0864
 4163SOL    HW316425   2.327   3.863   2.654 -1.0745 -0.1658 -1.7151
 4163SOL    MW416426   2.386   3.799   2.657 -0.0842 -0.2694  0.5270
 4164SOL     OW16427   6.318   1.118   5.535  0.2593  0.3337  0.5775
 4164SOL    HW216428   6.261   1.141   5.462  0.7256  0.9807  0.4153
 4164SOL    HW316429   6.316   1.022   5.537 -1.8245  0.3365  1.3735
 4164SOL    MW416430   6.311   1.108   5.525  0.3246 -0.2642 -0.0275
 4165SOL     OW16431   3.375   5.121   5.160 -0.2688 -0.1523  0.4946
 4165SOL    HW216432   3.375   5.142   5.253  0.8744  0.7490  0.3219
 4165SOL    HW316433   3.391   5.027   5.157  1.9058  0.1350  1.2113
 4165SOL    MW416434   3.377   5.111   5.172 -0.3357  0.3529 -0.6709
 4166SOL     OW16435   2.058   3.210   1.137  0.4488 -0.3883  0.1057
 4166SOL    HW216436   1.982   3.242   1.089  0.2710 -0.4585  0.3398
 4166SOL    HW316437   2.023   3.142   1.195  0.5944 -0.0040  0.6469
 4166SOL    MW416438   2.043   3.205   1.138  0.1795 -0.2581  0.2914
 4167SOL     OW16439   1.810   3.375   1.510  0.2092  0.3702  0.8769
 4167SOL    HW216440   1.790   3.289   1.472  0.0869 -0.1922  2.1357
 4167SOL    HW316441   1.821   3.357   1.604  0.7207  1.6512  1.0808
 4167SOL    MW416442   1.809   3.361   1.517 -0.1564 -0.2897  0.2500
 4168SOL     OW16443   6.034   1.754   3.424 -0.1541  0.0618  0.0736
 4168SOL    HW216444   5.956   1.716   3.386  0.3471 -1.1918  0.2469
 4168SOL    HW316445   6.100   1.684   3.420  1.3097  1.4235 -1.1021
 4168SOL    MW416446   6.033   1.740   3.419  0.1002  0.0861  0.6993
 4169SOL     OW16447   5.078   4.774   1.834 -0.2958 -0.1120 -0.6635
 4169SOL    HW216448   5.075   4.805   1.924  3.4804 -1.4048  0.0863
 4169SOL    HW316449   5.031   4.840   1.784 -1.0454  1.5257  2.0044
 4169SOL    MW416450   5.071   4.787   1.839 -0.0373 -0.1923  0.6488
 4170SOL     OW16451   3.381   0.403   2.470 -0.4128  0.0974 -0.3893
 4170SOL    HW216452   3.381   0.436   2.560  3.5058 -1.5812  0.4608
 4170SOL    HW316453   3.310   0.339   2.467 -0.9261  0.5416  1.3728
 4170SOL    MW416454   3.372   0.399   2.481 -0.0615  0.1308 -0.8477
 4171SOL     OW16455   2.997   3.797   1.089 -0.5795  0.0639  0.4707
 4171SOL    HW216456   2.971   3.854   1.161  0.7904  1.7087 -0.2462
 4171SOL    HW316457   3.014   3.712   1.130 -0.7448  0.6956  1.9157
 4171SOL    MW416458   2.996   3.793   1.104  0.4801  0.5427 -0.0051
 4172SOL     OW16459   5.664   0.678   4.883 -0.0343 -0.0074 -0.2632
 4172SOL    HW216460   5.646   0.691   4.790  1.3276  0.4073 -0.4922
 4172SOL    HW316461   5.705   0.591   4.887 -1.3744 -0.6538  0.1601
 4172SOL    MW416462   5.667   0.668   4.871 -0.4263  0.5799  0.3850
 4173SOL     OW16463   5.422   5.635   1.596 -0.3324 -0.1975  0.4303
 4173SOL    HW216464   5.418   5.628   1.501 -1.7540  1.9109  0.2553
 4173SOL    HW316465   5.340   5.598   1.627  0.5799 -1.8652  0.9744
 4173SOL    MW416466   5.411   5.629   1.588  0.2089  0.4757  0.1092
 4174SOL     OW16467   6.006   1.937   1.777 -0.4679 -0.5489 -0.0121
 4174SOL    HW216468   6.064   1.899   1.843 -0.8707 -0.4632  0.3959
 4174SOL    HW316469   6.012   2.031   1.792  0.6218 -0.4147 -1.0991
 4174SOL    MW416470   6.015   1.944   1.788 -0.2001  0.0425 -0.2214
 4175SOL     OW16471   6.024   2.799   6.065  0.0293 -0.6748  0.5072
 4175SOL    HW216472   6.087   2.835   6.004  0.1153 -2.0148 -0.2446
 4175SOL    HW316473   5.939   2.820   6.027  0.0148  0.4976  1.1452
 4175SOL    MW416474   6.021   2.806   6.052 -0.1299 -0.1997 -0.2529
 4176SOL     OW16475   5.099   4.196   1.514  0.4280 -0.2061 -0.3930
 4176SOL    HW216476   5.177   4.217   1.463  1.1238  0.7112  0.9848
 4176SOL    HW316477   5.036   4.263   1.490  0.9983  0.6519  0.4518
 4176SOL    MW416478   5.101   4.207   1.504 -0.1227  0.2786 -0.1018
 4177SOL     OW16479   3.951   5.424   0.632 -0.4918  0.2357  0.4647
 4177SOL    HW216480   3.914   5.340   0.660 -0.7499  0.2514  0.1772
 4177SOL    HW316481   3.877   5.471   0.593 -0.0176 -0.0524 -0.8594
 4177SOL    MW416482   3.936   5.419   0.630  0.0625 -0.0147 -0.5303
 4178SOL     OW16483   1.231   5.912   5.994  0.3559  0.0079 -0.1153
 4178SOL    HW216484   1.170   5.844   5.966  2.1451 -1.4916 -0.5830
 4178SOL    HW316485   1.271   5.943   5.914  2.2762 -1.1280  0.3415
 4178SOL    MW416486   1.228   5.907   5.980 -0.4235  0.4970  0.2032
 4179SOL     OW16487   0.125   0.029   2.820 -0.4956 -0.1297  0.5387
 4179SOL    HW216488   0.126  -0.065   2.806  1.3488 -0.0817  0.1069
 4179SOL    HW316489   0.173   0.042   2.902  4.0165  0.6858 -1.9723
 4179SOL    MW416490   0.131   0.018   2.829  0.5003  0.1521  0.4331
 4180SOL     OW16491   4.087   2.383   3.217  0.3006 -0.1712 -0.0588
 4180SOL    HW216492   4.103   2.292   3.191  1.8062  0.1160 -0.2360
 4180SOL    HW316493   4.069   2.428   3.135 -0.1246 -0.2495 -0.0082
 4180SOL    MW416494   4.087   2.377   3.203 -0.2846 -0.0633 -0.0011
 4181SOL     OW16495   4.888   0.981   1.405 -0.2663  0.1515 -0.0731
 4181SOL    HW216496   4.883   0.912   1.472  1.2152  1.2387  1.2385
 4181SOL    HW316497   4.957   1.039   1.436  1.2575  0.1676 -3.0967
 4181SOL    MW416498   4.897   0.979   1.418  0.0485 -0.0233  0.0568
 4182SOL     OW16499   3.639   5.292   5.073 -0.0687  0.0730  0.1936
 4182SOL    HW216500   3.696   5.216   5.083 -1.0440 -0.9674 -1.6139
 4182SOL    HW316501   3.551   5.260   5.093 -0.2962  1.1482  0.9979
 4182SOL    MW416502   3.635   5.278   5.077  0.2953  0.1218 -0.0837
 4183SOL     OW16503   3.646   3.338   6.298  0.3183  0.1425  0.1550
 4183SOL    HW216504   3.564   3.310   6.258 -0.0484 -0.4600  1.3127
 4183SOL    HW316505   3.713   3.284   6.255 -0.2189 -1.4595  1.2842
 4183SOL    MW416506   3.644   3.327   6.287 -0.0740  0.2028 -0.2242
 4184SOL     OW16507   2.036   5.309   5.799 -0.2250  0.1512 -0.3211
 4184SOL    HW216508   2.033   5.405   5.801  0.8014  0.1934  0.1920
 4184SOL    HW316509   2.121   5.289   5.757  0.1869 -0.5093  0.7904
 4184SOL    MW416510   2.047   5.319   5.794 -0.1113 -0.3943  0.2483
 4185SOL     OW16511   1.410   0.465   0.239 -0.0672 -0.3338 -0.4948
 4185SOL    HW216512   1.417   0.371   0.257  0.5549 -0.1732  0.1603
 4185SOL    HW316513   1.416   0.472   0.144  2.5762 -0.7841 -0.4363
 4185SOL    MW416514   1.412   0.454   0.229 -0.0628  0.3547  0.3250
 4186SOL     OW16515   1.923   4.472   3.399 -0.0138 -0.2735 -0.8129
 4186SOL    HW216516   2.016   4.473   3.377  0.3228  2.7029  0.3691
 4186SOL    HW316517   1.881   4.523   3.330 -0.6400 -0.6693 -0.7342
 4186SOL    MW416518   1.930   4.479   3.387  0.2431 -0.1379 -0.0057
 4187SOL     OW16519   3.393   0.639   0.891  0.1857 -0.3672 -0.0369
 4187SOL    HW216520   3.333   0.711   0.870  1.3556  1.0813  1.3237
 4187SOL    HW316521   3.393   0.584   0.813 -1.2717  0.7297 -0.8656
 4187SOL    MW416522   3.385   0.641   0.878 -0.3817  0.1881 -0.0321
 4188SOL     OW16523   5.110   5.964   1.347 -0.1830 -0.2283 -0.2212
 4188SOL    HW216524   5.199   5.999   1.349 -0.1476  0.1347 -3.2475
 4188SOL    HW316525   5.098   5.935   1.256 -3.2695  0.0541 -0.0023
 4188SOL    MW416526   5.120   5.965   1.335  0.1981 -0.6088 -0.8564
 4189SOL     OW16527   2.543   5.349   3.404  0.2290 -0.0123  0.1443
 4189SOL    HW216528   2.547   5.273   3.346  0.2938  0.7094 -0.8171
 4189SOL    HW316529   2.451   5.376   3.402  0.1897 -0.1022  0.5504
 4189SOL    MW416530   2.531   5.343   3.396 -0.2099 -0.6708 -0.1325
 4190SOL     OW16531   1.363   5.019   1.062  0.3371  0.3781  0.4469
 4190SOL    HW216532   1.299   4.948   1.058  0.7076  0.0617  0.0437
 4190SOL    HW316533   1.367   5.051   0.971  3.5589 -2.1162 -0.4724
 4190SOL    MW416534   1.355   5.014   1.049 -0.2428 -0.5853  0.0606
 4191SOL     OW16535   3.086   5.714   5.284  0.2415 -0.3015 -0.1466
 4191SOL    HW216536   3.075   5.757   5.199  1.4470 -0.6538 -0.5001
 4191SOL    HW316537   3.012   5.654   5.291 -1.1107  1.3098  0.0640
 4191SOL    MW416538   3.075   5.712   5.274  0.5958 -0.6327 -0.2297
 4192SOL     OW16539   3.510   1.403   1.751 -0.2483 -0.0591 -0.9095
 4192SOL    HW216540   3.564   1.369   1.680 -0.2636 -0.6612 -0.6442
 4192SOL    HW316541   3.561   1.385   1.830 -0.1666  0.7268 -0.7693
 4192SOL    MW416542   3.524   1.396   1.752  0.1940 -0.0150  0.3240
 4193SOL     OW16543   3.546   2.930   3.237  0.2205 -0.0393  0.4676
 4193SOL    HW216544   3.622   2.956   3.291  0.8924 -1.9933  0.5227
 4193SOL    HW316545   3.560   2.976   3.154  0.6909  0.7360  0.9525
 4193SOL    MW416546   3.558   2.940   3.233  0.0586 -0.5959  0.4356
 4194SOL     OW16547   5.830   2.423   5.038 -0.3457  0.4905  0.1157
 4194SOL    HW216548   5.854   2.503   5.085 -0.2076 -0.6604  2.1124
 4194SOL    HW316549   5.907   2.366   5.046 -0.1273  0.4105 -1.9690
 4194SOL    MW416550   5.843   2.426   5.045 -0.3053  0.1060 -0.6527
 4195SOL     OW16551   0.837   4.364   1.775 -0.4305  0.1531 -0.0027
 4195SOL    HW216552   0.910   4.303   1.780 -1.4911 -1.3263 -1.2804
 4195SOL    HW316553   0.830   4.402   1.862 -0.9637 -3.1092  1.5063
 4195SOL    MW416554   0.846   4.361   1.787 -0.2386  0.0558 -0.1729
 4196SOL     OW16555   6.063   5.047   4.067  0.1503  0.7591 -0.2674
 4196SOL    HW216556   6.016   4.982   4.118  0.0440  1.0424 -0.0024
 4196SOL    HW316557   6.065   5.125   4.122 -0.3721  1.2133 -0.8748
 4196SOL    MW416558   6.057   5.049   4.081 -0.2498  0.2330  0.6030
 4197SOL     OW16559   1.832   2.202   5.068  0.0042 -0.6595 -0.6167
 4197SOL    HW216560   1.881   2.163   4.995  0.0231  1.7806 -2.0307
 4197SOL    HW316561   1.783   2.274   5.027 -1.7995 -0.6347  1.4274
 4197SOL    MW416562   1.832   2.206   5.053 -0.0921  0.7947  0.2506
 4198SOL     OW16563   2.348   5.534   2.897 -0.2310 -0.7087  0.8400
 4198SOL    HW216564   2.317   5.561   2.811  0.2519 -0.9754  0.5783
 4198SOL    HW316565   2.369   5.441   2.886 -1.7138 -1.1723  1.6733
 4198SOL    MW416566   2.346   5.525   2.884  0.0736 -0.5717 -0.2295
 4199SOL     OW16567   2.783   2.461   5.783 -1.0396  0.2086  0.3031
 4199SOL    HW216568   2.747   2.408   5.854  0.5331 -0.2443  0.8074
 4199SOL    HW316569   2.842   2.523   5.827 -0.5143  0.3237 -0.5459
 4199SOL    MW416570   2.786   2.462   5.798  0.3115 -0.2259 -0.1218
 4200SOL     OW16571   2.634   1.102   6.081  0.1624 -0.4236  0.2372
 4200SOL    HW216572   2.696   1.032   6.060  0.4558 -0.1712  0.2529
 4200SOL    HW316573   2.680   1.156   6.145  0.1681  0.1193 -0.2218
 4200SOL    MW416574   2.649   1.100   6.087 -0.3804 -0.1269 -0.1888
 4201SOL     OW16575   6.421   0.312   1.003 -0.2639 -0.5077  0.1081
 4201SOL    HW216576   6.422   0.385   1.065 -0.6873  0.4139 -0.9209
 4201SOL    HW316577   6.418   0.355   0.917 -0.2560 -1.7496 -0.5276
 4201SOL    MW416578   6.421   0.328   1.000  0.0376 -0.0072  0.4374
 4202SOL     OW16579   0.142   2.241   6.066  0.0747 -0.1134  0.2026
 4202SOL    HW216580   0.159   2.165   6.010 -1.3332  0.8359 -1.6151
 4202SOL    HW316581   0.049   2.259   6.053  0.2244  1.5049  1.1605
 4202SOL    MW416582   0.132   2.233   6.057 -0.1421 -0.4308 -0.0150
 4203SOL     OW16583   6.403   4.395   1.810 -0.4556  0.1073  0.3059
 4203SOL    HW216584   6.362   4.381   1.725  1.7013  0.2863 -0.8151
 4203SOL    HW316585   6.357   4.335   1.869  1.0605 -3.5334 -1.9516
 4203SOL    MW416586   6.391   4.385   1.807  0.1313 -0.3047 -0.0603
 4204SOL     OW16587   2.642   3.080   2.068  0.0315 -0.0425  0.3561
 4204SOL    HW216588   2.588   3.001   2.076  0.6509 -0.3031  2.9531
 4204SOL    HW316589   2.592   3.138   2.011 -1.4873 -1.4606  0.1605
 4204SOL    MW416590   2.629   3.077   2.062 -0.1848 -0.4169 -0.1516
 4205SOL     OW16591   2.153   1.435   1.371 -0.8986 -0.0192 -0.4046
 4205SOL    HW216592   2.076   1.385   1.399 -0.8070 -0.6294 -1.2143
 4205SOL    HW316593   2.117   1.518   1.340 -1.3454 -0.6545 -1.6615
 4205SOL    MW416594   2.138   1.439   1.371  0.8083 -0.1747 -0.1063
 4206SOL     OW16595   0.608   5.149   0.070  0.2547 -0.7715 -0.0716
 4206SOL    HW216596   0.636   5.065   0.107  0.1270 -0.9913 -0.4715
 4206SOL    HW316597   0.685   5.206   0.079 -0.0692 -0.5292  1.3908
 4206SOL    MW416598   0.622   5.146   0.076 -0.6826 -0.4830  0.0638
 4207SOL     OW16599   4.923   2.536   3.865  0.0031 -0.2643  0.0455
 4207SOL    HW216600   4.835   2.498   3.868 -0.8628  1.6382  0.6105
 4207SOL    HW316601   4.922   2.594   3.789  0.5972  0.1571  0.3435
 4207SOL    MW416602   4.911   2.539   3.855 -0.2596 -0.3269  0.4110
 4208SOL     OW16603   4.911   1.462   1.465 -0.5599  0.8394  0.4547
 4208SOL    HW216604   4.824   1.481   1.502 -0.3542 -0.5583  1.7627
 4208SOL    HW316605   4.895   1.452   1.371 -1.7999  0.7048  0.6623
 4208SOL    MW416606   4.897   1.463   1.457  0.4851 -0.4006  0.2126
 4209SOL     OW16607   3.583   5.518   2.561 -0.0650  0.3344 -0.6867
 4209SOL    HW216608   3.494   5.486   2.575  0.6778 -0.5237  2.9956
 4209SOL    HW316609   3.575   5.613   2.561 -1.0207  0.2606 -0.9650
 4209SOL    MW416610   3.570   5.526   2.563 -0.4539  0.0220 -0.4322
 4210SOL     OW16611   4.143   1.513   1.222 -0.2283  0.1961 -0.5548
 4210SOL    HW216612   4.206   1.462   1.170  0.2017  0.2166 -0.0566
 4210SOL    HW316613   4.135   1.596   1.175 -0.6917 -0.2004 -1.1964
 4210SOL    MW416614   4.150   1.517   1.209 -0.1136 -0.2573  0.0506
 4211SOL     OW16615   2.851   3.415   5.934 -0.0429  0.3246  0.9965
 4211SOL    HW216616   2.770   3.367   5.919  1.4892 -2.0836 -0.0820
 4211SOL    HW316617   2.853   3.480   5.863 -0.9804  0.3787  1.0059
 4211SOL    MW416618   2.840   3.418   5.923 -0.2138 -0.8754  0.1702
 4212SOL     OW16619   6.268   5.706   5.602 -0.2799 -0.0649 -0.0420
 4212SOL    HW216620   6.259   5.797   5.573 -0.9599  0.2712  1.1809
 4212SOL    HW316621   6.286   5.712   5.696 -1.0882 -1.2023  0.2059
 4212SOL    MW416622   6.269   5.719   5.610  0.5976 -0.3929 -0.0337
 4213SOL     OW16623   1.928   4.992   0.904  1.0137  0.2829 -0.2592
 4213SOL    HW216624   2.010   5.038   0.887  0.5050  1.1079 -0.5299
 4213SOL    HW316625   1.912   5.007   0.997  0.9550  0.4882 -0.3011
 4213SOL    MW416626   1.937   5.000   0.914  0.0409  0.1884  0.5175
 4214SOL     OW16627   1.126   5.355   5.891 -0.0549 -0.2285  0.3576
 4214SOL    HW216628   1.048   5.314   5.853  1.2153 -2.4258 -0.0376
 4214SOL    HW316629   1.196   5.291   5.879  1.4698  0.9422  2.2463
 4214SOL    MW416630   1.125   5.341   5.884 -0.3295 -0.6785  0.2026
 4215SOL     OW16631   5.260   0.652   1.513 -0.7331  0.4401  0.0873
 4215SOL    HW216632   5.252   0.744   1.490  0.7700  0.8620  1.1406
 4215SOL    HW316633   5.236   0.605   1.432 -4.1885  1.5963  0.2570
 4215SOL    MW416634   5.256   0.658   1.499 -0.3930  0.2013 -0.4049
 4216SOL     OW16635   1.994   1.559   5.675  0.0299  0.0006  0.3488
 4216SOL    HW216636   1.993   1.531   5.583 -1.8592  0.5711  0.1558
 4216SOL    HW316637   2.016   1.652   5.672 -0.5243  0.1404  0.4093
 4216SOL    MW416638   1.996   1.568   5.663 -0.2361  0.0859 -0.2037
 4217SOL     OW16639   0.804   2.543   0.535  0.1052  0.0778  0.0588
 4217SOL    HW216640   0.741   2.594   0.485 -0.7148 -0.4504  0.5331
 4217SOL    HW316641   0.834   2.602   0.604 -1.3927 -0.2764  1.0599
 4217SOL    MW416642   0.800   2.557   0.537 -1.0738 -0.1550 -0.3555
 4218SOL     OW16643   0.163   0.315   1.650 -0.0209  0.1851 -0.3674
 4218SOL    HW216644   0.082   0.296   1.602 -1.1850  2.2469  0.6470
 4218SOL    HW316645   0.136   0.375   1.719  1.7206 -2.1043  2.5091
 4218SOL    MW416646   0.149   0.320   1.653  0.2145  0.2357  0.2082
 4219SOL     OW16647   0.164   6.397   5.664 -0.1351  0.3071 -0.2112
 4219SOL    HW216648   0.209   6.382   5.747  0.1431  0.3034 -0.3587
 4219SOL    HW316649   0.233   6.430   5.605 -0.3800  0.5424 -0.3699
 4219SOL    MW416650   0.179   6.400   5.667  0.3011  0.0066 -0.3991
 4220SOL     OW16651   0.142   2.019   1.372  0.7065  0.2953  0.2523
 4220SOL    HW216652   0.184   1.980   1.294  0.2573  1.0554 -0.3808
 4220SOL    HW316653   0.156   2.113   1.362  0.0876  0.4431  0.7647
 4220SOL    MW416654   0.149   2.026   1.360  0.5515 -0.1079  0.5981
 4221SOL     OW16655   6.291   0.471   2.845  0.8271 -0.3262  0.0698
 4221SOL    HW216656   6.338   0.420   2.779  1.2174 -0.3001  0.3211
 4221SOL    HW316657   6.266   0.406   2.911  1.8108 -0.1235  0.6663
 4221SOL    MW416658   6.294   0.456   2.845 -0.3479 -0.1129  0.9420
 4222SOL     OW16659   1.019   5.165   5.487 -0.5661 -0.0119  0.1683
 4222SOL    HW216660   1.068   5.108   5.427 -0.4579  0.2651 -0.0104
 4222SOL    HW316661   1.023   5.121   5.572  1.1680  0.6798  0.4778
 4222SOL    MW416662   1.026   5.152   5.490 -0.3786 -0.0897  0.4629
 4223SOL     OW16663   1.245   6.355   5.850 -0.3170 -0.2450  0.4024
 4223SOL    HW216664   1.220   6.400   5.930  0.9467  1.2733 -0.0167
 4223SOL    HW316665   1.240   6.421   5.781  1.3156 -0.7606 -0.2862
 4223SOL    MW416666   1.241   6.369   5.851  0.2731  0.6894 -0.4408
 4224SOL     OW16667   3.213   2.352   5.820 -0.3816  0.1067  0.1914
 4224SOL    HW216668   3.194   2.407   5.896 -1.2253 -1.4455  1.1458
 4224SOL    HW316669   3.305   2.327   5.831 -0.1163  0.9554 -0.0250
 4224SOL    MW416670   3.223   2.356   5.831  0.1537  0.3358 -0.0802
 4225SOL     OW16671   2.491   4.091   6.091 -0.0855 -0.0553  0.3818
 4225SOL    HW216672   2.571   4.145   6.093  1.2060 -1.9256  1.6451
 4225SOL    HW316673   2.467   4.080   6.183 -1.3765 -0.1666  0.0446
 4225SOL    MW416674   2.499   4.097   6.103 -0.0950 -0.1710  0.3531
 4226SOL     OW16675   1.436   2.143   0.923  0.7617  0.7077  0.4370
 4226SOL    HW216676   1.495   2.105   0.988  0.8327  1.9573  1.1276
 4226SOL    HW316677   1.456   2.237   0.924 -1.0596  1.1239  0.5036
 4226SOL    MW416678   1.447   2.151   0.932  0.7453 -0.1621  0.0943
 4227SOL     OW16679   5.405   1.154   4.293 -0.2629 -0.0145 -0.1638
 4227SOL    HW216680   5.417   1.090   4.363 -0.8888  0.1928  0.1385
 4227SOL    HW316681   5.319   1.192   4.309  1.0519  2.6954  1.1184
 4227SOL    MW416682   5.395   1.151   4.304  0.4133 -0.3466  0.3197
 4228SOL     OW16683   3.950   4.973   6.092  0.1733  0.0704  0.4809
 4228SOL    HW216684   3.937   4.907   6.160 -2.1927 -1.6937 -1.4980
 4228SOL    HW316685   3.865   4.979   6.049  0.1604  4.7306  0.6923
 4228SOL    MW416686   3.937   4.965   6.096 -0.8302 -0.5024 -0.0992
 4229SOL     OW16687   1.978   1.849   1.430 -0.3362 -0.3269 -0.4907
 4229SOL    HW216688   1.967   1.884   1.518  3.0477  2.0011 -0.7892
 4229SOL    HW316689   1.914   1.896   1.377  1.2631  2.5315 -0.1073
 4229SOL    MW416690   1.968   1.860   1.434  0.4801  0.2480 -0.5160
 4230SOL     OW16691   2.303   0.281   0.381 -0.5300 -0.1123  0.1122
 4230SOL    HW216692   2.233   0.341   0.405  0.2804  0.8046  0.2451
 4230SOL    HW316693   2.362   0.333   0.326 -1.0206 -1.4467 -1.7839
 4230SOL    MW416694   2.302   0.296   0.377  0.5961 -0.0010  0.3108
 4231SOL     OW16695   1.089   3.146   6.164 -1.2035 -0.1609 -0.1182
 4231SOL    HW216696   1.035   3.203   6.109  0.6498  3.3518  1.3742
 4231SOL    HW316697   1.060   3.166   6.254  0.2974 -0.7250  0.5119
 4231SOL    MW416698   1.078   3.156   6.169 -0.0125 -0.0369  0.0099
 4232SOL     OW16699   5.929   5.627   1.754 -0.0743  0.2835 -0.1669
 4232SOL    HW216700   6.011   5.634   1.804 -0.3302 -1.3660  0.5550
 4232SOL    HW316701   5.872   5.573   1.809 -1.8597  1.8106 -0.4248
 4232SOL    MW416702   5.933   5.620   1.768 -0.3190  0.6374 -0.0842
 4233SOL     OW16703   0.687   3.506   2.930 -0.2276 -0.2441  0.2021
 4233SOL    HW216704   0.746   3.431   2.941  0.5006  0.3034  0.1215
 4233SOL    HW316705   0.726   3.575   2.984  0.9229  1.0896 -2.2072
 4233SOL    MW416706   0.700   3.505   2.939  0.1844 -0.2829 -0.2853
 4234SOL     OW16707   3.236   0.296   0.434  0.6492 -0.0119  0.4212
 4234SOL    HW216708   3.178   0.253   0.371  1.2600  0.9287 -0.8261
 4234SOL    HW316709   3.259   0.227   0.496 -0.9021 -0.6764  0.3075
 4234SOL    MW416710   3.232   0.282   0.434  0.0212  0.8268 -0.3323
 4235SOL     OW16711   5.901   3.500   5.647  0.3250 -0.7591  0.2866
 4235SOL    HW216712   5.905   3.411   5.611  1.5673 -0.2125 -1.0559
 4235SOL    HW316713   5.819   3.503   5.695 -0.7713 -2.0015 -1.3789
 4235SOL    MW416714   5.891   3.488   5.648  0.2251 -0.3435 -0.0448
 4236SOL     OW16715   5.737   4.169   4.985 -0.0077  0.2054 -0.3785
 4236SOL    HW216716   5.707   4.100   4.927 -0.9299 -0.1311  0.4624
 4236SOL    HW316717   5.754   4.244   4.928  1.0821 -0.7290 -1.3033
 4236SOL    MW416718   5.735   4.170   4.970  0.0893 -0.4535 -0.2189
 4237SOL     OW16719   3.770   0.110   4.408  0.3123  0.3209 -0.7229
 4237SOL    HW216720   3.731   0.153   4.332 -0.7545  1.6132  0.5173
 4237SOL    HW316721   3.740   0.160   4.483  0.9720 -1.1917  0.6216
 4237SOL    MW416722   3.761   0.122   4.408 -0.0807  0.3643  0.5627
 4238SOL     OW16723   1.580   5.405   4.533  0.4365  0.4505  0.6428
 4238SOL    HW216724   1.628   5.427   4.453 -1.9227 -2.3344 -1.7887
 4238SOL    HW316725   1.533   5.485   4.556  1.5442  1.4636 -0.4422
 4238SOL    MW416726   1.580   5.418   4.525 -0.0944 -0.0871 -0.0488
 4239SOL     OW16727   1.827   2.755   2.675 -0.6374 -0.3714 -0.0387
 4239SOL    HW216728   1.820   2.762   2.580  1.8779 -0.8347 -0.3169
 4239SOL    HW316729   1.820   2.846   2.706  0.3529 -0.0040 -0.8436
 4239SOL    MW416730   1.825   2.768   2.667 -0.1679 -0.1594 -0.1653
 4240SOL     OW16731   4.819   0.749   0.711 -0.1031 -0.2325 -0.1497
 4240SOL    HW216732   4.867   0.694   0.773  0.2268 -1.8227 -1.7343
 4240SOL    HW316733   4.834   0.838   0.742  1.6797 -0.8541  0.9296
 4240SOL    MW416734   4.827   0.753   0.724 -0.2152  0.0292 -0.3604
 4241SOL     OW16735   2.180   6.228   3.358 -0.6642  0.3468  0.2188
 4241SOL    HW216736   2.146   6.266   3.277  2.5734  0.6397 -1.1836
 4241SOL    HW316737   2.192   6.303   3.416  1.2833  0.9055 -0.8097
 4241SOL    MW416738   2.177   6.243   3.355  0.1834  0.3535  0.0826
 4242SOL     OW16739   6.088   2.600   1.971  1.4479 -0.1905 -0.4957
 4242SOL    HW216740   6.007   2.625   1.926  0.8396 -1.3422 -0.1007
 4242SOL    HW316741   6.083   2.505   1.976  3.0657 -0.3127 -0.8572
 4242SOL    MW416742   6.077   2.591   1.966  0.0402 -0.3679  0.0608
 4243SOL     OW16743   1.042   4.936   2.348  0.8891 -0.5491 -0.3515
 4243SOL    HW216744   1.004   5.023   2.339  0.8751 -0.5383 -0.1898
 4243SOL    HW316745   0.967   4.876   2.347  0.7542 -0.4448  1.2068
 4243SOL    MW416746   1.027   4.940   2.347 -0.1073 -0.2694 -0.3612
 4244SOL     OW16747   3.147   6.007   1.522 -0.4139 -0.1274  0.3642
 4244SOL    HW216748   3.173   5.930   1.472 -2.5135 -0.7955  0.2294
 4244SOL    HW316749   3.230   6.051   1.542  0.8504 -2.3903  0.4536
 4244SOL    MW416750   3.162   6.003   1.518  0.1489  0.1887 -0.9142
 4245SOL     OW16751   2.514   1.400   4.612 -0.4919  0.2107  0.5315
 4245SOL    HW216752   2.606   1.391   4.584 -0.0731  2.1308  1.1199
 4245SOL    HW316753   2.463   1.366   4.539  0.6873 -1.3958  0.4162
 4245SOL    MW416754   2.520   1.394   4.599 -0.7222 -0.2689 -0.6867
 4246SOL     OW16755   1.918   1.748   6.408 -0.0143 -0.1207 -0.1412
 4246SOL    HW216756   1.970   1.786   6.337  0.1771 -0.0990  0.0098
 4246SOL    HW316757   1.967   1.769   6.488 -0.9321  1.0681  0.1433
 4246SOL    MW416758   1.932   1.756   6.409  0.4692 -0.0106  0.6539
 4247SOL     OW16759   1.908   2.940   3.395 -0.7731  0.7191  0.4119
 4247SOL    HW216760   1.937   2.855   3.426 -0.4908  0.6236 -0.1038
 4247SOL    HW316761   1.854   2.920   3.318 -1.2625  0.9659  0.6840
 4247SOL    MW416762   1.904   2.926   3.389  0.1283  0.6695  0.4165
 4248SOL     OW16763   1.462   1.631   4.634 -0.5088 -0.1578 -0.3927
 4248SOL    HW216764   1.472   1.660   4.725 -1.2448  0.1657 -0.4124
 4248SOL    HW316765   1.550   1.601   4.609  0.3995  2.3366 -0.4639
 4248SOL    MW416766   1.475   1.631   4.642  0.7085  0.3139  0.6808
 4249SOL     OW16767   4.792   3.840   4.526  0.0195  0.5416 -0.5140
 4249SOL    HW216768   4.758   3.764   4.479 -1.0811  0.2029  0.7632
 4249SOL    HW316769   4.774   3.821   4.618  2.8301  0.8081  0.1799
 4249SOL    MW416770   4.785   3.827   4.532 -0.2943 -0.3718  0.1854
 4250SOL     OW16771   3.606   1.545   0.437 -0.2034 -0.2697  0.1372
 4250SOL    HW216772   3.678   1.491   0.403 -0.5661 -0.6927  0.0413
 4250SOL    HW316773   3.642   1.584   0.516  0.6085  0.6245 -0.6418
 4250SOL    MW416774   3.620   1.543   0.443 -0.2015  0.2998  0.1070
 4251SOL     OW16775   5.802   1.418   3.881 -0.1044 -0.0143 -0.3794
 4251SOL    HW216776   5.724   1.473   3.877 -1.0052 -1.1220  1.0194
 4251SOL    HW316777   5.777   1.337   3.838  0.8579  0.2254 -1.4408
 4251SOL    MW416778   5.788   1.415   3.875 -0.0500  0.3036  0.0629
 4252SOL     OW16779   2.569   5.485   5.811 -0.3679 -0.7130  0.7048
 4252SOL    HW216780   2.493   5.501   5.755 -1.4870  0.7986  2.5582
 4252SOL    HW316781   2.545   5.407   5.861 -0.7405 -0.2117  1.3191
 4252SOL    MW416782   2.556   5.476   5.810 -0.3562 -0.6057  0.1334
 4253SOL     OW16783   2.971   4.140   4.894 -0.1201 -0.3806 -0.3835
 4253SOL    HW216784   3.042   4.148   4.957 -1.5939  0.1743  1.2957
 4253SOL    HW316785   3.001   4.186   4.816  1.1784  0.2123  0.4474
 4253SOL    MW416786   2.984   4.147   4.892  0.0989  0.1074  0.2220
 4254SOL     OW16787   4.870   4.681   4.824  0.0597  0.3001  0.1057
 4254SOL    HW216788   4.824   4.602   4.851 -0.7544  0.4712 -0.7124
 4254SOL    HW316789   4.926   4.703   4.898 -0.4661 -0.4591  0.7492
 4254SOL    MW416790   4.871   4.674   4.837 -0.4786  0.2013  0.4011
 4255SOL     OW16791   0.451   2.348   5.283  0.2161 -0.6909 -0.8794
 4255SOL    HW216792   0.531   2.340   5.336  0.1059  2.2391 -0.0687
 4255SOL    HW316793   0.379   2.340   5.345 -0.1664 -2.4961 -1.4851
 4255SOL    MW416794   0.452   2.346   5.298  0.1377  0.0307  0.2720
 4256SOL     OW16795   0.137   3.400   4.085  0.0946  0.3754  0.1555
 4256SOL    HW216796   0.047   3.384   4.056  0.1564 -0.1351  0.2302
 4256SOL    HW316797   0.152   3.334   4.153  0.6548  0.1956 -0.1360
 4256SOL    MW416798   0.127   3.389   4.090  0.0148  0.1633 -0.4210
 4257SOL     OW16799   4.462   2.896   0.984 -0.0728 -0.3437 -0.2717
 4257SOL    HW216800   4.447   2.968   1.045 -0.0522 -2.0387  1.8386
 4257SOL    HW316801   4.385   2.897   0.927  0.3372  1.8309 -0.8561
 4257SOL    MW416802   4.450   2.906   0.985  0.2542 -0.3423 -0.1495
 4258SOL     OW16803   0.564   1.109   4.349  0.1524 -0.3452 -0.2654
 4258SOL    HW216804   0.659   1.097   4.350  0.1321 -0.5416 -0.4979
 4258SOL    HW316805   0.543   1.123   4.256 -0.1733 -1.3403 -0.3520
 4258SOL    MW416806   0.574   1.109   4.337 -0.0932  0.0702  0.1339
 4259SOL     OW16807   5.437   5.606   3.803  0.5075  0.4603  0.1187
 4259SOL    HW216808   5.419   5.669   3.732 -0.0468 -0.3540 -0.4857
 4259SOL    HW316809   5.475   5.531   3.758 -2.4190 -1.2288  0.2366
 4259SOL    MW416810   5.439   5.605   3.787 -0.2326 -0.3692 -0.2883
 4260SOL     OW16811   5.519   4.879   2.501  0.3965 -0.4899  0.5322
 4260SOL    HW216812   5.474   4.958   2.531  0.2470 -0.1261 -0.5872
 4260SOL    HW316813   5.580   4.911   2.435 -0.0276 -1.3648 -0.3062
 4260SOL    MW416814   5.521   4.894   2.496 -0.0603  0.6635 -0.8509
 4261SOL     OW16815   5.307   3.807   1.304  0.5705 -0.3855 -0.6979
 4261SOL    HW216816   5.270   3.795   1.391  0.6066 -0.0276 -0.6321
 4261SOL    HW316817   5.238   3.849   1.253  0.8051  0.0996 -0.6296
 4261SOL    MW416818   5.293   3.811   1.308  0.2236 -0.6549 -0.4791
 4262SOL     OW16819   5.547   6.165   0.371  0.3915  0.2692  0.1802
 4262SOL    HW216820   5.539   6.258   0.392  1.0603  0.1987  0.7954
 4262SOL    HW316821   5.641   6.149   0.368  0.2856 -0.1728 -0.9468
 4262SOL    MW416822   5.558   6.175   0.374  0.7770  0.2485  0.0358
 4263SOL     OW16823   2.009   1.723   2.516  0.0208  0.0431 -0.4786
 4263SOL    HW216824   1.921   1.731   2.554 -1.1781 -0.0500 -3.0423
 4263SOL    HW316825   2.017   1.798   2.458  1.4023 -0.3031 -0.7615
 4263SOL    MW416826   1.999   1.734   2.514  0.2207 -0.2336  0.1478
 4264SOL     OW16827   3.991   4.253   2.800 -0.5904  0.1070 -0.1280
 4264SOL    HW216828   3.897   4.270   2.814 -0.6709 -0.3166 -0.1410
 4264SOL    HW316829   3.992   4.181   2.736 -0.2502  0.7697 -0.8852
 4264SOL    MW416830   3.978   4.245   2.793 -0.7149 -0.2342 -0.6595
 4265SOL     OW16831   5.505   3.088   3.070 -0.4649  0.1539  0.4088
 4265SOL    HW216832   5.516   2.993   3.063  0.0977  0.3615 -2.7963
 4265SOL    HW316833   5.420   3.106   3.030  0.3279  1.1439 -0.9039
 4265SOL    MW416834   5.496   3.078   3.064  0.3869  0.1560 -0.4862
 4266SOL     OW16835   2.713   2.920   5.676 -0.0566  0.0435  0.2095
 4266SOL    HW216836   2.681   3.007   5.697 -0.3047  0.2363 -0.9147
 4266SOL    HW316837   2.687   2.906   5.585  2.5967  0.0153 -0.6421
 4266SOL    MW416838   2.705   2.929   5.667 -0.1347  0.4575 -0.0220
 4267SOL     OW16839   5.483   4.701   0.742 -0.0009  0.3545 -0.2514
 4267SOL    HW216840   5.427   4.760   0.793 -0.8641 -0.6213 -0.0510
 4267SOL    HW316841   5.471   4.615   0.782 -0.9825 -0.5216 -2.3036
 4267SOL    MW416842   5.474   4.698   0.754  0.0073  0.2829  0.6651
 4268SOL     OW16843   1.767   3.582   3.650 -0.7604 -0.1993 -0.6220
 4268SOL    HW216844   1.744   3.592   3.558 -1.0050  1.3297 -0.4245
 4268SOL    HW316845   1.683   3.567   3.694 -0.6059 -1.3084 -0.6676
 4268SOL    MW416846   1.753   3.581   3.644  0.0311 -0.1825  0.0250
 4269SOL     OW16847   5.172   1.543   1.870  0.3583 -0.2283 -0.5002
 4269SOL    HW216848   5.244   1.533   1.808  1.4485  0.6727  0.5432
 4269SOL    HW316849   5.152   1.637   1.867 -1.5203 -0.6286 -1.5379
 4269SOL    MW416850   5.179   1.554   1.861 -0.2319 -0.5401  0.2821
 4270SOL     OW16851   2.855   1.501   6.329  0.9554 -0.5950  0.2477
 4270SOL    HW216852   2.949   1.521   6.337  0.7128  0.1112  1.7534
 4270SOL    HW316853   2.835   1.451   6.408  0.4286 -2.4200 -0.9857
 4270SOL    MW416854   2.865   1.497   6.340 -0.4305  0.0499  0.0312
 4271SOL     OW16855   2.017   3.029   4.185 -0.2878  0.0011  0.5162
 4271SOL    HW216856   2.072   3.077   4.248  0.9577 -1.6212  0.7256
 4271SOL    HW316857   2.079   2.996   4.120 -1.0569 -1.6235  0.5703
 4271SOL    MW416858   2.033   3.031   4.184  0.2495 -0.1088  0.1874
 4272SOL     OW16859   1.445   3.035   4.180  0.2607  0.3182 -0.4318
 4272SOL    HW216860   1.493   3.006   4.103 -0.5350 -2.5155  0.0028
 4272SOL    HW316861   1.437   3.130   4.170  3.5249  0.5796 -1.8392
 4272SOL    MW416862   1.450   3.044   4.169  0.1658 -0.0049 -0.4336
 4273SOL     OW16863   0.863   2.258   2.706 -0.2911 -0.0028  0.2349
 4273SOL    HW216864   0.863   2.294   2.795 -0.4984  2.2875 -0.6069
 4273SOL    HW316865   0.867   2.163   2.718 -0.5265  0.2291  2.6758
 4273SOL    MW416866   0.863   2.250   2.720  0.0671 -0.4323 -0.0048
 4274SOL     OW16867   0.399   3.241   6.341  0.4955  0.2049 -0.9246
 4274SOL    HW216868   0.491   3.259   6.359  0.5651 -0.1497 -0.9173
 4274SOL    HW316869   0.393   3.145   6.339 -0.6454 -0.0310  3.3856
 4274SOL    MW416870   0.410   3.230   6.343  0.1439  0.1797  0.2478
 4275SOL     OW16871   1.276   0.630   5.273  0.1822 -0.0913 -0.0557
 4275SOL    HW216872   1.307   0.600   5.187  1.5771  0.2038  0.3211
 4275SOL    HW316873   1.319   0.571   5.336 -1.3140 -0.7101  0.4414
 4275SOL    MW416874   1.286   0.618   5.270 -0.5139  0.1883 -0.3769
 4276SOL     OW16875   3.820   2.419   3.209 -0.3452  0.2371 -0.2752
 4276SOL    HW216876   3.815   2.514   3.215 -1.0653  0.2529 -0.9613
 4276SOL    HW316877   3.906   2.397   3.245 -0.3944  1.0940  0.3962
 4276SOL    MW416878   3.831   2.429   3.214 -0.3347 -0.3349  0.0514
 4277SOL     OW16879   5.510   5.716   1.872  0.3514  0.0099 -0.0597
 4277SOL    HW216880   5.591   5.766   1.858  0.4834  0.9043  3.1272
 4277SOL    HW316881   5.494   5.673   1.788  2.3723  2.3234 -1.7919
 4277SOL    MW416882   5.519   5.717   1.859 -0.1842  0.2450  0.3650
 4278SOL     OW16883   4.363   4.162   5.061  0.1500  0.2363 -0.4521
 4278SOL    HW216884   4.285   4.147   5.009 -0.6033  1.0728  0.3882
 4278SOL    HW316885   4.338   4.137   5.150  0.7998  0.6194 -0.1546
 4278SOL    MW416886   4.350   4.157   5.066 -0.7472  0.4793  0.0428
 4279SOL     OW16887   5.362   2.985   0.107  0.1415 -0.1144  0.1276
 4279SOL    HW216888   5.380   2.928   0.182  1.8242 -0.4398 -0.4851
 4279SOL    HW316889   5.326   3.065   0.145  1.6191  0.0058  1.3740
 4279SOL    MW416890   5.360   2.988   0.122  0.2879  0.1665  0.4460
 4280SOL     OW16891   1.530   5.102   0.173 -0.0136 -0.3455 -0.3516
 4280SOL    HW216892   1.543   5.144   0.088 -3.4030  1.1600 -0.3147
 4280SOL    HW316893   1.578   5.158   0.235  0.3923  0.0268 -0.9930
 4280SOL    MW416894   1.538   5.115   0.170  0.0423  0.5416 -0.6245
 4281SOL     OW16895   4.421   1.639   4.839  0.1093  0.5846  0.2681
 4281SOL    HW216896   4.460   1.726   4.851 -1.6469  1.2874  1.3715
 4281SOL    HW316897   4.334   1.647   4.878 -0.5878 -1.3175 -0.7838
 4281SOL    MW416898   4.415   1.652   4.846 -0.3303  0.8853  0.2999
 4282SOL     OW16899   4.802   6.058   5.498  0.2178  0.7194  0.2532
 4282SOL    HW216900   4.709   6.054   5.480  0.4172  0.5316 -0.8352
 4282SOL    HW316901   4.823   5.972   5.535  0.0534  0.5525 -0.0343
 4282SOL    MW416902   4.793   6.046   5.501  0.4204  0.0309  0.0872
 4283SOL     OW16903   2.681   1.878   0.573 -0.5028 -0.0823  0.0883
 4283SOL    HW216904   2.653   1.875   0.664 -1.1987 -0.6969 -0.1343
 4283SOL    HW316905   2.599   1.875   0.523 -0.1011 -0.5449 -0.5615
 4283SOL    MW416906   2.667   1.877   0.578 -0.5444 -0.1341 -0.1358
 4284SOL     OW16907   3.657   3.577   0.840  0.1314 -0.1982 -0.0387
 4284SOL    HW216908   3.640   3.538   0.754  0.8178 -0.0074 -0.2694
 4284SOL    HW316909   3.726   3.642   0.824  1.1778 -1.0410  0.8616
 4284SOL    MW416910   3.664   3.580   0.827 -0.2053  0.2278  0.2639
 4285SOL     OW16911   3.804   1.063   0.108 -0.5854 -0.8183  0.1617
 4285SOL    HW216912   3.753   1.078   0.188 -0.3266 -0.2156  0.2232
 4285SOL    HW316913   3.878   1.010   0.137  0.7572  1.2795  0.8209
 4285SOL    MW416914   3.807   1.058   0.122 -0.2390 -0.1367 -0.4770
 4286SOL     OW16915   4.842   3.188   0.635  0.5180 -0.2019 -0.7445
 4286SOL    HW216916   4.903   3.239   0.687  0.3279 -2.2813  1.6963
 4286SOL    HW316917   4.761   3.188   0.685  0.2994 -2.2364 -1.0037
 4286SOL    MW416918   4.839   3.195   0.648  0.0811 -0.7192 -0.4888
 4287SOL     OW16919   4.098   1.945   1.231 -1.1021 -0.2325 -0.1410
 4287SOL    HW216920   4.151   1.885   1.180  0.0975  0.2444  0.5010
 4287SOL    HW316921   4.139   1.945   1.318  0.8026  3.6310 -0.8228
 4287SOL    MW416922   4.111   1.937   1.236 -0.5325  0.7177 -0.0997
 4288SOL     OW16923   4.460   5.498   3.300 -0.4307  0.3956 -0.1406
 4288SOL    HW216924   4.458   5.467   3.391 -3.9279  0.2134 -0.1561
 4288SOL    HW316925   4.458   5.418   3.248  1.9079  0.4869 -0.4923
 4288SOL    MW416926   4.459   5.483   3.306  0.1651  0.3318  0.0177
 4289SOL     OW16927   5.916   1.636   6.053  0.5259  0.3028 -0.3059
 4289SOL    HW216928   5.844   1.592   6.008 -1.0066  2.5045 -0.1392
 4289SOL    HW316929   5.922   1.589   6.137 -1.0882  0.3903 -0.1031
 4289SOL    MW416930   5.907   1.624   6.058 -0.0881  0.3716  0.3908
 4290SOL     OW16931   4.868   4.998   3.553  0.0601 -0.6707  0.7931
 4290SOL    HW216932   4.897   4.945   3.627  0.7136 -1.6642 -0.1531
 4290SOL    HW316933   4.940   5.058   3.536  1.0334 -2.1868 -0.6558
 4290SOL    MW416934   4.881   4.999   3.560 -0.3165  0.3292 -0.0159
 4291SOL     OW16935   4.684   5.611   3.174 -0.3254 -0.3475 -0.7581
 4291SOL    HW216936   4.658   5.702   3.157 -1.7256 -0.6517 -0.4008
 4291SOL    HW316937   4.611   5.575   3.225  0.8662 -1.2688  0.3577
 4291SOL    MW416938   4.671   5.618   3.179 -0.3333  0.4933  0.1718
 4292SOL     OW16939   1.704   5.469   0.643 -0.2774 -0.6538 -0.6250
 4292SOL    HW216940   1.776   5.440   0.699  0.1361 -0.4666 -1.0542
 4292SOL    HW316941   1.641   5.509   0.703  0.4067  0.0394 -0.3543
 4292SOL    MW416942   1.706   5.470   0.658  0.4553 -0.4743 -0.3365
 4293SOL     OW16943   0.547   5.550   1.543  0.6682  0.0221  0.2975
 4293SOL    HW216944   0.589   5.592   1.618  1.3036 -0.2224  0.0866
 4293SOL    HW316945   0.467   5.601   1.529  0.4453 -0.0494  1.2500
 4293SOL    MW416946   0.542   5.563   1.551  0.4007 -0.2220 -0.2400
 4294SOL     OW16947   5.570   3.161   0.013  0.1048  0.8803 -0.5306
 4294SOL    HW216948   5.492   3.118   0.046  1.1304 -0.7020 -0.0585
 4294SOL    HW316949   5.571   3.246   0.057  0.9853 -0.7945  3.0689
 4294SOL    MW416950   5.560   3.167   0.023  0.1574 -0.0961  0.4612
 4295SOL     OW16951   2.902   3.341   3.260 -0.6519 -0.3465  0.1694
 4295SOL    HW216952   2.827   3.399   3.267  0.2083  0.8497 -0.1545
 4295SOL    HW316953   2.899   3.308   3.170 -1.6767 -1.6116  0.6272
 4295SOL    MW416954   2.892   3.344   3.249 -0.0287  0.5732 -0.1803
 4296SOL     OW16955   1.264   1.419   0.178  0.1318 -0.3431  0.9988
 4296SOL    HW216956   1.354   1.449   0.180 -0.1025  0.4492  0.3344
 4296SOL    HW316957   1.215   1.484   0.227 -0.2769  0.0031  0.1574
 4296SOL    MW416958   1.269   1.431   0.185 -0.6715  0.0002  0.1918
 4297SOL     OW16959   2.960   2.873   0.153  0.1178 -0.1279  0.3564
 4297SOL    HW216960   2.966   2.965   0.177 -2.2260  0.6906 -1.8565
 4297SOL    HW316961   3.052   2.844   0.146  0.8887  1.8508  1.5297
 4297SOL    MW416962   2.973   2.881   0.155 -0.0382 -0.0207  0.1285
 4298SOL     OW16963   1.832   1.153   5.695 -0.2398  0.1280  0.1441
 4298SOL    HW216964   1.844   1.237   5.740  1.9209 -1.1256  2.0960
 4298SOL    HW316965   1.831   1.177   5.602  0.6075  2.3035  0.6186
 4298SOL    MW416966   1.833   1.168   5.689 -0.4101 -0.0804  0.2983
 4299SOL     OW16967   5.937   0.231   0.011  0.6809  0.0673  0.1910
 4299SOL    HW216968   5.913   0.272   0.094 -1.3371  0.7885 -0.6683
 4299SOL    HW316969   5.992   0.296  -0.032  0.8751  0.1366  0.5429
 4299SOL    MW416970   5.941   0.245   0.016 -0.3043 -0.0556 -0.2246
 4300SOL     OW16971   5.900   5.475   4.016  0.2001 -0.3372 -0.2270
 4300SOL    HW216972   5.964   5.523   3.963  0.4173 -0.3280  0.0437
 4300SOL    HW316973   5.837   5.541   4.045  0.7992 -0.1232  0.5927
 4300SOL    MW416974   5.900   5.490   4.013  0.2763  0.5477 -0.5238
 4301SOL     OW16975   3.669   2.833   2.191  0.7420 -0.2342  0.7275
 4301SOL    HW216976   3.600   2.784   2.146  0.5216  1.1060 -0.4472
 4301SOL    HW316977   3.629   2.918   2.211  1.0810 -0.5200  2.8333
 4301SOL    MW416978   3.654   2.838   2.188  0.0761  0.1905 -0.1519
 4302SOL     OW16979   0.029   2.960   1.259  0.7606 -0.8661  0.1302
 4302SOL    HW216980  -0.063   2.983   1.254  0.9641  0.1057  0.5957
 4302SOL    HW316981   0.036   2.903   1.336  1.0100  1.6181  2.0602
 4302SOL    MW416982   0.018   2.955   1.269 -0.6504 -0.1786 -0.1124
 4303SOL     OW16983   2.424   0.130   5.830 -0.2568  0.4928 -0.1778
 4303SOL    HW216984   2.514   0.105   5.851 -0.7396 -0.6568  0.5952
 4303SOL    HW316985   2.432   0.219   5.795  1.3669 -0.2540 -1.8211
 4303SOL    MW416986   2.437   0.139   5.828  0.2511  0.3331 -0.3266
 4304SOL     OW16987   4.907   2.674   1.493 -0.4217  0.5239  0.0404
 4304SOL    HW216988   4.935   2.754   1.538 -0.2691  0.3647  0.2304
 4304SOL    HW316989   4.983   2.617   1.496 -0.0031  0.9577 -1.4872
 4304SOL    MW416990   4.921   2.677   1.499 -0.1711  0.1797  0.3175
 4305SOL     OW16991   2.139   1.643   1.812  0.6688 -0.0053  0.1809
 4305SOL    HW216992   2.104   1.622   1.899 -0.8169  2.3929  0.2239
 4305SOL    HW316993   2.062   1.655   1.757  1.3987  3.0797 -0.3081
 4305SOL    MW416994   2.124   1.642   1.816 -0.4070  0.0392  0.0347
 4306SOL     OW16995   2.397   1.100   4.551 -0.0139  0.3480  0.3514
 4306SOL    HW216996   2.491   1.100   4.532  0.0264  2.3611  0.3215
 4306SOL    HW316997   2.389   1.153   4.631 -1.2628  1.7204 -0.6254
 4306SOL    MW416998   2.408   1.107   4.559 -0.8249 -0.0828  0.4067
 4307SOL     OW16999   4.345   5.531   3.747 -0.0856  0.2084  0.2706
 4307SOL    HW217000   4.371   5.479   3.671  0.9013  0.6487  0.2991
 4307SOL    HW317001   4.281   5.594   3.712  0.7109  0.7188 -0.3000
 4307SOL    MW417002   4.340   5.533   3.732 -0.2682  0.4365 -0.4970
 4308SOL     OW17003   0.387   4.861   2.827  0.6463 -0.0832 -0.8762
 4308SOL    HW217004   0.470   4.819   2.807  1.8143  1.6522  0.0127
 4308SOL    HW317005   0.411   4.933   2.886 -1.5690  0.0834 -0.1004
 4308SOL    MW417006   0.401   4.865   2.832  0.0522  0.0014 -0.1098
 4309SOL     OW17007   3.115   0.681   3.148 -0.3584  0.5139  0.4666
 4309SOL    HW217008   3.049   0.677   3.217 -1.7270  2.1962 -0.6522
 4309SOL    HW317009   3.197   0.704   3.193 -1.0286  0.6845  1.6204
 4309SOL    MW417010   3.117   0.684   3.163  0.1577 -0.0324  0.4625
 4310SOL     OW17011   2.756   2.289   1.033  0.2814  0.1681  0.4576
 4310SOL    HW217012   2.806   2.209   1.049  1.1930  0.7345  0.5831
 4310SOL    HW317013   2.776   2.313   0.943 -1.3606 -0.6573 -0.1501
 4310SOL    MW417014   2.766   2.282   1.023 -0.1747  0.1221  0.6002
 4311SOL     OW17015   6.383   0.266   3.404 -0.2813 -0.3128  0.5209
 4311SOL    HW217016   6.291   0.283   3.386 -0.5188  0.6125  2.4488
 4311SOL    HW317017   6.384   0.179   3.445  0.1055 -1.7311 -2.2135
 4311SOL    MW417018   6.371   0.257   3.407 -0.4202  0.0877 -0.4821
 4312SOL     OW17019   6.197   3.721   1.795  0.2372  0.0733  0.4349
 4312SOL    HW217020   6.135   3.722   1.723  0.4960 -0.7819  0.1949
 4312SOL    HW317021   6.283   3.710   1.753  0.3290 -1.1122  0.9011
 4312SOL    MW417022   6.200   3.720   1.780 -0.1979 -0.1291  0.2477
 4313SOL     OW17023   5.384   3.673   6.005  0.7126  0.7452 -0.2731
 4313SOL    HW217024   5.363   3.631   6.089  1.9308 -1.4303 -0.9988
 4313SOL    HW317025   5.391   3.601   5.943  2.1044  2.1055 -1.7711
 4313SOL    MW417026   5.382   3.658   6.008 -0.2699 -0.2066  0.3142
 4314SOL     OW17027   2.275   5.957   5.575 -0.0349  0.1426 -0.0055
 4314SOL    HW217028   2.205   5.985   5.634  0.0174 -0.9323  0.5892
 4314SOL    HW317029   2.247   5.871   5.544 -0.2575  0.8370 -1.8949
 4314SOL    MW417030   2.262   5.950   5.579  0.1424  0.1139 -0.6619
 4315SOL     OW17031   6.116   3.537   1.540 -0.6925  0.3806 -0.4144
 4315SOL    HW217032   6.074   3.451   1.534  1.0939 -0.4221 -2.6381
 4315SOL    HW317033   6.205   3.518   1.570  0.2755  1.2196 -2.5939
 4315SOL    MW417034   6.122   3.523   1.543  0.7156 -0.4858 -0.3370
 4316SOL     OW17035   6.058   5.151   0.479  0.4637 -0.0068 -0.1692
 4316SOL    HW217036   6.124   5.203   0.433 -1.4864  0.8222 -2.1966
 4316SOL    HW317037   6.032   5.084   0.416  0.7618 -1.6020  1.3300
 4316SOL    MW417038   6.063   5.149   0.465  0.4845  0.4074 -0.0609
 4317SOL     OW17039   4.060   2.592   4.337 -0.3921  0.1359  0.0253
 4317SOL    HW217040   3.983   2.559   4.383 -1.4858 -0.0540 -1.8398
 4317SOL    HW317041   4.042   2.576   4.245  1.5410  0.8443 -0.5340
 4317SOL    MW417042   4.048   2.585   4.331 -0.5885 -0.5151  1.0599
 4318SOL     OW17043   3.479   0.510   5.960 -0.8565 -0.2486 -0.1668
 4318SOL    HW217044   3.450   0.569   5.890  0.0979 -0.7828 -1.0446
 4318SOL    HW317045   3.500   0.428   5.915  0.1965 -0.4677  0.6911
 4318SOL    MW417046   3.478   0.507   5.945  0.0529  0.4141  0.2758
 4319SOL     OW17047   1.492   5.498   1.945 -0.0059  0.1640 -0.2790
 4319SOL    HW217048   1.549   5.507   1.869  0.2939 -0.5243 -0.1398
 4319SOL    HW317049   1.406   5.474   1.908 -0.2014  1.1291 -0.4817
 4319SOL    MW417050   1.488   5.496   1.930 -0.6987  0.9402  0.1985
 4320SOL     OW17051   4.638   2.570   0.509 -0.3045  0.2117  0.2871
 4320SOL    HW217052   4.574   2.541   0.574 -0.0690  2.0786  1.4365
 4320SOL    HW317053   4.587   2.587   0.430 -0.4624 -3.1275 -0.5010
 4320SOL    MW417054   4.623   2.568   0.507 -0.2851 -0.0930 -0.8629
 4321SOL     OW17055   2.738   1.241   5.573  0.2477  0.6209  0.5376
 4321SOL    HW217056   2.693   1.325   5.561  0.5173  0.8506  1.1211
 4321SOL    HW317057   2.668   1.178   5.590  0.0900  0.8310  0.6594
 4321SOL    MW417058   2.723   1.244   5.574 -0.0312 -0.0222 -0.8477
 4322SOL     OW17059   3.287   4.710   4.781 -0.2585  0.3901  0.5312
 4322SOL    HW217060   3.196   4.739   4.771  0.0540  1.2126  0.0077
 4322SOL    HW317061   3.282   4.615   4.780 -1.0135  0.4288 -0.4455
 4322SOL    MW417062   3.274   4.701   4.780 -0.0988  0.0281 -0.8141
 4323SOL     OW17063   2.625   1.856   4.500 -0.0459  0.0938  0.4551
 4323SOL    HW217064   2.679   1.875   4.577 -0.1245  0.0333  0.5249
 4323SOL    HW317065   2.564   1.788   4.529  2.0142 -2.3611 -0.5244
 4323SOL    MW417066   2.624   1.849   4.514 -0.1525 -0.0651 -0.1929
 4324SOL     OW17067   4.941   5.081   2.827  0.5642 -0.0047 -0.6247
 4324SOL    HW217068   4.912   5.130   2.904  0.1544  0.0135 -0.7887
 4324SOL    HW317069   5.001   5.015   2.862  0.5201  0.1211 -0.3102
 4324SOL    MW417070   4.945   5.079   2.842 -0.0327  0.2881 -0.1999
 4325SOL     OW17071   3.543   5.760   1.603  0.0602 -0.5387 -0.2358
 4325SOL    HW217072   3.454   5.736   1.629 -0.1872 -0.4365 -0.9750
 4325SOL    HW317073   3.586   5.676   1.586  0.1891 -0.6004  0.3828
 4325SOL    MW417074   3.537   5.746   1.604 -0.3064  0.1339  0.0404
 4326SOL     OW17075   4.384   5.998   2.996  0.2581 -0.1653  0.2456
 4326SOL    HW217076   4.297   6.001   3.036 -0.9777 -0.9483 -2.2223
 4326SOL    HW317077   4.406   6.090   2.980 -0.9721 -0.0165 -0.7692
 4326SOL    MW417078   4.376   6.011   2.999  0.2726  0.1975 -0.3130
 4327SOL     OW17079   6.350   4.633   5.103 -0.1131 -0.1515  0.3295
 4327SOL    HW217080   6.421   4.696   5.108 -3.1726  3.5791  1.3158
 4327SOL    HW317081   6.288   4.671   5.042 -2.3253 -2.0251  1.2514
 4327SOL    MW417082   6.351   4.646   5.096  0.0284  0.6554 -0.2396
 4328SOL     OW17083   1.953   3.113   3.033 -0.0607  0.3010  0.7147
 4328SOL    HW217084   2.025   3.067   3.076  0.1261  0.6196  0.7404
 4328SOL    HW317085   1.993   3.189   2.993 -0.2989  0.2025  0.2866
 4328SOL    MW417086   1.968   3.117   3.033 -0.4492 -0.3443  0.4992
 4329SOL     OW17087   0.653   2.453   2.707  0.0872  0.3355  0.3827
 4329SOL    HW217088   0.715   2.380   2.701  0.6418  0.8013  0.3137
 4329SOL    HW317089   0.704   2.530   2.681 -0.6304  0.6706 -0.0584
 4329SOL    MW417090   0.668   2.454   2.703 -0.0169  0.2988  0.4348
 4330SOL     OW17091   3.978   4.042   1.012 -0.4657 -0.3246  0.1589
 4330SOL    HW217092   4.047   4.074   1.070  0.6696 -0.7111 -0.9465
 4330SOL    HW317093   4.004   4.071   0.925 -1.7402 -0.4237 -0.2775
 4330SOL    MW417094   3.991   4.050   1.008 -0.2876 -0.3778  0.0968
 4331SOL     OW17095   3.744   1.550   3.043  0.7968  0.0047  0.2940
 4331SOL    HW217096   3.730   1.476   3.103  1.3741 -0.3730 -0.0285
 4331SOL    HW317097   3.760   1.625   3.101  1.9852 -0.4796  0.6327
 4331SOL    MW417098   3.744   1.550   3.059  0.3114 -0.5806  0.2355
 4332SOL     OW17099   5.429   5.352   6.348  0.3005  0.2491  0.0494
 4332SOL    HW217100   5.430   5.315   6.436  2.2452 -0.4286 -0.2242
 4332SOL    HW317101   5.521   5.364   6.325 -0.1256 -0.0967 -2.0925
 4332SOL    MW417102   5.441   5.348   6.357  0.5867 -0.5918 -0.3287
 4333SOL     OW17103   1.248   2.589   0.365  0.0523 -0.3834  0.5220
 4333SOL    HW217104   1.207   2.509   0.398 -1.0751  0.6942  1.8688
 4333SOL    HW317105   1.341   2.579   0.387 -0.1328 -1.1725  1.0033
 4333SOL    MW417106   1.255   2.577   0.373 -0.0759  0.0902  0.2461
 4334SOL     OW17107   4.991   4.681   5.369 -0.3343  0.3536 -0.3845
 4334SOL    HW217108   5.006   4.594   5.330 -0.7518  0.3923 -0.6300
 4334SOL    HW317109   4.907   4.709   5.334 -0.0559  0.9969 -0.5527
 4334SOL    MW417110   4.982   4.673   5.359  0.2301 -0.3128 -0.5892
 4335SOL     OW17111   5.686   0.380   5.931  0.2182  0.0271 -0.1843
 4335SOL    HW217112   5.730   0.296   5.918 -0.4672 -0.2943 -0.4976
 4335SOL    HW317113   5.620   0.362   5.998  1.2303  0.7611  1.0652
 4335SOL    MW417114   5.683   0.366   5.938 -0.1824 -0.4488  0.5095
 4336SOL     OW17115   4.904   1.062   0.370 -0.4881  0.0002 -0.0153
 4336SOL    HW217116   4.950   1.003   0.310 -1.4986 -0.5388 -0.2833
 4336SOL    HW317117   4.818   1.021   0.383 -0.6309  0.5933  1.0636
 4336SOL    MW417118   4.899   1.049   0.364  0.0018 -0.0821  0.0090
 4337SOL     OW17119   2.131   0.112   5.109 -0.3719 -0.0254  0.2433
 4337SOL    HW217120   2.159   0.102   5.200  1.4999 -2.9221 -0.5074
 4337SOL    HW317121   2.111   0.022   5.081  0.1865  0.6258 -2.5172
 4337SOL    MW417122   2.132   0.099   5.118 -0.2289  0.2692 -0.6896
 4338SOL     OW17123   3.780   1.435   5.589  0.2745  0.4147 -0.3688
 4338SOL    HW217124   3.837   1.461   5.662 -0.3753  1.4238 -0.2064
 4338SOL    HW317125   3.694   1.473   5.611 -0.8967 -2.2745  0.1415
 4338SOL    MW417126   3.776   1.443   5.602  0.1009 -0.2058  0.1917
 4339SOL     OW17127   6.094   1.313   3.615  0.4086  0.0322  0.5248
 4339SOL    HW217128   6.148   1.391   3.627  1.8183 -1.0344  1.5511
 4339SOL    HW317129   6.075   1.283   3.703  0.1365 -0.9418  0.1465
 4339SOL    MW417130   6.099   1.319   3.628 -0.2893 -0.3141 -0.2526
 4340SOL     OW17131   0.319   0.652   3.871  0.2455 -0.1707 -0.3634
 4340SOL    HW217132   0.275   0.707   3.806  0.4929 -1.2853 -1.5263
 4340SOL    HW317133   0.410   0.683   3.871  0.6231 -1.1815 -1.7590
 4340SOL    MW417134   0.325   0.663   3.862 -0.3513  0.2365 -0.4362
 4341SOL     OW17135   3.819   0.133   5.148 -0.3122  0.2860  0.2279
 4341SOL    HW217136   3.775   0.150   5.064 -1.1089 -0.3602  0.5090
 4341SOL    HW317137   3.813   0.217   5.195 -1.4305  0.1585  0.3411
 4341SOL    MW417138   3.812   0.147   5.143  0.6040  0.1709  0.5148
 4342SOL     OW17139   3.923   4.343   1.248  0.2230 -0.2274  0.1638
 4342SOL    HW217140   3.925   4.389   1.164  2.1131  0.9632  0.7898
 4342SOL    HW317141   3.851   4.383   1.296  0.2701  0.3474 -0.2342
 4342SOL    MW417142   3.914   4.354   1.243 -0.3304  0.1628  0.1989
 4343SOL     OW17143   0.153   2.442   2.605 -0.5535 -0.2642 -0.0349
 4343SOL    HW217144   0.233   2.489   2.584  0.3431 -0.9527  1.6560
 4343SOL    HW317145   0.104   2.440   2.523  1.4510 -0.4192 -1.2908
 4343SOL    MW417146   0.157   2.448   2.592 -0.0503 -0.2238 -0.3745
 4344SOL     OW17147   5.850   5.884   5.054  0.3823  0.3653 -1.1272
 4344SOL    HW217148   5.894   5.837   4.984 -2.9807 -1.3830 -2.2963
 4344SOL    HW317149   5.773   5.831   5.074 -2.0426  3.8395 -0.3501
 4344SOL    MW417150   5.846   5.871   5.048  0.0780  0.2396  0.1232
 4345SOL     OW17151   0.701   1.112   0.482 -0.8170 -0.6779  0.5532
 4345SOL    HW217152   0.762   1.093   0.553 -0.6244 -0.1522  0.5288
 4345SOL    HW317153   0.720   1.203   0.457 -0.6605 -0.9527 -0.3835
 4345SOL    MW417154   0.712   1.122   0.488 -0.2778 -0.1852  0.0402
 4346SOL     OW17155   2.472   2.188   3.302 -0.0293  0.1387 -0.9113
 4346SOL    HW217156   2.390   2.192   3.254 -0.5269 -0.6104 -0.1632
 4346SOL    HW317157   2.448   2.206   3.393  0.5800 -0.3767 -0.6354
 4346SOL    MW417158   2.458   2.191   3.308  0.0633  0.0704  0.3548
 4347SOL     OW17159   0.882   1.043   6.266  0.3390  0.6907 -0.6050
 4347SOL    HW217160   0.793   1.064   6.295  0.3829  0.9519 -0.6534
 4347SOL    HW317161   0.872   1.022   6.173  0.5666  2.4835 -1.0864
 4347SOL    MW417162   0.869   1.043   6.257 -0.1031  0.4486 -0.0912
 4348SOL     OW17163   0.536   4.431   6.347  0.4790 -0.0419  0.2170
 4348SOL    HW217164   0.527   4.519   6.384  1.0499 -0.6322  1.8782
 4348SOL    HW317165   0.488   4.375   6.409 -0.2028 -0.8650 -1.0222
 4348SOL    MW417166   0.528   4.435   6.360  0.2122  0.1430 -0.3580
 4349SOL     OW17167   2.575   4.348   4.500  0.2197  0.0580 -0.3603
 4349SOL    HW217168   2.623   4.378   4.577 -0.0535 -1.7213  0.5542
 4349SOL    HW317169   2.535   4.427   4.465 -1.0981  0.7346  2.3622
 4349SOL    MW417170   2.576   4.362   4.506  0.5313 -0.2845 -0.1561
 4350SOL     OW17171   2.056   4.652   4.543 -0.1529 -0.0711  0.2989
 4350SOL    HW217172   2.044   4.560   4.519 -3.0653 -0.0765  1.3664
 4350SOL    HW317173   2.133   4.680   4.493 -1.0091 -2.2230 -2.5189
 4350SOL    MW417174   2.064   4.644   4.533  0.0294  0.2474  0.0018
 4351SOL     OW17175   2.973   5.681   1.608 -0.2735  0.3360  0.1663
 4351SOL    HW217176   2.917   5.740   1.558 -0.7838  0.2485  0.6318
 4351SOL    HW317177   2.985   5.605   1.551 -1.0878  0.1100  0.2837
 4351SOL    MW417178   2.967   5.679   1.593 -0.6746 -0.3808  0.1173
 4352SOL     OW17179   0.458   2.639   5.522 -0.1844 -0.0746  0.1363
 4352SOL    HW217180   0.439   2.552   5.557  0.9664  0.3748  2.0668
 4352SOL    HW317181   0.550   2.634   5.494  0.5426  1.0090  2.1361
 4352SOL    MW417182   0.468   2.627   5.523 -0.2493  0.0167 -0.2749
 4353SOL     OW17183   4.062   0.416   5.012 -0.5397  0.0048 -0.1060
 4353SOL    HW217184   4.129   0.478   4.984 -0.6874 -0.0400 -0.5622
 4353SOL    HW317185   4.008   0.465   5.074 -1.5516  0.8280 -1.5595
 4353SOL    MW417186   4.063   0.431   5.017 -0.1877 -0.4528  0.4100
 4354SOL     OW17187   5.534   0.138   1.423  0.3111 -0.1468 -0.0638
 4354SOL    HW217188   5.506   0.226   1.398 -0.3739 -0.2776  0.2111
 4354SOL    HW317189   5.609   0.119   1.366 -0.6949 -0.1315 -1.4437
 4354SOL    MW417190   5.540   0.147   1.412  0.2624  0.5002 -0.2034
 4355SOL     OW17191   2.409   5.971   4.418  0.6299 -0.7033  0.1220
 4355SOL    HW217192   2.339   5.910   4.392  0.0833 -0.0141 -0.0442
 4355SOL    HW317193   2.363   6.044   4.460  1.2967 -0.4830  0.4763
 4355SOL    MW417194   2.394   5.972   4.420  0.0175  0.3306 -0.5193
 4356SOL     OW17195   3.529   5.892   5.855 -0.0985  0.3954  0.3116
 4356SOL    HW217196   3.438   5.891   5.825 -0.5603 -0.2113  1.6437
 4356SOL    HW317197   3.576   5.840   5.789 -0.5054  1.5355 -0.9228
 4356SOL    MW417198   3.523   5.885   5.842 -0.0447  0.3278 -0.1669
 4357SOL     OW17199   0.765   2.748   1.501  0.1538  0.2655  0.2550
 4357SOL    HW217200   0.763   2.753   1.597  0.3905 -0.6207  0.3114
 4357SOL    HW317201   0.796   2.835   1.474  0.1458  0.5066  0.9826
 4357SOL    MW417202   0.769   2.760   1.510 -0.7150 -0.3344  0.2631
 4358SOL     OW17203   5.285   4.182   4.530  0.1402  0.0705 -0.0741
 4358SOL    HW217204   5.367   4.218   4.498 -0.2167  0.9980  0.0410
 4358SOL    HW317205   5.304   4.158   4.621  0.9378 -1.8869 -0.6966
 4358SOL    MW417206   5.298   4.183   4.538 -0.2193  0.0075 -0.1710
 4359SOL     OW17207   5.995   1.478   2.755 -0.6105  0.1195  0.5011
 4359SOL    HW217208   5.951   1.519   2.681 -1.2584  0.5620  1.1137
 4359SOL    HW317209   5.932   1.485   2.827  0.6744  1.2740  1.5670
 4359SOL    MW417210   5.981   1.484   2.755  0.0157 -0.2419  0.7210
 4360SOL     OW17211   5.162   5.424   3.271  0.5438  0.2564 -0.4549
 4360SOL    HW217212   5.199   5.470   3.346 -1.6577  0.8205  0.3673
 4360SOL    HW317213   5.181   5.331   3.288 -0.0802  0.3526  0.9291
 4360SOL    MW417214   5.170   5.418   3.283  0.4466  0.2887 -0.0216
 4361SOL     OW17215   0.630   3.623   2.677 -0.5445 -0.1525 -0.2983
 4361SOL    HW217216   0.712   3.665   2.650 -1.2263  1.1896 -0.3308
 4361SOL    HW317217   0.654   3.573   2.755 -0.1472  2.1957  1.1979
 4361SOL    MW417218   0.644   3.622   2.684 -0.3205  0.4543  0.3887
 4362SOL     OW17219   5.574   1.675   3.349 -0.6264 -0.2505  0.0463
 4362SOL    HW217220   5.613   1.746   3.399 -0.7161 -0.8098  0.9217
 4362SOL    HW317221   5.522   1.625   3.412 -0.4351 -1.1955 -0.5130
 4362SOL    MW417222   5.572   1.678   3.364 -0.1402 -0.6659 -0.1774
 4363SOL     OW17223   6.394   0.754   0.547  0.0206  0.0196  0.2289
 4363SOL    HW217224   6.434   0.839   0.567  0.8401 -0.2697 -0.1442
 4363SOL    HW317225   6.426   0.732   0.460 -1.8361  0.2746 -0.5635
 4363SOL    MW417226   6.404   0.762   0.538  0.4184  0.1584 -0.1426
 4364SOL     OW17227   6.163   1.778   1.969 -0.1789  0.5472  0.0112
 4364SOL    HW217228   6.098   1.708   1.962 -0.7389  1.2272 -2.8783
 4364SOL    HW317229   6.244   1.740   1.935 -0.6693  1.4078 -2.2950
 4364SOL    MW417230   6.165   1.764   1.964 -0.0115 -0.7069 -0.2955
 4365SOL     OW17231   3.659   0.370   2.409  0.6548  0.4556 -0.0485
 4365SOL    HW217232   3.692   0.295   2.458  2.6432  1.0290 -0.4347
 4365SOL    HW317233   3.568   0.378   2.436  0.7920 -1.2292  1.0539
 4365SOL    MW417234   3.651   0.361   2.419 -0.4283  0.4514  0.4310
 4366SOL     OW17235   2.966   3.722   3.042  0.1093 -0.3737 -0.2921
 4366SOL    HW217236   3.061   3.724   3.033  0.1342  0.2168  0.0619
 4366SOL    HW317237   2.936   3.801   2.997 -0.2771 -0.9456 -1.0619
 4366SOL    MW417238   2.975   3.732   3.035  0.0057 -0.0346  0.1286
 4367SOL     OW17239   0.044   0.919   6.290  0.1004 -0.2426 -0.2192
 4367SOL    HW217240   0.053   0.851   6.356  1.5012 -0.9701 -1.1127
 4367SOL    HW317241  -0.049   0.915   6.264 -0.8829  1.0759  2.6786
 4367SOL    MW417242   0.033   0.910   6.295 -0.3260  0.1938  0.0461
 4368SOL     OW17243   4.194   2.859   1.795  0.4996  0.0152 -0.1483
 4368SOL    HW217244   4.255   2.931   1.810  1.2070 -0.6805  0.3947
 4368SOL    HW317245   4.224   2.790   1.853 -1.6618  0.1318  1.1947
 4368SOL    MW417246   4.206   2.860   1.804 -0.4646 -0.2011  0.0816
 4369SOL     OW17247   1.395   0.549   0.694  0.3968 -0.5611  0.3536
 4369SOL    HW217248   1.402   0.624   0.635  0.6182  1.8288  3.2038
 4369SOL    HW317249   1.333   0.577   0.762  0.8511 -2.7887  1.8054
 4369SOL    MW417250   1.387   0.563   0.695  0.2752  0.0545  0.9834
 4370SOL     OW17251   5.056   4.120   0.504  0.2907  0.6035 -0.3187
 4370SOL    HW217252   5.065   4.025   0.498 -0.7314  0.3989  0.9928
 4370SOL    HW317253   5.145   4.153   0.511  0.6492 -0.2591 -0.7411
 4370SOL    MW417254   5.069   4.112   0.504 -0.3094  0.0492  0.2244
 4371SOL     OW17255   2.743   0.330   3.540  0.6601 -0.9660  0.0194
 4371SOL    HW217256   2.675   0.263   3.533  0.2158 -0.8620  2.4662
 4371SOL    HW317257   2.701   0.410   3.509 -0.8752 -0.6397  2.5811
 4371SOL    MW417258   2.728   0.332   3.535  0.3261  0.0050  0.1651
 4372SOL     OW17259   3.761   4.734   1.327 -0.1944  0.8269 -0.0345
 4372SOL    HW217260   3.743   4.779   1.409 -2.7688 -0.4732  0.2119
 4372SOL    HW317261   3.854   4.714   1.330  0.2637  2.9232  1.4351
 4372SOL    MW417262   3.771   4.737   1.338 -0.3931  0.2948  0.1845
 4373SOL     OW17263   4.053   1.564   0.724  0.0782 -0.7450  0.0828
 4373SOL    HW217264   4.021   1.495   0.781 -2.0300  1.8554  2.3384
 4373SOL    HW317265   4.144   1.578   0.753 -1.0120  0.7227  3.3021
 4373SOL    MW417266   4.061   1.557   0.736 -0.2859  0.1948 -0.2023
 4374SOL     OW17267   1.077   5.596   1.248 -0.1292  0.1781 -0.4573
 4374SOL    HW217268   1.161   5.552   1.240 -0.2297  0.0852 -1.0611
 4374SOL    HW317269   1.015   5.539   1.204 -0.0877  1.3795 -2.1847
 4374SOL    MW417270   1.080   5.583   1.241  0.1766  0.0387  0.5086
 4375SOL     OW17271   3.950   3.282   1.488 -0.2327 -0.0562  0.3138
 4375SOL    HW217272   3.857   3.302   1.493 -0.5517 -0.1290 -2.9596
 4375SOL    HW317273   3.958   3.192   1.520 -1.5569 -0.5248 -0.5780
 4375SOL    MW417274   3.939   3.273   1.493 -0.1949 -0.6815 -0.4113
 4376SOL     OW17275   5.480   1.215   5.848  0.3552  0.2782 -0.2274
 4376SOL    HW217276   5.398   1.166   5.846  0.8583 -0.5633 -0.7671
 4376SOL    HW317277   5.523   1.193   5.765  1.5630 -0.0569  0.4729
 4376SOL    MW417278   5.474   1.206   5.837  0.4213  0.1472 -0.1927
 4377SOL     OW17279   1.597   3.579   5.022 -0.3086 -0.5798 -0.6602
 4377SOL    HW217280   1.567   3.501   5.069 -0.4362  0.5558  1.2600
 4377SOL    HW317281   1.691   3.584   5.042 -0.3081 -0.2251 -0.7417
 4377SOL    MW417282   1.606   3.569   5.031 -0.1980  0.3992 -0.4027
 4378SOL     OW17283   3.934   0.730   6.334  0.1614 -0.6772 -0.1622
 4378SOL    HW217284   3.997   0.798   6.311 -1.1317 -0.2202 -2.7161
 4378SOL    HW317285   3.935   0.727   6.430  3.4000 -0.1426 -0.0919
 4378SOL    MW417286   3.942   0.738   6.344  0.0624 -0.2862  0.0247
 4379SOL     OW17287   6.255   5.739   3.159 -0.3179 -0.0853  0.1574
 4379SOL    HW217288   6.191   5.811   3.150  0.3805  0.4517 -0.6578
 4379SOL    HW317289   6.206   5.669   3.202 -0.9846  0.9179  1.0858
 4379SOL    MW417290   6.240   5.739   3.163 -0.5542 -0.4101 -0.1322
 4380SOL     OW17291   2.350   1.921   4.937  0.7144 -0.0290  0.1422
 4380SOL    HW217292   2.443   1.898   4.943  0.6066 -0.2893  0.8918
 4380SOL    HW317293   2.317   1.911   5.026 -0.0827 -0.1410 -0.1583
 4380SOL    MW417294   2.358   1.916   4.950  0.3213 -0.4262  0.2622
 4381SOL     OW17295   3.831   6.009   3.784  0.3467 -0.3941 -0.1536
 4381SOL    HW217296   3.844   6.082   3.845  2.4053  0.4526 -1.4797
 4381SOL    HW317297   3.840   6.049   3.697 -0.8546 -1.8496 -0.9796
 4381SOL    MW417298   3.834   6.024   3.781 -0.4138 -0.4390  0.6922
 4382SOL     OW17299   5.025   0.539   5.280  0.2555  0.2568 -0.1899
 4382SOL    HW217300   5.039   0.572   5.369  1.0850 -0.1567 -0.1566
 4382SOL    HW317301   5.107   0.557   5.235 -0.3063  0.8316 -0.9977
 4382SOL    MW417302   5.038   0.545   5.286  0.0886 -0.2232 -0.1745
 4383SOL     OW17303   1.219   5.815   0.247 -0.1457  0.0506  0.1209
 4383SOL    HW217304   1.162   5.752   0.292 -0.1790 -1.4923 -1.9337
 4383SOL    HW317305   1.305   5.803   0.288  0.2295 -2.5437 -1.1951
 4383SOL    MW417306   1.223   5.805   0.258  0.1239  0.2945  0.4158
 4384SOL     OW17307   3.871   2.038   3.283  0.0212  0.1414 -0.0413
 4384SOL    HW217308   3.964   2.061   3.277 -0.0239  0.4281  0.3080
 4384SOL    HW317309   3.858   2.012   3.374 -0.7498  2.5073  0.6127
 4384SOL    MW417310   3.881   2.038   3.294 -0.3582 -0.1594 -0.9548
 4385SOL     OW17311   4.460   2.097   1.549 -0.0657 -0.2132  0.4280
 4385SOL    HW217312   4.421   2.184   1.542 -1.3972 -0.7937  0.1401
 4385SOL    HW317313   4.505   2.084   1.465  0.7313  0.4645  0.7498
 4385SOL    MW417314   4.461   2.107   1.537  0.3616 -0.1688  0.5753
 4386SOL     OW17315   4.370   0.353   2.202 -0.0161 -0.0143 -0.4350
 4386SOL    HW217316   4.420   0.274   2.223 -0.2603 -0.5982 -1.9136
 4386SOL    HW317317   4.316   0.368   2.279 -0.1679 -1.4648 -0.2286
 4386SOL    MW417318   4.370   0.344   2.215 -0.1462  0.2589  0.2197
 4387SOL     OW17319   0.684   4.117   2.848 -1.0287  0.3599  0.1330
 4387SOL    HW217320   0.720   4.078   2.928 -2.0423 -1.1257 -0.0863
 4387SOL    HW317321   0.757   4.117   2.786 -0.9669 -1.2514  0.1509
 4387SOL    MW417322   0.699   4.112   2.850 -0.1529  0.3235 -0.0053
 4388SOL     OW17323   0.753   3.654   0.209  0.2895 -0.2229  0.1007
 4388SOL    HW217324   0.689   3.723   0.191  0.7023  0.3516  0.7951
 4388SOL    HW317325   0.708   3.595   0.270 -0.2581 -0.8926 -0.9010
 4388SOL    MW417326   0.738   3.655   0.215 -0.0985  0.0698  0.1577
 4389SOL     OW17327   0.097   3.957   1.597 -0.2525  0.5218  0.2663
 4389SOL    HW217328   0.091   4.012   1.519 -2.2823 -2.0398 -1.5839
 4389SOL    HW317329   0.190   3.934   1.603 -0.2751 -0.7705 -2.6719
 4389SOL    MW417330   0.109   3.961   1.588  0.2034 -0.2878  0.1775
 4390SOL     OW17331   5.669   0.647   0.197 -0.3590 -0.2390  0.1227
 4390SOL    HW217332   5.738   0.627   0.260 -0.1669 -1.0742 -0.3408
 4390SOL    HW317333   5.662   0.568   0.144 -2.7148 -0.7819  1.1094
 4390SOL    MW417334   5.677   0.634   0.198  0.4664 -0.0885  0.1547
 4391SOL     OW17335   2.683   0.874   1.828 -0.0520 -0.5190 -0.3381
 4391SOL    HW217336   2.666   0.812   1.899 -1.5259  0.6302  0.3684
 4391SOL    HW317337   2.601   0.877   1.779  0.0382  0.7812 -0.4319
 4391SOL    MW417338   2.670   0.866   1.831 -0.1300  0.2908 -0.1368
 4392SOL     OW17339   1.070   2.896   3.918 -0.2112  0.4310 -0.1036
 4392SOL    HW217340   1.008   2.966   3.939 -1.8797 -0.8513 -0.5608
 4392SOL    HW317341   1.060   2.833   3.989  0.8474  0.3708 -0.0003
 4392SOL    MW417342   1.060   2.897   3.930 -0.4255  0.0250  0.6724
 4393SOL     OW17343   3.397   1.117   1.000 -0.0994 -0.2902  0.0761
 4393SOL    HW217344   3.423   1.209   1.012 -1.0885 -0.2985  3.4148
 4393SOL    HW317345   3.429   1.073   1.079 -0.9452 -2.5182 -0.7498
 4393SOL    MW417346   3.405   1.124   1.012  0.0877  0.3620  0.5099
 4394SOL     OW17347   1.930   4.602   1.232 -0.1909  0.4445 -0.0541
 4394SOL    HW217348   1.994   4.534   1.212 -1.7929 -0.8710 -0.9228
 4394SOL    HW317349   1.916   4.647   1.149 -1.1523  0.0335 -0.1219
 4394SOL    MW417350   1.937   4.599   1.219 -0.2716 -0.3246 -0.2746
 4395SOL     OW17351   5.194   6.094   4.075 -0.1929  0.0931 -0.3302
 4395SOL    HW217352   5.281   6.086   4.037  0.7521 -1.8071  1.9064
 4395SOL    HW317353   5.166   6.003   4.089 -1.7004  0.6746  0.7062
 4395SOL    MW417354   5.202   6.081   4.072 -0.1531  0.1279  0.3736
 4396SOL     OW17355   2.937   0.607   2.010 -0.1081 -0.2964  0.0887
 4396SOL    HW217356   3.011   0.645   1.963  1.0151  1.3847  2.9846
 4396SOL    HW317357   2.970   0.524   2.046  0.3128  0.3054  1.1228
 4396SOL    MW417358   2.951   0.601   2.008 -0.3844 -0.1772 -0.0011
 4397SOL     OW17359   4.916   3.427   5.973  0.0577  0.2403  0.4932
 4397SOL    HW217360   4.908   3.510   5.926  0.5791  1.3714  2.3242
 4397SOL    HW317361   4.831   3.415   6.015 -0.0908 -0.2967  0.0642
 4397SOL    MW417362   4.904   3.436   5.972 -0.0713  0.3450 -0.5634
 4398SOL     OW17363   3.095   4.940   6.147  0.0507 -0.3502 -0.0401
 4398SOL    HW217364   3.050   4.858   6.129 -0.8005 -0.0311  0.5511
 4398SOL    HW317365   3.025   5.004   6.159  0.6582  0.1863  0.7832
 4398SOL    MW417366   3.080   4.938   6.146 -0.0599  0.1356  0.4201
 4399SOL     OW17367   4.909   3.153   2.378  0.2506 -0.2534 -0.2977
 4399SOL    HW217368   4.943   3.118   2.460 -0.9965 -2.5712 -0.6802
 4399SOL    HW317369   4.975   3.131   2.312  0.6320  0.4231 -0.1540
 4399SOL    MW417370   4.922   3.146   2.380  0.1803  0.4341  0.2680
 4400SOL     OW17371   3.286   2.416   6.213  0.0036  0.3324 -0.1356
 4400SOL    HW217372   3.239   2.460   6.142  0.5372 -0.7714 -1.2258
 4400SOL    HW317373   3.227   2.347   6.242  0.0908  0.3042 -0.0226
 4400SOL    MW417374   3.272   2.413   6.207 -0.3284 -0.1259  0.4478
 4401SOL     OW17375   4.033   5.657   0.452  0.5602 -0.4210  0.4692
 4401SOL    HW217376   4.024   5.580   0.507 -0.7029 -0.4466  0.2463
 4401SOL    HW317377   4.041   5.730   0.514 -2.3679 -0.2611  0.7881
 4401SOL    MW417378   4.033   5.657   0.468  0.8876 -0.2569  0.4947
 4402SOL     OW17379   5.877   5.375   0.838 -0.1969  0.2259  0.0721
 4402SOL    HW217380   5.833   5.291   0.850  1.2761 -0.3234  2.1880
 4402SOL    HW317381   5.911   5.372   0.749 -1.4322 -0.7696 -0.3935
 4402SOL    MW417382   5.876   5.364   0.828 -0.2406  0.2127 -0.2376
 4403SOL     OW17383   2.280   4.298   0.883 -0.1680  0.2705 -0.1295
 4403SOL    HW217384   2.304   4.375   0.934 -0.1930  0.0170  0.2691
 4403SOL    HW317385   2.355   4.283   0.825  0.6923 -0.5640  1.1590
 4403SOL    MW417386   2.293   4.306   0.882 -0.1199  0.1924 -0.8129
 4404SOL     OW17387   1.025   1.821   4.744  0.8068 -0.3585 -0.6754
 4404SOL    HW217388   1.027   1.726   4.751 -0.2479 -0.4930 -1.8645
 4404SOL    HW317389   1.111   1.849   4.774  1.2280 -1.7010 -0.5703
 4404SOL    MW417390   1.036   1.812   4.749 -0.0847  0.1465  0.2203
 4405SOL     OW17391   5.791   3.503   3.090  0.4276  0.1179 -0.1232
 4405SOL    HW217392   5.778   3.597   3.100 -1.2452 -0.0894  0.0220
 4405SOL    HW317393   5.758   3.483   3.002 -1.7964 -0.6705  0.7964
 4405SOL    MW417394   5.785   3.512   3.080  0.7545 -0.2045  0.2094
 4406SOL     OW17395   1.575   2.048   5.084 -0.3325 -0.3012  0.5589
 4406SOL    HW217396   1.513   2.106   5.041 -2.0113 -1.8990  0.7335
 4406SOL    HW317397   1.661   2.081   5.056 -1.1770  2.2744  0.7177
 4406SOL    MW417398   1.578   2.060   5.074 -0.0166 -0.1640  0.0884
 4407SOL     OW17399   3.081   3.055   5.187 -0.4978 -0.4469  0.6229
 4407SOL    HW217400   3.168   3.087   5.209 -0.6693 -0.2094  0.9671
 4407SOL    HW317401   3.022   3.100   5.248 -1.2270  1.5706 -1.4215
 4407SOL    MW417402   3.084   3.065   5.198  0.3344 -0.3850  0.0245
 4408SOL     OW17403   4.847   1.048   4.945 -0.6171 -0.2362 -0.3388
 4408SOL    HW217404   4.860   1.140   4.922  0.3059 -0.8323 -2.4540
 4408SOL    HW317405   4.923   1.026   4.999  0.5415 -0.3485 -1.9254
 4408SOL    MW417406   4.859   1.057   4.949  0.0702  0.2784  0.0890
 4409SOL     OW17407   4.717   4.528   1.332 -0.0421  0.0681 -0.3168
 4409SOL    HW217408   4.661   4.566   1.264 -2.3025  0.3648  1.5781
 4409SOL    HW317409   4.663   4.459   1.371  1.5212 -0.6659  0.6250
 4409SOL    MW417410   4.703   4.524   1.328 -0.8475  0.2061  0.8331
 4410SOL     OW17411   5.303   4.815   0.930  0.6915  0.4808  0.4520
 4410SOL    HW217412   5.368   4.842   0.995  0.1109  1.7326  0.5395
 4410SOL    HW317413   5.248   4.892   0.918 -1.1715 -0.7377  0.8511
 4410SOL    MW417414   5.305   4.829   0.937 -0.7002  0.7119  0.4479
 4411SOL     OW17415   2.204   0.421   1.246  0.2562  0.0242  0.0210
 4411SOL    HW217416   2.154   0.341   1.232 -1.4516  0.7919  1.3411
 4411SOL    HW317417   2.138   0.490   1.249  1.6067  1.3854 -0.2454
 4411SOL    MW417418   2.189   0.420   1.245  0.6374 -0.5888  0.3697
 4412SOL     OW17419   3.308   5.120   5.704  0.3760 -0.2262  0.4451
 4412SOL    HW217420   3.242   5.053   5.720 -2.1167  1.2567 -2.4061
 4412SOL    HW317421   3.281   5.194   5.759 -0.7236  0.5132 -0.9933
 4412SOL    MW417422   3.296   5.121   5.713 -0.6590 -0.2128  0.0949
 4413SOL     OW17423   0.752   2.545   0.193 -0.9192 -0.3926  0.1792
 4413SOL    HW217424   0.763   2.466   0.245  1.2245 -0.3330 -0.1092
 4413SOL    HW317425   0.704   2.605   0.250 -0.9841 -1.2677  1.0674
 4413SOL    MW417426   0.747   2.543   0.207  0.4457  0.0862 -0.2219
 4414SOL     OW17427   5.048   4.220   1.987  0.0928 -0.0297  0.0807
 4414SOL    HW217428   4.965   4.173   1.992 -0.3416  0.4047 -2.0684
 4414SOL    HW317429   5.071   4.218   1.894  2.0017  0.7033  0.4990
 4414SOL    MW417430   5.040   4.214   1.975  0.0050  0.0303 -0.5578
 4415SOL     OW17431   6.226   6.089   3.458  0.2077  0.0615 -0.1033
 4415SOL    HW217432   6.262   6.036   3.386 -0.0277  1.6098 -1.4121
 4415SOL    HW317433   6.300   6.098   3.519  0.0639 -2.2880  0.5182
 4415SOL    MW417434   6.241   6.083   3.457 -0.3272 -0.2690  0.1329
 4416SOL     OW17435   3.126   1.365   0.557  0.0124  0.1992 -0.4619
 4416SOL    HW217436   3.207   1.390   0.513 -0.0916  0.1834 -0.6626
 4416SOL    HW317437   3.154   1.337   0.644  0.2747 -0.2632 -0.6950
 4416SOL    MW417438   3.141   1.365   0.563  0.1027  0.1039 -0.1352
 4417SOL     OW17439   0.734   2.847   1.773  0.0609  0.5393 -0.4529
 4417SOL    HW217440   0.667   2.778   1.769 -0.6336  1.1902 -0.3365
 4417SOL    HW317441   0.684   2.929   1.769  0.8800  1.0371 -0.7049
 4417SOL    MW417442   0.718   2.849   1.772 -0.1769 -0.0828 -0.3470
 4418SOL     OW17443   5.037   1.693   6.046 -0.2123 -0.2211  0.5517
 4418SOL    HW217444   4.946   1.668   6.035 -0.2224 -0.3216  0.8521
 4418SOL    HW317445   5.071   1.699   5.957 -0.1889 -1.4126  0.4643
 4418SOL    MW417446   5.030   1.690   6.033  0.5218  0.2010 -0.0629
 4419SOL     OW17447   0.166   1.247   5.901 -0.0655 -0.2970 -0.1024
 4419SOL    HW217448   0.160   1.294   5.984 -1.6103 -1.7467  0.6785
 4419SOL    HW317449   0.125   1.306   5.837 -1.5872 -0.3656  0.7710
 4419SOL    MW417450   0.159   1.261   5.903 -0.2707 -0.4225  0.5872
 4420SOL     OW17451   0.290   0.883   5.300  0.1135 -0.5341 -0.4443
 4420SOL    HW217452   0.295   0.978   5.312 -0.0878 -0.5796  0.0105
 4420SOL    HW317453   0.370   0.850   5.340 -0.0843 -0.6020 -0.1020
 4420SOL    MW417454   0.301   0.891   5.307  0.3018  0.7499 -0.2548
 4421SOL     OW17455   5.311   6.436   0.036  0.2085  0.1218 -0.0907
 4421SOL    HW217456   5.325   6.347   0.067  0.8596  0.6741  1.2899
 4421SOL    HW317457   5.389   6.457  -0.015  0.2405  0.0431 -0.0729
 4421SOL    MW417458   5.323   6.427   0.033  0.1362  0.3298 -0.0712
 4422SOL     OW17459   5.285   1.045   2.483  0.0133 -0.4035 -0.4020
 4422SOL    HW217460   5.332   1.001   2.411  2.5641  0.2779  0.7202
 4422SOL    HW317461   5.355   1.083   2.536 -1.9360  1.8211  0.7134
 4422SOL    MW417462   5.301   1.044   2.480 -0.1481 -0.2188 -0.1919
 4423SOL     OW17463   1.672   5.109   1.572 -0.5027  1.0744  0.4982
 4423SOL    HW217464   1.684   5.014   1.579  1.2354  1.2153 -0.1910
 4423SOL    HW317465   1.671   5.140   1.663 -0.1845  0.4912  0.7035
 4423SOL    MW417466   1.673   5.101   1.585 -0.5843  0.3284 -0.9435
 4424SOL     OW17467   1.737   2.844   5.223  0.0611 -0.8256  0.0438
 4424SOL    HW217468   1.690   2.792   5.158  0.1486 -1.6394  0.6292
 4424SOL    HW317469   1.671   2.903   5.259 -0.6706 -2.3567  1.2754
 4424SOL    MW417470   1.722   2.845   5.219  0.0013 -0.5050 -0.4358
 4425SOL     OW17471   0.126   6.144   0.720  0.1127 -0.3177 -0.6986
 4425SOL    HW217472   0.073   6.119   0.795 -1.6713 -0.3313 -1.8952
 4425SOL    HW317473   0.127   6.066   0.664 -1.4198  0.6771 -2.2055
 4425SOL    MW417474   0.120   6.130   0.722  0.1668 -0.2091 -0.4060
 4426SOL     OW17475   1.440   3.724   0.691 -0.3322  0.2329  0.1044
 4426SOL    HW217476   1.370   3.789   0.683 -0.6906 -0.1491  0.1076
 4426SOL    HW317477   1.395   3.642   0.710  0.1274  0.0112  0.2592
 4426SOL    MW417478   1.425   3.722   0.692  0.3620 -0.4254 -0.1715
 4427SOL     OW17479   3.944   2.976   4.597  0.1752  0.0407 -0.5432
 4427SOL    HW217480   3.851   2.998   4.592  0.3356  0.6666 -1.0392
 4427SOL    HW317481   3.988   3.056   4.567  0.8697 -0.2450 -0.2920
 4427SOL    MW417482   3.938   2.989   4.592 -0.2102 -0.2560 -0.2385
 4428SOL     OW17483   0.080   1.415   5.673 -0.3640 -0.2909 -0.5001
 4428SOL    HW217484  -0.013   1.429   5.656 -0.0923 -0.0415 -1.9015
 4428SOL    HW317485   0.099   1.328   5.637 -0.5584 -1.4634  2.0227
 4428SOL    MW417486   0.071   1.406   5.666 -0.0731  0.2223  0.4645
 4429SOL     OW17487   2.530   5.189   5.572  0.1448  0.6457  0.0570
 4429SOL    HW217488   2.615   5.228   5.592 -0.2724  0.8920  1.4467
 4429SOL    HW317489   2.548   5.095   5.567  0.8878  0.8511 -1.9018
 4429SOL    MW417490   2.543   5.182   5.574  0.6000 -0.3714 -0.0025
 4430SOL     OW17491   4.308   2.184   2.571  0.3355 -0.1421  0.0545
 4430SOL    HW217492   4.377   2.241   2.538  2.2912 -2.0249  0.6341
 4430SOL    HW317493   4.291   2.215   2.660  1.9133 -0.8080  0.6367
 4430SOL    MW417494   4.315   2.195   2.579 -0.6029 -0.5860 -0.1226
 4431SOL     OW17495   0.251   3.803   0.854 -0.3917 -0.0064  0.5522
 4431SOL    HW217496   0.253   3.837   0.765 -1.1206 -0.3650  0.3978
 4431SOL    HW317497   0.175   3.746   0.857  0.2200 -0.8205  1.1074
 4431SOL    MW417498   0.241   3.800   0.843 -0.1882  0.2391 -0.0184
 4432SOL     OW17499   1.727   4.847   1.636  0.0150  1.0408 -0.1507
 4432SOL    HW217500   1.751   4.776   1.576 -0.0689 -0.3299  1.3485
 4432SOL    HW317501   1.799   4.850   1.699 -1.2142  0.4427  1.3466
 4432SOL    MW417502   1.740   4.838   1.636  0.2859 -0.0929 -0.4442
 4433SOL     OW17503   4.050   5.194   5.790  0.7048  0.4314 -0.2869
 4433SOL    HW217504   3.997   5.274   5.785  0.1448  0.1121  0.3759
 4433SOL    HW317505   4.134   5.219   5.753  0.3116  1.1389 -0.7344
 4433SOL    MW417506   4.054   5.208   5.785  0.3859  0.5382  0.1995
 4434SOL     OW17507   6.045   4.295   0.477 -0.0593  0.4107  0.3674
 4434SOL    HW217508   6.049   4.242   0.557  3.4361  2.3101  1.6630
 4434SOL    HW317509   6.008   4.379   0.505 -3.4395 -0.3652 -1.2045
 4434SOL    MW417510   6.041   4.299   0.491  0.0376 -0.6566  0.2133
 4435SOL     OW17511   1.503   1.511   2.348 -0.4617 -0.1712  0.5319
 4435SOL    HW217512   1.582   1.518   2.400 -0.3607  0.1896  0.3291
 4435SOL    HW317513   1.510   1.425   2.306  1.0032  0.7894 -1.3801
 4435SOL    MW417514   1.514   1.500   2.349 -0.4953  0.3919  0.0836
 4436SOL     OW17515   1.495   4.607   2.731  0.1322 -0.1899 -0.1522
 4436SOL    HW217516   1.481   4.581   2.640 -0.3733  0.1459 -0.1716
 4436SOL    HW317517   1.423   4.566   2.779  0.5096 -0.5340  0.1322
 4436SOL    MW417518   1.484   4.598   2.726 -0.4102 -1.0179  0.4865
 4437SOL     OW17519   1.521   4.071   0.693 -0.1789 -0.2854 -0.3852
 4437SOL    HW217520   1.592   4.123   0.729 -1.4881  1.2508  0.1002
 4437SOL    HW317521   1.521   4.091   0.600  0.2250 -0.5611 -0.4480
 4437SOL    MW417522   1.530   4.080   0.686 -0.1491  0.7434 -0.4643
 4438SOL     OW17523   0.208   5.840   2.686  0.2583  0.3204  0.4628
 4438SOL    HW217524   0.182   5.874   2.771 -3.3537 -0.2411 -0.2199
 4438SOL    HW317525   0.268   5.906   2.650 -1.7807  2.9675  1.5893
 4438SOL    MW417526   0.212   5.853   2.692 -0.1907 -0.3718 -0.3116
 4439SOL     OW17527   3.353   4.881   1.919 -0.0431  0.2754  0.3279
 4439SOL    HW217528   3.412   4.927   1.860  1.2669 -0.3731  1.0819
 4439SOL    HW317529   3.304   4.821   1.862  1.1805 -0.3260 -0.1241
 4439SOL    MW417530   3.354   4.879   1.904 -0.7169  0.3732 -0.2052
 4440SOL     OW17531   3.354   4.894   1.447 -0.5057  0.4948  0.7212
 4440SOL    HW217532   3.414   4.937   1.509  1.8168 -0.4597 -0.7149
 4440SOL    HW317533   3.347   4.804   1.480 -0.9070  0.5280  0.7230
 4440SOL    MW417534   3.361   4.888   1.460 -0.2422  0.1371 -0.3236
 4441SOL     OW17535   5.187   5.481   0.225  0.3553 -0.4221 -0.2601
 4441SOL    HW217536   5.273   5.485   0.267  1.1147  0.2670 -1.8130
 4441SOL    HW317537   5.184   5.394   0.186  0.2383 -0.5355 -0.0011
 4441SOL    MW417538   5.198   5.470   0.225 -0.6135  0.2949 -0.2870
 4442SOL     OW17539   0.618   5.521   5.910 -0.3903 -0.1428  0.1491
 4442SOL    HW217540   0.557   5.459   5.869  1.2862 -0.3440 -2.2455
 4442SOL    HW317541   0.651   5.473   5.986 -1.6775 -0.8076  0.3372
 4442SOL    MW417542   0.614   5.506   5.914 -0.4391  0.2043  0.1598
 4443SOL     OW17543   0.681   5.471   1.897 -0.2121 -0.0955  0.6750
 4443SOL    HW217544   0.588   5.455   1.879  0.0537 -0.9538  0.0279
 4443SOL    HW317545   0.714   5.387   1.930  0.4999  0.0013  0.2184
 4443SOL    MW417546   0.673   5.458   1.899 -0.2022 -0.4131  0.2224
 4444SOL     OW17547   0.550   3.867   6.358 -0.3839  0.0271 -0.2494
 4444SOL    HW217548   0.595   3.931   6.303  0.4207  0.9625  1.3995
 4444SOL    HW317549   0.606   3.790   6.357  0.3734  0.5554  0.3761
 4444SOL    MW417550   0.563   3.865   6.351  0.2234  0.1145  0.1439
 4445SOL     OW17551   1.869   4.492   2.304 -0.0444  0.6171  0.4006
 4445SOL    HW217552   1.795   4.442   2.270 -1.5466  2.7112  0.4221
 4445SOL    HW317553   1.851   4.500   2.398  0.5306  0.6502  0.5107
 4445SOL    MW417554   1.857   4.486   2.312 -0.7789 -0.3377  0.0372
 4446SOL     OW17555   5.035   0.799   1.252  0.3977  0.7919 -0.6281
 4446SOL    HW217556   4.990   0.866   1.302 -1.0079 -1.2380  1.0055
 4446SOL    HW317557   5.126   0.805   1.280 -0.0625  0.7997  0.9323
 4446SOL    MW417558   5.041   0.808   1.262 -0.7517 -0.1243 -0.1288
 4447SOL     OW17559   3.843   1.881   1.350  0.0026 -0.0975 -0.2666
 4447SOL    HW217560   3.844   1.965   1.396 -0.3875  0.4147 -1.1591
 4447SOL    HW317561   3.918   1.885   1.291  0.4918 -0.7434  0.2943
 4447SOL    MW417562   3.853   1.893   1.348 -0.2714  0.6330 -0.0111
 4448SOL     OW17563   5.220   4.839   3.716  0.1380  0.1750 -0.2156
 4448SOL    HW217564   5.273   4.847   3.795  0.4982 -0.8487 -0.3298
 4448SOL    HW317565   5.131   4.826   3.749  0.4858 -1.8355  0.1242
 4448SOL    MW417566   5.215   4.838   3.731  0.4550  0.0156  0.4617
 4449SOL     OW17567   4.887   5.014   3.271 -0.0212 -0.0726 -0.1468
 4449SOL    HW217568   4.874   4.997   3.364  1.7998  2.4306  0.6909
 4449SOL    HW317569   4.978   4.990   3.255 -0.8203 -2.2897 -1.8339
 4449SOL    MW417570   4.897   5.009   3.281  0.0373 -0.1377  0.3042
 4450SOL     OW17571   0.433   2.659   4.321 -0.1304  0.5951 -0.2006
 4450SOL    HW217572   0.396   2.713   4.391 -0.1014  0.4887 -0.1036
 4450SOL    HW317573   0.358   2.610   4.286 -0.1648  0.7318 -0.3188
 4450SOL    MW417574   0.418   2.660   4.326  0.4199 -0.2588 -0.3483
 4451SOL     OW17575   1.092   2.085   4.201  0.3701 -0.7256  0.0373
 4451SOL    HW217576   1.077   2.030   4.278  0.1296  0.3211  0.7641
 4451SOL    HW317577   1.009   2.132   4.188  1.0108  0.5411  0.3312
 4451SOL    MW417578   1.079   2.084   4.209 -0.1605  0.1029 -0.0389
 4452SOL     OW17579   3.660   3.797   1.890  0.2738 -0.0956  0.2251
 4452SOL    HW217580   3.698   3.718   1.929 -1.8264 -0.3515  1.9359
 4452SOL    HW317581   3.735   3.856   1.877  1.7170 -1.8704  0.0136
 4452SOL    MW417582   3.675   3.794   1.893 -0.1707  0.4813  0.2351
 4453SOL     OW17583   1.775   1.922   3.392  0.5600 -0.3804 -0.0306
 4453SOL    HW217584   1.681   1.904   3.391 -0.0089  2.2136  0.0870
 4453SOL    HW317585   1.801   1.918   3.300  0.3609 -1.0552 -0.0682
 4453SOL    MW417586   1.766   1.919   3.379 -0.1644  0.3166 -0.4054
 4454SOL     OW17587   1.059   1.266   6.300  0.5562  0.4042  0.5304
 4454SOL    HW217588   0.988   1.202   6.291 -0.1291  0.9086  1.8998
 4454SOL    HW317589   1.122   1.243   6.232 -0.3474 -0.8262  0.0733
 4454SOL    MW417590   1.058   1.255   6.290 -0.1043  0.2046 -0.3430
 4455SOL     OW17591   3.113   3.952   5.500  0.3919 -0.1031  0.5956
 4455SOL    HW217592   3.158   4.031   5.472  0.0265 -0.3301 -0.6605
 4455SOL    HW317593   3.178   3.882   5.489  0.0380 -0.2947 -0.3690
 4455SOL    MW417594   3.128   3.953   5.495  0.3902 -0.8706 -1.1091
 4456SOL     OW17595   0.501   3.783   1.144 -0.4423 -0.1736 -0.3247
 4456SOL    HW217596   0.521   3.761   1.052  0.2840  0.0036 -0.2191
 4456SOL    HW317597   0.412   3.752   1.157 -1.3085  1.5524 -1.6702
 4456SOL    MW417598   0.492   3.776   1.133 -0.2522 -0.0164 -0.1660
 4457SOL     OW17599   0.865   5.296   0.479 -0.1567  0.1443  0.3058
 4457SOL    HW217600   0.822   5.381   0.466  0.3424  0.7359  2.2859
 4457SOL    HW317601   0.883   5.292   0.572  2.1062 -1.0677 -0.1249
 4457SOL    MW417602   0.862   5.307   0.489  0.2637  0.4486  0.0573
 4458SOL     OW17603   4.478   0.424   1.395  0.1472  0.2557  0.1248
 4458SOL    HW217604   4.495   0.468   1.478  1.2265 -1.5530  0.9273
 4458SOL    HW317605   4.565   0.395   1.365 -0.5307 -1.7487 -0.0692
 4458SOL    MW417606   4.492   0.426   1.402  0.0790 -0.0149  0.1852
 4459SOL     OW17607   2.981   1.809   0.912  0.0304  0.5558  0.4379
 4459SOL    HW217608   3.068   1.846   0.898 -0.2484  0.7357 -0.9610
 4459SOL    HW317609   2.988   1.761   0.995  1.8628 -0.6162 -0.3345
 4459SOL    MW417610   2.993   1.807   0.921  0.1086 -0.0725  0.0819
 4460SOL     OW17611   2.094   4.601   0.060 -0.0311  0.2696  0.2583
 4460SOL    HW217612   2.025   4.647   0.107 -0.2503 -0.5044  0.7148
 4460SOL    HW317613   2.101   4.516   0.104 -0.8294 -0.8290 -1.5992
 4460SOL    MW417614   2.086   4.596   0.072 -0.3962  0.1533 -0.1186
 4461SOL     OW17615   1.299   4.312   3.720 -0.2579 -0.0204  0.3050
 4461SOL    HW217616   1.246   4.384   3.686 -0.3425  0.4435  1.3625
 4461SOL    HW317617   1.385   4.324   3.681 -0.6982 -0.3013 -0.7863
 4461SOL    MW417618   1.303   4.323   3.710 -0.1319 -0.2906  0.3215
 4462SOL     OW17619   5.888   5.523   0.416  0.1963 -0.5681 -0.5971
 4462SOL    HW217620   5.964   5.540   0.472  0.2203 -2.3013 -0.0560
 4462SOL    HW317621   5.845   5.448   0.456 -0.1822 -1.4368 -2.5129
 4462SOL    MW417622   5.893   5.516   0.428  0.2137  0.4123 -0.3460
 4463SOL     OW17623   3.894   1.598   2.593 -0.4844 -0.1674  0.2309
 4463SOL    HW217624   3.983   1.578   2.563 -0.4699  0.6982 -0.3376
 4463SOL    HW317625   3.886   1.552   2.676  0.4404 -0.3876  0.2098
 4463SOL    MW417626   3.905   1.589   2.600  0.8511 -0.4281  0.0352
 4464SOL     OW17627   5.969   5.898   2.769 -0.4885  0.1281  0.0811
 4464SOL    HW217628   5.961   5.808   2.737 -1.4002  0.9096 -2.0882
 4464SOL    HW317629   5.946   5.952   2.693 -0.3901  2.1887  1.4553
 4464SOL    MW417630   5.965   5.893   2.754  0.3373  0.3146 -0.2445
 4465SOL     OW17631   2.810   0.818   2.707 -0.0980 -0.1240  0.2622
 4465SOL    HW217632   2.873   0.747   2.719  0.1198  0.1131  0.5196
 4465SOL    HW317633   2.858   0.898   2.727  0.0949  0.2526 -1.5217
 4465SOL    MW417634   2.824   0.819   2.711 -1.1965 -0.2989  0.5876
 4466SOL     OW17635   1.900   5.367   5.330  0.3587  0.2264  0.0021
 4466SOL    HW217636   1.889   5.284   5.284  1.4810  0.3124 -0.4500
 4466SOL    HW317637   1.888   5.434   5.263  0.0426  0.4275  0.2495
 4466SOL    MW417638   1.897   5.365   5.315 -0.5471 -0.0717  0.5488
 4467SOL     OW17639   3.051   1.738   0.658 -0.0172  0.4796 -0.4348
 4467SOL    HW217640   2.979   1.705   0.605 -0.6109 -0.5673  0.9647
 4467SOL    HW317641   3.014   1.748   0.746  1.3653  0.5287  0.1725
 4467SOL    MW417642   3.037   1.735   0.663  0.4091 -0.0099 -0.0868
 4468SOL     OW17643   6.310   2.165   0.331 -0.1646 -0.2607  0.5509
 4468SOL    HW217644   6.370   2.194   0.262  1.2653  2.9116  2.8418
 4468SOL    HW317645   6.228   2.210   0.313 -0.2618 -0.5907  0.1590
 4468SOL    MW417646   6.307   2.175   0.320  0.4747 -0.1980 -0.4070
 4469SOL     OW17647   5.663   5.311   3.466  0.1728 -0.1561 -0.2892
 4469SOL    HW217648   5.661   5.380   3.399 -0.8033  0.2788  0.1674
 4469SOL    HW317649   5.686   5.231   3.417 -0.3295  0.1872 -1.1186
 4469SOL    MW417650   5.666   5.309   3.451 -0.3578  0.0262 -0.0840
 4470SOL     OW17651   1.850   1.402   3.112  0.0085  0.2302  0.1563
 4470SOL    HW217652   1.779   1.368   3.168  0.6504  0.7487  1.3270
 4470SOL    HW317653   1.817   1.486   3.081 -0.4303 -0.1464 -0.4199
 4470SOL    MW417654   1.836   1.409   3.115 -0.1953  0.1827 -0.6773
 4471SOL     OW17655   1.090   0.977   4.813  0.5231 -0.1168  0.1667
 4471SOL    HW217656   1.137   0.906   4.855  0.1265  0.8484  2.3927
 4471SOL    HW317657   1.156   1.045   4.799  1.0999 -1.1444 -2.7758
 4471SOL    MW417658   1.105   0.977   4.816 -0.3270  0.2593 -0.6731
 4472SOL     OW17659   5.522   0.675   0.660 -0.1777 -0.3736 -0.5899
 4472SOL    HW217660   5.447   0.731   0.636 -1.5759 -1.8948  0.0378
 4472SOL    HW317661   5.533   0.617   0.584  3.1403  2.4367 -2.5375
 4472SOL    MW417662   5.513   0.675   0.647  0.6924  0.4373  0.2116
 4473SOL     OW17663   2.253   5.786   0.996  0.4507  0.8316  0.0998
 4473SOL    HW217664   2.266   5.881   1.005  0.3270  0.9360 -0.7670
 4473SOL    HW317665   2.205   5.776   0.914  0.9737 -0.0226 -0.1142
 4473SOL    MW417666   2.249   5.797   0.987 -0.1060 -0.4679 -0.3618
 4474SOL     OW17667   3.513   3.575   2.139  0.2024 -0.1641  0.0950
 4474SOL    HW217668   3.446   3.588   2.071  0.6870 -0.2687 -0.4090
 4474SOL    HW317669   3.463   3.553   2.217 -0.2956 -1.9775 -0.6861
 4474SOL    MW417670   3.497   3.574   2.140  0.0905  0.0880 -0.2455
 4475SOL     OW17671   6.208   0.427   0.298  0.4480  0.2919  0.1220
 4475SOL    HW217672   6.246   0.401   0.214 -0.8284 -1.1506 -0.0478
 4475SOL    HW317673   6.269   0.394   0.364  1.3561  1.2625 -0.2188
 4475SOL    MW417674   6.221   0.419   0.296 -0.1118  0.9691  0.5561
 4476SOL     OW17675   3.651   5.415   4.811 -0.4304 -0.7241  0.1619
 4476SOL    HW217676   3.647   5.350   4.881  1.0179 -2.0724 -0.9381
 4476SOL    HW317677   3.638   5.363   4.731  0.8823  0.3231 -0.7512
 4476SOL    MW417678   3.649   5.399   4.809  0.6862 -0.4593  1.1432
 4477SOL     OW17679   4.026   5.718   0.052  0.3261 -0.6820 -0.5252
 4477SOL    HW217680   3.981   5.666  -0.015 -0.5934 -0.8936  0.2454
 4477SOL    HW317681   3.956   5.753   0.107  1.0458 -0.1144  0.0425
 4477SOL    MW417682   4.011   5.716   0.050 -0.2322  0.2492  0.3340
 4478SOL     OW17683   1.008   2.656   1.648  0.1055  1.0130  0.5039
 4478SOL    HW217684   1.032   2.747   1.628  0.3016  1.5278  2.8011
 4478SOL    HW317685   1.089   2.607   1.637  1.1719  1.9185  3.4481
 4478SOL    MW417686   1.022   2.662   1.644 -0.3942 -0.6067 -0.2357
 4479SOL     OW17687   1.580   2.587   5.739  0.0946  0.6740 -0.0822
 4479SOL    HW217688   1.632   2.583   5.819  1.4585  1.2514 -0.9036
 4479SOL    HW317689   1.535   2.502   5.735  0.2354  0.5299  1.1289
 4479SOL    MW417690   1.581   2.575   5.749 -0.2544  1.0122 -0.0278
 4480SOL     OW17691   1.932   2.206   3.294  0.2477  0.2173  0.1678
 4480SOL    HW217692   1.919   2.249   3.378  1.2470 -0.7100  0.8319
 4480SOL    HW317693   1.898   2.117   3.307  3.6968 -1.1534  0.8562
 4480SOL    MW417694   1.926   2.200   3.307  0.1498 -0.1557 -0.1175
 4481SOL     OW17695   4.553   5.535   0.260 -0.1340 -0.8000  0.0227
 4481SOL    HW217696   4.611   5.583   0.200 -1.0415  0.9902  0.4838
 4481SOL    HW317697   4.465   5.557   0.231 -0.6076  0.2293  2.0273
 4481SOL    MW417698   4.549   5.545   0.249 -0.0507  0.1191 -0.2487
 4482SOL     OW17699   4.651   1.689   2.342 -0.2090  0.0723  0.1041
 4482SOL    HW217700   4.692   1.766   2.303  1.4240 -0.6619  0.3049
 4482SOL    HW317701   4.633   1.632   2.267 -1.0906  0.4697 -0.0044
 4482SOL    MW417702   4.654   1.692   2.327  0.1087  0.4583  0.0755
 4483SOL     OW17703   3.050   4.919   1.079 -0.4457 -0.4608 -0.0757
 4483SOL    HW217704   3.042   5.002   1.033  2.2231  0.8139  1.4723
 4483SOL    HW317705   3.011   4.936   1.165  0.7273 -0.5229  0.4924
 4483SOL    MW417706   3.044   4.932   1.084 -0.0828  0.2149  0.5857
 4484SOL     OW17707   3.084   1.872   0.408 -0.0838 -0.6783  0.0934
 4484SOL    HW217708   3.144   1.816   0.357 -1.6115 -0.5145 -2.0390
 4484SOL    HW317709   3.085   1.835   0.496  4.0453  0.0517  0.5669
 4484SOL    MW417710   3.092   1.860   0.413 -0.2304 -0.4945 -0.1872
 4485SOL     OW17711   6.334   2.556   1.621  0.0810 -0.7352  0.0640
 4485SOL    HW217712   6.417   2.554   1.669  0.1113 -1.4691 -0.0057
 4485SOL    HW317713   6.302   2.645   1.633 -0.4595 -1.1648  2.3921
 4485SOL    MW417714   6.341   2.567   1.629  0.6988 -0.2375  0.4078
 4486SOL     OW17715   1.867   2.425   5.370 -0.3179 -0.2998  0.1108
 4486SOL    HW217716   1.784   2.456   5.405 -0.7767 -1.2071 -0.1652
 4486SOL    HW317717   1.913   2.505   5.343 -2.0200  0.0730 -1.8305
 4486SOL    MW417718   1.862   2.440   5.371  0.0600  0.1657  0.2491
 4487SOL     OW17719   1.181   5.764   2.307  0.2662  0.0807  0.6116
 4487SOL    HW217720   1.119   5.818   2.356 -2.1718 -1.7367 -0.3281
 4487SOL    HW317721   1.237   5.725   2.375 -0.8086  0.3270  1.6729
 4487SOL    MW417722   1.180   5.766   2.323 -0.4484  0.3379  0.3768
 4488SOL     OW17723   2.224   3.230   3.989 -0.4007 -0.8029 -0.3026
 4488SOL    HW217724   2.232   3.248   4.083 -2.6715 -1.1145  0.0143
 4488SOL    HW317725   2.160   3.294   3.958  0.3991 -0.6353 -1.6915
 4488SOL    MW417726   2.216   3.240   3.998  0.3560 -0.4893 -0.5247
 4489SOL     OW17727   4.495   4.191   1.244  0.3518  0.9982 -0.1560
 4489SOL    HW217728   4.450   4.107   1.234  0.3772  0.7192  1.7320
 4489SOL    HW317729   4.433   4.255   1.209 -0.2918  0.3314 -0.2632
 4489SOL    MW417730   4.481   4.188   1.238  0.1381 -0.0098  0.0852
 4490SOL     OW17731   6.081   1.376   5.764  0.1783 -0.3530 -0.3865
 4490SOL    HW217732   6.031   1.333   5.695  0.7550  0.3918 -1.2852
 4490SOL    HW317733   6.144   1.431   5.718 -1.1992  2.3136  0.6721
 4490SOL    MW417734   6.083   1.378   5.749  0.4101 -0.3298  0.2958
 4491SOL     OW17735   0.575   5.964   1.212  0.5525 -0.5998  0.2365
 4491SOL    HW217736   0.540   6.045   1.250 -0.0170 -0.7860  0.1129
 4491SOL    HW317737   0.602   5.912   1.288 -0.3452 -0.8629  0.3822
 4491SOL    MW417738   0.574   5.968   1.227  0.1626  0.0713 -0.7016
 4492SOL     OW17739   3.988   6.290   2.643 -0.8387 -0.0107  0.1304
 4492SOL    HW217740   4.040   6.353   2.593 -1.0925  1.0381  1.1448
 4492SOL    HW317741   3.977   6.216   2.584  0.6749  0.3000 -0.5832
 4492SOL    MW417742   3.994   6.289   2.629 -0.0714  0.3038  0.5921
 4493SOL     OW17743   2.407   5.606   0.723 -0.3013  0.0565 -0.6837
 4493SOL    HW217744   2.429   5.565   0.807  0.4608  0.8181 -0.4975
 4493SOL    HW317745   2.340   5.670   0.745 -0.8888 -0.4921 -0.8417
 4493SOL    MW417746   2.401   5.609   0.737 -0.0177  0.0348  0.0246
 4494SOL     OW17747   5.188   2.635   2.455 -0.5897  0.4921  0.2484
 4494SOL    HW217748   5.128   2.629   2.530  0.7770  0.3091  1.3596
 4494SOL    HW317749   5.250   2.703   2.479 -0.2220  0.5493 -0.8094
 4494SOL    MW417750   5.188   2.643   2.468  0.1616 -0.5184  0.4447
 4495SOL     OW17751   1.408   4.090   5.163 -0.4198 -0.1044 -0.2461
 4495SOL    HW217752   1.354   4.023   5.204 -0.7746  0.3527  0.0434
 4495SOL    HW317753   1.497   4.071   5.193 -0.5487 -0.3135  0.0053
 4495SOL    MW417754   1.413   4.078   5.172  0.1457  0.7721 -0.1699
 4496SOL     OW17755   3.203   1.935   0.855  0.2952  0.0431 -0.0687
 4496SOL    HW217756   3.202   2.005   0.790  0.4804  0.2174  0.1146
 4496SOL    HW317757   3.218   1.981   0.938  0.9046 -0.2688 -0.0088
 4496SOL    MW417758   3.205   1.951   0.858 -0.4803 -0.2618 -0.7928
 4497SOL     OW17759   5.520   2.424   4.207 -0.6210  0.5991 -0.1204
 4497SOL    HW217760   5.581   2.391   4.140  1.3753  3.1773  0.2822
 4497SOL    HW317761   5.436   2.383   4.184  1.0012 -2.5540 -1.1489
 4497SOL    MW417762   5.517   2.414   4.195 -0.0707 -0.2264 -0.3897
 4498SOL     OW17763   4.700   4.955   1.778  0.0478  0.2181 -0.3324
 4498SOL    HW217764   4.630   5.018   1.796 -0.3352 -0.4720  0.6379
 4498SOL    HW317765   4.679   4.920   1.691 -0.1075  0.9231 -0.5895
 4498SOL    MW417766   4.688   4.959   1.769  0.5131  0.0283  0.4305
 4499SOL     OW17767   6.008   3.157   4.065 -0.2351  0.0920 -0.0244
 4499SOL    HW217768   6.053   3.181   3.984 -1.6811 -0.9159 -1.1765
 4499SOL    HW317769   6.052   3.077   4.094 -0.4024 -0.1510 -0.4247
 4499SOL    MW417770   6.020   3.150   4.058  0.0823  0.1929  0.3140
 4500SOL     OW17771   4.328   4.860   3.038 -0.1250  0.3569  0.5650
 4500SOL    HW217772   4.377   4.870   2.956  0.6966  0.6821  1.0840
 4500SOL    HW317773   4.366   4.782   3.079  0.4704  1.0151  1.3024
 4500SOL    MW417774   4.340   4.851   3.032 -0.3422 -0.2862 -0.5074
 4501SOL     OW17775   1.537   3.653   1.244 -0.2658 -0.1730  0.2778
 4501SOL    HW217776   1.625   3.651   1.207 -0.4264 -0.3649 -0.1040
 4501SOL    HW317777   1.523   3.744   1.270  0.8976 -0.5329  2.4506
 4501SOL    MW417778   1.546   3.665   1.243  0.2816  0.0542  0.2934
 4502SOL     OW17779   1.735   5.291   4.736 -0.0900 -0.2309 -0.3391
 4502SOL    HW217780   1.681   5.323   4.663  0.0761 -0.0980 -0.4028
 4502SOL    HW317781   1.729   5.195   4.730  1.4080 -0.2790 -1.6521
 4502SOL    MW417782   1.727   5.282   4.726  0.3666 -0.3690  0.5206
 4503SOL     OW17783   5.745   1.855   5.624 -0.5822  0.5404 -0.0384
 4503SOL    HW217784   5.710   1.929   5.574 -1.5392  0.2406  0.1555
 4503SOL    HW317785   5.680   1.840   5.693 -0.9211 -1.1013 -0.6575
 4503SOL    MW417786   5.732   1.863   5.626  0.4156  0.1937  0.0612
 4504SOL     OW17787   1.059   0.043   4.110  0.4721 -0.4484 -0.2170
 4504SOL    HW217788   1.143   0.079   4.080  0.8250 -1.7945 -0.9007
 4504SOL    HW317789   1.063  -0.050   4.088 -0.4859 -0.9018  1.3481
 4504SOL    MW417790   1.071   0.036   4.103 -0.1195  0.1489 -0.1777
 4505SOL     OW17791   4.756   3.701   6.365  0.4724 -0.0269  0.5815
 4505SOL    HW217792   4.775   3.794   6.358 -0.1732  0.0840  0.2422
 4505SOL    HW317793   4.792   3.663   6.284 -0.8588  0.2098 -0.1450
 4505SOL    MW417794   4.764   3.708   6.353 -0.0581  0.0837 -0.1169
 4506SOL     OW17795   4.001   1.047   0.787 -0.2607 -0.7384  0.2573
 4506SOL    HW217796   3.976   1.129   0.829 -1.3748 -1.1631  0.4575
 4506SOL    HW317797   4.075   1.070   0.730 -0.0253  0.2271  0.9419
 4506SOL    MW417798   4.008   1.061   0.785 -0.2224  0.3471 -0.2909
 4507SOL     OW17799   3.753   4.331   2.016  0.5200  0.1054 -0.0495
 4507SOL    HW217800   3.818   4.288   1.961  0.7832 -1.8565  1.6944
 4507SOL    HW317801   3.673   4.281   2.002  0.7490 -0.8508  1.7545
 4507SOL    MW417802   3.751   4.319   2.006  0.1280 -0.6336  0.6043
 4508SOL     OW17803   2.460   0.771   0.182  0.4819  0.4546 -0.0996
 4508SOL    HW217804   2.394   0.743   0.118  0.7164  3.0434 -1.6094
 4508SOL    HW317805   2.543   0.766   0.134  1.0633 -0.2465  0.9419
 4508SOL    MW417806   2.462   0.767   0.167 -0.6877  0.2633 -0.1614
 4509SOL     OW17807   0.783   1.479   6.102  0.0096 -0.9545  0.1377
 4509SOL    HW217808   0.766   1.415   6.033  1.2082 -0.1512 -0.9522
 4509SOL    HW317809   0.710   1.540   6.098 -0.2436 -1.2637  0.0153
 4509SOL    MW417810   0.771   1.478   6.093 -0.1388  0.0923  0.3854
 4510SOL     OW17811   4.445   2.548   0.723 -0.6376  0.0323 -0.0311
 4510SOL    HW217812   4.419   2.627   0.675 -1.4512  0.4088  0.9919
 4510SOL    HW317813   4.450   2.577   0.815 -1.0827 -1.1377  0.3715
 4510SOL    MW417814   4.443   2.563   0.729 -0.2708 -0.4119  0.0218
 4511SOL     OW17815   5.005   1.569   3.457 -0.8880 -0.2169 -0.2893
 4511SOL    HW217816   4.983   1.539   3.545 -1.5958 -1.0997 -0.7555
 4511SOL    HW317817   4.931   1.623   3.431 -1.2898 -1.0152 -0.8342
 4511SOL    MW417818   4.993   1.572   3.465 -0.0506  0.0298 -0.4829
 4512SOL     OW17819   2.791   1.939   2.207  0.2645 -0.7274  0.5814
 4512SOL    HW217820   2.847   1.861   2.197  3.5236  1.5346 -0.5086
 4512SOL    HW317821   2.801   1.986   2.124 -0.9480  1.2467  1.5010
 4512SOL    MW417822   2.800   1.935   2.195  0.4890 -0.4953  0.3757
 4513SOL     OW17823   4.615   1.164   3.597 -0.1593  0.2781 -0.3050
 4513SOL    HW217824   4.693   1.147   3.545  0.0410  1.5721 -0.4570
 4513SOL    HW317825   4.543   1.131   3.543  0.0483  1.6051 -1.4572
 4513SOL    MW417826   4.616   1.158   3.583  0.1499 -0.0288 -0.5121
 4514SOL     OW17827   0.760   2.238   0.065 -0.0724 -0.6977  0.0603
 4514SOL    HW217828   0.740   2.280   0.149 -1.0517 -1.0322  0.0008
 4514SOL    HW317829   0.690   2.174   0.052 -1.2597  0.8822 -2.0757
 4514SOL    MW417830   0.748   2.235   0.074 -0.6355  0.1986  0.1329
 4515SOL     OW17831   0.504   4.026   0.610 -0.4684  0.1031 -0.0597
 4515SOL    HW217832   0.477   4.112   0.580 -0.5626  0.2226  0.3626
 4515SOL    HW317833   0.539   3.983   0.532  1.0938  1.1151  0.0462
 4515SOL    MW417834   0.505   4.031   0.595  0.0951 -0.1363  0.6899
 4516SOL     OW17835   4.828   5.156   0.767 -0.1922  0.4099  0.0486
 4516SOL    HW217836   4.797   5.239   0.803  0.3816  1.0081 -0.7617
 4516SOL    HW317837   4.752   5.118   0.724  0.0876  1.8147 -1.8451
 4516SOL    MW417838   4.814   5.162   0.766  0.2736  0.4712  0.0817
 4517SOL     OW17839   0.255   6.266   6.100  0.2134  0.4500 -0.0992
 4517SOL    HW217840   0.307   6.305   6.029  0.0417  1.9554  0.5674
 4517SOL    HW317841   0.166   6.297   6.084  0.2986  1.4116  1.1565
 4517SOL    MW417842   0.250   6.275   6.089  0.3450 -0.6226  0.5298
 4518SOL     OW17843   0.653   3.860   2.165  0.1694  0.0546 -0.6100
 4518SOL    HW217844   0.721   3.794   2.176 -0.6463 -1.2461 -2.7979
 4518SOL    HW317845   0.578   3.826   2.212 -0.1617 -0.4760 -1.4988
 4518SOL    MW417846   0.652   3.847   2.172 -0.3051 -1.2706 -0.5705
 4519SOL     OW17847   3.164   2.494   0.197 -0.3980  0.3982 -0.5850
 4519SOL    HW217848   3.180   2.586   0.175  2.5593 -0.1417 -1.1177
 4519SOL    HW317849   3.209   2.480   0.280 -0.3791 -0.6754 -0.7535
 4519SOL    MW417850   3.172   2.504   0.205 -0.1044  0.0364 -0.2939
 4520SOL     OW17851   4.454   4.091   4.712  0.0636  0.4698  0.4363
 4520SOL    HW217852   4.360   4.098   4.730 -0.4213 -2.3886 -0.4829
 4520SOL    HW317853   4.488   4.039   4.784  0.6740  0.3585  0.0689
 4520SOL    MW417854   4.446   4.085   4.724 -0.1197  0.1078  0.3960
 4521SOL     OW17855   1.760   3.844   4.405  0.4947  0.1453  0.1238
 4521SOL    HW217856   1.838   3.896   4.386  0.8339 -0.5834 -0.5628
 4521SOL    HW317857   1.689   3.908   4.414  1.5167  1.0320  3.0145
 4521SOL    MW417858   1.761   3.859   4.404  0.1672 -0.0937  0.8048
 4522SOL     OW17859   1.172   4.583   3.686 -0.0346 -0.3978 -0.6024
 4522SOL    HW217860   1.107   4.584   3.615  0.7151 -2.4935 -1.3904
 4522SOL    HW317861   1.195   4.675   3.698 -2.6715  0.3570 -0.7097
 4522SOL    MW417862   1.166   4.596   3.678 -0.2013 -0.1878  0.3756
 4523SOL     OW17863   0.720   2.289   1.529  0.3103 -0.3798  0.2907
 4523SOL    HW217864   0.668   2.369   1.525 -0.2706 -0.5697  2.4701
 4523SOL    HW317865   0.661   2.224   1.567  0.8886 -1.7623 -1.1006
 4523SOL    MW417866   0.705   2.291   1.534 -0.8084 -0.7788 -0.1475
 4524SOL     OW17867   0.675   3.173   2.763  0.3289 -0.3432  0.1879
 4524SOL    HW217868   0.649   3.119   2.838 -0.6196  0.1111  0.1944
 4524SOL    HW317869   0.593   3.199   2.722  0.6468  2.5850  1.2038
 4524SOL    MW417870   0.661   3.169   2.767 -0.1231  0.1170 -0.1838
 4525SOL     OW17871   3.308   0.074   3.136  0.4125  0.2533  0.3947
 4525SOL    HW217872   3.278   0.161   3.108 -1.1629 -0.3689  0.0097
 4525SOL    HW317873   3.227   0.025   3.151  1.2406 -1.5181 -0.5913
 4525SOL    MW417874   3.293   0.079   3.134 -0.4075 -0.2521  0.7755
 4526SOL     OW17875   0.298   0.271   4.652  0.0405  0.1287 -0.1361
 4526SOL    HW217876   0.316   0.236   4.566 -0.6069  0.7923 -0.5550
 4526SOL    HW317877   0.373   0.328   4.671 -0.9920  2.0284 -1.4022
 4526SOL    MW417878   0.310   0.274   4.644  0.2873  0.5707 -0.0360
 4527SOL     OW17879   2.949   5.170   6.203  0.3512  0.7172 -0.1981
 4527SOL    HW217880   3.036   5.197   6.234 -0.8255  2.7034  1.6377
 4527SOL    HW317881   2.914   5.248   6.160 -0.5991 -0.0086 -0.7762
 4527SOL    MW417882   2.956   5.184   6.202  0.1851  0.0920  0.3781
 4528SOL     OW17883   2.260   0.774   6.417  0.0502  0.1977 -0.1178
 4528SOL    HW217884   2.208   0.825   6.479  0.6283  1.5870 -0.7244
 4528SOL    HW317885   2.230   0.684   6.429 -1.2717  0.7136  0.7443
 4528SOL    MW417886   2.249   0.769   6.427 -0.4656  0.1196  0.5249
 4529SOL     OW17887   0.209   6.179   1.080 -0.0436  0.2462  0.3158
 4529SOL    HW217888   0.274   6.193   1.011  0.9265  1.5068  1.4297
 4529SOL    HW317889   0.194   6.266   1.116  1.5754 -0.6587  3.5135
 4529SOL    MW417890   0.216   6.192   1.075  0.0210  0.2886 -0.6323
 4530SOL     OW17891   6.108   6.395   0.559 -0.1944  0.2771 -0.6562
 4530SOL    HW217892   6.014   6.414   0.564 -0.2607  0.0235 -0.9014
 4530SOL    HW317893   6.149   6.480   0.547 -0.3416  0.4605  0.0981
 4530SOL    MW417894   6.101   6.409   0.558  0.5701 -0.8101 -0.5658
 4531SOL     OW17895   1.855   1.853   0.571  0.1862  0.3853  0.4228
 4531SOL    HW217896   1.892   1.872   0.657  1.6493  1.0420 -0.3183
 4531SOL    HW317897   1.913   1.897   0.509 -0.0592 -1.1655 -1.0024
 4531SOL    MW417898   1.867   1.861   0.574 -0.0024 -0.1724  0.0869
 4532SOL     OW17899   1.352   5.829   4.196 -0.4516  0.4125 -0.0356
 4532SOL    HW217900   1.410   5.803   4.124 -1.6288 -0.4182 -0.7344
 4532SOL    HW317901   1.351   5.924   4.193  1.4227  0.4853  0.4749
 4532SOL    MW417902   1.360   5.838   4.186 -0.6652 -0.0383 -0.2986
 4533SOL     OW17903   3.441   5.560   5.846  0.0437  0.0153 -0.4558
 4533SOL    HW217904   3.519   5.507   5.825 -0.7094 -1.3564  0.0545
 4533SOL    HW317905   3.393   5.566   5.763 -0.5740 -1.3607 -0.2282
 4533SOL    MW417906   3.445   5.554   5.832  0.3387 -0.0603 -0.4724
 4534SOL     OW17907   2.496   4.067   4.823  0.1384  0.2097  0.3259
 4534SOL    HW217908   2.493   4.013   4.902  1.7747 -1.6113 -0.7754
 4534SOL    HW317909   2.453   4.014   4.756  1.5129  0.3517 -0.7225
 4534SOL    MW417910   2.490   4.053   4.824  0.2598  0.0237 -0.4559
 4535SOL     OW17911   4.387   2.091   3.007 -0.0388  0.6090 -0.2527
 4535SOL    HW217912   4.349   2.155   2.947  0.3635  0.0226 -1.1527
 4535SOL    HW317913   4.399   2.012   2.954  3.3913  1.0563 -0.3112
 4535SOL    MW417914   4.383   2.089   2.992 -0.3941 -0.2884  0.7052
 4536SOL     OW17915   6.253   0.744   1.081 -0.4094 -0.1204  0.1528
 4536SOL    HW217916   6.298   0.824   1.107 -0.1052 -0.6393  1.2697
 4536SOL    HW317917   6.192   0.726   1.152 -0.2887 -1.0282  0.0381
 4536SOL    MW417918   6.250   0.752   1.094  0.0829  0.1191  0.4859
 4537SOL     OW17919   3.984   4.342   6.152 -0.5657  0.2936 -0.0902
 4537SOL    HW217920   3.961   4.294   6.073 -0.3908 -0.1492  0.1277
 4537SOL    HW317921   3.899   4.365   6.191 -0.6747  1.1878 -0.7957
 4537SOL    MW417922   3.970   4.339   6.146 -0.2463 -0.0088 -0.0741
 4538SOL     OW17923   0.777   2.185   1.273 -0.5583 -0.9006  0.5403
 4538SOL    HW217924   0.738   2.229   1.348 -0.2084 -0.2241  0.3322
 4538SOL    HW317925   0.860   2.231   1.260 -0.4476 -1.2641 -0.0256
 4538SOL    MW417926   0.783   2.197   1.281  0.4184 -0.7435  0.6461
 4539SOL     OW17927   0.485   4.851   5.603  0.2493  0.1446  0.7711
 4539SOL    HW217928   0.481   4.795   5.526 -0.0766 -0.3799  1.1660
 4539SOL    HW317929   0.403   4.835   5.649  0.1909  0.8821  0.9360
 4539SOL    MW417930   0.474   4.841   5.599  0.3274  0.5532  0.0241
 4540SOL     OW17931   2.802   3.195   2.988  0.1530  0.1400  0.1297
 4540SOL    HW217932   2.836   3.106   3.000  0.9082  0.1798 -1.3662
 4540SOL    HW317933   2.720   3.183   2.941 -0.7520  0.1678  1.6420
 4540SOL    MW417934   2.796   3.182   2.983 -0.3343 -0.5472 -0.2836
 4541SOL     OW17935   2.229   3.303   2.046  0.1632 -0.2161 -0.0142
 4541SOL    HW217936   2.187   3.233   1.996 -0.4605  0.7251 -0.8524
 4541SOL    HW317937   2.282   3.350   1.981  1.4369 -0.5382  0.7518
 4541SOL    MW417938   2.230   3.300   2.031  0.2868  0.8618  0.2164
 4542SOL     OW17939   4.148   5.321   3.401 -0.6907  0.0891  0.0737
 4542SOL    HW217940   4.162   5.349   3.311  4.5735 -2.0319 -0.0812
 4542SOL    HW317941   4.123   5.229   3.394  0.6874 -0.3526  0.7255
 4542SOL    MW417942   4.146   5.313   3.388  0.2552 -0.2770  0.1000
 4543SOL     OW17943   3.939   1.756   0.537 -0.2292  0.4266 -0.5137
 4543SOL    HW217944   3.945   1.717   0.450 -1.1655  0.9931 -0.8579
 4543SOL    HW317945   3.988   1.697   0.594  1.0932  0.4705 -1.5535
 4543SOL    MW417946   3.946   1.743   0.533 -0.3438 -0.3189  0.3517
 4544SOL     OW17947   2.499   2.599   6.167 -0.0543  0.2443 -0.0495
 4544SOL    HW217948   2.486   2.645   6.249  0.5982 -0.1644  0.2896
 4544SOL    HW317949   2.437   2.640   6.106 -0.6462  0.4442  0.6778
 4544SOL    MW417950   2.489   2.611   6.170  0.6133 -0.6071 -0.1695
 4545SOL     OW17951   1.689   5.877   4.720  0.0099  0.1522 -0.0713
 4545SOL    HW217952   1.624   5.843   4.782 -0.3128  0.7120 -0.0999
 4545SOL    HW317953   1.724   5.799   4.677 -1.0547 -0.1313 -0.4646
 4545SOL    MW417954   1.685   5.862   4.723 -0.2371  0.4186 -0.2925
 4546SOL     OW17955   5.705   5.028   3.411 -0.3563  0.0908  0.6886
 4546SOL    HW217956   5.616   5.004   3.438 -0.2762 -1.3277 -0.1822
 4546SOL    HW317957   5.730   4.959   3.350  1.9099 -0.3626  2.0274
 4546SOL    MW417958   5.696   5.016   3.406 -0.0201  0.1688 -1.1889
 4547SOL     OW17959   1.790   6.212   1.118 -0.1279 -0.2227 -0.0450
 4547SOL    HW217960   1.702   6.212   1.082 -0.9409  0.9043  1.8086
 4547SOL    HW317961   1.779   6.242   1.209  2.1518 -0.0724  0.2366
 4547SOL    MW417962   1.777   6.216   1.125 -0.1824 -0.1188  0.0445
 4548SOL     OW17963   6.173   6.402   4.492  0.4361 -0.3934  0.1059
 4548SOL    HW217964   6.183   6.378   4.400 -2.0227  0.7882 -0.5505
 4548SOL    HW317965   6.140   6.492   4.490  0.0317 -0.4453  2.1469
 4548SOL    MW417966   6.170   6.411   4.480  0.3691  0.1235 -0.2391
 4549SOL     OW17967   2.361   3.954   3.150  0.5293  0.0395 -0.4485
 4549SOL    HW217968   2.272   3.977   3.124 -0.7890  1.3787  4.2632
 4549SOL    HW317969   2.415   4.027   3.120 -0.4095  0.4933 -1.0768
 4549SOL    MW417970   2.356   3.967   3.142 -0.4898  0.1188 -0.1038
 4550SOL     OW17971   2.172   1.985   0.756  0.1565 -0.3306 -0.2257
 4550SOL    HW217972   2.213   2.022   0.834 -1.1303  1.1334 -0.1828
 4550SOL    HW317973   2.203   1.895   0.752  2.2588  0.3120  0.5282
 4550SOL    MW417974   2.182   1.978   0.766  0.2703 -0.0094  0.1255
 4551SOL     OW17975   1.350   3.856   6.165  0.0547 -0.2476 -0.0563
 4551SOL    HW217976   1.343   3.764   6.191 -0.5569 -0.3408 -0.5544
 4551SOL    HW317977   1.440   3.880   6.189  1.5228 -2.0089 -3.1854
 4551SOL    MW417978   1.361   3.847   6.172 -0.1089 -0.0066  0.1518
 4552SOL     OW17979   0.856   2.720   6.296  0.3234 -0.2624 -0.5003
 4552SOL    HW217980   0.878   2.650   6.357  1.1970  0.9473  0.6488
 4552SOL    HW317981   0.935   2.775   6.293 -0.8893  1.6068  0.0159
 4552SOL    MW417982   0.869   2.718   6.304  0.1024  0.3647  0.2454
 4553SOL     OW17983   3.408   4.290   1.035  0.8179 -0.2392  0.6978
 4553SOL    HW217984   3.435   4.222   0.974 -0.8542 -1.0154  0.7491
 4553SOL    HW317985   3.342   4.340   0.987  1.5636  0.9595  0.8905
 4553SOL    MW417986   3.403   4.288   1.021  0.0402 -0.5149 -0.1877
 4554SOL     OW17987   0.367   6.404   5.889  0.0173  0.0050  0.1729
 4554SOL    HW217988   0.359   6.498   5.874 -0.7405 -0.1261 -0.3432
 4554SOL    HW317989   0.424   6.373   5.819  0.6711  0.1484  0.6362
 4554SOL    MW417990   0.373   6.412   5.878 -0.5521  0.3016  0.4360
 4555SOL     OW17991   0.170   3.542   1.452  0.4411  0.0103  0.0940
 4555SOL    HW217992   0.125   3.478   1.396  1.4456  0.2247 -1.0030
 4555SOL    HW317993   0.119   3.622   1.442 -1.1168 -0.6749  1.8597
 4555SOL    MW417994   0.157   3.544   1.443  0.2621  0.0858 -0.7064
 4556SOL     OW17995   2.731   5.040   5.945  0.2595 -0.3383  0.8925
 4556SOL    HW217996   2.797   5.102   5.916  0.4663 -1.1229 -0.3669
 4556SOL    HW317997   2.762   4.955   5.914 -1.2670 -0.7366  0.3706
 4556SOL    MW417998   2.744   5.037   5.937  0.1942  0.6773 -0.6585
 4557SOL     OW17999   0.818   5.823   2.848  0.5307  0.0319  0.0744
 4557SOL    HW218000   0.819   5.749   2.909  5.4054 -0.5659 -0.3917
 4557SOL    HW318001   0.804   5.900   2.904  0.6686 -0.8277  1.3176
 4557SOL    MW418002   0.816   5.824   2.863 -0.0581  0.3114 -0.1074
 4558SOL     OW18003   5.849   4.907   1.327 -0.0732  0.1756 -0.2289
 4558SOL    HW218004   5.829   4.823   1.368 -1.1978  0.5458  0.0254
 4558SOL    HW318005   5.767   4.957   1.333 -0.0563  0.5498 -2.1965
 4558SOL    MW418006   5.835   4.902   1.333 -0.4412 -0.2031 -0.0552
 4559SOL     OW18007   1.826   4.782   5.557 -0.0649 -0.1149 -0.1006
 4559SOL    HW218008   1.750   4.761   5.502  0.8760 -0.0533 -1.4579
 4559SOL    HW318009   1.855   4.868   5.526  0.5624 -0.1357  0.4100
 4559SOL    MW418010   1.819   4.790   5.546 -0.2634  0.3185  0.1974
 4560SOL     OW18011   4.679   0.043   0.086  0.5161 -0.3208  0.2779
 4560SOL    HW218012   4.756  -0.013   0.081  2.1102  1.6090  1.2965
 4560SOL    HW318013   4.634   0.016   0.166  1.2887 -0.1205  0.7826
 4560SOL    MW418014   4.683   0.032   0.096 -0.4360  0.1946 -0.1445
 4561SOL     OW18015   1.129   3.622   3.703  0.0030  0.1299 -0.3416
 4561SOL    HW218016   1.134   3.587   3.792  1.5789 -2.1828 -1.2462
 4561SOL    HW318017   1.050   3.583   3.666 -0.6000  1.0168 -0.0252
 4561SOL    MW418018   1.120   3.612   3.710 -0.2199  0.3362 -0.5794
 4562SOL     OW18019   4.797   5.325   3.390 -0.3062  0.1759 -0.3875
 4562SOL    HW218020   4.738   5.249   3.386  1.3884 -1.1418 -3.4601
 4562SOL    HW318021   4.883   5.288   3.410  0.4569  1.3003 -1.4162
 4562SOL    MW418022   4.800   5.310   3.392  0.1299  0.1790 -0.4866
 4563SOL     OW18023   2.266   3.352   1.763  0.4299 -0.2152 -0.0739
 4563SOL    HW218024   2.344   3.309   1.798  0.7736  0.1087 -0.4149
 4563SOL    HW318025   2.193   3.310   1.807  0.8790  1.1390  2.1235
 4563SOL    MW418026   2.267   3.341   1.773  0.2426 -0.3184  0.5588
 4564SOL     OW18027   5.555   2.765   5.251 -0.4415  0.0546 -0.0508
 4564SOL    HW218028   5.533   2.750   5.343  0.5368  0.0146  0.1797
 4564SOL    HW318029   5.649   2.754   5.246  0.0673  3.3803 -0.3663
 4564SOL    MW418030   5.564   2.762   5.262 -0.1398  0.1299 -0.4144
 4565SOL     OW18031   5.046   2.410   3.219  0.7385  0.1784 -0.1281
 4565SOL    HW218032   5.008   2.376   3.138 -1.2154  1.4270  0.2009
 4565SOL    HW318033   5.117   2.468   3.190 -0.9197  1.8375 -1.0971
 4565SOL    MW418034   5.051   2.413   3.204  0.8474 -0.5987 -0.2144
 4566SOL     OW18035   3.147   0.551   0.522 -0.5797  0.3165 -0.3548
 4566SOL    HW218036   3.174   0.463   0.496 -0.3693  1.0974 -3.0127
 4566SOL    HW318037   3.215   0.609   0.488 -1.9592  1.7123 -0.8483
 4566SOL    MW418038   3.159   0.547   0.514  0.0113  0.6282 -0.5509
 4567SOL     OW18039   2.762   0.486   5.115  0.2078  0.2235 -0.3331
 4567SOL    HW218040   2.764   0.572   5.072  0.2428 -0.0862 -0.9646
 4567SOL    HW318041   2.837   0.440   5.079  1.3627  0.5974  1.4714
 4567SOL    MW418042   2.772   0.492   5.104  0.1534  0.6210  0.7836
 4568SOL     OW18043   4.767   2.080   3.625  0.0696  0.1203  1.1065
 4568SOL    HW218044   4.802   2.105   3.711  2.3500 -2.6164  1.1461
 4568SOL    HW318045   4.840   2.033   3.583 -1.5523 -0.1267 -1.6200
 4568SOL    MW418046   4.782   2.077   3.631 -0.1217 -0.2015  0.3112
 4569SOL     OW18047   2.298   4.176   5.425 -0.1005 -0.5283  0.0905
 4569SOL    HW218048   2.364   4.224   5.375 -0.7381  0.6007  0.2863
 4569SOL    HW318049   2.244   4.245   5.464 -0.5604 -1.4162  1.0511
 4569SOL    MW418050   2.300   4.192   5.423 -0.0243  0.5120 -0.3194
 4570SOL     OW18051   6.128   3.715   4.377  0.3681 -0.4216 -0.8493
 4570SOL    HW218052   6.102   3.642   4.432 -1.0613 -0.1289 -1.1121
 4570SOL    HW318053   6.050   3.737   4.327  0.9325  0.9189 -1.1858
 4570SOL    MW418054   6.115   3.709   4.378  0.0368 -0.4156  0.7114
 4571SOL     OW18055   3.087   0.401   2.546  0.5441 -0.5549 -0.2343
 4571SOL    HW218056   3.006   0.383   2.498  0.3890  0.5637 -0.4206
 4571SOL    HW318057   3.071   0.366   2.634 -0.8862  1.2639  0.2987
 4571SOL    MW418058   3.074   0.394   2.551 -0.0097  0.2902  0.0776
 4572SOL     OW18059   3.333   4.109   5.882 -0.1801 -0.2790  0.2663
 4572SOL    HW218060   3.276   4.093   5.957 -0.2197  0.0093  0.2991
 4572SOL    HW318061   3.346   4.023   5.843 -0.7587 -0.3300  0.1729
 4572SOL    MW418062   3.327   4.095   5.887 -0.5472 -0.6673 -0.3082
 4573SOL     OW18063   2.148   4.787   6.072  0.3977  0.6133 -0.9699
 4573SOL    HW218064   2.149   4.731   5.994 -1.0682 -1.4520  0.4053
 4573SOL    HW318065   2.056   4.803   6.089  0.6965  1.0517  0.3562
 4573SOL    MW418066   2.136   4.782   6.064  0.1329 -0.1657  0.4193
 4574SOL     OW18067   4.562   5.954   1.140  0.0295  0.0277 -0.7181
 4574SOL    HW218068   4.552   5.934   1.047 -1.1646 -2.6001 -0.1189
 4574SOL    HW318069   4.508   5.888   1.185  1.6788  0.3126  1.9020
 4574SOL    MW418070   4.553   5.943   1.134 -0.1089  0.4695  0.0037
 4575SOL     OW18071   6.232   0.047   5.907  0.1627  0.6717  0.4682
 4575SOL    HW218072   6.207   0.113   5.971 -0.1641  0.8417  0.1704
 4575SOL    HW318073   6.223   0.091   5.822 -1.6849 -0.2311  0.1386
 4575SOL    MW418074   6.227   0.061   5.904  0.0873  0.1873 -0.6887
 4576SOL     OW18075   4.126   3.015   6.195 -0.3660  0.1828 -0.3133
 4576SOL    HW218076   4.139   3.107   6.177  0.7871  0.0050 -0.4261
 4576SOL    HW318077   4.204   2.988   6.244 -0.4705 -0.8339 -0.6709
 4576SOL    MW418078   4.138   3.023   6.199 -0.4498 -0.1633 -0.5371
 4577SOL     OW18079   5.027   2.794   5.003 -0.2441 -0.4344 -0.5876
 4577SOL    HW218080   4.944   2.837   4.987 -0.2540 -0.6266 -1.0640
 4577SOL    HW318081   5.081   2.816   4.927 -0.1615 -1.0397 -0.7110
 4577SOL    MW418082   5.024   2.802   4.991  0.1555  0.0426 -0.8421
 4578SOL     OW18083   3.378   4.100   6.331 -0.1444  0.5273  0.1473
 4578SOL    HW218084   3.461   4.060   6.306  0.0727 -1.2762  3.2603
 4578SOL    HW318085   3.403   4.179   6.380 -0.4509  1.8681 -1.7385
 4578SOL    MW418086   3.392   4.105   6.334 -0.3984  0.3364  0.7121
 4579SOL     OW18087   4.633   3.458   2.243  0.2501 -0.0237  0.2297
 4579SOL    HW218088   4.698   3.481   2.309 -0.1756 -1.6563  1.2820
 4579SOL    HW318089   4.583   3.538   2.230  1.8260  0.9943  0.1092
 4579SOL    MW418090   4.635   3.472   2.250  0.4507 -0.7947  0.2608
 4580SOL     OW18091   3.855   1.781   3.176  0.3688 -0.2137  0.6586
 4580SOL    HW218092   3.910   1.737   3.241  1.2370 -1.3562 -0.7908
 4580SOL    HW318093   3.851   1.872   3.206  0.4592 -0.7702  2.4762
 4580SOL    MW418094   3.862   1.787   3.189  0.6556 -0.1790  0.4824
 4581SOL     OW18095   3.370   3.983   2.300  0.6221  0.2922  0.7101
 4581SOL    HW218096   3.427   3.940   2.237 -0.6066 -2.3094  1.2177
 4581SOL    HW318097   3.311   3.914   2.330 -0.2073  1.9096  3.1578
 4581SOL    MW418098   3.370   3.968   2.296  0.7631  0.1996  0.7802
 4582SOL     OW18099   4.650   0.230   5.054  0.1205  0.4096 -0.3309
 4582SOL    HW218100   4.739   0.194   5.045  0.4051  1.5100 -3.1479
 4582SOL    HW318101   4.663   0.317   5.090  0.3441  0.8969 -1.5146
 4582SOL    MW418102   4.664   0.236   5.057 -0.0117  0.3630  0.0799
 4583SOL     OW18103   1.356   0.761   3.842 -0.1555 -0.8604  0.5506
 4583SOL    HW218104   1.276   0.760   3.788  0.7326  2.4926 -1.0587
 4583SOL    HW318105   1.335   0.818   3.915  0.6093 -0.3387  0.3710
 4583SOL    MW418106   1.342   0.768   3.844 -0.3124  0.5365  0.2487
 4584SOL     OW18107   4.971   3.222   1.155  0.0196  0.4220  0.3829
 4584SOL    HW218108   4.954   3.144   1.103 -0.9895  0.8281  0.0977
 4584SOL    HW318109   4.900   3.283   1.133  2.1220  2.4457 -1.3314
 4584SOL    MW418110   4.959   3.220   1.146 -0.2461  0.1673  0.1731
 4585SOL     OW18111   0.491   5.083   4.829  0.2207 -0.1429 -0.0034
 4585SOL    HW218112   0.584   5.098   4.816  0.2327 -1.1664 -1.3787
 4585SOL    HW318113   0.482   5.067   4.923  1.2772  0.8416  0.2804
 4585SOL    MW418114   0.502   5.083   4.840 -0.3193 -0.8509  0.4268
 4586SOL     OW18115   4.943   0.203   1.196  0.1596  0.1195 -0.4852
 4586SOL    HW218116   4.994   0.275   1.159 -0.3574  0.6580 -0.1615
 4586SOL    HW318117   4.999   0.166   1.264 -0.1188  1.1005  0.2924
 4586SOL    MW418118   4.957   0.208   1.200  0.2671 -0.0300  0.2764
 4587SOL     OW18119   1.549   4.076   4.367  0.1483  0.6954  0.7115
 4587SOL    HW218120   1.458   4.077   4.338 -0.0201 -0.3055  1.1647
 4587SOL    HW318121   1.555   4.147   4.431  0.1642  1.9649 -0.6420
 4587SOL    MW418122   1.538   4.086   4.371  0.0986  0.0140 -0.2913
 4588SOL     OW18123   2.544   1.211   1.717 -0.0066  0.1672 -0.1245
 4588SOL    HW218124   2.547   1.184   1.809  0.8724 -0.9083 -0.4389
 4588SOL    HW318125   2.626   1.257   1.702 -0.0011  0.0587 -0.4508
 4588SOL    MW418126   2.555   1.213   1.727 -0.2957 -0.3114  0.1917
 4589SOL     OW18127   2.141   0.712   0.365  0.4785  0.2821  0.1189
 4589SOL    HW218128   2.204   0.760   0.419 -2.0984  0.5413  3.2069
 4589SOL    HW318129   2.119   0.635   0.417 -2.4532  0.7272 -0.2806
 4589SOL    MW418130   2.146   0.708   0.379 -0.3240  0.3436 -0.4570
 4590SOL     OW18131   1.498   3.010   6.312  0.0906  0.0198 -0.8874
 4590SOL    HW218132   1.443   3.052   6.246 -0.3749 -0.5904 -0.8923
 4590SOL    HW318133   1.566   2.965   6.261  0.7491  0.9578 -0.8739
 4590SOL    MW418134   1.500   3.010   6.297 -0.2666 -0.2248 -0.1530
 4591SOL     OW18135   2.111   6.078   1.749  0.5761 -0.4532  0.1494
 4591SOL    HW218136   2.026   6.038   1.766 -0.4473  0.1602 -2.8478
 4591SOL    HW318137   2.101   6.169   1.777 -0.1627 -0.1126 -1.1617
 4591SOL    MW418138   2.099   6.085   1.755  0.5223  0.2424 -0.6272
 4592SOL     OW18139   1.657   1.371   3.919 -0.5578  0.0491 -0.9014
 4592SOL    HW218140   1.637   1.280   3.943 -0.9911  0.2042 -0.6566
 4592SOL    HW318141   1.719   1.400   3.986  0.9317 -0.5958 -1.9564
 4592SOL    MW418142   1.663   1.362   3.931  0.1083  0.2016 -0.4198
 4593SOL     OW18143   2.361   0.947   5.425 -0.5790  0.4244 -0.2169
 4593SOL    HW218144   2.395   0.869   5.383 -1.1193 -0.9836  1.7867
 4593SOL    HW318145   2.272   0.956   5.392 -0.5336  0.1426 -0.4118
 4593SOL    MW418146   2.354   0.938   5.415 -0.5185 -0.3512  0.4008
 4594SOL     OW18147   1.722   5.558   3.365  0.2423 -0.5929  0.4038
 4594SOL    HW218148   1.807   5.517   3.374 -0.4909 -2.2085  0.1970
 4594SOL    HW318149   1.679   5.510   3.294 -1.1521 -0.3433  1.0477
 4594SOL    MW418150   1.728   5.547   3.357  0.2663 -0.4851  0.1584
 4595SOL     OW18151   2.928   0.107   1.212  0.7503 -0.3205  0.0102
 4595SOL    HW218152   2.973   0.187   1.186  1.0217 -0.3895  0.2610
 4595SOL    HW318153   2.947   0.098   1.305 -0.1385 -0.1197  0.2245
 4595SOL    MW418154   2.936   0.116   1.221  0.3097  0.0024  0.2041
 4596SOL     OW18155   6.363   2.737   0.247 -0.5183 -0.0995  0.8001
 4596SOL    HW218156   6.367   2.715   0.340  0.8871  1.9963  1.2955
 4596SOL    HW318157   6.453   2.732   0.217 -0.9124 -0.3792 -0.3886
 4596SOL    MW418158   6.375   2.733   0.255  0.4732 -0.0723  0.2268
 4597SOL     OW18159   6.163   3.799   5.597  0.6904  0.3324 -0.4980
 4597SOL    HW218160   6.069   3.795   5.584  0.4903  1.3105  0.4683
 4597SOL    HW318161   6.185   3.716   5.641  0.0623  0.6351  0.4248
 4597SOL    MW418162   6.154   3.787   5.601  0.0394 -0.2602  0.6280
 4598SOL     OW18163   3.623   4.666   4.465 -0.4426  0.5631 -0.3419
 4598SOL    HW218164   3.611   4.573   4.479  0.4653  0.0575 -2.5430
 4598SOL    HW318165   3.536   4.704   4.482 -0.7025 -0.5751  1.0500
 4598SOL    MW418166   3.610   4.659   4.469 -0.2787 -0.5937  0.0893
 4599SOL     OW18167   0.726   0.711   4.373  0.0097  0.4188 -0.4273
 4599SOL    HW218168   0.722   0.744   4.284  0.1132 -0.2034 -0.6716
 4599SOL    HW318169   0.656   0.757   4.419  0.8487  1.7793 -0.4622
 4599SOL    MW418170   0.716   0.721   4.368  0.0877  0.2940 -0.1227
 4600SOL     OW18171   3.232   2.794   0.145  0.4140 -0.1038  0.1948
 4600SOL    HW218172   3.271   2.878   0.168  0.9953 -0.4575  0.5401
 4600SOL    HW318173   3.257   2.781   0.053  1.7313 -0.6370  0.5967
 4600SOL    MW418174   3.241   2.803   0.136  0.5237 -0.3319 -0.5904
 4601SOL     OW18175   1.505   5.541   3.578 -0.0405  0.0243 -0.2347
 4601SOL    HW218176   1.511   5.492   3.496 -2.0136 -1.5965  0.4965
 4601SOL    HW318177   1.529   5.477   3.645  0.5832  1.0401  0.5330
 4601SOL    MW418178   1.509   5.526   3.576 -0.4872  0.0068 -0.4585
 4602SOL     OW18179   1.669   1.467   0.460  0.1899 -0.0337  0.1191
 4602SOL    HW218180   1.587   1.514   0.475  0.3818  0.5114 -0.4780
 4602SOL    HW318181   1.647   1.375   0.475 -0.7368  0.0172 -0.8224
 4602SOL    MW418182   1.656   1.462   0.464  0.4044 -0.5965  0.1121
 4603SOL     OW18183   3.559   6.148   5.529  0.0179 -0.2547  0.3354
 4603SOL    HW218184   3.479   6.199   5.521 -1.2440 -2.1093  0.5392
 4603SOL    HW318185   3.550   6.077   5.465  0.7471 -1.4067  1.4470
 4603SOL    MW418186   3.548   6.145   5.519  0.1482 -0.1371  0.0432
 4604SOL     OW18187   3.980   5.428   1.625 -0.7601  0.5470  0.2156
 4604SOL    HW218188   3.896   5.432   1.581 -0.6260  1.5254  0.0137
 4604SOL    HW318189   4.030   5.501   1.587  0.1621 -0.0040  0.3488
 4604SOL    MW418190   3.976   5.438   1.614  0.2928  0.0122 -0.1490
 4605SOL     OW18191   3.174   6.067   0.660 -0.0705  0.1140 -0.3901
 4605SOL    HW218192   3.252   6.108   0.622 -0.0821  0.1683 -0.3552
 4605SOL    HW318193   3.155   6.119   0.738 -0.9708  0.9861 -1.1632
 4605SOL    MW418194   3.182   6.079   0.665  0.0995  0.4937  0.1327
 4606SOL     OW18195   0.538   2.192   5.064  0.2988  0.5668 -0.0144
 4606SOL    HW218196   0.517   2.231   4.979 -0.6727  0.3039  0.0998
 4606SOL    HW318197   0.474   2.230   5.124  1.1149  0.9199  0.6570
 4606SOL    MW418198   0.527   2.202   5.061  0.4224  0.1261  0.1143
 4607SOL     OW18199   2.268   4.623   3.596 -0.1900  0.1939  0.1526
 4607SOL    HW218200   2.336   4.570   3.554 -1.1034 -1.1676  0.3135
 4607SOL    HW318201   2.193   4.563   3.605 -1.0559  1.3420  0.9295
 4607SOL    MW418202   2.267   4.608   3.591  0.2312  0.4513  0.5046
 4608SOL     OW18203   2.730   4.090   1.044 -0.1550  0.1013  0.6943
 4608SOL    HW218204   2.769   4.075   0.958 -0.6849  0.2562  0.4240
 4608SOL    HW318205   2.674   4.014   1.058  2.8586 -2.0037  2.6359
 4608SOL    MW418206   2.728   4.078   1.035  0.0566 -0.4188  0.6805
 4609SOL     OW18207   4.382   1.907   4.428  0.4712 -0.0953 -0.1297
 4609SOL    HW218208   4.315   1.844   4.455  1.4605 -2.3534 -2.5350
 4609SOL    HW318209   4.336   1.991   4.427 -1.5933 -1.1323  0.8297
 4609SOL    MW418210   4.367   1.910   4.432  0.0669  0.3582 -0.3342
 4610SOL     OW18211   1.273   4.101   3.345  0.1650 -0.8099  0.4007
 4610SOL    HW218212   1.327   4.173   3.380  0.9170 -1.6633  1.0675
 4610SOL    HW318213   1.332   4.025   3.345 -0.7570 -1.5428  0.1904
 4610SOL    MW418214   1.288   4.101   3.350  0.5624  0.1853  0.1799
 4611SOL     OW18215   4.821   4.944   4.681  0.1251  0.4068 -0.3614
 4611SOL    HW218216   4.881   4.949   4.607  3.0373  0.4867  1.8136
 4611SOL    HW318217   4.838   4.858   4.719  0.0436  1.0680  1.2384
 4611SOL    MW418218   4.831   4.933   4.676 -0.4865 -0.7453  0.1749
 4612SOL     OW18219   5.327   4.034   4.768 -0.1717  0.3610  1.0514
 4612SOL    HW218220   5.262   3.972   4.736  0.3135 -1.0431  2.6191
 4612SOL    HW318221   5.276   4.097   4.820 -0.7243  1.6214 -0.9101
 4612SOL    MW418222   5.311   4.035   4.771 -0.2586 -0.1627  0.4093
 4613SOL     OW18223   2.620   2.285   1.328 -0.7874 -0.2775 -0.5125
 4613SOL    HW218224   2.708   2.256   1.305 -0.1925  0.7840  0.3392
 4613SOL    HW318225   2.623   2.381   1.320 -1.3858 -0.0976  1.0578
 4613SOL    MW418226   2.632   2.294   1.324  0.3089 -0.0103 -0.8100
 4614SOL     OW18227   4.957   0.583   6.353 -0.7436 -0.5940  0.0790
 4614SOL    HW218228   5.029   0.627   6.309 -1.1395 -0.8833 -0.8913
 4614SOL    HW318229   4.925   0.646   6.417 -1.3793  0.6102 -1.3508
 4614SOL    MW418230   4.962   0.597   6.355 -0.1970  0.0999  0.0460
 4615SOL     OW18231   4.321   0.870   0.064 -0.0777  0.1972  0.4940
 4615SOL    HW218232   4.313   0.847  -0.028  1.8799  2.0642 -0.2200
 4615SOL    HW318233   4.364   0.794   0.104  0.3140 -0.0665 -0.4079
 4615SOL    MW418234   4.326   0.857   0.057  0.1326  0.0656 -0.5644
 4616SOL     OW18235   2.262   2.068   1.020 -0.2090  0.2460 -0.0843
 4616SOL    HW218236   2.185   2.097   1.068  1.0652 -0.3337  2.4494
 4616SOL    HW318237   2.327   2.137   1.034 -0.4229  1.2193 -2.9996
 4616SOL    MW418238   2.261   2.081   1.028  0.3735  0.7583 -0.2445
 4617SOL     OW18239   3.062   1.607   1.833  0.1210  0.3201  0.2372
 4617SOL    HW218240   3.099   1.649   1.756  0.3426  1.0298  0.7244
 4617SOL    HW318241   3.086   1.515   1.824 -1.6455 -0.0164 -1.5995
 4617SOL    MW418242   3.070   1.600   1.822  0.0137  0.0215  0.0103
 4618SOL     OW18243   6.278   1.496   5.560  0.4725 -0.1962 -0.1359
 4618SOL    HW218244   6.276   1.588   5.586  0.8587  0.0042 -0.7910
 4618SOL    HW318245   6.308   1.498   5.469 -1.8154 -0.7999 -0.9768
 4618SOL    MW418246   6.282   1.509   5.551 -0.2959 -0.1051 -0.3900
 4619SOL     OW18247   5.379   3.958   4.107  0.6476 -0.0155 -0.7054
 4619SOL    HW218248   5.378   4.047   4.072  0.5035 -0.2368 -1.2620
 4619SOL    HW318249   5.464   3.922   4.082  0.9609  0.1691  0.0507
 4619SOL    MW418250   5.390   3.965   4.099 -0.6576 -0.2022  0.7698
 4620SOL     OW18251   5.510   0.259   4.672  0.9577 -0.7921  0.4661
 4620SOL    HW218252   5.441   0.320   4.699  1.0556 -0.5817  0.2461
 4620SOL    HW318253   5.513   0.193   4.741  1.5238 -0.0018  1.2249
 4620SOL    MW418254   5.502   0.259   4.685 -0.1898  0.4018  0.1686
 4621SOL     OW18255   1.898   2.190   0.164  0.0189 -0.3161 -0.0917
 4621SOL    HW218256   1.958   2.162   0.233 -0.6645 -0.5297  0.4344
 4621SOL    HW318257   1.851   2.110   0.140  0.9865 -0.4747 -1.5697
 4621SOL    MW418258   1.899   2.175   0.170 -0.0931  0.2983  0.2957
 4622SOL     OW18259   1.645   2.459   3.735  0.1228 -0.4337 -0.4567
 4622SOL    HW218260   1.665   2.434   3.825  1.4517  2.9171  0.3278
 4622SOL    HW318261   1.669   2.383   3.682 -0.5575 -2.4338  1.9557
 4622SOL    MW418262   1.651   2.446   3.740  0.6858  0.0773  0.1118
 4623SOL     OW18263   0.138   3.011   6.389  0.0043  0.5077  0.6548
 4623SOL    HW218264   0.220   2.984   6.347  0.3260  0.6787  1.1603
 4623SOL    HW318265   0.075   3.017   6.317  0.7269  1.5090  0.0731
 4623SOL    MW418266   0.141   3.009   6.374  0.1886 -0.2217  0.2367
 4624SOL     OW18267   1.822   3.294   1.014  0.6661 -0.3063 -0.3017
 4624SOL    HW218268   1.787   3.377   0.982 -1.0017 -0.1701  1.6220
 4624SOL    HW318269   1.827   3.238   0.936 -2.1223  0.3113 -1.0423
 4624SOL    MW418270   1.818   3.298   1.000  0.2198 -0.0084 -0.1686
 4625SOL     OW18271   3.531   0.690   4.827 -0.0261 -0.4021 -0.4284
 4625SOL    HW218272   3.458   0.671   4.768  1.3632 -1.3462 -1.9292
 4625SOL    HW318273   3.492   0.741   4.898 -1.9130  0.1498 -1.7847
 4625SOL    MW418274   3.516   0.694   4.829 -0.0700 -0.4641 -0.1483
 4626SOL     OW18275   1.687   2.634   3.349 -0.6243 -0.0455  0.4408
 4626SOL    HW218276   1.654   2.556   3.304 -0.8858  0.1011  0.3753
 4626SOL    HW318277   1.781   2.634   3.332 -0.8821  0.6877 -1.1821
 4626SOL    MW418278   1.695   2.624   3.341 -0.2555 -0.2438 -0.4591
 4627SOL     OW18279   0.423   2.366   5.587 -0.3815  0.1166  0.3002
 4627SOL    HW218280   0.482   2.358   5.662 -0.8072 -1.4056  0.4942
 4627SOL    HW318281   0.336   2.352   5.623 -0.7611  1.0205 -0.2168
 4627SOL    MW418282   0.420   2.363   5.602  0.1562 -0.0214  0.4321
 4628SOL     OW18283   3.889   0.224   1.795  0.5920  0.8794  0.7518
 4628SOL    HW218284   3.949   0.150   1.797 -2.1253 -1.6084 -1.0818
 4628SOL    HW318285   3.884   0.250   1.703 -1.3209  0.7428  0.7654
 4628SOL    MW418286   3.896   0.218   1.783  0.7195 -0.5614  0.2770
 4629SOL     OW18287   4.261   1.718   4.137 -0.4455 -0.3779 -0.3987
 4629SOL    HW218288   4.319   1.643   4.148  1.7554  1.5565  3.5680
 4629SOL    HW318289   4.317   1.786   4.100 -0.5479  0.9990  1.7981
 4629SOL    MW418290   4.276   1.717   4.134 -0.2068  0.2358  0.0329
 4630SOL     OW18291   4.437   1.519   3.528 -0.5462 -0.1602  0.6817
 4630SOL    HW218292   4.432   1.599   3.475  3.0276  2.3318  3.5201
 4630SOL    HW318293   4.367   1.530   3.593  0.0366  0.8666  1.1711
 4630SOL    MW418294   4.427   1.531   3.530  0.3781  0.0157 -0.1132
 4631SOL     OW18295   3.020   0.716   4.472  0.1964 -0.2167 -0.5464
 4631SOL    HW218296   3.015   0.805   4.507  0.2229  0.2627 -1.7358
 4631SOL    HW318297   3.011   0.660   4.549 -0.7030  0.8012  0.1131
 4631SOL    MW418298   3.019   0.720   4.487 -0.3092 -0.6020  0.0454
 4632SOL     OW18299   6.262   3.894   3.980  0.3152  0.1239  0.6299
 4632SOL    HW218300   6.265   3.965   3.915 -1.5657 -1.1387 -0.9462
 4632SOL    HW318301   6.277   3.938   4.064  0.6745  2.1502 -0.4339
 4632SOL    MW418302   6.264   3.909   3.983 -0.2743  0.2903 -0.7275
 4633SOL     OW18303   5.262   1.444   3.850 -0.3185  0.1430  0.0342
 4633SOL    HW218304   5.254   1.387   3.774 -2.9707 -0.8659  0.9524
 4633SOL    HW318305   5.185   1.500   3.846  1.8772  3.4385 -0.5098
 4633SOL    MW418306   5.251   1.444   3.840 -0.0213  0.4467  0.6548
 4634SOL     OW18307   4.180   6.062   5.820  0.0625  0.3899  0.6361
 4634SOL    HW218308   4.241   6.013   5.876  0.1907 -0.3441 -0.1167
 4634SOL    HW318309   4.112   5.998   5.799  0.0624  0.6323 -0.1054
 4634SOL    MW418310   4.179   6.047   5.825  0.0133 -0.1314 -0.0947
 4635SOL     OW18311   2.849   2.121   1.293  0.8377  0.0021 -0.3751
 4635SOL    HW218312   2.912   2.192   1.302  1.4036 -0.1957 -2.2815
 4635SOL    HW318313   2.865   2.086   1.206 -1.6689 -0.3272 -0.7724
 4635SOL    MW418314   2.859   2.125   1.283 -0.3569 -0.5937 -0.2760
 4636SOL     OW18315   4.607   1.831   3.640  0.4963  0.3953 -0.1183
 4636SOL    HW218316   4.678   1.892   3.661 -0.7161  1.6766  0.4832
 4636SOL    HW318317   4.602   1.773   3.716  1.5742 -0.3917 -0.6342
 4636SOL    MW418318   4.616   1.831   3.653 -0.0843  0.5421  0.2107
 4637SOL     OW18319   0.688   2.253   1.929  0.2364  0.1186  0.5917
 4637SOL    HW218320   0.752   2.293   1.870 -2.5048  1.6310 -1.5631
 4637SOL    HW318321   0.649   2.327   1.975 -1.4441 -0.5234  0.2522
 4637SOL    MW418322   0.691   2.268   1.928  0.0827 -0.5434 -0.4632
 4638SOL     OW18323   6.166   0.430   0.619 -0.2889  0.1125  0.0963
 4638SOL    HW218324   6.075   0.427   0.650 -0.0359 -0.7220  0.8055
 4638SOL    HW318325   6.209   0.493   0.677 -0.5120  0.8623 -0.5390
 4638SOL    MW418326   6.159   0.438   0.631 -0.1882  0.1410 -0.0353
 4639SOL     OW18327   1.799   0.373   2.367  0.7928  0.2294 -0.5101
 4639SOL    HW218328   1.816   0.378   2.273  0.7785 -1.7389 -0.6626
 4639SOL    HW318329   1.885   0.356   2.406  0.6605  0.0862 -0.2745
 4639SOL    MW418330   1.813   0.371   2.360 -0.4479  0.3253  0.5068
 4640SOL     OW18331   5.156   0.991   1.850  0.4628 -0.0212  0.2029
 4640SOL    HW218332   5.062   1.007   1.849  0.4178 -0.2586  0.6302
 4640SOL    HW318333   5.172   0.946   1.933  0.7123 -1.3907 -0.5669
 4640SOL    MW418334   5.146   0.987   1.861 -0.6189  0.6939  0.2240
 4641SOL     OW18335   4.427   5.636   6.295  0.1383 -0.3579  0.9621
 4641SOL    HW218336   4.518   5.647   6.324  0.5951  0.6443 -0.6671
 4641SOL    HW318337   4.379   5.705   6.342  0.6550  0.5420  0.2058
 4641SOL    MW418338   4.433   5.647   6.305  0.9380 -0.2435 -0.0990
 4642SOL     OW18339   1.823   5.790   0.869  0.2038 -0.0329 -0.0393
 4642SOL    HW218340   1.863   5.867   0.910 -1.2983  0.4420  0.6198
 4642SOL    HW318341   1.865   5.715   0.911  2.4707  0.3649 -1.4561
 4642SOL    MW418342   1.834   5.790   0.880  0.0611 -0.0618 -0.1551
 4643SOL     OW18343   1.811   3.318   3.250  0.0729  0.6147 -0.4767
 4643SOL    HW218344   1.867   3.266   3.192 -0.4018 -0.1984 -0.2207
 4643SOL    HW318345   1.722   3.291   3.227 -0.2493  2.0530 -1.0324
 4643SOL    MW418346   1.807   3.308   3.239 -0.3912 -0.8993 -0.2418
 4644SOL     OW18347   2.772   0.608   4.365 -0.6081 -0.1620  0.4171
 4644SOL    HW218348   2.857   0.631   4.402 -1.0434  0.5519  0.9815
 4644SOL    HW318349   2.708   0.641   4.427 -1.3252  0.0663 -0.4256
 4644SOL    MW418350   2.775   0.615   4.378  0.4852 -0.4493  0.4237
 4645SOL     OW18351   4.452   1.918   4.006  0.3110 -0.5017  0.1493
 4645SOL    HW218352   4.517   1.875   3.951  0.3424 -2.1774  1.3996
 4645SOL    HW318353   4.407   1.979   3.948  1.7644 -0.6236 -1.1701
 4645SOL    MW418354   4.455   1.920   3.991  0.1248  0.3137  0.1190
 4646SOL     OW18355   1.039   3.598   6.420 -0.5642 -0.4913  0.6340
 4646SOL    HW218356   1.094   3.664   6.463  0.8243 -0.8718 -0.4608
 4646SOL    HW318357   1.046   3.521   6.476 -0.2034 -0.4427  0.6606
 4646SOL    MW418358   1.048   3.597   6.433 -0.0387  0.0783 -0.1251
 4647SOL     OW18359   0.285   3.844   5.365  0.3594  0.5913  0.6268
 4647SOL    HW218360   0.196   3.809   5.365  1.4397 -2.4207  0.1469
 4647SOL    HW318361   0.289   3.898   5.443 -1.8734  0.8183  0.6581
 4647SOL    MW418362   0.274   3.847   5.375  0.1411 -0.3452  0.6593
 4648SOL     OW18363   2.691   3.611   5.272 -0.2768 -0.4291  0.1447
 4648SOL    HW218364   2.615   3.643   5.224  0.3936  0.1670 -0.5425
 4648SOL    HW318365   2.690   3.517   5.259 -1.3402 -0.5309  0.8118
 4648SOL    MW418366   2.681   3.603   5.264  0.4673 -0.1552 -0.0242
 4649SOL     OW18367   6.268   3.326   5.909  0.0725  0.0594  0.2451
 4649SOL    HW218368   6.182   3.287   5.923  0.9557 -1.7874  0.7023
 4649SOL    HW318369   6.317   3.308   5.989  1.1984  0.2586 -0.3800
 4649SOL    MW418370   6.263   3.319   5.921  0.5109  0.6004 -0.1772
 4650SOL     OW18371   4.003   3.497   2.115  0.0287  0.1370  0.3380
 4650SOL    HW218372   4.026   3.406   2.094  0.2145 -0.2153  1.9490
 4650SOL    HW318373   3.924   3.514   2.064  0.7567 -0.4494 -1.0552
 4650SOL    MW418374   3.996   3.487   2.105  0.1328 -0.0680 -0.1179
 4651SOL     OW18375   6.367   1.529   1.924  0.0900 -0.1990 -0.1739
 4651SOL    HW218376   6.431   1.509   1.855 -0.4707 -1.4449 -0.3626
 4651SOL    HW318377   6.419   1.553   2.000  0.7273  0.9562 -0.9500
 4651SOL    MW418378   6.382   1.530   1.925  0.5206  0.1351 -0.1485
 4652SOL     OW18379   4.217   6.030   0.935 -1.0115 -0.6312  0.4179
 4652SOL    HW218380   4.229   5.941   0.903  0.1924 -1.0893  1.9930
 4652SOL    HW318381   4.171   6.019   1.019  0.2369  0.0804  1.2342
 4652SOL    MW418382   4.212   6.017   0.942 -0.9429 -0.4905  0.0310
 4653SOL     OW18383   2.622   4.381   0.459  0.4646 -0.1712  0.1070
 4653SOL    HW218384   2.642   4.435   0.383 -1.0400 -0.6656 -0.6662
 4653SOL    HW318385   2.653   4.293   0.435  1.0014 -0.1035  0.5267
 4653SOL    MW418386   2.629   4.376   0.446  0.7576 -0.4767 -0.0379
 4654SOL     OW18387   5.152   0.294   6.199  0.2385 -0.6425  0.0146
 4654SOL    HW218388   5.062   0.311   6.174  0.1620  0.3479  0.8869
 4654SOL    HW318389   5.195   0.268   6.118 -0.6996 -0.5873 -0.5113
 4654SOL    MW418390   5.146   0.293   6.185 -0.2999 -0.3930  0.1231
 4655SOL     OW18391   2.585   3.090   2.381  0.4644 -0.6798  0.3320
 4655SOL    HW218392   2.612   3.177   2.410 -1.2598 -0.0933  0.2492
 4655SOL    HW318393   2.630   3.077   2.297 -0.0663  0.5715 -0.1601
 4655SOL    MW418394   2.595   3.100   2.374 -0.4929 -0.1614  0.4819
 4656SOL     OW18395   0.713   6.343   4.994  0.3855 -0.2922 -0.2033
 4656SOL    HW218396   0.619   6.360   4.993  0.2214 -1.1676 -0.3471
 4656SOL    HW318397   0.721   6.253   5.025  1.2006 -0.0991  0.1871
 4656SOL    MW418398   0.702   6.333   4.998  0.2349 -0.6123 -0.1364
 4657SOL     OW18399   5.416   0.771   2.662  0.2683 -0.2617  0.7488
 4657SOL    HW218400   5.357   0.813   2.599  1.4941 -0.9382 -0.8910
 4657SOL    HW318401   5.498   0.819   2.655  0.1689  0.2227  2.5066
 4657SOL    MW418402   5.419   0.783   2.653  0.1133 -0.1202  0.0867
 4658SOL     OW18403   2.298   5.856   6.369  0.4256  0.1200 -0.1174
 4658SOL    HW218404   2.360   5.913   6.415  0.5343 -0.5511  0.5901
 4658SOL    HW318405   2.262   5.799   6.437  0.3148 -0.6557 -0.8006
 4658SOL    MW418406   2.301   5.856   6.384 -0.6821 -0.2680 -0.1170
 4659SOL     OW18407   5.807   1.276   1.114 -0.2813 -0.0798 -0.4561
 4659SOL    HW218408   5.749   1.200   1.114 -1.3352  0.7002 -0.9630
 4659SOL    HW318409   5.777   1.329   1.040  1.2090  0.2586 -0.8451
 4659SOL    MW418410   5.795   1.273   1.104 -0.5477  0.3703  0.3777
 4660SOL     OW18411   5.428   5.657   1.326  0.3091  0.2505 -0.2487
 4660SOL    HW218412   5.392   5.609   1.252 -0.1506  0.1385  0.0464
 4660SOL    HW318413   5.472   5.732   1.286 -0.6236  0.6314 -0.5899
 4660SOL    MW418414   5.429   5.661   1.311  0.1377  0.1327 -0.0189
 4661SOL     OW18415   3.417   3.377   5.913 -0.1528 -0.7170 -0.1026
 4661SOL    HW218416   3.364   3.299   5.931 -0.7969 -0.1170  0.6466
 4661SOL    HW318417   3.407   3.390   5.818 -0.8611 -0.9594 -0.0714
 4661SOL    MW418418   3.409   3.368   5.903 -0.1275  0.0223  0.1033
 4662SOL     OW18419   1.047   3.035   5.075  0.6120 -0.1271 -0.5098
 4662SOL    HW218420   0.998   2.958   5.103  0.6077  0.8586  2.5905
 4662SOL    HW318421   1.136   3.002   5.062  0.3566 -0.8925 -0.4024
 4662SOL    MW418422   1.052   3.020   5.077  0.5160 -0.2035 -0.1911
 4663SOL     OW18423   4.876   2.134   3.866 -0.1740  0.5335  0.2129
 4663SOL    HW218424   4.965   2.145   3.901 -0.8200  1.0913  1.7648
 4663SOL    HW318425   4.829   2.212   3.897 -1.0731  0.5200 -1.0581
 4663SOL    MW418426   4.882   2.146   3.875 -0.2353  0.2000 -0.7311
 4664SOL     OW18427   3.923   1.474   5.839  0.6676 -0.4549  0.4592
 4664SOL    HW218428   3.965   1.558   5.859 -2.9452  1.5196  0.4712
 4664SOL    HW318429   3.879   1.448   5.920 -3.0653  0.8032 -0.9509
 4664SOL    MW418430   3.923   1.481   5.852 -0.7164 -0.7156 -0.3532
 4665SOL     OW18431   2.641   0.887   3.745  0.2123  0.3883  0.4237
 4665SOL    HW218432   2.623   0.969   3.791 -0.0622 -0.1979  1.3908
 4665SOL    HW318433   2.652   0.823   3.814 -0.1499 -0.5164 -0.3350
 4665SOL    MW418434   2.640   0.889   3.760  0.2803  0.7161 -0.0073
 4666SOL     OW18435   2.885   2.523   0.222 -0.2872  0.3346  0.1482
 4666SOL    HW218436   2.976   2.508   0.197  0.1143  1.9371  0.5385
 4666SOL    HW318437   2.883   2.504   0.316 -0.0050  1.5992  0.4338
 4666SOL    MW418438   2.897   2.519   0.231  0.4591  0.0888  0.5384
 4667SOL     OW18439   2.702   4.094   3.433  0.5659  0.1445 -0.0241
 4667SOL    HW218440   2.679   4.007   3.465 -0.2761  0.5399  0.4577
 4667SOL    HW318441   2.720   4.081   3.340  3.0218 -1.0161  0.5192
 4667SOL    MW418442   2.701   4.081   3.425 -1.0599 -0.0875  0.1371
 4668SOL     OW18443   3.932   0.568   1.711 -0.3809  0.8557 -0.3700
 4668SOL    HW218444   3.976   0.526   1.785 -1.2979  0.2773 -0.1299
 4668SOL    HW318445   3.876   0.635   1.751  0.2841  1.6023 -0.6704
 4668SOL    MW418446   3.930   0.571   1.726 -0.5093 -0.4793  0.0579
 4669SOL     OW18447   4.020   0.798   3.200  0.4061 -0.2953  0.2395
 4669SOL    HW218448   4.028   0.857   3.275  0.3812 -0.0422  0.0447
 4669SOL    HW318449   3.940   0.747   3.218  1.7162 -2.0143  1.6254
 4669SOL    MW418450   4.010   0.799   3.213  0.3989  0.1310 -0.5859
 4670SOL     OW18451   0.418   5.448   3.322  0.4938 -0.1160  0.0130
 4670SOL    HW218452   0.401   5.417   3.411  1.4920  0.9743  0.6116
 4670SOL    HW318453   0.502   5.409   3.299  0.4486 -0.0396 -0.2879
 4670SOL    MW418454   0.427   5.439   3.331  0.0756  0.4461  0.0303
 4671SOL     OW18455   0.364   4.990   1.994  0.2944 -0.0435 -0.6057
 4671SOL    HW218456   0.415   4.909   1.984  2.1553  1.1605 -1.4471
 4671SOL    HW318457   0.353   5.021   1.904 -1.5566 -0.0134 -0.3914
 4671SOL    MW418458   0.370   4.983   1.980  0.0966  0.1641  0.2192
 4672SOL     OW18459   2.031   4.874   1.255  0.4667  0.1914  0.3838
 4672SOL    HW218460   1.961   4.936   1.235  1.3482  0.8662 -0.6966
 4672SOL    HW318461   1.986   4.789   1.261 -0.4782  0.6482  0.0124
 4672SOL    MW418462   2.016   4.871   1.253 -0.2824 -0.2383 -0.1055
 4673SOL     OW18463   3.265   1.935   2.283 -0.5872  0.8584  0.1421
 4673SOL    HW218464   3.205   1.999   2.322 -1.3579  0.4044 -0.2744
 4673SOL    HW318465   3.208   1.868   2.247  0.1604  0.6582 -0.6944
 4673SOL    MW418466   3.249   1.935   2.283 -0.3264 -0.3183 -0.5474
 4674SOL     OW18467   4.846   3.318   3.489  0.0467  0.5741  0.4126
 4674SOL    HW218468   4.909   3.389   3.478 -0.9915  1.3497 -0.8778
 4674SOL    HW318469   4.817   3.324   3.580  1.0540  0.8692  0.7201
 4674SOL    MW418470   4.850   3.328   3.499 -0.0783 -0.1411  0.3820
 4675SOL     OW18471   0.353   2.532   0.415 -0.5675  0.1431  0.2495
 4675SOL    HW218472   0.285   2.546   0.349 -0.7765 -0.3300  0.3581
 4675SOL    HW318473   0.306   2.492   0.489  0.1564 -2.0537 -0.4128
 4675SOL    MW418474   0.338   2.529   0.416 -0.2873 -0.5329  0.3676
 4676SOL     OW18475   4.617   6.010   3.358 -0.1920  0.2234 -0.0441
 4676SOL    HW218476   4.685   5.986   3.421 -1.4845 -0.5352  1.1175
 4676SOL    HW318477   4.634   5.954   3.282  0.9046  0.5742 -0.0797
 4676SOL    MW418478   4.629   5.999   3.356 -0.2909 -0.1248 -0.3257
 4677SOL     OW18479   1.200   2.470   4.346  0.5876  0.6326  0.9408
 4677SOL    HW218480   1.258   2.400   4.376  2.1769  2.0566  1.2937
 4677SOL    HW318481   1.212   2.471   4.251 -0.5236 -0.4464  0.7467
 4677SOL    MW418482   1.209   2.461   4.337  0.5807 -0.4652  0.6489
 4678SOL     OW18483   6.090   4.283   3.513 -0.2791  0.3382 -0.0867
 4678SOL    HW218484   6.084   4.300   3.607 -0.4258 -0.2360  0.0109
 4678SOL    HW318485   6.049   4.198   3.501 -0.1407  0.3450 -0.6548
 4678SOL    MW418486   6.084   4.274   3.524  0.4212 -0.3898  0.0298
 4679SOL     OW18487   0.230   0.148   4.886 -0.1084 -0.0665 -0.6254
 4679SOL    HW218488   0.302   0.114   4.939 -0.1484  0.3859 -0.2847
 4679SOL    HW318489   0.271   0.175   4.804  0.1352  0.3606 -0.3615
 4679SOL    MW418490   0.245   0.147   4.882 -0.0706  0.1924  0.0096
 4680SOL     OW18491   0.600   1.715   1.554  0.3133  0.2532 -0.2744
 4680SOL    HW218492   0.618   1.739   1.645  0.2813  0.0534 -0.2139
 4680SOL    HW318493   0.553   1.790   1.518 -0.5211 -0.0577  0.1519
 4680SOL    MW418494   0.596   1.728   1.561 -0.0285  0.6323  0.7804
 4681SOL     OW18495   2.268   0.604   1.571  0.3827  0.0504  0.0048
 4681SOL    HW218496   2.261   0.602   1.476 -0.3713 -0.5564  0.0564
 4681SOL    HW318497   2.305   0.690   1.591  0.8342  0.0636 -0.8480
 4681SOL    MW418498   2.272   0.615   1.561  0.1934 -0.1773 -0.0866
 4682SOL     OW18499   2.394   6.089   0.061  0.3795  0.1238  0.0877
 4682SOL    HW218500   2.382   6.163   0.001 -2.2551 -0.4365 -0.1608
 4682SOL    HW318501   2.366   6.122   0.146  1.3048  0.0212  0.4528
 4682SOL    MW418502   2.389   6.104   0.064 -0.1159 -0.5134  0.0199
 4683SOL     OW18503   3.032   3.274   1.367  0.4444  0.2508 -0.1362
 4683SOL    HW218504   2.998   3.270   1.457 -1.0309 -0.1570 -0.6753
 4683SOL    HW318505   3.002   3.359   1.334  0.8145  0.3138 -0.3149
 4683SOL    MW418506   3.024   3.285   1.375 -0.2410  0.1665 -0.2594
 4684SOL     OW18507   5.584   1.313   2.435 -0.1412 -0.3048  0.1146
 4684SOL    HW218508   5.506   1.322   2.380  0.4406 -0.7257 -0.8175
 4684SOL    HW318509   5.558   1.347   2.520 -1.5260 -1.0224 -0.0001
 4684SOL    MW418510   5.570   1.319   2.439  0.2404  0.6457 -0.1161
 4685SOL     OW18511   6.349   5.641   0.421 -0.5449  0.4816 -0.0451
 4685SOL    HW218512   6.294   5.706   0.379  0.9573  1.0849 -1.1894
 4685SOL    HW318513   6.374   5.581   0.351  0.1131  0.1411  0.4603
 4685SOL    MW418514   6.345   5.641   0.406  0.6047  0.7170  0.0553
 4686SOL     OW18515   2.765   3.506   5.539  0.1313  0.3395  0.4961
 4686SOL    HW218516   2.746   3.547   5.455  0.6182  0.2213  0.3285
 4686SOL    HW318517   2.812   3.574   5.588 -0.6995  0.6319  0.9115
 4686SOL    MW418518   2.769   3.521   5.535  0.1589  0.7322 -0.0477
 4687SOL     OW18519   4.012   4.430   0.693 -0.1928 -0.1787 -0.1962
 4687SOL    HW218520   3.931   4.427   0.641 -0.3464  1.2818 -0.0907
 4687SOL    HW318521   4.082   4.430   0.628 -0.3978  2.6034 -0.5514
 4687SOL    MW418522   4.010   4.430   0.678  0.0677 -0.2423 -0.1861
 4688SOL     OW18523   1.922   1.148   1.318 -0.3966 -0.1801 -0.2580
 4688SOL    HW218524   2.005   1.124   1.278 -0.2912 -0.8990  0.3680
 4688SOL    HW318525   1.861   1.155   1.244 -0.0168 -0.6729 -0.6263
 4688SOL    MW418526   1.925   1.146   1.303  0.8518 -0.4187  0.1875
 4689SOL     OW18527   0.341   4.523   4.733  0.4316 -0.3771  0.0757
 4689SOL    HW218528   0.299   4.544   4.650  2.3117 -1.4695 -1.2198
 4689SOL    HW318529   0.281   4.462   4.776  0.0241 -0.7732 -1.0419
 4689SOL    MW418530   0.328   4.518   4.728 -0.5158 -0.2681  0.3983
 4690SOL     OW18531   5.724   2.804   1.121 -0.2551 -0.4940 -0.2099
 4690SOL    HW218532   5.682   2.731   1.077 -1.8852 -0.3488  1.0083
 4690SOL    HW318533   5.707   2.879   1.064 -1.1098 -0.5572 -0.0485
 4690SOL    MW418534   5.716   2.804   1.108  0.2387 -0.0666 -0.7017
 4691SOL     OW18535   3.765   1.747   2.400  0.1984  0.3056 -0.2825
 4691SOL    HW218536   3.820   1.691   2.455 -0.8869 -2.3498 -1.6968
 4691SOL    HW318537   3.719   1.804   2.461  1.1590 -0.5312  1.2823
 4691SOL    MW418538   3.766   1.747   2.415 -0.0074 -0.0559  0.4472
 4692SOL     OW18539   0.558   4.628   3.124  0.3695 -0.0331 -0.5670
 4692SOL    HW218540   0.513   4.543   3.124 -2.0922  1.1956 -0.6686
 4692SOL    HW318541   0.616   4.624   3.200 -1.1158 -1.1139  0.5755
 4692SOL    MW418542   0.560   4.616   3.134  0.2418 -0.2818 -0.6490
 4693SOL     OW18543   2.334   0.267   5.024  0.1975 -0.0048  0.0745
 4693SOL    HW218544   2.269   0.202   5.053 -0.3534  0.3115 -0.4401
 4693SOL    HW318545   2.302   0.350   5.058  1.7629 -0.1652  2.1836
 4693SOL    MW418546   2.321   0.269   5.033 -0.2723  0.1781 -0.4898
 4694SOL     OW18547   3.567   0.905   0.911 -0.0199 -0.1074  0.1209
 4694SOL    HW218548   3.521   0.988   0.922 -1.3922 -0.8329  0.1729
 4694SOL    HW318549   3.499   0.845   0.878  1.4380 -0.6576 -2.0678
 4694SOL    MW418550   3.552   0.908   0.908  0.1366 -0.0835  0.4398
 4695SOL     OW18551   2.973   0.333   2.066  0.1407  0.0004  0.0744
 4695SOL    HW218552   2.915   0.328   1.991  0.1832  0.0185  0.0399
 4695SOL    HW318553   3.030   0.256   2.058  0.3337  0.1567 -0.0701
 4695SOL    MW418554   2.973   0.322   2.055  0.6612 -0.0165 -0.8840
 4696SOL     OW18555   5.353   5.846   3.664  0.0328 -0.4662 -0.3619
 4696SOL    HW218556   5.366   5.835   3.570 -1.4412 -0.5348 -0.5884
 4696SOL    HW318557   5.275   5.902   3.671  1.5555  1.6355  0.8272
 4696SOL    MW418558   5.344   5.852   3.652  0.0564  0.0161 -0.0109
 4697SOL     OW18559   1.848   0.634   5.077 -0.1714  0.7719 -0.1420
 4697SOL    HW218560   1.793   0.699   5.119  1.4018  0.9506  1.8208
 4697SOL    HW318561   1.852   0.562   5.140  0.1290 -0.1605 -1.1841
 4697SOL    MW418562   1.841   0.633   5.091 -0.0424 -0.2575 -0.6529
 4698SOL     OW18563   2.019   3.352   0.010  0.6600  0.5061 -0.0654
 4698SOL    HW218564   1.928   3.331   0.033  1.0138 -1.3541 -0.2070
 4698SOL    HW318565   2.025   3.332  -0.084  1.9172 -2.3083  0.5211
 4698SOL    MW418566   2.008   3.347   0.001 -0.3645  0.5517  0.5824
 4699SOL     OW18567   5.208   3.720   3.493 -0.1742 -0.1531 -0.5575
 4699SOL    HW218568   5.225   3.736   3.585  0.0818  0.8940 -0.7736
 4699SOL    HW318569   5.151   3.792   3.466  0.2663 -0.0902 -1.3576
 4699SOL    MW418570   5.202   3.731   3.501 -0.0612  0.6880  0.7788
 4700SOL     OW18571   4.054   3.723   2.513 -0.7290 -0.8545 -0.4041
 4700SOL    HW218572   4.108   3.672   2.452  0.3970  1.2716 -1.2791
 4700SOL    HW318573   4.083   3.694   2.599  0.1119 -1.4457 -0.8649
 4700SOL    MW418574   4.065   3.712   2.516 -0.4482 -0.0915 -0.1373
 4701SOL     OW18575   5.079   2.539   4.208 -0.3782  0.1369  0.3457
 4701SOL    HW218576   5.037   2.505   4.287  0.9082 -1.5834  0.3340
 4701SOL    HW318577   5.155   2.588   4.240  0.5032 -1.0884  0.1813
 4701SOL    MW418578   5.084   2.541   4.223  0.8128 -0.1194  0.0013
 4702SOL     OW18579   0.975   4.065   5.454 -0.0249  0.3085 -0.3948
 4702SOL    HW218580   0.982   4.003   5.381  1.0530  1.5108 -1.3663
 4702SOL    HW318581   0.885   4.057   5.483 -0.0342 -1.4024 -0.7557
 4702SOL    MW418582   0.964   4.056   5.448 -0.6201  0.0651 -0.4833
 4703SOL     OW18583   1.488   3.939   1.237  0.7383  0.4307 -0.6384
 4703SOL    HW218584   1.543   3.955   1.160  2.2806  1.5201  0.6305
 4703SOL    HW318585   1.421   4.007   1.232  1.6148  1.3370 -0.3408
 4703SOL    MW418586   1.487   3.950   1.226  0.4404 -0.0693 -0.4345
 4704SOL     OW18587   1.068   5.614   0.378 -0.5470 -0.1073 -0.0825
 4704SOL    HW218588   1.024   5.574   0.303 -2.1728 -1.8064  1.6499
 4704SOL    HW318589   1.002   5.670   0.417  0.1853  0.5270  0.2662
 4704SOL    MW418590   1.054   5.616   0.373  0.4380  0.1922 -0.1932
 4705SOL     OW18591   6.369   4.865   1.852  0.1211  0.7069  0.1229
 4705SOL    HW218592   6.433   4.794   1.853 -0.6565 -0.0244 -0.7824
 4705SOL    HW318593   6.379   4.908   1.937  0.8149 -0.2895  0.5560
 4705SOL    MW418594   6.379   4.862   1.863 -0.0145 -0.4525  0.2564
 4706SOL     OW18595   0.677   2.526   5.125 -0.0257 -0.1797  0.5990
 4706SOL    HW218596   0.647   2.436   5.139  0.0273 -0.5534 -1.4134
 4706SOL    HW318597   0.659   2.570   5.208 -0.2720 -1.9749  1.5491
 4706SOL    MW418598   0.670   2.520   5.138 -0.0827 -0.5585  0.5802
 4707SOL     OW18599   3.906   3.853   5.338  0.0798  0.3680  0.0714
 4707SOL    HW218600   3.858   3.821   5.262  0.0581  0.9992 -0.1910
 4707SOL    HW318601   3.979   3.902   5.301  0.3302  0.2939  0.4636
 4707SOL    MW418602   3.909   3.855   5.323  0.0031 -0.1132  0.7429
 4708SOL     OW18603   4.125   5.961   3.728  0.2373 -0.5221  0.3074
 4708SOL    HW218604   4.038   5.957   3.766  0.2573  0.9436  0.5458
 4708SOL    HW318605   4.118   6.023   3.656  1.3718  0.7185  1.2071
 4708SOL    MW418606   4.113   5.969   3.723  0.4075 -0.5267  0.0650
 4709SOL     OW18607   5.734   3.816   3.395 -0.0330  0.5183  0.2992
 4709SOL    HW218608   5.773   3.815   3.308 -0.8822  2.3315 -0.1430
 4709SOL    HW318609   5.656   3.760   3.388  0.2353  0.1773  0.0634
 4709SOL    MW418610   5.729   3.808   3.383 -0.1765  0.1360  0.0481
 4710SOL     OW18611   4.029   0.755   0.434  0.8107 -0.4568 -0.3762
 4710SOL    HW218612   4.074   0.670   0.431  1.1139 -0.3525  0.8072
 4710SOL    HW318613   4.085   0.810   0.489 -0.4958 -0.1649  0.7126
 4710SOL    MW418614   4.042   0.751   0.441 -0.5757 -0.3822 -0.7729
 4711SOL     OW18615   5.939   0.315   0.263  0.3889  0.1565  0.0388
 4711SOL    HW218616   6.031   0.316   0.288  0.4453 -0.4613 -0.1192
 4711SOL    HW318617   5.895   0.270   0.336  0.7196 -2.7465 -1.4119
 4711SOL    MW418618   5.945   0.309   0.276  0.1710 -0.1225 -0.5145
 4712SOL     OW18619   5.444   1.173   3.785 -0.1060 -0.2024  0.2709
 4712SOL    HW218620   5.462   1.081   3.765 -0.3533  0.2617 -2.3530
 4712SOL    HW318621   5.466   1.182   3.878  1.2421 -2.5651  0.2451
 4712SOL    MW418622   5.449   1.162   3.795  0.3449  0.1418 -0.0073
 4713SOL     OW18623   2.000   3.374   3.900  0.1450  0.1297 -0.5694
 4713SOL    HW218624   1.925   3.402   3.952  0.6016 -0.8061  0.6521
 4713SOL    HW318625   1.981   3.405   3.811 -2.2516 -1.0938 -0.5711
 4713SOL    MW418626   1.988   3.382   3.895 -0.2608 -0.3824  0.1330
 4714SOL     OW18627   1.280   3.109   2.030  0.5642 -0.0440  0.3314
 4714SOL    HW218628   1.260   3.062   2.111 -0.2930  0.4033  0.3864
 4714SOL    HW318629   1.197   3.116   1.984  0.1774  3.1062  1.2547
 4714SOL    MW418630   1.267   3.104   2.035  0.1159  0.7811 -0.0847
 4715SOL     OW18631   1.310   1.724   1.283 -0.4214 -0.3623  0.9016
 4715SOL    HW218632   1.323   1.715   1.188  0.7340 -0.3810  1.0499
 4715SOL    HW318633   1.246   1.796   1.291  1.0643  1.1132  0.1484
 4715SOL    MW418634   1.303   1.732   1.271 -0.0730 -0.3485 -0.4443
 4716SOL     OW18635   4.848   4.768   5.798 -0.1692 -0.3169  0.5672
 4716SOL    HW218636   4.771   4.796   5.749 -0.5163  0.1357  1.3376
 4716SOL    HW318637   4.917   4.758   5.732 -1.0130 -1.2241 -0.1962
 4716SOL    MW418638   4.847   4.770   5.783  0.3063 -0.6839 -0.2080
 4717SOL     OW18639   2.681   2.277   1.779  0.0435 -0.2549  0.0893
 4717SOL    HW218640   2.682   2.347   1.714 -1.0908 -0.1541  0.1643
 4717SOL    HW318641   2.738   2.209   1.743 -1.6438 -0.8002 -1.7055
 4717SOL    MW418642   2.689   2.277   1.766 -0.6267  0.0209 -0.6264
 4718SOL     OW18643   5.270   1.299   3.601  0.3176  0.1194 -0.7802
 4718SOL    HW218644   5.338   1.253   3.650  1.1971  1.5103 -0.6392
 4718SOL    HW318645   5.317   1.365   3.550 -0.8918  0.9138 -0.9207
 4718SOL    MW418646   5.285   1.302   3.600 -0.1437  0.8273 -0.0033
 4719SOL     OW18647   1.471   0.115   3.209 -0.2087  0.6717 -0.0865
 4719SOL    HW218648   1.528   0.164   3.268 -0.0569  0.6240 -0.1917
 4719SOL    HW318649   1.530   0.052   3.167 -0.5036  0.0361  0.4450
 4719SOL    MW418650   1.487   0.113   3.211  0.5202 -0.0575 -0.1397
 4720SOL     OW18651   1.342   1.144   3.832  0.2522 -0.2728  0.0212
 4720SOL    HW218652   1.390   1.086   3.774  0.1853 -1.2850  0.9502
 4720SOL    HW318653   1.394   1.147   3.913  0.0982  0.7152  0.1009
 4720SOL    MW418654   1.355   1.137   3.835  0.0437  0.3417 -0.0681
 4721SOL     OW18655   0.540   5.945   2.178 -0.0671  0.0149  0.5029
 4721SOL    HW218656   0.538   6.013   2.112  0.9203 -0.5449 -0.1225
 4721SOL    HW318657   0.516   5.990   2.260  3.2196  1.7593  0.6580
 4721SOL    MW418658   0.536   5.960   2.180  0.0939 -0.1949 -0.3333
 4722SOL     OW18659   6.046   1.917   4.193 -0.5392  0.5765 -0.1559
 4722SOL    HW218660   5.979   1.985   4.194 -1.4358 -0.1581  3.5029
 4722SOL    HW318661   6.007   1.845   4.144 -0.5831  1.7060 -1.8613
 4722SOL    MW418662   6.032   1.917   4.187  0.1820  0.1589  0.1549
 4723SOL     OW18663   5.591   1.834   0.605 -0.4738 -0.3805  0.1416
 4723SOL    HW218664   5.656   1.895   0.571 -1.8541  1.1070  0.0501
 4723SOL    HW318665   5.593   1.846   0.700 -2.2078  1.4416  0.0049
 4723SOL    MW418666   5.599   1.844   0.613  0.6871 -0.6467 -0.0732
 4724SOL     OW18667   0.591   1.225   5.056  0.2660 -0.0834  0.1924
 4724SOL    HW218668   0.638   1.270   4.985 -1.9304  0.1321 -1.2209
 4724SOL    HW318669   0.516   1.281   5.074 -0.9181 -1.7139  0.4961
 4724SOL    MW418670   0.588   1.238   5.049 -0.1800  0.3888  0.2681
 4725SOL     OW18671   4.118   3.725   4.657 -0.0626 -0.0294 -0.2371
 4725SOL    HW218672   4.099   3.693   4.569  1.1824 -1.4749 -0.0244
 4725SOL    HW318673   4.116   3.646   4.711  2.7248  0.2444  0.4123
 4725SOL    MW418674   4.115   3.710   4.653 -0.4433  0.6027  0.1999
 4726SOL     OW18675   5.229   5.384   2.334 -0.0230 -0.0632  0.1146
 4726SOL    HW218676   5.173   5.352   2.404  1.3446  1.2754  1.9068
 4726SOL    HW318677   5.183   5.461   2.299 -1.9087 -2.0981 -2.2598
 4726SOL    MW418678   5.216   5.390   2.339  0.2405 -0.6306  0.3134
 4727SOL     OW18679   4.360   0.172   1.771 -0.0546 -0.3580  0.0514
 4727SOL    HW218680   4.344   0.260   1.806  1.1527 -0.3828  0.7201
 4727SOL    HW318681   4.408   0.188   1.690  1.2835 -0.3953  0.7991
 4727SOL    MW418682   4.364   0.186   1.765  0.1029 -0.1068 -0.4317
 4728SOL     OW18683   6.125   4.581   1.881 -0.4974  0.0256  0.2507
 4728SOL    HW218684   6.171   4.576   1.964 -1.9546  0.2275  1.1028
 4728SOL    HW318685   6.193   4.568   1.815  0.7467  0.2271  1.4490
 4728SOL    MW418686   6.140   4.579   1.883 -0.2802  0.2138 -0.3255
 4729SOL     OW18687   4.901   2.554   2.475  0.4121 -0.3476 -0.2762
 4729SOL    HW218688   4.930   2.466   2.453 -1.0749 -1.3477  1.4118
 4729SOL    HW318689   4.806   2.551   2.463  0.2661  0.8091  0.4592
 4729SOL    MW418690   4.892   2.542   2.471 -0.0039  0.1048  0.6173
 4730SOL     OW18691   3.797   6.334   5.312  0.4150  0.4228  0.2709
 4730SOL    HW218692   3.805   6.420   5.272 -1.7409  1.1835  1.2940
 4730SOL    HW318693   3.870   6.329   5.374  1.1852  1.0433 -0.5596
 4730SOL    MW418694   3.807   6.344   5.315 -0.2509 -0.7043 -0.6173
 4731SOL     OW18695   5.396   3.283   3.812 -0.3505 -0.2156  0.0646
 4731SOL    HW218696   5.390   3.204   3.865 -2.4282 -1.5751 -1.9974
 4731SOL    HW318697   5.349   3.350   3.863  0.0348 -0.7106  1.1026
 4731SOL    MW418698   5.389   3.282   3.826 -0.5530 -0.5375  0.2303
 4732SOL     OW18699   1.036   6.303   0.971  0.0942 -0.1955  0.2230
 4732SOL    HW218700   0.969   6.333   0.909 -0.0072 -0.7200  0.0769
 4732SOL    HW318701   1.111   6.361   0.955 -0.3641  0.4798  0.4769
 4732SOL    MW418702   1.037   6.315   0.961 -0.3503 -0.1363  0.4716
 4733SOL     OW18703   5.412   1.124   1.240 -0.4202 -0.7504 -0.5630
 4733SOL    HW218704   5.392   1.058   1.307  1.4963  0.3796  1.2671
 4733SOL    HW318705   5.503   1.104   1.215 -0.4963 -0.0013 -1.4401
 4733SOL    MW418706   5.422   1.112   1.246  0.4135  0.5201 -0.1777
 4734SOL     OW18707   0.847   2.330   6.092 -0.3726 -0.4291 -0.3084
 4734SOL    HW218708   0.768   2.381   6.076 -0.6875 -0.8544 -0.1389
 4734SOL    HW318709   0.878   2.360   6.178 -0.7274 -0.7306 -0.0696
 4734SOL    MW418710   0.841   2.341   6.101 -0.4599  0.3308 -0.3822
 4735SOL     OW18711   0.141   4.003   2.669  0.0780  0.1236  0.4053
 4735SOL    HW218712   0.204   3.986   2.739  1.7546 -0.2378 -1.1121
 4735SOL    HW318713   0.095   3.919   2.657  0.8823 -0.2804  0.0591
 4735SOL    MW418714   0.143   3.990   2.677  0.3102 -0.4325  0.4480
 4736SOL     OW18715   5.182   2.052   2.779 -0.1382 -0.4953  0.7046
 4736SOL    HW218716   5.150   2.112   2.847  1.6440 -0.4336  1.5564
 4736SOL    HW318717   5.187   1.967   2.822 -0.2542 -0.7385  0.2426
 4736SOL    MW418718   5.178   2.049   2.793 -0.1071 -0.5715 -0.0551
 4737SOL     OW18719   1.288   0.286   6.174 -0.0298  0.0716  0.3056
 4737SOL    HW218720   1.255   0.218   6.115 -1.6672  0.3252  0.8679
 4737SOL    HW318721   1.276   0.368   6.125 -1.8559  0.3370  1.0976
 4737SOL    MW418722   1.282   0.288   6.160 -0.2466  0.1319  0.1774
 4738SOL     OW18723   2.494   2.627   4.251 -0.1156  0.0188 -0.3874
 4738SOL    HW218724   2.445   2.710   4.250  1.2704  0.8959  0.5503
 4738SOL    HW318725   2.560   2.640   4.319  0.9968 -1.3580 -1.1673
 4738SOL    MW418726   2.496   2.640   4.260 -0.3526 -0.0678 -0.0720
 4739SOL     OW18727   3.886   5.449   1.887  0.2958 -0.3247 -0.5937
 4739SOL    HW218728   3.929   5.423   1.806 -1.3538 -1.2119 -1.2452
 4739SOL    HW318729   3.855   5.538   1.870 -0.5069 -0.6952 -1.1796
 4739SOL    MW418730   3.887   5.457   1.874  0.4919 -0.3912 -0.2201
 4740SOL     OW18731   2.685   1.224   3.552  0.1347 -0.4245 -0.0583
 4740SOL    HW218732   2.637   1.294   3.597  1.1190  0.7882 -0.8071
 4740SOL    HW318733   2.755   1.201   3.613  0.7895  0.4233 -0.4621
 4740SOL    MW418734   2.688   1.230   3.566  0.0191 -0.3071  0.2168
 4741SOL     OW18735   1.583   1.999   1.102 -0.0778  0.4503 -0.2360
 4741SOL    HW218736   1.650   2.002   1.171  0.6716  2.8052 -0.9602
 4741SOL    HW318737   1.609   1.924   1.047  2.1221  1.4024 -0.5889
 4741SOL    MW418738   1.596   1.989   1.104  0.4517  0.7409  0.0316
 4742SOL     OW18739   4.166   3.603   0.415 -0.5862  0.0373  0.1043
 4742SOL    HW218740   4.248   3.594   0.366 -0.4253  0.0438  0.3725
 4742SOL    HW318741   4.121   3.676   0.372 -0.6522 -0.2464 -0.3204
 4742SOL    MW418742   4.171   3.612   0.403  0.7161 -0.4432  0.5362
 4743SOL     OW18743   1.859   5.648   4.637  0.2894  0.6633 -0.9786
 4743SOL    HW218744   1.886   5.585   4.571  2.8550  1.7759 -1.1123
 4743SOL    HW318745   1.828   5.595   4.710 -1.5211 -0.6073 -2.5864
 4743SOL    MW418746   1.859   5.633   4.638 -0.4391 -0.1789 -0.0220
 4744SOL     OW18747   0.909   0.346   3.984  0.1349 -0.1987  0.5060
 4744SOL    HW218748   0.982   0.310   3.935 -0.5530 -0.1706 -0.5793
 4744SOL    HW318749   0.861   0.270   4.016  1.4409 -0.2476  2.5556
 4744SOL    MW418750   0.912   0.331   3.982  0.1636 -0.1275  0.0003
 4745SOL     OW18751   5.242   4.006   2.185 -0.1469 -0.3016 -0.6273
 4745SOL    HW218752   5.220   4.040   2.098  0.5482 -1.2166 -1.1857
 4745SOL    HW318753   5.311   3.942   2.169  0.5288  0.0539  0.6955
 4745SOL    MW418754   5.248   4.002   2.171 -0.0503 -0.0206  0.3192
 4746SOL     OW18755   0.269   1.660   0.532  0.0311 -0.4295  0.3990
 4746SOL    HW218756   0.323   1.581   0.526  1.8056  0.4388  2.9940
 4746SOL    HW318757   0.329   1.731   0.510 -0.8645  0.3787  0.5097
 4746SOL    MW418758   0.284   1.659   0.529 -0.0255  0.4340 -0.7034
 4747SOL     OW18759   2.357   3.421   2.923  0.3802 -0.8016  0.5568
 4747SOL    HW218760   2.343   3.516   2.926  1.1821 -0.5954 -1.3282
 4747SOL    HW318761   2.412   3.403   3.000  2.1610  0.6457 -0.2944
 4747SOL    MW418762   2.363   3.431   2.934 -0.0848  0.1823 -0.1661
 4748SOL     OW18763   6.227   3.784   4.648 -0.9335 -0.2836  0.5389
 4748SOL    HW218764   6.195   3.782   4.557 -0.9739 -1.0607  0.5594
 4748SOL    HW318765   6.150   3.761   4.700 -0.7570 -0.4706  0.7192
 4748SOL    MW418766   6.212   3.780   4.643  0.0691  0.2761 -0.3055
 4749SOL     OW18767   1.696   3.830   0.788  0.2971 -0.1569  0.7060
 4749SOL    HW218768   1.708   3.907   0.732 -1.0933 -0.2899  0.1681
 4749SOL    HW318769   1.614   3.791   0.757  0.5613 -1.4049  1.5006
 4749SOL    MW418770   1.687   3.835   0.776 -0.3284  0.0931 -0.2597
 4750SOL     OW18771   4.038   1.694   3.378  0.0960  0.0085 -0.6505
 4750SOL    HW218772   4.025   1.605   3.345  1.2212 -1.4625  2.5257
 4750SOL    HW318773   4.133   1.708   3.374  0.5010 -0.8125  2.9437
 4750SOL    MW418774   4.049   1.684   3.373  0.2532  0.0813 -0.1920
 4751SOL     OW18775   4.974   0.567   5.898 -0.0185  0.0317 -0.1350
 4751SOL    HW218776   5.066   0.543   5.887 -0.2118 -0.9997  0.4153
 4751SOL    HW318777   4.943   0.511   5.968 -1.1165  0.2625 -0.4244
 4751SOL    MW418778   4.982   0.556   5.906 -0.1333  0.2235  0.1006
 4752SOL     OW18779   2.719   3.185   0.391  0.5451  0.0046  0.6520
 4752SOL    HW218780   2.684   3.106   0.349 -0.6487  0.1131  1.3768
 4752SOL    HW318781   2.661   3.199   0.466  0.8227  1.5006  0.6108
 4752SOL    MW418782   2.707   3.176   0.395 -0.0132  0.8237  0.2073
 4753SOL     OW18783   6.071   5.910   5.253 -0.4226  0.4540  0.1210
 4753SOL    HW218784   6.010   5.898   5.180 -0.9952  1.5838  0.3816
 4753SOL    HW318785   6.015   5.908   5.331 -0.3363  2.5857  0.3040
 4753SOL    MW418786   6.055   5.908   5.253 -0.6258 -0.5032 -0.5237
 4754SOL     OW18787   3.139   0.342   0.113  0.0105 -0.1623 -0.7260
 4754SOL    HW218788   3.093   0.334   0.030  0.8953 -0.2987 -1.2263
 4754SOL    HW318789   3.078   0.308   0.179 -2.4255  3.8194 -0.6597
 4754SOL    MW418790   3.125   0.336   0.111 -0.0885  0.5073  0.1941
 4755SOL     OW18791   3.786   1.518   6.185 -0.4076  0.2745 -0.2045
 4755SOL    HW218792   3.762   1.435   6.225 -0.3682  0.0401 -0.6637
 4755SOL    HW318793   3.702   1.559   6.164 -0.4665  0.9198  1.1438
 4755SOL    MW418794   3.772   1.513   6.188 -0.2997  0.1099 -0.1923
 4756SOL     OW18795   6.133   4.075   0.334 -0.2309 -0.0298  0.9645
 4756SOL    HW218796   6.132   4.168   0.357  0.9035 -0.1726  1.6583
 4756SOL    HW318797   6.166   4.072   0.245 -0.6038  0.2481  0.8146
 4756SOL    MW418798   6.137   4.087   0.325  0.1664 -0.1836  0.0264
 4757SOL     OW18799   2.103   4.349   0.164 -0.1804 -0.0009  0.2022
 4757SOL    HW218800   2.018   4.306   0.163 -0.0817 -0.3700  2.3728
 4757SOL    HW318801   2.157   4.299   0.103 -0.3640 -2.3841  1.8725
 4757SOL    MW418802   2.099   4.337   0.156 -0.3256  0.2950 -0.2361
 4758SOL     OW18803   5.280   0.912   1.361  0.6748  0.2388  0.0965
 4758SOL    HW218804   5.362   0.865   1.345  1.9069  1.6835  1.7105
 4758SOL    HW318805   5.287   0.940   1.452 -1.0595  1.5008 -0.1170
 4758SOL    MW418806   5.292   0.909   1.371 -0.1388 -0.0832  0.7740
 4759SOL     OW18807   5.397   2.025   5.039  0.2607  0.5575  0.1086
 4759SOL    HW218808   5.383   1.942   4.994 -0.5901  1.3186 -1.0829
 4759SOL    HW318809   5.402   2.090   4.969  0.5550  1.5604  1.0337
 4759SOL    MW418810   5.395   2.023   5.024  0.3639 -0.1754  0.6948
 4760SOL     OW18811   0.908   1.682   3.134  0.0259 -0.0354 -0.1795
 4760SOL    HW218812   0.943   1.605   3.089 -0.2972 -0.4443  0.2708
 4760SOL    HW318813   0.823   1.697   3.093 -0.6085 -0.8659  0.8038
 4760SOL    MW418814   0.902   1.674   3.123 -0.3163 -0.2871  0.1887
 4761SOL     OW18815   3.556   0.863   0.320 -0.3731  0.1430  0.6190
 4761SOL    HW218816   3.568   0.958   0.321  0.1697  0.1323  3.2823
 4761SOL    HW318817   3.624   0.830   0.378 -2.1330 -1.6242  1.8232
 4761SOL    MW418818   3.567   0.872   0.328  0.3100  0.4728 -0.4059
 4762SOL     OW18819   0.113   4.414   2.667 -0.0437  0.0127 -0.0320
 4762SOL    HW218820   0.094   4.385   2.756  0.0529 -2.1200 -0.6556
 4762SOL    HW318821   0.027   4.434   2.629 -0.2374 -0.6547  0.0441
 4762SOL    MW418822   0.099   4.413   2.674  0.4420  0.0683 -0.0493
 4763SOL     OW18823   4.737   3.648   1.667  0.0235  0.1252  0.2444
 4763SOL    HW218824   4.698   3.729   1.632  0.8330  1.0989  1.4776
 4763SOL    HW318825   4.823   3.644   1.626 -0.0520 -0.1574  0.1174
 4763SOL    MW418826   4.743   3.658   1.657  0.1829 -0.2397  0.3331
 4764SOL     OW18827   3.472   6.039   3.513  0.3100 -0.4511  0.2134
 4764SOL    HW218828   3.473   6.103   3.585 -0.2207  0.9731 -0.9819
 4764SOL    HW318829   3.384   6.003   3.514  0.5446 -1.0130  0.7600
 4764SOL    MW418830   3.461   6.043   3.522 -0.4140 -0.0226  0.3659
 4765SOL     OW18831   2.976   3.495   0.420  0.1685  0.0192  0.1490
 4765SOL    HW218832   2.966   3.582   0.458 -1.8241 -0.4739  0.8882
 4765SOL    HW318833   2.898   3.482   0.367 -0.9510 -2.2429  2.1311
 4765SOL    MW418834   2.965   3.505   0.418 -0.3508  0.8655  0.2467
 4766SOL     OW18835   3.480   2.186   0.652 -0.0777  0.4680 -0.3051
 4766SOL    HW218836   3.388   2.167   0.636  0.1530 -2.3845  1.1476
 4766SOL    HW318837   3.520   2.187   0.565 -1.2479  0.4411 -0.8653
 4766SOL    MW418838   3.473   2.184   0.639 -0.3263 -0.5676  0.0291
 4767SOL     OW18839   0.110   6.101   6.413  0.0116 -0.4337  0.3900
 4767SOL    HW218840   0.108   6.014   6.453  1.5455 -1.1991 -1.0992
 4767SOL    HW318841   0.148   6.088   6.327 -0.5782  1.5966 -0.2500
 4767SOL    MW418842   0.115   6.088   6.407  0.1842 -0.0344 -0.2621
 4768SOL     OW18843   2.022   5.700   1.643  0.5887 -0.3731 -0.3236
 4768SOL    HW218844   2.017   5.605   1.643  0.6508 -0.3879  0.7495
 4768SOL    HW318845   2.097   5.720   1.700  1.3682  0.2857 -1.5420
 4768SOL    MW418846   2.031   5.690   1.651  0.3199  0.1539  0.2182
 4769SOL     OW18847   3.497   6.126   4.556  0.0874 -0.3266 -0.7361
 4769SOL    HW218848   3.488   6.216   4.588  3.5862  0.8253 -2.5321
 4769SOL    HW318849   3.575   6.128   4.501  0.9114 -4.7597 -0.0297
 4769SOL    MW418850   3.506   6.138   4.553  0.1967 -0.1681 -0.5540
 4770SOL     OW18851   2.044   3.882   1.740 -0.3839  0.7132 -0.1002
 4770SOL    HW218852   2.001   3.862   1.656 -0.1051 -0.2336 -0.0276
 4770SOL    HW318853   2.045   3.798   1.787 -0.8381  1.3093  0.9985
 4770SOL    MW418854   2.038   3.868   1.735 -0.0337  0.0361 -0.2430
 4771SOL     OW18855   3.522   3.850   4.912  0.3744  0.3538 -0.4397
 4771SOL    HW218856   3.431   3.821   4.926  1.0021 -0.7639  1.8161
 4771SOL    HW318857   3.529   3.932   4.962  1.1969 -0.8357  1.5140
 4771SOL    MW418858   3.511   3.857   4.921  0.8675  0.5732 -0.1017
 4772SOL     OW18859   0.673   5.098   0.457 -0.3610 -0.3094  0.6064
 4772SOL    HW218860   0.738   5.168   0.464 -0.9568  0.2952  0.2850
 4772SOL    HW318861   0.718   5.020   0.489  0.2529  0.2617  1.1846
 4772SOL    MW418862   0.688   5.097   0.462  0.1174  0.5691 -0.6478
 4773SOL     OW18863   4.865   1.538   1.193 -0.1349  0.0669 -0.1979
 4773SOL    HW218864   4.938   1.508   1.139  0.8743  1.4619  0.3443
 4773SOL    HW318865   4.794   1.555   1.131  0.8070  1.0497 -1.0332
 4773SOL    MW418866   4.865   1.536   1.178 -0.1386 -0.1996  0.1629
 4774SOL     OW18867   5.307   1.003   4.005  0.3327 -0.1781  0.6281
 4774SOL    HW218868   5.286   0.978   3.915  1.0684 -0.6903  0.5925
 4774SOL    HW318869   5.241   1.069   4.028 -0.4199 -0.7119  0.0318
 4774SOL    MW418870   5.295   1.008   3.996 -0.2607  0.2375  0.7486
 4775SOL     OW18871   0.125   1.353   2.364 -0.8797 -0.0461  0.2693
 4775SOL    HW218872   0.051   1.297   2.342 -0.1736 -0.8004 -0.2765
 4775SOL    HW318873   0.201   1.308   2.326  0.0253  0.1002  1.8037
 4775SOL    MW418874   0.125   1.339   2.356  0.1987 -0.1101  0.3216
 4776SOL     OW18875   2.822   1.601   4.480 -0.1727  0.9453  0.3612
 4776SOL    HW218876   2.779   1.629   4.399 -1.7941 -0.1198  0.7978
 4776SOL    HW318877   2.811   1.506   4.481  1.3125  0.7459  1.0298
 4776SOL    MW418878   2.815   1.592   4.469  0.0816 -0.5311 -0.2691
 4777SOL     OW18879   3.675   1.636   0.906 -0.1212  0.4809  0.1003
 4777SOL    HW218880   3.599   1.694   0.918  0.0145  0.8879 -0.8846
 4777SOL    HW318881   3.653   1.583   0.830  0.6607  0.7613 -0.3385
 4777SOL    MW418882   3.662   1.637   0.897 -0.1758  0.1142  0.4045
 4778SOL     OW18883   4.811   2.565   1.809 -0.3612  0.2206 -0.1888
 4778SOL    HW218884   4.826   2.506   1.735  0.1214 -0.7162  0.6315
 4778SOL    HW318885   4.752   2.517   1.867 -1.1149  1.1371 -0.1668
 4778SOL    MW418886   4.805   2.551   1.807 -0.2496 -0.8041 -0.4302
 4779SOL     OW18887   1.866   4.183   5.383  0.0357 -0.0056 -0.3251
 4779SOL    HW218888   1.947   4.173   5.333 -0.5514  0.2447 -1.3546
 4779SOL    HW318889   1.874   4.120   5.455  1.9057  1.2584  0.6377
 4779SOL    MW418890   1.878   4.173   5.386 -0.4735 -0.1962 -0.5564
 4780SOL     OW18891   5.098   6.243   1.026 -0.5520 -0.2918 -0.6850
 4780SOL    HW218892   5.016   6.202   0.999 -0.3341 -0.3998 -1.1949
 4780SOL    HW318893   5.096   6.330   0.986  0.0324 -0.6627 -1.5515
 4780SOL    MW418894   5.087   6.249   1.017 -0.3069 -0.8261  0.7031
 4781SOL     OW18895   5.968   5.635   2.331  0.5402 -0.0110 -0.3584
 4781SOL    HW218896   6.036   5.689   2.371  0.1651 -0.4192  0.8665
 4781SOL    HW318897   5.905   5.698   2.296  0.0240  0.3830  1.1932
 4781SOL    MW418898   5.969   5.650   2.332 -0.2920  0.2219 -0.1100
 4782SOL     OW18899   1.950   6.160   4.844  0.2997  0.2653 -1.4313
 4782SOL    HW218900   1.938   6.074   4.883  0.9456  1.3929  1.4943
 4782SOL    HW318901   1.980   6.142   4.754  0.9494 -2.5412 -0.7289
 4782SOL    MW418902   1.953   6.146   4.837  0.0589  0.1459  0.1449
 4783SOL     OW18903   6.323   3.046   3.216  0.2581  0.0691  0.1103
 4783SOL    HW218904   6.333   3.049   3.121 -2.6062  2.0251 -0.2750
 4783SOL    HW318905   6.232   3.019   3.229  0.2142  1.0505  2.2418
 4783SOL    MW418906   6.312   3.043   3.205  0.3659  0.2731 -0.1778
 4784SOL     OW18907   4.121   0.016   1.813 -0.3767 -0.2245  0.5521
 4784SOL    HW218908   4.199   0.071   1.822 -0.6663  0.3247 -0.2204
 4784SOL    HW318909   4.154  -0.073   1.825  0.6556 -0.1300 -1.2433
 4784SOL    MW418910   4.136   0.011   1.816 -0.2158  0.6166 -0.4621
 4785SOL     OW18911   1.747   3.382   6.078  0.0016 -0.5710 -0.7464
 4785SOL    HW218912   1.670   3.342   6.039  0.0833 -0.4706 -1.0125
 4785SOL    HW318913   1.722   3.399   6.169 -1.0369  1.3616 -1.3308
 4785SOL    MW418914   1.734   3.379   6.085 -0.4624  0.6654 -0.6005
 4786SOL     OW18915   2.928   2.526   4.593  0.1805 -0.1228  0.2035
 4786SOL    HW218916   2.958   2.583   4.522 -1.3963 -0.1383 -0.5053
 4786SOL    HW318917   2.950   2.574   4.673  0.2533  0.7818 -0.3481
 4786SOL    MW418918   2.935   2.540   4.594 -0.1351  0.1277 -0.7869
 4787SOL     OW18919   3.792   6.138   4.792 -0.0059 -0.7374 -0.8762
 4787SOL    HW218920   3.765   6.047   4.789  0.8295 -1.1153  1.4135
 4787SOL    HW318921   3.838   6.148   4.875  1.0441  1.4694 -1.6112
 4787SOL    MW418922   3.795   6.128   4.802 -0.4605  0.2782 -0.3074
 4788SOL     OW18923   4.255   2.811   2.392  0.1756 -0.5810 -0.8295
 4788SOL    HW218924   4.231   2.719   2.396  0.3711 -0.6358 -0.9231
 4788SOL    HW318925   4.223   2.840   2.307 -0.5795 -0.3659 -0.4823
 4788SOL    MW418926   4.248   2.803   2.381 -0.4610  0.0776  0.0975
 4789SOL     OW18927   5.346   5.445   5.620 -0.0523 -0.1489 -0.4039
 4789SOL    HW218928   5.333   5.454   5.715 -1.3062 -0.2761 -0.5420
 4789SOL    HW318929   5.394   5.363   5.610 -1.0718 -0.8291  0.0675
 4789SOL    MW418930   5.351   5.436   5.631  0.2152  0.3410  0.6910
 4790SOL     OW18931   4.774   1.269   4.119 -0.1078 -0.0125 -1.0426
 4790SOL    HW218932   4.792   1.189   4.069  0.1835  0.1759 -1.2417
 4790SOL    HW318933   4.854   1.321   4.111  0.6547 -0.7359  1.0756
 4790SOL    MW418934   4.787   1.265   4.111 -0.2502 -0.1519 -0.0026
 4791SOL     OW18935   0.032   1.158   5.226  0.6691  0.1833  0.2829
 4791SOL    HW218936  -0.028   1.085   5.217  1.8350 -0.6004 -1.8365
 4791SOL    HW318937   0.096   1.146   5.155  3.0414  1.2347  2.0961
 4791SOL    MW418938   0.033   1.147   5.215  0.6445 -0.1107 -0.6660
 4792SOL     OW18939   5.527   1.051   1.792  0.0714 -0.2262  0.2851
 4792SOL    HW218940   5.535   0.975   1.850 -0.2146 -0.6359 -0.1982
 4792SOL    HW318941   5.614   1.092   1.794  0.2008 -0.5088  0.6302
 4792SOL    MW418942   5.540   1.046   1.800 -0.1780 -0.3927  0.1050
 4793SOL     OW18943   1.319   4.563   0.998  0.3385  0.2438  0.4610
 4793SOL    HW218944   1.273   4.647   1.003  1.5479  1.0724 -1.1335
 4793SOL    HW318945   1.297   4.530   0.910  1.9304  0.1709  0.0704
 4793SOL    MW418946   1.310   4.570   0.987 -0.3631  0.4116  0.2508
 4794SOL     OW18947   0.193   2.394   3.848  0.3714  0.3268  0.3798
 4794SOL    HW218948   0.254   2.324   3.872 -0.9462 -1.1712 -0.4598
 4794SOL    HW318949   0.109   2.350   3.837 -0.1225  1.7037 -2.0562
 4794SOL    MW418950   0.190   2.379   3.849 -0.4984 -0.6101  0.2489
 4795SOL     OW18951   1.078   4.772   6.297 -0.8125  0.1016  0.4749
 4795SOL    HW218952   1.148   4.823   6.340 -0.8789  1.1923 -0.6601
 4795SOL    HW318953   1.000   4.827   6.305 -0.6520  0.7192 -1.7083
 4795SOL    MW418954   1.077   4.786   6.304  0.6352 -0.3508  0.6034
 4796SOL     OW18955   1.621   4.691   5.396 -0.2217 -0.5550 -0.0815
 4796SOL    HW218956   1.584   4.752   5.331  1.7639  0.8574  0.0155
 4796SOL    HW318957   1.639   4.611   5.346 -1.4205 -0.5435 -0.5790
 4796SOL    MW418958   1.618   4.689   5.381 -0.0216  0.3778 -0.0017
 4797SOL     OW18959   3.686   4.715   2.975  0.1960 -0.0491  0.0035
 4797SOL    HW218960   3.603   4.708   3.021 -0.1511  1.5557 -0.3341
 4797SOL    HW318961   3.749   4.672   3.033 -0.8344 -1.2407  0.2878
 4797SOL    MW418962   3.684   4.708   2.989  0.2783 -0.3925 -0.3469
 4798SOL     OW18963   1.067   2.845   2.261 -0.0785 -0.2298 -0.1214
 4798SOL    HW218964   0.991   2.876   2.211  0.8637  0.8393 -0.9271
 4798SOL    HW318965   1.112   2.786   2.200  0.0483 -0.4306  0.1656
 4798SOL    MW418966   1.063   2.841   2.246 -0.7850 -0.2265  1.0251
 4799SOL     OW18967   2.736   4.864   0.050 -0.3004  0.2171  0.4014
 4799SOL    HW218968   2.723   4.957   0.037  0.1993  0.3668  0.9326
 4799SOL    HW318969   2.830   4.850   0.036 -0.4985 -0.3497 -0.4907
 4799SOL    MW418970   2.747   4.874   0.046  0.8430  0.7031 -0.0082
 4800SOL     OW18971   0.351   0.863   2.555  0.0421 -0.1063 -0.4112
 4800SOL    HW218972   0.330   0.814   2.634 -0.0838 -2.6583 -1.9041
 4800SOL    HW318973   0.373   0.951   2.586 -3.1435 -0.0366  2.1200
 4800SOL    MW418974   0.351   0.868   2.569  0.4829 -0.6599  0.5897
 4801SOL     OW18975   5.641   1.386   0.922  0.4926  0.7028  0.4188
 4801SOL    HW218976   5.587   1.308   0.905  0.2344  0.8222  0.6682
 4801SOL    HW318977   5.716   1.377   0.863 -0.0182  0.7557 -0.2430
 4801SOL    MW418978   5.644   1.374   0.912 -0.4270 -0.2433  0.1644
 4802SOL     OW18979   1.209   1.531   6.288  0.5638  0.1324  0.1938
 4802SOL    HW218980   1.300   1.531   6.317  0.6506  1.7486 -0.0094
 4802SOL    HW318981   1.176   1.445   6.314  1.7318  0.0565  1.5809
 4802SOL    MW418982   1.216   1.520   6.295 -0.3094 -0.7824  0.3325
 4803SOL     OW18983   5.103   4.478   3.478  0.1910  0.0656 -0.0155
 4803SOL    HW218984   5.178   4.502   3.532  0.0366  0.8826 -0.1411
 4803SOL    HW318985   5.027   4.508   3.528 -0.0321 -0.4876 -0.0235
 4803SOL    MW418986   5.103   4.485   3.492  0.2579 -0.7276  0.2340
 4804SOL     OW18987   4.423   5.257   3.139 -0.7255 -0.5261  1.1076
 4804SOL    HW218988   4.369   5.188   3.177  1.4533 -2.7448  0.4415
 4804SOL    HW318989   4.377   5.283   3.059 -1.2539 -1.7018  1.0143
 4804SOL    MW418990   4.410   5.251   3.134  0.0332  0.0286  0.0707
 4805SOL     OW18991   3.439   2.123   1.906 -0.0360 -0.2112 -0.0789
 4805SOL    HW218992   3.503   2.131   1.976 -1.0001 -0.8934  0.9120
 4805SOL    HW318993   3.356   2.105   1.950 -1.4247  2.8144 -1.1227
 4805SOL    MW418994   3.436   2.122   1.921  0.4674  0.0751 -0.4727
 4806SOL     OW18995   0.032   4.436   4.000  0.2169 -0.0446  0.0421
 4806SOL    HW218996   0.017   4.375   4.072  0.5529  1.9078  1.8302
 4806SOL    HW318997   0.123   4.464   4.010 -0.4995  2.2676  0.5018
 4806SOL    MW418998   0.042   4.431   4.011  0.0873  0.7274 -0.2772
 4807SOL     OW18999   0.778   4.879   0.576 -0.4089  0.2756 -0.4074
 4807SOL    HW219000   0.730   4.797   0.564 -0.4505  0.3222 -0.5620
 4807SOL    HW319001   0.862   4.864   0.532 -0.2731  0.1876 -0.1228
 4807SOL    MW419002   0.783   4.866   0.569  0.0723 -0.6404 -0.9266
 4808SOL     OW19003   0.905   2.450   6.363 -0.0736  0.3065 -0.3967
 4808SOL    HW219004   0.873   2.400   6.438 -0.0405  2.3626  1.0849
 4808SOL    HW319005   1.000   2.442   6.368 -0.1051 -0.7552 -1.1357
 4808SOL    MW419006   0.914   2.442   6.374 -0.1553  0.3565 -0.7551
 4809SOL     OW19007   0.771   4.541   4.055  0.2372  0.4488 -0.3813
 4809SOL    HW219008   0.749   4.555   4.147 -2.2086 -1.7990 -0.5224
 4809SOL    HW319009   0.743   4.622   4.012 -0.6052  0.6908  0.5681
 4809SOL    MW419010   0.764   4.554   4.062  0.3804 -0.0770 -0.5111
 4810SOL     OW19011   5.697   5.064   2.032  1.0163 -0.0853  0.3390
 4810SOL    HW219012   5.791   5.049   2.042  1.5133  1.6652 -1.2065
 4810SOL    HW319013   5.665   5.074   2.122  2.2071 -1.1014  0.9089
 4810SOL    MW419014   5.705   5.064   2.046  0.2166 -0.3253 -0.1532
 4811SOL     OW19015   5.949   5.360   3.256  0.2348 -0.7652  0.0387
 4811SOL    HW219016   6.016   5.428   3.262  0.3666 -0.8286 -0.6233
 4811SOL    HW319017   5.967   5.316   3.173 -1.2638 -0.0886 -0.6939
 4811SOL    MW419018   5.960   5.363   3.246 -0.2791  0.5708  0.5574
 4812SOL     OW19019   5.358   5.651   4.539  0.4056 -0.1103  0.2948
 4812SOL    HW219020   5.429   5.714   4.549 -1.2704  1.7268  1.5616
 4812SOL    HW319021   5.384   5.576   4.592  1.0618  0.8741  1.4072
 4812SOL    MW419022   5.371   5.649   4.547 -0.0237  0.4455  0.1164
 4813SOL     OW19023   3.182   1.181   1.599 -0.2818 -0.0644 -0.2466
 4813SOL    HW219024   3.198   1.124   1.524 -3.2355  1.2750 -2.1021
 4813SOL    HW319025   3.196   1.126   1.675  0.9400 -2.0589 -1.8316
 4813SOL    MW419026   3.186   1.166   1.599 -0.2794 -0.2726  0.1054
 4814SOL     OW19027   5.340   3.479   5.807 -0.0306  0.5281  0.2945
 4814SOL    HW219028   5.302   3.541   5.745 -1.4523 -0.2891  0.2846
 4814SOL    HW319029   5.267   3.422   5.831  0.5874  0.5507  2.4035
 4814SOL    MW419030   5.325   3.479   5.802 -0.2993 -0.2671 -0.0011
 4815SOL     OW19031   1.779   2.787   4.297 -0.0252  0.5248 -0.6849
 4815SOL    HW219032   1.854   2.841   4.272  1.7503 -1.2186  0.6071
 4815SOL    HW319033   1.727   2.844   4.354  0.2884  1.7548 -1.5692
 4815SOL    MW419034   1.782   2.802   4.301 -0.4412  0.2793  0.4224
 4816SOL     OW19035   2.242   5.572   6.374 -0.6537 -0.0707  0.0131
 4816SOL    HW219036   2.167   5.571   6.434 -0.9725  1.1167 -0.3322
 4816SOL    HW319037   2.204   5.558   6.287 -0.3687 -0.3096 -0.0752
 4816SOL    MW419038   2.227   5.570   6.371 -0.6735  0.4007 -0.7847
 4817SOL     OW19039   3.372   4.825   5.963  0.0235  0.0040  0.3871
 4817SOL    HW219040   3.394   4.762   6.032  2.1491 -2.0098 -1.9238
 4817SOL    HW319041   3.375   4.910   6.007  0.5553 -1.2149  2.9278
 4817SOL    MW419042   3.375   4.828   5.978 -0.0999  0.5199 -0.7002
 4818SOL     OW19043   2.349   6.075   5.346 -0.4518  0.8777 -0.3390
 4818SOL    HW219044   2.420   6.020   5.313 -1.8307 -0.8571 -0.6140
 4818SOL    HW319045   2.326   6.036   5.430 -1.7941  0.6863 -0.7622
 4818SOL    MW419046   2.355   6.062   5.353 -0.2163 -0.0801  0.2496
 4819SOL     OW19047   1.217   2.250   0.120 -0.2154  0.2467  0.7936
 4819SOL    HW219048   1.149   2.186   0.101 -0.7203  0.8328  0.5926
 4819SOL    HW319049   1.196   2.325   0.064  1.9434 -0.4450 -1.1067
 4819SOL    MW419050   1.205   2.252   0.110 -0.2431 -0.0198  0.3651
 4820SOL     OW19051   2.273   4.427   2.021  0.0173 -0.0341  0.1810
 4820SOL    HW219052   2.209   4.418   1.951  0.1267  2.5587 -0.3352
 4820SOL    HW319053   2.358   4.430   1.975  0.1172  1.2645  0.4120
 4820SOL    MW419054   2.276   4.426   2.005  0.5608 -0.1496  0.2054
 4821SOL     OW19055   0.023   0.497   5.318  0.1164 -0.8300  0.4332
 4821SOL    HW219056  -0.058   0.534   5.284  0.8000 -0.4718 -0.8655
 4821SOL    HW319057   0.006   0.403   5.323  0.0209 -0.9211 -1.0619
 4821SOL    MW419058   0.010   0.490   5.314  0.1998  0.2882  0.0237
 4822SOL     OW19059   6.395   1.895   5.992 -0.2026  0.2691  0.1964
 4822SOL    HW219060   6.367   1.807   6.016  0.2070  0.4097  1.2391
 4822SOL    HW319061   6.348   1.952   6.053  0.3302  0.6872  0.2177
 4822SOL    MW419062   6.385   1.891   6.003  0.3068  0.2952 -0.0457
 4823SOL     OW19063   2.685   4.106   2.498  0.0544  0.1563  0.1730
 4823SOL    HW219064   2.738   4.125   2.420 -2.3618  0.0864 -1.5979
 4823SOL    HW319065   2.736   4.040   2.545  2.2388  1.1773 -0.5954
 4823SOL    MW419066   2.699   4.099   2.494 -0.2572 -0.1213 -0.0724
 4824SOL     OW19067   4.439   4.115   2.683  0.2511 -0.2846  0.0540
 4824SOL    HW219068   4.441   4.209   2.669  0.1222 -0.0656  1.3838
 4824SOL    HW319069   4.516   4.082   2.637 -1.4391  0.0028 -3.2591
 4824SOL    MW419070   4.450   4.123   2.675  0.2378 -0.8147 -0.4463
 4825SOL     OW19071   6.171   5.283   5.374  0.1749 -0.0106  0.1104
 4825SOL    HW219072   6.167   5.370   5.335 -0.0227  0.0456  0.2575
 4825SOL    HW319073   6.084   5.247   5.361 -0.1596  0.3357  1.2655
 4825SOL    MW419074   6.159   5.290   5.367 -0.1266 -0.4599 -0.3199
 4826SOL     OW19075   1.019   2.901   3.634 -0.3261 -0.6741 -0.3401
 4826SOL    HW219076   0.923   2.893   3.627 -0.2840 -3.5469  0.7842
 4826SOL    HW319077   1.034   2.924   3.726  0.0623 -0.6457 -0.4107
 4826SOL    MW419078   1.008   2.903   3.645 -0.3718  0.1353  0.0148
 4827SOL     OW19079   2.437   1.673   4.564  0.5807  0.4334 -0.1794
 4827SOL    HW219080   2.470   1.583   4.568 -0.6031 -0.0357 -0.5808
 4827SOL    HW319081   2.367   1.676   4.630  1.2373  1.3382  0.4956
 4827SOL    MW419082   2.432   1.661   4.573 -0.1549 -0.0595  0.0905
 4828SOL     OW19083   0.642   4.253   5.690 -0.2715 -0.1752 -0.3911
 4828SOL    HW219084   0.735   4.259   5.710 -0.2115  0.7957 -0.8591
 4828SOL    HW319085   0.622   4.336   5.645 -1.2899 -0.4949 -0.5633
 4828SOL    MW419086   0.652   4.265   5.686 -0.6023  0.2829  0.2565
 4829SOL     OW19087   0.497   0.883   6.188 -0.1888 -0.4352 -0.1802
 4829SOL    HW219088   0.537   0.932   6.260  0.2395 -1.4856  0.3342
 4829SOL    HW319089   0.423   0.935   6.161 -0.5598 -0.1647  1.2600
 4829SOL    MW419090   0.493   0.896   6.194  0.4208  0.4293  0.7571
 4830SOL     OW19091   0.088   5.872   5.228 -0.6889  0.3864  0.2210
 4830SOL    HW219092   0.002   5.829   5.224 -0.8497  0.4847  1.8950
 4830SOL    HW319093   0.072   5.952   5.278  0.2015  0.8969 -0.3001
 4830SOL    MW419094   0.074   5.877   5.234  0.3257  0.7580 -0.1028
 4831SOL     OW19095   0.032   2.901   1.971 -0.0618 -0.4738 -0.3936
 4831SOL    HW219096   0.001   2.948   2.049 -0.8470 -0.3663 -0.7528
 4831SOL    HW319097   0.117   2.867   1.996 -0.6235 -1.0955  0.7771
 4831SOL    MW419098   0.039   2.903   1.985  0.2982  0.1697 -0.4281
 4832SOL     OW19099   3.260   1.212   4.065 -0.0071 -0.2835 -0.5807
 4832SOL    HW219100   3.328   1.146   4.072  0.0476 -0.1914 -0.2239
 4832SOL    HW319101   3.185   1.176   4.113  0.1978  0.1335  0.0596
 4832SOL    MW419102   3.259   1.199   4.072 -0.1833  0.2371 -0.3726
 4833SOL     OW19103   2.693   1.574   5.835  0.1938  0.4270 -0.3940
 4833SOL    HW219104   2.640   1.649   5.861 -0.5412 -0.2262  0.0406
 4833SOL    HW319105   2.659   1.502   5.888  1.1487 -0.1250 -0.5185
 4833SOL    MW419106   2.682   1.574   5.846  0.0695 -0.3956 -0.3253
 4834SOL     OW19107   5.532   2.223   6.160 -0.0743 -0.0902 -0.3824
 4834SOL    HW219108   5.453   2.169   6.170  0.5520 -1.0363 -0.3739
 4834SOL    HW319109   5.566   2.233   6.248  0.5724 -0.8820 -0.5286
 4834SOL    MW419110   5.526   2.217   6.173  0.1622  0.0954  0.8435
 4835SOL     OW19111   0.291   5.906   1.155 -0.2573  0.2754  0.4517
 4835SOL    HW219112   0.282   5.994   1.118  0.8270 -0.1093 -0.7838
 4835SOL    HW319113   0.379   5.905   1.193 -0.2370 -0.3009  0.3987
 4835SOL    MW419114   0.301   5.918   1.155 -0.6269 -0.2278  0.3909
 4836SOL     OW19115   1.210   3.714   1.958  0.3327  0.2066  0.5371
 4836SOL    HW219116   1.190   3.626   1.992  0.0720 -0.0974 -0.3791
 4836SOL    HW319117   1.128   3.763   1.970 -0.0627 -0.1724 -0.4739
 4836SOL    MW419118   1.196   3.709   1.964 -0.2352 -0.5246  0.5022
 4837SOL     OW19119   3.191   2.009   2.012 -0.0223 -1.0284  0.1951
 4837SOL    HW219120   3.189   1.917   1.987  0.8927 -0.8239 -0.6621
 4837SOL    HW319121   3.206   2.007   2.107  0.9619 -1.7649  0.0470
 4837SOL    MW419122   3.193   1.996   2.021  0.1550 -0.2781  0.0315
 4838SOL     OW19123   4.879   2.996   1.653 -0.1162  0.3028  0.1156
 4838SOL    HW219124   4.949   3.052   1.620 -0.5548  0.8601  0.1180
 4838SOL    HW319125   4.911   2.964   1.737 -0.1264  1.0735  0.4185
 4838SOL    MW419126   4.892   2.999   1.660  0.1446  0.2195  0.3447
 4839SOL     OW19127   4.855   4.269   2.483 -0.3476 -0.5502  0.8358
 4839SOL    HW219128   4.813   4.190   2.515 -1.3196  0.2376  1.5613
 4839SOL    HW319129   4.784   4.321   2.444  0.3999 -0.3827 -0.3950
 4839SOL    MW419130   4.840   4.266   2.482 -0.4517 -0.2633 -0.5819
 4840SOL     OW19131   4.062   0.968   6.317  0.8734 -0.2089  0.0460
 4840SOL    HW219132   4.078   0.957   6.411  3.2150 -0.4058 -0.3087
 4840SOL    HW319133   4.149   0.960   6.277  0.0484  0.6551 -2.0746
 4840SOL    MW419134   4.076   0.966   6.324  0.0490  0.0363 -0.3445
 4841SOL     OW19135   4.724   3.311   4.367 -0.0424  0.4907  0.0197
 4841SOL    HW219136   4.770   3.251   4.309 -1.5275 -1.1301  0.4128
 4841SOL    HW319137   4.635   3.276   4.372 -0.0161  0.5436  3.2349
 4841SOL    MW419138   4.718   3.298   4.360 -0.0461 -0.1996  0.3484
 4842SOL     OW19139   3.697   0.568   6.139 -0.4192 -0.0716  0.1583
 4842SOL    HW219140   3.772   0.508   6.133  0.0985  0.5368  0.4289
 4842SOL    HW319141   3.640   0.541   6.067 -0.6922 -1.5450  0.8848
 4842SOL    MW419142   3.699   0.556   6.128 -0.5345 -0.5394 -0.2709
 4843SOL     OW19143   6.408   0.225   3.125  0.2003 -0.1017 -0.9739
 4843SOL    HW219144   6.375   0.213   3.214 -1.1102  1.3403 -1.2310
 4843SOL    HW319145   6.351   0.171   3.071 -0.3164  0.6292 -1.1646
 4843SOL    MW419146   6.396   0.216   3.130  0.6828 -0.7125 -0.7080
 4844SOL     OW19147   6.291   2.249   4.491  0.0472 -0.3189 -0.3794
 4844SOL    HW219148   6.299   2.155   4.506  0.1933 -0.0430  1.4344
 4844SOL    HW319149   6.291   2.258   4.395  0.7246 -2.0924 -0.5788
 4844SOL    MW419150   6.292   2.238   4.480  0.0278  0.1596  0.1023
 4845SOL     OW19151   4.539   6.404   4.385 -0.1911 -0.5089 -0.3244
 4845SOL    HW219152   4.598   6.423   4.311 -0.8150  0.2063 -0.6516
 4845SOL    HW319153   4.598   6.393   4.460  0.6089 -2.9480 -1.1913
 4845SOL    MW419154   4.555   6.405   4.385  0.2613  0.9905 -0.8430
 4846SOL     OW19155   4.850   5.227   3.056 -0.8962  0.6437 -0.6597
 4846SOL    HW219156   4.880   5.318   3.057 -0.2301  0.4327  0.4585
 4846SOL    HW319157   4.860   5.197   3.146  1.4847 -1.3565 -1.4390
 4846SOL    MW419158   4.856   5.235   3.068 -0.6708  0.0053  0.3469
 4847SOL     OW19159   1.815   5.686   4.129 -0.0407 -0.1475 -0.3229
 4847SOL    HW219160   1.729   5.717   4.102  0.9071  1.4332 -1.8366
 4847SOL    HW319161   1.830   5.726   4.214  1.0555  3.8476 -2.1135
 4847SOL    MW419162   1.806   5.695   4.136  0.3831  0.1409 -0.7231
 4848SOL     OW19163   0.821   1.346   1.011 -0.0944 -0.2237 -0.3430
 4848SOL    HW219164   0.760   1.419   1.001 -0.2870 -0.5495 -1.7869
 4848SOL    HW319165   0.906   1.382   0.988 -0.0955 -0.3013 -0.4713
 4848SOL    MW419166   0.824   1.360   1.007  0.0744  0.5824 -0.4287
 4849SOL     OW19167   6.055   0.806   1.952 -0.0554  0.2990 -0.3658
 4849SOL    HW219168   6.043   0.890   1.909 -0.3041  0.2990 -0.2977
 4849SOL    HW319169   5.981   0.799   2.012  0.4290  0.4125  0.2475
 4849SOL    MW419170   6.044   0.816   1.954 -1.3657 -0.3192 -0.3697
 4850SOL     OW19171   5.534   0.852   0.894  0.1964  0.3955  0.0476
 4850SOL    HW219172   5.533   0.928   0.835 -2.3289  1.6980  1.5931
 4850SOL    HW319173   5.551   0.778   0.836  1.8165  1.9936 -1.6789
 4850SOL    MW419174   5.536   0.852   0.878  0.0386  0.4507 -0.1543
 4851SOL     OW19175   1.762   1.208   2.106  0.0202 -0.2278  0.3523
 4851SOL    HW219176   1.804   1.173   2.027  0.6970  0.0291  0.5908
 4851SOL    HW319177   1.829   1.264   2.146 -0.6860  0.5079  0.5377
 4851SOL    MW419178   1.777   1.211   2.101  0.2047  0.1705  0.2122
 4852SOL     OW19179   0.708   0.715   2.996 -0.5372 -0.5119  0.4550
 4852SOL    HW219180   0.661   0.701   2.913  0.5967 -0.1874 -0.2678
 4852SOL    HW319181   0.753   0.632   3.012 -2.8212 -1.5613  2.2009
 4852SOL    MW419182   0.707   0.702   2.987 -0.0031 -0.4577  0.6870
 4853SOL     OW19183   6.205   0.763   2.539  0.3126  0.2246  0.7915
 4853SOL    HW219184   6.171   0.809   2.616  0.3869  3.9902 -1.1864
 4853SOL    HW319185   6.295   0.796   2.529  0.3513 -0.2908 -0.8201
 4853SOL    MW419186   6.213   0.773   2.548 -0.6039 -0.2615 -0.1260
 4854SOL     OW19187   4.738   5.099   1.440  0.2507 -0.1435  0.0293
 4854SOL    HW219188   4.792   5.175   1.462  0.9303 -0.6222  0.0588
 4854SOL    HW319189   4.656   5.113   1.486 -0.2184  1.3194 -1.1833
 4854SOL    MW419190   4.734   5.111   1.449  0.2691  0.6503 -0.0614
 4855SOL     OW19191   5.029   5.632   1.276  0.0270  0.4633 -0.1171
 4855SOL    HW219192   5.080   5.707   1.248 -0.3150  0.0688 -1.9424
 4855SOL    HW319193   5.094   5.564   1.296  0.3024  0.8857  0.4082
 4855SOL    MW419194   5.044   5.633   1.275  0.1315  0.1713  0.0707
 4856SOL     OW19195   0.912   0.175   5.610  0.1468  0.8317  0.1873
 4856SOL    HW219196   0.980   0.229   5.652  0.9500 -0.8282  1.1357
 4856SOL    HW319197   0.876   0.123   5.682  0.2201 -0.7242 -0.8568
 4856SOL    MW419198   0.916   0.175   5.625 -0.2814  0.3532 -0.1659
 4857SOL     OW19199   2.091   2.726   2.830 -0.6968  0.2759 -0.5649
 4857SOL    HW219200   2.153   2.673   2.779  0.2027  0.9223 -0.1684
 4857SOL    HW319201   2.023   2.750   2.767  0.4198  1.1026 -1.5037
 4857SOL    MW419202   2.090   2.722   2.815  0.2391  0.2019 -0.3199
 4858SOL     OW19203   5.430   2.298   2.436  0.4220 -0.2030  0.4771
 4858SOL    HW219204   5.490   2.235   2.476  0.5508  0.0815  0.7386
 4858SOL    HW319205   5.350   2.290   2.488  1.0664  1.2027  1.7444
 4858SOL    MW419206   5.427   2.288   2.448  0.1486 -0.1824 -0.2752
 4859SOL     OW19207   2.659   1.777   1.708  0.1318  0.2591 -0.1080
 4859SOL    HW219208   2.563   1.777   1.700  0.1747 -0.6494 -0.8689
 4859SOL    HW319209   2.678   1.848   1.769 -1.1165 -0.3623  1.0805
 4859SOL    MW419210   2.649   1.786   1.715 -0.4862 -0.2125  0.0047
 4860SOL     OW19211   2.458   2.700   6.398  0.4510 -0.7502  0.0022
 4860SOL    HW219212   2.487   2.791   6.393 -0.2921 -0.4224  1.3067
 4860SOL    HW319213   2.521   2.658   6.457 -1.4669 -0.0867  2.6718
 4860SOL    MW419214   2.470   2.706   6.405 -0.5114  0.1003 -0.4970
 4861SOL     OW19215   1.232   1.456   2.412 -0.0564 -0.2719 -0.2209
 4861SOL    HW219216   1.207   1.549   2.410  0.5624 -0.0016  1.9486
 4861SOL    HW319217   1.324   1.456   2.386  0.0644 -0.2021  0.1900
 4861SOL    MW419218   1.241   1.468   2.408 -0.5262  0.0999  0.3731
 4862SOL     OW19219   4.207   2.759   2.664  0.7014 -0.4930 -0.0076
 4862SOL    HW219220   4.213   2.799   2.577  1.4033  1.3410  0.8305
 4862SOL    HW319221   4.295   2.729   2.683  1.0615  1.0463  0.9053
 4862SOL    MW419222   4.219   2.760   2.655 -0.5779  0.1761 -0.3016
 4863SOL     OW19223   0.881   1.084   3.914 -0.1254  0.0566 -0.8804
 4863SOL    HW219224   0.961   1.085   3.861  1.5985 -0.4864  1.5138
 4863SOL    HW319225   0.868   1.175   3.939  1.5964 -0.1485  1.1234
 4863SOL    MW419226   0.890   1.096   3.910  0.0355 -0.3533  0.1803
 4864SOL     OW19227   4.052   1.808   4.361  0.0169 -0.1374  0.1680
 4864SOL    HW219228   4.092   1.807   4.448 -0.1560  1.1360  0.2898
 4864SOL    HW319229   4.124   1.785   4.302 -0.0457 -1.7740  0.6810
 4864SOL    MW419230   4.067   1.805   4.365 -0.5940 -0.2740  0.8261
 4865SOL     OW19231   3.285   6.221   4.178 -0.1177  0.2225  0.2714
 4865SOL    HW219232   3.307   6.135   4.143  0.8126  0.0715  1.1643
 4865SOL    HW319233   3.368   6.254   4.213 -1.0512  0.1342  2.7689
 4865SOL    MW419234   3.299   6.214   4.178 -0.0212  0.0778 -0.3389
 4866SOL     OW19235   0.022   2.120   0.708  0.1572  0.5119 -0.2711
 4866SOL    HW219236   0.078   2.056   0.752 -0.3630  0.8335  0.8949
 4866SOL    HW319237  -0.062   2.076   0.700 -0.5001  1.3863  1.4686
 4866SOL    MW419238   0.019   2.106   0.713 -0.5061 -0.1392 -0.1692
 4867SOL     OW19239   1.397   1.201   6.412 -0.0557  0.1146  0.2881
 4867SOL    HW219240   1.356   1.218   6.327 -2.3177 -0.7966  1.1327
 4867SOL    HW319241   1.382   1.281   6.462 -1.6852 -0.5317  0.8903
 4867SOL    MW419242   1.390   1.214   6.407 -0.6325  0.1648 -0.1868
 4868SOL     OW19243   0.781   5.147   4.798 -0.0400 -0.0720  0.6976
 4868SOL    HW219244   0.855   5.130   4.857 -0.1124  0.3778  0.9208
 4868SOL    HW319245   0.822   5.182   4.718  0.0156 -0.1862  0.6749
 4868SOL    MW419246   0.796   5.149   4.795 -0.1931  0.1776  0.1646
 4869SOL     OW19247   3.040   3.127   1.077  0.1348 -0.4988 -0.1524
 4869SOL    HW219248   3.079   3.191   1.137 -0.6732  1.1512 -1.2927
 4869SOL    HW319249   2.951   3.113   1.112  0.1952 -0.7420 -0.0955
 4869SOL    MW419250   3.033   3.134   1.090 -0.0588  0.0527  0.4140
 4870SOL     OW19251   6.323   4.624   3.830  0.2097  0.6964  0.3329
 4870SOL    HW219252   6.358   4.611   3.741 -1.2961 -0.2608 -0.1681
 4870SOL    HW319253   6.369   4.559   3.883  0.3406  0.5331  0.0247
 4870SOL    MW419254   6.334   4.613   3.825  0.7241 -0.3165 -0.0905
 4871SOL     OW19255   2.433   6.356   3.632 -0.2956 -0.0954  0.1945
 4871SOL    HW219256   2.352   6.386   3.673 -0.5619  0.7964 -0.9452
 4871SOL    HW319257   2.502   6.393   3.687 -0.6291 -1.1699  1.3921
 4871SOL    MW419258   2.431   6.365   3.645  0.2201 -0.2595 -0.3071
 4872SOL     OW19259   1.895   1.464   0.651 -0.4703  0.1623  0.4758
 4872SOL    HW219260   1.950   1.386   0.654 -0.4330  0.2071  1.4975
 4872SOL    HW319261   1.815   1.436   0.606 -0.7034 -0.6360  1.3645
 4872SOL    MW419262   1.892   1.450   0.646 -0.1657  0.4533  0.0018
 4873SOL     OW19263   6.003   4.367   0.104  0.0333  0.5181  0.0229
 4873SOL    HW219264   5.966   4.309   0.171  0.8542 -0.3193 -0.2237
 4873SOL    HW319265   6.086   4.325   0.080 -0.5046  0.5135 -1.9096
 4873SOL    MW419266   6.009   4.353   0.110  0.0881  0.1929  0.2577
 4874SOL     OW19267   0.010   4.757   1.090 -0.1180 -0.8074 -0.5622
 4874SOL    HW219268   0.033   4.671   1.055  0.7939 -0.8005 -0.0049
 4874SOL    HW319269  -0.008   4.742   1.182  1.9871 -0.1265  0.0174
 4874SOL    MW419270   0.011   4.744   1.097  0.1332  0.0394  0.2381
 4875SOL     OW19271   0.350   0.537   4.930  0.6250 -0.7702  0.3133
 4875SOL    HW219272   0.385   0.460   4.975  1.3322 -1.4567 -1.3072
 4875SOL    HW319273   0.358   0.515   4.837 -0.4211  0.7308 -0.1606
 4875SOL    MW419274   0.356   0.524   4.923  0.5827 -0.1951 -0.4885
 4876SOL     OW19275   0.285   5.352   2.200  0.7744 -0.0603 -0.2681
 4876SOL    HW219276   0.289   5.378   2.292  2.5168  1.1455 -0.6429
 4876SOL    HW319277   0.351   5.283   2.192  0.7673 -0.0266 -0.6493
 4876SOL    MW419278   0.294   5.346   2.211  0.6297 -0.5074 -0.5434
 4877SOL     OW19279   0.476   4.625   1.291 -0.0551 -0.0686  1.0599
 4877SOL    HW219280   0.459   4.662   1.204 -2.8732  2.4118  2.4955
 4877SOL    HW319281   0.500   4.534   1.273  0.2367  0.5369 -2.3271
 4877SOL    MW419282   0.477   4.617   1.277  0.4635 -0.2982  0.1422
 4878SOL     OW19283   1.631   1.745   1.672  0.2316  0.0465  0.5591
 4878SOL    HW219284   1.620   1.758   1.578 -0.0844 -0.0835  0.5770
 4878SOL    HW319285   1.544   1.718   1.703  0.4219 -0.2586  0.8290
 4878SOL    MW419286   1.618   1.743   1.663  0.2865  0.0837 -0.0040
 4879SOL     OW19287   2.725   3.967   3.167 -0.0007  0.5405 -0.0678
 4879SOL    HW219288   2.793   3.970   3.100  0.9983  3.4614  0.9188
 4879SOL    HW319289   2.734   3.880   3.207  1.3861 -0.0946 -1.6687
 4879SOL    MW419290   2.735   3.956   3.163 -0.0541  0.0305  0.4320
 4880SOL     OW19291   0.761   5.208   5.953 -0.2264  0.3816  0.9941
 4880SOL    HW219292   0.795   5.258   5.878 -0.6314  0.7373  1.0430
 4880SOL    HW319293   0.753   5.118   5.920 -0.6254  0.5819  0.5351
 4880SOL    MW419294   0.764   5.203   5.939 -0.1305 -0.0287 -0.1812
 4881SOL     OW19295   5.030   0.962   5.332 -0.0184  0.4520  0.3758
 4881SOL    HW219296   4.995   0.888   5.281 -0.9831 -0.7134  2.6133
 4881SOL    HW319297   4.958   0.987   5.390  1.6388  0.4446  2.5242
 4881SOL    MW419298   5.016   0.955   5.333 -0.2919 -0.1270 -0.0079
 4882SOL     OW19299   5.657   1.965   6.321  0.0028  0.2940  0.2557
 4882SOL    HW219300   5.655   1.926   6.234  2.7632  1.4692 -0.4512
 4882SOL    HW319301   5.622   1.897   6.379 -1.3685 -0.7162 -1.6653
 4882SOL    MW419302   5.652   1.950   6.317 -0.3483 -0.1384  0.3773
 4883SOL     OW19303   1.481   4.850   3.067  0.0720 -0.0880 -0.3511
 4883SOL    HW219304   1.541   4.859   2.992  1.2219  2.4749  0.7599
 4883SOL    HW319305   1.532   4.881   3.142 -2.3281  1.2584  0.8344
 4883SOL    MW419306   1.496   4.855   3.067 -0.2474  0.7715  0.2431
 4884SOL     OW19307   1.887   4.733   0.977 -0.3764 -0.1393 -0.2273
 4884SOL    HW219308   1.895   4.827   0.967 -0.7316  0.1611  1.7893
 4884SOL    HW319309   1.922   4.696   0.896  2.6002  1.6096  0.1249
 4884SOL    MW419310   1.893   4.740   0.965  0.4567 -0.2342 -0.0259
 4885SOL     OW19311   5.867   3.583   1.247  0.2635  0.1403 -0.0156
 4885SOL    HW219312   5.782   3.550   1.278 -0.1027  1.5304  0.5029
 4885SOL    HW319313   5.845   3.652   1.185  0.9949  0.9432  0.5899
 4885SOL    MW419314   5.853   3.587   1.243  0.2021 -0.3259 -0.1834
 4886SOL     OW19315   6.095   4.110   1.786  0.6856 -0.0079  0.2451
 4886SOL    HW219316   6.124   4.145   1.702  0.7100  0.5658  0.4853
 4886SOL    HW319317   6.171   4.062   1.819  0.2956 -1.2420 -0.5869
 4886SOL    MW419318   6.109   4.109   1.779 -0.1083 -0.7035  0.5275
 4887SOL     OW19319   5.045   0.574   1.683  0.0318  0.2186  0.2279
 4887SOL    HW219320   5.070   0.564   1.775  0.8652 -0.8358 -0.0902
 4887SOL    HW319321   5.115   0.625   1.644  0.0054  0.1118  0.0404
 4887SOL    MW419322   5.057   0.579   1.690 -0.1613  0.4882 -0.5868
 4888SOL     OW19323   0.398   4.298   2.687 -0.3167  0.0478  0.8479
 4888SOL    HW219324   0.422   4.390   2.675  0.7600 -0.1869  1.1620
 4888SOL    HW319325   0.305   4.295   2.665  0.1105  0.8124 -1.2287
 4888SOL    MW419326   0.389   4.310   2.683  0.1993  0.0867 -0.6038
 4889SOL     OW19327   2.283   3.232   5.781  0.0240 -0.1619 -0.0864
 4889SOL    HW219328   2.189   3.220   5.796 -0.2913 -0.3616 -1.9210
 4889SOL    HW319329   2.300   3.323   5.804 -0.6877 -0.0327 -0.0383
 4889SOL    MW419330   2.273   3.242   5.786 -0.5854  0.4827 -0.1344
 4890SOL     OW19331   0.855   4.735   6.045  0.2900  0.1861  0.0669
 4890SOL    HW219332   0.830   4.653   6.089  1.0862  0.4488  1.0360
 4890SOL    HW319333   0.828   4.804   6.105  1.1621  0.5588  0.0514
 4890SOL    MW419334   0.848   4.733   6.059 -0.3822 -0.2804 -0.0377
 4891SOL     OW19335   1.621   4.818   0.940  0.5078  0.3628 -0.5957
 4891SOL    HW219336   1.689   4.752   0.953 -1.6639 -1.5902  1.8485
 4891SOL    HW319337   1.613   4.861   1.025 -1.3021  0.5248 -0.8099
 4891SOL    MW419338   1.629   4.815   0.953 -0.2270 -0.1834 -0.2420
 4892SOL     OW19339   5.589   3.455   6.243  0.0941 -0.1450 -0.3754
 4892SOL    HW219340   5.494   3.447   6.243 -0.1843  1.7407 -2.9932
 4892SOL    HW319341   5.605   3.549   6.233  2.2779 -0.3597  0.5424
 4892SOL    MW419342   5.579   3.467   6.242 -0.0860 -0.1282 -0.2121
 4893SOL     OW19343   0.029   2.735   4.428 -0.8303 -0.0194  0.4296
 4893SOL    HW219344   0.068   2.677   4.493 -0.1378  1.5066  1.4418
 4893SOL    HW319345  -0.043   2.777   4.473 -0.4113  0.9843  0.1916
 4893SOL    MW419346   0.025   2.733   4.442 -0.1661  0.3718  0.9831
 4894SOL     OW19347   5.322   5.841   6.254 -0.5187 -0.4066  0.3892
 4894SOL    HW219348   5.346   5.775   6.189 -0.8569 -1.4849  1.3201
 4894SOL    HW319349   5.243   5.806   6.296 -1.2423  1.0333  0.2851
 4894SOL    MW419350   5.315   5.828   6.251 -0.0590  0.8182  0.2525
 4895SOL     OW19351   0.892   1.953   5.452  0.2924 -0.0775 -0.5553
 4895SOL    HW219352   0.901   1.867   5.411  1.3245  0.4349 -1.4658
 4895SOL    HW319353   0.851   2.007   5.385 -0.8145  0.0270  0.1907
 4895SOL    MW419354   0.888   1.949   5.438  0.1975 -0.0004 -0.2816
 4896SOL     OW19355   1.843   0.061   3.800 -0.3705  0.2638  0.2778
 4896SOL    HW219356   1.807   0.147   3.819  1.1697  1.2196 -0.8527
 4896SOL    HW319357   1.897   0.040   3.877  0.9755  1.3331 -0.3302
 4896SOL    MW419358   1.845   0.069   3.813 -0.4501  0.9905  0.5036
 4897SOL     OW19359   6.375   4.567   5.381 -0.1876  0.1766 -0.5316
 4897SOL    HW219360   6.370   4.595   5.290 -0.2006  1.4724 -0.1523
 4897SOL    HW319361   6.467   4.577   5.404 -0.4111  1.1787 -0.0187
 4897SOL    MW419362   6.386   4.572   5.372  0.3415  0.5231  0.2584
 4898SOL     OW19363   4.024   0.433   1.485  0.1679  0.2515  0.0614
 4898SOL    HW219364   3.980   0.489   1.422 -1.5033  0.3270  1.2344
 4898SOL    HW319365   3.989   0.460   1.570  0.2751 -1.6964  0.7812
 4898SOL    MW419366   4.014   0.444   1.488 -0.2812  0.6516  0.5454
 4899SOL     OW19367   5.494   4.053   5.491  0.1200 -0.0650 -0.0889
 4899SOL    HW219368   5.447   4.023   5.414  0.0085 -0.1649  0.0164
 4899SOL    HW319369   5.576   4.004   5.490 -0.1577 -0.5468  0.2042
 4899SOL    MW419370   5.499   4.043   5.481  0.1564 -0.0978  0.5398
 4900SOL     OW19371   2.985   4.007   0.267 -0.1547 -0.0021 -0.3372
 4900SOL    HW219372   2.891   4.009   0.250 -0.2775 -1.3223  0.1261
 4900SOL    HW319373   3.020   3.949   0.199  0.3570  0.5820 -0.5856
 4900SOL    MW419374   2.977   4.000   0.256  0.2705  0.5337 -0.3591
 4901SOL     OW19375   6.256   4.480   0.497 -0.0823 -0.5873  0.0302
 4901SOL    HW219376   6.205   4.411   0.541  1.3902 -1.5078  0.3765
 4901SOL    HW319377   6.332   4.434   0.461  0.3109  0.6757 -0.8165
 4901SOL    MW419378   6.260   4.465   0.498 -0.3564 -0.4667 -0.2374
 4902SOL     OW19379   4.097   2.527   4.044 -0.1106  0.6610  0.0266
 4902SOL    HW219380   4.190   2.549   4.043  0.0195  0.2146  1.1242
 4902SOL    HW319381   4.085   2.472   3.968  0.1123  2.2785 -1.2355
 4902SOL    MW419382   4.108   2.523   4.034 -0.1507  0.5024 -0.7386
 4903SOL     OW19383   3.392   0.426   3.055 -0.0686  0.2780 -0.1806
 4903SOL    HW219384   3.440   0.499   3.096 -0.1093  0.9535 -1.2727
 4903SOL    HW319385   3.307   0.463   3.033 -0.8308 -0.6981  1.0412
 4903SOL    MW419386   3.387   0.441   3.057  0.8238  0.6812 -0.2955
 4904SOL     OW19387   2.475   5.556   0.985 -0.5839  0.4263  0.1694
 4904SOL    HW219388   2.568   5.532   0.984 -0.5442  0.5666  0.2902
 4904SOL    HW319389   2.473   5.641   1.031 -0.6203  1.0867 -1.0048
 4904SOL    MW419390   2.487   5.564   0.991 -0.1690  0.3772 -0.4408
 4905SOL     OW19391   0.428   3.791   2.302 -0.1391  0.2492 -0.2896
 4905SOL    HW219392   0.424   3.785   2.397 -2.3669  2.7770 -0.1042
 4905SOL    HW319393   0.358   3.853   2.279  0.8001  0.2818 -3.5158
 4905SOL    MW419394   0.418   3.799   2.311 -0.3496 -0.3049  0.1411
 4906SOL     OW19395   4.565   2.743   3.444  0.5299  0.2431  0.1653
 4906SOL    HW219396   4.515   2.813   3.487 -0.4490 -1.6205  2.2875
 4906SOL    HW319397   4.639   2.788   3.403 -1.0857  2.7236 -0.2550
 4906SOL    MW419398   4.568   2.758   3.444 -0.3059 -0.3055 -0.1359
 4907SOL     OW19399   2.610   5.879   4.603  0.5217 -0.4176  0.8129
 4907SOL    HW219400   2.569   5.812   4.657  1.0802 -1.1281  0.3758
 4907SOL    HW319401   2.542   5.906   4.541  0.1758 -0.2973  1.2491
 4907SOL    MW419402   2.596   5.874   4.602  0.0236  0.5790  0.2165
 4908SOL     OW19403   5.522   3.550   5.536  0.0023  0.1962  0.2251
 4908SOL    HW219404   5.514   3.542   5.441 -0.7260  3.2029 -0.0581
 4908SOL    HW319405   5.453   3.611   5.561  0.9669  0.4420  2.5162
 4908SOL    MW419406   5.512   3.557   5.527  0.0461 -0.0143 -0.0032
 4909SOL     OW19407   3.647   0.144   1.917  0.3961 -0.7763 -0.1284
 4909SOL    HW219408   3.635   0.223   1.969  0.7318 -0.1219 -1.0277
 4909SOL    HW319409   3.730   0.157   1.870 -0.6834 -0.6117 -2.0845
 4909SOL    MW419410   3.656   0.156   1.917  0.5789  0.2907 -0.1175
 4910SOL     OW19411   0.309   4.261   4.539 -0.1205 -0.4479  0.0931
 4910SOL    HW219412   0.214   4.256   4.551 -0.0824 -0.3102  0.4505
 4910SOL    HW319413   0.346   4.230   4.622  0.1436  0.1521  0.2059
 4910SOL    MW419414   0.301   4.256   4.551 -0.4366 -0.6043 -0.0172
 4911SOL     OW19415   1.517   1.729   2.701  0.1624  0.2204  0.4964
 4911SOL    HW219416   1.490   1.724   2.793 -1.3549  0.5469  0.1041
 4911SOL    HW319417   1.595   1.783   2.701 -1.2954  2.4633  1.3454
 4911SOL    MW419418   1.523   1.735   2.713 -1.0774  0.4117 -0.2068
 4912SOL     OW19419   0.755   0.149   3.357 -0.0147  0.6711  0.0606
 4912SOL    HW219420   0.760   0.108   3.270 -1.7542  0.6265 -0.0682
 4912SOL    HW319421   0.841   0.134   3.396  0.7366  0.5133 -1.5720
 4912SOL    MW419422   0.767   0.141   3.351  1.4606  0.4486  0.4111
 4913SOL     OW19423   1.603   0.133   1.167 -0.5349  0.2439 -0.2746
 4913SOL    HW219424   1.565   0.064   1.220 -1.8458  0.8824 -0.3505
 4913SOL    HW319425   1.658   0.182   1.228 -0.6738 -0.0535  0.0912
 4913SOL    MW419426   1.606   0.131   1.182  0.4137 -0.6206  0.3402
 4914SOL     OW19427   4.537   1.518   2.670 -0.1122  0.2937 -0.3555
 4914SOL    HW219428   4.575   1.544   2.754 -0.8967  1.6445 -0.3894
 4914SOL    HW319429   4.476   1.448   2.692 -0.0873  0.4345  0.1653
 4914SOL    MW419430   4.534   1.512   2.684 -0.2224 -0.4863  0.7387
 4915SOL     OW19431   0.032   3.231   0.111  0.8928 -0.0389 -0.4542
 4915SOL    HW219432   0.076   3.162   0.060 -1.2476 -0.9008 -1.2229
 4915SOL    HW319433   0.063   3.313   0.071  0.9412 -0.6490 -1.7446
 4915SOL    MW419434   0.042   3.233   0.099  0.7528 -0.6463  0.1632
 4916SOL     OW19435   3.347   1.046   3.090 -0.3293 -0.1649 -0.3442
 4916SOL    HW219436   3.372   1.025   3.180 -1.2350 -1.6409 -0.4206
 4916SOL    HW319437   3.386   1.133   3.075 -1.7191  0.9888  2.1010
 4916SOL    MW419438   3.356   1.055   3.100  0.0163  0.1694  0.0437
 4917SOL     OW19439   5.834   0.927   3.703  0.3187  0.0827 -0.1144
 4917SOL    HW219440   5.809   0.902   3.792 -0.0186  1.3676  0.1752
 4917SOL    HW319441   5.789   0.865   3.646  1.3034 -1.3697  0.6214
 4917SOL    MW419442   5.825   0.916   3.707 -0.1531 -0.5319  0.2621
 4918SOL     OW19443   1.491   5.812   0.581  0.3360 -0.3620  0.0894
 4918SOL    HW219444   1.538   5.814   0.664  0.7507  1.0486 -0.1436
 4918SOL    HW319445   1.548   5.762   0.522  0.5677 -0.4201  0.3603
 4918SOL    MW419446   1.505   5.806   0.584 -0.3555  0.2759 -0.2742
 4919SOL     OW19447   2.044   5.287   1.347 -0.1005  0.2580 -0.0790
 4919SOL    HW219448   2.084   5.345   1.281  0.0841  0.4453  0.1949
 4919SOL    HW319449   2.109   5.218   1.360 -0.8065 -0.6460 -1.2451
 4919SOL    MW419450   2.058   5.286   1.340  0.5659 -0.0658  0.0633
 4920SOL     OW19451   2.197   2.604   0.034 -0.4560  0.5606  0.1911
 4920SOL    HW219452   2.127   2.638  -0.022  0.8631 -0.6159 -2.3757
 4920SOL    HW319453   2.277   2.644  -0.002  0.7149 -2.2361 -0.5360
 4920SOL    MW419454   2.199   2.614   0.022  0.0225 -0.6429  0.3840
 4921SOL     OW19455   1.258   2.747   4.834 -0.4713  0.2815 -0.4330
 4921SOL    HW219456   1.206   2.727   4.756  0.3952  0.2362 -1.0101
 4921SOL    HW319457   1.318   2.673   4.842  0.3870  0.9417 -0.5450
 4921SOL    MW419458   1.259   2.735   4.825 -0.1219 -0.7515  0.3710
 4922SOL     OW19459   0.432   4.453   4.359 -0.2870  0.0467  0.4285
 4922SOL    HW219460   0.379   4.391   4.409 -1.5929 -1.1871 -2.2704
 4922SOL    HW319461   0.520   4.415   4.359 -0.2872  0.0060  1.5821
 4922SOL    MW419462   0.437   4.440   4.365 -0.1001 -0.1715 -0.8429
 4923SOL     OW19463   3.024   5.807   2.979 -0.0699 -0.1588 -0.4120
 4923SOL    HW219464   2.977   5.841   2.902 -0.3279  0.6699  0.0923
 4923SOL    HW319465   3.011   5.875   3.046 -2.4960 -2.1716  1.3857
 4923SOL    MW419466   3.016   5.821   2.978 -0.0531  0.0412  0.5514
 4924SOL     OW19467   5.332   0.222   2.811 -0.0016  0.0571  0.5839
 4924SOL    HW219468   5.333   0.135   2.772  0.5693  0.4191 -0.2293
 4924SOL    HW319469   5.325   0.282   2.737 -0.4158  0.7063  1.1370
 4924SOL    MW419470   5.331   0.219   2.796 -0.2468 -0.1236  0.0246
 4925SOL     OW19471   5.170   6.044   4.556 -0.4098 -0.0004  0.2611
 4925SOL    HW219472   5.255   6.050   4.511 -0.5543  0.8003  0.0813
 4925SOL    HW319473   5.106   6.043   4.485 -0.4994 -2.5043  0.3068
 4925SOL    MW419474   5.173   6.045   4.540  0.0707 -0.3421 -0.0118
 4926SOL     OW19475   2.193   4.340   3.053  0.3180 -0.1989  0.1250
 4926SOL    HW219476   2.245   4.379   2.982  1.5499  0.3861  1.2874
 4926SOL    HW319477   2.187   4.248   3.030  0.8840 -0.0595 -0.6436
 4926SOL    MW419478   2.199   4.333   3.041 -0.1191 -0.3944  0.4351
 4927SOL     OW19479   4.602   4.047   0.014  0.0954 -0.4739 -0.5127
 4927SOL    HW219480   4.606   4.140  -0.010 -0.7936 -0.1814  0.4356
 4927SOL    HW319481   4.566   4.004  -0.064 -0.6350  0.1481 -0.5264
 4927SOL    MW419482   4.598   4.054   0.000 -0.0422  0.3693  0.0925
 4928SOL     OW19483   4.503   0.594   0.423 -0.2627  0.1903  0.0092
 4928SOL    HW219484   4.516   0.499   0.424 -1.1654 -0.0299 -2.3447
 4928SOL    HW319485   4.410   0.606   0.444  0.0509  0.6357  1.1933
 4928SOL    MW419486   4.493   0.583   0.425 -0.5401 -0.2961 -0.1745
 4929SOL     OW19487   1.514   6.273   0.493  0.5046  0.0948  0.4366
 4929SOL    HW219488   1.460   6.293   0.416 -0.1505  2.1486  1.3473
 4929SOL    HW319489   1.604   6.283   0.462  0.3673 -1.5280 -0.6294
 4929SOL    MW419490   1.519   6.277   0.479  0.1844  0.0777  0.1930
 4930SOL     OW19491   6.163   0.359   5.415  0.2520  0.1455 -0.4920
 4930SOL    HW219492   6.211   0.375   5.496  1.4172  0.2103 -1.1701
 4930SOL    HW319493   6.157   0.445   5.373 -0.2935  0.1030 -0.5074
 4930SOL    MW419494   6.169   0.372   5.420  0.3277 -0.1473 -0.0259
 4931SOL     OW19495   2.876   4.580   5.640 -0.0131 -0.0620  0.0686
 4931SOL    HW219496   2.888   4.549   5.550  0.2043  0.1506  0.0220
 4931SOL    HW319497   2.964   4.577   5.677 -0.3774 -2.0860  0.9209
 4931SOL    MW419498   2.889   4.575   5.633  0.5314  0.1632  0.5825
 4932SOL     OW19499   2.324   5.656   4.579  0.2605 -0.6170  0.3903
 4932SOL    HW219500   2.284   5.741   4.596  0.1580 -0.4365 -0.6377
 4932SOL    HW319501   2.327   5.650   4.483  0.4830 -1.6712  0.4466
 4932SOL    MW419502   2.319   5.667   4.568 -0.3709  0.1353  0.8147
 4933SOL     OW19503   0.967   5.291   6.107 -0.3908 -0.4447 -0.2482
 4933SOL    HW219504   1.030   5.310   6.037  0.2787 -2.4695 -0.2478
 4933SOL    HW319505   0.887   5.264   6.061 -1.0289  1.2601 -0.2297
 4933SOL    MW419506   0.964   5.290   6.092  0.1790  0.6156 -0.0450
 4934SOL     OW19507   1.961   6.239   3.736  0.6148 -0.3935  0.4846
 4934SOL    HW219508   1.995   6.325   3.712  0.2564 -0.3405  0.1531
 4934SOL    HW319509   1.881   6.230   3.684  0.2824 -0.6363  1.0314
 4934SOL    MW419510   1.955   6.249   3.726  0.0652 -0.1231 -0.4630
 4935SOL     OW19511   5.351   3.532   1.224  0.5207  0.1088  0.0922
 4935SOL    HW219512   5.444   3.526   1.244  0.3291 -1.2410  0.6628
 4935SOL    HW319513   5.325   3.618   1.256  1.1418 -0.3150  1.8158
 4935SOL    MW419514   5.360   3.543   1.231 -0.4894 -0.2278  0.6021
 4936SOL     OW19515   4.314   0.311   5.548 -0.0041 -0.2308  0.3358
 4936SOL    HW219516   4.305   0.405   5.531 -1.0923  0.0222  2.0504
 4936SOL    HW319517   4.239   0.289   5.603  0.2130 -2.1351 -0.0529
 4936SOL    MW419518   4.303   0.321   5.553 -0.1384 -0.9229  0.0178
 4937SOL     OW19519   1.437   2.345   1.582  0.0113  0.2014  0.0708
 4937SOL    HW219520   1.409   2.319   1.670 -0.5255 -0.4549 -0.2830
 4937SOL    HW319521   1.468   2.264   1.542 -1.2501  0.1710 -0.8875
 4937SOL    MW419522   1.437   2.331   1.589  0.8723 -0.3996 -0.7372
 4938SOL     OW19523   6.097   0.231   4.408  0.0006  0.5120 -0.6297
 4938SOL    HW219524   6.145   0.230   4.325  1.4981 -1.5836  0.1799
 4938SOL    HW319525   6.142   0.299   4.460  1.8852 -1.0745 -0.0645
 4938SOL    MW419526   6.110   0.240   4.404 -0.2008  0.0111  0.0376
 4939SOL     OW19527   2.164   5.703   5.475 -0.2268 -0.1127 -0.6405
 4939SOL    HW219528   2.226   5.721   5.405 -0.4810  1.1872 -0.5545
 4939SOL    HW319529   2.081   5.737   5.442 -0.2036  1.2074  0.5602
 4939SOL    MW419530   2.161   5.710   5.461  0.1959 -0.1024 -0.0921
 4940SOL     OW19531   4.436   3.965   5.403  0.5616  0.1737  0.0842
 4940SOL    HW219532   4.462   3.923   5.485  0.9754  3.5051  1.8048
 4940SOL    HW319533   4.518   3.993   5.363  0.2467  0.3497 -0.4483
 4940SOL    MW419534   4.450   3.963   5.409  0.6110 -0.3815  0.4210
 4941SOL     OW19535   5.827   2.170   2.779 -0.2650 -0.6494  0.4851
 4941SOL    HW219536   5.887   2.235   2.742  1.0921 -1.3953  1.2628
 4941SOL    HW319537   5.796   2.209   2.860 -0.4863 -0.4343  0.2962
 4941SOL    MW419538   5.831   2.183   2.784  0.1317  0.1621  0.2230
 4942SOL     OW19539   5.526   0.924   4.425  0.1059  0.0622  0.1745
 4942SOL    HW219540   5.593   0.955   4.486  0.0907 -0.1081  0.2807
 4942SOL    HW319541   5.456   0.890   4.482 -0.5402  1.1939  0.0885
 4942SOL    MW419542   5.526   0.923   4.441 -0.0879 -0.8683 -0.2861
 4943SOL     OW19543   4.208   3.531   2.334  0.6922  0.3308  0.2963
 4943SOL    HW219544   4.255   3.457   2.373  2.8632  1.8947  0.8560
 4943SOL    HW319545   4.167   3.494   2.256  1.5608 -1.5109  0.6525
 4943SOL    MW419546   4.209   3.517   2.329 -0.0702 -0.2853  0.1000
 4944SOL     OW19547   3.894   2.446   2.493  0.2739  0.1501 -0.0888
 4944SOL    HW219548   3.842   2.366   2.500  0.9134 -0.1690  1.3445
 4944SOL    HW319549   3.896   2.465   2.399 -1.1005 -0.6928 -0.3121
 4944SOL    MW419550   3.887   2.438   2.482 -0.5786 -0.1413  0.5579
 4945SOL     OW19551   5.803   0.088   1.866  0.2860  0.1389  0.3117
 4945SOL    HW219552   5.806   0.095   1.771 -2.0312  0.2686  0.1943
 4945SOL    HW319553   5.774   0.175   1.895  1.2409  0.1896  1.1749
 4945SOL    MW419554   5.799   0.101   1.857 -0.2751  0.4447  0.5740
 4946SOL     OW19555   1.857   6.017   1.801 -0.0793  0.2379 -0.0336
 4946SOL    HW219556   1.822   6.083   1.862 -0.2248  0.7107 -0.6141
 4946SOL    HW319557   1.797   6.020   1.727 -0.5438 -1.1181  0.2634
 4946SOL    MW419558   1.844   6.026   1.800 -0.1039  0.1631 -0.2733
 4947SOL     OW19559   0.892   4.033   1.386 -0.3408 -0.6534 -0.0773
 4947SOL    HW219560   0.946   3.966   1.345  1.4044 -0.0892  1.1844
 4947SOL    HW319561   0.948   4.111   1.390 -1.9983  0.6453 -0.6857
 4947SOL    MW419562   0.907   4.035   1.381 -0.1346 -0.3610  0.7084
 4948SOL     OW19563   0.305   4.377   1.220 -0.2301  0.0414 -0.0976
 4948SOL    HW219564   0.226   4.390   1.167 -1.5004 -0.3300  1.6158
 4948SOL    HW319565   0.287   4.425   1.301  1.3188 -0.0513  0.3260
 4948SOL    MW419566   0.292   4.385   1.224 -0.5036  1.0809  0.3681
 4949SOL     OW19567   0.858   4.741   2.408  0.1395 -0.3550 -0.5985
 4949SOL    HW219568   0.919   4.681   2.451 -0.3492  0.4713  1.3997
 4949SOL    HW319569   0.777   4.731   2.458  0.1733  2.2577  0.1343
 4949SOL    MW419570   0.855   4.732   2.421 -0.2018  0.2091  0.2234
 4950SOL     OW19571   4.887   6.131   0.935  0.1897 -0.4590 -0.0584
 4950SOL    HW219572   4.877   6.115   0.841  1.0462  1.9333 -0.6306
 4950SOL    HW319573   4.802   6.167   0.963  0.5183  0.6060 -0.3738
 4950SOL    MW419574   4.874   6.134   0.926  0.4360 -0.1026  0.2622
 4951SOL     OW19575   6.143   5.779   2.482  0.3515  0.3802  0.7276
 4951SOL    HW219576   6.238   5.779   2.485  0.3268 -0.2134  1.6605
 4951SOL    HW319577   6.117   5.857   2.530  0.3427 -0.2191  1.7146
 4951SOL    MW419578   6.152   5.790   2.489  0.0983 -0.4290 -0.7188
 4952SOL     OW19579   2.530   2.639   2.250 -0.1908 -0.1560  0.0265
 4952SOL    HW219580   2.610   2.590   2.268 -0.3173 -0.0056  1.0874
 4952SOL    HW319581   2.529   2.708   2.317 -1.5760 -0.6116  0.5106
 4952SOL    MW419582   2.540   2.642   2.261 -0.4295  0.0400  0.1754
 4953SOL     OW19583   4.941   1.590   2.617  0.2510  0.1752  0.2278
 4953SOL    HW219584   4.856   1.562   2.582 -0.7089  1.9581  1.0214
 4953SOL    HW319585   4.929   1.682   2.638  2.1580  0.2579  1.1356
 4953SOL    MW419586   4.928   1.598   2.615  0.0376 -0.1734 -0.1585
 4954SOL     OW19587   1.689   2.588   6.415 -0.0650 -0.4543 -0.0814
 4954SOL    HW219588   1.634   2.574   6.338 -0.5249 -0.8615  0.3124
 4954SOL    HW319589   1.688   2.504   6.461 -0.5358  0.0325  0.8323
 4954SOL    MW419590   1.682   2.575   6.411  0.2302 -0.5722  0.2104
 4955SOL     OW19591   4.995   2.702   2.697  0.1698 -0.1358  0.5367
 4955SOL    HW219592   4.946   2.669   2.621  0.1162  1.0438  0.0296
 4955SOL    HW319593   5.003   2.627   2.755 -0.9471 -0.7348 -0.0479
 4955SOL    MW419594   4.990   2.688   2.694 -0.3490 -0.0639  0.1277
 4956SOL     OW19595   3.481   3.620   3.440 -0.3279 -0.0393 -0.1657
 4956SOL    HW219596   3.422   3.549   3.466 -0.7985 -0.4264 -2.1719
 4956SOL    HW319597   3.492   3.672   3.520 -0.5864 -1.9059  1.1654
 4956SOL    MW419598   3.475   3.617   3.454  0.7964  0.5759 -0.1761
 4957SOL     OW19599   4.793   5.501   3.583  0.5634  0.4189 -0.4550
 4957SOL    HW219600   4.782   5.460   3.497  1.1974 -0.8198  0.0202
 4957SOL    HW319601   4.831   5.587   3.565 -1.7764  1.2882 -1.5625
 4957SOL    MW419602   4.797   5.507   3.570  0.4474 -0.7189  0.1013
 4958SOL     OW19603   5.701   4.316   3.708 -0.4487 -0.0481  0.2258
 4958SOL    HW219604   5.689   4.271   3.625  0.8783 -0.0908  0.0455
 4958SOL    HW319605   5.726   4.247   3.770  1.0006  0.3196  0.0835
 4958SOL    MW419606   5.703   4.301   3.705 -0.4060  0.2696 -0.0666
 4959SOL     OW19607   3.830   4.481   1.036  0.2011  0.5168  0.1700
 4959SOL    HW219608   3.751   4.519   1.074  1.0661  1.2013  1.3621
 4959SOL    HW319609   3.853   4.541   0.965  0.7028  1.4246  1.0662
 4959SOL    MW419610   3.823   4.494   1.031 -0.0228  0.1503 -0.8186
 4960SOL     OW19611   5.822   2.532   2.287  1.0848 -0.4929 -0.0062
 4960SOL    HW219612   5.774   2.589   2.228  0.9692 -0.2514  0.3178
 4960SOL    HW319613   5.787   2.553   2.374  1.5440 -0.5468  0.1943
 4960SOL    MW419614   5.811   2.542   2.291 -0.0926  0.3899 -0.2777
 4961SOL     OW19615   0.925   0.769   2.858  0.3112  0.2538 -0.0477
 4961SOL    HW219616   0.910   0.696   2.798  1.7867  0.2090 -0.4003
 4961SOL    HW319617   0.847   0.771   2.914 -0.1030 -1.0760 -0.5506
 4961SOL    MW419618   0.913   0.760   2.857  0.5543 -0.3083 -0.4224
 4962SOL     OW19619   6.416   6.096   0.966 -0.5331  0.5095  0.0171
 4962SOL    HW219620   6.365   6.177   0.971  0.5485  1.1462  1.3435
 4962SOL    HW319621   6.494   6.114   1.018  0.0494 -1.1690 -0.2309
 4962SOL    MW419622   6.419   6.109   0.973 -0.8730  0.2792  0.3540
 4963SOL     OW19623   3.523   3.355   0.306 -0.3727 -0.3186  0.9951
 4963SOL    HW219624   3.458   3.335   0.239  0.6322  0.3565 -0.2231
 4963SOL    HW319625   3.503   3.295   0.377 -2.0878 -0.3876  0.5068
 4963SOL    MW419626   3.512   3.344   0.306  0.0037 -0.6303 -0.2853
 4964SOL     OW19627   6.203   4.240   6.407 -0.0403 -0.0204  0.0854
 4964SOL    HW219628   6.279   4.279   6.450  0.0132 -0.0228 -0.0059
 4964SOL    HW319629   6.194   4.289   6.325 -0.5969  0.4892  0.4415
 4964SOL    MW419630   6.212   4.252   6.402  0.3285 -0.0602  0.3804
 4965SOL     OW19631   0.116   0.613   4.437 -0.1462  0.7514  0.4547
 4965SOL    HW219632   0.072   0.560   4.371  0.9664 -0.8950  0.9599
 4965SOL    HW319633   0.056   0.686   4.454 -2.6589 -1.3012  1.0487
 4965SOL    MW419634   0.102   0.616   4.431  0.7565 -0.0774  0.8776
 4966SOL     OW19635   1.694   3.709   0.439 -0.4084 -0.2286 -0.3329
 4966SOL    HW219636   1.609   3.682   0.404 -0.9227  0.9186  0.0123
 4966SOL    HW319637   1.674   3.777   0.503  0.4688 -2.5127  2.5885
 4966SOL    MW419638   1.680   3.714   0.443 -0.6003 -0.2846 -0.5907
 4967SOL     OW19639   0.701   4.939   5.900  0.2197  0.4157 -0.2533
 4967SOL    HW219640   0.730   4.857   5.940 -1.2852  0.4082  0.9168
 4967SOL    HW319641   0.724   4.930   5.807  1.6022 -0.5992  0.1519
 4967SOL    MW419642   0.708   4.927   5.893  0.7169  0.3758  0.4484
 4968SOL     OW19643   4.967   5.238   1.500 -0.4416  0.0250 -0.6120
 4968SOL    HW219644   4.951   5.310   1.561  1.3272  0.7689 -0.9613
 4968SOL    HW319645   4.989   5.163   1.557 -1.4901 -0.0484 -0.2790
 4968SOL    MW419646   4.968   5.237   1.516  0.1597 -0.1958  0.5119
 4969SOL     OW19647   3.500   4.332   4.784 -0.3750 -0.1242  0.1891
 4969SOL    HW219648   3.412   4.370   4.775 -0.4721 -0.3925  0.0209
 4969SOL    HW319649   3.488   4.239   4.765 -0.0411 -0.1470  0.0965
 4969SOL    MW419650   3.487   4.325   4.780  0.5164  0.1086  0.0921
 4970SOL     OW19651   0.169   1.682   5.346 -0.2267  0.0450  0.2157
 4970SOL    HW219652   0.093   1.648   5.299 -0.6571  0.8066  0.3422
 4970SOL    HW319653   0.135   1.755   5.397  0.7482  0.9547 -0.3979
 4970SOL    MW419654   0.155   1.687   5.346  0.5498  0.6073 -0.2433
 4971SOL     OW19655   4.199   6.161   1.811 -0.1130 -0.5112  0.7160
 4971SOL    HW219656   4.272   6.101   1.828 -0.3972 -0.7104  1.2693
 4971SOL    HW319657   4.126   6.125   1.862 -0.4788 -0.0732  0.5118
 4971SOL    MW419658   4.199   6.148   1.820  0.0337  0.2808  0.2515
 4972SOL     OW19659   2.498   3.807   2.279  0.1666 -0.2988 -0.3729
 4972SOL    HW219660   2.468   3.895   2.301  1.5399  0.1065 -0.0647
 4972SOL    HW319661   2.543   3.776   2.358  1.8187 -0.3187 -1.2963
 4972SOL    MW419662   2.500   3.814   2.292  0.4245  0.2816 -0.5701
 4973SOL     OW19663   5.430   3.676   2.787 -0.3245 -0.4356 -0.0933
 4973SOL    HW219664   5.451   3.611   2.855  0.4474  0.2289  0.3221
 4973SOL    HW319665   5.514   3.692   2.744 -0.9798 -1.6495 -1.9604
 4973SOL    MW419666   5.444   3.669   2.790  0.1387  0.7364  0.3610
 4974SOL     OW19667   0.794   0.083   4.594 -0.0119  0.3890  0.3230
 4974SOL    HW219668   0.731   0.038   4.650 -0.1151  0.5172  0.3128
 4974SOL    HW319669   0.868   0.103   4.652 -0.0137  0.3062  0.3540
 4974SOL    MW419670   0.795   0.080   4.609  0.0163  0.2994  0.1722
 4975SOL     OW19671   4.951   0.599   0.930  0.2715 -0.3024  0.2274
 4975SOL    HW219672   4.876   0.541   0.920 -0.5213  0.7710 -0.3232
 4975SOL    HW319673   4.917   0.674   0.980  0.3889  1.1765 -1.8057
 4975SOL    MW419674   4.937   0.601   0.936 -0.0881  0.3540  0.1074
 4976SOL     OW19675   1.869   4.472   3.908 -0.5359 -0.6994  0.1859
 4976SOL    HW219676   1.901   4.502   3.993  2.0345 -1.5409 -0.4057
 4976SOL    HW319677   1.787   4.426   3.928  0.6181 -1.9373  2.3906
 4976SOL    MW419678   1.862   4.470   3.922 -0.1652 -0.1067 -0.3506
 4977SOL     OW19679   6.273   1.874   0.365 -0.2914 -0.1604 -0.4363
 4977SOL    HW219680   6.350   1.817   0.367  0.0434  0.2842  1.1908
 4977SOL    HW319681   6.308   1.962   0.354 -0.6908 -0.1048 -1.3040
 4977SOL    MW419682   6.288   1.878   0.364 -0.0882  0.1173 -0.1680
 4978SOL     OW19683   2.912   0.874   1.670 -0.4581  0.4474 -0.0485
 4978SOL    HW219684   2.827   0.853   1.708 -0.9759  0.6545 -1.0566
 4978SOL    HW319685   2.903   0.964   1.640  0.0888  0.4425 -0.2341
 4978SOL    MW419686   2.900   0.883   1.671  0.5250 -0.0632  0.3714
 4979SOL     OW19687   0.771   3.530   3.360  0.0909 -0.5670  0.2205
 4979SOL    HW219688   0.741   3.620   3.349 -1.4837 -1.2182 -1.2738
 4979SOL    HW319689   0.692   3.480   3.378  0.5985 -1.9799 -1.2421
 4979SOL    MW419690   0.757   3.535   3.361  0.2769 -0.0035 -0.1902
 4980SOL     OW19691   3.662   0.762   0.082 -0.1180 -0.1915  0.0867
 4980SOL    HW219692   3.747   0.743   0.122 -0.6802  0.1274  1.4718
 4980SOL    HW319693   3.607   0.792   0.154 -1.5660 -0.8450 -0.7077
 4980SOL    MW419694   3.666   0.764   0.097  0.2566  0.3158 -0.1299
 4981SOL     OW19695   5.110   3.487   2.088  0.0477  0.6192 -0.1503
 4981SOL    HW219696   5.109   3.583   2.094 -0.9250  0.5817  0.5260
 4981SOL    HW319697   5.176   3.468   2.021  0.5249  1.7426 -0.0224
 4981SOL    MW419698   5.118   3.497   2.080 -0.0491  0.1103 -0.5398
 4982SOL     OW19699   4.422   4.028   3.744  0.3378  0.0561 -0.1010
 4982SOL    HW219700   4.472   4.044   3.664  2.5903  0.6244  1.3419
 4982SOL    HW319701   4.436   3.936   3.764  2.1670  0.5364  1.0943
 4982SOL    MW419702   4.430   4.018   3.736 -0.3550 -0.0113 -0.0407
 4983SOL     OW19703   4.652   0.821   3.377  0.1523 -0.0850  0.2393
 4983SOL    HW219704   4.663   0.774   3.294 -0.3794 -1.2364  0.7898
 4983SOL    HW319705   4.739   0.821   3.416  0.6870  1.6019 -0.8729
 4983SOL    MW419706   4.665   0.815   3.371  0.3074  0.5383 -0.0584
 4984SOL     OW19707   0.423   1.177   0.494  0.0920 -0.0710  0.3785
 4984SOL    HW219708   0.511   1.141   0.504  0.2748  0.3558  0.3449
 4984SOL    HW319709   0.367   1.118   0.544  0.2036 -1.0726 -0.6347
 4984SOL    MW419710   0.427   1.165   0.502  0.1039  0.1680  0.4318
 4985SOL     OW19711   4.089   3.259   1.992  0.4746 -0.2088 -0.3078
 4985SOL    HW219712   4.057   3.301   1.911  1.2191  1.1008  0.0444
 4985SOL    HW319713   4.184   3.260   1.983  0.6286  1.1315  1.1304
 4985SOL    MW419714   4.097   3.265   1.980 -0.6164 -0.2454 -0.0801
 4986SOL     OW19715   0.869   0.688   2.376  0.3153 -0.1178  0.1272
 4986SOL    HW219716   0.824   0.771   2.393 -2.1783 -1.1505 -0.8868
 4986SOL    HW319717   0.961   0.706   2.394 -0.2605  2.6133  0.7641
 4986SOL    MW419718   0.875   0.702   2.380 -0.1352  0.5094 -0.1598
 4987SOL     OW19719   6.055   3.383   2.269 -0.0044  0.3012 -0.1074
 4987SOL    HW219720   6.030   3.474   2.284 -2.0736 -0.4134  1.1986
 4987SOL    HW319721   6.020   3.336   2.345  0.7399 -1.6410 -0.9075
 4987SOL    MW419722   6.047   3.389   2.281 -0.1941  0.3183  0.2217
 4988SOL     OW19723   3.995   4.244   0.435  0.4529  0.7836 -0.1306
 4988SOL    HW219724   4.052   4.168   0.449  0.5062  0.3881 -2.1732
 4988SOL    HW319725   3.906   4.207   0.434  0.3843  0.9407  0.0205
 4988SOL    MW419726   3.991   4.229   0.437 -0.2615 -0.4940 -0.0438
 4989SOL     OW19727   3.374   1.217   0.173 -0.0444 -0.6454  0.7339
 4989SOL    HW219728   3.370   1.166   0.092  1.9917 -0.7901  0.6701
 4989SOL    HW319729   3.369   1.308   0.145 -0.4704 -0.7246  0.5512
 4989SOL    MW419730   3.373   1.222   0.159 -0.1361 -0.3438  0.1739
 4990SOL     OW19731   4.615   4.040   4.481 -0.0428  0.1414 -0.2426
 4990SOL    HW219732   4.674   3.966   4.497  0.5905  0.4131 -1.2123
 4990SOL    HW319733   4.574   4.058   4.565  0.4475 -0.7565  0.1962
 4990SOL    MW419734   4.617   4.032   4.494 -0.1913  0.4810  0.2803
 4991SOL     OW19735   2.843   0.733   5.035  0.1986  0.0080 -0.1558
 4991SOL    HW219736   2.853   0.736   5.130 -2.5438  0.7882  0.2246
 4991SOL    HW319737   2.794   0.813   5.014 -1.3306 -1.2711 -1.8545
 4991SOL    MW419738   2.838   0.744   5.044 -0.1896 -0.8714  0.0153
 4992SOL     OW19739   2.587   4.321   2.659  0.3538  0.5343  0.3101
 4992SOL    HW219740   2.626   4.252   2.605  0.0216 -0.0795  0.8418
 4992SOL    HW319741   2.656   4.386   2.668  1.4691 -0.7541  1.6454
 4992SOL    MW419742   2.601   4.320   2.653 -0.7379  0.0219  0.1144
 4993SOL     OW19743   5.285   5.398   4.222  0.6601 -0.1251  0.5255
 4993SOL    HW219744   5.380   5.409   4.219  0.5270  0.8647 -0.8608
 4993SOL    HW319745   5.254   5.473   4.273  0.4303  1.3601 -1.6476
 4993SOL    MW419746   5.294   5.409   4.228 -0.2094  0.0750  0.4921
 4994SOL     OW19747   4.435   1.035   3.388  0.1768 -0.1684 -0.1648
 4994SOL    HW219748   4.445   0.940   3.380  1.7859 -0.0557  0.1378
 4994SOL    HW319749   4.504   1.071   3.332 -0.5970  0.8439 -0.5032
 4994SOL    MW419750   4.446   1.027   3.380 -0.4965  0.0254 -0.2773
 4995SOL     OW19751   2.324   0.035   1.188  0.9383 -0.4293 -0.1134
 4995SOL    HW219752   2.244   0.086   1.201  0.8426 -1.1026  2.7340
 4995SOL    HW319753   2.362   0.068   1.107 -3.1714 -1.4235 -2.7119
 4995SOL    MW419754   2.318   0.046   1.179 -0.1204 -0.1079 -0.2179
 4996SOL     OW19755   5.267   2.955   6.283  0.4376  0.0235  0.3808
 4996SOL    HW219756   5.296   2.935   6.372  0.3034 -0.3221  0.3518
 4996SOL    HW319757   5.327   3.022   6.252 -0.1023  0.8385  1.0721
 4996SOL    MW419758   5.278   2.961   6.291 -0.1328  0.0396 -0.1787
 4997SOL     OW19759   6.110   5.306   0.698 -0.0791  0.1604 -0.0382
 4997SOL    HW219760   6.103   5.244   0.625 -0.7408  0.0434  0.1154
 4997SOL    HW319761   6.131   5.390   0.658  0.8570 -0.1648 -0.2490
 4997SOL    MW419762   6.112   5.309   0.683  0.7218 -0.4418 -0.1289
 4998SOL     OW19763   1.919   0.438   0.222 -0.5665  0.6183  0.4560
 4998SOL    HW219764   1.929   0.396   0.137  0.1697  1.0962  0.2908
 4998SOL    HW319765   1.834   0.482   0.218 -1.1757 -0.5137  0.4936
 4998SOL    MW419766   1.909   0.438   0.210 -0.0232  0.5787 -0.1029
 4999SOL     OW19767   2.003   1.016   3.179 -0.7387 -0.3223 -0.1434
 4999SOL    HW219768   2.031   1.088   3.123 -2.0885  0.0766 -0.3393
 4999SOL    HW319769   2.045   0.938   3.142  2.2351  0.5303  1.1350
 4999SOL    MW419770   2.012   1.015   3.167 -0.2408 -0.0418  0.2346
 5000SOL     OW19771   3.236   3.880   4.395 -0.4993 -0.9018  0.0561
 5000SOL    HW219772   3.149   3.899   4.359 -0.0368 -0.9844 -1.1755
 5000SOL    HW319773   3.220   3.819   4.467 -1.4015 -1.8006 -0.8659
 5000SOL    MW419774   3.223   3.874   4.399 -0.1275  0.0018 -0.2232
 5001SOL     OW19775   5.648   6.391   2.576  0.4382  0.7711 -0.2023
 5001SOL    HW219776   5.668   6.304   2.612 -0.5115  0.3243 -0.7393
 5001SOL    HW319777   5.567   6.417   2.620 -0.9132  0.0849 -2.1593
 5001SOL    MW419778   5.640   6.383   2.587 -0.2634 -0.4498 -0.2217
 5002SOL     OW19779   1.957   2.649   3.270  0.0478 -0.2422 -0.3757
 5002SOL    HW219780   1.944   2.564   3.229 -1.0567  0.0659 -0.7102
 5002SOL    HW319781   2.011   2.698   3.208 -0.1712 -0.3592 -0.6603
 5002SOL    MW419782   1.963   2.644   3.257  0.2591  0.1568  0.4473
 5003SOL     OW19783   0.590   1.530   0.174  0.1173  0.4954  0.2347
 5003SOL    HW219784   0.682   1.519   0.150  0.2530  1.3365  0.3343
 5003SOL    HW319785   0.566   1.448   0.216  0.4990 -0.1761 -0.8045
 5003SOL    MW419786   0.599   1.518   0.176  0.7708  0.5685 -0.6577
 5004SOL     OW19787   2.202   4.432   4.299 -0.0422 -0.6452  0.9609
 5004SOL    HW219788   2.171   4.357   4.349 -1.6564 -1.4853 -1.1296
 5004SOL    HW319789   2.260   4.395   4.232  1.8245  0.4056  1.9217
 5004SOL    MW419790   2.205   4.417   4.297 -0.4456  0.3720  0.1119
 5005SOL     OW19791   3.245   6.154   1.312  0.5007  0.8993 -0.2042
 5005SOL    HW219792   3.192   6.098   1.369  1.0462 -0.3207 -0.8777
 5005SOL    HW319793   3.181   6.207   1.264 -0.0296  0.7175  0.2973
 5005SOL    MW419794   3.230   6.154   1.313  0.2005 -0.9478  0.2975
 5006SOL     OW19795   1.943   3.757   4.640  0.1230 -0.9273 -0.5334
 5006SOL    HW219796   1.867   3.787   4.591 -1.4903 -1.0465  1.7367
 5006SOL    HW319797   1.967   3.832   4.695  1.1411 -1.1768 -0.6080
 5006SOL    MW419798   1.936   3.771   4.641 -0.9011  0.3061 -0.1525
 5007SOL     OW19799   5.841   0.155   5.945  0.0475  0.2342  0.1877
 5007SOL    HW219800   5.904   0.220   5.912  1.4486 -1.6600 -1.1305
 5007SOL    HW319801   5.870   0.138   6.035  0.0677  0.9607  0.3233
 5007SOL    MW419802   5.853   0.161   5.953 -0.2600  0.0079 -0.0049
 5008SOL     OW19803   4.452   0.270   0.340 -0.5367  0.1650 -0.0389
 5008SOL    HW219804   4.401   0.190   0.326 -0.6195  0.2311 -0.1134
 5008SOL    HW319805   4.470   0.303   0.252 -0.0717 -0.0439 -0.0237
 5008SOL    MW419806   4.448   0.264   0.327 -0.0242 -0.3348 -0.0966
 5009SOL     OW19807   1.085   6.279   1.233 -0.0561 -0.0735 -0.3605
 5009SOL    HW219808   1.163   6.223   1.233  1.2959  1.6978  1.0701
 5009SOL    HW319809   1.063   6.290   1.140  0.0999 -2.2711 -0.7092
 5009SOL    MW419810   1.092   6.273   1.220 -0.0232 -0.4931 -0.3862
 5010SOL     OW19811   1.982   0.591   1.346 -0.7204  0.0964  0.1576
 5010SOL    HW219812   1.941   0.561   1.427 -0.0686 -0.1013  0.4171
 5010SOL    HW319813   2.004   0.683   1.362 -0.4079  0.0020  0.2833
 5010SOL    MW419814   1.980   0.599   1.359 -0.3627  0.3073 -0.3419
 5011SOL     OW19815   1.180   5.608   4.080 -0.4875 -0.6582 -0.2322
 5011SOL    HW219816   1.236   5.539   4.044 -0.8326 -1.6667  1.0785
 5011SOL    HW319817   1.240   5.664   4.129  0.0037  0.7862 -2.3340
 5011SOL    MW419818   1.196   5.606   4.081 -0.3591 -0.8097  0.0736
 5012SOL     OW19819   4.407   2.562   1.671  0.1492  0.1956 -0.0533
 5012SOL    HW219820   4.391   2.486   1.615 -1.2147  0.0717  0.4717
 5012SOL    HW319821   4.480   2.607   1.629  1.4516 -1.7519 -0.0091
 5012SOL    MW419822   4.415   2.558   1.658  0.4653 -0.1279  0.0055
 5013SOL     OW19823   3.810   3.855   2.778  0.1210 -0.2279 -0.1281
 5013SOL    HW219824   3.736   3.915   2.784 -0.1142 -0.3077 -1.8539
 5013SOL    HW319825   3.800   3.798   2.854 -0.8891  0.5288  0.3323
 5013SOL    MW419826   3.799   3.855   2.789  0.4442  0.1055  0.2520
 5014SOL     OW19827   0.203   3.983   4.054 -0.0977 -0.5116 -0.5689
 5014SOL    HW219828   0.153   3.909   4.088  0.8656 -0.5416  0.8768
 5014SOL    HW319829   0.203   4.046   4.126  2.2601 -0.6880 -0.3579
 5014SOL    MW419830   0.196   3.981   4.068 -0.1332  0.6615 -0.3250
 5015SOL     OW19831   3.267   0.497   1.528 -0.4204  0.3240 -0.0685
 5015SOL    HW219832   3.338   0.449   1.485 -0.7441 -1.9023  1.6805
 5015SOL    HW319833   3.187   0.468   1.483 -0.6018 -0.6787  0.8746
 5015SOL    MW419834   3.265   0.487   1.516  0.0842  0.4212 -0.4531
 5016SOL     OW19835   3.548   2.689   0.035 -0.1275 -0.1869 -0.3618
 5016SOL    HW219836   3.628   2.740   0.027 -0.5133  0.3409 -0.8603
 5016SOL    HW319837   3.578   2.598   0.029  0.6867 -0.0918  1.5548
 5016SOL    MW419838   3.563   2.683   0.033 -0.1203 -0.2691 -0.0688
 5017SOL     OW19839   1.974   4.565   5.450  0.3678 -0.2632 -0.5766
 5017SOL    HW219840   1.957   4.577   5.357  0.9607  0.6948 -0.5851
 5017SOL    HW319841   1.915   4.628   5.493  0.4379 -0.3591 -0.3399
 5017SOL    MW419842   1.964   4.575   5.443 -0.0515  0.3004  0.2015
 5018SOL     OW19843   0.784   3.249   4.300  0.0055  0.0559 -0.7763
 5018SOL    HW219844   0.720   3.264   4.370  0.1259  1.2154 -0.8990
 5018SOL    HW319845   0.855   3.202   4.343 -0.8745 -1.1864 -0.6187
 5018SOL    MW419846   0.785   3.245   4.315 -0.7789  0.1336  0.0242
 5019SOL     OW19847   3.954   5.336   1.162 -0.0809  0.4381 -0.1039
 5019SOL    HW219848   3.862   5.338   1.135 -0.5136 -1.0031  1.0995
 5019SOL    HW319849   4.003   5.352   1.082 -1.3668  0.3023 -0.9478
 5019SOL    MW419850   3.948   5.338   1.148 -0.4487  0.1648 -0.0051
 5020SOL     OW19851   2.922   1.657   5.962  0.1216  0.1839 -0.2921
 5020SOL    HW219852   2.955   1.579   6.008  2.3984 -0.0646 -2.1352
 5020SOL    HW319853   2.845   1.625   5.914  0.4713 -0.7358 -0.2776
 5020SOL    MW419854   2.916   1.642   5.962  0.5529 -0.2967  0.4066
 5021SOL     OW19855   6.062   5.490   1.454 -0.7399  0.4987 -0.6083
 5021SOL    HW219856   6.056   5.447   1.539  2.7403  0.1385 -0.4249
 5021SOL    HW319857   5.971   5.495   1.423 -1.7541 -2.8658  1.3747
 5021SOL    MW419858   6.049   5.485   1.461  0.1346 -0.0030  0.0897
 5022SOL     OW19859   0.238   3.478   4.796  0.3450  1.0704  0.6452
 5022SOL    HW219860   0.170   3.487   4.729  2.0517 -1.1764 -1.5908
 5022SOL    HW319861   0.226   3.390   4.831  1.5442  0.9718  0.8472
 5022SOL    MW419862   0.228   3.468   4.792  0.2996 -0.3186 -0.3334
 5023SOL     OW19863   0.709   6.121   3.441 -0.4015  0.2649 -0.4732
 5023SOL    HW219864   0.713   6.027   3.456  1.2458  0.4123  0.2071
 5023SOL    HW319865   0.800   6.147   3.428 -0.7843  1.8509 -0.1456
 5023SOL    MW419866   0.721   6.112   3.441 -0.1170  0.3023 -0.0957
 5024SOL     OW19867   3.346   3.033   0.241  0.0206  0.0563 -0.0658
 5024SOL    HW219868   3.313   3.055   0.328 -1.7689  0.4899 -0.8011
 5024SOL    HW319869   3.360   3.118   0.198 -0.5983 -0.1487 -0.7030
 5024SOL    MW419870   3.343   3.047   0.247 -0.4104 -0.4166  0.5657
 5025SOL     OW19871   4.966   0.878   6.165 -0.3630 -0.0585  0.3284
 5025SOL    HW219872   4.897   0.812   6.164  1.0394 -1.6247  1.4597
 5025SOL    HW319873   5.047   0.827   6.163  0.7731  1.6448  1.1243
 5025SOL    MW419874   4.967   0.863   6.164  0.0321  0.8243 -0.8998
 5026SOL     OW19875   6.015   3.172   4.701  0.0808 -0.0465 -0.3891
 5026SOL    HW219876   5.956   3.188   4.627  0.5329  2.1746 -0.3287
 5026SOL    HW319877   6.103   3.174   4.662  0.2424 -1.8152 -0.2231
 5026SOL    MW419878   6.019   3.174   4.686  0.1953  0.4370  0.7207
 5027SOL     OW19879   4.364   1.994   1.799  0.4471 -0.7243  0.6679
 5027SOL    HW219880   4.376   2.010   1.705  1.0747 -1.3485  0.6318
 5027SOL    HW319881   4.297   1.925   1.802 -1.4319  1.0207  0.7839
 5027SOL    MW419882   4.356   1.987   1.787  0.0861  0.4083 -0.0930
 5028SOL     OW19883   2.391   3.106   1.305  0.4929 -0.6401 -0.0407
 5028SOL    HW219884   2.314   3.115   1.361 -0.4464 -3.0270 -0.8057
 5028SOL    HW319885   2.364   3.141   1.221  0.1759 -1.5356 -0.3271
 5028SOL    MW419886   2.377   3.111   1.302 -0.6813 -0.1230 -0.3454
 5029SOL     OW19887   0.562   4.436   5.489  0.4542  0.1550  0.0390
 5029SOL    HW219888   0.555   4.372   5.418 -0.7121  0.3970 -0.0879
 5029SOL    HW319889   0.556   4.521   5.444  0.1847  0.3149  0.3773
 5029SOL    MW419890   0.560   4.439   5.473  0.2945  0.3797  0.2477
 5030SOL     OW19891   3.153   5.063   2.751 -0.3003 -0.4061  0.2747
 5030SOL    HW219892   3.247   5.047   2.747 -0.0992  0.8823 -2.4316
 5030SOL    HW319893   3.143   5.134   2.816  0.6091 -0.3846  0.3999
 5030SOL    MW419894   3.164   5.070   2.759 -0.3827  0.1752 -0.2569
 5031SOL     OW19895   5.906   1.302   1.513 -0.5356 -0.1451  0.0877
 5031SOL    HW219896   5.816   1.327   1.534 -0.2871  1.5704 -0.6602
 5031SOL    HW319897   5.917   1.329   1.421 -0.5484 -4.2423 -1.3043
 5031SOL    MW419898   5.896   1.309   1.503 -0.2163  0.3010  0.0049
 5032SOL     OW19899   1.297   4.298   6.192  0.4142 -0.1097  0.2444
 5032SOL    HW219900   1.266   4.377   6.147 -0.5700 -0.5216  0.1879
 5032SOL    HW319901   1.392   4.305   6.188  0.3770 -0.0603 -1.7737
 5032SOL    MW419902   1.305   4.310   6.186  0.0298  0.1756 -0.2306
 5033SOL     OW19903   6.086   2.527   6.046  0.6271  0.2173 -0.5148
 5033SOL    HW219904   6.079   2.623   6.046  1.1511  0.3178  2.2824
 5033SOL    HW319905   6.015   2.497   6.102  1.2044 -0.9713 -0.3832
 5033SOL    MW419906   6.076   2.536   6.053  0.1872  0.4082 -0.4295
 5034SOL     OW19907   2.280   6.197   4.565 -0.2994  0.0055 -0.1754
 5034SOL    HW219908   2.296   6.281   4.523  1.3204 -0.6199 -0.8896
 5034SOL    HW319909   2.324   6.203   4.650 -1.2890  0.3064  0.3418
 5034SOL    MW419910   2.288   6.209   4.571 -0.5407 -0.5610 -0.2947
 5035SOL     OW19911   3.063   2.068   5.200  0.0816  0.1419 -0.0629
 5035SOL    HW219912   3.010   1.991   5.181 -1.2248  1.0231 -0.0913
 5035SOL    HW319913   3.153   2.039   5.187 -0.3068 -1.6956  1.0561
 5035SOL    MW419914   3.068   2.054   5.196  0.2690 -0.4632  0.0962
 5036SOL     OW19915   2.377   0.843   3.649  0.2388  0.7297  0.8120
 5036SOL    HW219916   2.451   0.855   3.708  1.0596 -1.2407  0.2521
 5036SOL    HW319917   2.399   0.895   3.572  0.7214  0.6874  0.9182
 5036SOL    MW419918   2.390   0.852   3.647 -0.2677  0.6885 -0.2088
 5037SOL     OW19919   0.349   3.713   3.858  0.1709 -0.5297  0.3363
 5037SOL    HW219920   0.379   3.720   3.949 -1.8382  1.7804  0.9372
 5037SOL    HW319921   0.373   3.796   3.818 -1.9702 -0.1009 -0.1971
 5037SOL    MW419922   0.356   3.724   3.865 -0.1279 -0.5688  0.8419
 5038SOL     OW19923   5.776   0.677   1.144 -0.0546 -0.0582 -0.3780
 5038SOL    HW219924   5.853   0.637   1.183 -0.5831 -0.6421  0.0866
 5038SOL    HW319925   5.811   0.737   1.078  0.9198  1.6466  1.5844
 5038SOL    MW419926   5.790   0.680   1.140 -0.0279  0.2036  0.1938
 5039SOL     OW19927   4.096   1.731   0.077  0.0616  0.2253  0.4355
 5039SOL    HW219928   4.050   1.714  -0.006 -0.0616 -0.2516  0.6035
 5039SOL    HW319929   4.037   1.698   0.144  0.3836  0.1674  0.6886
 5039SOL    MW419930   4.082   1.725   0.075 -0.1245  0.8372 -0.0481
 5040SOL     OW19931   4.650   0.150   3.533  0.0229 -0.0182  0.0392
 5040SOL    HW219932   4.645   0.117   3.443  2.0454 -0.1869 -0.0678
 5040SOL    HW319933   4.683   0.240   3.523  1.2606 -0.3860  0.6292
 5040SOL    MW419934   4.654   0.158   3.519  0.2699  0.2349  0.6431
 5041SOL     OW19935   3.486   0.828   2.068  0.1053 -0.0290  0.5478
 5041SOL    HW219936   3.451   0.917   2.070 -2.6452 -0.9723 -0.8533
 5041SOL    HW319937   3.460   0.791   2.152  2.1009  0.6830  1.5553
 5041SOL    MW419938   3.478   0.835   2.079 -0.4490 -0.1018  0.2545
 5042SOL     OW19939   1.319   5.610   2.809  0.4282 -0.0227  0.2294
 5042SOL    HW219940   1.229   5.609   2.843  0.6888  0.5417  0.9701
 5042SOL    HW319941   1.308   5.610   2.713 -0.4707  2.7748  0.2297
 5042SOL    MW419942   1.306   5.610   2.801  0.0235  0.0429 -0.6480
 5043SOL     OW19943   6.127   0.134   3.279  0.3366  0.0434  0.3316
 5043SOL    HW219944   6.105   0.227   3.278 -0.0874 -0.0610 -0.0245
 5043SOL    HW319945   6.123   0.107   3.187  0.2892 -0.3698  0.4531
 5043SOL    MW419946   6.124   0.143   3.267 -0.1470  0.1295  0.4232
 5044SOL     OW19947   1.102   0.333   1.822  0.3301  0.0799  0.9804
 5044SOL    HW219948   1.066   0.418   1.847  0.0651  0.1031  0.5163
 5044SOL    HW319949   1.123   0.291   1.905 -1.0539 -0.0630  1.2703
 5044SOL    MW419950   1.100   0.338   1.836  0.0107  0.2255  0.4639
 5045SOL     OW19951   6.006   1.071   1.069 -0.3803 -0.1550  0.0260
 5045SOL    HW219952   6.069   1.086   0.998  1.5744 -1.6615  1.3226
 5045SOL    HW319953   5.970   1.158   1.087 -0.6234  0.3362 -2.4795
 5045SOL    MW419954   6.010   1.085   1.062  0.2451  0.6014  0.0233
 5046SOL     OW19955   5.595   2.196   6.424 -0.0022 -0.9688 -0.2234
 5046SOL    HW219956   5.649   2.246   6.484  0.0631 -1.1300 -0.1462
 5046SOL    HW319957   5.638   2.110   6.418  0.2723 -0.7873 -0.8973
 5046SOL    MW419958   5.608   2.191   6.432  0.1075 -0.2232  0.1749
 5047SOL     OW19959   0.671   2.314   0.643 -0.2742  0.2441 -0.1927
 5047SOL    HW219960   0.718   2.236   0.614 -0.5359  0.4846 -1.3003
 5047SOL    HW319961   0.721   2.387   0.607 -0.4927  0.5631  0.1425
 5047SOL    MW419962   0.684   2.313   0.635  0.1965  0.5605  0.0747
 5048SOL     OW19963   2.698   3.334   2.458 -0.0275  0.1484  0.4320
 5048SOL    HW219964   2.678   3.367   2.546  0.9629 -0.2773  0.8320
 5048SOL    HW319965   2.789   3.305   2.463 -0.7011 -2.3213  0.0229
 5048SOL    MW419966   2.707   3.335   2.470  0.1910 -0.1233 -0.4219
 5049SOL     OW19967   2.908   2.992   1.958  0.8192  0.1351  0.0963
 5049SOL    HW219968   2.820   3.015   1.988  1.3091  1.0035  0.9129
 5049SOL    HW319969   2.965   3.056   1.999  1.9792 -1.1089  0.5095
 5049SOL    MW419970   2.904   3.003   1.967  0.4046 -0.1383  0.5987
 5050SOL     OW19971   2.047   1.988   0.396 -0.4441  0.1595 -0.2791
 5050SOL    HW219972   2.122   2.034   0.433 -0.3839  0.1866 -0.4361
 5050SOL    HW319973   1.973   2.046   0.415 -0.3600  0.3495 -0.5270
 5050SOL    MW419974   2.047   2.002   0.403  0.3024 -0.7885 -0.0874
 5051SOL     OW19975   6.253   4.358   5.160  0.4502  0.0618  0.1112
 5051SOL    HW219976   6.272   4.451   5.154  2.2259 -0.2449  0.3615
 5051SOL    HW319977   6.309   4.326   5.232  0.6402 -1.3571 -0.6205
 5051SOL    MW419978   6.263   4.366   5.169 -0.1385  0.1528 -0.3343
 5052SOL     OW19979   6.423   0.151   3.990  0.7480 -0.1793 -0.0559
 5052SOL    HW219980   6.485   0.118   4.055 -0.0037 -1.5484 -0.0003
 5052SOL    HW319981   6.469   0.222   3.946  1.4439  0.4698  1.6540
 5052SOL    MW419982   6.437   0.156   3.993 -0.3346  0.0891 -0.7081
 5053SOL     OW19983   4.790   4.323   3.296 -0.4509 -0.1381 -0.1758
 5053SOL    HW219984   4.803   4.415   3.272  1.8955 -0.2145  0.5718
 5053SOL    HW319985   4.850   4.274   3.240  2.1607 -0.6692  2.7813
 5053SOL    MW419986   4.799   4.329   3.286  0.4281 -0.2024  0.1076
 5054SOL     OW19987   5.593   2.709   3.720 -0.6846  0.0777 -0.0541
 5054SOL    HW219988   5.515   2.673   3.762 -1.5210  2.5843  0.6932
 5054SOL    HW319989   5.560   2.780   3.665  0.7549 -0.9821 -2.4714
 5054SOL    MW419990   5.578   2.714   3.718 -0.6734 -0.7204 -0.2285
 5055SOL     OW19991   2.998   1.697   3.440 -0.1023 -0.3442 -0.7335
 5055SOL    HW219992   3.059   1.696   3.366 -0.3140  0.3143 -0.9275
 5055SOL    HW319993   2.913   1.678   3.401  0.0521 -1.9586 -0.3645
 5055SOL    MW419994   2.995   1.694   3.425 -0.1399  0.4777  0.1413
 5056SOL     OW19995   3.096   2.598   5.039 -0.5915 -0.3137 -1.3206
 5056SOL    HW219996   3.081   2.505   5.055 -1.3649 -0.1210 -0.8617
 5056SOL    HW319997   3.191   2.607   5.032 -0.4579 -0.9991 -0.4674
 5056SOL    MW419998   3.106   2.587   5.040 -0.0876  0.5834  0.4376
 5057SOL     OW19999   5.248   2.283   5.812  0.0405  0.7896  0.5119
 5057SOL    HW220000   5.245   2.290   5.716 -1.5752 -0.5158  0.4236
 5057SOL    HW320001   5.303   2.207   5.829 -0.5908  0.3397  0.5647
 5057SOL    MW420002   5.255   2.274   5.801  0.7715 -0.1383 -0.0088
 5058SOL     OW20003   3.728   5.671   1.978  0.0727 -0.1530 -0.3293
 5058SOL    HW220004   3.695   5.688   2.066  1.1748 -0.2437  0.1181
 5058SOL    HW320005   3.704   5.749   1.928  0.6524  0.5153  0.4136
 5058SOL    MW420006   3.721   5.684   1.983  0.7785  0.2573 -0.0274
 5059SOL     OW20007   0.969   4.201   0.326  0.1283  0.1628  0.0724
 5059SOL    HW220008   0.958   4.295   0.310  0.9607  0.2988  0.2159
 5059SOL    HW320009   0.929   4.158   0.250  1.5722  0.7002 -1.0412
 5059SOL    MW420010   0.962   4.208   0.314  0.2411 -0.1984  0.0537
 5060SOL     OW20011   0.180   2.661   5.732 -1.0032 -0.1698  0.1235
 5060SOL    HW220012   0.205   2.740   5.685 -1.4366 -0.1690 -0.1146
 5060SOL    HW320013   0.263   2.616   5.749 -0.1550  2.4873  4.3387
 5060SOL    MW420014   0.194   2.665   5.728 -0.0355  0.1664 -0.4171
 5061SOL     OW20015   5.639   1.405   5.253 -0.0797  0.2272  0.4813
 5061SOL    HW220016   5.697   1.332   5.229  1.3854  0.7342  2.2536
 5061SOL    HW320017   5.698   1.472   5.287 -1.4466  2.0824 -0.6094
 5061SOL    MW420018   5.655   1.404   5.254  0.3834  0.2937  0.5974
 5062SOL     OW20019   0.590   2.629   4.632 -0.3485  0.0223 -0.0325
 5062SOL    HW220020   0.621   2.604   4.545  1.1980  0.3385  0.4090
 5062SOL    HW320021   0.496   2.644   4.619 -0.0503  0.7052 -1.8000
 5062SOL    MW420022   0.581   2.628   4.618 -0.5515 -0.1519 -0.4516
 5063SOL     OW20023   3.653   1.714   0.193 -0.0012 -0.1747 -0.3119
 5063SOL    HW220024   3.664   1.789   0.135  1.6465 -0.3007 -0.2102
 5063SOL    HW320025   3.585   1.741   0.255 -2.0723 -0.1657 -2.4289
 5063SOL    MW420026   3.646   1.728   0.194  0.1102 -0.0783 -0.4318
 5064SOL     OW20027   4.223   1.003   5.677 -0.3406  0.3658 -0.0019
 5064SOL    HW220028   4.232   1.098   5.671 -0.3430  0.3536 -0.2334
 5064SOL    HW320029   4.238   0.973   5.587  1.0036  0.0463  0.3047
 5064SOL    MW420030   4.226   1.012   5.664  0.0786 -0.2590 -0.3274
 5065SOL     OW20031   0.518   1.445   1.335 -0.0118  0.1701 -0.3380
 5065SOL    HW220032   0.451   1.421   1.399  2.2254 -0.2138  2.0222
 5065SOL    HW320033   0.518   1.372   1.273 -1.1250 -0.2516  0.1240
 5065SOL    MW420034   0.509   1.432   1.335 -0.2515 -0.3477 -0.1880
 5066SOL     OW20035   3.955   0.310   4.669 -0.4890 -0.1667  0.3495
 5066SOL    HW220036   3.986   0.257   4.743  0.5200 -1.0177 -0.6648
 5066SOL    HW320037   4.011   0.387   4.670 -0.1008 -0.4424  0.1425
 5066SOL    MW420038   3.967   0.313   4.679  0.2700 -0.1898 -0.3989
 5067SOL     OW20039   2.150   4.619   5.837  0.2803 -0.1296 -0.1254
 5067SOL    HW220040   2.074   4.564   5.822 -0.1175 -0.0931  1.5478
 5067SOL    HW320041   2.225   4.560   5.830 -0.0667 -0.6599  0.4659
 5067SOL    MW420042   2.150   4.604   5.834 -0.3557  0.5464  0.8294
 5068SOL     OW20043   2.468   1.180   5.341 -0.4532  0.1198  0.0802
 5068SOL    HW220044   2.428   1.097   5.368 -0.3074 -0.0587 -0.2383
 5068SOL    HW320045   2.464   1.178   5.245  0.4377  0.0263  0.0327
 5068SOL    MW420046   2.462   1.169   5.332  0.3572 -0.2141 -0.0378
 5069SOL     OW20047   2.905   1.664   5.466 -0.0960 -0.6784 -0.2676
 5069SOL    HW220048   2.915   1.617   5.383  1.5212  1.9544 -1.7077
 5069SOL    HW320049   2.971   1.625   5.524 -0.6430 -1.9492 -0.4678
 5069SOL    MW420050   2.915   1.652   5.463  0.0291 -0.0165  0.0613
 5070SOL     OW20051   2.870   5.448   3.776  0.2735  0.5640  0.0728
 5070SOL    HW220052   2.792   5.409   3.738 -0.6861  2.1438  0.3307
 5070SOL    HW320053   2.922   5.477   3.701  0.4472 -0.1761 -0.0951
 5070SOL    MW420054   2.866   5.447   3.761 -0.0434 -0.2244  0.4890
 5071SOL     OW20055   5.482   2.543   1.280 -0.7572 -0.3520  0.0436
 5071SOL    HW220056   5.421   2.608   1.246  0.5138  0.0954 -1.4733
 5071SOL    HW320057   5.521   2.585   1.357 -0.1776  0.5668 -0.7390
 5071SOL    MW420058   5.479   2.557   1.286 -0.1154  0.7463  0.1624
 5072SOL     OW20059   5.225   1.692   4.060  0.0195 -0.3138 -0.0909
 5072SOL    HW220060   5.196   1.764   4.004  0.6678 -1.5406 -2.1054
 5072SOL    HW320061   5.152   1.679   4.121 -0.5882  1.2816 -0.4240
 5072SOL    MW420062   5.211   1.700   4.061 -0.0487 -0.1435  0.0258
 5073SOL     OW20063   0.238   4.223   0.911  1.2303  0.6396 -0.0802
 5073SOL    HW220064   0.316   4.272   0.936  1.0254  0.1572  1.6086
 5073SOL    HW320065   0.235   4.149   0.972 -0.0780  0.1563 -0.6797
 5073SOL    MW420066   0.248   4.219   0.922 -0.3811 -0.4354  0.0629
 5074SOL     OW20067   4.010   5.073   2.414 -0.1338 -0.3054  0.1504
 5074SOL    HW220068   3.975   5.154   2.378 -2.1601 -1.2102 -0.0966
 5074SOL    HW320069   3.932   5.025   2.444  1.1291 -1.4942  1.6886
 5074SOL    MW420070   3.995   5.077   2.413  0.3901 -0.6518  0.1171
 5075SOL     OW20071   0.629   0.332   0.116  0.1380  0.0025 -0.3141
 5075SOL    HW220072   0.683   0.305   0.042  1.9842  0.1479  0.9239
 5075SOL    HW320073   0.629   0.427   0.112 -2.0941  0.0196 -1.6818
 5075SOL    MW420074   0.636   0.341   0.106  0.5635  0.1124 -0.5255
 5076SOL     OW20075   2.581   4.487   1.416 -0.0004 -0.2720 -0.2244
 5076SOL    HW220076   2.580   4.533   1.500  0.4315  0.5977 -0.6794
 5076SOL    HW320077   2.617   4.401   1.437 -0.7090 -0.3792  0.6267
 5076SOL    MW420078   2.586   4.482   1.430 -0.3255 -0.2980 -0.2012
 5077SOL     OW20079   3.479   1.818   1.850 -0.0560 -0.0737  0.0587
 5077SOL    HW220080   3.434   1.868   1.781 -2.2587  3.4811  3.6203
 5077SOL    HW320081   3.556   1.871   1.871 -1.1304  0.7186  2.3125
 5077SOL    MW420082   3.483   1.832   1.844  0.0321 -0.0767  0.4349
 5078SOL     OW20083   5.930   0.163   4.681 -0.7136 -0.0914  0.3253
 5078SOL    HW220084   6.018   0.199   4.694 -0.8728  0.4643 -0.1134
 5078SOL    HW320085   5.895   0.153   4.770 -0.3060 -0.0707  0.4898
 5078SOL    MW420086   5.937   0.167   4.694  0.7963  0.1110  0.0881
 5079SOL     OW20087   4.176   5.417   4.783  0.1113  0.7750  0.1357
 5079SOL    HW220088   4.208   5.344   4.730 -0.1575  1.0315 -0.3896
 5079SOL    HW320089   4.085   5.428   4.755  0.3404  1.7239 -0.2577
 5079SOL    MW420090   4.168   5.409   4.772 -0.9567 -0.0181 -0.7176
 5080SOL     OW20091   4.081   3.829   4.254 -0.5035 -0.3194 -0.0854
 5080SOL    HW220092   4.002   3.814   4.202 -0.1372  2.1659 -1.4909
 5080SOL    HW320093   4.073   3.919   4.284 -0.5035 -1.4816  4.0043
 5080SOL    MW420094   4.070   3.839   4.251  0.6128  0.0123  0.5628
 5081SOL     OW20095   1.848   5.121   3.579  0.5128 -0.0724  0.0346
 5081SOL    HW220096   1.900   5.167   3.645  1.5210 -0.1903 -0.6608
 5081SOL    HW320097   1.911   5.065   3.533 -0.4792 -1.2736  0.0875
 5081SOL    MW420098   1.863   5.120   3.581  0.1583  0.5400 -0.5980
 5082SOL     OW20099   5.811   6.391   2.176 -0.0929 -0.1200  0.1813
 5082SOL    HW220100   5.749   6.362   2.109 -0.1108  0.0913  0.1044
 5082SOL    HW320101   5.888   6.419   2.126 -0.2396  0.3676  0.2283
 5082SOL    MW420102   5.813   6.391   2.161  0.1376  0.1291  0.0146
 5083SOL     OW20103   2.726   1.308   5.031  0.2823 -0.3228  0.5815
 5083SOL    HW220104   2.751   1.303   4.939 -1.3671  1.0865 -0.0078
 5083SOL    HW320105   2.740   1.220   5.065 -0.0553 -1.1477 -1.2943
 5083SOL    MW420106   2.731   1.296   5.023  0.1720 -0.3568 -0.2451
 5084SOL     OW20107   1.771   3.562   4.385 -0.5854 -0.5792 -0.1870
 5084SOL    HW220108   1.776   3.553   4.290 -1.3494  0.8111 -0.3965
 5084SOL    HW320109   1.770   3.657   4.400 -0.9342 -0.7687  1.1800
 5084SOL    MW420110   1.772   3.574   4.375  0.3027  0.2327 -0.1086
 5085SOL     OW20111   3.757   4.072   5.784 -0.0822 -0.0825 -0.1239
 5085SOL    HW220112   3.751   4.014   5.708  0.6209  2.1938 -2.0682
 5085SOL    HW320113   3.689   4.138   5.769  0.5746  0.8350  0.8087
 5085SOL    MW420114   3.747   4.073   5.772  0.0090  0.0875 -0.2963
 5086SOL     OW20115   4.001   6.024   1.995 -1.0499 -0.1082  0.6428
 5086SOL    HW220116   4.037   5.942   2.030 -3.3462 -1.0539  0.9288
 5086SOL    HW320117   4.003   6.084   2.070 -1.4514 -0.6127  1.0676
 5086SOL    MW420118   4.006   6.021   2.010 -0.1229  0.1078 -0.4501
 5087SOL     OW20119   2.849   3.658   5.017 -0.2232 -0.1944 -0.2318
 5087SOL    HW220120   2.827   3.674   5.109  0.3157 -1.1490  0.0745
 5087SOL    HW320121   2.900   3.577   5.018  2.7392  1.5230 -0.9947
 5087SOL    MW420122   2.853   3.649   5.030 -0.0295 -0.1273  0.0064
 5088SOL     OW20123   1.580   1.138   0.301  0.0967  0.0395  0.0019
 5088SOL    HW220124   1.511   1.077   0.274  0.9241 -1.9271  2.0984
 5088SOL    HW320125   1.639   1.142   0.226 -1.1004  0.0404 -0.9857
 5088SOL    MW420126   1.578   1.130   0.287  0.2581 -0.0438  0.2539
 5089SOL     OW20127   2.676   4.932   2.589  0.0127 -0.0730  0.3607
 5089SOL    HW220128   2.705   4.980   2.512  0.3109 -1.2584 -0.2889
 5089SOL    HW320129   2.586   4.904   2.568  0.1373 -0.5010  0.3782
 5089SOL    MW420130   2.668   4.934   2.576 -0.4860 -0.1580 -0.5379
 5090SOL     OW20131   0.549   3.654   5.242 -0.2630 -0.1161 -0.7541
 5090SOL    HW220132   0.501   3.644   5.324 -1.2800 -0.9998 -1.4252
 5090SOL    HW320133   0.505   3.728   5.198 -0.8420 -0.7340 -1.2363
 5090SOL    MW420134   0.537   3.663   5.247  0.0487  0.3049 -0.2824
 5091SOL     OW20135   0.698   5.834   3.477 -0.8234  0.4352 -0.4761
 5091SOL    HW220136   0.614   5.817   3.520 -0.7289  2.0070  0.4300
 5091SOL    HW320137   0.761   5.838   3.549 -0.5013  2.1868 -0.8020
 5091SOL    MW420138   0.695   5.833   3.492  0.1936 -0.0565 -0.1922
 5092SOL     OW20139   2.655   2.637   5.367  0.3415  0.1466 -0.0315
 5092SOL    HW220140   2.572   2.659   5.326 -0.0920  0.8939  1.1760
 5092SOL    HW320141   2.706   2.594   5.299 -0.6999  0.4838 -1.0413
 5092SOL    MW420142   2.651   2.634   5.353  0.2402 -0.0225  0.8220
 5093SOL     OW20143   5.171   5.674   2.322  0.4414  0.1916  0.4035
 5093SOL    HW220144   5.211   5.729   2.255 -0.0216 -1.6985 -1.5317
 5093SOL    HW320145   5.077   5.685   2.308  0.3446 -0.5052  0.5109
 5093SOL    MW420146   5.164   5.683   2.311 -0.0142  0.1610 -0.0079
 5094SOL     OW20147   4.705   0.489   5.139 -0.4120 -0.2291 -0.8592
 5094SOL    HW220148   4.643   0.560   5.155 -0.5865 -0.3882 -0.8273
 5094SOL    HW320149   4.790   0.526   5.162 -0.6576 -0.4675  0.5088
 5094SOL    MW420150   4.708   0.503   5.144 -0.3889 -0.0555  0.9552
 5095SOL     OW20151   3.746   0.589   0.674 -0.0756  0.0107  1.0499
 5095SOL    HW220152   3.657   0.554   0.675  0.0463 -0.4119 -0.3508
 5095SOL    HW320153   3.801   0.513   0.652  0.8009 -0.0093  3.0481
 5095SOL    MW420154   3.742   0.574   0.671 -0.1280  0.1099  0.3075
 5096SOL     OW20155   6.169   2.920   0.169 -0.5847 -0.4407 -0.5312
 5096SOL    HW220156   6.239   2.871   0.210  1.1780  1.1402 -1.4916
 5096SOL    HW320157   6.148   2.872   0.089 -1.2990 -1.4203  0.2219
 5096SOL    MW420158   6.175   2.907   0.164 -1.1323 -0.2231  0.6561
 5097SOL     OW20159   2.029   5.830   5.166 -0.2292  0.3784 -0.1451
 5097SOL    HW220160   2.006   5.842   5.074  2.0243  1.9626 -0.5840
 5097SOL    HW320161   2.038   5.918   5.201  0.5675 -0.1782  1.1485
 5097SOL    MW420162   2.028   5.843   5.159 -0.0354  0.4230 -0.6877
 5098SOL     OW20163   0.453   1.966   5.618  0.2105  0.2643  0.1792
 5098SOL    HW220164   0.375   2.020   5.609 -0.7226 -0.9718  0.5168
 5098SOL    HW320165   0.422   1.885   5.658  2.0520  0.6085  2.5172
 5098SOL    MW420166   0.439   1.962   5.622  0.1781 -0.5428  0.2831
 5099SOL     OW20167   1.528   5.328   2.490  0.1653 -0.5389  0.1205
 5099SOL    HW220168   1.597   5.306   2.553  1.0976  0.9994 -0.3126
 5099SOL    HW320169   1.547   5.273   2.414  0.5022 -0.6225  0.2617
 5099SOL    MW420170   1.540   5.318   2.489  0.1835 -0.2611 -0.4918
 5100SOL     OW20171   0.219   4.147   2.445  0.4117  0.3332  0.0031
 5100SOL    HW220172   0.190   4.090   2.516  0.1466 -1.0986 -1.1792
 5100SOL    HW320173   0.139   4.190   2.415  0.6138  1.3672  0.9046
 5100SOL    MW420174   0.204   4.145   2.450  0.0072  0.1079  0.1642
 5101SOL     OW20175   1.870   3.012   2.750 -0.8896  0.1365 -0.1760
 5101SOL    HW220176   1.902   3.048   2.833  0.7065  0.4575 -0.9119
 5101SOL    HW320177   1.855   3.089   2.695 -1.2933 -0.1158 -0.4233
 5101SOL    MW420178   1.872   3.027   2.754 -0.1385  0.6703 -0.1716
 5102SOL     OW20179   5.190   3.246   6.103 -0.3242 -1.0903  0.2537
 5102SOL    HW220180   5.281   3.218   6.116  0.4948  0.9778 -0.5605
 5102SOL    HW320181   5.188   3.280   6.013 -1.7322 -0.5290  0.4679
 5102SOL    MW420182   5.202   3.247   6.093 -0.2989  0.2427  0.7276
 5103SOL     OW20183   4.342   5.394   0.758  0.1831  0.2524  0.3575
 5103SOL    HW220184   4.401   5.321   0.779 -0.7296 -0.2354  1.3171
 5103SOL    HW320185   4.294   5.365   0.681  1.8770  1.0693 -1.0602
 5103SOL    MW420186   4.343   5.380   0.751 -0.5568  0.4721  0.0235
 5104SOL     OW20187   0.121   5.819   4.606 -0.5983  0.1178  0.8496
 5104SOL    HW220188   0.194   5.805   4.667  0.3013 -0.2454 -0.2811
 5104SOL    HW320189   0.154   5.882   4.542 -1.0288 -0.5618 -0.0677
 5104SOL    MW420190   0.135   5.825   4.606  0.1338  0.6238  0.2374
 5105SOL     OW20191   2.246   1.233   3.521  0.8445  0.1286 -0.1270
 5105SOL    HW220192   2.272   1.208   3.609  0.4228  1.3249  0.3516
 5105SOL    HW320193   2.167   1.182   3.504  1.3437 -0.6698 -0.1229
 5105SOL    MW420194   2.239   1.223   3.530 -0.0811 -0.5932 -0.0563
 5106SOL     OW20195   3.613   4.303   5.039 -0.0453 -0.1263  0.0328
 5106SOL    HW220196   3.684   4.238   5.036  1.1511  1.1366 -0.2352
 5106SOL    HW320197   3.579   4.305   4.950 -0.5225 -0.8140  0.1868
 5106SOL    MW420198   3.618   4.295   5.027  0.0917  0.4951 -0.3617
 5107SOL     OW20199   5.582   1.152   5.585 -0.3652 -0.1171  0.5555
 5107SOL    HW220200   5.542   1.175   5.501 -2.8344 -0.1919  1.6446
 5107SOL    HW320201   5.571   1.057   5.591  0.7513 -0.2573  0.5267
 5107SOL    MW420202   5.575   1.143   5.574  0.1595 -0.0846  1.1561
 5108SOL     OW20203   5.883   3.999   4.468 -0.1756 -0.0844  0.0489
 5108SOL    HW220204   5.854   3.982   4.558 -0.5079  0.1830 -0.0042
 5108SOL    HW320205   5.847   4.086   4.448 -0.2685 -0.2274 -0.4091
 5108SOL    MW420206   5.874   4.009   4.478 -0.3364  0.2998  0.5140
 5109SOL     OW20207   3.612   2.931   0.308  0.1915 -0.1575 -0.1540
 5109SOL    HW220208   3.663   2.936   0.227 -0.4907 -0.9503 -0.6535
 5109SOL    HW320209   3.532   2.979   0.289  0.9642  1.5782  0.8235
 5109SOL    MW420210   3.608   2.938   0.294 -0.5568  0.5107  0.2322
 5110SOL     OW20211   5.737   2.691   3.178 -0.6815  0.3138  0.0865
 5110SOL    HW220212   5.677   2.711   3.250 -1.7825 -1.2614 -0.3402
 5110SOL    HW320213   5.695   2.730   3.101 -1.0122 -0.5056 -0.1584
 5110SOL    MW420214   5.724   2.699   3.177 -0.1474  0.6318  0.2407
 5111SOL     OW20215   4.440   4.692   2.644 -0.1860 -0.2178  0.0506
 5111SOL    HW220216   4.485   4.692   2.560 -0.9465  1.4857 -0.3899
 5111SOL    HW320217   4.509   4.673   2.708  0.8753  0.7776 -0.7458
 5111SOL    MW420218   4.455   4.689   2.641 -0.4646 -0.5188  0.1836
 5112SOL     OW20219   5.577   2.447   3.190  0.0166 -0.6633 -0.3124
 5112SOL    HW220220   5.484   2.470   3.198  0.3621  0.3344  1.3002
 5112SOL    HW320221   5.620   2.529   3.166  0.5777 -0.9570 -0.3162
 5112SOL    MW420222   5.570   2.461   3.188  0.6788  0.1614  0.7363
 5113SOL     OW20223   0.437   0.319   5.345  0.0615  0.3243 -0.3830
 5113SOL    HW220224   0.395   0.233   5.334  0.6049  0.0045  0.0050
 5113SOL    HW320225   0.378   0.380   5.301  0.1915 -0.3830 -1.5573
 5113SOL    MW420226   0.424   0.316   5.338 -0.1205 -0.0911  0.3101
 5114SOL     OW20227   5.998   4.931   0.656 -0.0108 -0.4113 -0.3300
 5114SOL    HW220228   6.019   5.013   0.612 -1.5590  0.3425  0.2765
 5114SOL    HW320229   6.038   4.863   0.601  1.9553  0.7519 -0.4309
 5114SOL    MW420230   6.006   4.933   0.643 -0.2623 -0.2517  0.5329
 5115SOL     OW20231   1.747   3.123   1.417 -0.3149  0.3013 -0.3897
 5115SOL    HW220232   1.713   3.060   1.480 -0.2993  2.9198  2.4519
 5115SOL    HW320233   1.811   3.074   1.365 -1.5244 -2.3709  0.4862
 5115SOL    MW420234   1.751   3.108   1.418  0.1762  0.3834 -0.3017
 5116SOL     OW20235   0.733   1.322   5.588 -0.1515 -0.3124 -0.2937
 5116SOL    HW220236   0.762   1.404   5.629  0.1120  0.0572 -1.1927
 5116SOL    HW320237   0.661   1.348   5.530  0.3968 -0.5886 -1.1204
 5116SOL    MW420238   0.728   1.336   5.586  0.1263  0.1522 -0.0144
 5117SOL     OW20239   5.792   5.267   0.499 -0.4382  0.4885 -0.2921
 5117SOL    HW220240   5.875   5.227   0.523 -1.2053 -0.2885  1.2273
 5117SOL    HW320241   5.736   5.193   0.475 -0.8545  0.9538 -0.7749
 5117SOL    MW420242   5.795   5.252   0.499 -0.3618 -0.2557 -0.1211
 5118SOL     OW20243   3.960   2.043   4.251  0.0999 -0.0584  0.3535
 5118SOL    HW220244   3.993   1.955   4.273  0.4373 -0.0792 -0.2252
 5118SOL    HW320245   4.013   2.071   4.177 -1.1520 -0.0782 -0.5861
 5118SOL    MW420246   3.971   2.035   4.244  0.0389  0.3443 -0.4807
 5119SOL     OW20247   6.176   1.530   3.093  0.2338 -0.1115 -0.1357
 5119SOL    HW220248   6.200   1.449   3.138  0.3598  0.0088  0.0135
 5119SOL    HW320249   6.081   1.526   3.084  0.1351  0.1869  0.7484
 5119SOL    MW420250   6.167   1.519   3.097  0.1820  0.0216 -0.1030
 5120SOL     OW20251   2.294   3.159   2.285 -0.4799  0.2622 -0.2343
 5120SOL    HW220252   2.383   3.126   2.296 -0.5979 -0.1425 -0.5022
 5120SOL    HW320253   2.302   3.229   2.220 -0.5588 -0.6456 -1.2351
 5120SOL    MW420254   2.307   3.164   2.278  0.1995 -0.1689  0.0195
 5121SOL     OW20255   4.545   5.246   5.537 -0.5244 -0.3920 -0.1755
 5121SOL    HW220256   4.521   5.285   5.621 -0.7518 -0.6683 -0.1122
 5121SOL    HW320257   4.595   5.315   5.492 -1.1606  0.0760 -0.1791
 5121SOL    MW420258   4.548   5.260   5.542 -0.6626 -0.2285 -0.0428
 5122SOL     OW20259   1.083   4.374   3.276  0.0294  0.4678 -0.0763
 5122SOL    HW220260   1.158   4.315   3.265 -0.5799 -0.1461 -1.0911
 5122SOL    HW320261   1.010   4.327   3.236 -1.1183  0.6569  1.6986
 5122SOL    MW420262   1.083   4.360   3.269 -0.4312 -0.1281  0.1256
 5123SOL     OW20263   5.367   3.202   2.170 -0.2106  0.1865 -0.2166
 5123SOL    HW220264   5.377   3.115   2.208 -1.1887  0.3719  0.5068
 5123SOL    HW320265   5.287   3.195   2.117  0.3507  0.3316 -1.1090
 5123SOL    MW420266   5.358   3.190   2.168 -0.3734  0.0289  0.1611
 5124SOL     OW20267   4.993   6.398   1.429 -0.0382  0.0025 -0.9237
 5124SOL    HW220268   5.039   6.419   1.510  0.4747 -0.0756 -1.1872
 5124SOL    HW320269   4.980   6.303   1.433 -1.6744  0.2374 -0.0853
 5124SOL    MW420270   4.997   6.388   1.440  0.5170  0.2604  0.2219
 5125SOL     OW20271   5.364   0.777   5.358  0.1291  0.2112  0.3874
 5125SOL    HW220272   5.446   0.734   5.384 -0.1285  0.0729  0.9913
 5125SOL    HW320273   5.348   0.841   5.427 -0.5861 -0.1824  0.6009
 5125SOL    MW420274   5.373   0.779   5.370 -0.0851 -0.1034 -0.1962
 5126SOL     OW20275   2.129   5.955   3.066 -0.2315  0.7408  0.2269
 5126SOL    HW220276   2.057   6.017   3.079 -0.1879  0.7756  0.3052
 5126SOL    HW320277   2.133   5.906   3.148 -0.5928  0.2910 -0.0190
 5126SOL    MW420278   2.120   5.957   3.079  0.0561  0.7378  0.2021
 5127SOL     OW20279   0.291   1.046   0.720  0.0627  1.4233 -0.1454
 5127SOL    HW220280   0.202   1.031   0.688 -0.4181  1.5281  1.1089
 5127SOL    HW320281   0.334   0.961   0.716 -0.3074  1.2367 -0.0927
 5127SOL    MW420282   0.285   1.033   0.715 -0.2048 -0.3406 -0.8858
 5128SOL     OW20283   4.142   4.401   4.742 -0.3244  0.3512  0.3118
 5128SOL    HW220284   4.184   4.376   4.660  0.8523 -0.2169  1.0753
 5128SOL    HW320285   4.052   4.424   4.716  0.2433  0.9878 -1.2526
 5128SOL    MW420286   4.136   4.401   4.728  0.9330  0.1417 -0.4548
 5129SOL     OW20287   1.364   5.656   5.444  0.3571 -0.7215 -0.2586
 5129SOL    HW220288   1.346   5.733   5.497  0.7409  1.5049 -3.0737
 5129SOL    HW320289   1.318   5.584   5.487 -0.8792  1.2879  1.9424
 5129SOL    MW420290   1.356   5.656   5.456  0.0259 -0.4900 -0.8045
 5130SOL     OW20291   1.968   2.089   3.783 -0.3979 -0.1584  0.5046
 5130SOL    HW220292   1.998   2.104   3.873  1.6942 -0.3171 -0.1279
 5130SOL    HW320293   1.991   1.998   3.765  0.0171  0.1371 -0.4895
 5130SOL    MW420294   1.975   2.079   3.793  0.3288 -0.0757  0.1433
 5131SOL     OW20295   4.050   4.208   4.930  0.9158 -0.5423  0.0696
 5131SOL    HW220296   4.075   4.261   4.854 -1.0598  0.8821  0.3306
 5131SOL    HW320297   4.057   4.268   5.004  3.1013 -1.9903  1.1506
 5131SOL    MW420298   4.055   4.223   4.929 -0.3586  0.7105  0.0158
 5132SOL     OW20299   3.710   1.424   5.146 -0.1751 -0.0356  0.3264
 5132SOL    HW220300   3.701   1.331   5.168 -0.7434 -0.1922 -0.4953
 5132SOL    HW320301   3.802   1.435   5.122 -0.5859 -0.9582 -1.9373
 5132SOL    MW420302   3.721   1.413   5.146 -0.0110  0.6176  0.1057
 5133SOL     OW20303   5.653   5.834   2.733 -0.1474  0.7149 -0.6677
 5133SOL    HW220304   5.671   5.792   2.649 -1.8482 -3.0518  0.6017
 5133SOL    HW320305   5.692   5.775   2.798 -1.6646  1.7396  1.2725
 5133SOL    MW420306   5.660   5.820   2.731 -0.5792  0.6610  0.1298
 5134SOL     OW20307   1.059   1.820   3.489 -0.0419  0.7557 -0.6312
 5134SOL    HW220308   1.065   1.784   3.578 -0.8344 -1.0791 -1.2747
 5134SOL    HW320309   1.097   1.908   3.497  0.6836  0.3360  1.3371
 5134SOL    MW420310   1.065   1.827   3.502  0.4029  0.1448 -0.3343
 5135SOL     OW20311   0.033   1.968   2.270  0.0023  0.3126 -0.0974
 5135SOL    HW220312   0.019   2.043   2.327  0.3651  0.2227  0.1135
 5135SOL    HW320313  -0.051   1.923   2.268 -0.3729  1.0099 -0.6500
 5135SOL    MW420314   0.020   1.972   2.277 -0.2097  0.4345 -0.4258
 5136SOL     OW20315   2.891   4.282   6.029 -0.0489  0.3227 -0.3323
 5136SOL    HW220316   2.858   4.326   5.950 -0.3677  2.1351  0.7429
 5136SOL    HW320317   2.825   4.302   6.096  1.4296  0.9670  0.9812
 5136SOL    MW420318   2.878   4.291   6.028  0.0684  0.1757  0.8574
 5137SOL     OW20319   5.128   3.196   2.033 -0.5416 -0.4035  0.3528
 5137SOL    HW220320   5.054   3.136   2.044 -1.3186  0.3364 -0.6156
 5137SOL    HW320321   5.089   3.283   2.035  0.0763 -0.0237 -1.4793
 5137SOL    MW420322   5.113   3.199   2.034 -0.1504  0.0594  0.3717
 5138SOL     OW20323   3.161   6.428   0.733  0.0184  0.3934 -0.3050
 5138SOL    HW220324   3.171   6.493   0.802 -2.4613  0.8189 -0.2602
 5138SOL    HW320325   3.137   6.347   0.778  2.1758 -0.3944 -0.4390
 5138SOL    MW420326   3.159   6.426   0.748  0.0840 -0.2901 -0.3884
 5139SOL     OW20327   2.712   5.781   3.800 -0.2302  0.4654 -0.1648
 5139SOL    HW220328   2.695   5.816   3.888 -1.5878  1.6201 -0.8402
 5139SOL    HW320329   2.678   5.692   3.803  0.4782  0.2090  0.7097
 5139SOL    MW420330   2.705   5.774   3.812  0.4651  0.7137  0.2583
 5140SOL     OW20331   2.503   1.713   2.041 -0.1397  0.1765  0.6619
 5140SOL    HW220332   2.503   1.630   1.993 -0.0003  0.0037  0.9549
 5140SOL    HW320333   2.586   1.713   2.088 -1.1087 -0.5757  2.4721
 5140SOL    MW420334   2.514   1.702   2.041  0.1221  1.2557 -0.4284
 5141SOL     OW20335   4.221   0.004   2.605 -0.2004 -0.1520  0.8810
 5141SOL    HW220336   4.275  -0.058   2.654  1.8639  1.6787  1.0717
 5141SOL    HW320337   4.271   0.085   2.605 -0.9503  0.4821 -2.7322
 5141SOL    MW420338   4.234   0.006   2.612 -0.2125 -0.1555  0.2861
 5142SOL     OW20339   2.094   4.212   4.979 -0.5454  0.1190 -0.4652
 5142SOL    HW220340   2.108   4.196   5.072  0.9806  0.5393 -0.5893
 5142SOL    HW320341   2.179   4.244   4.948 -1.5835  1.9557 -1.5628
 5142SOL    MW420342   2.107   4.214   4.987  0.2829 -0.5087  0.3661
 5143SOL     OW20343   2.430   4.200   3.475  0.7069 -0.1809  0.2645
 5143SOL    HW220344   2.524   4.183   3.472  0.8903  0.5923  1.2343
 5143SOL    HW320345   2.407   4.195   3.568  0.1163  1.3065  0.2250
 5143SOL    MW420346   2.439   4.197   3.486  0.9401 -0.2154 -0.3310
 5144SOL     OW20347   4.021   0.530   5.501  0.5153  0.1803  0.1011
 5144SOL    HW220348   4.103   0.578   5.503 -0.3108  1.8416 -1.7136
 5144SOL    HW320349   3.993   0.535   5.409 -2.5148  1.3820  0.9582
 5144SOL    MW420350   4.028   0.537   5.489 -0.3154  0.7758 -0.0776
 5145SOL     OW20351   3.075   1.000   4.482  0.1903 -0.0551  0.2696
 5145SOL    HW220352   3.137   1.032   4.548 -1.0578  1.0862  0.9508
 5145SOL    HW320353   3.126   0.995   4.401  1.4626 -0.3455  1.0736
 5145SOL    MW420354   3.090   1.004   4.480 -0.4060  0.1529 -0.4640
 5146SOL     OW20355   3.912   1.974   2.293  0.1353 -0.2315  0.8462
 5146SOL    HW220356   3.851   2.037   2.256  1.2896  2.1393  2.7286
 5146SOL    HW320357   3.857   1.901   2.321 -1.2144 -0.2718 -1.6207
 5146SOL    MW420358   3.897   1.972   2.292 -0.1861 -0.2853  0.0671
 5147SOL     OW20359   4.120   2.012   0.014 -0.4093 -0.1762 -1.0681
 5147SOL    HW220360   4.096   1.928   0.052 -1.1912 -0.1193 -1.4056
 5147SOL    HW320361   4.212   2.004  -0.008 -0.1037 -0.4265  0.2509
 5147SOL    MW420362   4.129   2.000   0.016  1.0582  0.0292 -0.5996
 5148SOL     OW20363   1.459   2.344   5.728 -0.1566  0.2139 -0.3387
 5148SOL    HW220364   1.494   2.272   5.675 -0.7485  0.0275 -0.4783
 5148SOL    HW320365   1.366   2.326   5.735 -0.3274  1.0299 -0.4614
 5148SOL    MW420366   1.452   2.332   5.722 -0.8410 -1.4361  0.9912
 5149SOL     OW20367   0.207   3.673   1.921  0.0832 -0.2907  0.3778
 5149SOL    HW220368   0.161   3.743   1.968 -0.4569 -0.6470  0.3930
 5149SOL    HW320369   0.148   3.650   1.850  0.9941  0.4013 -0.6247
 5149SOL    MW420370   0.193   3.679   1.918  0.3483 -0.4797  0.2419
 5150SOL     OW20371   4.244   0.658   1.616  0.1410  0.1617 -0.1263
 5150SOL    HW220372   4.249   0.694   1.527 -0.7948  2.2721  0.6133
 5150SOL    HW320373   4.174   0.593   1.611 -1.6673  2.0203 -0.4429
 5150SOL    MW420374   4.236   0.654   1.603 -0.1847  0.0227 -0.6895
 5151SOL     OW20375   2.861   0.840   3.528  0.2233  0.8738 -0.1204
 5151SOL    HW220376   2.783   0.851   3.582  0.4098 -0.4263  0.4681
 5151SOL    HW320377   2.906   0.925   3.532 -0.7609  1.3907  0.1553
 5151SOL    MW420378   2.857   0.853   3.536 -0.3700 -0.8314  0.5238
 5152SOL     OW20379   4.194   6.080   0.455 -0.4822  0.2305 -0.4320
 5152SOL    HW220380   4.284   6.094   0.486 -1.0482  2.1061  0.4715
 5152SOL    HW320381   4.189   6.128   0.373 -1.2067  1.8778  0.5337
 5152SOL    MW420382   4.205   6.088   0.448 -0.6522  0.2279 -0.2261
 5153SOL     OW20383   1.195   2.279   1.059 -0.4344 -0.3183  0.6387
 5153SOL    HW220384   1.124   2.289   0.996 -0.9470 -2.7495  0.7461
 5153SOL    HW320385   1.257   2.219   1.016  1.0995  0.9358  0.9708
 5153SOL    MW420386   1.194   2.272   1.045 -0.5103 -0.4752 -0.1227
 5154SOL     OW20387   1.383   5.891   2.114  0.1239  0.3729  0.1375
 5154SOL    HW220388   1.324   5.833   2.161 -0.8082 -0.3696 -1.8233
 5154SOL    HW320389   1.471   5.864   2.142 -0.3751 -0.4162  0.9879
 5154SOL    MW420390   1.387   5.880   2.124 -0.1821 -0.8751  0.5199
 5155SOL     OW20391   3.182   2.509   2.508 -0.4129  0.5580 -0.0976
 5155SOL    HW220392   3.117   2.456   2.461 -1.2600  1.4974 -0.0321
 5155SOL    HW320393   3.130   2.557   2.573  0.3379  1.3550 -0.0679
 5155SOL    MW420394   3.166   2.509   2.510  0.3115  0.1673 -0.8902
 5156SOL     OW20395   1.301   1.566   2.870 -0.3437  0.4918 -0.3499
 5156SOL    HW220396   1.354   1.513   2.929  1.6437  1.8549 -0.7743
 5156SOL    HW320397   1.311   1.524   2.784 -3.7370 -1.8569  0.1996
 5156SOL    MW420398   1.310   1.554   2.866  0.3861  0.1531 -0.2039
 5157SOL     OW20399   2.864   0.004   3.784  0.0502  0.1670  0.5895
 5157SOL    HW220400   2.918   0.027   3.709 -0.2875 -0.1064  0.2586
 5157SOL    HW320401   2.910   0.041   3.860  0.3497  0.5098  0.2410
 5157SOL    MW420402   2.877   0.012   3.784  0.1626  0.5855 -0.1258
 5158SOL     OW20403   2.877   5.134   0.671  0.0632  0.4739  0.1565
 5158SOL    HW220404   2.784   5.119   0.691  0.1233 -0.5659 -0.2806
 5158SOL    HW320405   2.919   5.143   0.756 -0.1951 -0.6313  0.4064
 5158SOL    MW420406   2.870   5.134   0.685  0.2933 -0.2998 -0.1342
 5159SOL     OW20407   2.596   2.204   0.819  1.0104 -0.3021  0.7623
 5159SOL    HW220408   2.533   2.271   0.792  1.9533  0.2917 -0.0075
 5159SOL    HW320409   2.617   2.226   0.910 -1.1169 -1.4938  1.6264
 5159SOL    MW420410   2.590   2.216   0.828  0.3416  0.3696  0.0584
 5160SOL     OW20411   1.414   1.870   0.831  0.4900  0.3930  0.1331
 5160SOL    HW220412   1.494   1.850   0.782  1.6368  0.3223  1.9290
 5160SOL    HW320413   1.428   1.958   0.865 -0.9425  1.0482 -0.8817
 5160SOL    MW420414   1.427   1.879   0.829 -0.8705  0.0289 -0.3941
 5161SOL     OW20415   4.782   5.662   2.880 -0.2912 -0.2861  0.7087
 5161SOL    HW220416   4.724   5.634   2.951 -0.6545  1.1325  1.0056
 5161SOL    HW320417   4.852   5.710   2.924  0.1996 -0.5318  0.2047
 5161SOL    MW420418   4.783   5.665   2.895  0.2759 -0.3411 -0.6446
 5162SOL     OW20419   5.651   2.982   0.448  0.2810 -0.0486  0.0643
 5162SOL    HW220420   5.571   2.962   0.401  0.3357  1.4505 -0.7317
 5162SOL    HW320421   5.721   2.942   0.396  0.0686 -1.4900  0.8432
 5162SOL    MW420422   5.650   2.974   0.435 -0.0267  0.4486 -0.1623
 5163SOL     OW20423   2.992   4.508   2.020  0.7065  0.1437  0.0395
 5163SOL    HW220424   3.030   4.470   2.099 -0.3471 -0.0812  0.4400
 5163SOL    HW320425   3.025   4.598   2.019  0.1974  0.3519  1.0871
 5163SOL    MW420426   3.002   4.515   2.030  0.3745 -0.3315 -0.1848
 5164SOL     OW20427   1.669   5.834   2.148  0.3101  0.1456 -0.0047
 5164SOL    HW220428   1.684   5.929   2.144 -1.6373  0.5475  1.0723
 5164SOL    HW320429   1.701   5.801   2.064  2.4993  1.4983  0.2151
 5164SOL    MW420430   1.675   5.842   2.136  0.7425  0.0974  0.0229
 5165SOL     OW20431   2.243   3.990   5.832  0.6919 -0.3463  0.4676
 5165SOL    HW220432   2.246   4.074   5.877  1.0257  0.2953 -0.7258
 5165SOL    HW320433   2.243   3.925   5.903 -0.9568  0.6546  1.4500
 5165SOL    MW420434   2.243   3.992   5.848  0.0735  0.8993  0.2722
 5166SOL     OW20435   3.858   4.557   0.042 -0.5063 -0.2866 -0.0252
 5166SOL    HW220436   3.914   4.521   0.111 -1.0912  0.6853  0.9869
 5166SOL    HW320437   3.773   4.569   0.083 -0.4531  1.8219 -0.4166
 5166SOL    MW420438   3.854   4.554   0.056  0.3247  0.4854  0.6958
 5167SOL     OW20439   1.101   5.013   1.991 -0.7520 -0.1052 -0.0705
 5167SOL    HW220440   1.159   5.061   2.050  0.9955 -0.4016 -1.4673
 5167SOL    HW320441   1.103   4.923   2.023 -1.9712  0.2212  0.9958
 5167SOL    MW420442   1.109   5.008   2.003  0.4754  0.7885 -0.3088
 5168SOL     OW20443   5.763   3.596   2.349 -0.0456 -0.3038  0.4373
 5168SOL    HW220444   5.725   3.628   2.267 -0.0787 -2.6693 -0.5410
 5168SOL    HW320445   5.852   3.631   2.349 -0.0827 -0.1636 -0.5657
 5168SOL    MW420446   5.770   3.605   2.338  0.3622  0.3708 -0.0116
 5169SOL     OW20447   0.186   1.450   6.153 -0.6060  0.0743  0.4041
 5169SOL    HW220448   0.257   1.405   6.199 -0.7771  1.8552  2.5709
 5169SOL    HW320449   0.211   1.542   6.156 -2.7372  0.6876  0.7219
 5169SOL    MW420450   0.199   1.456   6.159 -0.2185  0.0026  0.7108
 5170SOL     OW20451   1.395   5.155   1.562  0.0555 -0.2167  0.3565
 5170SOL    HW220452   1.485   5.123   1.554  0.0099  0.1533 -2.3717
 5170SOL    HW320453   1.404   5.245   1.591  0.5651 -0.1737  0.0815
 5170SOL    MW420454   1.408   5.162   1.565  0.2860 -0.3934 -0.8664
 5171SOL     OW20455   1.379   4.200   1.196  0.2064  0.2272 -0.0383
 5171SOL    HW220456   1.459   4.252   1.201  0.2916  0.0480  0.5090
 5171SOL    HW320457   1.315   4.258   1.155  1.1472 -0.2750 -2.4276
 5171SOL    MW420458   1.381   4.214   1.191 -0.6159 -0.4160  0.2556
 5172SOL     OW20459   1.899   5.722   1.221  0.3067 -0.1818 -0.4510
 5172SOL    HW220460   1.843   5.645   1.214 -0.0302 -0.1052  1.1289
 5172SOL    HW320461   1.844   5.794   1.190  0.3761 -0.4556 -1.2336
 5172SOL    MW420462   1.884   5.721   1.216 -0.2030  0.3894 -0.3400
 5173SOL     OW20463   1.893   0.376   3.387  0.2932  0.1070 -0.2289
 5173SOL    HW220464   1.883   0.435   3.462 -0.2255  0.7790 -0.8090
 5173SOL    HW320465   1.804   0.351   3.364  0.4263  0.1346 -0.7917
 5173SOL    MW420466   1.880   0.381   3.394 -0.7777  0.6769  0.5220
 5174SOL     OW20467   2.755   0.776   0.589 -0.1438 -0.0467 -0.2245
 5174SOL    HW220468   2.668   0.805   0.561 -1.1472 -2.0276  0.5948
 5174SOL    HW320469   2.742   0.742   0.677  0.7621 -2.9885 -1.0832
 5174SOL    MW420470   2.742   0.775   0.597  0.3133  0.3786  0.1749
 5175SOL     OW20471   5.500   2.533   2.552 -0.1290  0.3424 -0.0840
 5175SOL    HW220472   5.438   2.579   2.495 -1.5393 -0.9083  0.3696
 5175SOL    HW320473   5.508   2.446   2.513  1.2736  0.4387 -0.0553
 5175SOL    MW420474   5.493   2.527   2.539 -0.2093  0.3222  0.7944
 5176SOL     OW20475   0.008   4.620   1.378  0.2267 -0.0022  0.2442
 5176SOL    HW220476   0.098   4.589   1.390  0.3073 -0.1837 -0.7852
 5176SOL    HW320477  -0.010   4.670   1.458  1.2769  0.1279  0.4187
 5176SOL    MW420478   0.017   4.623   1.390 -0.1248  0.6440  0.2635
 5177SOL     OW20479   5.936   3.894   0.381  0.1801 -0.5598  0.8112
 5177SOL    HW220480   5.863   3.954   0.395  0.1163 -0.2390 -0.7725
 5177SOL    HW320481   6.006   3.949   0.347  0.4161 -1.2381  0.1812
 5177SOL    MW420482   5.936   3.909   0.378  0.6270 -0.2590  0.0823
 5178SOL     OW20483   3.315   2.036   5.105  0.2479  0.2872 -0.0405
 5178SOL    HW220484   3.379   1.994   5.164  0.0922  0.5724  0.3314
 5178SOL    HW320485   3.306   1.974   5.033 -0.1292 -0.4263  0.5998
 5178SOL    MW420486   3.323   2.022   5.103  0.2816 -0.0668 -0.5835
 5179SOL     OW20487   4.849   0.187   4.614 -0.4085 -0.3109 -0.0180
 5179SOL    HW220488   4.771   0.204   4.667 -0.2773  1.0892 -0.2481
 5179SOL    HW320489   4.821   0.204   4.524 -0.3133 -1.5645 -0.3079
 5179SOL    MW420490   4.835   0.192   4.609 -0.3712 -0.9692  0.2515
 5180SOL     OW20491   3.772   3.856   4.651  0.3591  0.0212  0.0085
 5180SOL    HW220492   3.754   3.808   4.732  0.2688 -0.5323 -0.3364
 5180SOL    HW320493   3.788   3.788   4.586  0.4359  0.4656 -0.4407
 5180SOL    MW420494   3.772   3.841   4.653  0.8269  0.1682  1.0387
 5181SOL     OW20495   2.998   3.859   4.891  0.0015 -0.2212  0.3253
 5181SOL    HW220496   2.925   3.802   4.911  0.9877 -1.1715  1.3518
 5181SOL    HW320497   2.976   3.943   4.932 -1.3974  0.1547 -1.0958
 5181SOL    MW420498   2.985   3.863   4.899  0.5058 -0.4829  0.6042
 5182SOL     OW20499   4.898   5.066   1.976  0.3121  0.2164  0.1858
 5182SOL    HW220500   4.862   4.998   1.920  0.2900  0.4259 -0.0581
 5182SOL    HW320501   4.831   5.082   2.042 -0.3618  1.0967 -0.6732
 5182SOL    MW420502   4.885   5.059   1.977  0.3245 -0.1410 -0.6892
 5183SOL     OW20503   1.369   0.478   3.938  0.0537 -0.0945 -0.4064
 5183SOL    HW220504   1.362   0.562   3.894 -2.4379 -0.9565 -1.8422
 5183SOL    HW320505   1.285   0.466   3.982  0.6669 -1.4663  0.4882
 5183SOL    MW420506   1.357   0.487   3.938  0.8099  0.2544  0.5400
 5184SOL     OW20507   1.960   0.979   6.181  0.2313  0.1455 -0.4062
 5184SOL    HW220508   1.894   0.924   6.222 -0.1170  0.8334 -0.0273
 5184SOL    HW320509   1.941   0.973   6.087  0.6523 -0.9465 -0.4347
 5184SOL    MW420510   1.949   0.971   6.174 -0.5032 -0.0098 -0.1649
 5185SOL     OW20511   0.661   2.509   4.386 -0.0292  0.4691 -0.2119
 5185SOL    HW220512   0.580   2.550   4.357  0.2391 -0.7572 -3.0265
 5185SOL    HW320513   0.644   2.415   4.379  1.2449  0.1737  0.3534
 5185SOL    MW420514   0.648   2.502   4.381  0.2252 -0.4274  0.4601
 5186SOL     OW20515   3.965   4.158   5.584  0.1915  0.3990  0.2150
 5186SOL    HW220516   4.054   4.148   5.549 -0.2704 -1.1731 -0.6054
 5186SOL    HW320517   3.962   4.098   5.659 -0.0817  0.7421  0.4874
 5186SOL    MW420518   3.977   4.149   5.590  0.5914  0.1720 -0.4201
 5187SOL     OW20519   1.183   1.732   2.388  0.1339 -0.5401  0.0899
 5187SOL    HW220520   1.272   1.754   2.361  0.8426 -0.8469  2.0178
 5187SOL    HW320521   1.131   1.742   2.309  1.7358  0.4578 -0.8971
 5187SOL    MW420522   1.188   1.736   2.374 -0.4014  0.0908  0.0796
 5188SOL     OW20523   6.064   4.256   1.553 -0.6587 -0.1152 -0.3782
 5188SOL    HW220524   6.061   4.330   1.614 -1.5042 -0.4267 -0.0295
 5188SOL    HW320525   5.995   4.197   1.584  1.6875 -2.3300  0.9947
 5188SOL    MW420526   6.055   4.258   1.565 -0.0999  0.2527  0.3160
 5189SOL     OW20527   3.295   5.701   2.904 -0.1465  0.0165  0.1228
 5189SOL    HW220528   3.286   5.607   2.921 -2.3499 -0.2747 -2.0810
 5189SOL    HW320529   3.206   5.736   2.913  0.3180  1.5625 -0.8510
 5189SOL    MW420530   3.282   5.693   2.907 -0.3045 -0.2189  0.0854
 5190SOL     OW20531   6.251   1.392   2.414  0.0650  0.9585 -0.6151
 5190SOL    HW220532   6.191   1.417   2.343  1.0347  1.6571 -1.2068
 5190SOL    HW320533   6.223   1.304   2.438 -1.9480  1.6772 -0.0734
 5190SOL    MW420534   6.239   1.384   2.408  0.6743 -0.1931 -0.2390
 5191SOL     OW20535   2.369   4.286   4.975 -0.0638  0.3306  0.5150
 5191SOL    HW220536   2.341   4.365   4.929 -1.8852 -0.8390 -0.5544
 5191SOL    HW320537   2.404   4.229   4.906 -0.6819 -0.5512  0.9002
 5191SOL    MW420538   2.370   4.289   4.959  0.4759 -0.2102  0.5280
 5192SOL     OW20539   1.254   2.939   0.725  0.0988 -0.3628  0.3863
 5192SOL    HW220540   1.198   2.971   0.795  0.4493 -2.1134  1.5499
 5192SOL    HW320541   1.194   2.897   0.663 -0.1914  1.0028 -0.2847
 5192SOL    MW420542   1.239   2.938   0.726  0.1730 -0.7009 -1.1962
 5193SOL     OW20543   2.271   0.428   0.713  0.2570  0.2145 -0.1305
 5193SOL    HW220544   2.286   0.473   0.796  0.4820  2.5399 -1.3645
 5193SOL    HW320545   2.353   0.438   0.664 -0.2667 -0.0822 -1.0997
 5193SOL    MW420546   2.284   0.435   0.718 -0.5886 -0.2270 -0.5175
 5194SOL     OW20547   0.705   4.072   6.234  0.3313 -0.4232 -0.0528
 5194SOL    HW220548   0.750   4.145   6.277  1.5841 -0.6924 -0.8816
 5194SOL    HW320549   0.663   4.112   6.157  0.4998 -0.4650 -0.1662
 5194SOL    MW420550   0.705   4.087   6.229  0.4145  0.3577  0.3326
 5195SOL     OW20551   0.183   4.455   3.285 -0.1131  0.2099  0.2731
 5195SOL    HW220552   0.202   4.504   3.365  0.9898 -0.1980  0.2740
 5195SOL    HW320553   0.099   4.411   3.303 -0.4116  0.9693  0.7853
 5195SOL    MW420554   0.174   4.456   3.298  0.1845  0.7076  0.6870
 5196SOL     OW20555   2.910   5.600   4.684 -0.0828 -0.0009 -0.3755
 5196SOL    HW220556   2.886   5.665   4.618 -1.1908 -0.4694 -0.4627
 5196SOL    HW320557   2.985   5.554   4.647  0.5141  0.9995 -0.4507
 5196SOL    MW420558   2.917   5.603   4.671  0.6678  0.2392  0.1146
 5197SOL     OW20559   6.208   3.304   1.864  0.9901  0.0540 -0.6313
 5197SOL    HW220560   6.122   3.328   1.828  1.2184  0.8092 -0.6866
 5197SOL    HW320561   6.199   3.212   1.889 -0.5284  0.6880  1.4081
 5197SOL    MW420562   6.195   3.295   1.862  0.0568 -0.3116 -0.2685
 5198SOL     OW20563   5.745   5.847   1.892 -0.3893 -0.1769 -0.2165
 5198SOL    HW220564   5.777   5.937   1.897  0.8505 -0.6659  1.4003
 5198SOL    HW320565   5.807   5.803   1.833  0.4476 -0.5159  0.8905
 5198SOL    MW420566   5.757   5.853   1.885 -0.5111  1.0517 -0.1340
 5199SOL     OW20567   3.896   0.419   0.443 -0.4297  0.3860  0.2721
 5199SOL    HW220568   3.815   0.375   0.418 -0.3153  0.3512 -0.0448
 5199SOL    HW320569   3.923   0.375   0.523 -0.4251  0.0137  0.0689
 5199SOL    MW420570   3.889   0.408   0.450 -0.3844  0.1396 -0.2267
 5200SOL     OW20571   2.195   3.346   3.478 -0.3436 -0.9162 -0.2595
 5200SOL    HW220572   2.271   3.384   3.524 -0.0929  0.7070 -1.8806
 5200SOL    HW320573   2.119   3.378   3.527 -0.0641  0.1904 -0.5237
 5200SOL    MW420574   2.195   3.356   3.491  0.2358  0.3680 -0.9582
 5201SOL     OW20575   0.910   5.702   3.308  0.1171  0.6649 -0.3899
 5201SOL    HW220576   0.836   5.723   3.366 -0.5572  1.7763 -1.5908
 5201SOL    HW320577   0.954   5.786   3.295  1.4010  0.0777  0.0054
 5201SOL    MW420578   0.906   5.716   3.314  0.3037  0.3709 -0.0122
 5202SOL     OW20579   4.520   3.233   1.096 -0.2409  0.1797  0.0188
 5202SOL    HW220580   4.571   3.160   1.132 -2.2659 -0.9766  0.6520
 5202SOL    HW320581   4.557   3.248   1.009  0.2901 -1.5295 -0.0776
 5202SOL    MW420582   4.532   3.225   1.090 -0.0534 -0.3142  0.8090
 5203SOL     OW20583   4.375   0.905   1.823  0.5265 -0.5051  0.0018
 5203SOL    HW220584   4.436   0.841   1.860  1.4085  0.4059  0.1702
 5203SOL    HW320585   4.400   0.988   1.863 -0.2139  0.0466 -0.6506
 5203SOL    MW420586   4.386   0.907   1.833 -0.6132 -0.0097 -0.0457
 5204SOL     OW20587   3.693   3.411   3.749 -0.2806 -0.4595 -0.0104
 5204SOL    HW220588   3.706   3.340   3.686  0.7859 -1.0787  0.8655
 5204SOL    HW320589   3.771   3.408   3.805 -0.4231  1.1339  0.3160
 5204SOL    MW420590   3.705   3.401   3.748 -0.4217  0.1528 -0.0651
 5205SOL     OW20591   0.685   1.736   1.230 -0.2297  0.1594 -0.4701
 5205SOL    HW220592   0.719   1.805   1.286  1.2914  0.4012 -1.6152
 5205SOL    HW320593   0.645   1.673   1.290 -0.0352  1.1566  0.7300
 5205SOL    MW420594   0.684   1.737   1.245  0.1365  0.1140  0.1616
 5206SOL     OW20595   1.636   0.258   0.910  0.2910  0.3186 -0.2796
 5206SOL    HW220596   1.616   0.214   0.993  2.9341 -1.0673 -0.2913
 5206SOL    HW320597   1.550   0.276   0.872 -1.0803  2.1149  3.2504
 5206SOL    MW420598   1.622   0.254   0.916  0.0738 -0.3022  0.0755
 5207SOL     OW20599   2.528   0.514   0.619 -0.2355 -0.3850 -0.5789
 5207SOL    HW220600   2.591   0.485   0.553 -0.4767 -1.0809 -0.5097
 5207SOL    HW320601   2.577   0.575   0.674  0.0284  0.0413 -1.2699
 5207SOL    MW420602   2.543   0.518   0.617  0.3696  0.5438 -0.4651
 5208SOL     OW20603   1.750   2.470   0.660 -0.3688 -0.3470 -0.5916
 5208SOL    HW220604   1.763   2.531   0.587 -1.5373  0.1675 -0.3909
 5208SOL    HW320605   1.659   2.441   0.651 -0.5415 -0.2529  0.6762
 5208SOL    MW420606   1.740   2.475   0.649  0.1512  0.3505  0.8804
 5209SOL     OW20607   3.428   5.262   0.359  0.0686 -0.5714  1.0435
 5209SOL    HW220608   3.337   5.286   0.375 -0.4993 -0.5579 -1.7375
 5209SOL    HW320609   3.425   5.171   0.331  0.6531 -0.1239 -0.6104
 5209SOL    MW420610   3.416   5.253   0.358 -0.0067 -0.0093  0.0538
 5210SOL     OW20611   0.414   4.672   5.115 -0.1784  0.7264  0.0703
 5210SOL    HW220612   0.391   4.749   5.062 -0.6329 -0.5316 -1.6360
 5210SOL    HW320613   0.330   4.632   5.137  0.1007 -0.5848 -1.1078
 5210SOL    MW420614   0.400   4.677   5.111 -0.3019  0.2957 -0.4621
 5211SOL     OW20615   5.684   5.633   4.370  0.3406  0.1355 -0.0823
 5211SOL    HW220616   5.628   5.556   4.367 -0.8631  1.0224 -2.6032
 5211SOL    HW320617   5.639   5.693   4.430  0.4527 -0.4665  0.6236
 5211SOL    MW420618   5.671   5.631   4.378 -0.2824  0.2319  0.0088
 5212SOL     OW20619   5.956   0.798   1.602 -0.0614  0.0787 -1.2743
 5212SOL    HW220620   5.881   0.788   1.544 -0.0563  0.0169 -1.2693
 5212SOL    HW320621   5.956   0.892   1.624  0.1264  0.1634 -1.6267
 5212SOL    MW420622   5.946   0.809   1.598  0.2067 -0.4936 -0.3302
 5213SOL     OW20623   2.341   2.313   1.961 -0.5178 -0.3239 -0.5300
 5213SOL    HW220624   2.341   2.406   1.983 -0.5498 -0.3693 -0.3335
 5213SOL    HW320625   2.249   2.292   1.944 -0.6983 -0.6116  0.7003
 5213SOL    MW420626   2.329   2.323   1.961 -0.8430 -0.0895  0.4276
 5214SOL     OW20627   2.826   3.941   2.261  0.1079  0.4969  0.3185
 5214SOL    HW220628   2.752   3.880   2.260  1.1234 -0.7724  0.2639
 5214SOL    HW320629   2.838   3.965   2.168  0.2841  0.0622  0.2299
 5214SOL    MW420630   2.817   3.936   2.248  0.3870 -0.3375  0.0136
 5215SOL     OW20631   3.333   4.960   1.129  0.1122 -0.2056  0.5007
 5215SOL    HW220632   3.336   4.868   1.155 -0.9406  0.3711  2.8658
 5215SOL    HW320633   3.246   4.971   1.091  0.3282 -0.2167 -0.0093
 5215SOL    MW420634   3.322   4.949   1.127  0.3965 -0.4807 -0.7612
 5216SOL     OW20635   1.005   6.405   4.343 -0.0069  0.3961  0.1094
 5216SOL    HW220636   1.082   6.403   4.400  0.0169 -0.5176  0.0575
 5216SOL    HW320637   1.038   6.440   4.260  0.7944 -1.6520 -0.5101
 5216SOL    MW420638   1.020   6.409   4.340  0.3567 -0.1619  0.0075
 5217SOL     OW20639   0.988   0.083   5.357  0.8161 -1.0629 -0.5527
 5217SOL    HW220640   0.942   0.149   5.305 -1.2458 -2.5270 -0.7483
 5217SOL    HW320641   0.977   0.112   5.448 -0.0313 -1.0735 -0.6395
 5217SOL    MW420642   0.980   0.096   5.362 -0.1437  0.2556 -0.4313
 5218SOL     OW20643   2.482   2.490   0.926 -0.4959  0.6041  0.0730
 5218SOL    HW220644   2.445   2.529   0.847 -1.0218  0.5700  0.3001
 5218SOL    HW320645   2.560   2.543   0.943 -1.7986  2.3482  1.0108
 5218SOL    MW420646   2.487   2.502   0.918 -0.2122 -0.2752  0.6567
 5219SOL     OW20647   6.189   3.472   6.433  0.5118 -0.2796  0.4044
 5219SOL    HW220648   6.156   3.461   6.343 -0.3459 -0.1484  0.6924
 5219SOL    HW320649   6.241   3.394   6.450  1.2471  0.0078 -0.4452
 5219SOL    MW420650   6.191   3.460   6.423  0.2124  0.8841 -0.5298
 5220SOL     OW20651   0.768   4.864   1.181 -0.3726 -1.1007  0.0757
 5220SOL    HW220652   0.759   4.943   1.233 -1.1106 -1.8599  1.1485
 5220SOL    HW320653   0.692   4.864   1.123 -0.4959 -1.1387  0.2373
 5220SOL    MW420654   0.757   4.874   1.180  0.1299 -0.1023 -0.5456
 5221SOL     OW20655   4.136   6.365   1.254 -0.2876 -0.1068 -0.0905
 5221SOL    HW220656   4.168   6.404   1.335  0.1965 -0.1046 -0.2849
 5221SOL    HW320657   4.165   6.274   1.257  0.3377  0.0722 -0.5874
 5221SOL    MW420658   4.144   6.358   1.265  0.4254  0.2851  0.9553
 5222SOL     OW20659   5.950   2.026   0.683 -0.0233 -0.6153 -0.1939
 5222SOL    HW220660   5.940   1.958   0.749 -1.3579 -1.6101 -1.3624
 5222SOL    HW320661   5.889   2.001   0.613 -0.6357  1.8543 -0.6226
 5222SOL    MW420662   5.941   2.014   0.682  0.1758  0.7120  0.7070
 5223SOL     OW20663   0.441   3.890   5.966 -0.0480  0.2591  0.6670
 5223SOL    HW220664   0.484   3.824   5.912 -3.0298 -0.9454 -0.4775
 5223SOL    HW320665   0.427   3.846   6.050 -0.8889 -0.1327  0.3310
 5223SOL    MW420666   0.445   3.876   5.970  0.2819  0.1473  0.1932
 5224SOL     OW20667   4.179   1.830   4.615 -0.6213 -0.2607 -0.3001
 5224SOL    HW220668   4.245   1.890   4.650 -1.2203  0.2296  0.0104
 5224SOL    HW320669   4.114   1.823   4.685 -2.4432  1.6264 -1.6648
 5224SOL    MW420670   4.179   1.837   4.629 -0.2201 -0.2859 -0.3962
 5225SOL     OW20671   5.709   1.020   4.014 -0.1054 -0.0897 -0.4022
 5225SOL    HW220672   5.668   1.106   4.015  0.3292  0.1254  0.3763
 5225SOL    HW320673   5.667   0.972   4.086  0.9022  0.1027  0.3415
 5225SOL    MW420674   5.698   1.025   4.024  0.0723 -0.0802  0.6283
 5226SOL     OW20675   4.628   4.203   1.734  0.3644  0.0636 -0.2708
 5226SOL    HW220676   4.637   4.263   1.808  0.5699 -0.0829 -0.1717
 5226SOL    HW320677   4.599   4.257   1.661  0.9708  0.3618 -0.2960
 5226SOL    MW420678   4.625   4.218   1.734 -0.2663  0.0767 -0.0499
 5227SOL     OW20679   1.946   4.545   4.164 -0.4078 -0.2451  0.3138
 5227SOL    HW220680   2.030   4.504   4.182  0.0057 -0.6275 -2.1717
 5227SOL    HW320681   1.884   4.496   4.218  0.8046 -0.6753  1.3600
 5227SOL    MW420682   1.949   4.533   4.173  0.3459  0.6630 -0.4042
 5228SOL     OW20683   2.309   2.816   6.087  0.1056  0.1025  0.5446
 5228SOL    HW220684   2.229   2.782   6.047  0.2031  0.6112 -0.1057
 5228SOL    HW320685   2.354   2.861   6.015  1.5956 -1.2593  0.5822
 5228SOL    MW420686   2.304   2.818   6.072  0.1229 -0.9080  0.1408
 5229SOL     OW20687   4.759   0.385   2.522  0.4871 -0.2735 -0.0210
 5229SOL    HW220688   4.747   0.459   2.462  2.9059  1.1009  1.0297
 5229SOL    HW320689   4.679   0.382   2.574 -0.1980  0.7355 -0.9835
 5229SOL    MW420690   4.747   0.394   2.521 -0.0779 -0.4173  0.0428
 5230SOL     OW20691   1.071   2.440   3.426  0.1947  0.1116 -0.9558
 5230SOL    HW220692   1.127   2.370   3.393  0.5365  0.4752 -1.1511
 5230SOL    HW320693   1.113   2.468   3.507  0.2897  0.3707 -1.0921
 5230SOL    MW420694   1.084   2.434   3.432 -0.3242 -0.2734 -0.3626
 5231SOL     OW20695   4.606   1.917   0.518  0.4883 -0.0373 -0.4089
 5231SOL    HW220696   4.699   1.936   0.525  0.4944  0.2014 -1.0780
 5231SOL    HW320697   4.563   2.001   0.536  0.3648 -0.2816  0.5358
 5231SOL    MW420698   4.612   1.931   0.522  0.0348 -0.4092  0.3271
 5232SOL     OW20699   5.217   1.020   1.041 -0.6235 -0.2632  0.4105
 5232SOL    HW220700   5.286   1.065   1.090  0.1931  1.3916 -2.0645
 5232SOL    HW320701   5.147   1.006   1.106  1.5472 -1.0858  2.7638
 5232SOL    MW420702   5.217   1.024   1.056 -0.0581 -0.3632 -0.1190
 5233SOL     OW20703   4.153   3.067   0.559 -0.3122 -0.3800  0.3721
 5233SOL    HW220704   4.089   2.996   0.561 -0.1641 -0.5240 -0.0610
 5233SOL    HW320705   4.156   3.098   0.650  1.3718 -2.5090  1.1141
 5233SOL    MW420706   4.145   3.062   0.572  0.1934  0.1424 -0.1668
 5234SOL     OW20707   1.205   5.784   3.859  0.3284  0.2729  0.0603
 5234SOL    HW220708   1.248   5.857   3.903 -1.4612  1.2840  0.2157
 5234SOL    HW320709   1.187   5.722   3.929 -2.3071  1.7768  0.8356
 5234SOL    MW420710   1.209   5.785   3.874  0.0149 -0.3744  0.1924
 5235SOL     OW20711   5.612   1.827   4.290 -0.7272 -0.1405 -0.3894
 5235SOL    HW220712   5.625   1.823   4.385  1.6461 -0.3808 -0.6629
 5235SOL    HW320713   5.586   1.918   4.273 -0.8818 -0.0185  0.4513
 5235SOL    MW420714   5.610   1.839   4.300  0.0848 -0.4102  0.3056
 5236SOL     OW20715   3.491   1.002   2.447  0.6726 -0.1615 -0.3891
 5236SOL    HW220716   3.573   1.003   2.497  0.8547 -1.3113 -0.6340
 5236SOL    HW320717   3.483   0.911   2.417 -1.5600 -0.5231  1.0677
 5236SOL    MW420718   3.501   0.990   2.450 -0.1567  0.4367 -0.2912
 5237SOL     OW20719   3.937   1.497   2.859  0.0192 -0.2134 -0.1300
 5237SOL    HW220720   3.998   1.565   2.886  0.0512 -1.0512  2.1249
 5237SOL    HW320721   3.864   1.504   2.921 -1.4388 -0.3153 -1.7303
 5237SOL    MW420722   3.935   1.507   2.870  0.4334  0.2320  0.4184
 5238SOL     OW20723   0.321   5.744   1.409 -0.5661  0.0280  0.5065
 5238SOL    HW220724   0.259   5.817   1.400 -1.7110 -1.0622 -1.1429
 5238SOL    HW320725   0.330   5.710   1.320  0.7624 -1.1818  1.0784
 5238SOL    MW420726   0.314   5.749   1.396 -0.0940 -0.3749  0.7531
 5239SOL     OW20727   5.873   2.264   0.786 -0.4977 -0.2261 -0.4727
 5239SOL    HW220728   5.898   2.261   0.878 -0.1389  0.0610 -0.5579
 5239SOL    HW320729   5.902   2.180   0.750  1.2430  0.4544 -0.7858
 5239SOL    MW420730   5.880   2.253   0.793 -0.5958  0.2137 -0.0673
 5240SOL     OW20731   1.564   0.242   5.610  0.5453 -0.0953  0.3584
 5240SOL    HW220732   1.590   0.184   5.538  1.2797 -0.6211  1.0174
 5240SOL    HW320733   1.609   0.206   5.686  1.4220  1.6318  0.7059
 5240SOL    MW420734   1.574   0.229   5.610 -0.0329  0.3471  0.2227
 5241SOL     OW20735   3.779   5.965   3.204 -0.3924 -0.1613 -0.3827
 5241SOL    HW220736   3.814   5.936   3.289 -0.1230  0.6975 -0.1929
 5241SOL    HW320737   3.722   6.039   3.227  0.6443  0.8703 -1.0707
 5241SOL    MW420738   3.776   5.971   3.218 -0.1288  0.2466 -0.5085
 5242SOL     OW20739   5.278   3.363   4.597 -0.7567  0.5222 -0.1150
 5242SOL    HW220740   5.210   3.329   4.655 -1.3521  0.5720 -0.7671
 5242SOL    HW320741   5.360   3.348   4.644 -0.7486 -3.4650 -1.0665
 5242SOL    MW420742   5.280   3.357   4.611 -0.5686  0.4457  0.0504
 5243SOL     OW20743   3.681   5.905   3.985  0.4518  0.2657  0.2266
 5243SOL    HW220744   3.737   5.954   3.924 -0.3160  0.7320 -0.1328
 5243SOL    HW320745   3.718   5.923   4.071 -0.8791  3.1012  0.3283
 5243SOL    MW420746   3.693   5.914   3.988 -0.2092  0.3853  0.3234
 5244SOL     OW20747   1.796   3.280   4.612  0.0264 -0.2923 -0.7848
 5244SOL    HW220748   1.844   3.348   4.659  0.6283 -1.1300 -0.1545
 5244SOL    HW320749   1.855   3.205   4.611 -1.5886 -1.6864  0.8712
 5244SOL    MW420750   1.810   3.279   4.618 -0.1201 -0.1004  0.1315
 5245SOL     OW20751   3.227   4.867   3.947 -0.1527 -0.3724  0.1136
 5245SOL    HW220752   3.306   4.917   3.925 -0.2788 -0.3879 -0.3888
 5245SOL    HW320753   3.249   4.777   3.925 -0.6120 -0.2558 -0.8917
 5245SOL    MW420754   3.240   4.862   3.941  0.2283 -0.2013 -0.2181
 5246SOL     OW20755   5.976   5.186   3.476 -0.0735 -0.3831 -0.0325
 5246SOL    HW220756   5.946   5.247   3.408 -2.1094 -0.2923  0.8600
 5246SOL    HW320757   6.051   5.230   3.517 -0.2516  0.5934 -0.7268
 5246SOL    MW420758   5.982   5.200   3.473 -0.1584  0.4277  0.1566
 5247SOL     OW20759   3.282   2.677   1.393 -0.1511 -0.5251  0.0337
 5247SOL    HW220760   3.289   2.605   1.329 -0.8190 -0.5741  0.0125
 5247SOL    HW320761   3.192   2.671   1.426 -0.4623  0.7727 -0.5277
 5247SOL    MW420762   3.271   2.667   1.389  0.1100  0.4176 -0.4454
 5248SOL     OW20763   1.348   3.411   3.439  0.3693 -1.0337 -0.2014
 5248SOL    HW220764   1.321   3.473   3.371  2.2995  1.4890  1.1715
 5248SOL    HW320765   1.401   3.347   3.391  0.8746  0.1242 -1.2738
 5248SOL    MW420766   1.351   3.411   3.423  0.1106  0.2289 -0.5003
 5249SOL     OW20767   3.948   0.328   5.657  0.3329  0.7439  0.2225
 5249SOL    HW220768   4.010   0.293   5.721  0.2259  0.8102  0.3613
 5249SOL    HW320769   3.996   0.397   5.612  1.2265 -0.8266 -1.3923
 5249SOL    MW420770   3.963   0.332   5.659 -0.6086 -0.0629 -0.5748
 5250SOL     OW20771   2.796   6.170   3.660 -0.1423 -0.3372 -0.1068
 5250SOL    HW220772   2.881   6.136   3.689  2.0294  2.6131 -2.3889
 5250SOL    HW320773   2.795   6.260   3.692 -1.8960  0.0564 -1.1754
 5250SOL    MW420774   2.807   6.177   3.668  0.1955  0.2081  0.6812
 5251SOL     OW20775   5.426   1.520   3.526  0.0924  0.1146 -0.3480
 5251SOL    HW220776   5.354   1.581   3.541 -0.8659 -0.8071 -1.1038
 5251SOL    HW320777   5.483   1.531   3.602 -1.7066 -0.3712  1.1369
 5251SOL    MW420778   5.424   1.530   3.538  0.4709 -0.2582  0.2049
 5252SOL     OW20779   2.401   0.328   1.690 -0.5527  0.0620 -0.9319
 5252SOL    HW220780   2.371   0.329   1.599 -0.7505  2.1460 -0.8842
 5252SOL    HW320781   2.425   0.419   1.708  1.9742 -0.7605  0.3025
 5252SOL    MW420782   2.401   0.340   1.680  0.3156  0.3968 -0.2579
 5253SOL     OW20783   0.640   5.766   2.651 -0.1671 -0.0177  0.4035
 5253SOL    HW220784   0.574   5.724   2.707  1.0089 -1.6786  0.6163
 5253SOL    HW320785   0.701   5.807   2.713 -1.0506  1.7259  0.2020
 5253SOL    MW420786   0.639   5.766   2.667  0.2104  0.3540  0.0157
 5254SOL     OW20787   3.340   5.831   6.349  0.8385 -0.2866 -0.2363
 5254SOL    HW220788   3.375   5.849   6.262  2.6402 -1.4530  0.1990
 5254SOL    HW320789   3.306   5.741   6.343 -1.2508  0.4435 -0.3473
 5254SOL    MW420790   3.340   5.821   6.337  0.1134 -0.3148  0.3035
 5255SOL     OW20791   1.410   0.970   0.139  0.5048 -0.5335  0.0622
 5255SOL    HW220792   1.472   0.898   0.127 -1.1612 -1.9146 -0.8199
 5255SOL    HW320793   1.446   1.042   0.086  2.2513 -0.6356  1.0294
 5255SOL    MW420794   1.423   0.970   0.130 -0.0567  0.2889 -0.5557
 5256SOL     OW20795   1.360   0.321   1.749  0.2091 -0.0074 -0.3818
 5256SOL    HW220796   1.268   0.334   1.772  0.0406 -1.8848  0.1946
 5256SOL    HW320797   1.361   0.318   1.654 -0.5538 -1.2552 -0.3729
 5256SOL    MW420798   1.348   0.322   1.740 -0.0444  0.3104 -0.0699
 5257SOL     OW20799   4.195   2.499   6.313  0.0495  0.0374  0.3290
 5257SOL    HW220800   4.147   2.488   6.395 -0.5659  0.2128  0.0010
 5257SOL    HW320801   4.287   2.492   6.337 -0.1663 -1.2551  0.8198
 5257SOL    MW420802   4.201   2.497   6.327  0.0018  0.6318  0.6485
 5258SOL     OW20803   5.843   5.335   4.975 -0.2492  0.0078  0.0597
 5258SOL    HW220804   5.855   5.393   5.050 -0.1410  0.9507 -0.6645
 5258SOL    HW320805   5.846   5.394   4.899  2.0065 -1.2040 -0.8563
 5258SOL    MW420806   5.845   5.351   4.975  0.0778 -0.4782  0.0058
 5259SOL     OW20807   1.515   0.626   2.590 -0.5836  0.1546  0.1110
 5259SOL    HW220808   1.526   0.532   2.596  1.1966  0.3652  0.5148
 5259SOL    HW320809   1.456   0.648   2.663  0.3277 -0.4564  1.0522
 5259SOL    MW420810   1.509   0.617   2.600  0.0704 -0.0255  0.0989
 5260SOL     OW20811   0.003   4.922   0.863  0.0568  0.1635  0.7365
 5260SOL    HW220812  -0.005   4.873   0.945  0.0635  0.5913  0.9951
 5260SOL    HW320813  -0.056   4.997   0.874 -0.9900 -0.5040 -0.1992
 5260SOL    MW420814  -0.005   4.925   0.875  0.3910  0.1126 -0.1773
 5261SOL     OW20815   4.214   2.969   1.330  0.3332  0.4428  0.5692
 5261SOL    HW220816   4.153   2.903   1.364  0.1893  0.0531 -0.4159
 5261SOL    HW320817   4.193   2.976   1.237  1.2652  0.8823  0.3790
 5261SOL    MW420818   4.203   2.961   1.322  0.1201  0.3834 -0.0290
 5262SOL     OW20819   2.640   4.473   4.775 -0.1666 -0.4396 -0.0469
 5262SOL    HW220820   2.585   4.519   4.838 -0.2334 -0.7763  0.1418
 5262SOL    HW320821   2.681   4.403   4.826 -0.6758 -1.0796 -0.5087
 5262SOL    MW420822   2.638   4.470   4.790 -0.1364 -0.0149  0.0804
 5263SOL     OW20823   2.119   5.621   3.562  0.0653 -0.2699 -0.4229
 5263SOL    HW220824   2.191   5.676   3.531  0.5711 -0.8643 -0.3202
 5263SOL    HW320825   2.050   5.683   3.587 -0.0173  0.2546 -1.8638
 5263SOL    MW420826   2.119   5.636   3.561  0.7528 -0.0648  0.5603
 5264SOL     OW20827   5.537   2.527   5.673  0.4348 -0.2646  0.2622
 5264SOL    HW220828   5.527   2.452   5.613  0.9405 -1.5052  1.6562
 5264SOL    HW320829   5.493   2.499   5.753  0.0879  1.2164  0.6169
 5264SOL    MW420830   5.530   2.513   5.675 -0.0502 -0.6492 -0.3876
 5265SOL     OW20831   3.608   3.430   3.072  0.0654  0.1152  0.7152
 5265SOL    HW220832   3.528   3.409   3.121  0.5902  0.4864  1.7702
 5265SOL    HW320833   3.666   3.354   3.088 -0.2131 -0.3389 -0.3761
 5265SOL    MW420834   3.605   3.417   3.081  0.5328 -0.3744 -0.5445
 5266SOL     OW20835   6.292   2.583   4.230  0.1437  0.2006 -0.5237
 5266SOL    HW220836   6.217   2.637   4.255  0.5684 -0.0394  1.4294
 5266SOL    HW320837   6.367   2.626   4.271  0.5360 -1.6499  0.8431
 5266SOL    MW420838   6.292   2.596   4.238  0.4576 -0.1161  0.1606
 5267SOL     OW20839   3.779   1.026   0.621  0.3004 -0.5976  0.5686
 5267SOL    HW220840   3.850   1.031   0.685  0.7693 -1.1206  0.1069
 5267SOL    HW320841   3.786   0.937   0.585 -0.4472 -0.5766  0.3537
 5267SOL    MW420842   3.789   1.015   0.624  0.4710 -0.2351  0.1892
 5268SOL     OW20843   0.404   5.466   1.862  0.5209 -0.3118 -0.3038
 5268SOL    HW220844   0.357   5.454   1.945  0.4411 -1.1812 -0.4557
 5268SOL    HW320845   0.403   5.560   1.846 -3.2281 -0.3695 -1.4312
 5268SOL    MW420846   0.397   5.477   1.870 -0.4168  0.1046  0.1202
 5269SOL     OW20847   3.643   2.583   5.980  0.1318 -0.3873 -0.2652
 5269SOL    HW220848   3.725   2.615   6.018  0.0309  2.0340 -1.9141
 5269SOL    HW320849   3.660   2.578   5.886 -1.3349 -0.8011 -0.5298
 5269SOL    MW420850   3.656   2.586   5.973 -0.2894  0.0626  0.1956
 5270SOL     OW20851   2.508   5.257   1.831 -0.2483  0.0502 -0.4970
 5270SOL    HW220852   2.590   5.296   1.860 -0.4265  0.5444 -0.6560
 5270SOL    HW320853   2.446   5.330   1.828 -0.5706 -0.2341 -0.8476
 5270SOL    MW420854   2.510   5.272   1.835  0.6605 -0.6927 -0.4831
 5271SOL     OW20855   1.856   5.906   5.456  0.0845  0.2026 -0.3301
 5271SOL    HW220856   1.780   5.938   5.407  0.9183  1.2379 -0.9840
 5271SOL    HW320857   1.843   5.938   5.545 -0.6544 -0.3526 -0.2258
 5271SOL    MW420858   1.844   5.914   5.461  0.0358 -0.0483  0.2712
 5272SOL     OW20859   4.219   4.396   2.116  0.1720 -0.7060  0.4122
 5272SOL    HW220860   4.199   4.489   2.123  0.6907 -0.2531 -2.7583
 5272SOL    HW320861   4.151   4.361   2.058 -0.1532 -2.3978  1.7396
 5272SOL    MW420862   4.208   4.404   2.109 -0.3999 -0.0919 -0.0636
 5273SOL     OW20863   3.303   4.388   1.940  0.1048 -0.0397 -0.3444
 5273SOL    HW220864   3.227   4.340   1.907  1.2926 -1.5952 -0.9727
 5273SOL    HW320865   3.279   4.480   1.932 -1.4149 -0.4740 -1.2475
 5273SOL    MW420866   3.290   4.394   1.934  0.3992  0.2045 -0.0437
 5274SOL     OW20867   3.120   0.479   2.963 -0.2764 -0.4603 -0.0226
 5274SOL    HW220868   3.073   0.402   2.994  2.0994 -2.2835 -0.6569
 5274SOL    HW320869   3.095   0.549   3.024 -2.2716 -1.7594  0.7432
 5274SOL    MW420870   3.111   0.478   2.975  0.0304 -0.5830  0.7095
 5275SOL     OW20871   4.546   2.762   2.429  0.3275  0.2718 -0.5659
 5275SOL    HW220872   4.455   2.768   2.400 -0.2190 -0.9959  0.7613
 5275SOL    HW320873   4.591   2.833   2.382 -1.7175  2.1634  0.1560
 5275SOL    MW420874   4.540   2.772   2.419 -0.1243  0.6645  0.0592
 5276SOL     OW20875   2.556   6.317   0.665 -0.4248  0.4083  0.2970
 5276SOL    HW220876   2.626   6.374   0.698  1.1749 -0.5140 -1.3043
 5276SOL    HW320877   2.519   6.364   0.591 -0.1168  0.0459 -0.0953
 5276SOL    MW420878   2.561   6.331   0.659 -0.3482  0.3271  0.1064
 5277SOL     OW20879   5.033   5.888   0.853  0.5468  0.7909 -0.7119
 5277SOL    HW220880   5.118   5.926   0.829 -0.1911  2.0972 -1.3871
 5277SOL    HW320881   5.001   5.946   0.923  1.2036 -1.0510  1.2303
 5277SOL    MW420882   5.040   5.901   0.859  0.3978 -0.0438 -0.3501
 5278SOL     OW20883   4.509   0.937   0.641  0.2122 -0.5213 -0.5055
 5278SOL    HW220884   4.557   0.863   0.680  2.0675  0.9481  0.1499
 5278SOL    HW320885   4.509   1.003   0.710  0.3547  0.8130 -1.7523
 5278SOL    MW420886   4.515   0.936   0.656  0.2140 -0.7336 -0.5628
 5279SOL     OW20887   2.813   0.234   5.588 -0.1221  0.2033  0.5179
 5279SOL    HW220888   2.755   0.161   5.566 -0.0964  0.1762  0.5405
 5279SOL    HW320889   2.900   0.194   5.595  0.4213  0.6971 -2.3314
 5279SOL    MW420890   2.817   0.219   5.586 -0.1807 -0.2647 -0.0118
 5280SOL     OW20891   0.360   1.141   2.367  0.3634  0.6763  0.1422
 5280SOL    HW220892   0.414   1.211   2.332 -0.4816  0.0769 -2.5690
 5280SOL    HW320893   0.371   1.147   2.462  3.7491  1.6608 -0.1956
 5280SOL    MW420894   0.368   1.151   2.375 -0.3311 -0.6092 -0.6286
 5281SOL     OW20895   2.898   1.994   4.402  0.5192  0.4545  0.1349
 5281SOL    HW220896   2.824   1.934   4.395  1.2917 -0.5192  0.1024
 5281SOL    HW320897   2.895   2.026   4.492  0.6628 -0.3970  0.4522
 5281SOL    MW420898   2.888   1.991   4.413  0.7300  0.1332  0.3344
 5282SOL     OW20899   4.836   5.564   2.041 -0.4668 -0.1246  0.0489
 5282SOL    HW220900   4.922   5.598   2.015  0.6580 -2.4145  0.5096
 5282SOL    HW320901   4.831   5.478   1.998 -2.7737  0.1570 -0.3677
 5282SOL    MW420902   4.846   5.557   2.032 -0.4865 -0.3437  0.3983
 5283SOL     OW20903   2.538   3.725   4.674 -0.0386 -0.1916  0.2955
 5283SOL    HW220904   2.572   3.675   4.748  1.5911  0.6343  0.1520
 5283SOL    HW320905   2.524   3.660   4.605  0.2258 -0.7157  0.7289
 5283SOL    MW420906   2.541   3.710   4.675 -0.3376 -0.2242 -0.2543
 5284SOL     OW20907   2.563   2.213   5.758 -0.1006 -0.2292 -0.1581
 5284SOL    HW220908   2.626   2.211   5.686  0.4780 -1.6412  0.3403
 5284SOL    HW320909   2.602   2.156   5.825 -0.1456  1.7894  1.7022
 5284SOL    MW420910   2.577   2.205   5.757 -0.3227  0.0667  0.3971
 5285SOL     OW20911   0.011   5.766   2.494  0.1711 -0.1841  0.0574
 5285SOL    HW220912   0.039   5.692   2.441  2.1009  0.0907  0.6218
 5285SOL    HW320913   0.071   5.766   2.569  0.6415  2.2951 -0.2294
 5285SOL    MW420914   0.023   5.756   2.497 -0.0267 -0.3369  0.1150
 5286SOL     OW20915   2.750   5.633   2.003 -0.1201 -0.4919 -0.4923
 5286SOL    HW220916   2.841   5.633   1.974 -0.5096  0.2121 -1.7492
 5286SOL    HW320917   2.749   5.691   2.079  0.5107 -0.6898 -0.3235
 5286SOL    MW420918   2.762   5.640   2.010  0.2851 -0.0765 -0.0433
 5287SOL     OW20919   2.118   0.897   3.841  0.1177 -0.2056 -0.5335
 5287SOL    HW220920   2.036   0.930   3.804 -0.0690 -0.4700 -0.3568
 5287SOL    HW320921   2.183   0.964   3.819 -0.8027  1.8200  2.3863
 5287SOL    MW420922   2.116   0.910   3.833 -0.5326 -0.3042 -0.1410
 5288SOL     OW20923   4.157   0.890   3.568 -0.2875  0.5504  0.2296
 5288SOL    HW220924   4.094   0.848   3.627 -0.0814 -0.4763 -0.2659
 5288SOL    HW320925   4.230   0.915   3.625 -0.1586 -0.2931  0.4479
 5288SOL    MW420926   4.158   0.888   3.584  0.0712  0.1925 -0.1445
 5289SOL     OW20927   2.045   1.297   0.362  0.7830  0.3797  0.0287
 5289SOL    HW220928   2.100   1.232   0.318 -1.2324 -0.6682 -1.0934
 5289SOL    HW320929   2.041   1.267   0.453 -1.5114 -2.2070 -0.8000
 5289SOL    MW420930   2.052   1.284   0.368  0.0687 -0.0670  0.3770
 5290SOL     OW20931   0.994   4.679   1.195 -0.1915 -0.4986 -0.0093
 5290SOL    HW220932   0.959   4.605   1.146 -0.2597 -0.6430  0.2572
 5290SOL    HW320933   0.921   4.740   1.202  0.0834 -0.0461 -0.9212
 5290SOL    MW420934   0.980   4.677   1.190 -0.1858  0.3108  0.2720
 5291SOL     OW20935   5.605   5.410   1.044 -0.5073 -0.2517 -0.0073
 5291SOL    HW220936   5.532   5.470   1.055 -0.0496  0.1914  0.6986
 5291SOL    HW320937   5.683   5.467   1.044 -0.1171 -0.7731 -0.1140
 5291SOL    MW420938   5.606   5.426   1.045 -0.1451 -0.1413 -0.1294
 5292SOL     OW20939   0.693   0.704   0.672 -0.3133 -0.1602  0.5604
 5292SOL    HW220940   0.768   0.646   0.660 -0.7842 -1.6084  3.7272
 5292SOL    HW320941   0.619   0.654   0.638 -0.3289 -0.1841  0.6303
 5292SOL    MW420942   0.693   0.690   0.666 -0.0940 -0.2750  0.5534
 5293SOL     OW20943   3.411   4.371   0.445  0.4118  0.2307 -0.3027
 5293SOL    HW220944   3.364   4.292   0.475 -2.1658  1.2885 -1.2759
 5293SOL    HW320945   3.350   4.443   0.462  2.3793  1.9518 -0.1729
 5293SOL    MW420946   3.397   4.370   0.451 -0.5260 -0.3155  0.1072
 5294SOL     OW20947   2.528   4.429   1.908  0.1083 -0.8277 -0.6237
 5294SOL    HW220948   2.555   4.339   1.888  2.2366 -0.2855 -0.3889
 5294SOL    HW320949   2.593   4.460   1.971 -0.1131  1.1471 -1.3118
 5294SOL    MW420950   2.540   4.421   1.914  0.1389 -0.7334  0.2095
 5295SOL     OW20951   3.204   3.472   4.819 -0.2911  0.0298  0.4568
 5295SOL    HW220952   3.195   3.501   4.728 -0.7023  0.0493  0.5026
 5295SOL    HW320953   3.244   3.385   4.812 -0.5239 -0.0612  0.2468
 5295SOL    MW420954   3.208   3.464   4.806  0.0965 -0.6856  0.9584
 5296SOL     OW20955   2.808   1.904   5.620  0.0171 -0.6940 -0.8025
 5296SOL    HW220956   2.822   1.857   5.538 -1.0556  2.0131 -2.6686
 5296SOL    HW320957   2.721   1.878   5.649  0.2899 -1.4513 -0.6445
 5296SOL    MW420958   2.799   1.894   5.613  0.7792 -0.3801  0.0129
 5297SOL     OW20959   2.735   4.496   3.467 -0.2844 -0.0350  0.6646
 5297SOL    HW220960   2.823   4.527   3.491 -1.0317  1.8671  1.1256
 5297SOL    HW320961   2.718   4.423   3.526  1.3480 -1.0873 -0.0921
 5297SOL    MW420962   2.744   4.491   3.478 -0.8048  0.1855 -0.1654
 5298SOL     OW20963   4.816   0.355   5.430  0.1111  0.3907 -0.7849
 5298SOL    HW220964   4.787   0.395   5.348 -0.3627  1.9053  0.0887
 5298SOL    HW320965   4.735   0.337   5.478  0.3206 -1.4783 -1.0544
 5298SOL    MW420966   4.801   0.358   5.425 -0.1351  0.2845  0.1428
 5299SOL     OW20967   2.135   5.345   2.232 -0.2833  0.1716 -0.9595
 5299SOL    HW220968   2.145   5.391   2.148 -2.1311  0.9560 -0.7896
 5299SOL    HW320969   2.174   5.259   2.216 -0.3473  0.3942 -2.5506
 5299SOL    MW420970   2.142   5.340   2.219  0.0494  0.7777  0.6947
 5300SOL     OW20971   4.636   4.645   2.809  0.4941  0.1676 -0.5648
 5300SOL    HW220972   4.719   4.687   2.790  0.6046 -0.3749 -1.3367
 5300SOL    HW320973   4.657   4.552   2.819  0.0101  0.0494 -0.5990
 5300SOL    MW420974   4.649   4.638   2.808 -0.4878 -0.1069  0.2835
 5301SOL     OW20975   3.852   5.497   3.263 -0.5427  0.5300 -0.0392
 5301SOL    HW220976   3.840   5.415   3.311  1.3123 -0.5048 -1.1690
 5301SOL    HW320977   3.783   5.497   3.196 -2.2857  1.3184  1.6749
 5301SOL    MW420978   3.842   5.486   3.260 -0.1447 -0.0415 -0.7324
 5302SOL     OW20979   3.066   4.735   2.890 -0.1272 -0.5767 -0.5201
 5302SOL    HW220980   3.036   4.825   2.900 -1.0448 -0.9350  0.1264
 5302SOL    HW320981   3.018   4.686   2.957 -0.1382 -1.6606 -1.2917
 5302SOL    MW420982   3.056   4.741   2.900 -1.1049  0.1542  0.4114
 5303SOL     OW20983   5.459   0.412   5.016  0.2518  0.0264 -0.0649
 5303SOL    HW220984   5.541   0.410   5.065  0.0245 -2.3301  0.3148
 5303SOL    HW320985   5.413   0.333   5.043 -1.6972  0.7552 -1.0709
 5303SOL    MW420986   5.464   0.401   5.026 -0.3206  0.1815 -0.2969
 5304SOL     OW20987   0.309   1.536   5.536 -0.0298  0.4351  0.3943
 5304SOL    HW220988   0.288   1.585   5.456 -0.5038 -2.6628 -1.5258
 5304SOL    HW320989   0.227   1.495   5.562  0.5471 -0.1528  1.3344
 5304SOL    MW420990   0.296   1.537   5.529  0.1397 -0.1674  0.5195
 5305SOL     OW20991   1.060   2.703   4.658 -0.0245 -0.7132  0.1049
 5305SOL    HW220992   0.996   2.638   4.685 -1.3211 -0.5524 -2.3412
 5305SOL    HW320993   1.111   2.660   4.589 -0.3067  0.5263 -0.9135
 5305SOL    MW420994   1.058   2.689   4.653 -0.2441 -0.1965  0.3728
 5306SOL     OW20995   6.112   2.878   0.901 -0.5841  0.5977  0.5787
 5306SOL    HW220996   6.181   2.821   0.933 -1.5350 -0.2727  1.1213
 5306SOL    HW320997   6.057   2.895   0.977 -2.3376 -0.7255 -0.3055
 5306SOL    MW420998   6.114   2.873   0.915 -0.6341 -0.2148 -0.2046
 5307SOL     OW20999   5.405   5.772   5.803 -0.1945 -0.1770  0.7435
 5307SOL    HW221000   5.449   5.856   5.814 -1.2157  0.5025 -0.0691
 5307SOL    HW321001   5.424   5.747   5.712 -1.4787  0.1639  0.3560
 5307SOL    MW421002   5.413   5.780   5.792 -0.1522  0.1100  0.1862
 5308SOL     OW21003   1.500   3.486   0.288 -0.2543  0.3396 -0.3987
 5308SOL    HW221004   1.525   3.533   0.209  0.8728  1.4039  0.5488
 5308SOL    HW321005   1.578   3.435   0.311 -0.6456 -0.1274 -0.0901
 5308SOL    MW421006   1.513   3.485   0.281  0.1361  0.0572 -0.2152
 5309SOL     OW21007   1.486   2.138   1.343  0.2753 -0.4183 -0.8334
 5309SOL    HW221008   1.492   2.100   1.255 -0.8051  0.2735 -1.2297
 5309SOL    HW321009   1.410   2.096   1.382  0.0522  0.1209 -0.6716
 5309SOL    MW421010   1.477   2.128   1.336  0.4120 -0.0215 -0.4104
 5310SOL     OW21011   3.439   6.048   4.823  0.5257  0.2769  0.3701
 5310SOL    HW221012   3.429   5.957   4.853 -1.0172  0.3177  0.0487
 5310SOL    HW321013   3.481   6.040   4.737 -0.8459 -0.2344 -0.2722
 5310SOL    MW421014   3.444   6.035   4.816 -0.5563  0.3849  0.1247
 5311SOL     OW21015   5.459   0.383   3.472 -0.0654 -0.8900  0.0077
 5311SOL    HW221016   5.538   0.388   3.526 -0.4486 -0.0334  0.5107
 5311SOL    HW321017   5.437   0.474   3.453  0.1941 -1.1744 -1.8196
 5311SOL    MW421018   5.467   0.396   3.477 -0.2657  0.5346  0.0111
 5312SOL     OW21019   2.149   5.403   5.435  0.1559 -0.0305 -0.1962
 5312SOL    HW221020   2.057   5.393   5.413 -0.1989 -0.3526  1.3121
 5312SOL    HW321021   2.160   5.498   5.449 -0.2055 -0.0909  0.5819
 5312SOL    MW421022   2.138   5.414   5.434  0.1141  0.7330  0.3069
 5313SOL     OW21023   3.842   6.345   0.385 -0.0716  0.6007 -0.0473
 5313SOL    HW221024   3.860   6.365   0.293 -2.4249 -0.0966 -0.7299
 5313SOL    HW321025   3.869   6.254   0.395  1.9114  1.2113  0.5029
 5313SOL    MW421026   3.848   6.335   0.374  0.1231 -0.8810  0.0255
 5314SOL     OW21027   0.899   3.819   3.724  0.3723 -0.4360  0.1792
 5314SOL    HW221028   0.969   3.863   3.676 -2.0663  1.5294 -1.8302
 5314SOL    HW321029   0.894   3.731   3.685  0.8400 -0.1296 -0.5912
 5314SOL    MW421030   0.908   3.813   3.713 -0.7468 -0.0278 -0.4373
 5315SOL     OW21031   3.888   5.423   5.689 -0.8475  0.0176  0.7489
 5315SOL    HW221032   3.870   5.381   5.605  1.0967 -0.4919  0.5293
 5315SOL    HW321033   3.812   5.403   5.743 -1.8652 -0.1469 -0.6996
 5315SOL    MW421034   3.876   5.415   5.685 -0.1391 -0.3362 -0.4907
 5316SOL     OW21035   1.697   3.383   0.673  0.0802  0.0230 -0.4380
 5316SOL    HW221036   1.602   3.390   0.679  0.1728  0.6547  0.4993
 5316SOL    HW321037   1.730   3.468   0.705  0.9790 -0.5344  0.1630
 5316SOL    MW421038   1.689   3.395   0.678  0.1703  0.0890 -0.2928
 5317SOL     OW21039   3.998   0.961   2.269 -0.0583  0.3048  0.3739
 5317SOL    HW221040   3.908   0.964   2.236  0.3556  1.2292 -0.7517
 5317SOL    HW321041   3.989   0.929   2.359 -1.2753 -1.8129 -0.4225
 5317SOL    MW421042   3.985   0.958   2.277  0.4356 -0.5457 -0.2536
 5318SOL     OW21043   5.735   6.012   1.210 -0.2042 -0.0267 -0.2048
 5318SOL    HW221044   5.685   6.088   1.181  0.0284  0.1879 -0.0475
 5318SOL    HW321045   5.827   6.040   1.204 -0.1581  0.0607  0.8821
 5318SOL    MW421046   5.741   6.025   1.205 -0.0373 -0.2034 -0.0262
 5319SOL     OW21047   5.365   5.316   1.516  0.5275  0.0648  0.7405
 5319SOL    HW221048   5.288   5.348   1.469 -0.9429  0.1728  3.0750
 5319SOL    HW321049   5.352   5.221   1.522  1.6500 -0.2175 -0.5764
 5319SOL    MW421050   5.353   5.307   1.511  0.1113 -0.2526  0.0706
 5320SOL     OW21051   5.408   2.027   2.314 -0.5111 -0.2276  0.1190
 5320SOL    HW221052   5.394   2.110   2.358  0.3585  0.0121 -0.0367
 5320SOL    HW321053   5.503   2.020   2.304 -0.5453 -1.3544  0.3604
 5320SOL    MW421054   5.419   2.037   2.318 -0.4071 -0.6172 -0.1174
 5321SOL     OW21055   2.632   1.178   1.304  0.4357  0.5670 -0.3855
 5321SOL    HW221056   2.541   1.204   1.321  0.5915  1.2895 -0.6354
 5321SOL    HW321057   2.637   1.168   1.209  0.8422  1.4312 -0.4687
 5321SOL    MW421058   2.620   1.180   1.294 -0.1075 -0.0479 -0.0688
 5322SOL     OW21059   4.506   2.453   2.130  0.0504  0.3781 -0.1642
 5322SOL    HW221060   4.411   2.452   2.125  0.0520  1.4250 -0.8123
 5322SOL    HW321061   4.535   2.435   2.041  0.5020 -1.3175  0.2928
 5322SOL    MW421062   4.498   2.451   2.118 -0.1007  0.6329 -0.5584
 5323SOL     OW21063   3.923   4.513   4.031 -0.1735  0.0986  0.3065
 5323SOL    HW221064   3.881   4.552   4.107  0.4280 -0.3938  0.9013
 5323SOL    HW321065   3.978   4.443   4.066 -0.4365 -0.6112 -0.6410
 5323SOL    MW421066   3.925   4.509   4.045 -0.0005  0.1224 -0.3913
 5324SOL     OW21067   1.512   6.320   5.866 -0.5061 -0.1717 -0.2096
 5324SOL    HW221068   1.538   6.411   5.850 -0.1892 -0.4337 -1.2672
 5324SOL    HW321069   1.416   6.321   5.859 -0.5990  0.2767  0.9159
 5324SOL    MW421070   1.503   6.333   5.863  0.4195  0.0135 -0.0170
 5325SOL     OW21071   4.779   1.411   5.831  0.1738 -0.0068 -0.5353
 5325SOL    HW221072   4.698   1.360   5.829  0.3707 -0.2930 -1.4403
 5325SOL    HW321073   4.807   1.408   5.923 -0.2150 -0.9011 -0.4379
 5325SOL    MW421074   4.772   1.404   5.843  0.3783  0.1008 -0.1688
 5326SOL     OW21075   4.728   2.593   0.985  0.1080  0.0139 -0.1154
 5326SOL    HW221076   4.779   2.514   0.969 -0.5409 -0.6883  1.0978
 5326SOL    HW321077   4.767   2.631   1.065 -0.5325  0.0858  0.1728
 5326SOL    MW421078   4.740   2.588   0.994 -0.4766  0.5996  0.1303
 5327SOL     OW21079   0.830   2.680   4.234  0.1124 -0.2341 -0.4751
 5327SOL    HW221080   0.822   2.762   4.283 -0.7769 -0.1229 -0.7871
 5327SOL    HW321081   0.780   2.617   4.286  2.7961 -1.2539  1.1060
 5327SOL    MW421082   0.822   2.683   4.248  0.4703 -0.7864  0.3485
 5328SOL     OW21083   5.132   2.484   1.565 -0.2220 -0.2008 -0.3277
 5328SOL    HW221084   5.170   2.565   1.598 -0.1687 -0.5063  0.3894
 5328SOL    HW321085   5.197   2.449   1.504 -0.4407  0.5115 -0.9882
 5328SOL    MW421086   5.145   2.490   1.561  1.1087 -0.0100 -0.7406
 5329SOL     OW21087   3.454   0.853   3.721  0.1185 -0.4342 -0.1359
 5329SOL    HW221088   3.489   0.909   3.790  2.7286  0.3774 -1.9490
 5329SOL    HW321089   3.378   0.900   3.688  0.0641  0.1695  0.8363
 5329SOL    MW421090   3.449   0.867   3.726 -0.0611 -0.2641  0.1690
 5330SOL     OW21091   4.638   2.896   1.748  0.3888  0.6132  0.3058
 5330SOL    HW221092   4.657   2.815   1.701  0.8432 -1.2730  3.4174
 5330SOL    HW321093   4.716   2.949   1.738  0.9503 -0.2579 -0.0384
 5330SOL    MW421094   4.650   2.892   1.741 -0.0724 -0.2382 -0.0284
 5331SOL     OW21095   4.637   4.738   0.263 -0.4957 -0.0953 -0.3754
 5331SOL    HW221096   4.696   4.785   0.323 -0.5242 -0.1043 -0.3403
 5331SOL    HW321097   4.636   4.791   0.184 -0.8368  0.1720 -0.1960
 5331SOL    MW421098   4.645   4.751   0.261 -0.1092 -0.0755 -0.1875
 5332SOL     OW21099   2.674   0.371   4.082  0.5082 -0.3721  0.3874
 5332SOL    HW221100   2.764   0.379   4.116  0.5033 -1.0788  0.5775
 5332SOL    HW321101   2.686   0.356   3.988  0.5219  1.5455  0.0296
 5332SOL    MW421102   2.688   0.370   4.074 -1.0054 -0.5139  0.0536
 5333SOL     OW21103   0.768   0.095   2.875 -0.4918 -0.0782 -0.1499
 5333SOL    HW221104   0.704   0.034   2.837 -0.8251  1.1491 -1.6509
 5333SOL    HW321105   0.844   0.089   2.817 -0.8902  1.6007 -0.9051
 5333SOL    MW421106   0.769   0.086   2.862 -0.1879 -0.1070  0.4535
 5334SOL     OW21107   3.638   2.874   4.391  0.1605  0.7403  0.0486
 5334SOL    HW221108   3.602   2.814   4.456 -1.0182 -0.7742 -1.8677
 5334SOL    HW321109   3.564   2.892   4.332  1.5752  0.4979 -1.9154
 5334SOL    MW421110   3.623   2.868   4.392  0.2046 -0.0474  0.3388
 5335SOL     OW21111   2.139   3.831   3.573  0.3101  0.0462 -0.2319
 5335SOL    HW221112   2.162   3.806   3.663  0.1918 -2.2331 -0.7866
 5335SOL    HW321113   2.218   3.872   3.539  0.8131 -0.2955  0.4871
 5335SOL    MW421114   2.153   3.833   3.580 -0.0847 -0.1401 -0.2278
 5336SOL     OW21115   0.687   2.756   4.999  0.3714 -0.2051 -0.2299
 5336SOL    HW221116   0.674   2.665   5.025  1.0085 -0.3985 -0.5499
 5336SOL    HW321117   0.751   2.751   4.928 -1.5080  0.2607 -2.0580
 5336SOL    MW421118   0.694   2.743   4.993  0.9016  0.1517 -0.2994
 5337SOL     OW21119   5.586   1.198   1.470 -0.0990 -0.3776 -0.2393
 5337SOL    HW221120   5.552   1.186   1.381 -0.6078  0.7055 -0.2023
 5337SOL    HW321121   5.655   1.132   1.478 -0.3431 -0.7847 -1.2775
 5337SOL    MW421122   5.591   1.187   1.459 -0.1322 -0.1753  0.1790
 5338SOL     OW21123   1.031   4.379   4.278  0.6360  0.1181 -0.2108
 5338SOL    HW221124   1.028   4.314   4.348 -0.7974  0.9697  0.5610
 5338SOL    HW321125   0.961   4.441   4.299  1.0219  1.1232 -1.6991
 5338SOL    MW421126   1.021   4.379   4.290 -0.5029 -0.1122  0.3411
 5339SOL     OW21127   1.396   5.917   6.208 -0.5463 -0.3333  0.5327
 5339SOL    HW221128   1.337   5.926   6.134  0.2582  1.0435  0.0390
 5339SOL    HW321129   1.455   5.845   6.183 -0.4792 -0.0874 -0.0358
 5339SOL    MW421130   1.396   5.909   6.195 -0.2772 -0.7453 -0.0678
 5340SOL     OW21131   1.324   0.930   3.396 -0.2232 -0.0536 -0.2226
 5340SOL    HW221132   1.336   0.835   3.406  0.2547 -0.1888 -1.9242
 5340SOL    HW321133   1.229   0.941   3.390 -0.2284 -0.5450 -1.0891
 5340SOL    MW421134   1.313   0.919   3.397  0.1830 -0.4412 -0.2406
 5341SOL     OW21135   2.674   3.673   4.118 -0.4347  0.0476 -0.0269
 5341SOL    HW221136   2.661   3.744   4.181  1.6891  2.9584 -2.5376
 5341SOL    HW321137   2.765   3.647   4.130  0.1713  1.0018 -2.0631
 5341SOL    MW421138   2.684   3.679   4.128  0.5565  0.3836 -0.2823
 5342SOL     OW21139   5.004   1.725   3.060  0.2453  0.6562 -0.5251
 5342SOL    HW221140   4.940   1.670   3.015  0.7471  0.9626 -1.6639
 5342SOL    HW321141   4.970   1.814   3.051 -0.6179  0.5550  1.4068
 5342SOL    MW421142   4.991   1.729   3.053 -0.1397  0.4160 -0.4056
 5343SOL     OW21143   2.752   0.274   4.805  0.3685 -0.0988 -0.3400
 5343SOL    HW221144   2.695   0.254   4.879  0.7992  0.5285  0.1838
 5343SOL    HW321145   2.836   0.233   4.828  0.8270  1.0031  0.0620
 5343SOL    MW421146   2.756   0.266   4.818  0.1598 -0.1722  0.4153
 5344SOL     OW21147   0.492   5.769   3.634  0.2959 -0.3589  0.0430
 5344SOL    HW221148   0.441   5.841   3.597  0.0040 -0.6446 -0.1157
 5344SOL    HW321149   0.533   5.807   3.712  1.5730  0.4746 -1.0027
 5344SOL    MW421150   0.490   5.784   3.639 -0.4346 -0.1884  0.0503
 5345SOL     OW21151   2.740   0.327   6.145  0.4122  0.0672  0.2135
 5345SOL    HW221152   2.677   0.255   6.151  1.3427 -0.7980 -0.3231
 5345SOL    HW321153   2.763   0.331   6.053  0.5713  0.8984  0.2803
 5345SOL    MW421154   2.735   0.318   6.134  0.3761  0.2867  0.3924
 5346SOL     OW21155   6.219   3.867   2.119  0.5346  0.1968  0.5460
 5346SOL    HW221156   6.145   3.826   2.074 -0.0250  1.2636  0.4525
 5346SOL    HW321157   6.183   3.949   2.154  2.1078  1.6534 -1.0648
 5346SOL    MW421158   6.204   3.873   2.118 -0.4103 -0.0335  0.1307
 5347SOL     OW21159   1.883   1.361   1.525 -0.2972 -0.5575  0.2987
 5347SOL    HW221160   1.793   1.369   1.558 -1.0755  0.5805 -1.9105
 5347SOL    HW321161   1.884   1.278   1.478 -0.7203  0.1906 -1.0766
 5347SOL    MW421162   1.871   1.351   1.523  0.1272 -0.2666  0.6094
 5348SOL     OW21163   3.105   2.781   5.275 -0.9074 -0.1468 -0.2740
 5348SOL    HW221164   3.087   2.857   5.219 -0.5631  0.2425  0.1443
 5348SOL    HW321165   3.115   2.708   5.213  0.0592  0.3832 -0.7697
 5348SOL    MW421166   3.104   2.781   5.259  0.4163 -0.4787 -0.2378
 5349SOL     OW21167   3.470   4.938   3.301  0.4335 -0.2389  0.4189
 5349SOL    HW221168   3.380   4.934   3.331 -0.7793  0.8312 -2.6592
 5349SOL    HW321169   3.488   4.849   3.268  1.0324 -0.8165  2.1860
 5349SOL    MW421170   3.461   4.925   3.300 -0.3035 -0.2242 -1.0147
 5350SOL     OW21171   0.475   5.079   2.962 -0.4633 -0.9042 -0.3933
 5350SOL    HW221172   0.550   5.076   3.021 -1.2784 -1.6881  0.6594
 5350SOL    HW321173   0.408   5.127   3.010 -1.0284 -1.2472 -0.8178
 5350SOL    MW421174   0.476   5.085   2.976  0.6335  0.5300  0.4895
 5351SOL     OW21175   6.119   1.204   5.356  0.8712 -0.7160 -0.3007
 5351SOL    HW221176   6.142   1.294   5.337  1.3460 -1.1372 -1.8400
 5351SOL    HW321177   6.045   1.210   5.417  0.4994  0.7009 -0.8546
 5351SOL    MW421178   6.112   1.216   5.362 -0.4122  0.7991 -0.5852
 5352SOL     OW21179   2.151   1.481   2.601  0.1513  0.2988  0.4290
 5352SOL    HW221180   2.115   1.565   2.573  1.0594  0.1732 -1.2575
 5352SOL    HW321181   2.119   1.419   2.535  0.5978 -0.4303  0.8911
 5352SOL    MW421182   2.142   1.484   2.588 -0.2601  0.4701  0.3207
 5353SOL     OW21183   0.158   3.808   5.795  0.6111  0.1079  0.2889
 5353SOL    HW221184   0.088   3.743   5.788 -0.4218  0.8218  2.8745
 5353SOL    HW321185   0.222   3.768   5.855 -0.2145  1.5272  2.2057
 5353SOL    MW421186   0.157   3.794   5.802 -0.1183 -0.0576  0.6447
 5354SOL     OW21187   1.717   0.539   4.353 -0.1999  0.1900 -0.4186
 5354SOL    HW221188   1.694   0.553   4.445 -2.8554  1.2012 -1.1495
 5354SOL    HW321189   1.788   0.601   4.337  1.4849 -1.1446  1.2776
 5354SOL    MW421190   1.723   0.549   4.363 -0.0598  0.3740  0.4612
 5355SOL     OW21191   0.621   2.051   2.558 -0.2937  0.4850  0.3846
 5355SOL    HW221192   0.597   1.988   2.625  3.6095  0.6406  2.1810
 5355SOL    HW321193   0.552   2.117   2.560 -1.9708 -1.2257  1.8637
 5355SOL    MW421194   0.609   2.051   2.567  0.2301  0.2492 -0.0452
 5356SOL     OW21195   0.751   1.451   1.535 -0.5961  0.3512  0.0457
 5356SOL    HW221196   0.686   1.497   1.482 -1.4809  0.4173  1.1439
 5356SOL    HW321197   0.729   1.358   1.524  1.3236  0.0927 -2.3443
 5356SOL    MW421198   0.739   1.444   1.527  0.1477  0.0697  0.6332
 5357SOL     OW21199   0.193   5.603   5.859  0.5152 -0.0727  0.2883
 5357SOL    HW221200   0.107   5.643   5.844  1.1317  0.7883 -1.1758
 5357SOL    HW321201   0.192   5.524   5.805  0.2541 -0.6782  1.1536
 5357SOL    MW421202   0.181   5.598   5.850  0.4249  0.2664 -0.1219
 5358SOL     OW21203   4.627   1.624   2.899  0.0410 -0.3472 -0.0798
 5358SOL    HW221204   4.711   1.584   2.925  0.5892  0.4798 -0.5587
 5358SOL    HW321205   4.639   1.717   2.916 -1.1627 -0.3402  0.8229
 5358SOL    MW421206   4.640   1.631   2.905 -0.3232  0.0590 -0.2368
 5359SOL     OW21207   5.179   5.137   1.913 -0.2778 -0.7098  0.0461
 5359SOL    HW221208   5.090   5.104   1.899 -0.1478 -0.0857 -3.0369
 5359SOL    HW321209   5.233   5.083   1.856  1.4649 -1.3537  2.1845
 5359SOL    MW421210   5.174   5.126   1.903  0.3403 -0.1780 -0.1763
 5360SOL     OW21211   4.409   3.403   4.671  0.4984  0.0023 -0.1010
 5360SOL    HW221212   4.489   3.408   4.724 -1.0004 -0.4859  2.3582
 5360SOL    HW321213   4.363   3.326   4.705 -1.3659  0.6875 -0.9674
 5360SOL    MW421214   4.414   3.393   4.682  0.1800  0.4833 -0.4524
 5361SOL     OW21215   2.081   5.221   3.755  0.3757 -0.1307 -0.3260
 5361SOL    HW221216   2.134   5.170   3.816  0.2466 -0.0269 -0.1298
 5361SOL    HW321217   2.113   5.311   3.764  0.2261 -0.0826 -0.2707
 5361SOL    MW421218   2.092   5.226   3.764 -0.3993  0.1512  0.9134
 5362SOL     OW21219   3.490   5.422   5.383  0.3270  0.7307  0.5948
 5362SOL    HW221220   3.453   5.435   5.296 -1.7942 -0.3584  1.2408
 5362SOL    HW321221   3.574   5.380   5.368  0.6032  1.7631 -0.9423
 5362SOL    MW421222   3.496   5.418   5.370 -0.3371 -0.0513  0.2954
 5363SOL     OW21223   4.271   5.540   0.180  0.1931 -0.4426  0.3794
 5363SOL    HW221224   4.263   5.485   0.102 -0.3294 -2.4828  1.7914
 5363SOL    HW321225   4.200   5.604   0.172  1.0768  0.3814 -1.5082
 5363SOL    MW421226   4.261   5.541   0.169  0.1446 -0.7419  0.1618
 5364SOL     OW21227   5.947   1.238   5.579 -0.3210  0.1576  0.4140
 5364SOL    HW221228   5.852   1.244   5.563 -0.2226  0.3207 -0.1280
 5364SOL    HW321229   5.964   1.144   5.587 -1.0867  0.1707  4.0516
 5364SOL    MW421230   5.936   1.226   5.578 -0.5097 -0.1731 -0.7838
 5365SOL     OW21231   1.933   5.121   2.026 -0.6058 -0.5462  0.0227
 5365SOL    HW221232   1.975   5.036   2.033  0.3675 -0.1465 -0.7550
 5365SOL    HW321233   1.914   5.147   2.117  0.5227 -0.8830  0.3629
 5365SOL    MW421234   1.936   5.113   2.039  0.0326 -0.3256 -0.1773
 5366SOL     OW21235   2.680   4.897   0.664  0.0665 -0.2851 -0.3695
 5366SOL    HW221236   2.591   4.925   0.684  0.3771  0.9286 -0.6368
 5366SOL    HW321237   2.719   4.879   0.750 -0.2160 -0.1440 -0.2100
 5366SOL    MW421238   2.674   4.898   0.678  0.2078  0.0317  0.6008
 5367SOL     OW21239   0.588   1.645   5.947 -0.5151  0.9452 -1.1366
 5367SOL    HW221240   0.651   1.716   5.950 -1.0537  1.4127 -0.2198
 5367SOL    HW321241   0.528   1.668   5.877 -0.8070  1.5097 -0.7075
 5367SOL    MW421242   0.588   1.657   5.938 -0.3147 -0.3063 -0.1700
 5368SOL     OW21243   6.045   5.845   0.665  0.4441  0.1073  0.2931
 5368SOL    HW221244   6.063   5.782   0.734  0.6828  2.0557  2.1173
 5368SOL    HW321245   6.128   5.892   0.652  0.6047 -0.6519 -1.8489
 5368SOL    MW421246   6.059   5.843   0.672  0.3655  0.3081 -0.1803
 5369SOL     OW21247   1.711   1.286   4.784  0.6437  0.2483  0.0472
 5369SOL    HW221248   1.746   1.255   4.868 -0.2297 -1.8786 -0.3020
 5369SOL    HW321249   1.633   1.232   4.770  0.3932  1.0353 -1.8153
 5369SOL    MW421250   1.705   1.274   4.793  0.4382 -0.1774  0.1678
 5370SOL     OW21251   2.677   0.757   5.528  0.6230  0.6281 -0.1012
 5370SOL    HW221252   2.761   0.713   5.533  1.1841  1.5021 -1.3421
 5370SOL    HW321253   2.629   0.727   5.605  1.5100 -1.0119 -0.1565
 5370SOL    MW421254   2.682   0.748   5.538  0.0955  0.2308 -0.1251
 5371SOL     OW21255   1.724   2.849   5.684  0.0486  0.0158  0.1620
 5371SOL    HW221256   1.684   2.894   5.609  1.2410 -1.7074 -1.6079
 5371SOL    HW321257   1.679   2.765   5.689 -0.4950  0.3692  1.8931
 5371SOL    MW421258   1.713   2.844   5.675  0.3937  0.4663 -0.1292
 5372SOL     OW21259   5.167   5.924   0.285 -0.8344 -0.1717 -0.2838
 5372SOL    HW221260   5.155   6.016   0.260 -2.1073 -0.4471 -0.7695
 5372SOL    HW321261   5.262   5.911   0.285 -0.6478  1.0515 -0.5157
 5372SOL    MW421262   5.178   5.934   0.282 -0.1785 -0.0102 -0.1920
 5373SOL     OW21263   2.349   2.061   3.735  0.2469  0.4709  0.5480
 5373SOL    HW221264   2.400   1.980   3.735 -0.1393  0.2215  0.9521
 5373SOL    HW321265   2.258   2.032   3.727  0.1074  0.8692  0.6553
 5373SOL    MW421266   2.343   2.047   3.734 -0.0019 -0.1183 -0.0733
 5374SOL     OW21267   1.255   5.536   0.588 -0.2813  0.0544 -0.2022
 5374SOL    HW221268   1.203   5.479   0.645  0.2976  1.5559  1.9595
 5374SOL    HW321269   1.196   5.558   0.516 -1.6159 -0.6289  0.6472
 5374SOL    MW421270   1.240   5.531   0.586  0.1979  0.5217  0.1855
 5375SOL     OW21271   3.210   1.279   3.399  0.3546  0.3904  0.3509
 5375SOL    HW221272   3.259   1.332   3.463  0.8501  0.1851  0.1440
 5375SOL    HW321273   3.277   1.241   3.343  0.1317 -1.7773  1.4667
 5375SOL    MW421274   3.225   1.281   3.400 -0.1089  0.7011  0.2587
 5376SOL     OW21275   1.947   6.032   0.948  0.2998 -0.0839 -0.2536
 5376SOL    HW221276   2.043   6.032   0.955  0.2172  0.5440  1.5173
 5376SOL    HW321277   1.918   6.084   1.023 -1.4770 -1.2080 -0.1064
 5376SOL    MW421278   1.956   6.039   0.959 -0.0087 -0.4669 -0.3284
 5377SOL     OW21279   4.236   4.270   3.865  0.0711 -0.4643  0.3998
 5377SOL    HW221280   4.228   4.326   3.787  2.9248  1.3687  1.2368
 5377SOL    HW321281   4.267   4.186   3.831  0.7417  0.1300 -0.5243
 5377SOL    MW421282   4.239   4.267   3.850 -0.6043  0.1489  0.1166
 5378SOL     OW21283   4.901   0.891   5.741  0.1556 -0.2197  0.6433
 5378SOL    HW221284   4.864   0.937   5.665  0.4353 -0.3027  0.4568
 5378SOL    HW321285   4.828   0.839   5.775 -0.1146  0.2295  0.7505
 5378SOL    MW421286   4.886   0.890   5.735 -0.4907  0.2445 -0.1541
 5379SOL     OW21287   1.924   4.972   3.223 -0.3569 -0.1434 -0.5228
 5379SOL    HW221288   1.950   4.915   3.295  2.4320  0.3618 -1.0354
 5379SOL    HW321289   1.929   4.918   3.145  3.0096  0.8120 -1.1111
 5379SOL    MW421290   1.928   4.957   3.222  0.2095 -0.0190  0.4042
 5380SOL     OW21291   5.997   0.824   4.263 -0.4867 -0.0644  0.1638
 5380SOL    HW221292   6.071   0.783   4.216  2.9753  2.5696  2.7725
 5380SOL    HW321293   5.963   0.754   4.318  1.3139 -0.9828  0.2098
 5380SOL    MW421294   6.002   0.809   4.264 -0.2500 -0.0706  0.3880
 5381SOL     OW21295   4.626   1.415   1.841 -0.4151  0.0978 -0.6122
 5381SOL    HW221296   4.660   1.465   1.767  0.2061 -0.3988 -0.6760
 5381SOL    HW321297   4.539   1.387   1.814  0.2068 -0.9700 -1.5958
 5381SOL    MW421298   4.619   1.418   1.828 -0.1856  0.1439 -0.5442
 5382SOL     OW21299   5.311   1.920   4.732 -0.3870  0.1831  0.2489
 5382SOL    HW221300   5.343   1.847   4.783 -0.1696 -0.8326 -1.2653
 5382SOL    HW321301   5.230   1.888   4.692  0.9727 -0.2302 -2.4359
 5382SOL    MW421302   5.304   1.906   4.733 -0.2771  0.2220  0.3384
 5383SOL     OW21303   4.474   0.101   2.306  0.2900  0.1104  0.3433
 5383SOL    HW221304   4.498   0.039   2.374 -0.8299 -2.3953 -1.3897
 5383SOL    HW321305   4.519   0.069   2.227 -1.4527  0.6073 -0.9252
 5383SOL    MW421306   4.483   0.089   2.304 -0.8289 -0.0224  0.3146
 5384SOL     OW21307   1.727   5.451   6.386 -0.6274 -0.4638 -0.9728
 5384SOL    HW221308   1.711   5.475   6.478 -1.0111 -1.2839 -0.8153
 5384SOL    HW321309   1.760   5.531   6.346 -2.0684  0.3846 -0.5278
 5384SOL    MW421310   1.730   5.465   6.393  0.2266 -0.1348 -0.8548
 5385SOL     OW21311   3.401   5.977   4.049 -0.0354 -0.5330 -0.1246
 5385SOL    HW221312   3.431   5.914   4.115  0.0649  2.1088  2.5340
 5385SOL    HW321313   3.480   6.001   4.000  0.5927  0.0357  1.1380
 5385SOL    MW421314   3.415   5.972   4.051  0.2298 -0.1401 -0.1526
 5386SOL     OW21315   4.346   0.696   2.432 -0.0490 -0.5187 -0.3495
 5386SOL    HW221316   4.323   0.730   2.345  0.2230  2.0749  0.5015
 5386SOL    HW321317   4.441   0.684   2.428  0.0696  0.2933 -0.2262
 5386SOL    MW421318   4.355   0.699   2.420  0.3160  0.3498 -0.3107
 5387SOL     OW21319   1.089   5.875   0.810 -0.1764  0.2387  0.3213
 5387SOL    HW221320   1.091   5.784   0.841  0.1065 -0.0017 -0.3733
 5387SOL    HW321321   1.133   5.924   0.879  0.4221 -0.2820  0.3241
 5387SOL    MW421322   1.095   5.869   0.824  0.1349  0.3765 -0.0233
 5388SOL     OW21323   3.578   1.705   1.437 -0.7924 -0.1763  0.2438
 5388SOL    HW221324   3.621   1.666   1.513 -0.8316 -0.0662  0.3225
 5388SOL    HW321325   3.551   1.630   1.384 -0.0349 -0.2324 -0.0717
 5388SOL    MW421326   3.580   1.690   1.440  0.6002  0.0224  0.4713
 5389SOL     OW21327   5.390   6.171   0.117 -0.0210 -0.6867 -0.0045
 5389SOL    HW221328   5.442   6.162   0.197  0.8312 -0.7633 -0.5570
 5389SOL    HW321329   5.436   6.118   0.053 -1.2264 -1.3935 -0.3076
 5389SOL    MW421330   5.403   6.163   0.119 -0.1120 -0.5206  0.2411
 5390SOL     OW21331   2.748   4.243   1.830  0.1301  0.5213 -0.0144
 5390SOL    HW221332   2.698   4.174   1.787  0.6739  0.9578 -1.3892
 5390SOL    HW321333   2.794   4.198   1.901 -1.6354 -0.0141  0.8504
 5390SOL    MW421334   2.748   4.228   1.834 -0.0786 -0.2691 -0.2644
 5391SOL     OW21335   5.014   1.833   2.239 -0.1725 -0.1235 -0.0036
 5391SOL    HW221336   4.947   1.879   2.188  0.5611  2.3331  1.0439
 5391SOL    HW321337   5.096   1.853   2.194  0.3012  0.7875  1.1897
 5391SOL    MW421338   5.016   1.842   2.227 -0.0714 -0.0174 -0.2927
 5392SOL     OW21339   5.457   5.393   0.622 -0.1426  0.0630 -0.3452
 5392SOL    HW221340   5.403   5.401   0.700 -0.1868 -0.5952 -0.3061
 5392SOL    HW321341   5.544   5.421   0.650 -0.7119  2.4867 -0.7505
 5392SOL    MW421342   5.462   5.398   0.636 -0.2998  0.7902 -0.0806
 5393SOL     OW21343   0.961   5.537   0.137  0.6375 -0.3563 -0.4932
 5393SOL    HW221344   1.050   5.502   0.133  0.7349 -0.2633  0.7161
 5393SOL    HW321345   0.938   5.552   0.045  2.2289  0.5173 -0.7976
 5393SOL    MW421346   0.970   5.535   0.124  0.2165  0.7096 -0.3922
 5394SOL     OW21347   2.858   2.803   3.370 -0.2846  0.0338  0.5767
 5394SOL    HW221348   2.811   2.737   3.420 -0.9596  0.2510  0.2443
 5394SOL    HW321349   2.932   2.756   3.332 -0.7617 -0.5385  0.3357
 5394SOL    MW421350   2.862   2.788   3.372  0.4077 -0.0872  0.1737
 5395SOL     OW21351   1.880   0.562   3.577 -0.9103 -0.1382 -0.2108
 5395SOL    HW221352   1.952   0.624   3.570  0.0483 -0.9808  1.5697
 5395SOL    HW321353   1.894   0.517   3.660 -3.3064 -0.5878  0.0418
 5395SOL    MW421354   1.891   0.564   3.587  0.0900  0.1278 -0.1963
 5396SOL     OW21355   3.152   2.526   2.957  0.2095 -0.1801 -0.5526
 5396SOL    HW221356   3.169   2.432   2.952 -1.8250 -0.6660  0.4082
 5396SOL    HW321357   3.074   2.533   3.013  0.9010  2.1614  0.2130
 5396SOL    MW421358   3.144   2.514   2.964  0.1198 -0.2288 -0.4424
 5397SOL     OW21359   0.771   0.228   4.353 -0.4435 -0.4830 -0.7199
 5397SOL    HW221360   0.753   0.310   4.399 -0.5564  0.2871 -2.0784
 5397SOL    HW321361   0.789   0.165   4.423 -1.3388  0.4490  0.3920
 5397SOL    MW421362   0.771   0.231   4.368 -0.4376  0.3936  0.0155
 5398SOL     OW21363   4.831   0.125   0.436 -0.8762 -0.0078 -0.0991
 5398SOL    HW221364   4.806   0.194   0.374 -1.0183 -0.9126 -1.0879
 5398SOL    HW321365   4.875   0.059   0.382  0.6491 -0.0071  1.0691
 5398SOL    MW421366   4.834   0.125   0.421 -0.3343  0.4339 -0.3688
 5399SOL     OW21367   3.622   0.602   4.096 -0.2790  0.6106 -0.1809
 5399SOL    HW221368   3.673   0.569   4.022 -0.1005  0.0323  0.1928
 5399SOL    HW321369   3.627   0.697   4.088 -0.2893  0.5543 -0.9297
 5399SOL    MW421370   3.630   0.610   4.085  0.0405 -0.4308  0.1351
 5400SOL     OW21371   0.066   2.091   2.997  0.3579 -0.2205 -0.7850
 5400SOL    HW221372   0.021   2.081   3.081 -0.9922 -0.8121 -1.5458
 5400SOL    HW321373   0.084   2.002   2.969  1.2570 -0.0111 -0.9119
 5400SOL    MW421374   0.062   2.078   3.004 -0.4465 -0.0482 -0.5329
 5401SOL     OW21375   1.755   0.887   3.496  0.7237  0.5611 -0.1422
 5401SOL    HW221376   1.837   0.844   3.521  1.1541  0.1967 -2.0092
 5401SOL    HW321377   1.721   0.834   3.424  0.7142  2.7097 -1.8184
 5401SOL    MW421378   1.761   0.874   3.490  0.4610 -0.1053  0.2805
 5402SOL     OW21379   5.560   3.895   5.933  0.1357  0.6993  0.4528
 5402SOL    HW221380   5.555   3.962   6.002 -2.0173  1.7564 -0.6333
 5402SOL    HW321381   5.523   3.816   5.973  1.5461  0.4480  1.3515
 5402SOL    MW421382   5.555   3.894   5.948 -0.1737 -0.2870 -0.8263
 5403SOL     OW21383   6.361   5.575   3.819  0.2790  0.3009 -0.4879
 5403SOL    HW221384   6.423   5.519   3.867 -0.7182 -0.0605  0.4194
 5403SOL    HW321385   6.414   5.614   3.749  1.6778  0.4735  0.6068
 5403SOL    MW421386   6.376   5.573   3.816 -0.1937  0.1705 -0.2189
 5404SOL     OW21387   2.575   2.175   2.014 -0.2108 -0.4433  0.5780
 5404SOL    HW221388   2.609   2.220   1.936 -1.5533  0.9649  0.7426
 5404SOL    HW321389   2.485   2.207   2.023 -0.7121 -2.0183  1.6445
 5404SOL    MW421390   2.568   2.185   2.005 -0.1088 -0.1750 -0.2771
 5405SOL     OW21391   1.869   5.891   4.918  0.2533  0.0365  0.2262
 5405SOL    HW221392   1.924   5.819   4.888 -0.5460 -0.5993  0.2821
 5405SOL    HW321393   1.792   5.889   4.861 -0.5045 -0.1398  1.2306
 5405SOL    MW421394   1.866   5.881   4.906 -0.5354  0.0013  0.3559
 5406SOL     OW21395   1.206   3.625   4.527  0.3175  0.1684 -0.1100
 5406SOL    HW221396   1.198   3.593   4.437 -0.8155 -1.4795  0.5289
 5406SOL    HW321397   1.118   3.617   4.563  0.9938 -0.3829  1.5238
 5406SOL    MW421398   1.193   3.620   4.520 -0.2990  0.7489 -0.0860
 5407SOL     OW21399   3.867   5.099   3.719 -0.1221  0.6461 -0.3751
 5407SOL    HW221400   3.798   5.164   3.705 -1.5716 -0.4218  1.3261
 5407SOL    HW321401   3.932   5.118   3.653 -0.6877  3.5497 -0.2003
 5407SOL    MW421402   3.866   5.110   3.709 -0.1415 -0.0734  0.5754
 5408SOL     OW21403   1.066   1.121   3.725 -0.5901  0.2771  0.5039
 5408SOL    HW221404   1.158   1.129   3.751  0.3428 -0.5971 -2.1845
 5408SOL    HW321405   1.051   1.197   3.667 -2.2917  1.6483  2.5766
 5408SOL    MW421406   1.076   1.132   3.721  0.4975  0.1604 -0.2505
 5409SOL     OW21407   1.719   0.700   3.993 -0.1122 -0.1547 -0.6485
 5409SOL    HW221408   1.633   0.708   4.034 -0.5941 -2.4643 -1.0556
 5409SOL    HW321409   1.701   0.700   3.899  0.4314  0.2483 -0.7566
 5409SOL    MW421410   1.705   0.701   3.986 -1.0526 -0.0990 -0.1874
 5410SOL     OW21411   6.366   0.300   0.089  0.4750 -0.1533 -0.2190
 5410SOL    HW221412   6.304   0.236   0.124 -0.1688  0.4034 -0.3212
 5410SOL    HW321413   6.446   0.286   0.140  0.9796 -2.2745 -1.4576
 5410SOL    MW421414   6.368   0.290   0.101  0.3382  0.4218  0.3232
 5411SOL     OW21415   1.467   4.914   6.079 -0.4012  0.0017  0.3101
 5411SOL    HW221416   1.516   4.918   6.161 -1.8721  0.4132  1.2080
 5411SOL    HW321417   1.466   5.004   6.047  0.1658 -0.1573 -0.1704
 5411SOL    MW421418   1.474   4.926   6.086 -0.2306  0.0380  0.6054
 5412SOL     OW21419   2.373   5.814   4.067 -0.3460 -0.8963 -0.0053
 5412SOL    HW221420   2.431   5.887   4.091  0.0144 -0.2734 -2.4936
 5412SOL    HW321421   2.287   5.840   4.100  0.1212 -0.2397  0.7518
 5412SOL    MW421422   2.369   5.827   4.075 -0.3779 -0.4945 -0.1047
 5413SOL     OW21423   5.424   4.377   3.770 -0.2065  0.4883  0.1651
 5413SOL    HW221424   5.403   4.449   3.710  1.1063 -0.5502 -1.6641
 5413SOL    HW321425   5.513   4.352   3.746 -1.3511 -3.1689 -0.8698
 5413SOL    MW421426   5.433   4.383   3.759  0.0865 -0.1347  0.5455
 5414SOL     OW21427   5.958   4.082   1.170  0.0424  0.1788 -0.5557
 5414SOL    HW221428   5.979   4.166   1.129  0.0073  0.8254  0.6972
 5414SOL    HW321429   5.870   4.062   1.137 -1.3335  2.2673  1.5466
 5414SOL    MW421430   5.949   4.090   1.160  0.1301 -0.3020  0.2218
 5415SOL     OW21431   3.013   3.012   5.963  0.7367 -0.4066 -0.6172
 5415SOL    HW221432   3.015   2.949   5.890 -0.7422 -1.6409  0.3543
 5415SOL    HW321433   3.086   2.985   6.019  1.2863 -0.0477 -1.1473
 5415SOL    MW421434   3.023   3.000   5.961 -0.2607 -0.2135 -0.5286
 5416SOL     OW21435   5.044   1.968   4.172 -0.4128  0.0339  0.8090
 5416SOL    HW221436   5.101   1.938   4.243 -1.0139 -0.1279  1.2272
 5416SOL    HW321437   5.088   2.046   4.138 -0.4095  0.4608  1.7477
 5416SOL    MW421438   5.058   1.975   4.177 -0.4014 -0.0561  0.1421
 5417SOL     OW21439   2.894   1.018   3.221  0.2222 -0.5003 -0.4485
 5417SOL    HW221440   2.960   1.005   3.153  1.0433  1.1847 -0.0518
 5417SOL    HW321441   2.814   0.983   3.184  0.7265  0.0655 -2.1606
 5417SOL    MW421442   2.892   1.012   3.207 -0.1040  0.7363  0.5086
 5418SOL     OW21443   1.177   2.921   3.391 -0.0942  0.7017 -0.1114
 5418SOL    HW221444   1.174   2.829   3.363 -0.9619  0.5568  0.4028
 5418SOL    HW321445   1.123   2.923   3.470  1.1377  1.3720  0.7416
 5418SOL    MW421446   1.169   2.909   3.397  0.2035 -0.3686 -0.3414
 5419SOL     OW21447   1.538   2.898   5.479  0.1631  0.1273  0.0846
 5419SOL    HW221448   1.521   2.829   5.414 -0.6591 -0.8820  1.3085
 5419SOL    HW321449   1.489   2.974   5.447 -1.4879 -0.8189  0.2669
 5419SOL    MW421450   1.529   2.899   5.466  0.2543 -0.1614  0.2539
 5420SOL     OW21451   0.750   1.151   4.683  0.0992 -0.2704  0.6336
 5420SOL    HW221452   0.791   1.128   4.766 -0.6442 -0.7501  0.8847
 5420SOL    HW321453   0.723   1.243   4.694 -0.6274 -0.5353  1.2058
 5420SOL    MW421454   0.752   1.160   4.695  0.3474 -0.2170  0.0411
 5421SOL     OW21455   2.569   3.529   0.554 -0.0931  0.0036 -0.2384
 5421SOL    HW221456   2.640   3.490   0.605 -1.6709  1.0896  3.0350
 5421SOL    HW321457   2.608   3.607   0.514  0.9655 -0.3839 -0.0046
 5421SOL    MW421458   2.584   3.534   0.555  0.0808 -0.0104 -0.5636
 5422SOL     OW21459   3.293   4.129   4.299 -0.2855 -0.0114 -0.6364
 5422SOL    HW221460   3.386   4.153   4.298  0.0665 -1.2637 -0.4372
 5422SOL    HW321461   3.289   4.053   4.357 -1.5967  0.5904  0.0816
 5422SOL    MW421462   3.305   4.122   4.306 -0.0632 -0.5755  0.2663
 5423SOL     OW21463   0.557   1.172   0.803 -0.1610  0.5118  0.0573
 5423SOL    HW221464   0.462   1.171   0.813 -0.2591  0.8038 -0.7878
 5423SOL    HW321465   0.580   1.264   0.793  0.1613  0.4092 -0.1863
 5423SOL    MW421466   0.547   1.184   0.803 -0.3260  0.3332  0.3436
 5424SOL     OW21467   2.985   4.540   3.563  0.0759  0.2679 -0.0312
 5424SOL    HW221468   3.032   4.542   3.480 -1.2206  0.3992 -0.7912
 5424SOL    HW321469   3.006   4.624   3.605  1.5509 -0.2275  0.2654
 5424SOL    MW421470   2.994   4.552   3.558  0.6897  0.0569 -0.0615
 5425SOL     OW21471   3.629   0.629   3.755  0.1851  0.8411 -0.3151
 5425SOL    HW221472   3.570   0.704   3.745 -1.4984 -0.3290  0.3747
 5425SOL    HW321473   3.663   0.614   3.667 -2.8589 -0.2160 -1.4538
 5425SOL    MW421474   3.625   0.637   3.742  0.1143  0.3936 -0.0798
 5426SOL     OW21475   2.484   1.923   1.294  0.1288  0.2824  0.2284
 5426SOL    HW221476   2.416   1.874   1.340 -0.2255  2.1079  1.7595
 5426SOL    HW321477   2.456   1.923   1.202  0.3171 -2.5588  0.1036
 5426SOL    MW421478   2.471   1.917   1.288 -0.1060  0.2461  0.2718
 5427SOL     OW21479   1.265   3.932   4.469 -0.6373 -0.3414  0.2304
 5427SOL    HW221480   1.246   3.903   4.558 -0.0986  1.3069  0.9338
 5427SOL    HW321481   1.259   3.853   4.416 -0.5872 -1.4473  1.7855
 5427SOL    MW421482   1.262   3.918   4.474  0.8517  0.2940  0.2749
 5428SOL     OW21483   4.449   2.108   1.022 -0.3131  0.1383 -0.3877
 5428SOL    HW221484   4.440   2.012   1.021  1.9669 -0.1519  0.6093
 5428SOL    HW321485   4.365   2.139   1.055 -0.4562 -1.6765  1.1506
 5428SOL    MW421486   4.437   2.099   1.026  0.2930 -0.0606 -0.3048
 5429SOL     OW21487   1.214   6.337   1.723 -0.0173  0.3660  0.0100
 5429SOL    HW221488   1.218   6.380   1.808  0.7431 -0.5281  0.4444
 5429SOL    HW321489   1.288   6.277   1.723 -0.3226 -0.0332 -1.0729
 5429SOL    MW421490   1.224   6.335   1.734 -0.2147  0.1794 -0.3118
 5430SOL     OW21491   2.406   1.401   0.659 -0.5416 -0.2281  0.0143
 5430SOL    HW221492   2.393   1.476   0.602  1.0033 -0.0058 -0.0695
 5430SOL    HW321493   2.476   1.351   0.618  0.3436 -0.2654  1.5039
 5430SOL    MW421494   2.414   1.404   0.646  0.0610  0.0687  0.0024
 5431SOL     OW21495   3.856   1.882   6.075 -0.6255 -0.3973 -0.4552
 5431SOL    HW221496   3.861   1.968   6.118 -1.4829 -0.3896 -0.3610
 5431SOL    HW321497   3.900   1.823   6.136  1.5465  0.2447 -1.3135
 5431SOL    MW421498   3.863   1.886   6.089  0.2610 -0.6056  0.0512
 5432SOL     OW21499   3.719   3.263   0.120 -0.3851 -0.0414 -0.1864
 5432SOL    HW221500   3.640   3.272   0.173 -0.3317  1.0792 -0.2632
 5432SOL    HW321501   3.691   3.288   0.032 -0.2963 -1.1543 -0.5383
 5432SOL    MW421502   3.705   3.268   0.115 -0.7755 -0.2339  0.2743
 5433SOL     OW21503   5.830   5.755   1.528 -0.1470 -0.3631  0.0326
 5433SOL    HW221504   5.864   5.719   1.611 -0.2778  1.0778  0.7287
 5433SOL    HW321505   5.905   5.750   1.468  0.3634 -0.1212  0.6405
 5433SOL    MW421506   5.845   5.749   1.531  0.1482 -0.4259  0.1095
 5434SOL     OW21507   2.522   5.636   6.323 -0.4487  0.3214 -0.3011
 5434SOL    HW221508   2.429   5.624   6.307 -0.5563 -0.9430  1.0175
 5434SOL    HW321509   2.528   5.660   6.415  0.4289  2.3671 -0.8330
 5434SOL    MW421510   2.511   5.637   6.333  0.3297 -0.0854  0.5708
 5435SOL     OW21511   0.724   2.344   5.412  0.3243  0.0235  0.2576
 5435SOL    HW221512   0.756   2.325   5.500 -1.8290 -0.7724  0.9368
 5435SOL    HW321513   0.745   2.265   5.361 -0.8655 -0.6762  0.8099
 5435SOL    MW421514   0.731   2.331   5.416  0.1693  0.0721  0.1379
 5436SOL     OW21515   2.292   5.566   2.404  0.7455  0.4646 -0.1075
 5436SOL    HW221516   2.296   5.614   2.487  1.9080  0.1632  0.0382
 5436SOL    HW321517   2.263   5.631   2.340  0.5655  0.8961  0.4036
 5436SOL    MW421518   2.289   5.581   2.407 -0.7713 -0.1843  0.5911
 5437SOL     OW21519   3.523   0.017   5.354 -0.4054  0.4573  0.3755
 5437SOL    HW221520   3.449  -0.036   5.383 -0.0753 -0.6219 -0.6892
 5437SOL    HW321521   3.588  -0.046   5.324 -0.5057  1.4616 -2.2152
 5437SOL    MW421522   3.522   0.002   5.354 -0.2554 -0.4465 -0.1377
 5438SOL     OW21523   3.057   5.933   2.040  0.1195 -0.0923  0.5231
 5438SOL    HW221524   3.110   6.009   2.067 -0.6848  0.9920 -0.8199
 5438SOL    HW321525   2.968   5.956   2.067 -0.1120 -0.6283  0.2326
 5438SOL    MW421526   3.052   5.946   2.047  0.1069  0.2356  0.2810
 5439SOL     OW21527   0.381   6.067   5.584 -0.2074 -0.2591  0.0400
 5439SOL    HW221528   0.374   6.087   5.677 -0.3211 -0.8062  0.1529
 5439SOL    HW321529   0.373   6.152   5.541  1.3903  0.1975  0.5904
 5439SOL    MW421530   0.379   6.081   5.591 -0.1933 -0.0028  0.2722
 5440SOL     OW21531   4.377   1.247   0.608 -0.0733 -0.0242 -0.4334
 5440SOL    HW221532   4.439   1.316   0.633 -0.6612  0.0099  1.0246
 5440SOL    HW321533   4.349   1.210   0.691 -2.4484  0.3322 -1.0205
 5440SOL    MW421534   4.382   1.252   0.622 -0.2028  0.2699  0.0158
 5441SOL     OW21535   3.779   5.347   5.431 -0.0600  0.2372  0.3224
 5441SOL    HW221536   3.823   5.395   5.362 -0.5034  1.2090  0.6993
 5441SOL    HW321537   3.822   5.261   5.432 -0.1749  0.1312 -1.2739
 5441SOL    MW421538   3.790   5.342   5.422  0.1233 -0.1141 -0.5871
 5442SOL     OW21539   5.373   3.622   4.841 -0.4249  0.0221 -0.2237
 5442SOL    HW221540   5.387   3.528   4.852  1.7524  0.2012 -1.0247
 5442SOL    HW321541   5.371   3.635   4.746 -0.2026  0.8367 -0.1275
 5442SOL    MW421542   5.374   3.612   4.830 -0.0509 -0.0445  0.0832
 5443SOL     OW21543   5.107   3.909   1.148 -0.3434 -0.3765 -0.0001
 5443SOL    HW221544   5.101   4.004   1.158  0.7935 -0.3377  0.4592
 5443SOL    HW321545   5.023   3.884   1.110 -1.2727  0.6254  1.2766
 5443SOL    MW421546   5.095   3.919   1.145 -0.0407 -0.0488  0.3076
 5444SOL     OW21547   5.630   6.321   1.983  0.1888 -0.0980  0.7534
 5444SOL    HW221548   5.563   6.376   2.023 -1.7388 -1.2687 -0.6711
 5444SOL    HW321549   5.678   6.380   1.926 -1.9348  0.2045 -0.8675
 5444SOL    MW421550   5.627   6.336   1.981  0.3089 -0.3294 -0.1299
 5445SOL     OW21551   4.028   1.418   4.185 -0.3614  0.1064  0.3877
 5445SOL    HW221552   3.984   1.491   4.140  1.2648  0.8519 -0.0441
 5445SOL    HW321553   4.009   1.433   4.278 -0.8854  0.4980  0.2239
 5445SOL    MW421554   4.019   1.430   4.191  0.1323 -0.0391 -0.4975
 5446SOL     OW21555   1.437   5.259   4.832 -0.2455 -0.7692 -0.9203
 5446SOL    HW221556   1.432   5.334   4.773  0.4987 -0.3900 -0.5143
 5446SOL    HW321557   1.437   5.183   4.774 -0.7877 -0.4542 -1.3426
 5446SOL    MW421558   1.437   5.259   4.817  0.4033  0.1010  0.5160
 5447SOL     OW21559   1.330   1.029   0.528 -0.0598 -0.0949 -0.2944
 5447SOL    HW221560   1.343   1.115   0.489  0.6405 -0.3885 -0.7252
 5447SOL    HW321561   1.385   1.029   0.606  1.3825 -0.7750 -1.2664
 5447SOL    MW421562   1.339   1.040   0.533 -0.3242 -0.6893  0.0579
 5448SOL     OW21563   5.292   0.069   5.195 -0.2327  0.1416  0.0456
 5448SOL    HW221564   5.309   0.008   5.267  2.1482  2.7789  1.9428
 5448SOL    HW321565   5.200   0.094   5.206 -0.9535 -2.1441 -0.1437
 5448SOL    MW421566   5.282   0.064   5.206  0.2237 -0.1517 -0.7466
 5449SOL     OW21567   4.625   5.875   3.110  0.5868  0.0994  0.0730
 5449SOL    HW221568   4.548   5.875   3.053  1.4190  0.2863 -1.1011
 5449SOL    HW321569   4.682   5.943   3.072  1.6802 -0.6074  0.4095
 5449SOL    MW421570   4.622   5.884   3.097  0.7103  0.0173  0.6378
 5450SOL     OW21571   1.900   5.590   5.796 -0.6312  0.2949  0.0692
 5450SOL    HW221572   1.865   5.580   5.708 -0.5172 -0.0395  0.0583
 5450SOL    HW321573   1.831   5.555   5.854 -0.5138  0.0764  0.0794
 5450SOL    MW421574   1.886   5.584   5.792  0.0661  0.4110  0.7747
 5451SOL     OW21575   3.903   3.014   1.872 -0.1566  0.1777 -0.3694
 5451SOL    HW221576   3.911   2.958   1.949  2.9263  0.5293 -0.2800
 5451SOL    HW321577   3.993   3.020   1.839 -0.8179  2.9005 -1.9160
 5451SOL    MW421578   3.916   3.008   1.878 -0.2476  0.6366  0.6318
 5452SOL     OW21579   2.159   0.954   2.230  0.5236  0.2120  0.2844
 5452SOL    HW221580   2.101   1.005   2.287  1.2326  1.2235  0.1140
 5452SOL    HW321581   2.159   1.002   2.147  3.0824  1.3133  0.8519
 5452SOL    MW421582   2.151   0.967   2.226 -0.4987 -0.3012 -0.1559
 5453SOL     OW21583   0.781   3.748   5.378  0.6080 -0.1426 -0.3567
 5453SOL    HW221584   0.802   3.679   5.442 -1.4904  1.0079  1.7242
 5453SOL    HW321585   0.707   3.713   5.329  0.3520  0.1300 -0.1632
 5453SOL    MW421586   0.774   3.734   5.380 -0.1500  0.0632  0.2833
 5454SOL     OW21587   5.480   5.708   0.861  0.4627  1.0379 -0.3470
 5454SOL    HW221588   5.469   5.795   0.823 -1.9353  0.4696 -1.1083
 5454SOL    HW321589   5.555   5.670   0.815  1.1383  2.4322 -0.4423
 5454SOL    MW421590   5.489   5.715   0.850 -0.2358  0.0581  0.4973
 5455SOL     OW21591   3.807   6.249   0.713  0.4750 -0.4643 -0.5246
 5455SOL    HW221592   3.823   6.178   0.651  0.1759 -0.0754 -1.0479
 5455SOL    HW321593   3.715   6.242   0.736  0.8879 -1.5019  1.0066
 5455SOL    MW421594   3.797   6.239   0.708 -0.2566  0.1186 -0.1187
 5456SOL     OW21595   1.702   3.214   3.904 -0.0018  0.0248  0.4437
 5456SOL    HW221596   1.742   3.215   3.818 -0.6651  1.3025  0.1135
 5456SOL    HW321597   1.776   3.215   3.965  0.4878  0.7418 -0.1390
 5456SOL    MW421598   1.717   3.215   3.901 -0.7349  0.0743 -0.1653
 5457SOL     OW21599   6.294   5.922   0.629 -0.0616 -0.1675 -0.4114
 5457SOL    HW221600   6.287   6.016   0.646 -1.2239 -0.0870 -1.2823
 5457SOL    HW321601   6.287   5.914   0.534 -1.8390 -1.2718 -0.2292
 5457SOL    MW421602   6.292   5.933   0.619  0.1768 -0.5922 -0.0029
 5458SOL     OW21603   6.026   5.135   4.996  0.0244 -0.5487 -0.0940
 5458SOL    HW221604   5.958   5.201   4.993  0.3910 -0.1736 -3.4615
 5458SOL    HW321605   6.108   5.184   4.991  0.3553 -1.1887 -1.1313
 5458SOL    MW421606   6.028   5.150   4.995 -0.1292  0.2266  0.2426
 5459SOL     OW21607   5.738   5.460   3.715 -0.1248  0.1515 -0.4309
 5459SOL    HW221608   5.706   5.402   3.646  0.4438 -2.2130  1.1691
 5459SOL    HW321609   5.782   5.402   3.777 -1.0379  2.0580  2.1904
 5459SOL    MW421610   5.739   5.445   3.715 -0.3269  0.0184 -0.1108
 5460SOL     OW21611   6.416   4.240   5.342 -0.2555 -0.1151 -0.5096
 5460SOL    HW221612   6.436   4.257   5.435 -2.5100  2.2992 -0.3322
 5460SOL    HW321613   6.355   4.167   5.344 -1.9053  1.1982  0.1979
 5460SOL    MW421614   6.411   4.233   5.355  0.3169  0.7998 -0.6561
 5461SOL     OW21615   3.833   4.015   1.894 -0.3149  0.0944 -0.0011
 5461SOL    HW221616   3.845   4.078   1.823  0.4788  0.4116  0.3985
 5461SOL    HW321617   3.900   4.039   1.959  0.0425 -1.1986  0.1287
 5461SOL    MW421618   3.843   4.027   1.894  0.3694 -0.1366  0.2747
 5462SOL     OW21619   4.408   0.405   5.186  0.1158 -0.3718  0.4378
 5462SOL    HW221620   4.463   0.445   5.254  0.5469 -3.4622  2.0571
 5462SOL    HW321621   4.335   0.367   5.234  0.7217 -3.1431 -0.6759
 5462SOL    MW421622   4.406   0.405   5.201 -0.0692  0.1450 -0.4410
 5463SOL     OW21623   1.915   1.933   0.840 -0.7644  0.2910 -0.0960
 5463SOL    HW221624   1.912   1.945   0.934 -0.1102  0.0792 -0.0450
 5463SOL    HW321625   1.997   1.975   0.813 -0.7236 -0.0485 -0.5070
 5463SOL    MW421626   1.926   1.940   0.848 -0.1520 -0.1248 -0.2788
 5464SOL     OW21627   4.700   3.381   2.671 -0.2355  0.3513  0.4789
 5464SOL    HW221628   4.666   3.467   2.696 -0.9497 -0.0758  1.0289
 5464SOL    HW321629   4.700   3.331   2.752 -2.0749 -0.9017 -0.2228
 5464SOL    MW421630   4.695   3.386   2.685  0.2236  0.0352  0.2677
 5465SOL     OW21631   3.095   5.139   5.400  0.3862 -0.3970 -0.0695
 5465SOL    HW221632   3.060   5.074   5.461  0.7689 -0.9260 -0.3987
 5465SOL    HW321633   3.186   5.112   5.386  0.8733  0.8116  0.5968
 5465SOL    MW421634   3.103   5.127   5.406  0.0106 -0.6230 -0.6938
 5466SOL     OW21635   4.608   1.079   2.364  0.3904  0.6502 -0.0594
 5466SOL    HW221636   4.645   1.082   2.452  1.3756  3.3217 -0.4877
 5466SOL    HW321637   4.560   1.161   2.355 -1.8175 -0.6647 -1.1946
 5466SOL    MW421638   4.606   1.090   2.375 -0.7256 -1.3934  0.7964
 5467SOL     OW21639   0.530   4.753   1.984  0.1114 -0.1844  0.3531
 5467SOL    HW221640   0.598   4.790   2.040 -0.4608  1.2638  0.1302
 5467SOL    HW321641   0.577   4.696   1.923  0.8651 -0.8864  1.5425
 5467SOL    MW421642   0.545   4.750   1.983  0.8186 -0.3357  0.3695
 5468SOL     OW21643   4.794   3.143   6.348  0.2791 -0.1663  0.3399
 5468SOL    HW221644   4.785   3.048   6.337 -2.4991  0.1512 -1.1631
 5468SOL    HW321645   4.819   3.174   6.261  0.2217  0.5546  0.5775
 5468SOL    MW421646   4.796   3.134   6.335  0.2205  0.3112 -0.1275
 5469SOL     OW21647   4.192   6.244   5.371 -0.1328 -0.5019 -0.4272
 5469SOL    HW221648   4.174   6.164   5.323 -2.9376  0.4905 -1.2042
 5469SOL    HW321649   4.228   6.304   5.305 -0.6894 -0.2551 -0.5146
 5469SOL    MW421650   4.195   6.241   5.356 -0.4358  0.0096  0.1357
 5470SOL     OW21651   2.057   3.634   1.884  0.4609  0.3946  0.3796
 5470SOL    HW221652   2.009   3.557   1.917 -0.7483  0.8764 -0.1837
 5470SOL    HW321653   2.071   3.616   1.792  0.1687  0.8422  0.2432
 5470SOL    MW421654   2.052   3.622   1.876 -0.0983 -0.1550  0.1410
 5471SOL     OW21655   1.152   0.956   0.211  0.0018 -0.1864 -0.8662
 5471SOL    HW221656   1.129   1.047   0.193 -1.6463 -0.4910 -0.5325
 5471SOL    HW321657   1.243   0.948   0.185  0.9421  2.1560  1.2537
 5471SOL    MW421658   1.161   0.967   0.205 -0.3026  0.9237  0.3375
 5472SOL     OW21659   4.610   4.841   2.174 -0.4410  0.3101  0.0047
 5472SOL    HW221660   4.671   4.796   2.115  1.1180  2.1163  0.1215
 5472SOL    HW321661   4.652   4.926   2.191 -0.2452 -0.4413  4.5389
 5472SOL    MW421662   4.624   4.847   2.169  0.6837  0.1631 -0.2033
 5473SOL     OW21663   5.231   2.337   0.616 -0.4672 -0.0122 -0.0838
 5473SOL    HW221664   5.271   2.278   0.552  0.6917 -0.2813  0.8437
 5473SOL    HW321665   5.288   2.414   0.616 -1.0853  0.4503 -0.1596
 5473SOL    MW421666   5.244   2.339   0.608 -0.5815 -0.4038  0.7443
 5474SOL     OW21667   5.036   0.522   3.173 -0.3384 -0.5152  0.0888
 5474SOL    HW221668   5.060   0.599   3.122  0.3873 -0.1717  0.9246
 5474SOL    HW321669   5.082   0.449   3.130 -0.5814 -0.4011 -0.3699
 5474SOL    MW421670   5.045   0.522   3.161  0.5119 -0.1803  0.5455
 5475SOL     OW21671   3.159   5.277   6.328  0.3120 -0.1885 -0.0708
 5475SOL    HW221672   3.112   5.270   6.411  0.4829  1.0146  0.1357
 5475SOL    HW321673   3.210   5.196   6.323 -0.6765 -0.8608  0.3675
 5475SOL    MW421674   3.160   5.265   6.338 -0.5938  0.0036 -0.2714
 5476SOL     OW21675   1.513   6.107   3.257  0.2826  0.2502 -0.4390
 5476SOL    HW221676   1.547   6.144   3.338  1.1260 -0.7332 -0.3231
 5476SOL    HW321677   1.515   6.012   3.271  1.4206  0.0036 -1.9849
 5476SOL    MW421678   1.517   6.099   3.269  0.3628  0.1711 -0.0169
 5477SOL     OW21679   5.477   1.421   1.562  0.1204 -0.4000  0.9046
 5477SOL    HW221680   5.382   1.432   1.555  0.4275  1.6181 -2.3981
 5477SOL    HW321681   5.494   1.338   1.518  0.0259  1.0386 -2.1574
 5477SOL    MW421682   5.467   1.412   1.555 -0.1700  0.4508  0.0263
 5478SOL     OW21683   4.145   5.506   5.620 -0.1543 -0.2764 -0.3621
 5478SOL    HW221684   4.141   5.457   5.538  0.6849  0.7302 -1.0267
 5478SOL    HW321685   4.056   5.502   5.655 -1.0732  1.0658 -2.3820
 5478SOL    MW421686   4.133   5.499   5.614  0.5463 -0.0261 -0.2722
 5479SOL     OW21687   5.742   1.971   1.075  0.8867 -0.6175 -0.0057
 5479SOL    HW221688   5.702   1.918   1.006 -0.5627 -2.4798  2.1445
 5479SOL    HW321689   5.722   1.925   1.156  1.6700  1.9832  1.7978
 5479SOL    MW421690   5.734   1.958   1.076  0.3133 -0.1799 -0.0008
 5480SOL     OW21691   6.069   1.135   2.422 -0.1443 -0.6903  0.5493
 5480SOL    HW221692   6.112   1.113   2.339  2.9370  2.5024  1.0778
 5480SOL    HW321693   5.994   1.189   2.396  0.0511 -0.7631 -0.1961
 5480SOL    MW421694   6.065   1.140   2.407 -0.0484  0.3256  0.0278
 5481SOL     OW21695   1.369   6.107   4.255 -0.1291  0.1256  0.2845
 5481SOL    HW221696   1.365   6.114   4.350 -0.5156 -1.7750  0.4524
 5481SOL    HW321697   1.463   6.098   4.236 -0.1171 -0.5099  0.6029
 5481SOL    MW421698   1.381   6.107   4.265  0.3390 -0.1684  0.0795
 5482SOL     OW21699   5.395   0.804   6.426 -0.0890 -0.2206  0.9335
 5482SOL    HW221700   5.401   0.769   6.515 -0.5280 -1.1353  0.6141
 5482SOL    HW321701   5.398   0.899   6.437 -0.2674 -0.3226  1.9320
 5482SOL    MW421702   5.396   0.812   6.439 -0.4884 -0.5085 -0.2492
 5483SOL     OW21703   4.547   1.231   2.612  0.6521 -0.2757 -0.6372
 5483SOL    HW221704   4.465   1.190   2.637  0.1066  0.2403 -1.5153
 5483SOL    HW321705   4.524   1.287   2.538  1.3139  1.8453  0.6849
 5483SOL    MW421706   4.533   1.233   2.605 -0.2016  0.0936 -0.0184
 5484SOL     OW21707   0.154   5.457   3.943 -0.0836 -0.2848  0.0741
 5484SOL    HW221708   0.234   5.493   3.907  0.7893 -2.1290  0.0698
 5484SOL    HW321709   0.169   5.363   3.947 -1.0608 -0.4286  2.9514
 5484SOL    MW421710   0.166   5.450   3.939  0.4964  0.4187 -0.2565
 5485SOL     OW21711   1.553   3.325   4.718  0.0330  0.0722 -0.4533
 5485SOL    HW221712   1.647   3.317   4.698  0.2843  0.3728  0.5256
 5485SOL    HW321713   1.513   3.350   4.635  1.0125  1.2434 -0.6102
 5485SOL    MW421714   1.560   3.327   4.704 -0.1949 -0.4502  0.3375
 5486SOL     OW21715   3.559   4.440   0.694  0.2653 -0.3751  0.1366
 5486SOL    HW221716   3.587   4.532   0.700  3.2062 -1.1075 -0.5263
 5486SOL    HW321717   3.502   4.437   0.618  1.7332  0.6280 -1.0700
 5486SOL    MW421718   3.555   4.452   0.685  0.5787  0.4055  0.4007
 5487SOL     OW21719   0.547   0.575   5.793 -0.1032  0.3245  0.2722
 5487SOL    HW221720   0.607   0.612   5.728 -0.7360 -0.2930 -0.6877
 5487SOL    HW321721   0.589   0.593   5.877  2.0632 -1.1422 -0.3943
 5487SOL    MW421722   0.561   0.582   5.796  0.1102  0.9609 -0.5640
 5488SOL     OW21723   4.581   1.242   4.594  0.1613 -0.5193  0.1681
 5488SOL    HW221724   4.521   1.167   4.593 -1.9780  0.9788 -3.1501
 5488SOL    HW321725   4.523   1.318   4.584  2.4550  1.2756 -0.3062
 5488SOL    MW421726   4.565   1.242   4.593  0.4314 -0.1818 -0.0493
 5489SOL     OW21727   2.789   1.010   5.077  0.0972 -0.0320 -0.2014
 5489SOL    HW221728   2.714   1.022   5.018  0.3623  2.1984 -0.1636
 5489SOL    HW321729   2.749   0.989   5.161 -0.7524  3.6004  0.4442
 5489SOL    MW421730   2.774   1.009   5.080 -0.3498  0.0446  0.1615
 5490SOL     OW21731   5.373   0.628   6.051  0.1268  0.0108  0.4880
 5490SOL    HW221732   5.373   0.723   6.036  0.5794 -0.2361 -1.3775
 5490SOL    HW321733   5.356   0.591   5.965 -1.9617 -1.6129  1.5007
 5490SOL    MW421734   5.371   0.636   6.038 -0.0842  0.3738 -0.3256
 5491SOL     OW21735   1.887   5.731   0.265 -0.2618  0.3279  0.4316
 5491SOL    HW221736   1.820   5.663   0.259  2.0021 -1.9518 -0.6703
 5491SOL    HW321737   1.947   5.700   0.332  1.3419  0.7194 -0.7726
 5491SOL    MW421738   1.886   5.718   0.273 -0.5301  0.3853  0.2480
 5492SOL     OW21739   2.984   5.760   0.479 -0.4990 -0.0784 -0.5464
 5492SOL    HW221740   3.070   5.719   0.482 -0.4252  0.1251  1.4969
 5492SOL    HW321741   3.002   5.851   0.452  0.0723  0.2134  0.7175
 5492SOL    MW421742   2.998   5.767   0.476  0.7838 -0.3845 -0.2625
 5493SOL     OW21743   1.337   6.313   0.246  0.2894  0.0656 -0.2650
 5493SOL    HW221744   1.302   6.228   0.217  1.9586  0.4022 -3.8636
 5493SOL    HW321745   1.260   6.367   0.261 -0.7961 -1.1477 -1.2012
 5493SOL    MW421746   1.322   6.309   0.244  0.5984 -0.1347  0.4726
 5494SOL     OW21747   4.617   3.204   0.830 -0.1218  0.7142 -0.5981
 5494SOL    HW221748   4.561   3.233   0.757 -1.5853 -0.0624  0.1815
 5494SOL    HW321749   4.637   3.112   0.810  1.6138  1.1829 -1.2777
 5494SOL    MW421750   4.613   3.196   0.817 -0.1255  0.1850 -0.0959
 5495SOL     OW21751   3.622   0.009   1.523 -0.8568  0.2638  0.0157
 5495SOL    HW221752   3.706   0.045   1.495 -1.4725  4.3283  2.6444
 5495SOL    HW321753   3.645  -0.057   1.589  0.2449 -0.1489 -0.7591
 5495SOL    MW421754   3.636   0.005   1.528 -0.2483 -0.0128 -0.1612
 5496SOL     OW21755   1.540   3.228   5.932  0.0736  0.1923  0.1078
 5496SOL    HW221756   1.482   3.183   5.993  0.3176 -0.3449 -0.0497
 5496SOL    HW321757   1.609   3.164   5.912 -0.9416 -0.3040 -2.0978
 5496SOL    MW421758   1.542   3.214   5.937 -0.5114 -0.4237 -0.1096
 5497SOL     OW21759   5.395   5.747   4.047 -0.0321  0.3664  0.0293
 5497SOL    HW221760   5.375   5.714   3.959  0.9747 -1.5300  0.4455
 5497SOL    HW321761   5.311   5.778   4.081 -1.5230 -3.1904  0.0681
 5497SOL    MW421762   5.381   5.747   4.040  0.7861  0.7488 -0.0823
 5498SOL     OW21763   5.775   3.676   4.208  0.0035 -0.0932 -0.1318
 5498SOL    HW221764   5.727   3.608   4.161 -1.0756 -0.1284  0.9924
 5498SOL    HW321765   5.730   3.684   4.292  0.5139  1.5379  0.0183
 5498SOL    MW421766   5.763   3.668   4.213  0.0622  0.1621 -0.2654
 5499SOL     OW21767   5.708   6.185   6.330  0.4098 -0.1001 -0.2228
 5499SOL    HW221768   5.796   6.155   6.353  0.1408 -2.3318 -1.8716
 5499SOL    HW321769   5.651   6.112   6.351 -0.6638  0.2554 -1.7154
 5499SOL    MW421770   5.712   6.172   6.336 -0.2352  0.7254 -0.2388
 5500SOL     OW21771   2.142   3.019   0.823  0.5001 -0.3257 -0.3903
 5500SOL    HW221772   2.237   3.013   0.826  0.5803  1.0666  1.3499
 5500SOL    HW321773   2.123   3.110   0.799 -0.3242  0.0978  1.6290
 5500SOL    MW421774   2.152   3.030   0.821  0.2051 -0.1272 -0.0377
 5501SOL     OW21775   4.828   4.226   0.389  0.3017  0.5295  0.0564
 5501SOL    HW221776   4.912   4.197   0.426 -0.5003  1.5876  3.0066
 5501SOL    HW321777   4.829   4.321   0.399 -2.1252  0.4297  2.4674
 5501SOL    MW421778   4.839   4.235   0.395  0.1385 -0.2349  0.0217
 5502SOL     OW21779   1.221   4.744   3.205 -0.5079 -0.2694  0.2015
 5502SOL    HW221780   1.140   4.794   3.213 -0.2453  0.3108 -0.6285
 5502SOL    HW321781   1.284   4.806   3.169  0.3472 -0.6781  0.9647
 5502SOL    MW421782   1.219   4.758   3.201  0.1994 -0.6306  0.8236
 5503SOL     OW21783   3.973   3.269   4.120 -0.4298 -0.3902  0.2292
 5503SOL    HW221784   4.016   3.206   4.063 -2.9543 -1.3511 -0.7508
 5503SOL    HW321785   3.932   3.216   4.188 -1.6499  0.2382  0.0231
 5503SOL    MW421786   3.973   3.254   4.121 -0.1659  0.4061 -0.4365
 5504SOL     OW21787   2.314   2.165   5.622  0.1934 -0.2056 -0.3297
 5504SOL    HW221788   2.352   2.144   5.536  1.6246 -2.7410  0.8121
 5504SOL    HW321789   2.388   2.197   5.673 -0.4715  0.4573  0.2398
 5504SOL    MW421790   2.329   2.167   5.617  0.3094 -0.5345 -0.2589
 5505SOL     OW21791   3.410   6.428   2.103  0.0322 -0.4941 -0.5026
 5505SOL    HW221792   3.475   6.440   2.034  1.6251 -1.7577  0.7152
 5505SOL    HW321793   3.458   6.387   2.175 -2.0318 -1.1084  0.5958
 5505SOL    MW421794   3.425   6.424   2.103 -0.1566 -0.2579  0.3047
 5506SOL     OW21795   2.877   1.159   3.733  0.3702 -0.1481 -0.4892
 5506SOL    HW221796   2.938   1.181   3.663 -0.4296  0.6681 -0.9497
 5506SOL    HW321797   2.882   1.233   3.794  0.0609 -0.2116 -0.3819
 5506SOL    MW421798   2.885   1.172   3.732  0.3097  0.4858  0.2857
 5507SOL     OW21799   1.863   3.688   5.012  0.6649  0.3836 -0.1392
 5507SOL    HW221800   1.938   3.732   4.973  1.9244 -1.6413 -0.1264
 5507SOL    HW321801   1.900   3.621   5.068 -1.1675  0.1894  0.9471
 5507SOL    MW421802   1.878   3.685   5.014  0.0874  0.6624 -0.2359
 5508SOL     OW21803   3.158   1.459   4.434 -0.2660 -0.1467 -0.0216
 5508SOL    HW221804   3.209   1.453   4.353 -0.5153  2.4604 -0.4621
 5508SOL    HW321805   3.138   1.552   4.443 -2.2049 -0.6556  1.8488
 5508SOL    MW421806   3.162   1.470   4.424  0.1466  0.1642  1.1443
 5509SOL     OW21807   0.029   2.509   0.897 -0.0115 -0.9333 -0.1666
 5509SOL    HW221808   0.114   2.502   0.853 -0.2715 -0.1071 -0.8275
 5509SOL    HW321809  -0.033   2.466   0.838 -0.2114 -0.6561 -0.1621
 5509SOL    MW421810   0.032   2.502   0.883  0.1311 -0.0634  0.1408
 5510SOL     OW21811   2.744   2.148   0.608 -0.2255  0.1411  0.4351
 5510SOL    HW221812   2.729   2.057   0.583 -1.2511  0.1569  0.9184
 5510SOL    HW321813   2.703   2.156   0.695 -0.5377  1.1677  0.2116
 5510SOL    MW421814   2.737   2.137   0.616  0.3203  0.5667  0.4503
 5511SOL     OW21815   0.485   3.666   1.933 -0.0066 -0.0911 -0.2454
 5511SOL    HW221816   0.502   3.760   1.938 -1.7266  0.2620 -0.2472
 5511SOL    HW321817   0.390   3.660   1.925 -0.1626 -1.8921  1.9628
 5511SOL    MW421818   0.474   3.678   1.933 -0.0860  0.0915 -0.3026
 5512SOL     OW21819   2.839   5.729   4.929 -0.5598  1.0339  0.2537
 5512SOL    HW221820   2.862   5.688   4.845 -0.0335  2.1113 -0.1446
 5512SOL    HW321821   2.922   5.757   4.966 -0.8977  1.7038  0.5269
 5512SOL    MW421822   2.853   5.727   4.923  0.1854 -0.5064  0.2031
 5513SOL     OW21823   4.478   0.139   1.518 -0.2248  0.7803 -0.4234
 5513SOL    HW221824   4.565   0.107   1.492  0.1254  0.1429  1.3384
 5513SOL    HW321825   4.470   0.224   1.474 -0.0051 -0.4360 -3.0113
 5513SOL    MW421826   4.489   0.146   1.509 -0.3397 -0.2085 -0.5758
 5514SOL     OW21827   2.967   0.355   4.187 -0.3562 -0.0623  0.0006
 5514SOL    HW221828   2.942   0.371   4.278 -1.9303  2.5121 -0.7504
 5514SOL    HW321829   3.028   0.426   4.166 -0.9469  0.1106 -1.2490
 5514SOL    MW421830   2.972   0.367   4.196  0.4659 -0.4566 -0.3352
 5515SOL     OW21831   0.747   4.489   3.701 -0.4646 -0.1572 -0.4477
 5515SOL    HW221832   0.755   4.438   3.620 -0.2433 -0.2685 -0.3565
 5515SOL    HW321833   0.798   4.439   3.765 -0.1597  0.2376 -0.3832
 5515SOL    MW421834   0.754   4.476   3.698  0.1666  0.2709 -0.8894
 5516SOL     OW21835   3.100   0.035   5.378  0.1284 -0.0112 -0.0717
 5516SOL    HW221836   3.121   0.121   5.414 -1.6661 -0.8269  3.3155
 5516SOL    HW321837   3.055   0.054   5.296 -0.4418  2.3377  0.6904
 5516SOL    MW421838   3.097   0.049   5.372 -0.4114  0.0475 -0.0218
 5517SOL     OW21839   3.513   4.497   4.229  0.3562  0.1606 -0.5237
 5517SOL    HW221840   3.438   4.467   4.280 -0.0513  0.2623 -1.0449
 5517SOL    HW321841   3.499   4.592   4.220 -0.1116  0.0007 -1.6537
 5517SOL    MW421842   3.501   4.506   4.234 -0.3419  0.0547  0.2966
 5518SOL     OW21843   1.409   5.238   6.110  0.3458 -0.0232  0.0925
 5518SOL    HW221844   1.327   5.198   6.137  0.7337 -1.0910 -0.2562
 5518SOL    HW321845   1.383   5.308   6.050 -0.3570  0.4839  0.9495
 5518SOL    MW421846   1.395   5.242   6.106 -0.8495  0.2944 -0.1308
 5519SOL     OW21847   1.207   3.157   2.900  0.6286 -0.7727 -0.1806
 5519SOL    HW221848   1.136   3.127   2.843 -1.4837  1.8162  0.8694
 5519SOL    HW321849   1.183   3.126   2.987  0.5788  0.4329  0.2436
 5519SOL    MW421850   1.194   3.149   2.904 -0.5722 -0.0366  0.5864
 5520SOL     OW21851   4.019   3.370   0.966  0.0206  0.0624  0.2853
 5520SOL    HW221852   4.010   3.376   1.061 -2.5179  2.4507  0.0039
 5520SOL    HW321853   4.051   3.457   0.939  1.7275 -0.8991 -1.0161
 5520SOL    MW421854   4.022   3.382   0.975  0.1793  0.0699  0.0543
 5521SOL     OW21855   4.156   3.601   3.685 -0.3975 -0.2956  0.2138
 5521SOL    HW221856   4.121   3.520   3.648 -1.0741 -0.0046  0.2105
 5521SOL    HW321857   4.133   3.598   3.778 -0.8929  0.1358  0.1099
 5521SOL    MW421858   4.148   3.590   3.693 -0.2537 -0.1618  0.1233
 5522SOL     OW21859   2.237   0.707   3.335  0.2578  0.6113  0.2299
 5522SOL    HW221860   2.215   0.615   3.348  0.5676  0.5779  0.5251
 5522SOL    HW321861   2.165   0.742   3.283  0.4173  0.0616 -0.3735
 5522SOL    MW421862   2.225   0.700   3.330 -1.4594  0.3616  0.1740
 5523SOL     OW21863   3.189   1.258   6.250 -0.8161  0.2788 -0.5254
 5523SOL    HW221864   3.129   1.300   6.188  0.7405  0.8775 -1.6882
 5523SOL    HW321865   3.274   1.297   6.231  0.1292 -1.2439  0.4165
 5523SOL    MW421866   3.192   1.269   6.239  0.1398 -0.1976 -0.0224
 5524SOL     OW21867   4.783   3.659   4.109  0.3151 -0.6500  0.3935
 5524SOL    HW221868   4.858   3.697   4.154 -0.4133  0.8150  0.4343
 5524SOL    HW321869   4.717   3.729   4.108 -0.0629 -0.9318 -2.0403
 5524SOL    MW421870   4.784   3.673   4.115 -0.3633 -0.0391  0.3195
 5525SOL     OW21871   0.606   4.889   2.244 -0.1775 -0.2877 -0.3859
 5525SOL    HW221872   0.695   4.853   2.243  0.1890  0.5583 -2.2565
 5525SOL    HW321873   0.552   4.817   2.275  1.1029 -0.9105  0.5188
 5525SOL    MW421874   0.611   4.875   2.248 -0.4149  0.3078 -0.2615
 5526SOL     OW21875   0.672   3.466   3.934 -1.1617  0.1212  0.1464
 5526SOL    HW221876   0.674   3.554   3.970  0.2273  0.0855  0.2105
 5526SOL    HW321877   0.629   3.413   4.002 -0.9217  0.5338  0.6240
 5526SOL    MW421878   0.667   3.470   3.948  0.6924 -0.0685 -0.1912
 5527SOL     OW21879   1.340   2.480   1.160 -0.3402 -0.3677  0.4780
 5527SOL    HW221880   1.404   2.480   1.089  0.1368  1.3513  0.8681
 5527SOL    HW321881   1.296   2.395   1.152 -0.4477 -0.1682 -1.9738
 5527SOL    MW421882   1.343   2.469   1.149 -0.1416 -0.3870 -0.3533
 5528SOL     OW21883   0.459   5.653   5.644 -0.1590  0.0513  0.2685
 5528SOL    HW221884   0.466   5.664   5.739  1.0434 -2.3782  0.5341
 5528SOL    HW321885   0.487   5.737   5.609  0.3481  0.6792  2.0422
 5528SOL    MW421886   0.464   5.665   5.652 -0.1165 -0.0536 -0.3358
 5529SOL     OW21887   3.331   2.690   6.294 -0.3040 -0.0640  0.0056
 5529SOL    HW221888   3.416   2.699   6.337 -0.1213  0.5012 -0.4720
 5529SOL    HW321889   3.325   2.596   6.274  0.0896 -0.1502  0.2718
 5529SOL    MW421890   3.341   2.679   6.297 -0.3477  0.4726 -0.2052
 5530SOL     OW21891   5.471   0.076   4.896  0.0627  0.0034 -0.4698
 5530SOL    HW221892   5.496   0.013   4.963  1.3180 -1.8643 -2.5330
 5530SOL    HW321893   5.378   0.093   4.911 -0.0965 -1.6871  0.6676
 5530SOL    MW421894   5.462   0.070   4.907  0.3247  0.4177  0.5819
 5531SOL     OW21895   6.041   5.328   4.230 -0.3991 -0.3978 -0.0797
 5531SOL    HW221896   5.996   5.346   4.147 -1.0432  0.1639  0.3784
 5531SOL    HW321897   6.027   5.407   4.282  0.3337 -0.5906  0.4240
 5531SOL    MW421898   6.033   5.341   4.226 -0.4289 -0.1274  0.0197
 5532SOL     OW21899   5.183   1.903   1.014 -0.1817 -0.3097  0.4381
 5532SOL    HW221900   5.180   1.843   0.940  1.8726 -2.6754  2.0927
 5532SOL    HW321901   5.267   1.948   1.006 -1.0693  1.3794  0.0122
 5532SOL    MW421902   5.194   1.901   1.004 -0.2132  0.1590  0.5718
 5533SOL     OW21903   5.418   4.362   3.264 -0.2978  0.1657  0.1936
 5533SOL    HW221904   5.452   4.345   3.176 -1.1676 -3.3086  0.3877
 5533SOL    HW321905   5.332   4.401   3.250  0.3258  1.3944 -0.4006
 5533SOL    MW421906   5.411   4.365   3.251 -0.0336 -0.1152  0.6382
 5534SOL     OW21907   3.519   0.409   1.375  0.1545 -0.0155 -0.6041
 5534SOL    HW221908   3.499   0.473   1.307  0.3413 -1.6217 -2.2298
 5534SOL    HW321909   3.554   0.462   1.447 -1.2724  1.8637 -1.2144
 5534SOL    MW421910   3.521   0.424   1.376 -0.5961 -0.5038  0.2370
 5535SOL     OW21911   3.691   4.100   2.269  0.4554  0.2313  0.8419
 5535SOL    HW221912   3.735   4.141   2.195  0.3629  0.3235  0.8373
 5535SOL    HW321913   3.675   4.010   2.240 -0.6751  0.5861  0.2620
 5535SOL    MW421914   3.695   4.094   2.255 -0.4481  0.1145 -0.3128
 5536SOL     OW21915   4.848   1.316   0.270  0.5415  0.4974  0.3384
 5536SOL    HW221916   4.855   1.224   0.296 -0.0004 -0.2661 -2.0162
 5536SOL    HW321917   4.755   1.330   0.254  0.6963  1.2932  0.0891
 5536SOL    MW421918   4.837   1.306   0.271  0.6173 -0.1904 -0.3662
 5537SOL     OW21919   3.090   1.509   5.621  0.4226 -0.0980 -0.4130
 5537SOL    HW221920   3.078   1.422   5.660  0.4131  0.1098  0.0560
 5537SOL    HW321921   3.131   1.492   5.536 -1.7012 -0.7215 -1.3771
 5537SOL    MW421922   3.094   1.495   5.615  0.1884  0.2236  0.4236
 5538SOL     OW21923   2.050   5.329   0.205 -0.0421  0.3951 -0.2524
 5538SOL    HW221924   2.131   5.348   0.252  0.2733 -0.4469 -0.4235
 5538SOL    HW321925   2.020   5.414   0.172  1.6623  0.5397 -1.5984
 5538SOL    MW421926   2.057   5.343   0.207 -0.5849  0.4032 -0.1404
 5539SOL     OW21927   3.306   0.759   0.436  0.0404 -1.0670  0.0837
 5539SOL    HW221928   3.391   0.752   0.394 -0.0108 -3.2687  0.2036
 5539SOL    HW321929   3.252   0.807   0.374  1.3513  0.3886  0.0254
 5539SOL    MW421930   3.310   0.764   0.422 -0.3958  0.0744 -0.2308
 5540SOL     OW21931   6.156   4.464   5.531  0.1509  0.6691  0.0074
 5540SOL    HW221932   6.223   4.485   5.466  0.5370  1.6942  0.7115
 5540SOL    HW321933   6.176   4.522   5.604 -1.3879  0.8353  0.3103
 5540SOL    MW421934   6.168   4.474   5.532 -0.1192  0.1336 -0.0403
 5541SOL     OW21935   5.039   5.610   5.410 -0.0949 -0.1926  0.4223
 5541SOL    HW221936   5.131   5.587   5.417 -0.7421 -2.6664  2.0527
 5541SOL    HW321937   5.019   5.655   5.493 -0.2927  0.6804 -0.0863
 5541SOL    MW421938   5.048   5.613   5.422  0.6372 -0.0977  0.5717
 5542SOL     OW21939   1.931   4.675   3.607 -0.1071 -0.1099  0.1696
 5542SOL    HW221940   1.897   4.637   3.526  2.7773 -0.5237 -0.9574
 5542SOL    HW321941   1.973   4.602   3.653  0.7005  0.6328  0.6655
 5542SOL    MW421942   1.932   4.660   3.603 -0.1289 -0.1505  0.0975
 5543SOL     OW21943   4.693   1.771   5.032  0.1808  0.4532 -0.4903
 5543SOL    HW221944   4.715   1.738   5.119  0.6000  1.1606 -0.3271
 5543SOL    HW321945   4.681   1.865   5.043  1.4519  0.7562 -1.4093
 5543SOL    MW421946   4.695   1.779   5.045 -0.5717 -0.1927 -0.2783
 5544SOL     OW21947   2.140   4.307   2.468 -0.1094  0.5419  0.0967
 5544SOL    HW221948   2.227   4.340   2.447 -0.4986  1.2992 -0.3876
 5544SOL    HW321949   2.108   4.270   2.385  0.1970 -0.8130  0.5535
 5544SOL    MW421950   2.147   4.306   2.454  0.2311 -0.2147  0.2458
 5545SOL     OW21951   3.519   2.022   2.166 -0.0891 -0.1136 -0.0666
 5545SOL    HW221952   3.435   1.979   2.182  0.6030 -1.4309  0.1782
 5545SOL    HW321953   3.554   1.978   2.089 -0.5041  1.8046 -1.3947
 5545SOL    MW421954   3.513   2.010   2.158  0.3838  0.0691 -0.1960
 5546SOL     OW21955   6.117   0.849   0.722 -0.3221 -0.0266  0.2980
 5546SOL    HW221956   6.072   0.880   0.644 -0.1777 -2.3514 -0.7921
 5546SOL    HW321957   6.051   0.796   0.768 -0.7760  2.2403  2.4504
 5546SOL    MW421958   6.102   0.846   0.718  0.3252  0.0026  0.5355
 5547SOL     OW21959   3.613   2.504   3.568 -0.2958  0.3001 -0.0875
 5547SOL    HW221960   3.593   2.560   3.493  2.9221 -0.5755 -1.8068
 5547SOL    HW321961   3.645   2.422   3.529  1.1741 -0.3345  2.2322
 5547SOL    MW421962   3.615   2.500   3.553  0.5339  0.1648 -0.2137
 5548SOL     OW21963   4.005   2.786   6.347  0.0551 -0.9356  0.1159
 5548SOL    HW221964   4.019   2.855   6.283 -1.9999 -2.2508 -1.9312
 5548SOL    HW321965   4.091   2.771   6.386  1.0089  1.1791 -1.0184
 5548SOL    MW421966   4.018   2.793   6.344  0.2399 -0.4197  0.0011
 5549SOL     OW21967   3.274   4.501   5.939 -0.7256 -0.2480  0.4749
 5549SOL    HW221968   3.357   4.454   5.941 -0.9515 -0.6352  1.1397
 5549SOL    HW321969   3.223   4.462   6.010 -1.7044 -0.4390 -0.3105
 5549SOL    MW421970   3.278   4.489   5.949 -0.3415  0.0348  0.3328
 5550SOL     OW21971   4.644   1.764   0.760  0.0392 -0.1443  0.5827
 5550SOL    HW221972   4.624   1.803   0.674 -0.3875 -0.8786  0.3399
 5550SOL    HW321973   4.704   1.826   0.800  0.4833  0.0651 -0.3669
 5550SOL    MW421974   4.649   1.777   0.754  0.0786 -0.9511 -0.4779
 5551SOL     OW21975   5.636   0.651   4.614  0.6541 -0.7016 -0.7746
 5551SOL    HW221976   5.554   0.656   4.564  1.1982 -0.6361 -1.6729
 5551SOL    HW321977   5.702   0.624   4.550  0.9649 -2.8779  0.3441
 5551SOL    MW421978   5.634   0.648   4.599  0.0796  0.0036  0.4983
 5552SOL     OW21979   5.298   4.092   5.954  0.1980  0.4659  0.4748
 5552SOL    HW221980   5.245   4.157   5.909  0.8396  1.1938  0.7327
 5552SOL    HW321981   5.325   4.031   5.885 -1.2559 -0.1355  0.4100
 5552SOL    MW421982   5.295   4.092   5.939 -0.2037  0.1964  0.3203
 5553SOL     OW21983   0.212   1.142   3.267 -0.0342  0.0006 -0.4077
 5553SOL    HW221984   0.276   1.104   3.208  0.2708 -0.7963  0.4099
 5553SOL    HW321985   0.193   1.072   3.330  0.9369  1.3557  1.4692
 5553SOL    MW421986   0.218   1.127   3.268 -0.4875 -0.0758 -0.0657
 5554SOL     OW21987   5.105   0.930   3.314 -0.1316  0.4867 -0.1152
 5554SOL    HW221988   5.175   0.994   3.329  0.6272 -0.1703 -0.7649
 5554SOL    HW321989   5.123   0.895   3.227  0.0521 -1.3276  0.6041
 5554SOL    MW421990   5.117   0.934   3.305 -0.3472 -0.3608  0.1165
 5555SOL     OW21991   1.626   4.372   0.531 -0.1395  0.2969 -0.0349
 5555SOL    HW221992   1.648   4.351   0.621 -0.1948  0.0990 -0.0676
 5555SOL    HW321993   1.588   4.291   0.496 -2.2325  1.0130  0.4384
 5555SOL    MW421994   1.624   4.358   0.538  0.4161  0.0489 -0.1372
 5556SOL     OW21995   3.921   3.007   4.888 -0.5317 -0.3230  0.2331
 5556SOL    HW221996   3.998   3.056   4.919 -1.9845  0.9493  2.1086
 5556SOL    HW321997   3.934   2.999   4.794  1.5319  0.4924  0.3874
 5556SOL    MW421998   3.933   3.013   4.880  0.1075 -0.3603 -0.1925
 5557SOL     OW21999   2.342   3.507   1.110 -0.0674  0.1969  0.0351
 5557SOL    HW222000   2.399   3.575   1.146 -0.5567 -0.0136  1.2363
 5557SOL    HW322001   2.266   3.505   1.168 -0.9025 -0.1377 -1.0319
 5557SOL    MW422002   2.340   3.516   1.122 -0.1930 -0.2705  0.3977
 5558SOL     OW22003   0.634   4.582   1.750 -0.1459 -0.1816 -0.1379
 5558SOL    HW222004   0.619   4.674   1.727  1.3008 -0.0769 -0.7818
 5558SOL    HW322005   0.723   4.564   1.720 -0.2541 -1.6855  0.3548
 5558SOL    MW422006   0.643   4.591   1.743 -0.3716  0.0587  0.8219
 5559SOL     OW22007   4.916   3.039   2.099 -0.3426  0.3206  0.1060
 5559SOL    HW222008   4.918   2.981   2.175 -2.0636 -1.3033 -0.9696
 5559SOL    HW322009   4.829   3.077   2.100  0.1286  1.4507 -0.2646
 5559SOL    MW422010   4.905   3.036   2.109  0.3380 -0.4120  0.0988
 5560SOL     OW22011   3.142   1.918   4.712 -0.4900 -0.0758  0.6446
 5560SOL    HW222012   3.103   1.854   4.652 -1.3659  0.7214  0.3514
 5560SOL    HW322013   3.231   1.932   4.678 -0.2140 -1.2565  0.8216
 5560SOL    MW422014   3.149   1.911   4.700 -0.4589  0.3230 -0.7072
 5561SOL     OW22015   1.456   3.112   2.765  0.5670  0.1408 -0.1416
 5561SOL    HW222016   1.368   3.149   2.765  0.7566  0.6093 -0.6690
 5561SOL    HW322017   1.451   3.038   2.826  0.3387  1.3765  1.3848
 5561SOL    MW422018   1.444   3.107   2.773 -0.0520  0.0284  0.5049
 5562SOL     OW22019   4.519   1.087   5.624  0.1210 -0.0660  0.0759
 5562SOL    HW222020   4.450   1.098   5.558  1.3491 -0.5025 -1.3423
 5562SOL    HW322021   4.480   1.032   5.691 -2.3962  3.2272  1.6467
 5562SOL    MW422022   4.504   1.081   5.624 -0.1818  0.0801 -0.5883
 5563SOL     OW22023   0.691   5.419   6.157 -0.0364 -0.0231  0.3836
 5563SOL    HW222024   0.640   5.492   6.189  0.5604  0.2469  0.7327
 5563SOL    HW322025   0.635   5.342   6.171  0.1782  0.0853  2.0401
 5563SOL    MW422026   0.677   5.418   6.163  0.5816 -0.0506 -0.0376
 5564SOL     OW22027   5.848   0.070   4.940  0.4174  0.2643 -0.5138
 5564SOL    HW222028   5.919   0.007   4.954 -0.2186 -0.6839 -1.3994
 5564SOL    HW322029   5.786   0.051   5.010  0.1692 -0.1880 -0.8518
 5564SOL    MW422030   5.850   0.059   4.951  0.0683  0.2678 -0.3771
 5565SOL     OW22031   5.857   0.074   5.678 -0.0054 -0.4804 -0.2237
 5565SOL    HW222032   5.951   0.089   5.666 -0.2277  1.4324 -0.0040
 5565SOL    HW322033   5.843   0.084   5.772 -0.3800 -1.1627 -0.2025
 5565SOL    MW422034   5.868   0.078   5.688  0.1381  0.4288  0.3060
 5566SOL     OW22035   4.808   2.039   1.115  0.4049 -0.2293 -0.3040
 5566SOL    HW222036   4.824   2.024   1.022  0.8026 -0.0408 -0.2702
 5566SOL    HW322037   4.874   2.104   1.141  0.2641 -0.2388  0.0959
 5566SOL    MW422038   4.819   2.046   1.106  0.4535 -0.2416 -0.0901
 5567SOL     OW22039   3.015   6.314   1.533  0.3629  0.0975  0.4201
 5567SOL    HW222040   2.968   6.252   1.590 -0.3134  0.6330  0.4486
 5567SOL    HW322041   3.105   6.310   1.564  0.7217 -2.2090 -0.7298
 5567SOL    MW422042   3.020   6.305   1.545 -0.4072 -0.6784  0.1398
 5568SOL     OW22043   4.133   1.055   1.395 -0.6007  0.1040 -0.3403
 5568SOL    HW222044   4.098   1.008   1.470  1.2511 -1.0129 -0.1000
 5568SOL    HW322045   4.204   1.109   1.432  0.0113 -0.0888 -1.2001
 5568SOL    MW422046   4.138   1.056   1.410  0.7235 -0.2911 -0.1103
 5569SOL     OW22047   4.651   1.843   4.364  0.0301  0.9349  0.7860
 5569SOL    HW222048   4.561   1.873   4.365 -0.5003 -0.5831  1.3763
 5569SOL    HW322049   4.704   1.923   4.366 -1.2941  1.8124  1.6241
 5569SOL    MW422050   4.646   1.857   4.364  0.4484 -0.6152 -0.5347
 5570SOL     OW22051   4.212   1.488   5.202 -0.8017  0.0780 -0.6078
 5570SOL    HW222052   4.299   1.449   5.204 -0.6372  0.3811 -1.4789
 5570SOL    HW322053   4.180   1.479   5.292  0.9388  1.8077  0.2619
 5570SOL    MW422054   4.219   1.481   5.214 -0.3212  0.0606 -0.3488
 5571SOL     OW22055   2.851   5.613   5.805 -0.5789  0.7976 -0.1109
 5571SOL    HW222056   2.847   5.609   5.710  0.3051  1.8209 -0.2142
 5571SOL    HW322057   2.767   5.578   5.835 -0.4662 -0.4789 -1.2233
 5571SOL    MW422058   2.839   5.608   5.796 -0.0189  0.2712 -0.0892
 5572SOL     OW22059   1.942   4.451   4.981 -0.0098  0.3769  0.0186
 5572SOL    HW222060   1.851   4.424   4.993 -0.3734  0.1867 -2.5390
 5572SOL    HW322061   1.993   4.370   4.992 -0.4871 -0.1660 -1.5049
 5572SOL    MW422062   1.937   4.437   4.984 -0.2814 -0.0806  0.0638
 5573SOL     OW22063   3.934   4.656   0.847  0.0806 -0.0458  0.5251
 5573SOL    HW222064   3.951   4.750   0.837  0.1506  0.1463  2.1813
 5573SOL    HW322065   3.963   4.618   0.764  0.3367  1.3541 -0.0623
 5573SOL    MW422066   3.940   4.664   0.835  0.5442 -0.0478 -0.5283
 5574SOL     OW22067   2.262   5.506   0.285  0.0372 -0.2657  0.3429
 5574SOL    HW222068   2.193   5.493   0.350  0.0276 -0.6666  0.2566
 5574SOL    HW322069   2.342   5.514   0.337 -0.0297 -0.1416  0.4264
 5574SOL    MW422070   2.264   5.505   0.301 -0.1832 -0.2095  0.3700
 5575SOL     OW22071   3.070   5.015   3.155 -0.1027  0.1191  0.2380
 5575SOL    HW222072   2.997   4.998   3.096  0.3037  0.4118 -0.3694
 5575SOL    HW322073   3.059   4.953   3.227 -1.6378  0.9982  0.7965
 5575SOL    MW422074   3.059   5.004   3.157 -0.0053  0.0734 -0.2732
 5576SOL     OW22075   3.345   1.591   4.657 -0.8266 -0.4833  0.1959
 5576SOL    HW222076   3.379   1.588   4.568 -0.4940  0.8730  0.2484
 5576SOL    HW322077   3.303   1.506   4.670  1.0647 -1.5598 -0.4472
 5576SOL    MW422078   3.344   1.580   4.647  0.2012 -0.3627  0.3034
 5577SOL     OW22079   3.882   1.012   4.262  0.1782  0.2237 -0.5585
 5577SOL    HW222080   3.853   0.986   4.349  0.3944 -0.5147 -0.7040
 5577SOL    HW322081   3.858   1.105   4.256 -1.3937 -0.1376 -0.3713
 5577SOL    MW422082   3.875   1.021   4.272 -0.4835  0.0135 -0.0669
 5578SOL     OW22083   6.237   4.611   2.793  0.4344  0.0694 -0.2645
 5578SOL    HW222084   6.195   4.634   2.710  1.3508  1.1408 -0.4499
 5578SOL    HW322085   6.298   4.683   2.810  2.2960 -1.4871 -0.0758
 5578SOL    MW422086   6.240   4.624   2.784 -0.7101  0.2278  0.2620
 5579SOL     OW22087   2.642   4.917   5.507 -0.1883  0.3064 -0.1383
 5579SOL    HW222088   2.604   4.883   5.589  0.8831  0.1004  0.2816
 5579SOL    HW322089   2.590   4.875   5.438 -0.3233 -0.4666  0.4181
 5579SOL    MW422090   2.630   4.907   5.509 -0.3535  0.2481 -0.1125
 5580SOL     OW22091   3.408   4.728   2.210 -0.2278 -0.0260 -0.0786
 5580SOL    HW222092   3.409   4.658   2.276  1.1871 -0.3094 -0.3573
 5580SOL    HW322093   3.484   4.782   2.233 -1.2184  1.3575  0.0480
 5580SOL    MW422094   3.418   4.726   2.222  0.5091  0.0925  0.0155
 5581SOL     OW22095   4.133   2.600   5.084  0.4820  0.6393  0.2788
 5581SOL    HW222096   4.222   2.580   5.113  0.1214  1.1061  1.8130
 5581SOL    HW322097   4.111   2.681   5.131 -1.5407 -0.6491  1.6944
 5581SOL    MW422098   4.142   2.608   5.094 -0.4766  0.4222 -0.1923
 5582SOL     OW22099   4.030   0.744   2.106  0.1465  0.5719 -0.2211
 5582SOL    HW222100   4.045   0.767   2.014 -1.8003 -0.0317 -0.7275
 5582SOL    HW322101   4.034   0.828   2.152 -1.2457  1.2269 -1.2303
 5582SOL    MW422102   4.033   0.758   2.100  0.1050  0.0205  0.1171
 5583SOL     OW22103   2.562   3.016   4.640 -0.1385 -0.2634  0.1453
 5583SOL    HW222104   2.542   2.965   4.719 -0.2829  0.6415  0.7005
 5583SOL    HW322105   2.479   3.019   4.593 -0.2440 -0.1562  0.3365
 5583SOL    MW422106   2.548   3.010   4.644 -0.2483  0.1121 -0.2557
 5584SOL     OW22107   4.083   4.580   5.985  0.2944 -0.0304  0.4542
 5584SOL    HW222108   4.177   4.575   6.002  0.1553 -2.0287  0.8686
 5584SOL    HW322109   4.044   4.516   6.044 -1.0438 -1.3006 -1.6801
 5584SOL    MW422110   4.090   4.571   5.995  0.4077  0.2445 -0.2672
 5585SOL     OW22111   0.395   1.931   0.657 -0.0205  0.5082 -0.2009
 5585SOL    HW222112   0.316   1.939   0.711  1.7525  0.3784  2.6212
 5585SOL    HW322113   0.414   2.021   0.629 -1.0624  0.5590 -0.7647
 5585SOL    MW422114   0.387   1.944   0.660  0.2228  0.2654  0.0309
 5586SOL     OW22115   5.674   5.973   1.492  0.3683  1.1560  0.2836
 5586SOL    HW222116   5.726   5.893   1.501 -1.7952 -0.7472 -2.5470
 5586SOL    HW322117   5.681   5.997   1.400 -3.6851  0.7214 -0.3105
 5586SOL    MW422118   5.682   5.966   1.481  0.0797  1.0004  0.7210
 5587SOL     OW22119   1.435   3.893   5.883 -0.2870  0.8999 -0.4244
 5587SOL    HW222120   1.369   3.954   5.850 -0.9596 -0.2590 -1.3280
 5587SOL    HW322121   1.414   3.882   5.975  0.3682  2.6501 -0.0301
 5587SOL    MW422122   1.424   3.900   5.890  0.6288  0.2888  0.4141
 5588SOL     OW22123   0.126   1.666   5.791 -0.2470  0.5488  0.2392
 5588SOL    HW222124   0.135   1.572   5.775 -1.0946  0.5628 -0.4618
 5588SOL    HW322125   0.130   1.676   5.886  1.0455 -0.0471  0.2561
 5588SOL    MW422126   0.128   1.655   5.801  0.0444  0.4622 -0.1301
 5589SOL     OW22127   5.965   3.290   3.371  0.0532  0.1057 -0.1622
 5589SOL    HW222128   5.991   3.311   3.281  0.3808 -0.6951 -0.2599
 5589SOL    HW322129   5.897   3.354   3.392 -0.9906 -0.5490 -1.4601
 5589SOL    MW422130   5.960   3.301   3.362 -0.1226  0.0430 -0.2420
 5590SOL     OW22131   5.765   0.206   3.853 -0.2190 -0.0061  0.2786
 5590SOL    HW222132   5.756   0.262   3.776 -2.4814 -0.2903  0.2676
 5590SOL    HW322133   5.778   0.118   3.817 -2.5427 -0.3538  0.0811
 5590SOL    MW422134   5.765   0.202   3.838 -0.3941  0.3950  0.5509
 5591SOL     OW22135   3.361   4.217   3.926  0.4557 -0.0637 -0.2284
 5591SOL    HW222136   3.410   4.175   3.856  1.1700  0.6051 -0.1387
 5591SOL    HW322137   3.290   4.156   3.946 -0.0008 -0.0759 -1.8125
 5591SOL    MW422138   3.358   4.203   3.920 -0.2569 -0.1630  0.4159
 5592SOL     OW22139   4.062   3.327   3.589 -0.3285 -0.5205 -0.4176
 5592SOL    HW222140   4.008   3.285   3.655  0.4263  0.1670  0.6811
 5592SOL    HW322141   4.059   3.268   3.514  0.2812 -2.2911  0.8757
 5592SOL    MW422142   4.055   3.314   3.588  0.6533  0.0881  0.0463
 5593SOL     OW22143   3.094   0.311   3.685  0.4615  0.2582 -0.1323
 5593SOL    HW222144   3.090   0.221   3.650  0.0229 -0.1899  1.0250
 5593SOL    HW322145   3.095   0.300   3.780 -0.5465  1.5074  0.0518
 5593SOL    MW422146   3.093   0.297   3.693  0.7131  0.2510  0.7355
 5594SOL     OW22147   5.705   3.806   0.701  0.3079 -0.7054 -0.2963
 5594SOL    HW222148   5.723   3.756   0.621  2.4234  0.5216 -0.6628
 5594SOL    HW322149   5.660   3.744   0.758  0.5636 -2.2461 -1.6862
 5594SOL    MW422150   5.702   3.791   0.698 -0.3542 -0.2855  0.0072
 5595SOL     OW22151   3.402   2.648   1.652 -0.2697  0.4975 -0.1018
 5595SOL    HW222152   3.373   2.648   1.561 -3.4570 -0.2870  0.7777
 5595SOL    HW322153   3.392   2.556   1.680  2.9636  0.1865  0.4893
 5595SOL    MW422154   3.397   2.636   1.644  0.1359 -0.1788 -0.6491
 5596SOL     OW22155   1.748   1.868   2.652  0.4631  0.5373  0.0208
 5596SOL    HW222156   1.823   1.915   2.688  1.3606  0.9355 -2.2074
 5596SOL    HW322157   1.740   1.901   2.562 -1.3451 -0.7218 -0.3319
 5596SOL    MW422158   1.757   1.879   2.645  0.1413  0.7006  0.1364
 5597SOL     OW22159   2.748   2.725   6.118 -0.0849  0.0625  0.2056
 5597SOL    HW222160   2.682   2.657   6.103 -0.7117  0.6781  0.1481
 5597SOL    HW322161   2.715   2.802   6.072  0.6624  0.3923  0.2000
 5597SOL    MW422162   2.735   2.726   6.110 -0.1095 -0.3541 -0.2465
 5598SOL     OW22163   0.125   1.082   3.534 -0.1706 -0.1637 -0.2712
 5598SOL    HW222164   0.058   1.036   3.484 -1.4176  1.0388  0.2169
 5598SOL    HW322165   0.079   1.157   3.572  0.7895 -0.8464  2.4394
 5598SOL    MW422166   0.110   1.086   3.532  0.3137  1.0705  0.6649
 5599SOL     OW22167   3.809   6.415   0.071  0.2046 -0.0977  0.3152
 5599SOL    HW222168   3.880   6.443   0.013 -0.8734  0.8193 -0.6143
 5599SOL    HW322169   3.780   6.331   0.034 -0.6199  0.5829 -0.6572
 5599SOL    MW422170   3.815   6.408   0.058  0.1654  0.1349 -0.4226
 5600SOL     OW22171   2.274   1.470   3.698  1.0384 -0.3571  0.1438
 5600SOL    HW222172   2.369   1.466   3.688  1.1437 -2.7661  1.2747
 5600SOL    HW322173   2.241   1.403   3.638  0.0506  0.4531 -0.2281
 5600SOL    MW422174   2.282   1.461   3.689  0.2641 -0.8598  0.3122
 5601SOL     OW22175   0.231   4.471   5.199  0.1833  0.2023 -0.8105
 5601SOL    HW222176   0.198   4.441   5.113 -1.5219  0.9545 -0.4537
 5601SOL    HW322177   0.265   4.391   5.239  0.2035 -0.3353 -1.8375
 5601SOL    MW422178   0.231   4.456   5.193  0.1228 -0.4423  0.0952
 5602SOL     OW22179   2.633   2.308   6.347 -0.0139  1.0977 -0.5661
 5602SOL    HW222180   2.717   2.263   6.353 -0.0904  0.7740 -1.8036
 5602SOL    HW322181   2.645   2.388   6.398  0.3122 -0.0119  1.1842
 5602SOL    MW422182   2.646   2.313   6.355 -0.0498  0.2548 -0.4766
 5603SOL     OW22183   1.881   3.794   3.296  0.3367  0.4977 -0.6871
 5603SOL    HW222184   1.823   3.857   3.338  0.0033  0.4981 -1.1349
 5603SOL    HW322185   1.848   3.708   3.324  1.6841  0.5169  1.1052
 5603SOL    MW422186   1.869   3.791   3.305 -0.6248 -0.1687  0.0397
 5604SOL     OW22187   4.082   4.147   1.326  0.5607 -0.1220  0.1891
 5604SOL    HW222188   4.133   4.127   1.248 -1.0775 -1.6438 -0.5509
 5604SOL    HW322189   4.038   4.230   1.306 -1.7429 -1.6503 -1.5930
 5604SOL    MW422190   4.083   4.155   1.313  0.1410  0.2204 -0.1218
 5605SOL     OW22191   3.726   4.743   1.616 -0.4558  0.5408 -0.5753
 5605SOL    HW222192   3.814   4.731   1.653  0.0112  1.1384 -1.4399
 5605SOL    HW322193   3.685   4.657   1.621  0.0566  0.3341  0.1505
 5605SOL    MW422194   3.732   4.730   1.622 -0.2666  0.1543 -0.1322
 5606SOL     OW22195   2.854   0.686   5.890 -0.1972 -0.0553 -0.2071
 5606SOL    HW222196   2.868   0.653   5.979  0.7171 -2.1262 -1.0435
 5606SOL    HW322197   2.921   0.642   5.837 -2.3418 -0.9866 -2.3655
 5606SOL    MW422198   2.865   0.676   5.894  0.0655  0.6148  0.0675
 5607SOL     OW22199   1.454   5.541   2.231  0.6687  0.2520  0.1964
 5607SOL    HW222200   1.465   5.528   2.136  0.4905  0.2821  0.1710
 5607SOL    HW322201   1.543   5.548   2.264  0.8028 -1.3069  0.2480
 5607SOL    MW422202   1.467   5.540   2.223  0.2054  0.1946  0.1690
 5608SOL     OW22203   2.376   6.329   5.425  0.1040 -0.5822 -0.1144
 5608SOL    HW222204   2.380   6.241   5.388  0.0249 -0.9770  0.7890
 5608SOL    HW322205   2.360   6.315   5.518  0.6858  0.3713  0.1433
 5608SOL    MW422206   2.375   6.315   5.433 -0.3348 -0.2025  0.3902
 5609SOL     OW22207   4.994   2.139   5.895 -0.0704  0.1803 -0.6506
 5609SOL    HW222208   4.959   2.107   5.812  1.3621 -0.9893 -0.8439
 5609SOL    HW322209   5.080   2.174   5.872 -0.2651  1.1926  0.1168
 5609SOL    MW422210   5.001   2.139   5.881  0.2058  0.1144 -0.4023
 5610SOL     OW22211   5.140   5.201   2.676 -0.0497 -0.1350  0.6490
 5610SOL    HW222212   5.068   5.140   2.697 -0.2388  0.0037  0.4103
 5610SOL    HW322213   5.133   5.270   2.742 -1.2118  0.7813 -0.3842
 5610SOL    MW422214   5.129   5.202   2.687  0.6413 -0.1354 -0.5191
 5611SOL     OW22215   2.314   5.794   3.431  0.2112  1.0574  0.4963
 5611SOL    HW222216   2.370   5.758   3.363 -0.0079  1.6459  0.0007
 5611SOL    HW322217   2.335   5.888   3.432 -1.4744  1.4847 -0.3919
 5611SOL    MW422218   2.324   5.802   3.423 -0.1924 -0.1299 -0.0973
 5612SOL     OW22219   5.279   4.286   0.551 -0.0727  0.9308 -0.0287
 5612SOL    HW222220   5.252   4.366   0.505  0.2132  0.8367 -0.3644
 5612SOL    HW322221   5.354   4.254   0.501  0.1644  0.7557  0.4312
 5612SOL    MW422222   5.285   4.292   0.539  0.1191 -0.7391  0.0222
 5613SOL     OW22223   5.832   6.000   3.002  0.2003  0.3183  0.1351
 5613SOL    HW222224   5.850   5.956   2.919 -0.6556 -0.1639  0.1959
 5613SOL    HW322225   5.852   6.092   2.985  0.4726  0.1486 -0.4700
 5613SOL    MW422226   5.837   6.006   2.989  0.0604  0.2925 -0.2567
 5614SOL     OW22227   4.336   1.714   3.352 -0.8524 -0.7176  0.2296
 5614SOL    HW222228   4.375   1.695   3.266 -1.0220  0.1459 -0.0464
 5614SOL    HW322229   4.367   1.802   3.374  0.0718 -1.3414  1.5733
 5614SOL    MW422230   4.345   1.723   3.343  0.4163  1.2911  0.4599
 5615SOL     OW22231   5.554   1.635   5.135 -0.2818 -0.1181 -0.2837
 5615SOL    HW222232   5.580   1.548   5.165  1.4622 -0.1608 -1.7766
 5615SOL    HW322233   5.578   1.693   5.207  1.7017 -0.4874 -0.5908
 5615SOL    MW422234   5.560   1.631   5.149  0.1044 -0.5677 -0.1168
 5616SOL     OW22235   2.362   1.602   0.464 -0.1823  0.0033 -0.3268
 5616SOL    HW222236   2.268   1.611   0.473 -0.0247  0.0413  1.5564
 5616SOL    HW322237   2.374   1.552   0.382 -1.8400 -0.5082 -0.2797
 5616SOL    MW422238   2.351   1.596   0.454 -0.7723 -0.3161 -0.1128
 5617SOL     OW22239   5.756   4.398   4.169 -0.1731 -0.2299 -0.3327
 5617SOL    HW222240   5.711   4.347   4.102 -2.4990 -0.7453  1.4773
 5617SOL    HW322241   5.830   4.343   4.196 -1.0041 -1.4108 -0.3882
 5617SOL    MW422242   5.760   4.384   4.164  0.0642  0.0988  0.2236
 5618SOL     OW22243   5.242   1.933   4.361  0.3359  0.2537  0.1943
 5618SOL    HW222244   5.336   1.915   4.366  0.3269 -0.8687 -2.2236
 5618SOL    HW322245   5.205   1.888   4.437  1.6115 -0.4395  0.4441
 5618SOL    MW422246   5.250   1.925   4.371 -0.4032 -0.0372 -0.1178
 5619SOL     OW22247   0.123   1.127   4.460  0.4662  0.2280 -0.7375
 5619SOL    HW222248   0.174   1.189   4.409  0.8013  1.7218  1.2783
 5619SOL    HW322249   0.043   1.112   4.409  0.5893  1.9780 -1.4902
 5619SOL    MW422250   0.119   1.133   4.447 -0.3039  0.1404 -0.3374
 5620SOL     OW22251   4.544   2.306   4.454  0.4645  0.3393 -0.0287
 5620SOL    HW222252   4.618   2.363   4.476  0.3264  1.0275 -1.2786
 5620SOL    HW322253   4.494   2.299   4.535  0.5200  1.9602  0.1755
 5620SOL    MW422254   4.547   2.313   4.468 -0.0650  0.2007 -0.4106
 5621SOL     OW22255   5.813   4.008   2.839 -0.5565 -0.6151 -0.2478
 5621SOL    HW222256   5.898   4.048   2.858 -1.9349  1.2562  2.6693
 5621SOL    HW322257   5.834   3.934   2.782  2.8165  0.6729 -0.9522
 5621SOL    MW422258   5.827   4.004   2.834  0.1743 -0.0597 -0.1276
 5622SOL     OW22259   5.175   0.872   2.085 -0.0116  0.6407  0.1427
 5622SOL    HW222260   5.100   0.857   2.142 -0.6528  2.4718 -0.1769
 5622SOL    HW322261   5.249   0.884   2.145 -0.2660  0.4238  0.5052
 5622SOL    MW422262   5.175   0.871   2.101 -0.0493  0.0817 -0.0347
 5623SOL     OW22263   1.280   4.997   2.959  0.2234  0.0633 -0.2529
 5623SOL    HW222264   1.357   4.951   2.995 -1.2957 -2.6114 -0.1122
 5623SOL    HW322265   1.240   4.933   2.900 -1.9087  1.3347 -0.2767
 5623SOL    MW422266   1.285   4.982   2.956  0.2614  0.0339  0.0446
 5624SOL     OW22267   0.494   5.795   6.424 -0.6632 -0.1161 -0.3253
 5624SOL    HW222268   0.525   5.767   6.510  2.0269 -1.1178 -1.4820
 5624SOL    HW322269   0.528   5.884   6.413 -0.2410 -0.3181 -0.6813
 5624SOL    MW422270   0.503   5.803   6.434  0.1485  0.5348 -0.1809
 5625SOL     OW22271   2.466   1.287   0.091  0.1193  0.1748 -0.4360
 5625SOL    HW222272   2.431   1.279   0.003 -1.3163  0.9956  0.0316
 5625SOL    HW322273   2.484   1.197   0.118 -0.3984 -0.1579 -1.1822
 5625SOL    MW422274   2.464   1.274   0.083 -0.1360  0.4600 -0.4457
 5626SOL     OW22275   0.098   0.125   6.279  0.0746 -0.6305  0.2922
 5626SOL    HW222276   0.065   0.096   6.194 -2.4048  2.0646  0.1861
 5626SOL    HW322277   0.052   0.071   6.342 -1.4197  0.2236 -0.0145
 5626SOL    MW422278   0.087   0.114   6.276 -0.1064  0.5824 -0.0916
 5627SOL     OW22279   4.038   4.272   3.084  0.2297  0.2561 -0.3614
 5627SOL    HW222280   4.035   4.271   2.989 -1.5574  0.7910 -0.3527
 5627SOL    HW322281   4.093   4.197   3.107  0.5708  0.0377 -1.8021
 5627SOL    MW422282   4.044   4.262   3.075 -0.1884 -0.1545  0.2919
 5628SOL     OW22283   3.415   2.054   3.928  0.2973  0.0169  0.4714
 5628SOL    HW222284   3.486   2.020   3.982 -0.1097 -1.2965  0.2200
 5628SOL    HW322285   3.381   2.129   3.977  1.8018  0.6375  0.6176
 5628SOL    MW422286   3.420   2.059   3.941  0.0203 -0.7858  0.1536
 5629SOL     OW22287   1.919   6.204   4.322 -0.4822 -0.1688  0.4110
 5629SOL    HW222288   1.943   6.176   4.234 -0.8405  0.7978 -0.0062
 5629SOL    HW322289   1.836   6.251   4.311 -0.2077  0.5157  1.1579
 5629SOL    MW422290   1.911   6.207   4.309  0.3814  0.1777 -0.6617
 5630SOL     OW22291   3.498   1.225   5.719 -0.3310  0.3363  1.5188
 5630SOL    HW222292   3.439   1.230   5.795 -1.1264  2.8544  0.8079
 5630SOL    HW322293   3.498   1.313   5.682 -0.9017 -1.0213 -2.1351
 5630SOL    MW422294   3.490   1.237   5.724  0.0990  0.1313 -0.1231
 5631SOL     OW22295   1.389   1.215   3.350  0.3846  0.1536  0.4347
 5631SOL    HW222296   1.357   1.124   3.343  0.8986 -0.0245  0.3875
 5631SOL    HW322297   1.322   1.267   3.306  1.0416 -0.4083 -1.3085
 5631SOL    MW422298   1.376   1.210   3.343 -0.8672  0.1234 -0.2839
 5632SOL     OW22299   4.513   2.158   5.446  0.6179  0.5816  0.1453
 5632SOL    HW222300   4.550   2.156   5.358  1.2094  1.1600  0.3766
 5632SOL    HW322301   4.449   2.086   5.446  1.3456 -0.0852 -0.4220
 5632SOL    MW422302   4.509   2.148   5.434 -0.3066  0.5491 -0.1797
 5633SOL     OW22303   2.078   0.785   3.574 -0.4795 -0.2170  0.0602
 5633SOL    HW222304   2.153   0.779   3.514 -1.5103 -0.8741 -1.2217
 5633SOL    HW322305   2.116   0.811   3.658  0.7989  2.9903 -1.3482
 5633SOL    MW422306   2.093   0.788   3.577  0.1287  0.0845 -0.1310
 5634SOL     OW22307   1.404   4.956   3.988 -0.7604 -0.2487 -0.0605
 5634SOL    HW222308   1.492   4.989   4.007 -1.2134  1.0093  0.0067
 5634SOL    HW322309   1.417   4.867   3.956  0.5908  0.1518 -0.6722
 5634SOL    MW422310   1.417   4.949   3.986  0.2112 -0.8212  0.4388
 5635SOL     OW22311   3.150   6.031   6.280 -0.2908 -0.0343 -0.5984
 5635SOL    HW222312   3.205   5.975   6.334  1.4060  1.1168 -1.0401
 5635SOL    HW322313   3.097   5.971   6.228 -0.0331 -1.1772  0.4271
 5635SOL    MW422314   3.150   6.016   6.280 -0.5791 -0.2149 -0.3470
 5636SOL     OW22315   3.114   5.575   5.855  0.1219  0.0252  0.1251
 5636SOL    HW222316   3.021   5.591   5.843  0.3198  1.3385  0.1542
 5636SOL    HW322317   3.152   5.586   5.767  0.1723 -1.1977 -0.0216
 5636SOL    MW422318   3.107   5.579   5.842 -0.0264 -0.0777 -0.3715
 5637SOL     OW22319   1.066   4.052   3.608  0.1442  0.2600 -1.3149
 5637SOL    HW222320   1.088   4.060   3.515  0.4294  1.1472 -1.1745
 5637SOL    HW322321   1.051   4.142   3.637 -1.1269 -0.0983 -0.7822
 5637SOL    MW422322   1.067   4.065   3.599  0.1746  0.4070 -0.2171
 5638SOL     OW22323   4.513   0.620   3.582  0.2121 -0.5986 -0.8214
 5638SOL    HW222324   4.548   0.700   3.543 -0.3311 -1.0075 -2.2340
 5638SOL    HW322325   4.555   0.614   3.668  1.5449  0.3066 -1.3731
 5638SOL    MW422326   4.523   0.630   3.588  0.1590 -0.8091  0.3072
 5639SOL     OW22327   3.037   2.485   1.687 -0.3765  0.2475 -0.4571
 5639SOL    HW222328   3.027   2.408   1.743 -1.0126 -0.8442 -1.9925
 5639SOL    HW322329   3.112   2.466   1.631  0.1932  1.2728 -0.0734
 5639SOL    MW422330   3.046   2.472   1.687  0.2332  0.4992 -0.4409
 5640SOL     OW22331   1.863   5.688   2.883 -0.5685  0.0930  0.0038
 5640SOL    HW222332   1.829   5.718   2.967  0.1834 -0.9977  0.7126
 5640SOL    HW322333   1.934   5.628   2.905 -1.3673 -1.4515 -1.3523
 5640SOL    MW422334   1.868   5.684   2.897  0.2184  0.0878  0.0952
 5641SOL     OW22335   0.747   0.294   1.386  0.6489  0.3080  0.2010
 5641SOL    HW222336   0.808   0.357   1.424  1.7004  0.1311 -1.1271
 5641SOL    HW322337   0.791   0.261   1.308 -0.4835 -1.0273  0.0800
 5641SOL    MW422338   0.761   0.298   1.381  1.1506  0.1531 -0.0813
 5642SOL     OW22339   2.663   1.514   5.534  0.7571  0.1078 -0.2261
 5642SOL    HW222340   2.678   1.524   5.628 -1.0777 -0.5373  0.1851
 5642SOL    HW322341   2.744   1.544   5.493  1.7428  0.0308  1.5702
 5642SOL    MW422342   2.676   1.519   5.541  0.3530  0.4749  0.0718
 5643SOL     OW22343   0.785   2.616   5.848 -0.2911  0.4620 -0.2670
 5643SOL    HW222344   0.778   2.705   5.815 -1.1489  0.3391 -0.4464
 5643SOL    HW322345   0.714   2.568   5.804 -0.1281 -0.1972  0.1624
 5643SOL    MW422346   0.774   2.621   5.838 -0.0341  0.8130  0.1501
 5644SOL     OW22347   3.815   4.914   1.121 -0.0105  0.1077  0.3931
 5644SOL    HW222348   3.754   4.987   1.105 -0.5641 -0.7948 -1.9536
 5644SOL    HW322349   3.771   4.861   1.187 -1.3035  0.0369 -0.4911
 5644SOL    MW422350   3.801   4.917   1.128  0.1943  0.4143  0.7927
 5645SOL     OW22351   2.375   5.989   2.178 -0.1707  0.1518 -0.3431
 5645SOL    HW222352   2.429   6.067   2.192  0.1336 -0.1465  0.1793
 5645SOL    HW322353   2.438   5.917   2.172 -0.4222 -0.0012 -1.2663
 5645SOL    MW422354   2.390   5.990   2.179  0.4663 -0.0652  0.8089
 5646SOL     OW22355   2.419   3.405   3.632  0.1601 -0.6945 -0.3963
 5646SOL    HW222356   2.407   3.470   3.702 -0.4814 -0.4790 -0.6911
 5646SOL    HW322357   2.427   3.322   3.678  0.9635 -0.4154 -0.0132
 5646SOL    MW422358   2.418   3.403   3.647  0.2099 -0.0625 -0.2510
 5647SOL     OW22359   1.405   3.133   5.367 -0.0212  0.3802  0.4109
 5647SOL    HW222360   1.466   3.115   5.295 -1.4129  0.9027 -0.9385
 5647SOL    HW322361   1.447   3.204   5.416 -0.0999  1.5959 -1.2328
 5647SOL    MW422362   1.419   3.140   5.364  0.0084  0.0856  0.3348
 5648SOL     OW22363   3.707   5.618   4.215  0.1295 -0.4409 -0.2912
 5648SOL    HW222364   3.774   5.581   4.273 -1.8927 -0.9921  1.8639
 5648SOL    HW322365   3.684   5.546   4.156  0.5193 -0.6449 -0.1986
 5648SOL    MW422366   3.713   5.604   4.215  0.1631 -0.2222 -0.0058
 5649SOL     OW22367   6.061   2.718   4.285  0.5287 -0.2449 -0.0646
 5649SOL    HW222368   6.002   2.670   4.226 -0.8073 -0.5629  1.4680
 5649SOL    HW322369   6.004   2.779   4.331  1.6709  0.4965  0.4035
 5649SOL    MW422370   6.045   2.720   4.283  0.6222  0.3804 -0.0101
 5650SOL     OW22371   1.840   1.908   3.123 -0.3201 -0.4290 -0.6114
 5650SOL    HW222372   1.934   1.919   3.131 -0.6339  0.8963  2.5312
 5650SOL    HW322373   1.826   1.813   3.122  1.0000 -0.6344 -0.6113
 5650SOL    MW422374   1.850   1.897   3.124 -0.0680  0.3148  0.0842
 5651SOL     OW22375   6.029   0.037   1.998  0.1532 -0.3307  0.2496
 5651SOL    HW222376   5.949   0.062   1.952  0.8303 -0.3727 -1.0099
 5651SOL    HW322377   6.060   0.117   2.038  0.0215 -0.0815 -0.1386
 5651SOL    MW422378   6.023   0.051   1.997  0.6560 -0.3363 -0.4228
 5652SOL     OW22379   3.244   5.678   3.535  0.5225  0.5452  0.2828
 5652SOL    HW222380   3.301   5.700   3.461  0.8455  1.7590  0.8664
 5652SOL    HW322381   3.301   5.628   3.594  0.2722 -0.3988 -0.2497
 5652SOL    MW422382   3.259   5.674   3.533  0.0182  0.4533 -0.5882
 5653SOL     OW22383   3.143   1.719   2.549  0.5911 -0.2290  0.5392
 5653SOL    HW222384   3.159   1.639   2.599 -1.9290  1.2450  4.1405
 5653SOL    HW322385   3.184   1.788   2.601 -1.3114  1.3043  0.1147
 5653SOL    MW422386   3.151   1.717   2.562 -0.3738  0.2322  0.3956
 5654SOL     OW22387   2.759   0.688   2.437 -0.5999  0.5617  0.3277
 5654SOL    HW222388   2.775   0.752   2.506  1.5684 -0.5364  0.9167
 5654SOL    HW322389   2.844   0.674   2.396 -1.2419 -1.0413 -0.5720
 5654SOL    MW422390   2.772   0.694   2.441  0.3098  0.3723  0.0561
 5655SOL     OW22391   0.068   5.266   5.240  0.6747 -0.0044 -0.4574
 5655SOL    HW222392   0.112   5.350   5.241 -0.7710  0.8055 -0.9748
 5655SOL    HW322393   0.117   5.214   5.177  0.0999  1.3582 -2.1248
 5655SOL    MW422394   0.080   5.270   5.232  0.0019  0.4589 -0.5036
 5656SOL     OW22395   2.891   6.137   0.758  0.2518 -0.9560 -0.0861
 5656SOL    HW222396   2.823   6.172   0.815 -1.1690 -1.9752 -1.0834
 5656SOL    HW322397   2.867   6.046   0.743  2.2402 -1.5652  0.0776
 5656SOL    MW422398   2.879   6.130   0.763  0.0673 -0.3387 -0.0171
 5657SOL     OW22399   1.471   3.901   3.244 -0.0091  0.2281 -0.2767
 5657SOL    HW222400   1.539   3.924   3.307 -0.5800 -0.9482  0.8105
 5657SOL    HW322401   1.491   3.811   3.219 -0.5602  0.2341 -0.7576
 5657SOL    MW422402   1.482   3.892   3.249  0.4361  0.0750  0.4155
 5658SOL     OW22403   1.412   1.853   4.247 -0.3558  0.1362 -0.2925
 5658SOL    HW222404   1.426   1.946   4.268  0.8901  0.3045 -1.6979
 5658SOL    HW322405   1.444   1.844   4.157 -0.7731 -1.5910 -0.2956
 5658SOL    MW422406   1.418   1.864   4.238  0.2070 -0.0261 -0.6474
 5659SOL     OW22407   3.651   2.665   1.028  0.2210 -0.2024 -0.6289
 5659SOL    HW222408   3.655   2.570   1.023 -1.1241 -0.3217  0.1345
 5659SOL    HW322409   3.668   2.686   1.120 -0.1210  0.2351 -0.6583
 5659SOL    MW422410   3.653   2.656   1.039 -0.0880  0.6904  0.0400
 5660SOL     OW22411   5.831   1.173   6.395  0.7847 -0.7538 -0.3966
 5660SOL    HW222412   5.835   1.221   6.312 -0.6581  0.2885  0.0903
 5660SOL    HW322413   5.921   1.171   6.427  0.8476  2.1239 -0.1807
 5660SOL    MW422414   5.843   1.179   6.388 -0.4177 -0.0686 -0.2593
 5661SOL     OW22415   1.341   3.961   1.985 -0.3551 -0.1240 -0.4962
 5661SOL    HW222416   1.320   3.875   1.948 -0.9671  0.3031 -1.1612
 5661SOL    HW322417   1.391   4.005   1.915 -1.6701  0.7578 -0.9072
 5661SOL    MW422418   1.345   3.955   1.971  0.0197 -0.3959  0.3925
 5662SOL     OW22419   4.066   3.311   6.151 -0.4662 -0.3251 -0.3725
 5662SOL    HW222420   3.978   3.284   6.125 -0.1393 -1.5557 -0.2679
 5662SOL    HW322421   4.055   3.353   6.236 -0.9339 -0.6155 -0.2877
 5662SOL    MW422422   4.053   3.313   6.158 -0.4278 -0.3512 -0.3491
 5663SOL     OW22423   3.734   3.636   2.622 -0.2352 -0.4646 -0.6784
 5663SOL    HW222424   3.771   3.720   2.652 -0.6192 -0.9959  1.4550
 5663SOL    HW322425   3.805   3.596   2.572  0.9752 -0.0418  0.6023
 5663SOL    MW422426   3.748   3.642   2.620  0.3817  0.1728  0.4081
 5664SOL     OW22427   5.844   2.563   4.481 -0.2373  0.3533 -0.8788
 5664SOL    HW222428   5.936   2.559   4.505 -0.5623 -0.3216  0.3083
 5664SOL    HW322429   5.807   2.630   4.539 -0.8089 -0.5102 -0.2247
 5664SOL    MW422430   5.851   2.571   4.491  0.7342  0.5145 -0.4925
 5665SOL     OW22431   2.279   4.250   6.002  0.0514 -0.6237  0.8997
 5665SOL    HW222432   2.323   4.309   5.940  0.0906 -0.4607  1.0795
 5665SOL    HW322433   2.349   4.197   6.038 -0.2264 -2.1901 -0.7389
 5665SOL    MW422434   2.294   4.251   5.999  0.0327 -0.3846 -0.5480
 5666SOL     OW22435   4.579   3.182   6.098 -0.7918 -0.7008 -0.0067
 5666SOL    HW222436   4.626   3.265   6.102 -0.1537 -1.0293 -0.5141
 5666SOL    HW322437   4.503   3.201   6.044 -1.2793 -0.1545  0.8490
 5666SOL    MW422438   4.575   3.196   6.092  0.0643  0.5924  0.7103
 5667SOL     OW22439   0.378   2.202   2.681  0.4875  0.2902 -0.5135
 5667SOL    HW222440   0.318   2.261   2.726 -0.0191  0.4081 -1.3350
 5667SOL    HW322441   0.389   2.129   2.742 -1.5044 -0.3600 -0.8633
 5667SOL    MW422442   0.372   2.200   2.695  0.0362 -0.3340  0.0217
 5668SOL     OW22443   2.008   4.025   4.734  0.0676  0.4014  0.2532
 5668SOL    HW222444   2.083   4.083   4.723  0.1887  0.0970 -0.5581
 5668SOL    HW322445   1.949   4.074   4.791  1.5148  0.0402  2.1914
 5668SOL    MW422446   2.010   4.039   4.740  0.0554  0.0256 -0.0814
 5669SOL     OW22447   1.234   5.742   4.432  0.1854  0.0623 -0.2036
 5669SOL    HW222448   1.225   5.647   4.423 -0.0506 -0.0214  0.7771
 5669SOL    HW322449   1.295   5.767   4.363  1.3982 -1.0118  0.4482
 5669SOL    MW422450   1.241   5.733   4.422 -0.4563  0.3412 -0.7538
 5670SOL     OW22451   4.938   1.411   1.786 -0.6014 -0.3816 -0.6161
 5670SOL    HW222452   4.910   1.477   1.724 -2.1101 -1.6420 -1.3465
 5670SOL    HW322453   5.019   1.446   1.824 -1.4899  1.9760 -0.7422
 5670SOL    MW422454   4.945   1.424   1.783  0.4373  0.0396  0.6158
 5671SOL     OW22455   0.384   3.899   1.611 -0.6741 -0.4392 -0.1111
 5671SOL    HW222456   0.468   3.894   1.566  0.3143  0.6518  1.5090
 5671SOL    HW322457   0.407   3.900   1.704 -2.3595  1.7324  0.3532
 5671SOL    MW422458   0.398   3.898   1.617 -0.1980  0.4899  0.1977
 5672SOL     OW22459   1.222   0.212   0.030  0.2772  0.4140  0.6968
 5672SOL    HW222460   1.189   0.299   0.052  3.5126  1.6815  1.1138
 5672SOL    HW322461   1.277   0.188   0.104  0.2065 -1.5839  0.1470
 5672SOL    MW422462   1.225   0.221   0.042 -0.1153 -0.3552  0.3701
 5673SOL     OW22463   0.830   3.756   2.565 -0.3727 -0.3362  0.1051
 5673SOL    HW222464   0.796   3.835   2.523 -0.4527 -0.2057  0.4170
 5673SOL    HW322465   0.911   3.736   2.517  0.1872  0.5178  0.6762
 5673SOL    MW422466   0.836   3.763   2.553  0.2432  0.2968 -0.5807
 5674SOL     OW22467   4.807   0.760   0.083 -0.4592  0.0886 -0.3916
 5674SOL    HW222468   4.764   0.843   0.063 -0.9556  0.3321  1.4615
 5674SOL    HW322469   4.738   0.706   0.122  0.1019 -0.8034 -0.6199
 5674SOL    MW422470   4.793   0.764   0.086  0.1196 -0.5384 -0.6503
 5675SOL     OW22471   0.034   1.315   4.042  0.5307 -0.2080 -0.3714
 5675SOL    HW222472   0.018   1.395   3.992 -2.2124  0.4628  1.3791
 5675SOL    HW322473  -0.004   1.245   3.988  0.8524 -0.0096 -0.8580
 5675SOL    MW422474   0.027   1.316   4.028  0.5866 -0.0883  0.0446
 5676SOL     OW22475   0.683   2.854   2.849 -0.3366  0.0086 -0.5025
 5676SOL    HW222476   0.723   2.787   2.793  0.8909  0.9573 -0.7926
 5676SOL    HW322477   0.757   2.906   2.881 -1.0656 -0.0410  1.4102
 5676SOL    MW422478   0.698   2.852   2.846  0.6219 -0.4255  0.8162
 5677SOL     OW22479   6.061   6.433   3.998  0.4502  0.1144 -0.2061
 5677SOL    HW222480   5.999   6.496   4.034  0.2236 -0.5039  0.5133
 5677SOL    HW322481   6.020   6.347   4.015  0.4555 -0.2156 -1.7114
 5677SOL    MW422482   6.047   6.430   4.005  0.1741  0.0222 -0.3269
 5678SOL     OW22483   2.698   5.473   4.288  0.2584 -0.4667  0.1913
 5678SOL    HW222484   2.789   5.443   4.285 -0.0153 -1.2800 -0.3853
 5678SOL    HW322485   2.704   5.568   4.301  1.1482 -0.7500  2.0711
 5678SOL    MW422486   2.711   5.482   4.289 -0.0206 -0.1245  0.2149
 5679SOL     OW22487   4.914   3.110   4.211  0.4701 -0.1970  0.2475
 5679SOL    HW222488   4.980   3.085   4.146 -1.6467 -0.1083 -2.1002
 5679SOL    HW322489   4.933   3.054   4.286  4.1541  0.9680  0.3957
 5679SOL    MW422490   4.925   3.099   4.212 -0.2863 -0.2021  0.3620
 5680SOL     OW22491   6.341   3.733   0.018 -0.1604 -0.1621  0.3193
 5680SOL    HW222492   6.283   3.657   0.024 -0.1275 -0.1450  0.8725
 5680SOL    HW322493   6.288   3.806   0.050  0.6617 -0.4160  2.4077
 5680SOL    MW422494   6.326   3.733   0.023 -0.3930 -0.3056 -0.5722
 5681SOL     OW22495   1.711   5.517   0.236 -0.0674  0.4064  0.3058
 5681SOL    HW222496   1.635   5.575   0.244  0.5409  1.1128  1.0849
 5681SOL    HW322497   1.687   5.438   0.283 -0.9019  0.0109 -0.7543
 5681SOL    MW422498   1.698   5.514   0.243 -0.1800 -0.1964  0.0826
 5682SOL     OW22499   4.613   6.306   0.998  0.0882 -0.1990  0.5091
 5682SOL    HW222500   4.550   6.254   1.047 -1.2030  1.8175  1.1072
 5682SOL    HW322501   4.671   6.343   1.064  0.9425 -0.7689  0.1003
 5682SOL    MW422502   4.612   6.304   1.013  0.5094  0.2209  0.1358
 5683SOL     OW22503   3.789   5.209   0.666 -0.2816 -0.5898  0.0117
 5683SOL    HW222504   3.770   5.125   0.623  0.1926  0.1089 -1.6410
 5683SOL    HW322505   3.766   5.194   0.757 -0.8642 -2.3095 -0.3652
 5683SOL    MW422506   3.784   5.196   0.672 -0.1422 -0.4222 -0.2125
 5684SOL     OW22507   4.064   4.930   3.010  0.3784 -0.7514 -0.2587
 5684SOL    HW222508   4.141   4.875   3.022  0.9623 -0.3154 -1.8136
 5684SOL    HW322509   4.082   5.009   3.061  1.0388 -0.5882 -0.7353
 5684SOL    MW422510   4.077   4.933   3.018  0.2469  0.3269  0.4258
 5685SOL     OW22511   4.129   5.341   2.675  0.2695 -0.2407  0.0468
 5685SOL    HW222512   4.162   5.278   2.739  3.5124  1.6727  0.4334
 5685SOL    HW322513   4.077   5.402   2.727  0.1633 -0.5230  0.2797
 5685SOL    MW422514   4.126   5.341   2.690  0.0639 -0.3591  0.2826
 5686SOL     OW22515   4.433   4.833   5.357  0.9855  0.0646 -0.3334
 5686SOL    HW222516   4.356   4.850   5.303  1.7967  0.7289 -1.3249
 5686SOL    HW322517   4.398   4.807   5.442 -0.3250 -1.0678 -1.1915
 5686SOL    MW422518   4.419   4.832   5.362  0.8991  0.6495  0.0069
 5687SOL     OW22519   4.268   2.562   4.544 -0.0261 -0.2958 -0.6300
 5687SOL    HW222520   4.204   2.566   4.473 -0.2702 -1.6716 -0.5206
 5687SOL    HW322521   4.227   2.607   4.617 -0.2211  0.1834 -1.0282
 5687SOL    MW422522   4.254   2.568   4.544 -0.5138 -0.9258 -0.4730
 5688SOL     OW22523   2.079   0.778   3.088 -0.0313 -0.2325 -0.3144
 5688SOL    HW222524   2.076   0.814   2.999  0.2373  0.2994 -0.1106
 5688SOL    HW322525   2.011   0.710   3.088 -0.7526  0.4748 -0.6179
 5688SOL    MW422526   2.070   0.773   3.076  0.9008 -0.2830  0.3198
 5689SOL     OW22527   1.224   6.414   3.245 -0.0749  0.0962  0.1620
 5689SOL    HW222528   1.246   6.321   3.240 -1.4736 -0.1936 -2.4865
 5689SOL    HW322529   1.307   6.459   3.232  0.3213 -0.8449 -0.7023
 5689SOL    MW422530   1.238   6.407   3.242  0.1067  0.7168  0.7294
 5690SOL     OW22531   1.095   4.436   5.889 -0.2571 -0.2149 -0.1108
 5690SOL    HW222532   1.170   4.438   5.831 -0.2266  0.6656 -0.0573
 5690SOL    HW322533   1.116   4.499   5.958 -0.8985 -0.1979  0.0826
 5690SOL    MW422534   1.107   4.444   5.891 -0.3768 -0.0683  0.4357
 5691SOL     OW22535   3.991   4.743   2.465  0.5951  0.0044  0.4500
 5691SOL    HW222536   3.921   4.795   2.505 -0.1006  2.0167 -2.9573
 5691SOL    HW322537   3.955   4.654   2.462 -1.8871  0.9461 -1.0875
 5691SOL    MW422538   3.977   4.738   2.470  0.1788  0.5250  0.2194
 5692SOL     OW22539   5.708   5.425   3.015 -0.3814 -0.5118 -0.2226
 5692SOL    HW222540   5.749   5.511   3.004  0.6789 -0.7503  1.5538
 5692SOL    HW322541   5.619   5.444   3.045  0.7240  0.0530  3.0783
 5692SOL    MW422542   5.702   5.439   3.017  0.6866  0.4794  0.2472
 5693SOL     OW22543   1.164   5.860   5.569  0.9096 -0.2117  0.1786
 5693SOL    HW222544   1.140   5.773   5.599 -0.4554 -0.0741 -0.3998
 5693SOL    HW322545   1.237   5.886   5.624 -0.7154 -0.4275  2.5690
 5693SOL    MW422546   1.170   5.852   5.580 -0.2880  0.2594 -0.0803
 5694SOL     OW22547   6.161   0.835   0.158  0.1421 -0.5738 -0.3139
 5694SOL    HW222548   6.149   0.802   0.247 -2.2667 -0.0268 -0.3870
 5694SOL    HW322549   6.188   0.926   0.170  3.2380 -1.3873 -0.1775
 5694SOL    MW422550   6.163   0.843   0.171 -0.5515  0.2183 -0.5255
 5695SOL     OW22551   0.006   4.159   3.569  0.2677  0.1715  0.7523
 5695SOL    HW222552   0.082   4.177   3.624  1.8675  0.3071 -1.4056
 5695SOL    HW322553  -0.025   4.246   3.541  0.6488  0.0415 -0.0891
 5695SOL    MW422554   0.012   4.173   3.573  0.2155 -0.1579 -0.3251
 5696SOL     OW22555   4.341   2.042   4.773  0.2866 -0.1451  0.3065
 5696SOL    HW222556   4.394   2.056   4.852 -0.3481  1.1977  0.5231
 5696SOL    HW322557   4.345   2.125   4.727  0.4755 -0.8555 -0.9925
 5696SOL    MW422558   4.348   2.055   4.778 -0.0201  0.1813  0.1601
 5697SOL     OW22559   3.981   0.427   2.175 -0.1560 -0.0061 -0.4635
 5697SOL    HW222560   3.901   0.476   2.197  0.2782  0.5468 -0.0978
 5697SOL    HW322561   4.044   0.452   2.242  0.5993  0.2312 -1.2387
 5697SOL    MW422562   3.979   0.437   2.186  0.3806 -0.1967  0.7252
 5698SOL     OW22563   2.532   2.101   6.133 -0.3266  0.2562  0.1181
 5698SOL    HW222564   2.572   2.052   6.205  1.5009  0.2267 -0.8748
 5698SOL    HW322565   2.465   2.041   6.099 -0.7363 -0.0040  1.3010
 5698SOL    MW422566   2.528   2.086   6.138 -0.3292 -0.2411  0.6938
 5699SOL     OW22567   0.786   0.486   2.206  0.2406 -0.9896 -0.3754
 5699SOL    HW222568   0.812   0.513   2.118 -1.6843 -0.0096 -0.7123
 5699SOL    HW322569   0.785   0.568   2.257 -2.9932 -0.6817 -0.6824
 5699SOL    MW422570   0.789   0.500   2.201 -0.2898  0.3826  0.2594
 5700SOL     OW22571   4.930   1.075   2.859  0.4627  0.4046 -0.4919
 5700SOL    HW222572   4.916   1.055   2.951 -0.2790  1.8242 -0.2660
 5700SOL    HW322573   5.016   1.116   2.856 -0.0860  1.6515 -0.1731
 5700SOL    MW422574   4.939   1.078   2.870  0.1870 -0.3302  0.5349
 5701SOL     OW22575   5.389   0.661   0.246 -0.5026 -0.2624 -0.0192
 5701SOL    HW222576   5.484   0.656   0.244 -0.3063  1.8082  1.4721
 5701SOL    HW322577   5.360   0.569   0.253  1.4687 -0.8342  1.5567
 5701SOL    MW422578   5.397   0.648   0.247  0.5316  0.1668 -0.1437
 5702SOL     OW22579   4.110   4.776   4.440  0.2222 -0.5529 -0.3841
 5702SOL    HW222580   4.064   4.694   4.422  0.5414 -0.8617  0.1974
 5702SOL    HW322581   4.042   4.835   4.473  0.2004 -0.9540  0.3086
 5702SOL    MW422582   4.095   4.773   4.442  0.6416 -0.2918  0.2476
 5703SOL     OW22583   4.642   2.078   5.675 -0.2874  0.6860  0.2550
 5703SOL    HW222584   4.735   2.100   5.666 -0.5334  1.3514 -0.7954
 5703SOL    HW322585   4.607   2.082   5.586 -1.1454 -0.4537  0.5175
 5703SOL    MW422586   4.650   2.082   5.662 -0.7553  0.1362 -0.4596
 5704SOL     OW22587   4.049   3.189   3.350  0.3694 -0.3412 -0.3664
 5704SOL    HW222588   4.135   3.200   3.309 -1.2777  1.1096 -3.8487
 5704SOL    HW322589   4.002   3.270   3.330 -2.0930 -1.3739  0.7720
 5704SOL    MW422590   4.054   3.201   3.342 -0.0296 -0.7101  0.0297
 5705SOL     OW22591   2.881   6.392   0.149 -0.5177  0.2253 -0.2342
 5705SOL    HW222592   2.842   6.325   0.205 -3.6286  2.0949  0.1107
 5705SOL    HW322593   2.937   6.344   0.089 -1.3932 -2.4776  0.9360
 5705SOL    MW422594   2.883   6.377   0.149  0.0019  0.4504 -0.0167
 5706SOL     OW22595   0.988   3.885   5.237  0.6717 -0.1799  0.2322
 5706SOL    HW222596   0.947   3.933   5.165  2.0244  1.1178  0.2620
 5706SOL    HW322597   0.915   3.859   5.293 -0.1863  1.4431 -0.0612
 5706SOL    MW422598   0.973   3.888   5.235 -0.1718 -0.2523  0.0679
 5707SOL     OW22599   4.283   0.625   5.518 -0.1940 -0.1332  0.1068
 5707SOL    HW222600   4.293   0.634   5.612 -1.1293  1.1731  0.1083
 5707SOL    HW322601   4.249   0.710   5.489  1.6805  0.1028 -1.6448
 5707SOL    MW422602   4.280   0.637   5.526 -0.4643 -0.0447  0.6240
 5708SOL     OW22603   0.238   0.848   3.196  0.4285  0.0724  0.0636
 5708SOL    HW222604   0.322   0.802   3.186  0.3902  0.3156 -1.6606
 5708SOL    HW322605   0.196   0.806   3.270  1.6892 -0.6649  0.3830
 5708SOL    MW422606   0.244   0.837   3.204 -0.3187  0.1133  0.0392
 5709SOL     OW22607   1.511   0.676   1.615 -0.2131  0.9299  0.2541
 5709SOL    HW222608   1.574   0.747   1.621 -1.1908  1.9731 -1.0448
 5709SOL    HW322609   1.430   0.712   1.652 -0.4458  0.1101  0.5807
 5709SOL    MW422610   1.508   0.690   1.621 -0.7177 -0.2685  0.1778
 5710SOL     OW22611   5.923   6.037   5.839  0.0791 -0.1181  0.3196
 5710SOL    HW222612   5.918   5.941   5.829  0.5647 -0.0043 -1.2326
 5710SOL    HW322613   5.860   6.070   5.774  1.9634  0.6563 -1.1986
 5710SOL    MW422614   5.914   6.028   5.829  0.1547  0.2342 -0.0670
 5711SOL     OW22615   0.461   2.406   2.118 -0.2843 -0.0148 -0.0686
 5711SOL    HW222616   0.395   2.468   2.147 -0.2836  0.9981 -2.0337
 5711SOL    HW322617   0.424   2.320   2.138 -1.7402  0.5506 -0.2133
 5711SOL    MW422618   0.448   2.403   2.124  0.1472 -0.3721  0.6515
 5712SOL     OW22619   3.573   5.260   0.007  0.1389  0.0620 -0.0542
 5712SOL    HW222620   3.573   5.220  -0.080  0.5065 -0.2244  0.0732
 5712SOL    HW322621   3.646   5.218   0.052  1.1258  1.5492 -0.2181
 5712SOL    MW422622   3.582   5.249   0.001  0.6084 -0.1568 -0.3312
 5713SOL     OW22623   0.602   0.512   1.270 -0.0269 -0.1746  0.7884
 5713SOL    HW222624   0.624   0.425   1.304 -1.3713 -0.4042  1.1091
 5713SOL    HW322625   0.507   0.516   1.274  0.0329  1.5602  1.3957
 5713SOL    MW422626   0.593   0.501   1.275  0.2595 -0.2947  0.3166
 5714SOL     OW22627   3.001   3.440   5.025  0.2029 -0.0635  0.1487
 5714SOL    HW222628   2.959   3.355   5.018  0.1188  0.0486 -0.8818
 5714SOL    HW322629   3.064   3.442   4.953 -0.1972  0.9616 -0.1946
 5714SOL    MW422630   3.004   3.429   5.014  0.7863  0.0372 -0.2158
 5715SOL     OW22631   4.417   4.628   3.916  0.5949  0.5539  0.2639
 5715SOL    HW222632   4.479   4.624   3.989 -0.5051  0.0236  1.2053
 5715SOL    HW322633   4.442   4.554   3.860  2.5275  1.9528 -0.8664
 5715SOL    MW422634   4.429   4.618   3.918  0.2591  0.1215 -0.3344
 5716SOL     OW22635   5.661   1.885   1.350 -0.0955 -0.7580  0.5765
 5716SOL    HW222636   5.656   1.790   1.342  0.8854 -0.8258  0.6088
 5716SOL    HW322637   5.736   1.900   1.408 -0.4311  0.0264  0.8175
 5716SOL    MW422638   5.670   1.875   1.357 -0.0174 -0.0295 -0.2283
 5717SOL     OW22639   1.308   0.453   3.151  0.1508 -0.1967 -0.3338
 5717SOL    HW222640   1.228   0.505   3.152  1.4221  1.8895  0.2166
 5717SOL    HW322641   1.289   0.378   3.208 -1.1961  0.5792  0.2907
 5717SOL    MW422642   1.295   0.450   3.159  0.6376  0.1758 -0.0034
 5718SOL     OW22643   1.422   2.665   3.512 -0.4808 -0.0258  0.1004
 5718SOL    HW222644   1.503   2.683   3.559 -1.8796  4.1875  1.3460
 5718SOL    HW322645   1.442   2.684   3.420  0.8107 -3.0013 -0.3765
 5718SOL    MW422646   1.435   2.670   3.506 -0.1340  0.2110  0.5569
 5719SOL     OW22647   3.449   1.465   1.355  0.2301  0.7258  0.3338
 5719SOL    HW222648   3.404   1.404   1.297  0.3890  1.1014 -0.1969
 5719SOL    HW322649   3.391   1.475   1.430  1.1120 -1.6426  1.4184
 5719SOL    MW422650   3.436   1.458   1.357  0.4309  0.1870 -0.3268
 5720SOL     OW22651   2.384   2.990   5.861  0.5744  0.1282  0.0531
 5720SOL    HW222652   2.362   2.931   5.789  3.3108 -0.2764 -0.5882
 5720SOL    HW322653   2.344   3.073   5.838 -2.7042 -1.1593  0.5816
 5720SOL    MW422654   2.376   2.993   5.849 -0.0923  0.4413  0.4626
 5721SOL     OW22655   1.935   0.599   6.336  0.0320  0.2046 -0.2318
 5721SOL    HW222656   1.861   0.617   6.394  0.2123 -2.0517  0.8176
 5721SOL    HW322657   2.011   0.597   6.394  0.3885 -0.9741 -0.7032
 5721SOL    MW422658   1.936   0.601   6.351 -0.3534  0.4490  0.2054
 5722SOL     OW22659   5.701   3.422   4.510 -0.3851  0.6109  0.4818
 5722SOL    HW222660   5.642   3.376   4.570  0.5060  0.4508  1.2637
 5722SOL    HW322661   5.686   3.380   4.425 -0.3070 -0.4587  0.9772
 5722SOL    MW422662   5.691   3.411   4.507 -0.4195 -0.0660 -0.6260
 5723SOL     OW22663   0.434   5.345   5.758 -0.4343  0.4475 -0.2423
 5723SOL    HW222664   0.496   5.311   5.693 -1.8255 -2.1570 -0.3246
 5723SOL    HW322665   0.359   5.375   5.707 -1.8312 -2.2541  0.0685
 5723SOL    MW422666   0.432   5.344   5.743  0.1623 -0.1336  0.0921
 5724SOL     OW22667   2.614   4.363   3.232  0.8608  0.1434  0.2344
 5724SOL    HW222668   2.671   4.383   3.306  0.1947  1.4305  0.4284
 5724SOL    HW322669   2.532   4.406   3.253 -0.1139 -1.4198 -0.1815
 5724SOL    MW422670   2.611   4.371   3.245  0.1959 -0.4584 -0.2130
 5725SOL     OW22671   3.636   5.819   3.594 -0.6676 -0.1834 -0.0657
 5725SOL    HW222672   3.575   5.891   3.582 -0.3861  0.3457  1.4378
 5725SOL    HW322673   3.611   5.779   3.678 -0.4744 -1.4932 -0.6104
 5725SOL    MW422674   3.625   5.823   3.604 -0.6985  1.0595  0.3183
 5726SOL     OW22675   2.746   4.287   1.482 -0.6177  0.0969  0.4615
 5726SOL    HW222676   2.693   4.209   1.468 -0.2778  0.1177 -1.1529
 5726SOL    HW322677   2.808   4.288   1.409 -2.0263  3.0153 -0.8875
 5726SOL    MW422678   2.747   4.277   1.470  0.0142  0.1810 -0.1441
 5727SOL     OW22679   2.485   0.630   1.204  0.2852 -0.2986 -0.1438
 5727SOL    HW222680   2.544   0.564   1.170 -0.3918 -1.2464  0.4577
 5727SOL    HW322681   2.516   0.647   1.293  0.5289  0.2829 -0.3379
 5727SOL    MW422682   2.497   0.624   1.211  0.5173 -0.1114 -0.3167
 5728SOL     OW22683   3.479   4.040   3.735 -0.1290  0.8345  0.1220
 5728SOL    HW222684   3.519   3.958   3.764 -2.1053  0.3998  1.8417
 5728SOL    HW322685   3.495   4.042   3.641  0.6155 -1.1687  0.1596
 5728SOL    MW422686   3.486   4.030   3.726  0.1972  0.1836 -0.4967
 5729SOL     OW22687   0.635   2.409   5.753  0.2108 -0.0861 -0.3474
 5729SOL    HW222688   0.619   2.362   5.835 -0.6662 -0.1889 -0.5671
 5729SOL    HW322689   0.712   2.367   5.716 -0.0773 -0.8184 -0.1342
 5729SOL    MW422690   0.643   2.397   5.759  0.3277  0.4752  0.0912
 5730SOL     OW22691   3.464   6.375   3.853 -0.1273 -0.1282  0.8270
 5730SOL    HW222692   3.522   6.417   3.790 -1.7786  0.4333 -0.3705
 5730SOL    HW322693   3.518   6.364   3.931  2.2594 -1.6750 -0.9312
 5730SOL    MW422694   3.479   6.379   3.855 -0.0961 -0.3083  0.6989
 5731SOL     OW22695   5.243   0.564   1.245 -0.4092  0.2765 -0.2109
 5731SOL    HW222696   5.274   0.618   1.172  0.7302 -1.2657 -0.9508
 5731SOL    HW322697   5.317   0.505   1.264 -1.9018 -1.7158 -0.1759
 5731SOL    MW422698   5.257   0.563   1.238  0.4725  0.7171  0.1644
 5732SOL     OW22699   3.166   4.163   1.157  0.1138 -0.4901 -0.0874
 5732SOL    HW222700   3.239   4.220   1.132 -0.1724 -0.1739 -0.2010
 5732SOL    HW322701   3.175   4.086   1.101  1.0999 -1.0166  0.7660
 5732SOL    MW422702   3.177   4.160   1.146 -0.6389  0.2964 -0.4966
 5733SOL     OW22703   4.720   3.998   6.126  0.0381  0.4406  0.1147
 5733SOL    HW222704   4.777   4.038   6.061 -2.1769  1.9564 -1.0155
 5733SOL    HW322705   4.656   4.066   6.148 -2.4635 -1.6601 -0.0944
 5733SOL    MW422706   4.719   4.012   6.120 -0.4920  0.2230 -0.1297
 5734SOL     OW22707   5.422   1.956   4.076  0.1576 -0.4612 -0.4142
 5734SOL    HW222708   5.462   1.918   3.998 -0.1070  0.7273 -1.1511
 5734SOL    HW322709   5.381   1.882   4.120  1.3276 -1.3426 -0.7615
 5734SOL    MW422710   5.422   1.941   4.072 -0.3123 -0.3255  0.2827
 5735SOL     OW22711   6.417   3.790   3.638  0.4761 -0.2534 -0.0724
 5735SOL    HW222712   6.397   3.854   3.706 -0.6059 -0.2405 -0.3729
 5735SOL    HW322713   6.454   3.715   3.685 -0.8625 -0.5075  0.6306
 5735SOL    MW422714   6.419   3.788   3.653 -0.4444 -0.3931 -0.6325
 5736SOL     OW22715   4.775   3.378   1.901  0.0697  0.1150 -0.2597
 5736SOL    HW222716   4.709   3.367   1.832  0.9231 -0.2068 -1.0388
 5736SOL    HW322717   4.751   3.313   1.967 -1.6885  1.4791  0.5273
 5736SOL    MW422718   4.763   3.368   1.901 -0.4278 -0.1166  0.1342
 5737SOL     OW22719   4.478   4.396   3.753 -0.3554  0.1439 -0.5045
 5737SOL    HW222720   4.445   4.337   3.821 -2.5730  1.2571 -0.5075
 5737SOL    HW322721   4.561   4.357   3.725 -1.1127 -2.2809  0.3363
 5737SOL    MW422722   4.485   4.383   3.758  0.1715  0.0354  0.5420
 5738SOL     OW22723   4.654   2.516   2.373  0.4797  0.1460  0.2864
 5738SOL    HW222724   4.627   2.484   2.287 -2.7461 -0.3283  1.3365
 5738SOL    HW322725   4.632   2.609   2.372 -1.1472 -0.1882  1.0636
 5738SOL    MW422726   4.647   2.524   2.362 -0.4841 -0.4341  0.5937
 5739SOL     OW22727   4.050   2.223   4.618  0.0219 -0.5851  0.0283
 5739SOL    HW222728   4.058   2.255   4.708 -1.9736 -0.0101  0.0303
 5739SOL    HW322729   3.976   2.162   4.621 -1.5024  1.0824 -1.6242
 5739SOL    MW422730   4.042   2.219   4.631 -0.2004  0.1135 -0.5044
 5740SOL     OW22731   2.162   1.046   1.222 -0.4943  0.3346  0.1284
 5740SOL    HW222732   2.205   0.961   1.233 -0.4007  0.1153 -1.6341
 5740SOL    HW322733   2.232   1.106   1.197 -0.6444  0.8303  0.8626
 5740SOL    MW422734   2.177   1.043   1.220  0.0973  0.0067  0.2185
 5741SOL     OW22735   0.143   3.427   2.116 -0.1726  0.6901  0.0508
 5741SOL    HW222736   0.082   3.487   2.074 -0.2571  0.6753  0.1518
 5741SOL    HW322737   0.195   3.484   2.173  0.4667  0.8326 -0.6533
 5741SOL    MW422738   0.142   3.443   2.118 -0.0719  0.0300  0.3503
 5742SOL     OW22739   4.495   5.067   4.039  0.1975  0.2470 -0.7804
 5742SOL    HW222740   4.580   5.023   4.043  0.3619  0.6550  0.5148
 5742SOL    HW322741   4.450   5.024   3.966  0.7239 -1.4165 -0.1777
 5742SOL    MW422742   4.500   5.055   4.030 -0.2772 -0.4458 -0.4452
 5743SOL     OW22743   3.229   6.062   5.297 -0.2087  0.3891  0.2632
 5743SOL    HW222744   3.313   6.018   5.281 -1.2927 -1.2954 -1.0335
 5743SOL    HW322745   3.187   6.008   5.364 -0.1540  1.4438  1.1881
 5743SOL    MW422746   3.235   6.049   5.304  0.4413  0.5879  0.1832
 5744SOL     OW22747   2.820   3.267   6.398 -0.1925  0.0694  0.4518
 5744SOL    HW222748   2.833   3.206   6.326  0.6892  1.2239 -0.4059
 5744SOL    HW322749   2.734   3.244   6.434 -1.0686  0.0483 -1.5477
 5744SOL    MW422750   2.810   3.256   6.394  0.3633 -0.5965  0.7597
 5745SOL     OW22751   4.334   5.263   4.605 -0.2105 -0.3003 -0.1926
 5745SOL    HW222752   4.303   5.260   4.514 -0.1340  0.1032 -0.2347
 5745SOL    HW322753   4.414   5.315   4.601 -1.0787  1.1193  0.3512
 5745SOL    MW422754   4.340   5.269   4.592  0.1139  0.4445  0.3648
 5746SOL     OW22755   6.144   2.370   5.087 -0.0233 -0.2641 -0.5364
 5746SOL    HW222756   6.132   2.289   5.037 -0.6166 -0.3828 -0.2097
 5746SOL    HW322757   6.150   2.341   5.178  3.1533 -0.2696 -0.6236
 5746SOL    MW422758   6.143   2.355   5.093  0.5263  0.2521 -0.3707
 5747SOL     OW22759   5.238   1.716   3.524  0.5394 -0.0105 -0.2950
 5747SOL    HW222760   5.235   1.801   3.479 -2.1694 -0.5342 -1.3042
 5747SOL    HW322761   5.156   1.674   3.500  0.3711 -1.6446  2.7222
 5747SOL    MW422762   5.227   1.722   3.515 -0.2279  0.6682 -0.2876
 5748SOL     OW22763   2.170   1.956   3.096 -0.3170  0.0186  0.0536
 5748SOL    HW222764   2.244   1.898   3.117  1.2818  0.2266 -3.9697
 5748SOL    HW322765   2.187   2.036   3.147  0.9618 -0.7539  0.9061
 5748SOL    MW422766   2.182   1.959   3.106  0.0220 -0.6287  0.4950
 5749SOL     OW22767   2.635   4.759   1.083 -0.3619 -0.1901 -0.0993
 5749SOL    HW222768   2.624   4.806   1.165 -0.4571 -1.9870  0.9740
 5749SOL    HW322769   2.552   4.772   1.036 -0.5413  0.3274  0.3576
 5749SOL    MW422770   2.622   4.767   1.087  0.2626  0.0646 -0.7162
 5750SOL     OW22771   3.330   1.429   5.333 -0.0866 -0.2145 -0.3167
 5750SOL    HW222772   3.354   1.403   5.245 -1.2729 -1.2875 -0.3429
 5750SOL    HW322773   3.301   1.520   5.324  0.5516 -0.0571 -0.8724
 5750SOL    MW422774   3.330   1.438   5.320 -0.1709  0.5154  0.5999
 5751SOL     OW22775   2.837   3.596   1.826 -0.3354  0.1461  0.3534
 5751SOL    HW222776   2.798   3.596   1.914 -0.9443 -0.7393  0.0918
 5751SOL    HW322777   2.839   3.689   1.801 -2.2219  0.2516  0.4181
 5751SOL    MW422778   2.832   3.608   1.834  0.1867 -0.2510  0.7999
 5752SOL     OW22779   2.689   2.619   3.509 -0.1552  0.2533 -0.1887
 5752SOL    HW222780   2.646   2.544   3.468 -1.0202  0.8092 -0.3281
 5752SOL    HW322781   2.618   2.666   3.553 -0.1835  2.5447 -2.4511
 5752SOL    MW422782   2.674   2.616   3.509  0.1340  0.1908  0.3071
 5753SOL     OW22783   3.200   0.980   3.683 -0.5405  0.6876  0.4591
 5753SOL    HW222784   3.149   0.988   3.602 -1.6109  1.0406  1.1348
 5753SOL    HW322785   3.138   0.944   3.746  0.2163  0.6332  1.1795
 5753SOL    MW422786   3.185   0.977   3.680  0.3015 -0.2995  0.0662
 5754SOL     OW22787   3.315   2.679   2.329  0.1808 -0.1150  0.0357
 5754SOL    HW222788   3.265   2.631   2.394  0.6235  0.4911  0.8449
 5754SOL    HW322789   3.384   2.723   2.379  1.4528 -0.8217 -1.0298
 5754SOL    MW422790   3.318   2.679   2.344 -0.2821 -0.5025  0.0699
 5755SOL     OW22791   4.591   0.197   5.526  0.0840 -0.4763 -0.2689
 5755SOL    HW222792   4.595   0.121   5.468  0.0498 -0.9072  0.2865
 5755SOL    HW322793   4.499   0.221   5.526 -0.1454 -1.2746  0.6053
 5755SOL    MW422794   4.579   0.190   5.519  0.4040 -0.2485  0.3014
 5756SOL     OW22795   4.096   5.614   3.952  0.1406  0.8385  0.5014
 5756SOL    HW222796   4.183   5.652   3.952 -0.5719  2.6679  2.2360
 5756SOL    HW322797   4.105   5.532   4.000  1.1330  0.3392 -0.5136
 5756SOL    MW422798   4.108   5.608   3.959 -0.6726 -0.0396  0.1458
 5757SOL     OW22799   4.269   4.637   5.621  0.2663  0.3022 -0.1675
 5757SOL    HW222800   4.314   4.577   5.680  1.0847 -1.6276 -2.5291
 5757SOL    HW322801   4.182   4.599   5.611  0.5126 -0.0759 -1.0288
 5757SOL    MW422802   4.263   4.624   5.627  0.3436 -0.4447 -0.1518
 5758SOL     OW22803   5.541   4.009   1.777 -0.0420 -0.2474 -0.1947
 5758SOL    HW222804   5.489   3.931   1.797 -0.5393 -0.3416 -1.7513
 5758SOL    HW322805   5.584   3.988   1.694  0.9900  0.5733  0.1125
 5758SOL    MW422806   5.540   3.996   1.769  1.1061 -0.0290 -0.1394
 5759SOL     OW22807   1.582   5.643   1.709  0.4495  0.0925 -0.2623
 5759SOL    HW222808   1.550   5.726   1.745  2.2181  0.1982  1.1861
 5759SOL    HW322809   1.645   5.669   1.642 -0.2597 -0.1150 -1.0284
 5759SOL    MW422810   1.586   5.657   1.704  0.2103  0.2120 -0.0910
 5760SOL     OW22811   3.780   0.867   6.044 -0.2577 -0.4418 -0.1109
 5760SOL    HW222812   3.822   0.954   6.040 -4.2888  1.7234 -0.5917
 5760SOL    HW322813   3.753   0.850   5.954 -0.3025 -1.8171  0.1474
 5760SOL    MW422814   3.782   0.877   6.031 -0.1020  0.6215 -0.1637
 5761SOL     OW22815   0.934   5.567   4.916 -0.4446 -0.2570 -0.4750
 5761SOL    HW222816   0.965   5.529   4.999 -1.2807 -0.9911 -0.4888
 5761SOL    HW322817   0.896   5.651   4.941 -0.2777 -0.2707 -0.1742
 5761SOL    MW422818   0.933   5.573   4.930  0.2948  0.1188 -0.1674
 5762SOL     OW22819   1.963   5.474   4.453  0.3762  0.3473 -0.0710
 5762SOL    HW222820   1.969   5.381   4.472 -1.8430  0.4233  1.3099
 5762SOL    HW322821   2.013   5.485   4.372 -0.4524 -2.2656 -1.0346
 5762SOL    MW422822   1.971   5.463   4.445 -0.0342 -0.2670 -0.2704
 5763SOL     OW22823   3.444   3.689   2.549  0.4124 -0.3821 -0.7442
 5763SOL    HW222824   3.425   3.616   2.490 -0.5129 -3.5892  3.1466
 5763SOL    HW322825   3.539   3.698   2.546  0.3402  0.4354 -3.4838
 5763SOL    MW422826   3.454   3.681   2.540 -0.1084 -0.5057 -0.2637
 5764SOL     OW22827   0.916   1.981   1.670 -0.1141 -0.0485 -0.8139
 5764SOL    HW222828   0.980   2.049   1.648  1.0019 -0.6453  0.4533
 5764SOL    HW322829   0.968   1.902   1.682 -1.2405 -0.8333 -0.9210
 5764SOL    MW422830   0.931   1.980   1.669  0.2726 -0.2261 -0.0080
 5765SOL     OW22831   1.484   4.944   5.589  0.2042 -0.3987 -0.1808
 5765SOL    HW222832   1.493   4.973   5.680  1.1652  0.5390 -0.5596
 5765SOL    HW322833   1.444   4.857   5.596  0.8062 -0.5974  1.1715
 5765SOL    MW422834   1.480   4.936   5.602 -0.1722 -0.1977 -0.2617
 5766SOL     OW22835   3.799   3.239   5.445  0.1362 -0.0542  0.2131
 5766SOL    HW222836   3.818   3.318   5.395 -0.6179  0.8667  1.3065
 5766SOL    HW322837   3.779   3.271   5.533 -2.7973 -1.1743  0.0898
 5766SOL    MW422838   3.799   3.254   5.450 -0.3448  0.2464 -0.5827
 5767SOL     OW22839   1.503   1.737   2.972 -0.4519  0.1790  0.0291
 5767SOL    HW222840   1.520   1.801   3.042  1.1226 -1.2710  1.0432
 5767SOL    HW322841   1.409   1.717   2.980 -0.2586 -0.1769  1.9668
 5767SOL    MW422842   1.493   1.743   2.982 -0.5708  0.1645  0.3416
 5768SOL     OW22843   0.777   5.660   0.830 -0.0230 -0.4463  0.2475
 5768SOL    HW222844   0.838   5.679   0.758 -0.9906 -1.4460 -0.8973
 5768SOL    HW322845   0.755   5.745   0.866  0.5315  0.0853 -0.6280
 5768SOL    MW422846   0.782   5.674   0.825 -0.2690  0.4006  0.0427
 5769SOL     OW22847   6.012   0.968   5.585 -0.1957  0.2633  0.0127
 5769SOL    HW222848   6.025   0.879   5.619 -1.8993  0.2956  0.8638
 5769SOL    HW322849   5.979   0.955   5.496  1.4303  0.1085 -0.5890
 5769SOL    MW422850   6.009   0.955   5.578  0.0973 -0.1219 -0.5153
 5770SOL     OW22851   2.133   4.226   2.742  0.3503 -0.1381  0.0607
 5770SOL    HW222852   2.108   4.240   2.651 -0.0708 -2.0033 -0.1393
 5770SOL    HW322853   2.214   4.275   2.753  1.4885 -1.4722 -1.8806
 5770SOL    MW422854   2.140   4.234   2.732 -0.4756  0.3539  0.0609
 5771SOL     OW22855   1.819   5.631   5.506  0.2833  0.3789 -0.2074
 5771SOL    HW222856   1.841   5.723   5.496 -1.2287  0.8896  0.8606
 5771SOL    HW322857   1.754   5.614   5.438  0.4775  0.1331 -0.3315
 5771SOL    MW422858   1.813   5.641   5.496  0.2429 -0.2436  0.4615
 5772SOL     OW22859   0.205   1.674   0.078  0.3198  0.2773 -0.0929
 5772SOL    HW222860   0.250   1.589   0.076  1.2431  0.5577  3.2333
 5772SOL    HW322861   0.272   1.737   0.054  0.8243  0.3845  1.5022
 5772SOL    MW422862   0.220   1.671   0.074  0.8130 -0.1610  0.3052
 5773SOL     OW22863   0.581   3.196   1.091  0.1949 -0.0035  0.6993
 5773SOL    HW222864   0.639   3.159   1.158  0.2526 -0.1179  0.5879
 5773SOL    HW322865   0.560   3.121   1.036  0.7807  0.2454  0.1262
 5773SOL    MW422866   0.586   3.181   1.093 -0.2337  0.1759 -0.0609
 5774SOL     OW22867   4.504   4.750   5.980 -0.2022  0.1417  1.1611
 5774SOL    HW222868   4.486   4.843   5.968 -1.5541 -0.3779 -1.7510
 5774SOL    HW322869   4.433   4.718   6.035  0.0229  0.7374  1.8060
 5774SOL    MW422870   4.493   4.758   5.986  0.2538  0.5717 -0.2374
 5775SOL     OW22871   1.430   4.666   5.596  0.4975  0.3034 -0.0756
 5775SOL    HW222872   1.490   4.653   5.522  0.2238  0.3426 -0.3024
 5775SOL    HW322873   1.350   4.620   5.571  1.0341 -1.3034  0.9919
 5775SOL    MW422874   1.428   4.658   5.583 -0.2633  0.1947  0.1256
 5776SOL     OW22875   1.455   4.299   3.437 -0.2580  0.5398  0.0514
 5776SOL    HW222876   1.534   4.341   3.472  0.3916  0.0794 -0.8292
 5776SOL    HW322877   1.401   4.372   3.407  0.7126  0.8123 -1.1457
 5776SOL    MW422878   1.459   4.315   3.437  0.1697  0.1776 -0.2642
 5777SOL     OW22879   2.981   2.321   5.612  0.6230 -0.0423  0.2493
 5777SOL    HW222880   3.065   2.326   5.657  0.8478 -1.0620 -0.0270
 5777SOL    HW322881   2.926   2.386   5.656  1.8817  1.4721 -0.2907
 5777SOL    MW422882   2.985   2.330   5.623  0.3160  0.3155  0.3660
 5778SOL     OW22883   3.547   4.389   3.462 -0.4166  0.1874 -0.7047
 5778SOL    HW222884   3.513   4.412   3.376 -4.0546  0.1979  0.5695
 5778SOL    HW322885   3.503   4.449   3.522  0.1802 -1.3536  1.3904
 5778SOL    MW422886   3.537   4.400   3.459  0.4222 -0.3157 -0.0110
 5779SOL     OW22887   4.209   1.965   1.484 -0.2623  0.1753  0.1895
 5779SOL    HW222888   4.155   1.976   1.563  0.4494 -1.0388  0.8799
 5779SOL    HW322889   4.286   2.018   1.501  0.0353 -0.3325  0.4769
 5779SOL    MW422890   4.212   1.973   1.497 -0.0893 -0.5327 -0.1059
 5780SOL     OW22891   3.040   0.153   0.304 -0.0806  0.2738 -0.7483
 5780SOL    HW222892   2.988   0.090   0.253  0.7002 -1.2108  0.2031
 5780SOL    HW322893   3.030   0.123   0.394  1.2916  0.8016 -0.4112
 5780SOL    MW422894   3.032   0.141   0.309  0.2214  0.1920 -0.1789
 5781SOL     OW22895   0.578   2.520   1.474 -0.4837  0.4671 -0.1439
 5781SOL    HW222896   0.518   2.514   1.400  1.3596 -3.6666 -1.6160
 5781SOL    HW322897   0.640   2.589   1.450 -0.8490  0.2786 -1.7388
 5781SOL    MW422898   0.578   2.528   1.461  0.2031 -0.2210 -0.2130
 5782SOL     OW22899   0.852   4.236   3.179  0.3868 -0.4804 -0.5298
 5782SOL    HW222900   0.854   4.146   3.146  2.2260 -0.3640 -0.8566
 5782SOL    HW322901   0.776   4.276   3.136 -0.7135 -1.9684 -0.0450
 5782SOL    MW422902   0.842   4.230   3.169  0.3862 -0.1799 -0.1116
 5783SOL     OW22903   1.608   2.171   2.738  0.2617 -0.1894  0.6635
 5783SOL    HW222904   1.649   2.145   2.656  0.2762 -0.6249  0.8070
 5783SOL    HW322905   1.523   2.127   2.738  0.2164 -0.1025  0.8296
 5783SOL    MW422906   1.603   2.162   2.728  0.3137  0.4310 -0.4423
 5784SOL     OW22907   3.880   3.877   6.262 -0.2559 -0.1705 -0.2356
 5784SOL    HW222908   3.908   3.786   6.264 -1.0883 -0.4470 -0.6055
 5784SOL    HW322909   3.898   3.909   6.350  0.0230 -0.6982 -0.0950
 5784SOL    MW422910   3.886   3.869   6.274  0.3263 -0.1382  0.1868
 5785SOL     OW22911   5.493   5.133   0.957 -0.4113  0.2985 -0.3929
 5785SOL    HW222912   5.501   5.069   1.028 -3.3324  0.9777  0.6946
 5785SOL    HW322913   5.547   5.207   0.985  0.3218 -0.3446 -0.0447
 5785SOL    MW422914   5.501   5.134   0.970 -0.5371 -0.2569 -0.3789
 5786SOL     OW22915   4.312   1.165   0.919 -0.3317 -0.3787  0.5361
 5786SOL    HW222916   4.404   1.147   0.902 -0.5305 -0.0407 -1.0897
 5786SOL    HW322917   4.292   1.117   1.000  1.1005 -0.9398  0.5839
 5786SOL    MW422918   4.321   1.156   0.928 -0.7926  0.0487 -0.2901
 5787SOL     OW22919   3.722   3.516   1.112  0.0739  0.2052  0.4483
 5787SOL    HW222920   3.780   3.591   1.118 -2.4102  2.1794  2.7189
 5787SOL    HW322921   3.690   3.517   1.022  2.0369  0.2350 -0.2765
 5787SOL    MW422922   3.725   3.526   1.101 -0.0697 -0.0712 -0.4013
 5788SOL     OW22923   1.029   5.215   2.755  0.4836 -0.6231  0.3161
 5788SOL    HW222924   1.094   5.235   2.687 -0.0408  0.2836  0.0562
 5788SOL    HW322925   0.972   5.149   2.716  0.6718 -0.7054  0.1806
 5788SOL    MW422926   1.030   5.209   2.741  0.3677 -0.1077  0.0391
 5789SOL     OW22927   0.107   1.852   4.784 -0.4406  0.0390 -0.0776
 5789SOL    HW222928   0.060   1.789   4.838 -2.6538  1.3085 -0.4127
 5789SOL    HW322929   0.153   1.908   4.847 -0.2472 -0.5597  0.3180
 5789SOL    MW422930   0.107   1.851   4.800  0.0001 -0.2431 -0.3849
 5790SOL     OW22931   2.880   4.504   1.122 -0.4282  0.0534 -0.1885
 5790SOL    HW222932   2.826   4.507   1.044  1.9873  0.5870 -1.9643
 5790SOL    HW322933   2.890   4.411   1.142  0.6904 -0.2384 -1.9008
 5790SOL    MW422934   2.874   4.492   1.115 -0.3713  0.3592 -0.0061
 5791SOL     OW22935   3.696   0.515   2.737 -0.3029 -0.7483  0.0323
 5791SOL    HW222936   3.740   0.576   2.796  0.3834 -1.5292  0.3514
 5791SOL    HW322937   3.602   0.534   2.748 -0.0728  1.1442 -0.8792
 5791SOL    MW422938   3.689   0.526   2.746  0.2581 -0.4224 -0.4876
 5792SOL     OW22939   1.890   1.991   4.549  0.3418  0.1090 -0.1211
 5792SOL    HW222940   1.830   1.985   4.622 -1.2676  0.6713 -1.3418
 5792SOL    HW322941   1.836   2.021   4.476  1.6149 -1.5592 -1.8446
 5792SOL    MW422942   1.875   1.994   4.549  0.5178  0.2992  0.1386
 5793SOL     OW22943   5.946   6.170   4.065 -0.5339  0.1387  0.0316
 5793SOL    HW222944   6.001   6.134   3.995  0.4086  0.4442  0.5952
 5793SOL    HW322945   6.002   6.168   4.142 -2.3647 -2.7046  1.4558
 5793SOL    MW422946   5.960   6.165   4.066 -0.2836 -1.1923  0.4584
 5794SOL     OW22947   6.040   0.806   4.749 -0.5085  0.2929 -0.3599
 5794SOL    HW222948   6.118   0.801   4.693  2.1246  1.7093  2.8494
 5794SOL    HW322949   6.018   0.714   4.768  0.2271 -0.1290 -1.4723
 5794SOL    MW422950   6.047   0.793   4.744 -0.2500  0.1217 -0.3479
 5795SOL     OW22951   0.045   5.352   0.831 -0.3636 -0.5981 -0.1217
 5795SOL    HW222952   0.019   5.341   0.740  0.3639 -0.7301 -0.3238
 5795SOL    HW322953   0.095   5.434   0.832  1.9004 -1.8645 -0.3937
 5795SOL    MW422954   0.048   5.361   0.819 -0.6884 -0.0096 -0.3655
 5796SOL     OW22955   1.996   1.691   6.001 -0.7407  0.2953 -0.4122
 5796SOL    HW222956   1.975   1.605   6.035 -0.3366  0.3413 -0.0381
 5796SOL    HW322957   1.930   1.707   5.933 -0.4951 -0.5278 -0.8567
 5796SOL    MW422958   1.984   1.682   5.996  0.2552 -1.0357 -0.9909
 5797SOL     OW22959   3.790   3.673   0.102  0.4327  0.3469  0.2244
 5797SOL    HW222960   3.733   3.663   0.026  0.7806 -0.5612  0.0717
 5797SOL    HW322961   3.751   3.616   0.169 -0.4689  1.9260  1.1066
 5797SOL    MW422962   3.777   3.664   0.101 -0.0915  0.3492  0.5084
 5798SOL     OW22963   2.842   4.564   5.085  0.0235 -0.3136  0.0028
 5798SOL    HW222964   2.836   4.480   5.040  1.0009  0.3000 -1.3465
 5798SOL    HW322965   2.761   4.610   5.061  0.8142  0.2580 -1.7469
 5798SOL    MW422966   2.830   4.559   5.076  0.0468  0.0926 -0.7234
 5799SOL     OW22967   3.254   5.073   2.095  0.7494  0.1942 -0.1045
 5799SOL    HW222968   3.310   5.006   2.056  2.3867  1.7724 -0.5514
 5799SOL    HW322969   3.287   5.083   2.184 -0.2243 -0.3535  0.3375
 5799SOL    MW422970   3.265   5.066   2.101 -0.7310  0.0648 -0.0460
 5800SOL     OW22971   5.930   1.700   1.156 -0.2423 -0.1872  0.7462
 5800SOL    HW222972   6.010   1.652   1.136  0.2424  0.6188  0.6743
 5800SOL    HW322973   5.955   1.762   1.224 -0.5035  0.8453 -0.0527
 5800SOL    MW422974   5.944   1.702   1.162 -0.1106  0.2169 -0.2501
 5801SOL     OW22975   6.053   5.967   3.178  0.3329 -0.1559 -0.4251
 5801SOL    HW222976   6.078   6.059   3.166  0.0894  0.1013  0.8736
 5801SOL    HW322977   5.980   5.954   3.118 -0.1216  0.7198 -0.0710
 5801SOL    MW422978   6.047   5.978   3.168  0.1716 -0.3161  0.0300
 5802SOL     OW22979   5.990   2.161   4.999  0.2238 -0.1775  0.0342
 5802SOL    HW222980   5.907   2.127   4.966 -0.8269  0.8405  1.4809
 5802SOL    HW322981   6.040   2.082   5.022 -0.8933 -0.8152  0.3807
 5802SOL    MW422982   5.986   2.146   4.998  0.1335  0.4567  0.3899
 5803SOL     OW22983   0.820   4.547   4.361 -0.2964  0.3115  0.3858
 5803SOL    HW222984   0.783   4.630   4.391 -0.5707  0.0792  0.6889
 5803SOL    HW322985   0.838   4.498   4.441 -1.9767 -0.7345  0.1679
 5803SOL    MW422986   0.818   4.551   4.375  0.5177  0.0079 -0.2081
 5804SOL     OW22987   5.036   3.125   2.639 -0.2039  0.7817  0.2234
 5804SOL    HW222988   4.986   3.081   2.707 -0.0882 -0.3793 -0.4179
 5804SOL    HW322989   5.044   3.215   2.669 -0.8721  0.4815  1.3344
 5804SOL    MW422990   5.031   3.131   2.652 -0.2988 -0.3833 -0.1292
 5805SOL     OW22991   1.329   5.481   1.352 -0.7048 -0.3066  0.2036
 5805SOL    HW222992   1.355   5.396   1.317 -0.7626 -0.0846 -0.3885
 5805SOL    HW322993   1.342   5.473   1.446  0.8928 -0.4201  0.0040
 5805SOL    MW422994   1.334   5.469   1.360  0.7876 -0.4081 -0.2644
 5806SOL     OW22995   5.033   3.289   2.913 -0.1135 -0.5380 -0.1448
 5806SOL    HW222996   5.067   3.365   2.865  0.3537 -2.0989 -2.4088
 5806SOL    HW322997   4.964   3.326   2.968  1.8668  1.9259  0.8834
 5806SOL    MW422998   5.028   3.304   2.914 -0.5569  0.4789  0.6551
 5807SOL     OW22999   1.036   2.829   2.921  0.3457  0.0348 -0.3834
 5807SOL    HW223000   0.965   2.892   2.935 -0.3827 -0.7215 -0.5576
 5807SOL    HW323001   1.055   2.794   3.008  0.2494 -0.0246 -0.3857
 5807SOL    MW423002   1.029   2.833   2.934 -0.5944  0.2091 -0.1799
 5808SOL     OW23003   4.202   1.885   0.441  0.2509 -0.3227 -0.1140
 5808SOL    HW223004   4.217   1.980   0.440  1.8096 -0.5350  0.0024
 5808SOL    HW323005   4.202   1.863   0.534  0.0041 -0.4559 -0.1458
 5808SOL    MW423006   4.204   1.895   0.453  0.8112 -0.3227  0.5303
 5809SOL     OW23007   0.371   2.527   5.883 -0.2955 -0.1179 -0.5763
 5809SOL    HW223008   0.304   2.544   5.949 -1.2030  0.2747 -1.5707
 5809SOL    HW323009   0.427   2.461   5.923 -1.7746 -1.1086 -0.0189
 5809SOL    MW423010   0.369   2.520   5.897 -0.0695 -0.5116 -0.5103
 5810SOL     OW23011   0.116   3.113   5.012  0.5801  0.0146 -0.1719
 5810SOL    HW223012   0.087   3.178   4.948 -0.0924 -0.2133 -0.1048
 5810SOL    HW323013   0.173   3.162   5.071  0.3436  0.4712 -0.3156
 5810SOL    MW423014   0.120   3.128   5.011 -0.2299  0.0575 -0.1065
 5811SOL     OW23015   1.670   4.065   1.449  0.2701  0.6270 -0.2465
 5811SOL    HW223016   1.613   4.016   1.391  1.7786 -2.4090  0.6354
 5811SOL    HW323017   1.747   4.086   1.396  1.5711 -1.9929  0.4695
 5811SOL    MW423018   1.673   4.061   1.435  0.2642  0.9626 -0.2738
 5812SOL     OW23019   2.337   3.759   0.344 -0.2245  0.0349  0.0294
 5812SOL    HW223020   2.260   3.710   0.315 -1.0452  0.8309  0.7799
 5812SOL    HW323021   2.334   3.840   0.294  0.9881 -0.5323 -1.0256
 5812SOL    MW423022   2.327   3.763   0.334 -0.7894 -0.5737  0.1841
 5813SOL     OW23023   2.377   3.574   3.844 -0.2577  0.2203 -0.4815
 5813SOL    HW223024   2.443   3.640   3.822  0.7628 -0.8140 -0.6175
 5813SOL    HW323025   2.386   3.561   3.938  0.0294 -0.2291 -0.5702
 5813SOL    MW423026   2.387   3.581   3.853  0.3075  0.4899  0.1716
 5814SOL     OW23027   6.281   5.736   5.225  0.6062  0.5405 -0.0833
 5814SOL    HW223028   6.244   5.657   5.265  0.2971  0.1208 -1.1500
 5814SOL    HW323029   6.216   5.804   5.243  0.7673  0.5042  0.6531
 5814SOL    MW423030   6.267   5.734   5.233  0.1708 -0.4041  0.7567
 5815SOL     OW23031   0.341   1.579   2.289 -0.5832 -0.0538  0.0751
 5815SOL    HW223032   0.287   1.538   2.357  0.1129  1.0396  1.3359
 5815SOL    HW323033   0.280   1.630   2.236 -1.4839 -2.6076 -1.5586
 5815SOL    MW423034   0.326   1.580   2.291 -0.5080  0.0240 -0.5546
 5816SOL     OW23035   2.871   5.879   2.415  0.9888  0.2182 -0.5528
 5816SOL    HW223036   2.853   5.930   2.494  0.7896 -1.2647  0.4099
 5816SOL    HW323037   2.904   5.796   2.448  2.1377  0.0343 -2.0981
 5816SOL    MW423038   2.873   5.875   2.430 -0.0235 -0.2060 -0.0978
 5817SOL     OW23039   2.268   2.231   3.990 -0.4616 -0.1699  0.1737
 5817SOL    HW223040   2.290   2.229   3.897 -1.0111  1.1456 -0.0035
 5817SOL    HW323041   2.336   2.284   4.031  0.5389 -1.8359  0.7762
 5817SOL    MW423042   2.280   2.238   3.983  0.5815  0.1609  0.3331
 5818SOL     OW23043   3.016   2.351   1.298 -0.1094  0.0322  0.5691
 5818SOL    HW223044   2.987   2.433   1.259 -0.9473 -0.1411  0.8244
 5818SOL    HW323045   3.103   2.371   1.333 -0.7549  1.1329  1.6183
 5818SOL    MW423046   3.024   2.364   1.298  0.6607  0.5925 -0.2192
 5819SOL     OW23047   2.458   0.758   5.266 -0.2727  0.0867  0.1384
 5819SOL    HW223048   2.466   0.751   5.171  1.2792 -0.2523  0.2641
 5819SOL    HW323049   2.481   0.670   5.298 -2.2739 -0.2503  0.7783
 5819SOL    MW423050   2.462   0.745   5.258 -0.0089  0.4743 -0.0437
 5820SOL     OW23051   3.924   6.221   6.224  1.0600 -0.3867 -0.0459
 5820SOL    HW223052   3.961   6.264   6.301  0.7089 -0.0577 -0.0559
 5820SOL    HW323053   3.991   6.159   6.196  1.1067 -0.6612  0.6542
 5820SOL    MW423054   3.938   6.219   6.230  0.1379 -0.2142 -0.9384
 5821SOL     OW23055   0.891   2.092   3.705  0.2020  0.5474  0.3453
 5821SOL    HW223056   0.945   2.060   3.777  1.7705  0.8363 -0.6582
 5821SOL    HW323057   0.906   2.187   3.705  3.5126  0.2382 -2.7703
 5821SOL    MW423058   0.900   2.100   3.715  0.1576 -0.1048  0.5081
 5822SOL     OW23059   4.487   3.685   4.135  0.0633  0.0669 -0.2794
 5822SOL    HW223060   4.437   3.639   4.202 -0.2980  0.5762 -0.1971
 5822SOL    HW323061   4.441   3.768   4.123  1.1948  0.8015  0.2146
 5822SOL    MW423062   4.474   3.690   4.142  0.6888 -0.7367 -0.7554
 5823SOL     OW23063   4.426   3.905   1.512  0.2204  0.4242  0.0867
 5823SOL    HW223064   4.520   3.886   1.509  0.1801  0.2273  0.0427
 5823SOL    HW323065   4.389   3.851   1.443  0.1027  0.6733 -0.0444
 5823SOL    MW423066   4.434   3.895   1.503  0.4316  0.1212  0.1152
 5824SOL     OW23067   1.314   3.325   0.168  0.3647 -0.2279 -0.3632
 5824SOL    HW223068   1.354   3.319   0.081  0.1002  0.6407 -0.5463
 5824SOL    HW323069   1.373   3.381   0.218  1.4053 -2.0288  0.5441
 5824SOL    MW423070   1.327   3.331   0.163 -0.1045 -0.4375 -0.0909
 5825SOL     OW23071   4.321   0.792   1.388  0.3156  0.0216  0.3304
 5825SOL    HW223072   4.266   0.867   1.409 -0.6664 -0.4729 -0.3611
 5825SOL    HW323073   4.409   0.816   1.419  0.0014  1.4060  0.1973
 5825SOL    MW423074   4.326   0.805   1.395 -0.1890 -0.5941  0.8261
 5826SOL     OW23075   0.849   0.105   0.745 -0.0287 -0.1500  0.2370
 5826SOL    HW223076   0.936   0.144   0.740  0.1537 -0.6546 -0.5559
 5826SOL    HW323077   0.865   0.011   0.751 -0.5220 -0.2356  0.2292
 5826SOL    MW423078   0.862   0.098   0.745 -0.0863 -0.1230  0.0096
 5827SOL     OW23079   1.654   6.108   4.573  0.0993 -0.1995  0.0070
 5827SOL    HW223080   1.652   6.029   4.626 -1.0124 -0.6367 -0.6597
 5827SOL    HW323081   1.729   6.158   4.607  0.6067 -1.3672  0.6551
 5827SOL    MW423082   1.664   6.105   4.584  0.8074  0.4866  0.6478
 5828SOL     OW23083   3.445   2.296   5.095  0.1361 -0.4532  0.1009
 5828SOL    HW223084   3.386   2.354   5.143 -0.3025  0.8277 -1.8733
 5828SOL    HW323085   3.399   2.212   5.092 -0.4430 -0.1709  0.6930
 5828SOL    MW423086   3.431   2.293   5.101  0.0186  0.2895  0.1315
 5829SOL     OW23087   0.727   3.092   1.312  0.2528  0.5099  0.0628
 5829SOL    HW223088   0.814   3.057   1.291 -0.0106  0.1801 -0.5013
 5829SOL    HW323089   0.742   3.185   1.330  0.6433  0.5727 -0.5682
 5829SOL    MW423090   0.740   3.100   1.312 -0.4843 -0.1427 -0.5567
 5830SOL     OW23091   4.343   1.638   2.048 -0.0167 -0.4430  0.4826
 5830SOL    HW223092   4.281   1.577   2.089 -1.6537  1.2463  0.6460
 5830SOL    HW323093   4.302   1.661   1.965  0.1580  1.0143  0.7688
 5830SOL    MW423094   4.329   1.633   2.042 -0.7764  0.1563  0.0497
 5831SOL     OW23095   0.807   3.494   6.239  0.3866 -0.3755  0.0076
 5831SOL    HW223096   0.874   3.500   6.307 -0.1621 -0.2332  0.5452
 5831SOL    HW323097   0.773   3.405   6.247  1.1241 -0.7524 -0.8671
 5831SOL    MW423098   0.812   3.483   6.249  0.2061  0.5538 -0.0271
 5832SOL     OW23099   1.912   2.410   3.069 -0.2262  0.0644 -0.2398
 5832SOL    HW223100   1.942   2.330   3.111  0.2822  0.8324  0.9054
 5832SOL    HW323101   1.819   2.415   3.091 -0.0996  0.1476  0.2963
 5832SOL    MW423102   1.904   2.400   3.077  0.0648  0.0080  0.4075
 5833SOL     OW23103   6.249   6.158   0.149 -0.0274 -0.6633 -0.0703
 5833SOL    HW223104   6.208   6.238   0.181 -1.4478 -1.4458  0.1889
 5833SOL    HW323105   6.245   6.165   0.054  0.8621  0.0449 -0.0655
 5833SOL    MW423106   6.243   6.169   0.141 -1.2351 -0.6082 -0.2218
 5834SOL     OW23107   0.056   1.570   2.163  0.4643 -0.3168  0.1881
 5834SOL    HW223108   0.084   1.479   2.172 -0.0356 -0.4911 -0.0111
 5834SOL    HW323109   0.031   1.597   2.252  0.1678 -0.5225  0.1692
 5834SOL    MW423110   0.056   1.562   2.176  0.4086 -0.1528 -0.3967
 5835SOL     OW23111   0.821   1.140   0.162 -0.4677  0.3322 -0.0744
 5835SOL    HW223112   0.812   1.150   0.257 -0.0568  0.9974 -0.1027
 5835SOL    HW323113   0.903   1.185   0.140 -0.5051  0.0929 -0.7308
 5835SOL    MW423114   0.831   1.148   0.172 -0.1530  0.3220  0.1061
 5836SOL     OW23115   4.732   6.260   5.114 -0.9628 -0.3424  0.1495
 5836SOL    HW223116   4.742   6.221   5.027  0.4040 -1.8587  0.9272
 5836SOL    HW323117   4.667   6.205   5.158  0.8388 -1.7587  1.1878
 5836SOL    MW423118   4.725   6.248   5.108  0.0780  1.3017 -0.6904
 5837SOL     OW23119   3.205   1.906   3.796 -1.0360  0.1503  0.0587
 5837SOL    HW223120   3.252   1.974   3.845 -1.0431  0.3815 -0.2514
 5837SOL    HW323121   3.181   1.948   3.714  1.4133 -1.0085 -1.4007
 5837SOL    MW423122   3.208   1.920   3.792 -0.0018 -0.1617  0.3113
 5838SOL     OW23123   0.398   4.901   5.979 -0.2734 -0.4850 -0.1140
 5838SOL    HW223124   0.490   4.899   5.952  0.2837  0.3640  1.5815
 5838SOL    HW323125   0.379   4.994   5.994 -1.0261 -0.7517  0.7116
 5838SOL    MW423126   0.408   4.913   5.978  0.0131  0.4587 -0.2162
 5839SOL     OW23127   4.267   1.892   2.824  0.1052 -0.2050 -0.1596
 5839SOL    HW223128   4.333   1.858   2.763  0.5821  0.6793 -0.1494
 5839SOL    HW323129   4.215   1.952   2.771 -0.2127 -0.3230  0.0196
 5839SOL    MW423130   4.269   1.895   2.809 -0.9418 -0.2656  0.2030
 5840SOL     OW23131   4.973   5.331   4.495  0.3721 -0.3173  0.0982
 5840SOL    HW223132   4.890   5.319   4.542  0.3387  1.2858  0.4977
 5840SOL    HW323133   4.973   5.424   4.470  1.4986 -0.5782 -0.9618
 5840SOL    MW423134   4.962   5.342   4.498 -0.5137 -0.4482  0.2826
 5841SOL     OW23135   0.622   0.123   6.177 -0.3582  0.6903 -0.4163
 5841SOL    HW223136   0.533   0.096   6.201 -0.0126 -1.1412 -0.9781
 5841SOL    HW323137   0.672   0.113   6.258 -0.2642 -0.3022 -0.5854
 5841SOL    MW423138   0.617   0.118   6.191 -0.3917  0.4396 -0.2165
 5842SOL     OW23139   3.771   4.108   3.907  0.4530  0.3058  0.2826
 5842SOL    HW223140   3.703   4.175   3.913  1.6366  1.4801  1.1002
 5842SOL    HW323141   3.791   4.086   3.998  1.4536  0.3032  0.0757
 5842SOL    MW423142   3.765   4.114   3.920 -0.2129  0.3735  0.4604
 5843SOL     OW23143   6.430   1.431   0.276 -0.3640 -0.2065  0.1072
 5843SOL    HW223144   6.442   1.525   0.291 -1.0436  0.2491 -1.8312
 5843SOL    HW323145   6.400   1.396   0.360 -0.5956  1.3939  0.7185
 5843SOL    MW423146   6.428   1.439   0.289 -0.3900  0.2455  0.4028
 5844SOL     OW23147   4.519   1.010   6.217 -0.2678 -0.0469 -0.4202
 5844SOL    HW223148   4.554   1.067   6.285  2.2478 -0.8315 -0.9678
 5844SOL    HW323149   4.485   1.070   6.151  0.2823  0.7792  0.0259
 5844SOL    MW423150   4.519   1.025   6.217  0.0482 -0.7555 -0.2667
 5845SOL     OW23151   4.405   0.562   4.781 -0.0750  0.1315  0.0058
 5845SOL    HW223152   4.322   0.546   4.738  0.0607  0.0425 -0.2202
 5845SOL    HW323153   4.455   0.482   4.768  0.9435  1.0145 -1.8986
 5845SOL    MW423154   4.401   0.550   4.774 -0.7360 -0.3565 -0.2202
 5846SOL     OW23155   6.192   4.583   1.240  0.4947 -0.0289  0.2013
 5846SOL    HW223156   6.178   4.677   1.251 -0.3356 -0.3048  1.8740
 5846SOL    HW323157   6.280   4.567   1.275 -0.0878 -0.1112  1.7115
 5846SOL    MW423158   6.202   4.593   1.246 -0.1868  0.4824 -0.2824
 5847SOL     OW23159   1.463   2.675   2.577  0.1051  0.2858 -0.3591
 5847SOL    HW223160   1.403   2.634   2.515 -1.4678  1.5450  0.2784
 5847SOL    HW323161   1.487   2.605   2.637 -0.8947 -0.1807 -0.4978
 5847SOL    MW423162   1.458   2.660   2.576  0.4820  0.1136 -0.0266
 5848SOL     OW23163   0.159   0.339   3.755 -0.3488  0.0873 -0.3110
 5848SOL    HW223164   0.152   0.252   3.717  0.0225 -0.0398 -0.0891
 5848SOL    HW323165   0.249   0.366   3.739 -0.1821  0.0209  0.4996
 5848SOL    MW423166   0.170   0.331   3.748 -0.5069 -0.3870 -0.3666
 5849SOL     OW23167   6.308   1.798   3.107  0.7375 -0.4984  0.6139
 5849SOL    HW223168   6.254   1.719   3.098 -0.6085  0.4442 -0.0098
 5849SOL    HW323169   6.374   1.790   3.038 -0.0867 -0.5666 -0.1834
 5849SOL    MW423170   6.310   1.787   3.097 -0.1909 -0.1084  0.0397
 5850SOL     OW23171   0.441   1.904   6.157 -0.3074  0.4998  0.6877
 5850SOL    HW223172   0.373   1.972   6.163  0.3211  1.0973  1.2306
 5850SOL    HW323173   0.469   1.907   6.065  2.1180  3.4531  1.3282
 5850SOL    MW423174   0.436   1.913   6.146 -0.4339  0.0592  0.1282
 5851SOL     OW23175   5.444   1.151   2.686  0.2570 -1.0153  0.5537
 5851SOL    HW223176   5.533   1.140   2.720  0.9512  3.1842  0.6828
 5851SOL    HW323177   5.388   1.142   2.763  0.6379 -2.5092  0.6873
 5851SOL    MW423178   5.449   1.148   2.701  0.4944 -0.0534 -0.5051
 5852SOL     OW23179   0.912   3.385   4.856 -0.5196 -0.3961  0.0226
 5852SOL    HW223180   0.946   3.296   4.857  1.1326  0.1887 -0.8600
 5852SOL    HW323181   0.965   3.432   4.920 -1.0677  0.0746  0.1405
 5852SOL    MW423182   0.923   3.379   4.864  0.1580 -0.2213 -0.8237
 5853SOL     OW23183   0.098   6.427   1.980  0.1754 -0.1624  0.6672
 5853SOL    HW223184   0.173   6.487   1.981  0.7327 -0.5892 -2.8689
 5853SOL    HW323185   0.135   6.344   2.009  0.7589 -0.0531  0.2681
 5853SOL    MW423186   0.113   6.424   1.984 -0.2484  0.4251  0.1921
 5854SOL     OW23187   4.366   6.021   3.836 -0.2795 -0.1815 -0.3708
 5854SOL    HW223188   4.422   5.947   3.859 -0.3207 -0.3473 -0.7999
 5854SOL    HW323189   4.290   5.981   3.794 -0.9762 -0.0035  0.6795
 5854SOL    MW423190   4.363   6.006   3.833 -0.2221  0.1964 -1.0148
 5855SOL     OW23191   1.455   4.031   1.666  0.6058  0.3265  0.0667
 5855SOL    HW223192   1.539   4.075   1.677  0.6252  0.5598 -0.9428
 5855SOL    HW323193   1.479   3.939   1.652  0.7612  0.5623 -1.2830
 5855SOL    MW423194   1.469   4.024   1.666  0.2633  0.1472  0.0871
 5856SOL     OW23195   6.291   2.418   3.452  0.0396 -0.4808 -0.4344
 5856SOL    HW223196   6.303   2.472   3.530  0.0420  0.2414 -0.9260
 5856SOL    HW323197   6.305   2.329   3.483 -0.9276 -0.2981  0.5984
 5856SOL    MW423198   6.294   2.414   3.467 -0.1516  0.4333 -0.2731
 5857SOL     OW23199   2.920   2.740   2.073 -0.3452 -0.4373  0.3581
 5857SOL    HW223200   2.925   2.814   2.013 -0.7578  0.0245  0.8767
 5857SOL    HW323201   2.892   2.666   2.019  0.4978 -0.3236 -0.2477
 5857SOL    MW423202   2.917   2.740   2.058  0.1549  0.2178 -0.3883
 5858SOL     OW23203   1.480   4.281   5.420 -0.1330  0.5802 -0.0164
 5858SOL    HW223204   1.509   4.239   5.340  0.1076  0.3905  0.1685
 5858SOL    HW323205   1.386   4.263   5.425  0.1067 -0.5866  0.4555
 5858SOL    MW423206   1.472   4.273   5.410 -0.3303 -0.2475  0.0406
 5859SOL     OW23207   1.435   4.408   4.253 -0.2143  0.7532  0.0856
 5859SOL    HW223208   1.376   4.334   4.240  1.9437 -1.4993  2.1074
 5859SOL    HW323209   1.426   4.460   4.173 -2.7796 -0.9490 -0.8707
 5859SOL    MW423210   1.426   4.405   4.241 -0.4066  0.5126 -0.7396
 5860SOL     OW23211   2.649   2.547   0.089  0.4739 -0.3865  0.1533
 5860SOL    HW223212   2.736   2.542   0.129 -0.2419  0.0561  1.8364
 5860SOL    HW323213   2.589   2.517   0.158 -0.9210  1.4673 -0.1891
 5860SOL    MW423214   2.653   2.542   0.103 -0.0758 -0.0891 -0.1704
 5861SOL     OW23215   4.249   1.444   3.032 -0.5981  0.5485  0.6303
 5861SOL    HW223216   4.236   1.427   3.126 -2.8676  1.0387  0.4629
 5861SOL    HW323217   4.197   1.523   3.015 -0.0434  0.5867 -1.0109
 5861SOL    MW423218   4.241   1.452   3.042 -0.4052  0.0857  0.1327
 5862SOL     OW23219   2.672   4.434   4.090 -0.1841 -0.2935 -0.1647
 5862SOL    HW223220   2.712   4.439   4.003 -1.1292 -0.7230 -0.6302
 5862SOL    HW323221   2.732   4.483   4.146  1.3309 -1.4171 -0.7193
 5862SOL    MW423222   2.685   4.441   4.086  0.4540 -0.5174  0.2017
 5863SOL     OW23223   3.991   0.866   0.184 -0.4475  0.7205 -0.2132
 5863SOL    HW223224   4.084   0.881   0.171 -0.7614  1.4689 -1.8832
 5863SOL    HW323225   3.983   0.844   0.276  1.1658  2.4134  0.3961
 5863SOL    MW423226   4.002   0.865   0.194  0.1893  0.5235 -0.1558
 5864SOL     OW23227   6.218   4.604   4.836 -0.2187 -0.3252 -0.4433
 5864SOL    HW223228   6.215   4.698   4.819  1.6208 -0.2468 -0.5236
 5864SOL    HW323229   6.127   4.575   4.831 -0.7324  1.3325 -1.0657
 5864SOL    MW423230   6.206   4.612   4.833 -0.6300  0.3598  0.2239
 5865SOL     OW23231   4.033   6.342   3.782 -0.4784  0.2588 -0.2051
 5865SOL    HW223232   4.006   6.278   3.848 -0.1160 -1.4060 -1.5690
 5865SOL    HW323233   4.129   6.337   3.782 -0.4283  1.1508 -0.0148
 5865SOL    MW423234   4.042   6.333   3.791  0.1876 -0.0615  0.2085
 5866SOL     OW23235   0.598   0.361   3.913 -0.0173  0.6552 -0.3323
 5866SOL    HW223236   0.526   0.381   3.853  0.8470  0.0260 -1.6411
 5866SOL    HW323237   0.591   0.427   3.982 -2.3999  0.0290  0.1178
 5866SOL    MW423238   0.588   0.372   3.914 -0.0046 -0.1253 -0.2585
 5867SOL     OW23239   2.862   1.455   1.402  0.7883 -0.3208  0.1958
 5867SOL    HW223240   2.838   1.439   1.493 -0.6925 -0.1995 -0.1403
 5867SOL    HW323241   2.896   1.545   1.402  0.6264 -0.2566  0.5920
 5867SOL    MW423242   2.863   1.465   1.414 -0.7755  0.3206  0.0657
 5868SOL     OW23243   2.702   4.600   6.056  0.4430 -0.3855 -0.3612
 5868SOL    HW223244   2.622   4.550   6.037  0.0252 -0.5807  1.7305
 5868SOL    HW323245   2.674   4.667   6.117  2.0703 -1.1662  1.3289
 5868SOL    MW423246   2.688   4.602   6.061  0.0600 -0.9628  0.4515
 5869SOL     OW23247   0.187   3.385   4.473  0.0396  0.1325  0.1679
 5869SOL    HW223248   0.194   3.305   4.524  0.3206  0.1311  0.1309
 5869SOL    HW323249   0.274   3.425   4.479 -0.0451  0.3412  0.0351
 5869SOL    MW423250   0.199   3.380   4.480  0.2156 -0.1205 -0.1603
 5870SOL     OW23251   3.707   6.341   5.879  0.0478 -0.3683 -0.2857
 5870SOL    HW223252   3.787   6.380   5.843  0.3326 -0.4596  0.2415
 5870SOL    HW323253   3.717   6.247   5.862  0.6451 -0.5409  0.8784
 5870SOL    MW423254   3.719   6.334   5.872 -0.1636  0.2332 -0.7642
 5871SOL     OW23255   5.648   3.273   3.246  0.2722 -0.1075 -0.4236
 5871SOL    HW223256   5.585   3.233   3.185  0.5856 -0.4867 -0.5069
 5871SOL    HW323257   5.674   3.354   3.203 -1.0695  0.6628  0.1748
 5871SOL    MW423258   5.643   3.278   3.232 -0.3180  0.1212 -0.0047
 5872SOL     OW23259   0.006   4.813   4.136 -0.1418  0.4802 -0.3211
 5872SOL    HW223260  -0.042   4.732   4.157  2.5774 -0.5448  2.7417
 5872SOL    HW323261  -0.041   4.849   4.061 -5.0449 -0.8465  1.7154
 5872SOL    MW423262  -0.007   4.807   4.129 -0.3087  0.1773  0.3992
 5873SOL     OW23263   2.955   3.526   0.000 -0.3727  0.0885 -0.2672
 5873SOL    HW223264   2.931   3.438   0.030  0.4875 -0.1451 -0.2583
 5873SOL    HW323265   3.009   3.512  -0.077  2.2972  0.4517  1.3882
 5873SOL    MW423266   2.959   3.513  -0.006  0.1395  0.0975 -0.2493
 5874SOL     OW23267   5.236   2.290   5.504 -0.1971 -0.6560  0.2504
 5874SOL    HW223268   5.191   2.262   5.425 -1.1540  0.5456  0.3547
 5874SOL    HW323269   5.217   2.383   5.512  1.1980 -0.4062  1.0404
 5874SOL    MW423270   5.228   2.298   5.495  0.2506  0.1446 -0.7846
 5875SOL     OW23271   3.448   1.391   6.204  0.1650 -0.0891  0.1287
 5875SOL    HW223272   3.523   1.338   6.180 -0.1264 -1.2981  1.7464
 5875SOL    HW323273   3.483   1.456   6.265  0.7085  2.3270 -2.5277
 5875SOL    MW423274   3.462   1.393   6.209  0.2791  0.3194  0.3880
 5876SOL     OW23275   5.802   1.567   5.402  0.0510  0.3879 -0.1085
 5876SOL    HW223276   5.870   1.624   5.437 -0.1953  0.8268 -0.3325
 5876SOL    HW323277   5.779   1.509   5.474 -0.2713  1.1129  0.3809
 5876SOL    MW423278   5.808   1.567   5.416 -0.2714 -0.3465  0.3091
 5877SOL     OW23279   2.420   4.525   5.516  0.0051 -0.2526 -0.3242
 5877SOL    HW223280   2.345   4.577   5.487 -0.3694 -0.6858 -0.1498
 5877SOL    HW323281   2.465   4.581   5.579 -0.2781 -0.0594 -0.2913
 5877SOL    MW423282   2.416   4.539   5.520  0.5546 -0.1702  0.1195
 5878SOL     OW23283   5.821   6.070   4.677 -0.2070  0.0497 -0.4800
 5878SOL    HW223284   5.742   6.065   4.625  0.4693  0.1190 -1.5396
 5878SOL    HW323285   5.866   6.149   4.646  1.0381 -0.8347 -1.0276
 5878SOL    MW423286   5.817   6.080   4.666  0.5887 -0.0195 -0.2991
 5879SOL     OW23287   4.427   0.803   2.759  0.2229  0.1323  0.9417
 5879SOL    HW223288   4.358   0.777   2.820  0.8630 -1.7349  0.9510
 5879SOL    HW323289   4.386   0.796   2.672 -0.5976  2.4980  1.0694
 5879SOL    MW423290   4.412   0.799   2.755 -0.2294  0.0040 -0.4248
 5880SOL     OW23291   6.249   2.374   3.071  0.8266  0.6033  0.4256
 5880SOL    HW223292   6.267   2.405   2.983 -1.7507  0.9030 -0.0777
 5880SOL    HW323293   6.161   2.336   3.066  1.3021 -0.9431  2.4845
 5880SOL    MW423294   6.239   2.373   3.059 -0.0538 -0.0259 -0.2418
 5881SOL     OW23295   0.611   3.510   4.740  0.0561 -0.7882 -0.9434
 5881SOL    HW223296   0.676   3.440   4.747 -1.8523 -2.5189  1.0478
 5881SOL    HW323297   0.565   3.508   4.824 -1.4479  1.5053 -1.6192
 5881SOL    MW423298   0.613   3.501   4.752  0.2274  0.0475 -0.4029
 5882SOL     OW23299   1.605   5.522   2.721 -0.3127 -0.7546  0.0949
 5882SOL    HW223300   1.633   5.461   2.789  0.1435  0.5216  1.0837
 5882SOL    HW323301   1.511   5.531   2.735 -0.4858 -1.6574 -0.4242
 5882SOL    MW423302   1.596   5.515   2.732  0.5197  0.2683  0.5047
 5883SOL     OW23303   2.848   4.953   4.037  0.4839  0.5621 -0.3400
 5883SOL    HW223304   2.769   4.908   4.006 -0.3342  1.2214  0.7138
 5883SOL    HW323305   2.910   4.944   3.965 -0.4237 -0.2987 -1.0489
 5883SOL    MW423306   2.845   4.946   4.023 -0.1046 -0.2378  0.6623
 5884SOL     OW23307   3.437   0.163   5.139  0.2339 -0.0442 -0.8011
 5884SOL    HW223308   3.486   0.123   5.211 -0.0960  0.3913 -0.3345
 5884SOL    HW323309   3.366   0.101   5.120  0.0188  0.0833 -0.4113
 5884SOL    MW423310   3.434   0.149   5.146  0.4562 -0.1158  0.9982
 5885SOL     OW23311   3.961   0.131   1.119  0.4318  0.5352  0.3671
 5885SOL    HW223312   4.023   0.083   1.174 -1.3435 -0.1880  1.8324
 5885SOL    HW323313   3.892   0.159   1.179 -1.5421 -0.1537 -1.4453
 5885SOL    MW423314   3.960   0.128   1.134 -0.1620  0.1899 -0.0230
 5886SOL     OW23315   1.187   1.670   0.661 -0.0273  0.5299  0.0567
 5886SOL    HW223316   1.109   1.681   0.606 -0.2070 -0.1702  0.1706
 5886SOL    HW323317   1.202   1.758   0.697  0.3032  1.0947 -1.3614
 5886SOL    MW423318   1.179   1.683   0.658 -0.3298  0.0393  0.4565
 5887SOL     OW23319   2.764   1.939   3.966  0.8216 -0.4142  0.4836
 5887SOL    HW223320   2.834   1.876   3.983  0.6593 -0.3537  1.4710
 5887SOL    HW323321   2.719   1.948   4.050  0.1103  0.1368  0.0626
 5887SOL    MW423322   2.767   1.932   3.979 -0.1380  0.0790 -0.4526
 5888SOL     OW23323   2.371   2.707   0.759 -0.0924 -0.1924 -0.1033
 5888SOL    HW223324   2.308   2.717   0.687 -1.4604 -2.2281  0.7187
 5888SOL    HW323325   2.345   2.774   0.822 -1.1620 -0.6705  0.0002
 5888SOL    MW423326   2.359   2.717   0.758  0.1238  0.0154  0.6378
 5889SOL     OW23327   2.003   3.101   4.613 -0.2618 -0.2795  0.1553
 5889SOL    HW223328   1.975   3.019   4.654 -1.7368 -0.8854 -1.9456
 5889SOL    HW323329   2.080   3.078   4.562 -0.4626 -0.2880 -0.1469
 5889SOL    MW423330   2.009   3.087   4.612 -0.3670 -0.0643  0.2950
 5890SOL     OW23331   2.584   5.362   6.230  0.1705  0.5561 -0.1005
 5890SOL    HW223332   2.502   5.314   6.224  0.6109 -0.0907 -1.1138
 5890SOL    HW323333   2.560   5.446   6.271 -0.7900 -0.0542  0.6333
 5890SOL    MW423334   2.570   5.367   6.235  0.4148 -0.0985  0.0033
 5891SOL     OW23335   0.902   2.043   6.167  0.2180  0.2276 -0.1930
 5891SOL    HW223336   0.904   2.020   6.074  2.1104  0.2437 -0.2014
 5891SOL    HW323337   0.860   2.129   6.169  0.7867  0.5510 -1.1302
 5891SOL    MW423338   0.897   2.052   6.155  0.4562  0.3676 -0.5810
 5892SOL     OW23339   0.095   1.709   1.287  0.5900 -0.2489  0.2603
 5892SOL    HW223340   0.085   1.667   1.373  3.8047  0.2741  1.0079
 5892SOL    HW323341   0.188   1.703   1.268 -0.0059 -0.4561 -3.3270
 5892SOL    MW423342   0.106   1.702   1.296 -0.3062 -0.5054 -0.4793
 5893SOL     OW23343   4.888   1.318   3.251  0.3998  0.1128 -0.2902
 5893SOL    HW223344   4.797   1.341   3.271  0.5504 -0.3417  0.9602
 5893SOL    HW323345   4.882   1.232   3.209  0.2699 -0.0097 -0.0208
 5893SOL    MW423346   4.875   1.310   3.248  0.1232  0.2486 -0.4321
 5894SOL     OW23347   4.127   1.695   2.975 -0.5134  0.3409  0.2330
 5894SOL    HW223348   4.063   1.745   3.026  0.1613  1.4226  0.0475
 5894SOL    HW323349   4.182   1.762   2.933 -1.2690 -0.4921 -2.2356
 5894SOL    MW423350   4.126   1.711   2.976  0.8037 -0.0006 -0.0596
 5895SOL     OW23351   0.960   0.034   3.763 -0.1676  0.4452  0.7733
 5895SOL    HW223352   0.907  -0.014   3.827 -2.3781 -0.6858 -1.7207
 5895SOL    HW323353   0.897   0.091   3.718  1.3852  1.5218 -0.1319
 5895SOL    MW423354   0.945   0.035   3.766 -0.3146 -0.2624  0.0967
 5896SOL     OW23355   3.583   5.700   5.175 -0.3588 -0.2419 -0.2156
 5896SOL    HW223356   3.588   5.702   5.271 -2.0854 -0.3408 -0.0784
 5896SOL    HW323357   3.492   5.675   5.157  0.4986 -2.4471 -1.8985
 5896SOL    MW423358   3.572   5.697   5.185 -0.4503  0.0309 -0.5670
 5897SOL     OW23359   5.975   2.264   3.069  0.1654 -0.2627 -0.1211
 5897SOL    HW223360   5.969   2.269   3.165 -0.8608  0.9707 -0.2135
 5897SOL    HW323361   5.996   2.173   3.051  0.6957 -0.4571  1.2915
 5897SOL    MW423362   5.977   2.253   3.079  0.1411 -0.2589  0.3133
 5898SOL     OW23363   2.254   3.178   4.939  0.2607 -0.2860 -0.2563
 5898SOL    HW223364   2.319   3.230   4.987  1.0292 -2.4002  1.1478
 5898SOL    HW323365   2.277   3.191   4.847  1.3543  0.6732  0.1221
 5898SOL    MW423366   2.266   3.187   4.934  0.7214  0.2934  0.0434
 5899SOL     OW23367   5.432   6.316   1.386  1.0955  0.0387  0.2993
 5899SOL    HW223368   5.470   6.403   1.399  1.3830  0.3357 -1.9783
 5899SOL    HW323369   5.344   6.333   1.352  1.3599 -0.5187 -0.7056
 5899SOL    MW423370   5.426   6.330   1.383 -0.1472 -0.6817  0.0192
 5900SOL     OW23371   3.927   4.940   0.253 -0.2872  0.6819 -0.2052
 5900SOL    HW223372   3.922   5.013   0.315  1.7071  0.1276  0.7193
 5900SOL    HW323373   4.016   4.945   0.219 -0.0644 -1.3489 -0.0430
 5900SOL    MW423374   3.938   4.951   0.257 -0.0776  0.3487  0.1221
 5901SOL     OW23375   3.948   0.786   4.693  0.1084  0.0468  0.0713
 5901SOL    HW223376   4.005   0.855   4.729  0.0188 -0.2672  0.8326
 5901SOL    HW323377   3.860   0.815   4.715  0.0798 -0.3884  0.5370
 5901SOL    MW423378   3.944   0.799   4.701  0.0233 -0.0678  0.3070
 5902SOL     OW23379   3.168   2.943   4.406 -0.7937 -0.1983  0.4618
 5902SOL    HW223380   3.110   2.867   4.393 -1.5123  0.5808 -1.0681
 5902SOL    HW323381   3.113   3.019   4.389  0.6322  0.5779 -1.0164
 5902SOL    MW423382   3.153   2.943   4.402  0.0130  0.0757  0.4093
 5903SOL     OW23383   0.302   5.095   4.638  0.6715  0.3333 -0.3644
 5903SOL    HW223384   0.359   5.110   4.714  1.4630  0.1471 -0.9095
 5903SOL    HW323385   0.325   5.008   4.608 -0.3609  0.0017 -0.2230
 5903SOL    MW423386   0.313   5.086   4.644  0.0214 -0.2684 -0.1856
 5904SOL     OW23387   5.509   4.582   4.248  0.3542 -0.2519 -0.4414
 5904SOL    HW223388   5.536   4.645   4.315 -1.0868  0.1868 -0.2470
 5904SOL    HW323389   5.588   4.530   4.232  1.6988  1.7625 -0.8274
 5904SOL    MW423390   5.523   4.583   4.255 -0.0155  0.4776  0.0043
 5905SOL     OW23391   6.132   1.131   4.724  0.6449  0.0399  0.4030
 5905SOL    HW223392   6.079   1.145   4.802 -1.1410 -0.5300 -0.6542
 5905SOL    HW323393   6.177   1.215   4.711 -0.8669  0.9447  0.7267
 5905SOL    MW423394   6.131   1.144   4.733  0.4612 -0.1228 -0.0775
 5906SOL     OW23395   3.709   4.290   0.881  0.2973 -0.3770  0.2528
 5906SOL    HW223396   3.659   4.345   0.820  2.9441  0.2874 -1.5042
 5906SOL    HW323397   3.762   4.353   0.930 -1.8507 -0.8909  3.4857
 5906SOL    MW423398   3.710   4.306   0.879 -0.2547 -0.6438 -0.0223
 5907SOL     OW23399   5.370   4.486   1.186 -0.0276 -0.3763  0.5013
 5907SOL    HW223400   5.306   4.550   1.155  0.7673 -0.4594 -1.4407
 5907SOL    HW323401   5.399   4.520   1.271 -0.2197  1.4054 -0.1172
 5907SOL    MW423402   5.365   4.499   1.193  0.4860  0.1857 -0.2087
 5908SOL     OW23403   5.086   3.912   4.629  0.2913  0.0797  0.5571
 5908SOL    HW223404   5.060   4.003   4.613  1.7845  0.2835 -1.1104
 5908SOL    HW323405   5.138   3.889   4.552  3.3047 -0.8976  2.7002
 5908SOL    MW423406   5.090   3.921   4.616 -0.7233 -0.1089  0.4582
 5909SOL     OW23407   2.256   3.485   5.912 -0.4348  0.5170  0.3428
 5909SOL    HW223408   2.266   3.429   5.989  0.6638 -0.1066 -0.2348
 5909SOL    HW323409   2.219   3.567   5.946  0.0427  0.2500  1.5255
 5909SOL    MW423410   2.252   3.489   5.927 -0.4439  0.3090  1.3304
 5910SOL     OW23411   2.008   6.116   4.087 -0.8222  0.4052 -0.6453
 5910SOL    HW223412   2.075   6.173   4.049  0.5902 -0.4081  0.5097
 5910SOL    HW323413   1.977   6.063   4.014  0.5511  0.1031 -1.0480
 5910SOL    MW423414   2.013   6.116   4.073  0.0625  0.1643 -0.0676
 5911SOL     OW23415   4.099   5.484   6.084  0.4628 -0.4573 -0.2228
 5911SOL    HW223416   4.046   5.536   6.145 -0.2894 -1.4269 -0.0146
 5911SOL    HW323417   4.061   5.396   6.089  2.0628 -1.1794 -0.1189
 5911SOL    MW423418   4.087   5.479   6.093 -0.5037 -0.2605 -0.0779
 5912SOL     OW23419   1.569   0.189   6.165 -0.5771  0.1044 -0.4528
 5912SOL    HW223420   1.605   0.231   6.244 -1.2643  2.1800 -1.1688
 5912SOL    HW323421   1.476   0.211   6.167 -0.9122 -1.1974 -1.0398
 5912SOL    MW423422   1.562   0.198   6.176  0.0186  0.3009  0.0396
 5913SOL     OW23423   3.733   1.017   3.285 -0.3664  0.3463 -0.9926
 5913SOL    HW223424   3.790   1.026   3.362  1.0529  1.6266 -2.1348
 5913SOL    HW323425   3.752   0.929   3.251  0.2279  0.4022 -0.8143
 5913SOL    MW423426   3.743   1.006   3.291 -0.8644 -0.4404  0.4955
 5914SOL     OW23427   3.839   3.255   0.762  0.2634  0.3438  0.1224
 5914SOL    HW223428   3.889   3.320   0.811  0.0913  0.4317  0.1814
 5914SOL    HW323429   3.762   3.302   0.731  1.0202  0.6573 -1.3714
 5914SOL    MW423430   3.835   3.270   0.764 -0.4891  0.2668 -0.1761
 5915SOL     OW23431   4.635   1.416   3.300  0.1901  0.2299  0.1784
 5915SOL    HW223432   4.578   1.433   3.225 -1.0088 -0.2370  0.9595
 5915SOL    HW323433   4.638   1.499   3.347 -0.4440  0.0633  0.5229
 5915SOL    MW423434   4.628   1.429   3.296  0.0274  0.6451  0.8187
 5916SOL     OW23435   1.646   4.072   5.287  0.0391 -0.0926 -0.1420
 5916SOL    HW223436   1.665   3.979   5.273  0.5857  0.1198 -0.8974
 5916SOL    HW323437   1.726   4.106   5.328 -1.1104 -0.4647  2.6006
 5916SOL    MW423438   1.659   4.064   5.291  0.8731 -0.7533 -0.1271
 5917SOL     OW23439   6.021   3.753   0.604  0.0750 -0.0899 -0.3130
 5917SOL    HW223440   6.105   3.724   0.568  0.2961  0.0900  0.0454
 5917SOL    HW323441   5.980   3.802   0.533  1.0974  1.4200  0.0890
 5917SOL    MW423442   6.027   3.756   0.590 -0.3506  0.1603  0.0686
 5918SOL     OW23443   6.017   2.410   3.861 -0.3363  0.5692  0.4362
 5918SOL    HW223444   5.963   2.366   3.794 -1.3119 -0.2637  1.7093
 5918SOL    HW323445   5.992   2.502   3.855  0.2217  0.6562 -0.9003
 5918SOL    MW423446   6.006   2.416   3.852  0.4010 -0.4222  0.6821
 5919SOL     OW23447   1.850   6.008   0.242  0.2010  0.6764  0.3064
 5919SOL    HW223448   1.862   5.913   0.244 -1.0728  0.5197  0.9591
 5919SOL    HW323449   1.812   6.025   0.156 -0.8810  0.4148  0.7180
 5919SOL    MW423450   1.847   5.998   0.231 -0.3476 -0.0720  0.6334
 5920SOL     OW23451   5.160   4.066   0.900 -0.3678  0.0377 -0.1548
 5920SOL    HW223452   5.187   3.984   0.940 -1.6892  0.2109  1.1845
 5920SOL    HW323453   5.158   4.129   0.973  0.4062  1.2156 -1.1116
 5920SOL    MW423454   5.163   4.063   0.915  0.2678 -0.0111 -0.1433
 5921SOL     OW23455   1.744   3.574   3.380  0.1157  0.1018  0.0029
 5921SOL    HW223456   1.786   3.493   3.352 -1.1910 -0.7451  0.4012
 5921SOL    HW323457   1.668   3.583   3.322 -0.9636 -0.1225  1.3518
 5921SOL    MW423458   1.740   3.565   3.369 -0.2821 -0.0224 -0.5109
 5922SOL     OW23459   4.995   1.620   4.228  0.4773 -0.1486 -0.1542
 5922SOL    HW223460   4.993   1.616   4.323 -0.0928 -0.7126 -0.1860
 5922SOL    HW323461   4.921   1.676   4.205  0.7156  0.1250 -0.2620
 5922SOL    MW423462   4.985   1.627   4.237  0.2617  0.2317 -0.1394
 5923SOL     OW23463   1.274   5.710   3.230  0.2464 -0.1713 -0.1117
 5923SOL    HW223464   1.361   5.743   3.205  1.6500 -4.0641 -1.1182
 5923SOL    HW323465   1.280   5.699   3.325 -0.1460  1.8771  0.2045
 5923SOL    MW423466   1.286   5.713   3.239 -0.3161 -0.0545  0.3487
 5924SOL     OW23467   4.955   6.045   4.347  0.7986  0.3669  0.4593
 5924SOL    HW223468   4.935   5.974   4.287  1.3419  1.4444 -1.0638
 5924SOL    HW323469   4.875   6.058   4.398  0.4600 -0.8164  0.2505
 5924SOL    MW423470   4.942   6.037   4.346 -0.2460 -0.3592 -0.0252
 5925SOL     OW23471   1.689   5.492   3.039 -0.3904  0.6633 -0.0183
 5925SOL    HW223472   1.719   5.555   2.974 -0.8778 -0.2339 -1.1486
 5925SOL    HW323473   1.739   5.413   3.020 -1.5062 -0.0187 -0.1734
 5925SOL    MW423474   1.699   5.490   3.028 -0.1694  0.2874 -0.6478
 5926SOL     OW23475   4.441   2.918   0.366  0.2223 -0.3545 -0.0445
 5926SOL    HW223476   4.465   2.853   0.300 -0.5845 -0.4036 -0.3017
 5926SOL    HW323477   4.506   2.908   0.435  0.7766 -0.6491 -0.6009
 5926SOL    MW423478   4.452   2.908   0.366 -0.1768  0.4046  0.6299
 5927SOL     OW23479   0.743   5.709   1.349  0.2546 -0.0024  0.1864
 5927SOL    HW223480   0.689   5.663   1.413 -1.7170  0.7911 -0.8140
 5927SOL    HW323481   0.726   5.665   1.266  0.7440  0.5868 -0.2418
 5927SOL    MW423482   0.733   5.697   1.347  0.7137  0.4049 -0.3780
 5928SOL     OW23483   2.854   4.071   0.726  0.1891 -0.0001  0.0971
 5928SOL    HW223484   2.919   4.127   0.769 -0.0077  0.0064  0.3887
 5928SOL    HW323485   2.840   4.112   0.640  2.1679 -1.1971 -0.8501
 5928SOL    MW423486   2.861   4.084   0.720  0.0367 -0.2674 -0.2800
 5929SOL     OW23487   3.922   5.895   6.040 -0.1630 -0.5042  0.5871
 5929SOL    HW223488   4.006   5.922   6.078  0.0784 -0.1253 -0.1937
 5929SOL    HW323489   3.898   5.967   5.982 -1.7883  0.0936  1.9302
 5929SOL    MW423490   3.930   5.908   6.038 -0.1454  0.1788  0.3690
 5930SOL     OW23491   0.832   5.993   0.754  0.4336  0.1043  0.1646
 5930SOL    HW223492   0.785   6.002   0.837  0.8875 -0.6506  0.5236
 5930SOL    HW323493   0.909   5.941   0.777  0.1408 -0.8286 -0.8923
 5930SOL    MW423494   0.836   5.987   0.768  0.1412 -0.3280  0.4943
 5931SOL     OW23495   0.172   3.913   0.200  0.1046  0.2209  0.4425
 5931SOL    HW223496   0.254   3.870   0.222 -0.2992 -1.2237 -0.7356
 5931SOL    HW323497   0.114   3.895   0.274  0.9581  1.7138  1.5390
 5931SOL    MW423498   0.175   3.905   0.212 -0.6471 -0.0374 -0.0681
 5932SOL     OW23499   5.535   0.483   2.596  0.0700 -0.5403 -0.0081
 5932SOL    HW223500   5.478   0.558   2.616 -0.5649 -1.1612  0.5545
 5932SOL    HW323501   5.589   0.472   2.674 -0.1522 -0.9445  0.0917
 5932SOL    MW423502   5.534   0.492   2.609 -0.3909  0.2216 -0.1827
 5933SOL     OW23503   6.407   0.013   0.324  0.0729  0.7307  0.2792
 5933SOL    HW223504   6.356   0.047   0.397 -0.3459 -1.0948  0.8737
 5933SOL    HW323505   6.497   0.016   0.354 -0.1407 -0.5048  1.1169
 5933SOL    MW423506   6.412   0.018   0.337 -0.7735  0.1441 -0.0053
 5934SOL     OW23507   0.592   5.101   3.391  0.0093  0.4289  0.2564
 5934SOL    HW223508   0.569   5.031   3.330  0.2117  1.1687 -0.6958
 5934SOL    HW323509   0.606   5.178   3.335  5.2442  0.0581  0.5641
 5934SOL    MW423510   0.590   5.102   3.375 -0.1330 -0.0474  0.2277
 5935SOL     OW23511   5.174   2.864   5.272  0.0340  0.3235 -0.0720
 5935SOL    HW223512   5.126   2.877   5.190  0.0380  1.8866  0.1368
 5935SOL    HW323513   5.252   2.917   5.263 -0.4934  1.4159  1.3525
 5935SOL    MW423514   5.178   2.873   5.260 -0.3433 -0.2637 -0.4016
 5936SOL     OW23515   6.220   1.996   0.625  0.1325 -0.2497 -0.1208
 5936SOL    HW223516   6.226   1.973   0.532  0.9879 -0.2606 -0.0739
 5936SOL    HW323517   6.127   2.009   0.641  0.0960  1.7125 -1.4730
 5936SOL    MW423518   6.209   1.995   0.615  0.2753  0.0884 -0.1499
 5937SOL     OW23519   1.650   4.081   3.100  0.0866  1.1942  0.2380
 5937SOL    HW223520   1.588   4.027   3.147  0.7128 -2.4753 -2.6969
 5937SOL    HW323521   1.725   4.024   3.084  0.9353  2.9264 -2.9093
 5937SOL    MW423522   1.652   4.066   3.104  0.0219  0.2328  0.5609
 5938SOL     OW23523   0.836   5.907   4.655 -0.4555  0.6067  0.4155
 5938SOL    HW223524   0.872   5.859   4.580 -0.3905  0.3630  0.6007
 5938SOL    HW323525   0.851   5.999   4.633  1.4749  0.4985  1.0644
 5938SOL    MW423526   0.843   5.913   4.642 -0.3897  0.7232  0.4333
 5939SOL     OW23527   1.927   0.022   0.467 -0.5566  0.1052 -0.2535
 5939SOL    HW223528   1.890  -0.066   0.458  0.4686 -0.6174  1.8708
 5939SOL    HW323529   1.981   0.034   0.389 -0.6725 -1.1715 -0.5523
 5939SOL    MW423530   1.929   0.012   0.456 -0.6769 -0.3602 -0.1391
 5940SOL     OW23531   2.889   0.648   5.338 -0.0868  0.4409 -0.7552
 5940SOL    HW223532   2.950   0.590   5.293  0.0582  0.2693 -0.3402
 5940SOL    HW323533   2.930   0.735   5.333  0.1273  0.3497 -0.5951
 5940SOL    MW423534   2.902   0.652   5.331 -0.4185 -0.3400 -0.0279
 5941SOL     OW23535   1.010   2.476   1.980 -0.1383 -0.2006  0.1545
 5941SOL    HW223536   0.964   2.489   1.898 -0.9885 -0.9175  0.5121
 5941SOL    HW323537   0.959   2.411   2.028  1.1728 -0.9502  0.6107
 5941SOL    MW423538   0.997   2.469   1.976 -0.0448 -0.0860  0.0715
 5942SOL     OW23539   5.982   3.671   4.730 -0.3318 -0.6886 -0.3777
 5942SOL    HW223540   5.967   3.626   4.648  2.2409 -2.8044  0.1821
 5942SOL    HW323541   5.955   3.608   4.797  1.2071 -0.5310  0.4174
 5942SOL    MW423542   5.976   3.657   4.728  0.5056  0.4987  0.6276
 5943SOL     OW23543   1.905   3.112   5.404  0.3182 -0.4736  0.4686
 5943SOL    HW223544   1.887   3.086   5.314  2.6032 -0.6974  0.0374
 5943SOL    HW323545   1.941   3.200   5.397  0.4754 -0.4754  1.1745
 5943SOL    MW423546   1.907   3.120   5.391 -0.3276  0.0374  0.0706
 5944SOL     OW23547   4.886   1.006   1.786  0.0931 -0.0280  0.3011
 5944SOL    HW223548   4.819   1.062   1.745  1.3342  0.6596 -0.8890
 5944SOL    HW323549   4.904   0.938   1.721 -0.3504 -0.9719  1.1419
 5944SOL    MW423550   4.880   1.005   1.772 -0.0147 -0.0528  0.7924
 5945SOL     OW23551   3.669   3.018   4.675  0.0383 -0.3607  0.2245
 5945SOL    HW223552   3.603   3.033   4.607  0.1736 -1.0206 -0.0632
 5945SOL    HW323553   3.620   2.975   4.746 -0.3420  1.3344  1.0304
 5945SOL    MW423554   3.654   3.014   4.675 -0.0718 -0.0689  0.2171
 5946SOL     OW23555   2.316   2.394   0.167 -0.3107  0.2014 -0.3264
 5946SOL    HW223556   2.283   2.474   0.125  1.9664  0.8877 -0.9429
 5946SOL    HW323557   2.373   2.425   0.237 -0.8800 -0.9285  0.6704
 5946SOL    MW423558   2.319   2.408   0.170 -0.0067 -0.6380 -0.4903
 5947SOL     OW23559   1.188   4.544   4.648  0.0936  0.2426  0.3939
 5947SOL    HW223560   1.179   4.565   4.555 -1.6758  0.5888  0.6065
 5947SOL    HW323561   1.202   4.628   4.691  1.7628 -0.0004  0.3885
 5947SOL    MW423562   1.189   4.558   4.642 -0.8637  0.5284 -0.0732
 5948SOL     OW23563   5.001   4.267   2.828  0.1727 -0.6369 -0.2307
 5948SOL    HW223564   5.014   4.189   2.774 -3.9404 -2.6025  1.1879
 5948SOL    HW323565   4.943   4.323   2.775  3.3551  1.9075 -1.3948
 5948SOL    MW423566   4.995   4.264   2.814  0.3723 -0.2649  0.4509
 5949SOL     OW23567   3.829   1.625   3.578 -0.4803 -0.3218 -0.7499
 5949SOL    HW223568   3.867   1.642   3.663  1.6451 -2.2389 -1.2365
 5949SOL    HW323569   3.889   1.665   3.515 -0.2628 -1.6823 -1.4551
 5949SOL    MW423570   3.842   1.633   3.581 -0.1562  0.3675  0.6356
 5950SOL     OW23571   4.691   5.515   1.518 -0.3623 -0.0244 -0.0567
 5950SOL    HW223572   4.685   5.605   1.551 -1.0469  0.2880 -0.9783
 5950SOL    HW323573   4.782   5.490   1.534 -0.5759  0.2319  1.6769
 5950SOL    MW423574   4.703   5.524   1.524  0.2580 -0.1441  0.0310
 5951SOL     OW23575   5.015   3.533   6.205 -0.5825  0.0626  0.0150
 5951SOL    HW223576   4.994   3.499   6.118 -3.0490 -0.4097  0.7045
 5951SOL    HW323577   5.071   3.609   6.189 -0.4100 -0.4372 -1.9232
 5951SOL    MW423578   5.020   3.539   6.192  0.8558  0.0783 -0.2343
 5952SOL     OW23579   4.083   6.165   4.229 -0.1913  0.1139 -0.0945
 5952SOL    HW223580   4.151   6.119   4.180 -0.6742 -1.0946  0.3192
 5952SOL    HW323581   4.127   6.243   4.264  1.3020 -1.1902  1.0867
 5952SOL    MW423582   4.098   6.169   4.227 -0.5553  0.0401 -0.5664
 5953SOL     OW23583   0.709   1.656   4.979  0.3483  0.0036 -0.2530
 5953SOL    HW223584   0.635   1.686   4.926  0.8711  1.0844 -0.3953
 5953SOL    HW323585   0.677   1.663   5.069  0.4317  0.9334 -0.2879
 5953SOL    MW423586   0.695   1.660   4.984 -0.0514  0.2593  0.1325
 5954SOL     OW23587   0.180   3.381   5.719 -0.3109 -0.3913 -0.7839
 5954SOL    HW223588   0.254   3.441   5.726 -0.7723  0.0793  0.2306
 5954SOL    HW323589   0.106   3.428   5.758 -1.1762 -0.8104 -1.8582
 5954SOL    MW423590   0.180   3.395   5.725 -0.0939  0.3427  0.0213
 5955SOL     OW23591   5.258   2.790   3.086  1.0569  0.5537 -0.2264
 5955SOL    HW223592   5.284   2.780   2.994 -0.5221  1.7374 -0.8285
 5955SOL    HW323593   5.163   2.794   3.084  0.7846 -1.9797  1.7551
 5955SOL    MW423594   5.249   2.789   3.074  0.6907 -0.0566 -0.8193
 5956SOL     OW23595   2.934   4.284   2.639  0.5211  0.1404 -0.1900
 5956SOL    HW223596   2.900   4.196   2.656  0.5707  0.3136  0.8924
 5956SOL    HW323597   3.024   4.281   2.670  1.0570  0.1196 -1.6616
 5956SOL    MW423598   2.941   4.272   2.646 -0.2848 -0.4772  0.4708
 5957SOL     OW23599   5.339   2.531   4.872  0.6619 -0.3457 -0.0479
 5957SOL    HW223600   5.246   2.542   4.892  0.7950  2.0794 -0.5066
 5957SOL    HW323601   5.372   2.476   4.943 -0.6690  0.6403  1.4140
 5957SOL    MW423602   5.331   2.525   4.884 -0.7963 -0.1851  0.3166
 5958SOL     OW23603   2.092   4.176   3.654 -0.3679  0.0298  0.6837
 5958SOL    HW223604   2.080   4.104   3.592  0.7277  0.2556  0.1823
 5958SOL    HW323605   2.024   4.162   3.720 -1.6014 -0.1874 -0.5841
 5958SOL    MW423606   2.082   4.165   3.655 -0.3792 -0.0022 -0.5273
 5959SOL     OW23607   0.527   1.569   4.290 -0.1717  0.0333 -0.1655
 5959SOL    HW223608   0.457   1.631   4.308  0.5508  0.5905  0.8385
 5959SOL    HW323609   0.502   1.490   4.338  0.3589  0.5704  1.0451
 5959SOL    MW423610   0.515   1.567   4.299  0.3678 -0.1610  0.5223
 5960SOL     OW23611   3.882   2.729   6.107  0.1393  0.0843  0.1856
 5960SOL    HW223612   3.817   2.777   6.157 -0.6396 -0.1624 -0.5702
 5960SOL    HW323613   3.926   2.673   6.171 -2.3641 -1.9241  0.2690
 5960SOL    MW423614   3.879   2.728   6.122 -0.0896  0.1743 -0.2054
 5961SOL     OW23615   4.624   1.786   1.201 -0.4123  0.2474  0.2173
 5961SOL    HW223616   4.674   1.862   1.230 -1.2840  0.4353  1.3276
 5961SOL    HW323617   4.600   1.741   1.282 -1.1839 -0.3760 -0.3380
 5961SOL    MW423618   4.627   1.790   1.216  0.5566  0.3597  0.3385
 5962SOL     OW23619   5.285   5.302   0.830 -0.5827  0.4408 -0.0220
 5962SOL    HW223620   5.318   5.229   0.881  1.1710  1.2294  0.0559
 5962SOL    HW323621   5.196   5.317   0.863 -1.4042 -2.2939 -0.7950
 5962SOL    MW423622   5.277   5.294   0.841  0.6332  0.3659 -0.5734
 5963SOL     OW23623   1.897   0.151   5.620  0.2436  0.5445  0.1346
 5963SOL    HW223624   1.893   0.223   5.682  1.3138  1.7845 -1.1782
 5963SOL    HW323625   1.929   0.077   5.672  3.5907  2.1750  0.6224
 5963SOL    MW423626   1.901   0.150   5.635  0.5240 -0.1844 -0.0714
 5964SOL     OW23627   4.636   3.116   4.861  0.2875  0.2471  0.3903
 5964SOL    HW223628   4.542   3.098   4.863  0.6471 -1.9836  0.3818
 5964SOL    HW323629   4.655   3.150   4.948  0.0299 -3.2053  1.9927
 5964SOL    MW423630   4.626   3.118   4.873  0.2966  0.4867 -0.4646
 5965SOL     OW23631   2.837   2.593   3.734 -0.1003  0.0589 -0.5285
 5965SOL    HW223632   2.818   2.591   3.641 -0.4135 -0.7915 -0.4623
 5965SOL    HW323633   2.917   2.541   3.743  1.3613  2.1999 -0.6008
 5965SOL    MW423634   2.845   2.586   3.723 -0.0294 -0.2681  0.1737
 5966SOL     OW23635   5.625   4.924   5.429  0.3443  0.2461 -0.4364
 5966SOL    HW223636   5.693   4.965   5.482  1.8078 -0.7389 -1.4607
 5966SOL    HW323637   5.625   4.973   5.347  0.1035 -0.0150 -0.5934
 5966SOL    MW423638   5.634   4.936   5.425  0.1599  0.5435 -0.2567
 5967SOL     OW23639   3.212   6.219   0.335  0.2128 -0.1298  0.0089
 5967SOL    HW223640   3.138   6.160   0.347 -1.1330  1.3802 -0.5051
 5967SOL    HW323641   3.232   6.216   0.242  0.0281  0.3303 -0.0506
 5967SOL    MW423642   3.205   6.211   0.324  0.4386 -0.2732 -0.2409
 5968SOL     OW23643   5.523   3.771   0.436  0.0777  0.4754  0.0830
 5968SOL    HW223644   5.584   3.784   0.364  0.6620  1.5826  0.7427
 5968SOL    HW323645   5.442   3.739   0.395  0.6575  0.3155 -0.9531
 5968SOL    MW423646   5.520   3.768   0.421  0.2097  0.4110  0.0809
 5969SOL     OW23647   1.265   4.216   0.707  0.3010 -0.2153 -0.3705
 5969SOL    HW223648   1.339   4.164   0.737 -0.1364 -0.7916 -0.2661
 5969SOL    HW323649   1.208   4.222   0.784  0.8322  1.3416 -0.0427
 5969SOL    MW423650   1.267   4.210   0.721  0.6629 -0.0496  0.3128
 5970SOL     OW23651   4.516   6.092   5.467  0.4780  0.1574 -0.3151
 5970SOL    HW223652   4.533   6.165   5.527  0.7686 -0.1054 -0.0710
 5970SOL    HW323653   4.452   6.037   5.513  0.7854 -0.1030 -0.1882
 5970SOL    MW423654   4.510   6.094   5.481  0.3347 -0.4897  0.0571
 5971SOL     OW23655   0.437   1.608   2.717  0.4691 -0.5967 -0.3428
 5971SOL    HW223656   0.468   1.662   2.643  1.2113 -0.9130 -0.2682
 5971SOL    HW323657   0.343   1.599   2.701 -0.0410  2.1799  0.5693
 5971SOL    MW423658   0.429   1.614   2.705 -0.0914  0.1281  0.4303
 5972SOL     OW23659   4.901   4.443   2.067  0.1390  0.4939  0.1138
 5972SOL    HW223660   4.944   4.360   2.049 -0.0360  0.8633 -2.3612
 5972SOL    HW323661   4.893   4.446   2.162 -0.3453 -2.5490  0.2644
 5972SOL    MW423662   4.906   4.432   2.077  0.0387 -0.5554  0.8767
 5973SOL     OW23663   3.336   5.356   2.677  0.2791 -0.2959  0.0548
 5973SOL    HW223664   3.412   5.299   2.691 -0.8947 -2.0802 -0.6172
 5973SOL    HW323665   3.314   5.388   2.765  1.2437 -0.4648  0.3734
 5973SOL    MW423666   3.343   5.353   2.691 -0.0917  0.5869  0.0782
 5974SOL     OW23667   6.223   4.359   2.884 -0.2184  0.2770  0.3111
 5974SOL    HW223668   6.243   4.439   2.836 -0.0908  0.2796  0.3662
 5974SOL    HW323669   6.300   4.303   2.871 -0.4899 -0.0106 -0.0848
 5974SOL    MW423670   6.236   4.362   2.876 -0.0207  0.1012 -0.1253
 5975SOL     OW23671   2.221   4.986   3.642  0.1562 -0.3893  0.0399
 5975SOL    HW223672   2.306   5.025   3.665 -0.4915 -0.2340  2.4493
 5975SOL    HW323673   2.157   5.049   3.673 -0.8720 -1.9854  1.3440
 5975SOL    MW423674   2.224   4.999   3.649  0.3297  0.1981  0.0220
 5976SOL     OW23675   1.290   1.232   6.133  0.3377 -0.2316  0.0790
 5976SOL    HW223676   1.320   1.291   6.064  0.7990 -1.1582 -0.5180
 5976SOL    HW323677   1.310   1.144   6.101  1.0245 -0.6676  1.5925
 5976SOL    MW423678   1.297   1.229   6.120  0.5305  0.2563  0.2998
 5977SOL     OW23679   1.251   1.856   3.106  0.1597 -0.4907 -0.7819
 5977SOL    HW223680   1.175   1.882   3.054 -0.1464 -0.2087 -0.2098
 5977SOL    HW323681   1.296   1.938   3.125 -0.1369 -0.5025  0.0086
 5977SOL    MW423682   1.247   1.870   3.102 -0.3000 -0.1305  0.1802
 5978SOL     OW23683   1.486   6.010   0.375 -0.1223 -0.4545  0.8397
 5978SOL    HW223684   1.526   6.089   0.412  0.3781 -0.6407  0.6933
 5978SOL    HW323685   1.482   5.948   0.448 -1.2189 -0.0359  1.1529
 5978SOL    MW423686   1.491   6.013   0.390 -0.2750 -0.8277  0.0609
 5979SOL     OW23687   0.014   2.780   3.567 -0.3321  0.5625 -0.2546
 5979SOL    HW223688   0.099   2.810   3.600 -0.2535 -0.5843  0.6305
 5979SOL    HW323689   0.021   2.790   3.472  0.9429  0.1410 -0.2282
 5979SOL    MW423690   0.026   2.785   3.558 -0.2930  0.3023  0.2330
 5980SOL     OW23691   0.526   2.995   0.889  0.3888  0.2388  0.5182
 5980SOL    HW223692   0.469   3.028   0.819  0.5598  1.5418  0.9541
 5980SOL    HW323693   0.613   2.992   0.850  0.5991  1.5902  0.8278
 5980SOL    MW423694   0.530   2.999   0.875 -0.0314  0.3017  0.1056
 5981SOL     OW23695   4.126   4.843   0.576 -0.2829 -0.2586  0.1448
 5981SOL    HW223696   4.201   4.832   0.635  0.6749  1.3640 -0.6903
 5981SOL    HW323697   4.123   4.762   0.526  0.6272 -0.5456  0.5272
 5981SOL    MW423698   4.135   4.831   0.577  0.1342 -0.9049  0.2434
 5982SOL     OW23699   0.814   1.028   5.968 -0.1942  0.3870 -0.0691
 5982SOL    HW223700   0.785   1.113   5.933 -0.3202  1.0049  1.4395
 5982SOL    HW323701   0.736   0.973   5.964 -0.4297  0.7071 -0.0050
 5982SOL    MW423702   0.800   1.032   5.963 -0.4866 -0.3010  0.3585
 5983SOL     OW23703   0.819   3.652   1.823 -0.4592  0.1905 -0.0852
 5983SOL    HW223704   0.899   3.604   1.843 -1.1195 -0.3076  1.5188
 5983SOL    HW323705   0.753   3.584   1.807 -0.9190  0.5732  0.1401
 5983SOL    MW423706   0.821   3.637   1.823  0.2679  0.1446  0.6465
 5984SOL     OW23707   1.095   5.977   1.628 -0.2604  0.1680 -0.0259
 5984SOL    HW223708   1.067   6.058   1.670 -0.7530 -0.1386  0.2507
 5984SOL    HW323709   1.038   5.969   1.551 -1.0935 -0.5536  0.6406
 5984SOL    MW423710   1.084   5.986   1.623 -0.0210 -0.2999 -0.5120
 5985SOL     OW23711   6.183   2.290   5.361  0.2590  0.0887 -0.3844
 5985SOL    HW223712   6.099   2.256   5.390  0.6184 -1.8055 -1.4371
 5985SOL    HW323713   6.172   2.385   5.360 -1.0782  0.0083  1.7931
 5985SOL    MW423714   6.171   2.298   5.365 -0.3134  0.6903  0.1189
 5986SOL     OW23715   2.333   3.939   0.837 -0.4753 -0.6778 -0.4959
 5986SOL    HW223716   2.372   3.942   0.925 -2.6108 -2.4228  0.6140
 5986SOL    HW323717   2.380   3.868   0.793  0.1806 -0.2032 -0.5846
 5986SOL    MW423718   2.345   3.930   0.843 -0.4486  0.2295  0.3000
 5987SOL     OW23719   3.039   4.493   0.724 -0.0937 -0.1678  0.5755
 5987SOL    HW223720   3.114   4.488   0.783  0.9648  0.0764 -0.6915
 5987SOL    HW323721   3.042   4.581   0.687 -0.3587 -0.5028 -0.2896
 5987SOL    MW423722   3.049   4.504   0.727  0.0638  0.0047  0.5886
 5988SOL     OW23723   1.214   2.477   4.055 -0.3662  0.1987  0.4945
 5988SOL    HW223724   1.158   2.436   3.988  0.5316  0.6874 -0.5833
 5988SOL    HW323725   1.276   2.530   4.005  1.4590 -0.7984  1.6107
 5988SOL    MW423726   1.215   2.478   4.040 -1.0250  0.0904 -0.2545
 5989SOL     OW23727   3.009   2.084   2.340  0.0456  0.0164 -0.1740
 5989SOL    HW223728   2.943   2.035   2.291  0.9140  0.5986 -2.0137
 5989SOL    HW323729   3.000   2.053   2.430 -0.2083 -2.6655 -1.0436
 5989SOL    MW423730   2.999   2.073   2.345  0.2832 -0.2218 -0.5652
 5990SOL     OW23731   4.269   4.999   3.843 -0.0026 -0.6704 -0.2213
 5990SOL    HW223732   4.350   4.969   3.801  1.3860 -0.1796  1.9474
 5990SOL    HW323733   4.240   4.924   3.895 -0.5243 -0.6005 -0.4122
 5990SOL    MW423734   4.276   4.985   3.845  0.4402  0.6431  0.0315
 5991SOL     OW23735   1.318   2.884   1.069 -0.3190  0.3275 -0.0294
 5991SOL    HW223736   1.279   2.963   1.032  2.2797  1.3129 -0.8862
 5991SOL    HW323737   1.410   2.889   1.045  0.4278 -1.7708  2.0124
 5991SOL    MW423738   1.325   2.895   1.061  0.0292 -0.3544  0.8489
 5992SOL     OW23739   6.011   3.698   2.266 -0.0281  0.0064 -0.2601
 5992SOL    HW223740   6.022   3.687   2.172  1.2249  1.7591 -0.3606
 5992SOL    HW323741   6.100   3.700   2.300 -0.4143  1.0545  0.7458
 5992SOL    MW423742   6.024   3.697   2.258 -0.1539  0.3807  0.0480
 5993SOL     OW23743   6.422   0.480   3.588 -0.3391  0.0528 -0.0652
 5993SOL    HW223744   6.397   0.398   3.546  0.5907 -0.5280  0.4672
 5993SOL    HW323745   6.503   0.459   3.635  0.1383  1.3830 -0.2484
 5993SOL    MW423746   6.429   0.467   3.589 -1.0478  0.1959 -0.5488
 5994SOL     OW23747   4.423   3.983   3.106  0.2690 -0.3496 -0.1050
 5994SOL    HW223748   4.462   3.898   3.087 -1.3061 -0.4330 -3.8730
 5994SOL    HW323749   4.491   4.046   3.085  0.3474 -0.6188 -0.6665
 5994SOL    MW423750   4.437   3.980   3.101 -0.0571  0.0658 -0.1322
 5995SOL     OW23751   4.875   2.692   1.206 -0.2942 -0.2004  0.5560
 5995SOL    HW223752   4.958   2.662   1.168  1.0973  2.3829  1.3416
 5995SOL    HW323753   4.894   2.702   1.299 -1.2052  1.3071  0.6034
 5995SOL    MW423754   4.888   2.689   1.213 -0.1391 -0.2370 -0.1507
 5996SOL     OW23755   2.146   2.232   2.410 -0.0252  0.1256  0.0046
 5996SOL    HW223756   2.134   2.243   2.315 -0.5922  0.2131  0.0853
 5996SOL    HW323757   2.091   2.299   2.449  2.3017  1.9559  0.3843
 5996SOL    MW423758   2.137   2.242   2.402 -0.1518 -0.2892  0.2957
 5997SOL     OW23759   6.134   1.940   5.425  0.3662 -0.3429  0.1339
 5997SOL    HW223760   6.054   1.971   5.384  0.4647 -0.3473 -0.0652
 5997SOL    HW323761   6.106   1.869   5.482  0.3862 -1.2390 -0.9429
 5997SOL    MW423762   6.120   1.935   5.427  0.1576  0.4973 -0.1884
 5998SOL     OW23763   1.719   1.855   2.366 -0.2124 -0.1531 -0.1832
 5998SOL    HW223764   1.754   1.780   2.317  1.5924  1.1055 -0.9386
 5998SOL    HW323765   1.748   1.931   2.316 -0.2246  1.1170  1.6498
 5998SOL    MW423766   1.728   1.855   2.353 -0.2822  0.1441  0.5047
 5999SOL     OW23767   3.108   1.129   0.436 -0.3823 -0.3176 -0.5997
 5999SOL    HW223768   3.038   1.105   0.497  0.8861 -1.5056  0.4647
 5999SOL    HW323769   3.126   1.221   0.454 -0.9324 -0.3007 -0.1255
 5999SOL    MW423770   3.101   1.138   0.447 -0.1675  0.2102  0.0070
 6000SOL     OW23771   1.649   0.159   5.887 -0.1845  0.2070  0.6370
 6000SOL    HW223772   1.734   0.115   5.879 -0.4363 -0.2750  0.5966
 6000SOL    HW323773   1.640   0.177   5.980 -0.2908 -0.2453  0.7151
 6000SOL    MW423774   1.659   0.156   5.898  0.3376  0.0333 -0.7734
 6001SOL     OW23775   3.939   4.507   4.403  0.6524 -0.2202  0.5087
 6001SOL    HW223776   3.874   4.557   4.353  0.1763 -0.5294  0.8057
 6001SOL    HW323777   3.909   4.416   4.397  1.4213 -0.4517  0.1105
 6001SOL    MW423778   3.926   4.501   4.396  0.2124  0.0874 -0.6779
 6002SOL     OW23779   6.157   2.648   0.675  0.2505  1.1186 -0.3958
 6002SOL    HW223780   6.154   2.705   0.752 -0.7495  0.3137  0.1859
 6002SOL    HW323781   6.109   2.695   0.607  1.1422  1.8356 -0.5514
 6002SOL    MW423782   6.150   2.662   0.676 -0.0128 -0.6187 -0.9046
 6003SOL     OW23783   3.054   2.649   5.532 -0.2760 -0.2688 -0.0621
 6003SOL    HW223784   3.088   2.712   5.469 -0.0884 -0.3177 -0.0076
 6003SOL    HW323785   2.997   2.701   5.589 -0.2587 -0.1810 -0.1242
 6003SOL    MW423786   3.051   2.664   5.531  0.6995  0.0821 -0.2488
 6004SOL     OW23787   5.706   0.350   3.637  0.3138  0.0120  0.0977
 6004SOL    HW223788   5.724   0.443   3.620 -0.4468 -0.0261 -1.0592
 6004SOL    HW323789   5.735   0.306   3.557  0.0920 -0.6695  0.3925
 6004SOL    MW423790   5.712   0.357   3.624 -0.2488 -0.1497 -0.4599
 6005SOL     OW23791   2.027   2.121   4.095 -0.3452 -0.0828  0.6271
 6005SOL    HW223792   2.022   2.065   4.172 -0.7090 -2.7144 -1.1638
 6005SOL    HW323793   2.119   2.145   4.088 -0.2206 -0.2779  1.5625
 6005SOL    MW423794   2.038   2.117   4.104 -0.5389 -0.5063 -0.3671
 6006SOL     OW23795   3.088   3.860   2.326 -0.4029  0.7244  0.3184
 6006SOL    HW223796   3.001   3.899   2.315 -1.4994 -1.7233 -0.2711
 6006SOL    HW323797   3.101   3.859   2.421 -0.9696  1.1852  0.4096
 6006SOL    MW423798   3.078   3.865   2.337 -0.0031 -0.2678  0.1575
 6007SOL     OW23799   5.658   4.065   3.525  0.7185 -0.3012 -0.2443
 6007SOL    HW223800   5.682   3.996   3.464 -0.1547  1.0183 -2.1879
 6007SOL    HW323801   5.601   4.022   3.589  0.3967 -1.4504 -1.2607
 6007SOL    MW423802   5.653   4.050   3.525 -0.7006 -0.1659  0.4474
 6008SOL     OW23803   1.153   3.315   4.478  0.6110  0.0797 -0.1311
 6008SOL    HW223804   1.145   3.410   4.481 -0.8642 -0.0003 -0.7172
 6008SOL    HW323805   1.165   3.289   4.569  1.8313  0.8753 -0.0531
 6008SOL    MW423806   1.153   3.324   4.490 -0.5378  0.1968  0.3034
 6009SOL     OW23807   5.526   4.006   6.223  0.2865  0.5465  0.0082
 6009SOL    HW223808   5.434   4.026   6.243  0.5332  2.6573 -0.7174
 6009SOL    HW323809   5.576   4.074   6.270  1.2350  1.4826 -2.2265
 6009SOL    MW423810   5.520   4.018   6.232 -0.2318  0.1098  0.0496
 6010SOL     OW23811   1.684   3.439   6.346  0.1954  0.0209 -0.2945
 6010SOL    HW223812   1.639   3.522   6.362  1.2663  0.5232  0.1719
 6010SOL    HW323813   1.716   3.412   6.432 -2.3079 -2.2113  0.0867
 6010SOL    MW423814   1.682   3.446   6.359  0.1014 -0.7521  0.3217
 6011SOL     OW23815   1.738   0.718   0.693 -0.5241  0.1053  0.0503
 6011SOL    HW223816   1.707   0.705   0.783 -0.1028  0.3716  0.2358
 6011SOL    HW323817   1.826   0.753   0.703 -1.0411  1.6530 -0.4330
 6011SOL    MW423818   1.745   0.721   0.706  0.0525 -0.3713  0.0526
 6012SOL     OW23819   4.762   1.184   1.623  0.0208 -0.7139 -0.5517
 6012SOL    HW223820   4.744   1.202   1.531  0.0859 -0.2994 -0.4842
 6012SOL    HW323821   4.788   1.269   1.660 -1.4254 -0.5628  0.1853
 6012SOL    MW423822   4.763   1.198   1.616  0.6339 -0.2623  0.1600
 6013SOL     OW23823   4.414   5.608   2.386  0.6747  0.4928 -0.3486
 6013SOL    HW223824   4.404   5.575   2.475  4.2071  0.3310  0.1302
 6013SOL    HW323825   4.342   5.670   2.375 -1.1865 -1.1198  1.7570
 6013SOL    MW423826   4.403   5.611   2.396 -0.0274 -0.3403  0.6198
 6014SOL     OW23827   3.836   1.754   5.649  0.2785 -0.0413 -0.1901
 6014SOL    HW223828   3.741   1.745   5.659  0.2560 -0.2732 -0.5876
 6014SOL    HW323829   3.860   1.687   5.584  0.8591 -0.6809  0.6638
 6014SOL    MW423830   3.827   1.744   5.641  0.2799  0.2575 -0.1475
 6015SOL     OW23831   3.478   2.710   4.566  0.3929  0.5252 -0.3523
 6015SOL    HW223832   3.387   2.732   4.543  0.5405  0.5695 -0.9160
 6015SOL    HW323833   3.490   2.622   4.531  0.2742  0.1305  0.5718
 6015SOL    MW423834   3.467   2.701   4.558  0.4215  0.7661  0.3042
 6016SOL     OW23835   4.560   5.262   2.272  0.0896 -0.3545 -0.2423
 6016SOL    HW223836   4.486   5.245   2.331  0.4175 -0.3897  0.1630
 6016SOL    HW323837   4.614   5.325   2.319  0.4213 -0.4814 -0.4492
 6016SOL    MW423838   4.557   5.268   2.286 -0.3096  0.1422  0.0312
 6017SOL     OW23839   1.125   1.935   2.544 -0.6481  0.1193 -0.0814
 6017SOL    HW223840   1.154   1.857   2.496  0.4066 -0.2769  1.1465
 6017SOL    HW323841   1.096   1.995   2.476  0.5614 -0.5203 -1.2166
 6017SOL    MW423842   1.125   1.932   2.529  0.0325 -0.2674  0.1545
 6018SOL     OW23843   5.371   5.999   2.386  0.0348  0.4511  0.1363
 6018SOL    HW223844   5.283   6.036   2.390 -0.3933 -0.6092  0.9985
 6018SOL    HW323845   5.381   5.952   2.469  0.9120 -0.5600 -0.5202
 6018SOL    MW423846   5.361   5.998   2.398 -0.4807  0.3397 -0.2535
 6019SOL     OW23847   1.855   3.105   3.605 -0.4159  0.2545  0.0029
 6019SOL    HW223848   1.891   3.071   3.524  1.1991  2.3329 -0.2405
 6019SOL    HW323849   1.889   3.047   3.673  1.2039  0.5795 -0.4954
 6019SOL    MW423850   1.864   3.093   3.603 -0.1881  0.2189 -0.2464
 6020SOL     OW23851   3.132   1.732   3.203 -0.4205 -0.5113 -0.3387
 6020SOL    HW223852   3.060   1.710   3.145 -1.4959 -2.0817  1.4685
 6020SOL    HW323853   3.198   1.665   3.186 -0.6419 -0.8373  0.0618
 6020SOL    MW423854   3.131   1.720   3.193  0.0498  0.1169  0.0764
 6021SOL     OW23855   1.084   1.004   4.545 -0.3447 -0.2920 -0.2236
 6021SOL    HW223856   1.147   1.075   4.536  0.2425 -0.8859 -0.9378
 6021SOL    HW323857   1.075   0.991   4.639  1.0524 -0.5914 -0.1151
 6021SOL    MW423858   1.091   1.012   4.556 -0.6097 -0.3694 -0.1334
 6022SOL     OW23859   2.268   6.070   0.914 -0.0452  1.2000 -0.6047
 6022SOL    HW223860   2.311   6.139   0.964 -0.0062  0.3371  0.5960
 6022SOL    HW323861   2.337   6.035   0.857  0.4702  0.8242  0.2319
 6022SOL    MW423862   2.283   6.074   0.913  0.0803  0.8536 -0.8298
 6023SOL     OW23863   1.919   0.081   2.177 -0.2723 -0.0216  0.5637
 6023SOL    HW223864   2.001   0.056   2.220 -0.1482 -3.0693 -1.1435
 6023SOL    HW323865   1.853   0.079   2.246  0.7868  0.8293  1.6387
 6023SOL    MW423866   1.921   0.078   2.191  0.3629 -0.0044  0.2006
 6024SOL     OW23867   1.420   3.078   4.736  0.1024  1.0220 -0.1422
 6024SOL    HW223868   1.474   3.157   4.733  2.0157 -0.2586 -0.7093
 6024SOL    HW323869   1.466   3.019   4.795 -1.0460  0.1208 -0.1048
 6024SOL    MW423870   1.433   3.081   4.743 -0.1837 -0.0515 -0.2855
 6025SOL     OW23871   2.955   3.652   4.249  0.0679  0.4328  0.1948
 6025SOL    HW223872   2.926   3.647   4.340 -0.0070 -0.9330  0.1081
 6025SOL    HW323873   2.996   3.739   4.242  0.5571  0.3509  1.6592
 6025SOL    MW423874   2.956   3.663   4.260 -0.7852  0.5510  0.9125
 6026SOL     OW23875   1.681   0.192   2.940  0.6079 -0.5440  0.6362
 6026SOL    HW223876   1.640   0.165   3.022  2.6064 -1.4801  1.3971
 6026SOL    HW323877   1.688   0.287   2.948 -2.1261 -0.2199  0.0651
 6026SOL    MW423878   1.676   0.201   2.952 -0.0210 -0.1472  0.0045
 6027SOL     OW23879   5.174   3.514   2.828  0.1392  0.3116 -0.3756
 6027SOL    HW223880   5.267   3.535   2.832 -0.2076  2.2528 -1.3330
 6027SOL    HW323881   5.131   3.589   2.867 -1.0447 -0.6306  0.1935
 6027SOL    MW423882   5.181   3.526   2.833 -0.4182 -0.5165  0.4270
 6028SOL     OW23883   0.713   5.937   0.419 -0.0184 -0.0420  0.0148
 6028SOL    HW223884   0.685   6.020   0.458  1.4926  0.0428  1.0372
 6028SOL    HW323885   0.632   5.890   0.400 -0.8733  0.8331  1.3176
 6028SOL    MW423886   0.699   5.942   0.422 -0.3035 -0.1343  0.1806
 6029SOL     OW23887   2.290   6.303   2.565 -0.0135  0.0579  0.0639
 6029SOL    HW223888   2.218   6.333   2.509  0.6589  2.6799  0.4414
 6029SOL    HW323889   2.321   6.222   2.524  0.1357  1.5714 -3.1397
 6029SOL    MW423890   2.285   6.297   2.552  0.2694 -0.3759 -0.1192
 6030SOL     OW23891   3.609   5.597   3.393 -0.1413 -0.0588 -0.0761
 6030SOL    HW223892   3.687   5.560   3.352  0.2352 -0.1340  0.6986
 6030SOL    HW323893   3.642   5.646   3.468 -0.8390 -0.0742  0.2448
 6030SOL    MW423894   3.624   5.599   3.397  0.7043 -0.4192 -0.1282
 6031SOL     OW23895   5.077   1.136   5.117 -0.5804 -0.3781 -0.1003
 6031SOL    HW223896   5.049   1.227   5.125  1.4186  0.4752 -1.8259
 6031SOL    HW323897   5.070   1.101   5.205 -0.0321  1.8872  0.9212
 6031SOL    MW423898   5.073   1.144   5.129  0.2877  0.5886 -0.3874
 6032SOL     OW23899   3.639   5.329   1.917  0.2799  0.1539  0.3064
 6032SOL    HW223900   3.727   5.366   1.914  0.1124  0.7825  2.0111
 6032SOL    HW323901   3.587   5.387   1.862  0.0854  2.4614  2.7145
 6032SOL    MW423902   3.643   5.341   1.909 -0.0753 -0.1559 -0.3277
 6033SOL     OW23903   4.291   0.419   1.059 -0.0512 -0.0894  0.0575
 6033SOL    HW223904   4.271   0.376   1.142 -0.7586 -0.5893 -0.3593
 6033SOL    HW323905   4.224   0.486   1.050  2.0142  2.3452  1.5159
 6033SOL    MW423906   4.280   0.422   1.069 -0.3388  0.1265  0.1928
 6034SOL     OW23907   6.119   2.313   5.693 -0.2972 -0.0495  0.4558
 6034SOL    HW223908   6.036   2.304   5.647 -0.4086 -3.9881  1.1121
 6034SOL    HW323909   6.097   2.302   5.785  0.8558 -0.3969  0.7057
 6034SOL    MW423910   6.105   2.311   5.699  0.1415  0.4920  0.0213
 6035SOL     OW23911   5.578   2.648   4.366  0.2923 -0.4525 -0.3643
 6035SOL    HW223912   5.552   2.603   4.447  1.9574 -1.1592 -0.1714
 6035SOL    HW323913   5.563   2.584   4.297  2.5017 -1.3332 -0.1102
 6035SOL    MW423914   5.573   2.634   4.368  0.0253  0.3278 -0.5465
 6036SOL     OW23915   6.395   3.899   1.180  0.0175  0.6801  0.0246
 6036SOL    HW223916   6.461   3.932   1.119  0.5776 -2.2867 -1.1284
 6036SOL    HW323917   6.311   3.926   1.141  0.4454  2.7515  0.4444
 6036SOL    MW423918   6.392   3.907   1.166  0.5568  0.5186  0.3137
 6037SOL     OW23919   0.772   0.720   1.350  0.1452 -0.3334 -0.1429
 6037SOL    HW223920   0.728   0.640   1.321  1.2104 -1.1060  0.3015
 6037SOL    HW323921   0.704   0.770   1.396 -0.6158 -0.8125 -0.7326
 6037SOL    MW423922   0.758   0.716   1.352 -0.0939 -0.3897 -0.2824
 6038SOL     OW23923   2.617   6.417   0.131 -0.2812  0.1933 -0.2761
 6038SOL    HW223924   2.603   6.362   0.208 -0.6091  0.8861  0.1655
 6038SOL    HW323925   2.711   6.411   0.114 -0.5320 -1.7479 -1.1873
 6038SOL    MW423926   2.628   6.409   0.139 -0.3657  0.8060  0.4501
 6039SOL     OW23927   3.356   4.884   2.888 -0.0628  0.0855  0.3213
 6039SOL    HW223928   3.377   4.814   2.828  0.6265  1.7193 -1.4430
 6039SOL    HW323929   3.265   4.867   2.914  0.2280 -1.6480  0.2824
 6039SOL    MW423930   3.347   4.873   2.884  0.1962 -0.2854 -0.7316
 6040SOL     OW23931   5.176   3.021   5.789 -0.4313  0.2632 -0.4398
 6040SOL    HW223932   5.194   2.930   5.812  0.1123  0.3230 -0.6145
 6040SOL    HW323933   5.159   3.018   5.695 -4.1360 -0.2149  0.0784
 6040SOL    MW423934   5.176   3.008   5.779  0.3647  0.0516  0.0435
 6041SOL     OW23935   2.816   2.912   4.912 -0.3949 -0.2097 -0.4851
 6041SOL    HW223936   2.721   2.906   4.909 -0.4253  0.5333 -1.3959
 6041SOL    HW323937   2.845   2.820   4.912 -1.1084 -0.4867  1.2745
 6041SOL    MW423938   2.807   2.899   4.912 -0.1077  0.2976  0.0538
 6042SOL     OW23939   1.367   0.267   0.797 -0.4855  0.5705 -0.0068
 6042SOL    HW223940   1.282   0.310   0.794 -0.6886  0.1757 -2.9384
 6042SOL    HW323941   1.352   0.181   0.759  0.8680 -0.2735  1.2575
 6042SOL    MW423942   1.354   0.261   0.792  0.2042  0.0327  0.0701
 6043SOL     OW23943   5.629   1.417   0.211 -0.4415  0.0206 -0.3960
 6043SOL    HW223944   5.677   1.336   0.227 -0.4425  0.2478  0.7995
 6043SOL    HW323945   5.552   1.390   0.160  0.6093 -0.4321 -1.8244
 6043SOL    MW423946   5.625   1.403   0.206 -0.3656 -0.1518  0.0436
 6044SOL     OW23947   5.605   0.198   2.877  0.2529 -0.0508 -0.2013
 6044SOL    HW223948   5.647   0.275   2.838  0.6789 -0.5974 -0.8555
 6044SOL    HW323949   5.512   0.221   2.881  0.0730 -0.2172 -2.2168
 6044SOL    MW423950   5.598   0.211   2.872  0.4885  0.5715 -0.4988
 6045SOL     OW23951   5.142   5.804   5.915 -0.1496 -0.2145  0.0518
 6045SOL    HW223952   5.214   5.775   5.858  0.4785  0.9081  0.2353
 6045SOL    HW323953   5.100   5.723   5.944  1.5962 -0.9617  0.6475
 6045SOL    MW423954   5.146   5.789   5.911  0.0856  0.4459  0.5060
 6046SOL     OW23955   6.350   0.844   3.804 -0.3271 -0.1272 -0.0042
 6046SOL    HW223956   6.410   0.840   3.729  0.7337 -0.5056  0.8306
 6046SOL    HW323957   6.264   0.822   3.768  0.0373  0.3982 -1.2315
 6046SOL    MW423958   6.347   0.840   3.790 -0.1455  0.4032  0.4090
 6047SOL     OW23959   2.620   1.994   4.194 -0.6697  0.4063  0.0969
 6047SOL    HW223960   2.531   2.003   4.161 -1.0992  0.0541  1.1037
 6047SOL    HW323961   2.611   1.937   4.271  0.4972 -0.0699 -0.0964
 6047SOL    MW423962   2.607   1.987   4.200 -0.1829 -0.2497  0.5583
 6048SOL     OW23963   0.629   4.248   0.421 -0.5877 -0.1927  0.2740
 6048SOL    HW223964   0.538   4.271   0.440 -0.7039  0.2429 -0.7466
 6048SOL    HW323965   0.680   4.311   0.472 -0.8819  0.4463 -0.2055
 6048SOL    MW423966   0.624   4.260   0.431  0.5223  0.1395 -0.2170
 6049SOL     OW23967   6.101   1.163   6.386 -0.2847 -0.0932  0.1755
 6049SOL    HW223968   6.161   1.131   6.453  0.0938 -0.0296 -0.1295
 6049SOL    HW323969   6.131   1.121   6.305 -0.6852 -0.1051  0.0297
 6049SOL    MW423970   6.113   1.153   6.384  0.5002 -0.5074 -0.2476
 6050SOL     OW23971   4.127   4.011   5.251 -1.1600  0.3114  0.6308
 6050SOL    HW223972   4.195   3.957   5.211 -2.1094  0.0966 -0.7908
 6050SOL    HW323973   4.171   4.057   5.323  0.2366 -0.5337  0.3496
 6050SOL    MW423974   4.142   4.010   5.255  0.6965 -0.1753  0.2129
 6051SOL     OW23975   1.597   4.407   5.965 -0.0138 -0.5287 -0.3148
 6051SOL    HW223976   1.548   4.374   5.890  1.8055 -0.8745 -1.4207
 6051SOL    HW323977   1.603   4.501   5.950 -1.1482 -0.3364  0.3469
 6051SOL    MW423978   1.592   4.415   5.953  0.1547  0.4324 -0.2261
 6052SOL     OW23979   4.418   4.894   1.244 -0.2409  0.2284 -0.0470
 6052SOL    HW223980   4.495   4.929   1.200 -0.5493 -0.1675 -0.9266
 6052SOL    HW323981   4.377   4.838   1.178  0.1440 -1.6519  1.2291
 6052SOL    MW423982   4.423   4.891   1.229  0.0389  0.1142 -0.1612
 6053SOL     OW23983   6.409   2.835   4.027  0.3933  0.1960  0.5445
 6053SOL    HW223984   6.473   2.896   3.992  0.8693  0.6765  2.1659
 6053SOL    HW323985   6.445   2.748   4.008  1.3378  0.4595  1.0594
 6053SOL    MW423986   6.422   2.831   4.020 -0.2407  0.4047 -0.1906
 6054SOL     OW23987   1.945   2.849   1.845 -0.0300 -0.3954 -0.0551
 6054SOL    HW223988   1.889   2.923   1.823 -1.0780 -1.6399 -1.7805
 6054SOL    HW323989   1.888   2.773   1.835  0.9457 -1.4536  1.9191
 6054SOL    MW423990   1.930   2.849   1.841 -0.0376  0.2240  0.2861
 6055SOL     OW23991   2.577   3.872   2.024  0.0634 -0.0602 -0.1374
 6055SOL    HW223992   2.551   3.832   2.107  0.8057  1.2365  0.7544
 6055SOL    HW323993   2.584   3.966   2.044 -0.4162  0.3747 -1.8452
 6055SOL    MW423994   2.574   3.879   2.038 -0.6314 -0.3409 -0.0834
 6056SOL     OW23995   3.682   5.895   1.819 -0.3816  0.3339 -0.0455
 6056SOL    HW223996   3.637   5.862   1.742  0.1859  0.4005 -0.4075
 6056SOL    HW323997   3.739   5.965   1.787 -0.3844  0.5889  0.4790
 6056SOL    MW423998   3.684   5.900   1.805  0.0142 -0.1931 -0.3754
 6057SOL     OW23999   4.113   0.504   0.811  0.2077 -0.1847  0.8540
 6057SOL    HW224000   4.049   0.455   0.862  0.2027 -0.1882  0.8443
 6057SOL    HW324001   4.169   0.437   0.771 -0.5194 -0.2313 -0.1197
 6057SOL    MW424002   4.112   0.489   0.813  0.0761  0.4314 -0.0548
 6058SOL     OW24003   0.957   5.489   2.780  0.0940  0.0798 -0.1741
 6058SOL    HW224004   1.013   5.498   2.857  0.6122 -0.3373 -0.4958
 6058SOL    HW324005   0.970   5.398   2.751  0.3972  0.4120 -1.1240
 6058SOL    MW424006   0.966   5.478   2.786  0.0216  0.4765  0.4890
 6059SOL     OW24007   1.075   4.733   4.164  0.2471  0.1446 -0.0405
 6059SOL    HW224008   1.121   4.698   4.241  1.1237 -1.9596 -1.4259
 6059SOL    HW324009   1.094   4.671   4.094 -0.3969  2.0446 -2.0365
 6059SOL    MW424010   1.084   4.720   4.165 -0.2253 -0.4090 -0.0068
 6060SOL     OW24011   6.162   5.577   1.901  0.2123  0.0941  0.1902
 6060SOL    HW224012   6.165   5.612   1.990  2.4268  2.1476 -0.5779
 6060SOL    HW324013   6.250   5.593   1.866 -0.3089 -1.5031 -2.0680
 6060SOL    MW424014   6.174   5.584   1.908 -0.0581 -0.3605  0.2805
 6061SOL     OW24015   1.669   2.673   4.074 -0.3910  0.0773 -0.6707
 6061SOL    HW224016   1.695   2.707   4.160  0.3328  1.0471 -1.2598
 6061SOL    HW324017   1.588   2.720   4.054  0.0347  0.6844 -1.0030
 6061SOL    MW424018   1.661   2.683   4.083 -0.1187 -0.4865 -0.2901
 6062SOL     OW24019   2.476   3.421   3.165 -0.4041 -0.1745 -0.3973
 6062SOL    HW224020   2.385   3.430   3.194  0.2443 -0.9055  2.1139
 6062SOL    HW324021   2.507   3.342   3.210  1.6434  0.4097 -0.7190
 6062SOL    MW424022   2.468   3.412   3.175  0.0453  0.3257  0.3151
 6063SOL     OW24023   3.604   5.326   4.551  0.0935  0.9147 -0.0056
 6063SOL    HW224024   3.661   5.292   4.482 -0.8803 -2.1545  0.5172
 6063SOL    HW324025   3.543   5.384   4.506 -0.0276 -0.4025 -1.6519
 6063SOL    MW424026   3.603   5.329   4.536  0.0183  0.6984  0.3966
 6064SOL     OW24027   2.136   3.823   2.080  0.3552 -0.0528  0.0587
 6064SOL    HW224028   2.185   3.875   2.016  0.4442  0.4540  0.5357
 6064SOL    HW324029   2.073   3.774   2.028 -0.7055  1.5971 -0.2798
 6064SOL    MW424030   2.134   3.823   2.065 -0.3692 -0.3389  0.0182
 6065SOL     OW24031   5.388   5.121   2.574  0.0098 -0.0017  0.5554
 6065SOL    HW224032   5.310   5.155   2.618 -0.1774 -0.0797  0.2883
 6065SOL    HW324033   5.362   5.114   2.482 -0.3639 -2.0351  0.7747
 6065SOL    MW424034   5.374   5.125   2.568  0.4403  0.0111 -0.6394
 6066SOL     OW24035   1.729   6.241   3.955 -0.1978 -0.5778 -0.7648
 6066SOL    HW224036   1.775   6.248   3.871  1.5948 -3.9863 -0.2171
 6066SOL    HW324037   1.791   6.273   4.020 -0.0483 -1.5821 -0.3969
 6066SOL    MW424038   1.743   6.246   3.952 -0.0448  0.0386  0.1172
 6067SOL     OW24039   3.138   1.591   6.350 -0.6337 -0.2339  0.2716
 6067SOL    HW224040   3.164   1.582   6.258 -2.1059 -3.0021 -0.0073
 6067SOL    HW324041   3.202   1.540   6.398 -1.2640 -0.8865  0.4436
 6067SOL    MW424042   3.150   1.583   6.344  0.2629 -0.1320 -0.5142
 6068SOL     OW24043   3.283   1.593   0.723  0.4455  0.0414  0.4421
 6068SOL    HW224044   3.208   1.644   0.693 -0.5361 -0.9080  1.1834
 6068SOL    HW324045   3.257   1.562   0.810  2.2562  0.8247  1.3258
 6068SOL    MW424046   3.269   1.595   0.731  0.4258 -0.2026  0.2464
 6069SOL     OW24047   4.957   5.788   1.534 -0.1324  0.2250 -0.1230
 6069SOL    HW224048   4.978   5.708   1.486 -0.0273  0.1365  0.0696
 6069SOL    HW324049   4.990   5.859   1.479 -0.2086  0.1348 -0.2844
 6069SOL    MW424050   4.964   5.787   1.521  0.3648 -0.1098  0.4319
 6070SOL     OW24051   0.650   4.342   3.014 -0.2019  0.6506  0.5097
 6070SOL    HW224052   0.628   4.276   2.948  0.6804  0.1659  0.6838
 6070SOL    HW324053   0.584   4.330   3.082 -0.7166  0.7020  0.0211
 6070SOL    MW424054   0.639   4.331   3.014 -0.1033  0.4243  0.5320
 6071SOL     OW24055   4.844   1.477   2.994 -0.3704 -0.5387  0.5187
 6071SOL    HW224056   4.829   1.396   2.946  2.4826 -1.2506  0.6582
 6071SOL    HW324057   4.877   1.448   3.079  0.6303  0.7717  0.5976
 6071SOL    MW424058   4.846   1.463   2.999 -0.5259  0.0482  0.2031
 6072SOL     OW24059   3.493   5.976   2.143  0.3843  0.4169 -0.2361
 6072SOL    HW224060   3.443   6.016   2.214  2.3731  1.2628  0.7661
 6072SOL    HW324061   3.519   5.890   2.178  1.3385  0.8219  0.0940
 6072SOL    MW424062   3.490   5.970   2.157  0.2991 -0.0281  0.2911
 6073SOL     OW24063   1.357   5.249   2.824  0.4029 -0.0644 -0.1832
 6073SOL    HW224064   1.326   5.160   2.838 -1.7088  0.8408  1.3410
 6073SOL    HW324065   1.321   5.275   2.740  1.5934 -0.8301 -0.9613
 6073SOL    MW424066   1.348   5.241   2.815  0.3136 -0.1339 -0.1447
 6074SOL     OW24067   6.103   2.202   4.014 -0.1730  0.0782 -0.1528
 6074SOL    HW224068   6.144   2.236   4.094  1.5166 -1.0409 -0.4828
 6074SOL    HW324069   6.067   2.280   3.971  1.5737  1.1693  0.2154
 6074SOL    MW424070   6.104   2.217   4.019 -0.4779 -0.4081 -0.1335
 6075SOL     OW24071   2.514   2.264   3.662  0.5101  0.3205  0.1430
 6075SOL    HW224072   2.466   2.188   3.696  0.7471  0.7237  1.4297
 6075SOL    HW324073   2.447   2.320   3.623 -0.3028  1.3721  2.8113
 6075SOL    MW424074   2.499   2.261   3.662 -0.2048  0.3201 -0.1285
 6076SOL     OW24075   3.364   4.628   1.543 -0.1949 -0.3111 -0.0073
 6076SOL    HW224076   3.438   4.589   1.591  0.0336  0.1953  0.0597
 6076SOL    HW324077   3.298   4.559   1.542  0.7610 -1.2668 -1.2314
 6076SOL    MW424078   3.365   4.614   1.550  0.6704 -0.1572 -0.0902
 6077SOL     OW24079   3.359   1.096   2.074 -0.3204 -0.0725  0.4322
 6077SOL    HW224080   3.344   1.179   2.029 -0.7473  0.7460  2.0018
 6077SOL    HW324081   3.327   1.111   2.163 -1.5156 -2.3137  0.4444
 6077SOL    MW424082   3.353   1.109   2.080  0.9858  0.8297 -0.3332
 6078SOL     OW24083   2.624   3.271   1.171  0.2852 -0.5476  0.0145
 6078SOL    HW224084   2.621   3.268   1.266  1.1240 -2.2306  0.0287
 6078SOL    HW324085   2.533   3.257   1.143  0.2337 -1.3652  0.5691
 6078SOL    MW424086   2.612   3.269   1.180 -0.2911 -0.1497  0.2715
 6079SOL     OW24087   3.589   3.551   4.151  0.1810 -0.0105 -0.0116
 6079SOL    HW224088   3.611   3.464   4.183 -2.1233 -0.9079 -0.6513
 6079SOL    HW324089   3.501   3.568   4.184  0.4839  2.0072 -0.0877
 6079SOL    MW424090   3.580   3.542   4.159 -0.0169  0.4177  0.5121
 6080SOL     OW24091   0.326   4.167   3.011  0.1583  0.3536  0.5789
 6080SOL    HW224092   0.359   4.140   2.925  0.1332  1.1987  0.2835
 6080SOL    HW324093   0.318   4.086   3.061  1.8472  0.0123  0.3750
 6080SOL    MW424094   0.329   4.153   3.006  0.1781  0.0102 -0.0212
 6081SOL     OW24095   6.011   2.950   2.152  0.0228 -0.1153  0.0203
 6081SOL    HW224096   5.932   2.983   2.194  0.9089 -0.7145  2.2980
 6081SOL    HW324097   6.012   2.857   2.171 -0.3006 -0.7720 -2.7393
 6081SOL    MW424098   6.001   2.942   2.160 -0.2289  0.3678  0.5630
 6082SOL     OW24099   5.013   3.122   3.130  0.2864 -0.0954 -0.7710
 6082SOL    HW224100   5.059   3.184   3.187  1.2674 -0.7674 -0.8075
 6082SOL    HW324101   5.040   3.145   3.042 -0.0150 -0.0469 -0.8535
 6082SOL    MW424102   5.022   3.133   3.126 -0.7016  0.1445  0.1774
 6083SOL     OW24103   3.790   3.013   3.319  0.2550  0.2883 -0.1195
 6083SOL    HW224104   3.798   2.926   3.359 -0.6035 -0.0948 -0.7339
 6083SOL    HW324105   3.872   3.025   3.271  0.9915  0.4485  1.1372
 6083SOL    MW424106   3.802   3.003   3.318 -0.0373  0.6278 -0.3031
 6084SOL     OW24107   3.614   3.886   5.925 -0.7527 -0.3140 -0.1841
 6084SOL    HW224108   3.662   3.964   5.897  0.8901  0.3735  3.8437
 6084SOL    HW324109   3.671   3.813   5.899  0.1807  0.2042  0.3448
 6084SOL    MW424110   3.628   3.886   5.918  0.3124  0.3577 -0.1876
 6085SOL     OW24111   6.026   4.417   3.037 -0.1061 -0.4212  0.1556
 6085SOL    HW224112   6.062   4.437   3.124  0.1379  0.0727 -0.0542
 6085SOL    HW324113   6.099   4.379   2.989  0.4326  1.4392 -0.5721
 6085SOL    MW424114   6.040   4.415   3.042  0.1821 -0.4530 -0.0491
 6086SOL     OW24115   5.438   0.356   1.889 -0.4798  0.0996  0.3558
 6086SOL    HW224116   5.384   0.285   1.855 -0.6604 -1.3952  3.4462
 6086SOL    HW324117   5.523   0.343   1.847 -0.7533 -1.4392  0.2116
 6086SOL    MW424118   5.442   0.345   1.879  0.0757 -0.4623 -0.1579
 6087SOL     OW24119   4.689   1.960   2.231  0.0651  0.3230 -0.4148
 6087SOL    HW224120   4.601   1.943   2.197  0.0602  0.2840 -0.3831
 6087SOL    HW324121   4.720   2.036   2.182 -0.4065  0.9940  0.2987
 6087SOL    MW424122   4.681   1.968   2.220  0.4230 -0.5513 -0.1861
 6088SOL     OW24123   0.376   0.296   1.484  0.2005 -0.2422 -0.4378
 6088SOL    HW224124   0.311   0.287   1.554 -0.3588  0.8501 -0.7805
 6088SOL    HW324125   0.452   0.246   1.514 -0.3651 -0.5348  0.5298
 6088SOL    MW424126   0.378   0.289   1.497  0.2985 -0.3161  0.1404
 6089SOL     OW24127   6.099   5.232   5.661 -0.3099  0.1099 -0.2302
 6089SOL    HW224128   6.172   5.220   5.722 -0.7390 -0.4103  0.2016
 6089SOL    HW324129   6.139   5.237   5.575  0.2940  0.6059  0.0761
 6089SOL    MW424130   6.114   5.231   5.658 -0.1811  0.1807 -0.2131
 6090SOL     OW24131   4.380   0.248   6.069 -0.1670 -0.1950 -0.8423
 6090SOL    HW224132   4.344   0.334   6.050 -0.4916  0.0719  0.7960
 6090SOL    HW324133   4.308   0.201   6.112 -0.2274 -1.5478 -2.3210
 6090SOL    MW424134   4.365   0.253   6.072  0.1648 -0.0947 -0.3059
 6091SOL     OW24135   3.249   3.033   0.584 -0.1944 -0.1410 -0.8460
 6091SOL    HW224136   3.156   3.057   0.590 -0.1058 -0.1291  0.9473
 6091SOL    HW324137   3.250   2.937   0.583 -0.2062 -0.1507 -0.2110
 6091SOL    MW424138   3.237   3.024   0.585 -0.2863  0.2658  0.5991
 6092SOL     OW24139   1.262   1.207   4.422  0.2848 -0.0602 -0.4793
 6092SOL    HW224140   1.354   1.198   4.446  0.2501  0.1373 -0.2676
 6092SOL    HW324141   1.243   1.300   4.434  0.1138 -0.0641 -0.7240
 6092SOL    MW424142   1.272   1.218   4.427 -0.2341 -0.3208  0.0701
 6093SOL     OW24143   0.691   1.486   3.008 -0.2838 -0.1945  0.5008
 6093SOL    HW224144   0.735   1.492   2.923 -1.1646  1.2388  0.1102
 6093SOL    HW324145   0.626   1.556   3.006 -0.3029 -0.1192  2.3760
 6093SOL    MW424146   0.688   1.496   2.997  0.3018  0.2563 -0.1060
 6094SOL     OW24147   1.881   3.242   2.566 -0.2720 -0.2106 -0.3837
 6094SOL    HW224148   1.821   3.271   2.497  1.2313  0.1295 -1.6181
 6094SOL    HW324149   1.963   3.289   2.548  0.2753 -0.4019  1.4341
 6094SOL    MW424150   1.884   3.252   2.554 -0.6141 -0.0623  0.0407
 6095SOL     OW24151   0.828   0.965   1.941  0.0971 -0.2766  0.5157
 6095SOL    HW224152   0.865   0.898   1.999  0.3400  0.8088  1.6608
 6095SOL    HW324153   0.808   1.039   1.999 -1.3346  0.1948 -0.5106
 6095SOL    MW424154   0.830   0.966   1.956 -0.0010  0.0105 -0.7143
 6096SOL     OW24155   5.182   1.776   2.841  0.2142 -0.2158  0.0129
 6096SOL    HW224156   5.238   1.702   2.817 -2.0667 -1.7821 -0.8293
 6096SOL    HW324157   5.133   1.746   2.917  0.2883  1.0063  0.5718
 6096SOL    MW424158   5.183   1.762   2.848  0.4877 -0.0832  0.2469
 6097SOL     OW24159   4.817   2.062   4.304  0.4181  0.3287 -0.2538
 6097SOL    HW224160   4.861   2.027   4.227 -1.0688  0.8435 -1.3750
 6097SOL    HW324161   4.725   2.069   4.278  0.1340  1.9484  1.0431
 6097SOL    MW424162   4.811   2.059   4.290  0.6194  0.5641  0.1312
 6098SOL     OW24163   1.680   2.025   4.367  0.1596 -0.3278  0.1575
 6098SOL    HW224164   1.654   1.996   4.455 -0.1987 -1.1853 -0.2203
 6098SOL    HW324165   1.681   2.120   4.373  1.8055 -0.3635  1.5679
 6098SOL    MW424166   1.677   2.033   4.379  0.3474 -0.5415 -0.3915
 6099SOL     OW24167   0.893   3.711   2.214 -0.0712  0.2288  0.1536
 6099SOL    HW224168   0.963   3.690   2.275 -1.0099  1.2547  1.6445
 6099SOL    HW324169   0.936   3.717   2.129  1.6198  0.6849  1.0003
 6099SOL    MW424170   0.908   3.709   2.211  0.2901  0.4602  0.1515
 6100SOL     OW24171   3.395   0.141   3.406 -0.6508  0.2861 -0.1609
 6100SOL    HW224172   3.355   0.228   3.407 -0.3616  0.4155  0.5916
 6100SOL    HW324173   3.370   0.104   3.321  0.9218  1.9008 -1.4280
 6100SOL    MW424174   3.387   0.148   3.395  0.0579  0.2494  0.8958
 6101SOL     OW24175   4.841   1.731   0.530 -0.0888 -0.4300 -0.0047
 6101SOL    HW224176   4.863   1.733   0.623  1.1187 -1.2504 -0.2411
 6101SOL    HW324177   4.922   1.757   0.486 -0.6677  0.0214 -0.8357
 6101SOL    MW424178   4.855   1.735   0.536  0.0038  0.2191 -0.3591
 6102SOL     OW24179   5.392   6.021   1.346 -0.1855 -0.2890 -0.2792
 6102SOL    HW224180   5.388   5.995   1.439 -1.3657  0.5925 -0.0507
 6102SOL    HW324181   5.397   6.116   1.349 -1.6239 -0.1631 -1.1174
 6102SOL    MW424182   5.392   6.030   1.359  0.7640  0.9985 -0.3021
 6103SOL     OW24183   2.663   6.062   2.953 -0.5178  0.1402  0.0359
 6103SOL    HW224184   2.576   6.034   2.981  0.8334 -1.8105  2.6912
 6103SOL    HW324185   2.662   6.054   2.857 -3.7311  1.9010 -0.1993
 6103SOL    MW424186   2.652   6.058   2.944  0.3514  0.3113 -0.2540
 6104SOL     OW24187   2.907   2.538   0.502 -0.1838 -0.2847 -0.5596
 6104SOL    HW224188   2.957   2.619   0.489  1.8455 -1.1708  1.1357
 6104SOL    HW324189   2.817   2.567   0.514  0.2223  1.5627 -1.5921
 6104SOL    MW424190   2.902   2.553   0.502 -0.1168  0.7865  0.3783
 6105SOL     OW24191   1.435   4.039   2.852 -0.6486 -0.2479  0.5582
 6105SOL    HW224192   1.519   4.006   2.885 -0.1534  1.4976  1.2020
 6105SOL    HW324193   1.433   4.130   2.881 -2.3448  0.0234 -0.2951
 6105SOL    MW424194   1.446   4.047   2.860  0.2670  0.0904  0.3293
 6106SOL     OW24195   5.438   5.401   3.121 -0.2367 -0.2645  0.6675
 6106SOL    HW224196   5.392   5.349   3.188 -0.1247 -1.0900  0.1180
 6106SOL    HW324197   5.436   5.490   3.155 -0.4970 -0.6126  1.6044
 6106SOL    MW424198   5.432   5.406   3.135  0.3610 -0.7696  0.4177
 6107SOL     OW24199   5.460   2.995   0.771 -0.3575 -0.6102  0.0039
 6107SOL    HW224200   5.441   2.970   0.861  0.2771  0.2560  0.3878
 6107SOL    HW324201   5.503   2.919   0.733 -2.2226 -1.6617 -0.1273
 6107SOL    MW424202   5.463   2.982   0.778 -0.0128  0.0231 -0.6490
 6108SOL     OW24203   5.189   0.323   2.564  0.1838  0.3789 -0.4379
 6108SOL    HW224204   5.171   0.403   2.515  1.9003  1.7635  1.0697
 6108SOL    HW324205   5.207   0.257   2.496  1.6804  2.0198 -1.7113
 6108SOL    MW424206   5.189   0.325   2.549  0.3038 -0.3749  0.1163
 6109SOL     OW24207   0.885   0.080   0.261  0.6288  0.0281 -0.2754
 6109SOL    HW224208   0.855  -0.001   0.220  1.3686  0.7424 -2.3184
 6109SOL    HW324209   0.830   0.148   0.225 -0.6788  0.4094  2.1992
 6109SOL    MW424210   0.874   0.078   0.251  0.4153 -0.0027 -0.8194
 6110SOL     OW24211   5.411   2.868   0.338 -0.0379 -0.7078  0.1257
 6110SOL    HW224212   5.448   2.790   0.381  1.3641  0.9224  2.0467
 6110SOL    HW324213   5.320   2.871   0.369 -0.1924 -1.7140 -0.1914
 6110SOL    MW424214   5.404   2.858   0.348  0.1402  0.2121 -0.2214
 6111SOL     OW24215   6.180   4.946   3.592 -0.3728  0.6639  0.3213
 6111SOL    HW224216   6.127   4.924   3.669 -1.6019 -1.5228 -1.0573
 6111SOL    HW324217   6.118   4.943   3.519  1.1869  0.5381 -1.0429
 6111SOL    MW424218   6.165   4.943   3.593 -0.0862 -0.2039 -0.0654
 6112SOL     OW24219   3.724   3.554   0.343  0.0486 -0.2727 -0.3217
 6112SOL    HW224220   3.806   3.509   0.324  0.3991  0.4278 -0.5083
 6112SOL    HW324221   3.656   3.496   0.308  0.4704 -0.7865 -0.2991
 6112SOL    MW424222   3.726   3.540   0.336 -0.2470  0.1320  0.1564
 6113SOL     OW24223   0.420   3.820   4.169  0.1504 -0.1053 -0.3834
 6113SOL    HW224224   0.395   3.895   4.115 -1.1420 -0.0416  0.2695
 6113SOL    HW324225   0.402   3.847   4.258 -1.8230 -1.7013 -0.2300
 6113SOL    MW424226   0.414   3.834   4.173 -0.6519  0.0809  0.3499
 6114SOL     OW24227   0.530   0.023   4.726  0.0669  0.5110 -0.4440
 6114SOL    HW224228   0.496  -0.036   4.794  0.5135  0.8792  0.1056
 6114SOL    HW324229   0.495  -0.013   4.644  2.6822 -2.3118 -0.5154
 6114SOL    MW424230   0.521   0.010   4.724  0.0941 -0.0607  0.1653
 6115SOL     OW24231  -0.001   1.963   3.697 -0.5945  0.4586 -0.2798
 6115SOL    HW224232   0.009   2.051   3.734 -1.6900 -0.2691  1.9369
 6115SOL    HW324233   0.080   1.948   3.648 -0.5079  2.7737 -0.9339
 6115SOL    MW424234   0.011   1.972   3.696  0.2608  0.1145 -0.2843
 6116SOL     OW24235   1.824   1.401   2.410  0.5800 -0.3413 -0.4357
 6116SOL    HW224236   1.906   1.358   2.432 -0.2070 -1.2688  0.8409
 6116SOL    HW324237   1.813   1.469   2.477  0.4774  0.0137 -0.8102
 6116SOL    MW424238   1.833   1.404   2.422 -0.4168 -0.5296  0.0002
 6117SOL     OW24239   5.559   5.375   4.311  0.2295  0.0261 -0.3331
 6117SOL    HW224240   5.576   5.353   4.402 -0.3986 -0.6326 -0.3688
 6117SOL    HW324241   5.623   5.324   4.261 -1.3329 -1.9585 -0.4271
 6117SOL    MW424242   5.570   5.365   4.316  0.5329  0.5382  0.2875
 6118SOL     OW24243   3.252   1.149   2.325 -0.2240 -0.0513 -0.0318
 6118SOL    HW224244   3.282   1.239   2.332  1.1968 -0.4506 -0.6362
 6118SOL    HW324245   3.300   1.102   2.393  0.5772 -0.6965 -1.0039
 6118SOL    MW424246   3.262   1.154   2.335  0.0290 -0.3031  0.1116
 6119SOL     OW24247   2.681   6.257   4.214  0.1843 -0.2725  0.5392
 6119SOL    HW224248   2.759   6.224   4.170 -1.1331 -0.2255 -2.0852
 6119SOL    HW324249   2.624   6.181   4.221 -0.5594  0.2009 -0.1115
 6119SOL    MW424250   2.684   6.243   4.209 -0.4863 -0.5177  0.1549
 6120SOL     OW24251   4.811   1.268   0.808  0.0724 -0.7036 -0.8376
 6120SOL    HW224252   4.789   1.278   0.715 -0.7915  0.4180 -0.5395
 6120SOL    HW324253   4.865   1.345   0.827  0.0274 -0.7903 -0.3616
 6120SOL    MW424254   4.815   1.280   0.798  0.1165 -0.1140 -0.0580
 6121SOL     OW24255   5.506   4.450   0.918 -0.5133 -0.3207 -0.2533
 6121SOL    HW224256   5.451   4.378   0.885 -1.9081  0.0310  1.1584
 6121SOL    HW324257   5.487   4.454   1.012  0.9311  0.7210  0.0333
 6121SOL    MW424258   5.496   4.441   0.926  0.5843 -0.2287 -0.2977
 6122SOL     OW24259   2.778   5.844   4.089  0.3632  0.6051 -0.2350
 6122SOL    HW224260   2.833   5.772   4.058  0.2597 -0.2593  1.4679
 6122SOL    HW324261   2.839   5.908   4.125  0.3451  0.3219  0.3085
 6122SOL    MW424262   2.793   5.843   4.090  0.4211  0.3694 -0.4737
 6123SOL     OW24263   1.801   3.378   2.889  0.5602 -0.2025 -0.6164
 6123SOL    HW224264   1.823   3.388   2.797  2.1910 -2.7029 -0.6044
 6123SOL    HW324265   1.885   3.374   2.934 -0.1786 -0.1090  0.8452
 6123SOL    MW424266   1.815   3.378   2.883  0.0007 -0.5650  0.4090
 6124SOL     OW24267   5.899   4.981   2.780 -0.4229  0.1343 -0.1009
 6124SOL    HW224268   5.893   5.076   2.769 -2.7364 -0.1913 -2.7461
 6124SOL    HW324269   5.817   4.956   2.823 -1.0432 -0.8438 -1.7486
 6124SOL    MW424270   5.888   4.990   2.784 -0.5763 -0.4716 -0.0085
 6125SOL     OW24271   1.673   0.758   3.265 -0.1621 -0.2518 -0.4696
 6125SOL    HW224272   1.588   0.714   3.273 -0.9124  1.3980  1.9204
 6125SOL    HW324273   1.733   0.690   3.236 -1.4028 -2.6997  2.1768
 6125SOL    MW424274   1.670   0.743   3.262  0.0726 -0.0023  0.6534
 6126SOL     OW24275   2.451   1.116   5.024  0.3790 -0.0373 -0.2493
 6126SOL    HW224276   2.501   1.048   4.979 -2.3101 -2.3421 -0.0249
 6126SOL    HW324277   2.428   1.179   4.956  2.2934  0.3148 -0.6118
 6126SOL    MW424278   2.454   1.116   5.009  0.2856 -0.4962 -0.0751
 6127SOL     OW24279   4.129   5.744   0.859  0.1658  0.4471  0.2717
 6127SOL    HW224280   4.120   5.799   0.781  0.7720  0.8320  0.4662
 6127SOL    HW324281   4.204   5.687   0.841  0.1949  0.4098  0.4971
 6127SOL    MW424282   4.138   5.744   0.847  0.4084 -0.4668  0.1623
 6128SOL     OW24283   0.043   6.367   0.039  0.3197  0.0377 -0.0237
 6128SOL    HW224284   0.046   6.272   0.050  0.2966 -0.1098 -1.1430
 6128SOL    HW324285   0.027   6.401   0.127 -0.2064 -1.0184  0.3099
 6128SOL    MW424286   0.041   6.359   0.052 -0.3135  0.0090  0.0333
 6129SOL     OW24287   2.655   0.585   6.220  1.0431  0.5712  0.2567
 6129SOL    HW224288   2.578   0.612   6.170  1.2646  0.2657 -0.2587
 6129SOL    HW324289   2.680   0.500   6.182  1.1951  0.3157  0.9097
 6129SOL    MW424290   2.648   0.577   6.208 -0.2437 -0.0885  0.5031
 6130SOL     OW24291   0.053   0.076   0.886 -0.3212  0.4550 -0.4812
 6130SOL    HW224292   0.054   0.161   0.929 -1.6469  0.7593 -0.9939
 6130SOL    HW324293   0.139   0.038   0.904  0.1301  1.7198  0.1047
 6130SOL    MW424294   0.064   0.082   0.894  0.5932  0.0195 -0.5411
 6131SOL     OW24295   3.317   0.652   3.574  0.4582  0.4126 -0.2691
 6131SOL    HW224296   3.231   0.626   3.607  0.8427 -0.8825 -0.2361
 6131SOL    HW324297   3.357   0.701   3.646  1.1413 -2.0371  1.1143
 6131SOL    MW424298   3.311   0.655   3.588 -0.0896  0.0815  0.1114
 6132SOL     OW24299   1.166   2.611   3.631 -0.0426  0.1068 -0.5659
 6132SOL    HW224300   1.117   2.693   3.633  1.1771  0.8646  0.2372
 6132SOL    HW324301   1.253   2.636   3.599  0.4995 -0.7652  0.1457
 6132SOL    MW424302   1.171   2.625   3.627 -0.0810  0.2187 -0.0610
 6133SOL     OW24303   0.231   1.413   0.160  0.5345  0.7288 -0.3713
 6133SOL    HW224304   0.300   1.360   0.202 -0.0213  0.5479  0.3317
 6133SOL    HW324305   0.151   1.386   0.205 -0.2302 -0.1463 -2.1834
 6133SOL    MW424306   0.230   1.402   0.172  0.5213 -0.4581  0.1522
 6134SOL     OW24307   2.612   2.440   3.868 -0.5009 -0.5233  0.3768
 6134SOL    HW224308   2.579   2.375   3.805  1.5600 -1.6365  0.3627
 6134SOL    HW324309   2.673   2.493   3.817  2.1490 -2.2124  1.5735
 6134SOL    MW424310   2.616   2.438   3.853  0.2474 -1.0076  0.2371
 6135SOL     OW24311   4.329   2.334   3.553  0.3031  0.1101 -0.2926
 6135SOL    HW224312   4.407   2.309   3.602  0.5034 -0.6793 -0.9883
 6135SOL    HW324313   4.361   2.354   3.465 -0.3407 -0.9402 -0.7969
 6135SOL    MW424314   4.344   2.333   3.548  0.4493  0.0868 -0.2031
 6136SOL     OW24315   3.376   6.201   2.353  0.0300  0.0235 -0.1945
 6136SOL    HW224316   3.371   6.293   2.378 -1.5425 -0.3382  0.9473
 6136SOL    HW324317   3.453   6.168   2.399 -1.0497  0.1101  1.7494
 6136SOL    MW424318   3.386   6.209   2.362  0.9941  0.4743 -0.4392
 6137SOL     OW24319   5.525   2.811   1.607 -0.7969 -0.5993  0.1066
 6137SOL    HW224320   5.555   2.826   1.696 -2.0178 -2.5542  0.9192
 6137SOL    HW324321   5.588   2.857   1.551 -0.7662  1.8243  1.9872
 6137SOL    MW424322   5.537   2.819   1.611 -0.3445  0.3506 -0.8500
 6138SOL     OW24323   4.087   3.083   3.889 -0.3838 -0.1988 -0.2939
 6138SOL    HW224324   4.156   3.146   3.868 -0.2917 -0.5528 -1.0874
 6138SOL    HW324325   4.075   3.034   3.808  0.3219 -1.9640  0.6326
 6138SOL    MW424326   4.094   3.085   3.876  0.1392  0.1132  0.0165
 6139SOL     OW24327   6.365   5.722   5.888  0.0927  0.1775  0.5721
 6139SOL    HW224328   6.414   5.765   5.958  1.4486 -2.3317  1.2696
 6139SOL    HW324329   6.273   5.736   5.911  0.4249 -2.1587  4.0416
 6139SOL    MW424330   6.359   5.729   5.900 -0.3586  0.2017 -0.0646
 6140SOL     OW24331   5.824   5.356   0.130  0.0922  0.4746 -0.1303
 6140SOL    HW224332   5.907   5.386   0.094 -0.5497 -1.9150 -4.2822
 6140SOL    HW324333   5.831   5.261   0.130 -2.2502  0.2418  0.4515
 6140SOL    MW424334   5.836   5.347   0.125 -0.2423  0.6670  0.0795
 6141SOL     OW24335   2.283   0.461   2.025  0.1274 -0.3786  0.2985
 6141SOL    HW224336   2.332   0.496   1.950  1.1450 -0.2855  0.9809
 6141SOL    HW324337   2.304   0.368   2.026 -0.7812 -0.6028 -0.1763
 6141SOL    MW424338   2.292   0.454   2.015  0.2309  0.0244 -0.1450
 6142SOL     OW24339   3.633   3.107   2.531  0.6612  0.0576 -0.1867
 6142SOL    HW224340   3.650   3.202   2.536 -1.4087  0.4406  0.4491
 6142SOL    HW324341   3.720   3.067   2.543  1.4709  1.8529  0.3730
 6142SOL    MW424342   3.647   3.115   2.533  0.2674 -0.0710  0.1305
 6143SOL     OW24343   1.640   0.835   1.984  0.2439  0.2148  0.0652
 6143SOL    HW224344   1.571   0.894   2.014  1.0284  0.0944  2.2883
 6143SOL    HW324345   1.694   0.820   2.062  2.8333  0.3600 -1.5813
 6143SOL    MW424346   1.638   0.841   1.999 -0.0473  0.3123 -0.4940
 6144SOL     OW24347   4.162   3.129   5.331  0.3081  0.4597  0.5015
 6144SOL    HW224348   4.135   3.067   5.399 -2.1843  1.3625  0.4538
 6144SOL    HW324349   4.171   3.212   5.376 -0.7632  0.9405 -0.1236
 6144SOL    MW424350   4.159   3.132   5.346  0.0934 -0.3371  0.5945
 6145SOL     OW24351   3.901   2.305   3.940 -0.6078 -0.1703  0.0560
 6145SOL    HW224352   3.923   2.308   3.847  2.1117 -1.7954  0.5361
 6145SOL    HW324353   3.972   2.255   3.980 -2.7753 -1.4347  2.7069
 6145SOL    MW424354   3.913   2.299   3.933 -0.2665  0.0760 -0.2386
 6146SOL     OW24355   5.448   0.337   1.255  0.1390  0.0782  0.5162
 6146SOL    HW224356   5.497   0.406   1.210 -2.0277  1.1685 -0.3742
 6146SOL    HW324357   5.421   0.277   1.185 -2.3541  1.2116  0.3783
 6146SOL    MW424358   5.451   0.338   1.239 -0.3359 -0.3007  0.0074
 6147SOL     OW24359   4.105   2.457   5.611  0.6414 -0.7285  0.1647
 6147SOL    HW224360   4.079   2.528   5.552 -0.0864  0.6407  2.0357
 6147SOL    HW324361   4.193   2.432   5.582  0.8827  0.9011 -0.5880
 6147SOL    MW424362   4.114   2.463   5.600  0.5822  0.0025  0.1245
 6148SOL     OW24363   1.786   0.965   5.105 -0.4686  0.1921 -0.5765
 6148SOL    HW224364   1.801   1.049   5.061  0.7462  1.1139  1.4326
 6148SOL    HW324365   1.698   0.972   5.142 -0.6330  0.3079 -0.9874
 6148SOL    MW424366   1.777   0.977   5.104  0.5920  0.1312 -0.2441
 6149SOL     OW24367   3.787   3.405   5.668  0.3310  0.6359  0.1229
 6149SOL    HW224368   3.881   3.389   5.672  0.5428  1.9699  1.3139
 6149SOL    HW324369   3.751   3.358   5.743 -0.2984 -1.6292 -1.4946
 6149SOL    MW424370   3.795   3.397   5.678  0.6386 -0.3477 -0.7493
 6150SOL     OW24371   2.682   0.055   5.933  0.3403 -0.0920 -0.1657
 6150SOL    HW224372   2.750   0.033   5.997 -0.8127 -1.3835  0.6786
 6150SOL    HW324373   2.679  -0.020   5.874 -0.4445 -0.1154 -0.1055
 6150SOL    MW424374   2.691   0.042   5.934  0.1127 -0.4463  0.0286
 6151SOL     OW24375   0.225   3.064   5.379  0.4014  0.3607  0.7408
 6151SOL    HW224376   0.311   3.049   5.341 -0.2205  0.2737 -0.7028
 6151SOL    HW324377   0.217   2.999   5.448  1.3514  0.1460  0.6570
 6151SOL    MW424378   0.235   3.054   5.383  0.2309  0.3259 -0.0927
 6152SOL     OW24379   3.457   0.670   1.841 -0.1104 -0.5125 -0.1332
 6152SOL    HW224380   3.444   0.741   1.904 -0.7140  0.4801 -1.3255
 6152SOL    HW324381   3.422   0.593   1.884  0.6626 -0.1352  1.2471
 6152SOL    MW424382   3.451   0.669   1.855 -0.2202  1.0341 -0.8011
 6153SOL     OW24383   0.161   1.074   0.330  0.5719  0.0163  0.2038
 6153SOL    HW224384   0.125   1.089   0.242 -1.6727 -1.2075  0.8472
 6153SOL    HW324385   0.246   1.033   0.314 -0.7939 -2.4131 -1.4889
 6153SOL    MW424386   0.167   1.071   0.316  0.1191 -0.8039 -0.4337
 6154SOL     OW24387   5.522   0.621   1.673 -0.2003 -0.3254 -0.8328
 6154SOL    HW224388   5.523   0.575   1.757  0.8814 -0.3294 -0.8359
 6154SOL    HW324389   5.432   0.613   1.642 -0.9156  0.6528  0.8667
 6154SOL    MW424390   5.510   0.614   1.680  0.5118 -0.3751 -0.3198
 6155SOL     OW24391   5.850   2.253   5.776 -0.1551 -0.7176 -0.0405
 6155SOL    HW224392   5.808   2.190   5.835  1.5346 -1.3143  0.5830
 6155SOL    HW324393   5.808   2.337   5.797 -1.6770 -1.4372 -0.1270
 6155SOL    MW424394   5.839   2.256   5.787  0.5171 -0.3125  0.4086
 6156SOL     OW24395   1.816   2.141   0.483 -0.4769  0.0250  0.0276
 6156SOL    HW224396   1.777   2.152   0.569 -2.3244 -2.6427 -0.3760
 6156SOL    HW324397   1.796   2.223   0.437 -1.4862  0.5686  1.3657
 6156SOL    MW424398   1.809   2.153   0.488 -0.0837  0.2433 -0.0314
 6157SOL     OW24399   0.415   5.662   2.799 -0.0033  0.3134 -0.0632
 6157SOL    HW224400   0.351   5.715   2.751  1.3476  2.0260 -0.0649
 6157SOL    HW324401   0.417   5.702   2.887  0.1020 -0.5679  0.3406
 6157SOL    MW424402   0.407   5.675   2.804 -0.4615  0.1666 -0.8735
 6158SOL     OW24403   4.883   6.297   0.091  0.1091  0.0120 -0.4496
 6158SOL    HW224404   4.964   6.304   0.141  0.4321 -0.1395 -0.9478
 6158SOL    HW324405   4.911   6.282   0.001 -0.4736 -0.1024 -0.6180
 6158SOL    MW424406   4.897   6.296   0.086  0.6375  0.3512 -0.0784
 6159SOL     OW24407   1.643   3.691   4.771 -0.2585  0.2210  0.9647
 6159SOL    HW224408   1.637   3.779   4.807 -0.8201  0.0272  1.3599
 6159SOL    HW324409   1.618   3.633   4.843 -1.5119 -0.1665  0.2488
 6159SOL    MW424410   1.639   3.695   4.785 -0.6389  0.2134 -0.3794
 6160SOL     OW24411   3.665   5.178   6.172 -0.3384 -0.4740  0.2376
 6160SOL    HW224412   3.671   5.102   6.114  0.2366 -0.3049  0.0736
 6160SOL    HW324413   3.755   5.199   6.195 -0.5653 -0.6232  1.3212
 6160SOL    MW424414   3.677   5.171   6.167  0.7377 -0.0992  0.0642
 6161SOL     OW24415   2.522   4.904   3.983  0.2576  0.1816 -0.7143
 6161SOL    HW224416   2.527   4.905   4.078 -0.4376  1.0287 -0.6734
 6161SOL    HW324417   2.471   4.825   3.962  3.0853 -1.8470 -0.5863
 6161SOL    MW424418   2.516   4.894   3.993  0.2813 -0.0741  0.1130
 6162SOL     OW24419   4.100   4.736   4.990 -0.8688 -0.3011  0.2121
 6162SOL    HW224420   4.141   4.794   5.054  0.9163 -0.4231 -0.7495
 6162SOL    HW324421   4.006   4.754   4.997 -0.5929  0.6319  1.8996
 6162SOL    MW424422   4.093   4.746   4.999  0.3207  0.2275 -0.1600
 6163SOL     OW24423   2.454   2.787   3.150 -0.3391 -0.4158  0.6764
 6163SOL    HW224424   2.427   2.817   3.237 -1.9593  0.4863 -0.0958
 6163SOL    HW324425   2.419   2.698   3.143  1.0992 -1.0825  1.4806
 6163SOL    MW424426   2.446   2.779   3.160 -0.4519 -0.2050 -0.5815
 6164SOL     OW24427   1.824   4.201   3.331 -0.0751 -0.0614  0.0059
 6164SOL    HW224428   1.869   4.285   3.327  0.7778 -0.5352 -0.7156
 6164SOL    HW324429   1.774   4.196   3.250 -1.0055  0.2204  0.5542
 6164SOL    MW424430   1.823   4.211   3.320 -0.3858  0.2524 -0.4752
 6165SOL     OW24431   2.691   3.529   3.339  0.2786 -0.4584 -0.7206
 6165SOL    HW224432   2.672   3.512   3.431 -0.6556  1.4647 -0.5203
 6165SOL    HW324433   2.613   3.500   3.292 -0.6949  1.6317 -0.5190
 6165SOL    MW424434   2.678   3.523   3.345 -0.3469 -0.0046 -0.5075
 6166SOL     OW24435   5.249   1.934   2.090 -0.3731 -0.1932 -0.1957
 6166SOL    HW224436   5.306   1.857   2.081  1.8876  1.4870 -1.1174
 6166SOL    HW324437   5.292   1.988   2.156 -1.7100  0.5113  0.1385
 6166SOL    MW424438   5.262   1.931   2.098 -0.5327 -0.4588  0.3445
 6167SOL     OW24439   2.016   6.349   5.744 -0.2908 -0.6295 -0.2197
 6167SOL    HW224440   2.020   6.301   5.661  0.9873 -1.2554  0.1910
 6167SOL    HW324441   2.107   6.353   5.774 -0.5754  0.6958  0.5340
 6167SOL    MW424442   2.028   6.343   5.737 -0.7798 -0.0404  0.6942
 6168SOL     OW24443   3.229   6.153   2.093 -1.1342  0.1163  0.0438
 6168SOL    HW224444   3.281   6.158   2.013 -1.9849  0.3970 -0.4997
 6168SOL    HW324445   3.286   6.189   2.161  1.0426 -3.4097  0.3488
 6168SOL    MW424446   3.244   6.158   2.092  0.2000 -0.1535  0.4471
 6169SOL     OW24447   1.547   1.631   6.036 -0.2250  0.4971 -0.1211
 6169SOL    HW224448   1.493   1.708   6.054  1.1927  1.3885  0.4823
 6169SOL    HW324449   1.615   1.633   6.103 -0.2247 -1.3828 -0.0040
 6169SOL    MW424450   1.549   1.641   6.047  1.1738 -0.1994 -0.4393
 6170SOL     OW24451   5.613   1.037   4.704 -0.1041 -0.0525 -1.2564
 6170SOL    HW224452   5.594   1.104   4.771 -0.6120 -1.5780  0.2054
 6170SOL    HW324453   5.705   1.053   4.681  0.3024  0.1422  0.3112
 6170SOL    MW424454   5.623   1.048   4.710 -0.5668 -0.4117 -0.1363
 6171SOL     OW24455   2.905   2.932   0.729  0.1339 -0.2048  0.0711
 6171SOL    HW224456   2.837   2.928   0.662  1.2446 -1.5146 -1.0538
 6171SOL    HW324457   2.939   3.021   0.723 -1.1418  0.3214  0.3349
 6171SOL    MW424458   2.901   2.943   0.719  0.0680  0.2894 -0.3037
 6172SOL     OW24459   5.183   4.264   4.870  0.2827  0.3299  0.5072
 6172SOL    HW224460   5.208   4.354   4.890  2.8444 -0.0414 -0.4966
 6172SOL    HW324461   5.125   4.271   4.795  1.2792  1.1475 -0.2219
 6172SOL    MW424462   5.179   4.276   4.863  0.1862  0.4092  0.1907
 6173SOL     OW24463   4.349   0.277   4.670  0.5815 -0.0801  0.0436
 6173SOL    HW224464   4.290   0.209   4.703  1.3233  0.3201  2.3619
 6173SOL    HW324465   4.301   0.317   4.598 -0.3780 -2.2387 -0.5985
 6173SOL    MW424466   4.335   0.273   4.665  0.9937  0.2862 -0.3144
 6174SOL     OW24467   2.655   6.203   5.842 -0.0858 -0.1359 -0.0803
 6174SOL    HW224468   2.646   6.122   5.891  1.1817 -0.1485  0.1478
 6174SOL    HW324469   2.623   6.182   5.754  0.6245 -1.0010 -0.1393
 6174SOL    MW424470   2.649   6.190   5.837 -0.1759 -0.2494  0.1405
 6175SOL     OW24471   2.744   4.593   0.655 -0.6941 -0.1090  0.0700
 6175SOL    HW224472   2.705   4.666   0.608 -0.1050 -0.5354 -1.1374
 6175SOL    HW324473   2.748   4.523   0.590 -0.1441 -0.8304  0.8617
 6175SOL    MW424474   2.739   4.593   0.640 -0.2013  0.0657 -0.6396
 6176SOL     OW24475   6.200   5.948   4.260 -0.0381  0.6632 -0.1414
 6176SOL    HW224476   6.261   5.990   4.199  0.6163  0.9318  0.6870
 6176SOL    HW324477   6.152   5.886   4.206  1.0456  0.3655 -0.7907
 6176SOL    MW424478   6.202   5.946   4.245 -0.3517  0.3281 -1.0919
 6177SOL     OW24479   4.663   4.393   1.921  0.5403  0.8450 -0.3286
 6177SOL    HW224480   4.587   4.401   1.979  1.1989  2.6358  0.3250
 6177SOL    HW324481   4.725   4.340   1.970 -0.9461 -2.4014 -1.6515
 6177SOL    MW424482   4.661   4.387   1.935  0.0342  0.0813  0.1891
 6178SOL     OW24483   0.171   2.495   5.237  0.2308  0.0951  0.2187
 6178SOL    HW224484   0.160   2.408   5.277  1.5424 -0.0602  0.2759
 6178SOL    HW324485   0.096   2.503   5.178 -1.4228  0.0572  2.1567
 6178SOL    MW424486   0.160   2.484   5.235  0.7358  0.1519  0.0009
 6179SOL     OW24487   5.780   5.177   4.391  0.5766 -0.1528  0.6100
 6179SOL    HW224488   5.701   5.125   4.409  0.7152  0.1359  2.1739
 6179SOL    HW324489   5.849   5.134   4.441  1.4281 -0.3385 -0.6632
 6179SOL    MW424490   5.778   5.164   4.400  0.3689 -0.2958  0.1449
 6180SOL     OW24491   1.307   3.647   5.069 -0.1853 -0.1508 -0.4243
 6180SOL    HW224492   1.341   3.585   5.133 -0.7153  0.1949  0.2037
 6180SOL    HW324493   1.378   3.658   5.006  0.6168  0.0521  0.4991
 6180SOL    MW424494   1.321   3.640   5.069  0.6827  0.4048  0.1995
 6181SOL     OW24495   0.144   2.793   0.655 -0.3410 -0.8564 -0.1853
 6181SOL    HW224496   0.100   2.822   0.735 -0.5653 -1.4479 -0.0899
 6181SOL    HW324497   0.078   2.745   0.606  0.5727 -3.1974  0.7245
 6181SOL    MW424498   0.130   2.790   0.659  0.3694 -0.3459  0.4241
 6182SOL     OW24499   1.009   4.255   2.361  0.3910  0.5058 -0.8477
 6182SOL    HW224500   1.026   4.163   2.383  0.3807  0.4235 -1.1717
 6182SOL    HW324501   0.916   4.257   2.336 -0.0678  0.9225  0.7624
 6182SOL    MW424502   0.999   4.243   2.361  0.1557  0.0897 -0.3998
 6183SOL     OW24503   2.459   6.280   6.053 -0.0787  0.6540 -0.1271
 6183SOL    HW224504   2.495   6.259   5.967  0.4893 -1.3228  0.5432
 6183SOL    HW324505   2.534   6.316   6.102 -0.3742  1.6696 -0.3910
 6183SOL    MW424506   2.474   6.282   6.048 -0.3055  0.1968 -0.5235
 6184SOL     OW24507   1.442   6.099   0.749 -1.0063 -0.2147  0.3350
 6184SOL    HW224508   1.379   6.043   0.703 -2.2770  0.9513  0.5843
 6184SOL    HW324509   1.456   6.174   0.690 -0.8126  0.1359  0.8167
 6184SOL    MW424510   1.436   6.102   0.735 -0.0112  0.0362 -0.3865
 6185SOL     OW24511   2.991   3.155   0.155  0.1288 -0.2358  0.3260
 6185SOL    HW224512   3.069   3.164   0.101 -0.1226 -1.5384 -0.2867
 6185SOL    HW324513   2.918   3.174   0.096 -0.2638 -3.3180 -0.3523
 6185SOL    MW424514   2.992   3.159   0.140  0.0592  0.4770 -0.1522
 6186SOL     OW24515   0.408   2.972   6.298 -0.0620 -0.0377 -0.3711
 6186SOL    HW224516   0.476   2.917   6.337  1.4759  2.6997  1.1426
 6186SOL    HW324517   0.419   2.962   6.204  0.3694 -1.9524 -0.1648
 6186SOL    MW424518   0.418   2.963   6.291  0.3872 -0.3121 -0.0479
 6187SOL     OW24519   5.203   4.599   0.727  0.1358 -0.4748 -0.0639
 6187SOL    HW224520   5.242   4.652   0.796  0.8731 -0.7276 -0.2822
 6187SOL    HW324521   5.109   4.603   0.744  0.1153  1.3315 -0.3674
 6187SOL    MW424522   5.195   4.607   0.738  0.1646 -0.2225  0.3020
 6188SOL     OW24523   5.583   1.594   1.388 -0.2601 -0.0011  0.3248
 6188SOL    HW224524   5.671   1.560   1.374 -1.0945 -2.0670 -0.3181
 6188SOL    HW324525   5.546   1.538   1.457 -1.2754  0.4034  0.1359
 6188SOL    MW424526   5.589   1.582   1.395 -0.0250  0.2204 -0.3093
 6189SOL     OW24527   0.324   6.430   0.900  0.2230  0.4102  0.1698
 6189SOL    HW224528   0.381   6.399   0.829  1.3287  2.0110  0.3122
 6189SOL    HW324529   0.378   6.423   0.979 -1.4930 -2.8305  1.2416
 6189SOL    MW424530   0.339   6.425   0.901  0.0424 -0.5305 -0.1000
 6190SOL     OW24531   4.136   1.846   2.229  0.2678 -0.3169  0.3944
 6190SOL    HW224532   4.184   1.879   2.305  0.7137  2.8821 -1.0893
 6190SOL    HW324533   4.047   1.881   2.240  0.5531  0.9167 -0.8602
 6190SOL    MW424534   4.131   1.855   2.241  0.2793 -0.0920 -0.2197
 6191SOL     OW24535   1.199   5.356   3.183  0.6069 -0.4239  0.1007
 6191SOL    HW224536   1.287   5.369   3.148 -0.2088  0.9659 -1.5902
 6191SOL    HW324537   1.163   5.286   3.130 -1.3308  2.9713 -3.5998
 6191SOL    MW424538   1.206   5.349   3.171 -0.4092 -0.0382 -0.5405
 6192SOL     OW24539   5.012   0.306   1.682  0.6863  0.2353 -0.4697
 6192SOL    HW224540   5.024   0.399   1.663  0.9561  0.4964  0.9159
 6192SOL    HW324541   4.917   0.295   1.688  0.6700  1.2429  3.0089
 6192SOL    MW424542   5.001   0.317   1.680 -0.0123  0.5733  0.7900
 6193SOL     OW24543   3.444   6.096   1.895 -0.6510 -0.0233 -0.0265
 6193SOL    HW224544   3.479   6.082   1.983 -2.4164 -0.2317  0.6683
 6193SOL    HW324545   3.512   6.061   1.836  0.5517  0.1284  1.2271
 6193SOL    MW424546   3.458   6.090   1.898 -0.3657  0.1211 -0.2556
 6194SOL     OW24547   1.319   2.717   6.367  0.1123  0.1466 -0.2869
 6194SOL    HW224548   1.323   2.739   6.460 -3.7541  2.9116 -0.5367
 6194SOL    HW324549   1.367   2.787   6.323  0.7154 -0.3817 -0.4953
 6194SOL    MW424550   1.326   2.729   6.373  0.1241  0.4283 -0.6482
 6195SOL     OW24551   0.677   2.526   2.296  0.1829 -0.1598 -0.4088
 6195SOL    HW224552   0.610   2.542   2.230 -0.2818  0.0902  0.1225
 6195SOL    HW324553   0.692   2.612   2.337  0.1036 -0.4134  0.1586
 6195SOL    MW424554   0.670   2.540   2.292  0.0475  0.0613  0.1365
 6196SOL     OW24555   6.191   5.656   2.735  0.4879 -0.0239 -0.5527
 6196SOL    HW224556   6.128   5.601   2.783  1.4833 -0.6955  0.0216
 6196SOL    HW324557   6.155   5.663   2.647 -0.3264 -0.5177 -0.2696
 6196SOL    MW424558   6.178   5.649   2.730  0.0448  0.0348 -0.3355
 6197SOL     OW24559   0.561   5.983   0.681 -0.1693  0.8521  0.0894
 6197SOL    HW224560   0.655   5.999   0.667  0.3976 -2.0365 -0.1093
 6197SOL    HW324561   0.540   6.030   0.762  1.3202  1.8965 -0.0846
 6197SOL    MW424562   0.571   5.991   0.690  0.1691  0.1012  0.0030
 6198SOL     OW24563   2.911   2.368   3.308 -0.1816 -0.1809 -0.2742
 6198SOL    HW224564   2.967   2.296   3.278 -0.9168 -1.1544  0.5739
 6198SOL    HW324565   2.967   2.420   3.365 -0.2661 -1.5351  1.1240
 6198SOL    MW424566   2.926   2.365   3.312  0.3400  0.2389  0.2110
 6199SOL     OW24567   5.424   1.369   1.883 -0.1339  0.3262 -0.1881
 6199SOL    HW224568   5.510   1.369   1.840 -0.4271 -1.2382 -0.8758
 6199SOL    HW324569   5.366   1.330   1.818 -1.1261  0.2671  0.7128
 6199SOL    MW424570   5.428   1.364   1.869  0.0452  0.0843 -0.0214
 6200SOL     OW24571   4.733   1.099   2.114 -0.1221  0.0247 -0.2739
 6200SOL    HW224572   4.726   1.012   2.076  0.2394 -0.5030  0.8054
 6200SOL    HW324573   4.703   1.088   2.205  0.4169  0.9103  0.0300
 6200SOL    MW424574   4.728   1.086   2.121  0.3959 -0.1197  0.8968
 6201SOL     OW24575   2.817   6.058   2.095  0.0001  0.1276  0.2782
 6201SOL    HW224576   2.877   6.130   2.112 -0.9932  0.8619  0.7817
 6201SOL    HW324577   2.777   6.079   2.011 -0.7546  0.4958  0.7257
 6201SOL    MW424578   2.820   6.070   2.087  0.3730  0.5006 -0.0617
 6202SOL     OW24579   6.038   4.231   2.420  0.5554  0.4547 -0.2767
 6202SOL    HW224580   6.052   4.233   2.515  2.3536 -1.8651 -0.4017
 6202SOL    HW324581   5.980   4.157   2.406  0.7515  0.4361 -1.0204
 6202SOL    MW424582   6.033   4.222   2.431  0.3344  0.2320 -0.2172
 6203SOL     OW24583   4.295   0.863   6.228 -0.1059  0.0985 -0.0406
 6203SOL    HW224584   4.276   0.853   6.135 -0.5478 -1.4426  0.1981
 6203SOL    HW324585   4.379   0.909   6.230  0.8677 -1.5331 -1.2288
 6203SOL    MW424586   4.304   0.868   6.216 -0.2020  0.2335 -0.1089
 6204SOL     OW24587   2.351   4.185   4.459  0.2216  0.1770 -0.4450
 6204SOL    HW224588   2.420   4.244   4.489 -1.4543  0.1388  4.5583
 6204SOL    HW324589   2.368   4.103   4.506 -3.1592  0.2851  1.2886
 6204SOL    MW424590   2.362   4.182   4.469  0.2775  0.5616  0.5459
 6205SOL     OW24591   4.260   3.201   0.050  0.2621 -0.1523  0.1153
 6205SOL    HW224592   4.347   3.237   0.036 -0.1331  1.3721  1.3220
 6205SOL    HW324593   4.201   3.265   0.008 -0.3227 -0.6294  0.1969
 6205SOL    MW424594   4.264   3.214   0.042  0.0173  0.1729  0.1766
 6206SOL     OW24595   1.465   5.926   1.097 -0.4413  0.0347  0.4711
 6206SOL    HW224596   1.484   5.851   1.154  3.9907  0.5509  0.0814
 6206SOL    HW324597   1.466   5.890   1.009 -2.4021 -0.0075  0.4392
 6206SOL    MW424598   1.468   5.912   1.093  0.4299  0.3415  0.0190
 6207SOL     OW24599   0.443   2.924   2.284  0.1566 -0.1491 -0.5311
 6207SOL    HW224600   0.491   2.929   2.202 -0.4386 -1.7297 -1.0043
 6207SOL    HW324601   0.361   2.971   2.267  0.5206  0.5272 -0.4574
 6207SOL    MW424602   0.438   2.931   2.271  0.5651  0.6465 -0.7940
 6208SOL     OW24603   5.814   0.897   0.946  0.1837  0.1764  0.2387
 6208SOL    HW224604   5.840   0.824   0.891  0.1371  0.8134 -0.6498
 6208SOL    HW324605   5.896   0.933   0.979  0.2208 -0.1161  0.4636
 6208SOL    MW424606   5.828   0.892   0.943 -0.1069 -0.1873 -0.5585
 6209SOL     OW24607   3.521   6.102   3.805 -0.3872  0.9788  0.1980
 6209SOL    HW224608   3.610   6.100   3.768  0.0519  2.7700  1.0532
 6209SOL    HW324609   3.508   6.193   3.832 -1.5096  0.2421  2.4062
 6209SOL    MW424610   3.531   6.113   3.804 -0.5335  0.2279  0.0181
 6210SOL     OW24611   3.187   4.355   3.581  0.1316  0.2575  0.1006
 6210SOL    HW224612   3.099   4.391   3.577  0.3343  1.0377  1.9899
 6210SOL    HW324613   3.176   4.269   3.622  0.0816 -0.3523 -1.1466
 6210SOL    MW424614   3.174   4.348   3.586  0.4133 -0.3881  0.0706
 6211SOL     OW24615   4.624   2.439   3.025 -0.1485 -0.1323  0.5372
 6211SOL    HW224616   4.596   2.516   3.073  0.3081  0.2031  0.2677
 6211SOL    HW324617   4.586   2.451   2.937 -0.8772 -0.6807  0.7682
 6211SOL    MW424618   4.615   2.450   3.019  0.0599 -0.8274 -0.3601
 6212SOL     OW24619   4.066   2.955   3.639  0.4208  0.3581  0.2251
 6212SOL    HW224620   3.988   2.915   3.601 -0.0717 -0.2038  1.7538
 6212SOL    HW324621   4.121   2.976   3.564  0.0004 -1.7309 -0.7371
 6212SOL    MW424622   4.063   2.953   3.624 -0.2464  0.0228  0.7604
 6213SOL     OW24623   3.076   0.447   6.096 -0.3078  0.0986 -0.1475
 6213SOL    HW224624   3.079   0.470   6.003 -1.9585 -0.2304 -0.3280
 6213SOL    HW324625   3.159   0.477   6.132  1.0196 -1.0871 -2.0230
 6213SOL    MW424626   3.087   0.454   6.088 -0.8107  0.3175  0.2585
 6214SOL     OW24627   3.874   6.012   1.388 -0.9136 -0.1787  0.5519
 6214SOL    HW224628   3.783   5.991   1.365 -0.6873 -0.1296 -0.4697
 6214SOL    HW324629   3.873   6.106   1.406 -0.7716  0.2123 -1.2313
 6214SOL    MW424630   3.862   6.022   1.387  0.3527 -0.1836 -0.2019
 6215SOL     OW24631   3.156   1.843   1.274 -0.5129 -0.1920 -0.1291
 6215SOL    HW224632   3.076   1.793   1.260 -0.2942 -0.8019  0.7579
 6215SOL    HW324633   3.223   1.794   1.225 -0.3669 -0.5899  0.4598
 6215SOL    MW424634   3.155   1.830   1.265  0.1676  0.0541 -0.6927
 6216SOL     OW24635   1.306   2.969   5.037  0.0570  0.0340 -0.6203
 6216SOL    HW224636   1.360   3.035   4.994 -0.4752 -0.5398 -2.2374
 6216SOL    HW324637   1.320   2.889   4.986 -1.3354 -0.4396 -0.3102
 6216SOL    MW424638   1.315   2.967   5.025  0.5854  0.4370 -0.0975
 6217SOL     OW24639   2.382   0.656   4.135 -0.3051  0.0906 -0.5565
 6217SOL    HW224640   2.403   0.568   4.166 -1.6010 -0.6019 -1.5297
 6217SOL    HW324641   2.400   0.713   4.210 -3.6536 -1.5088  1.6868
 6217SOL    MW424642   2.387   0.652   4.149 -0.3708  0.5784 -0.0445
 6218SOL     OW24643   6.397   1.271   0.957  1.0035  0.1195 -0.6018
 6218SOL    HW224644   6.355   1.324   1.024  2.7721  2.6356 -1.3562
 6218SOL    HW324645   6.445   1.334   0.902  2.8465 -2.1982 -1.8576
 6218SOL    MW424646   6.398   1.286   0.959 -0.1335 -0.2661 -0.1852
 6219SOL     OW24647   0.115   3.415   3.281 -0.4944 -0.4814  0.2363
 6219SOL    HW224648   0.039   3.473   3.284 -0.9098 -1.0506  1.9579
 6219SOL    HW324649   0.190   3.473   3.272 -1.0992  0.0641 -2.1175
 6219SOL    MW424650   0.115   3.430   3.280 -0.0529 -0.1093 -0.1075
 6220SOL     OW24651   5.792   5.752   0.570 -0.3623  0.0334 -0.1816
 6220SOL    HW224652   5.879   5.791   0.575 -0.8590  1.6208 -2.2335
 6220SOL    HW324653   5.794   5.700   0.490 -1.4681  0.6449 -0.6283
 6220SOL    MW424654   5.804   5.750   0.560  0.5385 -0.1706  0.0427
 6221SOL     OW24655   2.057   0.760   4.702 -0.3557 -0.2641 -0.2165
 6221SOL    HW224656   2.006   0.679   4.693 -0.0407 -0.3252 -1.7203
 6221SOL    HW324657   2.146   0.735   4.676  0.1268  0.1807  0.9647
 6221SOL    MW424658   2.062   0.746   4.697 -0.0025 -0.2079 -0.2006
 6222SOL     OW24659   2.256   1.419   5.777  0.8360  0.2157 -0.1830
 6222SOL    HW224660   2.293   1.413   5.689 -0.4755 -0.6663 -0.7051
 6222SOL    HW324661   2.168   1.454   5.763  0.1411 -1.1473  0.6380
 6222SOL    MW424662   2.249   1.423   5.764 -0.0061  0.0296 -0.3650
 6223SOL     OW24663   0.541   6.078   6.350 -0.0648  0.6798  0.3305
 6223SOL    HW224664   0.574   6.081   6.260  1.4992  0.8549  0.8805
 6223SOL    HW324665   0.583   6.152   6.394 -2.6008  2.0365  0.6740
 6223SOL    MW424666   0.550   6.088   6.344  0.4709  0.0387  0.4702
 6224SOL     OW24667   4.850   3.873   2.588 -0.3928  0.0187 -0.1407
 6224SOL    HW224668   4.918   3.936   2.611 -0.1204 -0.1472 -0.4734
 6224SOL    HW324669   4.898   3.797   2.554 -0.6880 -0.5642  0.7017
 6224SOL    MW424670   4.865   3.871   2.586  0.3476 -0.2636  0.2838
 6225SOL     OW24671   0.478   4.609   0.254  0.6152 -0.3225  0.1515
 6225SOL    HW224672   0.529   4.542   0.208 -0.3325 -0.0838 -1.3091
 6225SOL    HW324673   0.401   4.562   0.287  0.3101 -0.0927 -0.2363
 6225SOL    MW424674   0.475   4.594   0.253  0.4337 -0.3172  0.1625
 6226SOL     OW24675   3.741   0.964   2.623 -0.1557 -0.0457  0.4100
 6226SOL    HW224676   3.743   0.913   2.704  0.7239 -0.0079  0.4200
 6226SOL    HW324677   3.800   1.038   2.640  0.0764 -0.0658 -0.2806
 6226SOL    MW424678   3.749   0.967   2.636  0.4803  0.3507  0.0197
 6227SOL     OW24679   0.000   1.168   2.171  0.4925 -0.3770  0.0389
 6227SOL    HW224680   0.066   1.103   2.196 -0.0893 -1.3770 -0.9360
 6227SOL    HW324681  -0.076   1.116   2.144  0.0046  0.7068 -0.7533
 6227SOL    MW424682  -0.001   1.153   2.170  0.1701  0.0197 -0.3755
 6228SOL     OW24683   3.768   2.174   2.187  0.3179 -0.1765 -0.1840
 6228SOL    HW224684   3.745   2.201   2.276  0.8370  1.5542 -0.5449
 6228SOL    HW324685   3.701   2.109   2.164 -1.4797  1.3456  0.4860
 6228SOL    MW424686   3.756   2.169   2.196 -0.0524 -0.1338 -0.3102
 6229SOL     OW24687   4.274   3.327   3.782  0.0307 -0.6056 -0.9016
 6229SOL    HW224688   4.255   3.381   3.858 -0.6826 -0.8713 -0.8904
 6229SOL    HW324689   4.201   3.343   3.722  0.6035 -0.3634 -1.5560
 6229SOL    MW424690   4.262   3.337   3.784  0.9421 -0.4577  0.1647
 6230SOL     OW24691   2.622   1.623   6.218 -0.4002  0.1067  0.7852
 6230SOL    HW224692   2.712   1.605   6.246 -0.6508  0.0682  1.5695
 6230SOL    HW324693   2.595   1.544   6.172 -0.5678 -0.5063  1.9023
 6230SOL    MW424694   2.631   1.610   6.215 -0.1621 -0.1093 -0.2413
 6231SOL     OW24695   0.088   4.349   2.929  0.2505  0.6365  0.1768
 6231SOL    HW224696   0.153   4.304   2.983 -0.0559 -0.4452 -0.3152
 6231SOL    HW324697   0.080   4.436   2.967  1.2657  0.4541  0.8386
 6231SOL    MW424698   0.096   4.355   2.941 -0.0955 -0.3064 -0.4403
 6232SOL     OW24699   2.946   6.382   4.500  0.0669 -0.4717 -0.0069
 6232SOL    HW224700   2.986   6.315   4.444 -1.8467 -1.5385 -0.1994
 6232SOL    HW324701   2.932   6.338   4.584 -2.7810 -0.9784 -0.6472
 6232SOL    MW424702   2.949   6.367   4.503 -0.1670  0.5711 -0.0049
 6233SOL     OW24703   0.636   0.325   2.797 -0.1825 -0.5577 -0.3194
 6233SOL    HW224704   0.705   0.263   2.821  1.1804  1.3646  0.9122
 6233SOL    HW324705   0.558   0.290   2.839  0.5203 -1.5000  0.2606
 6233SOL    MW424706   0.635   0.312   2.806  0.0634 -0.1609  0.3621
 6234SOL     OW24707   6.345   4.340   4.886  0.2346 -0.0048  0.0548
 6234SOL    HW224708   6.314   4.430   4.871 -0.7966 -0.6107 -1.7582
 6234SOL    HW324709   6.323   4.322   4.978  0.8586  1.7072  0.5876
 6234SOL    MW424710   6.338   4.350   4.896 -0.5969 -0.3962  0.0318
 6235SOL     OW24711   0.032   0.642   4.818 -0.8987 -0.4666 -0.1667
 6235SOL    HW224712  -0.023   0.565   4.827 -0.3722 -0.9243 -0.7581
 6235SOL    HW324713   0.053   0.667   4.908 -0.2543 -1.6206  0.0252
 6235SOL    MW424714   0.028   0.635   4.832 -0.5982  0.2336  0.2504
 6236SOL     OW24715   3.943   0.961   2.988 -0.1341  0.5599 -0.1101
 6236SOL    HW224716   3.980   0.924   3.068  0.1433  0.3658 -0.3250
 6236SOL    HW324717   3.933   1.054   3.006  0.2787  0.5800  0.0204
 6236SOL    MW424718   3.946   0.968   3.001 -0.4379  0.3575 -0.1166
 6237SOL     OW24719   3.555   5.675   4.756 -0.2088  0.4568 -0.2787
 6237SOL    HW224720   3.519   5.642   4.673 -0.5007  0.9971 -0.3713
 6237SOL    HW324721   3.615   5.606   4.785  0.7120  0.7187 -1.4707
 6237SOL    MW424722   3.558   5.662   4.749  0.0056 -0.1431 -0.4532
 6238SOL     OW24723   3.870   3.792   1.565  0.1379 -0.0672  0.2066
 6238SOL    HW224724   3.832   3.877   1.543  0.0449 -0.4316 -1.0954
 6238SOL    HW324725   3.795   3.734   1.571  0.3770 -1.2606 -4.3750
 6238SOL    MW424726   3.855   3.796   1.563 -0.4289 -0.0129  0.2363
 6239SOL     OW24727   5.339   4.673   1.855  0.5239  0.0194  0.7619
 6239SOL    HW224728   5.255   4.719   1.858  0.1849 -0.2865 -1.7815
 6239SOL    HW324729   5.321   4.588   1.895 -0.8908 -0.6728 -1.1842
 6239SOL    MW424730   5.325   4.668   1.861 -0.2253 -0.3080  0.2328
 6240SOL     OW24731   3.785   5.513   5.178  0.5145  0.0868 -0.9380
 6240SOL    HW224732   3.708   5.567   5.190 -1.0002 -2.3552  1.8369
 6240SOL    HW324733   3.753   5.436   5.131  0.7928 -1.5426  1.3446
 6240SOL    MW424734   3.771   5.510   5.173 -0.6072  0.2362 -0.3533
 6241SOL     OW24735   5.779   2.723   5.908  0.3746  0.0995 -0.1514
 6241SOL    HW224736   5.760   2.768   5.826  1.3379 -0.7241 -0.8652
 6241SOL    HW324737   5.703   2.738   5.963  0.0236  1.2756 -0.9315
 6241SOL    MW424738   5.767   2.731   5.904 -0.2489 -0.3388 -0.2544
 6242SOL     OW24739   3.887   1.418   1.519  0.2273 -0.2786  0.2020
 6242SOL    HW224740   3.903   1.512   1.527  0.4962 -0.2151 -0.9098
 6242SOL    HW324741   3.901   1.399   1.426  2.7924 -1.8866  0.8013
 6242SOL    MW424742   3.891   1.428   1.507  0.0115 -0.0525 -0.1364
 6243SOL     OW24743   4.729   5.478   5.483  0.0855  0.1676 -0.0820
 6243SOL    HW224744   4.694   5.549   5.430 -0.9903  0.5456  1.0811
 6243SOL    HW324745   4.815   5.510   5.512  1.0734 -0.3954 -2.2199
 6243SOL    MW424746   4.736   5.492   5.480 -0.5024 -0.1157 -0.0700
 6244SOL     OW24747   3.465   5.756   4.225  0.3810 -0.3117  0.6163
 6244SOL    HW224748   3.545   5.705   4.231  1.0025  0.5663 -0.0071
 6244SOL    HW324749   3.452   5.791   4.313  0.5911 -0.5667  0.7518
 6244SOL    MW424750   3.474   5.754   4.238 -0.0595 -0.3275 -0.0594
 6245SOL     OW24751   0.023   3.244   5.485 -0.2479  0.4422  0.7611
 6245SOL    HW224752   0.099   3.188   5.471  0.2990  1.2057  0.6182
 6245SOL    HW324753   0.009   3.242   5.580  0.2186  0.6423  0.8352
 6245SOL    MW424754   0.031   3.237   5.496  0.4831 -0.1559  0.0032
 6246SOL     OW24755   4.528   2.224   3.748 -0.2013 -0.2890  0.4874
 6246SOL    HW224756   4.604   2.173   3.719 -1.3403 -2.0559  0.4386
 6246SOL    HW324757   4.565   2.304   3.786  1.6295 -0.7951 -0.1390
 6246SOL    MW424758   4.543   2.228   3.749 -0.0872 -0.0778 -0.0179
 6247SOL     OW24759   5.605   1.002   2.356 -0.3594  0.2166 -0.4665
 6247SOL    HW224760   5.686   0.991   2.306  0.2912 -0.7937  0.7660
 6247SOL    HW324761   5.609   1.093   2.388  1.1030 -0.2665  0.8856
 6247SOL    MW424762   5.616   1.013   2.354  0.2797  0.4370 -0.0254
 6248SOL     OW24763   6.418   0.495   1.807 -0.4102  0.3737 -0.1382
 6248SOL    HW224764   6.429   0.437   1.883  2.7001 -1.4698 -1.7977
 6248SOL    HW324765   6.459   0.577   1.835 -1.3673  0.5245  0.9126
 6248SOL    MW424766   6.425   0.498   1.821  0.2842  0.2460  0.0697
 6249SOL     OW24767   2.951   5.757   1.141 -0.1514  0.3803 -0.6604
 6249SOL    HW224768   3.023   5.751   1.203 -0.6352 -1.1036 -0.1883
 6249SOL    HW324769   2.981   5.708   1.064 -0.2094  0.7471 -0.9168
 6249SOL    MW424770   2.964   5.749   1.139  0.5629 -0.5005  0.0492
 6250SOL     OW24771   4.040   2.203   0.210 -0.0852 -0.1184 -0.1882
 6250SOL    HW224772   4.043   2.139   0.138 -0.2732 -1.3042  0.8308
 6250SOL    HW324773   3.950   2.235   0.209 -0.3972 -0.9537  0.1946
 6250SOL    MW424774   4.028   2.198   0.200  0.4542 -0.5257  0.0375
 6251SOL     OW24775   3.535   0.993   1.217 -0.0705 -0.0524  0.4478
 6251SOL    HW224776   3.598   1.065   1.225  1.0586 -1.1270  1.6755
 6251SOL    HW324777   3.589   0.916   1.199 -1.2018 -0.7345 -0.2004
 6251SOL    MW424778   3.550   0.992   1.215  0.7296 -0.0595  0.2979
 6252SOL     OW24779   2.366   1.237   4.789 -0.3591 -0.1290 -0.4679
 6252SOL    HW224780   2.282   1.282   4.785 -0.3094  0.0063 -0.0175
 6252SOL    HW324781   2.430   1.302   4.762 -0.4535 -0.3979 -1.3762
 6252SOL    MW424782   2.364   1.251   4.785 -0.5504  0.4534  0.3180
 6253SOL     OW24783   3.667   0.744   1.144 -0.1508 -0.1052 -0.5961
 6253SOL    HW224784   3.653   0.761   1.051  1.0596  1.1150 -0.5789
 6253SOL    HW324785   3.587   0.700   1.172 -0.4370 -0.7287 -2.2619
 6253SOL    MW424786   3.655   0.740   1.135  0.2037  0.0216 -0.1704
 6254SOL     OW24787   1.467   1.770   5.362 -0.0417  0.2400 -0.2154
 6254SOL    HW224788   1.400   1.837   5.352 -0.5248 -0.2893 -0.5441
 6254SOL    HW324789   1.420   1.691   5.389  0.4002 -0.2186 -0.7409
 6254SOL    MW424790   1.452   1.768   5.364 -0.0142 -0.7722  0.0871
 6255SOL     OW24791   0.263   1.710   3.444  0.4817 -0.0892 -0.1579
 6255SOL    HW224792   0.203   1.781   3.422 -1.6266 -1.0804  1.8811
 6255SOL    HW324793   0.237   1.638   3.386  0.3516 -0.1929  0.0245
 6255SOL    MW424794   0.251   1.710   3.434 -0.2080  0.3868  0.7375
 6256SOL     OW24795   5.205   4.606   1.552  0.2050  0.1548  0.1856
 6256SOL    HW224796   5.203   4.616   1.648 -3.0838  1.3926  0.1340
 6256SOL    HW324797   5.129   4.551   1.533  1.2510 -0.7149 -1.7213
 6256SOL    MW424798   5.195   4.600   1.562 -0.3345  0.0348 -0.0229
 6257SOL     OW24799   4.726   2.425   6.135 -0.3516 -0.7830  0.1198
 6257SOL    HW224800   4.755   2.387   6.052  0.5761  0.2774 -0.0663
 6257SOL    HW324801   4.669   2.497   6.110  3.5491  2.6368  0.0898
 6257SOL    MW424802   4.722   2.429   6.121  0.3063  0.5348  0.0587
 6258SOL     OW24803   4.328   5.879   1.314  0.1045  0.1845  0.0401
 6258SOL    HW224804   4.358   5.920   1.395  0.7527 -0.3963  0.1024
 6258SOL    HW324805   4.326   5.786   1.333 -2.0650  0.2026  0.1268
 6258SOL    MW424806   4.331   5.872   1.327  0.1248 -0.0749 -0.0491
 6259SOL     OW24807   2.073   4.997   4.364  0.4515 -0.5051  0.0649
 6259SOL    HW224808   1.996   5.052   4.351  1.0476  0.3254 -0.0415
 6259SOL    HW324809   2.045   4.910   4.338 -1.2882 -0.8019  2.6081
 6259SOL    MW424810   2.059   4.993   4.359  0.0253 -0.6494 -0.1315
 6260SOL     OW24811   1.663   2.902   6.117  0.1585  0.0881 -0.3443
 6260SOL    HW224812   1.709   2.960   6.057 -0.0575 -0.3565 -0.9586
 6260SOL    HW324813   1.586   2.873   6.068 -0.2892  0.1029  0.3315
 6260SOL    MW424814   1.659   2.906   6.102 -0.2686 -0.4336 -0.1294
 6261SOL     OW24815   2.247   0.651   2.691 -0.0047  0.0369 -0.1459
 6261SOL    HW224816   2.322   0.595   2.670 -0.8240 -0.9084 -0.6144
 6261SOL    HW324817   2.212   0.615   2.772 -1.8185 -1.5370 -1.5376
 6261SOL    MW424818   2.252   0.639   2.699  0.1291  0.3090 -0.3041
 6262SOL     OW24819   2.806   3.985   5.135 -0.0935 -0.0026  0.1894
 6262SOL    HW224820   2.828   4.077   5.153  1.7802 -0.4675  0.3832
 6262SOL    HW324821   2.838   3.937   5.211  0.9010 -1.0761 -0.8686
 6262SOL    MW424822   2.813   3.991   5.147 -0.2836  0.1911 -0.2055
 6263SOL     OW24823   3.947   4.625   1.846  0.5919  0.2773 -0.3102
 6263SOL    HW224824   3.878   4.582   1.795  0.8811  0.5722 -0.9620
 6263SOL    HW324825   3.902   4.661   1.922 -0.6743  3.4876 -2.3938
 6263SOL    MW424826   3.932   4.624   1.849  0.7616  0.1885 -0.2503
 6264SOL     OW24827   6.084   1.762   0.214  0.3262 -0.4639 -0.3489
 6264SOL    HW224828   6.162   1.794   0.260  0.3385 -2.2884  0.9853
 6264SOL    HW324829   6.033   1.717   0.281 -0.7596 -1.2830 -1.6738
 6264SOL    MW424830   6.088   1.760   0.229  0.6600  0.1169  0.1303
 6265SOL     OW24831   0.121   2.305   1.428  0.2424 -0.3242 -0.0689
 6265SOL    HW224832   0.171   2.295   1.509  1.9825  0.2399 -1.0249
 6265SOL    HW324833   0.111   2.400   1.418  1.3333 -0.3028 -1.2269
 6265SOL    MW424834   0.126   2.316   1.438 -0.0951  0.2222 -0.6988
 6266SOL     OW24835   5.528   2.115   1.256  0.3585  0.5303  0.3128
 6266SOL    HW224836   5.434   2.130   1.266 -0.0795 -0.9833 -1.1188
 6266SOL    HW324837   5.544   2.029   1.294  1.3761  1.1654  1.4105
 6266SOL    MW424838   5.518   2.106   1.262 -0.2891 -0.3199 -0.6355
 6267SOL     OW24839   3.695   3.312   4.288 -0.4847 -0.2623 -0.1825
 6267SOL    HW224840   3.717   3.220   4.275 -1.3746 -0.2410 -2.1379
 6267SOL    HW324841   3.739   3.335   4.370  1.1097 -1.9749 -0.4668
 6267SOL    MW424842   3.704   3.303   4.297  0.1813  0.0360 -0.1026
 6268SOL     OW24843   3.258   5.543   6.304 -0.1178  0.3509 -0.0058
 6268SOL    HW224844   3.237   5.450   6.294 -1.7750  0.5618  1.0672
 6268SOL    HW324845   3.337   5.544   6.358 -1.2352 -0.4576  1.7462
 6268SOL    MW424846   3.265   5.531   6.310 -0.1499  0.0671  0.3237
 6269SOL     OW24847   5.061   2.576   1.934  0.5159 -0.5299  0.5711
 6269SOL    HW224848   4.996   2.560   1.866 -0.3667  1.6157  0.8188
 6269SOL    HW324849   5.126   2.506   1.922 -1.0065 -1.8112 -0.6842
 6269SOL    MW424850   5.061   2.565   1.923 -0.0066  0.1454  0.4563
 6270SOL     OW24851   2.565   0.590   3.559  0.6635 -0.3814  0.0526
 6270SOL    HW224852   2.518   0.668   3.528  1.6536 -0.2776 -1.2879
 6270SOL    HW324853   2.544   0.585   3.652  1.5303  2.2094  0.4626
 6270SOL    MW424854   2.556   0.600   3.567  0.5119  0.3031  0.4306
 6271SOL     OW24855   4.182   4.079   1.853 -0.1722  0.7293  0.2345
 6271SOL    HW224856   4.149   3.998   1.893 -0.1873  1.6681  2.2134
 6271SOL    HW324857   4.168   4.066   1.759 -0.0625 -1.6130  0.4733
 6271SOL    MW424858   4.176   4.066   1.846  0.3351  0.0227  0.4317
 6272SOL     OW24859   6.258   1.545   2.700 -0.0206 -0.3481 -0.0200
 6272SOL    HW224860   6.250   1.490   2.622  0.4692 -1.0631  0.4112
 6272SOL    HW324861   6.173   1.538   2.743 -0.1919 -0.1952 -0.3291
 6272SOL    MW424862   6.246   1.537   2.695 -0.2753 -0.2391  0.3966
 6273SOL     OW24863   5.682   3.555   5.806 -0.1170  0.7104 -0.2765
 6273SOL    HW224864   5.624   3.554   5.731 -0.2058  0.6432 -0.2070
 6273SOL    HW324865   5.713   3.646   5.812  0.8531  0.4540 -1.1320
 6273SOL    MW424866   5.679   3.567   5.797  0.1646 -0.3904 -0.3582
 6274SOL     OW24867   2.914   1.144   1.554 -0.4216  0.4060 -0.0757
 6274SOL    HW224868   3.005   1.175   1.553  0.2914 -1.5383  0.1388
 6274SOL    HW324869   2.897   1.119   1.463 -0.4934  0.0713  0.0313
 6274SOL    MW424870   2.924   1.145   1.542  0.4215  0.0281  0.8680
 6275SOL     OW24871   2.746   2.448   5.189 -0.0994 -0.1917 -0.4001
 6275SOL    HW224872   2.839   2.450   5.212 -0.2017 -0.7963  0.0872
 6275SOL    HW324873   2.745   2.457   5.094  0.6039 -2.6965 -0.7110
 6275SOL    MW424874   2.758   2.449   5.180 -0.5872 -0.1102  0.2876
 6276SOL     OW24875   2.664   6.430   2.710  0.0531  0.1513 -0.0114
 6276SOL    HW224876   2.609   6.491   2.660  0.1167  1.3036  1.2899
 6276SOL    HW324877   2.669   6.352   2.654 -1.5378  0.6346 -0.8923
 6276SOL    MW424878   2.657   6.428   2.696  0.1749 -0.2871  0.0387
 6277SOL     OW24879   0.348   1.033   1.226  0.1393 -0.1389  0.2112
 6277SOL    HW224880   0.324   0.981   1.303  1.5402 -2.0795 -0.5988
 6277SOL    HW324881   0.287   1.005   1.158  0.5771 -0.3644 -0.0929
 6277SOL    MW424882   0.336   1.022   1.227 -0.3599 -0.2575  0.8498
 6278SOL     OW24883   2.704   0.059   3.075  0.3526  0.2745  0.1779
 6278SOL    HW224884   2.652  -0.003   3.024  3.2469 -1.0018 -1.4444
 6278SOL    HW324885   2.704   0.023   3.164 -1.4017  0.3033  0.2345
 6278SOL    MW424886   2.697   0.046   3.080  0.1193 -0.2835  0.4801
 6279SOL     OW24887   1.264   0.659   5.583 -0.3619  0.0457 -0.0367
 6279SOL    HW224888   1.219   0.738   5.550  1.1884  0.5122 -1.1488
 6279SOL    HW324889   1.303   0.687   5.666 -2.3911 -0.4905  1.1792
 6279SOL    MW424890   1.263   0.673   5.589 -0.6001 -0.0304  0.0743
 6280SOL     OW24891   3.711   2.906   6.213 -0.1903 -0.1525  0.7440
 6280SOL    HW224892   3.617   2.918   6.199 -0.1359 -0.3816  0.1246
 6280SOL    HW324893   3.724   2.925   6.306 -0.8219  0.0356  0.8030
 6280SOL    MW424894   3.700   2.910   6.223 -0.2594  1.0439 -0.3920
 6281SOL     OW24895   0.417   4.995   1.398  0.8827  0.0189 -0.5221
 6281SOL    HW224896   0.374   4.939   1.334  0.9630 -0.2007 -0.3866
 6281SOL    HW324897   0.388   5.084   1.376  0.3882 -0.1220 -0.4541
 6281SOL    MW424898   0.408   4.999   1.387  0.3133  0.2245  0.0776
 6282SOL     OW24899   0.892   2.798   5.575 -0.5955  0.0080  0.2127
 6282SOL    HW224900   0.957   2.805   5.644  0.3442  0.5346 -0.7037
 6282SOL    HW324901   0.889   2.885   5.535  0.6144 -0.8510 -1.9185
 6282SOL    MW424902   0.900   2.810   5.579  0.3783  0.2396 -0.5050
 6283SOL     OW24903   0.583   4.216   5.330 -0.2422  0.1887  0.0240
 6283SOL    HW224904   0.495   4.185   5.308  0.4493 -0.8337 -1.4798
 6283SOL    HW324905   0.629   4.139   5.363  1.4781 -0.6428 -3.7070
 6283SOL    MW424906   0.577   4.202   5.331 -0.1321 -0.1030 -0.0300
 6284SOL     OW24907   0.622   2.080   0.354  0.1587  0.1273 -0.5115
 6284SOL    HW224908   0.634   2.049   0.265 -0.6923  0.5829 -0.8017
 6284SOL    HW324909   0.577   2.164   0.344  1.3893  0.9101  0.2882
 6284SOL    MW424910   0.617   2.087   0.341 -0.3021  0.7597 -0.5355
 6285SOL     OW24911   2.870   5.993   3.154  0.0222 -0.2862 -0.2832
 6285SOL    HW224912   2.823   6.018   3.074  0.2889 -0.5927 -0.5371
 6285SOL    HW324913   2.804   5.948   3.207 -0.2237  0.1480 -0.2143
 6285SOL    MW424914   2.855   5.990   3.150  0.2110  0.3167  0.0131
 6286SOL     OW24915   5.319   2.427   4.509  0.2557  0.0534 -0.2803
 6286SOL    HW224916   5.410   2.400   4.521  0.5664  0.9893 -0.4936
 6286SOL    HW324917   5.275   2.347   4.479  0.5319 -0.9909  1.9213
 6286SOL    MW424918   5.325   2.413   4.507 -0.0146  0.9154 -0.3515
 6287SOL     OW24919   4.768   0.760   4.933  0.2317 -0.1163  0.1862
 6287SOL    HW224920   4.685   0.773   4.980 -0.1403 -0.2882 -0.4153
 6287SOL    HW324921   4.795   0.849   4.909 -0.4587 -0.1427 -0.7565
 6287SOL    MW424922   4.760   0.774   4.936  0.4801 -0.0125 -0.5083
 6288SOL     OW24923   2.324   6.172   1.605  0.7131 -0.3330 -0.0176
 6288SOL    HW224924   2.313   6.267   1.616  1.0694 -0.3733  0.8535
 6288SOL    HW324925   2.257   6.134   1.661  2.8625 -0.5641  2.6277
 6288SOL    MW424926   2.314   6.180   1.614  0.4841  0.6237  0.3300
 6289SOL     OW24927   0.073   4.908   3.644 -0.1725  1.3124 -0.2763
 6289SOL    HW224928   0.005   4.883   3.581 -0.6746 -0.6474  0.9254
 6289SOL    HW324929   0.027   4.911   3.728  1.3302 -1.2730  0.7726
 6289SOL    MW424930   0.058   4.905   3.647 -0.1999  0.5938 -0.2817
 6290SOL     OW24931   2.284   0.017   4.449  0.2987 -0.1560 -0.3803
 6290SOL    HW224932   2.348   0.087   4.465  0.0846  0.1737 -0.9261
 6290SOL    HW324933   2.277   0.013   4.353 -2.1095  1.3083 -0.3479
 6290SOL    MW424934   2.292   0.026   4.438 -0.1443  0.0473 -0.2266
 6291SOL     OW24935   1.157   0.430   2.471  0.6482 -0.1145 -1.0507
 6291SOL    HW224936   1.245   0.402   2.447  1.0067  0.1111 -0.0264
 6291SOL    HW324937   1.156   0.525   2.458  1.4694  0.3218  1.5996
 6291SOL    MW424938   1.168   0.439   2.466  0.3809  0.0642 -0.0617
 6292SOL     OW24939   2.064   4.442   3.720  0.0789 -0.3520 -0.5831
 6292SOL    HW224940   1.993   4.442   3.784  1.5001  0.2106  1.0568
 6292SOL    HW324941   2.065   4.353   3.685 -0.8180 -0.6289  0.0626
 6292SOL    MW424942   2.055   4.430   3.724 -0.3531  0.2897  0.5823
 6293SOL     OW24943   0.950   3.577   4.647 -0.5500 -0.0085 -0.0042
 6293SOL    HW224944   0.932   3.504   4.707 -0.5306  0.1925  0.2455
 6293SOL    HW324945   0.867   3.592   4.602 -0.4211 -0.5285 -0.4368
 6293SOL    MW424946   0.937   3.569   4.649 -0.4682 -0.4256  0.0695
 6294SOL     OW24947   1.898   4.230   1.327 -0.5740  0.1979  0.3519
 6294SOL    HW224948   1.979   4.260   1.284  0.5621 -1.2612  1.4024
 6294SOL    HW324949   1.921   4.224   1.419 -1.3730 -1.8095  0.4555
 6294SOL    MW424950   1.912   4.233   1.333 -0.0180  0.1327  0.2452
 6295SOL     OW24951   6.166   2.940   4.164  0.0384 -0.2883  0.0348
 6295SOL    HW224952   6.128   2.872   4.220 -1.2960  1.2383  1.0713
 6295SOL    HW324953   6.243   2.898   4.124 -0.5071 -2.2557  0.9344
 6295SOL    MW424954   6.171   2.926   4.166 -0.6156  0.0788  0.0848
 6296SOL     OW24955   1.529   6.256   0.979 -0.0550 -0.2217 -0.1523
 6296SOL    HW224956   1.513   6.185   0.917 -0.6756  0.9562 -1.3765
 6296SOL    HW324957   1.577   6.321   0.929  3.6288 -1.1207  1.8316
 6296SOL    MW424958   1.533   6.255   0.964  0.1657  0.1401  0.1558
 6297SOL     OW24959   1.247   2.427   2.890  0.3868 -0.1241  0.4436
 6297SOL    HW224960   1.220   2.335   2.893  1.3705 -0.4695 -0.5997
 6297SOL    HW324961   1.252   2.454   2.981  0.7447 -1.3046  0.7820
 6297SOL    MW424962   1.244   2.418   2.902 -0.5116  0.2014  0.0326
 6298SOL     OW24963   4.622   5.111   2.987  0.2294  0.2060 -0.1621
 6298SOL    HW224964   4.550   5.149   3.037  1.1042  1.7415 -0.0015
 6298SOL    HW324965   4.701   5.154   3.021  1.3533 -2.0483  0.2572
 6298SOL    MW424966   4.623   5.122   2.998 -0.8639 -0.2291  0.8928
 6299SOL     OW24967   4.290   2.099   0.747  0.4136 -0.6441 -0.3518
 6299SOL    HW224968   4.323   2.128   0.832  0.3262 -2.2909  0.2797
 6299SOL    HW324969   4.199   2.128   0.746  0.4052 -0.6441  0.1252
 6299SOL    MW424970   4.282   2.107   0.758 -0.0320  0.2565  0.1281
 6300SOL     OW24971   1.166   5.606   6.118 -0.1789 -0.3265  0.1097
 6300SOL    HW224972   1.100   5.651   6.065 -0.4801 -0.8253  0.0494
 6300SOL    HW324973   1.118   5.577   6.196  0.3287  0.6827  0.8304
 6300SOL    MW424974   1.151   5.608   6.122  0.3440 -0.4111 -0.2102
 6301SOL     OW24975   3.618   6.103   2.739 -0.4616  0.1441  0.0472
 6301SOL    HW224976   3.626   6.194   2.768 -0.7320  0.4782 -0.9101
 6301SOL    HW324977   3.526   6.081   2.753 -0.2836 -0.1728  0.7926
 6301SOL    MW424978   3.607   6.112   2.745 -0.2245  0.1200  0.7569
 6302SOL     OW24979   6.226   6.356   4.210  0.1152 -0.3994  0.4108
 6302SOL    HW224980   6.188   6.408   4.139 -1.7465 -0.4971  1.2832
 6302SOL    HW324981   6.294   6.304   4.168  1.4357  2.0190 -0.6727
 6302SOL    MW424982   6.230   6.356   4.195  0.2625  0.1680  0.1064
 6303SOL     OW24983   1.114   0.098   1.314  0.0081  0.4335  0.2738
 6303SOL    HW224984   1.179   0.140   1.257  0.8084 -0.1884  0.7197
 6303SOL    HW324985   1.117   0.006   1.290 -0.5349  0.3616  0.4741
 6303SOL    MW424986   1.123   0.092   1.303  0.3658  0.7562 -0.0704
 6304SOL     OW24987   5.015   3.788   4.192  0.3303  0.2202 -0.0548
 6304SOL    HW224988   5.038   3.752   4.278 -0.0406 -1.2100 -0.5353
 6304SOL    HW324989   4.964   3.867   4.212  0.0569 -0.2182  1.0450
 6304SOL    MW424990   5.011   3.794   4.206  1.0070 -0.1271 -0.0359
 6305SOL     OW24991   4.327   6.110   4.117 -0.0471  0.0830 -0.0349
 6305SOL    HW224992   4.350   6.076   4.030  0.4393  0.6946 -0.1534
 6305SOL    HW324993   4.366   6.198   4.119  0.0616  0.0177  0.8559
 6305SOL    MW424994   4.335   6.117   4.105  0.0482 -0.4307  0.1951
 6306SOL     OW24995   5.581   4.317   5.363 -0.2232 -0.1344  0.2542
 6306SOL    HW224996   5.675   4.326   5.380 -0.2161  1.4771 -0.4609
 6306SOL    HW324997   5.560   4.228   5.390  1.2128 -0.0437  1.8277
 6306SOL    MW424998   5.590   4.307   5.369  0.1434 -0.3581  0.1078
 6307SOL     OW24999   0.343   5.851   5.100  0.2020  0.2750 -0.0257
 6307SOL    HW225000   0.323   5.842   5.007  0.7455 -2.6014  0.0236
 6307SOL    HW325001   0.263   5.826   5.144  0.7779 -1.2413  0.2189
 6307SOL    MW425002   0.330   5.846   5.094 -0.0903  0.6247  0.0971
 6308SOL     OW25003   1.836   5.164   4.316  0.3059 -0.2460  0.1213
 6308SOL    HW225004   1.799   5.244   4.279 -0.8662 -0.1719  1.3536
 6308SOL    HW325005   1.760   5.107   4.330  1.0450 -1.3212 -0.1204
 6308SOL    MW425006   1.821   5.167   4.313  0.1089  0.6679 -0.1855
 6309SOL     OW25007   5.509   2.110   3.493 -0.1474  0.6360  0.6493
 6309SOL    HW225008   5.515   2.204   3.476 -0.2709  0.8164  1.5788
 6309SOL    HW325009   5.549   2.098   3.579  2.0973 -0.5110 -0.4717
 6309SOL    MW425010   5.515   2.120   3.502  0.2965 -0.4615 -0.1297
 6310SOL     OW25011   0.634   0.267   2.098  0.0579  0.1981 -0.0353
 6310SOL    HW225012   0.695   0.319   2.149 -0.1146 -0.3597  0.7697
 6310SOL    HW325013   0.688   0.225   2.031  0.2571  1.0844 -0.4327
 6310SOL    MW425014   0.649   0.268   2.096  0.1452  0.1290  0.0792
 6311SOL     OW25015   1.963   6.218   2.519 -0.8795 -0.4507 -0.7680
 6311SOL    HW225016   2.000   6.287   2.464 -2.3095 -2.0530 -3.9828
 6311SOL    HW325017   2.039   6.181   2.565  0.2564  1.5533 -0.9007
 6311SOL    MW425018   1.978   6.222   2.518  0.0324 -0.0947 -0.4038
 6312SOL     OW25019   4.797   1.844   1.688 -0.2987  0.0708  0.4506
 6312SOL    HW225020   4.818   1.926   1.644  0.6222  0.0880  0.8949
 6312SOL    HW325021   4.754   1.871   1.769 -1.2102  0.0637 -0.0184
 6312SOL    MW425022   4.794   1.859   1.693 -0.1824  0.1707 -0.1286
 6313SOL     OW25023   5.045   6.026   2.884  0.0784  0.2408 -0.4488
 6313SOL    HW225024   4.953   6.040   2.909  0.0324  0.5903 -0.8023
 6313SOL    HW325025   5.040   5.988   2.796  0.2737  0.3153 -0.4921
 6313SOL    MW425026   5.032   6.023   2.875  0.4503 -0.0687 -0.1277
 6314SOL     OW25027   5.139   3.024   5.492  0.2109 -0.5083 -0.0003
 6314SOL    HW225028   5.220   3.075   5.482  0.2828 -0.9478 -2.0351
 6314SOL    HW325029   5.132   2.974   5.411 -2.5671  0.1504 -0.2593
 6314SOL    MW425030   5.149   3.024   5.480 -0.3678  0.3213  0.1785
 6315SOL     OW25031   3.408   3.317   0.851  0.1857  0.2188 -0.4607
 6315SOL    HW225032   3.350   3.325   0.775  0.2531  0.2904 -0.5045
 6315SOL    HW325033   3.414   3.222   0.866 -1.9411  0.2580  1.0776
 6315SOL    MW425034   3.401   3.305   0.843  0.5365  0.2841 -0.2133
 6316SOL     OW25035   5.061   5.319   0.418  0.3352 -0.1371  0.0274
 6316SOL    HW225036   5.130   5.253   0.425 -1.5453 -2.0710  1.2184
 6316SOL    HW325037   5.094   5.380   0.351  2.8759 -1.3145  0.0712
 6316SOL    MW425038   5.075   5.319   0.410  0.2193 -0.2005 -0.6159
 6317SOL     OW25039   1.487   2.561   6.222  0.2254  0.0756 -0.0695
 6317SOL    HW225040   1.486   2.466   6.238 -1.1950  0.0134 -0.4222
 6317SOL    HW325041   1.420   2.595   6.281  1.5832  1.0409  0.9674
 6317SOL    MW425042   1.478   2.553   6.232  0.9835  0.6314 -0.0667
 6318SOL     OW25043   2.088   0.461   0.458 -0.1146 -0.1649 -0.4607
 6318SOL    HW225044   2.040   0.465   0.375  0.0505  1.9369 -0.4992
 6318SOL    HW325045   2.019   0.460   0.525 -0.2392  0.7450 -0.5686
 6318SOL    MW425046   2.072   0.461   0.456  0.0720  0.4769 -0.0694
 6319SOL     OW25047   3.725   0.560   4.971  0.2539 -0.3341 -0.2842
 6319SOL    HW225048   3.662   0.580   4.902  2.0261 -0.0403 -1.9289
 6319SOL    HW325049   3.782   0.493   4.932  2.1054  0.7850  0.3493
 6319SOL    MW425050   3.724   0.554   4.957 -0.2594  0.3288  0.4736
 6320SOL     OW25051   4.471   0.647   4.419  0.0526 -0.4818  0.5322
 6320SOL    HW225052   4.539   0.709   4.445 -0.2813 -0.3411  1.0791
 6320SOL    HW325053   4.434   0.684   4.339 -0.9824  0.6882  1.5029
 6320SOL    MW425054   4.475   0.660   4.412  0.5751  0.1927 -0.1887
 6321SOL     OW25055   4.777   5.612   4.674  0.1846  0.3590 -0.5168
 6321SOL    HW225056   4.752   5.704   4.686 -1.7599 -0.1735 -0.2418
 6321SOL    HW325057   4.856   5.602   4.727 -0.2191  1.5992  0.3753
 6321SOL    MW425058   4.784   5.623   4.682  0.2104 -0.3588 -0.2841
 6322SOL     OW25059   1.814   2.653   6.097  0.1940  0.3244  0.4670
 6322SOL    HW225060   1.761   2.733   6.094 -0.2490  0.0045 -0.9483
 6322SOL    HW325061   1.872   2.666   6.172 -0.4495  1.6013  0.7770
 6322SOL    MW425062   1.815   2.665   6.106 -0.3563 -0.1021  0.3172
 6323SOL     OW25063   2.090   2.297   4.801  0.1336  0.3694  0.0543
 6323SOL    HW225064   2.105   2.363   4.733  0.6296  0.3086  0.1020
 6323SOL    HW325065   2.102   2.213   4.756  2.2633  0.3265  0.5871
 6323SOL    MW425066   2.093   2.294   4.786 -0.0756 -0.3543 -0.4843
 6324SOL     OW25067   3.371   5.431   6.072  0.3291 -0.4677 -0.0270
 6324SOL    HW225068   3.370   5.486   5.994  0.9618  0.4680  0.6137
 6324SOL    HW325069   3.296   5.462   6.123  0.8923  0.0407  0.4950
 6324SOL    MW425070   3.361   5.442   6.068  0.6822 -0.4363  0.0534
 6325SOL     OW25071   0.254   2.146   3.448 -0.3134 -0.1707  0.2575
 6325SOL    HW225072   0.277   2.115   3.360  0.8049  2.3000 -0.3999
 6325SOL    HW325073   0.283   2.076   3.506  0.2908 -1.2133 -1.2372
 6325SOL    MW425074   0.261   2.133   3.444 -0.1713 -0.0683  0.0025
 6326SOL     OW25075   0.356   2.620   0.741  0.0269  0.0053  0.2372
 6326SOL    HW225076   0.296   2.685   0.705 -0.2050  0.5599  1.5908
 6326SOL    HW325077   0.328   2.537   0.703  0.2189  0.6425 -1.3847
 6326SOL    MW425078   0.345   2.618   0.731 -0.1808  0.2844  0.1544
 6327SOL     OW25079   2.620   0.238   5.054  0.3215  0.3955 -0.5292
 6327SOL    HW225080   2.524   0.237   5.060  0.2966  1.4747 -0.5145
 6327SOL    HW325081   2.644   0.329   5.073  1.5528 -0.4217  2.3720
 6327SOL    MW425082   2.610   0.250   5.058  0.0002 -0.1509  0.4522
 6328SOL     OW25083   3.708   4.441   6.000  0.1696  0.5325  0.2067
 6328SOL    HW225084   3.703   4.384   6.076  0.5911  0.3992  0.1374
 6328SOL    HW325085   3.781   4.407   5.949  0.8933  1.5581  0.5216
 6328SOL    MW425086   3.717   4.429   6.003 -0.4866 -0.2528 -0.6233
 6329SOL     OW25087   2.505   3.600   5.835  0.0908  0.3173  0.4040
 6329SOL    HW225088   2.413   3.596   5.863 -0.4960  3.8139 -0.4863
 6329SOL    HW325089   2.502   3.579   5.742  0.1852  0.4601  0.3687
 6329SOL    MW425090   2.492   3.597   5.826  0.4655  0.2773  0.3063
 6330SOL     OW25091   1.504   3.632   0.016  0.4239 -0.0288 -0.0899
 6330SOL    HW225092   1.516   3.721   0.050  1.0281 -0.4317  0.7881
 6330SOL    HW325093   1.410   3.617   0.022  0.4555  0.1267  0.8598
 6330SOL    MW425094   1.493   3.642   0.021 -0.8227  0.7866 -0.3436
 6331SOL     OW25095   5.316   0.731   1.002 -0.1794  0.3304 -0.0082
 6331SOL    HW225096   5.247   0.797   1.004 -0.6856 -0.2047  0.5899
 6331SOL    HW325097   5.393   0.778   0.969 -0.8158  0.9394 -0.6551
 6331SOL    MW425098   5.317   0.746   0.998 -0.1330 -0.4725  0.4133
 6332SOL     OW25099   1.329   5.103   0.765 -0.5742  0.5763  0.0400
 6332SOL    HW225100   1.256   5.164   0.752 -1.1254 -0.2468 -0.8898
 6332SOL    HW325101   1.406   5.152   0.738 -1.1085  0.6118 -1.5238
 6332SOL    MW425102   1.329   5.117   0.760  0.1375  0.0470  0.1673
 6333SOL     OW25103   6.161   4.130   2.186  0.4515  0.1107  0.4933
 6333SOL    HW225104   6.165   4.175   2.270 -1.2443  0.0964  0.6088
 6333SOL    HW325105   6.078   4.158   2.147 -0.0293 -1.8447 -0.0199
 6333SOL    MW425106   6.150   4.140   2.192 -0.3099 -0.4508 -0.4501
 6334SOL     OW25107   1.779   0.307   3.934  0.1127 -0.0993  0.2229
 6334SOL    HW225108   1.723   0.369   3.887 -0.3384 -2.5313 -2.7722
 6334SOL    HW325109   1.867   0.347   3.929 -0.4137  1.0645 -0.1511
 6334SOL    MW425110   1.783   0.321   3.927 -0.2742  0.4921 -0.2840
 6335SOL     OW25111   2.478   5.773   3.185 -0.0914  0.2885 -0.8636
 6335SOL    HW225112   2.460   5.849   3.130 -0.9118  2.7970  2.5499
 6335SOL    HW325113   2.556   5.798   3.234 -0.2021 -1.2276  0.1251
 6335SOL    MW425114   2.486   5.786   3.184  0.0742  0.6539 -0.8154
 6336SOL     OW25115   3.450   0.454   0.383 -0.1922  0.0031 -0.2284
 6336SOL    HW225116   3.422   0.500   0.303 -2.1020 -2.0397 -0.8457
 6336SOL    HW325117   3.382   0.389   0.397  0.0084  0.3837  3.2187
 6336SOL    MW425118   3.437   0.452   0.374 -0.3652 -0.0416  0.6062
 6337SOL     OW25119   2.128   5.059   2.863 -0.2698  0.0921 -0.0078
 6337SOL    HW225120   2.044   5.064   2.817  0.7518  0.2492 -1.9844
 6337SOL    HW325121   2.129   5.136   2.920 -0.8299  0.9875 -1.1658
 6337SOL    MW425122   2.117   5.070   2.864 -0.2615 -0.4974  0.2907
 6338SOL     OW25123   0.385   5.309   0.063  0.0014 -0.5904  0.0982
 6338SOL    HW225124   0.335   5.287   0.141  0.6237  0.4027  0.8045
 6338SOL    HW325125   0.444   5.235   0.050 -0.7497 -1.1832  0.0104
 6338SOL    MW425126   0.386   5.296   0.071  0.2235 -0.0447  0.4593
 6339SOL     OW25127   4.344   5.280   2.433 -0.2865  0.2558 -0.8718
 6339SOL    HW225128   4.355   5.353   2.495  1.0171  0.8217 -1.7213
 6339SOL    HW325129   4.332   5.203   2.489  0.4418  0.8135  0.0849
 6339SOL    MW425130   4.344   5.279   2.449 -0.2476 -0.7889  0.7844
 6340SOL     OW25131   2.215   5.941   0.401 -0.2422 -0.2999  0.4745
 6340SOL    HW225132   2.170   6.005   0.347 -0.4990 -0.3485  0.6299
 6340SOL    HW325133   2.146   5.904   0.457  0.2963  0.8837  1.9593
 6340SOL    MW425134   2.200   5.944   0.401  0.3358 -0.0538 -0.7187
 6341SOL     OW25135   2.001   3.458   2.314  0.0180  0.5288 -0.0055
 6341SOL    HW225136   2.066   3.527   2.322  0.4189  0.0319  1.3792
 6341SOL    HW325137   2.042   3.381   2.354 -0.8825 -0.1817 -0.4006
 6341SOL    MW425138   2.015   3.457   2.320 -0.0787 -0.1030  0.3063
 6342SOL     OW25139   0.864   1.699   1.848  0.8430 -0.5840 -0.1267
 6342SOL    HW225140   0.843   1.606   1.834  0.3886 -0.3183 -1.3160
 6342SOL    HW325141   0.779   1.743   1.842  1.3013  0.1278 -1.5663
 6342SOL    MW425142   0.850   1.692   1.845 -0.2186 -0.0269 -0.3474
 6343SOL     OW25143   2.825   0.510   5.630 -0.5702  0.4312 -0.1415
 6343SOL    HW225144   2.829   0.426   5.586 -2.4176  0.3455 -0.2390
 6343SOL    HW325145   2.807   0.488   5.722  0.4490  0.6919  0.1316
 6343SOL    MW425146   2.823   0.496   5.637 -0.2903 -0.0955  0.1787
 6344SOL     OW25147   1.580   4.328   6.235 -0.1892 -0.1543  0.2496
 6344SOL    HW225148   1.597   4.398   6.298  2.6339  0.8416 -1.4133
 6344SOL    HW325149   1.580   4.372   6.150 -0.6913 -1.8850 -0.7075
 6344SOL    MW425150   1.582   4.343   6.232 -0.7689  0.0019  0.1683
 6345SOL     OW25151   5.341   1.376   4.901  0.0155 -0.1746  0.3431
 6345SOL    HW225152   5.284   1.347   4.830  0.4778 -0.4444  0.0712
 6345SOL    HW325153   5.395   1.299   4.921  1.9136  0.7078 -1.0167
 6345SOL    MW425154   5.341   1.362   4.895  0.4098  0.2100  0.1884
 6346SOL     OW25155   0.878   4.241   5.860  0.1849 -0.3436  0.3843
 6346SOL    HW225156   0.929   4.160   5.860  0.9963 -0.0764 -3.6259
 6346SOL    HW325157   0.938   4.307   5.895  1.0000 -0.8380 -0.0348
 6346SOL    MW425158   0.893   4.239   5.865 -0.0725  0.2366  0.5954
 6347SOL     OW25159   3.986   6.072   2.460  0.4716 -0.3037  0.1089
 6347SOL    HW225160   3.964   5.979   2.453  0.7136 -0.2814 -1.3685
 6347SOL    HW325161   4.005   6.099   2.370 -1.6429  1.6953  0.1565
 6347SOL    MW425162   3.985   6.063   2.447 -0.2832 -0.0287 -0.0678
 6348SOL     OW25163   5.436   3.124   1.518  0.3013  0.1539  0.0032
 6348SOL    HW225164   5.410   3.033   1.509 -0.7254  0.3605  0.6537
 6348SOL    HW325165   5.452   3.135   1.612 -0.0806  0.7645  0.0018
 6348SOL    MW425166   5.435   3.114   1.530 -0.4484 -0.0615 -0.0674
 6349SOL     OW25167   0.977   4.481   0.774  0.0941 -0.1050  0.2645
 6349SOL    HW225168   0.910   4.441   0.719 -0.2477  2.0171 -1.0104
 6349SOL    HW325169   1.006   4.411   0.832 -2.2822 -1.4368 -0.0245
 6349SOL    MW425170   0.972   4.467   0.774  0.0984  0.2636 -0.4327
 6350SOL     OW25171   4.056   6.378   0.745  0.3262 -0.2962  0.4559
 6350SOL    HW225172   4.122   6.311   0.765  1.2054 -0.0550 -1.4525
 6350SOL    HW325173   3.975   6.328   0.730  0.3369 -0.6883  1.5790
 6350SOL    MW425174   4.054   6.362   0.746 -0.2868 -0.2755  0.0650
 6351SOL     OW25175   5.152   3.098   1.555 -0.3611 -0.1350  0.0043
 6351SOL    HW225176   5.181   3.172   1.501 -1.9358  1.6464  1.4628
 6351SOL    HW325177   5.198   3.111   1.638  0.8872 -2.0038 -0.3265
 6351SOL    MW425178   5.162   3.110   1.559 -0.1268 -0.0730 -0.2068
 6352SOL     OW25179   1.615   4.819   0.228 -0.4415 -0.3936  0.5697
 6352SOL    HW225180   1.607   4.914   0.232  1.7854 -0.0927 -0.2867
 6352SOL    HW325181   1.614   4.791   0.320 -1.0708  0.4517  0.8346
 6352SOL    MW425182   1.614   4.828   0.241 -0.2994 -0.0440 -0.1497
 6353SOL     OW25183   5.565   4.938   4.867 -0.1805 -0.3536  0.1776
 6353SOL    HW225184   5.626   4.866   4.850  0.1768 -0.2046  0.7763
 6353SOL    HW325185   5.492   4.898   4.914  1.1326  0.0178  2.7368
 6353SOL    MW425186   5.563   4.923   4.871  0.0641  0.3671  0.2436
 6354SOL     OW25187   2.326   3.980   3.984 -0.1228 -0.0732 -0.1595
 6354SOL    HW225188   2.271   3.908   3.955 -1.0114  1.2447 -2.0107
 6354SOL    HW325189   2.266   4.039   4.029  0.6218 -0.5309  1.4843
 6354SOL    MW425190   2.311   3.979   3.986  0.8279 -0.1055  0.6844
 6355SOL     OW25191   2.667   4.964   3.600 -0.1911  0.4885 -0.0187
 6355SOL    HW225192   2.707   5.029   3.543 -0.8187  1.8230  1.0160
 6355SOL    HW325193   2.613   5.015   3.661 -0.2500 -0.9484  1.1929
 6355SOL    MW425194   2.665   4.979   3.601  0.4147 -0.0058  0.2796
 6356SOL     OW25195   6.002   6.126   1.158  0.4058  0.7929 -0.1837
 6356SOL    HW225196   6.047   6.046   1.130 -0.1045  0.5268 -0.2551
 6356SOL    HW325197   5.945   6.149   1.084 -1.2161 -0.1065  0.7382
 6356SOL    MW425198   6.001   6.119   1.144 -0.2923  0.3996 -0.2021
 6357SOL     OW25199   3.360   5.072   6.379 -0.5801 -0.3311 -0.2579
 6357SOL    HW225200   3.424   5.138   6.407  0.3829 -0.8670 -1.0972
 6357SOL    HW325201   3.396   4.989   6.411 -0.5169 -0.7081 -1.2723
 6357SOL    MW425202   3.373   5.070   6.387 -0.4664 -0.0176 -0.2716
 6358SOL     OW25203   3.064   2.076   5.500 -0.3484  0.1539  0.1590
 6358SOL    HW225204   3.047   2.163   5.537 -2.0877  0.2321 -0.7193
 6358SOL    HW325205   3.037   2.083   5.409 -0.7641 -1.3794  0.1425
 6358SOL    MW425206   3.058   2.089   5.493 -0.2384  0.1312 -0.5237
 6359SOL     OW25207   5.016   5.550   5.974  0.8082 -0.1370  0.6464
 6359SOL    HW225208   5.011   5.545   6.069 -0.1398 -0.1919  0.6012
 6359SOL    HW325209   4.983   5.465   5.944  2.3170 -0.6297  0.2866
 6359SOL    MW425210   5.011   5.538   5.982 -1.3173  0.0461 -0.0871
 6360SOL     OW25211   0.472   1.172   4.102 -0.1675 -0.3002  0.0015
 6360SOL    HW225212   0.448   1.087   4.065 -0.6989 -0.1595  0.0126
 6360SOL    HW325213   0.488   1.227   4.025 -2.0877  0.2272 -0.0797
 6360SOL    MW425214   0.471   1.168   4.087 -0.5534 -0.0153  0.0969
 6361SOL     OW25215   4.565   0.041   0.793 -0.1885  0.2795  0.2973
 6361SOL    HW225216   4.582  -0.032   0.852 -2.7868 -1.0405 -0.4574
 6361SOL    HW325217   4.489   0.085   0.832 -0.2290  1.0390 -0.6136
 6361SOL    MW425218   4.557   0.037   0.806  0.5387 -0.1939 -0.3769
 6362SOL     OW25219   3.629   1.673   4.117 -0.0950  0.7355 -0.3606
 6362SOL    HW225220   3.689   1.661   4.190  0.4990 -0.6005 -1.0333
 6362SOL    HW325221   3.622   1.768   4.107 -0.9741  0.9715  2.0215
 6362SOL    MW425222   3.636   1.684   4.125  0.5398 -0.2954 -0.2094
 6363SOL     OW25223   4.370   3.615   1.013  0.4249 -0.4675 -0.0939
 6363SOL    HW225224   4.416   3.563   0.948 -0.2127  0.8814 -1.6985
 6363SOL    HW325225   4.393   3.575   1.097  3.0880 -0.8882 -0.9336
 6363SOL    MW425226   4.379   3.603   1.016  0.0636  0.1159  0.2059
 6364SOL     OW25227   0.392   1.656   1.218 -0.2348  0.3432 -0.2963
 6364SOL    HW225228   0.435   1.575   1.242 -0.7329  0.0024 -0.5330
 6364SOL    HW325229   0.453   1.699   1.157  0.4334  0.5901  0.5377
 6364SOL    MW425230   0.405   1.651   1.213 -0.2139  0.4691 -0.3690
 6365SOL     OW25231   0.218   3.951   3.162  0.1811 -0.1705  0.0136
 6365SOL    HW225232   0.167   3.913   3.090 -0.1240  0.0536  0.1067
 6365SOL    HW325233   0.152   3.982   3.224  0.3471  1.7805 -0.7033
 6365SOL    MW425234   0.203   3.950   3.161 -0.3704 -0.2048  0.3682
 6366SOL     OW25235   1.510   4.368   4.521  0.0847 -0.1881  0.2124
 6366SOL    HW225236   1.487   4.372   4.428  1.5180 -2.1133 -0.2982
 6366SOL    HW325237   1.427   4.351   4.565 -0.5254  0.1096 -0.7833
 6366SOL    MW425238   1.496   4.366   4.514 -0.1706 -0.3532 -0.2266
 6367SOL     OW25239   3.009   3.451   1.036 -0.2842  0.7767  0.8834
 6367SOL    HW225240   3.105   3.456   1.039 -0.0360 -1.8038  0.0103
 6367SOL    HW325241   2.984   3.511   0.966  0.7054  1.3411  0.9983
 6367SOL    MW425242   3.019   3.459   1.027  0.8560  0.4446 -0.0708
 6368SOL     OW25243   1.059   2.026   3.912  0.3064  0.3190  0.2064
 6368SOL    HW225244   1.107   2.108   3.922  0.3025  0.4468 -0.7782
 6368SOL    HW325245   1.060   1.988   4.000  0.8797  1.0492  0.5336
 6368SOL    MW425246   1.066   2.032   3.925  0.1113  0.4757  0.9592
 6369SOL     OW25247   1.414   5.479   3.975  0.4276  0.0613 -0.5653
 6369SOL    HW225248   1.423   5.394   4.019 -3.0207 -0.4268 -0.4817
 6369SOL    HW325249   1.458   5.467   3.891  1.4680 -1.2080  0.1098
 6369SOL    MW425250   1.421   5.466   3.970  0.4306  0.1554 -0.1928
 6370SOL     OW25251   1.884   3.568   5.555 -0.1062 -0.0277 -0.7006
 6370SOL    HW225252   1.944   3.627   5.509 -1.4857  0.0971 -2.4038
 6370SOL    HW325253   1.798   3.588   5.519 -0.9772 -1.2857  0.5880
 6370SOL    MW425254   1.881   3.579   5.544  0.5891  0.4391 -0.0667
 6371SOL     OW25255   6.085   4.573   0.277 -0.0943  0.3921 -0.0681
 6371SOL    HW225256   6.139   4.522   0.337 -0.7895 -0.5194 -0.2046
 6371SOL    HW325257   6.052   4.509   0.214  0.7648  1.3485 -1.5496
 6371SOL    MW425258   6.088   4.558   0.276 -0.0159 -0.1692 -0.4910
 6372SOL     OW25259   4.922   5.391   5.216 -0.2212 -0.3440  0.2344
 6372SOL    HW225260   4.849   5.329   5.221  0.5517 -1.2347  0.7774
 6372SOL    HW325261   4.923   5.435   5.301 -1.7826  1.6732 -0.6777
 6372SOL    MW425262   4.913   5.389   5.228  0.0066  0.0279  0.0046
 6373SOL     OW25263   2.284   5.953   6.081 -0.5753 -0.1892 -0.6178
 6373SOL    HW225264   2.275   5.947   6.176 -0.0371  0.0832 -0.5469
 6373SOL    HW325265   2.379   5.957   6.066 -0.6679  0.1075 -1.1447
 6373SOL    MW425266   2.295   5.952   6.092 -0.1102  0.1022 -0.1282
 6374SOL     OW25267   3.550   3.552   1.335  0.3662  0.3027 -0.3609
 6374SOL    HW225268   3.583   3.486   1.397 -1.2721 -0.8947 -0.7054
 6374SOL    HW325269   3.600   3.536   1.255  0.9182  0.3688 -0.0345
 6374SOL    MW425270   3.561   3.541   1.333 -0.0740  0.2771 -0.0387
 6375SOL     OW25271   5.671   5.555   0.710  0.0564  0.5161  0.6494
 6375SOL    HW225272   5.728   5.625   0.677  0.7868 -1.1264 -1.8490
 6375SOL    HW325273   5.730   5.499   0.761  0.2620 -0.1061 -0.2547
 6375SOL    MW425274   5.687   5.557   0.713  0.1351  0.5072  0.3697
 6376SOL     OW25275   4.234   5.388   2.187 -0.3412 -0.0703 -0.2589
 6376SOL    HW225276   4.313   5.437   2.166 -1.2949  2.1130  0.9621
 6376SOL    HW325277   4.249   5.355   2.276 -0.6589  0.0460 -0.1620
 6376SOL    MW425278   4.246   5.390   2.196 -0.3866 -0.1562  0.6159
 6377SOL     OW25279   1.886   5.551   2.098 -0.1805  0.4150  0.0656
 6377SOL    HW225280   1.831   5.621   2.062 -1.8285 -0.4780  0.7532
 6377SOL    HW325281   1.828   5.475   2.102  0.8953 -0.3628  1.5199
 6377SOL    MW425282   1.871   5.551   2.094  0.2999 -0.0678 -0.0781
 6378SOL     OW25283   2.071   1.561   5.396 -0.0870 -0.0730 -0.5768
 6378SOL    HW225284   2.143   1.509   5.362  0.0170 -0.3372  0.0244
 6378SOL    HW325285   2.108   1.648   5.409  0.6493 -0.6052  1.3371
 6378SOL    MW425286   2.085   1.566   5.393 -0.2393 -0.3782 -0.0934
 6379SOL     OW25287   5.177   1.177   2.876  0.3705 -0.0049  0.5145
 6379SOL    HW225288   5.163   1.270   2.858  1.4360  0.0815  0.0744
 6379SOL    HW325289   5.195   1.173   2.970 -1.5766 -0.0182  0.9300
 6379SOL    MW425290   5.177   1.189   2.886  0.2689 -0.2039  0.1468
 6380SOL     OW25291   3.451   3.408   5.639 -0.3799  0.3233 -0.3603
 6380SOL    HW225292   3.525   3.467   5.625  1.4228 -1.3743  1.4656
 6380SOL    HW325293   3.375   3.465   5.642  1.1957  2.4967  0.6175
 6380SOL    MW425294   3.451   3.423   5.637  0.0814 -0.1227 -0.1461
 6381SOL     OW25295   5.678   1.562   2.160 -0.2545  0.1673  0.3088
 6381SOL    HW225296   5.609   1.580   2.224 -0.7357 -0.2539 -0.0768
 6381SOL    HW325297   5.729   1.643   2.156 -0.7539  0.5004  0.5700
 6381SOL    MW425298   5.676   1.575   2.168 -0.5380  0.2037  0.4845
 6382SOL     OW25299   3.822   1.222   4.559 -0.3165 -0.4551  0.7443
 6382SOL    HW225300   3.832   1.194   4.650  0.6228 -0.3683  0.6744
 6382SOL    HW325301   3.865   1.307   4.555 -1.0947 -0.0673  0.4056
 6382SOL    MW425302   3.829   1.230   4.571 -0.4694  0.7182 -0.1978
 6383SOL     OW25303   4.179   1.105   0.212  0.1013 -0.0301 -0.0386
 6383SOL    HW225304   4.110   1.146   0.265  0.8507  0.2876  0.7088
 6383SOL    HW325305   4.255   1.102   0.269  0.1203 -2.4354 -0.0579
 6383SOL    MW425306   4.180   1.110   0.227  0.1296 -0.2179 -0.4385
 6384SOL     OW25307   0.082   6.108   0.344 -0.1215  0.0937  0.0599
 6384SOL    HW225308   0.161   6.154   0.315 -1.4275  1.7695 -1.0563
 6384SOL    HW325309   0.010   6.154   0.300 -1.7574 -1.1568  1.2920
 6384SOL    MW425310   0.083   6.120   0.334 -0.1851 -0.4137 -0.4846
 6385SOL     OW25311   6.348   4.899   3.880 -0.2799 -0.2325  0.3419
 6385SOL    HW225312   6.256   4.921   3.896 -0.7446 -1.4597 -0.4715
 6385SOL    HW325313   6.347   4.804   3.866  0.9055 -0.0668 -1.0814
 6385SOL    MW425314   6.336   4.889   3.880 -0.1109 -0.6296  0.2585
 6386SOL     OW25315   4.097   4.315   4.097  0.3679 -0.3403  0.0750
 6386SOL    HW225316   4.143   4.302   4.014 -0.2952  0.5182 -0.4434
 6386SOL    HW325317   4.161   4.291   4.164  0.9215 -1.0228 -0.6820
 6386SOL    MW425318   4.112   4.310   4.095  0.9156  0.2014 -0.1840
 6387SOL     OW25319   2.891   5.679   0.720 -0.1506 -0.1572 -0.2999
 6387SOL    HW225320   2.823   5.732   0.760  0.0677 -0.2991  0.2633
 6387SOL    HW325321   2.917   5.728   0.642  0.8985  1.1783  0.8396
 6387SOL    MW425322   2.885   5.692   0.715 -0.1518  0.4516  0.4104
 6388SOL     OW25323   0.440   0.264   2.972 -0.1952  0.9122  1.2198
 6388SOL    HW225324   0.401   0.178   2.987  1.1620  0.0057 -0.1211
 6388SOL    HW325325   0.509   0.272   3.038  0.5430  0.3668  0.5403
 6388SOL    MW425326   0.444   0.254   2.982 -0.0288  0.3208  0.0032
 6389SOL     OW25327   2.515   1.553   2.414 -0.0886  0.2322 -0.4157
 6389SOL    HW225328   2.572   1.507   2.352 -0.2784 -1.8128  0.8716
 6389SOL    HW325329   2.438   1.578   2.362 -0.1865 -1.3341 -1.0547
 6389SOL    MW425330   2.512   1.550   2.399  0.7293  0.0723 -0.0102
 6390SOL     OW25331   0.614   4.184   6.005 -0.1332 -0.1617  0.3045
 6390SOL    HW225332   0.700   4.191   5.964  0.7414 -0.6076  1.9772
 6390SOL    HW325333   0.561   4.250   5.961  1.0275  0.0516 -0.8370
 6390SOL    MW425334   0.618   4.193   5.994  0.1109 -0.9095  0.6039
 6391SOL     OW25335   6.209   0.184   4.756 -0.0031 -0.0509 -0.3223
 6391SOL    HW225336   6.190   0.121   4.825 -1.8409  0.6067 -0.1820
 6391SOL    HW325337   6.293   0.155   4.719  1.4517 -0.0378  2.6337
 6391SOL    MW425338   6.218   0.172   4.761  0.2533 -0.3817 -0.6683
 6392SOL     OW25339   4.815   1.989   3.310 -0.1517 -0.1618  0.3586
 6392SOL    HW225340   4.852   1.989   3.221  0.0073 -2.0117  0.4003
 6392SOL    HW325341   4.783   2.079   3.322 -0.2983  0.0932 -1.6107
 6392SOL    MW425342   4.816   2.001   3.300  0.7007 -0.6821 -0.1349
 6393SOL     OW25343   0.943   3.625   1.044  0.2443  0.4837 -0.1503
 6393SOL    HW225344   0.885   3.650   1.116  0.6601 -0.3851  0.4897
 6393SOL    HW325345   1.011   3.693   1.043  0.4547  0.2871  0.5264
 6393SOL    MW425346   0.944   3.637   1.053  0.1662 -0.1580 -0.0464
 6394SOL     OW25347   2.867   5.828   4.518  0.2316 -0.7010 -0.1995
 6394SOL    HW225348   2.930   5.892   4.551  0.2352  0.4298 -2.2283
 6394SOL    HW325349   2.789   5.840   4.573  1.1621 -0.8777  1.1923
 6394SOL    MW425350   2.865   5.838   4.529 -0.2400 -0.1396 -0.2034
 6395SOL     OW25351   4.602   1.914   4.765 -0.1363  0.7326  0.0631
 6395SOL    HW225352   4.625   1.950   4.851 -0.9125 -0.5207  0.8311
 6395SOL    HW325353   4.530   1.971   4.735 -0.2061  0.8760  0.4820
 6395SOL    MW425354   4.595   1.927   4.773 -0.2698 -0.1000  0.6780
 6396SOL     OW25355   1.690   3.777   1.833  0.1549 -0.4256 -0.2637
 6396SOL    HW225356   1.759   3.796   1.769 -0.8856 -1.3134 -1.6910
 6396SOL    HW325357   1.613   3.757   1.781 -1.0371 -0.0921  1.2992
 6396SOL    MW425358   1.689   3.777   1.818 -0.0313 -0.5194 -0.5862
 6397SOL     OW25359   0.816   0.179   4.999 -0.2228  0.4631 -0.4429
 6397SOL    HW225360   0.778   0.091   5.000  1.2451 -0.3039 -3.0082
 6397SOL    HW325361   0.742   0.236   4.978 -0.6601 -0.5638 -1.8181
 6397SOL    MW425362   0.801   0.175   4.996  0.1454 -0.4321 -0.0451
 6398SOL     OW25363   2.508   0.760   3.343 -0.1910  0.0584  0.0411
 6398SOL    HW225364   2.528   0.848   3.374  0.2248 -0.0088 -0.0304
 6398SOL    HW325365   2.413   0.758   3.334 -0.1028  0.9307 -1.2513
 6398SOL    MW425366   2.498   0.771   3.346 -0.5489  0.3942  0.0733
 6399SOL     OW25367   5.292   1.557   0.673  0.3491 -0.4418  0.3435
 6399SOL    HW225368   5.347   1.535   0.597 -1.9952 -1.2386 -1.2298
 6399SOL    HW325369   5.354   1.585   0.740  2.4975  1.3556 -2.1852
 6399SOL    MW425370   5.307   1.558   0.672  0.1625  0.0935  0.3313
 6400SOL     OW25371   2.703   1.646   0.842 -0.1512  0.2807  0.0209
 6400SOL    HW225372   2.798   1.634   0.849  0.0491 -0.5105 -2.7392
 6400SOL    HW325373   2.690   1.740   0.837  1.0006  0.3719 -3.6173
 6400SOL    MW425374   2.714   1.657   0.843 -0.3251  0.3934 -0.4371
 6401SOL     OW25375   5.465   0.876   3.266 -0.5585 -0.1493  0.0971
 6401SOL    HW225376   5.507   0.902   3.184  2.2097 -0.6091  1.2599
 6401SOL    HW325377   5.436   0.958   3.305 -0.1510  0.2721 -0.4632
 6401SOL    MW425378   5.467   0.890   3.260  0.3268 -0.5461 -0.9146
 6402SOL     OW25379   2.015   3.699   2.532  0.4687 -0.5933 -0.4763
 6402SOL    HW225380   2.085   3.704   2.467 -0.2944 -0.1266 -1.2869
 6402SOL    HW325381   1.966   3.781   2.521 -1.1270 -1.5675 -1.0159
 6402SOL    MW425382   2.018   3.711   2.522  0.1800  0.5364  0.0909
 6403SOL     OW25383   1.854   3.846   3.628 -0.2809  0.0754  0.2572
 6403SOL    HW225384   1.811   3.761   3.626  1.1587 -0.6924 -2.1244
 6403SOL    HW325385   1.946   3.827   3.608  0.7957  1.8770  2.9536
 6403SOL    MW425386   1.860   3.833   3.625  0.0026  0.3682  0.2457
 6404SOL     OW25387   0.298   2.806   1.968  0.6082 -0.1567  0.0120
 6404SOL    HW225388   0.318   2.805   1.874  3.9484  1.1973  0.5408
 6404SOL    HW325389   0.384   2.816   2.010 -0.5770 -2.4817  3.3396
 6404SOL    MW425390   0.312   2.807   1.961  0.0981  0.1638  0.3781
 6405SOL     OW25391   3.348   4.561   2.441  0.4598 -0.5905 -1.1973
 6405SOL    HW225392   3.253   4.553   2.450  0.2267  1.2144 -1.6240
 6405SOL    HW325393   3.374   4.483   2.393 -0.6658 -1.5670 -0.2819
 6405SOL    MW425394   3.339   4.550   2.436  0.0530 -0.6704  0.5274
 6406SOL     OW25395   0.793   6.236   6.092  0.1095 -0.0561 -0.2293
 6406SOL    HW225396   0.816   6.298   6.162  0.5559  1.2024 -1.4353
 6406SOL    HW325397   0.867   6.239   6.032  0.8312 -2.9400  0.3885
 6406SOL    MW425398   0.806   6.245   6.093  0.1663 -0.1722  0.8502
 6407SOL     OW25399   3.940   2.876   0.527  0.5379  0.6379  0.4857
 6407SOL    HW225400   3.911   2.788   0.551 -0.7288  0.8402 -0.1812
 6407SOL    HW325401   3.865   2.931   0.547  1.2901  1.5626  0.8107
 6407SOL    MW425402   3.926   2.871   0.533  0.1305  0.3032  0.3051
 6408SOL     OW25403   1.257   4.567   2.285 -0.1109  0.4190  0.1697
 6408SOL    HW225404   1.211   4.522   2.215 -0.4726  1.4948 -0.3017
 6408SOL    HW325405   1.268   4.657   2.253 -0.7159  1.0598  1.6850
 6408SOL    MW425406   1.252   4.573   2.272  0.0432 -1.0031  0.2448
 6409SOL     OW25407   4.209   2.732   1.543  0.2410  0.0850 -0.0749
 6409SOL    HW225408   4.188   2.790   1.616 -1.3127 -0.2903 -0.1808
 6409SOL    HW325409   4.283   2.680   1.574  2.0078  2.3866 -0.1673
 6409SOL    MW425410   4.216   2.733   1.557  0.6254  0.1970  0.5365
 6410SOL     OW25411   1.728   5.111   6.135  0.1448  0.3290  0.3300
 6410SOL    HW225412   1.767   5.027   6.158 -2.3039 -1.1190 -0.4607
 6410SOL    HW325413   1.680   5.137   6.213  0.5582  0.8009  0.4303
 6410SOL    MW425414   1.727   5.103   6.148  0.9600 -0.3296  0.1371
 6411SOL     OW25415   6.187   0.358   3.700 -0.6044 -0.1114  0.1859
 6411SOL    HW225416   6.273   0.398   3.702 -0.1167 -0.9438 -1.7249
 6411SOL    HW325417   6.203   0.265   3.713 -1.0059 -0.4761 -1.5989
 6411SOL    MW425418   6.200   0.351   3.702  0.1242 -0.6511 -0.0629
 6412SOL     OW25419   4.120   3.606   4.390  0.4363 -0.5112 -0.4744
 6412SOL    HW225420   4.131   3.694   4.356  0.0718 -0.0780  0.4836
 6412SOL    HW325421   4.210   3.573   4.402  0.7046  0.8871  1.9991
 6412SOL    MW425422   4.134   3.613   4.387 -0.2691 -0.3555 -0.2473
 6413SOL     OW25423   6.244   5.642   4.449  0.0762  0.0122  0.4963
 6413SOL    HW225424   6.247   5.726   4.494  0.9593  0.8437 -1.0290
 6413SOL    HW325425   6.331   5.604   4.463  0.6065  0.5932 -0.9940
 6413SOL    MW425426   6.256   5.648   4.457  0.2138 -0.1439 -0.2885
 6414SOL     OW25427   3.843   0.214   1.513 -0.4033 -0.4367  0.7010
 6414SOL    HW225428   3.907   0.282   1.492  0.2520 -0.3694  2.6730
 6414SOL    HW325429   3.758   0.257   1.504 -0.1732 -0.3153 -1.2243
 6414SOL    MW425430   3.840   0.228   1.509  0.1150  0.1313  0.0443
 6415SOL     OW25431   0.456   5.755   0.905  0.9661  0.1106  0.3399
 6415SOL    HW225432   0.517   5.821   0.872  0.8928  0.5412  1.0256
 6415SOL    HW325433   0.384   5.806   0.943  1.9286 -0.2452  2.8554
 6415SOL    MW425434   0.455   5.771   0.906  0.5690  0.0628  0.4135
 6416SOL     OW25435   5.872   5.420   2.189  0.3438 -0.1062 -0.1076
 6416SOL    HW225436   5.817   5.368   2.247  0.4713  0.3066  0.3878
 6416SOL    HW325437   5.899   5.495   2.242  0.3537  0.3453 -0.7354
 6416SOL    MW425438   5.868   5.423   2.203 -0.4437 -0.3082 -0.8742
 6417SOL     OW25439   3.055   2.325   5.015  0.4440  0.1112  0.4938
 6417SOL    HW225440   3.041   2.301   4.923 -1.0589  0.0859  0.7071
 6417SOL    HW325441   3.040   2.243   5.063  0.8953  0.2027  0.7994
 6417SOL    MW425442   3.051   2.311   5.009  0.7120  0.1428 -0.0887
 6418SOL     OW25443   1.925   1.883   5.396  0.5144 -0.5256  0.5550
 6418SOL    HW225444   1.883   1.969   5.393 -1.6077 -1.5003 -0.3875
 6418SOL    HW325445   1.967   1.874   5.310  0.2743 -0.6218  0.4454
 6418SOL    MW425446   1.925   1.893   5.384  0.0072  0.5899 -0.3006
 6419SOL     OW25447   0.530   1.270   1.120 -0.0586 -0.4515  0.0457
 6419SOL    HW225448   0.458   1.208   1.109  0.3304 -0.8791 -0.1326
 6419SOL    HW325449   0.566   1.282   1.032  0.4918 -0.7423  0.2245
 6419SOL    MW425450   0.526   1.263   1.107 -0.2543 -0.4084  0.2630
 6420SOL     OW25451   1.952   6.414   4.058 -0.0841 -0.1753 -0.7437
 6420SOL    HW225452   1.902   6.478   4.109  0.1781 -0.1951 -0.4622
 6420SOL    HW325453   2.041   6.419   4.093 -0.0834 -0.7655 -0.6502
 6420SOL    MW425454   1.957   6.423   4.069  0.4282 -0.1113 -0.1750
 6421SOL     OW25455   1.090   0.797   0.748  0.1833  0.1315  0.1235
 6421SOL    HW225456   1.026   0.846   0.800  1.3029  2.4364 -0.5519
 6421SOL    HW325457   1.038   0.752   0.682 -0.8968  0.3748  0.7865
 6421SOL    MW425458   1.075   0.798   0.746  0.4268  0.0937 -0.1796
 6422SOL     OW25459   5.733   4.839   3.847 -0.4187 -0.5176 -0.3545
 6422SOL    HW225460   5.669   4.887   3.793 -0.8895 -0.3402  0.3427
 6422SOL    HW325461   5.710   4.747   3.836 -0.9372 -0.4433  0.0523
 6422SOL    MW425462   5.722   4.833   3.838 -0.0962 -0.2198 -0.1049
 6423SOL     OW25463   2.627   2.866   4.000  0.2615  0.7905  0.1497
 6423SOL    HW225464   2.541   2.853   3.960 -0.6596  0.5955  2.0389
 6423SOL    HW325465   2.648   2.781   4.039  1.2584  0.8830 -0.1527
 6423SOL    MW425466   2.618   2.853   4.000  0.3214  0.9876 -0.1232
 6424SOL     OW25467   4.560   0.338   3.018 -0.3916 -0.0830  0.3304
 6424SOL    HW225468   4.638   0.350   3.071 -0.7102 -1.7492  1.2329
 6424SOL    HW325469   4.561   0.246   2.993 -1.3558  0.1873 -0.8061
 6424SOL    MW425470   4.570   0.327   3.022 -0.3946 -0.7583 -0.4077
 6425SOL     OW25471   3.523   3.631   6.036  0.2405 -0.1769  0.1233
 6425SOL    HW225472   3.463   3.586   5.976 -0.4259  1.0147 -0.1334
 6425SOL    HW325473   3.536   3.718   5.997  1.9393 -0.3009  0.3094
 6425SOL    MW425474   3.517   3.637   6.023 -0.6200  0.6972 -0.1362
 6426SOL     OW25475   5.827   6.250   3.310  0.0819 -0.3297  0.3378
 6426SOL    HW225476   5.897   6.269   3.372  0.1819 -1.0778  0.4547
 6426SOL    HW325477   5.764   6.197   3.359  0.2050 -1.0043 -0.2166
 6426SOL    MW425478   5.828   6.246   3.325  0.4419  0.5053 -0.3052
 6427SOL     OW25479   3.107   5.026   0.189 -0.5295  0.5273  0.3255
 6427SOL    HW225480   3.028   5.016   0.243 -0.8002  1.2160  0.0765
 6427SOL    HW325481   3.095   5.111   0.146  0.6685  0.9570  0.8072
 6427SOL    MW425482   3.095   5.036   0.190  0.1575  0.0718  0.1790
 6428SOL     OW25483   1.767   0.167   4.194 -0.3824  0.9410 -0.1234
 6428SOL    HW225484   1.745   0.220   4.117 -0.8275  0.2770 -0.4648
 6428SOL    HW325485   1.820   0.225   4.249  1.3708  0.9055 -1.6788
 6428SOL    MW425486   1.771   0.181   4.191 -0.2168  0.5447  0.4158
 6429SOL     OW25487   5.647   0.130   0.212  0.3613 -0.1211  0.3494
 6429SOL    HW225488   5.564   0.084   0.223 -0.3188  0.5896 -1.3771
 6429SOL    HW325489   5.707   0.063   0.179  0.0111 -0.2985  0.0590
 6429SOL    MW425490   5.644   0.115   0.209 -0.5701 -0.5939  0.6268
 6430SOL     OW25491   5.223   3.321   1.415  0.0955 -0.1907 -0.0625
 6430SOL    HW225492   5.263   3.385   1.358 -0.0351 -2.6582 -3.2035
 6430SOL    HW325493   5.129   3.327   1.396 -0.0329 -0.6078  0.4010
 6430SOL    MW425494   5.216   3.330   1.405 -0.1613  0.3863 -0.1441
 6431SOL     OW25495   5.849   1.383   0.726 -0.0678  0.1722 -0.0707
 6431SOL    HW225496   5.812   1.295   0.718  0.3320 -0.0971  0.8716
 6431SOL    HW325497   5.804   1.434   0.658  0.3794 -0.9727 -1.2780
 6431SOL    MW425498   5.838   1.378   0.716  0.4751 -0.3505 -0.3527
 6432SOL     OW25499   6.116   2.895   6.311 -0.3404 -0.0081 -0.1499
 6432SOL    HW225500   6.083   2.846   6.236  0.1161 -0.5534 -0.0024
 6432SOL    HW325501   6.079   2.983   6.301 -1.0037 -0.3259 -0.5278
 6432SOL    MW425502   6.107   2.900   6.300  0.0727  0.2292 -0.0283
 6433SOL     OW25503   6.007   4.992   5.241  0.7486 -0.4659  0.3515
 6433SOL    HW225504   6.012   5.051   5.166  0.4159 -0.6195  0.2028
 6433SOL    HW325505   5.991   4.906   5.202  1.0348 -0.6215  0.5760
 6433SOL    MW425506   6.005   4.988   5.226  0.4324 -0.5502 -0.0684
 6434SOL     OW25507   5.170   4.844   1.373  0.2166  0.0607  0.1991
 6434SOL    HW225508   5.175   4.771   1.434 -1.8406 -1.5846 -1.4296
 6434SOL    HW325509   5.082   4.880   1.387 -0.1622 -0.1200 -1.4497
 6434SOL    MW425510   5.159   4.839   1.383  0.4498  0.3219  0.7077
 6435SOL     OW25511   0.206   4.272   1.741 -0.3309  0.0993 -0.0380
 6435SOL    HW225512   0.131   4.313   1.785 -0.2042 -0.2690  0.5359
 6435SOL    HW325513   0.266   4.344   1.724 -0.3247  0.2356  0.5209
 6435SOL    MW425514   0.204   4.287   1.745 -0.1348 -0.1915  0.2500
 6436SOL     OW25515   5.351   3.004   3.930  0.5290  0.2308 -0.4878
 6436SOL    HW225516   5.359   2.960   3.846  1.6671  0.8771 -0.7456
 6436SOL    HW325517   5.257   3.002   3.950  0.3911 -0.9864 -1.1834
 6436SOL    MW425518   5.340   2.998   3.922 -0.3028  0.3093 -0.8008
 6437SOL     OW25519   1.535   5.989   0.099  0.1580 -0.6227 -0.2063
 6437SOL    HW225520   1.522   6.015   0.190  0.9198 -2.7156  0.5639
 6437SOL    HW325521   1.462   6.028   0.052 -0.6178 -0.0361  1.4124
 6437SOL    MW425522   1.524   5.997   0.105 -0.2960  0.4777  0.0274
 6438SOL     OW25523   5.509   0.134   3.874  0.6009  0.3284 -0.0554
 6438SOL    HW225524   5.466   0.139   3.789  0.6689 -0.1847 -0.1221
 6438SOL    HW325525   5.602   0.140   3.854  0.6625 -0.6104 -0.0979
 6438SOL    MW425526   5.516   0.136   3.860 -0.1587  0.4635 -0.3227
 6439SOL     OW25527   3.542   5.338   0.602  0.2017 -0.4539  0.4621
 6439SOL    HW225528   3.611   5.277   0.630 -0.7351 -1.6735  0.2034
 6439SOL    HW325529   3.508   5.300   0.521 -0.8450  0.0788  0.6419
 6439SOL    MW425530   3.547   5.325   0.595  0.3569 -0.0615  0.4852
 6440SOL     OW25531   1.569   2.476   2.318  0.4098 -0.6141  0.3419
 6440SOL    HW225532   1.537   2.563   2.342  0.2909 -0.8835  1.2191
 6440SOL    HW325533   1.490   2.425   2.303  0.4554 -0.7913  0.6845
 6440SOL    MW425534   1.555   2.481   2.319 -0.1918  0.1504 -0.1808
 6441SOL     OW25535   6.346   0.120   5.064 -0.0045  0.4355  0.3251
 6441SOL    HW225536   6.409   0.188   5.087  1.0323 -0.8171  1.3108
 6441SOL    HW325537   6.392   0.038   5.079 -1.3718 -0.5107 -0.4240
 6441SOL    MW425538   6.360   0.118   5.069  0.3521 -0.5623 -0.4068
 6442SOL     OW25539   2.790   1.551   1.888  0.4264  0.0942  0.0390
 6442SOL    HW225540   2.872   1.576   1.846  1.5240 -0.7996  1.5164
 6442SOL    HW325541   2.722   1.588   1.832  1.8350  1.7222 -0.7118
 6442SOL    MW425542   2.792   1.559   1.875 -0.3916  0.7599 -0.9194
 6443SOL     OW25543   4.160   3.318   4.308  0.0398  0.2040 -0.4117
 6443SOL    HW225544   4.126   3.401   4.343 -0.8757 -0.3159 -0.0379
 6443SOL    HW325545   4.104   3.299   4.233  0.4386  0.0777 -0.6749
 6443SOL    MW425546   4.148   3.326   4.303  0.2877  0.3299  0.2824
 6444SOL     OW25547   1.105   6.124   6.382  0.3759  0.3816  0.4666
 6444SOL    HW225548   1.059   6.106   6.300  0.5931 -2.0049  0.7897
 6444SOL    HW325549   1.192   6.154   6.355 -0.2186  1.5956 -0.1470
 6444SOL    MW425550   1.111   6.125   6.367  0.6575  0.4003 -0.2238
 6445SOL     OW25551   3.984   0.439   1.063 -0.4525 -0.3793 -0.5503
 6445SOL    HW225552   3.897   0.476   1.075  0.3217  1.5437 -0.5593
 6445SOL    HW325553   3.973   0.345   1.081 -2.3603 -0.0652  0.1288
 6445SOL    MW425554   3.971   0.431   1.067 -0.0667 -0.5977 -0.2780
 6446SOL     OW25555   2.994   1.259   1.264 -0.1982 -0.1032  0.1816
 6446SOL    HW225556   2.929   1.314   1.308  0.4500 -0.2028  1.3006
 6446SOL    HW325557   2.958   1.170   1.268  0.8971 -0.5171  2.7000
 6446SOL    MW425558   2.981   1.254   1.270 -0.1266  0.1894 -1.1338
 6447SOL     OW25559   5.026   1.777   1.878 -0.1229 -0.1631 -0.1248
 6447SOL    HW225560   4.950   1.773   1.820 -0.2868  0.4392  0.0451
 6447SOL    HW325561   5.003   1.842   1.944  0.2683 -0.4719  0.3215
 6447SOL    MW425562   5.013   1.785   1.879  0.0447 -0.3887  0.4780
 6448SOL     OW25563   1.068   5.399   2.425  0.1649 -0.1443 -0.4107
 6448SOL    HW225564   1.009   5.470   2.447 -0.1491 -0.4292 -0.3247
 6448SOL    HW325565   1.011   5.322   2.414  0.6092 -0.6714  0.7562
 6448SOL    MW425566   1.053   5.398   2.426 -0.5011  0.0713 -0.0445
 6449SOL     OW25567   4.047   1.338   0.863 -0.6845 -0.4654 -0.2676
 6449SOL    HW225568   3.985   1.316   0.932 -0.1348  1.0888  0.7880
 6449SOL    HW325569   4.129   1.296   0.890 -0.3240  0.5971  0.3603
 6449SOL    MW425570   4.050   1.330   0.876 -0.2674 -0.7512 -0.2033
 6450SOL     OW25571   2.859   3.499   1.553  1.1417  0.5612  0.1059
 6450SOL    HW225572   2.785   3.439   1.541  1.0923  0.6027  0.2018
 6450SOL    HW325573   2.840   3.544   1.636  2.8514 -1.6913  1.8561
 6450SOL    MW425574   2.846   3.497   1.563 -0.7210 -0.5575 -0.1311
 6451SOL     OW25575   3.521   1.486   5.553 -0.0328  0.2767  0.6576
 6451SOL    HW225576   3.462   1.476   5.478  0.6192  0.2965  0.1293
 6451SOL    HW325577   3.485   1.561   5.601 -2.1536 -1.4789  2.0100
 6451SOL    MW425578   3.508   1.495   5.549  0.0961  0.3409  0.6053
 6452SOL     OW25579   5.857   4.105   1.630  0.0658  0.1682 -0.1778
 6452SOL    HW225580   5.911   4.059   1.695 -0.4900  1.1825  1.0492
 6452SOL    HW325581   5.819   4.035   1.576 -0.0808 -0.7669  1.0888
 6452SOL    MW425582   5.859   4.090   1.631 -0.0600  0.2691 -0.4950
 6453SOL     OW25583   3.171   1.218   5.432 -0.1979  0.0081  0.4227
 6453SOL    HW225584   3.203   1.137   5.393 -0.3127 -0.4519  1.2546
 6453SOL    HW325585   3.235   1.284   5.408  0.5357 -0.5771  0.7299
 6453SOL    MW425586   3.184   1.216   5.424 -0.5611 -0.1756 -0.0675
 6454SOL     OW25587   5.156   3.883   5.207  0.0768 -0.3228  0.2051
 6454SOL    HW225588   5.245   3.914   5.224  0.1664 -0.2458 -0.3974
 6454SOL    HW325589   5.119   3.869   5.294  1.6640 -3.3244  0.5176
 6454SOL    MW425590   5.162   3.886   5.221  0.0576  0.2201  0.1056
 6455SOL     OW25591   6.172   6.116   4.824  0.0681 -0.1125 -0.1155
 6455SOL    HW225592   6.130   6.183   4.879 -1.6055 -0.1319 -1.2961
 6455SOL    HW325593   6.117   6.112   4.745  1.7958 -0.8260 -1.3465
 6455SOL    MW425594   6.159   6.124   4.821 -0.1260  0.6519  0.0995
 6456SOL     OW25595   3.891   0.583   0.181  0.0125  0.0241 -0.1045
 6456SOL    HW225596   3.889   0.559   0.274  2.0999 -3.7277 -0.8366
 6456SOL    HW325597   3.832   0.521   0.139 -1.7085  2.3138 -1.3110
 6456SOL    MW425598   3.883   0.572   0.188  0.0965 -0.3994  0.1028
 6457SOL     OW25599   2.896   1.910   0.204 -0.3693 -0.3598  0.4006
 6457SOL    HW225600   2.958   1.886   0.272 -0.7686  0.0623  0.9247
 6457SOL    HW325601   2.942   1.894   0.122  0.2291 -0.5672  0.7739
 6457SOL    MW425602   2.910   1.905   0.202  0.0531 -0.2455 -0.7550
 6458SOL     OW25603   3.641   1.943   4.072  0.0320  0.1677 -0.4067
 6458SOL    HW225604   3.659   2.004   4.144 -0.7750  0.7350 -0.6698
 6458SOL    HW325605   3.677   1.986   3.995  0.1380 -0.0397 -0.4716
 6458SOL    MW425606   3.648   1.957   4.071 -0.0714 -0.1869  0.0143
 6459SOL     OW25607   0.893   4.967   1.636 -0.2712 -0.6065 -0.0120
 6459SOL    HW225608   0.830   5.006   1.576  0.1248  1.1013  0.6461
 6459SOL    HW325609   0.977   4.974   1.591 -0.2189 -0.8905  0.0354
 6459SOL    MW425610   0.896   4.973   1.622  0.2608 -0.4945 -0.0427
 6460SOL     OW25611   3.804   5.934   6.293 -0.1917 -0.2126 -0.5330
 6460SOL    HW225612   3.817   6.028   6.303 -1.8788  0.0097 -0.1482
 6460SOL    HW325613   3.854   5.911   6.214  2.6936  0.3991  0.9953
 6460SOL    MW425614   3.812   5.943   6.284 -0.2230 -0.6237 -0.0309
 6461SOL     OW25615   5.294   2.746   6.103 -0.8344 -0.2093  0.0592
 6461SOL    HW225616   5.249   2.677   6.151  0.4361 -0.0416  1.6004
 6461SOL    HW325617   5.265   2.827   6.144 -1.8861  0.1681 -1.3692
 6461SOL    MW425618   5.285   2.748   6.115 -0.5882  0.0539 -0.1932
 6462SOL     OW25619   1.736   6.222   1.397 -0.0024 -0.3226  0.2832
 6462SOL    HW225620   1.788   6.295   1.430  0.7076 -0.5016 -0.4098
 6462SOL    HW325621   1.646   6.254   1.400  0.2925  0.5930 -0.0042
 6462SOL    MW425622   1.731   6.236   1.402 -0.1825 -0.2677  0.3205
 6463SOL     OW25623   1.588   2.421   1.995  0.3173  0.0493 -0.1348
 6463SOL    HW225624   1.530   2.410   2.071  1.4679 -0.2216  0.7368
 6463SOL    HW325625   1.532   2.406   1.919 -0.7684 -0.1117  0.6801
 6463SOL    MW425626   1.573   2.417   1.995  0.1388  0.1381  0.0995
 6464SOL     OW25627   2.201   2.617   1.794 -0.2609 -0.2254 -0.3764
 6464SOL    HW225628   2.216   2.667   1.875  1.1601 -1.2190  0.0082
 6464SOL    HW325629   2.118   2.572   1.810  0.1882 -0.7152  0.7256
 6464SOL    MW425630   2.192   2.618   1.807  0.0794  0.2158  0.0620
 6465SOL     OW25631   4.006   0.723   5.934  0.1739  0.7462 -0.1547
 6465SOL    HW225632   3.962   0.642   5.909 -2.3620  2.5861 -2.1696
 6465SOL    HW325633   3.941   0.773   5.982  2.2209  1.0343  2.5972
 6465SOL    MW425634   3.992   0.719   5.937  0.0623 -0.1575 -0.1898
 6466SOL     OW25635   6.291   3.786   5.018  0.2903 -0.1536  0.4633
 6466SOL    HW225636   6.269   3.701   4.979  1.5909 -0.5443  0.5432
 6466SOL    HW325637   6.344   3.764   5.094  1.7135  0.7638 -0.2357
 6466SOL    MW425638   6.295   3.772   5.023 -0.0353  0.2203 -0.2740
 6467SOL     OW25639   3.786   0.809   1.502 -0.5313 -0.1567  0.7897
 6467SOL    HW225640   3.763   0.899   1.476 -3.8526 -0.8824  0.8291
 6467SOL    HW325641   3.853   0.783   1.438 -0.8858  1.6798 -0.4135
 6467SOL    MW425642   3.792   0.818   1.490 -0.1798  0.4578  0.1728
 6468SOL     OW25643   5.507   1.740   1.820  0.3792  0.0993  0.2074
 6468SOL    HW225644   5.468   1.775   1.740  0.9277  0.4325  0.0850
 6468SOL    HW325645   5.598   1.721   1.797 -0.4136 -3.6445 -0.4390
 6468SOL    MW425646   5.514   1.742   1.807  0.4011  0.0172 -0.9991
 6469SOL     OW25647   4.037   4.058   0.065  0.5899  0.1927  0.3087
 6469SOL    HW225648   3.974   4.112   0.113  1.1290  0.9573  0.1885
 6469SOL    HW325649   4.058   4.110  -0.014  0.6446 -0.4819 -0.1265
 6469SOL    MW425650   4.032   4.072   0.061  0.7101 -0.2497 -0.4741
 6470SOL     OW25651   6.073   4.636   2.557  0.1596 -0.2901 -0.1237
 6470SOL    HW225652   6.012   4.588   2.614  0.6041 -0.4875  0.1902
 6470SOL    HW325653   6.030   4.720   2.541  0.9680  0.6519  2.2615
 6470SOL    MW425654   6.059   4.641   2.562 -0.3558  0.0541  0.3964
 6471SOL     OW25655   5.812   1.136   4.442  0.6221 -0.0951 -1.1470
 6471SOL    HW225656   5.844   1.053   4.478  1.0041  0.4856 -0.1018
 6471SOL    HW325657   5.876   1.201   4.472  0.1265  0.6335 -1.6441
 6471SOL    MW425658   5.825   1.134   4.451 -0.1775 -0.2429 -0.0402
 6472SOL     OW25659   4.351   1.443   1.638  0.4961  0.3067  0.1402
 6472SOL    HW225660   4.267   1.469   1.601  0.9213  5.0127  1.8204
 6472SOL    HW325661   4.331   1.418   1.728  0.6864 -0.5871 -0.0601
 6472SOL    MW425662   4.337   1.443   1.645  0.0561 -0.1850  0.0812
 6473SOL     OW25663   3.507   0.337   5.356 -0.1387 -0.3343  0.2485
 6473SOL    HW225664   3.510   0.330   5.261 -3.3248 -0.7798  0.0760
 6473SOL    HW325665   3.518   0.430   5.374  2.3435 -0.4369 -0.3240
 6473SOL    MW425666   3.509   0.348   5.346 -0.0592 -0.2618 -0.0337
 6474SOL     OW25667   1.463   2.263   6.334 -0.2539 -0.0353  0.2874
 6474SOL    HW225668   1.384   2.221   6.367 -0.4791 -0.8519 -1.1997
 6474SOL    HW325669   1.495   2.204   6.265  0.5103  1.2774 -0.5319
 6474SOL    MW425670   1.457   2.250   6.329  0.0616  0.1455 -0.1390
 6475SOL     OW25671   0.405   4.132   1.275 -0.0433 -0.1225 -0.0145
 6475SOL    HW225672   0.436   4.152   1.363  1.0929  0.8570 -0.6096
 6475SOL    HW325673   0.379   4.217   1.238 -2.2583 -0.7358 -0.0240
 6475SOL    MW425674   0.405   4.146   1.282  0.5488 -0.5316  0.5905
 6476SOL     OW25675   6.281   6.410   5.403  0.1212 -0.3274  0.8886
 6476SOL    HW225676   6.347   6.344   5.423  0.5048 -0.0736  0.4740
 6476SOL    HW325677   6.238   6.379   5.324  0.9288  0.3591  0.1545
 6476SOL    MW425678   6.284   6.398   5.395  0.1872  0.9462  0.1488
 6477SOL     OW25679   5.427   4.941   0.444 -0.2338  0.0240  1.0645
 6477SOL    HW225680   5.404   4.945   0.351  0.5967  0.3632  0.8691
 6477SOL    HW325681   5.382   5.016   0.483 -0.2178  0.1454  0.8522
 6477SOL    MW425682   5.418   4.951   0.437 -0.1673  0.1919 -0.1666
 6478SOL     OW25683   1.909   3.952   6.211 -0.0031  0.9242 -0.1884
 6478SOL    HW225684   1.925   3.968   6.118  2.3991  1.4454  0.2586
 6478SOL    HW325685   1.898   4.039   6.249 -1.0851  0.7071  0.0317
 6478SOL    MW425686   1.909   3.966   6.204  0.1025  0.6988 -0.1582
 6479SOL     OW25687   0.556   1.915   5.370 -0.8059 -1.3196  0.0827
 6479SOL    HW225688   0.641   1.884   5.403  0.1593 -0.0030 -1.0402
 6479SOL    HW325689   0.510   1.945   5.448  1.6347  2.2510  0.4280
 6479SOL    MW425690   0.561   1.915   5.385  0.1907  0.1312 -0.3725
 6480SOL     OW25691   5.345   2.408   5.123 -0.0110  0.1033  0.1847
 6480SOL    HW225692   5.290   2.479   5.157  0.6600 -0.0874  1.7375
 6480SOL    HW325693   5.283   2.340   5.097 -0.5672 -0.8682  3.5880
 6480SOL    MW425694   5.330   2.409   5.124 -0.3938 -0.0709  0.2847
 6481SOL     OW25695   1.478   4.456   2.392 -0.2440 -0.6687 -0.1426
 6481SOL    HW225696   1.520   4.393   2.334 -2.2977 -2.5412  0.2474
 6481SOL    HW325697   1.413   4.500   2.337 -0.1022 -0.2371  0.0316
 6481SOL    MW425698   1.475   4.453   2.377  0.3703  0.0924 -0.4156
 6482SOL     OW25699   5.280   4.357   2.797  0.3534 -0.3891  0.3298
 6482SOL    HW225700   5.339   4.419   2.841 -0.4608  1.8318 -1.5282
 6482SOL    HW325701   5.199   4.362   2.848  0.0060  0.7837 -0.3082
 6482SOL    MW425702   5.277   4.366   2.810 -0.0656  0.6068 -0.0490
 6483SOL     OW25703   6.374   1.272   1.260 -1.1250 -0.2495 -0.2027
 6483SOL    HW225704   6.332   1.351   1.296 -1.4711 -0.6429  0.2592
 6483SOL    HW325705   6.464   1.299   1.243 -1.2192  0.2254  0.0244
 6483SOL    MW425706   6.380   1.286   1.263  0.4009  0.3936  0.0533
 6484SOL     OW25707   1.170   0.967   2.448 -0.2754 -0.0647  0.5287
 6484SOL    HW225708   1.124   1.044   2.412 -1.1678 -0.1339  1.4756
 6484SOL    HW325709   1.261   0.996   2.455 -0.5828  0.8945  0.8116
 6484SOL    MW425710   1.176   0.981   2.444 -0.4110 -0.1458 -0.1743
 6485SOL     OW25711   3.677   6.350   4.045  0.4721  0.0369  0.1404
 6485SOL    HW225712   3.737   6.425   4.047  1.6461 -0.8588 -0.4696
 6485SOL    HW325713   3.632   6.353   4.130  1.3062  0.7863  0.5737
 6485SOL    MW425714   3.679   6.360   4.057  0.3337  0.1339  0.0706
 6486SOL     OW25715   0.496   0.519   4.141  0.0508  0.0122  0.5056
 6486SOL    HW225716   0.448   0.587   4.188 -0.1716 -0.9619  1.7294
 6486SOL    HW325717   0.548   0.475   4.208  1.9016  0.3892 -0.6296
 6486SOL    MW425718   0.496   0.522   4.156  0.7766  0.0112 -0.1216
 6487SOL     OW25719   6.043   3.382   1.170  0.3168  0.1764 -0.1086
 6487SOL    HW225720   5.980   3.446   1.204  0.6112  0.8683 -0.8358
 6487SOL    HW325721   6.083   3.425   1.095  2.9521  0.4629  1.3576
 6487SOL    MW425722   6.040   3.396   1.164 -0.0680 -0.0083 -0.3947
 6488SOL     OW25723   6.275   4.076   3.761 -0.1458 -0.2060  0.0318
 6488SOL    HW225724   6.332   4.103   3.689  2.0512 -2.5444  0.7273
 6488SOL    HW325725   6.260   4.156   3.811  1.3605  0.7833 -1.0049
 6488SOL    MW425726   6.281   4.090   3.758  0.7312  0.0341 -0.1605
 6489SOL     OW25727   5.762   4.751   0.728 -0.1086 -0.3114 -0.4910
 6489SOL    HW225728   5.667   4.751   0.743  0.0716  0.8575  0.8543
 6489SOL    HW325729   5.773   4.802   0.648 -0.5944 -0.0687 -0.4076
 6489SOL    MW425730   5.751   4.758   0.719 -0.0920  0.4620  0.6968
 6490SOL     OW25731   6.219   2.800   4.544  0.0056 -0.4863  0.1489
 6490SOL    HW225732   6.184   2.713   4.526 -2.0030  0.8636 -3.5561
 6490SOL    HW325733   6.220   2.806   4.640 -2.1325 -3.6744  0.5189
 6490SOL    MW425734   6.214   2.790   4.555 -0.3836  0.2304  0.0717
 6491SOL     OW25735   1.096   5.922   3.173 -0.1396  0.4393 -0.1158
 6491SOL    HW225736   1.145   5.850   3.213 -3.0235 -2.2157 -0.9227
 6491SOL    HW325737   1.096   5.902   3.079  0.7215  2.7524 -0.6863
 6491SOL    MW425738   1.103   5.910   3.166  0.0776  0.1448  0.2471
 6492SOL     OW25739   5.226   4.568   2.178 -0.2772 -0.9623 -0.3767
 6492SOL    HW225740   5.229   4.523   2.094 -3.8532 -1.6825 -0.2735
 6492SOL    HW325741   5.172   4.512   2.234 -0.8644  1.1110  1.2797
 6492SOL    MW425742   5.219   4.555   2.175 -0.1117 -0.2789  0.5391
 6493SOL     OW25743   0.579   5.755   5.236 -0.6564  0.2526  0.2220
 6493SOL    HW225744   0.572   5.809   5.315 -0.9523  0.0200  0.3548
 6493SOL    HW325745   0.504   5.781   5.182  0.4161  1.5600 -0.6981
 6493SOL    MW425746   0.568   5.766   5.239  0.7373 -0.2132 -0.0012
 6494SOL     OW25747   2.886   0.388   4.452  0.1843 -0.3873 -0.3277
 6494SOL    HW225748   2.838   0.465   4.421 -0.2364 -0.1504  0.8796
 6494SOL    HW325749   2.818   0.323   4.469  0.2805 -0.1301  1.1623
 6494SOL    MW425750   2.870   0.389   4.450 -0.2176  0.7167  0.4383
 6495SOL     OW25751   3.001   5.699   1.895 -0.5573 -0.1479 -0.2220
 6495SOL    HW225752   3.007   5.790   1.925 -0.8054 -0.6270  1.3932
 6495SOL    HW325753   3.016   5.704   1.801  0.6965  1.4229  0.0080
 6495SOL    MW425754   3.004   5.712   1.887  0.5479  0.3923  0.2345
 6496SOL     OW25755   2.789   5.962   1.067  0.5734  0.2409 -0.0880
 6496SOL    HW225756   2.865   5.904   1.073  0.2597 -0.0624  1.6264
 6496SOL    HW325757   2.714   5.903   1.078  0.2075  0.8105  0.5924
 6496SOL    MW425758   2.789   5.946   1.070  0.5269 -0.1613  0.2942
 6497SOL     OW25759   1.762   3.777   2.790 -0.8879 -0.2239 -0.1534
 6497SOL    HW225760   1.771   3.699   2.736 -0.7374 -0.5089  0.2803
 6497SOL    HW325761   1.728   3.844   2.730 -0.1142 -0.3510 -0.7589
 6497SOL    MW425762   1.759   3.776   2.775  0.3102  0.5619 -0.0238
 6498SOL     OW25763   2.010   0.328   3.040  1.0061  0.1323 -0.3979
 6498SOL    HW225764   2.070   0.398   3.015  2.2005 -1.2573 -1.6087
 6498SOL    HW325765   1.976   0.294   2.957  0.0133 -0.3713  0.1900
 6498SOL    MW425766   2.013   0.333   3.026 -0.0886  0.5974  0.2090
 6499SOL     OW25767   1.556   6.306   5.084  0.0451  0.2464 -0.9286
 6499SOL    HW225768   1.579   6.398   5.070 -0.9458  0.5987 -0.3502
 6499SOL    HW325769   1.625   6.272   5.140 -0.3633  1.0521  0.0891
 6499SOL    MW425770   1.568   6.314   5.089  0.4120  0.4566  0.1319
 6500SOL     OW25771   2.795   2.826   1.350  0.1269  0.6570  0.2260
 6500SOL    HW225772   2.875   2.795   1.392  1.1350  2.3599 -0.3559
 6500SOL    HW325773   2.824   2.890   1.286 -1.4684 -0.8234 -2.1579
 6500SOL    MW425774   2.809   2.830   1.347  0.5245 -0.3045  0.2661
 6501SOL     OW25775   1.958   3.441   5.117  0.4811  0.0542  0.0508
 6501SOL    HW225776   1.967   3.360   5.067 -1.8345 -0.4107  0.2922
 6501SOL    HW325777   2.012   3.427   5.195  1.7097 -0.4103 -0.8543
 6501SOL    MW425778   1.967   3.428   5.121  0.2697  0.7568 -0.2414
 6502SOL     OW25779   1.968   2.413   2.542  0.3867 -0.2501  0.1082
 6502SOL    HW225780   1.887   2.424   2.492  0.3651  1.2279  0.4056
 6502SOL    HW325781   1.940   2.371   2.624 -0.2142  0.8005  0.4731
 6502SOL    MW425782   1.953   2.409   2.547 -0.3908 -0.1915  0.3318
 6503SOL     OW25783   0.001   6.383   2.322  0.9384  0.3670 -0.2938
 6503SOL    HW225784   0.075   6.427   2.280  0.9173  0.4585 -0.2350
 6503SOL    HW325785  -0.055   6.356   2.249 -0.8540  3.5225 -0.2844
 6503SOL    MW425786   0.004   6.385   2.307  0.6088 -0.0671  0.3652
 6504SOL     OW25787   0.307   0.202   3.357 -0.1709  0.3240 -0.7666
 6504SOL    HW225788   0.265   0.269   3.302 -1.1792  1.6183  1.4216
 6504SOL    HW325789   0.261   0.209   3.441  1.2290 -1.6223  0.2273
 6504SOL    MW425790   0.295   0.212   3.361  0.1812 -0.8247  0.1024
 6505SOL     OW25791   2.160   2.878   5.214  0.1977 -0.3905 -0.1775
 6505SOL    HW225792   2.162   2.873   5.119  1.6210  0.9357 -0.2529
 6505SOL    HW325793   2.195   2.965   5.234  2.1360 -1.5010  1.6183
 6505SOL    MW425794   2.165   2.889   5.204 -0.1687 -0.2396 -0.0674
 6506SOL     OW25795   2.554   1.429   0.902  0.0142  0.2396  0.2478
 6506SOL    HW225796   2.500   1.417   0.824 -0.6001  1.6694  0.4357
 6506SOL    HW325797   2.601   1.510   0.886  0.1681  0.3452  1.2155
 6506SOL    MW425798   2.553   1.438   0.889  0.4548  0.4454  0.1259
 6507SOL     OW25799   0.527   6.320   0.148 -0.2033 -0.2918  0.3912
 6507SOL    HW225800   0.494   6.397   0.101  1.3034 -0.3771 -0.9119
 6507SOL    HW325801   0.452   6.262   0.155 -0.5961 -0.1445 -1.7120
 6507SOL    MW425802   0.513   6.323   0.142 -0.1789  0.3213  0.1607
 6508SOL     OW25803   3.087   0.420   4.677  0.3581 -0.4359  0.6829
 6508SOL    HW225804   3.133   0.336   4.675 -2.4600 -2.0952 -0.6513
 6508SOL    HW325805   3.019   0.412   4.611  0.9843  3.6055 -0.7345
 6508SOL    MW425806   3.084   0.408   4.668  0.3880 -0.2445  0.1539
 6509SOL     OW25807   1.815   2.358   4.683 -0.2512  0.2649 -0.2371
 6509SOL    HW225808   1.823   2.432   4.623 -0.5630  1.2131  0.8525
 6509SOL    HW325809   1.897   2.360   4.733 -0.7157  0.5296  0.5168
 6509SOL    MW425810   1.827   2.368   4.682  0.4898  0.3497 -0.6687
 6510SOL     OW25811   5.367   3.087   2.650 -0.2829 -0.4675  0.2470
 6510SOL    HW225812   5.460   3.075   2.636 -0.1117  0.2024  0.7519
 6510SOL    HW325813   5.349   3.174   2.615 -0.4558 -0.0560  1.3408
 6510SOL    MW425814   5.377   3.097   2.644 -0.0587 -0.0565  0.2125
 6511SOL     OW25815   6.129   3.563   5.304 -0.3108  0.0925 -0.0335
 6511SOL    HW225816   6.142   3.489   5.363 -3.1192 -1.0050 -0.6623
 6511SOL    HW325817   6.058   3.614   5.344 -1.6744 -0.1940 -1.9392
 6511SOL    MW425818   6.121   3.560   5.317 -0.2352 -0.0284  0.0338
 6512SOL     OW25819   0.138   6.421   1.282 -0.4103  0.1680 -0.0040
 6512SOL    HW225820   0.183   6.503   1.262 -0.4002  0.0301 -0.5770
 6512SOL    HW325821   0.045   6.442   1.269 -0.6726  0.8489  2.5570
 6512SOL    MW425822   0.131   6.435   1.277 -0.7820  0.1562 -0.4661
 6513SOL     OW25823   2.484   6.050   4.161 -0.0389  0.1547 -0.0726
 6513SOL    HW225824   2.416   6.098   4.113  0.6310  0.0184 -1.1766
 6513SOL    HW325825   2.444   6.031   4.246 -0.8507  1.3626 -0.1612
 6513SOL    MW425826   2.469   6.054   4.166 -0.0578  0.0269  0.1522
 6514SOL     OW25827   3.308   1.172   5.956  0.2117  0.7012 -0.0749
 6514SOL    HW225828   3.320   1.091   6.005  0.2478  0.2717 -0.7696
 6514SOL    HW325829   3.217   1.198   5.973  0.4655  0.9984  0.8508
 6514SOL    MW425830   3.297   1.165   5.964 -0.6148 -0.2103 -0.7707
 6515SOL     OW25831   5.577   3.024   4.724  0.3582  0.0545  0.4731
 6515SOL    HW225832   5.513   2.981   4.781  0.5419 -0.2068  0.4816
 6515SOL    HW325833   5.631   2.953   4.690  0.0340  0.1695 -0.3045
 6515SOL    MW425834   5.576   3.009   4.727 -0.3054 -0.6433 -0.3655
 6516SOL     OW25835   4.856   2.049   0.499 -0.3979  0.1262  0.1681
 6516SOL    HW225836   4.836   2.133   0.540  0.0160 -0.1115  0.8679
 6516SOL    HW325837   4.825   2.058   0.409 -1.6309  0.5348  0.6150
 6516SOL    MW425838   4.850   2.061   0.492 -0.2777 -0.1400  0.2514
 6517SOL     OW25839   0.641   5.145   1.726 -0.2918  0.0478  0.0164
 6517SOL    HW225840   0.656   5.051   1.724  0.3970  0.1444 -2.2023
 6517SOL    HW325841   0.716   5.180   1.776  0.5298 -0.4597 -0.8210
 6517SOL    MW425842   0.653   5.137   1.733 -0.2139  0.4905  0.1150
 6518SOL     OW25843   3.867   5.573   3.796  0.0334 -0.6969  0.1925
 6518SOL    HW225844   3.960   5.583   3.819  0.0408  1.7884 -0.6735
 6518SOL    HW325845   3.866   5.498   3.736  1.3021 -1.4823  1.1090
 6518SOL    MW425846   3.879   5.564   3.791  0.0080  0.1701  0.8001
 6519SOL     OW25847   6.095   5.664   0.269  0.4848  0.1980  0.0325
 6519SOL    HW225848   6.160   5.599   0.241  0.4081 -1.0843  2.6081
 6519SOL    HW325849   6.023   5.612   0.303 -0.7227  1.6559 -0.2066
 6519SOL    MW425850   6.094   5.648   0.270  0.5049 -0.5305  0.0413
 6520SOL     OW25851   0.685   5.503   3.628  0.3020 -0.5899  0.5927
 6520SOL    HW225852   0.746   5.532   3.695  1.6330 -0.3282 -0.6939
 6520SOL    HW325853   0.624   5.577   3.618 -0.5784 -1.0414  2.2188
 6520SOL    MW425854   0.685   5.517   3.636  0.4313  0.4823 -0.0728
 6521SOL     OW25855   2.389   0.480   0.169  0.5823 -0.3283  0.7424
 6521SOL    HW225856   2.430   0.546   0.224  1.7490  0.1233 -0.6014
 6521SOL    HW325857   2.458   0.454   0.107 -0.2745 -1.7777  0.3457
 6521SOL    MW425858   2.403   0.485   0.168  0.2897 -0.8185 -0.1590
 6522SOL     OW25859   4.397   5.362   3.543  0.0154 -0.1775  0.2491
 6522SOL    HW225860   4.318   5.340   3.494 -0.5467  1.2298  0.4707
 6522SOL    HW325861   4.459   5.292   3.522  0.0563  0.6539 -3.0050
 6522SOL    MW425862   4.395   5.350   3.534  0.0351  0.1155 -0.3826
 6523SOL     OW25863   1.364   0.181   2.842  0.1003 -0.4396 -0.9046
 6523SOL    HW225864   1.454   0.164   2.869  0.2906  0.0862 -1.1874
 6523SOL    HW325865   1.359   0.276   2.832 -0.8142 -0.3389  0.2232
 6523SOL    MW425866   1.375   0.192   2.844 -0.2990  0.4954  0.5178
 6524SOL     OW25867   3.448   3.150   1.595  0.1530 -0.9688  0.4939
 6524SOL    HW225868   3.441   3.072   1.651 -1.1363 -0.8743  0.5026
 6524SOL    HW325869   3.385   3.135   1.524  1.0023 -0.6088 -0.3481
 6524SOL    MW425870   3.438   3.138   1.593 -0.2383  0.1118 -0.2229
 6525SOL     OW25871   0.901   2.081   1.922 -0.4728 -0.4881 -0.3981
 6525SOL    HW225872   0.825   2.139   1.927  0.3250  0.5578  0.2944
 6525SOL    HW325873   0.892   2.036   1.838 -2.4094 -1.2246  0.1441
 6525SOL    MW425874   0.890   2.083   1.912 -0.8771  0.1309 -0.3258
 6526SOL     OW25875   4.541   4.841   4.297 -0.0854  0.0859  0.2406
 6526SOL    HW225876   4.451   4.870   4.279 -0.0735  1.1125  1.6933
 6526SOL    HW325877   4.549   4.843   4.392  1.5563  0.2369  0.1317
 6526SOL    MW425878   4.530   4.845   4.307  0.0834  0.0688  0.1459
 6527SOL     OW25879   1.279   3.561   2.261  0.1729  0.0704  0.3367
 6527SOL    HW225880   1.298   3.643   2.215  0.0465 -0.4568 -0.6815
 6527SOL    HW325881   1.288   3.493   2.194  1.3091 -0.8718  1.3925
 6527SOL    MW425882   1.283   3.563   2.246 -0.7456 -0.3641  0.6366
 6528SOL     OW25883   3.745   2.677   4.181  0.1997 -0.2092 -0.3543
 6528SOL    HW225884   3.727   2.584   4.198 -0.6787  0.2134  1.2285
 6528SOL    HW325885   3.732   2.720   4.266  0.9016  1.3296 -0.9878
 6528SOL    MW425886   3.741   2.670   4.194 -0.1777 -0.0060  0.4030
 6529SOL     OW25887   3.441   0.009   2.717  0.2409 -0.2851 -0.6047
 6529SOL    HW225888   3.532  -0.019   2.729  0.1125 -0.8400 -0.9117
 6529SOL    HW325889   3.389  -0.065   2.746 -0.1270  0.2094  0.0139
 6529SOL    MW425890   3.446  -0.005   2.723 -0.1618  0.4905  0.5645
 6530SOL     OW25891   4.304   5.681   3.169 -0.1786  0.3040  0.0528
 6530SOL    HW225892   4.320   5.716   3.257 -1.9727 -0.5743  0.7688
 6530SOL    HW325893   4.283   5.589   3.183  0.5047 -0.1054 -1.4127
 6530SOL    MW425894   4.303   5.674   3.182 -0.2439 -0.0089 -0.2715
 6531SOL     OW25895   2.417   2.698   5.229 -0.7501 -0.5079  0.3058
 6531SOL    HW225896   2.348   2.644   5.267  0.4418 -0.7503  2.2705
 6531SOL    HW325897   2.379   2.786   5.225 -1.1244 -0.5810  1.6259
 6531SOL    MW425898   2.403   2.702   5.234 -0.6600 -0.1260 -0.4015
 6532SOL     OW25899   0.538   4.705   5.383  0.2789 -0.8152 -0.5810
 6532SOL    HW225900   0.511   4.711   5.291  0.8771 -1.9018 -0.8447
 6532SOL    HW325901   0.626   4.742   5.384  1.0935 -2.6860 -0.8519
 6532SOL    MW425902   0.546   4.711   5.371 -0.0724  0.5471  0.1116
 6533SOL     OW25903   1.484   2.961   2.528 -0.0091  0.1687 -0.3042
 6533SOL    HW225904   1.473   2.868   2.549 -3.4789  0.3356 -0.8233
 6533SOL    HW325905   1.465   3.006   2.610 -1.2497  0.4701 -0.7431
 6533SOL    MW425906   1.480   2.955   2.541  0.0290 -0.2563 -0.2104
 6534SOL     OW25907   5.948   2.325   4.323  0.0573 -0.5465 -0.0570
 6534SOL    HW225908   5.900   2.407   4.328  0.9723 -0.0021 -0.0858
 6534SOL    HW325909   5.893   2.269   4.268  1.5524  1.6135 -4.1827
 6534SOL    MW425910   5.934   2.328   4.316  0.3256  0.5405  0.3154
 6535SOL     OW25911   5.850   0.395   4.032 -0.2839  0.5382 -0.3763
 6535SOL    HW225912   5.820   0.368   4.118  1.1204  0.2339  0.0440
 6535SOL    HW325913   5.810   0.333   3.971  0.3822 -0.5613  0.2790
 6535SOL    MW425914   5.841   0.383   4.035  0.2416 -0.1091  0.0503
 6536SOL     OW25915   2.092   0.167   1.213 -0.0087  0.0466  0.5489
 6536SOL    HW225916   2.053   0.150   1.299 -1.1490 -1.2383 -0.1892
 6536SOL    HW325917   2.018   0.167   1.152  0.7987  0.7526 -0.4699
 6536SOL    MW425918   2.077   0.165   1.216  0.3987  0.5064 -0.1912
 6537SOL     OW25919   1.705   5.940   5.207 -0.3370  0.3429  0.1917
 6537SOL    HW225920   1.692   5.947   5.112 -1.2150 -0.8078  0.1923
 6537SOL    HW325921   1.773   5.874   5.217 -1.0527 -0.3931  0.3587
 6537SOL    MW425922   1.712   5.932   5.196  0.3246  0.2728  0.8887
 6538SOL     OW25923   1.658   0.501   6.191 -0.7484  0.3863 -0.0466
 6538SOL    HW225924   1.655   0.442   6.116  1.2870  0.6047 -0.3804
 6538SOL    HW325925   1.749   0.531   6.193 -0.8387  0.6516  2.3109
 6538SOL    MW425926   1.670   0.497   6.181 -0.4514  0.2233  0.0796
 6539SOL     OW25927   6.288   3.139   4.606  0.1784  0.6216 -0.1479
 6539SOL    HW225928   6.298   3.047   4.581 -0.5448  0.5614 -0.2345
 6539SOL    HW325929   6.247   3.180   4.529  2.6569  1.5370 -1.0831
 6539SOL    MW425930   6.284   3.132   4.592 -0.0279 -0.0762  0.4329
 6540SOL     OW25931   2.974   5.324   2.279  0.4413 -0.3214  0.3615
 6540SOL    HW225932   3.040   5.361   2.338  0.8802 -0.6684  0.0991
 6540SOL    HW325933   2.985   5.372   2.197 -1.0157  1.0365  0.9172
 6540SOL    MW425934   2.984   5.335   2.276  0.2096 -0.0944  0.5939
 6541SOL     OW25935   2.176   3.694   5.650 -0.3373 -0.6117 -0.2635
 6541SOL    HW225936   2.175   3.714   5.556  2.5860 -2.2929 -0.7597
 6541SOL    HW325937   2.179   3.599   5.654  1.1017 -0.5254  1.4774
 6541SOL    MW425938   2.176   3.684   5.638 -0.0718  0.0437 -0.5785
 6542SOL     OW25939   3.060   2.206   4.249 -0.2020 -0.1154  0.5204
 6542SOL    HW225940   3.018   2.191   4.165  0.4413 -0.2821  0.2248
 6542SOL    HW325941   2.998   2.172   4.313 -0.2093 -1.0111  0.0468
 6542SOL    MW425942   3.047   2.200   4.247 -0.7345 -0.3298 -0.1051
 6543SOL     OW25943   2.409   0.870   4.700  0.3844  0.6628 -0.4651
 6543SOL    HW225944   2.479   0.880   4.765  0.3651  0.0044 -0.3342
 6543SOL    HW325945   2.401   0.957   4.660 -0.1438  1.2971  0.9598
 6543SOL    MW425946   2.417   0.883   4.703 -0.1752 -0.0007  0.4563
 6544SOL     OW25947   3.553   0.604   5.430 -0.3290  0.3005  0.5051
 6544SOL    HW225948   3.470   0.640   5.399  0.1655  0.1328 -1.1015
 6544SOL    HW325949   3.618   0.670   5.409  0.2082 -0.3864 -0.0741
 6544SOL    MW425950   3.551   0.617   5.423  0.1473  0.4833  0.2547
 6545SOL     OW25951   6.342   3.426   1.621 -0.3739  0.4927  0.1661
 6545SOL    HW225952   6.364   3.354   1.561 -2.3795  0.3070 -0.4067
 6545SOL    HW325953   6.308   3.383   1.699 -2.8663  0.7478 -0.6924
 6545SOL    MW425954   6.341   3.411   1.623 -0.0812 -0.3154 -0.1392
 6546SOL     OW25955   0.504   2.123   1.556  0.0829 -0.5136  0.0136
 6546SOL    HW225956   0.520   2.094   1.646  1.3690 -3.6929 -1.0583
 6546SOL    HW325957   0.477   2.043   1.510  1.1218  0.5911 -2.7513
 6546SOL    MW425958   0.503   2.108   1.562 -0.0157 -0.2672  0.1538
 6547SOL     OW25959   1.581   4.905   6.325 -0.0871 -0.0515  0.2165
 6547SOL    HW225960   1.641   4.957   6.378 -1.4813  1.4905  0.3844
 6547SOL    HW325961   1.504   4.892   6.381  0.5015 -3.1134  0.5015
 6547SOL    MW425962   1.578   4.910   6.339  0.0631 -0.2990 -0.2622
 6548SOL     OW25963   1.815   0.226   1.734 -0.1152  0.3745  0.8875
 6548SOL    HW225964   1.881   0.238   1.666  0.5851 -1.4718  1.1709
 6548SOL    HW325965   1.757   0.302   1.726  1.1439  1.2476 -0.3845
 6548SOL    MW425966   1.816   0.238   1.724  0.2239  0.3620  0.0700
 6549SOL     OW25967   3.582   2.382   2.859 -0.0818 -0.3888 -0.7309
 6549SOL    HW225968   3.527   2.304   2.868 -0.5349  0.1368  1.8816
 6549SOL    HW325969   3.539   2.435   2.792 -2.1552 -0.5329  0.4181
 6549SOL    MW425970   3.569   2.379   2.851 -0.3663  0.4414  0.6796
 6550SOL     OW25971   5.148   3.310   0.398 -0.0720 -0.2002  0.1850
 6550SOL    HW225972   5.087   3.355   0.456  0.5857 -1.1029  1.6375
 6550SOL    HW325973   5.169   3.228   0.443  1.2285 -0.4906 -0.8711
 6550SOL    MW425974   5.143   3.305   0.411  0.8347 -0.4486  0.2997
 6551SOL     OW25975   4.597   3.893   2.888  0.1900  0.1900  0.2866
 6551SOL    HW225976   4.604   3.954   2.815 -0.9669  0.1466  0.1197
 6551SOL    HW325977   4.503   3.887   2.906  0.4168 -0.1157  1.5128
 6551SOL    MW425978   4.585   3.900   2.881 -0.0003  0.8451  0.1684
 6552SOL     OW25979   0.547   0.306   4.758 -0.3369 -0.3124 -0.2596
 6552SOL    HW225980   0.522   0.308   4.850  0.2403 -1.1820 -0.0701
 6552SOL    HW325981   0.539   0.214   4.733  0.9510 -0.3394 -0.6523
 6552SOL    MW425982   0.543   0.294   4.767  0.0198 -0.2045  0.1810
 6553SOL     OW25983   0.598   1.681   3.604  0.5513  0.4444 -0.6349
 6553SOL    HW225984   0.593   1.760   3.658 -0.2146 -0.3863  0.5589
 6553SOL    HW325985   0.602   1.713   3.514  0.0960  1.8400 -0.1783
 6553SOL    MW425986   0.598   1.695   3.599  0.4799  0.0631  0.5193
 6554SOL     OW25987   0.312   0.464   6.053 -0.1727 -0.2404 -0.4253
 6554SOL    HW225988   0.222   0.455   6.085  0.4612  0.2788  1.6922
 6554SOL    HW325989   0.310   0.541   5.997 -0.6357  1.2858  1.5508
 6554SOL    MW425990   0.300   0.473   6.050 -0.0809 -0.0483 -0.1359
 6555SOL     OW25991   5.521   1.700   2.328  0.2571 -0.0488 -0.4414
 6555SOL    HW225992   5.592   1.749   2.371 -1.2190  1.6861  0.1745
 6555SOL    HW325993   5.467   1.668   2.400 -0.7374  0.5228 -0.9002
 6555SOL    MW425994   5.523   1.702   2.343 -0.0296 -0.4031  0.1020
 6556SOL     OW25995   4.095   1.013   4.775  0.3210  0.0468 -0.4759
 6556SOL    HW225996   4.143   1.095   4.786  0.7297 -0.2519  0.0132
 6556SOL    HW325997   4.126   0.957   4.846 -0.7224 -0.1748 -0.1765
 6556SOL    MW425998   4.105   1.017   4.786 -0.4747 -0.1335  0.0010
 6557SOL     OW25999   1.289   3.852   5.262  0.5035 -0.1655  0.3045
 6557SOL    HW226000   1.302   3.803   5.182  0.5008  0.8711 -0.3515
 6557SOL    HW326001   1.194   3.863   5.268  0.2493 -2.5481  1.9055
 6557SOL    MW426002   1.278   3.847   5.252 -0.0528 -0.1587  0.6760
 6558SOL     OW26003   1.957   2.684   5.274 -0.0923  0.5622 -0.2259
 6558SOL    HW226004   2.025   2.747   5.300 -1.2469  0.6661  3.0461
 6558SOL    HW326005   1.879   2.739   5.258 -0.2571  0.2056 -0.6529
 6558SOL    MW426006   1.955   2.700   5.276  0.5577 -0.1899  0.3532
 6559SOL     OW26007   0.594   0.766   3.826 -0.2717 -0.0720  0.6352
 6559SOL    HW226008   0.526   0.829   3.848 -2.0699 -1.6951  0.0495
 6559SOL    HW326009   0.643   0.754   3.907 -1.6428  0.0494  1.5115
 6559SOL    MW426010   0.591   0.772   3.840  0.3267  0.3858 -0.0098
 6560SOL     OW26011   2.043   5.956   1.491  0.3636 -0.6417 -0.1641
 6560SOL    HW226012   2.046   5.864   1.516  1.5159 -0.9249 -1.2165
 6560SOL    HW326013   2.064   6.004   1.571  0.9216 -1.3651  0.1339
 6560SOL    MW426014   2.047   5.950   1.505  0.0900 -0.3489 -0.1312
 6561SOL     OW26015   2.619   2.398   3.370 -0.7965  0.9635  0.1692
 6561SOL    HW226016   2.700   2.392   3.319  0.9498 -0.5836  2.8818
 6561SOL    HW326017   2.563   2.329   3.335 -0.9702  1.9386 -1.6235
 6561SOL    MW426018   2.622   2.388   3.359  0.1903 -0.3223  0.0297
 6562SOL     OW26019   3.748   2.326   1.649 -0.5549  0.2152 -0.7269
 6562SOL    HW226020   3.728   2.406   1.601 -1.5497  0.5985  0.2905
 6562SOL    HW326021   3.735   2.349   1.741  1.7792 -0.3545 -0.1723
 6562SOL    MW426022   3.744   2.339   1.655  0.1652  0.2722 -0.5674
 6563SOL     OW26023   3.075   1.393   2.602 -0.2015  0.5324 -0.0432
 6563SOL    HW226024   3.025   1.382   2.683 -1.9868  1.9844 -0.8725
 6563SOL    HW326025   3.132   1.316   2.598 -0.3377  0.2193  2.3623
 6563SOL    MW426026   3.076   1.382   2.612 -0.0545 -0.1641  0.0867
 6564SOL     OW26027   0.268   3.644   1.168  0.7218  0.2760 -0.4199
 6564SOL    HW226028   0.179   3.640   1.133 -0.6386  0.0295  2.7935
 6564SOL    HW326029   0.294   3.553   1.181  1.5078  0.3430 -1.3711
 6564SOL    MW426030   0.260   3.631   1.165 -0.6645 -0.1835  0.2618
 6565SOL     OW26031   1.988   0.228   1.484 -0.7099 -0.1385  0.9767
 6565SOL    HW226032   2.044   0.261   1.554 -0.7320  1.1897  0.4133
 6565SOL    HW326033   1.977   0.135   1.503 -0.4261  0.1182  2.5270
 6565SOL    MW426034   1.994   0.220   1.496  0.2191  0.2876 -0.0152
 6566SOL     OW26035   5.220   1.252   1.712 -0.0941  0.1886 -0.8682
 6566SOL    HW226036   5.222   1.159   1.734 -1.6500  0.8951  3.2125
 6566SOL    HW326037   5.140   1.285   1.753 -0.1703  3.2122 -3.0596
 6566SOL    MW426038   5.210   1.244   1.720  0.1375  0.1792  0.5135
 6567SOL     OW26039   3.035   4.413   2.274  1.0914 -0.1195 -0.0500
 6567SOL    HW226040   3.096   4.347   2.308  0.6934  0.0234  0.9727
 6567SOL    HW326041   3.028   4.478   2.344  0.6775  0.4840 -0.6339
 6567SOL    MW426042   3.042   4.413   2.287  0.0602 -0.5150 -0.1382
 6568SOL     OW26043   1.714   1.736   5.535  0.0732 -0.1368  0.3526
 6568SOL    HW226044   1.637   1.766   5.487 -0.6941 -0.5791  1.2634
 6568SOL    HW326045   1.786   1.787   5.500 -0.8551  1.2899  0.4269
 6568SOL    MW426046   1.713   1.746   5.524  0.1662  0.7614  0.1577
 6569SOL     OW26047   3.622   5.675   3.844 -0.3802  0.6727  0.0507
 6569SOL    HW226048   3.709   5.656   3.810 -0.4040 -2.0575  1.2667
 6569SOL    HW326049   3.636   5.746   3.907  0.8432  0.7857 -0.3300
 6569SOL    MW426050   3.635   5.682   3.848 -0.1543 -0.1568  0.6264
 6570SOL     OW26051   0.628   2.010   0.080  0.6346  0.2324  0.3113
 6570SOL    HW226052   0.690   1.963   0.025  0.5874  0.9501 -0.3674
 6570SOL    HW326053   0.549   1.955   0.079  0.9540 -0.2295  0.4380
 6570SOL    MW426054   0.626   1.997   0.073  0.8755 -0.7838  0.1615
 6571SOL     OW26055   3.283   3.090   1.360 -0.1654 -0.3256 -0.0148
 6571SOL    HW226056   3.348   3.152   1.327 -0.2917 -1.0368 -1.6518
 6571SOL    HW326057   3.203   3.142   1.369  0.0584  0.0381 -0.1126
 6571SOL    MW426058   3.281   3.105   1.357 -0.5054 -0.1222 -0.4374
 6572SOL     OW26059   4.446   5.165   6.198 -0.9524 -0.2153  0.7475
 6572SOL    HW226060   4.407   5.100   6.256  0.1540 -0.8251  0.8258
 6572SOL    HW326061   4.529   5.127   6.171 -0.4833  0.9770  0.4389
 6572SOL    MW426062   4.452   5.151   6.202  0.1757 -0.0494  0.3322
 6573SOL     OW26063   2.083   6.011   3.484 -0.6589 -0.0647 -0.0772
 6573SOL    HW226064   2.139   5.992   3.559  0.7327 -1.4694 -1.4013
 6573SOL    HW326065   2.118   6.093   3.448 -0.6769  0.0653  0.1984
 6573SOL    MW426066   2.095   6.020   3.489 -0.0522  0.2600  0.3035
 6574SOL     OW26067   6.016   0.948   1.348 -0.3889  0.1402  0.0130
 6574SOL    HW226068   6.020   0.974   1.255 -0.1516 -0.9213 -0.2875
 6574SOL    HW326069   6.084   1.001   1.390  0.4809 -0.3802 -0.6947
 6574SOL    MW426070   6.026   0.958   1.341 -0.0197 -0.3189  0.6326
 6575SOL     OW26071   4.316   3.440   1.646 -0.7549 -0.3834 -0.2684
 6575SOL    HW226072   4.297   3.528   1.677 -1.9683 -0.1315 -1.6147
 6575SOL    HW326073   4.400   3.418   1.685  0.1656  1.8467 -0.8344
 6575SOL    MW426074   4.325   3.449   1.655 -0.1403  0.2537 -0.2270
 6576SOL     OW26075   6.026   2.113   1.305  0.1166 -0.7785  0.0107
 6576SOL    HW226076   6.016   2.110   1.210  0.5492  1.1609 -0.1427
 6576SOL    HW326077   6.114   2.148   1.318  0.2216 -1.4388  1.1322
 6576SOL    MW426078   6.036   2.117   1.294 -0.2022 -0.3224 -0.1252
 6577SOL     OW26079   2.788   1.343   4.593 -0.2023  0.6237 -0.4150
 6577SOL    HW226080   2.852   1.303   4.535 -0.0734  0.6479 -0.2895
 6577SOL    HW326081   2.802   1.300   4.677 -1.2827 -0.3715 -0.7222
 6577SOL    MW426082   2.798   1.332   4.596  0.3938 -0.8247 -0.3047
 6578SOL     OW26083   0.307   0.703   2.766 -0.4863  0.3951  0.0642
 6578SOL    HW226084   0.371   0.634   2.783 -0.9654 -0.6565 -1.9632
 6578SOL    HW326085   0.241   0.693   2.834 -0.0066 -0.4784  0.4098
 6578SOL    MW426086   0.307   0.693   2.777 -0.8658 -0.3835  0.4070
 6579SOL     OW26087   5.380   5.480   2.869  0.5492 -0.0965  0.0866
 6579SOL    HW226088   5.406   5.434   2.949 -0.9024 -3.4421 -1.1798
 6579SOL    HW326089   5.433   5.441   2.800 -0.8177  0.0188 -1.0821
 6579SOL    MW426090   5.390   5.469   2.871 -0.0601  0.3013 -0.5308
 6580SOL     OW26091   0.687   4.290   4.345 -0.0025  0.2404 -0.0005
 6580SOL    HW226092   0.745   4.362   4.319  2.6856 -1.5769  0.4434
 6580SOL    HW326093   0.698   4.284   4.440  0.1674 -0.9964 -0.0845
 6580SOL    MW426094   0.696   4.298   4.354  1.3718  0.0431 -0.3681
 6581SOL     OW26095   0.182   5.569   2.068  0.1688  0.5394 -0.0568
 6581SOL    HW226096   0.224   5.494   2.110  0.9836  1.0395  0.0382
 6581SOL    HW326097   0.205   5.643   2.124  1.5095  1.2711 -1.5057
 6581SOL    MW426098   0.191   5.569   2.081  0.4682  0.1105 -0.4267
 6582SOL     OW26099   1.216   3.631   1.672  0.0756  0.1243  0.3224
 6582SOL    HW226100   1.219   3.645   1.767 -0.1602 -0.0360  0.3548
 6582SOL    HW326101   1.125   3.647   1.648 -0.3280 -1.7108  0.4325
 6582SOL    MW426102   1.205   3.635   1.682 -0.5315 -0.3424  0.2466
 6583SOL     OW26103   4.219   6.274   5.997  0.1041 -0.4986 -0.0712
 6583SOL    HW226104   4.300   6.320   5.978 -0.1181 -0.0021  0.1565
 6583SOL    HW326105   4.212   6.207   5.929  0.5266 -0.3203 -0.2917
 6583SOL    MW426106   4.228   6.271   5.986 -0.3061  0.2359 -0.5450
 6584SOL     OW26107   0.716   1.062   3.696  0.4763  0.1149 -0.1229
 6584SOL    HW226108   0.788   1.067   3.759  0.2324 -1.1646  0.3018
 6584SOL    HW326109   0.664   0.987   3.726 -1.0630  1.0407 -0.4007
 6584SOL    MW426110   0.719   1.053   3.708  0.3721  0.4049 -0.1381
 6585SOL     OW26111   0.985   4.943   2.669  0.1895  0.5153 -0.3607
 6585SOL    HW226112   1.076   4.914   2.670  0.5406  1.5057 -1.4341
 6585SOL    HW326113   0.958   4.935   2.578 -1.5320 -1.8317  0.2536
 6585SOL    MW426114   0.993   4.938   2.657  1.1560 -0.5370  0.0806
 6586SOL     OW26115   0.302   4.172   5.276  0.4640 -0.1057 -0.4693
 6586SOL    HW226116   0.223   4.173   5.329  0.4438 -0.1315 -0.4988
 6586SOL    HW326117   0.272   4.148   5.188  0.3649  0.8320 -0.6998
 6586SOL    MW426118   0.288   4.169   5.271 -0.2187  0.6581 -0.2443
 6587SOL     OW26119   3.305   5.342   2.042  0.5951  0.0198 -0.0288
 6587SOL    HW226120   3.340   5.363   2.129 -0.7021  0.2383  0.4796
 6587SOL    HW326121   3.290   5.247   2.045  2.5969 -0.3642 -0.8350
 6587SOL    MW426122   3.307   5.332   2.054 -0.5739  0.6328 -0.3588
 6588SOL     OW26123   0.137   1.020   2.970  0.4260 -1.1766 -0.0433
 6588SOL    HW226124   0.163   0.964   3.043 -1.2422 -0.4788  1.1145
 6588SOL    HW326125   0.198   1.094   2.974 -0.7631 -0.2200  1.8297
 6588SOL    MW426126   0.149   1.022   2.980 -0.2511  0.3443  0.7913
 6589SOL     OW26127   4.266   6.064   2.520 -0.3343 -0.5433  0.0967
 6589SOL    HW226128   4.172   6.076   2.533 -0.0963  1.3760  0.3447
 6589SOL    HW326129   4.293   6.138   2.464  1.3495  0.2161  1.7668
 6589SOL    MW426130   4.257   6.076   2.514  0.0736  0.2561 -0.0276
 6590SOL     OW26131   3.627   6.096   0.274  0.1881 -0.4322  0.0173
 6590SOL    HW226132   3.553   6.038   0.289 -0.1403  0.0143  0.1566
 6590SOL    HW326133   3.590   6.184   0.281  0.5779 -0.2040 -0.6810
 6590SOL    MW426134   3.612   6.100   0.277 -0.1556 -0.1419 -0.2045
 6591SOL     OW26135   4.620   1.529   5.263 -0.2766 -0.2937  0.1782
 6591SOL    HW226136   4.586   1.618   5.255  1.2960  0.2270 -1.0756
 6591SOL    HW326137   4.556   1.475   5.218 -0.3521  0.4345 -0.6109
 6591SOL    MW426138   4.607   1.534   5.256 -0.3882  0.1604  0.6619
 6592SOL     OW26139   6.213   2.627   3.936  0.2841 -0.5926 -0.7645
 6592SOL    HW226140   6.122   2.626   3.965  0.3294 -2.1350 -0.5755
 6592SOL    HW326141   6.263   2.649   4.014  0.1040 -0.0117 -0.8063
 6592SOL    MW426142   6.207   2.630   3.950  0.0140  0.2653 -0.2415
 6593SOL     OW26143   5.438   5.329   3.645 -0.0728 -0.0533  0.4424
 6593SOL    HW226144   5.384   5.249   3.647 -0.5704  0.2841  1.4681
 6593SOL    HW326145   5.513   5.306   3.591 -1.2552 -0.5373 -1.0596
 6593SOL    MW426146   5.440   5.315   3.638  0.3577  0.6680  0.4934
 6594SOL     OW26147   5.851   0.598   1.774 -0.4261  0.0566 -0.4762
 6594SOL    HW226148   5.887   0.670   1.722  0.1255  0.3708  0.3227
 6594SOL    HW326149   5.925   0.538   1.787 -0.7916 -0.4856 -0.8324
 6594SOL    MW426150   5.866   0.599   1.769 -0.0769 -0.2320  0.1023
 6595SOL     OW26151   4.824   5.806   4.255  0.3821  0.3870 -0.1313
 6595SOL    HW226152   4.792   5.738   4.196 -0.2668 -0.5695  1.2753
 6595SOL    HW326153   4.750   5.867   4.264 -0.4471 -0.7846  1.5762
 6595SOL    MW426154   4.810   5.805   4.249 -0.2417  0.3746 -0.6275
 6596SOL     OW26155   0.260   4.092   5.004 -0.1374  0.1185  0.0631
 6596SOL    HW226156   0.307   4.014   5.032  1.0926  0.7563 -0.1589
 6596SOL    HW326157   0.170   4.062   4.989  0.3612 -1.2957 -0.2254
 6596SOL    MW426158   0.254   4.077   5.006 -0.1460  0.0564  0.5079
 6597SOL     OW26159   0.710   1.361   6.353 -0.1600  0.1914  0.4065
 6597SOL    HW226160   0.757   1.386   6.274 -1.9855  1.0742 -0.4501
 6597SOL    HW326161   0.620   1.391   6.339 -0.9928 -1.3290  2.0064
 6597SOL    MW426162   0.704   1.368   6.341 -0.5038  0.1447 -0.3546
 6598SOL     OW26163   6.166   4.864   4.907 -0.4177  0.2626 -0.0135
 6598SOL    HW226164   6.129   4.937   4.858  1.1353  0.9582 -0.2011
 6598SOL    HW326165   6.245   4.900   4.949  1.1901 -1.6157 -1.2410
 6598SOL    MW426166   6.172   4.879   4.906  0.3853  0.5287  0.2588
 6599SOL     OW26167   0.600   6.230   3.218 -0.1816  0.9261 -0.5618
 6599SOL    HW226168   0.529   6.274   3.264 -0.8882 -0.0978 -0.6314
 6599SOL    HW326169   0.631   6.164   3.280  1.2210  1.8488 -0.2541
 6599SOL    MW426170   0.594   6.227   3.232 -0.2751 -0.3646 -0.1326
 6600SOL     OW26171   1.286   0.158   2.280  0.4031  0.6461  0.2840
 6600SOL    HW226172   1.270   0.137   2.372 -1.2268 -0.1498 -0.1395
 6600SOL    HW326173   1.205   0.201   2.251  0.8647  0.8198 -0.7971
 6600SOL    MW426174   1.273   0.161   2.288 -0.3944 -0.2737 -0.5358
 6601SOL     OW26175   5.409   4.853   5.107  0.4938 -0.1600 -0.2687
 6601SOL    HW226176   5.437   4.768   5.140  1.4211  0.6575  1.1428
 6601SOL    HW326177   5.319   4.863   5.139  0.8738 -0.0216  0.7864
 6601SOL    MW426178   5.401   4.843   5.115  0.3070 -0.4304 -0.5602
 6602SOL     OW26179   4.921   1.788   3.767 -0.3696 -0.3672  0.3884
 6602SOL    HW226180   4.935   1.827   3.681  2.5983 -0.4413  0.7231
 6602SOL    HW326181   4.942   1.695   3.755  2.0811 -0.0547  1.4715
 6602SOL    MW426182   4.926   1.781   3.754 -0.3380  0.6225  0.2306
 6603SOL     OW26183   6.250   0.746   1.565  0.0889  0.5286 -0.5844
 6603SOL    HW226184   6.156   0.757   1.578  0.3891  1.9495  0.7099
 6603SOL    HW326185   6.287   0.749   1.653  1.2994 -0.6574 -1.0216
 6603SOL    MW426186   6.243   0.748   1.578  0.1942  0.3858 -0.3004
 6604SOL     OW26187   2.076   1.235   3.982  0.5931  0.1405  0.4292
 6604SOL    HW226188   2.014   1.200   4.045  0.2894  0.0710  0.0931
 6604SOL    HW326189   2.032   1.228   3.897  0.8739  0.5174  0.2459
 6604SOL    MW426190   2.062   1.229   3.979 -0.1277  0.0038 -0.2439
 6605SOL     OW26191   5.251   4.168   5.150  0.2273 -0.1197  0.0925
 6605SOL    HW226192   5.335   4.204   5.123 -0.1929  0.8099 -0.0212
 6605SOL    HW326193   5.191   4.190   5.079 -0.7293  1.7121  1.3899
 6605SOL    MW426194   5.254   4.175   5.137  0.3471 -0.2806  0.2205
 6606SOL     OW26195   3.254   2.190   3.653  0.2850  0.1314 -0.3568
 6606SOL    HW226196   3.312   2.264   3.670  1.5109 -1.0300  0.8316
 6606SOL    HW326197   3.251   2.183   3.558 -0.8683  2.4179 -0.5450
 6606SOL    MW426198   3.261   2.199   3.643 -0.6606  0.2440 -0.0546
 6607SOL     OW26199   2.576   0.714   1.445  0.1996  0.2348 -1.1107
 6607SOL    HW226200   2.621   0.796   1.460 -1.3406  1.0164 -0.4648
 6607SOL    HW326201   2.625   0.650   1.497 -0.3593  1.3728  0.9459
 6607SOL    MW426202   2.588   0.716   1.454  0.1496 -0.2527 -0.2066
 6608SOL     OW26203   1.309   5.143   2.136  0.0536  0.0879  0.6781
 6608SOL    HW226204   1.271   5.231   2.138  0.0940  0.1424 -0.5376
 6608SOL    HW326205   1.392   5.153   2.183  0.6711  1.0149 -0.5468
 6608SOL    MW426206   1.315   5.156   2.142 -0.2151  0.3235  0.5096
 6609SOL     OW26207   1.155   4.926   1.510 -0.4128 -0.2640  0.3246
 6609SOL    HW226208   1.167   4.853   1.570 -0.5509  0.7606  1.6440
 6609SOL    HW326209   1.233   4.979   1.521 -0.7586  0.2995  0.1068
 6609SOL    MW426210   1.167   4.923   1.519 -0.3188  0.1393 -0.1921
 6610SOL     OW26211   4.069   5.920   2.834 -0.4365  0.6200  0.6795
 6610SOL    HW226212   4.085   5.909   2.927  4.1944  0.4120  0.0645
 6610SOL    HW326213   4.113   5.846   2.793  0.0224  2.1301 -1.7764
 6610SOL    MW426214   4.077   5.909   2.841 -0.4566  0.0295  0.6414
 6611SOL     OW26215   4.552   6.311   5.619  0.2628  0.2328  0.3460
 6611SOL    HW226216   4.585   6.259   5.692  0.6170  0.9716  0.7252
 6611SOL    HW326217   4.458   6.316   5.634 -0.4137 -3.3094 -1.6496
 6611SOL    MW426218   4.544   6.305   5.631 -0.0540 -0.0565  0.2336
 6612SOL     OW26219   1.594   5.095   3.734  0.0679 -0.1531 -0.4997
 6612SOL    HW226220   1.687   5.087   3.714 -0.1250 -0.1607 -1.4496
 6612SOL    HW326221   1.589   5.093   3.830  1.0720  0.1767 -0.4303
 6612SOL    MW426222   1.606   5.094   3.744 -0.3632 -0.6706 -0.7750
 6613SOL     OW26223   3.886   4.446   4.674  0.1946  0.3142  0.3545
 6613SOL    HW226224   3.897   4.498   4.595  0.5409  0.3994  0.4565
 6613SOL    HW326225   3.828   4.498   4.730 -0.0419  0.2585  0.1668
 6613SOL    MW426226   3.879   4.459   4.671  0.5590  0.0103 -0.0659
 6614SOL     OW26227   1.722   1.521   3.450  0.7205 -0.3828  0.3231
 6614SOL    HW226228   1.724   1.611   3.482 -0.3918 -0.3794  0.4226
 6614SOL    HW326229   1.689   1.470   3.524 -1.0316 -0.5013 -0.5048
 6614SOL    MW426230   1.718   1.526   3.464 -0.0640  0.3425 -1.0298
 6615SOL     OW26231   6.304   3.368   4.126 -0.0642  0.2321 -0.7605
 6615SOL    HW226232   6.289   3.453   4.084  1.0679  2.1384  2.3370
 6615SOL    HW326233   6.223   3.350   4.174 -0.2440 -0.3884 -1.2851
 6615SOL    MW426234   6.292   3.377   4.127 -0.3053  0.2267 -0.1722
 6616SOL     OW26235   1.600   2.081   3.689 -0.2804 -0.0729 -0.4299
 6616SOL    HW226236   1.633   2.005   3.737  0.3546 -0.0686 -0.8381
 6616SOL    HW326237   1.519   2.105   3.734 -0.0483 -0.4733  0.2201
 6616SOL    MW426238   1.594   2.074   3.701  1.1162  0.1487  0.2413
 6617SOL     OW26239   2.911   0.642   0.400 -0.1598 -0.0214  0.5334
 6617SOL    HW226240   2.985   0.601   0.444 -0.2172 -2.3845 -1.3731
 6617SOL    HW326241   2.853   0.669   0.471  1.0596 -1.0253  1.9767
 6617SOL    MW426242   2.913   0.640   0.415 -0.0651  0.3017 -0.8872
 6618SOL     OW26243   0.274   1.290   2.115 -0.4276 -0.2179 -0.0017
 6618SOL    HW226244   0.181   1.270   2.117 -0.5126  0.1837  0.2063
 6618SOL    HW326245   0.287   1.335   2.031 -0.6589  0.8262  0.5097
 6618SOL    MW426246   0.264   1.294   2.104  0.0494  0.0434  0.2337
 6619SOL     OW26247   0.097   1.824   2.930  0.1316  0.3459 -0.4640
 6619SOL    HW226248   0.176   1.772   2.943  1.0079  1.6109 -0.5067
 6619SOL    HW326249   0.065   1.799   2.843 -1.1811 -2.2455  0.6537
 6619SOL    MW426250   0.103   1.814   2.920 -0.0509  0.0624  0.2989
 6620SOL     OW26251   3.636   2.192   3.221 -0.4389 -0.1404  0.1756
 6620SOL    HW226252   3.715   2.139   3.225 -0.5733 -0.2964  0.9896
 6620SOL    HW326253   3.668   2.283   3.221 -0.2606 -0.2029  0.5411
 6620SOL    MW426254   3.650   2.197   3.222  0.2158 -0.1717 -0.4575
 6621SOL     OW26255   4.359   1.457   6.393  0.0406 -0.5898  0.2178
 6621SOL    HW226256   4.290   1.477   6.330  0.8738  1.8792 -0.0395
 6621SOL    HW326257   4.335   1.506   6.471  0.9303 -0.5565  0.4873
 6621SOL    MW426258   4.347   1.466   6.395 -0.1221  0.5501 -0.3313
 6622SOL     OW26259   2.192   3.018   3.452 -0.5257 -0.3935 -0.1303
 6622SOL    HW226260   2.099   3.008   3.432 -0.3851 -0.9239 -0.5331
 6622SOL    HW326261   2.208   3.112   3.447 -1.1851 -0.2290  0.5991
 6622SOL    MW426262   2.182   3.029   3.449  0.3452 -0.3502  0.0480
 6623SOL     OW26263   1.374   5.594   6.432  0.0766  0.4159 -0.5792
 6623SOL    HW226264   1.329   5.511   6.450 -0.9374  1.2127  0.7618
 6623SOL    HW326265   1.305   5.651   6.399 -0.0216  1.7212  1.6887
 6623SOL    MW426266   1.359   5.590   6.430 -0.9909  0.1551  0.5414
 6624SOL     OW26267   6.239   3.631   0.440 -0.2268 -0.3256 -0.0657
 6624SOL    HW226268   6.290   3.708   0.414 -0.5523 -0.6769 -1.9270
 6624SOL    HW326269   6.303   3.571   0.477  0.3871  0.0334 -0.5172
 6624SOL    MW426270   6.254   3.633   0.441 -0.5916 -0.4797  0.2829
 6625SOL     OW26271   1.992   5.683   2.623 -0.6200 -0.2739  0.5693
 6625SOL    HW226272   1.968   5.771   2.594  0.2241  0.1355  1.0701
 6625SOL    HW326273   1.939   5.668   2.701 -2.8757 -1.3668 -1.0965
 6625SOL    MW426274   1.982   5.693   2.630  0.2259  0.7363 -0.1622
 6626SOL     OW26275   5.254   4.975   2.133  0.2330 -0.2211  0.0396
 6626SOL    HW226276   5.320   4.917   2.094  1.7369  2.2781 -1.4235
 6626SOL    HW326277   5.233   5.037   2.063 -2.0997  0.3792  1.1843
 6626SOL    MW426278   5.260   4.976   2.119  0.3904 -0.1560  0.3517
 6627SOL     OW26279   4.006   1.752   5.851 -0.7790 -0.4686  0.6446
 6627SOL    HW226280   3.988   1.819   5.917  0.2202 -0.4874  0.9573
 6627SOL    HW326281   3.938   1.764   5.785  0.6948  2.4620 -0.5403
 6627SOL    MW426282   3.995   1.763   5.851 -0.5616  0.1702  0.0750
 6628SOL     OW26283   6.362   1.590   5.182 -0.0377 -0.6716 -0.1281
 6628SOL    HW226284   6.378   1.616   5.092  0.5943 -0.3394  0.0770
 6628SOL    HW326285   6.302   1.656   5.216  2.5614  1.3604  0.7817
 6628SOL    MW426286   6.356   1.602   5.175  0.0218  0.0293  0.2530
 6629SOL     OW26287   2.285   0.234   4.759 -0.1512 -0.2046 -0.4845
 6629SOL    HW226288   2.194   0.257   4.773 -0.1261 -0.9368  1.1696
 6629SOL    HW326289   2.327   0.251   4.843  1.1799 -0.1642 -1.1261
 6629SOL    MW426290   2.279   0.239   4.772  0.5268 -0.2596 -0.3413
 6630SOL     OW26291   5.433   0.057   2.092  0.2855  0.0761  0.1902
 6630SOL    HW226292   5.381  -0.013   2.130 -0.3727  0.6338  0.3396
 6630SOL    HW326293   5.382   0.088   2.018  0.1666  0.9355  0.6130
 6630SOL    MW426294   5.420   0.052   2.087 -0.7337 -0.3882  0.3538
 6631SOL     OW26295   2.569   3.350   5.936 -0.2979 -0.1483 -0.6511
 6631SOL    HW226296   2.546   3.441   5.919  2.0020  0.6310  0.1069
 6631SOL    HW326297   2.505   3.320   6.000 -0.1340  1.4445  0.3016
 6631SOL    MW426298   2.558   3.358   5.942 -0.1397  0.5274  0.3180
 6632SOL     OW26299   3.369   0.544   0.138  0.1237  0.1391 -0.1810
 6632SOL    HW226300   3.423   0.533   0.060  0.1104 -0.0355 -0.1672
 6632SOL    HW326301   3.303   0.475   0.131  0.5158 -0.3003  0.3044
 6632SOL    MW426302   3.367   0.533   0.127  0.4058  0.6300  0.2290
 6633SOL     OW26303   3.589   0.238   3.728  0.0512 -0.0886 -0.2230
 6633SOL    HW226304   3.654   0.294   3.771 -1.9125  1.9154  0.3076
 6633SOL    HW326305   3.509   0.290   3.727 -2.3664 -3.4327  1.6126
 6633SOL    MW426306   3.587   0.252   3.733 -0.1156  0.0120  0.1775
 6634SOL     OW26307   4.037   0.201   3.789 -1.0774  0.0051  0.1126
 6634SOL    HW226308   4.010   0.112   3.765 -2.5086  0.5662 -0.4912
 6634SOL    HW326309   4.021   0.253   3.710 -2.5440  1.2360  1.1424
 6634SOL    MW426310   4.031   0.196   3.775  0.0264 -0.0662  0.2547
 6635SOL     OW26311   0.953   1.536   4.766 -0.1825 -0.5545 -0.2170
 6635SOL    HW226312   0.900   1.481   4.708 -0.4703 -0.2904 -0.2068
 6635SOL    HW326313   1.041   1.499   4.761 -0.3452 -0.9309 -0.3183
 6635SOL    MW426314   0.957   1.524   4.758 -0.2388 -0.5995 -0.0390
 6636SOL     OW26315   6.066   5.018   1.572 -0.5416 -0.2451  0.0604
 6636SOL    HW226316   5.971   5.006   1.565 -0.5252 -1.3803  1.4906
 6636SOL    HW326317   6.079   5.111   1.555 -1.7479 -0.3296 -1.5342
 6636SOL    MW426318   6.055   5.029   1.569  0.0018  0.2057 -0.5305
 6637SOL     OW26319   5.813   1.381   4.224  0.3744 -0.4931  0.2454
 6637SOL    HW226320   5.742   1.325   4.256  2.4992 -3.4074  0.3336
 6637SOL    HW326321   5.797   1.388   4.130 -1.6253  1.5141  0.6657
 6637SOL    MW426322   5.801   1.374   4.216 -0.2253 -0.3327  0.3462
 6638SOL     OW26323   4.981   1.911   3.517  0.1068  0.0918  0.0073
 6638SOL    HW226324   5.045   1.971   3.481  0.1204  0.1162  0.0718
 6638SOL    HW326325   4.920   1.894   3.445  0.3983 -0.2276 -0.1680
 6638SOL    MW426326   4.981   1.917   3.503  0.0065  0.0318 -0.2262
 6639SOL     OW26327   3.689   1.121   2.936 -0.0570  0.0271  0.2294
 6639SOL    HW226328   3.616   1.163   2.892 -1.5017 -0.5894  1.9118
 6639SOL    HW326329   3.661   1.031   2.951 -0.2053  0.4750  3.3612
 6639SOL    MW426330   3.676   1.115   2.932 -0.7852  0.4641 -0.1187
 6640SOL     OW26331   2.472   5.556   0.446  0.0956 -0.5909 -0.5512
 6640SOL    HW226332   2.456   5.574   0.539  0.2003 -1.0659 -0.4376
 6640SOL    HW326333   2.567   5.563   0.437 -0.0078  0.6549 -0.8869
 6640SOL    MW426334   2.483   5.560   0.457  0.1393  0.3430 -0.4019
 6641SOL     OW26335   5.564   2.604   0.086 -0.4515  0.1062 -0.2952
 6641SOL    HW226336   5.578   2.676   0.025  0.3850  1.2915  1.2333
 6641SOL    HW326337   5.478   2.570   0.062 -0.4258  0.9347 -1.7080
 6641SOL    MW426338   5.554   2.609   0.075  0.0206 -0.7870  0.5203
 6642SOL     OW26339   3.127   3.270   0.382 -0.2011 -0.1773 -0.0556
 6642SOL    HW226340   3.102   3.242   0.294 -1.2643  1.0355 -0.1770
 6642SOL    HW326341   3.084   3.355   0.392  0.3597 -0.0539  1.4339
 6642SOL    MW426342   3.118   3.278   0.371  0.5582 -0.2751  0.0716
 6643SOL     OW26343   1.871   1.656   0.299  0.7627 -0.1974  0.1085
 6643SOL    HW226344   1.918   1.604   0.234  0.9338  0.5568 -0.3808
 6643SOL    HW326345   1.829   1.592   0.355  3.9410 -1.0082  1.7903
 6643SOL    MW426346   1.872   1.641   0.298  0.7716 -0.0606  0.5713
 6644SOL     OW26347   5.508   3.667   0.082 -0.2234 -0.6594  0.4255
 6644SOL    HW226348   5.567   3.720   0.135 -0.3613  1.2426 -1.1898
 6644SOL    HW326349   5.539   3.577   0.093  0.5278 -0.1859  2.6371
 6644SOL    MW426350   5.520   3.662   0.090  0.1096 -0.1355 -0.4669
 6645SOL     OW26351   2.481   4.222   5.214  0.2768  0.6340  0.2231
 6645SOL    HW226352   2.428   4.239   5.137  1.1237 -1.6681 -0.9493
 6645SOL    HW326353   2.536   4.300   5.222 -0.2837  1.2008 -1.0983
 6645SOL    MW426354   2.481   4.235   5.205  0.0666  0.2995 -0.4350
 6646SOL     OW26355   2.928   2.411   6.216 -0.6188  0.2243  0.0303
 6646SOL    HW226356   2.991   2.340   6.211 -0.5296  0.3798 -1.4517
 6646SOL    HW326357   2.976   2.484   6.255  0.1753  0.3613 -1.1373
 6646SOL    MW426358   2.943   2.411   6.220 -0.8924 -0.0433  0.0710
 6647SOL     OW26359   6.215   4.468   0.954  0.1960  0.2919 -0.3274
 6647SOL    HW226360   6.250   4.486   1.041  1.7431 -1.9909 -0.4023
 6647SOL    HW326361   6.156   4.394   0.967 -0.0280  0.3218 -1.1419
 6647SOL    MW426362   6.212   4.461   0.967 -0.2047  0.2281 -1.0335
 6648SOL     OW26363   6.388   3.807   2.624 -0.2025  0.2048 -0.1719
 6648SOL    HW226364   6.419   3.727   2.584 -0.5466  1.1620 -2.4891
 6648SOL    HW326365   6.296   3.790   2.643 -0.4285  0.2192 -1.1990
 6648SOL    MW426366   6.380   3.794   2.622 -0.7379  0.6537  0.1569
 6649SOL     OW26367   0.749   5.289   2.147  0.2211 -0.1628  0.0048
 6649SOL    HW226368   0.755   5.372   2.194  3.1153 -0.3175  0.0890
 6649SOL    HW326369   0.655   5.273   2.139 -0.4962  3.3635 -0.5167
 6649SOL    MW426370   0.737   5.298   2.152  0.1590 -0.3927  0.2086
 6650SOL     OW26371   2.390   4.591   4.571 -0.3155 -0.3123  0.0981
 6650SOL    HW226372   2.465   4.644   4.597 -2.1934  1.8644  1.4361
 6650SOL    HW326373   2.374   4.614   4.480 -0.7610  1.0920  0.5005
 6650SOL    MW426374   2.397   4.601   4.562  0.1203 -0.2917  0.1489
 6651SOL     OW26375   1.970   5.248   6.082 -0.0954 -0.4075  0.1638
 6651SOL    HW226376   1.976   5.246   5.986 -2.4833  1.9135 -0.1270
 6651SOL    HW326377   1.902   5.184   6.104 -0.1312 -0.3410  0.2471
 6651SOL    MW426378   1.962   5.239   6.072 -0.3373  0.1808 -0.5338
 6652SOL     OW26379   5.243   4.844   6.307 -0.0236  0.4187 -0.0266
 6652SOL    HW226380   5.179   4.912   6.284 -0.1171 -0.1222 -1.4436
 6652SOL    HW326381   5.236   4.779   6.237  2.3474  0.5267 -0.4535
 6652SOL    MW426382   5.233   4.845   6.294 -0.1401  0.5458  1.0090
 6653SOL     OW26383   2.995   1.110   4.164 -0.5961 -0.2973 -0.3670
 6653SOL    HW226384   2.987   1.082   4.073  0.4874  0.9282 -0.8621
 6653SOL    HW326385   2.933   1.055   4.211 -3.1263  0.7667 -2.2186
 6653SOL    MW426386   2.986   1.099   4.158 -0.5796  0.1257  0.3253
 6654SOL     OW26387   5.601   0.690   6.240 -0.4408  0.4813 -0.0810
 6654SOL    HW226388   5.547   0.651   6.172 -1.2286  1.8379 -0.2638
 6654SOL    HW326389   5.540   0.739   6.295  0.4668  1.2123  0.3071
 6654SOL    MW426390   5.586   0.691   6.238  0.0536  0.0629  0.5217
 6655SOL     OW26391   0.374   2.068   2.956  0.6192 -0.5345 -0.2115
 6655SOL    HW226392   0.364   1.996   2.895 -0.8489 -1.9778  1.6201
 6655SOL    HW326393   0.288   2.109   2.960  0.6785 -0.4770  0.8817
 6655SOL    MW426394   0.362   2.064   2.948  0.6037  0.2814 -0.0188
 6656SOL     OW26395   3.091   4.842   5.065  0.1763 -0.0576  0.7274
 6656SOL    HW226396   3.092   4.763   5.009  0.2055  0.9065 -0.6886
 6656SOL    HW326397   3.041   4.816   5.142 -2.2525 -0.6769 -0.9468
 6656SOL    MW426398   3.085   4.828   5.068 -0.0717  0.5772 -0.0766
 6657SOL     OW26399   0.144   1.075   4.936  0.0618  0.0900  0.2293
 6657SOL    HW226400   0.224   1.046   4.893 -0.7137  0.3161 -1.4284
 6657SOL    HW326401   0.079   1.081   4.866 -1.2743  0.4489  1.4356
 6657SOL    MW426402   0.146   1.072   4.921  0.1222  0.5511  0.3119
 6658SOL     OW26403   3.379   1.885   1.612 -0.9789  0.0956 -0.3220
 6658SOL    HW226404   3.296   1.845   1.584 -1.5089 -0.2899  1.6684
 6658SOL    HW326405   3.444   1.849   1.551 -2.0148 -0.9523 -0.8582
 6658SOL    MW426406   3.377   1.875   1.600 -0.1160  0.3452  0.0256
 6659SOL     OW26407   5.877   3.298   2.078 -0.0878  0.4445  0.7140
 6659SOL    HW226408   5.902   3.209   2.053 -1.5280 -0.2477  1.6817
 6659SOL    HW326409   5.946   3.326   2.139  1.7726  1.0073 -1.4847
 6659SOL    MW426410   5.890   3.290   2.082 -0.0562 -0.2692  0.1115
 6660SOL     OW26411   2.677   0.094   0.811  0.8446  0.6302  0.4887
 6660SOL    HW226412   2.728   0.158   0.761  0.2321  0.4605 -0.3715
 6660SOL    HW326413   2.615   0.148   0.861  0.1834  0.7182 -0.4013
 6660SOL    MW426414   2.675   0.110   0.811  0.4042 -0.3549  0.0643
 6661SOL     OW26415   3.019   1.187   5.946 -0.3558  0.8702 -0.1742
 6661SOL    HW226416   3.038   1.214   5.856 -1.4590 -0.0862 -0.7247
 6661SOL    HW326417   2.948   1.122   5.937  0.5522 -0.3961  1.2550
 6661SOL    MW426418   3.012   1.182   5.933  0.4409 -0.7156  0.7063
 6662SOL     OW26419   5.666   6.289   4.090 -0.1155 -0.1073  0.0739
 6662SOL    HW226420   5.759   6.273   4.105  0.4807  0.5039 -2.4337
 6662SOL    HW326421   5.663   6.332   4.004 -2.5624  1.7656  0.9835
 6662SOL    MW426422   5.678   6.292   4.080  0.4504  0.5318  0.3764
 6663SOL     OW26423   2.029   0.840   1.895  0.6681  0.1653 -0.6153
 6663SOL    HW226424   2.064   0.918   1.937  3.5675 -0.8174 -0.9707
 6663SOL    HW326425   2.021   0.776   1.966 -1.5928  0.6546 -0.3451
 6663SOL    MW426426   2.032   0.842   1.910 -0.0709  0.2832 -0.0720
 6664SOL     OW26427   2.430   1.031   0.179  0.0810 -0.2791 -0.6049
 6664SOL    HW226428   2.341   1.063   0.166  0.0168 -0.8497 -1.7302
 6664SOL    HW326429   2.420   0.936   0.186  0.5216 -0.2764  0.1083
 6664SOL    MW426430   2.417   1.023   0.178  0.5499 -0.0348 -0.0931
 6665SOL     OW26431   4.577   6.081   2.393  0.3940 -0.2937 -0.2433
 6665SOL    HW226432   4.581   6.005   2.335 -0.2274 -1.0305  0.6450
 6665SOL    HW326433   4.634   6.058   2.467 -0.7432 -0.4438  0.6225
 6665SOL    MW426434   4.585   6.068   2.395  0.2886  0.0046  0.1887
 6666SOL     OW26435   4.100   1.334   0.541  0.1106  0.1275 -0.9954
 6666SOL    HW226436   4.188   1.308   0.570  0.4720  0.7852 -1.4726
 6666SOL    HW326437   4.087   1.420   0.580 -0.6435 -0.2849 -0.3068
 6666SOL    MW426438   4.110   1.342   0.550 -0.6162 -0.2857 -0.6647
 6667SOL     OW26439   1.552   6.381   2.536  1.0826 -0.2434  0.7883
 6667SOL    HW226440   1.595   6.404   2.454  0.9729  1.0074  1.0622
 6667SOL    HW326441   1.591   6.298   2.562  1.5431 -0.3499 -0.2238
 6667SOL    MW426442   1.563   6.373   2.529  0.4614  0.6328  0.4166
 6668SOL     OW26443   4.453   3.682   2.163  0.7084  0.5593 -0.1257
 6668SOL    HW226444   4.497   3.760   2.128 -1.4087  2.4308  1.1031
 6668SOL    HW326445   4.395   3.716   2.231 -0.7941 -2.0431  0.0227
 6668SOL    MW426446   4.451   3.697   2.167 -0.0416 -0.2487  0.1422
 6669SOL     OW26447   3.926   5.711   1.742  0.4633 -0.6973  0.1434
 6669SOL    HW226448   3.933   5.684   1.650 -0.6661 -2.7184  0.5979
 6669SOL    HW326449   3.848   5.767   1.744  1.0185  0.1223 -0.2535
 6669SOL    MW426450   3.916   5.715   1.730 -0.1601  0.6250  0.2922
 6670SOL     OW26451   6.215   3.487   4.929  0.0763  0.6188 -0.0769
 6670SOL    HW226452   6.198   3.460   4.839  1.0308 -0.5453  0.0570
 6670SOL    HW326453   6.305   3.458   4.946 -0.6835 -0.8954  1.8456
 6670SOL    MW426454   6.225   3.480   4.920  0.3455  0.0566 -0.9928
 6671SOL     OW26455   0.691   3.916   4.491 -0.4014 -0.7896  0.5931
 6671SOL    HW226456   0.610   3.962   4.471 -0.4987 -1.0099  0.4864
 6671SOL    HW326457   0.687   3.899   4.585  0.0713  0.2785  0.8248
 6671SOL    MW426458   0.680   3.920   4.500 -0.5321 -0.3864 -0.1722
 6672SOL     OW26459   2.984   1.718   2.940 -0.4800  0.2043  0.0664
 6672SOL    HW226460   2.979   1.813   2.951  1.5849  0.3023  0.5745
 6672SOL    HW326461   3.048   1.705   2.870  0.1827 -0.8191  0.8280
 6672SOL    MW426462   2.992   1.729   2.933  0.0590 -0.0440  0.0190
 6673SOL     OW26463   1.591   0.431   3.748 -0.8676 -0.4602 -0.0387
 6673SOL    HW226464   1.506   0.431   3.792 -1.4499 -1.6859 -1.0959
 6673SOL    HW326465   1.618   0.523   3.748 -1.3348 -0.2795  1.8888
 6673SOL    MW426466   1.584   0.443   3.754  0.0352 -0.1601 -0.1491
 6674SOL     OW26467   1.965   5.982   3.842  0.2012 -0.3830  0.0755
 6674SOL    HW226468   1.950   6.057   3.784  1.7759  0.5718  0.8427
 6674SOL    HW326469   2.059   5.964   3.834 -0.0969 -2.1141  0.1256
 6674SOL    MW426470   1.976   5.990   3.833 -0.5064  0.4963  0.3284
 6675SOL     OW26471   0.106   0.256   5.624 -0.5710  0.1835  0.1015
 6675SOL    HW226472   0.095   0.165   5.650 -3.2499  0.6514  0.9507
 6675SOL    HW326473   0.084   0.259   5.531 -2.0718  0.1826  0.4446
 6675SOL    MW426474   0.102   0.245   5.615 -0.0801 -0.8182  0.4392
 6676SOL     OW26475   3.256   5.761   3.829 -0.3844 -0.4555 -0.0196
 6676SOL    HW226476   3.174   5.776   3.783 -0.3313  0.9165  0.2842
 6676SOL    HW326477   3.310   5.837   3.806  0.7247 -1.2416 -0.0628
 6676SOL    MW426478   3.253   5.773   3.820  0.0596  0.8133 -0.5334
 6677SOL     OW26479   0.773   5.336   1.545  0.3690  0.1919 -0.0343
 6677SOL    HW226480   0.865   5.311   1.553  0.3299  0.3891  1.1961
 6677SOL    HW326481   0.725   5.261   1.580 -0.0243 -0.4568 -1.8490
 6677SOL    MW426482   0.779   5.323   1.550  0.3309 -0.5150  0.0937
 6678SOL     OW26483   3.759   3.869   3.431  0.3500  0.3861  0.4045
 6678SOL    HW226484   3.748   3.774   3.426 -0.1222  0.4659 -0.2932
 6678SOL    HW326485   3.696   3.904   3.367 -0.9368  1.2756  2.0633
 6678SOL    MW426486   3.749   3.861   3.422  0.3251 -0.1794  0.2579
 6679SOL     OW26487   0.374   5.972   4.179  0.4470  0.1153  0.6060
 6679SOL    HW226488   0.337   5.976   4.090  0.7355  0.3130  0.4945
 6679SOL    HW326489   0.373   5.879   4.202  1.7992 -0.1114 -0.2005
 6679SOL    MW426490   0.369   5.961   4.170 -0.7436 -0.0511  0.0256
 6680SOL     OW26491   5.882   2.725   4.923  0.2959  1.0110 -0.3317
 6680SOL    HW226492   5.806   2.728   4.981  1.7199 -1.2061  1.8273
 6680SOL    HW326493   5.925   2.810   4.935  0.7369  0.4986  2.2375
 6680SOL    MW426494   5.878   2.737   4.932 -0.0466  0.0105 -0.1386
 6681SOL     OW26495   0.376   0.574   2.311 -0.6305  0.1676  0.5449
 6681SOL    HW226496   0.422   0.656   2.327 -0.6813  0.0323  1.4205
 6681SOL    HW326497   0.431   0.507   2.351  1.0717 -0.6959 -2.8333
 6681SOL    MW426498   0.389   0.576   2.318 -0.5804 -0.1188  0.2168
 6682SOL     OW26499   3.396   2.958   2.656 -0.1502 -0.3072 -0.0428
 6682SOL    HW226500   3.373   2.959   2.749 -0.1583  0.5735 -0.0388
 6682SOL    HW326501   3.490   2.974   2.654  0.0645 -1.5034 -0.1517
 6682SOL    MW426502   3.406   2.961   2.668 -0.3293  0.0917  0.5708
 6683SOL     OW26503   5.408   2.605   2.045  0.0089 -0.3162  0.5330
 6683SOL    HW226504   5.351   2.555   2.103 -1.8029  2.5664  1.4701
 6683SOL    HW326505   5.349   2.662   1.996  1.7340 -0.6776 -2.2145
 6683SOL    MW426506   5.393   2.606   2.046 -0.2642 -0.0353  0.2811
 6684SOL     OW26507   6.189   0.606   3.132 -0.1033 -0.0898 -0.4287
 6684SOL    HW226508   6.118   0.604   3.068  0.1163 -0.5927 -0.6552
 6684SOL    HW326509   6.269   0.603   3.080  0.1046  1.0413 -0.2032
 6684SOL    MW426510   6.190   0.606   3.117 -0.1503  0.8140 -0.0446
 6685SOL     OW26511   2.365   5.249   4.444 -0.0061 -0.1968  0.1319
 6685SOL    HW226512   2.377   5.156   4.461  2.0730  0.2838  1.6772
 6685SOL    HW326513   2.327   5.284   4.524 -2.2454  0.1087 -0.9793
 6685SOL    MW426514   2.361   5.242   4.457  0.9529 -0.3435  0.1890
 6686SOL     OW26515   0.663   1.592   0.998  0.5454  0.2306  0.0201
 6686SOL    HW226516   0.634   1.653   0.930  0.0250 -0.6283 -0.5493
 6686SOL    HW326517   0.676   1.646   1.076  0.6907  1.1561 -0.6326
 6686SOL    MW426518   0.661   1.607   0.999 -0.1219  0.0393 -0.0156
 6687SOL     OW26519   4.712   5.690   0.029  0.0994  0.0411 -0.1560
 6687SOL    HW226520   4.660   5.761   0.065  0.3293  0.9907 -1.6102
 6687SOL    HW326521   4.802   5.723   0.030  0.2040 -0.2042 -0.8631
 6687SOL    MW426522   4.717   5.703   0.034  0.3609  0.0360 -0.3615
 6688SOL     OW26523   1.434   1.291   5.369 -0.4147  0.7588  0.0939
 6688SOL    HW226524   1.380   1.245   5.434  0.0989  1.1389  0.7973
 6688SOL    HW326525   1.497   1.341   5.420  1.6243 -0.8371 -0.7027
 6688SOL    MW426526   1.435   1.291   5.384  0.1912 -0.1384 -0.2799
 6689SOL     OW26527   0.701   0.586   5.162  0.1805 -0.0897  0.4431
 6689SOL    HW226528   0.792   0.560   5.145  0.1475  0.3724 -0.5896
 6689SOL    HW326529   0.706   0.638   5.242  1.1614  1.4577 -0.5431
 6689SOL    MW426530   0.714   0.590   5.170 -0.9063 -0.5253 -0.4187
 6690SOL     OW26531   1.589   0.050   4.795 -0.3290  0.0799  0.8331
 6690SOL    HW226532   1.653   0.118   4.819 -0.9295  0.3815  1.6551
 6690SOL    HW326533   1.641  -0.030   4.785  0.2821  0.4886  0.6644
 6690SOL    MW426534   1.605   0.049   4.797  0.5004  0.0303  0.1710
 6691SOL     OW26535   1.531   5.544   5.077 -0.0574  0.1130  0.2030
 6691SOL    HW226536   1.441   5.515   5.063 -0.1576 -0.3343  1.5863
 6691SOL    HW326537   1.555   5.589   4.997 -1.1934 -0.5818 -0.5500
 6691SOL    MW426538   1.522   5.546   5.065 -0.0323 -0.1073  0.2051
 6692SOL     OW26539   1.307   5.033   4.264 -0.5163 -0.0166  0.0253
 6692SOL    HW226540   1.328   4.952   4.310 -1.2685  0.4929  1.3096
 6692SOL    HW326541   1.292   5.006   4.174  0.7528 -1.0808  0.1016
 6692SOL    MW426542   1.308   5.019   4.258  0.1478  0.2392  0.0638
 6693SOL     OW26543   4.372   0.990   2.468  0.0571  0.3584  0.0151
 6693SOL    HW226544   4.430   1.035   2.407 -0.3790  0.8838 -0.0148
 6693SOL    HW326545   4.367   0.900   2.435  1.2223  0.1809  0.2877
 6693SOL    MW426546   4.379   0.984   2.456  0.3571 -0.1661 -0.0809
 6694SOL     OW26547   0.920   2.862   1.034  0.3893  0.6682  0.6651
 6694SOL    HW226548   0.838   2.825   1.065 -0.7072  3.0100  0.6980
 6694SOL    HW326549   0.984   2.791   1.045 -0.7049  0.0882  4.5667
 6694SOL    MW426550   0.918   2.847   1.039  0.0221  0.5746 -0.4577
 6695SOL     OW26551   2.540   4.757   5.283 -0.0362 -0.5383 -0.1061
 6695SOL    HW226552   2.453   4.775   5.247 -0.2714 -0.0487  0.6701
 6695SOL    HW326553   2.554   4.664   5.268 -0.1256 -0.3708 -1.4275
 6695SOL    MW426554   2.530   4.747   5.276  0.1578  0.7387 -0.2168
 6696SOL     OW26555   3.999   0.161   4.932 -0.2609  0.0279 -0.5921
 6696SOL    HW226556   4.017   0.250   4.962 -0.9153  0.2254 -0.7816
 6696SOL    HW326557   3.940   0.124   4.998  2.2587 -1.2929  1.0851
 6696SOL    MW426558   3.994   0.167   4.945 -0.1317 -0.6139 -0.0392
 6697SOL     OW26559   2.925   4.999   2.922 -0.1176  0.8280  0.0799
 6697SOL    HW226560   2.834   4.975   2.906 -0.2470  0.8056  0.8364
 6697SOL    HW326561   2.924   5.095   2.929 -0.0250  0.8549 -0.2274
 6697SOL    MW426562   2.913   5.009   2.921 -0.0805  0.2659 -0.0990
 6698SOL     OW26563   0.094   4.433   1.053  0.1824  0.0858  0.1398
 6698SOL    HW226564   0.123   4.375   0.983  0.3117  1.2252 -0.7852
 6698SOL    HW326565   0.024   4.385   1.097  2.0517 -1.8777  1.1394
 6698SOL    MW426566   0.089   4.419   1.049 -0.0542  0.3300  0.1711
 6699SOL     OW26567   3.279   6.259   0.046 -0.2522  0.2912  0.2119
 6699SOL    HW226568   3.348   6.308   0.090 -1.1109  1.4442  0.3206
 6699SOL    HW326569   3.324   6.215  -0.026  1.2394 -1.9113  2.3439
 6699SOL    MW426570   3.294   6.260   0.042 -0.1884  0.0533  0.2018
 6700SOL     OW26571   4.041   2.618   5.397 -0.0433 -0.2906 -0.5059
 6700SOL    HW226572   4.061   2.691   5.339 -0.0873  1.4679  1.5232
 6700SOL    HW326573   3.950   2.596   5.378 -0.4801  1.1649 -0.2179
 6700SOL    MW426574   4.032   2.625   5.387  0.2021 -0.1214 -0.3669
 6701SOL     OW26575   4.718   5.034   5.587  0.3117 -0.0801  0.1204
 6701SOL    HW226576   4.652   5.098   5.560  2.1127  1.6520 -0.4313
 6701SOL    HW326577   4.703   5.023   5.681 -0.6433  0.3965  0.0407
 6701SOL    MW426578   4.707   5.041   5.596 -0.5255 -0.2368 -0.2190
 6702SOL     OW26579   4.726   3.758   4.798 -0.1669  0.2399 -0.5340
 6702SOL    HW226580   4.650   3.804   4.832 -0.2583 -0.5451  0.3450
 6702SOL    HW326581   4.800   3.797   4.843 -0.4145 -2.0099  2.0617
 6702SOL    MW426582   4.726   3.769   4.808  0.4585 -0.2771 -0.1727
 6703SOL     OW26583   0.976   5.330   3.850  0.0327  0.0866 -0.2565
 6703SOL    HW226584   0.946   5.281   3.774  1.0124  0.3813 -0.8501
 6703SOL    HW326585   1.070   5.343   3.836  0.3329 -0.2470  1.2307
 6703SOL    MW426586   0.984   5.325   3.839 -0.4545  0.3696 -0.0210
 6704SOL     OW26587   0.445   1.899   1.419  0.3911 -0.4511 -0.0877
 6704SOL    HW226588   0.469   1.937   1.334 -0.9033  0.8628  0.0994
 6704SOL    HW326589   0.376   1.836   1.398 -1.0058  0.9405  0.0754
 6704SOL    MW426590   0.439   1.896   1.405 -0.0587  0.1205  0.8393
 6705SOL     OW26591   0.777   3.794   1.216  0.2300  0.2368 -0.1429
 6705SOL    HW226592   0.809   3.857   1.151  1.0836 -1.6575 -1.6249
 6705SOL    HW326593   0.683   3.787   1.197  0.4153 -0.0781 -0.9982
 6705SOL    MW426594   0.769   3.802   1.205 -0.2412 -0.1815 -0.3289
 6706SOL     OW26595   0.150   0.873   5.931 -0.1333 -0.0882 -0.8491
 6706SOL    HW226596   0.196   0.796   5.899 -0.2782 -0.1228 -0.9793
 6706SOL    HW326597   0.068   0.839   5.967  1.5954 -0.5451  3.1414
 6706SOL    MW426598   0.145   0.859   5.932 -0.2936  0.4367 -0.0759
 6707SOL     OW26599   1.185   3.661   5.744  0.3555  0.1873  0.3263
 6707SOL    HW226600   1.248   3.727   5.715 -0.5214  1.4817  1.2466
 6707SOL    HW326601   1.168   3.608   5.667  0.3429  1.6692 -0.7225
 6707SOL    MW426602   1.191   3.663   5.730  0.3613 -0.0012  0.4928
 6708SOL     OW26603   2.694   0.947   5.315  0.1919 -0.5264 -0.4331
 6708SOL    HW226604   2.616   0.999   5.334  0.1870 -0.1686 -1.3851
 6708SOL    HW326605   2.692   0.877   5.380  0.1943  0.6476  0.8811
 6708SOL    MW426606   2.683   0.945   5.326 -0.4118  0.3571  1.2078
 6709SOL     OW26607   3.434   2.696   2.081 -0.3597  0.0713  0.3484
 6709SOL    HW226608   3.362   2.742   2.038 -0.2567  1.2218  1.3763
 6709SOL    HW326609   3.403   2.681   2.170  0.3165 -0.2609  0.5357
 6709SOL    MW426610   3.420   2.700   2.087  0.4608 -0.1055 -0.1296
 6710SOL     OW26611   3.710   2.641   5.685  0.1759 -0.0045  0.1409
 6710SOL    HW226612   3.637   2.613   5.629 -0.3697 -0.5123  1.0778
 6710SOL    HW326613   3.765   2.564   5.693  0.8270  0.3745 -0.5490
 6710SOL    MW426614   3.707   2.627   5.679  0.1281 -0.2220 -0.0828
 6711SOL     OW26615   2.512   3.498   2.050  0.7503  0.3290 -0.6220
 6711SOL    HW226616   2.474   3.479   2.136  0.7846  0.9400 -0.4678
 6711SOL    HW326617   2.601   3.527   2.068  2.1687 -3.2602 -1.1187
 6711SOL    MW426618   2.519   3.500   2.063  0.4378  0.0273  0.6664
 6712SOL     OW26619   4.050   5.059   1.165  0.4635  0.3997 -0.3379
 6712SOL    HW226620   3.959   5.033   1.149  0.6217 -1.6910  1.5905
 6712SOL    HW326621   4.045   5.150   1.192 -0.8716  0.7485 -1.6281
 6712SOL    MW426622   4.037   5.068   1.167 -0.7331  0.2215  0.4565
 6713SOL     OW26623   3.786   3.746   4.157 -0.5151 -0.2403 -0.2554
 6713SOL    HW226624   3.726   3.672   4.162  1.7899 -2.3941 -1.8613
 6713SOL    HW326625   3.811   3.751   4.065  2.1051  0.1749  0.3918
 6713SOL    MW426626   3.782   3.737   4.145  0.3328 -0.1464 -0.0374
 6714SOL     OW26627   0.994   0.566   5.240  0.0391  0.2492 -0.0131
 6714SOL    HW226628   1.088   0.574   5.259  0.1136 -0.1891 -0.1849
 6714SOL    HW326629   0.982   0.474   5.217 -0.4237  0.3180 -0.0564
 6714SOL    MW426630   1.005   0.555   5.240  0.1882  0.3927  0.4706
 6715SOL     OW26631   3.937   5.803   2.483  0.0258 -0.3247 -0.6873
 6715SOL    HW226632   3.876   5.731   2.465  0.1528 -0.6492  0.1267
 6715SOL    HW326633   3.987   5.773   2.559 -0.5280  0.9737  0.2253
 6715SOL    MW426634   3.935   5.790   2.491  0.2033  0.2800  0.2821
 6716SOL     OW26635   2.261   1.389   1.826  0.0496 -0.1380  0.0849
 6716SOL    HW226636   2.212   1.468   1.802 -0.0388 -0.5126 -1.0581
 6716SOL    HW326637   2.244   1.328   1.754  1.8871 -0.4047 -0.1769
 6716SOL    MW426638   2.252   1.391   1.813 -0.0000  0.8259  0.0497
 6717SOL     OW26639   1.977   0.912   4.467  0.0184  0.3478  0.4074
 6717SOL    HW226640   1.925   0.853   4.413  0.1305 -0.2971  0.9884
 6717SOL    HW326641   1.996   0.862   4.546  1.9577  0.3732  0.0044
 6717SOL    MW426642   1.973   0.898   4.471 -0.2131 -0.1633 -0.4809
 6718SOL     OW26643   1.444   4.942   3.533  0.1761 -0.0169 -0.4501
 6718SOL    HW226644   1.466   5.015   3.592 -0.5083 -1.0531  1.1532
 6718SOL    HW326645   1.524   4.889   3.530  0.4061  0.3525 -0.9516
 6718SOL    MW426646   1.457   4.945   3.540  0.0357 -0.4641  0.0049
 6719SOL     OW26647   3.751   4.373   6.271  0.0629 -0.3020 -0.3673
 6719SOL    HW226648   3.780   4.456   6.308  1.7374 -0.0240 -2.1394
 6719SOL    HW326649   3.757   4.311   6.344  1.4861  0.5812  0.3054
 6719SOL    MW426650   3.756   4.376   6.286 -0.1542 -0.8254  0.0599
 6720SOL     OW26651   5.479   0.322   6.141 -0.7591 -0.0701  0.1761
 6720SOL    HW226652   5.419   0.274   6.083 -1.6450 -0.7526  1.6003
 6720SOL    HW326653   5.431   0.403   6.162  0.2169  0.9191 -1.2446
 6720SOL    MW426654   5.464   0.326   6.136  0.0320  0.0293 -0.5095
 6721SOL     OW26655   4.401   0.475   3.197 -0.4432  0.1091  0.1942
 6721SOL    HW226656   4.457   0.420   3.143  1.3333  0.6877  1.3420
 6721SOL    HW326657   4.423   0.565   3.172 -1.6676  0.3551 -0.0815
 6721SOL    MW426658   4.411   0.480   3.187  0.5795  0.6816  0.0893
 6722SOL     OW26659   1.743   0.304   6.371 -0.0583  0.0201 -0.3314
 6722SOL    HW226660   1.824   0.275   6.330  0.6549  1.1817  0.2064
 6722SOL    HW326661   1.718   0.383   6.322  0.0279  0.5986  0.5414
 6722SOL    MW426662   1.750   0.311   6.359  0.0326  0.1693  0.3712
 6723SOL     OW26663   4.673   1.554   0.971  0.1280 -0.8365 -0.5615
 6723SOL    HW226664   4.688   1.474   0.922 -0.3852 -1.2471 -0.0633
 6723SOL    HW326665   4.656   1.620   0.904 -0.1118 -1.2891 -0.9530
 6723SOL    MW426666   4.673   1.552   0.956 -0.3776 -0.4807  0.0366
 6724SOL     OW26667   3.509   4.087   0.876 -0.1133 -0.2998 -0.3475
 6724SOL    HW226668   3.546   4.029   0.943 -0.1186  0.2487  0.1315
 6724SOL    HW326669   3.568   4.161   0.872 -0.7786  0.2527 -0.0759
 6724SOL    MW426670   3.521   4.089   0.884 -0.3808 -0.5511  0.2971
 6725SOL     OW26671   2.828   5.443   6.431  0.0335 -0.3631 -0.5285
 6725SOL    HW226672   2.885   5.379   6.473  0.2439  0.2111  0.0583
 6725SOL    HW326673   2.746   5.437   6.479 -0.1583 -0.6384 -0.8820
 6725SOL    MW426674   2.825   5.433   6.443 -0.2303  0.4874 -0.1644
 6726SOL     OW26675   1.391   2.330   4.481 -0.0828  0.2855  0.0377
 6726SOL    HW226676   1.383   2.344   4.575 -0.0228  0.9969 -0.0603
 6726SOL    HW326677   1.485   2.316   4.467 -0.2037 -0.8340  0.2073
 6726SOL    MW426678   1.403   2.330   4.491 -0.2323 -0.2551  0.2677
 6727SOL     OW26679   0.804   4.059   3.856 -0.0087 -0.5946  0.2997
 6727SOL    HW226680   0.848   3.981   3.822 -0.3264 -1.4112  1.6734
 6727SOL    HW326681   0.794   4.042   3.949 -0.5542  0.8844  0.5408
 6727SOL    MW426682   0.808   4.047   3.864  0.6234 -0.0665 -0.9116
 6728SOL     OW26683   0.113   4.658   2.080 -0.1061  0.2086  0.2747
 6728SOL    HW226684   0.161   4.728   2.124 -0.1820 -0.1390  0.9254
 6728SOL    HW326685   0.137   4.667   1.987  0.5936  0.5273  0.4778
 6728SOL    MW426686   0.123   4.669   2.073  0.7538  0.1347 -0.0440
 6729SOL     OW26687   3.728   6.335   1.827  0.3102  0.0562  0.1271
 6729SOL    HW226688   3.674   6.399   1.874  1.0100 -0.4261  1.6859
 6729SOL    HW326689   3.814   6.342   1.869  0.9739 -0.4099 -1.1273
 6729SOL    MW426690   3.733   6.344   1.839 -0.1084 -0.0427 -0.2361
 6730SOL     OW26691   0.961   1.640   5.390 -0.3066  0.2021  0.0748
 6730SOL    HW226692   1.006   1.708   5.339 -3.0633  0.7020 -1.9915
 6730SOL    HW326693   0.965   1.562   5.334 -0.4615 -0.2267  0.6583
 6730SOL    MW426694   0.967   1.639   5.376 -0.3880  0.3430  0.0254
 6731SOL     OW26695   0.490   2.272   4.411 -0.7400 -0.0163  0.1064
 6731SOL    HW226696   0.505   2.178   4.421 -0.7158 -0.0102  0.1257
 6731SOL    HW326697   0.414   2.278   4.354 -2.3665 -0.1058  2.1294
 6731SOL    MW426698   0.482   2.260   4.405  0.2974  0.0018  0.0089
 6732SOL     OW26699   3.549   3.069   2.247 -0.2115 -0.1338  0.1837
 6732SOL    HW226700   3.588   3.122   2.178  0.5254 -1.1193 -0.1799
 6732SOL    HW326701   3.594   3.095   2.327 -1.0035  0.9453  0.2963
 6732SOL    MW426702   3.560   3.079   2.248  0.0262 -0.2935 -0.1620
 6733SOL     OW26703   3.221   1.681   5.318 -0.0116 -0.4835  0.1929
 6733SOL    HW226704   3.189   1.706   5.404 -0.5949  0.7169 -0.3498
 6733SOL    HW326705   3.304   1.728   5.308 -1.0390  1.2166 -0.7701
 6733SOL    MW426706   3.228   1.690   5.328 -0.2672  0.2762  0.3174
 6734SOL     OW26707   0.585   0.587   2.004 -0.1295 -0.5330 -0.2335
 6734SOL    HW226708   0.527   0.533   1.949 -0.9672  0.6406 -0.5591
 6734SOL    HW326709   0.613   0.529   2.074  0.5858 -1.9423 -1.6456
 6734SOL    MW426710   0.581   0.572   2.006  0.4435 -0.0829  0.0442
 6735SOL     OW26711   3.462   4.388   3.197 -0.8380  0.3257  0.2171
 6735SOL    HW226712   3.402   4.323   3.160 -0.2155  0.6075 -1.3710
 6735SOL    HW326713   3.467   4.456   3.131  0.9010  0.5150  0.4902
 6735SOL    MW426714   3.455   4.388   3.184  0.1107 -0.2219  0.2681
 6736SOL     OW26715   6.182   1.615   4.821 -0.4131 -0.4671 -0.0304
 6736SOL    HW226716   6.099   1.589   4.859 -0.4282 -0.4819 -0.0733
 6736SOL    HW326717   6.165   1.700   4.780 -0.2933 -0.2552  0.3492
 6736SOL    MW426718   6.169   1.623   4.820 -0.5343 -0.5421  0.3225
 6737SOL     OW26719   1.846   3.500   4.114 -0.5380 -0.2943  0.5751
 6737SOL    HW226720   1.758   3.496   4.079 -0.9323  0.1375  1.4825
 6737SOL    HW326721   1.864   3.411   4.144 -1.7263  0.1324  2.8200
 6737SOL    MW426722   1.837   3.488   4.113  0.1633  0.4481  0.2810
 6738SOL     OW26723   0.407   2.533   5.033  0.3621 -0.0035  0.0159
 6738SOL    HW226724   0.502   2.527   5.034  0.3586 -0.3029 -0.6205
 6738SOL    HW326725   0.380   2.501   5.119  0.8795  1.2003  0.6486
 6738SOL    MW426726   0.416   2.528   5.044  0.3207 -0.4442  0.0146
 6739SOL     OW26727   5.192   5.203   3.936 -0.2616 -0.2534  0.2648
 6739SOL    HW226728   5.148   5.271   3.987  2.1480  0.4574  1.5887
 6739SOL    HW326729   5.280   5.200   3.973  0.2395 -2.8957 -0.9566
 6739SOL    MW426730   5.198   5.212   3.948 -0.1493 -0.3247 -0.3389
 6740SOL     OW26731   4.344   1.912   5.124 -0.6823 -0.2444 -0.8876
 6740SOL    HW226732   4.264   1.959   5.148 -0.0595  0.3211  0.1721
 6740SOL    HW326733   4.401   1.980   5.088  0.1945 -0.1762  0.5683
 6740SOL    MW426734   4.341   1.927   5.122  0.1016 -0.5412  0.3985
 6741SOL     OW26735   3.727   5.141   0.918  0.3979 -0.6590 -0.3042
 6741SOL    HW226736   3.663   5.070   0.924  1.5008 -1.5670  2.2445
 6741SOL    HW326737   3.692   5.210   0.973 -0.4631  0.6935 -2.4451
 6741SOL    MW426738   3.714   5.140   0.926  0.4977  0.5535 -0.3089
 6742SOL     OW26739   1.878   5.276   3.980 -0.1200  0.3091 -0.2821
 6742SOL    HW226740   1.958   5.239   3.942  1.1897  2.0002  0.6674
 6742SOL    HW326741   1.865   5.358   3.931 -1.2698  0.0652 -0.4024
 6742SOL    MW426742   1.887   5.282   3.969 -0.1765 -0.0817 -0.7099
 6743SOL     OW26743   4.346   4.784   1.855  0.3174 -0.6794  0.1200
 6743SOL    HW226744   4.431   4.741   1.843  0.2192 -0.7324 -0.4223
 6743SOL    HW326745   4.347   4.857   1.793  0.6675  0.3900  1.3595
 6743SOL    MW426746   4.357   4.788   1.845 -0.1171 -0.1329  0.3441
 6744SOL     OW26747   0.270   4.813   4.183 -0.0063  0.3109 -0.4989
 6744SOL    HW226748   0.285   4.844   4.273 -0.4282 -0.7858 -0.0308
 6744SOL    HW326749   0.175   4.805   4.176  0.0569 -0.1726 -0.8406
 6744SOL    MW426750   0.259   4.816   4.194  0.5100  0.0890  0.0546
 6745SOL     OW26751   2.144   2.799   4.903  0.1329 -0.2130 -0.0795
 6745SOL    HW226752   2.223   2.763   4.862  0.7323 -0.5731  1.3344
 6745SOL    HW326753   2.106   2.726   4.950 -1.2434 -0.1172 -0.9742
 6745SOL    MW426754   2.149   2.785   4.903 -0.1036  0.0944 -0.2276
 6746SOL     OW26755   1.907   3.998   4.084  0.6641  0.0534 -0.5457
 6746SOL    HW226756   1.971   4.014   4.153  0.3394 -0.9961  0.0346
 6746SOL    HW326757   1.827   4.041   4.114  0.4861 -0.5151 -0.1946
 6746SOL    MW426758   1.905   4.006   4.097  0.0373  0.1147 -0.2141
 6747SOL     OW26759   2.913   4.953   0.445 -0.2235 -0.0886 -0.0700
 6747SOL    HW226760   2.915   5.036   0.493  0.2598  0.9170 -1.7477
 6747SOL    HW326761   2.819   4.938   0.429 -0.2580  0.8911 -0.9408
 6747SOL    MW426762   2.901   4.962   0.449  0.5736 -0.5770  0.4295
 6748SOL     OW26763   5.588   5.365   5.396 -0.1150 -0.1156  0.0282
 6748SOL    HW226764   5.542   5.429   5.341 -1.6869  0.3350  1.7417
 6748SOL    HW326765   5.634   5.308   5.335 -1.2329  0.7627 -1.6961
 6748SOL    MW426766   5.588   5.366   5.381  0.0411 -0.0227 -0.0458
 6749SOL     OW26767   4.083   5.009   2.146 -0.3832  0.8465 -0.2104
 6749SOL    HW226768   4.161   4.954   2.138 -1.6154 -0.8614 -1.0732
 6749SOL    HW326769   4.079   5.033   2.239 -0.2841 -1.2996  0.3856
 6749SOL    MW426770   4.093   5.005   2.157 -0.3643  0.1575  0.7922
 6750SOL     OW26771   5.003   6.152   3.881  0.4515 -0.5278  0.0190
 6750SOL    HW226772   5.062   6.112   3.945  0.6028 -0.7179 -0.2329
 6750SOL    HW326773   5.013   6.246   3.894  1.4930 -0.5356 -0.6139
 6750SOL    MW426774   5.012   6.159   3.891  0.0564  0.2506  0.1387
 6751SOL     OW26775   6.100   5.742   6.015  0.1882  0.0795 -0.2487
 6751SOL    HW226776   6.060   5.812   6.067  1.6990  1.4342 -0.8171
 6751SOL    HW326777   6.102   5.667   6.074  1.0910  1.3343  1.4108
 6751SOL    MW426778   6.095   5.741   6.030 -0.5628 -0.5665  0.4385
 6752SOL     OW26779   2.510   2.428   5.459  0.3233  0.0061 -0.0250
 6752SOL    HW226780   2.577   2.496   5.453  0.9739 -0.5090  1.1159
 6752SOL    HW326781   2.549   2.352   5.417 -0.0914  0.0899 -0.5764
 6752SOL    MW426782   2.524   2.427   5.453  0.3576 -0.1220 -0.1713
 6753SOL     OW26783   1.894   5.934   2.541  0.2715 -0.3055  0.1186
 6753SOL    HW226784   1.913   6.027   2.526 -0.6307 -0.1479 -0.1482
 6753SOL    HW326785   1.818   5.935   2.600 -1.1161 -0.8089 -1.5598
 6753SOL    MW426786   1.886   5.947   2.547 -0.8646 -0.0361 -0.2999
 6754SOL     OW26787   5.129   4.290   5.842 -0.3006  1.1056  0.1929
 6754SOL    HW226788   5.130   4.381   5.870  1.4010  1.2316 -0.1919
 6754SOL    HW326789   5.116   4.295   5.747  1.0223  1.0371 -0.0126
 6754SOL    MW426790   5.127   4.302   5.833 -0.0515  0.4167 -0.4684
 6755SOL     OW26791   2.417   2.166   0.032 -0.1381  0.1622 -0.2663
 6755SOL    HW226792   2.373   2.235   0.081 -0.4208 -0.3005  0.1437
 6755SOL    HW326793   2.495   2.207  -0.004  1.3973 -0.0569  2.5576
 6755SOL    MW426794   2.421   2.180   0.034 -0.6678  0.5906 -0.3225
 6756SOL     OW26795   2.775   1.647   4.784  0.0120  0.8773  0.8910
 6756SOL    HW226796   2.815   1.625   4.700 -0.5234  2.8830  0.0798
 6756SOL    HW326797   2.682   1.630   4.772  0.0862 -0.1061  1.5462
 6756SOL    MW426798   2.768   1.642   4.772  0.0702 -0.3022  0.0497
 6757SOL     OW26799   0.457   2.522   1.193 -0.0758  0.0464 -0.0116
 6757SOL    HW226800   0.415   2.607   1.204  1.1957  0.8140 -0.9006
 6757SOL    HW326801   0.384   2.461   1.183 -0.9937  1.2602 -0.9728
 6757SOL    MW426802   0.441   2.525   1.194  0.6181  0.0946  0.2869
 6758SOL     OW26803   2.991   5.441   1.468 -0.3906 -0.0257 -0.3561
 6758SOL    HW226804   3.046   5.379   1.517 -1.0475 -1.1747 -1.0284
 6758SOL    HW326805   3.011   5.424   1.376 -1.2565  0.1005 -0.5803
 6758SOL    MW426806   3.001   5.431   1.463  0.0926  0.1897 -0.1473
 6759SOL     OW26807   2.125   0.475   5.332 -0.0240 -0.4870 -0.6219
 6759SOL    HW226808   2.117   0.540   5.401 -0.8972 -2.4890  1.2847
 6759SOL    HW326809   2.035   0.459   5.304  0.1528 -1.0054 -0.9110
 6759SOL    MW426810   2.112   0.481   5.337  0.1864 -0.3954  0.2909
 6760SOL     OW26811   0.269   3.369   2.820 -0.1734 -0.2921 -0.2938
 6760SOL    HW226812   0.265   3.460   2.792 -0.2740  0.3028  1.5524
 6760SOL    HW326813   0.201   3.361   2.888  1.8805 -0.8779  1.8312
 6760SOL    MW426814   0.259   3.380   2.825  0.2632  0.1814 -0.4574
 6761SOL     OW26815   4.531   0.530   5.902  0.1690  0.0177  0.0627
 6761SOL    HW226816   4.596   0.594   5.875  0.4740 -0.4492 -0.3253
 6761SOL    HW326817   4.564   0.446   5.870 -0.4129 -0.2855  0.2268
 6761SOL    MW426818   4.544   0.527   5.894  0.6699 -0.8898  0.0590
 6762SOL     OW26819   1.307   2.639   4.551 -0.1463  0.4018  0.4245
 6762SOL    HW226820   1.266   2.589   4.480 -1.0967 -0.4065  1.5067
 6762SOL    HW326821   1.325   2.725   4.512  0.1803 -0.2912 -1.0430
 6762SOL    MW426822   1.304   2.644   4.536  0.2718 -0.0000  0.1420
 6763SOL     OW26823   1.397   4.562   5.133  0.3770  0.1668 -0.2325
 6763SOL    HW226824   1.344   4.488   5.162 -2.5573  1.4169 -2.0723
 6763SOL    HW326825   1.375   4.633   5.194  0.2743  0.5751 -0.7376
 6763SOL    MW426826   1.387   4.562   5.145 -0.1119  0.2447 -0.2669
 6764SOL     OW26827   2.655   4.929   0.331  0.2858 -0.1974  0.2510
 6764SOL    HW226828   2.567   4.892   0.340 -0.2516  1.1423  0.6409
 6764SOL    HW326829   2.687   4.893   0.248 -1.0645  0.1594 -0.4534
 6764SOL    MW426830   2.647   4.919   0.321 -0.5425 -0.9399 -0.0730
 6765SOL     OW26831   0.556   2.899   4.256  0.5225  0.4618  0.2040
 6765SOL    HW226832   0.528   2.808   4.249  2.0768  0.0823 -1.6696
 6765SOL    HW326833   0.638   2.896   4.305  1.6199  0.5943 -1.5723
 6765SOL    MW426834   0.563   2.887   4.262  0.0906 -0.5739 -0.3599
 6766SOL     OW26835   3.305   6.299   5.441 -0.0707 -0.1244 -0.1145
 6766SOL    HW226836   3.274   6.222   5.394  0.5664  0.4134 -1.4550
 6766SOL    HW326837   3.234   6.363   5.432 -0.7870 -0.6531  1.3649
 6766SOL    MW426838   3.291   6.297   5.434  0.0025  0.1263 -0.1693
 6767SOL     OW26839   5.885   0.612   5.916 -0.1163 -0.0154 -0.3394
 6767SOL    HW226840   5.829   0.689   5.928  0.6381  0.8300 -1.8922
 6767SOL    HW326841   5.824   0.539   5.909 -0.8534  0.4331  1.0708
 6767SOL    MW426842   5.870   0.613   5.917 -0.4036  0.2665 -0.7034
 6768SOL     OW26843   2.428   3.782   5.431 -0.1750 -0.4207 -0.2541
 6768SOL    HW226844   2.523   3.784   5.441 -0.1909 -1.8487  0.4726
 6768SOL    HW326845   2.395   3.842   5.498  0.1277 -2.3617  1.7571
 6768SOL    MW426846   2.436   3.790   5.441 -0.0145  0.3376  0.5003
 6769SOL     OW26847   5.932   3.908   4.215 -0.0324  0.7882  0.5521
 6769SOL    HW226848   5.900   3.934   4.301 -0.1921  0.4994  0.5817
 6769SOL    HW326849   5.870   3.841   4.186  0.7321 -0.0253  0.7501
 6769SOL    MW426850   5.920   3.902   4.222  0.1381 -0.1437 -0.1386
 6770SOL     OW26851   0.948   6.378   6.340 -0.0656  0.1592 -0.6172
 6770SOL    HW226852   1.042   6.369   6.354 -0.0920  2.6128  2.1138
 6770SOL    HW326853   0.907   6.337   6.416 -1.0936  0.9283 -0.7268
 6770SOL    MW426854   0.955   6.372   6.352 -0.3713  0.1982 -0.6983
 6771SOL     OW26855   3.254   2.620   0.475 -0.4530  0.0024  0.1746
 6771SOL    HW226856   3.184   2.685   0.477  0.4498  1.0192 -0.4284
 6771SOL    HW326857   3.326   2.662   0.427  1.4984 -0.0555  2.8275
 6771SOL    MW426858   3.254   2.634   0.469 -0.2575  0.6911 -0.4566
 6772SOL     OW26859   3.831   0.281   6.053  0.0549 -0.0785 -0.1710
 6772SOL    HW226860   3.891   0.207   6.041  0.5805  0.1868  0.7650
 6772SOL    HW326861   3.765   0.249   6.114  0.9864  0.6057  1.2340
 6772SOL    MW426862   3.830   0.267   6.059 -0.0049  0.2347  0.5306
 6773SOL     OW26863   6.415   4.792   3.383  0.1744  0.0421  0.5675
 6773SOL    HW226864   6.428   4.882   3.354 -0.2742  0.1075  0.5623
 6773SOL    HW326865   6.364   4.752   3.313  0.2002 -0.1613  0.6660
 6773SOL    MW426866   6.410   4.799   3.370 -0.1668  0.7362 -0.8825
 6774SOL     OW26867   1.656   5.317   5.507 -0.2099  0.2215 -0.0530
 6774SOL    HW226868   1.717   5.346   5.439 -0.7029 -2.0548 -1.5726
 6774SOL    HW326869   1.711   5.279   5.575  0.1628  0.0589 -0.4419
 6774SOL    MW426870   1.671   5.316   5.507 -0.2957  0.0482 -0.2994
 6775SOL     OW26871   0.141   5.162   5.480  0.3213 -0.2542 -0.0849
 6775SOL    HW226872   0.096   5.197   5.403  0.1823  1.2766  0.6600
 6775SOL    HW326873   0.152   5.069   5.460 -2.0994 -0.4562 -0.8162
 6775SOL    MW426874   0.136   5.154   5.467  0.0737 -0.4106  0.5208
 6776SOL     OW26875   2.921   1.316   4.346  0.2728  0.1268 -0.4126
 6776SOL    HW226876   2.961   1.234   4.315  2.3727  0.8573  0.1622
 6776SOL    HW326877   2.996   1.374   4.361 -0.9399  1.1906  1.9681
 6776SOL    MW426878   2.936   1.313   4.344  0.9523  0.0424  0.4535
 6777SOL     OW26879   5.350   2.734   4.047 -0.3735  0.3885  0.1893
 6777SOL    HW226880   5.342   2.725   4.142 -0.9197  1.8613  0.2931
 6777SOL    HW326881   5.344   2.828   4.030 -2.0481  0.0467 -1.4623
 6777SOL    MW426882   5.348   2.745   4.057  0.2753  0.4729  0.4492
 6778SOL     OW26883   2.597   3.062   2.791 -0.0384  0.6025 -0.4145
 6778SOL    HW226884   2.516   3.046   2.840 -0.6244  2.2111 -0.7942
 6778SOL    HW326885   2.568   3.107   2.712  1.2564  1.5758 -0.3606
 6778SOL    MW426886   2.582   3.065   2.787 -0.7736  0.1097 -0.6164
 6779SOL     OW26887   3.369   5.737   3.308 -0.7700  0.5715  0.1501
 6779SOL    HW226888   3.458   5.712   3.334 -0.3921  0.6292 -1.0375
 6779SOL    HW326889   3.382   5.804   3.240 -1.7027  0.0464 -0.5573
 6779SOL    MW426890   3.383   5.743   3.303 -0.0858  0.5013  0.1830
 6780SOL     OW26891   2.063   2.837   3.092  0.2739  0.1101 -0.3236
 6780SOL    HW226892   1.970   2.860   3.094  0.5269  1.2811 -0.9056
 6780SOL    HW326893   2.075   2.793   3.008  0.4449  0.9264 -0.7341
 6780SOL    MW426894   2.052   2.834   3.081  0.2706  0.7642  0.0607
 6781SOL     OW26895   4.106   2.195   2.349 -0.5990  1.1422  0.4601
 6781SOL    HW226896   4.077   2.104   2.345 -3.0094  1.8746 -0.3991
 6781SOL    HW326897   4.166   2.197   2.424 -1.1810 -0.9474  1.0621
 6781SOL    MW426898   4.110   2.183   2.358 -0.5037  0.4145 -0.2954
 6782SOL     OW26899   2.911   4.685   3.130  0.0428  0.3870 -0.3041
 6782SOL    HW226900   2.863   4.748   3.183 -0.4395  1.7149 -2.2390
 6782SOL    HW326901   2.844   4.629   3.092  0.1811  0.8617 -1.2751
 6782SOL    MW426902   2.896   4.686   3.132 -0.5534 -0.4797  0.0438
 6783SOL     OW26903   5.845   0.539   5.475 -0.1748 -0.4031  0.1512
 6783SOL    HW226904   5.863   0.523   5.382 -0.3524  0.0572  0.0333
 6783SOL    HW326905   5.831   0.452   5.512 -1.6723 -0.5059 -0.5816
 6783SOL    MW426906   5.846   0.525   5.467 -0.0441 -0.1643  0.2038
 6784SOL     OW26907   0.312   1.023   5.634  0.0002 -0.1647  0.3622
 6784SOL    HW226908   0.254   0.947   5.624 -2.4574  1.7656 -0.9743
 6784SOL    HW326909   0.398   0.991   5.606 -0.9593 -2.4192 -0.2205
 6784SOL    MW426910   0.316   1.009   5.629  0.0858 -0.0761 -0.0355
 6785SOL     OW26911   3.593   1.330   4.430 -0.1114  0.5164  0.5332
 6785SOL    HW226912   3.675   1.297   4.468 -0.1142  0.1953  0.2691
 6785SOL    HW326913   3.564   1.398   4.491  0.2602  0.5105  0.7212
 6785SOL    MW426914   3.600   1.334   4.443 -0.0631  0.0050  0.4270
 6786SOL     OW26915   0.055   3.475   5.058  0.0762 -0.1023  0.6276
 6786SOL    HW226916   0.113   3.544   5.025 -0.1585 -0.1843  0.0327
 6786SOL    HW326917   0.113   3.402   5.079  0.2505  0.0334  0.6160
 6786SOL    MW426918   0.070   3.475   5.057 -0.4800  0.4269  0.3583
 6787SOL     OW26919   3.804   2.110   4.659  0.0294  0.2294 -0.5215
 6787SOL    HW226920   3.776   2.183   4.604 -0.7450 -0.7496 -1.4698
 6787SOL    HW326921   3.795   2.033   4.603 -0.6090 -0.7804  0.9141
 6787SOL    MW426922   3.799   2.110   4.644  0.1478 -0.4352  0.1344
 6788SOL     OW26923   1.099   4.888   5.971  0.0898 -0.6023 -0.2696
 6788SOL    HW226924   1.026   4.827   5.979  0.2158 -0.9732 -1.6729
 6788SOL    HW326925   1.175   4.833   5.951  0.0765  0.0046 -2.2522
 6788SOL    MW426926   1.100   4.873   5.969 -0.1728 -0.3668 -0.1461
 6789SOL     OW26927   3.424   3.053   4.547  0.2776  0.1119  0.3135
 6789SOL    HW226928   3.339   3.010   4.537  0.3014 -0.3936  1.9522
 6789SOL    HW326929   3.432   3.109   4.471 -1.6118  0.3087  0.2201
 6789SOL    MW426930   3.414   3.054   4.536 -0.0028 -0.4109 -0.5422
 6790SOL     OW26931   4.318   0.472   6.338 -0.4057  0.5072  0.1257
 6790SOL    HW226932   4.303   0.501   6.428  1.3831  0.0580  0.6019
 6790SOL    HW326933   4.404   0.507   6.316 -1.3399  1.7340 -1.9170
 6790SOL    MW426934   4.327   0.481   6.347 -0.0607  0.0020  0.4320
 6791SOL     OW26935   3.833   4.173   5.243 -0.3479 -0.1159  0.3367
 6791SOL    HW226936   3.877   4.121   5.309  0.4105  1.1377  0.8601
 6791SOL    HW326937   3.860   4.135   5.160  1.0797  0.0993  0.6786
 6791SOL    MW426938   3.842   4.161   5.241 -0.4465  0.5654  0.0797
 6792SOL     OW26939   5.445   5.883   5.189 -0.2020 -0.4934 -0.3089
 6792SOL    HW226940   5.459   5.937   5.112 -0.6264  1.0254  0.6393
 6792SOL    HW326941   5.524   5.895   5.242  0.2323 -1.7828 -0.6249
 6792SOL    MW426942   5.457   5.892   5.186  0.2702  0.0050  0.0848
 6793SOL     OW26943   3.306   3.023   0.899 -0.4050  0.0237 -0.5379
 6793SOL    HW226944   3.224   3.071   0.915 -0.8881 -1.1434  0.6049
 6793SOL    HW326945   3.293   2.982   0.813 -0.9402  0.0201 -0.4586
 6793SOL    MW426946   3.293   3.024   0.890  0.2780  0.3577 -0.0100
 6794SOL     OW26947   3.052   2.888   2.789  0.3136 -0.5854 -0.4402
 6794SOL    HW226948   3.051   2.800   2.751 -0.4641 -1.1113  0.7421
 6794SOL    HW326949   3.071   2.946   2.715  0.5698 -1.7210 -1.2864
 6794SOL    MW426950   3.054   2.884   2.774  0.2302  0.8897  0.1762
 6795SOL     OW26951   4.911   4.896   0.048 -0.7123 -1.0713 -0.0440
 6795SOL    HW226952   4.826   4.859   0.024 -1.1072  0.1176 -0.5358
 6795SOL    HW326953   4.959   4.902  -0.035 -1.5571  1.7308 -0.4098
 6795SOL    MW426954   4.906   4.892   0.034 -0.4729 -0.0804 -0.3962
 6796SOL     OW26955   4.567   4.223   3.157 -0.3690  0.2852  0.0702
 6796SOL    HW226956   4.495   4.208   3.219 -0.8593 -1.8836 -0.9252
 6796SOL    HW326957   4.637   4.260   3.211 -0.7523 -1.5443  1.9982
 6796SOL    MW426958   4.567   4.226   3.173  0.1774  0.0002 -0.4680
 6797SOL     OW26959   4.058   0.412   1.899  0.3098  0.0138  0.2278
 6797SOL    HW226960   3.993   0.351   1.864 -0.3086  0.0575  1.2729
 6797SOL    HW326961   4.028   0.432   1.987 -0.2000  2.8114 -0.4808
 6797SOL    MW426962   4.046   0.406   1.906  0.1787 -0.0516  0.4706
 6798SOL     OW26963   5.265   3.089   1.816  0.3122  0.0812  0.1520
 6798SOL    HW226964   5.218   3.140   1.881 -1.5967 -0.2305 -0.9049
 6798SOL    HW326965   5.357   3.107   1.833 -0.1074  0.1535  2.7930
 6798SOL    MW426966   5.271   3.098   1.827 -0.3098 -0.4310 -0.3707
 6799SOL     OW26967   5.847   4.112   0.150  0.2707  0.2669  0.2750
 6799SOL    HW226968   5.794   4.147   0.078  3.4626  1.6789 -1.5784
 6799SOL    HW326969   5.893   4.038   0.111  1.5258  0.6139  1.0548
 6799SOL    MW426970   5.846   4.107   0.135 -0.0673 -0.3366  0.6342
 6800SOL     OW26971   1.923   1.989   4.914 -0.1414 -0.2823  1.0106
 6800SOL    HW226972   1.965   1.939   4.985 -0.5924 -2.8998 -0.4579
 6800SOL    HW326973   1.997   2.023   4.863  0.1774 -0.0354  1.6195
 6800SOL    MW426974   1.939   1.987   4.917  0.0284 -0.4293  0.1556
 6801SOL     OW26975   3.041   0.399   4.960  0.2476  0.2040 -0.5980
 6801SOL    HW226976   3.043   0.426   4.868  0.2145  0.0521 -0.6427
 6801SOL    HW326977   3.131   0.372   4.979 -0.0108 -0.9475 -0.9367
 6801SOL    MW426978   3.053   0.399   4.950  0.0938 -0.1220 -0.0894
 6802SOL     OW26979   2.454   4.915   5.721 -0.0308 -0.4280 -0.2407
 6802SOL    HW226980   2.369   4.916   5.678 -0.7120 -2.6432  0.9033
 6802SOL    HW326981   2.436   4.942   5.811  0.5236 -0.6307 -0.0641
 6802SOL    MW426982   2.440   4.918   5.727  0.8075 -0.6925 -0.6988
 6803SOL     OW26983   5.732   1.937   3.471 -0.4203 -0.2674 -0.1707
 6803SOL    HW226984   5.655   1.994   3.472 -0.3003 -0.1171  0.2634
 6803SOL    HW326985   5.806   1.996   3.462 -0.2010 -0.2497  1.5719
 6803SOL    MW426986   5.731   1.952   3.470 -0.3846  0.0257  0.1451
 6804SOL     OW26987   0.639   0.287   0.615  0.1977 -0.4662 -0.5771
 6804SOL    HW226988   0.730   0.261   0.600  0.1807 -1.4275  0.7916
 6804SOL    HW326989   0.590   0.246   0.543  0.5057 -2.2215  0.1844
 6804SOL    MW426990   0.645   0.278   0.603 -0.0840 -0.4437  0.1982
 6805SOL     OW26991   6.074   3.246   1.483 -0.0966  0.2831 -0.1154
 6805SOL    HW226992   6.168   3.233   1.493  0.0898 -0.8193 -2.4547
 6805SOL    HW326993   6.037   3.158   1.487 -0.6102  0.3506 -2.1928
 6805SOL    MW426994   6.081   3.232   1.485 -0.0314  0.7499  0.5982
 6806SOL     OW26995   1.656   2.393   4.094 -0.3237  0.2547  0.2175
 6806SOL    HW226996   1.633   2.485   4.097 -2.0290 -0.1589  1.1135
 6806SOL    HW326997   1.750   2.392   4.077 -0.3884  2.1273 -0.4599
 6806SOL    MW426998   1.665   2.405   4.092 -0.1966  0.1868 -0.1494
 6807SOL     OW26999   1.379   5.494   5.981  0.8270  0.2772  0.4588
 6807SOL    HW227000   1.292   5.520   6.012  0.4838 -1.3885  0.9856
 6807SOL    HW327001   1.369   5.482   5.887 -0.1708 -2.1268  0.7997
 6807SOL    MW427002   1.366   5.496   5.973 -0.1759  0.1293  0.0928
 6808SOL     OW27003   2.645   0.952   4.457 -0.0597 -0.7785 -0.0331
 6808SOL    HW227004   2.568   0.901   4.431 -1.5803  1.5187 -0.3229
 6808SOL    HW327005   2.698   0.959   4.378 -0.0665 -1.4666 -0.1052
 6808SOL    MW427006   2.642   0.946   4.443 -0.5073 -0.5919 -0.0150
 6809SOL     OW27007   2.719   2.631   0.989 -0.4042 -0.3782 -0.1175
 6809SOL    HW227008   2.708   2.600   1.079  0.8200  3.2211  1.4493
 6809SOL    HW327009   2.812   2.622   0.972 -0.2680  0.9136 -0.1577
 6809SOL    MW427010   2.730   2.625   0.999 -0.3549  0.2850  0.4571
 6810SOL     OW27011   4.645   2.834   0.541 -0.3887 -0.2163  0.1910
 6810SOL    HW227012   4.649   2.739   0.533 -0.7280 -0.1793 -0.4583
 6810SOL    HW327013   4.735   2.863   0.526 -0.5674 -0.3243 -1.1746
 6810SOL    MW427014   4.657   2.825   0.538  0.9414  0.3596 -0.1647
 6811SOL     OW27015   3.912   6.198   4.002 -0.3841  0.0175  0.1679
 6811SOL    HW227016   3.835   6.256   4.001  0.5022  1.2321  0.2162
 6811SOL    HW327017   3.936   6.192   4.094 -0.5041 -0.4818  0.1678
 6811SOL    MW427018   3.905   6.205   4.014 -0.1169 -0.3733  0.0890
 6812SOL     OW27019   5.578   2.015   1.895 -0.4820  0.3925  0.2901
 6812SOL    HW227020   5.575   2.046   1.805  1.5543  0.6299  0.2580
 6812SOL    HW327021   5.533   1.930   1.892 -0.1348  0.2315 -1.0259
 6812SOL    MW427022   5.571   2.008   1.882 -0.1887  0.4245  0.1495
 6813SOL     OW27023   5.739   4.302   4.562  0.6056  0.4576 -0.3404
 6813SOL    HW227024   5.664   4.337   4.515  0.6152  0.9600  0.0148
 6813SOL    HW327025   5.755   4.365   4.632  2.3125  1.1721 -1.3236
 6813SOL    MW427026   5.731   4.315   4.565 -0.2466  0.1726 -0.2544
 6814SOL     OW27027   4.290   5.957   5.547  0.4422 -0.4214  0.1656
 6814SOL    HW227028   4.217   5.955   5.609  1.7921  1.9496  1.9481
 6814SOL    HW327029   4.328   5.869   5.552 -1.7620 -1.4642 -0.2506
 6814SOL    MW427030   4.285   5.945   5.556 -0.5627  0.6467  0.5634
 6815SOL     OW27031   3.496   4.116   3.466  0.2041 -0.4837  0.0838
 6815SOL    HW227032   3.498   4.212   3.470  1.3653 -0.5229  1.1010
 6815SOL    HW327033   3.455   4.096   3.382  0.4973  0.9131 -0.4186
 6815SOL    MW427034   3.491   4.126   3.456  0.1168  0.1102  0.5732
 6816SOL     OW27035   1.269   2.288   3.278  0.4349 -0.6586  0.1029
 6816SOL    HW227036   1.301   2.368   3.236 -1.0633  0.2937  0.6958
 6816SOL    HW327037   1.325   2.218   3.244  0.8133  0.4271 -1.5997
 6816SOL    MW427038   1.280   2.289   3.268 -0.1084  0.4620  0.6257
 6817SOL     OW27039   5.161   2.434   2.744 -0.0620 -0.5353  0.1489
 6817SOL    HW227040   5.152   2.358   2.687 -0.1713  0.7427 -1.6209
 6817SOL    HW327041   5.254   2.439   2.764  0.2108 -0.2365 -1.0876
 6817SOL    MW427042   5.172   2.425   2.739  0.5845  0.2999  0.3305
 6818SOL     OW27043   3.176   2.929   4.068 -0.3209 -0.0338 -0.6943
 6818SOL    HW227044   3.172   3.021   4.042  1.1178 -0.1713 -1.4879
 6818SOL    HW327045   3.264   2.917   4.103 -0.4859 -1.1138 -0.6015
 6818SOL    MW427046   3.187   2.940   4.069 -0.2249  0.0040  0.0067
 6819SOL     OW27047   1.519   5.919   5.466  0.1515  0.0034 -0.6285
 6819SOL    HW227048   1.541   5.915   5.373  0.1534  1.1342 -0.6900
 6819SOL    HW327049   1.539   6.009   5.492  0.3122 -0.3456  0.5107
 6819SOL    MW427050   1.524   5.931   5.457  0.4243  0.4762  0.0252
 6820SOL     OW27051   1.593   3.084   5.189  0.2933  0.0925 -0.0532
 6820SOL    HW227052   1.610   3.024   5.117  0.4902  0.4021 -0.2699
 6820SOL    HW327053   1.633   3.167   5.161 -1.2286  0.7515 -0.4319
 6820SOL    MW427054   1.600   3.087   5.176  0.3309 -0.0570 -0.1853
 6821SOL     OW27055   1.461   0.133   1.957 -0.2160 -0.0942  0.7086
 6821SOL    HW227056   1.388   0.073   1.941 -1.0101  1.1511 -0.5530
 6821SOL    HW327057   1.451   0.201   1.891  0.4967  1.5909  2.2557
 6821SOL    MW427058   1.450   0.134   1.946  0.1237 -0.8018 -0.1525
 6822SOL     OW27059   2.123   2.040   4.698 -0.2760 -0.2360 -0.4292
 6822SOL    HW227060   2.203   2.015   4.651 -0.2187 -3.2352  1.0089
 6822SOL    HW327061   2.052   2.020   4.637 -0.0969 -1.7225 -0.1713
 6822SOL    MW427062   2.125   2.034   4.684 -0.1682  0.1883  0.7556
 6823SOL     OW27063   2.166   5.465   6.117  0.1721  0.1355  0.1360
 6823SOL    HW227064   2.231   5.396   6.129  0.7202  0.8352  1.3745
 6823SOL    HW327065   2.086   5.418   6.092  0.9224 -0.8041 -0.6035
 6823SOL    MW427066   2.164   5.450   6.115  0.3023  0.1961  0.5161
 6824SOL     OW27067   1.677   2.742   3.613  0.0963 -0.1906 -0.8818
 6824SOL    HW227068   1.680   2.663   3.667 -0.1488  0.4422  0.0762
 6824SOL    HW327069   1.690   2.710   3.524 -0.9892 -1.4270 -0.6256
 6824SOL    MW427070   1.679   2.727   3.608 -0.5089  0.4825 -0.1123
 6825SOL     OW27071   3.654   2.585   5.070  0.3654  0.6333 -0.0184
 6825SOL    HW227072   3.701   2.508   5.037 -0.7089 -0.2089  0.3647
 6825SOL    HW327073   3.696   2.659   5.026  1.5190 -0.1480 -0.2883
 6825SOL    MW427074   3.666   2.585   5.059 -0.2533  0.5710 -0.1124
 6826SOL     OW27075   6.277   4.605   4.329  0.1178  0.3129 -0.0162
 6826SOL    HW227076   6.225   4.537   4.284  0.1844 -0.8577  1.5867
 6826SOL    HW327077   6.303   4.564   4.412 -1.8969  3.0788  2.1874
 6826SOL    MW427078   6.273   4.590   4.334  0.0556  0.3763  0.3775
 6827SOL     OW27079   3.970   3.617   6.278 -0.4473 -0.1916  0.3070
 6827SOL    HW227080   3.991   3.562   6.353  0.4405 -0.1138  0.1283
 6827SOL    HW327081   3.900   3.569   6.232 -0.2678 -0.7515  0.6040
 6827SOL    MW427082   3.963   3.603   6.282  0.2823  0.2789 -0.1826
 6828SOL     OW27083   5.209   5.095   4.638  0.2514 -0.0663  0.4089
 6828SOL    HW227084   5.142   5.156   4.668  0.1335 -0.3791  0.7909
 6828SOL    HW327085   5.291   5.129   4.674  0.2608  0.1488  0.1914
 6828SOL    MW427086   5.211   5.108   4.647  0.1442 -0.1443  0.4221
 6829SOL     OW27087   0.451   3.095   5.221 -0.3115  0.0873 -0.1713
 6829SOL    HW227088   0.396   3.170   5.201 -0.5601 -0.2037 -0.6060
 6829SOL    HW327089   0.434   3.033   5.150 -0.4097 -0.5367  0.3815
 6829SOL    MW427090   0.442   3.096   5.209 -0.1652 -0.1601 -0.0449
 6830SOL     OW27091   1.778   1.046   1.834 -1.1111  0.1208  0.2586
 6830SOL    HW227092   1.763   0.961   1.875 -2.5263  0.2127 -0.0131
 6830SOL    HW327093   1.691   1.078   1.813 -0.4913  0.6769 -1.6170
 6830SOL    MW427094   1.765   1.039   1.837 -0.5662  0.2101  0.2197
 6831SOL     OW27095   1.504   5.700   4.557  0.0135  0.2256 -0.0573
 6831SOL    HW227096   1.567   5.754   4.509 -0.1780  0.1366 -0.4108
 6831SOL    HW327097   1.418   5.726   4.523 -0.1081 -0.0156  0.0570
 6831SOL    MW427098   1.501   5.711   4.546  0.0035 -0.2249  0.6533
 6832SOL     OW27099   1.588   3.037   3.644  0.2160  0.5093  0.4885
 6832SOL    HW227100   1.678   3.060   3.621  0.6124 -2.3140 -1.3377
 6832SOL    HW327101   1.590   2.942   3.657 -2.4811  0.3704  0.4801
 6832SOL    MW427102   1.600   3.028   3.643  0.3880 -0.4360 -0.0528
 6833SOL     OW27103   5.241   6.018   6.061  0.3506 -0.5844  0.1599
 6833SOL    HW227104   5.206   5.953   6.000 -1.9922 -0.1945  0.9564
 6833SOL    HW327105   5.256   5.968   6.142 -1.0941 -0.2888  0.6556
 6833SOL    MW427106   5.238   6.003   6.064 -0.0003  0.5708 -0.2733
 6834SOL     OW27107   4.200   1.948   6.065 -0.1013 -0.0523  0.3988
 6834SOL    HW227108   4.122   1.970   6.116 -1.5511 -0.7536 -1.4125
 6834SOL    HW327109   4.258   2.023   6.077 -2.1986  1.7945 -0.3752
 6834SOL    MW427110   4.197   1.961   6.073 -0.4130  0.2020  0.0378
 6835SOL     OW27111   0.335   1.202   5.333 -0.1653  0.2728 -0.9285
 6835SOL    HW227112   0.285   1.242   5.262 -1.2104  1.7058  0.5392
 6835SOL    HW327113   0.273   1.196   5.405  0.6413 -1.8869 -0.3504
 6835SOL    MW427114   0.320   1.207   5.333 -0.1627 -0.6974 -0.1001
 6836SOL     OW27115   5.128   0.215   0.491 -0.2305 -0.1566 -0.3353
 6836SOL    HW227116   5.138   0.191   0.398 -0.9132  1.0261 -0.7441
 6836SOL    HW327117   5.041   0.255   0.495  0.2859  0.9211  0.5629
 6836SOL    MW427118   5.117   0.217   0.479  0.2953 -0.1506 -0.2480
 6837SOL     OW27119   0.391   1.901   2.740 -0.2152 -0.1164  0.1805
 6837SOL    HW227120   0.351   1.878   2.655  2.1176  0.5745 -1.1925
 6837SOL    HW327121   0.453   1.830   2.756  1.8793  1.4645 -0.5104
 6837SOL    MW427122   0.394   1.888   2.731  0.8147 -0.2769  0.1360
 6838SOL     OW27123   2.535   3.721   3.152  0.0532 -0.4079 -0.1563
 6838SOL    HW227124   2.486   3.639   3.149  0.6821 -0.7731 -2.1872
 6838SOL    HW327125   2.469   3.789   3.165 -0.5275 -1.1576  1.0032
 6838SOL    MW427126   2.520   3.719   3.154 -0.0746 -0.1640 -0.5143
 6839SOL     OW27127   5.851   1.824   2.964  0.0112 -0.1991  0.1218
 6839SOL    HW227128   5.793   1.874   3.021  1.0573  1.4098 -0.1371
 6839SOL    HW327129   5.844   1.734   2.994 -1.2353  0.2465  1.2407
 6839SOL    MW427130   5.843   1.819   2.975  0.3530  0.1811 -0.5748
 6840SOL     OW27131   2.724   4.404   5.797  0.3919  0.1250 -0.2427
 6840SOL    HW227132   2.665   4.349   5.745  0.8108 -0.1383 -0.4500
 6840SOL    HW327133   2.773   4.454   5.732  0.0115  0.7443 -0.0513
 6840SOL    MW427134   2.723   4.403   5.782  0.6653  0.0256 -0.4876
 6841SOL     OW27135   0.804   3.389   2.149  0.3843  0.4264  0.3031
 6841SOL    HW227136   0.715   3.426   2.147 -0.0419 -0.5806 -0.1971
 6841SOL    HW327137   0.817   3.361   2.239 -0.2392 -0.4213  0.1367
 6841SOL    MW427138   0.794   3.390   2.160 -0.7561  0.0821 -0.6668
 6842SOL     OW27139   4.233   5.172   4.325  0.1711 -0.3484 -0.1733
 6842SOL    HW227140   4.283   5.238   4.278  1.7217 -1.0736  0.3786
 6842SOL    HW327141   4.241   5.093   4.272 -0.2831 -0.5209  0.0026
 6842SOL    MW427142   4.240   5.170   4.312  0.0888  0.0492  0.0034
 6843SOL     OW27143   4.686   1.223   1.353 -0.2654  0.0192 -0.3806
 6843SOL    HW227144   4.749   1.191   1.289 -0.6697  0.0654 -0.8017
 6843SOL    HW327145   4.643   1.145   1.386 -1.4033  0.1247 -1.5646
 6843SOL    MW427146   4.689   1.209   1.349  0.1864 -0.1610 -0.3063
 6844SOL     OW27147   0.619   5.442   4.188 -0.1742 -0.1751  0.1522
 6844SOL    HW227148   0.594   5.358   4.150  1.1386  0.4227 -2.2503
 6844SOL    HW327149   0.714   5.435   4.199 -0.1034  0.8657  0.2814
 6844SOL    MW427150   0.629   5.430   4.185 -0.3236 -0.3274  0.0436
 6845SOL     OW27151   2.615   4.039   1.457 -0.1291 -0.1196  0.3157
 6845SOL    HW227152   2.662   3.956   1.452 -0.1529 -0.0802 -0.6087
 6845SOL    HW327153   2.578   4.040   1.546 -1.1967 -1.6721 -0.0730
 6845SOL    MW427154   2.617   4.028   1.468  0.0434  0.2757 -0.0320
 6846SOL     OW27155   2.830   3.083   3.912 -0.5846  0.3189 -0.0028
 6846SOL    HW227156   2.756   3.050   3.964 -0.1903 -0.1406  0.2727
 6846SOL    HW327157   2.868   3.005   3.872  1.4372  0.1531  2.0346
 6846SOL    MW427158   2.825   3.069   3.914  0.3318  0.4680 -0.2690
 6847SOL     OW27159   1.983   2.119   1.087  0.1370 -0.6754  0.1630
 6847SOL    HW227160   1.936   2.190   1.043  2.4668  0.4132 -0.7335
 6847SOL    HW327161   1.949   2.120   1.177  0.4122  1.8951  0.2987
 6847SOL    MW427162   1.972   2.129   1.093 -0.2479 -0.4830 -0.0478
 6848SOL     OW27163   0.023   0.208   5.352  0.4183 -0.2593  0.2123
 6848SOL    HW227164   0.094   0.158   5.310 -0.3960  0.7970 -2.6769
 6848SOL    HW327165  -0.045   0.143   5.370  1.5086 -1.0420  1.6689
 6848SOL    MW427166   0.024   0.193   5.349  0.1880  0.6832  0.3380
 6849SOL     OW27167   1.656   5.172   3.334 -0.1290  0.1880 -0.2902
 6849SOL    HW227168   1.702   5.147   3.415  0.2431  1.3305 -0.1387
 6849SOL    HW327169   1.575   5.213   3.364 -1.0964 -1.4301 -0.5543
 6849SOL    MW427170   1.652   5.174   3.349 -0.5729 -0.0288 -0.0961
 6850SOL     OW27171   2.226   1.797   5.478 -0.1152 -0.4597  0.1449
 6850SOL    HW227172   2.308   1.779   5.525  0.7249  0.3221 -0.9573
 6850SOL    HW327173   2.249   1.866   5.416 -1.5957 -0.3120 -0.2716
 6850SOL    MW427174   2.240   1.804   5.476 -0.4770  0.3294 -0.0607
 6851SOL     OW27175   3.085   6.012   4.624 -0.4024 -0.1838  0.5977
 6851SOL    HW227176   3.120   6.067   4.693  2.4708 -0.6456 -0.3581
 6851SOL    HW327177   3.127   5.927   4.637  0.4376 -0.2162 -1.7893
 6851SOL    MW427178   3.095   6.008   4.635 -0.4486 -0.7089 -0.3892
 6852SOL     OW27179   6.008   0.508   4.727 -0.0945 -0.0676  0.3524
 6852SOL    HW227180   5.931   0.488   4.675  1.1230  0.5502 -1.7966
 6852SOL    HW327181   5.995   0.460   4.809 -2.2035 -0.8810 -0.4062
 6852SOL    MW427182   5.996   0.499   4.731 -0.3566  0.1154  0.1881
 6853SOL     OW27183   6.268   2.015   1.628 -0.4284 -0.2291 -0.0739
 6853SOL    HW227184   6.284   2.105   1.599 -0.3830  0.3847  1.7313
 6853SOL    HW327185   6.174   2.012   1.645 -0.2606 -0.1796  0.9013
 6853SOL    MW427186   6.258   2.027   1.627  0.7241 -0.5469 -0.3985
 6854SOL     OW27187   1.705   0.457   2.976  0.4848 -0.4829 -0.0574
 6854SOL    HW227188   1.631   0.506   3.013 -1.6522 -3.1964 -0.3979
 6854SOL    HW327189   1.739   0.514   2.907 -1.2227  0.9294  0.1915
 6854SOL    MW427190   1.699   0.471   2.971 -0.0165  0.1175 -0.2871
 6855SOL     OW27191   1.674   4.426   5.084  0.4949  0.3768 -0.1503
 6855SOL    HW227192   1.684   4.399   5.176  0.9496  2.6484  0.5277
 6855SOL    HW327193   1.604   4.491   5.086  0.6972  0.6474 -1.3662
 6855SOL    MW427194   1.666   4.431   5.097 -0.3055 -0.1321  0.2009
 6856SOL     OW27195   4.934   2.934   2.837  0.0726 -0.1943  0.0163
 6856SOL    HW227196   4.957   2.854   2.789 -0.4810 -0.0157 -0.5729
 6856SOL    HW327197   4.838   2.929   2.845 -0.3334  1.6658 -2.3999
 6856SOL    MW427198   4.924   2.923   2.832  0.0970 -0.1294  0.5999
 6857SOL     OW27199   2.025   3.897   0.286  0.3191 -0.3944  0.0212
 6857SOL    HW227200   2.100   3.925   0.235 -1.0720  0.7650 -1.4739
 6857SOL    HW327201   2.054   3.905   0.377  2.1291 -0.4133 -0.5090
 6857SOL    MW427202   2.039   3.902   0.292  0.0966 -0.2386 -0.1201
 6858SOL     OW27203   4.657   0.294   5.817  0.2282  0.2898  0.5459
 6858SOL    HW227204   4.694   0.213   5.850 -1.1209 -0.4429  0.3563
 6858SOL    HW327205   4.647   0.279   5.723 -0.0838  0.6544  0.5161
 6858SOL    MW427206   4.661   0.282   5.809 -0.4348  0.4662  0.2697
 6859SOL     OW27207   6.272   3.617   3.973  0.1182 -0.2265  0.3067
 6859SOL    HW227208   6.343   3.602   3.911  2.2802  0.8670  2.3616
 6859SOL    HW327209   6.259   3.712   3.972 -1.6727 -0.4452 -0.3485
 6859SOL    MW427210   6.280   3.627   3.965  0.7924 -0.8658  0.2909
 6860SOL     OW27211   1.764   1.739   3.610  0.1383 -0.3113  0.3464
 6860SOL    HW227212   1.797   1.798   3.542 -2.4940  0.2661 -0.5593
 6860SOL    HW327213   1.744   1.796   3.684  1.5326 -0.7201  1.0629
 6860SOL    MW427214   1.766   1.754   3.611  0.0931  0.0468 -0.5829
 6861SOL     OW27215   1.899   0.311   0.857 -0.5569 -0.1281  0.6585
 6861SOL    HW227216   1.934   0.386   0.905 -0.6013  1.5484 -1.7456
 6861SOL    HW327217   1.807   0.306   0.884 -0.6998  1.0637  0.4637
 6861SOL    MW427218   1.891   0.320   0.867 -0.2153 -0.6569 -1.1336
 6862SOL     OW27219   0.627   1.416   3.387 -0.3371  0.5720  0.1990
 6862SOL    HW227220   0.716   1.383   3.371 -0.3350  0.5306  0.2934
 6862SOL    HW327221   0.638   1.511   3.388 -0.5794  0.6395 -1.4372
 6862SOL    MW427222   0.640   1.424   3.385  0.5348 -0.9267 -0.1733
 6863SOL     OW27223   2.523   2.510   0.325 -0.3700  0.0864  0.2527
 6863SOL    HW227224   2.505   2.594   0.367  1.2513  0.6882 -0.1584
 6863SOL    HW327225   2.538   2.450   0.398  0.0014  0.5365  0.5564
 6863SOL    MW427226   2.523   2.513   0.340  0.0192 -0.0434  0.5483
 6864SOL     OW27227   4.716   0.701   3.136  0.4817 -0.1740 -0.2607
 6864SOL    HW227228   4.777   0.697   3.062  1.6174  0.5242  0.6081
 6864SOL    HW327229   4.696   0.610   3.155  0.9229 -0.3999 -0.8249
 6864SOL    MW427230   4.722   0.689   3.129  0.3759 -0.0525  0.0704
 6865SOL     OW27231   4.926   2.872   5.557 -0.2171  0.4016  0.3381
 6865SOL    HW227232   4.845   2.896   5.513 -0.6565 -1.0275  0.3293
 6865SOL    HW327233   4.988   2.941   5.533 -0.5749 -0.0628 -2.0978
 6865SOL    MW427234   4.923   2.885   5.548 -0.1014 -0.4616 -0.7228
 6866SOL     OW27235   4.457   1.963   3.409 -0.2740 -0.0942  0.1054
 6866SOL    HW227236   4.527   1.994   3.467 -1.2464  1.0115  0.7434
 6866SOL    HW327237   4.499   1.951   3.324  0.9834 -0.8211  0.8009
 6866SOL    MW427238   4.472   1.966   3.406  0.3037 -0.8945 -0.1420
 6867SOL     OW27239   3.153   1.227   0.853 -1.0792  0.2517  0.5499
 6867SOL    HW227240   3.161   1.313   0.896  0.4585  0.1888  0.4423
 6867SOL    HW327241   3.206   1.169   0.906 -1.1498 -0.3796 -0.0608
 6867SOL    MW427242   3.161   1.231   0.866 -0.3086 -0.4350  0.0420
 6868SOL     OW27243   6.191   1.463   1.367 -0.4632  0.1037 -0.4677
 6868SOL    HW227244   6.248   1.479   1.443  0.1083 -1.3329 -0.5506
 6868SOL    HW327245   6.210   1.535   1.307  1.5138 -0.4554 -0.5978
 6868SOL    MW427246   6.201   1.475   1.369  0.2984  0.0034  0.4527
 6869SOL     OW27247   2.755   3.063   3.399  0.0347  0.2226  0.8593
 6869SOL    HW227248   2.799   2.979   3.407  0.7208  0.1672 -2.1726
 6869SOL    HW327249   2.814   3.117   3.347 -1.3819  1.7930  0.7735
 6869SOL    MW427250   2.768   3.059   3.393 -0.0156  0.3846 -0.1356
 6870SOL     OW27251   0.016   3.478   0.567 -0.1097  0.3676 -0.1145
 6870SOL    HW227252   0.007   3.440   0.654  0.6006  0.2020 -0.1086
 6870SOL    HW327253  -0.012   3.409   0.508 -0.3283  0.3836 -0.0301
 6870SOL    MW427254   0.011   3.464   0.571 -0.7753 -0.2757 -0.2028
 6871SOL     OW27255   1.117   2.308   0.373 -0.6977  0.1601  0.6704
 6871SOL    HW227256   1.022   2.299   0.362 -0.5836  1.3099 -1.8583
 6871SOL    HW327257   1.152   2.303   0.285  1.3162  2.4996  1.2168
 6871SOL    MW427258   1.109   2.306   0.360  0.4118 -0.2708  0.1266
 6872SOL     OW27259   5.160   1.330   5.403 -0.2740  0.4061  0.0771
 6872SOL    HW227260   5.140   1.371   5.319  0.2858 -1.7902 -1.2171
 6872SOL    HW327261   5.074   1.316   5.443 -0.6351  0.4969 -0.6416
 6872SOL    MW427262   5.146   1.333   5.397  0.9965 -0.7722 -0.2372
 6873SOL     OW27263   5.655   0.890   2.603  0.2896 -0.3065 -0.8099
 6873SOL    HW227264   5.747   0.876   2.583  0.3871 -0.0560 -0.5585
 6873SOL    HW327265   5.618   0.926   2.523  0.0878 -1.7132 -1.3759
 6873SOL    MW427266   5.662   0.893   2.590 -0.4741  0.1353  0.3553
 6874SOL     OW27267   3.939   5.219   4.198  0.6586 -0.2767  0.8535
 6874SOL    HW227268   3.956   5.199   4.290  1.1212 -0.4004  0.7417
 6874SOL    HW327269   3.899   5.139   4.163 -0.2268  0.0382  1.1338
 6874SOL    MW427270   3.936   5.206   4.205  0.3976 -0.0467  0.6786
 6875SOL     OW27271   3.702   2.238   2.483 -0.1908  0.0313 -0.0039
 6875SOL    HW227272   3.616   2.281   2.485 -0.3954 -0.3987  1.2751
 6875SOL    HW327273   3.692   2.161   2.539  0.8850 -0.3135 -0.2593
 6875SOL    MW427274   3.689   2.234   2.491  1.1034  0.0532  0.6959
 6876SOL     OW27275   1.679   3.251   2.349  0.0440  0.2500 -0.6108
 6876SOL    HW227276   1.670   3.157   2.332  0.3089  0.0387  0.3758
 6876SOL    HW327277   1.598   3.275   2.394  1.1328 -0.1140  1.6609
 6876SOL    MW427278   1.667   3.242   2.352 -0.1960 -0.1647  0.2255
 6877SOL     OW27279   4.677   1.667   3.418  0.0324  0.4357 -0.4234
 6877SOL    HW227280   4.649   1.716   3.341 -0.4996  0.8543  0.0222
 6877SOL    HW327281   4.635   1.713   3.491 -2.8899 -2.3684 -0.1531
 6877SOL    MW427282   4.668   1.680   3.418  0.0027 -0.1424  0.1271
 6878SOL     OW27283   4.919   2.987   4.453 -0.0584 -0.3001  0.0778
 6878SOL    HW227284   4.901   3.051   4.521 -2.3839 -0.4341 -0.3495
 6878SOL    HW327285   4.870   2.909   4.479 -0.4753 -0.5729 -1.4086
 6878SOL    MW427286   4.910   2.985   4.465  0.2290  0.0505 -0.0899
 6879SOL     OW27287   6.074   1.226   4.276  0.0416 -0.0618 -0.1730
 6879SOL    HW227288   6.052   1.170   4.201 -0.2497  0.3380 -0.3874
 6879SOL    HW327289   5.995   1.278   4.290 -0.8532 -1.8157  1.9478
 6879SOL    MW427290   6.060   1.225   4.268  0.5024  0.2719 -0.0121
 6880SOL     OW27291   2.404   1.852   3.460 -0.0020 -0.0127  0.3366
 6880SOL    HW227292   2.380   1.945   3.456  1.2453  0.3045 -0.1013
 6880SOL    HW327293   2.327   1.810   3.497  0.1747  1.5133  2.6955
 6880SOL    MW427294   2.391   1.859   3.465  0.1647  0.1868 -0.2589
 6881SOL     OW27295   3.241   3.463   1.542  0.0047  0.9694  0.8716
 6881SOL    HW227296   3.186   3.398   1.587 -0.0112  1.0027  0.8997
 6881SOL    HW327297   3.298   3.498   1.610  0.8982  0.0629  0.6164
 6881SOL    MW427298   3.241   3.459   1.557 -0.1104  0.3885 -0.6532
 6882SOL     OW27299   4.259   2.741   0.513  0.0299 -0.1904 -0.0535
 6882SOL    HW227300   4.313   2.797   0.457 -1.7598  1.8215  0.0936
 6882SOL    HW327301   4.198   2.699   0.452 -0.8071  0.6748  0.1649
 6882SOL    MW427302   4.258   2.743   0.498 -0.0868 -0.7276 -0.5471
 6883SOL     OW27303   3.980   6.348   5.532  0.2093  0.5005 -0.0829
 6883SOL    HW227304   3.973   6.437   5.499  0.3801  0.4832 -0.1637
 6883SOL    HW327305   4.067   6.318   5.505 -0.3149 -0.1264 -1.1641
 6883SOL    MW427306   3.990   6.356   5.524 -0.3551 -0.0299 -0.3921
 6884SOL     OW27307   0.302   6.172   0.174 -0.2528 -0.5321 -0.5227
 6884SOL    HW227308   0.311   6.077   0.171  1.9951 -0.3755 -0.0363
 6884SOL    HW327309   0.236   6.191   0.108 -0.8454 -2.4266 -0.5465
 6884SOL    MW427310   0.294   6.162   0.165 -0.2939 -0.2505 -0.3806
 6885SOL     OW27311   5.655   3.478   4.063 -0.0728  0.6498  0.1007
 6885SOL    HW227312   5.660   3.436   3.977 -0.7639  0.7263  0.0221
 6885SOL    HW327313   5.572   3.525   4.062 -0.1120  0.6010  0.8351
 6885SOL    MW427314   5.645   3.479   4.052 -0.0642  0.5644 -0.0083
 6886SOL     OW27315   1.763   4.729   0.546  0.0984 -0.2801 -0.0903
 6886SOL    HW227316   1.676   4.728   0.585  0.4229 -1.0470  0.6491
 6886SOL    HW327317   1.765   4.652   0.489  1.1829 -1.9151  2.0089
 6886SOL    MW427318   1.752   4.718   0.543  0.2441  0.0631 -0.5409
 6887SOL     OW27319   0.702   0.084   1.009 -0.2202 -0.5239  0.1114
 6887SOL    HW227320   0.705   0.103   0.916 -0.3187 -0.4934  0.1147
 6887SOL    HW327321   0.783   0.122   1.044 -0.6749  0.3715  0.2121
 6887SOL    MW427322   0.713   0.091   1.002  0.3309 -0.2143 -0.4294
 6888SOL     OW27323   5.713   4.351   1.663  0.0544  0.1258  0.2745
 6888SOL    HW227324   5.785   4.412   1.680 -0.3328  0.5037  0.5657
 6888SOL    HW327325   5.752   4.264   1.675 -0.0201  0.3405  2.5003
 6888SOL    MW427326   5.728   4.348   1.667  0.4109  0.3683  0.3368
 6889SOL     OW27327   6.337   1.586   4.305 -0.0042  0.2985  0.0410
 6889SOL    HW227328   6.272   1.647   4.340 -1.0998 -1.7306  1.7247
 6889SOL    HW327329   6.293   1.544   4.231 -0.7637 -1.1930  1.2803
 6889SOL    MW427330   6.323   1.589   4.300 -0.2235  0.5927 -0.3412
 6890SOL     OW27331   2.642   1.795   0.136 -0.3007  0.5284 -0.6448
 6890SOL    HW227332   2.720   1.832   0.177  0.6217 -0.9502 -0.9559
 6890SOL    HW327333   2.662   1.701   0.127 -2.5753 -0.1106  0.2894
 6890SOL    MW427334   2.655   1.787   0.140 -0.0320 -0.7204 -0.3981
 6891SOL     OW27335   1.232   1.170   5.490  0.1841  0.1930  0.2461
 6891SOL    HW227336   1.168   1.240   5.481 -0.8361 -0.7381 -0.0019
 6891SOL    HW327337   1.229   1.146   5.583  0.1404  0.1193  0.2258
 6891SOL    MW427338   1.223   1.176   5.501 -0.0786 -0.0975  0.0567
 6892SOL     OW27339   5.196   4.665   4.641  0.1481 -0.0618  0.9287
 6892SOL    HW227340   5.173   4.727   4.572  0.8970  1.2590  1.8484
 6892SOL    HW327341   5.167   4.580   4.606  0.2465  0.6056 -0.8811
 6892SOL    MW427342   5.189   4.662   4.627 -0.0696 -0.2931 -0.0307
 6893SOL     OW27343   0.475   3.477   3.736 -0.1237  0.5049 -0.1322
 6893SOL    HW227344   0.442   3.556   3.780  0.3208  0.3396  0.5106
 6893SOL    HW327345   0.559   3.459   3.780 -1.5411 -1.9990  1.7583
 6893SOL    MW427346   0.482   3.485   3.747 -0.2537  0.2524 -0.0552
 6894SOL     OW27347   5.917   1.898   5.868  0.0683 -0.4589 -0.0942
 6894SOL    HW227348   5.892   1.887   5.777 -0.1205  2.0941 -0.4433
 6894SOL    HW327349   6.011   1.914   5.866  0.2504 -1.4024  0.2934
 6894SOL    MW427350   5.926   1.899   5.856  0.2486  0.0298 -0.2219
 6895SOL     OW27351   5.875   5.830   4.298  0.6683 -0.2123  0.5165
 6895SOL    HW227352   5.900   5.816   4.207 -0.8877  0.4808 -0.0426
 6895SOL    HW327353   5.799   5.773   4.312  0.3014  0.3950  1.0831
 6895SOL    MW427354   5.868   5.821   4.288  0.0322 -0.5157 -0.5973
 6896SOL     OW27355   3.254   4.478   0.898 -0.3794 -0.3598  0.2637
 6896SOL    HW227356   3.306   4.544   0.853 -1.1789 -0.5145 -0.9354
 6896SOL    HW327357   3.208   4.527   0.967 -1.1460  0.4083 -0.7583
 6896SOL    MW427358   3.255   4.493   0.901 -0.1662  0.1378  0.0992
 6897SOL     OW27359   0.600   2.662   0.398 -0.3412 -0.1678  0.4215
 6897SOL    HW227360   0.570   2.750   0.420  0.5259  0.0528  0.7608
 6897SOL    HW327361   0.523   2.607   0.409 -1.0503  0.6386 -0.3975
 6897SOL    MW427362   0.586   2.666   0.403  0.4071  0.3817  0.6671
 6898SOL     OW27363   0.637   4.827   3.532 -0.4603 -0.7338 -0.0867
 6898SOL    HW227364   0.587   4.887   3.476 -1.8395 -0.6185  1.2037
 6898SOL    HW327365   0.726   4.863   3.532 -0.8584  0.3151 -0.7318
 6898SOL    MW427366   0.642   4.840   3.524 -0.4484 -0.7333  0.4989
 6899SOL     OW27367   6.387   3.150   0.931 -0.0787 -0.1176 -0.0094
 6899SOL    HW227368   6.342   3.139   1.015 -0.5927 -1.3986 -0.4276
 6899SOL    HW327369   6.429   3.066   0.915  2.3681  0.9754  0.2686
 6899SOL    MW427370   6.386   3.137   0.940 -0.5947 -0.6311  0.0303
 6900SOL     OW27371   6.341   5.506   4.915 -0.1050 -0.9053  0.2056
 6900SOL    HW227372   6.283   5.580   4.930  1.0695 -0.2754  2.0580
 6900SOL    HW327373   6.428   5.538   4.940  0.2053 -3.3385  2.7584
 6900SOL    MW427374   6.345   5.520   4.920  0.2350 -0.2632 -0.2361
 6901SOL     OW27375   0.591   4.673   0.513 -0.6627  0.8472  0.4091
 6901SOL    HW227376   0.510   4.659   0.563 -1.0426  2.4752  0.3070
 6901SOL    HW327377   0.569   4.646   0.424 -0.1698 -1.4721  0.9136
 6901SOL    MW427378   0.577   4.668   0.508  0.4815 -0.0147  0.4137
 6902SOL     OW27379   5.598   2.932   4.407  0.6580 -0.5835  0.3140
 6902SOL    HW227380   5.579   2.838   4.410  1.5540 -0.7992 -0.1945
 6902SOL    HW327381   5.576   2.958   4.318  1.1070 -0.4716  0.2346
 6902SOL    MW427382   5.593   2.923   4.396 -0.5044 -0.1876  0.0974
 6903SOL     OW27383   0.757   3.230   5.281  0.0455 -0.4076  0.2019
 6903SOL    HW227384   0.835   3.284   5.268  0.8685 -1.9331 -1.5418
 6903SOL    HW327385   0.722   3.217   5.193 -0.8149 -1.7072  0.7157
 6903SOL    MW427386   0.763   3.236   5.268 -0.4282  0.4248  0.1329
 6904SOL     OW27387   5.248   2.052   3.425  0.5279  0.2815  0.2559
 6904SOL    HW227388   5.234   2.060   3.331  0.2220  1.0710  0.3583
 6904SOL    HW327389   5.343   2.060   3.437  0.7901 -1.7601 -0.1453
 6904SOL    MW427390   5.259   2.054   3.414  0.0136 -0.3668  0.5212
 6905SOL     OW27391   2.742   5.395   1.640 -0.0802 -0.2315 -0.0206
 6905SOL    HW227392   2.706   5.483   1.652 -0.8306 -0.5556  0.2263
 6905SOL    HW327393   2.833   5.409   1.614 -0.1115  0.6098  0.2813
 6905SOL    MW427394   2.749   5.408   1.638  0.0142  0.5489 -0.2285
 6906SOL     OW27395   1.644   3.410   2.074 -0.6058 -0.1998  0.3363
 6906SOL    HW227396   1.694   3.490   2.088 -0.5750  0.1570 -1.4901
 6906SOL    HW327397   1.683   3.346   2.134  1.8896  0.1313 -0.7969
 6906SOL    MW427398   1.656   3.412   2.084  0.0300 -0.1511 -0.5859
 6907SOL     OW27399   2.283   2.698   4.666  0.7614 -0.1181  0.7641
 6907SOL    HW227400   2.334   2.620   4.646 -0.6678 -0.4514 -2.0593
 6907SOL    HW327401   2.257   2.732   4.581 -0.1456  2.4709  1.9707
 6907SOL    MW427402   2.287   2.692   4.652  0.6102 -0.2384 -0.2299
 6908SOL     OW27403   4.226   4.849   1.017  0.4250  0.4397  0.2845
 6908SOL    HW227404   4.170   4.917   1.054  0.6496  0.3072  0.8795
 6908SOL    HW327405   4.175   4.769   1.025  0.5420  0.3818  0.4837
 6908SOL    MW427406   4.212   4.848   1.023 -0.1302  0.1221  0.2845
 6909SOL     OW27407   5.586   1.811   0.893  0.6459 -0.1074 -0.3615
 6909SOL    HW227408   5.556   1.721   0.904  0.2573 -0.1106 -1.3436
 6909SOL    HW327409   5.520   1.864   0.939 -0.5043 -0.1744 -1.8497
 6909SOL    MW427410   5.573   1.806   0.901  0.1081 -0.7212 -0.2061
 6910SOL     OW27411   1.338   0.093   4.841 -0.5340 -0.2272  0.1582
 6910SOL    HW227412   1.428   0.061   4.839 -0.4654 -0.2944  2.1446
 6910SOL    HW327413   1.289   0.025   4.886 -1.2350  0.5333  0.5722
 6910SOL    MW427414   1.343   0.080   4.847 -0.7231  0.0956  0.4652
 6911SOL     OW27415   1.332   6.188   3.705 -0.4691  0.2008  0.1828
 6911SOL    HW227416   1.410   6.242   3.696  0.9158 -1.8270 -0.8992
 6911SOL    HW327417   1.264   6.237   3.659  1.0294  0.5164 -1.8586
 6911SOL    MW427418   1.333   6.201   3.698  0.8347 -0.2169  0.0155
 6912SOL     OW27419   5.195   2.900   4.526 -0.5607 -0.1444  0.2464
 6912SOL    HW227420   5.104   2.922   4.508 -0.0341  0.7989 -1.4530
 6912SOL    HW327421   5.244   2.978   4.502  0.6792 -0.4333  1.6750
 6912SOL    MW427422   5.189   2.913   4.521  0.3868 -0.2443 -0.4199
 6913SOL     OW27423   2.759   2.167   5.543  0.5914 -0.2790  0.1918
 6913SOL    HW227424   2.830   2.227   5.565 -1.7279  1.8716  2.5297
 6913SOL    HW327425   2.784   2.084   5.583  2.1214  0.1882  0.2550
 6913SOL    MW427426   2.772   2.164   5.551 -0.0294  0.0591 -0.0861
 6914SOL     OW27427   0.439   3.646   5.512 -0.2942  0.3800 -0.7467
 6914SOL    HW227428   0.355   3.681   5.483 -1.9129 -1.1176  1.6766
 6914SOL    HW327429   0.431   3.551   5.500  0.4641  0.0879  0.8016
 6914SOL    MW427430   0.427   3.638   5.507 -0.1283  0.4217 -0.2083
 6915SOL     OW27431   5.459   1.564   6.016 -0.3598 -0.0131 -0.0354
 6915SOL    HW227432   5.417   1.514   5.946 -0.8280  0.9714 -0.4920
 6915SOL    HW327433   5.448   1.511   6.094  2.7092 -2.5802 -1.1167
 6915SOL    MW427434   5.452   1.551   6.017 -0.2007 -0.5262 -0.5193
 6916SOL     OW27435   3.214   5.400   0.465  0.3984  0.5008 -0.4860
 6916SOL    HW227436   3.130   5.403   0.510 -0.1367  0.1113 -1.4158
 6916SOL    HW327437   3.260   5.479   0.494 -0.1567  0.5454  0.2853
 6916SOL    MW427438   3.209   5.411   0.475 -0.2621 -0.1280 -0.1964
 6917SOL     OW27439   1.135   2.691   1.017 -0.2835 -0.0861 -0.0282
 6917SOL    HW227440   1.204   2.758   1.024 -1.5015  1.2981 -0.5765
 6917SOL    HW327441   1.177   2.610   1.044  0.9054  1.1226  1.9916
 6917SOL    MW427442   1.150   2.689   1.021  0.0119 -0.1098 -0.5139
 6918SOL     OW27443   4.134   5.151   5.269  0.0163 -0.2384  0.1492
 6918SOL    HW227444   4.198   5.205   5.223  0.0062 -1.2180 -1.0693
 6918SOL    HW327445   4.186   5.100   5.332  0.9046 -2.7399 -2.3930
 6918SOL    MW427446   4.149   5.151   5.271 -0.8115 -0.0270  0.5558
 6919SOL     OW27447   3.988   5.749   4.801  0.6932 -0.1019 -0.3582
 6919SOL    HW227448   3.959   5.679   4.743 -1.5160 -0.8969  1.5496
 6919SOL    HW327449   3.915   5.811   4.802  0.5201 -0.2724  1.7267
 6919SOL    MW427450   3.975   5.748   4.794  0.0496  0.2828  0.0633
 6920SOL     OW27451   0.390   2.955   4.465  0.1964  0.1833  0.4168
 6920SOL    HW227452   0.439   2.935   4.545  1.2803 -0.3433 -0.3572
 6920SOL    HW327453   0.455   2.949   4.395 -1.4041 -2.9717 -1.0005
 6920SOL    MW427454   0.405   2.952   4.466 -0.6906  0.5468 -0.1358
 6921SOL     OW27455   5.092   1.786   4.555  1.2612 -0.0805  0.0028
 6921SOL    HW227456   5.089   1.696   4.522  2.1410 -0.6318  1.3099
 6921SOL    HW327457   5.006   1.800   4.594  1.2084 -0.4635  0.0348
 6921SOL    MW427458   5.081   1.776   4.556  0.6862  0.0610 -0.5574
 6922SOL     OW27459   3.392   3.321   1.959 -0.1365  0.0828  0.4328
 6922SOL    HW227460   3.461   3.334   1.894 -0.6531  2.7572  0.3103
 6922SOL    HW327461   3.330   3.261   1.917  0.6470 -0.0251 -0.6163
 6922SOL    MW427462   3.393   3.314   1.945  0.3386  0.0939 -0.0582
 6923SOL     OW27463   4.927   4.145   1.729 -0.2786  0.1231 -0.2654
 6923SOL    HW227464   4.978   4.168   1.651  0.1460 -0.4353 -0.1578
 6923SOL    HW327465   4.847   4.197   1.721  0.4586  1.3001 -0.2388
 6923SOL    MW427466   4.923   4.155   1.717  0.5966 -0.5932  0.2964
 6924SOL     OW27467   3.917   4.297   5.876  0.6428 -0.6685 -0.3052
 6924SOL    HW227468   3.875   4.223   5.831 -0.1554 -0.3051 -0.1824
 6924SOL    HW327469   3.964   4.343   5.807 -0.0537 -0.4720 -0.6618
 6924SOL    MW427470   3.917   4.293   5.861  0.7312 -0.8028  0.8843
 6925SOL     OW27471   2.972   0.121   4.887  0.2856  0.9288 -0.5567
 6925SOL    HW227472   3.048   0.142   4.833 -0.1731  0.3992 -1.4375
 6925SOL    HW327473   2.950   0.031   4.863 -0.1315  0.7968  0.2802
 6925SOL    MW427474   2.979   0.112   4.877  0.2523  0.3617 -0.5279
 6926SOL     OW27475   0.813   2.101   5.244 -0.1431 -0.5159  0.3257
 6926SOL    HW227476   0.729   2.095   5.199  0.1239  0.4484 -0.3239
 6926SOL    HW327477   0.870   2.145   5.182  0.7400 -0.8072  0.9190
 6926SOL    MW427478   0.809   2.106   5.230  0.0194  0.6735  0.1054
 6927SOL     OW27479   1.717   2.129   0.748 -0.5218  0.4849  0.2624
 6927SOL    HW227480   1.724   2.180   0.828 -1.8430 -0.9594  1.3619
 6927SOL    HW327481   1.772   2.052   0.763 -1.5305 -0.2643  0.1922
 6927SOL    MW427482   1.725   2.126   0.760 -0.1658  0.2725  0.9576
 6928SOL     OW27483   3.252   1.871   2.991 -0.3654 -0.0972  0.2530
 6928SOL    HW227484   3.322   1.927   3.023  1.2748 -1.4999 -0.6793
 6928SOL    HW327485   3.237   1.809   3.062  0.2584 -0.5734 -0.0197
 6928SOL    MW427486   3.259   1.870   3.005 -0.1674 -0.7679 -0.1634
 6929SOL     OW27487   2.248   6.205   3.937 -0.4632  0.3016  0.0606
 6929SOL    HW227488   2.251   6.135   3.873 -0.1924  0.8947 -0.5827
 6929SOL    HW327489   2.339   6.233   3.947 -0.4570  0.0027  0.9450
 6929SOL    MW427490   2.260   6.199   3.930  0.4871 -0.6989 -0.2580
 6930SOL     OW27491   5.898   5.246   5.329 -0.1724 -0.0261 -0.3249
 6930SOL    HW227492   5.870   5.239   5.420  2.3629  1.0707  0.6268
 6930SOL    HW327493   5.911   5.156   5.301 -0.4875 -0.3554  0.5607
 6930SOL    MW427494   5.896   5.233   5.337 -0.2611 -0.1451  0.5878
 6931SOL     OW27495   3.051   2.224   4.733 -0.3866 -0.6655 -0.3456
 6931SOL    HW227496   3.129   2.210   4.679 -0.9028  1.2948 -1.7369
 6931SOL    HW327497   2.980   2.239   4.669 -1.3951 -0.0629  0.8724
 6931SOL    MW427498   3.052   2.224   4.717 -0.4893 -0.1471 -0.4145
 6932SOL     OW27499   2.531   4.146   3.074  0.5019 -0.2860  0.0153
 6932SOL    HW227500   2.607   4.101   3.113  2.7879  1.4385 -2.1534
 6932SOL    HW327501   2.537   4.236   3.107 -1.1585 -0.3014  0.4600
 6932SOL    MW427502   2.542   4.152   3.084 -0.1887  0.0094  0.0451
 6933SOL     OW27503   5.804   2.576   2.553 -0.1456 -0.3024 -0.3645
 6933SOL    HW227504   5.709   2.587   2.554 -0.1994 -0.3990 -1.6911
 6933SOL    HW327505   5.838   2.647   2.606 -1.0356 -1.6029  2.1076
 6933SOL    MW427506   5.796   2.587   2.560  0.1040 -0.3783 -0.5476
 6934SOL     OW27507   1.045   0.509   1.177 -0.2489  0.1033 -0.1511
 6934SOL    HW227508   1.111   0.498   1.109 -0.9844 -1.3451 -0.6854
 6934SOL    HW327509   0.985   0.574   1.142 -0.5964 -0.5954 -0.8966
 6934SOL    MW427510   1.046   0.516   1.164 -0.1306 -0.0051 -0.5522
 6935SOL     OW27511   3.671   6.167   3.348 -0.3157 -0.3433  0.3460
 6935SOL    HW227512   3.602   6.109   3.379  0.4526 -1.6977 -0.3844
 6935SOL    HW327513   3.728   6.179   3.424 -0.4754 -0.5620  0.5008
 6935SOL    MW427514   3.670   6.161   3.362 -0.0551  1.0433 -0.2089
 6936SOL     OW27515   4.874   2.562   3.389  0.2252  0.4253  0.2100
 6936SOL    HW227516   4.918   2.526   3.312  0.7857 -0.4312  0.9113
 6936SOL    HW327517   4.808   2.497   3.412  0.6743  0.2366  0.9905
 6936SOL    MW427518   4.871   2.549   3.381 -0.0610  0.6799 -0.0619
 6937SOL     OW27519   1.988   2.719   3.592 -0.5966  0.0173  0.4288
 6937SOL    HW227520   1.906   2.731   3.639 -0.2123  0.0875  1.0874
 6937SOL    HW327521   2.010   2.627   3.605 -0.9483 -0.1922 -0.3796
 6937SOL    MW427522   1.980   2.709   3.600  0.2119  0.4159  0.3757
 6938SOL     OW27523   1.415   0.937   2.725 -0.1842 -0.1357 -0.2348
 6938SOL    HW227524   1.395   0.854   2.768  0.3883  1.0038  2.4039
 6938SOL    HW327525   1.505   0.956   2.750  1.1862 -0.5782 -4.1496
 6938SOL    MW427526   1.424   0.928   2.734 -0.5363  0.0028 -0.0282
 6939SOL     OW27527   2.906   5.991   1.651 -0.9513 -0.2846 -0.3462
 6939SOL    HW227528   2.852   5.960   1.578 -0.7665 -0.9879 -0.1885
 6939SOL    HW327529   2.993   6.000   1.613 -1.0485  0.2529 -0.4448
 6939SOL    MW427530   2.910   5.988   1.636 -0.2262  0.5354  0.4068
 6940SOL     OW27531   2.275   3.075   4.498 -0.6226 -0.0981  0.0647
 6940SOL    HW227532   2.312   3.134   4.564  2.8963  0.8690 -2.4357
 6940SOL    HW327533   2.270   3.128   4.419 -1.6971 -1.9974 -1.2239
 6940SOL    MW427534   2.279   3.090   4.496  0.0410  0.7082  0.2007
 6941SOL     OW27535   5.081   3.033   3.983  0.1788 -0.5635 -0.1818
 6941SOL    HW227536   5.062   3.114   3.936 -1.0213 -0.5301  0.3289
 6941SOL    HW327537   5.035   2.965   3.934  0.2105 -0.7570  0.0520
 6941SOL    MW427538   5.072   3.035   3.971  0.0811  0.5196  0.3100
 6942SOL     OW27539   0.515   2.884   3.123 -0.1237 -0.0604 -0.5352
 6942SOL    HW227540   0.568   2.964   3.121  0.2207 -0.3006 -1.9183
 6942SOL    HW327541   0.444   2.901   3.061  0.3169 -1.0637 -1.3278
 6942SOL    MW427542   0.513   2.897   3.115  0.6504 -0.1424 -0.1351
 6943SOL     OW27543   0.178   1.549   2.582 -0.0270 -0.2326 -0.4122
 6943SOL    HW227544   0.140   1.511   2.502 -0.3360 -0.9424  0.0639
 6943SOL    HW327545   0.121   1.623   2.603 -0.7312 -0.8479 -0.1136
 6943SOL    MW427546   0.166   1.554   2.574 -0.4666 -0.1527  0.0378
 6944SOL     OW27547   2.304   4.109   2.002  0.0628  0.4546 -0.4396
 6944SOL    HW227548   2.387   4.065   2.019  0.3907 -0.2146 -3.2085
 6944SOL    HW327549   2.315   4.197   2.036  2.6191  0.9347 -2.2488
 6944SOL    MW427550   2.316   4.115   2.008  0.4574  0.5781  0.1191
 6945SOL     OW27551   3.553   1.375   2.545 -0.0057  0.1296  0.2000
 6945SOL    HW227552   3.647   1.371   2.528 -0.0050  0.5755  0.0710
 6945SOL    HW327553   3.546   1.374   2.640  0.0860 -0.6640  0.2033
 6945SOL    MW427554   3.565   1.374   2.555  0.3694  0.0628 -0.8120
 6946SOL     OW27555   3.313   3.236   2.231 -0.0006 -0.0615 -0.3944
 6946SOL    HW227556   3.350   3.281   2.154  0.7014 -0.3827 -0.2489
 6946SOL    HW327557   3.371   3.162   2.246 -0.0779  0.0594  0.5223
 6946SOL    MW427558   3.325   3.232   2.223 -0.6218  0.3905 -0.0131
 6947SOL     OW27559   0.741   0.545   0.346  0.1362 -0.1808 -0.0564
 6947SOL    HW227560   0.809   0.577   0.406 -0.2453 -1.4829  1.1435
 6947SOL    HW327561   0.659   0.562   0.393 -0.2135 -0.6132 -0.5096
 6947SOL    MW427562   0.739   0.552   0.360  0.4352  0.6911  0.4515
 6948SOL     OW27563   1.803   0.759   2.198  0.0653 -0.4727 -0.1638
 6948SOL    HW227564   1.823   0.844   2.237 -0.0265 -0.4109 -0.2512
 6948SOL    HW327565   1.884   0.733   2.153 -0.5035  0.5136 -1.8684
 6948SOL    MW427566   1.817   0.766   2.197 -0.1221 -0.2541 -0.2830
 6949SOL     OW27567   3.268   3.154   3.088  0.2316  0.5198 -0.4165
 6949SOL    HW227568   3.224   3.224   3.041 -1.2175  0.1107  0.2682
 6949SOL    HW327569   3.288   3.088   3.021  1.5719  1.5249 -1.0518
 6949SOL    MW427570   3.265   3.154   3.073  0.6570 -0.2548 -0.2688
 6950SOL     OW27571   1.397   0.636   2.250  0.4386 -0.8660 -0.3082
 6950SOL    HW227572   1.453   0.694   2.301  3.2311 -1.3736 -2.5497
 6950SOL    HW327573   1.426   0.548   2.273  0.7180 -1.1337 -1.6335
 6950SOL    MW427574   1.408   0.632   2.260  0.2515 -1.0671  0.0385
 6951SOL     OW27575   2.469   3.657   5.094 -0.2613  0.5288 -0.1769
 6951SOL    HW227576   2.393   3.626   5.144 -0.2464  1.8123  0.7054
 6951SOL    HW327577   2.479   3.749   5.121  0.8653  0.7290 -1.2001
 6951SOL    MW427578   2.461   3.665   5.104 -0.2451 -0.4684  0.1189
 6952SOL     OW27579   5.901   4.871   4.195  0.1221  0.3353 -0.1118
 6952SOL    HW227580   5.809   4.898   4.190  0.6715  2.3158 -0.6279
 6952SOL    HW327581   5.903   4.786   4.152 -1.7514 -0.6310  1.5440
 6952SOL    MW427582   5.889   4.864   4.189 -0.1741  0.8505  0.0118
 6953SOL     OW27583   0.486   0.559   1.613  0.5851  0.5539  0.0851
 6953SOL    HW227584   0.467   0.502   1.538  1.8594  0.9092 -0.5393
 6953SOL    HW327585   0.401   0.598   1.635  0.3836  1.5125 -2.0803
 6953SOL    MW427586   0.472   0.557   1.606  0.1609 -0.6437 -0.2179
 6954SOL     OW27587   2.833   1.199   6.266 -0.2749  0.3548  0.6177
 6954SOL    HW227588   2.846   1.266   6.333 -1.5828  0.4152  0.8474
 6954SOL    HW327589   2.837   1.116   6.314  0.6635  0.2880  0.4443
 6954SOL    MW427590   2.835   1.197   6.281 -1.3488  0.0509 -0.1777
 6955SOL     OW27591   6.330   0.899   2.100  0.2904 -0.2302 -0.7187
 6955SOL    HW227592   6.310   0.837   2.030  0.6097 -1.2824  0.0829
 6955SOL    HW327593   6.377   0.846   2.165  1.7487  1.1436 -0.5863
 6955SOL    MW427594   6.334   0.884   2.099 -0.1681 -0.3605  0.2441
 6956SOL     OW27595   3.856   5.268   0.294  0.1513  0.3152 -0.2097
 6956SOL    HW227596   3.931   5.272   0.353 -0.8947 -1.0118  1.2777
 6956SOL    HW327597   3.895   5.265   0.206  1.7803  0.6568  0.4631
 6956SOL    MW427598   3.871   5.268   0.290 -0.3390 -0.5088  0.2778
 6957SOL     OW27599   5.974   1.042   4.085  0.0093  0.1241 -0.1524
 6957SOL    HW227600   5.888   1.017   4.053  0.2002 -0.3182 -0.3250
 6957SOL    HW327601   5.995   0.977   4.153 -0.3084  0.9363  0.7455
 6957SOL    MW427602   5.966   1.030   4.090  0.2934  0.7767  0.4307
 6958SOL     OW27603   1.986   2.988   1.282  0.7973  0.5707  0.0243
 6958SOL    HW227604   1.991   2.921   1.350  0.9265  0.9854  0.4266
 6958SOL    HW327605   2.017   2.944   1.203 -0.1418 -0.1530  0.0506
 6958SOL    MW427606   1.991   2.974   1.281  0.3237  0.1964  0.2606
 6959SOL     OW27607   0.926   4.013   4.359  0.0212 -0.8840  0.0405
 6959SOL    HW227608   0.991   3.943   4.350 -1.4158 -2.0804 -1.8032
 6959SOL    HW327609   0.860   3.976   4.417  0.4203 -0.0818  1.0356
 6959SOL    MW427610   0.926   3.999   4.365  0.1722  0.2180 -0.6261
 6960SOL     OW27611   5.774   1.419   4.880  0.0056 -0.3247  0.1411
 6960SOL    HW227612   5.723   1.344   4.910  0.3718 -1.0820 -1.0299
 6960SOL    HW327613   5.825   1.385   4.806 -0.0895  1.1568 -0.6551
 6960SOL    MW427614   5.774   1.404   4.874 -0.8179 -0.6529  0.2343
 6961SOL     OW27615   4.652   4.035   2.532  0.6394  0.6420  0.7189
 6961SOL    HW227616   4.724   3.972   2.536  1.5056  1.5202 -0.2216
 6961SOL    HW327617   4.621   4.028   2.441  2.3345  3.1853 -0.1702
 6961SOL    MW427618   4.658   4.025   2.520 -0.2443  0.2909  0.3414
 6962SOL     OW27619   5.651   1.792   2.551 -0.4464 -0.0992  0.1683
 6962SOL    HW227620   5.743   1.797   2.580 -0.3965 -1.6313  0.3583
 6962SOL    HW327621   5.602   1.828   2.625 -0.0186  0.5827  0.1346
 6962SOL    MW427622   5.657   1.798   2.565 -0.2745 -1.2155  0.0396
 6963SOL     OW27623   3.493   4.346   1.296 -1.2182 -0.3094  0.2849
 6963SOL    HW227624   3.459   4.333   1.207 -0.2963 -3.2933  0.2620
 6963SOL    HW327625   3.415   4.356   1.350 -1.8569 -0.1026 -0.6478
 6963SOL    MW427626   3.478   4.345   1.292  0.3004 -0.0187  0.3241
 6964SOL     OW27627   4.792   4.565   3.171  0.1741  0.0274 -0.2546
 6964SOL    HW227628   4.829   4.647   3.203 -0.4010  1.6833 -3.4253
 6964SOL    HW327629   4.704   4.588   3.143 -1.4042 -2.6001  2.0859
 6964SOL    MW427630   4.786   4.579   3.171 -0.2119  0.7026  0.4156
 6965SOL     OW27631   4.034   4.292   1.946  0.4203 -0.0973  0.5803
 6965SOL    HW227632   4.080   4.215   1.914 -1.1959 -0.3187 -1.3773
 6965SOL    HW327633   4.042   4.357   1.876  0.6063  1.0649  1.6272
 6965SOL    MW427634   4.041   4.291   1.932  0.2728 -0.0073  0.2411
 6966SOL     OW27635   0.301   5.423   3.588 -0.4244  0.2565  0.1503
 6966SOL    HW227636   0.253   5.342   3.603 -0.2586 -0.1829 -1.4957
 6966SOL    HW327637   0.317   5.458   3.676 -0.4237 -1.5309  0.9118
 6966SOL    MW427638   0.297   5.417   3.602  0.4059 -0.1151  0.6730
 6967SOL     OW27639   3.802   6.308   1.073 -0.1862 -0.3587  0.0577
 6967SOL    HW227640   3.717   6.353   1.074 -1.0235 -1.8681  1.2612
 6967SOL    HW327641   3.866   6.378   1.060 -1.6851  0.6039 -3.2795
 6967SOL    MW427642   3.799   6.324   1.071 -0.1984  0.7421  0.4844
 6968SOL     OW27643   5.354   4.228   4.023 -0.2305 -0.0921 -0.1651
 6968SOL    HW227644   5.358   4.266   3.936  0.8642  0.3879  0.0790
 6968SOL    HW327645   5.262   4.239   4.050 -0.6615 -0.5797 -1.3851
 6968SOL    MW427646   5.342   4.235   4.015  0.1820 -0.6503  0.7092
 6969SOL     OW27647   5.726   6.179   1.677 -0.1063  0.5063  0.2806
 6969SOL    HW227648   5.710   6.109   1.614  0.8490 -0.2654  0.8631
 6969SOL    HW327649   5.784   6.240   1.631 -0.2211  0.4642  0.0798
 6969SOL    MW427650   5.732   6.178   1.662  0.2501 -0.2968  0.0350
 6970SOL     OW27651   3.850   4.989   3.350  0.2719 -0.6151  0.0903
 6970SOL    HW227652   3.845   4.893   3.349  1.1608 -0.6689 -1.2776
 6970SOL    HW327653   3.834   5.015   3.259  0.8689  0.4878  0.2903
 6970SOL    MW427654   3.847   4.980   3.338  0.3694 -0.0058  0.9732
 6971SOL     OW27655   3.467   0.622   5.686 -0.1846 -0.0207 -0.2564
 6971SOL    HW227656   3.496   0.621   5.595  1.3498  0.8143  0.1837
 6971SOL    HW327657   3.531   0.677   5.731 -0.1657 -1.4345  1.5725
 6971SOL    MW427658   3.479   0.629   5.680  0.0372 -0.9736  0.2587
 6972SOL     OW27659   1.732   4.782   4.907  0.1487 -0.2507 -0.1550
 6972SOL    HW227660   1.802   4.809   4.967  1.3909 -0.5408 -1.4222
 6972SOL    HW327661   1.773   4.718   4.849 -1.3578 -0.9155 -0.5211
 6972SOL    MW427662   1.747   4.777   4.907 -0.5851 -0.8732  0.0284
 6973SOL     OW27663   4.361   2.308   4.671  0.1206  0.2610 -0.3215
 6973SOL    HW227664   4.405   2.377   4.721 -2.0968  0.4546  1.5100
 6973SOL    HW327665   4.281   2.348   4.639 -0.7912 -1.2073  0.0338
 6973SOL    MW427666   4.356   2.323   4.673  0.0429  0.3300  0.0921
 6974SOL     OW27667   4.942   1.060   5.960  0.4170  0.3114  0.2195
 6974SOL    HW227668   4.909   1.007   5.888 -0.8950  0.7213  0.4740
 6974SOL    HW327669   4.934   1.003   6.037 -1.4122  0.9613  0.5666
 6974SOL    MW427670   4.936   1.046   5.961  0.0732 -0.3457 -0.6854
 6975SOL     OW27671   1.256   0.786   1.462 -0.2243  0.0144 -0.8998
 6975SOL    HW227672   1.243   0.692   1.475 -1.8452  0.3220 -0.0293
 6975SOL    HW327673   1.167   0.821   1.457  0.2430  1.9437  2.1900
 6975SOL    MW427674   1.243   0.778   1.463 -0.1531 -0.4353 -0.0260
 6976SOL     OW27675   4.364   3.244   2.017  0.7163 -0.4353  0.2678
 6976SOL    HW227676   4.387   3.327   1.976  1.8721  0.2520  2.1616
 6976SOL    HW327677   4.396   3.177   1.957 -0.4860  0.4489 -1.4258
 6976SOL    MW427678   4.371   3.246   2.004  0.5474 -0.0488  0.4685
 6977SOL     OW27679   2.613   2.930   6.003  0.3071 -0.2337 -0.6015
 6977SOL    HW227680   2.556   2.970   5.937 -0.6888 -1.2881 -0.4064
 6977SOL    HW327681   2.655   3.005   6.046 -0.1297  0.5264 -1.4546
 6977SOL    MW427682   2.611   2.945   6.000  0.0392  0.6298  0.1505
 6978SOL     OW27683   5.701   5.229   2.303 -0.2097 -0.7539  0.0442
 6978SOL    HW227684   5.727   5.146   2.341  0.9147 -0.2037  0.5211
 6978SOL    HW327685   5.606   5.223   2.295 -0.3810 -1.3323  1.9515
 6978SOL    MW427686   5.692   5.218   2.307  0.0984  0.0951  0.1549
 6979SOL     OW27687   0.970   3.177   6.406  0.3970  0.3102 -0.2410
 6979SOL    HW227688   0.996   3.093   6.445 -1.6535 -0.0283  0.5215
 6979SOL    HW327689   0.953   3.234   6.481 -3.2675 -0.2444 -0.4451
 6979SOL    MW427690   0.971   3.173   6.421  0.3278 -0.1307 -0.1133
 6980SOL     OW27691   4.203   1.654   1.461  0.7403  0.0449 -0.0811
 6980SOL    HW227692   4.274   1.718   1.453  1.7721 -1.1376 -0.7201
 6980SOL    HW327693   4.209   1.602   1.381 -0.4479 -0.4899  0.1631
 6980SOL    MW427694   4.213   1.656   1.449 -0.5087 -0.5748  0.5858
 6981SOL     OW27695   1.019   2.842   1.902 -0.0492  0.3757  0.0554
 6981SOL    HW227696   0.957   2.832   1.830 -0.0564  0.8301 -0.0095
 6981SOL    HW327697   1.101   2.808   1.868 -0.5300 -1.3529  0.5539
 6981SOL    MW427698   1.022   2.836   1.888  0.3511  0.1856  0.2199
 6982SOL     OW27699   3.457   3.992   5.538 -0.0458  0.4759  0.5847
 6982SOL    HW227700   3.395   4.066   5.537  0.1861  0.7128  1.8682
 6982SOL    HW327701   3.511   4.005   5.460 -2.1400 -0.2202 -1.0767
 6982SOL    MW427702   3.456   4.003   5.528  0.3894  0.4839  0.2985
 6983SOL     OW27703   3.260   5.153   3.036  0.0852  0.0197 -0.8664
 6983SOL    HW227704   3.211   5.078   3.070  0.1738 -0.6387 -2.1057
 6983SOL    HW327705   3.350   5.123   3.032  0.4755  0.8969  0.4842
 6983SOL    MW427706   3.265   5.139   3.040 -0.0967  0.2774  0.0244
 6984SOL     OW27707   6.313   0.185   2.393  0.1772 -0.3013 -0.2901
 6984SOL    HW227708   6.356   0.099   2.392 -1.2821 -1.0861  0.4566
 6984SOL    HW327709   6.364   0.237   2.455  1.0472 -0.6360 -0.7096
 6984SOL    MW427710   6.326   0.180   2.401  0.3435 -0.1096  0.2337
 6985SOL     OW27711   6.289   2.616   1.299  0.1215 -0.2273  0.1533
 6985SOL    HW227712   6.351   2.645   1.367  0.1932  1.9103 -0.7311
 6985SOL    HW327713   6.322   2.531   1.271  2.9809  1.0007 -0.5690
 6985SOL    MW427714   6.302   2.609   1.304  0.4569 -0.3202  0.2772
 6986SOL     OW27715   2.312   3.498   6.369 -0.1543  0.6188  0.0311
 6986SOL    HW227716   2.227   3.542   6.360 -0.2991  0.5802  1.1377
 6986SOL    HW327717   2.302   3.441   6.445  0.2307 -0.8845 -0.9832
 6986SOL    MW427718   2.299   3.496   6.378 -0.1781  0.1465  0.4466
 6987SOL     OW27719   1.461   5.845   1.848  0.8886  0.3441  0.0641
 6987SOL    HW227720   1.383   5.805   1.808  1.3725 -0.0904 -0.4585
 6987SOL    HW327721   1.434   5.866   1.937  0.0508  0.5495 -0.2263
 6987SOL    MW427722   1.447   5.843   1.854  0.1550 -0.1236 -0.5988
 6988SOL     OW27723   3.564   4.597   1.052 -0.2168 -0.0516 -0.1505
 6988SOL    HW227724   3.512   4.638   1.121  0.2812  0.5230 -0.1169
 6988SOL    HW327725   3.511   4.521   1.025  0.1249 -1.0094  1.6959
 6988SOL    MW427726   3.550   4.592   1.058  0.4694 -0.2320 -0.4357
 6989SOL     OW27727   0.074   1.122   0.055  0.5782 -0.6587  0.3174
 6989SOL    HW227728   0.086   1.207   0.013  0.5248 -0.2681  1.0811
 6989SOL    HW327729   0.068   1.060  -0.018  1.7839 -0.1717 -0.2132
 6989SOL    MW427730   0.075   1.125   0.040 -0.2979  0.0983 -0.0956
 6990SOL     OW27731   2.910   4.040   1.578 -0.0190 -0.4366  0.0764
 6990SOL    HW227732   2.900   3.993   1.661  1.0330  1.4019  1.3023
 6990SOL    HW327733   2.831   4.094   1.571  0.0489 -0.3426  0.0355
 6990SOL    MW427734   2.898   4.041   1.588  0.1055 -0.3823  0.0431
 6991SOL     OW27735   6.139   1.920   4.963  0.0315 -0.1901 -0.6912
 6991SOL    HW227736   6.229   1.952   4.954 -0.2018  0.7237  0.0912
 6991SOL    HW327737   6.110   1.907   4.873  0.2282  1.6093 -1.0487
 6991SOL    MW427738   6.147   1.922   4.950 -0.3086  0.5609  0.4649
 6992SOL     OW27739   2.288   1.893   2.326 -0.4462  0.4179  0.1911
 6992SOL    HW227740   2.377   1.916   2.299 -0.5443 -2.4054 -3.3906
 6992SOL    HW327741   2.284   1.915   2.419  3.6618  1.4963  0.2947
 6992SOL    MW427742   2.299   1.899   2.335 -0.4982  0.1713  0.8465
 6993SOL     OW27743   5.831   2.056   2.047 -0.0258 -0.2382  0.4134
 6993SOL    HW227744   5.742   2.049   2.013  0.2895 -0.4367 -0.4131
 6993SOL    HW327745   5.840   2.148   2.070 -0.8413 -0.4529  1.6726
 6993SOL    MW427746   5.820   2.067   2.045  0.2123 -0.2011  0.1561
 6994SOL     OW27747   4.834   0.471   4.827 -0.1514  0.1268  0.4054
 6994SOL    HW227748   4.781   0.546   4.854 -0.9744 -0.6498  1.0058
 6994SOL    HW327749   4.770   0.404   4.802  0.5160 -0.8582  1.2182
 6994SOL    MW427750   4.819   0.472   4.828  0.3002 -0.0028 -0.5984
 6995SOL     OW27751   0.537   4.008   5.716 -0.4609  0.4794  0.1208
 6995SOL    HW227752   0.570   4.097   5.711 -0.2186  0.3882  0.0660
 6995SOL    HW327753   0.523   3.993   5.810 -1.5758  0.9543  0.0448
 6995SOL    MW427754   0.540   4.017   5.728  0.4459  0.0297  0.4908
 6996SOL     OW27755   3.391   4.653   2.713 -0.0426 -0.8497  0.1144
 6996SOL    HW227756   3.339   4.650   2.632 -1.7401  1.5940  0.9929
 6996SOL    HW327757   3.480   4.674   2.683 -0.6245 -0.0521 -1.1765
 6996SOL    MW427758   3.396   4.656   2.698 -0.1077  0.1450  0.2162
 6997SOL     OW27759   2.385   0.034   1.664 -0.1467 -0.5595 -0.8395
 6997SOL    HW227760   2.440   0.058   1.589 -0.6031 -0.0283 -1.0088
 6997SOL    HW327761   2.347   0.117   1.694  0.8601 -0.6065  0.6521
 6997SOL    MW427762   2.387   0.048   1.658 -0.2809 -0.1050 -0.3813
 6998SOL     OW27763   0.003   6.070   5.051  1.0581  0.3296  0.9053
 6998SOL    HW227764   0.038   5.987   5.085  0.3392 -0.4598 -0.2291
 6998SOL    HW327765  -0.009   6.055   4.958  0.4478  1.5614  0.7691
 6998SOL    MW427766   0.006   6.057   5.043  0.1087  0.4520 -0.2430
 6999SOL     OW27767   4.119   3.470   5.941 -0.0641  0.0370  0.3711
 6999SOL    HW227768   4.093   3.436   6.027  1.2685 -2.1270 -0.0205
 6999SOL    HW327769   4.127   3.565   5.955  3.2949 -0.4787  3.6520
 6999SOL    MW427770   4.117   3.478   5.954  0.3022 -0.2041 -0.1667
 7000SOL     OW27771   3.028   1.227   5.663  0.1455 -0.2768 -0.2234
 7000SOL    HW227772   3.066   1.219   5.576 -0.7698 -0.7833 -0.5940
 7000SOL    HW327773   2.935   1.206   5.651  0.3830 -2.6240  1.2246
 7000SOL    MW427774   3.021   1.223   5.650 -0.5746  0.2054  0.0777
 7001SOL     OW27775   0.013   6.398   6.067 -0.3407 -0.1235  0.2687
 7001SOL    HW227776  -0.051   6.410   5.996 -1.7888 -1.9797  1.1810
 7001SOL    HW327777  -0.037   6.358   6.138  1.5478 -0.2960  1.5766
 7001SOL    MW427778  -0.002   6.395   6.067  1.1433  0.2143 -0.2281
 7002SOL     OW27779   5.807   5.780   2.147 -0.5692  0.6714 -0.4980
 7002SOL    HW227780   5.720   5.796   2.185 -1.9299 -3.9547 -1.0968
 7002SOL    HW327781   5.797   5.801   2.054 -0.4884  1.7130 -0.2843
 7002SOL    MW427782   5.794   5.785   2.140 -0.3608  0.4151  0.7298
 7003SOL     OW27783   2.365   5.737   1.480  0.6086 -0.1723  0.2371
 7003SOL    HW227784   2.306   5.765   1.549  2.0162  3.1584  0.2813
 7003SOL    HW327785   2.314   5.748   1.399 -0.1354 -1.3688  0.5303
 7003SOL    MW427786   2.350   5.742   1.478  0.3067  0.1867  0.1459
 7004SOL     OW27787   5.541   0.120   0.850 -0.0217  0.0681 -0.0972
 7004SOL    HW227788   5.461   0.135   0.900 -0.4938  0.8251 -1.0313
 7004SOL    HW327789   5.511   0.083   0.767  0.7009 -0.7315 -0.0156
 7004SOL    MW427790   5.526   0.117   0.846 -0.4964  0.6263  0.1500
 7005SOL     OW27791   1.898   1.341   5.449 -0.5016 -0.1930  0.4263
 7005SOL    HW227792   1.977   1.372   5.405  0.4175 -2.0169  0.6736
 7005SOL    HW327793   1.870   1.266   5.397 -1.0192 -0.6651  1.3616
 7005SOL    MW427794   1.905   1.335   5.437 -0.4558  0.1377  0.5821
 7006SOL     OW27795   1.370   0.745   6.300  0.5476 -0.1375 -0.1247
 7006SOL    HW227796   1.365   0.684   6.226  0.6225  1.1690 -1.2391
 7006SOL    HW327797   1.319   0.821   6.272 -0.4684 -0.0836  1.6800
 7006SOL    MW427798   1.362   0.747   6.286 -0.2115  0.0992 -0.0465
 7007SOL     OW27799   1.709   0.935   6.288 -0.1289  0.6279  0.0630
 7007SOL    HW227800   1.657   0.886   6.352  0.2749 -0.3594 -0.3435
 7007SOL    HW327801   1.659   0.927   6.206  0.0034  0.8062 -0.0357
 7007SOL    MW427802   1.695   0.928   6.285 -0.1480 -0.1797 -0.1036
 7008SOL     OW27803   2.353   3.333   6.137 -0.0984 -0.4204  0.5703
 7008SOL    HW227804   2.311   3.249   6.156 -0.1503 -0.1114  1.8709
 7008SOL    HW327805   2.343   3.384   6.217  1.0965  0.3479  0.2525
 7008SOL    MW427806   2.346   3.329   6.150 -0.3055 -0.4997 -0.5839
 7009SOL     OW27807   3.803   4.967   2.974  0.1232 -0.1583 -0.4929
 7009SOL    HW227808   3.791   4.874   2.953  0.5641  0.0076 -1.5514
 7009SOL    HW327809   3.898   4.978   2.974  0.0556  0.6366 -2.0115
 7009SOL    MW427810   3.814   4.956   2.972  0.5206  0.3539 -0.0722
 7010SOL     OW27811   5.472   1.758   4.902 -0.5852 -0.1384 -0.8462
 7010SOL    HW227812   5.468   1.708   4.983  1.3770  0.6169 -0.1967
 7010SOL    HW327813   5.499   1.695   4.835  0.0905 -0.3202 -0.4109
 7010SOL    MW427814   5.475   1.743   4.903  0.2614  0.3399 -0.1471
 7011SOL     OW27815   2.628   5.303   4.482 -0.3212 -0.4031  0.1805
 7011SOL    HW227816   2.661   5.372   4.424  1.5840 -2.3302 -1.1881
 7011SOL    HW327817   2.533   5.307   4.472 -0.3578  2.5719  0.8796
 7011SOL    MW427818   2.620   5.313   4.473 -0.1191 -0.0990  0.3952
 7012SOL     OW27819   1.772   6.087   6.407  0.3489  0.2522  0.2558
 7012SOL    HW227820   1.816   6.046   6.333  0.8688  0.4667  0.4414
 7012SOL    HW327821   1.699   6.028   6.427 -1.5301  1.5442 -2.1832
 7012SOL    MW427822   1.768   6.074   6.400 -0.1527  0.0008 -0.4340
 7013SOL     OW27823   3.223   5.776   1.289 -0.5672  0.0479  0.3575
 7013SOL    HW227824   3.279   5.710   1.331  0.2101  0.9415  0.7637
 7013SOL    HW327825   3.262   5.788   1.202 -0.3100  0.4385  0.5234
 7013SOL    MW427826   3.236   5.769   1.283  0.0574  0.2513 -0.4896
 7014SOL     OW27827   0.757   2.006   0.803 -0.0575 -0.2507 -0.0661
 7014SOL    HW227828   0.797   2.039   0.723  0.5353  0.5018  0.5216
 7014SOL    HW327829   0.751   2.083   0.860  0.6835 -0.9985  1.0712
 7014SOL    MW427830   0.762   2.020   0.800  0.3341 -0.2689  0.0173
 7015SOL     OW27831   3.086   5.028   1.461 -0.1830  0.4927  0.5141
 7015SOL    HW227832   3.172   4.995   1.488 -0.0559  1.7592  1.8103
 7015SOL    HW327833   3.103   5.074   1.379  0.7866  2.2891  1.6590
 7015SOL    MW427834   3.100   5.030   1.453  0.4525  0.4556  0.6972
 7016SOL     OW27835   2.085   2.489   3.731 -0.4771 -0.1291 -0.2643
 7016SOL    HW227836   2.174   2.519   3.750  0.1176 -1.7212 -0.4068
 7016SOL    HW327837   2.032   2.524   3.803  0.0702  1.5699 -0.6351
 7016SOL    MW427838   2.090   2.498   3.743 -0.3018 -0.5311 -0.0993
 7017SOL     OW27839   5.771   1.174   1.839 -0.6121 -0.1082 -0.4619
 7017SOL    HW227840   5.753   1.245   1.778 -1.8486  0.8356  0.9373
 7017SOL    HW327841   5.756   1.212   1.926  0.7063 -1.5083  0.4404
 7017SOL    MW427842   5.767   1.188   1.843 -0.0048  0.5048 -0.3510
 7018SOL     OW27843   2.383   5.526   1.817  0.1879  0.0243  0.3082
 7018SOL    HW227844   2.448   5.590   1.847  0.9099 -1.1605  1.3863
 7018SOL    HW327845   2.332   5.505   1.896 -0.7456  0.0428 -0.2707
 7018SOL    MW427846   2.385   5.532   1.832 -0.2216 -0.3220  0.3524
 7019SOL     OW27847   6.114   0.405   3.324  0.3038  0.0802 -0.1681
 7019SOL    HW227848   6.072   0.446   3.400  5.1391  1.1390  2.3284
 7019SOL    HW327849   6.124   0.477   3.261 -3.0033 -0.6204 -1.6754
 7019SOL    MW427850   6.110   0.420   3.326 -0.3593 -0.7093 -0.6526
 7020SOL     OW27851   5.713   5.556   3.287  0.1276 -0.0617 -0.5260
 7020SOL    HW227852   5.727   5.649   3.272  2.5195  0.0263  1.4983
 7020SOL    HW327853   5.789   5.513   3.248 -0.2340 -1.0069 -0.2310
 7020SOL    MW427854   5.725   5.563   3.280  0.4613 -0.1226  0.1029
 7021SOL     OW27855   4.303   0.439   3.773 -0.1279  1.1146 -0.2516
 7021SOL    HW227856   4.350   0.503   3.828 -0.9159  1.0363  0.5408
 7021SOL    HW327857   4.365   0.367   3.761 -0.1560  0.8372  1.1066
 7021SOL    MW427858   4.317   0.438   3.779  0.4831  0.2354  0.1057
 7022SOL     OW27859   0.017   5.461   3.265  0.1958  0.5891  0.5860
 7022SOL    HW227860   0.096   5.411   3.246 -0.5584 -1.3053  2.1425
 7022SOL    HW327861  -0.054   5.411   3.224 -0.1918  2.8144 -1.7358
 7022SOL    MW427862   0.018   5.448   3.257 -0.2492  0.5352  0.4012
 7023SOL     OW27863   1.069   0.288   4.309 -0.1748  0.2260  0.1558
 7023SOL    HW227864   0.984   0.246   4.299 -0.3250  0.3056  1.0452
 7023SOL    HW327865   1.052   0.364   4.364  0.4058  0.4524  0.0251
 7023SOL    MW427866   1.056   0.292   4.315  0.1876 -0.0829 -0.3253
 7024SOL     OW27867   1.829   5.171   5.683 -0.2921 -0.6667  0.2151
 7024SOL    HW227868   1.869   5.122   5.611  1.1305 -2.9641  2.4006
 7024SOL    HW327869   1.903   5.217   5.724 -0.7124 -0.9399  1.3205
 7024SOL    MW427870   1.844   5.171   5.679 -0.5096 -0.4005  0.4148
 7025SOL     OW27871   3.024   0.993   2.054 -0.1277 -0.5057  0.3087
 7025SOL    HW227872   2.938   0.968   2.088 -0.2984  0.2614  0.4539
 7025SOL    HW327873   3.049   0.920   1.997 -0.4253 -1.1859  1.0434
 7025SOL    MW427874   3.016   0.980   2.051 -0.4157 -0.0276  0.4870
 7026SOL     OW27875   3.553   1.347   1.014 -0.2637 -0.0756 -0.3681
 7026SOL    HW227876   3.649   1.338   1.013 -0.3872 -2.8240  1.1697
 7026SOL    HW327877   3.532   1.390   0.931  2.2253 -0.4883 -1.3002
 7026SOL    MW427878   3.563   1.351   1.003  0.0205 -0.2013  0.0221
 7027SOL     OW27879   4.267   2.269   1.823  0.0260 -0.1193  0.1425
 7027SOL    HW227880   4.323   2.191   1.831 -0.2353 -0.4195 -0.7735
 7027SOL    HW327881   4.235   2.265   1.733 -2.7621 -0.8345  1.0905
 7027SOL    MW427882   4.270   2.258   1.812 -0.0685 -0.3843 -0.1653
 7028SOL     OW27883   2.359   0.047   2.293 -0.0338 -0.2462 -0.1725
 7028SOL    HW227884   2.427   0.102   2.334  0.4801  0.0293 -1.3238
 7028SOL    HW327885   2.402  -0.037   2.279  0.6050  0.3534 -2.2066
 7028SOL    MW427886   2.374   0.043   2.296 -0.2056 -0.3996 -0.8172
 7029SOL     OW27887   0.109   5.253   4.235 -0.1984  0.3130  0.0967
 7029SOL    HW227888   0.140   5.208   4.156  0.5925  0.2221  0.4521
 7029SOL    HW327889   0.038   5.309   4.204 -1.2575 -1.2128 -0.3518
 7029SOL    MW427890   0.104   5.254   4.220 -0.1732 -1.0246 -0.4651
 7030SOL     OW27891   5.754   5.508   1.941  0.0994  0.3387 -0.3928
 7030SOL    HW227892   5.787   5.475   2.024  1.3764 -1.5168 -1.5686
 7030SOL    HW327893   5.669   5.547   1.963  0.5823  0.2744  1.8109
 7030SOL    MW427894   5.747   5.509   1.955 -0.1338  0.7586 -0.0632
 7031SOL     OW27895   2.908   2.034   1.969  0.4382 -0.4590 -0.1130
 7031SOL    HW227896   2.997   1.999   1.964  0.2763 -0.6789 -2.3935
 7031SOL    HW327897   2.880   2.042   1.878 -1.9864 -0.6390  0.5462
 7031SOL    MW427898   2.916   2.030   1.956 -0.5340  0.1751  0.9085
 7032SOL     OW27899   5.031   3.429   5.580  0.0323 -0.3951  0.1328
 7032SOL    HW227900   5.017   3.516   5.617  2.0597 -0.8057  2.0641
 7032SOL    HW327901   5.056   3.374   5.655 -1.0046 -2.6290 -1.0521
 7032SOL    MW427902   5.033   3.433   5.595 -0.0974 -0.6199 -0.5604
 7033SOL     OW27903   6.052   2.679   2.238 -0.1263  0.1292 -0.3603
 7033SOL    HW227904   5.987   2.617   2.270 -0.2731  0.5010  0.0712
 7033SOL    HW327905   6.073   2.649   2.150  0.4155 -1.0236  0.1358
 7033SOL    MW427906   6.047   2.667   2.231  0.3288 -0.5621 -0.1474
 7034SOL     OW27907   5.091   4.567   5.857 -0.3873  0.0393 -0.0350
 7034SOL    HW227908   5.087   4.628   5.783 -0.0843  0.4044  0.2444
 7034SOL    HW327909   5.006   4.574   5.900 -1.7383 -2.3593 -2.0399
 7034SOL    MW427910   5.080   4.576   5.853 -0.6524 -0.5210 -0.5627
 7035SOL     OW27911   5.822   3.907   1.884 -0.1073 -0.6137  0.4127
 7035SOL    HW227912   5.812   3.824   1.838  2.0799  0.4577 -2.2874
 7035SOL    HW327913   5.744   3.958   1.858 -0.0546 -0.8513 -0.2336
 7035SOL    MW427914   5.810   3.903   1.874 -0.7580  0.3938 -0.3997
 7036SOL     OW27915   1.283   2.207   3.759  0.0016  0.0090  0.1292
 7036SOL    HW227916   1.312   2.261   3.686 -0.4691  0.6613  0.4066
 7036SOL    HW327917   1.354   2.211   3.823 -0.0334  0.3123  0.1500
 7036SOL    MW427918   1.296   2.215   3.758  0.8069 -0.5115 -0.0626
 7037SOL     OW27919   4.122   4.983   4.796  0.1919  0.2889  0.1326
 7037SOL    HW227920   4.123   4.921   4.868 -1.5802 -3.7307 -2.9048
 7037SOL    HW327921   4.195   4.956   4.740 -2.7056 -1.7808 -3.0365
 7037SOL    MW427922   4.132   4.971   4.798  0.3369  0.2916 -0.1204
 7038SOL     OW27923   0.680   6.305   1.544  0.1280 -0.0219 -0.4668
 7038SOL    HW227924   0.746   6.278   1.480  1.1320 -0.0187  0.5412
 7038SOL    HW327925   0.715   6.276   1.629 -1.1348  0.0459  0.1008
 7038SOL    MW427926   0.694   6.297   1.547  0.3801  0.4834 -0.1525
 7039SOL     OW27927   5.456   1.150   0.862 -0.0119 -0.5859 -0.2235
 7039SOL    HW227928   5.393   1.183   0.798 -0.9753  1.7046  1.7811
 7039SOL    HW327929   5.406   1.094   0.920  0.1093  0.0216  0.4804
 7039SOL    MW427930   5.441   1.147   0.861 -0.4472  0.2063 -0.0825
 7040SOL     OW27931   6.324   6.176   1.340 -0.5047 -0.0377  0.2097
 7040SOL    HW227932   6.248   6.139   1.385 -1.5575 -0.4815 -1.8293
 7040SOL    HW327933   6.356   6.104   1.286 -0.1781  0.8847 -0.8490
 7040SOL    MW427934   6.318   6.161   1.339  0.3473  0.1541  0.2308
 7041SOL     OW27935   5.833   1.480   1.301 -0.0772  0.0293  0.3251
 7041SOL    HW227936   5.874   1.554   1.256 -1.2518  0.0362 -0.7836
 7041SOL    HW327937   5.821   1.414   1.233  0.2322 -0.8888  1.1390
 7041SOL    MW427938   5.837   1.481   1.287 -0.0384 -0.0509  0.2324
 7042SOL     OW27939   5.158   1.327   4.700 -0.0918 -0.2021 -0.0143
 7042SOL    HW227940   5.206   1.250   4.670 -0.4804 -0.9104  1.1519
 7042SOL    HW327941   5.066   1.302   4.691 -0.2202 -0.5062  1.9111
 7042SOL    MW427942   5.152   1.313   4.695  0.3733 -0.3880  0.2661
 7043SOL     OW27943   3.385   5.021   0.585  0.2646 -0.3375 -0.5026
 7043SOL    HW227944   3.480   5.007   0.591  0.5765  1.6484  0.0351
 7043SOL    HW327945   3.366   5.019   0.492  1.1696  0.9350 -0.7445
 7043SOL    MW427946   3.395   5.019   0.574  0.6242 -0.0620  0.2319
 7044SOL     OW27947   0.553   3.145   5.684 -0.3223  0.2810  0.2668
 7044SOL    HW227948   0.589   3.218   5.633  0.1820  0.0884  0.3446
 7044SOL    HW327949   0.554   3.071   5.624  0.5335 -0.0145  0.6349
 7044SOL    MW427950   0.558   3.145   5.669 -0.2414 -0.0969  0.7812
 7045SOL     OW27951   1.819   4.118   2.119  0.1163 -0.1165 -0.1401
 7045SOL    HW227952   1.900   4.165   2.139  0.8039 -1.1855 -0.3414
 7045SOL    HW327953   1.827   4.035   2.165 -0.1617 -0.8786 -1.4036
 7045SOL    MW427954   1.830   4.113   2.127  0.1112 -0.0227  0.1816
 7046SOL     OW27955   4.599   1.543   2.111 -0.1087 -0.1191  0.4490
 7046SOL    HW227956   4.524   1.567   2.057  0.8130  1.9932 -0.0144
 7046SOL    HW327957   4.646   1.478   2.059 -0.8686 -0.4131  0.1179
 7046SOL    MW427958   4.596   1.538   2.097 -0.8283  0.4475 -0.2666
 7047SOL     OW27959   0.245   3.304   1.852 -0.4232 -0.0449 -0.8871
 7047SOL    HW227960   0.249   3.375   1.788  0.7284  0.1198 -0.6716
 7047SOL    HW327961   0.223   3.347   1.935 -0.0328  0.0242 -0.8165
 7047SOL    MW427962   0.243   3.319   1.855  0.5636  0.2294  0.4975
 7048SOL     OW27963   4.329   3.519   1.959  0.4137  0.3343  0.0670
 7048SOL    HW227964   4.319   3.599   1.907  0.3419  0.6757  0.5984
 7048SOL    HW327965   4.374   3.547   2.038 -0.4877  0.0379  0.7097
 7048SOL    MW427966   4.334   3.533   1.962  0.1628 -0.0861  0.0624
 7049SOL     OW27967   1.286   3.595   1.125 -1.2834  0.4341 -0.7952
 7049SOL    HW227968   1.376   3.621   1.148 -0.5681 -0.8877 -1.9510
 7049SOL    HW327969   1.253   3.551   1.204 -0.7234  0.4803 -0.5308
 7049SOL    MW427970   1.294   3.592   1.139 -0.1974 -0.1578  0.0392
 7050SOL     OW27971   1.947   5.494   0.885  0.5388 -0.1571  0.5190
 7050SOL    HW227972   1.862   5.457   0.909 -0.2023  0.3221 -1.2035
 7050SOL    HW327973   1.985   5.430   0.826  0.6758  0.3353  0.0639
 7050SOL    MW427974   1.941   5.481   0.880 -0.7480  0.3589  0.0760
 7051SOL     OW27975   3.748   2.083   3.846  0.1489 -0.1426 -0.5608
 7051SOL    HW227976   3.691   2.095   3.770  0.2600  0.7079 -0.5254
 7051SOL    HW327977   3.801   2.163   3.849  0.9616 -0.6720 -0.2672
 7051SOL    MW427978   3.748   2.095   3.836 -0.2476  0.0293 -0.3610
 7052SOL     OW27979   0.740   0.330   5.447 -0.0120  0.4255  0.6099
 7052SOL    HW227980   0.818   0.293   5.489 -0.1118 -0.8257 -0.2402
 7052SOL    HW327981   0.750   0.425   5.457  1.2600  0.2576  1.1508
 7052SOL    MW427982   0.752   0.338   5.454  0.5671  0.1029 -0.9875
 7053SOL     OW27983   4.119   6.020   6.176 -0.1783 -0.6934  0.2895
 7053SOL    HW227984   4.195   6.009   6.120  0.4009 -0.5413  1.0338
 7053SOL    HW327985   4.148   5.991   6.263 -0.6656  0.2884  0.7939
 7053SOL    MW427986   4.133   6.014   6.180 -0.6885 -0.5195  0.3693
 7054SOL     OW27987   1.651   0.926   4.353 -0.0636  0.3926 -0.2534
 7054SOL    HW227988   1.722   0.961   4.299  1.2139 -0.4101  0.8315
 7054SOL    HW327989   1.612   0.856   4.300  1.0789 -0.2923 -0.2168
 7054SOL    MW427990   1.655   0.921   4.339 -0.4178  0.0740  0.1393
 7055SOL     OW27991   2.188   3.835   1.470 -0.0059  0.4514 -0.0540
 7055SOL    HW227992   2.188   3.931   1.462  0.4909  0.4415 -0.1524
 7055SOL    HW327993   2.165   3.804   1.383 -1.5042  0.5010  0.2884
 7055SOL    MW427994   2.185   3.844   1.457  0.0835  0.5172 -0.1566
 7056SOL     OW27995   6.110   1.764   1.471 -0.4950  0.4646  0.1454
 7056SOL    HW227996   6.081   1.682   1.510 -0.1951 -0.3885 -1.3607
 7056SOL    HW327997   6.039   1.826   1.490  0.0441  0.3562  2.7841
 7056SOL    MW427998   6.097   1.762   1.478 -0.1840  0.2577 -0.4516
 7057SOL     OW27999   5.793   5.555   1.329 -0.2999  0.4557 -0.2402
 7057SOL    HW228000   5.794   5.626   1.393  0.2160  0.6365 -0.4349
 7057SOL    HW328001   5.720   5.499   1.354  0.2267  0.2277  0.8197
 7057SOL    MW428002   5.784   5.557   1.340 -0.3585 -0.1594  0.4142
 7058SOL     OW28003   2.761   0.975   4.216  0.0338 -0.5362  0.1066
 7058SOL    HW228004   2.680   1.022   4.195 -0.0826 -0.8276 -0.1104
 7058SOL    HW328005   2.752   0.891   4.170  0.2008 -0.7994  0.5496
 7058SOL    MW428006   2.749   0.970   4.207  0.2458 -0.5012 -0.0804
 7059SOL     OW28007   3.459   1.579   4.388  0.3385 -0.0638 -0.2768
 7059SOL    HW228008   3.415   1.501   4.356 -0.1442 -0.3397  1.0050
 7059SOL    HW328009   3.481   1.628   4.309 -1.7836 -0.1715 -0.9996
 7059SOL    MW428010   3.456   1.575   4.373  0.0311 -0.3334  0.4777
 7060SOL     OW28011   2.197   0.236   3.857  0.6005  0.6719 -0.2614
 7060SOL    HW228012   2.200   0.276   3.944  0.2576  2.5686 -1.0477
 7060SOL    HW328013   2.281   0.259   3.818  1.5501 -1.8146  0.1839
 7060SOL    MW428014   2.209   0.245   3.863 -0.0703  0.5073  0.1046
 7061SOL     OW28015   2.089   4.153   1.809  0.1721 -0.2113 -0.1119
 7061SOL    HW228016   2.140   4.141   1.889 -1.3730 -2.1747  0.6862
 7061SOL    HW328017   2.081   4.065   1.773 -2.8619 -0.0965  0.0062
 7061SOL    MW428018   2.094   4.140   1.815  0.2108 -0.1118 -0.1246
 7062SOL     OW28019   1.887   4.515   5.939 -0.0759  0.6219  0.2201
 7062SOL    HW228020   1.930   4.459   6.004 -0.0573 -0.8621 -1.0202
 7062SOL    HW328021   1.813   4.464   5.908 -0.5222  1.6089 -0.4065
 7062SOL    MW428022   1.883   4.501   5.944  0.1034  0.1549  0.6760
 7063SOL     OW28023   1.501   5.983   3.576  0.2682  0.4460  0.2219
 7063SOL    HW228024   1.435   6.047   3.603  1.2816  1.3013  0.7412
 7063SOL    HW328025   1.456   5.899   3.581 -0.4909  0.8978  1.6212
 7063SOL    MW428026   1.487   5.980   3.581  0.7439  0.2058  0.5311
 7064SOL     OW28027   0.739   2.114   2.294  0.4786  0.2659 -0.3647
 7064SOL    HW228028   0.710   2.082   2.380  0.2434 -1.3915 -1.0366
 7064SOL    HW328029   0.742   2.036   2.239 -1.8539  1.5847 -2.5811
 7064SOL    MW428030   0.735   2.100   2.298  0.3135 -0.9162  0.4040
 7065SOL     OW28031   3.841   0.722   2.917 -0.1661 -0.3192 -0.4750
 7065SOL    HW228032   3.864   0.814   2.930  0.6197 -0.2890 -1.8981
 7065SOL    HW328033   3.924   0.678   2.899 -0.4835 -1.3949  0.5738
 7065SOL    MW428034   3.855   0.728   2.916  0.4632  0.4361 -0.3953
 7066SOL     OW28035   0.663   4.225   5.082  0.5047 -0.1245  0.0056
 7066SOL    HW228036   0.638   4.203   5.171  0.7358  0.2536  0.1638
 7066SOL    HW328037   0.644   4.318   5.074 -1.6804 -0.5782 -1.0659
 7066SOL    MW428038   0.657   4.234   5.092 -0.0684  0.0630 -0.1451
 7067SOL     OW28039   1.664   0.253   4.476  0.1663  0.2648 -0.5772
 7067SOL    HW228040   1.623   0.168   4.493  1.4552 -0.4074 -0.6990
 7067SOL    HW328041   1.634   0.309   4.548 -0.3969 -0.4055 -0.2800
 7067SOL    MW428042   1.655   0.249   4.488  0.0559  0.2091  0.4728
 7068SOL     OW28043   1.920   3.010   6.370 -0.2304  0.1219  0.5887
 7068SOL    HW228044   1.923   3.076   6.301 -0.1296 -0.5229 -0.0375
 7068SOL    HW328045   1.993   3.033   6.428  1.1716 -0.6368 -0.7752
 7068SOL    MW428046   1.930   3.022   6.369  0.3606 -0.0562  0.0781
 7069SOL     OW28047   2.373   4.968   4.484 -0.4943  0.5487 -0.2175
 7069SOL    HW228048   2.299   4.942   4.428 -0.9531 -0.6235  0.8816
 7069SOL    HW328049   2.352   4.932   4.570  0.9740  0.9037  0.3218
 7069SOL    MW428050   2.360   4.960   4.488  0.1653 -0.8241  0.0797
 7070SOL     OW28051   4.165   1.433   5.496  0.6097  0.5217 -0.6881
 7070SOL    HW228052   4.092   1.494   5.506  0.2511 -0.0908  0.6999
 7070SOL    HW328053   4.229   1.462   5.561  1.0660  0.3088 -1.0396
 7070SOL    MW428054   4.164   1.445   5.506  0.0159  0.8226 -0.1005
 7071SOL     OW28055   5.642   2.343   3.440 -0.0235 -0.3627 -0.3182
 7071SOL    HW228056   5.686   2.401   3.502  1.2829 -1.7751  0.1442
 7071SOL    HW328057   5.620   2.399   3.366  1.0868  0.7460  0.1475
 7071SOL    MW428058   5.645   2.358   3.438  0.0472  0.0946 -0.0200
 7072SOL     OW28059   5.947   5.876   3.795  0.0534  0.0936 -0.0516
 7072SOL    HW228060   6.014   5.884   3.727  0.5071 -1.8955  0.1004
 7072SOL    HW328061   5.870   5.843   3.749 -0.8692  2.3227 -0.2132
 7072SOL    MW428062   5.946   5.872   3.780 -0.0095  0.6174 -0.2481
 7073SOL     OW28063   2.341   5.419   1.559  0.0079 -0.1811 -0.0218
 7073SOL    HW228064   2.376   5.489   1.613  0.2825 -2.3610  2.8566
 7073SOL    HW328065   2.246   5.428   1.565  0.0027  1.2052 -1.5494
 7073SOL    MW428066   2.333   5.429   1.567 -0.1203  0.2209  0.4301
 7074SOL     OW28067   0.113   2.888   5.897 -0.0133  0.0553 -0.3772
 7074SOL    HW228068   0.054   2.869   5.969  0.0230  0.2495 -0.2973
 7074SOL    HW328069   0.109   2.810   5.841  0.2223 -0.2422  0.0135
 7074SOL    MW428070   0.105   2.875   5.899 -0.2358 -0.1242 -0.5691
 7075SOL     OW28071   3.793   1.166   5.517 -1.0642  0.1742 -0.0078
 7075SOL    HW228072   3.793   1.258   5.541 -2.1208  0.2372 -0.2030
 7075SOL    HW328073   3.806   1.119   5.599  1.3660  0.5084 -0.1276
 7075SOL    MW428074   3.795   1.172   5.531  0.5283  0.3403  0.4249
 7076SOL     OW28075   4.614   6.211   1.400  0.4465  0.2372 -0.1067
 7076SOL    HW228076   4.544   6.168   1.449 -0.4711  0.3361 -1.2879
 7076SOL    HW328077   4.570   6.250   1.324  1.6909  0.8238 -0.5544
 7076SOL    MW428078   4.599   6.210   1.396 -0.1380 -0.3591  0.4209
 7077SOL     OW28079   3.182   3.893   5.163 -0.4056  0.8977 -0.8073
 7077SOL    HW228080   3.199   3.833   5.092 -1.0598  0.9894 -1.0537
 7077SOL    HW328081   3.113   3.851   5.215  0.9640  0.2139  0.5407
 7077SOL    MW428082   3.175   3.880   5.161  0.3245  0.7427  0.0104
 7078SOL     OW28083   1.333   4.441   1.837  0.5397 -0.1639 -0.0020
 7078SOL    HW228084   1.297   4.356   1.865 -3.2018  1.4354  0.7236
 7078SOL    HW328085   1.368   4.424   1.750 -0.8703 -2.3490 -0.2387
 7078SOL    MW428086   1.333   4.428   1.829 -0.1735 -0.3532 -0.0562
 7079SOL     OW28087   4.595   0.106   2.683 -0.2227  0.0718 -0.2199
 7079SOL    HW228088   4.624   0.028   2.637  2.8593  0.2833  1.1006
 7079SOL    HW328089   4.592   0.080   2.775  0.2912  1.2946  0.1731
 7079SOL    MW428090   4.599   0.092   2.689  0.1116  0.0547 -0.0019
 7080SOL     OW28091   2.917   3.243   5.618 -0.0928 -0.2717 -0.3550
 7080SOL    HW228092   3.005   3.247   5.656 -0.3124 -0.2335  0.1643
 7080SOL    HW328093   2.894   3.335   5.602 -1.0015 -0.0403  1.8274
 7080SOL    MW428094   2.926   3.256   5.621 -0.3875 -0.1675 -0.0932
 7081SOL     OW28095   3.916   5.865   4.515  0.0708  0.0658 -0.1437
 7081SOL    HW228096   3.874   5.888   4.432 -0.3466 -2.0035 -0.5731
 7081SOL    HW328097   4.006   5.894   4.506  0.1196 -0.4435 -1.4936
 7081SOL    MW428098   3.922   5.872   4.503  0.8116 -0.5207 -0.2718
 7082SOL     OW28099   1.219   4.540   2.709 -0.3360  0.0721 -0.2450
 7082SOL    HW228100   1.170   4.521   2.788  0.6598  1.1476  0.6632
 7082SOL    HW328101   1.262   4.457   2.687 -0.8223 -0.2978  0.1929
 7082SOL    MW428102   1.218   4.526   2.716 -0.5405  0.1266  0.3590
 7083SOL     OW28103   5.800   0.362   4.512 -0.2728 -0.0629 -0.0004
 7083SOL    HW228104   5.711   0.354   4.546 -0.9780  0.2252 -1.6707
 7083SOL    HW328105   5.849   0.293   4.557 -1.0793  0.3970  1.6641
 7083SOL    MW428106   5.795   0.352   4.522 -0.1395 -0.2863  0.2816
 7084SOL     OW28107   2.551   4.766   2.975  0.0183 -0.2435 -0.0200
 7084SOL    HW228108   2.600   4.686   2.956 -0.5957 -0.9311  1.1645
 7084SOL    HW328109   2.460   4.743   2.960 -0.1551  0.2636  0.2361
 7084SOL    MW428110   2.546   4.752   2.971 -0.5016  0.2882  0.4772
 7085SOL     OW28111   4.466   2.819   1.341  0.0817  0.0080  0.1792
 7085SOL    HW228112   4.389   2.875   1.349 -0.2247 -0.0784 -1.7017
 7085SOL    HW328113   4.454   2.774   1.258  2.2820  0.1797 -0.2893
 7085SOL    MW428114   4.454   2.820   1.331 -0.1558 -0.5104  0.6986
 7086SOL     OW28115   5.406   4.117   2.674 -0.0843  0.2490  0.1469
 7086SOL    HW228116   5.498   4.142   2.685 -0.4058  1.5209  0.1512
 7086SOL    HW328117   5.357   4.186   2.720 -1.0395 -0.3236  0.0137
 7086SOL    MW428118   5.412   4.130   2.682  0.2673 -0.5022  0.2499
 7087SOL     OW28119   0.474   1.281   0.239  0.1470 -0.4871  0.0469
 7087SOL    HW228120   0.470   1.212   0.172  1.9384  0.7021 -1.3923
 7087SOL    HW328121   0.457   1.235   0.321 -2.4679 -1.9548 -1.1877
 7087SOL    MW428122   0.471   1.266   0.241  0.0308 -0.2633 -0.0955
 7088SOL     OW28123   0.225   0.146   2.312  0.4528 -0.0778 -0.0783
 7088SOL    HW228124   0.288   0.115   2.246  0.3333  0.3228 -0.3877
 7088SOL    HW328125   0.184   0.223   2.272 -0.5115 -0.5522 -0.0329
 7088SOL    MW428126   0.228   0.152   2.298 -0.0895 -0.2960 -0.0187
 7089SOL     OW28127   5.043   3.770   2.913 -0.1344  0.3282 -0.7233
 7089SOL    HW228128   4.978   3.828   2.951  0.4291  0.9420 -0.6668
 7089SOL    HW328129   5.081   3.821   2.841  1.0162  0.4148 -0.0839
 7089SOL    MW428130   5.040   3.785   2.908  0.7691 -0.1170  0.4224
 7090SOL     OW28131   1.059   1.757   4.119  0.1329  0.3062 -0.1458
 7090SOL    HW228132   1.067   1.801   4.204 -0.3079  2.8322 -1.2980
 7090SOL    HW328133   0.964   1.752   4.104  0.2088 -0.0578 -0.5238
 7090SOL    MW428134   1.047   1.762   4.129 -0.0508 -0.2018 -0.1079
 7091SOL     OW28135   3.865   5.806   1.032 -0.3281 -0.2007  0.0375
 7091SOL    HW228136   3.932   5.833   0.969 -1.7108  0.2699 -1.3228
 7091SOL    HW328137   3.815   5.886   1.049 -0.6382 -0.5639  0.9203
 7091SOL    MW428138   3.867   5.820   1.026 -0.1602  0.3370  0.6770
 7092SOL     OW28139   4.453   6.345   4.078  0.3971 -0.0048  0.3095
 7092SOL    HW228140   4.424   6.434   4.098  0.6931  0.4299 -1.0834
 7092SOL    HW328141   4.463   6.344   3.983  1.2178 -1.2799  0.3841
 7092SOL    MW428142   4.451   6.357   4.068  0.3045 -0.9939 -0.3857
 7093SOL     OW28143   5.028   5.739   2.996  0.1340  0.4630 -0.4945
 7093SOL    HW228144   5.007   5.656   3.041 -0.8852  0.4220 -1.0154
 7093SOL    HW328145   5.062   5.795   3.066 -0.2735 -0.0081  0.1041
 7093SOL    MW428146   5.030   5.735   3.011 -0.4758  0.1792  0.0652
 7094SOL     OW28147   6.076   0.513   0.979 -0.0778 -0.5197 -0.6039
 7094SOL    HW228148   6.027   0.431   0.977  0.4779 -0.9742  1.6248
 7094SOL    HW328149   6.116   0.515   1.066 -0.4015  2.3220 -0.4217
 7094SOL    MW428150   6.075   0.503   0.990 -0.0483  0.0323 -0.5533
 7095SOL     OW28151   3.952   0.817   2.528 -0.6650 -0.5875  0.2474
 7095SOL    HW228152   3.937   0.724   2.542 -1.8669 -0.5194 -0.4848
 7095SOL    HW328153   3.865   0.857   2.535 -0.5386  0.1592 -1.8601
 7095SOL    MW428154   3.939   0.810   2.531  0.3709 -0.4811  0.4441
 7096SOL     OW28155   5.289   3.357   2.562  0.4439 -0.3314  0.0699
 7096SOL    HW228156   5.260   3.420   2.628 -0.2358 -0.4674 -0.0953
 7096SOL    HW328157   5.262   3.395   2.479 -1.1076 -1.4056  0.0334
 7096SOL    MW428158   5.281   3.370   2.560  0.2061  0.5993  0.2177
 7097SOL     OW28159   3.868   1.022   5.748 -0.2069 -0.4278  0.0213
 7097SOL    HW228160   3.886   0.965   5.673 -0.5487 -0.1385 -0.2860
 7097SOL    HW328161   3.948   1.074   5.758 -0.9470  1.1550 -1.6090
 7097SOL    MW428162   3.881   1.021   5.739  0.0510  0.3653  0.1217
 7098SOL     OW28163   1.729   1.016   3.137  0.3101  0.3691 -0.1184
 7098SOL    HW228164   1.818   1.030   3.168 -0.2435  1.1406  1.2287
 7098SOL    HW328165   1.698   0.940   3.188  0.4399 -0.4134 -1.1646
 7098SOL    MW428166   1.736   1.008   3.148  0.2400 -0.0347 -0.5089
 7099SOL     OW28167   0.933   4.898   4.617  0.5116  0.0431 -0.0129
 7099SOL    HW228168   0.940   4.993   4.607  2.2996  0.0201  0.8112
 7099SOL    HW328169   0.881   4.870   4.541  0.6719  1.5788 -0.7222
 7099SOL    MW428170   0.927   4.906   4.606 -0.3076  0.4959 -0.1114
 7100SOL     OW28171   5.465   3.151   6.152 -0.1227  0.2966 -0.3252
 7100SOL    HW228172   5.515   3.183   6.077  0.7906  0.4941  0.3545
 7100SOL    HW328173   5.490   3.209   6.224  1.4427 -1.7682  0.8996
 7100SOL    MW428174   5.475   3.163   6.152 -0.1342  0.6133 -0.0033
 7101SOL     OW28175   6.229   1.181   0.604  0.0773  0.1468 -0.2941
 7101SOL    HW228176   6.196   1.170   0.693  2.1203  1.6695  0.7408
 7101SOL    HW328177   6.157   1.221   0.557 -0.7279  0.2200  0.9524
 7101SOL    MW428178   6.215   1.185   0.610 -0.2941 -0.0284  0.3429
 7102SOL     OW28179   4.730   5.480   0.625 -0.6254 -0.5697  0.0712
 7102SOL    HW228180   4.715   5.465   0.718  2.1395  0.2691  0.7488
 7102SOL    HW328181   4.682   5.409   0.581 -1.3483 -1.4423  2.1417
 7102SOL    MW428182   4.722   5.469   0.631 -0.0356 -0.3847 -0.0045
 7103SOL     OW28183   4.317   0.748   2.165 -0.2449  0.7436  0.0008
 7103SOL    HW228184   4.228   0.729   2.135  0.2461  0.7371 -1.5661
 7103SOL    HW328185   4.373   0.713   2.096  1.1028 -1.0073  1.8581
 7103SOL    MW428186   4.313   0.741   2.152 -0.1449 -0.2176 -0.5513
 7104SOL     OW28187   4.585   4.648   1.802  0.0578 -0.5530 -0.3766
 7104SOL    HW228188   4.634   4.703   1.863 -0.5181 -0.9631  0.4761
 7104SOL    HW328189   4.612   4.558   1.823  0.2759 -0.6683 -1.1141
 7104SOL    MW428190   4.595   4.643   1.812  0.1265 -0.4859  0.5266
 7105SOL     OW28191   2.954   6.001   5.558  0.2168  0.0019  0.6099
 7105SOL    HW228192   2.954   6.089   5.521 -0.7487  0.1062  0.8545
 7105SOL    HW328193   2.901   5.949   5.498 -0.9750  0.0674  1.5679
 7105SOL    MW428194   2.947   6.005   5.545 -0.6788 -0.1048 -0.1682
 7106SOL     OW28195   6.343   1.141   4.272 -0.0206 -0.2475  0.0267
 7106SOL    HW228196   6.251   1.164   4.288 -0.3348 -1.2165 -0.3301
 7106SOL    HW328197   6.374   1.209   4.212 -1.0035 -0.8545 -1.2202
 7106SOL    MW428198   6.335   1.153   4.266 -0.0436  0.2343 -0.3405
 7107SOL     OW28199   5.424   1.242   5.365  0.5716 -0.1037 -0.1692
 7107SOL    HW228200   5.478   1.312   5.329  1.3963 -0.8904 -0.5222
 7107SOL    HW328201   5.337   1.280   5.372  0.7687  0.6287 -1.3499
 7107SOL    MW428202   5.420   1.256   5.361  0.1718  0.0485 -0.0608
 7108SOL     OW28203   3.360   1.719   1.139  0.1568  0.3013 -0.1121
 7108SOL    HW228204   3.369   1.738   1.045 -1.0411 -0.5017 -0.4078
 7108SOL    HW328205   3.436   1.762   1.179  1.7147 -0.8802 -1.6509
 7108SOL    MW428206   3.372   1.727   1.132  0.0874 -0.0948  0.2561
 7109SOL     OW28207   0.663   0.546   6.084 -0.6378 -0.0835 -0.2336
 7109SOL    HW228208   0.610   0.548   6.164  0.5334 -0.5460  0.5745
 7109SOL    HW328209   0.650   0.459   6.048 -0.0350 -0.3827  0.2525
 7109SOL    MW428210   0.654   0.535   6.090  0.1059 -0.0332  0.1047
 7110SOL     OW28211   0.858   0.591   5.492  0.5645 -0.6448 -0.2114
 7110SOL    HW228212   0.804   0.663   5.460 -1.0019 -0.9326  1.5956
 7110SOL    HW328213   0.922   0.576   5.422  1.4588  2.9560 -0.3515
 7110SOL    MW428214   0.860   0.598   5.478 -0.2085 -0.1271 -0.0671
 7111SOL     OW28215   4.935   4.021   0.761  0.2002  0.8972 -0.1809
 7111SOL    HW228216   4.946   4.086   0.691  1.3349  0.1459 -0.7219
 7111SOL    HW328217   5.016   4.028   0.812  0.7885 -0.7717 -0.8369
 7111SOL    MW428218   4.947   4.031   0.759  0.0963 -0.0240  0.2824
 7112SOL     OW28219   4.186   5.350   0.520  0.2371  0.2845  0.1964
 7112SOL    HW228220   4.178   5.346   0.425 -1.1754 -0.0861  0.3173
 7112SOL    HW328221   4.099   5.373   0.551  0.5635 -0.0713  1.4270
 7112SOL    MW428222   4.174   5.352   0.511 -0.3339  0.5460 -0.1133
 7113SOL     OW28223   3.454   2.154   2.959  0.3362  0.5108 -0.7238
 7113SOL    HW228224   3.455   2.158   3.055  0.7063  0.6244 -0.7316
 7113SOL    HW328225   3.368   2.188   2.935  0.2406  0.4792 -0.4304
 7113SOL    MW428226   3.443   2.159   2.968 -0.3260 -0.4748 -0.0427
 7114SOL     OW28227   1.560   0.490   1.385  0.1108 -0.1317  0.0356
 7114SOL    HW228228   1.555   0.534   1.470  0.2248  0.3085 -0.1816
 7114SOL    HW328229   1.475   0.447   1.375 -1.0340  2.1496 -0.8613
 7114SOL    MW428230   1.548   0.490   1.395  0.1318 -0.3410 -0.2664
 7115SOL     OW28231   1.006   4.583   3.448  0.0274  0.1739  0.0204
 7115SOL    HW228232   1.035   4.664   3.407  3.5580 -0.0316  1.7702
 7115SOL    HW328233   1.023   4.515   3.382  1.5539  0.3471  0.2039
 7115SOL    MW428234   1.012   4.585   3.434 -0.0584  0.2383 -0.1849
 7116SOL     OW28235   2.693   6.416   4.448  0.4565 -0.0116  0.0466
 7116SOL    HW228236   2.787   6.406   4.464  0.2245 -2.7093  0.0757
 7116SOL    HW328237   2.680   6.378   4.361 -0.5659  0.7563 -0.1501
 7116SOL    MW428238   2.704   6.410   4.438  0.4492 -0.6282  0.5232
 7117SOL     OW28239   0.909   3.349   2.986 -0.1708 -0.5135 -0.0185
 7117SOL    HW228240   0.983   3.369   2.929 -0.8010 -0.9577 -1.0319
 7117SOL    HW328241   0.873   3.268   2.949  0.7351 -2.1028  2.3434
 7117SOL    MW428242   0.914   3.341   2.973 -0.1117  0.1858 -0.0360
 7118SOL     OW28243   0.157   0.420   2.180 -0.5859  0.1497  0.0944
 7118SOL    HW228244   0.092   0.491   2.177  0.2426  0.9059 -1.8953
 7118SOL    HW328245   0.240   0.465   2.196 -0.1689 -0.4872 -0.2526
 7118SOL    MW428246   0.159   0.436   2.182  0.0412 -0.4527  0.8844
 7119SOL     OW28247   5.112   0.402   1.045 -0.0154 -0.5162  0.0835
 7119SOL    HW228248   5.054   0.466   1.004  0.6281  0.0447  0.0377
 7119SOL    HW328249   5.169   0.454   1.102  1.1073 -0.9345 -0.6225
 7119SOL    MW428250   5.112   0.417   1.047  0.2398  0.3519 -0.0626
 7120SOL     OW28251   1.161   0.591   3.489 -0.1405  0.4249  0.2283
 7120SOL    HW228252   1.145   0.617   3.580  1.0330 -0.9387  0.8636
 7120SOL    HW328253   1.249   0.554   3.491 -0.3797 -0.2696 -1.3379
 7120SOL    MW428254   1.171   0.590   3.502 -0.0072 -0.2553  0.0892
 7121SOL     OW28255   4.985   0.260   5.862 -0.1246  0.2204 -0.3193
 7121SOL    HW228256   4.934   0.205   5.922  0.0803  0.8667  0.4630
 7121SOL    HW328257   4.972   0.349   5.894  0.5686  0.5053 -0.8132
 7121SOL    MW428258   4.976   0.264   5.874 -0.0954 -0.4388 -0.0384
 7122SOL     OW28259   0.068   4.108   1.337  0.2864 -0.7841 -0.4280
 7122SOL    HW228260  -0.006   4.054   1.310 -0.3962  0.7076 -1.7248
 7122SOL    HW328261   0.141   4.075   1.285  0.0432 -0.9267 -0.6815
 7122SOL    MW428262   0.068   4.097   1.326  0.2140  0.4672  0.8947
 7123SOL     OW28263   3.620   6.306   2.223 -0.0172  0.8161 -0.3501
 7123SOL    HW228264   3.687   6.256   2.175  1.4392  0.8236  1.5594
 7123SOL    HW328265   3.669   6.353   2.291 -1.9306  1.1547  0.8695
 7123SOL    MW428266   3.635   6.306   2.226  0.2647 -0.3708 -0.1694
 7124SOL     OW28267   3.755   1.035   1.869 -0.5357  0.0697 -1.0690
 7124SOL    HW228268   3.848   1.054   1.857 -0.6829  1.8312  0.2709
 7124SOL    HW328269   3.751   0.991   1.955 -0.9609  0.1775 -1.0323
 7124SOL    MW428270   3.767   1.031   1.879 -0.3066  0.6383 -0.4467
 7125SOL     OW28271   5.069   0.048   0.884  0.0053  0.2289 -0.0228
 7125SOL    HW228272   5.080   0.123   0.942 -0.1079 -0.3753  0.7826
 7125SOL    HW328273   4.989   0.068   0.834  1.0159  1.5388 -1.2186
 7125SOL    MW428274   5.060   0.061   0.885  0.4802 -0.1745  0.1698
 7126SOL     OW28275   2.305   0.850   0.910 -0.6395 -0.5161 -0.6247
 7126SOL    HW228276   2.276   0.805   0.830 -0.0375 -0.3321 -0.9478
 7126SOL    HW328277   2.271   0.795   0.981  0.4813 -1.7568 -1.0072
 7126SOL    MW428278   2.296   0.837   0.908  0.5336 -0.0678 -0.0686
 7127SOL     OW28279   4.337   0.126   1.158  0.6158 -0.2879  0.3408
 7127SOL    HW228280   4.313   0.190   1.225 -1.0439 -0.2147 -0.2633
 7127SOL    HW328281   4.300   0.044   1.189  1.9929 -0.8101  0.6872
 7127SOL    MW428282   4.329   0.124   1.171  0.6810 -0.0295  0.1257
 7128SOL     OW28283   4.463   1.368   4.905 -0.6838  0.0852  0.1387
 7128SOL    HW228284   4.552   1.366   4.869  0.0589  0.2713  1.8985
 7128SOL    HW328285   4.440   1.460   4.906 -1.0870  0.0044 -0.7127
 7128SOL    MW428286   4.472   1.380   4.900 -0.1185  0.0366  0.1816
 7129SOL     OW28287   2.086   3.125   1.855  0.3732 -0.4410  0.5423
 7129SOL    HW228288   1.991   3.136   1.853  0.4184  0.4739  1.7612
 7129SOL    HW328289   2.103   3.047   1.803 -1.2713 -1.9886  2.1645
 7129SOL    MW428290   2.076   3.116   1.848  0.3632  0.1505 -0.1302
 7130SOL     OW28291   2.263   1.999   6.084 -0.1891  0.1167 -0.2092
 7130SOL    HW228292   2.190   1.960   6.131 -0.6441  1.0616 -0.0901
 7130SOL    HW328293   2.232   2.006   5.993  0.1403 -0.3931 -0.3653
 7130SOL    MW428294   2.249   1.995   6.078  0.3732  0.3362  0.4159
 7131SOL     OW28295   1.332   0.011   0.680 -0.3402  0.9390 -0.5319
 7131SOL    HW228296   1.266  -0.039   0.632 -1.0337  1.4396 -0.1323
 7131SOL    HW328297   1.407   0.014   0.621  0.0249 -1.2120 -0.2497
 7131SOL    MW428298   1.333   0.005   0.666  0.2258 -0.4235  1.0570
 7132SOL     OW28299   2.255   0.858   6.132 -0.0681 -0.1834  0.6442
 7132SOL    HW228300   2.166   0.837   6.104 -0.1514  0.6172  0.2764
 7132SOL    HW328301   2.258   0.834   6.224 -0.3446 -1.1853  0.4016
 7132SOL    MW428302   2.244   0.852   6.141  0.1528  0.5531  0.1299
 7133SOL     OW28303   3.302   1.333   1.931 -0.1403 -0.3696  0.4592
 7133SOL    HW228304   3.347   1.382   2.000 -0.3785 -0.5530  0.7449
 7133SOL    HW328305   3.367   1.325   1.861  0.7416 -1.7837  1.3836
 7133SOL    MW428306   3.317   1.339   1.931 -0.3258  0.2829  0.5525
 7134SOL     OW28307   3.647   4.701   2.624 -0.5283 -0.0704  0.2218
 7134SOL    HW228308   3.627   4.665   2.537  0.3521 -0.7582  0.2924
 7134SOL    HW328309   3.703   4.636   2.665  0.4600  1.0257  0.6636
 7134SOL    MW428310   3.652   4.688   2.618 -0.0892 -0.0606  0.5805
 7135SOL     OW28311   4.953   4.783   4.072 -0.8651 -0.0425  0.2809
 7135SOL    HW228312   5.032   4.836   4.076 -0.6995 -0.1117 -1.4358
 7135SOL    HW328313   4.955   4.731   4.153  2.0203 -1.6968 -0.7089
 7135SOL    MW428314   4.963   4.783   4.083 -0.3817 -0.0952  0.7111
 7136SOL     OW28315   6.006   1.283   0.469 -0.4354  0.0457 -0.1882
 7136SOL    HW228316   6.019   1.360   0.524  0.9479 -0.6628  0.5260
 7136SOL    HW328317   6.055   1.301   0.389 -2.3730  1.0372 -1.2223
 7136SOL    MW428318   6.014   1.295   0.466  0.1424  0.1159 -0.2580
 7137SOL     OW28319   1.784   4.728   3.860 -0.0324  0.6093  0.1223
 7137SOL    HW228320   1.810   4.761   3.774 -0.2618  0.8783  0.1567
 7137SOL    HW328321   1.825   4.641   3.865  1.9999  1.5218  0.7112
 7137SOL    MW428322   1.793   4.721   3.850 -0.4154 -0.0186 -0.3406
 7138SOL     OW28323   3.382   3.688   0.863  0.0706  0.7165  0.1707
 7138SOL    HW228324   3.344   3.628   0.927 -0.1700  0.5639 -0.1098
 7138SOL    HW328325   3.475   3.666   0.861 -0.4519 -1.8949 -2.2506
 7138SOL    MW428326   3.389   3.677   0.871 -0.7194  0.3943 -0.0144
 7139SOL     OW28327   4.402   0.220   4.333 -0.6618 -0.0072  0.0147
 7139SOL    HW228328   4.440   0.141   4.371 -0.4496  0.4499  0.7674
 7139SOL    HW328329   4.471   0.254   4.276 -0.8838 -0.5526 -0.5848
 7139SOL    MW428330   4.416   0.214   4.330  0.0801  0.1012  0.3455
 7140SOL     OW28331   3.259   3.994   4.713 -0.2425  0.0525  0.0486
 7140SOL    HW228332   3.333   3.984   4.652  0.7289  2.8756  0.6399
 7140SOL    HW328333   3.293   3.963   4.797 -0.8323 -1.6559 -0.3059
 7140SOL    MW428334   3.273   3.988   4.716 -0.1433  0.3698 -0.2687
 7141SOL     OW28335   3.726   0.249   3.099 -0.0739 -0.1496 -0.0785
 7141SOL    HW228336   3.668   0.261   3.024 -1.4800  1.2442  1.1784
 7141SOL    HW328337   3.728   0.154   3.112 -2.8273 -0.2386  0.3405
 7141SOL    MW428338   3.719   0.238   3.091  0.2668 -0.4816  0.4005
 7142SOL     OW28339   5.860   2.173   3.321  0.3952 -0.4556  0.7012
 7142SOL    HW228340   5.801   2.230   3.372  0.1413 -0.6653  0.6448
 7142SOL    HW328341   5.926   2.144   3.384 -0.3463 -1.3163  1.0989
 7142SOL    MW428342   5.861   2.177   3.336  0.1643 -0.5433  0.0913
 7143SOL     OW28343   1.914   2.612   3.935 -0.8127  0.3232  0.3902
 7143SOL    HW228344   1.832   2.638   3.976 -0.9175  0.4332  0.1169
 7143SOL    HW328345   1.942   2.534   3.982 -0.9493  0.4278  0.6426
 7143SOL    MW428346   1.907   2.605   3.946  0.4742 -0.6914 -0.0379
 7144SOL     OW28347   4.523   0.757   5.085  0.0645 -0.0962 -0.6022
 7144SOL    HW228348   4.432   0.729   5.076  0.1256 -0.5386  0.1316
 7144SOL    HW328349   4.529   0.795   5.173  0.6311 -0.2284 -0.5782
 7144SOL    MW428350   4.512   0.759   5.095 -0.2728  0.1754  0.4785
 7145SOL     OW28351   5.143   5.576   1.983 -0.0573 -0.1570  0.5596
 7145SOL    HW228352   5.207   5.645   2.000  0.3797 -0.5583  0.5514
 7145SOL    HW328353   5.195   5.498   1.965 -0.2735  0.5119 -4.4201
 7145SOL    MW428354   5.158   5.575   1.983  0.3745  0.0324  1.1235
 7146SOL     OW28355   6.270   6.329   2.087 -0.1653 -0.8265 -0.0169
 7146SOL    HW228356   6.180   6.354   2.067 -0.9050 -2.5898  0.9677
 7146SOL    HW328357   6.315   6.334   2.002 -1.1858  0.0333 -0.5276
 7146SOL    MW428358   6.264   6.333   2.073  0.0372  0.1194  0.3718
 7147SOL     OW28359   2.949   0.770   1.422  0.5284  0.3739 -0.4980
 7147SOL    HW228360   2.924   0.843   1.365  0.7991  0.5852 -0.3470
 7147SOL    HW328361   2.941   0.804   1.511 -0.0482 -0.0048 -0.3990
 7147SOL    MW428362   2.945   0.784   1.426 -0.4830  0.2404  0.0772
 7148SOL     OW28363   0.423   0.931   3.955  0.4451 -0.3319  0.1376
 7148SOL    HW228364   0.342   0.890   3.986  0.5150 -0.4403  0.1791
 7148SOL    HW328365   0.397   0.984   3.880  0.4193 -0.7913 -0.1861
 7148SOL    MW428366   0.409   0.932   3.949 -0.2413  0.1908  0.1777
 7149SOL     OW28367   5.090   1.132   2.302  0.1399  0.3474 -0.0078
 7149SOL    HW228368   5.011   1.160   2.347  1.0108  1.0384  1.1600
 7149SOL    HW328369   5.147   1.098   2.372  1.1694  0.5613 -0.7068
 7149SOL    MW428370   5.087   1.131   2.317  0.2406 -0.1987 -0.2078
 7150SOL     OW28371   5.870   6.106   1.912 -0.1994  0.3574  0.0925
 7150SOL    HW228372   5.809   6.119   1.840  0.2353  0.1307 -0.3159
 7150SOL    HW328373   5.954   6.087   1.871 -0.1080 -0.5309  0.6429
 7150SOL    MW428374   5.873   6.105   1.897 -0.0956  0.1865 -0.0696
 7151SOL     OW28375   5.185   1.633   0.240 -0.5252 -0.2610  0.4131
 7151SOL    HW228376   5.152   1.543   0.245 -2.6219  0.3291 -1.2563
 7151SOL    HW328377   5.264   1.627   0.186 -2.7566 -0.7360 -3.1086
 7151SOL    MW428378   5.191   1.621   0.234 -0.1793  0.2098 -0.0944
 7152SOL     OW28379   1.939   2.535   1.684  0.8446  0.3448 -0.0256
 7152SOL    HW228380   1.980   2.459   1.643  0.9970  0.1667  0.4488
 7152SOL    HW328381   1.959   2.607   1.625 -0.4068 -0.1887 -1.1753
 7152SOL    MW428382   1.947   2.534   1.671 -0.1790 -0.1830 -0.2639
 7153SOL     OW28383   3.749   3.581   3.429 -0.1637  0.7309  0.3078
 7153SOL    HW228384   3.771   3.527   3.505  0.4829 -1.8678 -1.6057
 7153SOL    HW328385   3.656   3.566   3.415  0.4264 -1.7385 -1.4781
 7153SOL    MW428386   3.740   3.572   3.437 -0.5349  0.0640  0.0710
 7154SOL     OW28387   5.612   6.171   6.044  0.2217 -0.6547  0.5008
 7154SOL    HW228388   5.605   6.119   6.124  1.0085  0.6061  1.4254
 7154SOL    HW328389   5.529   6.220   6.040 -1.0580 -2.7758 -1.0221
 7154SOL    MW428390   5.600   6.171   6.054 -0.4799  0.3155 -0.2476
 7155SOL     OW28391   1.665   2.748   0.196  0.2428 -0.1032  0.1346
 7155SOL    HW228392   1.654   2.689   0.122  0.5627 -1.1368  0.8995
 7155SOL    HW328393   1.654   2.836   0.159  0.8042 -0.5873 -1.2003
 7155SOL    MW428394   1.662   2.752   0.182  0.3765  0.3865  0.3992
 7156SOL     OW28395   3.173   3.150   6.376  0.2586  0.0702 -0.3333
 7156SOL    HW228396   3.171   3.076   6.316 -0.1786 -0.1177 -0.0906
 7156SOL    HW328397   3.159   3.227   6.320 -1.6589 -0.2123 -0.3151
 7156SOL    MW428398   3.171   3.151   6.361  0.1835 -0.4491 -0.0726
 7157SOL     OW28399   0.820   5.882   2.228 -0.3030 -0.6148 -0.4153
 7157SOL    HW228400   0.847   5.972   2.210  0.9587 -1.0587 -0.8786
 7157SOL    HW328401   0.724   5.887   2.235 -0.2997  0.6806 -0.8723
 7157SOL    MW428402   0.811   5.895   2.226  0.5779  0.1081 -0.0237
 7158SOL     OW28403   1.129   1.411   5.779 -0.0923  0.4117 -0.2613
 7158SOL    HW228404   1.044   1.430   5.740 -0.6034 -0.1357  0.5755
 7158SOL    HW328405   1.119   1.433   5.871  0.4244 -0.4362 -0.0006
 7158SOL    MW428406   1.117   1.417   5.786 -0.0992  0.4986 -0.4638
 7159SOL     OW28407   1.306   0.768   1.784 -0.0913 -1.0787  0.6795
 7159SOL    HW228408   1.214   0.747   1.774 -0.2309 -0.4150  0.5204
 7159SOL    HW328409   1.338   0.706   1.851 -0.5935 -1.4471  0.5836
 7159SOL    MW428410   1.298   0.757   1.792 -0.1426  0.1456 -0.0654
 7160SOL     OW28411   1.503   1.832   0.044  0.3492 -0.0801 -0.7434
 7160SOL    HW228412   1.493   1.839   0.139  2.6159  3.1747 -0.5703
 7160SOL    HW328413   1.518   1.739   0.028 -1.0394 -0.8671  1.9176
 7160SOL    MW428414   1.503   1.821   0.054  0.1301  0.4529  0.9031
 7161SOL     OW28415   2.482   6.255   2.156  0.2694  0.3723 -0.4201
 7161SOL    HW228416   2.432   6.283   2.079  0.3432  2.8040  0.3184
 7161SOL    HW328417   2.570   6.290   2.142  0.4904  0.1750  0.4002
 7161SOL    MW428418   2.487   6.264   2.144  0.6121 -0.6238 -0.2620
 7162SOL     OW28419   6.401   3.714   1.425 -0.4842  0.4159 -0.0817
 7162SOL    HW228420   6.395   3.770   1.348 -0.6693 -0.1675 -0.4939
 7162SOL    HW328421   6.376   3.627   1.394 -0.2471  0.1111  0.5626
 7162SOL    MW428422   6.397   3.710   1.411 -0.1507  0.1360 -0.0452
 7163SOL     OW28423   5.697   1.985   3.156 -0.2015 -0.5735 -0.1351
 7163SOL    HW228424   5.696   2.061   3.099 -1.1106 -1.0580 -0.8035
 7163SOL    HW328425   5.742   2.014   3.235  0.0620  0.4454 -0.6472
 7163SOL    MW428426   5.703   1.999   3.159  0.3919  0.3424  0.8369
 7164SOL     OW28427   3.308   0.822   0.085 -0.1010  0.6620  0.6294
 7164SOL    HW228428   3.323   0.730   0.103  0.7990  0.4727 -0.8724
 7164SOL    HW328429   3.222   0.841   0.121 -0.4221 -0.8357  0.6788
 7164SOL    MW428430   3.299   0.813   0.092  0.1798  0.3518 -0.7218
 7165SOL     OW28431   5.119   6.000   3.679  0.5673 -0.0418 -0.6497
 7165SOL    HW228432   5.098   6.072   3.739  4.3715  1.0166 -0.3281
 7165SOL    HW328433   5.105   6.037   3.592 -1.3008 -0.3333 -0.5281
 7165SOL    MW428434   5.114   6.015   3.676 -0.5511 -0.1755 -0.0925
 7166SOL     OW28435   3.049   5.457   2.013  0.0380  0.3489 -0.1305
 7166SOL    HW228436   3.072   5.540   1.971  0.7760  0.0934 -0.2548
 7166SOL    HW328437   3.134   5.415   2.030 -0.3240 -0.3617 -0.0430
 7166SOL    MW428438   3.063   5.463   2.009  0.4748 -0.7659  0.6285
 7167SOL     OW28439   4.748   1.981   5.272 -0.0461  0.1566  0.5062
 7167SOL    HW228440   4.726   2.025   5.189  0.0888 -0.2067  0.2760
 7167SOL    HW328441   4.670   1.932   5.295  0.7569 -1.8167 -0.7509
 7167SOL    MW428442   4.735   1.980   5.264 -0.4927  0.2314 -0.0102
 7168SOL     OW28443   3.815   4.723   2.088  0.2813 -0.4444  0.3459
 7168SOL    HW228444   3.724   4.711   2.064  0.1083 -2.0259  1.6398
 7168SOL    HW328445   3.839   4.809   2.051 -0.9725 -1.0800 -2.1103
 7168SOL    MW428446   3.806   4.733   2.080 -0.3848  0.3251  0.3817
 7169SOL     OW28447   2.380   2.427   2.471 -0.0857 -0.6750  0.3071
 7169SOL    HW228448   2.314   2.385   2.415 -1.0710 -0.2672  1.1428
 7169SOL    HW328449   2.437   2.473   2.409 -0.4306 -1.2328 -0.4494
 7169SOL    MW428450   2.379   2.427   2.455  0.4363 -0.7247 -0.1835
 7170SOL     OW28451   5.636   4.792   1.678 -0.0329  0.5065  0.5879
 7170SOL    HW228452   5.546   4.763   1.694  0.4389 -0.1980  2.1106
 7170SOL    HW328453   5.686   4.759   1.752  1.6603  0.1548 -0.6406
 7170SOL    MW428454   5.631   4.784   1.690 -0.0572  0.7212  0.2075
 7171SOL     OW28455   5.939   3.297   2.504  0.0733  0.0866  0.8519
 7171SOL    HW228456   5.944   3.360   2.576 -1.2037  3.2776 -1.5946
 7171SOL    HW328457   5.855   3.316   2.463  0.5051 -1.9881 -1.1371
 7171SOL    MW428458   5.929   3.308   2.508 -0.1127 -0.0487 -0.1886
 7172SOL     OW28459   4.840   4.279   5.138  0.1373 -0.0954 -0.9969
 7172SOL    HW228460   4.850   4.200   5.085 -1.0488 -0.6419 -0.4453
 7172SOL    HW328461   4.766   4.326   5.098  0.1845  0.2328 -0.7070
 7172SOL    MW428462   4.832   4.275   5.125 -0.1705  0.6464 -0.0236
 7173SOL     OW28463   5.420   3.006   5.223  0.3494  0.0364 -0.2346
 7173SOL    HW228464   5.469   2.924   5.228 -0.6264 -0.6300 -1.1399
 7173SOL    HW328465   5.431   3.047   5.309 -0.0560 -1.5729  0.6197
 7173SOL    MW428466   5.428   3.001   5.235 -0.6997  0.2732  0.6443
 7174SOL     OW28467   1.437   2.760   6.014  0.2746  0.0777 -0.1167
 7174SOL    HW228468   1.466   2.682   6.061 -0.0646 -1.7527 -2.7676
 7174SOL    HW328469   1.344   2.768   6.034  0.1676 -0.5917 -0.3415
 7174SOL    MW428470   1.429   2.751   6.023 -0.4817  0.4274  0.4893
 7175SOL     OW28471   3.892   5.629   1.247 -0.0311  0.0773 -0.4205
 7175SOL    HW228472   3.877   5.692   1.176  1.3018 -0.1181 -0.9100
 7175SOL    HW328473   3.936   5.555   1.204  1.2738  0.1782  0.6790
 7175SOL    MW428474   3.896   5.627   1.232 -0.8832  0.0482  0.8492
 7176SOL     OW28475   5.003   5.354   2.487 -0.0441 -0.1170 -0.6156
 7176SOL    HW228476   5.025   5.344   2.580  0.8072  1.0330 -0.6620
 7176SOL    HW328477   4.923   5.407   2.487  0.4793  0.6917 -0.5377
 7176SOL    MW428478   4.996   5.360   2.499 -0.1474  0.4140 -0.1267
 7177SOL     OW28479   4.597   5.066   0.681 -0.0638  0.5130  0.0483
 7177SOL    HW228480   4.531   5.085   0.747 -1.3415  0.7253 -1.2473
 7177SOL    HW328481   4.548   5.058   0.599  1.5979  1.4499 -1.0953
 7177SOL    MW428482   4.582   5.068   0.679 -0.0966  0.0988 -0.1874
 7178SOL     OW28483   4.732   5.195   5.202  0.2226  0.2686 -0.2830
 7178SOL    HW228484   4.646   5.153   5.206 -0.0442  0.4060 -2.7979
 7178SOL    HW328485   4.790   5.128   5.166  0.2364  1.3352 -2.3957
 7178SOL    MW428486   4.728   5.181   5.198  0.2109 -0.5304  0.0088
 7179SOL     OW28487   6.130   1.400   1.816 -0.4430  0.1246 -0.3441
 7179SOL    HW228488   6.134   1.305   1.808  0.5242 -0.0310  1.4376
 7179SOL    HW328489   6.213   1.424   1.857 -0.2397  1.8663 -1.6494
 7179SOL    MW428490   6.141   1.391   1.820  0.0646  0.0415 -0.1284
 7180SOL     OW28491   5.125   2.101   1.524  0.1421  0.0431  0.0868
 7180SOL    HW228492   5.149   2.101   1.431 -0.7769  1.1333 -0.1780
 7180SOL    HW328493   5.198   2.145   1.567 -0.4828  1.7648 -0.4811
 7180SOL    MW428494   5.137   2.107   1.517  0.6653  0.1739 -0.0540
 7181SOL     OW28495   3.839   3.756   0.720 -0.3894 -0.1755  0.0005
 7181SOL    HW228496   3.935   3.754   0.721 -0.3993 -0.6427  0.4392
 7181SOL    HW328497   3.818   3.849   0.712  0.0978 -0.1583 -1.3742
 7181SOL    MW428498   3.849   3.768   0.719  0.2155 -0.1038  0.2784
 7182SOL     OW28499   2.479   1.941   1.883  0.3426 -0.2531 -0.1127
 7182SOL    HW228500   2.499   1.860   1.930 -1.1037  0.0842  1.1781
 7182SOL    HW328501   2.528   2.009   1.930  0.8426 -0.2398 -0.6394
 7182SOL    MW428502   2.488   1.940   1.896  0.0414  0.2835  0.1448
 7183SOL     OW28503   2.410   6.094   3.521 -0.4717 -0.3527 -0.0029
 7183SOL    HW228504   2.487   6.047   3.551 -1.0664 -0.4152  1.5063
 7183SOL    HW328505   2.432   6.187   3.534 -1.5079 -0.4007  2.8949
 7183SOL    MW428506   2.423   6.100   3.526 -0.0012  0.1375 -0.4781
 7184SOL     OW28507   4.736   4.384   2.758  0.0777 -0.2837  0.2240
 7184SOL    HW228508   4.744   4.334   2.676 -1.1744  0.6336 -0.4955
 7184SOL    HW328509   4.684   4.328   2.815 -1.4693  0.2153 -0.6398
 7184SOL    MW428510   4.730   4.370   2.755  0.8873 -0.2426  0.1942
 7185SOL     OW28511   6.419   3.149   5.741  0.4244 -0.3406 -0.1204
 7185SOL    HW228512   6.376   3.225   5.779  1.3124 -0.0859  0.3925
 7185SOL    HW328513   6.506   3.148   5.780  0.6793 -1.2009 -0.6762
 7185SOL    MW428514   6.425   3.159   5.751 -0.5866 -0.7106  0.6874
 7186SOL     OW28515   0.984   6.006   3.872 -0.6564  0.0224 -0.3237
 7186SOL    HW228516   0.940   5.991   3.788 -0.2830  2.6105 -1.0654
 7186SOL    HW328517   1.062   5.951   3.868  0.0122  1.0165 -2.2648
 7186SOL    MW428518   0.988   5.997   3.861  0.5376  0.5857 -0.1151
 7187SOL     OW28519   6.423   3.723   0.754  0.5335 -0.2225 -0.7285
 7187SOL    HW228520   6.368   3.795   0.723 -0.4960 -0.4505  0.4363
 7187SOL    HW328521   6.396   3.647   0.702 -0.0056 -0.2401 -0.4396
 7187SOL    MW428522   6.412   3.722   0.743 -0.2428  0.4785  0.2469
 7188SOL     OW28523   0.548   4.689   3.767  0.6033  0.1561  0.2524
 7188SOL    HW228524   0.549   4.754   3.696  2.2072  1.0727  1.0579
 7188SOL    HW328525   0.613   4.624   3.741 -0.2578 -0.6009 -0.0552
 7188SOL    MW428526   0.557   4.689   3.754 -0.6425 -0.3231  0.2337
 7189SOL     OW28527   0.571   5.202   4.014 -0.3261  0.3784 -0.2516
 7189SOL    HW228528   0.664   5.185   4.003 -0.3632  0.5742 -0.9280
 7189SOL    HW328529   0.541   5.230   3.927 -0.4726  2.9075  0.5419
 7189SOL    MW428530   0.579   5.204   4.001 -0.1743 -0.1466  0.6156
 7190SOL     OW28531   3.400   1.530   2.147  0.2123  0.8816  0.0528
 7190SOL    HW228532   3.373   1.495   2.232  0.6268 -0.3867 -0.3075
 7190SOL    HW328533   3.327   1.584   2.118 -2.1588 -2.5719 -0.9748
 7190SOL    MW428534   3.387   1.532   2.154 -0.5938  0.0753  0.2394
 7191SOL     OW28535   2.977   2.456   5.324 -0.0283 -0.4787 -0.0185
 7191SOL    HW228536   2.988   2.499   5.409 -0.2354  1.1923 -0.7937
 7191SOL    HW328537   3.066   2.454   5.287 -0.2290  0.6939 -0.6094
 7191SOL    MW428538   2.990   2.461   5.330 -0.7368 -0.0787 -0.1545
 7192SOL     OW28539   2.175   1.490   3.966 -0.5874 -0.0844  0.7285
 7192SOL    HW228540   2.126   1.412   3.988 -0.3906 -0.2242  0.6720
 7192SOL    HW328541   2.183   1.487   3.870  2.0534 -1.6043  0.9064
 7192SOL    MW428542   2.170   1.480   3.956  0.3475 -0.0566 -0.3036
 7193SOL     OW28543   0.765   0.060   5.831  0.0014  0.1805  0.1073
 7193SOL    HW228544   0.718   0.138   5.861 -0.8703 -0.8223  1.4500
 7193SOL    HW328545   0.819   0.034   5.906  0.6395 -0.2552 -0.4882
 7193SOL    MW428546   0.766   0.067   5.845 -0.3366 -0.0849  0.2071
 7194SOL     OW28547   0.090   4.583   3.066 -0.1802 -0.2924  0.4163
 7194SOL    HW228548   0.133   4.547   3.144 -1.4349  0.1480  1.3355
 7194SOL    HW328549   0.007   4.617   3.098 -0.2297  0.9342 -0.9216
 7194SOL    MW428550   0.085   4.582   3.080 -0.9669 -0.0021 -0.3746
 7195SOL     OW28551   0.581   0.847   0.441 -0.0389  0.0938 -0.6079
 7195SOL    HW228552   0.603   0.809   0.526  1.3267 -0.8895 -1.3729
 7195SOL    HW328553   0.622   0.933   0.442 -0.9394  0.5317  0.1249
 7195SOL    MW428554   0.589   0.853   0.453  0.3149 -0.2658  0.2420
 7196SOL     OW28555   0.653   3.441   1.720  0.2170 -0.1395 -0.2019
 7196SOL    HW228556   0.645   3.504   1.648 -0.3090 -0.1569 -0.1672
 7196SOL    HW328557   0.567   3.443   1.762  0.6109  0.1043  0.6220
 7196SOL    MW428558   0.640   3.450   1.716 -0.3372  0.1413  0.2931
 7197SOL     OW28559   2.919   0.126   1.527 -0.1891  0.3499 -0.1242
 7197SOL    HW228560   2.977   0.169   1.590  0.4350 -0.5297 -0.0825
 7197SOL    HW328561   2.951   0.036   1.522 -0.6440  0.2295 -1.1997
 7197SOL    MW428562   2.931   0.120   1.535 -0.1061 -0.0749 -0.6398
 7198SOL     OW28563   3.608   2.941   0.947  0.0635  0.4970 -0.5647
 7198SOL    HW228564   3.625   2.854   0.985 -0.4985 -0.4425 -2.3639
 7198SOL    HW328565   3.537   2.977   1.000  1.2157  0.4953  1.0771
 7198SOL    MW428566   3.601   2.934   0.959  0.0778  0.4396 -0.0845
 7199SOL     OW28567   3.426   0.942   5.597 -0.0453 -0.2266  0.3948
 7199SOL    HW228568   3.381   0.939   5.513 -2.1914  0.7961  1.4314
 7199SOL    HW328569   3.451   1.034   5.607  1.3564 -0.5768  0.3362
 7199SOL    MW428570   3.423   0.954   5.587 -0.0468 -0.4026 -0.3368
 7200SOL     OW28571   6.101   0.463   3.964 -0.2934 -0.0579 -0.3765
 7200SOL    HW228572   6.011   0.443   3.991 -0.6911 -0.0567 -1.6135
 7200SOL    HW328573   6.117   0.404   3.890  1.5219 -1.6184  1.1628
 7200SOL    MW428574   6.091   0.452   3.958 -0.0999  0.0431  0.2369
 7201SOL     OW28575   1.896   4.061   3.804  0.1620 -0.2512 -0.1146
 7201SOL    HW228576   1.862   3.993   3.745 -1.2770  1.1168 -0.9202
 7201SOL    HW328577   1.895   4.020   3.890 -0.7105 -1.2509 -0.5688
 7201SOL    MW428578   1.891   4.046   3.807  0.2005 -0.0273 -0.0837
 7202SOL     OW28579   4.058   1.953   5.196  0.0385 -0.6949  0.0644
 7202SOL    HW228580   4.026   2.023   5.139  0.0601 -1.0733 -0.4210
 7202SOL    HW328581   4.052   1.989   5.285  1.9057  0.6390 -0.2994
 7202SOL    MW428582   4.053   1.967   5.200 -0.4669  0.6831  0.2713
 7203SOL     OW28583   0.336   5.175   5.980 -0.6318 -0.2963 -0.0828
 7203SOL    HW228584   0.385   5.217   5.909 -2.2085 -0.0672 -1.0784
 7203SOL    HW328585   0.385   5.198   6.059 -0.2887  1.7066 -0.8085
 7203SOL    MW428586   0.349   5.184   5.981  0.5307  0.1227 -0.2223
 7204SOL     OW28587   5.185   6.292   0.683  0.2527  0.1072  0.6458
 7204SOL    HW228588   5.160   6.324   0.769 -0.3742  0.2336  0.4259
 7204SOL    HW328589   5.186   6.197   0.692 -0.2084  0.1031  0.6965
 7204SOL    MW428590   5.182   6.284   0.695  0.0575  0.3580 -0.6385
 7205SOL     OW28591   4.092   1.224   5.827 -0.1216 -0.5647 -0.0573
 7205SOL    HW228592   4.051   1.310   5.815  2.0496  0.2729 -2.3843
 7205SOL    HW328593   4.095   1.212   5.922 -0.5881  1.8621  0.3366
 7205SOL    MW428594   4.087   1.234   5.838 -0.3599  0.1885 -0.4269
 7206SOL     OW28595   0.073   5.244   2.756  0.0125 -0.2192  0.1922
 7206SOL    HW228596   0.062   5.170   2.697  2.5782 -0.8422  0.3674
 7206SOL    HW328597  -0.009   5.293   2.749 -1.5722 -2.7644 -0.3065
 7206SOL    MW428598   0.061   5.241   2.748  0.0885  0.0051  0.4184
 7207SOL     OW28599   4.701   3.906   1.556 -0.3027  0.1285  0.0924
 7207SOL    HW228600   4.724   3.964   1.628  0.9472 -0.5577  0.2734
 7207SOL    HW328601   4.730   3.953   1.477  2.5467 -1.0057  0.3541
 7207SOL    MW428602   4.708   3.920   1.555 -0.1751  0.1638 -0.6472
 7208SOL     OW28603   2.209   2.576   3.353  0.0264  0.4277  0.1914
 7208SOL    HW228604   2.116   2.596   3.351  0.5292  3.0527 -0.8117
 7208SOL    HW328605   2.235   2.571   3.261  1.1346  1.1540  0.4497
 7208SOL    MW428606   2.200   2.578   3.341  0.0275 -0.2247 -0.0442
 7209SOL     OW28607   6.271   2.133   3.491 -0.4822 -0.1128 -0.1790
 7209SOL    HW228608   6.175   2.131   3.495 -0.6292 -2.4160 -2.3697
 7209SOL    HW328609   6.299   2.072   3.559 -0.7420 -1.2690 -1.0635
 7209SOL    MW428610   6.262   2.125   3.501  0.2523 -0.5346  0.2022
 7210SOL     OW28611   0.168   3.538   6.145 -0.5199 -0.5731 -0.5082
 7210SOL    HW228612   0.223   3.616   6.138 -2.1141  0.5286 -1.6274
 7210SOL    HW328613   0.217   3.469   6.101 -0.2004  0.4965 -1.9003
 7210SOL    MW428614   0.182   3.540   6.138  0.1180 -0.3820 -0.2630
 7211SOL     OW28615   5.195   2.337   3.466  0.7857 -0.0659  0.3521
 7211SOL    HW228616   5.141   2.357   3.390  2.4583 -0.1364 -0.9224
 7211SOL    HW328617   5.229   2.249   3.449  0.9366 -0.2074  1.3330
 7211SOL    MW428618   5.193   2.328   3.454 -0.5876  0.1168  0.1668
 7212SOL     OW28619   1.233   5.945   4.627  0.2610  0.6163 -0.3418
 7212SOL    HW228620   1.275   6.027   4.601 -1.9149  2.3504  1.1567
 7212SOL    HW328621   1.241   5.888   4.551 -0.1145  3.0509 -2.3328
 7212SOL    MW428622   1.240   5.949   4.614 -0.1047  0.8039  0.1156
 7213SOL     OW28623   5.944   3.233   5.559 -0.2502 -0.2686 -0.8718
 7213SOL    HW228624   5.891   3.216   5.637 -1.0394  0.3866 -1.2478
 7213SOL    HW328625   5.881   3.232   5.487  0.2233  0.6738 -1.3156
 7213SOL    MW428626   5.929   3.230   5.559 -0.0140  0.3809  0.6799
 7214SOL     OW28627   0.674   4.158   0.954 -0.2658 -0.1712 -0.2432
 7214SOL    HW228628   0.698   4.142   1.045 -0.9096 -1.3359 -0.2608
 7214SOL    HW328629   0.682   4.073   0.911  1.6238  0.6721 -1.6759
 7214SOL    MW428630   0.678   4.144   0.961  0.2723  0.0046  0.6947
 7215SOL     OW28631   3.427   3.544  -0.001 -0.4274  0.1120  0.4057
 7215SOL    HW228632   3.372   3.611   0.040 -0.3245 -0.6749  1.9077
 7215SOL    HW328633   3.487   3.593  -0.057 -1.1067  1.1682  0.5755
 7215SOL    MW428634   3.428   3.559  -0.003  0.0021  0.6217 -0.2316
 7216SOL     OW28635   2.148   6.253   0.673  0.1039 -0.7108 -0.4485
 7216SOL    HW228636   2.209   6.301   0.619 -0.3858 -0.5238 -0.8434
 7216SOL    HW328637   2.196   6.234   0.753 -0.4234  2.5162  0.7612
 7216SOL    MW428638   2.162   6.257   0.676  0.3262 -0.4472  0.0782
 7217SOL     OW28639   4.282   2.806   0.783 -0.2716 -0.0615 -0.2471
 7217SOL    HW228640   4.270   2.812   0.688  0.5234  1.5782 -0.2890
 7217SOL    HW328641   4.197   2.780   0.817 -0.6955 -0.2024 -1.3786
 7217SOL    MW428642   4.269   2.804   0.775 -0.2625 -0.1075 -0.5203
 7218SOL     OW28643   3.303   2.451   4.850  0.1329 -0.0112 -0.0166
 7218SOL    HW228644   3.218   2.440   4.894  0.1344 -0.1630 -0.0491
 7218SOL    HW328645   3.352   2.509   4.907 -0.0856  0.2817 -0.1253
 7218SOL    MW428646   3.298   2.457   4.864 -0.1439  0.1961  0.3240
 7219SOL     OW28647   5.333   5.489   1.115  0.1926  0.5091  0.3826
 7219SOL    HW228648   5.312   5.397   1.095  1.9290  0.4901 -1.6696
 7219SOL    HW328649   5.271   5.540   1.063 -0.6452  0.5407  1.3753
 7219SOL    MW428650   5.322   5.483   1.105  0.3466  0.2190 -0.3356
 7220SOL     OW28651   2.387   1.718   6.360 -0.1889 -0.6765 -0.1614
 7220SOL    HW228652   2.379   1.813   6.350 -1.5960 -0.5839  1.3971
 7220SOL    HW328653   2.476   1.698   6.332  0.8210  1.3812  1.3675
 7220SOL    MW428654   2.398   1.728   6.355  0.1510 -0.0577 -0.0978
 7221SOL     OW28655   0.883   5.165   5.211 -0.3052  0.0472 -0.1166
 7221SOL    HW228656   0.927   5.136   5.291 -2.7222  2.1508  2.1915
 7221SOL    HW328657   0.819   5.097   5.193  2.2361 -1.9927 -2.2810
 7221SOL    MW428658   0.881   5.152   5.220 -0.1517  0.3434 -0.7851
 7222SOL     OW28659   5.366   0.658   3.439 -0.2557 -0.0217 -0.2955
 7222SOL    HW228660   5.403   0.726   3.383 -1.8992  0.5639 -0.7087
 7222SOL    HW328661   5.272   0.673   3.436 -0.5062 -1.1559  1.1332
 7222SOL    MW428662   5.359   0.669   3.431  0.3042 -0.2113 -0.6095
 7223SOL     OW28663   4.370   4.782   1.498 -0.2471 -0.3526 -0.2116
 7223SOL    HW228664   4.451   4.794   1.548 -2.7035  4.2726  3.4750
 7223SOL    HW328665   4.384   4.832   1.417  1.1998 -1.5116 -0.7224
 7223SOL    MW428666   4.383   4.790   1.494 -0.4963  0.0759 -0.4419
 7224SOL     OW28667   3.971   4.981   4.556 -0.4579  0.4176 -0.1768
 7224SOL    HW228668   4.016   4.986   4.641  1.5705  1.6243 -1.2209
 7224SOL    HW328669   3.880   4.964   4.578  0.3266 -1.4673  2.1440
 7224SOL    MW428670   3.965   4.979   4.570 -0.0300  0.3188 -0.5936
 7225SOL     OW28671   5.758   2.931   0.148  0.1866 -0.3296 -0.0653
 7225SOL    HW228672   5.720   2.887   0.072 -0.2852 -0.4265  0.2232
 7225SOL    HW328673   5.742   3.024   0.133  1.8264 -0.1741 -1.0304
 7225SOL    MW428674   5.751   2.937   0.136 -0.0702  0.4740  0.2686
 7226SOL     OW28675   4.628   5.076   5.847 -0.1587  0.1881  0.1577
 7226SOL    HW228676   4.534   5.060   5.856 -0.1777  0.0310 -0.3133
 7226SOL    HW328677   4.634   5.170   5.830 -0.2138  0.2453  0.4530
 7226SOL    MW428678   4.616   5.087   5.846  0.5893  0.8351 -0.0336
 7227SOL     OW28679   0.218   3.639   0.463 -0.0595 -0.3183 -0.0432
 7227SOL    HW228680   0.138   3.591   0.484  0.9314 -2.0707 -0.0286
 7227SOL    HW328681   0.212   3.720   0.513 -2.6708  0.5087 -1.5033
 7227SOL    MW428682   0.207   3.643   0.472  0.4135  0.0511  0.6013
 7228SOL     OW28683   5.171   2.571   6.271 -0.3228  0.8349 -0.2889
 7228SOL    HW228684   5.099   2.508   6.265 -0.9396  1.3858  0.8350
 7228SOL    HW328685   5.216   2.547   6.353  0.0048  1.2669 -0.3405
 7228SOL    MW428686   5.168   2.560   6.281 -0.2661 -0.0446 -0.1477
 7229SOL     OW28687   2.318   5.118   3.277  0.4658 -0.6883 -0.5641
 7229SOL    HW228688   2.342   5.055   3.344 -0.2623  0.2188  0.5780
 7229SOL    HW328689   2.315   5.067   3.196  0.2106 -2.0480  0.2765
 7229SOL    MW428690   2.321   5.103   3.275  0.3660  0.3498 -0.3933
 7230SOL     OW28691   0.931   5.884   2.461 -0.1935 -0.6891 -0.2807
 7230SOL    HW228692   0.925   5.793   2.492 -2.2263 -0.7549 -0.7035
 7230SOL    HW328693   0.887   5.883   2.376  0.8564  0.4828 -0.8678
 7230SOL    MW428694   0.924   5.872   2.454 -0.3066 -0.2072  0.3786
 7231SOL     OW28695   6.325   0.743   5.956 -0.3741 -0.0508 -0.5724
 7231SOL    HW228696   6.255   0.808   5.953  0.9501  1.5245  0.8002
 7231SOL    HW328697   6.280   0.660   5.975 -1.7694  1.1332  1.6716
 7231SOL    MW428698   6.310   0.740   5.958 -0.0577  0.1279  0.0020
 7232SOL     OW28699   5.210   1.505   1.472  0.2798  0.1566  0.3398
 7232SOL    HW228700   5.119   1.476   1.470  0.2590  0.1884 -2.4732
 7232SOL    HW328701   5.205   1.600   1.483  0.0108  0.0967  0.7530
 7232SOL    MW428702   5.197   1.514   1.473 -0.0955  0.1005 -0.5993
 7233SOL     OW28703   1.430   5.284   4.182 -0.0410 -0.0829  0.0925
 7233SOL    HW228704   1.394   5.200   4.211 -1.0317  1.0510  2.4018
 7233SOL    HW328705   1.390   5.349   4.240  1.6524  1.8750 -0.7867
 7233SOL    MW428706   1.420   5.282   4.193  0.5097 -0.1283 -0.4157
 7234SOL     OW28707   4.619   6.166   5.853  0.3415 -0.3986  0.1245
 7234SOL    HW228708   4.707   6.199   5.835 -0.2187  0.8683 -0.4201
 7234SOL    HW328709   4.597   6.201   5.939  0.9060 -1.9248  0.9227
 7234SOL    MW428710   4.628   6.175   5.862 -0.1741  0.5614  0.0989
 7235SOL     OW28711   1.270   1.709   4.442 -0.2429  0.5224 -0.1379
 7235SOL    HW228712   1.327   1.656   4.496  0.3630  2.3664  1.1308
 7235SOL    HW328713   1.323   1.731   4.365  0.7250  1.9464  0.8755
 7235SOL    MW428714   1.284   1.705   4.439 -0.6755  0.0353  0.3307
 7236SOL     OW28715   5.866   2.256   4.580  0.7457  0.5688 -0.2106
 7236SOL    HW228716   5.834   2.166   4.578 -1.0001  1.0783  1.6339
 7236SOL    HW328717   5.902   2.270   4.492  0.2792 -1.6189 -0.8265
 7236SOL    MW428718   5.867   2.246   4.568  0.0322  0.4110 -0.0632
 7237SOL     OW28719   2.719   6.277   0.921  0.8296  0.3910  0.4986
 7237SOL    HW228720   2.722   6.363   0.878 -0.5542 -0.7985 -2.2087
 7237SOL    HW328721   2.628   6.249   0.911  0.9301 -0.8546  2.5568
 7237SOL    MW428722   2.707   6.285   0.914  0.0803  0.4923  0.0533
 7238SOL     OW28723   0.555   3.898   0.353 -0.7052 -0.0675  0.1698
 7238SOL    HW228724   0.574   3.942   0.270 -1.4020 -0.1914 -0.0640
 7238SOL    HW328725   0.482   3.839   0.333 -0.3229 -0.7327  0.6705
 7238SOL    MW428726   0.547   3.896   0.339 -0.5110  0.4491  0.0174
 7239SOL     OW28727   4.985   5.858   5.198 -0.4725  0.6243 -0.2321
 7239SOL    HW228728   4.892   5.880   5.192 -0.6062  0.1390  0.0562
 7239SOL    HW328729   4.992   5.796   5.270  0.0714  0.6216 -0.2756
 7239SOL    MW428730   4.974   5.853   5.206 -0.0630 -0.3271 -0.3317
 7240SOL     OW28731   4.612   3.553   0.118 -0.3424  0.0045  0.1602
 7240SOL    HW228732   4.693   3.521   0.158  0.3444  2.3466  0.8013
 7240SOL    HW328733   4.641   3.619   0.055 -1.6656 -0.7170 -1.2823
 7240SOL    MW428734   4.626   3.557   0.115  0.5640  0.0418  0.7989
 7241SOL     OW28735   2.963   3.885   6.403  0.2305 -0.6880 -0.1174
 7241SOL    HW228736   2.915   3.818   6.453  0.7018 -1.1837 -0.3169
 7241SOL    HW328737   2.957   3.855   6.312  1.1345 -0.9047 -0.1191
 7241SOL    MW428738   2.956   3.872   6.397  0.3947  0.0072 -0.4706
 7242SOL     OW28739   1.703   3.689   2.078  0.4120 -0.3487  0.2401
 7242SOL    HW228740   1.705   3.715   1.986 -0.4600 -2.1598 -0.3435
 7242SOL    HW328741   1.615   3.714   2.107  0.5682 -0.0850  0.4857
 7242SOL    MW428742   1.692   3.696   2.070 -1.0101  0.3902 -0.6215
 7243SOL     OW28743   2.286   0.558   4.477  0.0753  0.4958  0.3488
 7243SOL    HW228744   2.211   0.539   4.421  0.9722 -0.2727 -0.6192
 7243SOL    HW328745   2.317   0.472   4.505  0.0997  0.8425  1.4354
 7243SOL    MW428746   2.280   0.544   4.474 -0.3765  0.2611 -0.1122
 7244SOL     OW28747   3.186   3.484   5.666 -0.1374 -0.3146  0.2898
 7244SOL    HW228748   3.163   3.413   5.726  2.6617  0.5812  2.6134
 7244SOL    HW328749   3.169   3.564   5.716  2.2633  0.4600 -0.0340
 7244SOL    MW428750   3.181   3.485   5.680 -0.1106  0.4755  0.7636
 7245SOL     OW28751   2.366   1.550   4.159  0.0745  0.4954 -0.4930
 7245SOL    HW228752   2.300   1.533   4.092 -0.7749 -2.3302  0.9163
 7245SOL    HW328753   2.328   1.619   4.213 -1.0404 -0.0231 -0.5941
 7245SOL    MW428754   2.353   1.557   4.157 -0.3519 -0.0240 -0.3607
 7246SOL     OW28755   1.140   2.784   5.995 -0.2468 -0.2265  0.1657
 7246SOL    HW228756   1.114   2.784   6.087 -0.2772 -2.0128  0.2056
 7246SOL    HW328757   1.135   2.692   5.969  3.5369 -0.3764 -0.5699
 7246SOL    MW428758   1.136   2.772   6.004 -0.1826  0.1798  0.1287
 7247SOL     OW28759   4.840   4.657   2.352  0.1688  0.4988 -0.0348
 7247SOL    HW228760   4.854   4.706   2.271 -1.4215  3.3455  1.2326
 7247SOL    HW328761   4.768   4.598   2.333  0.0360  0.8997 -0.8039
 7247SOL    MW428762   4.832   4.656   2.339 -0.0621  0.2932  0.0649
 7248SOL     OW28763   0.681   5.343   2.960 -0.2429  0.1591  0.9377
 7248SOL    HW228764   0.586   5.353   2.952 -0.3903  1.1080  3.1625
 7248SOL    HW328765   0.717   5.400   2.892 -1.2253 -0.3866 -0.0809
 7248SOL    MW428766   0.674   5.352   2.950  0.6400  0.1802 -0.1054
 7249SOL     OW28767   4.120   4.946   1.563 -0.0806 -0.0516  0.1352
 7249SOL    HW228768   4.121   5.029   1.515 -0.0227  0.2355  0.6255
 7249SOL    HW328769   4.212   4.920   1.568  0.3714  1.6188  2.9525
 7249SOL    MW428770   4.133   4.954   1.557 -0.3787 -0.2983  0.2958
 7250SOL     OW28771   0.797   5.682   5.746  0.4477  0.4803 -0.2792
 7250SOL    HW228772   0.758   5.678   5.658  1.3053 -1.3123 -0.6284
 7250SOL    HW328773   0.730   5.643   5.803  0.5517  0.0973 -0.4148
 7250SOL    MW428774   0.783   5.676   5.742  0.4010 -0.6186 -0.1397
 7251SOL     OW28775   4.789   0.325   2.059 -0.3092 -0.1414 -0.0352
 7251SOL    HW228776   4.861   0.262   2.065 -0.6804 -0.6733 -0.9383
 7251SOL    HW328777   4.715   0.275   2.025 -1.0171  0.4754  0.5477
 7251SOL    MW428778   4.789   0.310   2.055 -0.4665  0.2658 -0.2439
 7252SOL     OW28779   0.038   1.832   1.592  0.0965  0.0978 -0.4353
 7252SOL    HW228780   0.093   1.882   1.531 -0.0416 -0.7788 -1.2797
 7252SOL    HW328781  -0.048   1.872   1.584 -0.0185 -0.2757 -1.1229
 7252SOL    MW428782   0.034   1.844   1.583  0.3326 -0.0367 -0.0871
 7253SOL     OW28783   2.099   3.598   0.310 -0.5606 -0.1176  0.0723
 7253SOL    HW228784   2.069   3.683   0.277  2.1878  1.1120  0.4634
 7253SOL    HW328785   2.054   3.588   0.394 -0.5380  1.1989  0.2689
 7253SOL    MW428786   2.089   3.608   0.317 -0.3085 -0.3058  0.6804
 7254SOL     OW28787   4.529   2.392   2.762  0.2619 -0.4510  0.5167
 7254SOL    HW228788   4.599   2.355   2.707  0.4542 -1.3539  1.3457
 7254SOL    HW328789   4.522   2.482   2.733  1.1443 -0.6019 -0.2247
 7254SOL    MW428790   4.538   2.399   2.751  0.4492  0.3447 -0.1236
 7255SOL     OW28791   1.459   0.440   6.372  0.1857 -0.2503 -0.6456
 7255SOL    HW228792   1.377   0.410   6.335 -0.6433  1.8505 -0.6510
 7255SOL    HW328793   1.509   0.472   6.297  0.7197 -0.8342 -0.5505
 7255SOL    MW428794   1.455   0.440   6.357 -0.2589  0.5349 -0.7070
 7256SOL     OW28795   4.130   2.181   4.036  0.2488  0.4695  0.1777
 7256SOL    HW228796   4.172   2.134   3.964  0.5371  0.1853  0.5245
 7256SOL    HW328797   4.187   2.256   4.052  1.5037 -0.7214  1.6482
 7256SOL    MW428798   4.143   2.185   4.029 -0.1102 -0.1374  0.4889
 7257SOL     OW28799   6.297   1.661   6.034 -0.1811  0.0032  0.7127
 7257SOL    HW228800   6.301   1.587   6.095 -0.3050 -0.1809  0.5015
 7257SOL    HW328801   6.219   1.643   5.981 -0.4250  0.4797  0.9049
 7257SOL    MW428802   6.287   1.649   6.035 -0.8647 -0.3967 -0.0598
 7258SOL     OW28803   1.608   0.504   4.935  0.1044  0.1797  0.7059
 7258SOL    HW228804   1.659   0.571   4.980  0.4270 -0.1253  0.8033
 7258SOL    HW328805   1.517   0.526   4.954  0.2280  0.2167  1.2776
 7258SOL    MW428806   1.603   0.516   4.943  0.0181 -0.1586  0.2557
 7259SOL     OW28807   3.023   0.362   1.112 -0.5966 -0.0722 -0.1475
 7259SOL    HW228808   2.947   0.382   1.057 -0.1711  1.3655 -0.2484
 7259SOL    HW328809   3.017   0.425   1.184 -0.0685 -0.6557  0.4157
 7259SOL    MW428810   3.012   0.373   1.115  0.1257  0.4251 -0.3525
 7260SOL     OW28811   1.013   3.405   3.243 -0.5146  0.5370 -0.0320
 7260SOL    HW228812   0.938   3.407   3.302 -1.1391  1.9610 -0.8296
 7260SOL    HW328813   0.975   3.408   3.155  0.4249 -0.8398 -0.5325
 7260SOL    MW428814   0.998   3.405   3.239  0.0364  0.0722 -0.0717
 7261SOL     OW28815   2.711   4.511   2.999 -0.2738  0.0187  0.1947
 7261SOL    HW228816   2.742   4.466   2.920  0.0506 -0.9345  0.8525
 7261SOL    HW328817   2.685   4.440   3.058  5.1941  0.2044  3.4339
 7261SOL    MW428818   2.712   4.496   2.996  0.4069  0.2059  0.3883
 7262SOL     OW28819   2.626   5.648   2.885  0.2510 -0.0624  0.4391
 7262SOL    HW228820   2.537   5.616   2.900 -0.0657  0.7952  0.4061
 7262SOL    HW328821   2.682   5.573   2.908 -0.5052 -1.0057 -0.6657
 7262SOL    MW428822   2.622   5.634   2.890 -0.3884  0.2437 -0.3786
 7263SOL     OW28823   3.788   2.746   1.783  0.6339 -0.3528  0.1756
 7263SOL    HW228824   3.704   2.702   1.794 -1.3991  3.3640  1.0160
 7263SOL    HW328825   3.787   2.777   1.693  0.9300  0.0474  0.3085
 7263SOL    MW428826   3.777   2.744   1.773 -0.2491 -0.0914  0.4473
 7264SOL     OW28827   2.150   3.817   6.254  0.0495 -0.0367  0.2171
 7264SOL    HW228828   2.101   3.771   6.323 -0.1058  1.7989  1.4100
 7264SOL    HW328829   2.089   3.884   6.223  1.2327  1.2609  0.6086
 7264SOL    MW428830   2.135   3.819   6.259 -0.1244 -0.1430  0.9827
 7265SOL     OW28831   5.170   2.847   1.412  0.0424  0.2181  0.1676
 7265SOL    HW228832   5.134   2.932   1.435  0.9162  0.2360  1.6426
 7265SOL    HW328833   5.188   2.805   1.497 -0.2050 -1.3637 -0.5212
 7265SOL    MW428834   5.168   2.852   1.426 -0.2052  0.2940 -0.1004
 7266SOL     OW28835   0.708   3.239   6.275  0.0140  0.3554  0.0041
 7266SOL    HW228836   0.798   3.223   6.305 -0.3439 -0.2085  0.8020
 7266SOL    HW328837   0.684   3.160   6.228 -0.4078  0.0965  0.6447
 7266SOL    MW428838   0.717   3.227   6.273 -0.6529 -0.2521  0.1204
 7267SOL     OW28839   6.196   2.589   5.720 -0.0086  0.0869  0.5223
 7267SOL    HW228840   6.261   2.610   5.652  0.1115 -1.1773  0.2078
 7267SOL    HW328841   6.171   2.498   5.701 -1.8190  0.5122  0.6856
 7267SOL    MW428842   6.201   2.580   5.708  0.6700  0.6560 -0.1090
 7268SOL     OW28843   0.765   4.062   1.996  0.2727  0.1795  0.0195
 7268SOL    HW228844   0.695   4.110   1.950  0.2995 -2.4224 -3.0808
 7268SOL    HW328845   0.720   3.995   2.046  0.4558  0.1182  0.1034
 7268SOL    MW428846   0.750   4.060   1.996 -0.0658 -0.3772 -0.3050
 7269SOL     OW28847   1.955   4.104   5.960 -0.0429  0.1921  0.5553
 7269SOL    HW228848   1.862   4.093   5.943 -0.0796  1.2238  0.0157
 7269SOL    HW328849   1.998   4.045   5.899 -0.3283  0.1610  0.3842
 7269SOL    MW428850   1.949   4.095   5.950 -0.3465  0.7571 -0.3071
 7270SOL     OW28851   4.623   2.705   4.974 -0.3570  0.4397  0.3221
 7270SOL    HW228852   4.541   2.754   4.973  0.2113  1.4248 -1.3517
 7270SOL    HW328853   4.649   2.704   5.066 -1.1963  1.9333  0.6075
 7270SOL    MW428854   4.616   2.711   4.986  0.3206 -0.5425 -0.2671
 7271SOL     OW28855   5.771   4.874   5.663  0.5011 -0.4478  0.2890
 7271SOL    HW228856   5.771   4.831   5.748 -1.1589 -0.0684  0.5244
 7271SOL    HW328857   5.826   4.951   5.675  2.8666 -2.0069  0.0804
 7271SOL    MW428858   5.778   4.879   5.676  0.7298 -0.2954  1.0358
 7272SOL     OW28859   0.536   1.721   0.358 -0.0219 -0.3715 -0.4377
 7272SOL    HW228860   0.552   1.664   0.282 -1.8691 -1.2933 -0.1937
 7272SOL    HW328861   0.480   1.790   0.323 -1.3725 -1.1209  0.1560
 7272SOL    MW428862   0.531   1.722   0.343  0.1844 -0.0881  0.0768
 7273SOL     OW28863   3.519   5.140   5.874 -0.2320 -0.3813 -0.5187
 7273SOL    HW228864   3.448   5.125   5.812 -0.1344 -1.1867 -0.4564
 7273SOL    HW328865   3.476   5.146   5.959 -0.2066 -1.3447 -0.4201
 7273SOL    MW428866   3.504   5.139   5.877  0.2037 -0.5111  0.0633
 7274SOL     OW28867   3.133   5.221   4.540  0.1703  0.0110 -0.1530
 7274SOL    HW228868   3.190   5.183   4.607  0.2619  0.8641  0.2673
 7274SOL    HW328869   3.051   5.240   4.586  0.7383  2.0215  0.1540
 7274SOL    MW428870   3.130   5.219   4.555 -0.0010  0.0824 -0.1445
 7275SOL     OW28871   1.017   0.895   3.573  0.4230 -0.2426  0.4415
 7275SOL    HW228872   0.927   0.904   3.543 -0.1834 -1.5135  1.7879
 7275SOL    HW328873   1.032   0.970   3.630 -0.7882 -1.5100  2.5268
 7275SOL    MW428874   1.007   0.906   3.576 -0.1213  0.2644  0.4621
 7276SOL     OW28875   0.343   1.374   5.076 -0.0864 -0.6980 -0.0468
 7276SOL    HW228876   0.266   1.385   5.020  0.4051  1.5763 -0.3967
 7276SOL    HW328877   0.362   1.463   5.108  1.5390 -1.4325  1.1750
 7276SOL    MW428878   0.336   1.387   5.073 -0.1428  0.1631 -0.7065
 7277SOL     OW28879   2.946   3.280   3.561  0.1452  0.4483  0.5457
 7277SOL    HW228880   2.957   3.317   3.473  1.5645  0.0712  0.5458
 7277SOL    HW328881   2.863   3.317   3.592 -0.5613  0.3052 -1.0806
 7277SOL    MW428882   2.936   3.290   3.554 -0.5943 -0.5018 -0.3512
 7278SOL     OW28883   2.777   3.639   2.380  0.2033  0.1093 -0.5361
 7278SOL    HW228884   2.855   3.637   2.435  0.1205 -0.8519 -0.4298
 7278SOL    HW328885   2.711   3.593   2.431 -0.0553 -0.2408 -1.1738
 7278SOL    MW428886   2.779   3.633   2.394 -0.0391 -0.5952 -0.3083
 7279SOL     OW28887   2.386   0.184   2.046 -0.3262 -0.1715 -0.2635
 7279SOL    HW228888   2.481   0.198   2.046 -0.7213  3.6775 -1.0762
 7279SOL    HW328889   2.367   0.144   2.130  1.9697 -0.6794  0.0757
 7279SOL    MW428890   2.396   0.181   2.057  0.3258  0.1497  0.3900
 7280SOL     OW28891   2.792   5.006   4.578  0.0006 -0.1538 -0.0147
 7280SOL    HW228892   2.753   5.055   4.506 -1.0441 -0.0166  0.6177
 7280SOL    HW328893   2.754   4.918   4.570  0.9815 -0.5518 -0.4634
 7280SOL    MW428894   2.782   5.001   4.568  0.2431 -0.3837  0.2437
 7281SOL     OW28895   5.038   5.931   0.552  0.0645 -0.0926 -0.2124
 7281SOL    HW228896   5.122   5.948   0.509  0.2917 -0.1180  0.2193
 7281SOL    HW328897   4.974   5.931   0.481  0.4554 -0.2452 -0.5659
 7281SOL    MW428898   5.040   5.933   0.537 -0.3107 -0.0101  0.2691
 7282SOL     OW28899   2.635   1.916   6.336 -0.2214  0.4542  0.2325
 7282SOL    HW228900   2.709   1.886   6.283 -0.3311  0.4228  0.0962
 7282SOL    HW328901   2.630   1.852   6.408  0.3756  0.9058  0.6822
 7282SOL    MW428902   2.644   1.903   6.339  0.0760 -0.3752 -0.2972
 7283SOL     OW28903   3.554   4.669   1.956 -0.4907  0.1373 -0.3004
 7283SOL    HW228904   3.522   4.752   1.921  0.6496  1.0167  0.6822
 7283SOL    HW328905   3.496   4.650   2.030 -0.7055  0.0667 -0.4817
 7283SOL    MW428906   3.542   4.677   1.961 -0.1566 -0.1134  0.1205
 7284SOL     OW28907   1.833   2.335   2.290  0.2820 -0.5542  0.3765
 7284SOL    HW228908   1.770   2.407   2.294  1.4231  0.5403 -0.3341
 7284SOL    HW328909   1.914   2.376   2.258  1.1172 -2.0633  0.4503
 7284SOL    MW428910   1.836   2.350   2.286 -0.8807  0.3812  0.3787
 7285SOL     OW28911   0.462   1.501   6.358 -0.8058 -0.2360  0.4498
 7285SOL    HW228912   0.420   1.415   6.355  1.7266 -1.5681  0.0869
 7285SOL    HW328913   0.488   1.512   6.449 -0.7897 -0.0294  0.4212
 7285SOL    MW428914   0.460   1.491   6.369  0.2305  0.1536  0.4834
 7286SOL     OW28915   1.343   4.710   5.934  0.0197 -0.2315 -0.3694
 7286SOL    HW228916   1.417   4.670   5.889 -0.7020  0.1602 -1.9624
 7286SOL    HW328917   1.380   4.785   5.981  0.7366 -0.4688 -0.5569
 7286SOL    MW428918   1.357   4.715   5.934 -0.2414 -0.2942 -0.2657
 7287SOL     OW28919   6.370   2.156   3.236 -0.5590 -0.3279 -0.3476
 7287SOL    HW228920   6.306   2.152   3.307  0.6266  0.6964  0.8446
 7287SOL    HW328921   6.349   2.237   3.189 -0.0153  0.1556  0.2134
 7287SOL    MW428922   6.359   2.166   3.239  0.2443 -0.6539 -0.0400
 7288SOL     OW28923   4.901   0.807   3.865  0.0792 -0.1885  0.6058
 7288SOL    HW228924   4.969   0.758   3.911  2.2455  0.4215 -1.7189
 7288SOL    HW328925   4.900   0.893   3.908  3.7783  1.2323 -1.6165
 7288SOL    MW428926   4.910   0.812   3.877 -0.3291 -0.0128 -0.0399
 7289SOL     OW28927   4.889   2.105   2.813  0.0125  0.0808 -0.1487
 7289SOL    HW228928   4.938   2.044   2.758 -0.2635 -0.2774 -0.0081
 7289SOL    HW328929   4.837   2.156   2.752 -0.8296 -0.7940 -0.1917
 7289SOL    MW428930   4.889   2.104   2.798 -0.1515 -0.0644  0.3241
 7290SOL     OW28931   3.665   4.969   0.643  0.1013 -0.1411 -0.0583
 7290SOL    HW228932   3.690   4.904   0.577  0.6452 -0.7102  0.6886
 7290SOL    HW328933   3.620   4.919   0.710  1.3443  0.0875  0.9753
 7290SOL    MW428934   3.662   4.954   0.643 -0.1153 -0.0518 -0.0738
 7291SOL     OW28935   0.598   4.855   1.706 -0.2698 -0.6196  0.6571
 7291SOL    HW228936   0.637   4.859   1.619 -0.8971  2.3744  0.3797
 7291SOL    HW328937   0.504   4.863   1.691 -0.2839  1.8894  1.5756
 7291SOL    MW428938   0.591   4.857   1.693  0.2663  0.0793  0.1631
 7292SOL     OW28939   4.780   4.120   4.889 -0.2850  0.6763  0.2547
 7292SOL    HW228940   4.699   4.082   4.920 -0.3677  2.1174  1.9897
 7292SOL    HW328941   4.755   4.207   4.857  0.3591  0.5405 -0.6711
 7292SOL    MW428942   4.766   4.127   4.889  0.3960 -0.4091  0.1521
 7293SOL     OW28943   0.074   0.632   1.013  0.1482 -0.3884  0.0541
 7293SOL    HW228944   0.078   0.683   0.932  0.0637  0.5972  0.6585
 7293SOL    HW328945  -0.009   0.658   1.054 -0.0878 -1.3031  0.2040
 7293SOL    MW428946   0.063   0.642   1.008  0.6262 -0.2883  0.0427
 7294SOL     OW28947   4.770   5.574   5.045 -0.1492 -0.0802 -0.1859
 7294SOL    HW228948   4.807   5.518   5.114 -0.8186  0.1551  0.3810
 7294SOL    HW328949   4.719   5.515   4.991 -0.5893 -0.0801  0.2223
 7294SOL    MW428950   4.768   5.559   5.047  0.5016  0.1950 -0.2308
 7295SOL     OW28951   5.939   3.002   1.487  0.0182 -0.7326  0.4896
 7295SOL    HW228952   5.950   2.960   1.402 -2.4781 -2.7485  1.0231
 7295SOL    HW328953   5.867   3.065   1.474 -0.0526 -0.7038  0.9777
 7295SOL    MW428954   5.931   3.005   1.474  0.9680  0.3772  0.0275
 7296SOL     OW28955   1.072   1.829   5.200 -0.4150 -1.0701  0.6528
 7296SOL    HW228956   1.118   1.756   5.159 -0.4039 -1.9860  2.1921
 7296SOL    HW328957   1.002   1.851   5.139 -0.1835 -2.1293 -0.0268
 7296SOL    MW428958   1.069   1.822   5.187  0.0917  0.3482 -0.4499
 7297SOL     OW28959   6.422   2.205   3.826  0.3509 -0.0423 -0.1485
 7297SOL    HW228960   6.433   2.189   3.919 -1.8435  0.0756  0.1895
 7297SOL    HW328961   6.350   2.267   3.821 -0.8433 -1.4754 -1.9708
 7297SOL    MW428962   6.414   2.211   3.837 -0.1465  0.5361  0.0770
 7298SOL     OW28963   4.871   2.494   2.108  0.3727 -0.6910  0.8337
 7298SOL    HW228964   4.832   2.565   2.160  0.0167  0.1115 -0.4919
 7298SOL    HW328965   4.933   2.538   2.049 -0.0908 -1.4360 -0.2360
 7298SOL    MW428966   4.874   2.510   2.107 -0.5101  0.3438  0.0159
 7299SOL     OW28967   4.131   2.630   3.370 -0.3201 -0.0264 -0.0557
 7299SOL    HW228968   4.151   2.626   3.464 -3.7889 -0.8332  0.7945
 7299SOL    HW328969   4.147   2.541   3.338  0.2293  0.0856 -0.1070
 7299SOL    MW428970   4.136   2.618   3.378 -0.0596  0.0303  0.2816
 7300SOL     OW28971   3.623   1.316   1.504  0.0638 -0.5247  0.0861
 7300SOL    HW228972   3.707   1.359   1.518 -0.2861 -0.3284  1.7308
 7300SOL    HW328973   3.580   1.370   1.437  0.1325  0.9958  1.2150
 7300SOL    MW428974   3.628   1.329   1.497 -0.2088 -0.1893  0.0192
 7301SOL     OW28975   1.662   2.311   4.373 -0.0391 -0.3541  0.6446
 7301SOL    HW228976   1.726   2.375   4.404 -0.0022 -0.4302  0.7281
 7301SOL    HW328977   1.667   2.317   4.278  3.0479 -3.1427  0.4297
 7301SOL    MW428978   1.671   2.320   4.365  0.1586 -0.0308 -0.4354
 7302SOL     OW28979   4.429   3.522   5.241 -0.6097 -0.3306  0.0935
 7302SOL    HW228980   4.438   3.461   5.315 -0.8202 -2.3000 -1.4259
 7302SOL    HW328981   4.405   3.467   5.167  0.3179  1.4627 -1.6458
 7302SOL    MW428982   4.427   3.507   5.241 -0.2749 -0.0018 -0.5019
 7303SOL     OW28983   2.022   1.551   2.893 -0.3161 -0.5555  0.0244
 7303SOL    HW228984   2.054   1.524   2.807  0.6584 -0.3397  0.3052
 7303SOL    HW328985   2.099   1.545   2.950 -0.1164  2.3812  0.2102
 7303SOL    MW428986   2.036   1.546   2.889 -0.3920  0.4232 -0.5863
 7304SOL     OW28987   5.684   5.608   5.706 -0.4580  0.0710  0.1943
 7304SOL    HW228988   5.751   5.655   5.754  1.2704 -0.6076 -1.3934
 7304SOL    HW328989   5.651   5.542   5.767 -0.1954  0.8892  1.2264
 7304SOL    MW428990   5.688   5.605   5.720 -0.3975  0.1190  0.5056
 7305SOL     OW28991   4.404   4.464   3.455 -0.3851  0.3493 -0.3820
 7305SOL    HW228992   4.410   4.375   3.420 -0.2970  0.6383 -1.1302
 7305SOL    HW328993   4.387   4.452   3.548 -1.3375 -0.4577 -0.6348
 7305SOL    MW428994   4.403   4.450   3.462 -0.0594  0.6317  0.1952
 7306SOL     OW28995   1.054   4.567   2.482 -0.2134 -0.2916 -0.4547
 7306SOL    HW228996   1.111   4.560   2.406  0.2548 -0.5508 -0.0829
 7306SOL    HW328997   1.110   4.546   2.557 -0.6205  0.1440 -0.0174
 7306SOL    MW428998   1.069   4.564   2.482  0.4883 -0.0272 -0.1041
 7307SOL     OW28999   3.052   6.095   3.707 -0.1475 -0.0310 -0.3906
 7307SOL    HW229000   3.103   6.036   3.653  0.1540  0.3151 -0.4850
 7307SOL    HW329001   3.103   6.176   3.711 -0.3308  0.0656  0.1246
 7307SOL    MW429002   3.065   6.098   3.701  0.2476  0.1268 -0.4707
 7308SOL     OW29003   1.042   0.519   5.700  0.0819 -0.2344  0.6865
 7308SOL    HW229004   0.963   0.543   5.651  0.0834  1.5786  1.4808
 7308SOL    HW329005   1.114   0.552   5.646  0.1544  0.3167  1.1055
 7308SOL    MW429006   1.041   0.527   5.687  0.2636  0.0489  0.0016
 7309SOL     OW29007   2.033   1.849   5.148 -0.2116 -0.7686  0.4638
 7309SOL    HW229008   1.993   1.763   5.137 -0.1873 -0.7154 -0.0618
 7309SOL    HW329009   2.127   1.832   5.147 -0.1847 -1.0658  3.0598
 7309SOL    MW429010   2.040   1.836   5.146  0.4685  0.3357  0.2297
 7310SOL     OW29011   0.761   6.426   3.134  0.6364  0.1675 -0.4123
 7310SOL    HW229012   0.763   6.445   3.040 -3.7320  1.4755 -0.4988
 7310SOL    HW329013   0.687   6.366   3.144  1.7845 -0.9649  2.1323
 7310SOL    MW429014   0.751   6.421   3.123  0.1781 -0.1676 -0.0627
 7311SOL     OW29015   0.491   0.608   0.119  0.3048  0.1996  0.1911
 7311SOL    HW229016   0.511   0.702   0.121  1.6301 -0.0641  0.0665
 7311SOL    HW329017   0.498   0.584   0.027  2.0476 -0.4121  0.4417
 7311SOL    MW429018   0.495   0.617   0.107 -0.0298 -0.1657  0.0521
 7312SOL     OW29019   0.200   4.890   5.381 -0.3079  0.4469 -0.0994
 7312SOL    HW229020   0.174   4.878   5.290 -0.5842 -1.5433  0.2036
 7312SOL    HW329021   0.274   4.951   5.377  0.3316 -0.3826 -1.7482
 7312SOL    MW429022   0.206   4.896   5.369  0.3186  0.3026  0.1280
 7313SOL     OW29023   4.605   2.187   3.296 -0.2856 -0.6586  0.3037
 7313SOL    HW229024   4.611   2.161   3.205 -0.4749 -0.7375  0.3135
 7313SOL    HW329025   4.536   2.254   3.298  1.5247  1.3390 -0.0510
 7313SOL    MW429026   4.597   2.193   3.285  0.4006 -0.2294  0.1483
 7314SOL     OW29027   5.968   3.651   6.033 -0.7240  0.8369  0.0416
 7314SOL    HW229028   5.964   3.727   6.092 -0.7396 -0.1014  1.2893
 7314SOL    HW329029   5.908   3.673   5.962 -1.5572  1.5553  0.9279
 7314SOL    MW429030   5.960   3.664   6.031  0.3763 -0.3576 -0.0103
 7315SOL     OW29031   0.740   3.691   5.791 -0.0953 -0.0282  0.3630
 7315SOL    HW229032   0.778   3.670   5.876  3.0674  0.2530 -0.8243
 7315SOL    HW329033   0.801   3.755   5.753 -1.1832 -0.4158 -2.2308
 7315SOL    MW429034   0.753   3.696   5.797 -0.0806 -0.5443  0.4706
 7316SOL     OW29035   3.676   1.966   2.580 -0.0653  0.3891  0.0532
 7316SOL    HW229036   3.593   1.956   2.533 -1.0135  1.2375  1.4745
 7316SOL    HW329037   3.655   1.943   2.671  1.9792 -2.3234 -0.0415
 7316SOL    MW429038   3.662   1.962   2.586  0.6764 -0.3348  0.0867
 7317SOL     OW29039   5.544   6.075   4.616 -0.3341 -0.5324 -0.1647
 7317SOL    HW229040   5.509   6.052   4.530  0.3330 -0.1769 -0.5408
 7317SOL    HW329041   5.528   6.169   4.624 -0.2270 -0.5291  0.0183
 7317SOL    MW429042   5.537   6.084   4.606 -0.4464 -0.2818  0.6079
 7318SOL     OW29043   5.440   1.945   3.070  0.0663  0.0249 -0.5379
 7318SOL    HW229044   5.408   1.860   3.101 -1.3336  1.3811  2.1935
 7318SOL    HW329045   5.522   1.958   3.118 -0.5901  0.8868  0.3896
 7318SOL    MW429046   5.446   1.935   3.081 -0.0237  0.3777  0.5469
 7319SOL     OW29047   4.526   0.581   5.378 -0.5058  0.0702  0.0198
 7319SOL    HW229048   4.584   0.567   5.453 -0.2489  1.8337  0.1888
 7319SOL    HW329049   4.442   0.606   5.417 -1.2516 -1.8552 -0.2415
 7319SOL    MW429050   4.523   0.582   5.393 -0.1319 -0.0836  0.2355
 7320SOL     OW29051   3.308   0.993   1.416 -0.0829  0.3554  0.2120
 7320SOL    HW229052   3.339   0.924   1.475 -0.6567 -0.2058 -0.1234
 7320SOL    HW329053   3.388   1.028   1.377  0.2246 -0.0716  0.4421
 7320SOL    MW429054   3.323   0.988   1.419  0.1298 -0.0845  0.3076
 7321SOL     OW29055   4.548   4.932   5.001  0.0122  0.4376 -0.2203
 7321SOL    HW229056   4.510   4.986   4.932  1.1026  0.4278 -0.8487
 7321SOL    HW329057   4.521   4.976   5.082 -0.4192  1.0407 -0.6749
 7321SOL    MW429058   4.540   4.945   5.003 -0.1769  0.6456  0.0399
 7322SOL     OW29059   4.114   4.721   3.599  0.2444  0.1369  0.0938
 7322SOL    HW229060   4.046   4.706   3.534  0.4381  0.2623 -0.1407
 7322SOL    HW329061   4.067   4.731   3.682 -0.0013 -0.0401 -0.0250
 7322SOL    MW429062   4.099   4.720   3.601  0.5778  0.1998 -0.2313
 7323SOL     OW29063   3.010   0.501   1.375 -0.5447 -0.1717  0.3620
 7323SOL    HW229064   2.925   0.457   1.376 -0.8004  0.3179  1.0097
 7323SOL    HW329065   2.991   0.591   1.402  0.2668 -0.2551  1.2827
 7323SOL    MW429066   2.997   0.507   1.379  0.4043 -0.2488 -0.1077
 7324SOL     OW29067   3.749   2.279   0.559  0.3196  0.3096  0.4148
 7324SOL    HW229068   3.811   2.219   0.517 -0.2144  0.3200 -0.4210
 7324SOL    HW329069   3.752   2.257   0.652  0.1044 -1.0402  0.1204
 7324SOL    MW429070   3.758   2.268   0.565 -0.0947  0.2727  0.3795
 7325SOL     OW29071   4.445   1.892   0.298 -0.2507 -0.5733 -0.0974
 7325SOL    HW229072   4.364   1.877   0.346 -0.1932  0.9375  0.5429
 7325SOL    HW329073   4.511   1.905   0.365  0.5182 -1.7013 -0.6147
 7325SOL    MW429074   4.443   1.892   0.313 -0.0526  0.1872  0.6809
 7326SOL     OW29075   2.400   0.344   3.502 -0.4200 -0.1867  0.0764
 7326SOL    HW229076   2.317   0.365   3.460 -0.3136  0.1903  0.0457
 7326SOL    HW329077   2.441   0.430   3.519  0.9205 -0.3981 -1.8066
 7326SOL    MW429078   2.395   0.358   3.499  0.6594  0.1324  0.1299
 7327SOL     OW29079   3.789   5.307   3.458 -0.3202 -0.3847  0.0660
 7327SOL    HW229080   3.854   5.333   3.524 -0.4497  0.3389 -0.0853
 7327SOL    HW329081   3.705   5.327   3.498 -0.3931  0.2890 -0.4004
 7327SOL    MW429082   3.787   5.313   3.472 -0.1973 -0.2357  0.0079
 7328SOL     OW29083   0.219   2.305   3.149  0.2660 -0.0799  0.0601
 7328SOL    HW229084   0.175   2.220   3.154 -3.2376  1.2620 -3.0815
 7328SOL    HW329085   0.173   2.360   3.213  0.9794  0.0019  0.5039
 7328SOL    MW429086   0.207   2.301   3.158 -0.3757  0.1665  0.3786
 7329SOL     OW29087   3.858   4.530   2.724  0.3232 -0.5153 -0.5033
 7329SOL    HW229088   3.904   4.512   2.642  0.6041  0.0342 -0.4750
 7329SOL    HW329089   3.928   4.555   2.785 -0.1706  4.4587 -1.5175
 7329SOL    MW429090   3.873   4.531   2.721 -0.2805 -0.2245  0.5832
 7330SOL     OW29091   4.260   5.224   6.006  0.1344  0.1689 -0.5679
 7330SOL    HW229092   4.193   5.270   6.056  0.7935 -0.2064  0.7396
 7330SOL    HW329093   4.324   5.197   6.073  0.9947 -0.4725 -1.6206
 7330SOL    MW429094   4.260   5.226   6.022 -0.4144  0.0568  0.3360
 7331SOL     OW29095   2.399   3.753   0.624  0.7420  0.2089 -0.0742
 7331SOL    HW229096   2.387   3.761   0.529  0.3984 -2.1240 -0.2786
 7331SOL    HW329097   2.471   3.691   0.633  2.1077  1.8706  1.2418
 7331SOL    MW429098   2.407   3.746   0.612 -0.2831 -0.4043 -0.1737
 7332SOL     OW29099   0.245   4.512   2.371  0.4650  0.3191 -0.0677
 7332SOL    HW229100   0.229   4.476   2.284 -1.5725 -1.0499  0.8017
 7332SOL    HW329101   0.205   4.450   2.431 -0.7739  2.6567  1.6931
 7332SOL    MW429102   0.238   4.499   2.368 -0.4551  0.6164 -0.0405
 7333SOL     OW29103   5.564   0.865   2.015 -0.0418 -0.0563 -0.3626
 7333SOL    HW229104   5.652   0.837   2.041  0.1329  0.5577 -0.2732
 7333SOL    HW329105   5.517   0.783   1.999  0.8414 -0.3837 -1.4202
 7333SOL    MW429106   5.569   0.850   2.017 -0.6539 -0.2754  0.3241
 7334SOL     OW29107   1.380   2.108   3.090 -0.0907 -0.5311 -0.1993
 7334SOL    HW229108   1.469   2.085   3.065 -0.1285 -0.1810 -0.6777
 7334SOL    HW329109   1.332   2.113   3.007 -0.0631  1.3430 -0.1519
 7334SOL    MW429110   1.385   2.105   3.076 -0.0254  0.1123  0.7923
 7335SOL     OW29111   2.772   1.127   1.869 -0.5966  0.2055  0.0596
 7335SOL    HW229112   2.741   1.037   1.869  1.8563 -0.8012  2.8937
 7335SOL    HW329113   2.868   1.120   1.866 -0.3342  2.8361 -1.6412
 7335SOL    MW429114   2.781   1.114   1.869 -0.2866  0.1990  0.0847
 7336SOL     OW29115   5.114   3.931   1.803  0.1679 -0.1067  0.1491
 7336SOL    HW229116   5.041   3.987   1.777 -0.7016 -1.6498 -0.8097
 7336SOL    HW329117   5.187   3.992   1.816 -0.7348  1.2429 -0.9046
 7336SOL    MW429118   5.114   3.947   1.802  0.0725 -0.2826  0.0334
 7337SOL     OW29119   5.161   5.686   0.603 -0.3458  0.1265  0.8979
 7337SOL    HW229120   5.099   5.613   0.607  0.4425 -0.6504 -0.2051
 7337SOL    HW329121   5.107   5.762   0.583 -0.9572 -0.5422 -0.0989
 7337SOL    MW429122   5.145   5.686   0.601 -0.2408  0.2327  0.3198
 7338SOL     OW29123   2.514   6.052   1.446 -0.1736  0.2414  0.6739
 7338SOL    HW229124   2.442   6.105   1.480  2.2023  2.2304  3.0632
 7338SOL    HW329125   2.522   5.979   1.508 -1.5885 -1.4181 -0.9838
 7338SOL    MW429126   2.506   6.049   1.459 -0.4950  0.1169  0.2771
 7339SOL     OW29127   6.271   5.648   1.414 -0.0397 -0.4336 -0.1357
 7339SOL    HW229128   6.326   5.626   1.339 -0.8971  0.5414 -1.0726
 7339SOL    HW329129   6.203   5.580   1.415 -0.4245 -0.0628 -0.6681
 7339SOL    MW429130   6.269   5.636   1.405  0.0711  0.0249 -0.2371
 7340SOL     OW29131   0.237   1.283   4.238  0.7809  0.2592 -0.4130
 7340SOL    HW229132   0.321   1.254   4.202  1.3787  2.0357 -0.5652
 7340SOL    HW329133   0.184   1.303   4.160  1.0276  1.2536 -0.3457
 7340SOL    MW429134   0.241   1.282   4.223  0.2439 -0.0268  1.0525
 7341SOL     OW29135   5.742   2.333   1.633 -0.4552  0.1071 -0.9300
 7341SOL    HW229136   5.683   2.264   1.602 -0.0606 -0.1737 -1.0723
 7341SOL    HW329137   5.796   2.354   1.556 -0.0739  0.0464 -0.6811
 7341SOL    MW429138   5.741   2.327   1.619  0.6137 -0.4336 -0.2102
 7342SOL     OW29139   5.111   6.114   5.166  0.9234  0.3022  0.1226
 7342SOL    HW229140   5.050   6.045   5.139  1.9142 -0.9164  0.8645
 7342SOL    HW329141   5.110   6.177   5.094  0.2901 -0.6862 -0.7687
 7342SOL    MW429142   5.103   6.113   5.153 -0.6637 -0.0827 -0.7455
 7343SOL     OW29143   3.243   3.339   2.625  0.4405  0.0861 -0.6210
 7343SOL    HW229144   3.305   3.363   2.556  1.0587 -1.0332 -0.4784
 7343SOL    HW329145   3.161   3.321   2.579  1.1186 -1.6937 -1.2321
 7343SOL    MW429146   3.241   3.340   2.610  0.3293  0.4857  0.3911
 7344SOL     OW29147   0.384   6.148   5.164  0.6092  0.3753  0.4608
 7344SOL    HW229148   0.358   6.058   5.149 -0.0480  0.2050  2.4186
 7344SOL    HW329149   0.378   6.189   5.077  0.4828 -1.3186 -0.3708
 7344SOL    MW429150   0.380   6.142   5.150 -0.5809  0.0823  0.3647
 7345SOL     OW29151   5.030   5.392   0.934  0.3522 -0.0529 -0.2079
 7345SOL    HW229152   4.989   5.366   0.851  2.9245 -1.6471 -1.1268
 7345SOL    HW329153   5.071   5.476   0.916 -1.4795  1.0138  0.3872
 7345SOL    MW429154   5.030   5.400   0.921 -0.0492 -0.4833  0.2922
 7346SOL     OW29155   4.430   2.958   2.200  0.0105  0.3393  0.3238
 7346SOL    HW229156   4.466   2.897   2.135  0.0564  0.9259 -0.2190
 7346SOL    HW329157   4.335   2.951   2.190  0.0178  0.4428  0.1670
 7346SOL    MW429158   4.422   2.949   2.190 -0.6497 -0.3672  0.0612
 7347SOL     OW29159   3.244   1.809   4.938  0.1385  0.0803 -0.1982
 7347SOL    HW229160   3.173   1.814   5.002  0.3296  2.7334 -0.0817
 7347SOL    HW329161   3.207   1.847   4.858  1.4442  1.7439 -0.0612
 7347SOL    MW429162   3.229   1.815   4.936  0.0750 -0.1944 -0.2849
 7348SOL     OW29163   1.563   2.085   0.348  0.0872  0.6998 -0.5293
 7348SOL    HW229164   1.533   2.176   0.343  0.5992  0.9162  0.1843
 7348SOL    HW329165   1.658   2.092   0.356 -0.0070  0.1917  1.6033
 7348SOL    MW429166   1.572   2.098   0.349 -0.0774 -0.3283 -0.2579
 7349SOL     OW29167   3.855   5.114   5.144  0.8039 -0.4856 -0.2642
 7349SOL    HW229168   3.880   5.123   5.235 -0.5727  0.2534  0.0626
 7349SOL    HW329169   3.933   5.140   5.095  1.2131  0.1336  0.6910
 7349SOL    MW429170   3.869   5.118   5.149 -0.0703 -0.1572 -0.6430
 7350SOL     OW29171   4.294   4.855   3.408 -0.3926 -0.1820  0.0440
 7350SOL    HW229172   4.262   4.825   3.493 -1.3764 -1.0143 -0.5856
 7350SOL    HW329173   4.269   4.785   3.347 -0.4058  0.7422 -1.0572
 7350SOL    MW429174   4.287   4.842   3.411  0.0404  0.0121  0.4719
 7351SOL     OW29175   5.485   3.396   0.143 -0.5046 -0.2563  0.3282
 7351SOL    HW229176   5.405   3.346   0.129  1.0153 -2.7850  0.0627
 7351SOL    HW329177   5.509   3.380   0.234  0.1125 -0.2050  0.1843
 7351SOL    MW429178   5.478   3.388   0.153  0.1039 -0.2754 -0.1508
 7352SOL     OW29179   5.168   6.269   4.301  0.3529 -0.4924  0.7167
 7352SOL    HW229180   5.258   6.293   4.280 -0.2966  1.6492  0.0320
 7352SOL    HW329181   5.146   6.199   4.241  0.8522  0.5874 -0.7720
 7352SOL    MW429182   5.177   6.263   4.291  0.1323  0.2879  0.3507
 7353SOL     OW29183   0.474   4.371   0.981  0.1606 -0.1997 -0.1665
 7353SOL    HW229184   0.541   4.304   0.996 -0.4756 -0.7368  0.3540
 7353SOL    HW329185   0.426   4.375   1.064 -0.9012 -0.3360 -0.7632
 7353SOL    MW429186   0.477   4.362   0.994 -0.1653  0.4129  0.1953
 7354SOL     OW29187   0.239   3.168   3.344  0.7691 -0.0244  0.2385
 7354SOL    HW229188   0.232   3.118   3.263  1.1478  1.2653 -0.6028
 7354SOL    HW329189   0.202   3.254   3.323  1.1928  0.4396  1.3310
 7354SOL    MW429190   0.233   3.172   3.331  0.3833 -0.2918  0.0553
 7355SOL     OW29191   1.586   0.132   0.552 -0.0702 -0.3864 -0.0137
 7355SOL    HW229192   1.595   0.225   0.531 -0.7757  0.0430  1.4287
 7355SOL    HW329193   1.658   0.089   0.506  0.9037  1.0164  0.1420
 7355SOL    MW429194   1.596   0.138   0.543  0.3335  0.1578 -0.7643
 7356SOL     OW29195   5.062   3.935   3.408  0.1849 -0.2474 -0.1057
 7356SOL    HW229196   5.025   4.021   3.428 -0.1694 -0.6050  0.8560
 7356SOL    HW329197   5.110   3.947   3.326 -2.8842  0.0085 -2.0211
 7356SOL    MW429198   5.064   3.948   3.400 -0.4655  0.1324 -0.6079
 7357SOL     OW29199   3.392   2.655   5.029  0.3077  0.3355 -0.0858
 7357SOL    HW229200   3.405   2.750   5.022 -1.3260  0.6382  0.4591
 7357SOL    HW329201   3.480   2.620   5.043  1.0118  1.7084 -0.8102
 7357SOL    MW429202   3.405   2.663   5.030 -0.0444  0.7891  0.2698
 7358SOL     OW29203   4.056   1.973   1.713  0.1513  0.3081 -0.5455
 7358SOL    HW229204   3.996   1.900   1.728 -1.0091  0.9560 -1.7769
 7358SOL    HW329205   4.035   2.037   1.781  0.2451  0.0641 -0.2842
 7358SOL    MW429206   4.045   1.972   1.724  0.1656 -0.2532  0.3625
 7359SOL     OW29207   6.156   5.668   0.853  0.7485  0.3089 -0.2770
 7359SOL    HW229208   6.251   5.676   0.852  0.8482 -0.7500 -2.0315
 7359SOL    HW329209   6.139   5.594   0.911  1.0806 -0.2911 -0.9377
 7359SOL    MW429210   6.166   5.659   0.861 -0.0617 -0.5304  0.0861
 7360SOL     OW29211   1.976   3.070   0.469  0.1627 -0.2126  0.1295
 7360SOL    HW229212   1.987   3.164   0.482  1.3773 -0.2117 -0.7111
 7360SOL    HW329213   1.889   3.061   0.430 -0.5161  0.4219  1.4381
 7360SOL    MW429214   1.966   3.081   0.466  0.1067  0.7080  0.6747
 7361SOL     OW29215   0.360   3.555   0.041 -0.1892  0.1751  0.0253
 7361SOL    HW229216   0.273   3.530   0.012  0.5623 -2.2076 -0.3519
 7361SOL    HW329217   0.415   3.546  -0.037  0.8360 -0.8540  0.8312
 7361SOL    MW429218   0.356   3.551   0.027 -0.5322  0.2361  0.2875
 7362SOL     OW29219   5.032   4.711   5.045  0.7223 -0.1425  0.4330
 7362SOL    HW229220   4.966   4.656   5.088 -0.5189 -0.4904 -1.7153
 7362SOL    HW329221   5.110   4.656   5.042  1.0557  0.1171  2.6560
 7362SOL    MW429222   5.034   4.696   5.050 -0.1007  0.5071 -0.3199
 7363SOL     OW29223   5.430   3.949   5.233 -0.0044  0.0026  0.0640
 7363SOL    HW229224   5.457   3.880   5.172  0.6210  0.9889 -0.8085
 7363SOL    HW329225   5.389   4.015   5.178  0.6415  0.9564  0.6969
 7363SOL    MW429226   5.428   3.949   5.218  0.2614  0.5538  0.8755
 7364SOL     OW29227   1.305   6.050   3.948  0.6587  0.2493 -0.2454
 7364SOL    HW229228   1.304   6.107   3.871 -1.2011  0.0092 -0.4452
 7364SOL    HW329229   1.249   6.095   4.012  0.9807 -0.2740  0.4210
 7364SOL    MW429230   1.297   6.063   3.947 -0.3669 -0.1952 -0.3671
 7365SOL     OW29231   1.657   0.772   0.427 -0.2191 -0.6576 -0.0115
 7365SOL    HW229232   1.563   0.770   0.444 -0.0186  0.7199  1.5319
 7365SOL    HW329233   1.696   0.731   0.504  0.4652 -1.2328 -0.6430
 7365SOL    MW429234   1.650   0.766   0.439  0.2843 -0.1967 -0.0884
 7366SOL     OW29235   5.169   4.496   0.399  0.3437  0.0148  0.2025
 7366SOL    HW229236   5.165   4.489   0.304 -1.5711 -0.7736  0.2926
 7366SOL    HW329237   5.233   4.565   0.415  0.3544  0.5040 -1.6650
 7366SOL    MW429238   5.177   4.504   0.389 -0.3034  0.0127 -0.5021
 7367SOL     OW29239   1.277   0.887   4.087 -0.2701  0.3207 -0.2717
 7367SOL    HW229240   1.267   0.982   4.083 -0.7345  0.2354 -1.5638
 7367SOL    HW329241   1.195   0.855   4.125  0.1561  0.4676  0.8042
 7367SOL    MW429242   1.265   0.895   4.091  0.1786 -0.5399  0.2325
 7368SOL     OW29243   4.711   5.873   5.177  0.9071  0.2974  0.5937
 7368SOL    HW229244   4.680   5.823   5.101  1.3074  0.5884  0.2311
 7368SOL    HW329245   4.650   5.946   5.184  0.0706 -0.4641  1.3837
 7368SOL    MW429246   4.699   5.876   5.168  0.4643  0.6400 -0.2202
 7369SOL     OW29247   5.992   1.742   5.568  0.5232  0.4091  0.6572
 7369SOL    HW229248   5.907   1.779   5.594  0.8099  0.1393  2.0615
 7369SOL    HW329249   6.031   1.712   5.650  1.1030 -1.3347 -0.2040
 7369SOL    MW429250   5.986   1.743   5.582  0.4917 -0.6886 -0.4012
 7370SOL     OW29251   1.517   2.614   0.410 -0.3790 -0.3568  0.0898
 7370SOL    HW229252   1.540   2.667   0.334  0.1342 -0.9300 -0.1567
 7370SOL    HW329253   1.525   2.674   0.484 -0.5261  0.1024 -0.2613
 7370SOL    MW429254   1.521   2.629   0.410  0.5223  0.0951  0.3203
 7371SOL     OW29255   0.491   4.872   3.250  0.8289 -0.3928  0.2013
 7371SOL    HW229256   0.417   4.842   3.303  0.7813  1.3037  1.1843
 7371SOL    HW329257   0.502   4.804   3.183 -1.7197 -0.6264 -0.0878
 7371SOL    MW429258   0.482   4.859   3.248  0.3967  0.2964 -0.0956
 7372SOL     OW29259   3.290   2.563   5.670 -0.2933  0.4163  0.0802
 7372SOL    HW229260   3.206   2.596   5.638  0.1710 -0.0240 -1.7147
 7372SOL    HW329261   3.275   2.469   5.684 -0.6826  0.7117  1.9503
 7372SOL    MW429262   3.277   2.555   5.667 -0.5802 -0.8373 -0.1069
 7373SOL     OW29263   1.231   4.836   2.712  0.2202 -0.2517  1.1113
 7373SOL    HW229264   1.231   4.741   2.716 -3.0268 -0.4626 -0.2782
 7373SOL    HW329265   1.280   4.857   2.632 -0.2490 -0.8690  0.6519
 7373SOL    MW429266   1.237   4.826   2.702 -0.6599  0.2860  0.4061
 7374SOL     OW29267   2.854   0.928   1.016  0.2852 -0.0647  0.1531
 7374SOL    HW229268   2.772   0.878   1.013 -0.2271  0.7855 -0.2004
 7374SOL    HW329269   2.861   0.968   0.929  2.8069 -2.8055 -1.0879
 7374SOL    MW429270   2.844   0.927   1.004 -0.3583 -0.3589  0.1618
 7375SOL     OW29271   5.293   3.446   2.294  0.0365 -0.8507  0.6053
 7375SOL    HW229272   5.218   3.454   2.235  1.5443 -0.4642 -1.3298
 7375SOL    HW329273   5.341   3.370   2.262  0.7914 -0.7521  1.4635
 7375SOL    MW429274   5.289   3.437   2.282 -0.0191  0.2878  0.2690
 7376SOL     OW29275   0.162   5.974   1.405 -0.4981  0.5108 -0.3439
 7376SOL    HW229276   0.149   6.067   1.423  0.5420  0.3025  1.9063
 7376SOL    HW329277   0.212   5.972   1.323 -0.3472  1.9461 -0.3136
 7376SOL    MW429278   0.167   5.986   1.397 -0.2690 -0.1488  0.0959
 7377SOL     OW29279   1.901   1.332   6.411  0.2955  0.0795 -0.2339
 7377SOL    HW229280   1.943   1.379   6.483  1.5348  0.2175 -1.0301
 7377SOL    HW329281   1.973   1.294   6.361 -0.6203 -1.5840 -0.3657
 7377SOL    MW429282   1.916   1.334   6.414  0.3894 -0.7139 -1.2530
 7378SOL     OW29283   4.478   3.140   3.790  0.1810  0.2144 -0.5537
 7378SOL    HW229284   4.404   3.187   3.753 -0.1125 -0.2992 -0.6200
 7378SOL    HW329285   4.459   3.135   3.884 -0.8533 -1.6363 -0.8184
 7378SOL    MW429286   4.466   3.145   3.797  0.4698  0.6224 -0.3766
 7379SOL     OW29287   2.205   2.280   5.233 -0.2703 -0.0268 -0.6780
 7379SOL    HW229288   2.237   2.348   5.292  2.5458 -1.6307 -0.1826
 7379SOL    HW329289   2.123   2.251   5.273  0.0581  0.9447  0.7921
 7379SOL    MW429290   2.198   2.285   5.246  0.2473 -0.7338  0.3686
 7380SOL     OW29291   5.240   1.214   6.226 -0.3717  0.2555 -0.3086
 7380SOL    HW229292   5.245   1.290   6.284  1.2107  0.9400 -1.2797
 7380SOL    HW329293   5.190   1.149   6.276  1.0928  0.7197  1.9240
 7380SOL    MW429294   5.234   1.216   6.240 -0.6021  0.4123  0.1483
 7381SOL     OW29295   5.132   2.205   2.188  0.0325  0.1075  0.4084
 7381SOL    HW229296   5.222   2.186   2.162 -0.1758 -0.1066 -0.1927
 7381SOL    HW329297   5.125   2.300   2.181 -0.0922  0.0349 -0.6255
 7381SOL    MW429298   5.143   2.215   2.183 -0.4069 -0.3720 -0.4279
 7382SOL     OW29299   5.120   4.332   5.558 -0.0507  0.0953  0.5363
 7382SOL    HW229300   5.081   4.255   5.516  1.0823 -0.7168  0.9108
 7382SOL    HW329301   5.196   4.352   5.504 -0.9799  1.7191 -0.2506
 7382SOL    MW429302   5.125   4.325   5.545 -0.6508 -0.1200  0.5781
 7383SOL     OW29303   5.355   2.717   2.820 -0.1578  0.4285  0.4541
 7383SOL    HW229304   5.375   2.746   2.731 -1.4951  2.1002  0.6613
 7383SOL    HW329305   5.356   2.621   2.815 -0.2223  0.4989 -1.3508
 7383SOL    MW429306   5.358   2.708   2.808  0.8039 -0.6763  0.2136
 7384SOL     OW29307   3.757   0.421   3.870  0.0181  0.1234 -0.5710
 7384SOL    HW229308   3.709   0.485   3.816 -0.2966  0.3986  0.0291
 7384SOL    HW329309   3.848   0.430   3.841 -0.3538 -0.8531 -2.1735
 7384SOL    MW429310   3.763   0.431   3.859 -0.1853  0.3347 -0.5014
 7385SOL     OW29311   2.426   4.060   2.360 -0.0989  0.0422  0.1642
 7385SOL    HW229312   2.355   4.055   2.424  0.1296  2.5517  0.6979
 7385SOL    HW329313   2.503   4.081   2.412  0.4337  0.4503 -0.7688
 7385SOL    MW429314   2.427   4.062   2.376  0.0851 -0.6037 -0.0540
 7386SOL     OW29315   4.738   3.598   3.317  0.1295 -0.6107  1.4120
 7386SOL    HW229316   4.813   3.589   3.258 -0.7028 -0.4806  0.3126
 7386SOL    HW329317   4.725   3.692   3.325 -2.8374 -0.4640 -2.3254
 7386SOL    MW429318   4.747   3.609   3.310  0.5945  0.3556  0.1489
 7387SOL     OW29319   0.446   1.146   5.880  0.0831  0.8377  0.5339
 7387SOL    HW229320   0.412   1.132   5.791  0.6866  0.8964  0.2888
 7387SOL    HW329321   0.370   1.175   5.930 -0.1521  1.3387 -0.0899
 7387SOL    MW429322   0.431   1.148   5.875 -0.1921  0.3868  0.1814
 7388SOL     OW29323   1.298   0.868   0.927  0.6963 -0.2582  0.1215
 7388SOL    HW229324   1.213   0.852   0.886  0.1341 -0.7946  1.4199
 7388SOL    HW329325   1.291   0.825   1.013  2.6576 -1.2572 -0.1566
 7388SOL    MW429326   1.286   0.860   0.933  0.0257  0.6871  0.2252
 7389SOL     OW29327   1.944   3.577   0.541 -0.0064  0.2448 -0.2447
 7389SOL    HW229328   1.862   3.587   0.492  0.5585  0.3427 -1.2110
 7389SOL    HW329329   1.955   3.482   0.552 -0.7236  0.2653  0.7440
 7389SOL    MW429330   1.935   3.566   0.536  0.3110  0.4570 -0.2396
 7390SOL     OW29331   1.045   2.212   0.804  0.1356 -0.2712  0.0834
 7390SOL    HW229332   1.126   2.217   0.753 -0.1019  0.8109 -0.2026
 7390SOL    HW329333   1.035   2.119   0.824  0.4166 -0.6686 -1.5478
 7390SOL    MW429334   1.054   2.200   0.800  0.2564 -0.4069  0.6641
 7391SOL     OW29335   0.508   2.314   6.021  0.9773 -0.0192 -0.2287
 7391SOL    HW229336   0.493   2.221   6.006 -0.0186  0.1275 -0.2207
 7391SOL    HW329337   0.523   2.321   6.115 -0.6469  0.0219  0.0501
 7391SOL    MW429338   0.508   2.303   6.031 -0.2826  0.2575  0.9904
 7392SOL     OW29339   0.927   6.162   4.592 -0.1135 -0.4063 -0.2856
 7392SOL    HW229340   0.859   6.223   4.564 -0.3896 -0.7828 -0.4372
 7392SOL    HW329341   0.943   6.185   4.684 -1.5844 -1.3476  0.2403
 7392SOL    MW429342   0.920   6.173   4.601  0.6707 -0.1442 -0.5555
 7393SOL     OW29343   2.546   5.524   5.195  0.0448 -0.1734 -0.1220
 7393SOL    HW229344   2.638   5.552   5.185  0.2858 -0.4396  1.1865
 7393SOL    HW329345   2.550   5.449   5.254 -0.9821 -0.5502 -0.5070
 7393SOL    MW429346   2.559   5.518   5.201  0.3562 -0.1902  0.3185
 7394SOL     OW29347   4.136   0.702   1.136  0.4967 -0.8218 -0.5790
 7394SOL    HW229348   4.148   0.743   1.050  0.8070  0.3657  0.0043
 7394SOL    HW329349   4.203   0.742   1.191  0.2258 -1.4833  0.2526
 7394SOL    MW429350   4.147   0.713   1.132 -0.3373  0.1234  0.0410
 7395SOL     OW29351   5.127   2.192   3.975  0.1545 -0.0796 -0.5386
 7395SOL    HW229352   5.146   2.230   3.890  0.0190 -1.9900 -1.4784
 7395SOL    HW329353   5.178   2.244   4.037  2.2373 -0.1508 -2.0799
 7395SOL    MW429354   5.136   2.204   3.972  0.1629  0.4907  0.7154
 7396SOL     OW29355   3.134   5.428   5.429  0.6170  0.3491 -0.6834
 7396SOL    HW229356   3.112   5.337   5.411 -1.0093  0.2308  1.4826
 7396SOL    HW329357   3.196   5.452   5.360  3.5044 -3.2863  0.3446
 7396SOL    MW429358   3.139   5.420   5.417 -0.0193  0.7323  0.0137
 7397SOL     OW29359   5.574   5.276   5.015 -0.6517  0.4294 -0.2376
 7397SOL    HW229360   5.667   5.280   4.995 -0.0692 -1.1858  1.8297
 7397SOL    HW329361   5.564   5.199   5.070 -2.6822  2.2273  2.1713
 7397SOL    MW429362   5.585   5.266   5.020  0.2089 -0.0480 -0.4222
 7398SOL     OW29363   3.982   1.256   3.002  0.2988 -0.0252  0.1574
 7398SOL    HW229364   4.070   1.251   3.041  0.5203  1.7079 -0.0362
 7398SOL    HW329365   3.990   1.323   2.934 -1.1069 -0.0647 -0.0664
 7398SOL    MW429366   3.995   1.265   2.999 -0.3996  0.0669  0.3465
 7399SOL     OW29367   3.051   6.378   3.185  0.6792 -0.6690  0.2147
 7399SOL    HW229368   3.020   6.340   3.267  0.2958  0.4464  0.6106
 7399SOL    HW329369   3.014   6.322   3.117  0.9677 -1.5853  0.7883
 7399SOL    MW429370   3.042   6.366   3.187  0.2942 -0.0314 -0.1926
 7400SOL     OW29371   2.644   1.879   4.942  0.7582 -0.4635  0.0880
 7400SOL    HW229372   2.645   1.784   4.930  2.1464 -0.7327  1.8907
 7400SOL    HW329373   2.697   1.912   4.870  0.0515 -0.9994 -0.7085
 7400SOL    MW429374   2.651   1.871   4.931  0.0963 -0.0226 -0.3044
 7401SOL     OW29375   1.886   0.330   6.050 -0.0302 -0.1942 -0.8698
 7401SOL    HW229376   1.920   0.243   6.025  0.5549  0.4807 -2.5913
 7401SOL    HW329377   1.957   0.369   6.102  0.6465  0.0820 -1.9725
 7401SOL    MW429378   1.900   0.323   6.054  0.8897 -0.1081  0.4607
 7402SOL     OW29379   4.866   1.184   4.632 -0.0090  0.0509  0.3441
 7402SOL    HW229380   4.899   1.184   4.542 -0.7242 -2.6489 -0.0183
 7402SOL    HW329381   4.777   1.150   4.625 -0.2268  0.1747  2.0495
 7402SOL    MW429382   4.859   1.179   4.619  0.6772  0.5205  0.2256
 7403SOL     OW29383   2.409   3.557   4.127 -0.5004  0.3312 -0.4251
 7403SOL    HW229384   2.493   3.603   4.135  0.8057 -2.0845  1.1009
 7403SOL    HW329385   2.433   3.466   4.110 -2.8136 -0.4844  0.2856
 7403SOL    MW429386   2.423   3.551   4.126  0.0279 -0.0245  0.4444
 7404SOL     OW29387   2.452   6.190   3.253  0.0658  0.1162 -0.0677
 7404SOL    HW229388   2.389   6.176   3.323 -1.3269  0.4439 -1.1988
 7404SOL    HW329389   2.518   6.248   3.291 -0.2035 -0.3721  1.1981
 7404SOL    MW429390   2.453   6.196   3.267 -0.0278  0.7935  0.7329
 7405SOL     OW29391   0.894   4.935   3.545 -0.2515  0.2311 -0.1428
 7405SOL    HW229392   0.896   5.028   3.567 -0.1885  0.3978 -0.8118
 7405SOL    HW329393   0.931   4.931   3.456  1.5356 -0.6576  0.5959
 7405SOL    MW429394   0.899   4.946   3.536  0.6247 -0.1254 -0.0159
 7406SOL     OW29395   0.109   0.760   0.785  0.1284 -0.1751  0.1982
 7406SOL    HW229396   0.064   0.744   0.702 -0.6344  1.0196  0.3507
 7406SOL    HW329397   0.202   0.753   0.765 -0.0752 -0.7838 -0.5512
 7406SOL    MW429398   0.115   0.757   0.772  0.4230  0.6347  0.0641
 7407SOL     OW29399   1.868   3.864   2.233  0.0240 -0.1152 -0.3575
 7407SOL    HW229400   1.958   3.842   2.211 -0.2429 -1.1713 -0.4437
 7407SOL    HW329401   1.815   3.804   2.182 -0.7245  0.2510 -0.0352
 7407SOL    MW429402   1.873   3.853   2.224 -0.1542  0.1186  1.0007
 7408SOL     OW29403   2.870   4.569   4.270  0.0747  0.0246  0.4686
 7408SOL    HW229404   2.788   4.570   4.320  0.2945 -1.5657  0.9126
 7408SOL    HW329405   2.911   4.486   4.293  0.7224 -0.2509 -1.5121
 7408SOL    MW429406   2.865   4.558   4.279 -0.8083 -0.1027 -0.4204
 7409SOL     OW29407   1.022   2.402   4.880 -0.0155 -0.1944  0.2389
 7409SOL    HW229408   1.012   2.495   4.903 -1.4506 -0.4130  0.5893
 7409SOL    HW329409   0.960   2.388   4.809  2.0844 -0.3025 -1.6949
 7409SOL    MW429410   1.013   2.413   4.873 -0.4601  0.0784 -0.3648
 7410SOL     OW29411   0.902   0.313   5.225 -0.2479 -0.1026 -0.1888
 7410SOL    HW229412   0.866   0.278   5.143  1.2488  0.1628 -0.9840
 7410SOL    HW329413   0.828   0.311   5.285 -0.7125 -2.9073 -0.7181
 7410SOL    MW429414   0.887   0.308   5.222 -0.5186 -0.2254  1.3526
 7411SOL     OW29415   2.404   1.201   6.277 -0.4069  0.6273  0.5623
 7411SOL    HW229416   2.426   1.254   6.200 -0.7787 -0.0867 -0.0541
 7411SOL    HW329417   2.456   1.121   6.266  0.6501  1.1016  1.8175
 7411SOL    MW429418   2.414   1.198   6.265  0.0426 -0.1801  0.4207
 7412SOL     OW29419   3.213   5.954   3.522 -0.2285  0.0002 -0.1343
 7412SOL    HW229420   3.192   5.861   3.512  0.6259 -0.1770 -0.3318
 7412SOL    HW329421   3.176   5.995   3.443  0.5185 -0.3711 -0.6816
 7412SOL    MW429422   3.205   5.947   3.510  0.3389  0.0573  0.4725
 7413SOL     OW29423   4.226   2.673   3.639 -0.5837  0.4761 -0.0026
 7413SOL    HW229424   4.298   2.685   3.700  1.3610 -0.3014 -2.0128
 7413SOL    HW329425   4.181   2.758   3.638  0.5390  1.1029  0.9999
 7413SOL    MW429426   4.229   2.686   3.647  0.1851  0.1904  0.0498
 7414SOL     OW29427   4.079   0.257   0.226  0.2340  0.4210  0.2549
 7414SOL    HW229428   4.045   0.253   0.136  0.7478  0.9754  0.0290
 7414SOL    HW329429   4.013   0.307   0.274  0.0326  0.2574  0.1532
 7414SOL    MW429430   4.065   0.263   0.220 -0.0628 -0.2605  0.0917
 7415SOL     OW29431   0.473   0.040   2.736 -0.4952 -0.7341 -0.0083
 7415SOL    HW229432   0.417   0.118   2.734  0.6585  0.0995 -1.1180
 7415SOL    HW329433   0.470   0.006   2.647 -0.6671 -1.7410  0.3718
 7415SOL    MW429434   0.465   0.046   2.724  1.0565  0.7358 -0.7357
 7416SOL     OW29435   0.621   2.013   4.437  0.1376  0.1505  0.2441
 7416SOL    HW229436   0.711   1.993   4.463  0.1344  0.7423  0.7316
 7416SOL    HW329437   0.571   2.011   4.518 -0.5636 -1.4917 -0.1851
 7416SOL    MW429438   0.626   2.011   4.451  0.3700  0.1214 -0.1525
 7417SOL     OW29439   0.773   0.097   4.084 -0.0063  0.2625 -0.3315
 7417SOL    HW229440   0.759   0.129   4.173 -0.6155 -0.5182 -0.1300
 7417SOL    HW329441   0.864   0.066   4.084  0.4288  1.5020 -0.3914
 7417SOL    MW429442   0.783   0.097   4.096  0.2932  0.0321 -0.1817
 7418SOL     OW29443   5.575   2.101   1.619  0.5982  0.2030 -0.9338
 7418SOL    HW229444   5.495   2.152   1.629  0.1464 -0.4030 -1.3235
 7418SOL    HW329445   5.546   2.018   1.581  1.1352 -0.8579  0.8279
 7418SOL    MW429446   5.561   2.097   1.615  0.0687  0.3558 -0.3326
 7419SOL     OW29447   0.055   0.931   2.689 -0.1689 -0.5516  0.1155
 7419SOL    HW229448   0.020   0.880   2.762 -1.0470  1.1326  0.9375
 7419SOL    HW329449   0.017   1.018   2.701 -1.0204 -0.4256 -2.8395
 7419SOL    MW429450   0.045   0.936   2.700  0.5057  0.1616 -0.4447
 7420SOL     OW29451   3.305   0.555   6.187  0.3780  0.0373 -0.2230
 7420SOL    HW229452   3.334   0.560   6.096 -0.3008 -0.5880 -0.4932
 7420SOL    HW329453   3.373   0.505   6.231 -1.4235 -3.9902 -1.4504
 7420SOL    MW429454   3.318   0.549   6.181  0.7264 -0.1635 -0.1907
 7421SOL     OW29455   3.980   1.479   5.050  0.8823 -0.1557  0.5412
 7421SOL    HW229456   3.982   1.562   5.096  1.4177  0.0048  0.2342
 7421SOL    HW329457   4.029   1.419   5.106  0.4713 -0.2796  0.7772
 7421SOL    MW429458   3.987   1.482   5.064  0.3420 -0.3931 -0.1960
 7422SOL     OW29459   5.207   6.171   3.410 -0.1186 -0.1758  0.2789
 7422SOL    HW229460   5.241   6.185   3.322 -1.3246 -0.6353 -0.2826
 7422SOL    HW329461   5.284   6.174   3.466  0.6606  0.1905 -0.7829
 7422SOL    MW429462   5.221   6.173   3.406  0.2483  1.0841  0.1310
 7423SOL     OW29463   3.259   0.963   5.359 -0.4261  0.4602  0.7309
 7423SOL    HW229464   3.306   1.001   5.284 -0.4189  0.2681  0.6381
 7423SOL    HW329465   3.169   0.954   5.328 -0.6041  1.1525  1.0236
 7423SOL    MW429466   3.253   0.967   5.345  0.3817  0.1123 -0.0946
 7424SOL     OW29467   2.409   5.316   2.554 -0.0863  0.1379  0.2931
 7424SOL    HW229468   2.396   5.315   2.649  0.9099  2.4983  0.5206
 7424SOL    HW329469   2.344   5.378   2.522 -0.7448 -1.0107 -0.6682
 7424SOL    MW429470   2.399   5.324   2.562 -0.0977  0.8976  0.5136
 7425SOL     OW29471   1.654   4.082   5.959 -0.7424  0.0520 -0.1322
 7425SOL    HW229472   1.626   4.042   5.877  0.5830 -0.1391 -0.5161
 7425SOL    HW329473   1.654   4.176   5.941 -1.7672  0.1177  0.1012
 7425SOL    MW429474   1.650   4.089   5.946  0.5417 -0.2711  0.5798
 7426SOL     OW29475   5.787   1.824   5.046 -0.5918 -0.4993 -0.6400
 7426SOL    HW229476   5.712   1.766   5.060 -0.0152 -1.5116 -1.5202
 7426SOL    HW329477   5.863   1.771   5.071 -0.1223  0.2374 -0.4959
 7426SOL    MW429478   5.787   1.809   5.051  0.4329 -0.2489  0.2993
 7427SOL     OW29479   1.483   1.921   3.381  0.1022 -0.0182  0.4062
 7427SOL    HW229480   1.449   1.837   3.351  0.1411 -0.1546  0.7300
 7427SOL    HW329481   1.424   1.947   3.452  0.1321  0.1927  0.3548
 7427SOL    MW429482   1.471   1.913   3.387  0.4508 -0.0522  0.5360
 7428SOL     OW29483   5.700   2.897   5.711  0.7049 -0.4293 -0.1548
 7428SOL    HW229484   5.614   2.940   5.716  0.4889 -0.8188 -0.4303
 7428SOL    HW329485   5.700   2.855   5.625  1.4314  0.1114 -0.4311
 7428SOL    MW429486   5.689   2.897   5.700 -0.1084 -0.2620  0.0731
 7429SOL     OW29487   5.640   4.641   2.595  1.2882 -0.0233  0.6812
 7429SOL    HW229488   5.618   4.731   2.573 -1.1713 -0.9827 -1.2159
 7429SOL    HW329489   5.575   4.616   2.662  2.0416 -0.3612  1.3019
 7429SOL    MW429490   5.628   4.649   2.601  0.5978  0.2266  0.3041
 7430SOL     OW29491   1.314   0.764   1.194  0.3731  0.1064  0.1659
 7430SOL    HW229492   1.307   0.672   1.169  0.8998  0.0065  0.3653
 7430SOL    HW329493   1.282   0.767   1.284 -1.2962  0.4252 -0.4009
 7430SOL    MW429494   1.309   0.752   1.202 -0.1146 -0.3267 -0.3058
 7431SOL     OW29495   4.315   0.151   6.428  0.0174 -0.1029 -0.1087
 7431SOL    HW229496   4.345   0.072   6.383  0.0520 -0.1676  0.0264
 7431SOL    HW329497   4.322   0.129   6.521  2.2781  0.8875  0.0166
 7431SOL    MW429498   4.319   0.137   6.435 -0.2533  0.2694  0.3301
 7432SOL     OW29499   2.007   0.677   6.093 -0.6522 -0.3687 -0.0572
 7432SOL    HW229500   1.974   0.672   6.182 -4.1932 -0.0520 -1.2226
 7432SOL    HW329501   2.088   0.625   6.094 -0.3087  0.0285  3.3704
 7432SOL    MW429502   2.014   0.670   6.105  0.2239 -0.1578  0.1579
 7433SOL     OW29503   5.995   4.086   4.025 -0.1252 -0.6097 -0.0649
 7433SOL    HW229504   5.970   4.020   4.089  2.0669 -0.2880  1.2423
 7433SOL    HW329505   5.981   4.045   3.940 -1.5647 -1.6510  0.6442
 7433SOL    MW429506   5.990   4.072   4.022 -0.4942  0.4846 -0.4826
 7434SOL     OW29507   1.710   1.491   1.064 -0.4755 -0.1572 -0.0859
 7434SOL    HW229508   1.752   1.548   1.000 -0.1301  0.5936  0.7749
 7434SOL    HW329509   1.616   1.511   1.056 -0.2899  1.2435  0.8174
 7434SOL    MW429510   1.703   1.501   1.055 -0.3902  0.4414 -0.1894
 7435SOL     OW29511   0.870   3.549   3.634 -0.0987  0.0911 -0.1213
 7435SOL    HW229512   0.835   3.469   3.673 -1.5152  0.5807 -0.3588
 7435SOL    HW329513   0.870   3.532   3.540  2.8523 -0.8993 -0.0666
 7435SOL    MW429514   0.865   3.536   3.627 -0.2623 -0.0886  0.0739
 7436SOL     OW29515   3.120   3.390   3.763 -0.3904 -0.0282 -0.1791
 7436SOL    HW229516   3.138   3.459   3.700 -0.1469 -1.2309 -1.4715
 7436SOL    HW329517   3.049   3.339   3.724 -0.5242 -0.5576  0.7092
 7436SOL    MW429518   3.113   3.392   3.750  0.1874  0.3905  0.0985
 7437SOL     OW29519   4.182   2.203   1.158 -0.9407 -0.1091 -0.1613
 7437SOL    HW229520   4.104   2.258   1.168 -1.8186 -1.3789  0.2338
 7437SOL    HW329521   4.160   2.121   1.203  0.6498 -0.4790  0.0007
 7437SOL    MW429522   4.169   2.199   1.165 -0.8785 -0.5337 -0.0472
 7438SOL     OW29523   0.849   1.394   2.299 -0.2511 -0.0219  0.1491
 7438SOL    HW229524   0.810   1.446   2.228  0.5964 -0.2679 -0.5223
 7438SOL    HW329525   0.835   1.446   2.378 -2.9361 -0.6095  0.1756
 7438SOL    MW429526   0.842   1.408   2.300  0.0388  0.2105 -0.2952
 7439SOL     OW29527   0.470   1.360   3.896 -0.1569  0.2583 -0.1876
 7439SOL    HW229528   0.532   1.364   3.823 -0.4182  0.0961 -0.4250
 7439SOL    HW329529   0.384   1.357   3.853 -0.3291  0.5362  0.1375
 7439SOL    MW429530   0.467   1.360   3.881 -0.3583  0.5714  0.2343
 7440SOL     OW29531   4.836   4.539   3.601  0.4046 -0.1159  0.3565
 7440SOL    HW229532   4.841   4.560   3.694  2.5486 -1.4265  0.5907
 7440SOL    HW329533   4.752   4.576   3.573  0.6239  2.1001  2.3233
 7440SOL    MW429534   4.825   4.547   3.609  0.5072  0.0569  0.2233
 7441SOL     OW29535   0.233   1.431   2.868 -0.3663  0.2221  0.4198
 7441SOL    HW229536   0.223   1.414   2.775 -1.1271  0.3255  0.4782
 7441SOL    HW329537   0.144   1.441   2.901 -0.1000  0.3604  1.1270
 7441SOL    MW429538   0.220   1.430   2.860  0.3739  0.6704 -0.0834
 7442SOL     OW29539   3.204   0.785   1.224  0.2533 -0.5370 -0.1061
 7442SOL    HW229540   3.148   0.745   1.290  0.5224 -0.6894  0.0346
 7442SOL    HW329541   3.245   0.859   1.269 -1.7835  1.1980 -0.9278
 7442SOL    MW429542   3.202   0.789   1.239  0.0861  0.6049  0.5355
 7443SOL     OW29543   3.079   6.073   2.375  0.1104 -0.1874  0.1504
 7443SOL    HW229544   3.073   5.996   2.318 -1.2671  0.4092 -0.5578
 7443SOL    HW329545   3.163   6.112   2.353 -0.1633 -0.2643 -1.1013
 7443SOL    MW429546   3.089   6.068   2.364 -0.2268  0.0008  0.0566
 7444SOL     OW29547   0.938   5.413   1.119 -0.4614 -0.2143  0.2448
 7444SOL    HW229548   0.893   5.382   1.197 -0.8124  0.4210  0.3022
 7444SOL    HW329549   0.972   5.334   1.078 -3.3010 -1.0194 -0.8638
 7444SOL    MW429550   0.936   5.399   1.124 -0.5580  0.0816 -0.6445
 7445SOL     OW29551   5.928   4.197   2.032 -0.0912 -0.8356 -0.1481
 7445SOL    HW229552   5.938   4.146   1.951 -1.2557  0.8688 -1.4320
 7445SOL    HW329553   5.911   4.286   2.002 -0.5934 -0.1621  2.0026
 7445SOL    MW429554   5.927   4.202   2.017  0.0561  0.4540  0.3692
 7446SOL     OW29555   4.880   1.968   4.694 -0.0756 -0.0421 -0.0111
 7446SOL    HW229556   4.787   1.947   4.701 -0.1796  0.7291  1.6570
 7446SOL    HW329557   4.914   1.954   4.783  1.6884 -1.4905 -0.8501
 7446SOL    MW429558   4.872   1.963   4.707  0.5113 -0.6161  0.3841
 7447SOL     OW29559   1.052   1.585   0.268 -0.1072 -0.1983 -0.2766
 7447SOL    HW229560   1.085   1.634   0.192 -0.5176  0.4032 -0.0707
 7447SOL    HW329561   0.987   1.525   0.232 -0.7159  0.4811 -0.3408
 7447SOL    MW429562   1.048   1.583   0.253 -0.2592 -0.2620  0.8090
 7448SOL     OW29563   5.455   6.070   3.978 -0.0491  0.1041 -0.9123
 7448SOL    HW229564   5.485   6.161   3.974 -1.5594  0.6503 -0.8118
 7448SOL    HW329565   5.527   6.022   4.019 -0.2909  1.7950  1.7601
 7448SOL    MW429566   5.468   6.076   3.983  0.3885 -0.8632 -0.0184
 7449SOL     OW29567   6.102   3.434   6.175  0.7579 -0.1537 -0.1627
 7449SOL    HW229568   6.048   3.501   6.133  0.8305  0.6767  1.0059
 7449SOL    HW329569   6.055   3.352   6.162 -1.3148  0.6549  1.6045
 7449SOL    MW429570   6.089   3.432   6.168 -0.4533 -0.2878  0.0373
 7450SOL     OW29571   4.998   3.265   3.868 -0.0855  0.2725  0.0082
 7450SOL    HW229572   4.918   3.257   3.817 -0.0433  0.4640 -0.0908
 7450SOL    HW329573   4.998   3.356   3.898 -0.0478  0.1930  0.2453
 7450SOL    MW429574   4.988   3.276   3.865  0.2242  0.0456  0.3119
 7451SOL     OW29575   2.763   4.750   5.823  0.3246  0.1665  0.0486
 7451SOL    HW229576   2.757   4.711   5.910  0.8101  0.1727  0.0876
 7451SOL    HW329577   2.823   4.692   5.775  0.1523  0.2279 -0.2437
 7451SOL    MW429578   2.770   4.737   5.828  0.2730 -0.3649 -0.2731
 7452SOL     OW29579   2.218   4.113   1.427 -0.1496  0.9854 -0.0751
 7452SOL    HW229580   2.286   4.131   1.362 -0.1047  0.9618 -0.0350
 7452SOL    HW329581   2.248   4.157   1.507  1.7227 -2.0261  1.0741
 7452SOL    MW429582   2.231   4.121   1.429 -0.3917 -0.3397 -0.8487
 7453SOL     OW29583   2.869   4.560   5.357 -0.3846 -0.2280 -0.7873
 7453SOL    HW229584   2.919   4.640   5.371  2.9487 -2.3454  0.6548
 7453SOL    HW329585   2.853   4.557   5.262  2.9786  0.2897 -1.4852
 7453SOL    MW429586   2.873   4.570   5.346 -0.1094  0.1907  0.3328
 7454SOL     OW29587   1.048   2.139   2.368  0.2069 -0.6011 -0.4786
 7454SOL    HW229588   0.968   2.178   2.333  1.1022  0.4342 -1.4444
 7454SOL    HW329589   1.083   2.204   2.429  0.6371 -0.7782 -0.5300
 7454SOL    MW429590   1.042   2.153   2.372  0.1977 -0.3596  0.4037
 7455SOL     OW29591   0.062   5.202   3.601  0.6154 -0.8395  0.4588
 7455SOL    HW229592   0.085   5.119   3.644 -3.7519 -1.8582  1.3728
 7455SOL    HW329593  -0.027   5.219   3.631  0.8299  3.5569 -0.8197
 7455SOL    MW429594   0.053   5.193   3.611 -0.4900 -0.7926 -0.0761
 7456SOL     OW29595   3.822   3.042   4.242 -0.4469 -0.4423  0.2325
 7456SOL    HW229596   3.817   3.000   4.156 -0.3702 -1.9341  0.9283
 7456SOL    HW329597   3.775   2.983   4.300 -1.3998  1.0708  1.0461
 7456SOL    MW429598   3.815   3.029   4.238 -0.6060 -0.1845 -0.5048
 7457SOL     OW29599   0.776   6.248   0.075 -0.0739  0.0671  0.2291
 7457SOL    HW229600   0.692   6.262   0.119 -1.4120 -2.6383 -1.1795
 7457SOL    HW329601   0.809   6.167   0.113  0.7350 -0.1449 -0.8954
 7457SOL    MW429602   0.769   6.239   0.086  0.0552  0.1867  0.0881
 7458SOL     OW29603   4.172   1.188   2.519  0.4279 -0.0954 -0.5613
 7458SOL    HW229604   4.236   1.119   2.504 -0.9135 -0.9974 -2.4334
 7458SOL    HW329605   4.124   1.160   2.597  0.4278 -0.8710 -0.8387
 7458SOL    MW429606   4.174   1.176   2.528  0.2715 -0.7228  0.2740
 7459SOL     OW29607   4.221   0.880   0.613 -0.2364  0.4551 -0.0902
 7459SOL    HW229608   4.314   0.898   0.606  0.1035 -1.1352 -0.1197
 7459SOL    HW329609   4.210   0.844   0.701 -0.7026  0.0087 -0.3249
 7459SOL    MW429610   4.232   0.878   0.624 -0.0819  0.3619  0.7012
 7460SOL     OW29611   0.906   5.601   3.831  0.3544  0.6052  0.2391
 7460SOL    HW229612   0.899   5.655   3.910  1.2694  1.1586 -0.0485
 7460SOL    HW329613   0.907   5.511   3.864 -1.4991  0.7141  0.7038
 7460SOL    MW429614   0.905   5.596   3.846  0.1779  0.0703  0.3381
 7461SOL     OW29615   4.342   5.200   2.016  0.4968 -0.0870 -0.0884
 7461SOL    HW229616   4.286   5.241   2.082  2.1503  1.4496  0.4395
 7461SOL    HW329617   4.356   5.112   2.048  1.2335  0.6222  1.6433
 7461SOL    MW429618   4.336   5.194   2.029  0.3066  0.2727  0.1835
 7462SOL     OW29619   0.908   0.226   1.153  0.4553  0.0262 -0.0671
 7462SOL    HW229620   0.972   0.180   1.207  0.7924  1.3825  0.7401
 7462SOL    HW329621   0.948   0.311   1.136  0.1572 -0.2016 -2.1224
 7462SOL    MW429622   0.922   0.231   1.158  0.1904 -0.0990 -0.5581
 7463SOL     OW29623   2.926   1.905   2.575 -0.3211  0.4624 -0.8270
 7463SOL    HW229624   2.986   1.834   2.550  0.0761  0.2199  0.7272
 7463SOL    HW329625   2.864   1.863   2.635  0.4175  1.5852  0.7710
 7463SOL    MW429626   2.926   1.890   2.580 -1.0179  0.6306 -0.0426
 7464SOL     OW29627   1.299   1.949   0.583 -0.3000  0.7142 -0.1290
 7464SOL    HW229628   1.306   1.867   0.535 -0.0594  0.2362  0.7106
 7464SOL    HW329629   1.348   1.934   0.664 -1.7585  1.0658  0.8540
 7464SOL    MW429630   1.307   1.936   0.587 -0.0815 -0.4941  0.3091
 7465SOL     OW29631   5.104   5.666   2.587 -0.3410 -0.2577  0.0891
 7465SOL    HW229632   5.110   5.663   2.491  0.0118  0.3306  0.0867
 7465SOL    HW329633   5.081   5.757   2.606 -0.8323 -0.4728  0.5428
 7465SOL    MW429634   5.102   5.678   2.576  0.2159  0.2707  0.0404
 7466SOL     OW29635   5.714   4.720   3.305 -0.3570  0.0643  0.3593
 7466SOL    HW229636   5.710   4.680   3.218  0.5851  0.4096  0.1376
 7466SOL    HW329637   5.769   4.660   3.356 -1.9463 -0.8121  1.1193
 7466SOL    MW429638   5.721   4.706   3.300  0.0451 -0.2960 -0.3224
 7467SOL     OW29639   5.095   3.229   4.750  0.9216  0.2566  0.1222
 7467SOL    HW229640   5.102   3.248   4.843  1.1698  0.2748  0.1014
 7467SOL    HW329641   5.001   3.232   4.731  0.9384  1.3489  0.1431
 7467SOL    MW429642   5.083   3.232   4.760 -0.3281  0.1719  0.4105
 7468SOL     OW29643   4.604   5.759   2.680 -0.4258 -0.2596 -0.2454
 7468SOL    HW229644   4.525   5.807   2.705  1.0728  1.7443  0.9347
 7468SOL    HW329645   4.630   5.712   2.759  1.8580  2.5617  0.8689
 7468SOL    MW429646   4.597   5.759   2.694 -0.0289  0.1165  0.0335
 7469SOL     OW29647   1.422   0.665   3.355  0.4270 -0.1762  0.2628
 7469SOL    HW229648   1.449   0.593   3.412 -1.9087 -1.6999 -0.3852
 7469SOL    HW329649   1.356   0.626   3.297  1.5105  1.6808 -2.4345
 7469SOL    MW429650   1.417   0.650   3.355  1.2621 -0.3501  0.1023
 7470SOL     OW29651   6.213   3.179   0.068  0.0488 -0.3988 -0.1559
 7470SOL    HW229652   6.307   3.178   0.082  0.4158  0.6216 -2.1007
 7470SOL    HW329653   6.184   3.090   0.089  1.4380 -0.7244  0.4643
 7470SOL    MW429654   6.221   3.167   0.072 -0.2527  1.2235  0.5332
 7471SOL     OW29655   4.324   2.921   6.371 -0.3420  0.3125 -0.2363
 7471SOL    HW229656   4.412   2.912   6.333 -1.0632 -1.6760 -1.6361
 7471SOL    HW329657   4.332   2.992   6.433  2.3820 -0.0762 -0.0073
 7471SOL    MW429658   4.337   2.929   6.374 -0.0721 -0.2042 -0.1750
 7472SOL     OW29659   2.929   6.089   4.166 -0.4454 -0.3410 -0.7540
 7472SOL    HW229660   2.976   6.124   4.242 -1.0731  0.3526 -0.6765
 7472SOL    HW329661   2.998   6.071   4.102 -0.0743  0.9260 -0.7488
 7472SOL    MW429662   2.945   6.092   4.168 -0.3443 -0.3741 -0.2253
 7473SOL     OW29663   5.653   5.799   0.135 -0.1141 -0.5317 -0.2960
 7473SOL    HW229664   5.653   5.708   0.164 -2.8164 -1.0222 -1.4736
 7473SOL    HW329665   5.579   5.839   0.181  0.4217  0.8103 -0.5439
 7473SOL    MW429666   5.643   5.792   0.145  0.3225  0.1856 -0.0805
 7474SOL     OW29667   0.510   0.244   0.369 -0.1086 -0.4096 -0.3195
 7474SOL    HW229668   0.573   0.285   0.310  1.5113  0.2046  1.7368
 7474SOL    HW329669   0.428   0.291   0.354 -0.3868 -1.6296 -3.4970
 7474SOL    MW429670   0.508   0.255   0.359  0.1095  0.0245  0.6827
 7475SOL     OW29671   1.203   0.302   0.491 -0.3234  0.0393  0.3610
 7475SOL    HW229672   1.184   0.394   0.474  0.6207  0.3526  0.9174
 7475SOL    HW329673   1.291   0.303   0.529 -0.5127 -1.0476  0.8477
 7475SOL    MW429674   1.212   0.314   0.494  0.1433  0.1198  0.1376
 7476SOL     OW29675   3.972   4.047   2.614  0.2826  0.4037  0.5405
 7476SOL    HW229676   3.890   4.092   2.596  0.4989  0.6196  0.0850
 7476SOL    HW329677   3.946   3.961   2.648 -0.1615 -0.4194 -1.7111
 7476SOL    MW429678   3.958   4.041   2.616  0.5384  0.0364  0.4344
 7477SOL     OW29679   1.034   3.262   0.592  0.3492  0.5348  0.5807
 7477SOL    HW229680   0.992   3.242   0.676  0.9033 -3.8816 -0.0041
 7477SOL    HW329681   0.965   3.248   0.527  0.8455  0.4895  0.0567
 7477SOL    MW429682   1.019   3.258   0.595  0.2937 -0.3233 -0.6739
 7478SOL     OW29683   2.518   2.228   0.473  0.0258  0.7826  0.1065
 7478SOL    HW229684   2.507   2.202   0.381  0.5873  2.0863 -0.3579
 7478SOL    HW329685   2.597   2.184   0.502 -1.4667 -1.6489  0.7828
 7478SOL    MW429686   2.527   2.219   0.465 -0.1063  0.2364 -0.1305
 7479SOL     OW29687   1.074   6.001   2.016  0.0240  0.3191 -0.2870
 7479SOL    HW229688   1.020   5.924   1.999  0.0490  0.3747 -0.6314
 7479SOL    HW329689   1.138   5.973   2.081 -0.3339  0.2141  0.0172
 7479SOL    MW429690   1.075   5.987   2.022 -0.1406 -0.1321 -0.5778
 7480SOL     OW29691   0.649   2.149   3.089 -0.1286 -0.1388 -0.3615
 7480SOL    HW229692   0.573   2.130   3.034  0.8916 -0.9144 -1.5514
 7480SOL    HW329693   0.689   2.064   3.105 -0.7985 -0.0722  2.2989
 7480SOL    MW429694   0.644   2.136   3.084  0.3437  0.1535 -0.1491
 7481SOL     OW29695   1.100   5.892   3.479 -0.5257 -0.3579  0.3529
 7481SOL    HW229696   1.086   5.983   3.451 -0.0223 -0.8634 -1.7714
 7481SOL    HW329697   1.187   5.892   3.517 -0.3237 -0.0167 -0.0931
 7481SOL    MW429698   1.109   5.904   3.480  0.1726 -0.0393 -0.5112
 7482SOL     OW29699   5.383   1.884   0.409  0.0064  0.1874 -0.3711
 7482SOL    HW229700   5.294   1.851   0.423 -0.0754  0.7266  0.3929
 7482SOL    HW329701   5.432   1.853   0.485  0.1472  1.0464 -0.1064
 7482SOL    MW429702   5.378   1.875   0.421 -0.3135 -0.2961  0.5152
 7483SOL     OW29703   4.479   4.410   2.983  0.1948 -0.3406  0.0803
 7483SOL    HW229704   4.395   4.389   2.944  0.6624 -0.2868 -1.0022
 7483SOL    HW329705   4.494   4.340   3.047 -1.0913  0.1813  0.9785
 7483SOL    MW429706   4.470   4.398   2.986  0.0147  0.2454 -0.1941
 7484SOL     OW29707   1.066   0.923   3.295 -0.4564  0.0597 -0.2651
 7484SOL    HW229708   1.047   0.989   3.229  2.2111  1.0666 -0.1414
 7484SOL    HW329709   1.005   0.942   3.366 -0.6611  1.5230 -0.8065
 7484SOL    MW429710   1.056   0.934   3.296  0.1629  0.4033  0.4515
 7485SOL     OW29711   2.403   0.278   4.517 -0.0202 -0.1698  0.5959
 7485SOL    HW229712   2.353   0.278   4.599  1.3629 -2.3021  1.5634
 7485SOL    HW329713   2.493   0.256   4.545  1.0927  1.7246 -1.2446
 7485SOL    MW429714   2.409   0.275   4.532  0.4215  0.3012 -0.4401
 7486SOL     OW29715   4.890   2.239   2.401 -0.3302  0.1787 -0.1813
 7486SOL    HW229716   4.967   2.183   2.385  0.9880  1.7116  0.4543
 7486SOL    HW329717   4.848   2.247   2.316  0.6999 -0.0210 -0.7268
 7486SOL    MW429718   4.895   2.233   2.388 -0.0029 -0.3698 -0.2323
 7487SOL     OW29719   4.174   4.785   2.678 -0.3011 -0.1372  0.0914
 7487SOL    HW229720   4.115   4.757   2.608 -1.9087 -0.4094  1.4899
 7487SOL    HW329721   4.257   4.741   2.658 -0.4597  0.4265 -2.0444
 7487SOL    MW429722   4.177   4.775   2.666 -0.2121  0.0273 -0.1116
 7488SOL     OW29723   5.160   4.466   3.207 -0.0619  0.1616  0.2515
 7488SOL    HW229724   5.203   4.551   3.198  0.1154  0.1624  1.0218
 7488SOL    HW329725   5.119   4.468   3.294 -2.8017  0.6900 -0.9236
 7488SOL    MW429726   5.160   4.477   3.218 -0.3084 -0.1198  0.2813
 7489SOL     OW29727   5.033   0.365   0.151  0.1126 -0.2755 -0.1398
 7489SOL    HW229728   5.036   0.444   0.205 -0.6878 -0.8451  0.7806
 7489SOL    HW329729   5.020   0.397   0.062 -1.2985  0.6232  0.3440
 7489SOL    MW429730   5.031   0.380   0.146 -0.4427  0.6275  0.4738
 7490SOL     OW29731   4.704   1.916   3.887 -0.1134 -0.1027  0.1291
 7490SOL    HW229732   4.752   1.998   3.898  0.2663  0.0081 -1.9148
 7490SOL    HW329733   4.767   1.856   3.847 -1.0287 -0.6364 -0.5803
 7490SOL    MW429734   4.718   1.919   3.883 -0.4496 -0.1916  0.7023
 7491SOL     OW29735   1.147   3.203   5.785  0.1167 -0.1291  0.3331
 7491SOL    HW229736   1.121   3.226   5.874 -1.4495  2.0111 -0.5911
 7491SOL    HW329737   1.133   3.109   5.780 -0.9187 -0.1093  2.0064
 7491SOL    MW429738   1.142   3.194   5.796 -0.0613 -0.6679 -0.4981
 7492SOL     OW29739   3.792   2.018   1.013  0.7432  0.3570 -0.1340
 7492SOL    HW229740   3.734   2.005   0.938  1.4412 -0.2575 -0.5803
 7492SOL    HW329741   3.864   1.955   1.000  1.3212  0.8411  0.5953
 7492SOL    MW429742   3.794   2.008   1.001  0.7452  0.7830 -0.2117
 7493SOL     OW29743   3.393   1.080   6.366  0.1358  0.0259 -0.2586
 7493SOL    HW229744   3.335   1.115   6.298 -1.0896  0.6774  1.0911
 7493SOL    HW329745   3.351   0.999   6.394  0.4088 -0.0170  0.0281
 7493SOL    MW429746   3.380   1.074   6.360 -0.2155  0.0941 -0.2277
 7494SOL     OW29747   2.141   3.829   1.162 -0.0684 -0.1787  0.0635
 7494SOL    HW229748   2.159   3.910   1.114 -3.8286  1.4355  1.0157
 7494SOL    HW329749   2.140   3.761   1.094 -0.9610  1.3001 -1.4963
 7494SOL    MW429750   2.143   3.831   1.147 -0.0651 -0.3487  0.5286
 7495SOL     OW29751   3.358   6.060   2.779  0.2336  0.1886 -0.3190
 7495SOL    HW229752   3.327   6.062   2.869  0.8727  1.4882 -0.1119
 7495SOL    HW329753   3.289   6.014   2.731  0.3322 -1.4246  0.9799
 7495SOL    MW429754   3.345   6.054   2.784  0.1332 -0.1268  1.1662
 7496SOL     OW29755   3.718   3.890   5.596  0.2781  0.1179  0.2029
 7496SOL    HW229756   3.629   3.924   5.587  0.0434 -0.4038  0.5184
 7496SOL    HW329757   3.751   3.886   5.506  0.1056  0.6375  0.1170
 7496SOL    MW429758   3.710   3.894   5.583  0.3246 -0.2204  0.2335
 7497SOL     OW29759   4.298   3.763   5.267 -0.3006  0.0540  0.6751
 7497SOL    HW229760   4.319   3.669   5.264 -2.2268 -0.4732  1.9360
 7497SOL    HW329761   4.373   3.802   5.312  0.9792 -0.6879 -0.7184
 7497SOL    MW429762   4.311   3.756   5.273 -0.3058  0.0244 -0.6886
 7498SOL     OW29763   3.151   3.030   2.552  0.3086 -0.5669  0.0847
 7498SOL    HW229764   3.128   2.974   2.478  0.2107  0.3343 -0.5827
 7498SOL    HW329765   3.245   3.017   2.564 -0.0734 -2.6550  1.4767
 7498SOL    MW429766   3.160   3.021   2.544 -0.0459  0.8100 -0.0246
 7499SOL     OW29767   6.159   1.696   6.374  0.6127 -0.0437  0.5575
 7499SOL    HW229768   6.199   1.613   6.348 -2.1334 -0.7902 -1.8000
 7499SOL    HW329769   6.123   1.679   6.461  0.0507 -1.3989  0.0898
 7499SOL    MW429770   6.159   1.683   6.382  0.3157  0.4329  0.4404
 7500SOL     OW29771   5.652   0.637   4.188 -0.8313  0.3530  0.0831
 7500SOL    HW229772   5.626   0.592   4.107 -2.2049  0.4543  0.4456
 7500SOL    HW329773   5.606   0.721   4.185 -2.1178 -0.2275  1.6239
 7500SOL    MW429774   5.642   0.642   4.177  0.4784  0.0156  0.2928
 7501SOL     OW29775   5.629   3.756   6.270  0.3035  0.1862  0.3948
 7501SOL    HW229776   5.599   3.844   6.250  1.8322  1.0589  1.6668
 7501SOL    HW329777   5.582   3.732   6.350  0.1975  0.0103  0.2810
 7501SOL    MW429778   5.619   3.764   6.278 -0.6082 -0.3249 -0.1825
 7502SOL     OW29779   2.361   3.271   4.690  0.2910 -0.0686  0.6165
 7502SOL    HW229780   2.455   3.290   4.693  0.6838 -1.5286 -0.9417
 7502SOL    HW329781   2.322   3.351   4.654  0.7487  0.9566  2.2626
 7502SOL    MW429782   2.368   3.284   4.686 -0.1014  0.0243  0.1096
 7503SOL     OW29783   4.228   5.067   3.194  0.0997  0.3040  0.5337
 7503SOL    HW229784   4.282   4.999   3.153  1.2183  1.7243 -0.4415
 7503SOL    HW329785   4.230   5.045   3.287  3.1778  0.7481  0.7016
 7503SOL    MW429786   4.236   5.055   3.201 -0.3623 -0.2487 -0.6524
 7504SOL     OW29787   5.497   5.716   5.539  0.5401  0.3211  0.3639
 7504SOL    HW229788   5.430   5.656   5.505 -0.3188 -1.1435  4.1119
 7504SOL    HW329789   5.563   5.659   5.578  2.5237  1.8140 -0.6224
 7504SOL    MW429790   5.497   5.701   5.539 -0.1863 -0.1175 -0.0565
 7505SOL     OW29791   4.350   4.358   4.532  0.5346  0.4413  0.2141
 7505SOL    HW229792   4.442   4.332   4.532  0.4065 -0.0500 -0.9208
 7505SOL    HW329793   4.352   4.450   4.559  1.1691 -0.0834  2.1550
 7505SOL    MW429794   4.362   4.367   4.536 -0.7359  0.4629 -0.5688
 7506SOL     OW29795   3.535   1.688   2.902 -0.1188  0.1365 -0.2581
 7506SOL    HW229796   3.616   1.652   2.938  0.1718  1.0239 -0.0076
 7506SOL    HW329797   3.556   1.779   2.881 -0.8592  0.1812 -0.8238
 7506SOL    MW429798   3.548   1.695   2.904 -0.2806 -0.4109 -0.1442
 7507SOL     OW29799   5.638   4.955   4.068 -0.5683 -0.3053 -0.4238
 7507SOL    HW229800   5.676   4.924   3.986  1.4430 -1.2061  0.7975
 7507SOL    HW329801   5.666   5.046   4.074 -2.0152  0.2515 -1.4213
 7507SOL    MW429802   5.647   4.963   4.058  0.3627  0.1636 -0.4635
 7508SOL     OW29803   4.448   4.017   1.833 -0.6871 -0.0211  0.6158
 7508SOL    HW229804   4.357   4.049   1.835 -0.7726 -0.1372 -0.7476
 7508SOL    HW329805   4.494   4.080   1.778 -0.0875 -0.3571  0.7290
 7508SOL    MW429806   4.442   4.030   1.826 -0.6411  0.1055  0.0543
 7509SOL     OW29807   0.920   6.171   2.194 -0.4672  0.8358 -0.0338
 7509SOL    HW229808   0.851   6.215   2.145 -2.6281 -1.7047  0.4970
 7509SOL    HW329809   0.972   6.126   2.128  0.0704  1.8919 -0.3528
 7509SOL    MW429810   0.918   6.171   2.179  0.7754  0.0328  0.4940
 7510SOL     OW29811   2.674   2.613   0.673  0.4345 -0.2436  0.1580
 7510SOL    HW229812   2.715   2.562   0.743  0.3918  0.9099  1.0507
 7510SOL    HW329813   2.590   2.568   0.658  1.1725 -1.5018 -0.3744
 7510SOL    MW429814   2.668   2.600   0.680  0.5170 -0.2623 -0.6512
 7511SOL     OW29815   0.911   1.112   1.136  0.1600 -0.1694  0.2950
 7511SOL    HW229816   0.839   1.073   1.185 -0.7251 -0.4136 -1.1332
 7511SOL    HW329817   0.886   1.204   1.124  1.3454  0.4380  2.0051
 7511SOL    MW429818   0.898   1.119   1.140  0.2013 -0.9350  0.1836
 7512SOL     OW29819   1.916   5.948   6.202 -0.0725 -0.0590 -0.2671
 7512SOL    HW229820   1.979   5.976   6.268 -1.7205 -0.4216  1.5557
 7512SOL    HW329821   1.927   6.011   6.130  1.7126  0.4019  0.3639
 7512SOL    MW429822   1.926   5.960   6.201 -0.3650  0.0181 -0.1508
 7513SOL     OW29823   0.119   3.590   2.500 -0.1735 -0.1815  0.0051
 7513SOL    HW229824   0.142   3.497   2.497  0.5444 -0.0291  0.6301
 7513SOL    HW329825   0.201   3.635   2.482 -0.6386  0.3374 -0.9159
 7513SOL    MW429826   0.133   3.584   2.497 -0.3916 -0.2882  0.2565
 7514SOL     OW29827   5.391   1.984   5.435 -0.1688  0.5309  0.2970
 7514SOL    HW229828   5.411   1.952   5.523 -2.2863 -0.4765  0.4918
 7514SOL    HW329829   5.397   2.079   5.443  2.7862  0.3920  0.6399
 7514SOL    MW429830   5.394   1.992   5.448 -0.2597 -0.2347  0.2044
 7515SOL     OW29831   2.278   4.475   4.795  0.6541  0.2407 -0.4240
 7515SOL    HW229832   2.304   4.531   4.722 -1.0073 -0.3260 -1.5105
 7515SOL    HW329833   2.206   4.522   4.838 -1.0817 -1.1489 -1.6251
 7515SOL    MW429834   2.272   4.488   4.791 -0.2810 -0.4737  1.1576
 7516SOL     OW29835   3.338   1.477   0.093  0.3366 -0.2805 -0.0028
 7516SOL    HW229836   3.337   1.545   0.161  1.5796 -0.1773 -0.0576
 7516SOL    HW329837   3.413   1.500   0.038 -0.5716 -0.4319 -1.3623
 7516SOL    MW429838   3.348   1.489   0.095 -0.2759 -0.1189  0.1893
 7517SOL     OW29839   3.399   1.853   6.161 -0.4524  0.7100 -0.4083
 7517SOL    HW229840   3.351   1.872   6.080 -1.0096 -0.0469 -0.2663
 7517SOL    HW329841   3.337   1.875   6.231 -0.2864  0.5359 -0.2064
 7517SOL    MW429842   3.384   1.858   6.159  0.5485 -0.2212 -0.2487
 7518SOL     OW29843   3.901   5.942   5.368  0.3063  0.2263 -0.3417
 7518SOL    HW229844   3.881   6.008   5.434 -2.1834 -0.0756 -0.7003
 7518SOL    HW329845   3.906   5.860   5.417  1.5822  0.4018 -0.1462
 7518SOL    MW429846   3.899   5.940   5.383 -0.0001  0.1933  0.2941
 7519SOL     OW29847   2.349   1.836   5.213 -0.7871 -0.0484  0.3072
 7519SOL    HW229848   2.409   1.771   5.252  2.0646  1.1223 -1.8217
 7519SOL    HW329849   2.378   1.919   5.250  0.1932  0.7440 -2.0887
 7519SOL    MW429850   2.361   1.838   5.223 -0.3905  0.1634  0.4328
 7520SOL     OW29851   4.450   2.619   1.020 -0.1641  0.0941  0.1797
 7520SOL    HW229852   4.544   2.601   1.011 -0.5058 -1.0372 -1.6790
 7520SOL    HW329853   4.442   2.713   1.007  0.6336  0.0463 -0.8352
 7520SOL    MW429854   4.462   2.629   1.017 -0.3984 -0.2961 -0.3868
 7521SOL     OW29855   2.439   0.813   1.690 -0.0697 -0.4498  0.1442
 7521SOL    HW229856   2.468   0.816   1.599 -0.2460  0.6027  0.1111
 7521SOL    HW329857   2.353   0.857   1.689 -1.0923 -2.3385  0.4532
 7521SOL    MW429858   2.431   0.819   1.678 -0.2881  0.2418  0.6633
 7522SOL     OW29859   1.032   5.119   4.957 -0.1294  0.4669 -0.2398
 7522SOL    HW229860   1.042   5.027   4.983 -0.3827  0.5195  0.0479
 7522SOL    HW329861   1.006   5.164   5.038 -4.6378  0.0316 -1.1607
 7522SOL    MW429862   1.029   5.113   4.971  0.0726  0.0450 -0.6846
 7523SOL     OW29863   5.342   0.417   6.410 -0.1251  0.9998  0.4415
 7523SOL    HW229864   5.301   0.385   6.491  0.7388 -0.3826  0.3544
 7523SOL    HW329865   5.293   0.375   6.340  1.6873 -1.1328  0.3415
 7523SOL    MW429866   5.330   0.408   6.412 -0.1561 -0.2736  0.3202
 7524SOL     OW29867   3.303   3.587   1.978  0.3720 -0.3918  0.1248
 7524SOL    HW229868   3.223   3.623   2.017 -0.8491 -1.3183 -1.4139
 7524SOL    HW329869   3.279   3.498   1.953  1.3523 -0.1248 -1.9297
 7524SOL    MW429870   3.289   3.580   1.980 -0.1551  0.1196 -0.2952
 7525SOL     OW29871   4.557   2.096   4.204 -0.8354 -0.0292 -0.3761
 7525SOL    HW229872   4.487   2.153   4.237 -1.1743 -0.2880 -0.6439
 7525SOL    HW329873   4.512   2.030   4.152 -0.5755 -1.2039  0.8173
 7525SOL    MW429874   4.542   2.095   4.202  0.1270 -0.0835  0.3332
 7526SOL     OW29875   2.351   4.146   3.743 -0.2540  0.1395  0.0936
 7526SOL    HW229876   2.256   4.148   3.728 -0.2909  0.4705  0.3823
 7526SOL    HW329877   2.363   4.084   3.815 -0.2182 -0.1613 -0.1665
 7526SOL    MW429878   2.340   4.138   3.750  0.3021  0.6563  0.1922
 7527SOL     OW29879   5.847   6.435   0.579 -0.0716 -0.2862  0.4933
 7527SOL    HW229880   5.829   6.342   0.566 -1.0648 -0.3264  1.9102
 7527SOL    HW329881   5.833   6.449   0.673  2.2862  0.8209  0.7521
 7527SOL    MW429882   5.843   6.425   0.590  0.1413 -0.3732  0.3017
 7528SOL     OW29883   0.411   5.791   5.905  0.0559  0.4661 -0.2931
 7528SOL    HW229884   0.468   5.761   5.976  0.5791  0.7415 -0.5829
 7528SOL    HW329885   0.336   5.732   5.908 -0.1302  0.7330  0.7497
 7528SOL    MW429886   0.409   5.779   5.915 -0.0957  0.1903  0.3372
 7529SOL     OW29887   4.903   6.142   1.425  0.4999 -0.5704 -0.0567
 7529SOL    HW229888   4.976   6.088   1.394  2.3606  1.7766 -0.0486
 7529SOL    HW329889   4.826   6.104   1.385  1.6943 -3.1402 -0.1196
 7529SOL    MW429890   4.903   6.130   1.416 -0.0601 -0.1477  0.3236
 7530SOL     OW29891   0.244   5.551   0.258  0.2757 -0.3309  0.3509
 7530SOL    HW229892   0.150   5.533   0.264  0.2002 -1.2962 -2.4516
 7530SOL    HW329893   0.280   5.511   0.337 -1.4383 -1.6630  0.5284
 7530SOL    MW429894   0.236   5.544   0.269  0.0384 -0.6958  0.4996
 7531SOL     OW29895   6.070   5.341   4.641  0.7915 -0.2269  0.2059
 7531SOL    HW229896   6.164   5.351   4.660  0.8582 -0.4170 -0.0277
 7531SOL    HW329897   6.056   5.391   4.561  0.7405 -0.4064  0.1041
 7531SOL    MW429898   6.081   5.349   4.633  0.6444 -0.0088  0.1418
 7532SOL     OW29899   0.714   5.319   1.278  0.3121 -0.2337  0.1553
 7532SOL    HW229900   0.721   5.332   1.373 -0.6651  1.9985 -0.0135
 7532SOL    HW329901   0.621   5.308   1.262  0.3078  0.8822 -0.6729
 7532SOL    MW429902   0.703   5.320   1.289  0.5656 -0.1671 -0.1776
 7533SOL     OW29903   0.087   3.503   6.419  0.3258 -0.5215  0.4345
 7533SOL    HW229904   0.112   3.506   6.327 -0.3471 -0.9432  0.2339
 7533SOL    HW329905   0.023   3.574   6.429 -1.8639 -2.3007 -0.1362
 7533SOL    MW429906   0.082   3.513   6.408  0.2418  0.1415  0.6755
 7534SOL     OW29907   5.736   3.599   0.504  0.3194  0.3915  0.6370
 7534SOL    HW229908   5.641   3.613   0.504  0.1479 -0.5835  1.3650
 7534SOL    HW329909   5.751   3.543   0.581  1.5548  0.9615  0.8309
 7534SOL    MW429910   5.725   3.593   0.514 -0.2250  0.2405  0.1951
 7535SOL     OW29911   6.184   3.196   4.343  0.0553 -0.3897 -0.6602
 7535SOL    HW229912   6.193   3.117   4.290 -1.2163  1.4172 -3.8777
 7535SOL    HW329913   6.091   3.216   4.341  0.3025  1.0297  0.3587
 7535SOL    MW429914   6.173   3.188   4.336  0.2921 -0.0018  0.4863
 7536SOL     OW29915   4.142   2.453   3.757  0.2338  0.3389 -0.4051
 7536SOL    HW229916   4.177   2.387   3.697 -0.2166  1.3744 -1.8563
 7536SOL    HW329917   4.155   2.536   3.712  1.0330  1.3133  1.5012
 7536SOL    MW429918   4.149   2.455   3.743  0.5730 -0.0316 -0.0531
 7537SOL     OW29919   2.671   2.913   0.909  0.0261 -0.0705 -0.7918
 7537SOL    HW229920   2.741   2.935   0.847  0.1099 -1.7298 -1.3253
 7537SOL    HW329921   2.681   2.820   0.926 -0.7786  0.0920  0.7815
 7537SOL    MW429922   2.681   2.904   0.903  0.7183  0.0068  0.1467
 7538SOL     OW29923   0.175   5.403   5.658 -0.6552 -0.1886 -0.0358
 7538SOL    HW229924   0.168   5.472   5.592  1.6225 -1.0491 -1.2842
 7538SOL    HW329925   0.140   5.326   5.615 -2.8366  0.0239  1.2241
 7538SOL    MW429926   0.169   5.402   5.644  0.0112  0.2959  0.6760
 7539SOL     OW29927   2.128   0.344   1.681  0.0921  0.0655 -0.9019
 7539SOL    HW229928   2.223   0.356   1.687  0.2353 -1.5857  1.0380
 7539SOL    HW329929   2.091   0.429   1.707  0.9878  0.9295 -2.3170
 7539SOL    MW429930   2.136   0.357   1.685  0.1076  0.1149 -0.1394
 7540SOL     OW29931   5.391   5.953   0.757  0.2633  0.2958 -0.2239
 7540SOL    HW229932   5.369   5.925   0.668 -0.4005  1.8597 -0.5978
 7540SOL    HW329933   5.481   5.984   0.752 -0.3027  1.9728 -0.8086
 7540SOL    MW429934   5.400   5.953   0.745  0.3546  0.2410  0.3558
 7541SOL     OW29935   5.936   2.683   3.901 -0.1302 -0.2225  0.3819
 7541SOL    HW229936   5.965   2.763   3.856 -1.3846 -0.3867 -0.7816
 7541SOL    HW329937   5.844   2.699   3.923 -0.2502 -1.1394  0.6056
 7541SOL    MW429938   5.928   2.696   3.898  0.5698  0.0293 -0.4379
 7542SOL     OW29939   5.616   0.414   0.042 -1.1034  0.1814 -0.2517
 7542SOL    HW229940   5.628   0.320   0.060 -1.4355  0.2568  0.3615
 7542SOL    HW329941   5.525   0.422   0.016 -0.9904  0.2898 -0.6238
 7542SOL    MW429942   5.606   0.402   0.041  0.3932  0.4455  0.0864
 7543SOL     OW29943   6.420   0.276   4.584  0.3134  0.6132 -0.2359
 7543SOL    HW229944   6.355   0.339   4.554  1.2878  2.3516  1.1125
 7543SOL    HW329945   6.499   0.328   4.600  1.0603 -0.8691  1.2771
 7543SOL    MW429946   6.422   0.291   4.583  0.0907  0.0292  0.5410
 7544SOL     OW29947   5.448   3.021   5.788  0.3300  0.2183  0.1637
 7544SOL    HW229948   5.354   3.020   5.803  0.6114 -0.5945  2.1080
 7544SOL    HW329949   5.480   3.095   5.840  1.0118 -0.8998  1.3868
 7544SOL    MW429950   5.440   3.031   5.796 -0.4987 -0.3433 -0.1039
 7545SOL     OW29951   2.844   1.656   0.496 -0.0420 -0.3466  0.1511
 7545SOL    HW229952   2.789   1.728   0.527 -0.1123 -0.0451 -0.6557
 7545SOL    HW329953   2.784   1.582   0.490  0.0005 -0.4439  0.8527
 7545SOL    MW429954   2.829   1.656   0.499 -0.0944 -0.4592 -0.5168
 7546SOL     OW29955   0.770   2.790   2.385 -0.1135  0.7417 -0.0433
 7546SOL    HW229956   0.773   2.814   2.292  1.6954  2.4071  0.3809
 7546SOL    HW329957   0.757   2.873   2.430 -0.6596 -0.0147  1.2190
 7546SOL    MW429958   0.769   2.804   2.378 -0.4276 -0.1800 -0.2266
 7547SOL     OW29959   3.756   1.093   1.377 -0.2694 -0.2931  0.0542
 7547SOL    HW229960   3.837   1.140   1.355 -0.4714 -0.4018 -0.9883
 7547SOL    HW329961   3.700   1.160   1.416  0.3486 -0.2327  0.8581
 7547SOL    MW429962   3.760   1.108   1.379  0.0003 -0.1916  0.7065
 7548SOL     OW29963   0.542   1.363   2.343 -0.4705  0.5327  0.2507
 7548SOL    HW229964   0.499   1.446   2.322 -1.7852 -0.3717 -0.8535
 7548SOL    HW329965   0.621   1.362   2.288 -1.0070  0.6043 -0.5345
 7548SOL    MW429966   0.547   1.374   2.333 -0.1120  0.3600 -0.2265
 7549SOL     OW29967   5.253   2.827   3.690  0.1363  0.1764  0.0363
 7549SOL    HW229968   5.299   2.870   3.618 -0.8064 -0.1238 -0.7603
 7549SOL    HW329969   5.172   2.877   3.701  0.0032 -0.1299  0.5003
 7549SOL    MW429970   5.248   2.839   3.682 -0.2498  0.6200 -0.4133
 7550SOL     OW29971   0.790   4.854   5.351 -0.0820 -0.6203 -0.1011
 7550SOL    HW229972   0.849   4.781   5.334 -0.1779 -0.6606 -0.2555
 7550SOL    HW329973   0.758   4.880   5.265 -1.8700 -1.8944  0.1205
 7550SOL    MW429974   0.794   4.848   5.337  0.1378 -0.0081  0.2546
 7551SOL     OW29975   0.180   1.400   0.786 -0.7829 -0.3730 -0.4712
 7551SOL    HW229976   0.254   1.382   0.728  0.3210 -0.7775  1.0046
 7551SOL    HW329977   0.189   1.492   0.809  0.2478 -0.8140  0.9960
 7551SOL    MW429978   0.191   1.409   0.781 -0.3431 -0.0884 -0.2064
 7552SOL     OW29979   3.725   3.705   3.007 -0.4155  0.1388  0.4177
 7552SOL    HW229980   3.653   3.644   3.024  0.4903 -0.8855  0.6863
 7552SOL    HW329981   3.800   3.666   3.052  0.8444  0.0271 -1.6648
 7552SOL    MW429982   3.726   3.692   3.015 -0.1192 -1.1695  1.0264
 7553SOL     OW29983   4.571   0.630   0.144  0.6379  0.4817  0.0727
 7553SOL    HW229984   4.591   0.550   0.094  1.5781  1.2482 -0.8190
 7553SOL    HW329985   4.575   0.602   0.235  1.3093 -0.4223 -0.2147
 7553SOL    MW429986   4.574   0.615   0.149 -0.0817  0.2057 -0.0261
 7554SOL     OW29987   1.526   2.104   5.563  0.6642 -0.3534 -0.3211
 7554SOL    HW229988   1.619   2.086   5.570  0.4832 -0.5375  3.6306
 7554SOL    HW329989   1.483   2.033   5.610 -1.1399  1.6628  1.3199
 7554SOL    MW429990   1.532   2.093   5.570  0.6848  0.0089  0.5004
 7555SOL     OW29991   0.829   4.383   2.575 -0.0505  0.0625 -0.0944
 7555SOL    HW229992   0.851   4.290   2.573 -0.3707  0.0027 -1.2353
 7555SOL    HW329993   0.907   4.427   2.541 -0.0402  0.1863  0.0861
 7555SOL    MW429994   0.842   4.377   2.571 -0.4215 -0.1463 -0.3814
 7556SOL     OW29995   3.340   5.076   6.097  0.1875  0.1496 -0.0592
 7556SOL    HW229996   3.255   5.032   6.095  0.3072 -0.1358  0.7478
 7556SOL    HW329997   3.370   5.066   6.187  0.5256  1.3132 -0.0244
 7556SOL    MW429998   3.333   5.069   6.108 -0.1809 -0.7171 -0.5021
 7557SOL     OW29999   2.336   6.300   5.685 -0.0049 -0.2042 -0.5502
 7557SOL    HW230000   2.353   6.381   5.733  0.1200 -0.0608 -0.8347
 7557SOL    HW330001   2.304   6.239   5.752  0.4700 -0.1066 -0.2273
 7557SOL    MW430002   2.334   6.303   5.700 -0.4248  0.2751  0.1925
 7558SOL     OW30003   5.448   0.487   3.035  0.2103 -0.1712 -0.3195
 7558SOL    HW230004   5.519   0.500   3.098 -0.2779  1.4477 -0.0485
 7558SOL    HW330005   5.445   0.568   2.985 -0.0841 -1.0330 -1.7726
 7558SOL    MW430006   5.457   0.499   3.037  0.3913  0.3335 -0.1705
 7559SOL     OW30007   0.076   0.775   3.415  0.4367 -0.1905  0.1417
 7559SOL    HW230008   0.032   0.703   3.460 -0.6101 -0.7515 -1.6734
 7559SOL    HW330009   0.004   0.831   3.385  1.0382 -0.2117 -1.4017
 7559SOL    MW430010   0.060   0.773   3.417 -0.2424  0.0966  0.6594
 7560SOL     OW30011   5.295   3.491   3.945 -0.0859  0.1596  0.1717
 7560SOL    HW230012   5.348   3.531   4.014  0.0576 -0.0205  0.1683
 7560SOL    HW330013   5.204   3.504   3.973 -0.0114 -0.8534  0.9353
 7560SOL    MW430014   5.290   3.498   3.958  0.8230  0.3789  0.0652
 7561SOL     OW30015   4.764   0.497   1.854 -0.6565  0.0486  0.8315
 7561SOL    HW230016   4.785   0.590   1.864  2.6534  0.2090 -4.2346
 7561SOL    HW330017   4.806   0.455   1.930  1.8118  2.3311  0.8636
 7561SOL    MW430018   4.773   0.504   1.866 -0.1555 -0.1967  0.2104
 7562SOL     OW30019   0.008   0.736   0.102 -0.4083  0.7048 -0.0829
 7562SOL    HW230020  -0.021   0.661   0.050  0.3173  1.6115 -1.8909
 7562SOL    HW330021  -0.071   0.770   0.142 -0.5246 -2.1766  2.4966
 7562SOL    MW430022  -0.006   0.730   0.101 -0.5474 -0.2278 -0.0021
 7563SOL     OW30023   1.858   3.370   1.796  0.0186 -0.0831  0.5500
 7563SOL    HW230024   1.765   3.389   1.808  0.1701  0.5722  0.7279
 7563SOL    HW330025   1.897   3.384   1.883  0.3969  0.3512  0.3158
 7563SOL    MW430026   1.851   3.374   1.809  0.6597  0.1790  0.8251
 7564SOL     OW30027   0.599   1.586   5.253 -0.3700  0.1691 -0.4385
 7564SOL    HW230028   0.575   1.511   5.308  0.5473 -0.8715 -1.3984
 7564SOL    HW330029   0.614   1.658   5.315 -1.1860 -0.4618  0.5108
 7564SOL    MW430030   0.598   1.586   5.269 -0.1227  0.0552  0.4301
 7565SOL     OW30031   3.708   1.280   3.153  0.1413 -0.1094 -0.3791
 7565SOL    HW230032   3.715   1.222   3.228 -1.8277  0.8111  0.6026
 7565SOL    HW330033   3.724   1.223   3.077  1.6732 -1.1562  0.6841
 7565SOL    MW430034   3.711   1.265   3.153  0.7002  0.2094  0.4160
 7566SOL     OW30035   1.821   4.802   5.829  0.1744 -0.1476  0.0277
 7566SOL    HW230036   1.829   4.710   5.853  1.9594  0.4801  2.0727
 7566SOL    HW330037   1.830   4.803   5.733  0.6126 -2.0433  0.0224
 7566SOL    MW430038   1.823   4.790   5.819  0.4982 -0.4170 -0.3804
 7567SOL     OW30039   4.358   4.416   1.161  0.2308 -0.4863 -0.2224
 7567SOL    HW230040   4.310   4.453   1.235  0.0257  1.9481 -1.4696
 7567SOL    HW330041   4.298   4.423   1.087  1.2213 -0.7081 -1.0842
 7567SOL    MW430042   4.344   4.422   1.161  0.1049  0.5374 -0.0211
 7568SOL     OW30043   5.951   4.916   2.512  0.4304  0.0845 -0.6801
 7568SOL    HW230044   6.029   4.970   2.499  0.6143 -0.0170 -0.0595
 7568SOL    HW330045   5.929   4.928   2.605 -0.6515  0.5870 -0.9920
 7568SOL    MW430046   5.959   4.924   2.523  0.1508 -0.4799 -0.5941
 7569SOL     OW30047   0.818   1.861   6.363 -0.0424  0.4659 -0.2746
 7569SOL    HW230048   0.756   1.792   6.338 -0.2690  0.2225  0.8862
 7569SOL    HW330049   0.841   1.904   6.281 -3.7427  2.2874 -0.5352
 7569SOL    MW430050   0.813   1.857   6.349 -0.1708  0.2273 -0.3874
 7570SOL     OW30051   1.964   2.170   5.322  0.4488 -0.0390  0.6234
 7570SOL    HW230052   1.947   2.262   5.343  1.2623  0.2408  0.0608
 7570SOL    HW330053   1.911   2.152   5.244 -0.6328 -0.3948  1.4051
 7570SOL    MW430054   1.955   2.179   5.315 -0.2800  0.2354  0.3276
 7571SOL     OW30055   4.400   1.930   6.403  0.0640  0.0982 -0.3135
 7571SOL    HW230056   4.373   1.847   6.444  0.6463  0.7803  1.5429
 7571SOL    HW330057   4.432   1.904   6.317 -1.8180 -1.3327 -0.6699
 7571SOL    MW430058   4.400   1.915   6.397 -0.3680 -0.3160  0.6588
 7572SOL     OW30059   5.301   6.308   5.397  0.0879 -0.3361  0.2317
 7572SOL    HW230060   5.213   6.337   5.420  0.1519 -0.3764  0.5395
 7572SOL    HW330061   5.298   6.213   5.410 -0.2498 -0.5374 -1.1960
 7572SOL    MW430062   5.289   6.299   5.402  0.1912 -0.1952 -0.4249
 7573SOL     OW30063   6.111   0.862   2.812 -0.4820 -0.3295 -0.1289
 7573SOL    HW230064   6.119   0.947   2.856  0.6519  0.0404 -0.9850
 7573SOL    HW330065   6.188   0.813   2.839  0.1962 -0.1264 -1.5856
 7573SOL    MW430066   6.122   0.867   2.821  0.0001 -0.1359 -0.3059
 7574SOL     OW30067   2.404   5.014   1.756 -0.4108 -0.2503 -0.3150
 7574SOL    HW230068   2.431   5.104   1.778 -0.9349 -0.7277  2.7720
 7574SOL    HW330069   2.449   4.960   1.820 -0.4038 -2.2086 -1.8868
 7574SOL    MW430070   2.414   5.019   1.767 -0.0244  0.8640 -0.1079
 7575SOL     OW30071   2.438   5.102   1.237 -0.3470  0.3414  0.4656
 7575SOL    HW230072   2.359   5.081   1.287 -0.4022 -1.1110 -0.1750
 7575SOL    HW330073   2.443   5.197   1.239 -1.1799  0.3924  1.9389
 7575SOL    MW430074   2.428   5.112   1.244 -1.0654  0.5846  0.4597
 7576SOL     OW30075   3.323   3.205   5.212  0.2491 -0.3043  0.5305
 7576SOL    HW230076   3.269   3.246   5.280  1.3769  1.0520  0.6477
 7576SOL    HW330077   3.389   3.271   5.191  0.1458 -0.8236 -1.6499
 7576SOL    MW430078   3.324   3.219   5.218  0.6672  0.1708  0.2276
 7577SOL     OW30079   2.260   3.760   6.017 -0.3776  0.2837  0.2558
 7577SOL    HW230080   2.209   3.784   6.094 -0.1419 -1.3940  0.9730
 7577SOL    HW330081   2.347   3.740   6.051 -0.0687  0.2204 -0.5514
 7577SOL    MW430082   2.265   3.761   6.031  0.2904 -0.3397  0.0769
 7578SOL     OW30083   3.622   3.700   6.305  0.6164  0.0723 -0.3512
 7578SOL    HW230084   3.584   3.678   6.220 -0.0502 -1.5694  0.3098
 7578SOL    HW330085   3.624   3.795   6.307 -0.0339  0.1499 -1.9118
 7578SOL    MW430086   3.617   3.709   6.294 -0.1274  0.3538 -0.0144
 7579SOL     OW30087   1.608   3.597   2.935  0.4918 -0.1307  0.1232
 7579SOL    HW230088   1.657   3.666   2.891  0.3562  0.0630  0.2725
 7579SOL    HW330089   1.628   3.517   2.886  1.8984 -0.2756  0.8924
 7579SOL    MW430090   1.617   3.595   2.923 -0.2651  0.2639  0.2107
 7580SOL     OW30091   3.699   6.339   6.154  0.5958  0.0894 -0.5521
 7580SOL    HW230092   3.772   6.282   6.179  0.6947 -0.2227 -1.4957
 7580SOL    HW330093   3.708   6.347   6.059 -0.0682  0.7921 -0.5556
 7580SOL    MW430094   3.710   6.332   6.144 -0.4360  0.3743  0.1060
 7581SOL     OW30095   4.794   2.898   4.900  0.3467 -0.4516  0.3872
 7581SOL    HW230096   4.741   2.977   4.890  2.2125  0.7409 -0.7949
 7581SOL    HW330097   4.735   2.833   4.938 -1.3113  1.4356  1.1647
 7581SOL    MW430098   4.779   2.900   4.903 -0.8450 -0.7163 -0.0378
 7582SOL     OW30099   2.758   3.346   4.641 -0.0467 -0.3168  0.2261
 7582SOL    HW230100   2.708   3.305   4.712  1.4351  0.6312  1.8964
 7582SOL    HW330101   2.842   3.302   4.641  0.2968  0.3203 -0.3430
 7582SOL    MW430102   2.762   3.335   4.650 -0.1973  0.6557 -0.6851
 7583SOL     OW30103   6.369   2.112   5.022  0.5762  0.1572  0.0373
 7583SOL    HW230104   6.452   2.064   5.030  1.1099  1.0881  0.2276
 7583SOL    HW330105   6.381   2.169   4.946  0.4250  0.8810  0.5405
 7583SOL    MW430106   6.381   2.113   5.013 -0.4347 -0.5304  0.0906
 7584SOL     OW30107   0.192   0.967   2.247 -0.0410 -0.2550 -0.0539
 7584SOL    HW230108   0.153   0.914   2.317  0.6511 -1.5221 -0.5817
 7584SOL    HW330109   0.250   1.027   2.292 -0.0073 -0.6984  0.5052
 7584SOL    MW430110   0.194   0.968   2.262 -0.1981 -0.1347 -0.4924
 7585SOL     OW30111   3.697   4.925   4.582  0.5485  0.0203 -0.7740
 7585SOL    HW230112   3.634   4.963   4.522  1.5272  0.7252 -1.3977
 7585SOL    HW330113   3.700   4.832   4.559 -1.0387 -0.2620  0.0082
 7585SOL    MW430114   3.689   4.918   4.571 -0.5880  0.3913 -0.4772
 7586SOL     OW30115   3.087   4.555   2.514  0.1234  0.2179 -0.4898
 7586SOL    HW230116   3.057   4.641   2.543 -0.7900 -0.8466  2.0663
 7586SOL    HW330117   3.103   4.507   2.596 -1.0566 -2.5725 -1.7852
 7586SOL    MW430118   3.085   4.560   2.529 -0.4142  0.2239  0.2113
 7587SOL     OW30119   5.973   1.595   0.382  0.3838 -0.0653 -0.3630
 7587SOL    HW230120   5.932   1.559   0.303 -0.1940  1.2795 -0.6937
 7587SOL    HW330121   5.902   1.597   0.446  0.4358  0.3720 -0.3169
 7587SOL    MW430122   5.958   1.590   0.380 -0.2009  0.6878 -0.0228
 7588SOL     OW30123   5.680   0.917   0.574 -0.2830  0.1631  0.3547
 7588SOL    HW230124   5.670   0.830   0.612 -0.1548 -1.3236 -2.6835
 7588SOL    HW330125   5.774   0.925   0.557 -0.3843  0.6097 -0.0163
 7588SOL    MW430126   5.692   0.907   0.577  0.1217 -0.4664 -0.5073
 7589SOL     OW30127   4.360   2.173   6.035 -0.1649  0.1162  0.2834
 7589SOL    HW230128   4.421   2.172   5.960 -0.4698 -0.9289  0.0358
 7589SOL    HW330129   4.303   2.248   6.017 -1.4305 -1.1974 -1.5414
 7589SOL    MW430130   4.361   2.183   6.023  0.3187  0.4033 -0.0376
 7590SOL     OW30131   0.643   3.063   4.052  0.6532 -0.1393 -0.5235
 7590SOL    HW230132   0.619   3.154   4.070  1.9911  0.1283 -0.0435
 7590SOL    HW330133   0.605   3.014   4.124  1.4942  0.2768  0.2156
 7590SOL    MW430134   0.635   3.069   4.064 -0.1867 -0.0244 -0.2863
 7591SOL     OW30135   3.448   2.478   3.253 -0.5372 -0.2269 -0.5906
 7591SOL    HW230136   3.497   2.513   3.179 -2.2821  1.0522 -1.2194
 7591SOL    HW330137   3.421   2.556   3.303  0.9704 -1.0660  1.6898
 7591SOL    MW430138   3.451   2.493   3.250 -0.9750  0.6929 -0.6874
 7592SOL     OW30139   6.310   0.410   4.896 -0.1792 -0.0629  0.4515
 7592SOL    HW230140   6.380   0.383   4.955  0.0005  1.0631  0.7831
 7592SOL    HW330141   6.292   0.333   4.843  0.8532 -0.5678  0.8121
 7592SOL    MW430142   6.317   0.397   4.897 -0.1756 -0.5798  0.3773
 7593SOL     OW30143   5.419   5.657   6.054 -0.1135  0.2054 -0.2061
 7593SOL    HW230144   5.436   5.700   5.970 -0.4442 -0.1016 -0.4349
 7593SOL    HW330145   5.505   5.628   6.084  0.5238  3.2456  1.2047
 7593SOL    MW430146   5.433   5.659   6.047 -0.2729 -0.2197 -0.2776
 7594SOL     OW30147   3.627   4.947   5.467 -0.4327  0.3111 -0.2722
 7594SOL    HW230148   3.707   4.999   5.459 -0.0927  0.3947  2.6762
 7594SOL    HW330149   3.558   5.011   5.479 -0.4018  0.1633  0.7401
 7594SOL    MW430150   3.628   4.962   5.467  0.2106  0.0628  0.3811
 7595SOL     OW30151   4.459   3.679   3.095  0.4599  0.2773  0.1314
 7595SOL    HW230152   4.516   3.603   3.104  0.0746  0.1006  1.3150
 7595SOL    HW330153   4.397   3.654   3.027 -0.8351 -1.2871  1.7714
 7595SOL    MW430154   4.458   3.666   3.087  0.5566 -0.4871  0.1113
 7596SOL     OW30155   3.093   0.564   5.838  0.3498 -0.8626  0.7357
 7596SOL    HW230156   3.082   0.562   5.743 -1.3042  1.4637  0.7931
 7596SOL    HW330157   3.133   0.650   5.856 -1.2264 -0.3777  2.2319
 7596SOL    MW430158   3.097   0.575   5.828  0.0929  0.0034 -0.3176
 7597SOL     OW30159   2.786   0.929   4.709  0.4052 -0.5745  0.0330
 7597SOL    HW230160   2.750   0.923   4.620 -0.6983  0.8720  0.3448
 7597SOL    HW330161   2.858   0.866   4.710 -0.5558 -1.7707 -1.3997
 7597SOL    MW430162   2.790   0.920   4.697  0.0838 -0.1360  0.1976
 7598SOL     OW30163   3.734   3.041   0.530 -0.2158 -0.2730 -0.2119
 7598SOL    HW230164   3.800   3.110   0.521 -1.0389  0.4387 -0.9385
 7598SOL    HW330165   3.719   3.011   0.441  0.0015 -1.2772  0.0827
 7598SOL    MW430166   3.741   3.046   0.517  0.1119 -0.5631  0.0711
 7599SOL     OW30167   2.685   5.968   4.993  0.0120 -0.5547 -0.0828
 7599SOL    HW230168   2.636   5.938   5.069 -0.3002  0.9346  0.3484
 7599SOL    HW330169   2.741   5.895   4.969  1.5849 -0.4226  2.7961
 7599SOL    MW430170   2.686   5.954   5.000 -0.0539 -0.3791  0.4543
 7600SOL     OW30171   2.241   2.799   4.422 -0.1886  0.3118 -0.1557
 7600SOL    HW230172   2.231   2.885   4.463  1.3797  0.1887  0.5652
 7600SOL    HW330173   2.298   2.815   4.346  1.1290 -0.2526  0.6833
 7600SOL    MW430174   2.247   2.812   4.417  0.1675  0.3292 -0.3508
 7601SOL     OW30175   4.515   4.848   3.796  0.2868 -0.1929  0.5410
 7601SOL    HW230176   4.599   4.843   3.842  1.3173 -0.4081 -1.2522
 7601SOL    HW330177   4.461   4.779   3.836  2.2778 -2.6237 -0.6687
 7601SOL    MW430178   4.519   4.838   3.807  0.0968 -0.3925 -0.4560
 7602SOL     OW30179   3.791   4.206   0.070  0.1508  0.0069  1.1505
 7602SOL    HW230180   3.756   4.238   0.153 -1.1805 -2.5387  1.6729
 7602SOL    HW330181   3.771   4.112   0.069  0.1134 -0.0851 -2.0389
 7602SOL    MW430182   3.784   4.198   0.080 -0.4712  0.4366 -0.4579
 7603SOL     OW30183   4.272   6.240   3.671 -0.1988  0.2053  0.5872
 7603SOL    HW230184   4.285   6.166   3.731 -0.3670 -0.6690 -0.4095
 7603SOL    HW330185   4.354   6.246   3.622 -0.4599  0.1632  0.1347
 7603SOL    MW430186   4.284   6.231   3.672  0.2951  0.3182  0.3660
 7604SOL     OW30187   1.050   1.875   4.375  0.2104  0.0225 -0.6381
 7604SOL    HW230188   0.973   1.861   4.431  0.9393 -1.6343  0.0067
 7604SOL    HW330189   1.117   1.818   4.412  2.3368  2.6557 -0.1360
 7604SOL    MW430190   1.049   1.866   4.387 -0.2174  0.1686 -0.7155
 7605SOL     OW30191   5.876   2.122   6.239 -0.0197  0.3587 -0.8732
 7605SOL    HW230192   5.804   2.069   6.273  0.3934  0.3164 -0.0382
 7605SOL    HW330193   5.940   2.059   6.207  0.0620  0.3736 -0.7400
 7605SOL    MW430194   5.875   2.107   6.239  0.1073  0.1491 -0.0439
 7606SOL     OW30195   2.849   1.602   3.678 -0.0826 -0.2595  0.9851
 7606SOL    HW230196   2.906   1.629   3.606 -0.7414 -1.0267  0.1493
 7606SOL    HW330197   2.901   1.538   3.727 -0.0983 -0.7118  0.4195
 7606SOL    MW430198   2.863   1.597   3.675  0.5548  0.3209  0.0322
 7607SOL     OW30199   5.488   4.629   2.819 -0.4882  0.0529 -0.0364
 7607SOL    HW230200   5.540   4.708   2.832  0.4786 -0.6779  0.6038
 7607SOL    HW330201   5.397   4.660   2.822 -0.1514  0.9915  1.2317
 7607SOL    MW430202   5.483   4.644   2.821 -0.0298  0.0720  0.5324
 7608SOL     OW30203   5.941   3.594   0.094 -0.1644 -0.0149  0.4554
 7608SOL    HW230204   6.019   3.547   0.065 -1.1838  0.0348 -2.7731
 7608SOL    HW330205   5.940   3.582   0.189  2.1146 -2.5610  0.3004
 7608SOL    MW430206   5.951   3.586   0.102  0.2135 -0.3641 -0.1256
 7609SOL     OW30207   2.712   2.387   2.897 -0.1220  0.0890 -0.1588
 7609SOL    HW230208   2.779   2.431   2.948  0.4199 -1.6846  0.7366
 7609SOL    HW330209   2.752   2.377   2.810  0.7153 -0.7836  0.3118
 7609SOL    MW430210   2.726   2.392   2.892  0.4574  0.1155  0.2718
 7610SOL     OW30211   2.492   5.232   5.892  0.1538  0.1771 -0.3908
 7610SOL    HW230212   2.415   5.217   5.837  1.0223  1.8743 -2.1932
 7610SOL    HW330213   2.547   5.155   5.875 -1.8658 -2.1699  2.5462
 7610SOL    MW430214   2.489   5.220   5.882 -0.2101  0.0071  0.4043
 7611SOL     OW30215   4.339   5.608   1.338  0.4795  0.1172  0.2234
 7611SOL    HW230216   4.306   5.567   1.418  0.0647 -2.3199 -1.1221
 7611SOL    HW330217   4.425   5.568   1.325  0.2727  0.0182 -0.8778
 7611SOL    MW430218   4.346   5.597   1.347  0.2128 -0.4818 -0.0615
 7612SOL     OW30219   3.782   4.384   3.102 -0.1513 -0.4040 -0.3538
 7612SOL    HW230220   3.733   4.327   3.161 -0.9620 -0.5349 -1.1387
 7612SOL    HW330221   3.872   4.351   3.107 -0.1838 -0.3710  0.8422
 7612SOL    MW430222   3.787   4.372   3.110  0.3959 -0.1093  0.0289
 7613SOL     OW30223   0.970   0.722   1.768 -0.1756  0.0117 -0.2216
 7613SOL    HW230224   0.921   0.795   1.806 -1.0411  0.5229 -2.2003
 7613SOL    HW330225   0.981   0.745   1.676  2.9240 -0.5724 -0.1307
 7613SOL    MW430226   0.965   0.734   1.761 -0.2609  0.0336  0.3842
 7614SOL     OW30227   0.156   2.040   4.414  0.3883  0.1372  0.4706
 7614SOL    HW230228   0.174   2.068   4.504  0.8598 -1.0657  0.7690
 7614SOL    HW330229   0.134   1.947   4.421 -1.4307  0.4455 -0.4563
 7614SOL    MW430230   0.156   2.031   4.427  0.2531 -0.1021  0.1780
 7615SOL     OW30231   3.524   3.289   3.461 -0.3273 -0.3562 -0.3080
 7615SOL    HW230232   3.453   3.275   3.524  0.6293  1.3125  1.2516
 7615SOL    HW330233   3.604   3.281   3.513  0.5726 -0.3515 -1.6333
 7615SOL    MW430234   3.525   3.286   3.476  0.0162 -0.0629 -0.1240
 7616SOL     OW30235   4.142   6.033   3.360 -0.2851 -0.0213 -0.2416
 7616SOL    HW230236   4.137   6.127   3.345 -0.9058  0.4408  2.3121
 7616SOL    HW330237   4.058   6.011   3.401  0.5798 -1.3091  0.9102
 7616SOL    MW430238   4.130   6.043   3.364  0.1460  0.0120 -0.6888
 7617SOL     OW30239   3.954   0.272   3.538 -0.3728 -0.3473 -0.3620
 7617SOL    HW230240   3.863   0.253   3.513 -0.9229 -1.3732  2.1954
 7617SOL    HW330241   3.982   0.339   3.475 -2.8722 -0.0301 -1.2444
 7617SOL    MW430242   3.946   0.279   3.526  1.1078  0.5511  0.6600
 7618SOL     OW30243   2.357   4.733   0.066  0.3514  0.1466 -0.2294
 7618SOL    HW230244   2.267   4.703   0.056  0.3492  0.0470  0.0937
 7618SOL    HW330245   2.369   4.743   0.160  0.7067  0.0728 -0.2658
 7618SOL    MW430246   2.347   4.730   0.077  0.4506  0.1096 -0.2227
 7619SOL     OW30247   1.183   5.474   1.872 -0.1035 -0.1105 -0.1236
 7619SOL    HW230248   1.131   5.539   1.825  0.1909 -0.2394 -0.6356
 7619SOL    HW330249   1.160   5.390   1.831  2.5893  0.0956 -2.3800
 7619SOL    MW430250   1.173   5.471   1.860  0.4337  0.6215  0.1254
 7620SOL     OW30251   5.142   2.595   4.598 -0.7693 -0.3218 -0.4486
 7620SOL    HW230252   5.212   2.531   4.580 -0.4647  0.2665 -1.4229
 7620SOL    HW330253   5.161   2.668   4.539 -1.2674  0.5632  0.4566
 7620SOL    MW430254   5.154   2.596   4.588  0.2296  0.0616  0.1052
 7621SOL     OW30255   3.741   3.541   1.987  0.3039  0.0023 -0.1934
 7621SOL    HW230256   3.710   3.499   1.906  0.6809  0.5866 -0.6503
 7621SOL    HW330257   3.661   3.553   2.039 -0.5258  2.6093 -1.8672
 7621SOL    MW430258   3.726   3.537   1.983  0.1744  0.0561  0.4340
 7622SOL     OW30259   0.824   2.914   2.099  0.9168 -0.4554 -0.0806
 7622SOL    HW230260   0.887   2.891   2.031  2.6631 -0.2098  1.3699
 7622SOL    HW330261   0.821   3.010   2.098  1.9049 -0.3834  0.9395
 7622SOL    MW430262   0.832   2.924   2.090 -0.7107 -0.0025  0.1550
 7623SOL     OW30263   0.332   5.213   2.663  0.2270 -0.0960 -0.2581
 7623SOL    HW230264   0.380   5.186   2.742 -0.4072 -3.9160 -0.9827
 7623SOL    HW330265   0.250   5.249   2.696  0.8356  0.3347  0.8428
 7623SOL    MW430266   0.327   5.214   2.678 -0.2570  0.1813 -0.2646
 7624SOL     OW30267   2.633   3.054   1.623 -0.2085  0.2973 -0.3456
 7624SOL    HW230268   2.619   3.011   1.538  0.3504  0.4108 -0.4965
 7624SOL    HW330269   2.557   3.029   1.675  0.0607 -0.8010 -0.4647
 7624SOL    MW430270   2.621   3.045   1.619 -0.4756  0.7462 -0.4564
 7625SOL     OW30271   0.928   4.982   0.002  0.7015  0.2941  0.8283
 7625SOL    HW230272   0.918   4.943   0.089  1.2221 -0.7761  0.4183
 7625SOL    HW330273   0.901   5.073   0.014 -1.1876 -0.3307  1.6564
 7625SOL    MW430274   0.923   4.989   0.015  0.4654 -0.4322 -1.0264
 7626SOL     OW30275   3.462   5.517   0.032  0.2575  0.1538  0.1278
 7626SOL    HW230276   3.535   5.578   0.023 -0.1513  0.4305 -1.8630
 7626SOL    HW330277   3.502   5.430   0.027  0.6883  0.2457  1.5708
 7626SOL    MW430278   3.477   5.514   0.030  0.0148 -0.0086 -0.7853
 7627SOL     OW30279   1.280   0.217   3.575 -0.1913 -0.0087 -0.0940
 7627SOL    HW230280   1.245   0.231   3.663 -0.9441 -1.8383 -0.0462
 7627SOL    HW330281   1.203   0.214   3.518  0.0048 -1.6930 -0.3482
 7627SOL    MW430282   1.265   0.218   3.579  0.0942  0.5404 -0.5570
 7628SOL     OW30283   0.343   0.054   6.245 -0.5979 -0.0903  0.0619
 7628SOL    HW230284   0.253   0.075   6.271 -0.5425 -0.8243  0.8839
 7628SOL    HW330285   0.336  -0.030   6.199 -0.3060 -0.2753  0.3504
 7628SOL    MW430286   0.330   0.046   6.242  0.0105 -0.4757 -0.1341
 7629SOL     OW30287   4.890   5.162   4.239 -0.4370  0.7433 -0.5486
 7629SOL    HW230288   4.931   5.238   4.281 -0.2768  0.4176 -0.1032
 7629SOL    HW330289   4.800   5.163   4.271 -0.1920  0.2320  0.1787
 7629SOL    MW430290   4.884   5.172   4.249 -0.2700 -0.5127 -0.0890
 7630SOL     OW30291   0.997   5.870   1.187  0.1795 -0.0836  0.3121
 7630SOL    HW230292   1.060   5.914   1.131  1.0592  0.0837  1.3847
 7630SOL    HW330293   1.033   5.783   1.201  1.0006  0.4756  2.1071
 7630SOL    MW430294   1.010   5.865   1.182 -0.5898  0.2209 -0.5983
 7631SOL     OW30295   3.505   5.799   0.586  0.8541  0.1376  0.1648
 7631SOL    HW230296   3.482   5.852   0.510 -0.5862 -2.5035 -1.4064
 7631SOL    HW330297   3.590   5.760   0.564  0.5124 -0.5036 -0.0454
 7631SOL    MW430298   3.513   5.801   0.573 -0.3555  1.0287 -0.2802
 7632SOL     OW30299   4.072   1.071   4.477 -0.1513 -0.0852 -0.5977
 7632SOL    HW230300   4.016   1.105   4.408 -0.5864 -0.3836 -0.3917
 7632SOL    HW330301   4.032   1.101   4.558 -0.0689 -0.3783 -0.4477
 7632SOL    MW430302   4.060   1.079   4.478 -0.0524  0.5613 -0.2911
 7633SOL     OW30303   6.079   6.331   0.294  0.3063  0.0554  0.4312
 7633SOL    HW230304   6.098   6.344   0.387 -0.3435  0.2761  0.5350
 7633SOL    HW330305   5.999   6.277   0.293  0.1079  0.3524 -0.0008
 7633SOL    MW430306   6.071   6.325   0.306  0.2025  0.0731  0.4006
 7634SOL     OW30307   5.924   1.389   4.637  0.0171 -0.0502  0.1125
 7634SOL    HW230308   6.010   1.350   4.650  0.7744  1.6401  0.4681
 7634SOL    HW330309   5.941   1.468   4.586 -1.3303  0.2536  0.0942
 7634SOL    MW430310   5.937   1.395   4.632 -0.6434 -0.1987  0.7929
 7635SOL     OW30311   6.251   1.374   4.690  0.5849  0.5292 -0.2522
 7635SOL    HW230312   6.238   1.446   4.751 -0.1693  0.1926  0.0006
 7635SOL    HW330313   6.330   1.398   4.641  0.3419  1.5395 -0.1894
 7635SOL    MW430314   6.260   1.387   4.691  1.0122  0.4804 -0.6956
 7636SOL     OW30315   4.934   2.244   1.235 -0.1617 -0.0487  0.0584
 7636SOL    HW230316   4.876   2.311   1.269  0.3888 -0.0192  0.9575
 7636SOL    HW330317   5.013   2.291   1.207  0.8225 -0.4312  2.0166
 7636SOL    MW430318   4.937   2.259   1.236  0.3058  0.0800  0.1303
 7637SOL     OW30319   0.273   0.334   4.152  0.3061  0.0025  0.5030
 7637SOL    HW230320   0.194   0.388   4.166  0.0857 -0.6204  1.8117
 7637SOL    HW330321   0.333   0.392   4.104 -0.5275  0.8614  0.4526
 7637SOL    MW430322   0.270   0.349   4.148  0.2800  0.6191  0.7179
 7638SOL     OW30323   3.872   3.745   1.112  0.3718  0.0748 -0.4100
 7638SOL    HW230324   3.939   3.751   1.044 -0.5240 -0.9842 -1.4274
 7638SOL    HW330325   3.807   3.811   1.087 -0.5608 -1.1361 -1.3259
 7638SOL    MW430326   3.872   3.754   1.100 -0.1831 -0.3784 -0.5503
 7639SOL     OW30327   4.947   4.845   3.780 -0.1940 -0.3595 -0.0856
 7639SOL    HW230328   4.889   4.770   3.767  0.0427 -0.5524 -0.0322
 7639SOL    HW330329   4.926   4.875   3.869 -0.1604 -0.4761 -0.0372
 7639SOL    MW430330   4.937   4.839   3.790  0.0802  0.0704  0.0689
 7640SOL     OW30331   0.876   1.288   3.347  0.0484 -0.1043 -0.1556
 7640SOL    HW230332   0.939   1.254   3.283 -0.6649 -2.1089  0.1643
 7640SOL    HW330333   0.929   1.304   3.426  0.6618  1.0202 -0.7647
 7640SOL    MW430334   0.892   1.286   3.349  0.0998  0.1298  0.3264
 7641SOL     OW30335   3.436   0.610   1.196  0.6701 -0.5681 -0.2209
 7641SOL    HW230336   3.398   0.554   1.128  1.9091  0.1302 -1.5326
 7641SOL    HW330337   3.367   0.674   1.215 -0.4314 -1.9709  0.6681
 7641SOL    MW430338   3.422   0.611   1.190 -0.0430 -0.6805 -0.7057
 7642SOL     OW30339   6.363   2.955   6.186 -0.2000  0.5542  0.5559
 7642SOL    HW230340   6.293   2.946   6.251 -0.2662  1.7109  0.6688
 7642SOL    HW330341   6.398   2.866   6.175  0.1592  0.3911  2.5742
 7642SOL    MW430342   6.359   2.942   6.193 -0.1382  0.0308 -0.5736
 7643SOL     OW30343   4.218   3.731   3.431 -0.0355 -0.6072 -0.1316
 7643SOL    HW230344   4.309   3.761   3.439 -0.5927  0.7820  1.6115
 7643SOL    HW330345   4.197   3.695   3.517 -1.3844 -0.0975 -0.2211
 7643SOL    MW430346   4.227   3.730   3.444 -0.3617 -0.1285  0.3848
 7644SOL     OW30347   0.459   5.032   5.108  0.4286 -0.0538 -0.0334
 7644SOL    HW230348   0.467   5.038   5.203  1.2007 -2.1605  0.0851
 7644SOL    HW330349   0.394   5.099   5.085  1.5140  1.6998  1.7300
 7644SOL    MW430350   0.451   5.042   5.117  0.1470 -0.5173  0.1867
 7645SOL     OW30351   3.452   6.159   6.275 -0.3943 -0.6717 -0.2344
 7645SOL    HW230352   3.474   6.078   6.229  1.9010 -0.7469  0.8836
 7645SOL    HW330353   3.458   6.227   6.208 -0.6109 -1.2082 -0.8055
 7645SOL    MW430354   3.456   6.157   6.260 -0.4935 -0.1453 -0.5229
 7646SOL     OW30355   2.313   2.752   5.665  0.3390  0.0803 -0.0814
 7646SOL    HW230356   2.354   2.667   5.681 -0.7914 -0.2082  1.5173
 7646SOL    HW330357   2.219   2.734   5.670  0.0466  1.8889  3.3823
 7646SOL    MW430358   2.306   2.738   5.667 -0.3718  0.0280  0.4378
 7647SOL     OW30359   2.492   1.680   2.649 -0.8557 -0.3726  0.3969
 7647SOL    HW230360   2.464   1.605   2.701 -0.3487  0.4310  1.8749
 7647SOL    HW330361   2.531   1.641   2.571 -0.7248 -1.6388  1.0669
 7647SOL    MW430362   2.493   1.665   2.645  0.6368 -0.1556 -0.4678
 7648SOL     OW30363   1.792   4.507   2.582 -0.1745  0.7816  1.0771
 7648SOL    HW230364   1.858   4.543   2.640  0.5346  1.4435 -0.1160
 7648SOL    HW330365   1.736   4.581   2.560  0.0995  0.7364  0.2041
 7648SOL    MW430366   1.793   4.521   2.587 -0.0414  0.0237 -0.9719
 7649SOL     OW30367   0.787   0.848   4.688  0.7420 -0.1409  0.3184
 7649SOL    HW230368   0.773   0.933   4.646 -0.1543 -1.0863 -1.4213
 7649SOL    HW330369   0.860   0.810   4.640 -0.3139 -1.2581 -0.4513
 7649SOL    MW430370   0.795   0.854   4.676 -0.2245 -0.0957 -0.4938
 7650SOL     OW30371   6.074   0.722   6.345 -0.0358 -0.4887  0.0975
 7650SOL    HW230372   5.982   0.699   6.343 -0.3851  0.8166  0.0536
 7650SOL    HW330373   6.084   0.776   6.424  0.1802  1.2950 -1.0922
 7650SOL    MW430374   6.063   0.726   6.355 -1.1467  0.2691 -0.0228
 7651SOL     OW30375   1.980   4.331   0.744 -0.2886  0.0469  0.7593
 7651SOL    HW230376   1.971   4.426   0.737 -3.8651 -0.0883  1.4158
 7651SOL    HW330377   2.057   4.318   0.800  0.3510  2.5358  0.5716
 7651SOL    MW430378   1.989   4.342   0.751 -0.1887 -0.2636  0.1166
 7652SOL     OW30379   2.738   1.687   4.191  0.5881  0.5435  0.1055
 7652SOL    HW230380   2.794   1.611   4.173 -1.5092 -1.4121  1.3544
 7652SOL    HW330381   2.673   1.686   4.121 -0.4252  0.1624  1.0316
 7652SOL    MW430382   2.737   1.677   4.180  0.1763 -0.1016 -0.5179
 7653SOL     OW30383   4.230   2.192   0.434  0.4416  0.1942 -0.0390
 7653SOL    HW230384   4.201   2.223   0.519  0.0763  0.7109 -0.3435
 7653SOL    HW330385   4.178   2.243   0.371  0.4243 -0.4579 -0.5609
 7653SOL    MW430386   4.220   2.203   0.437  0.2516 -0.1099 -0.4436
 7654SOL     OW30387   4.776   4.584   5.092  0.1286 -0.4890  0.3966
 7654SOL    HW230388   4.689   4.612   5.062 -0.3548 -1.7945  0.5520
 7654SOL    HW330389   4.761   4.543   5.176  0.9627 -0.3872  0.6046
 7654SOL    MW430390   4.763   4.582   5.099  0.1501  0.1755 -0.2342
 7655SOL     OW30391   4.085   0.044   0.489 -0.1894  0.2409  0.2552
 7655SOL    HW230392   4.004   0.011   0.449 -0.9020  0.2785  1.5943
 7655SOL    HW330393   4.081   0.011   0.579  0.8683  0.9775  0.5775
 7655SOL    MW430394   4.074   0.035   0.496  0.0630  0.6318  0.4077
 7656SOL     OW30395   3.079   4.248   4.627  0.4018  0.7453  0.4031
 7656SOL    HW230396   3.032   4.257   4.544  0.4895  0.9612  0.3766
 7656SOL    HW330397   3.113   4.159   4.625  1.7232  1.2313 -0.4944
 7656SOL    MW430398   3.077   4.238   4.616 -0.8367 -0.5010  1.4780
 7657SOL     OW30399   3.637   1.980   0.796  0.2775 -0.3393  0.3720
 7657SOL    HW230400   3.564   1.930   0.833 -0.3371  0.5167  0.3269
 7657SOL    HW330401   3.596   2.050   0.747  1.1075 -0.7691 -0.9813
 7657SOL    MW430402   3.622   1.982   0.795 -0.1534 -0.0196 -0.1176
 7658SOL     OW30403   0.521   4.724   6.378  0.2906  0.1708  0.0199
 7658SOL    HW230404   0.454   4.731   6.310  0.6186 -2.0410 -0.6270
 7658SOL    HW330405   0.480   4.760   6.456 -1.0663  0.3315 -0.7363
 7658SOL    MW430406   0.507   4.730   6.379  0.7369 -0.5573 -0.1741
 7659SOL     OW30407   2.851   0.952   5.985 -0.5529 -0.8872  0.0016
 7659SOL    HW230408   2.930   0.930   6.034 -0.4128 -3.3402 -1.1809
 7659SOL    HW330409   2.821   0.869   5.950 -3.0476  0.1579 -0.5389
 7659SOL    MW430410   2.858   0.938   5.987  0.7425  0.2257 -0.8234
 7660SOL     OW30411   0.926   4.759   1.835  0.2430 -0.0630 -0.1454
 7660SOL    HW230412   0.911   4.840   1.786  0.3508 -0.1747 -0.3612
 7660SOL    HW330413   1.006   4.723   1.799  0.0820 -0.3755 -0.1928
 7660SOL    MW430414   0.934   4.765   1.824 -0.3625 -0.1269  0.1000
 7661SOL     OW30415   0.743   4.893   6.240  0.3691 -0.8853  0.1365
 7661SOL    HW230416   0.799   4.923   6.312 -0.5463  0.9896  0.1250
 7661SOL    HW330417   0.671   4.847   6.284 -1.2429  1.9370  0.6859
 7661SOL    MW430418   0.741   4.891   6.255  0.0523 -0.5223 -0.0956
 7662SOL     OW30419   4.696   4.810   5.396  0.0337  0.1658 -0.7217
 7662SOL    HW230420   4.608   4.830   5.365 -1.1203 -2.2847  0.6388
 7662SOL    HW330421   4.702   4.853   5.481  0.0375  0.0627 -0.6704
 7662SOL    MW430422   4.685   4.818   5.403  0.3370 -0.1106 -0.3817
 7663SOL     OW30423   2.336   4.814   3.398 -0.1256 -0.1537 -0.0901
 7663SOL    HW230424   2.291   4.792   3.480 -1.1587 -0.7326 -0.7768
 7663SOL    HW330425   2.426   4.786   3.411 -0.0486  0.6182  1.1753
 7663SOL    MW430426   2.342   4.807   3.410 -0.8325  0.5407  0.0204
 7664SOL     OW30427   1.931   0.089   3.143 -0.3220  0.3212 -0.2699
 7664SOL    HW230428   1.939   0.172   3.095  0.8537  0.8244  0.7687
 7664SOL    HW330429   1.987   0.100   3.220 -0.3111 -1.3710 -0.0133
 7664SOL    MW430430   1.939   0.102   3.147  0.6748  0.5537 -0.2549
 7665SOL     OW30431   2.887   4.240   1.198  0.8173 -0.3434 -0.5267
 7665SOL    HW230432   2.826   4.186   1.147  1.3813 -1.9612  0.4473
 7665SOL    HW330433   2.973   4.222   1.160  1.3808 -2.2891  1.4755
 7665SOL    MW430434   2.890   4.230   1.186  0.0325  0.9257 -0.0861
 7666SOL     OW30435   4.545   3.977   4.965 -0.2461  0.0473  0.2985
 7666SOL    HW230436   4.475   4.042   4.978 -1.0482 -0.7428  0.0609
 7666SOL    HW330437   4.563   3.943   5.053 -2.7233 -2.2976  0.0464
 7666SOL    MW430438   4.538   3.981   4.979  0.4823  0.8728  0.1339
 7667SOL     OW30439   3.108   6.424   2.648  0.0137  0.1999 -0.2309
 7667SOL    HW230440   3.081   6.436   2.557 -0.5410 -0.1041 -0.1099
 7667SOL    HW330441   3.139   6.510   2.676  0.5172  0.2129 -0.8114
 7667SOL    MW430442   3.109   6.437   2.640 -0.4453 -0.3346  0.0824
 7668SOL     OW30443   1.635   0.633   0.925  0.2073 -0.4839  0.2634
 7668SOL    HW230444   1.614   0.696   0.994  0.1129  0.9582 -1.0176
 7668SOL    HW330445   1.553   0.585   0.910  0.2001 -0.7345  1.0454
 7668SOL    MW430446   1.621   0.635   0.932  0.1543 -0.0677 -0.5740
 7669SOL     OW30447   4.230   4.611   3.281 -0.4153  0.2863 -0.4509
 7669SOL    HW230448   4.165   4.541   3.278  0.2705 -0.3241 -1.4663
 7669SOL    HW330449   4.304   4.574   3.328 -0.0149  0.2930 -1.0676
 7669SOL    MW430450   4.231   4.597   3.287  0.1684  0.4527  0.1506
 7670SOL     OW30451   4.861   4.848   1.057 -0.4322  0.1408  0.1328
 7670SOL    HW230452   4.821   4.843   0.970 -1.0258  0.7923  0.3555
 7670SOL    HW330453   4.856   4.759   1.091 -2.7633  0.3908  0.6012
 7670SOL    MW430454   4.855   4.835   1.050 -0.3931  0.3475 -0.0080
 7671SOL     OW30455   1.761   5.273   1.319  0.5634 -0.2214  0.2662
 7671SOL    HW230456   1.854   5.286   1.338  0.1304  2.2043  1.0391
 7671SOL    HW330457   1.727   5.231   1.397  0.6624  0.7362  0.8445
 7671SOL    MW430458   1.769   5.269   1.332 -0.0781 -0.7355  0.4408
 7672SOL     OW30459   1.957   2.506   0.839  0.0561  0.1193 -0.8478
 7672SOL    HW230460   1.888   2.481   0.778  0.3054  1.2367 -1.6219
 7672SOL    HW330461   1.913   2.562   0.903 -0.1795 -0.9489 -0.0486
 7672SOL    MW430462   1.942   2.510   0.839  0.8489 -0.3797  0.6881
 7673SOL     OW30463   3.003   3.200   4.294 -0.2562  0.4468  0.1248
 7673SOL    HW230464   2.934   3.134   4.297  0.4051 -0.4935 -2.3352
 7673SOL    HW330465   3.040   3.191   4.206  1.1467  2.8220  0.3870
 7673SOL    MW430466   2.999   3.190   4.283  0.1553  0.7649 -0.3990
 7674SOL     OW30467   4.838   5.167   0.374 -0.1264 -0.7445  0.4271
 7674SOL    HW230468   4.759   5.222   0.384 -1.0331 -1.9934  0.3973
 7674SOL    HW330469   4.911   5.226   0.393 -1.0278  0.6119 -0.1474
 7674SOL    MW430470   4.837   5.182   0.378  0.0238 -0.0827 -0.0085
 7675SOL     OW30471   1.005   5.729   5.922 -0.1725  0.3843 -0.2427
 7675SOL    HW230472   0.942   5.709   5.852 -0.5463 -1.5647  0.5662
 7675SOL    HW330473   0.952   5.764   5.993 -0.2301 -0.3923  0.1054
 7675SOL    MW430474   0.989   5.731   5.922  0.1167 -0.3923  0.0135
 7676SOL     OW30475   5.726   0.858   6.013 -0.3226  0.3544 -0.2819
 7676SOL    HW230476   5.652   0.874   5.954 -0.4708 -2.1737 -0.9013
 7676SOL    HW330477   5.686   0.826   6.094  0.0187  1.0468  0.1699
 7676SOL    MW430478   5.711   0.856   6.016 -0.2607 -0.2229 -0.2178
 7677SOL     OW30479   5.703   0.868   3.449  0.1069 -0.9253 -0.6821
 7677SOL    HW230480   5.786   0.893   3.408 -0.7068  1.5097 -0.9728
 7677SOL    HW330481   5.639   0.872   3.378 -0.5740 -1.0486 -0.0821
 7677SOL    MW430482   5.705   0.872   3.434 -0.7778 -0.2145 -0.5138
 7678SOL     OW30483   2.286   6.074   4.867  0.2849  0.9823 -0.3879
 7678SOL    HW230484   2.376   6.092   4.840  0.0729  2.9338  0.0452
 7678SOL    HW330485   2.294   6.024   4.948  0.9418 -0.3184 -1.2182
 7678SOL    MW430486   2.299   6.070   4.874  0.1339 -0.0233 -0.0544
 7679SOL     OW30487   2.968   2.927   4.654  0.0580  0.1643 -0.0059
 7679SOL    HW230488   3.050   2.880   4.666  0.5022  1.3186  1.7845
 7679SOL    HW330489   2.924   2.921   4.738 -2.0385 -0.9795 -1.1132
 7679SOL    MW430490   2.973   2.920   4.667 -0.3662 -0.0357  0.0227
 7680SOL     OW30491   3.496   3.178   0.522 -0.0142  0.2289  0.1332
 7680SOL    HW230492   3.561   3.110   0.535  0.0032  0.2611  0.2160
 7680SOL    HW330493   3.414   3.140   0.552  0.0019  0.2573  0.2115
 7680SOL    MW430494   3.494   3.164   0.527  0.1100  0.3914 -0.0013
 7681SOL     OW30495   2.182   0.502   6.415  0.5688 -0.5139  0.1777
 7681SOL    HW230496   2.253   0.453   6.456  1.7584 -0.3738 -1.6187
 7681SOL    HW330497   2.132   0.435   6.368  0.4322 -0.3899  0.1460
 7681SOL    MW430498   2.184   0.487   6.414 -0.1695 -0.4604  0.0325
 7682SOL     OW30499   1.433   5.830   2.941 -0.0377  0.6950  0.2826
 7682SOL    HW230500   1.385   5.895   2.890 -0.4521  0.4543  0.3534
 7682SOL    HW330501   1.395   5.746   2.914 -1.6109  0.6633  2.3073
 7682SOL    MW430502   1.422   5.827   2.931 -0.6235 -0.0658  0.2436
 7683SOL     OW30503   0.826   5.008   0.863 -0.0692  0.1452 -0.0885
 7683SOL    HW230504   0.798   5.006   0.772  0.4607  0.0551 -0.2512
 7683SOL    HW330505   0.745   5.007   0.913 -0.4673  2.3698 -0.5777
 7683SOL    MW430506   0.812   5.008   0.858 -0.6842  0.7287 -0.0784
 7684SOL     OW30507   1.468   5.147   4.583 -0.3065 -0.1958 -0.4641
 7684SOL    HW230508   1.538   5.103   4.534  1.0239  1.4606 -0.1457
 7684SOL    HW330509   1.484   5.241   4.568  0.9728  0.5543  4.0444
 7684SOL    MW430510   1.479   5.154   4.574 -0.2128 -0.4295  0.8899
 7685SOL     OW30511   0.578   0.976   5.192 -0.1317  0.0716 -0.0780
 7685SOL    HW230512   0.516   0.917   5.149  0.0573  0.6058 -1.1171
 7685SOL    HW330513   0.552   1.063   5.163 -0.6660  0.5662  1.7741
 7685SOL    MW430514   0.567   0.980   5.182  0.0230  0.7917 -0.6231
 7686SOL     OW30515   5.142   1.543   3.212  0.4128  0.1609 -0.3623
 7686SOL    HW230516   5.083   1.521   3.284 -1.1300 -0.7581 -1.8295
 7686SOL    HW330517   5.100   1.618   3.168  2.0282  1.5998  0.4376
 7686SOL    MW430518   5.129   1.550   3.215 -0.5532  0.7311 -0.3168
 7687SOL     OW30519   5.927   1.021   3.347  0.1199  0.0780 -0.4598
 7687SOL    HW230520   5.983   0.980   3.282 -0.5644 -1.5731 -0.0529
 7687SOL    HW330521   5.919   1.112   3.317  2.5786  0.2554 -0.7757
 7687SOL    MW430522   5.933   1.028   3.334 -0.2884  0.4579  0.0341
 7688SOL     OW30523   3.997   4.143   3.455  0.3017 -0.3014 -0.3482
 7688SOL    HW230524   3.960   4.145   3.543  0.8335  0.0036 -0.1318
 7688SOL    HW330525   3.920   4.145   3.397 -0.1766 -2.7782  0.0912
 7688SOL    MW430526   3.982   4.144   3.459 -0.6198 -0.3858 -0.4614
 7689SOL     OW30527   4.979   2.516   4.913  0.9804  0.3899 -0.4914
 7689SOL    HW230528   4.926   2.528   4.834 -0.4878  0.2021  0.4156
 7689SOL    HW330529   4.997   2.605   4.944  1.3558  0.4577 -0.9019
 7689SOL    MW430530   4.974   2.529   4.907 -0.7661 -0.0783 -0.6050
 7690SOL     OW30531   4.410   2.483   3.861  0.1233 -0.3739  0.1153
 7690SOL    HW230532   4.396   2.503   3.954  0.1918 -0.1393  0.0766
 7690SOL    HW330533   4.322   2.471   3.826  0.0347  0.4789  0.0082
 7690SOL    MW430534   4.397   2.484   3.869 -0.3409  0.1430 -0.8468
 7691SOL     OW30535   5.676   1.151   6.047  0.3612  0.2955 -0.5418
 7691SOL    HW230536   5.614   1.156   5.973 -0.6392  1.0236  0.3203
 7691SOL    HW330537   5.714   1.063   6.040 -2.1151 -0.9109 -0.0720
 7691SOL    MW430538   5.673   1.140   6.036 -0.0222 -0.3861  0.5396
 7692SOL     OW30539   3.368   2.607   4.177 -0.4098 -0.5832 -0.3038
 7692SOL    HW230540   3.418   2.589   4.257 -0.7780  2.2813  0.6962
 7692SOL    HW330541   3.280   2.574   4.197  0.3413 -3.4102 -1.1391
 7692SOL    MW430542   3.363   2.600   4.190  0.0260  0.0326 -0.5210
 7693SOL     OW30543   2.980   4.862   2.350 -0.3171  0.2699  0.0544
 7693SOL    HW230544   2.899   4.812   2.343  0.2380 -0.6089 -0.3580
 7693SOL    HW330545   3.038   4.823   2.284  1.2314 -0.6627  1.8769
 7693SOL    MW430546   2.977   4.850   2.340 -0.1127 -0.5371  0.1021
 7694SOL     OW30547   3.432   1.821   5.540 -0.3674  0.2316 -0.1028
 7694SOL    HW230548   3.454   1.884   5.609  0.8265  0.1135 -0.3648
 7694SOL    HW330549   3.336   1.819   5.540 -0.4313  1.9193  0.0344
 7694SOL    MW430550   3.422   1.829   5.549  0.1570 -0.6745 -0.2121
 7695SOL     OW30551   0.124   4.626   1.791 -0.3782 -0.0111 -0.1709
 7695SOL    HW230552   0.079   4.544   1.772  0.7634 -0.6174 -0.3673
 7695SOL    HW330553   0.203   4.624   1.736 -0.2467  1.1430 -0.0557
 7695SOL    MW430554   0.129   4.615   1.781  0.2961  0.2231  0.2318
 7696SOL     OW30555   5.811   5.611   1.056 -0.4009 -0.1282 -0.1460
 7696SOL    HW230556   5.805   5.608   1.152  0.5358 -0.1620 -0.0790
 7696SOL    HW330557   5.886   5.555   1.035 -2.4019 -2.5945 -1.1259
 7696SOL    MW430558   5.820   5.604   1.066 -0.2080  0.3688 -0.2076
 7697SOL     OW30559   4.683   3.492   0.566 -0.1205 -0.1006  0.1190
 7697SOL    HW230560   4.776   3.481   0.549 -0.0403  0.7911 -0.0596
 7697SOL    HW330561   4.656   3.562   0.506 -1.3498 -1.7290 -1.3293
 7697SOL    MW430562   4.692   3.500   0.556  0.4548 -0.1943 -0.3781
 7698SOL     OW30563   4.911   2.189   4.528 -0.3300 -0.2505  0.8431
 7698SOL    HW230564   4.897   2.120   4.593 -0.5143  0.3551  1.4554
 7698SOL    HW330565   4.899   2.145   4.443  1.3536 -1.3795  1.1482
 7698SOL    MW430566   4.907   2.174   4.525 -0.4262 -0.1953 -0.5995
 7699SOL     OW30567   0.766   1.082   2.976  0.4049  0.3957 -0.4412
 7699SOL    HW230568   0.713   1.005   2.958  0.5647  0.1285  0.1803
 7699SOL    HW330569   0.782   1.121   2.890  1.3643 -0.9613 -0.9232
 7699SOL    MW430570   0.761   1.077   2.962 -0.0425 -0.1538  0.0793
 7700SOL     OW30571   0.975   4.610   0.081  0.5801  0.3936 -0.1859
 7700SOL    HW230572   0.994   4.660   0.002  0.4372 -1.2120 -1.2746
 7700SOL    HW330573   1.044   4.543   0.085 -0.7001 -0.9830 -0.2530
 7700SOL    MW430574   0.987   4.608   0.071  0.5546 -0.2735 -0.4803
 7701SOL     OW30575   3.979   0.166   5.443 -0.3911  0.0568 -0.3104
 7701SOL    HW230576   3.967   0.215   5.524 -2.4279  0.9278 -1.0796
 7701SOL    HW330577   4.058   0.204   5.404 -0.2107  0.6201  0.5679
 7701SOL    MW430578   3.988   0.178   5.449  1.0569 -0.2186  0.1490
 7702SOL     OW30579   2.271   1.741   4.354  0.0775 -0.3588  0.5310
 7702SOL    HW230580   2.180   1.751   4.383  0.1963 -1.9221  1.5592
 7702SOL    HW330581   2.319   1.717   4.433  1.2603 -0.3287 -0.1515
 7702SOL    MW430582   2.265   1.739   4.368 -0.1111  0.2831  0.0373
 7703SOL     OW30583   4.171   5.628   1.807 -0.2403  0.1994  0.3011
 7703SOL    HW230584   4.087   5.669   1.791  0.4814  1.3849 -0.6164
 7703SOL    HW330585   4.195   5.654   1.896 -0.8811 -0.2623  0.6185
 7703SOL    MW430586   4.163   5.637   1.817  0.1918 -0.3081  0.1362
 7704SOL     OW30587   5.323   0.773   4.558 -0.1644 -0.3063 -0.4310
 7704SOL    HW230588   5.346   0.768   4.651 -0.5593  0.6729 -0.2591
 7704SOL    HW330589   5.259   0.703   4.545 -2.5653  1.4545  0.8449
 7704SOL    MW430590   5.317   0.763   4.568  0.7330  0.2131 -0.3241
 7705SOL     OW30591   3.057   3.239   1.671 -0.1670  0.0442  0.3944
 7705SOL    HW230592   2.977   3.278   1.707  0.1186 -0.3139  1.4791
 7705SOL    HW330593   3.077   3.168   1.732  1.7366  1.0029  0.9698
 7705SOL    MW430594   3.049   3.235   1.684 -0.1453  0.7539  0.4930
 7706SOL     OW30595   2.649   0.662   2.004 -0.0959  0.5795  0.0251
 7706SOL    HW230596   2.731   0.615   2.018  1.3733  2.8869 -0.1777
 7706SOL    HW330597   2.598   0.646   2.084  0.7235 -0.5332  0.3547
 7706SOL    MW430598   2.653   0.654   2.017 -0.1473  0.7308 -0.0122
 7707SOL     OW30599   6.360   1.004   3.355  0.0644 -0.3089  0.4805
 7707SOL    HW230600   6.345   1.036   3.267  1.6034 -1.3926 -0.2189
 7707SOL    HW330601   6.278   1.022   3.402 -0.4026  1.2049 -0.8646
 7707SOL    MW430602   6.347   1.010   3.350  0.1227 -0.2775 -0.2313
 7708SOL     OW30603   0.715   5.857   1.723 -0.1146  0.0747  0.2834
 7708SOL    HW230604   0.766   5.786   1.683 -0.3250 -0.6571  1.2663
 7708SOL    HW330605   0.640   5.867   1.665 -0.2736 -0.7758  0.3195
 7708SOL    MW430606   0.712   5.849   1.710 -0.0221 -0.2251 -0.3313
 7709SOL     OW30607   3.257   5.685   0.502 -0.2177  0.0999 -0.5258
 7709SOL    HW230608   3.291   5.680   0.412  1.3132  3.5400 -0.2898
 7709SOL    HW330609   3.329   5.722   0.553 -2.3747  2.1337  1.2434
 7709SOL    MW430610   3.271   5.689   0.497 -0.4324 -0.0941 -0.0755
 7710SOL     OW30611   0.067   5.256   0.154  0.1344 -0.3438 -0.4111
 7710SOL    HW230612   0.130   5.217   0.215  0.7083  1.1026 -0.0396
 7710SOL    HW330613   0.050   5.343   0.189 -1.2639 -0.3164 -1.1077
 7710SOL    MW430614   0.073   5.262   0.166  0.3783  0.5679 -0.0632
 7711SOL     OW30615   2.203   4.844   5.615  0.1330  0.3954  0.8984
 7711SOL    HW230616   2.206   4.801   5.530 -0.1526  1.3609  0.3983
 7711SOL    HW330617   2.177   4.774   5.676 -3.2764  0.4008 -0.3185
 7711SOL    MW430618   2.200   4.829   5.612 -0.1554  0.2138  0.3145
 7712SOL     OW30619   2.029   5.858   5.790  0.2750 -0.2433  0.5145
 7712SOL    HW230620   2.007   5.767   5.809 -0.0469  0.1772  2.2701
 7712SOL    HW330621   2.110   5.874   5.838  1.5439 -0.1787 -1.5087
 7712SOL    MW430622   2.037   5.848   5.799 -0.0757 -0.3795  0.0928
 7713SOL     OW30623   2.116   2.715   0.281  0.5990  0.0394 -0.2361
 7713SOL    HW230624   2.147   2.676   0.362  1.1363 -0.9577 -0.9128
 7713SOL    HW330625   2.152   2.660   0.211 -1.6596 -0.4652 -1.0999
 7713SOL    MW430626   2.125   2.703   0.282  0.2992 -0.1609  0.5060
 7714SOL     OW30627   0.259   1.725   4.001  0.1540  0.6173 -0.2337
 7714SOL    HW230628   0.200   1.757   4.070 -0.7470  0.1293 -0.7609
 7714SOL    HW330629   0.207   1.730   3.921  0.4220 -0.9087 -0.5391
 7714SOL    MW430630   0.245   1.730   4.000 -0.0288  0.0254 -0.2747
 7715SOL     OW30631   5.993   2.778   0.500  0.4821 -0.1492 -0.5273
 7715SOL    HW230632   5.987   2.873   0.495  0.5085 -0.0302  1.0134
 7715SOL    HW330633   5.952   2.747   0.419 -1.3496  1.1436 -0.1824
 7715SOL    MW430634   5.987   2.786   0.489 -0.3516  0.9940  0.6048
 7716SOL     OW30635   2.529   2.905   4.903  0.6927  0.3821  0.0852
 7716SOL    HW230636   2.499   2.816   4.883  0.3248  0.9012 -1.9435
 7716SOL    HW330637   2.463   2.939   4.963 -0.2033 -0.1095 -0.5893
 7716SOL    MW430638   2.516   2.898   4.908 -0.3628  0.0723 -0.0248
 7717SOL     OW30639   2.737   2.735   3.122  0.2047  0.8972  0.0153
 7717SOL    HW230640   2.650   2.771   3.102 -0.5173 -0.9236 -0.3339
 7717SOL    HW330641   2.755   2.763   3.212 -0.2865  2.1113 -0.2419
 7717SOL    MW430642   2.728   2.743   3.131 -0.2053 -0.4065  0.1346
 7718SOL     OW30643   1.549   4.914   1.232 -0.3913 -0.1075  0.4697
 7718SOL    HW230644   1.478   4.951   1.179 -1.5521 -0.2849  1.8177
 7718SOL    HW330645   1.522   4.824   1.247  0.7900 -0.5616 -0.0666
 7718SOL    MW430646   1.536   4.907   1.227 -0.8873  0.2933 -0.1300
 7719SOL     OW30647   4.033   4.684   1.489  0.3259 -0.1067  0.2513
 7719SOL    HW230648   4.053   4.777   1.498 -0.2696  0.0796 -0.2816
 7719SOL    HW330649   4.116   4.644   1.463  0.2317  0.5093 -1.0455
 7719SOL    MW430650   4.047   4.691   1.487 -0.3157  0.5493  0.2927
 7720SOL     OW30651   4.052   5.888   0.606  0.2841  0.1903  0.5818
 7720SOL    HW230652   4.107   5.962   0.577  2.5471 -0.1028  3.6067
 7720SOL    HW330653   3.974   5.930   0.642  0.7885  1.0233  0.7575
 7720SOL    MW430654   4.049   5.904   0.607 -0.4792 -0.3689 -0.0162
 7721SOL     OW30655   2.178   5.117   0.847 -0.4835  0.2084 -0.0818
 7721SOL    HW230656   2.217   5.072   0.921 -2.0418  1.4928  1.6294
 7721SOL    HW330657   2.214   5.206   0.851  0.0605  0.0708 -1.4129
 7721SOL    MW430658   2.188   5.123   0.857  0.4081 -0.2812 -0.4699
 7722SOL     OW30659   2.114   4.148   5.246  0.1115  0.2444  0.3881
 7722SOL    HW230660   2.185   4.167   5.307  0.2729 -1.3634  0.7393
 7722SOL    HW330661   2.120   4.054   5.230 -1.2129  0.2763 -0.5058
 7722SOL    MW430662   2.124   4.138   5.252 -0.7881  0.3846 -0.1554
 7723SOL     OW30663   1.187   1.214   2.120 -0.0347  0.3395 -0.4337
 7723SOL    HW230664   1.169   1.140   2.063 -0.6560  1.5524 -1.9015
 7723SOL    HW330665   1.129   1.201   2.195  0.7274 -1.2361 -0.0743
 7723SOL    MW430666   1.177   1.203   2.123 -0.3144 -0.2270 -0.1339
 7724SOL     OW30667   0.093   3.831   2.925  0.2282  0.8241 -0.6484
 7724SOL    HW230668   0.134   3.763   2.871 -0.1862 -1.0965  1.3401
 7724SOL    HW330669   0.001   3.830   2.899 -0.2726 -1.1147  0.9692
 7724SOL    MW430670   0.086   3.822   2.914  0.1682  0.1985  0.1610
 7725SOL     OW30671   2.510   3.178   3.302 -0.0411  0.1177  0.2239
 7725SOL    HW230672   2.504   3.118   3.228 -1.9995 -2.0677  2.0110
 7725SOL    HW330673   2.583   3.146   3.354  0.1107  0.4624  0.2265
 7725SOL    MW430674   2.519   3.166   3.299 -0.3386  0.3249 -0.1613
 7726SOL     OW30675   2.077   0.944   4.120  0.1564  0.2300  0.4973
 7726SOL    HW230676   2.165   0.969   4.146  0.1185  0.0376  0.8165
 7726SOL    HW330677   2.082   0.935   4.024  1.3352 -2.9865  0.7467
 7726SOL    MW430678   2.089   0.946   4.110 -0.0867  0.0123 -0.3150
 7727SOL     OW30679   1.117   6.164   4.124 -0.6475 -0.7054  0.3273
 7727SOL    HW230680   1.028   6.149   4.155 -0.9047 -0.5942 -0.3274
 7727SOL    HW330681   1.173   6.145   4.199 -1.2911  0.3487  1.1022
 7727SOL    MW430682   1.112   6.160   4.138 -0.0036  1.1650 -0.1949
 7728SOL     OW30683   3.688   5.473   1.520  0.3315 -0.8083 -0.2821
 7728SOL    HW230684   3.681   5.503   1.430 -2.8603  0.6971  0.3190
 7728SOL    HW330685   3.610   5.419   1.534  0.9092 -1.2648  1.4943
 7728SOL    MW430686   3.677   5.470   1.510 -0.7105  0.5713  0.1283
 7729SOL     OW30687   0.956   3.810   3.310  0.2605  0.3663 -0.5484
 7729SOL    HW230688   0.999   3.871   3.249  0.6937  0.6005 -0.0118
 7729SOL    HW330689   1.027   3.758   3.347  0.0818  0.6967  0.2792
 7729SOL    MW430690   0.971   3.811   3.307 -0.2370  0.1640  0.1380
 7730SOL     OW30691   5.812   0.719   2.039  0.2468 -0.8548 -0.5932
 7730SOL    HW230692   5.805   0.633   2.079 -2.6767 -1.1687 -1.5843
 7730SOL    HW330693   5.818   0.701   1.945  0.6964  0.0220 -0.7445
 7730SOL    MW430694   5.812   0.706   2.032 -0.3052  0.5368 -0.4647
 7731SOL     OW30695   5.088   0.087   3.672  0.2340 -0.4580  0.2441
 7731SOL    HW230696   5.048   0.028   3.608  3.1956 -0.6547 -1.6176
 7731SOL    HW330697   5.019   0.151   3.692 -0.7915 -0.0809 -3.5902
 7731SOL    MW430698   5.074   0.088   3.666 -0.2812 -0.7473  0.2009
 7732SOL     OW30699   3.502   4.765   4.949  0.0126 -0.1054 -0.1886
 7732SOL    HW230700   3.466   4.783   5.035  1.6586  1.6554  0.1906
 7732SOL    HW330701   3.426   4.763   4.891 -0.8744  1.9927  0.7964
 7732SOL    MW430702   3.487   4.767   4.953 -0.2694 -0.0437 -0.1147
 7733SOL     OW30703   5.162   4.655   1.109  0.8556 -0.4794 -0.2199
 7733SOL    HW230704   5.211   4.705   1.044  0.1570  1.6391  0.7725
 7733SOL    HW330705   5.143   4.719   1.178 -1.3310 -1.7888  0.4767
 7733SOL    MW430706   5.166   4.670   1.110  0.2159 -0.6924  0.7180
 7734SOL     OW30707   1.218   2.939   4.286 -0.6306  0.4442 -0.1932
 7734SOL    HW230708   1.196   2.858   4.239  1.1416 -0.7783  0.9422
 7734SOL    HW330709   1.299   2.969   4.244  1.4006 -1.0604  2.3426
 7734SOL    MW430710   1.226   2.932   4.274  0.2027 -0.3347 -0.0337
 7735SOL     OW30711   5.744   0.281   5.532 -0.3928  0.4919 -0.5960
 7735SOL    HW230712   5.657   0.243   5.519  0.3438 -1.6394  0.2085
 7735SOL    HW330713   5.792   0.214   5.581  1.7336  1.5688 -1.0883
 7735SOL    MW430714   5.739   0.267   5.536 -0.2629 -0.0898  0.7265
 7736SOL     OW30715   2.633   5.336   3.680 -0.2438 -0.2931  0.4329
 7736SOL    HW230716   2.587   5.405   3.727  2.3070  1.3071  0.7324
 7736SOL    HW330717   2.592   5.335   3.593 -0.5030  1.4295  0.5010
 7736SOL    MW430718   2.621   5.345   3.675  0.2634  0.7516  0.0650
 7737SOL     OW30719   4.210   1.687   1.798 -0.0476  0.0016 -0.2788
 7737SOL    HW230720   4.116   1.686   1.819  0.0560 -1.1962  0.1660
 7737SOL    HW330721   4.213   1.720   1.708 -0.6940  2.3851  0.4758
 7737SOL    MW430722   4.198   1.691   1.789 -0.2016  0.0511 -0.3535
 7738SOL     OW30723   3.093   1.732   1.584  0.2739  0.5399  0.0925
 7738SOL    HW230724   3.132   1.650   1.554 -0.2039 -0.5284  2.2149
 7738SOL    HW330725   3.001   1.726   1.558 -0.1852 -0.4720  1.7936
 7738SOL    MW430726   3.086   1.721   1.577 -0.0423  0.0329  0.2276
 7739SOL     OW30727   1.736   1.608   4.930  0.2263  0.1453  0.4632
 7739SOL    HW230728   1.733   1.565   5.015 -0.3883 -2.2604 -0.6844
 7739SOL    HW330729   1.769   1.541   4.870 -0.4807  1.3776 -1.4037
 7739SOL    MW430730   1.740   1.593   4.933 -0.8637 -0.0353  0.5520
 7740SOL     OW30731   3.186   0.162   2.092 -0.1753  0.0591 -0.4350
 7740SOL    HW230732   3.187   0.186   2.185 -0.6422  0.0837 -0.4332
 7740SOL    HW330733   3.266   0.110   2.080  0.6531  1.2644 -0.3545
 7740SOL    MW430734   3.197   0.158   2.103  0.4500 -0.3641  0.1947
 7741SOL     OW30735   0.434   5.741   1.832  0.1253 -0.3543 -0.7706
 7741SOL    HW230736   0.402   5.831   1.826 -1.0336 -0.6394  0.5597
 7741SOL    HW330737   0.509   5.746   1.892 -1.6120 -0.5973  1.5741
 7741SOL    MW430738   0.440   5.753   1.839  0.2933  0.3182  0.0060
 7742SOL     OW30739   4.059   1.056   3.336 -0.1627 -0.3166  0.0033
 7742SOL    HW230740   4.116   1.095   3.270  0.8409  0.0507  1.0630
 7742SOL    HW330741   4.117   1.035   3.409 -1.1798 -1.0905  0.6223
 7742SOL    MW430742   4.074   1.058   3.337 -0.8957  0.3517  0.3575
 7743SOL     OW30743   4.647   3.750   0.434 -0.4017  0.3056 -0.0531
 7743SOL    HW230744   4.626   3.844   0.434 -2.1131 -0.0326  1.1211
 7743SOL    HW330745   4.691   3.735   0.350 -1.2169  1.9142 -0.8040
 7743SOL    MW430746   4.650   3.761   0.423  0.6240 -0.1296  0.2284
 7744SOL     OW30747   0.055   4.355   0.436  0.1556  0.4171 -0.2921
 7744SOL    HW230748   0.106   4.430   0.407 -0.1666  0.3434 -1.0783
 7744SOL    HW330749   0.089   4.282   0.384  0.9706 -0.1548  0.9744
 7744SOL    MW430750   0.066   4.355   0.425 -0.0759  0.3541  0.2462
 7745SOL     OW30751   1.383   1.686   1.808 -0.3076 -0.0352 -0.1326
 7745SOL    HW230752   1.403   1.733   1.889 -0.2402 -0.5163  0.1337
 7745SOL    HW330753   1.293   1.711   1.788 -0.2819  0.1869  0.0173
 7745SOL    MW430754   1.374   1.696   1.816 -0.3837 -0.0372  0.3434
 7746SOL     OW30755   5.086   4.753   4.378  0.0226 -0.2315 -0.2589
 7746SOL    HW230756   5.027   4.702   4.433 -0.2872  0.8291  0.4145
 7746SOL    HW330757   5.064   4.845   4.396  0.7919  0.1640 -1.1864
 7746SOL    MW430758   5.075   4.759   4.387  0.5201 -0.0527  0.6829
 7747SOL     OW30759   0.272   4.120   4.284 -0.0196 -0.2511  0.4950
 7747SOL    HW230760   0.336   4.166   4.338 -2.7774  2.8642  1.4351
 7747SOL    HW330761   0.222   4.067   4.346  0.7986 -1.7029 -0.0453
 7747SOL    MW430762   0.274   4.119   4.299  0.3921 -0.0642 -0.1950
 7748SOL     OW30763   4.212   2.749   0.109 -0.2735  0.2131  0.2896
 7748SOL    HW230764   4.257   2.665   0.112  0.7617  0.6485 -1.4123
 7748SOL    HW330765   4.262   2.800   0.045 -0.4947  2.3516  1.7308
 7748SOL    MW430766   4.225   2.745   0.101  0.0318  0.0244  0.1089
 7749SOL     OW30767   3.784   2.904   5.668  0.1097 -0.5219  0.1070
 7749SOL    HW230768   3.754   2.813   5.673  1.1231 -0.8242  1.5702
 7749SOL    HW330769   3.841   2.914   5.744  0.4114  1.2082 -0.3047
 7749SOL    MW430770   3.788   2.893   5.679  0.3782  0.1116 -0.2618
 7750SOL     OW30771   5.753   3.736   5.151 -0.5835 -0.2705  0.3124
 7750SOL    HW230772   5.779   3.824   5.179  1.6436 -0.4733 -0.8805
 7750SOL    HW330773   5.667   3.748   5.111  0.8133  1.9330 -2.3457
 7750SOL    MW430774   5.745   3.749   5.150 -0.7520  0.5984  0.2845
 7751SOL     OW30775   3.050   1.027   5.018  0.1937 -0.3710  0.1313
 7751SOL    HW230776   2.971   1.026   5.072  0.6851 -1.1584  0.8542
 7751SOL    HW330777   3.064   1.120   4.998 -1.2661 -0.2668 -0.5600
 7751SOL    MW430778   3.041   1.039   5.022  0.2185 -0.1899 -1.0089
 7752SOL     OW30779   4.446   2.962   3.561  0.1112  0.0460 -0.5611
 7752SOL    HW230780   4.459   2.964   3.656  0.3298 -0.3467 -0.5788
 7752SOL    HW330781   4.472   3.049   3.532 -1.5492  0.7297 -0.0758
 7752SOL    MW430782   4.451   2.974   3.570  0.0594 -0.2660 -0.5392
 7753SOL     OW30783   5.611   5.606   4.798 -0.7754  0.1602  0.2979
 7753SOL    HW230784   5.534   5.560   4.766 -0.9049  1.4431 -1.4091
 7753SOL    HW330785   5.685   5.550   4.775 -0.9586  0.5493 -1.4054
 7753SOL    MW430786   5.610   5.593   4.791 -0.3024  0.0121 -0.6974
 7754SOL     OW30787   1.393   1.407   5.933 -0.1856  0.2203 -0.0519
 7754SOL    HW230788   1.455   1.374   5.868 -0.8026  0.0006 -0.5467
 7754SOL    HW330789   1.440   1.475   5.980  0.3241  0.2760 -0.6354
 7754SOL    MW430790   1.407   1.412   5.931 -0.2740 -0.3150 -0.0917
 7755SOL     OW30791   4.626   5.697   5.386 -0.2485  0.8175  0.3071
 7755SOL    HW230792   4.660   5.750   5.314  1.5565 -1.7055 -0.8752
 7755SOL    HW330793   4.665   5.735   5.464  0.3100  1.7255 -0.3917
 7755SOL    MW430794   4.636   5.709   5.387 -0.2539 -0.0595 -0.2339
 7756SOL     OW30795   4.589   1.327   0.195 -0.0065  0.3795 -0.0716
 7756SOL    HW230796   4.568   1.322   0.102  0.3725  0.3559 -0.1582
 7756SOL    HW330797   4.547   1.407   0.226 -0.1141  0.3976 -0.2680
 7756SOL    MW430798   4.581   1.337   0.187  0.2273 -0.7006  0.0958
 7757SOL     OW30799   0.683   5.446   4.863 -0.5042  0.1293  0.0893
 7757SOL    HW230800   0.701   5.352   4.855 -2.6095 -0.2711 -0.4395
 7757SOL    HW330801   0.768   5.484   4.886  0.4680 -1.8513  0.0275
 7757SOL    MW430802   0.697   5.439   4.865 -0.2617  0.0814 -0.3521
 7758SOL     OW30803   1.946   6.385   1.477 -0.2539  0.6931  0.0121
 7758SOL    HW230804   2.014   6.339   1.427 -0.9425 -1.4904  0.9877
 7758SOL    HW330805   1.974   6.378   1.568 -0.4126  2.2405  0.2151
 7758SOL    MW430806   1.959   6.378   1.482 -0.3378 -0.8803  0.4635
 7759SOL     OW30807   5.760   3.442   2.806  0.0905  0.4699 -0.4355
 7759SOL    HW230808   5.851   3.463   2.785  0.7190  0.0545  1.6170
 7759SOL    HW330809   5.724   3.406   2.725  1.7540  0.6434 -1.2897
 7759SOL    MW430810   5.767   3.440   2.792 -0.2989 -0.2027  0.1250
 7760SOL     OW30811   5.005   3.275   5.026  0.4692  0.1816 -0.0682
 7760SOL    HW230812   5.079   3.317   5.070  0.2945  2.0551 -1.4430
 7760SOL    HW330813   4.989   3.195   5.077  1.2686  1.4143  2.2673
 7760SOL    MW430814   5.013   3.270   5.038 -0.0518 -0.3895 -1.1351
 7761SOL     OW30815   4.774   5.782   5.596  0.2700 -0.7478 -0.0079
 7761SOL    HW230816   4.830   5.720   5.643  0.3688 -0.8505 -0.2567
 7761SOL    HW330817   4.715   5.817   5.662  1.0183 -0.1900  0.3763
 7761SOL    MW430818   4.774   5.778   5.611 -0.2157  0.2467  0.1176
 7762SOL     OW30819   6.314   4.098   2.716 -0.7077 -0.3959 -0.5336
 7762SOL    HW230820   6.404   4.067   2.704  0.0597  1.4131  0.0971
 7762SOL    HW330821   6.273   4.089   2.629 -0.1561 -1.8873 -0.6590
 7762SOL    MW430822   6.320   4.093   2.703  0.2120  0.4441 -0.0614
 7763SOL     OW30823   1.840   2.633   0.408 -0.0389 -0.2209 -0.1114
 7763SOL    HW230824   1.794   2.691   0.347  0.3891 -1.2253 -1.4317
 7763SOL    HW330825   1.932   2.642   0.383 -0.0762 -2.5132 -1.3184
 7763SOL    MW430826   1.846   2.642   0.397  0.4030 -0.3540  0.3781
 7764SOL     OW30827   2.134   5.060   6.238  0.8187 -0.4322 -0.1907
 7764SOL    HW230828   2.142   5.001   6.162 -1.2535 -0.5394 -0.3755
 7764SOL    HW330829   2.094   5.139   6.203  3.3498  1.0903  0.1144
 7764SOL    MW430830   2.130   5.062   6.223  0.0005 -0.3072 -0.0814
 7765SOL     OW30831   3.199   4.093   3.685  0.2283 -0.1544  0.0443
 7765SOL    HW230832   3.150   4.023   3.729  0.0564  1.3126  2.3173
 7765SOL    HW330833   3.291   4.072   3.702  0.1637  0.3693  1.0550
 7765SOL    MW430834   3.205   4.081   3.693  0.2367  0.9797  0.1865
 7766SOL     OW30835   2.767   4.752   3.858  0.1374  0.1019  0.5090
 7766SOL    HW230836   2.780   4.660   3.833  0.0293  0.0335  0.7064
 7766SOL    HW330837   2.672   4.765   3.854  0.0505 -0.1342  1.6758
 7766SOL    MW430838   2.756   4.741   3.854  0.5716  0.3806  0.2784
 7767SOL     OW30839   4.156   4.048   2.368 -0.2954  0.1356 -0.7916
 7767SOL    HW230840   4.102   4.041   2.447 -0.7631 -1.5125 -1.2131
 7767SOL    HW330841   4.097   4.024   2.296  0.1278  1.5965 -1.6748
 7767SOL    MW430842   4.141   4.044   2.369 -0.2201 -0.5008  0.8544
 7768SOL     OW30843   1.612   2.542   5.413  0.3101  0.2717  1.0049
 7768SOL    HW230844   1.555   2.481   5.366 -0.0295  0.0371  1.7128
 7768SOL    HW330845   1.563   2.565   5.492  0.3420  1.6160  0.6613
 7768SOL    MW430846   1.598   2.537   5.417  0.2906 -0.2455  0.2339
 7769SOL     OW30847   5.505   1.421   0.452  0.5530  0.4940 -0.6067
 7769SOL    HW230848   5.542   1.439   0.365  2.2105  0.5459  0.0575
 7769SOL    HW330849   5.535   1.333   0.473  0.0350  0.4250 -0.1521
 7769SOL    MW430850   5.514   1.412   0.443  0.2113  0.1623 -0.8733
 7770SOL     OW30851   2.019   1.876   6.198 -0.0653 -0.5433 -0.5302
 7770SOL    HW230852   1.998   1.821   6.122 -1.3614 -1.3724  0.4034
 7770SOL    HW330853   1.950   1.941   6.200 -0.9053 -1.4373  0.7885
 7770SOL    MW430854   2.007   1.877   6.188  0.3537  0.3783  0.2484
 7771SOL     OW30855   0.606   0.176   1.603  0.0592 -0.0857  0.1467
 7771SOL    HW230856   0.590   0.083   1.584  2.7900 -0.6558  0.0920
 7771SOL    HW330857   0.669   0.203   1.535  0.1727  1.4770  0.8327
 7771SOL    MW430858   0.612   0.167   1.591 -0.3790 -0.0020  0.1763
 7772SOL     OW30859   0.844   2.427   1.743 -0.7754 -0.3175  0.6234
 7772SOL    HW230860   0.809   2.374   1.671 -1.6880 -0.2468  0.9991
 7772SOL    HW330861   0.906   2.487   1.701  1.3285 -2.5453  0.3629
 7772SOL    MW430862   0.847   2.428   1.728 -0.0955  0.0756  0.2292
 7773SOL     OW30863   1.325   5.250   1.211 -0.1893  0.6134 -0.2217
 7773SOL    HW230864   1.248   5.222   1.261  0.6268  0.5201  1.0308
 7773SOL    HW330865   1.339   5.179   1.149 -1.9282  1.2770 -1.4519
 7773SOL    MW430866   1.316   5.237   1.210  0.0256 -0.2254 -0.0483
 7774SOL     OW30867   1.180   6.370   4.564  0.0618 -0.4544 -0.3242
 7774SOL    HW230868   1.122   6.296   4.582 -0.0469 -0.1077  0.8476
 7774SOL    HW330869   1.175   6.424   4.643  1.6467 -0.1916 -0.3742
 7774SOL    MW430870   1.172   6.368   4.577 -0.0856 -0.0721  0.0911
 7775SOL     OW30871   5.651   5.898   5.387 -0.1669 -0.0086 -0.1753
 7775SOL    HW230872   5.600   5.829   5.431 -0.7589 -0.0706 -0.9451
 7775SOL    HW330873   5.740   5.863   5.382 -0.0336  0.0879  1.1583
 7775SOL    MW430874   5.656   5.884   5.392 -0.0363  0.0584 -0.7738
 7776SOL     OW30875   0.060   1.904   5.476 -0.1715 -0.2699  0.4108
 7776SOL    HW230876   0.015   1.946   5.402  0.1291 -0.5193  0.0866
 7776SOL    HW330877  -0.008   1.854   5.520  0.3317 -3.2827 -1.9194
 7776SOL    MW430878   0.045   1.903   5.472 -0.5144 -0.3625 -0.0682
 7777SOL     OW30879   5.675   0.361   1.776 -0.4225 -0.2179 -0.0770
 7777SOL    HW230880   5.672   0.334   1.684  0.8803 -0.9782  0.0800
 7777SOL    HW330881   5.733   0.437   1.777 -0.1133 -0.4575  0.1783
 7777SOL    MW430882   5.682   0.367   1.764 -0.2139 -0.4687 -0.7365
 7778SOL     OW30883   5.105   4.762   2.570 -0.5174  0.4106  0.1172
 7778SOL    HW230884   5.125   4.847   2.531 -0.5849  1.3409  1.9796
 7778SOL    HW330885   5.160   4.700   2.523  0.6383  1.7096 -0.3070
 7778SOL    MW430886   5.115   4.765   2.559 -0.2587 -0.6746 -0.5287
 7779SOL     OW30887   3.281   6.080   3.038  0.3477 -0.0911 -0.4492
 7779SOL    HW230888   3.345   6.012   3.061  0.9560  1.3235  2.5772
 7779SOL    HW330889   3.330   6.162   3.045 -1.4716  0.9636  0.8542
 7779SOL    MW430890   3.296   6.081   3.042 -0.6525  0.7805  0.0146
 7780SOL     OW30891   3.153   5.264   1.588 -0.1596  0.5956 -0.8073
 7780SOL    HW230892   3.083   5.265   1.653 -0.3432  0.3720 -0.9978
 7780SOL    HW330893   3.136   5.186   1.536  1.1599 -0.3746  0.1438
 7780SOL    MW430894   3.141   5.254   1.589 -0.0847 -0.3093 -0.1611
 7781SOL     OW30895   0.733   2.852   3.647 -0.5330  0.3010  0.8123
 7781SOL    HW230896   0.668   2.870   3.715 -0.1588  1.4156  0.9026
 7781SOL    HW330897   0.698   2.778   3.598 -1.3233  0.1763  1.5556
 7781SOL    MW430898   0.720   2.845   3.650 -0.3314  0.1281  0.3989
 7782SOL     OW30899   2.521   1.769   5.953  0.4397  0.3110  0.4403
 7782SOL    HW230900   2.533   1.738   6.043 -0.1578  0.2386  0.4963
 7782SOL    HW330901   2.431   1.746   5.932  0.6983 -0.0315 -0.3201
 7782SOL    MW430902   2.511   1.762   5.962 -0.4463 -0.1251 -0.3652
 7783SOL     OW30903   4.174   3.156   0.813  0.5853  0.7924  0.4091
 7783SOL    HW230904   4.212   3.227   0.762  0.2171  0.4507 -0.3440
 7783SOL    HW330905   4.112   3.200   0.872  0.3581  1.0997 -0.0524
 7783SOL    MW430906   4.171   3.171   0.814 -0.0633 -0.0563 -0.0551
 7784SOL     OW30907   2.247   1.706   4.749 -0.1037  0.7730 -0.5176
 7784SOL    HW230908   2.259   1.787   4.799 -0.4236  0.4698  0.0660
 7784SOL    HW330909   2.153   1.702   4.731 -0.6405 -0.9428  2.0897
 7784SOL    MW430910   2.236   1.716   4.753 -0.3948 -0.0466 -0.0284
 7785SOL     OW30911   1.703   3.364   5.194  0.2805  0.3483  0.7497
 7785SOL    HW230912   1.791   3.355   5.156  0.9164 -1.0205  2.4150
 7785SOL    HW330913   1.716   3.416   5.273 -0.9515  2.7673 -0.5401
 7785SOL    MW430914   1.717   3.370   5.199 -0.4298 -0.3152 -0.0529
 7786SOL     OW30915   2.129   0.647   3.948  0.3054 -0.0130  0.0827
 7786SOL    HW230916   2.121   0.733   3.906 -2.2107 -0.2103 -0.0049
 7786SOL    HW330917   2.199   0.659   4.012  1.0474  1.6517 -0.9612
 7786SOL    MW430918   2.137   0.660   3.951  0.1370  0.1342  0.5006
 7787SOL     OW30919   3.518   3.370   4.915  0.0270 -0.1529 -0.7006
 7787SOL    HW230920   3.509   3.390   5.008  0.2160 -0.7589 -0.5438
 7787SOL    HW330921   3.449   3.306   4.897  0.7739 -0.9837 -0.6786
 7787SOL    MW430922   3.508   3.364   4.925  0.3848 -0.2552  0.0474
 7788SOL     OW30923   2.684   0.523   1.613 -0.0657 -0.2711  0.1845
 7788SOL    HW230924   2.743   0.510   1.687 -1.0686  0.3473  1.1214
 7788SOL    HW330925   2.717   0.463   1.545 -0.1319 -2.1167  1.6989
 7788SOL    MW430926   2.696   0.513   1.614 -0.2154  0.2503  0.1803
 7789SOL     OW30927   0.877   4.541   3.059  0.2196  0.2085 -0.6965
 7789SOL    HW230928   0.879   4.631   3.026 -0.5038 -0.4181 -2.5335
 7789SOL    HW330929   0.786   4.513   3.050  0.1281 -0.2873  1.1801
 7789SOL    MW430930   0.865   4.549   3.054 -0.7629  0.3481 -0.5251
 7790SOL     OW30931   5.787   4.437   5.597  0.2430  0.4346  0.1614
 7790SOL    HW230932   5.751   4.502   5.537 -1.1642 -0.3401  0.1073
 7790SOL    HW330933   5.782   4.479   5.683  0.9031  1.0090 -0.0789
 7790SOL    MW430934   5.781   4.451   5.601  0.9487  0.3466 -0.0629
 7791SOL     OW30935   3.927   2.083   0.445  0.0062  0.6733 -0.1828
 7791SOL    HW230936   3.926   1.988   0.431 -0.8944  0.8275 -1.2470
 7791SOL    HW330937   3.980   2.118   0.374 -1.7742  1.1619 -1.3445
 7791SOL    MW430938   3.934   2.075   0.434  0.8484  0.3225  0.0667
 7792SOL     OW30939   0.383   5.797   3.037  0.2726  0.1731 -0.1558
 7792SOL    HW230940   0.325   5.754   3.100  0.6519 -0.3998 -0.1964
 7792SOL    HW330941   0.374   5.890   3.057 -0.6696  0.0948 -0.1666
 7792SOL    MW430942   0.374   5.804   3.048 -0.2350 -0.2750  0.3311
 7793SOL     OW30943   3.525   2.460   3.982 -0.1600 -0.0511 -0.4827
 7793SOL    HW230944   3.603   2.426   4.026  1.0506  0.9102 -1.7898
 7793SOL    HW330945   3.478   2.509   4.049  0.1904 -0.9053  0.3998
 7793SOL    MW430946   3.529   2.462   3.996 -0.6850 -0.0697 -0.3226
 7794SOL     OW30947   5.587   0.566   3.879  0.5623 -0.2407 -0.1868
 7794SOL    HW230948   5.521   0.615   3.829 -0.0836  0.6483  1.4385
 7794SOL    HW330949   5.668   0.615   3.866  0.2692  0.3362  0.0998
 7794SOL    MW430950   5.589   0.579   3.871  0.3240 -0.2780 -0.2698
 7795SOL     OW30951   0.186   2.484   4.280  0.7123 -0.1115  0.0148
 7795SOL    HW230952   0.227   2.398   4.278  0.5144 -0.2247  0.5312
 7795SOL    HW330953   0.127   2.480   4.356  2.9900  1.4752  2.0329
 7795SOL    MW430954   0.184   2.472   4.290  0.7687  0.0020 -0.2962
 7796SOL     OW30955   4.243   5.841   6.376 -0.1685 -0.0563 -0.0114
 7796SOL    HW230956   4.184   5.792   6.434  1.1676 -1.1768  0.4590
 7796SOL    HW330957   4.267   5.919   6.426 -0.8245  0.1491 -0.0040
 7796SOL    MW430958   4.238   5.845   6.390  0.5309  0.4307  0.7909
 7797SOL     OW30959   5.464   1.524   4.106 -0.0294  0.1478  0.2800
 7797SOL    HW230960   5.407   1.575   4.047 -1.7344  0.2432  1.9040
 7797SOL    HW330961   5.542   1.578   4.115 -1.0870  1.7268  0.6077
 7797SOL    MW430962   5.467   1.538   4.100 -0.3555 -0.0381  0.2248
 7798SOL     OW30963   3.143   1.893   4.280 -0.6514 -0.1393  0.3590
 7798SOL    HW230964   3.209   1.954   4.313 -0.2088 -0.2566 -0.2761
 7798SOL    HW330965   3.059   1.934   4.301 -0.3614  1.1280 -0.8287
 7798SOL    MW430966   3.140   1.906   4.287  0.1816 -0.0742  0.5654
 7799SOL     OW30967   2.166   4.242   4.661 -0.1323  0.0003  0.2879
 7799SOL    HW230968   2.236   4.229   4.597 -0.4869 -0.7587  0.0449
 7799SOL    HW330969   2.198   4.312   4.718 -0.3155  1.6082 -1.4637
 7799SOL    MW430970   2.179   4.250   4.660 -0.8009  0.1699  0.0111
 7800SOL     OW30971   3.654   0.880   5.432  0.3338 -0.3468 -0.0023
 7800SOL    HW230972   3.579   0.884   5.492 -0.3290 -1.7080 -0.6895
 7800SOL    HW330973   3.657   0.967   5.391 -1.0369 -0.3409 -0.1378
 7800SOL    MW430974   3.644   0.892   5.434 -0.2469 -0.2109  0.3936
 7801SOL     OW30975   1.088   4.851   5.032  0.4077 -0.0783  0.0085
 7801SOL    HW230976   1.144   4.818   4.961  0.5787 -1.4435  0.7410
 7801SOL    HW330977   1.013   4.793   5.032  0.2764  0.0862  0.7722
 7801SOL    MW430978   1.086   4.839   5.023  0.5728  0.5972 -0.1692
 7802SOL     OW30979   6.374   4.100   1.850 -0.3705 -0.1434  0.1859
 7802SOL    HW230980   6.398   4.065   1.764  2.0534  1.7683 -0.0306
 7802SOL    HW330981   6.418   4.041   1.912 -0.2032 -0.2114  0.0049
 7802SOL    MW430982   6.383   4.087   1.847 -0.4796  0.0447 -0.0404
 7803SOL     OW30983   2.345   4.419   5.785 -0.4359  0.1869 -0.0694
 7803SOL    HW230984   2.417   4.482   5.796 -0.8313  0.4560  1.1499
 7803SOL    HW330985   2.310   4.437   5.698  1.3963 -0.4110 -0.9855
 7803SOL    MW430986   2.350   4.430   5.775 -0.6034  0.2814 -0.2020
 7804SOL     OW30987   2.907   2.638   4.862  0.6575  0.8265  0.4571
 7804SOL    HW230988   2.830   2.584   4.882  0.5355  0.6884 -0.3483
 7804SOL    HW330989   2.971   2.613   4.929  0.3599  0.1924  0.5225
 7804SOL    MW430990   2.905   2.627   4.873 -0.1289  0.0808  0.4873
 7805SOL     OW30991   5.712   5.882   3.463 -0.1447 -0.3243 -0.1269
 7805SOL    HW230992   5.698   5.821   3.536 -0.9635  0.3048  0.2521
 7805SOL    HW330993   5.700   5.969   3.501  2.4511  0.2036 -0.3178
 7805SOL    MW430994   5.708   5.885   3.478  0.1876  0.3705 -0.4445
 7806SOL     OW30995   2.158   5.084   4.930 -0.2197  0.4155  0.0355
 7806SOL    HW230996   2.247   5.093   4.896 -0.5078  0.2602 -0.7743
 7806SOL    HW330997   2.132   5.174   4.950  0.1352  0.4568  0.3371
 7806SOL    MW430998   2.167   5.097   4.928 -0.1330 -0.1470  0.2058
 7807SOL     OW30999   3.398   5.058   2.486  0.1244  0.0047 -0.1316
 7807SOL    HW231000   3.313   5.022   2.514  1.0076 -1.7405  0.4670
 7807SOL    HW331001   3.438   5.091   2.566 -0.8308  2.8832 -0.7217
 7807SOL    MW431002   3.392   5.057   2.500  0.3780 -0.3769 -0.2708
 7808SOL     OW31003   0.865   3.043   3.022 -0.2060  0.3157 -0.1815
 7808SOL    HW231004   0.801   3.086   3.079  0.1269  2.1944 -1.1336
 7808SOL    HW331005   0.950   3.061   3.063 -0.1236 -0.2336 -0.1080
 7808SOL    MW431006   0.868   3.051   3.035 -0.3680  0.4316 -0.1221
 7809SOL     OW31007   5.636   0.883   5.664 -0.2661 -0.6688  0.3223
 7809SOL    HW231008   5.732   0.890   5.660 -0.3220 -0.5035 -0.9481
 7809SOL    HW331009   5.615   0.807   5.612 -0.7496 -1.6828  1.9230
 7809SOL    MW431010   5.646   0.874   5.657 -0.4354  0.6971  0.3196
 7810SOL     OW31011   1.103   6.294   5.223  0.4535 -0.1078  0.2125
 7810SOL    HW231012   1.026   6.237   5.224 -0.7011  1.3966 -0.3604
 7810SOL    HW331013   1.077   6.373   5.270  1.8378  0.2166  0.4914
 7810SOL    MW431014   1.090   6.297   5.229  0.4944  0.2787 -0.3035
 7811SOL     OW31015   3.051   0.444   5.238  0.2529  0.1208 -0.1698
 7811SOL    HW231016   3.089   0.448   5.150  3.4788 -1.4761  1.0240
 7811SOL    HW331017   3.004   0.361   5.240 -0.2184  0.3736 -0.5018
 7811SOL    MW431018   3.050   0.434   5.227  0.1767  0.2380  0.1862
 7812SOL     OW31019   1.985   4.655   5.177 -0.1474 -0.0467  0.0307
 7812SOL    HW231020   1.977   4.739   5.132 -2.9085  1.1263  2.3641
 7812SOL    HW331021   1.957   4.591   5.111  3.1809  0.5426 -2.1900
 7812SOL    MW431022   1.980   4.658   5.162  0.1582  0.2887  0.2358
 7813SOL     OW31023   4.028   0.205   0.849  0.0263  0.0152 -0.4066
 7813SOL    HW231024   4.014   0.114   0.823  0.7766 -0.4878  0.8366
 7813SOL    HW331025   4.023   0.204   0.945  1.1663  1.0675 -0.3051
 7813SOL    MW431026   4.025   0.193   0.859 -0.1366 -0.4155 -0.2252
 7814SOL     OW31027   3.559   1.173   0.581 -0.0772 -0.0497  0.6114
 7814SOL    HW231028   3.628   1.129   0.631 -0.4176  0.5667  1.6595
 7814SOL    HW331029   3.479   1.123   0.600  0.3386 -2.1146 -2.3056
 7814SOL    MW431030   3.557   1.160   0.590 -0.0074 -0.3834  0.2397
 7815SOL     OW31031   6.038   1.975   3.827  0.5351 -0.3785  0.1912
 7815SOL    HW231032   6.114   1.919   3.841 -0.1736 -1.5573 -0.5299
 7815SOL    HW331033   6.059   2.056   3.873  1.8568 -0.9984  0.7201
 7815SOL    MW431034   6.051   1.979   3.835  0.1616  0.3547 -0.0573
 7816SOL     OW31035   4.748   0.281   1.673  0.8752 -0.1063 -0.2291
 7816SOL    HW231036   4.714   0.347   1.733 -1.7361 -2.2490  0.8991
 7816SOL    HW331037   4.735   0.319   1.586 -0.3977  0.9694  0.3876
 7816SOL    MW431038   4.742   0.294   1.669 -0.1787 -0.8007 -0.0577
 7817SOL     OW31039   2.850   5.605   3.402 -0.5378  0.0438 -0.0607
 7817SOL    HW231040   2.791   5.560   3.341  1.8080 -1.9739 -1.0158
 7817SOL    HW331041   2.906   5.536   3.436  0.7793  1.7481  1.4320
 7817SOL    MW431042   2.849   5.590   3.398  0.3685 -0.5705 -0.1996
 7818SOL     OW31043   0.111   4.678   0.668 -0.6113 -0.5454  0.8489
 7818SOL    HW231044   0.105   4.738   0.742 -1.3140  0.0004  0.3555
 7818SOL    HW331045   0.066   4.599   0.698 -1.4881 -0.0853  0.7762
 7818SOL    MW431046   0.104   4.675   0.682 -0.4583 -0.1313 -0.1427
 7819SOL     OW31047   4.891   2.589   4.680 -0.5327 -0.5026  0.5677
 7819SOL    HW231048   4.877   2.684   4.687  1.3100 -0.2237  1.0299
 7819SOL    HW331049   4.985   2.580   4.665 -0.8798 -2.2254 -0.8251
 7819SOL    MW431050   4.902   2.600   4.679 -0.4416  0.6648 -0.0014
 7820SOL     OW31051   5.672   3.696   2.114 -0.1304 -0.4281 -0.1874
 7820SOL    HW231052   5.579   3.694   2.136 -0.1724 -0.1017 -0.3169
 7820SOL    HW331053   5.692   3.790   2.107  0.0034 -0.5080 -0.9875
 7820SOL    MW431054   5.662   3.708   2.116  0.0064  0.5395  0.2596
 7821SOL     OW31055   5.166   2.832   0.453  0.0097  0.6096 -0.5237
 7821SOL    HW231056   5.120   2.885   0.388 -0.5296 -1.4028 -1.8821
 7821SOL    HW331057   5.125   2.856   0.536 -0.1916  2.2914 -1.0625
 7821SOL    MW431058   5.155   2.842   0.455 -0.3366 -0.2558 -0.0814
 7822SOL     OW31059   2.859   3.079   6.178 -0.7367 -0.6476  0.4617
 7822SOL    HW231060   2.906   3.089   6.095 -1.6352 -0.3635 -0.0228
 7822SOL    HW331061   2.885   2.993   6.211 -0.8939 -1.0487 -0.4493
 7822SOL    MW431062   2.869   3.069   6.172  0.1041  0.2545  0.0482
 7823SOL     OW31063   5.016   3.599   1.583  0.1004  0.5891  0.0741
 7823SOL    HW231064   5.018   3.573   1.491 -0.8884  0.9694 -0.0582
 7823SOL    HW331065   4.996   3.518   1.630  1.4877  0.2035  0.0495
 7823SOL    MW431066   5.014   3.584   1.577 -0.0102  0.6583  0.4967
 7824SOL     OW31067   6.390   5.573   2.265  1.0537 -0.7145  0.4276
 7824SOL    HW231068   6.456   5.563   2.197 -0.5975 -1.3845 -1.1538
 7824SOL    HW331069   6.396   5.493   2.317  1.0767 -1.0587 -0.0981
 7824SOL    MW431070   6.399   5.561   2.263 -0.0407 -0.1719 -0.4847
 7825SOL     OW31071   1.882   4.147   0.544 -0.2720  0.1372  0.1288
 7825SOL    HW231072   1.884   4.212   0.614 -2.3412 -0.2672  0.6127
 7825SOL    HW331073   1.954   4.087   0.566 -0.1197  0.6900  1.2226
 7825SOL    MW431074   1.892   4.148   0.556  0.2570 -0.0653  0.2308
 7826SOL     OW31075   1.458   2.996   3.390 -0.3883  0.4935 -0.6001
 7826SOL    HW231076   1.519   3.003   3.463  0.5243 -0.3675 -1.2527
 7826SOL    HW331077   1.373   2.978   3.432  0.1280 -0.0493  0.2475
 7826SOL    MW431078   1.455   2.994   3.405  0.2753  0.2724  0.2758
 7827SOL     OW31079   0.215   4.909   2.212  0.5273 -0.0313 -0.1324
 7827SOL    HW231080   0.261   4.941   2.135 -1.6049  1.4155 -0.9142
 7827SOL    HW331081   0.243   4.966   2.283  1.7427 -0.7366 -0.0214
 7827SOL    MW431082   0.225   4.920   2.211 -0.3928 -0.2307  0.1778
 7828SOL     OW31083   5.014   2.473   0.716 -0.5450 -0.2194  0.0762
 7828SOL    HW231084   4.988   2.433   0.798  0.4092  2.5346  1.8559
 7828SOL    HW331085   5.096   2.429   0.693 -0.3671 -0.4274  1.0769
 7828SOL    MW431086   5.022   2.462   0.723  0.0476  0.4442 -0.2145
 7829SOL     OW31087   2.108   3.638   0.949 -0.2176  0.0564 -0.6082
 7829SOL    HW231088   2.112   3.675   0.861 -1.3180 -1.2436 -1.2383
 7829SOL    HW331089   2.159   3.558   0.944 -0.2576 -0.0100 -0.0451
 7829SOL    MW431090   2.115   3.633   0.937 -0.1530  0.3861  0.3148
 7830SOL     OW31091   1.736   4.400   5.641  0.4651  0.5031  0.0807
 7830SOL    HW231092   1.701   4.485   5.670 -0.9778  0.2978 -0.9638
 7830SOL    HW331093   1.742   4.408   5.546  0.7575 -0.4294  0.0129
 7830SOL    MW431094   1.732   4.412   5.632  0.1191  0.2215  0.0292
 7831SOL     OW31095   1.081   5.638   0.944 -0.3103  0.7047 -0.2475
 7831SOL    HW231096   0.994   5.599   0.938  0.1448 -0.4712  0.4008
 7831SOL    HW331097   1.136   5.568   0.978  0.7283  1.6682  0.1277
 7831SOL    MW431098   1.077   5.624   0.948 -0.7045 -0.1531  0.3324
 7832SOL     OW31099   3.817   3.388   4.528 -0.1895  0.1421  0.5595
 7832SOL    HW231100   3.883   3.319   4.517  0.1201  0.5578 -0.2129
 7832SOL    HW331101   3.776   3.368   4.613 -0.7828 -1.5569 -0.0785
 7832SOL    MW431102   3.820   3.376   4.538 -0.5203  0.3551  0.4380
 7833SOL     OW31103   3.984   0.160   2.724  0.2342  0.5988  0.3394
 7833SOL    HW231104   4.063   0.127   2.683 -0.3816  0.9557 -1.2447
 7833SOL    HW331105   3.989   0.255   2.712  0.7448  0.8718  2.4828
 7833SOL    MW431106   3.995   0.169   2.717  0.1614 -0.2521  0.3593
 7834SOL     OW31107   0.239   6.306   4.431  0.5329  0.3017 -0.5356
 7834SOL    HW231108   0.213   6.347   4.349 -0.1318  0.9949  0.0210
 7834SOL    HW331109   0.180   6.341   4.497 -0.5512 -2.0604 -0.1349
 7834SOL    MW431110   0.228   6.316   4.429  0.1857  0.0838 -0.6680
 7835SOL     OW31111   5.642   4.543   2.340  0.5735  0.0798 -0.0426
 7835SOL    HW231112   5.731   4.510   2.347  0.0806 -1.4147 -0.3237
 7835SOL    HW331113   5.621   4.577   2.427  0.8632 -1.0876  0.5076
 7835SOL    MW431114   5.651   4.543   2.352 -0.3981 -0.5210 -0.5536
 7836SOL     OW31115   0.851   0.697   1.090 -0.0521 -0.1042 -0.3291
 7836SOL    HW231116   0.862   0.777   1.040  1.0978  0.2808  0.4888
 7836SOL    HW331117   0.825   0.727   1.178  1.6822 -0.5085  0.3643
 7836SOL    MW431118   0.849   0.712   1.095  0.0861  0.2782  0.0303
 7837SOL     OW31119   3.653   5.374   5.840 -0.2462 -0.0794 -0.0679
 7837SOL    HW231120   3.694   5.379   5.927 -1.6702  0.9180  0.5820
 7837SOL    HW331121   3.632   5.281   5.829  0.9444 -0.3934  0.1548
 7837SOL    MW431122   3.656   5.363   5.850  0.3332 -0.4285  0.2931
 7838SOL     OW31123   0.885   4.641   5.000  0.1271 -0.7739 -0.0900
 7838SOL    HW231124   0.927   4.632   5.086  0.0044  2.8770  0.5183
 7838SOL    HW331125   0.797   4.607   5.012 -0.0315  0.0801  1.4339
 7838SOL    MW431126   0.879   4.636   5.013 -0.0233 -0.0170 -0.0728
 7839SOL     OW31127   2.577   3.780   3.811 -0.5014 -0.1939 -0.9158
 7839SOL    HW231128   2.650   3.719   3.822 -0.5632 -0.2626 -0.8941
 7839SOL    HW331129   2.577   3.800   3.717  0.2598  0.6807 -0.7516
 7839SOL    MW431130   2.587   3.775   3.800 -0.3218 -0.0448 -0.2996
 7840SOL     OW31131   5.443   5.055   2.850  0.1906  0.2981  0.1706
 7840SOL    HW231132   5.357   5.063   2.891  0.1682 -1.1951  0.4714
 7840SOL    HW331133   5.426   5.061   2.756 -0.1601  0.5784  0.2509
 7840SOL    MW431134   5.429   5.057   2.843  0.3049  0.8923  0.2562
 7841SOL     OW31135   1.600   2.950   4.959 -0.1325  0.8018  0.2652
 7841SOL    HW231136   1.582   2.857   4.969  0.6220  0.7069  0.7881
 7841SOL    HW331137   1.685   2.954   4.916  0.0251  1.2470  0.6137
 7841SOL    MW431138   1.609   2.938   4.955  0.0920  0.4277 -0.3433
 7842SOL     OW31139   3.344   2.875   1.193 -0.1341  0.0546 -0.2885
 7842SOL    HW231140   3.312   2.810   1.256 -0.7769 -0.1837 -0.8402
 7842SOL    HW331141   3.326   2.960   1.234  0.5175 -0.1074  0.3461
 7842SOL    MW431142   3.337   2.878   1.207 -0.2885  0.2252 -0.0334
 7843SOL     OW31143   0.905   1.060   2.565 -0.2304  0.1802  0.0966
 7843SOL    HW231144   0.987   1.018   2.592 -0.3443 -1.2836 -1.6227
 7843SOL    HW331145   0.836   1.004   2.600 -0.4398  0.0890 -0.4533
 7843SOL    MW431146   0.907   1.047   2.573  0.0440 -0.0085  0.3893
 7844SOL     OW31147   3.616   1.306   2.002  0.0449  0.5642  0.5725
 7844SOL    HW231148   3.604   1.277   2.092 -0.3891  0.8429  0.6096
 7844SOL    HW331149   3.685   1.250   1.967  0.6375  0.8515  1.2588
 7844SOL    MW431150   3.624   1.295   2.009 -0.0549 -0.1766  0.2760
 7845SOL     OW31151   5.428   5.933   1.611  0.3903  0.0305  0.2133
 7845SOL    HW231152   5.417   5.843   1.580 -0.7128 -0.0119  0.6810
 7845SOL    HW331153   5.506   5.964   1.566 -0.8676 -0.1599 -2.2946
 7845SOL    MW431154   5.437   5.925   1.601  0.4925  0.9118 -0.3881
 7846SOL     OW31155   1.564   3.117   1.987  0.3526  0.3152  0.1692
 7846SOL    HW231156   1.581   3.185   1.921  0.6599  0.3712  0.3049
 7846SOL    HW331157   1.469   3.117   1.997  0.3931  1.1909  0.6582
 7846SOL    MW431158   1.554   3.126   1.980 -0.0818 -0.0065  0.3997
 7847SOL     OW31159   5.092   1.698   0.004  0.1837  0.0930 -0.5675
 7847SOL    HW231160   5.111   1.666   0.092 -2.1373 -0.1903 -0.0933
 7847SOL    HW331161   5.000   1.675  -0.010  0.7482 -0.8210 -3.4981
 7847SOL    MW431162   5.082   1.691   0.014  0.3717 -0.0130 -0.5045
 7848SOL     OW31163   2.175   2.989   2.722  0.2237 -0.4497  0.3359
 7848SOL    HW231164   2.168   2.896   2.745  2.1391 -1.0990 -1.3953
 7848SOL    HW331165   2.092   3.010   2.681 -0.7958 -0.9632  2.0509
 7848SOL    MW431166   2.163   2.980   2.720  0.0088 -0.2236  0.3518
 7849SOL     OW31167   3.489   4.199   2.021 -0.4691  0.4525 -0.0159
 7849SOL    HW231168   3.457   4.122   1.975 -0.6565  1.4855 -1.7183
 7849SOL    HW331169   3.426   4.268   2.000  0.5294  1.4498  0.1339
 7849SOL    MW431170   3.477   4.198   2.012 -0.0947  0.7990  0.3906
 7850SOL     OW31171   4.014   2.882   0.249 -0.0189 -1.0449  0.0467
 7850SOL    HW231172   4.071   2.851   0.179  0.1843 -1.8519  0.5581
 7850SOL    HW331173   4.073   2.927   0.310 -0.1030 -0.8723  0.0009
 7850SOL    MW431174   4.030   2.884   0.248  0.6433 -0.4273 -0.0390
 7851SOL     OW31175   1.384   4.529   4.006  0.8211 -0.0757 -0.6550
 7851SOL    HW231176   1.413   4.594   3.942 -0.8575  0.5596 -0.8365
 7851SOL    HW331177   1.293   4.511   3.982  0.4990 -0.6724  0.8719
 7851SOL    MW431178   1.376   4.535   3.994 -0.0474  0.2279 -0.5594
 7852SOL     OW31179   5.389   0.607   2.011 -0.3831  0.2227 -0.3825
 7852SOL    HW231180   5.394   0.516   1.983  1.1585  0.5479 -1.2903
 7852SOL    HW331181   5.296   0.625   2.016 -0.7428 -1.6936  0.8487
 7852SOL    MW431182   5.378   0.597   2.008 -0.2507  0.0965 -0.0226
 7853SOL     OW31183   5.447   5.408   0.349 -0.3899  0.4172 -0.0467
 7853SOL    HW231184   5.453   5.391   0.443  0.0411  1.2575  0.0901
 7853SOL    HW331185   5.534   5.439   0.324  0.1732 -1.8075 -1.1732
 7853SOL    MW431186   5.459   5.410   0.358  0.0273  0.5709  0.6516
 7854SOL     OW31187   4.564   3.380   2.931 -0.3850 -0.1350  0.1861
 7854SOL    HW231188   4.519   3.301   2.958  0.7026 -0.6291  0.5970
 7854SOL    HW331189   4.634   3.392   2.996  0.3158  0.3893 -0.6351
 7854SOL    MW431190   4.568   3.371   2.943 -0.9579  0.3231  0.5543
 7855SOL     OW31191   0.889   5.844   3.665 -0.2422 -0.0745  0.4261
 7855SOL    HW231192   0.898   5.759   3.709  0.1121  0.3888  1.2770
 7855SOL    HW331193   0.959   5.845   3.600 -2.0638 -1.6577 -1.7259
 7855SOL    MW431194   0.899   5.833   3.662  0.4600  0.3378 -0.4705
 7856SOL     OW31195   3.701   2.105   4.277 -0.2005  0.2197  0.3822
 7856SOL    HW231196   3.794   2.088   4.264 -0.4415 -1.0463  0.1112
 7856SOL    HW331197   3.681   2.067   4.362 -0.6818 -0.5176 -0.0446
 7856SOL    MW431198   3.710   2.098   4.286 -0.2188 -0.0830 -0.0816
 7857SOL     OW31199   5.739   4.826   5.950 -0.5721 -0.4447 -0.1942
 7857SOL    HW231200   5.688   4.905   5.928 -1.4426 -0.3381  1.9811
 7857SOL    HW331201   5.816   4.859   5.995 -0.2036 -0.7911 -0.5589
 7857SOL    MW431202   5.742   4.841   5.953 -0.1631  0.0234 -0.4225
 7858SOL     OW31203   1.090   1.451   2.690  0.2204 -0.1436  0.3348
 7858SOL    HW231204   1.128   1.423   2.607 -2.0147 -1.3447 -0.3528
 7858SOL    HW331205   1.113   1.381   2.752  2.6792  1.1861  1.0635
 7858SOL    MW431206   1.098   1.438   2.688 -0.2244 -0.1544 -0.7604
 7859SOL     OW31207   2.870   1.238   2.523  0.3788  0.2027  0.0343
 7859SOL    HW231208   2.918   1.166   2.482  2.8611  1.7968 -0.0622
 7859SOL    HW331209   2.932   1.310   2.525 -0.7415  1.2813  3.4727
 7859SOL    MW431210   2.884   1.238   2.518  0.0446  0.0573 -0.3810
 7860SOL     OW31211   0.361   5.126   3.604 -0.3151 -0.4465  0.2849
 7860SOL    HW231212   0.366   5.041   3.646  0.8480 -0.3505  0.3761
 7860SOL    HW331213   0.419   5.120   3.529  0.7180  0.6014  0.9468
 7860SOL    MW431214   0.370   5.114   3.600 -0.3951  0.0195 -0.0993
 7861SOL     OW31215   3.413   4.498   3.883 -0.0788  0.0089  0.0401
 7861SOL    HW231216   3.505   4.501   3.857  0.0123  1.1067  0.4638
 7861SOL    HW331217   3.390   4.405   3.875  0.8740 -0.1865 -0.6991
 7861SOL    MW431218   3.422   4.486   3.878 -0.4040 -0.5452 -0.8692
 7862SOL     OW31219   3.335   4.997   0.314  0.0560  0.0121 -0.1179
 7862SOL    HW231220   3.367   4.912   0.284 -0.1090 -0.8304  1.9714
 7862SOL    HW331221   3.254   5.010   0.264 -0.0380 -1.1705 -0.3142
 7862SOL    MW431222   3.328   4.987   0.303 -0.0765 -0.0604  0.3451
 7863SOL     OW31223   0.231   0.883   1.468  0.2773 -0.5027 -0.0305
 7863SOL    HW231224   0.275   0.947   1.524  1.4902 -3.3859  2.6209
 7863SOL    HW331225   0.139   0.908   1.470  0.7565  1.3472  0.5572
 7863SOL    MW431226   0.225   0.895   1.476  0.1624 -0.1226  0.2392
 7864SOL     OW31227   5.859   6.402   1.594  0.0231  0.6879  0.2671
 7864SOL    HW231228   5.935   6.389   1.652 -0.7251  3.9462  2.2409
 7864SOL    HW331229   5.897   6.413   1.507  1.3773 -2.1379  0.3834
 7864SOL    MW431230   5.874   6.401   1.590 -0.7131  0.4448  0.3017
 7865SOL     OW31231   1.127   6.095   0.234  0.2729 -0.2446 -0.2154
 7865SOL    HW231232   1.158   6.007   0.253 -1.2343 -0.6078  0.8050
 7865SOL    HW331233   1.103   6.093   0.141 -1.0530 -1.3729  0.1130
 7865SOL    MW431234   1.128   6.084   0.224  0.1065  0.0800  0.8662
 7866SOL     OW31235   3.436   2.944   5.131 -0.1082  0.0655  0.3634
 7866SOL    HW231236   3.524   2.940   5.092 -0.8476  1.4142 -1.5802
 7866SOL    HW331237   3.432   3.031   5.170 -0.9199  0.4203 -0.4837
 7866SOL    MW431238   3.447   2.955   5.131  0.4469 -1.0720  0.0574
 7867SOL     OW31239   5.332   5.119   4.279 -0.0426  0.2376  0.4804
 7867SOL    HW231240   5.275   5.071   4.218  1.4272 -1.6286  0.4933
 7867SOL    HW331241   5.308   5.211   4.267 -2.5272 -0.4028 -0.0385
 7867SOL    MW431242   5.321   5.125   4.269  0.0252  0.1216  0.2008
 7868SOL     OW31243   1.345   4.756   1.957  0.1136 -0.0335  0.2852
 7868SOL    HW231244   1.255   4.744   1.988  0.9580 -1.1280  2.5667
 7868SOL    HW331245   1.349   4.707   1.875 -2.4753  3.6836 -2.4225
 7868SOL    MW431246   1.333   4.748   1.950 -0.7075 -0.2756  0.4478
 7869SOL     OW31247   4.381   1.300   4.243 -0.0635  0.0210 -0.8368
 7869SOL    HW231248   4.310   1.312   4.180 -0.5444  0.7702 -0.1729
 7869SOL    HW331249   4.422   1.386   4.249  0.6279 -0.3030 -0.8934
 7869SOL    MW431250   4.377   1.313   4.235 -0.0757 -0.2379 -0.5019
 7870SOL     OW31251   4.278   4.217   4.305 -0.2348  0.0310 -0.1576
 7870SOL    HW231252   4.291   4.130   4.341  0.5616 -0.5885 -1.8058
 7870SOL    HW331253   4.283   4.276   4.380  2.1161 -1.0953  0.6652
 7870SOL    MW431254   4.280   4.213   4.319 -0.1052 -0.1787  0.2075
 7871SOL     OW31255   2.163   4.068   4.265 -0.1947 -0.1672 -0.2511
 7871SOL    HW231256   2.200   4.147   4.225 -0.6500  0.3474  0.3252
 7871SOL    HW331257   2.234   4.032   4.317 -0.4459  0.7534  0.7591
 7871SOL    MW431258   2.177   4.074   4.266  0.0717 -0.0361 -0.5291
 7872SOL     OW31259   4.467   6.387   4.786 -0.0188 -0.0750  0.6139
 7872SOL    HW231260   4.475   6.408   4.879 -1.1255  1.1975  0.4526
 7872SOL    HW331261   4.376   6.408   4.764  0.1082 -0.7441 -0.6635
 7872SOL    MW431262   4.456   6.393   4.795  0.0905  0.2215 -0.3682
 7873SOL     OW31263   4.676   3.622   5.139  0.2861  0.0947 -0.1617
 7873SOL    HW231264   4.727   3.595   5.215 -0.4087  0.7050  0.5486
 7873SOL    HW331265   4.585   3.602   5.163  0.2060 -1.4603 -1.6020
 7873SOL    MW431266   4.671   3.616   5.152 -0.4499  0.9717  0.0978
 7874SOL     OW31267   5.313   2.539   3.206 -0.4302  0.1943 -0.5556
 7874SOL    HW231268   5.303   2.617   3.152  1.7797  1.3553  0.5598
 7874SOL    HW331269   5.327   2.572   3.295 -0.3639 -1.5124  0.1149
 7874SOL    MW431270   5.314   2.554   3.211  0.4240  0.0161 -0.3712
 7875SOL     OW31271   2.999   1.995   1.504  0.6847  0.3652 -0.0055
 7875SOL    HW231272   3.065   1.938   1.464  1.5480  1.8457 -0.7766
 7875SOL    HW331273   2.951   2.031   1.429  0.0311  0.5095  0.4790
 7875SOL    MW431274   3.001   1.992   1.489  0.0700  0.1414  0.0165
 7876SOL     OW31275   1.742   0.121   2.398  0.6299  0.4771 -0.3694
 7876SOL    HW231276   1.742   0.213   2.371  1.4604  0.5269 -0.2302
 7876SOL    HW331277   1.760   0.124   2.492 -0.0005  0.1963 -0.2340
 7876SOL    MW431278   1.744   0.134   2.407 -0.9475 -0.1051  0.0729
 7877SOL     OW31279   0.409   2.658   0.092 -0.5571  0.2064 -0.6091
 7877SOL    HW231280   0.345   2.588   0.097 -1.7672  1.1859 -1.5739
 7877SOL    HW331281   0.362   2.735   0.126  0.7656  0.5491  0.5214
 7877SOL    MW431282   0.394   2.659   0.097 -0.0911 -0.2809  0.0165
 7878SOL     OW31283   5.660   5.352   4.585  0.5562 -0.5858  0.5071
 7878SOL    HW231284   5.745   5.315   4.562  0.2835 -2.3590  2.1100
 7878SOL    HW331285   5.619   5.286   4.642 -1.5138  0.6183  0.5293
 7878SOL    MW431286   5.666   5.338   4.590 -0.5682  0.0753  0.1504
 7879SOL     OW31287   5.502   0.864   4.159  0.0379 -0.2699 -0.0043
 7879SOL    HW231288   5.432   0.918   4.122  0.3512  1.7023  2.0627
 7879SOL    HW331289   5.502   0.886   4.252  3.5198 -0.0757  0.0626
 7879SOL    MW431290   5.492   0.874   4.167  0.7293  0.1454  0.2480
 7880SOL     OW31291   6.112   0.748   4.011 -0.4170 -0.1695  0.3071
 7880SOL    HW231292   6.196   0.779   4.044 -0.7290 -0.3475  1.3009
 7880SOL    HW331293   6.128   0.657   3.986 -0.6340 -0.6454  1.8095
 7880SOL    MW431294   6.125   0.740   4.012 -0.3321 -0.2446 -0.2079
 7881SOL     OW31295   0.020   4.581   3.586  0.0528  0.1457  0.6000
 7881SOL    HW231296   0.114   4.565   3.579  0.1544  1.3303 -1.4853
 7881SOL    HW331297   0.004   4.655   3.527 -2.2306 -0.2746  0.6245
 7881SOL    MW431298   0.030   4.588   3.577 -0.2819 -0.1938  0.3274
 7882SOL     OW31299   0.911   4.208   0.809 -0.6259  0.2755  0.2426
 7882SOL    HW231300   0.827   4.215   0.854 -0.7180  3.0850 -0.1549
 7882SOL    HW331301   0.890   4.163   0.727 -1.9934  1.7065 -0.2614
 7882SOL    MW431302   0.897   4.203   0.804  0.1589 -0.2834 -0.0130
 7883SOL     OW31303   0.069   3.083   1.771  0.2025  0.0259  0.3647
 7883SOL    HW231304   0.051   3.012   1.832  0.2400 -1.1834 -0.9910
 7883SOL    HW331305   0.082   3.160   1.827  2.4693 -1.4526  2.0275
 7883SOL    MW431306   0.068   3.084   1.786 -0.3256 -0.0542  0.2248
 7884SOL     OW31307   1.094   0.900   5.189 -0.2581 -0.4133  0.0077
 7884SOL    HW231308   1.158   0.885   5.120  0.7308  0.6147  0.6637
 7884SOL    HW331309   1.011   0.912   5.142  0.5284  1.1301 -1.1015
 7884SOL    MW431310   1.091   0.900   5.174 -0.3215 -0.3792  0.1248
 7885SOL     OW31311   3.925   3.219   0.482 -0.0152 -0.6417 -0.2109
 7885SOL    HW231312   3.920   3.263   0.566  0.8868  1.9367 -1.3974
 7885SOL    HW331313   4.010   3.174   0.484 -0.2039 -0.9767  0.4171
 7885SOL    MW431314   3.936   3.219   0.493  0.6895  0.0720  0.1514
 7886SOL     OW31315   5.907   2.987   0.718  0.6047  0.5514 -0.2229
 7886SOL    HW231316   5.970   2.951   0.780  0.4737 -0.9459 -0.9247
 7886SOL    HW331317   5.944   3.072   0.694  0.3784  1.4356  2.2858
 7886SOL    MW431318   5.920   2.994   0.723  0.0901 -0.1278  0.2944
 7887SOL     OW31319   1.236   4.315   5.166  0.2738  0.0367  0.3372
 7887SOL    HW231320   1.161   4.304   5.106 -0.0704  0.4052  0.6970
 7887SOL    HW331321   1.288   4.236   5.153 -1.5750 -1.5608  2.0652
 7887SOL    MW431322   1.233   4.303   5.156 -0.6446  0.8077  0.4282
 7888SOL     OW31323   0.548   5.657   6.199  0.1780 -0.6974  0.0437
 7888SOL    HW231324   0.516   5.713   6.271  0.1430 -0.6647  0.0033
 7888SOL    HW331325   0.468   5.625   6.157  0.1756  0.5435 -0.9661
 7888SOL    MW431326   0.533   5.660   6.203  0.4117 -0.2438  0.5798
 7889SOL     OW31327   4.674   2.936   3.918  0.2086 -0.2204  0.0579
 7889SOL    HW231328   4.600   2.895   3.874 -0.1536 -0.0147  0.4543
 7889SOL    HW331329   4.703   2.872   3.983 -0.0836 -0.0316  0.3848
 7889SOL    MW431330   4.668   2.922   3.921 -0.3613  0.1599 -0.3143
 7890SOL     OW31331   5.762   4.811   1.064  0.8018 -0.1578  0.3187
 7890SOL    HW231332   5.803   4.726   1.047  1.0324 -0.0999  0.5833
 7890SOL    HW331333   5.797   4.838   1.149  1.8357  0.8799 -0.4149
 7890SOL    MW431334   5.772   4.803   1.073  0.2742 -0.0962 -0.5450
 7891SOL     OW31335   0.868   6.119   5.329  0.1604 -0.3919 -0.1052
 7891SOL    HW231336   0.799   6.126   5.263  0.5530 -0.4542 -0.5337
 7891SOL    HW331337   0.893   6.027   5.326 -0.4634 -0.6011  0.8063
 7891SOL    MW431338   0.862   6.108   5.320 -0.3015 -0.7279  0.4224
 7892SOL     OW31339   1.097   3.975   3.143 -0.2859  0.0183  0.1243
 7892SOL    HW231340   1.086   4.043   3.077  0.4786 -0.4084 -0.4711
 7892SOL    HW331341   1.167   4.008   3.200  1.8015 -1.2202 -1.5487
 7892SOL    MW431342   1.105   3.988   3.142 -0.1810 -0.0134 -0.2915
 7893SOL     OW31343   3.081   5.250   1.244  0.1097 -0.1464  0.4100
 7893SOL    HW231344   3.100   5.328   1.193 -0.0385 -1.7037 -2.2107
 7893SOL    HW331345   2.986   5.253   1.258  0.0831  0.0716  0.1897
 7893SOL    MW431346   3.071   5.261   1.239 -0.8478 -0.1541 -0.3090
 7894SOL     OW31347   2.441   2.499   4.549 -0.4600  0.1790 -0.2758
 7894SOL    HW231348   2.501   2.569   4.523  0.0962 -0.5484 -1.0100
 7894SOL    HW331349   2.387   2.484   4.471 -2.2748  1.4642  0.6660
 7894SOL    MW431350   2.442   2.506   4.535 -0.2395 -0.0925  0.4024
 7895SOL     OW31351   1.882   2.534   4.405 -0.1455  0.0281  0.6923
 7895SOL    HW231352   1.850   2.617   4.370 -1.0000 -0.0100  1.3572
 7895SOL    HW331353   1.970   2.525   4.368 -1.3833 -0.5744 -2.3363
 7895SOL    MW431354   1.889   2.544   4.396  0.0774  0.1422  0.0265
 7896SOL     OW31355   1.821   3.825   1.552 -0.0324  0.1228  0.0517
 7896SOL    HW231356   1.777   3.891   1.499 -1.3363 -0.4979  0.3160
 7896SOL    HW331357   1.864   3.768   1.489 -1.5404 -0.5868 -0.3722
 7896SOL    MW431358   1.821   3.826   1.537 -0.1431  0.4241  0.1055
 7897SOL     OW31359   3.412   5.930   0.325 -0.7007  0.2666  0.1110
 7897SOL    HW231360   3.412   5.836   0.307 -0.2699 -0.0818  1.7635
 7897SOL    HW331361   3.319   5.951   0.334 -0.7465 -0.4233  1.5923
 7897SOL    MW431362   3.399   5.920   0.324  0.3863  0.1563 -0.1077
 7898SOL     OW31363   5.392   2.258   0.193  0.1242 -0.1406  0.4478
 7898SOL    HW231364   5.318   2.207   0.160  0.1959  0.0369  0.0023
 7898SOL    HW331365   5.461   2.243   0.129 -0.4830  2.1603 -0.8592
 7898SOL    MW431366   5.391   2.249   0.180  0.1950 -0.8719 -0.6231
 7899SOL     OW31367   2.568   5.787   1.118 -0.7695  0.0246  0.2338
 7899SOL    HW231368   2.607   5.757   1.201  0.0793  1.1035  0.2414
 7899SOL    HW331369   2.499   5.848   1.145 -0.9530 -0.1488  0.1586
 7899SOL    MW431370   2.564   5.791   1.133  0.4457  0.2382  0.5198
 7900SOL     OW31371   0.663   4.913   0.214  0.1097 -0.0968  0.2642
 7900SOL    HW231372   0.573   4.882   0.214  0.2495 -0.5369 -0.3165
 7900SOL    HW331373   0.671   4.968   0.292 -0.1016 -1.6566  1.4228
 7900SOL    MW431374   0.652   4.916   0.224 -0.7285  0.0742  0.1497
 7901SOL     OW31375   4.836   3.931   3.059  0.1154  0.0762  0.0068
 7901SOL    HW231376   4.867   4.019   3.079 -1.0508  0.3636  0.5823
 7901SOL    HW331377   4.765   3.944   2.996 -0.1678 -0.4449  0.2145
 7901SOL    MW431378   4.831   3.944   3.053 -0.5144 -0.0124  0.3808
 7902SOL     OW31379   2.366   0.866   2.534  0.1876 -0.3422  0.1890
 7902SOL    HW231380   2.327   0.811   2.467 -0.4420  0.0763  0.2034
 7902SOL    HW331381   2.389   0.806   2.605  0.9154 -0.7951 -0.4165
 7902SOL    MW431382   2.364   0.851   2.535  0.2258 -0.5628 -0.1089
 7903SOL     OW31383   0.526   0.757   4.717  0.0712  0.0130 -0.9979
 7903SOL    HW231384   0.615   0.788   4.700 -0.2881  0.9610 -1.1934
 7903SOL    HW331385   0.527   0.729   4.809  0.2168  1.3195 -0.5802
 7903SOL    MW431386   0.538   0.757   4.727  0.2967  0.0577 -0.6196
 7904SOL     OW31387   1.013   1.259   0.528 -0.2783  0.1622  0.5158
 7904SOL    HW231388   1.052   1.177   0.496 -1.5985 -0.4953  0.5326
 7904SOL    HW331389   1.057   1.274   0.612 -1.0526 -1.3625  1.2519
 7904SOL    MW431390   1.024   1.250   0.535 -0.4804 -0.5381 -0.1700
 7905SOL     OW31391   4.473   2.617   3.197  0.8495  0.4985 -0.0638
 7905SOL    HW231392   4.505   2.651   3.280  2.3897  1.0219 -0.8285
 7905SOL    HW331393   4.414   2.685   3.165  0.4860  0.4304  0.4455
 7905SOL    MW431394   4.470   2.631   3.204  0.0696 -0.2815 -0.1868
 7906SOL     OW31395   3.129   0.997   1.070 -0.2797  0.4352  0.3495
 7906SOL    HW231396   3.142   0.933   1.140  0.6437  0.2429  0.0201
 7906SOL    HW331397   3.050   0.967   1.025  0.3611 -0.7256 -0.0471
 7906SOL    MW431398   3.120   0.985   1.073  0.0337  0.2136  0.2809
 7907SOL     OW31399   4.748   5.067   2.216  0.4845  0.7309 -0.2006
 7907SOL    HW231400   4.683   5.134   2.237 -0.5963 -0.2042 -0.4349
 7907SOL    HW331401   4.798   5.056   2.297  0.1564  1.2593  0.0810
 7907SOL    MW431402   4.746   5.074   2.229 -0.0328 -0.4918 -0.5866
 7908SOL     OW31403   0.663   4.792   3.975 -0.0437  0.3166  0.2976
 7908SOL    HW231404   0.610   4.751   3.907 -1.2025  0.3499  1.1483
 7908SOL    HW331405   0.748   4.808   3.933 -1.1568  1.6684 -1.5994
 7908SOL    MW431406   0.667   4.789   3.961  0.0981  0.1447 -0.2597
 7909SOL     OW31407   5.945   5.836   4.570  0.4168 -0.0682  0.5534
 7909SOL    HW231408   5.882   5.894   4.614  0.1031 -1.7865  2.5414
 7909SOL    HW331409   5.908   5.823   4.482 -0.9990  0.4909  1.0253
 7909SOL    MW431410   5.931   5.842   4.564  0.0487 -0.4367  0.0692
 7910SOL     OW31411   2.463   3.649   1.481  0.4415  0.2515  0.5053
 7910SOL    HW231412   2.434   3.560   1.503  0.8635  0.2082  0.8926
 7910SOL    HW331413   2.416   3.706   1.542 -0.9874  0.4474 -0.7190
 7910SOL    MW431414   2.453   3.644   1.492  0.3346 -0.0725 -0.3818
 7911SOL     OW31415   3.494   5.000   4.222  0.2115 -0.0947  0.0313
 7911SOL    HW231416   3.448   4.916   4.227  0.1137  0.0088  0.9633
 7911SOL    HW331417   3.484   5.027   4.130  0.7679 -1.3812 -0.4321
 7911SOL    MW431418   3.486   4.993   4.210 -0.2138  0.2623 -0.2480
 7912SOL     OW31419   0.484   2.061   1.850  0.1273  0.2248  0.4686
 7912SOL    HW231420   0.397   2.082   1.883  0.5197  0.6459  1.2477
 7912SOL    HW331421   0.539   2.133   1.880  0.5704  0.4577 -0.8220
 7912SOL    MW431422   0.479   2.073   1.858 -0.1915 -0.7012  0.1099
 7913SOL     OW31423   3.722   2.388   4.152 -0.5991 -0.0321  0.0657
 7913SOL    HW231424   3.800   2.368   4.100 -0.3129  1.5370 -0.1481
 7913SOL    HW331425   3.708   2.309   4.205  2.4976  0.4443  1.8058
 7913SOL    MW431426   3.731   2.375   4.152 -0.9146  0.8671 -0.4372
 7914SOL     OW31427   4.800   0.367   0.795  0.3964 -0.1896 -0.1304
 7914SOL    HW231428   4.814   0.273   0.807 -2.4797 -0.6364  0.4854
 7914SOL    HW331429   4.713   0.383   0.832  0.3070  2.5055 -1.2754
 7914SOL    MW431430   4.790   0.357   0.801 -0.1107 -0.1388 -1.1182
 7915SOL     OW31431   3.337   0.362   1.785 -0.1506  0.1126  0.3577
 7915SOL    HW231432   3.432   0.364   1.773 -0.3210  1.0963 -1.0791
 7915SOL    HW331433   3.303   0.419   1.716 -1.7805 -0.0698  0.9695
 7915SOL    MW431434   3.345   0.369   1.774  0.4003 -1.0206  0.3891
 7916SOL     OW31435   2.557   0.738   2.729  0.1823  0.0791  0.0557
 7916SOL    HW231436   2.644   0.773   2.715  0.5631 -0.7692  0.2052
 7916SOL    HW331437   2.516   0.797   2.791  0.6158  0.5344 -0.0909
 7916SOL    MW431438   2.563   0.750   2.735  0.1108  0.0770  0.0166
 7917SOL     OW31439   0.183   2.600   2.183  0.1081  0.2058  0.4412
 7917SOL    HW231440   0.195   2.662   2.111  0.7897 -2.7932 -2.2383
 7917SOL    HW331441   0.265   2.607   2.233  0.1641  1.4071  0.2296
 7917SOL    MW431442   0.196   2.609   2.180 -0.5535  0.8257  0.7591
 7918SOL     OW31443   3.826   4.082   4.973  0.0632 -0.5213 -0.7534
 7918SOL    HW231444   3.897   4.144   4.957  1.2651 -2.2520 -2.5649
 7918SOL    HW331445   3.870   3.998   4.986 -1.5753 -1.2417  0.3955
 7918SOL    MW431446   3.841   4.079   4.972 -0.2242  0.2107  0.0355
 7919SOL     OW31447   3.419   0.849   2.686 -0.1770  0.2167 -0.3223
 7919SOL    HW231448   3.328   0.864   2.661  0.1550  2.0427 -0.5472
 7919SOL    HW331449   3.468   0.917   2.641  0.9233  1.2738  2.2782
 7919SOL    MW431450   3.413   0.860   2.677  0.0754 -0.0598  0.4931
 7920SOL     OW31451   4.360   3.817   2.368 -0.7677  0.0652 -0.0295
 7920SOL    HW231452   4.283   3.872   2.381  0.6231  1.7548  1.8241
 7920SOL    HW331453   4.375   3.777   2.454  0.3436 -0.2778 -0.3650
 7920SOL    MW431454   4.352   3.819   2.381  0.7297 -0.3268  0.3375
 7921SOL     OW31455   2.156   0.411   3.350  0.2928  0.9278 -0.3934
 7921SOL    HW231456   2.186   0.350   3.283  0.4715  0.7632 -0.1658
 7921SOL    HW331457   2.063   0.394   3.360  0.7452 -0.9079  1.2945
 7921SOL    MW431458   2.148   0.401   3.343  0.5434  0.8788 -0.4153
 7922SOL     OW31459   0.190   2.839   2.710 -0.8277  0.4947  0.3215
 7922SOL    HW231460   0.112   2.883   2.743 -0.4072  2.0815 -0.7196
 7922SOL    HW331461   0.226   2.795   2.787 -2.6602 -0.2132  0.8431
 7922SOL    MW431462   0.184   2.839   2.725  0.0925  0.1680 -0.5032
 7923SOL     OW31463   1.413   1.598   0.527  0.5413 -0.2503  0.6107
 7923SOL    HW231464   1.382   1.651   0.454  1.6642 -1.2769 -0.6696
 7923SOL    HW331465   1.342   1.602   0.592  0.1099  1.8116  0.0793
 7923SOL    MW431466   1.399   1.605   0.526 -0.2118 -0.0695 -0.3017
 7924SOL     OW31467   4.000   0.033   6.313 -0.5943 -0.7065  0.4475
 7924SOL    HW231468   4.053   0.112   6.305 -1.5178 -0.0776  0.3927
 7924SOL    HW331469   3.957   0.023   6.229 -2.6721  0.3599  1.3139
 7924SOL    MW431470   4.002   0.042   6.301 -0.0530  0.0517 -0.4115
 7925SOL     OW31471   0.745   5.900   1.004 -0.1944 -0.0630  0.2161
 7925SOL    HW231472   0.819   5.890   1.064 -0.7327 -2.3378  0.5655
 7925SOL    HW331473   0.669   5.912   1.060 -0.2029  2.0894 -0.1448
 7925SOL    MW431474   0.745   5.900   1.019 -0.3062 -0.5433  0.3409
 7926SOL     OW31475   1.429   0.461   3.548  0.0751 -0.2915 -0.0308
 7926SOL    HW231476   1.386   0.375   3.557 -0.6210 -0.0617 -1.0420
 7926SOL    HW331477   1.502   0.457   3.610  0.8822 -2.1274 -1.0149
 7926SOL    MW431478   1.433   0.449   3.558 -0.2850 -0.0458  0.0971
 7927SOL     OW31479   3.571   2.355   4.803 -0.2953 -0.0997 -0.2973
 7927SOL    HW231480   3.500   2.359   4.867 -1.0174 -0.7874 -1.0490
 7927SOL    HW331481   3.651   2.353   4.857 -0.8401  0.2929  0.5565
 7927SOL    MW431482   3.572   2.355   4.819 -0.1948  0.3574  0.7938
 7928SOL     OW31483   5.524   6.267   2.327 -0.3498 -0.0027 -0.1779
 7928SOL    HW231484   5.532   6.183   2.373 -1.3935 -0.8123 -1.3982
 7928SOL    HW331485   5.604   6.314   2.349 -0.2121 -0.8832  1.3877
 7928SOL    MW431486   5.535   6.262   2.336  0.6766  0.4349 -0.3570
 7929SOL     OW31487   3.257   1.957   5.939  0.1249  0.2848  0.0333
 7929SOL    HW231488   3.230   2.044   5.968 -2.1105 -1.1060  2.6311
 7929SOL    HW331489   3.184   1.926   5.886  0.8270 -0.0969 -0.7249
 7929SOL    MW431490   3.244   1.965   5.936 -0.4027  0.4416  0.1416
 7930SOL     OW31491   1.276   5.256   2.556  0.8119 -0.4081 -0.5535
 7930SOL    HW231492   1.213   5.310   2.509  1.0092 -0.5845 -1.0247
 7930SOL    HW331493   1.361   5.284   2.523  1.2117  1.6729  1.9378
 7930SOL    MW431494   1.279   5.267   2.546  0.4393 -0.1885  0.1120
 7931SOL     OW31495   0.304   0.047   1.660 -0.1403  0.6458  0.2535
 7931SOL    HW231496   0.268   0.135   1.663  2.1671  1.8238 -2.0634
 7931SOL    HW331497   0.255   0.003   1.590  0.9131  1.3038 -0.9470
 7931SOL    MW431498   0.293   0.053   1.651  0.0092 -0.4762  0.0489
 7932SOL     OW31499   1.262   1.955   6.346  0.6096  0.0348 -0.4208
 7932SOL    HW231500   1.197   1.910   6.401 -0.0441  0.6480 -0.6789
 7932SOL    HW331501   1.342   1.955   6.399  0.2543 -0.2319  0.1318
 7932SOL    MW431502   1.264   1.949   6.360  0.2520  0.0714  0.3131
 7933SOL     OW31503   0.795   3.716   3.065 -0.5410 -0.1635 -0.1855
 7933SOL    HW231504   0.847   3.694   2.987 -0.6176 -0.9026 -0.0370
 7933SOL    HW331505   0.854   3.700   3.138 -0.6182  0.0958 -0.0649
 7933SOL    MW431506   0.809   3.711   3.064 -0.7072  0.7069 -0.1311
 7934SOL     OW31507   2.651   1.324   2.331 -0.2676  0.2405 -0.2713
 7934SOL    HW231508   2.714   1.297   2.398  0.2407  2.3008  0.1278
 7934SOL    HW331509   2.684   1.282   2.251  0.7890  0.1184  0.2014
 7934SOL    MW431510   2.664   1.315   2.329 -0.0702  0.0785 -0.0829
 7935SOL     OW31511   2.082   6.301   2.032 -0.0758 -0.0252 -0.2246
 7935SOL    HW231512   2.071   6.394   2.015 -0.5075 -0.5120 -3.0241
 7935SOL    HW331513   2.175   6.284   2.014 -0.2286 -0.3057 -0.7793
 7935SOL    MW431514   2.093   6.311   2.028  0.2850  0.2127  0.3666
 7936SOL     OW31515   6.196   6.168   5.195 -0.5112 -0.7888  0.5447
 7936SOL    HW231516   6.126   6.104   5.200 -0.6853 -0.5861  0.6973
 7936SOL    HW331517   6.269   6.121   5.155 -0.9708 -0.7933 -0.2994
 7936SOL    MW431518   6.196   6.154   5.191 -0.1994  0.1464  0.2665
 7937SOL     OW31519   0.750   5.546   0.343 -0.8701  0.1025  0.0116
 7937SOL    HW231520   0.665   5.584   0.322  0.3093  1.9436 -1.7804
 7937SOL    HW331521   0.796   5.540   0.259  0.3124 -2.1269  0.7293
 7937SOL    MW431522   0.745   5.550   0.329 -0.1000 -0.2728  0.0791
 7938SOL     OW31523   0.179   6.227   3.956  0.3991 -0.1576  0.4829
 7938SOL    HW231524   0.223   6.142   3.957 -0.2052 -0.4706  0.6939
 7938SOL    HW331525   0.229   6.279   3.893  0.1858 -0.9790 -0.3922
 7938SOL    MW431526   0.192   6.222   3.948 -0.3674 -0.3170  0.2337
 7939SOL     OW31527   2.095   5.042   5.253 -0.0684 -0.2327  0.1427
 7939SOL    HW231528   2.168   5.096   5.223 -0.4669 -0.6092 -1.6444
 7939SOL    HW331529   2.066   4.997   5.174 -1.7567 -0.6557  0.9758
 7939SOL    MW431530   2.101   5.043   5.238  0.3800  0.2245  0.2473
 7940SOL     OW31531   4.640   0.656   2.447 -0.5824 -0.1661  0.0771
 7940SOL    HW231532   4.622   0.607   2.367 -0.9653  0.3272 -0.1460
 7940SOL    HW331533   4.705   0.721   2.422 -1.5363  0.7354 -0.1262
 7940SOL    MW431534   4.646   0.658   2.433  0.5055  0.3702  0.3462
 7941SOL     OW31535   0.834   1.377   3.934 -0.7889  0.2105 -0.2638
 7941SOL    HW231536   0.805   1.390   4.024 -1.0631 -0.9095 -0.1750
 7941SOL    HW331537   0.929   1.382   3.937 -0.6972 -1.2942  0.3727
 7941SOL    MW431538   0.842   1.379   3.946 -0.0502  0.1901  0.1380
 7942SOL     OW31539   4.490   4.321   2.171 -0.6997 -0.3551 -0.1098
 7942SOL    HW231540   4.399   4.349   2.164 -0.7080 -0.4917 -0.5357
 7942SOL    HW331541   4.484   4.228   2.194 -0.6689 -0.1254  0.9046
 7942SOL    MW431542   4.477   4.312   2.173 -0.1728  0.0957 -0.0898
 7943SOL     OW31543   4.189   1.415   0.251 -0.4634 -0.1829 -0.1157
 7943SOL    HW231544   4.193   1.320   0.255  0.1308 -0.1519  0.2655
 7943SOL    HW331545   4.124   1.440   0.317 -1.2404 -0.3554 -0.8008
 7943SOL    MW431546   4.181   1.406   0.261 -0.2932 -0.3539  0.0242
 7944SOL     OW31547   0.054   3.325   3.018 -0.5080 -0.1947 -0.0776
 7944SOL    HW231548   0.028   3.233   3.019  0.8106 -0.5961 -1.1894
 7944SOL    HW331549   0.080   3.344   3.109  3.2529 -2.1597 -0.5632
 7944SOL    MW431550   0.054   3.316   3.030  0.2958  0.4727  0.1787
 7945SOL     OW31551   2.294   4.653   2.970 -0.0212 -0.1558 -0.6045
 7945SOL    HW231552   2.246   4.631   3.050  0.7581 -0.0349 -0.0929
 7945SOL    HW331553   2.230   4.643   2.900 -0.9888  0.6782  0.1304
 7945SOL    MW431554   2.279   4.649   2.971 -0.0364 -0.4263 -0.4815
 7946SOL     OW31555   1.065   1.519   6.030 -0.3619  1.0439  0.2714
 7946SOL    HW231556   0.978   1.501   6.065 -0.5671  1.7002  0.1194
 7946SOL    HW331557   1.123   1.514   6.106 -0.1864 -1.5117  0.0376
 7946SOL    MW431558   1.061   1.516   6.045  0.3226 -0.2792 -0.3392
 7947SOL     OW31559   1.093   3.981   2.462 -0.2189 -0.1319 -0.4352
 7947SOL    HW231560   1.106   3.889   2.485  0.4609 -0.2457 -1.2247
 7947SOL    HW331561   1.171   4.025   2.496  0.5083 -0.2097 -1.9186
 7947SOL    MW431562   1.105   3.975   2.470 -0.6057  0.1311  0.2182
 7948SOL     OW31563   0.465   3.904   4.702  0.2504 -0.4306  0.0422
 7948SOL    HW231564   0.530   3.871   4.764  0.5502 -1.6125 -0.8555
 7948SOL    HW331565   0.431   3.984   4.742  1.8540 -0.0862  0.7854
 7948SOL    MW431566   0.469   3.910   4.716  0.0704  0.0208 -0.1208
 7949SOL     OW31567   0.453   5.222   1.161  0.2739  0.0058 -0.6636
 7949SOL    HW231568   0.402   5.263   1.231  0.3954  0.1310 -0.6497
 7949SOL    HW331569   0.420   5.263   1.081  0.9084  0.6750 -0.5966
 7949SOL    MW431570   0.442   5.233   1.159  0.1234 -0.6478  0.6801
 7950SOL     OW31571   1.554   5.178   2.265 -0.1700  0.1046  0.3101
 7950SOL    HW231572   1.597   5.210   2.186  0.2578  0.8034  0.8127
 7950SOL    HW331573   1.589   5.090   2.279 -1.3277 -0.6088 -1.0716
 7950SOL    MW431574   1.564   5.171   2.257  0.4070  0.3695 -0.0618
 7951SOL     OW31575   6.201   2.310   1.580  0.1004 -0.0169 -0.0701
 7951SOL    HW231576   6.261   2.377   1.610 -0.2202  0.9900 -1.5511
 7951SOL    HW331577   6.221   2.300   1.487 -0.0140 -1.8260  0.0726
 7951SOL    MW431578   6.211   2.318   1.571 -0.2534  0.1625 -0.5443
 7952SOL     OW31579   1.503   2.150   2.190  0.1860  0.3883  0.0455
 7952SOL    HW231580   1.435   2.214   2.168  0.4396 -0.3018 -3.4940
 7952SOL    HW331581   1.455   2.075   2.225 -0.5277  1.0097  0.4324
 7952SOL    MW431582   1.488   2.149   2.191  0.3040  0.1550 -0.0675
 7953SOL     OW31583   2.515   4.824   1.931 -0.1928  0.6578  0.5286
 7953SOL    HW231584   2.604   4.841   1.961  0.6790 -1.9302 -0.2866
 7953SOL    HW331585   2.482   4.757   1.992 -1.0331  0.5365 -0.0442
 7953SOL    MW431586   2.522   4.817   1.943 -0.3144 -0.6410 -0.0098
 7954SOL     OW31587   1.342   4.541   3.397 -0.1789  0.2051 -0.8931
 7954SOL    HW231588   1.306   4.561   3.483  1.4552 -0.8932  0.1111
 7954SOL    HW331589   1.294   4.597   3.336  0.0465  2.5812  0.9760
 7954SOL    MW431590   1.331   4.551   3.400  0.0171 -0.0855 -0.6400
 7955SOL     OW31591   5.590   1.274   3.459  0.3671 -0.6798  0.0412
 7955SOL    HW231592   5.624   1.234   3.539  0.6910 -0.2719  0.1105
 7955SOL    HW331593   5.537   1.347   3.489  0.2388 -0.7117 -0.1072
 7955SOL    MW431594   5.588   1.278   3.474  0.3570  0.3956  0.4155
 7956SOL     OW31595   1.277   3.654   0.447  0.6217  0.2462 -0.1764
 7956SOL    HW231596   1.321   3.569   0.442 -0.1232 -0.1198 -0.5707
 7956SOL    HW331597   1.306   3.691   0.531  0.9919 -0.3638 -0.0297
 7956SOL    MW431598   1.287   3.648   0.458 -0.1493 -0.1394 -0.1971
 7957SOL     OW31599   1.100   2.783   0.532 -0.2409  0.8477 -0.3783
 7957SOL    HW231600   1.155   2.708   0.508  1.3398  1.4302  1.1774
 7957SOL    HW331601   1.050   2.803   0.453 -0.9570 -2.0120 -0.7711
 7957SOL    MW431602   1.101   2.776   0.519  0.0223  0.1836  0.1261
 7958SOL     OW31603   4.175   1.422   2.107  0.5365  0.3729 -0.3008
 7958SOL    HW231604   4.148   1.350   2.164  1.2279 -1.8752 -2.6826
 7958SOL    HW331605   4.093   1.461   2.078  0.1548  0.5566  0.9367
 7958SOL    MW431606   4.160   1.418   2.111 -0.5627 -0.0179  0.7576
 7959SOL     OW31607   1.461   2.186   3.971 -0.3714  0.3057 -0.4942
 7959SOL    HW231608   1.436   2.171   4.062  1.6992 -1.2247 -0.1051
 7959SOL    HW331609   1.525   2.256   3.974 -0.4551  0.3971 -0.7983
 7959SOL    MW431610   1.466   2.193   3.983  0.1573 -0.2174 -0.0277
 7960SOL     OW31611   6.433   0.803   1.845 -0.1255  0.1172  0.2711
 7960SOL    HW231612   6.479   0.844   1.918  2.9645 -1.6748 -0.4763
 7960SOL    HW331613   6.494   0.808   1.771 -2.0671 -0.4431 -1.4873
 7960SOL    MW431614   6.447   0.809   1.845 -0.4161  0.2934  0.1307
 7961SOL     OW31615   5.490   1.923   2.749 -0.1016  0.6701 -0.5458
 7961SOL    HW231616   5.399   1.925   2.717 -0.0815 -0.0547 -0.6532
 7961SOL    HW331617   5.482   1.903   2.842  0.0527 -2.7671 -1.1565
 7961SOL    MW431618   5.477   1.921   2.757 -0.0328 -0.2556 -0.2739
 7962SOL     OW31619   2.076   3.654   2.832 -0.0243 -0.3165  0.0868
 7962SOL    HW231620   1.988   3.692   2.832  0.7536  1.6588  1.1272
 7962SOL    HW331621   2.097   3.643   2.739 -0.9603  0.1931 -0.1988
 7962SOL    MW431622   2.067   3.658   2.819 -0.0211 -0.5448  0.6939
 7963SOL     OW31623   6.257   5.273   0.353 -0.8240 -0.5184  0.4516
 7963SOL    HW231624   6.309   5.346   0.319  0.4632 -0.6111  2.1536
 7963SOL    HW331625   6.236   5.221   0.275  1.0250 -0.0992 -0.3787
 7963SOL    MW431626   6.261   5.276   0.338 -1.0898  0.4086  0.4433
 7964SOL     OW31627   4.532   3.432   3.969 -0.4256  0.4520  0.0345
 7964SOL    HW231628   4.596   3.362   3.986  1.2723  1.6987 -0.8467
 7964SOL    HW331629   4.542   3.492   4.043  0.2895  1.2290 -0.6732
 7964SOL    MW431630   4.542   3.430   3.981  0.4960 -0.3825  0.1117
 7965SOL     OW31631   1.615   2.674   1.684  0.4571 -0.1396  0.2038
 7965SOL    HW231632   1.605   2.588   1.644  1.8031  0.0469 -0.5804
 7965SOL    HW331633   1.650   2.655   1.771 -1.1644 -0.4653  0.8272
 7965SOL    MW431634   1.618   2.660   1.690  0.0397  0.5355  0.0459
 7966SOL     OW31635   0.241   5.997   6.161  0.5233  0.4153  0.0161
 7966SOL    HW231636   0.325   5.956   6.181  0.5568 -0.3244 -1.4976
 7966SOL    HW331637   0.264   6.079   6.116  0.4363  0.3326 -0.1791
 7966SOL    MW431638   0.255   6.003   6.158  0.4089 -0.0335 -0.0395
 7967SOL     OW31639   1.300   5.480   4.646 -0.0131  0.0982  0.6190
 7967SOL    HW231640   1.205   5.485   4.640  0.1114  1.7788 -0.6603
 7967SOL    HW331641   1.326   5.561   4.690  0.8148 -0.6215  1.5163
 7967SOL    MW431642   1.291   5.492   4.651 -0.6316  0.0875  0.2288
 7968SOL     OW31643   0.313   4.162   6.038  0.2817 -0.1626  0.0944
 7968SOL    HW231644   0.384   4.215   6.074  1.2793 -0.6414 -1.1029
 7968SOL    HW331645   0.353   4.077   6.021 -0.5369 -0.3928 -0.7533
 7968SOL    MW431646   0.327   4.158   6.040 -0.5871  0.6666  0.1075
 7969SOL     OW31647   3.643   3.109   1.958  0.1566  0.5346  0.2112
 7969SOL    HW231648   3.732   3.079   1.936  0.6421  1.3338  1.0294
 7969SOL    HW331649   3.625   3.179   1.896  0.1618  0.4897  0.1587
 7969SOL    MW431650   3.653   3.114   1.947 -0.0667  0.1712  0.0861
 7970SOL     OW31651   5.296   3.656   0.291 -0.1871  0.0439  0.2293
 7970SOL    HW231652   5.318   3.581   0.346 -1.2121 -0.3952  0.0620
 7970SOL    HW331653   5.364   3.656   0.223 -0.2468 -0.8031  0.1623
 7970SOL    MW431654   5.308   3.646   0.289  0.5217  0.0833  0.2097
 7971SOL     OW31655   5.968   6.363   1.344  0.6872 -0.3705  0.0212
 7971SOL    HW231656   5.974   6.279   1.297  1.0201  0.8729 -2.3146
 7971SOL    HW331657   6.058   6.394   1.349  0.4358  0.4074 -0.2132
 7971SOL    MW431658   5.981   6.356   1.338 -0.2210 -0.2704  0.3189
 7972SOL     OW31659   5.568   3.292   5.616  0.2551 -0.0716 -0.2734
 7972SOL    HW231660   5.526   3.371   5.581 -0.3098  0.5388  1.6637
 7972SOL    HW331661   5.610   3.252   5.540 -0.2290  1.5913 -1.4812
 7972SOL    MW431662   5.568   3.297   5.601  0.2648 -0.0281  0.1967
 7973SOL     OW31663   3.591   3.726   1.542 -0.8569 -0.2754 -0.8517
 7973SOL    HW231664   3.578   3.685   1.457 -1.0448  0.0252 -0.9691
 7973SOL    HW331665   3.551   3.813   1.534 -1.8386 -0.6440 -0.1227
 7973SOL    MW431666   3.584   3.732   1.530 -0.3385 -0.1972 -0.1778
 7974SOL     OW31667   5.388   2.215   2.056 -0.0099 -0.0693 -0.1633
 7974SOL    HW231668   5.444   2.284   2.094  1.1527 -0.1024 -1.7120
 7974SOL    HW331669   5.450   2.155   2.015 -1.0737 -1.5422  0.3301
 7974SOL    MW431670   5.404   2.217   2.056  0.5936 -0.7114 -0.1992
 7975SOL     OW31671   5.671   4.183   2.676  0.6345 -0.3588  0.4595
 7975SOL    HW231672   5.653   4.150   2.588  0.4375  1.1686 -0.1094
 7975SOL    HW331673   5.716   4.111   2.720 -0.6826 -1.7278 -0.3538
 7975SOL    MW431674   5.675   4.169   2.670  0.6341  0.6814  0.5836
 7976SOL     OW31675   2.001   5.280   4.670  0.1677  0.1485  0.2987
 7976SOL    HW231676   1.914   5.287   4.709  0.8693  1.2015  1.7536
 7976SOL    HW331677   2.011   5.187   4.651 -1.3310  0.0333 -0.0472
 7976SOL    MW431678   1.991   5.269   4.673 -0.2116  0.2869  0.5344
 7977SOL     OW31679   3.306   0.112   0.128  0.1299 -0.1321 -0.1643
 7977SOL    HW231680   3.243   0.040   0.118  0.0345  0.1734 -2.1960
 7977SOL    HW331681   3.252   0.189   0.143  0.0147  0.0288 -1.3007
 7977SOL    MW431682   3.291   0.113   0.129 -0.2239  0.4575 -0.3140
 7978SOL     OW31683   0.008   5.879   1.634  0.3595 -0.0939 -0.1005
 7978SOL    HW231684   0.055   5.896   1.552  0.0817 -0.3468 -0.3166
 7978SOL    HW331685   0.026   5.787   1.654  0.5682  0.0148  0.2162
 7978SOL    MW431686   0.016   5.869   1.626  0.0569  0.1891 -0.6157
 7979SOL     OW31687   5.912   3.959   2.372 -0.1314  0.2459  0.3825
 7979SOL    HW231688   5.836   3.966   2.314  0.4877 -0.0334 -0.4769
 7979SOL    HW331689   5.961   3.884   2.340  0.4188  0.3090  1.0419
 7979SOL    MW431690   5.909   3.950   2.360 -0.2724 -0.2521 -0.2643
 7980SOL     OW31691   2.217   6.067   2.410  0.0363 -0.0520 -0.4461
 7980SOL    HW231692   2.132   6.068   2.365  1.0198 -0.0610 -2.4204
 7980SOL    HW331693   2.271   6.007   2.359  1.6695  1.0736 -0.1421
 7980SOL    MW431694   2.213   6.059   2.397  0.3359 -0.3847  0.1423
 7981SOL     OW31695   0.529   6.136   1.917 -0.1508  0.5836 -0.1582
 7981SOL    HW231696   0.452   6.097   1.875  0.1815 -0.3344  0.0708
 7981SOL    HW331697   0.602   6.109   1.862  0.2419 -0.2812  0.7655
 7981SOL    MW431698   0.528   6.127   1.904  0.0945  0.0029  0.1358
 7982SOL     OW31699   4.922   1.305   6.386 -0.6170 -0.2808 -0.2096
 7982SOL    HW231700   4.894   1.343   6.469 -1.3568 -0.2966 -0.4461
 7982SOL    HW331701   4.978   1.371   6.346 -0.9199  0.0645 -0.0653
 7982SOL    MW431702   4.926   1.319   6.391 -0.5456  0.1351 -0.8263
 7983SOL     OW31703   1.878   3.932   3.033  0.0499 -0.4884 -0.1429
 7983SOL    HW231704   1.882   3.857   3.092 -2.3124 -0.7089 -0.1916
 7983SOL    HW331705   1.876   3.894   2.946 -1.2422 -0.4174 -0.1650
 7983SOL    MW431706   1.879   3.917   3.030  0.1297 -0.2188 -0.0329
 7984SOL     OW31707   0.870   1.969   2.648  0.1026  0.0553 -0.1621
 7984SOL    HW231708   0.943   1.920   2.609  0.7372  0.4436  0.4984
 7984SOL    HW331709   0.809   1.983   2.576  0.8978  0.1210 -0.8430
 7984SOL    MW431710   0.872   1.964   2.634 -0.7250 -0.0722 -0.0104
 7985SOL     OW31711   1.944   4.893   2.296  0.4792 -0.0191  0.4055
 7985SOL    HW231712   1.934   4.978   2.340 -0.8953 -0.1154  0.3075
 7985SOL    HW331713   1.966   4.832   2.367  0.8733  0.2975  0.5636
 7985SOL    MW431714   1.946   4.896   2.311  0.7975  0.0154  0.2498
 7986SOL     OW31715   1.004   0.184   4.761 -0.0548  0.1687  0.5251
 7986SOL    HW231716   1.058   0.256   4.795 -1.7562  0.7618  2.1704
 7986SOL    HW331717   0.948   0.160   4.835 -0.3381 -2.0900 -0.3549
 7986SOL    MW431718   1.004   0.191   4.775  0.2766  0.1976  0.2383
 7987SOL     OW31719   3.336   1.666   3.732 -0.2400 -0.5676  0.7299
 7987SOL    HW231720   3.280   1.732   3.773  0.6938 -0.4377  1.8861
 7987SOL    HW331721   3.345   1.694   3.641 -3.1306 -1.3546  0.0888
 7987SOL    MW431722   3.330   1.678   3.726  0.0358  0.0734  0.0594
 7988SOL     OW31723   4.458   4.979   2.767 -0.1099 -0.0742 -0.3685
 7988SOL    HW231724   4.553   4.991   2.759  0.0035 -1.2082 -0.9035
 7988SOL    HW331725   4.434   4.922   2.694 -1.0037 -0.8014  0.4550
 7988SOL    MW431726   4.467   4.973   2.757 -0.7466  0.4318  0.6131
 7989SOL     OW31727   4.744   3.352   5.009  0.1320 -0.0601  0.7261
 7989SOL    HW231728   4.838   3.336   5.019  0.2483 -0.6113 -0.9254
 7989SOL    HW331729   4.727   3.431   5.059  1.6169  0.3974  0.5403
 7989SOL    MW431730   4.754   3.360   5.017  0.1729 -0.0094  0.5016
 7990SOL     OW31731   1.572   2.955   3.939  0.0375  0.7679  0.1978
 7990SOL    HW231732   1.490   2.931   3.897  1.1213 -0.6387 -1.2530
 7990SOL    HW331733   1.588   3.045   3.911  1.0507 -0.3192 -3.1710
 7990SOL    MW431734   1.564   2.964   3.930  0.3500 -0.1721  0.0803
 7991SOL     OW31735   4.227   2.418   2.076  0.0264 -0.4657  0.0140
 7991SOL    HW231736   4.139   2.397   2.107 -0.4437 -0.3794 -1.1997
 7991SOL    HW331737   4.252   2.343   2.023  0.8633 -0.6711  0.6885
 7991SOL    MW431738   4.219   2.406   2.073 -0.1529 -0.0420 -0.8128
 7992SOL     OW31739   5.747   6.366   4.483  0.5826 -0.1116  0.3845
 7992SOL    HW231740   5.736   6.294   4.421  1.3377  0.9528 -1.0612
 7992SOL    HW331741   5.817   6.338   4.542  0.6324 -0.6932  0.0483
 7992SOL    MW431742   5.755   6.353   4.482  0.2604 -0.0630  0.5996
 7993SOL     OW31743   0.415   1.062   0.089 -0.6781 -0.6760  0.4892
 7993SOL    HW231744   0.497   1.034   0.049 -0.2997 -0.7852  1.3090
 7993SOL    HW331745   0.378   0.983   0.126 -1.4335 -0.7238 -0.3328
 7993SOL    MW431746   0.421   1.048   0.089 -0.6090  0.1978  1.1249
 7994SOL     OW31747   1.089   1.206   0.129 -0.1271 -0.2443  0.4596
 7994SOL    HW231748   1.094   1.223   0.035  2.7059 -2.2387  0.1163
 7994SOL    HW331749   1.153   1.266   0.168  1.3361 -1.8319  0.6107
 7994SOL    MW431750   1.098   1.216   0.122 -0.3073 -0.4422 -0.1224
 7995SOL     OW31751   2.913   0.654   6.199 -0.1581 -0.3791  0.4729
 7995SOL    HW231752   2.828   0.617   6.220  0.6010 -2.5331  0.0582
 7995SOL    HW331753   2.971   0.578   6.192  1.3468  0.8373 -1.3413
 7995SOL    MW431754   2.910   0.639   6.200  0.5503 -1.1035  0.1074
 7996SOL     OW31755   2.411   1.695   0.900 -0.9700  0.2069 -0.2917
 7996SOL    HW231756   2.324   1.673   0.868 -1.2423 -0.1976  0.7030
 7996SOL    HW331757   2.435   1.623   0.957 -0.3694  0.7586  0.1724
 7996SOL    MW431758   2.403   1.683   0.903 -0.4222 -0.4797  0.1153
 7997SOL     OW31759   3.031   5.008   3.818  0.0031 -0.4992 -0.1625
 7997SOL    HW231760   3.057   5.096   3.791 -2.1572 -0.3319 -2.0944
 7997SOL    HW331761   3.108   4.972   3.862  0.9536  2.3210  0.6858
 7997SOL    MW431762   3.045   5.014   3.820  0.3381  0.4431  0.4973
 7998SOL     OW31763   4.703   5.891   4.764 -0.8169 -0.0591 -0.2323
 7998SOL    HW231764   4.645   5.856   4.832 -1.0461  1.0229  0.1498
 7998SOL    HW331765   4.791   5.884   4.801 -0.8647 -0.2256 -0.1527
 7998SOL    MW431766   4.707   5.886   4.778 -0.0901 -0.1090  1.1363
 7999SOL     OW31767   2.942   3.886   4.590 -0.1202 -0.2959 -0.6110
 7999SOL    HW231768   2.872   3.945   4.618  0.6856  1.2627 -1.6886
 7999SOL    HW331769   3.006   3.890   4.661 -1.1443 -1.8494  0.4492
 7999SOL    MW431770   2.941   3.895   4.603 -0.1710  0.2525  0.1305
 8000SOL     OW31771   6.143   1.743   5.222  0.9978  0.2019 -0.0907
 8000SOL    HW231772   6.121   1.778   5.136  1.9877 -0.4610 -0.6416
 8000SOL    HW331773   6.141   1.819   5.281  0.1964  0.6357 -0.6718
 8000SOL    MW431774   6.140   1.758   5.219  0.1307 -0.5760 -0.2147
 8001SOL     OW31775   1.439   2.449   5.171 -0.2311 -0.0200 -0.4234
 8001SOL    HW231776   1.439   2.358   5.203 -2.9489 -0.1166 -0.5051
 8001SOL    HW331777   1.425   2.441   5.077  2.5548  0.4688 -0.9771
 8001SOL    MW431778   1.437   2.436   5.163  0.6056 -0.0069  0.9909
 8002SOL     OW31779   5.722   3.203   5.375  0.5714  0.1237 -0.3562
 8002SOL    HW231780   5.766   3.129   5.333 -0.2647 -0.2548 -0.5982
 8002SOL    HW331781   5.688   3.255   5.303  0.2231  0.1539 -0.1738
 8002SOL    MW431782   5.723   3.200   5.360 -0.5104  0.1174  0.0423
 8003SOL     OW31783   0.508   2.307   0.265 -0.0190  0.7872 -0.3505
 8003SOL    HW231784   0.472   2.393   0.287 -1.6253  0.4523 -1.4936
 8003SOL    HW331785   0.447   2.271   0.200  0.2546 -1.4775  0.5442
 8003SOL    MW431786   0.495   2.313   0.259 -0.3271  0.6239  0.1979
 8004SOL     OW31787   0.481   6.127   0.910 -0.4513  0.4773  0.5708
 8004SOL    HW231788   0.554   6.163   0.961 -0.4063  0.7440  0.3269
 8004SOL    HW331789   0.471   6.189   0.837 -1.8718  1.2549  1.3787
 8004SOL    MW431790   0.490   6.140   0.907  0.5505 -0.4726 -0.1261
 8005SOL     OW31791   4.307   5.324   6.425  0.4783 -0.0832 -0.1134
 8005SOL    HW231792   4.311   5.376   6.344  0.2583  0.4951  0.2402
 8005SOL    HW331793   4.322   5.234   6.396  0.7616  0.1603 -0.7532
 8005SOL    MW431794   4.310   5.319   6.411  0.1646  0.4510  0.2005
 8006SOL     OW31795   3.327   0.778   1.576 -0.4947 -0.3330 -0.4867
 8006SOL    HW231796   3.300   0.687   1.564 -0.5628 -0.3408 -0.2857
 8006SOL    HW331797   3.323   0.792   1.671 -2.4201  0.4673 -0.6500
 8006SOL    MW431798   3.323   0.768   1.587 -0.6266 -0.5641  0.1077
 8007SOL     OW31799   1.274   1.902   4.830 -0.0805  0.1509  0.4946
 8007SOL    HW231800   1.289   1.933   4.740 -0.1771 -1.2407 -0.0213
 8007SOL    HW331801   1.354   1.856   4.854 -0.9152 -1.5453  0.2011
 8007SOL    MW431802   1.286   1.900   4.821  0.0696 -0.5889  0.1458
 8008SOL     OW31803   1.015   0.334   6.259 -0.7737 -0.4151 -0.2146
 8008SOL    HW231804   1.020   0.428   6.243  0.4873 -0.0840  1.7473
 8008SOL    HW331805   1.106   0.306   6.268 -1.1579 -1.6440  0.0930
 8008SOL    MW431806   1.027   0.343   6.258  0.1578  0.3983  0.4277
 8009SOL     OW31807   3.202   2.116   0.625 -0.1124  0.4311 -0.0400
 8009SOL    HW231808   3.152   2.198   0.627  1.6576  1.5928  3.0411
 8009SOL    HW331809   3.163   2.066   0.553 -2.0159  3.4753 -1.3208
 8009SOL    MW431810   3.190   2.120   0.616  0.2017 -0.6330 -0.3483
 8010SOL     OW31811   1.266   5.453   4.367 -0.1296  0.4705  0.4559
 8010SOL    HW231812   1.183   5.419   4.336 -0.4729  0.8650  0.9276
 8010SOL    HW331813   1.281   5.407   4.450  1.1876 -1.2043 -0.6422
 8010SOL    MW431814   1.257   5.442   4.374 -0.3409 -0.0004  0.0850
 8011SOL     OW31815   4.308   2.090   3.843  0.2443 -0.4172  0.1799
 8011SOL    HW231816   4.376   2.151   3.812 -0.3303 -0.4261 -1.1876
 8011SOL    HW331817   4.309   2.019   3.779 -0.9816 -0.4615  0.1901
 8011SOL    MW431818   4.317   2.089   3.830  0.1550  0.0245 -0.1406
 8012SOL     OW31819   1.706   6.164   3.646 -0.6512 -0.5264 -0.0833
 8012SOL    HW231820   1.644   6.092   3.646  0.2796 -1.3479  0.4693
 8012SOL    HW331821   1.709   6.193   3.555 -1.3746 -0.8738 -0.2253
 8012SOL    MW431822   1.698   6.159   3.634  0.0124  0.4254 -0.1428
 8013SOL     OW31823   0.586   0.475   4.403 -0.0894 -0.0332 -0.2992
 8013SOL    HW231824   0.538   0.514   4.477 -0.3263 -1.1564  0.1784
 8013SOL    HW331825   0.651   0.540   4.379 -0.1625  0.4603  0.7616
 8013SOL    MW431826   0.588   0.488   4.410 -0.1731  0.0019  0.0509
 8014SOL     OW31827   1.217   2.416   6.090 -0.3628 -0.0138 -0.7679
 8014SOL    HW231828   1.206   2.325   6.114  0.4614 -0.8741 -3.3258
 8014SOL    HW331829   1.146   2.433   6.027 -0.3556  1.0437 -0.5197
 8014SOL    MW431830   1.206   2.407   6.085  0.3088 -0.8217  0.6822
 8015SOL     OW31831   6.304   0.058   2.691 -0.2896  0.2399  0.3674
 8015SOL    HW231832   6.393   0.034   2.716 -0.1134  0.7287  0.2134
 8015SOL    HW331833   6.312   0.145   2.654 -0.5010 -0.5431 -1.6626
 8015SOL    MW431834   6.316   0.066   2.689  0.2864 -0.3617 -0.0965
 8016SOL     OW31835   4.217   0.289   0.569  0.3946  0.2985 -0.1830
 8016SOL    HW231836   4.308   0.278   0.543  0.1309 -0.4379 -0.8490
 8016SOL    HW331837   4.175   0.207   0.542 -0.6378  0.9736 -0.6851
 8016SOL    MW431838   4.223   0.277   0.562 -0.1184  0.2324  0.0158
 8017SOL     OW31839   4.598   5.480   4.256  0.6529  0.2604 -0.3678
 8017SOL    HW231840   4.670   5.517   4.206 -0.4178  2.6653 -0.2924
 8017SOL    HW331841   4.558   5.416   4.197  0.5883  1.6504 -1.9159
 8017SOL    MW431842   4.602   5.477   4.241  0.4979 -0.2876  0.4451
 8018SOL     OW31843   1.514   1.056   4.712 -0.5087 -0.1030  0.3034
 8018SOL    HW231844   1.532   1.078   4.620 -1.1406 -2.3603 -0.4414
 8018SOL    HW331845   1.593   1.009   4.741 -0.0947  1.0517  1.1154
 8018SOL    MW431846   1.527   1.052   4.704  0.5564 -0.1273 -0.0279
 8019SOL     OW31847   4.964   1.019   0.814 -0.1854 -0.1466  0.1517
 8019SOL    HW231848   4.963   1.114   0.817  1.5621 -0.1197  2.2541
 8019SOL    HW331849   5.009   0.998   0.732 -0.1416  0.8262 -0.0839
 8019SOL    MW431850   4.969   1.028   0.803  0.5901 -0.3633 -0.2312
 8020SOL     OW31851   1.085   1.909   1.285  0.5335 -0.5208  0.7637
 8020SOL    HW231852   1.060   1.891   1.194 -0.6684  0.4828  0.8640
 8020SOL    HW331853   1.001   1.918   1.331  1.0906  0.9582  1.5531
 8020SOL    MW431854   1.070   1.908   1.279 -0.1441 -0.3121 -0.1189
 8021SOL     OW31855   5.205   4.004   3.167  0.4257 -0.5322 -0.1438
 8021SOL    HW231856   5.243   3.955   3.094  1.6078 -0.2988  0.2902
 8021SOL    HW331857   5.280   4.045   3.210 -0.3040 -0.2787  0.9254
 8021SOL    MW431858   5.220   4.003   3.163  0.0881 -0.1343 -1.0653
 8022SOL     OW31859   0.153   5.625   4.980 -0.5661 -0.1933 -0.2957
 8022SOL    HW231860   0.160   5.697   4.918  2.8803  1.0820  1.3035
 8022SOL    HW331861   0.235   5.577   4.970 -1.7115 -2.4731  0.4354
 8022SOL    MW431862   0.165   5.628   4.971 -0.2259 -0.9088 -0.0348
 8023SOL     OW31863   2.176   2.157   1.374 -0.7939 -0.7357  0.2100
 8023SOL    HW231864   2.213   2.073   1.400  1.1565 -0.3760 -1.1741
 8023SOL    HW331865   2.163   2.204   1.456 -0.1959 -1.6941  0.8838
 8023SOL    MW431866   2.179   2.152   1.388  0.9557  0.3053  0.1516
 8024SOL     OW31867   1.039   1.747   1.060  0.1342  0.7387 -0.0762
 8024SOL    HW231868   1.129   1.732   1.029  0.5653  1.3121  0.8374
 8024SOL    HW331869   1.021   1.673   1.117 -0.1220  0.4234 -0.5641
 8024SOL    MW431870   1.049   1.735   1.064 -0.4498  0.4049  0.3568
 8025SOL     OW31871   2.719   4.777   2.279  0.1196  0.4316  0.7961
 8025SOL    HW231872   2.697   4.864   2.245 -1.0595 -0.4421 -0.8028
 8025SOL    HW331873   2.634   4.738   2.301  0.4874 -0.8916 -0.0181
 8025SOL    MW431874   2.705   4.784   2.278  0.2427  0.4306  0.3899
 8026SOL     OW31875   5.660   2.358   1.204  0.3449  0.5194 -0.3711
 8026SOL    HW231876   5.601   2.428   1.229  0.0648  0.0739  0.2470
 8026SOL    HW331877   5.614   2.278   1.228  1.4008  0.1742  0.6018
 8026SOL    MW431878   5.646   2.357   1.211 -0.1658  0.1245  0.0081
 8027SOL     OW31879   4.347   2.328   4.264  0.4611 -0.3445  0.5026
 8027SOL    HW231880   4.427   2.337   4.316  0.4010  2.3287  0.2936
 8027SOL    HW331881   4.283   2.291   4.324  0.4827  2.3446  2.3759
 8027SOL    MW431882   4.349   2.324   4.279  0.1241 -1.0372  0.2366
 8028SOL     OW31883   3.107   4.312   4.188  0.8442  0.0962  0.0822
 8028SOL    HW231884   3.187   4.261   4.203  1.4750  0.2385 -2.3597
 8028SOL    HW331885   3.139   4.400   4.169  0.0577  0.2978 -0.3201
 8028SOL    MW431886   3.122   4.317   4.188  0.1846 -0.2768  0.0774
 8029SOL     OW31887   3.862   2.663   3.928 -0.4552 -0.3835  0.1162
 8029SOL    HW231888   3.944   2.616   3.943  0.3198  0.9091  0.0352
 8029SOL    HW331889   3.805   2.636   4.000 -0.0730 -1.4911  0.0327
 8029SOL    MW431890   3.865   2.653   3.939  0.0025  0.3775  0.1293
 8030SOL     OW31891   3.835   3.520   2.375  0.6580  0.5318  0.0019
 8030SOL    HW231892   3.884   3.580   2.319 -1.1046  1.5632 -0.4964
 8030SOL    HW331893   3.808   3.449   2.317 -0.5275  1.2242 -0.3263
 8030SOL    MW431894   3.838   3.518   2.360 -0.0446  0.0321  0.2477
 8031SOL     OW31895   0.639   4.133   3.647 -0.1885 -0.1976 -0.4503
 8031SOL    HW231896   0.699   4.176   3.586 -1.9512  0.9108 -1.4900
 8031SOL    HW331897   0.694   4.110   3.722  1.4538  1.1134 -1.1799
 8031SOL    MW431898   0.654   4.136   3.649 -0.4928 -0.2222 -0.2539
 8032SOL     OW31899   2.101   6.097   2.804  0.4315 -0.0120 -0.4375
 8032SOL    HW231900   2.150   6.155   2.863  0.8530  0.0356 -0.8263
 8032SOL    HW331901   2.069   6.027   2.860 -3.3720  2.4738  0.8815
 8032SOL    MW431902   2.103   6.096   2.819  0.4862  0.0822  0.4474
 8033SOL     OW31903   6.262   6.205   2.473 -0.1282 -0.2572  0.3658
 8033SOL    HW231904   6.228   6.155   2.399 -0.0317 -0.4527  0.4543
 8033SOL    HW331905   6.321   6.269   2.434 -0.3154 -0.1565  0.2455
 8033SOL    MW431906   6.265   6.207   2.458 -0.2011 -0.4108 -0.3146
 8034SOL     OW31907   3.900   2.465   4.543 -0.3130 -0.0342  0.4601
 8034SOL    HW231908   3.975   2.410   4.564 -2.2524 -3.5631 -0.9768
 8034SOL    HW331909   3.906   2.539   4.603  3.6078 -0.7136  1.1502
 8034SOL    MW431910   3.911   2.467   4.553  0.3717 -0.5942 -0.2909
 8035SOL     OW31911   1.528   4.841   5.151  0.1034 -0.1569  0.0108
 8035SOL    HW231912   1.473   4.910   5.115  0.3607 -0.6997 -1.5111
 8035SOL    HW331913   1.585   4.816   5.079  1.8643 -0.1161  1.3204
 8035SOL    MW431914   1.528   4.847   5.137 -0.5710  0.9478  0.3713
 8036SOL     OW31915   4.308   5.352   5.154  0.3842 -0.8494  0.4270
 8036SOL    HW231916   4.341   5.399   5.230  0.2471 -0.7144  0.4023
 8036SOL    HW331917   4.319   5.413   5.081  0.5586 -0.9950  0.3276
 8036SOL    MW431918   4.314   5.366   5.154  0.6691  0.6377  0.1725
 8037SOL     OW31919   3.576   4.052   2.821 -0.2132 -0.2447  0.2225
 8037SOL    HW231920   3.627   4.132   2.826 -0.6743 -0.0083  1.3366
 8037SOL    HW331921   3.533   4.056   2.735  0.1045  0.4804  0.0926
 8037SOL    MW431922   3.577   4.063   2.810  0.0638 -0.0319 -0.6482
 8038SOL     OW31923   4.341   4.545   0.780  0.0253  0.3543  0.2210
 8038SOL    HW231924   4.301   4.504   0.702  0.5764  0.9530 -0.3899
 8038SOL    HW331925   4.327   4.639   0.767 -1.4905  0.3831  1.7560
 8038SOL    MW431926   4.333   4.552   0.768  0.2295  0.3477  0.0663
 8039SOL     OW31927   2.871   2.394   0.801  0.3837  0.0999  0.3531
 8039SOL    HW231928   2.955   2.438   0.812  0.1651  0.6775 -0.2494
 8039SOL    HW331929   2.865   2.376   0.707 -0.1034 -0.0650  0.4132
 8039SOL    MW431930   2.881   2.397   0.790 -0.6051 -0.1950  0.1449
 8040SOL     OW31931   4.959   5.893   4.902 -0.5356 -0.0248 -0.2370
 8040SOL    HW231932   4.976   5.870   4.994 -2.3961  0.2083  0.2044
 8040SOL    HW331933   5.035   5.859   4.855  0.2975 -0.4698  1.3365
 8040SOL    MW431934   4.971   5.885   4.908  0.4561  0.0157 -0.6825
 8041SOL     OW31935   0.288   4.532   4.143  0.1894  0.1560  0.1525
 8041SOL    HW231936   0.341   4.492   4.212  1.9466  0.6541 -0.8266
 8041SOL    HW331937   0.288   4.626   4.164  1.2794  0.3982 -0.8210
 8041SOL    MW431938   0.295   4.540   4.155  0.0578 -0.1394  0.1358
 8042SOL     OW31939   5.444   4.644   3.386 -0.3070  0.2849 -0.5600
 8042SOL    HW231940   5.524   4.696   3.376 -0.0435  0.4063  1.7532
 8042SOL    HW331941   5.456   4.570   3.327  1.7079  0.1081 -0.0016
 8042SOL    MW431942   5.456   4.641   3.377 -0.4384 -0.1505  0.4709
 8043SOL     OW31943   0.271   3.503   0.853  0.2976  0.0440  0.0296
 8043SOL    HW231944   0.317   3.497   0.770  0.2900 -0.2084  0.0428
 8043SOL    HW331945   0.329   3.459   0.916 -0.2222 -0.8149 -0.0674
 8043SOL    MW431946   0.284   3.496   0.850  0.1430  0.5588  0.1506
 8044SOL     OW31947   2.956   5.368   4.241  0.6226 -0.2417  0.0287
 8044SOL    HW231948   3.011   5.290   4.246 -2.5242 -2.5482  1.6027
 8044SOL    HW331949   2.896   5.351   4.169  0.6496  1.3454 -0.4173
 8044SOL    MW431950   2.955   5.356   4.232  0.2275  0.6200  0.1460
 8045SOL     OW31951   3.701   2.219   1.264  0.7247 -0.5972 -0.2789
 8045SOL    HW231952   3.700   2.155   1.192  0.6961 -0.2831 -0.5607
 8045SOL    HW331953   3.679   2.168   1.342 -0.2322 -0.7661 -0.6411
 8045SOL    MW431954   3.698   2.204   1.265 -0.6054  0.3602 -0.1798
 8046SOL     OW31955   4.922   6.186   3.403 -0.3328 -0.4805 -0.5718
 8046SOL    HW231956   5.017   6.182   3.397 -0.0916  2.0614  0.3539
 8046SOL    HW331957   4.904   6.262   3.459 -2.8716 -2.3624  1.4797
 8046SOL    MW431958   4.932   6.195   3.410 -0.1372 -0.1535  0.3593
 8047SOL     OW31959   5.982   4.361   1.076  0.2551 -0.2167  0.0866
 8047SOL    HW231960   5.909   4.397   1.026  2.5080  1.5940 -2.2152
 8047SOL    HW331961   5.974   4.401   1.163 -1.2005  0.3226 -0.2708
 8047SOL    MW431962   5.971   4.371   1.081  0.5620  0.4780  0.0299
 8048SOL     OW31963   4.403   5.813   1.617  0.3984  0.5241 -0.2233
 8048SOL    HW231964   4.490   5.775   1.631  1.1720  1.4870 -2.0955
 8048SOL    HW331965   4.368   5.823   1.706  0.5903 -3.3157  0.4484
 8048SOL    MW431966   4.410   5.810   1.631 -0.4648  0.4693 -0.2287
 8049SOL     OW31967   5.885   6.422   3.116 -0.7228 -0.2441  0.0128
 8049SOL    HW231968   5.844   6.381   3.191  2.2392  0.4934  2.2447
 8049SOL    HW331969   5.841   6.384   3.040 -1.4559 -3.7799  1.9993
 8049SOL    MW431970   5.874   6.412   3.116 -0.3536 -0.1736  0.4545
 8050SOL     OW31971   4.176   2.393   6.056  0.1692  0.2015 -0.1735
 8050SOL    HW231972   4.162   2.416   6.148  1.5162  2.2231 -0.4036
 8050SOL    HW331973   4.090   2.366   6.025 -0.5336  0.4923  1.4093
 8050SOL    MW431974   4.163   2.393   6.064  0.2686 -0.1870  0.2262
 8051SOL     OW31975   6.334   1.067   3.089  0.0707  0.6431 -0.1462
 8051SOL    HW231976   6.411   1.049   3.034  0.4697  0.7519  0.3621
 8051SOL    HW331977   6.344   1.159   3.115  1.5466 -0.1760  2.5852
 8051SOL    MW431978   6.346   1.077   3.085  0.4988  0.0593 -0.4849
 8052SOL     OW31979   1.991   0.828   0.708 -0.0799 -0.0822 -0.2469
 8052SOL    HW231980   2.031   0.907   0.745 -0.5271  0.4953 -0.9465
 8052SOL    HW331981   2.064   0.778   0.672  0.0868  0.7370 -1.1003
 8052SOL    MW431982   2.006   0.832   0.708  0.1620 -0.0143  0.0667
 8053SOL     OW31983   2.243   5.782   1.783 -0.1493 -0.0791  0.2404
 8053SOL    HW231984   2.234   5.827   1.867 -1.3059  1.5218 -0.6782
 8053SOL    HW331985   2.279   5.696   1.805  0.5982  0.6946  2.2401
 8053SOL    MW431986   2.246   5.777   1.797 -0.6229  0.8372  0.3179
 8054SOL     OW31987   2.521   3.280   1.876 -0.3555 -0.2272  0.6697
 8054SOL    HW231988   2.602   3.280   1.825 -2.0383  3.2860 -2.5197
 8054SOL    HW331989   2.534   3.348   1.942  0.2523 -1.7386  2.1699
 8054SOL    MW431990   2.533   3.289   1.878  0.0263  0.2583  0.3348
 8055SOL     OW31991   3.408   3.459   2.401 -0.4443 -0.7689  0.2904
 8055SOL    HW231992   3.365   3.390   2.351 -0.6151 -0.1780 -0.3917
 8055SOL    HW331993   3.499   3.429   2.411 -0.8053 -1.6433  1.0403
 8055SOL    MW431994   3.415   3.446   2.396  0.3081  0.6087  0.2177
 8056SOL     OW31995   1.302   3.709   4.072 -0.2935 -0.3446 -0.1375
 8056SOL    HW231996   1.269   3.791   4.108 -0.2130 -1.5068  2.8809
 8056SOL    HW331997   1.223   3.660   4.049 -0.3681  0.0983 -0.8673
 8056SOL    MW431998   1.288   3.713   4.074  0.0690 -0.2757 -0.2503
 8057SOL     OW31999   1.958   2.226   5.969  0.1329  0.4920 -0.1842
 8057SOL    HW232000   2.036   2.281   5.964 -0.5838  1.5885  0.4295
 8057SOL    HW332001   1.885   2.287   5.968 -0.7446 -0.5380 -1.0137
 8057SOL    MW432002   1.959   2.241   5.968  0.0878 -0.2759 -0.2942
 8058SOL     OW32003   5.835   2.687   0.275 -0.6428  0.0593 -0.4455
 8058SOL    HW232004   5.805   2.763   0.225  0.4472 -0.3408 -1.7538
 8058SOL    HW332005   5.848   2.618   0.210 -2.3658 -1.5318  0.8114
 8058SOL    MW432006   5.833   2.688   0.260  0.1340  0.1913  0.2644
 8059SOL     OW32007   2.468   3.546   5.581 -0.4428 -0.4158  0.5024
 8059SOL    HW232008   2.451   3.626   5.532 -1.3584 -0.6176  0.4756
 8059SOL    HW332009   2.561   3.527   5.564 -0.6699 -0.3529 -0.9607
 8059SOL    MW432010   2.478   3.554   5.572  0.0522  0.1381 -0.0184
 8060SOL     OW32011   6.275   1.325   5.121  0.6463 -0.1786  0.6455
 8060SOL    HW232012   6.309   1.410   5.147 -1.9530 -0.1947  4.8930
 8060SOL    HW332013   6.345   1.264   5.142  1.6577  0.6269 -0.2624
 8060SOL    MW432014   6.289   1.328   5.127 -0.1553  0.0093 -0.0201
 8061SOL     OW32015   2.000   5.877   0.545 -0.4425 -0.0256  0.8170
 8061SOL    HW232016   1.919   5.837   0.512 -0.2070 -0.0485  0.2593
 8061SOL    HW332017   1.971   5.957   0.588 -0.6520  0.6446 -0.5043
 8061SOL    MW432018   1.986   5.882   0.546 -0.1172 -0.3635  0.0246
 8062SOL     OW32019   6.225   6.172   6.297  0.1469 -0.4306  0.0177
 8062SOL    HW232020   6.208   6.266   6.301 -1.8948 -0.6472 -1.6640
 8062SOL    HW332021   6.303   6.165   6.242  0.4556  0.2744  0.3468
 8062SOL    MW432022   6.233   6.184   6.290 -0.0259  0.3191 -0.2058
 8063SOL     OW32023   5.663   5.555   0.243  0.4516  0.0983  0.2580
 8063SOL    HW232024   5.688   5.484   0.184  1.0865  1.0232 -0.6278
 8063SOL    HW332025   5.735   5.561   0.305  0.4386  0.0218  0.2805
 8063SOL    MW432026   5.675   5.547   0.243 -0.1762 -0.2633  0.0356
 8064SOL     OW32027   0.196   2.011   5.898 -0.6138  0.2521 -0.1768
 8064SOL    HW232028   0.188   2.020   5.803 -0.2379 -1.6679 -0.4377
 8064SOL    HW332029   0.115   1.968   5.925 -1.3439  2.0366  0.6158
 8064SOL    MW432030   0.185   2.007   5.889  0.5450  0.0560 -0.2841
 8065SOL     OW32031   2.438   2.892   1.804  0.0778  0.5467  0.3624
 8065SOL    HW232032   2.490   2.822   1.764 -0.0492  0.3122  0.6049
 8065SOL    HW332033   2.442   2.874   1.898 -1.3784 -0.1302  0.3105
 8065SOL    MW432034   2.446   2.881   1.812 -0.0864  0.0592 -0.3155
 8066SOL     OW32035   4.640   6.352   2.484 -0.0853  0.2818  0.7308
 8066SOL    HW232036   4.721   6.374   2.439 -0.4945  1.6047  0.5862
 8066SOL    HW332037   4.615   6.266   2.450  0.3611  0.6246 -0.4941
 8066SOL    MW432038   4.648   6.343   2.474 -0.9532 -0.0208  0.3886
 8067SOL     OW32039   3.429   1.607   5.019 -0.0008  0.0008 -0.6216
 8067SOL    HW232040   3.366   1.676   5.000 -1.4845 -1.1524 -0.1411
 8067SOL    HW332041   3.510   1.635   4.976 -0.9317  1.3741 -1.5549
 8067SOL    MW432042   3.431   1.619   5.011 -0.4748  0.3564 -0.4391
 8068SOL     OW32043   2.006   1.294   4.333 -0.1175  0.4827  0.8594
 8068SOL    HW232044   1.981   1.281   4.425  0.2211 -2.7270  0.6010
 8068SOL    HW332045   2.098   1.268   4.330 -0.0691  0.7559 -0.3509
 8068SOL    MW432046   2.015   1.289   4.345  0.1853 -0.0528 -0.1129
 8069SOL     OW32047   0.873   0.499   3.057 -0.1893  0.2304  0.3142
 8069SOL    HW232048   0.920   0.450   2.990 -0.6533  0.3665 -0.1183
 8069SOL    HW332049   0.807   0.437   3.089 -0.7015  0.5291 -0.1528
 8069SOL    MW432050   0.870   0.484   3.052  0.5623 -0.5242 -0.2909
 8070SOL     OW32051   2.676   2.487   4.900  0.1159  0.2917  0.5511
 8070SOL    HW232052   2.600   2.544   4.911 -0.3365  0.2447 -1.7724
 8070SOL    HW332053   2.657   2.438   4.820  2.1165 -0.5196  0.5264
 8070SOL    MW432054   2.663   2.488   4.891 -0.4590  0.1422  0.0282
 8071SOL     OW32055   1.772   5.542   4.879  0.6326  0.3409 -0.0100
 8071SOL    HW232056   1.800   5.514   4.966 -1.2344  0.0724  0.5596
 8071SOL    HW332057   1.739   5.462   4.837  0.1028  0.7378 -0.3662
 8071SOL    MW432058   1.771   5.528   4.885  0.0202  0.1622  0.6243
 8072SOL     OW32059   4.629   1.908   2.902 -0.3072 -0.0257  0.1676
 8072SOL    HW232060   4.675   1.992   2.899 -1.3557  0.5688  0.4027
 8072SOL    HW332061   4.616   1.886   2.809  0.8445 -0.4390  0.0861
 8072SOL    MW432062   4.634   1.917   2.889 -0.6896  0.0052  0.6789
 8073SOL     OW32063   6.016   5.259   2.751 -0.0465  0.1881  0.1688
 8073SOL    HW232064   5.962   5.291   2.678 -0.9969  2.7107  1.8607
 8073SOL    HW332065   6.105   5.287   2.729 -0.1481  0.0275 -0.4815
 8073SOL    MW432066   6.021   5.267   2.738  0.4133  0.1417  0.0885
 8074SOL     OW32067   1.131   3.933   2.763 -0.5252  0.2208 -0.0492
 8074SOL    HW232068   1.218   3.952   2.727  0.0165 -1.9770 -0.0055
 8074SOL    HW332069   1.127   3.986   2.843  1.3767 -0.6953  0.7153
 8074SOL    MW432070   1.142   3.943   2.769 -0.2441  0.5955  0.0886
 8075SOL     OW32071   5.006   0.612   5.557 -0.2168 -0.2586  0.1289
 8075SOL    HW232072   5.044   0.526   5.571  2.3682  0.7735  0.0685
 8075SOL    HW332073   5.059   0.671   5.611 -1.9301  1.3041  0.2182
 8075SOL    MW432074   5.018   0.609   5.566  0.4153 -0.1422 -0.1135
 8076SOL     OW32075   5.463   4.325   2.262 -0.0422 -0.4607  0.2096
 8076SOL    HW232076   5.528   4.394   2.268  0.5888 -1.1021  1.0635
 8076SOL    HW332077   5.406   4.339   2.338 -0.4407 -0.3580 -0.1055
 8076SOL    MW432078   5.464   4.336   2.273 -0.1576 -0.2109  0.1015
 8077SOL     OW32079   1.946   0.012   1.037 -0.0390  0.1839 -0.5813
 8077SOL    HW232080   1.876  -0.053   1.031  0.4535 -0.3079 -1.1368
 8077SOL    HW332081   1.973   0.028   0.947 -0.3035  1.3437 -0.4679
 8077SOL    MW432082   1.941   0.006   1.024  0.6478 -0.2855 -0.2982
 8078SOL     OW32083   6.365   6.017   2.642  0.5074 -0.2332 -0.6247
 8078SOL    HW232084   6.420   5.950   2.600  1.6370  0.2412  0.0675
 8078SOL    HW332085   6.337   6.073   2.570  2.4143  0.5654 -0.7912
 8078SOL    MW432086   6.368   6.015   2.627 -0.2392 -0.1866  0.0406
 8079SOL     OW32087   2.141   1.296   0.635 -0.3888  0.4268  0.4740
 8079SOL    HW232088   2.129   1.206   0.664 -2.2731  0.6426  0.4770
 8079SOL    HW332089   2.227   1.321   0.669 -0.2477 -1.0461  1.2763
 8079SOL    MW432090   2.151   1.288   0.643  0.0041  0.5592  0.0714
 8080SOL     OW32091   0.426   3.515   0.600  0.2618  0.1379 -0.6202
 8080SOL    HW232092   0.487   3.589   0.600 -0.2076  0.5598  0.9950
 8080SOL    HW332093   0.348   3.548   0.554 -0.7207  1.3942  1.7651
 8080SOL    MW432094   0.423   3.529   0.594 -0.4592 -0.4324  0.3823
 8081SOL     OW32095   1.593   2.855   1.035 -0.2326  0.5232  0.5631
 8081SOL    HW232096   1.572   2.805   1.114  1.4800  1.5726  1.7518
 8081SOL    HW332097   1.605   2.945   1.066  2.6128  0.6091 -0.4366
 8081SOL    MW432098   1.592   2.860   1.049  0.1575  0.3300 -0.1441
 8082SOL     OW32099   2.188   3.440   3.213  0.3615 -0.0467 -0.0524
 8082SOL    HW232100   2.171   3.530   3.239 -1.9274 -0.5868  0.5909
 8082SOL    HW332101   2.196   3.392   3.295  0.5260 -0.5773 -0.3760
 8082SOL    MW432102   2.187   3.445   3.227  0.1665 -0.4813  0.3022
 8083SOL     OW32103   1.384   2.006   2.717 -0.1726 -0.1830  0.2164
 8083SOL    HW232104   1.333   2.000   2.636  1.0363  0.0750 -0.5940
 8083SOL    HW332105   1.434   1.925   2.719  0.3574  0.1414  0.3010
 8083SOL    MW432106   1.384   1.995   2.706 -0.2248  0.0566  0.6939
 8084SOL     OW32107   1.032   2.650   0.153  0.2460 -0.0553 -0.1386
 8084SOL    HW232108   0.942   2.633   0.180  0.3537  2.5893  2.3808
 8084SOL    HW332109   1.085   2.613   0.223  0.9524  0.5601 -0.3339
 8084SOL    MW432110   1.027   2.643   0.166  0.4241 -0.5360 -0.4087
 8085SOL     OW32111   3.614   3.596   5.510  0.2162  0.1043  0.0799
 8085SOL    HW232112   3.675   3.522   5.513 -0.4686 -0.4295  1.6012
 8085SOL    HW332113   3.654   3.663   5.565  0.9567  1.0289 -1.4895
 8085SOL    MW432114   3.627   3.595   5.518 -0.1639 -0.4894 -0.5223
 8086SOL     OW32115   3.108   4.389   0.476 -0.2912  0.1535 -0.4576
 8086SOL    HW232116   3.042   4.443   0.432 -1.0180 -0.6549 -0.3875
 8086SOL    HW332117   3.107   4.417   0.567 -1.4670 -0.7030 -0.1789
 8086SOL    MW432118   3.100   4.399   0.482 -0.0120  0.9869 -0.0182
 8087SOL     OW32119   2.090   0.015   2.395  0.0411 -0.3304  0.0502
 8087SOL    HW232120   2.179   0.037   2.368  0.2802 -0.8895  0.3688
 8087SOL    HW332121   2.060   0.091   2.445  0.2145 -0.0007 -0.3468
 8087SOL    MW432122   2.098   0.028   2.398 -0.3918 -0.3413  0.0504
 8088SOL     OW32123   0.243   5.374   3.119  0.1002 -1.1728  0.7935
 8088SOL    HW232124   0.296   5.390   3.197 -1.7301  0.7347  1.7535
 8088SOL    HW332125   0.251   5.280   3.103  3.3970 -1.0768  1.0550
 8088SOL    MW432126   0.251   5.364   3.127 -0.1660 -0.1334 -0.2606
 8089SOL     OW32127   2.987   2.567   1.117  0.2956 -0.6112 -0.0681
 8089SOL    HW232128   2.963   2.658   1.103  2.3553  0.0886  0.6395
 8089SOL    HW332129   3.000   2.532   1.029 -0.3012 -0.1675 -0.3369
 8089SOL    MW432130   2.985   2.574   1.103  0.3923 -0.0182  0.2374
 8090SOL     OW32131   2.182   5.710   2.184 -0.2842 -0.4883  0.6722
 8090SOL    HW232132   2.090   5.728   2.206 -0.6078 -0.5452 -0.5771
 8090SOL    HW332133   2.201   5.769   2.111  0.5720 -0.7434  0.6837
 8090SOL    MW432134   2.172   5.720   2.177  0.3741  0.1825 -0.2151
 8091SOL     OW32135   3.563   2.621   0.659 -0.3159  0.3028  0.5403
 8091SOL    HW232136   3.560   2.716   0.671 -1.9993  0.2102  1.2191
 8091SOL    HW332137   3.527   2.606   0.572 -1.1687  0.2527  0.8863
 8091SOL    MW432138   3.558   2.631   0.649  0.7081 -0.0210 -0.6089
 8092SOL     OW32139   6.236   0.440   1.254  0.1784 -0.3922 -0.7146
 8092SOL    HW232140   6.223   0.358   1.207 -0.5024 -0.6280 -0.1328
 8092SOL    HW332141   6.329   0.442   1.273  0.2090 -1.0161 -0.7685
 8092SOL    MW432142   6.246   0.429   1.250 -0.1775  0.2977 -0.0742
 8093SOL     OW32143   5.664   0.472   3.223  0.3149  0.6309  0.1114
 8093SOL    HW232144   5.670   0.474   3.319 -1.7470  0.5609  0.2890
 8093SOL    HW332145   5.709   0.392   3.198  0.5546  0.4611  1.0402
 8093SOL    MW432146   5.671   0.462   3.233 -0.2900  0.3979 -0.3215
 8094SOL     OW32147   3.374   3.831   0.595  0.2392  0.2174 -0.4674
 8094SOL    HW232148   3.407   3.760   0.539  0.1183 -0.2526  0.0443
 8094SOL    HW332149   3.388   3.799   0.685  0.2122  0.8565 -0.2325
 8094SOL    MW432150   3.380   3.817   0.600 -0.1441  0.0055 -0.0970
 8095SOL     OW32151   4.735   4.867   3.072  0.0408  0.7709  0.2189
 8095SOL    HW232152   4.689   4.940   3.030  0.2178  1.7467  1.6471
 8095SOL    HW332153   4.776   4.906   3.149  0.3241 -0.8149  0.9027
 8095SOL    MW432154   4.735   4.882   3.076  0.0082  0.1998  0.4162
 8096SOL     OW32155   1.353   1.849   2.035 -0.1137 -0.0968 -0.0877
 8096SOL    HW232156   1.286   1.906   2.072  0.2537  0.0523  0.3620
 8096SOL    HW332157   1.396   1.811   2.111  0.3285 -0.1667 -0.3689
 8096SOL    MW432158   1.350   1.852   2.050  0.3127 -0.2613  0.7047
 8097SOL     OW32159   5.095   3.623   1.045  0.4715 -0.2330  0.1273
 8097SOL    HW232160   5.024   3.681   1.073 -1.0676 -1.4659 -0.9706
 8097SOL    HW332161   5.154   3.679   0.996  0.3418  0.8561  1.1612
 8097SOL    MW432162   5.093   3.638   1.042 -0.1780  0.0555 -0.1092
 8098SOL     OW32163   2.677   1.267   4.231  0.0683  0.3952 -0.2206
 8098SOL    HW232164   2.682   1.300   4.142  0.7263 -0.7728 -0.6324
 8098SOL    HW332165   2.762   1.287   4.270  0.4425 -0.6826 -0.4460
 8098SOL    MW432166   2.689   1.274   4.225 -0.5823  0.7015  0.2747
 8099SOL     OW32167   3.461   4.015   0.282 -0.0865 -0.1084 -0.2677
 8099SOL    HW232168   3.471   4.028   0.377  0.4227  1.0032 -0.4640
 8099SOL    HW332169   3.388   4.071   0.258  1.7742  2.1347 -1.0312
 8099SOL    MW432170   3.452   4.024   0.292 -0.2130  0.4041 -0.3900
 8100SOL     OW32171   2.030   4.290   2.199  0.0566 -0.1490 -0.0573
 8100SOL    HW232172   1.987   4.358   2.250  3.9647  0.1414  3.3700
 8100SOL    HW332173   2.096   4.337   2.148  0.0141 -1.0272 -0.9466
 8100SOL    MW432174   2.033   4.305   2.199  0.4000  0.9272  0.3676
 8101SOL     OW32175   0.909   6.272   0.658  0.3261  0.3260 -0.3706
 8101SOL    HW232176   0.999   6.294   0.631  0.5991  0.3918  0.5440
 8101SOL    HW332177   0.911   6.177   0.671  0.7545  0.5275  1.2934
 8101SOL    MW432178   0.921   6.262   0.656 -0.5492 -0.3346  0.1336
 8102SOL     OW32179   5.404   0.277   3.228  0.5040 -0.2657  0.1759
 8102SOL    HW232180   5.438   0.311   3.311  0.2011  1.2545 -0.2937
 8102SOL    HW332181   5.423   0.346   3.164 -1.0070 -0.5638 -0.6345
 8102SOL    MW432182   5.411   0.290   3.231 -0.2363  0.8134 -0.2880
 8103SOL     OW32183   3.369   4.552   3.625 -0.6787 -0.3789 -0.1784
 8103SOL    HW232184   3.384   4.541   3.719 -1.1264 -1.2581 -0.1931
 8103SOL    HW332185   3.316   4.476   3.601 -1.8190  0.6029 -0.8589
 8103SOL    MW432186   3.364   4.540   3.634 -0.4416  0.7645 -0.0460
 8104SOL     OW32187   3.217   2.446   4.585 -0.7583 -0.0536 -0.3812
 8104SOL    HW232188   3.122   2.439   4.598 -0.7173  0.1900  0.0405
 8104SOL    HW332189   3.252   2.465   4.672 -0.2587 -0.7766 -0.4126
 8104SOL    MW432190   3.209   2.447   4.598  0.3044 -0.4017  0.0785
 8105SOL     OW32191   5.422   6.169   2.867 -0.0270  0.2193  0.1030
 8105SOL    HW232192   5.395   6.084   2.833 -1.0775  0.8307 -0.6298
 8105SOL    HW332193   5.421   6.158   2.962 -0.9814 -0.3381  0.0388
 8105SOL    MW432194   5.418   6.156   2.875  0.8908  0.2323  0.1765
 8106SOL     OW32195   0.854   5.692   4.442  0.3427  0.4488  0.4386
 8106SOL    HW232196   0.889   5.612   4.481 -1.4097 -1.2243 -1.1704
 8106SOL    HW332197   0.760   5.688   4.461 -0.8407 -0.9291 -4.2849
 8106SOL    MW432198   0.846   5.681   4.450  0.1397  0.1884  0.1698
 8107SOL     OW32199   0.897   3.370   1.110 -0.0443  0.1375  0.0816
 8107SOL    HW232200   0.913   3.455   1.070 -1.4862 -0.6622 -2.4173
 8107SOL    HW332201   0.975   3.353   1.163  1.1861  2.0819 -0.9894
 8107SOL    MW432202   0.909   3.379   1.112  0.6972  0.2578 -0.4444
 8108SOL     OW32203   1.027   4.233   4.497 -0.1134 -0.5534 -0.1944
 8108SOL    HW232204   0.958   4.260   4.557  0.1695 -2.0964  0.8948
 8108SOL    HW332205   0.994   4.153   4.456 -0.1589  0.2848 -1.8918
 8108SOL    MW432206   1.014   4.226   4.500  0.3123 -0.3228 -0.2653
 8109SOL     OW32207   3.398   2.055   3.227 -0.2788 -0.6411  0.1718
 8109SOL    HW232208   3.479   2.099   3.251 -0.4609 -0.2286  0.0338
 8109SOL    HW332209   3.357   2.032   3.310 -1.6068  2.0471  0.3515
 8109SOL    MW432210   3.403   2.058   3.241 -0.2874 -0.1232  0.2624
 8110SOL     OW32211   6.157   6.066   2.270 -0.0879  0.0714 -0.1765
 8110SOL    HW232212   6.221   6.036   2.205  0.3624 -0.5973  0.5423
 8110SOL    HW332213   6.072   6.047   2.232  0.1791 -0.7706 -0.3723
 8110SOL    MW432214   6.154   6.060   2.257  0.4719 -0.5148  0.0789
 8111SOL     OW32215   5.860   1.229   5.190 -0.4729  0.0313  0.0519
 8111SOL    HW232216   5.939   1.266   5.229 -1.2992  0.4907  1.3739
 8111SOL    HW332217   5.847   1.147   5.236  0.6976 -1.4316 -2.0579
 8111SOL    MW432218   5.869   1.223   5.201 -0.5234 -0.2637  0.7830
 8112SOL     OW32219   0.094   0.851   5.652 -0.5817 -0.2760  0.3473
 8112SOL    HW232220   0.100   0.868   5.746 -0.0423 -1.7773  0.6189
 8112SOL    HW332221   0.004   0.819   5.640 -0.5950 -0.2556  0.3903
 8112SOL    MW432222   0.083   0.849   5.663 -0.2671  0.6821 -0.0489
 8113SOL     OW32223   0.685   3.995   5.473  0.7456  0.1094  0.2179
 8113SOL    HW232224   0.648   3.999   5.561  0.8419 -1.4661  0.3567
 8113SOL    HW332225   0.704   3.903   5.459  0.0122  0.2188 -1.7791
 8113SOL    MW432226   0.683   3.984   5.483  0.2129  0.6140 -0.0741
 8114SOL     OW32227   4.510   5.393   1.665 -0.4436 -0.0395  0.0120
 8114SOL    HW232228   4.421   5.416   1.638 -0.0995  0.8096 -0.4049
 8114SOL    HW332229   4.566   5.456   1.621  0.3511 -0.3935  0.4962
 8114SOL    MW432230   4.505   5.404   1.656  0.3943 -0.2081  0.3998
 8115SOL     OW32231   3.083   6.174   4.384 -0.3412 -0.4252 -0.6337
 8115SOL    HW232232   3.166   6.171   4.336 -0.1989  0.4254 -0.4471
 8115SOL    HW332233   3.093   6.108   4.452  0.1200 -0.4439 -0.7153
 8115SOL    MW432234   3.095   6.165   4.387  0.4059  0.0561 -0.5854
 8116SOL     OW32235   5.650   6.054   0.802  0.3207  0.3717 -0.7453
 8116SOL    HW232236   5.656   6.136   0.850 -0.8128  1.0774 -1.7458
 8116SOL    HW332237   5.674   5.987   0.865  2.9294  1.5752 -0.3348
 8116SOL    MW432238   5.654   6.056   0.817 -0.5641 -0.4579 -0.3501
 8117SOL     OW32239   5.729   4.552   5.854  0.1978 -0.0187  0.0466
 8117SOL    HW232240   5.805   4.557   5.913  1.7293  1.7269 -1.9319
 8117SOL    HW332241   5.674   4.626   5.880  0.3406  0.1145 -0.0300
 8117SOL    MW432242   5.732   4.563   5.866  0.0624 -0.4587 -0.1267
 8118SOL     OW32243   3.727   3.701   5.153 -0.1378 -0.2607  0.5424
 8118SOL    HW232244   3.633   3.718   5.155 -0.7147 -2.8348 -0.1830
 8118SOL    HW332245   3.750   3.706   5.061  0.2349 -0.4963  0.6212
 8118SOL    MW432246   3.717   3.704   5.141 -0.3661  0.2156  0.3912
 8119SOL     OW32247   2.601   1.312   5.876 -0.4065 -0.6366 -0.8512
 8119SOL    HW232248   2.597   1.238   5.936  0.5858  0.0641  0.1304
 8119SOL    HW332249   2.631   1.274   5.793  0.8238 -1.2503 -0.1608
 8119SOL    MW432250   2.604   1.298   5.873  0.4354  0.1630 -0.3822
 8120SOL     OW32251   1.869   0.996   2.715 -0.0275 -0.0380 -0.2903
 8120SOL    HW232252   1.789   1.026   2.758  0.2289  0.6020 -0.2504
 8120SOL    HW332253   1.890   1.064   2.651  1.4799  0.7348  0.9471
 8120SOL    MW432254   1.862   1.009   2.712 -0.0793 -0.0461 -0.3288
 8121SOL     OW32255   4.562   0.049   2.966 -0.1248 -0.6457  0.1696
 8121SOL    HW232256   4.483   0.013   3.006  0.5459 -3.0523 -0.5492
 8121SOL    HW332257   4.634   0.001   3.006  0.8735  0.1906 -0.5513
 8121SOL    MW432258   4.561   0.038   2.976 -0.1044  0.2439 -0.6535
 8122SOL     OW32259   1.449   0.615   1.987  0.4305 -0.1399 -0.3639
 8122SOL    HW232260   1.407   0.626   2.072 -0.5607  0.4938 -0.9217
 8122SOL    HW332261   1.530   0.665   1.995  0.6762 -0.6356  0.4226
 8122SOL    MW432262   1.454   0.623   1.999  0.5639  0.3437  0.1004
 8123SOL     OW32263   6.345   1.962   4.649 -0.0862 -0.0871 -0.2847
 8123SOL    HW232264   6.411   1.927   4.709  0.3833  2.6862  0.9738
 8123SOL    HW332265   6.270   1.903   4.657  0.4507 -0.5186  2.0786
 8123SOL    MW432266   6.344   1.950   4.658 -0.0521 -0.0206 -0.1911
 8124SOL     OW32267   2.339   4.408   2.817  0.2908 -0.5129 -0.2947
 8124SOL    HW232268   2.305   4.481   2.766 -2.1535 -1.8869 -0.7862
 8124SOL    HW332269   2.424   4.389   2.778 -0.6674 -0.2875 -2.6627
 8124SOL    MW432270   2.346   4.415   2.805 -0.2780  0.2737  0.2278
 8125SOL     OW32271   2.935   2.651   5.900  0.4047  0.0960  0.7012
 8125SOL    HW232272   2.898   2.687   5.981 -2.4863  0.8887 -0.8441
 8125SOL    HW332273   2.927   2.721   5.836  1.7833 -0.8142 -0.5421
 8125SOL    MW432274   2.929   2.665   5.903 -0.0002 -0.1857 -0.0315
 8126SOL     OW32275   1.366   3.367   5.781  0.5877 -0.3283  0.1971
 8126SOL    HW232276   1.431   3.314   5.829 -0.4317 -3.2132 -1.4008
 8126SOL    HW332277   1.295   3.306   5.761 -2.1901  2.4267  0.8566
 8126SOL    MW432278   1.366   3.352   5.785 -0.1868 -0.2208 -0.3254
 8127SOL     OW32279   2.017   6.421   0.187 -0.7540  0.5808  0.0957
 8127SOL    HW232280   2.045   6.330   0.199 -0.2340  0.5172 -1.3690
 8127SOL    HW332281   1.925   6.415   0.162 -0.3570  0.3269 -1.4096
 8127SOL    MW432282   2.009   6.408   0.186 -0.1510 -0.6655 -0.2892
 8128SOL     OW32283   5.697   3.279   4.268 -0.0311  0.2645 -0.5964
 8128SOL    HW232284   5.699   3.345   4.198 -0.5139  0.4093 -0.4787
 8128SOL    HW332285   5.609   3.242   4.263  0.3106 -0.5299 -0.8016
 8128SOL    MW432286   5.685   3.283   4.258  0.5245  0.4451 -0.4530
 8129SOL     OW32287   3.786   1.257   4.230 -0.3364 -0.2560  0.3268
 8129SOL    HW232288   3.731   1.303   4.292  1.5191  0.5789  1.4462
 8129SOL    HW332289   3.857   1.318   4.211 -0.2037 -0.9551 -1.7099
 8129SOL    MW432290   3.788   1.271   4.235  0.0168  0.2619  0.1155
 8130SOL     OW32291   1.625   5.286   5.056 -0.6781 -0.5749 -0.2823
 8130SOL    HW232292   1.610   5.252   4.968  1.1315 -1.0967 -0.4358
 8130SOL    HW332293   1.596   5.377   5.052 -0.4853 -0.5508 -1.4837
 8130SOL    MW432294   1.619   5.294   5.044 -0.2125  0.1485 -0.0215
 8131SOL     OW32295   0.274   3.295   5.161  0.2631  0.2326 -0.2147
 8131SOL    HW232296   0.333   3.356   5.119  1.1899 -1.0507 -0.8586
 8131SOL    HW332297   0.253   3.335   5.245  1.8424  0.8377 -0.0857
 8131SOL    MW432298   0.279   3.308   5.166 -0.2754 -0.2363  0.0568
 8132SOL     OW32299   5.772   1.991   0.466 -0.1954  0.7685  0.5365
 8132SOL    HW232300   5.721   2.070   0.452 -2.0348 -0.5678 -0.7351
 8132SOL    HW332301   5.785   1.954   0.378  2.0745  0.4783  0.9235
 8132SOL    MW432302   5.767   1.996   0.452 -0.2712 -0.3434 -0.3556
 8133SOL     OW32303   3.320   5.558   5.179  0.0229  0.1372 -0.2164
 8133SOL    HW232304   3.306   5.528   5.089 -0.2330 -0.1333 -0.0884
 8133SOL    HW332305   3.250   5.621   5.194  0.9532  1.3237 -0.7113
 8133SOL    MW432306   3.309   5.562   5.169 -0.7853 -0.2606  0.0128
 8134SOL     OW32307   0.915   5.840   5.365  0.3805 -0.2552 -0.5031
 8134SOL    HW232308   0.935   5.747   5.358  2.1569  0.1390 -1.3449
 8134SOL    HW332309   0.927   5.861   5.458  1.1778 -0.6319 -0.5155
 8134SOL    MW432310   0.919   5.831   5.376  0.0533  0.3633 -0.8670
 8135SOL     OW32311   4.529   4.962   3.271 -0.1350 -0.0665 -0.0776
 8135SOL    HW232312   4.554   4.907   3.197  1.4974  0.3361  0.1423
 8135SOL    HW332313   4.459   4.913   3.314 -0.2154 -0.9205 -1.1237
 8135SOL    MW432314   4.523   4.949   3.267  0.1906  0.4795 -0.0593
 8136SOL     OW32315   0.884   4.344   3.897 -0.3225 -0.0185 -0.1015
 8136SOL    HW232316   0.868   4.249   3.902  0.8305 -0.1974  0.6039
 8136SOL    HW332317   0.825   4.382   3.962 -0.1198 -0.3588  0.2886
 8136SOL    MW432318   0.874   4.336   3.907 -0.3491 -0.4599  0.3102
 8137SOL     OW32319   2.661   0.233   4.552 -0.1365 -0.3095  0.1312
 8137SOL    HW232320   2.702   0.236   4.639 -0.0354  0.5921  0.0676
 8137SOL    HW332321   2.665   0.141   4.527  2.7372 -0.1787 -0.2601
 8137SOL    MW432322   2.667   0.221   4.561 -0.6230  0.1256 -0.0853
 8138SOL     OW32323   1.076   2.248   5.115 -0.1947 -0.1221 -0.5191
 8138SOL    HW232324   1.034   2.280   5.036  0.2979  0.5272 -0.5302
 8138SOL    HW332325   1.091   2.326   5.168  0.2257 -0.4436 -0.1470
 8138SOL    MW432326   1.073   2.262   5.112 -0.2104 -0.2904  0.3040
 8139SOL     OW32327   3.442   5.914   6.117 -0.2047  0.3057  0.0690
 8139SOL    HW232328   3.358   5.948   6.086  0.7391  0.6906 -2.3738
 8139SOL    HW332329   3.483   5.878   6.038  0.9772 -1.9900  1.6265
 8139SOL    MW432330   3.437   5.914   6.102  0.1493 -0.3012  0.0639
 8140SOL     OW32331   3.918   4.216   3.713 -0.0848 -0.0803 -0.1179
 8140SOL    HW232332   4.009   4.225   3.741  0.3582 -0.1697 -1.4789
 8140SOL    HW332333   3.875   4.173   3.787  1.4940 -2.2303 -0.3505
 8140SOL    MW432334   3.925   4.212   3.727  0.0947 -0.5208 -0.8015
 8141SOL     OW32335   4.029   5.590   5.061 -0.4845 -0.4470 -0.5814
 8141SOL    HW232336   4.009   5.624   4.974  0.0355  0.6213 -0.2932
 8141SOL    HW332337   3.943   5.569   5.098 -0.9233  1.5278 -0.3828
 8141SOL    MW432338   4.015   5.591   5.054 -0.2102  0.1083  0.3705
 8142SOL     OW32339   5.043   2.940   0.718 -0.6871 -0.1093  0.3864
 8142SOL    HW232340   4.972   2.979   0.667  0.0932  1.9183  0.7813
 8142SOL    HW332341   5.008   2.856   0.747 -2.0045 -0.2790 -1.4995
 8142SOL    MW432342   5.029   2.934   0.715 -0.1608  0.0768  0.1915
 8143SOL     OW32343   5.869   4.480   2.675  0.2705 -0.4848 -0.1314
 8143SOL    HW232344   5.838   4.458   2.763  1.1977  1.2511  0.6835
 8143SOL    HW332345   5.793   4.520   2.632 -0.0439 -0.8871  0.0445
 8143SOL    MW432346   5.855   4.482   2.681 -0.1229  0.4030  0.1508
 8144SOL     OW32347   0.840   1.052   5.172  0.7132 -0.3155 -0.4927
 8144SOL    HW232348   0.752   1.019   5.154  0.7848 -0.5789 -0.3667
 8144SOL    HW332349   0.845   1.056   5.268  1.0763 -0.9577 -0.4803
 8144SOL    MW432350   0.829   1.048   5.183  0.9096  0.2782 -0.1866
 8145SOL     OW32351   5.005   2.327   0.320 -0.0487  0.0787 -0.8021
 8145SOL    HW232352   5.064   2.403   0.319 -0.3584  0.3177 -0.8759
 8145SOL    HW332353   4.945   2.344   0.393  0.7157 -0.7389  0.0537
 8145SOL    MW432354   5.005   2.340   0.330  0.3471  0.6921  0.2200
 8146SOL     OW32355   5.626   1.156   3.200 -0.4064 -1.0832 -0.2377
 8146SOL    HW232356   5.604   1.200   3.282 -0.0324 -0.1652 -0.6196
 8146SOL    HW332357   5.718   1.180   3.184  0.0939 -2.7031 -0.0171
 8146SOL    MW432358   5.635   1.165   3.209  0.2268  0.7919 -0.3826
 8147SOL     OW32359   5.617   3.242   0.358  0.6253 -0.4922  0.3459
 8147SOL    HW232360   5.626   3.147   0.370  0.9018 -0.6668 -1.0327
 8147SOL    HW332361   5.698   3.269   0.316  0.8314  0.4903  1.3239
 8147SOL    MW432362   5.629   3.233   0.354 -0.7018  0.2279  0.2362
 8148SOL     OW32363   0.560   0.602   2.762 -0.6367  0.6977  0.5481
 8148SOL    HW232364   0.586   0.511   2.779 -0.4632  0.9630  1.7988
 8148SOL    HW332365   0.625   0.633   2.698 -0.0718  0.2484  0.8877
 8148SOL    MW432366   0.572   0.594   2.756 -0.8781  0.3021 -0.4594
 8149SOL     OW32367   4.606   6.421   3.318 -0.0329 -0.2720  0.2553
 8149SOL    HW232368   4.535   6.395   3.260 -0.9337 -0.7230  1.5305
 8149SOL    HW332369   4.685   6.390   3.274 -0.4370  1.4822 -1.9017
 8149SOL    MW432370   4.607   6.414   3.305  0.2920  0.7973 -0.3980
 8150SOL     OW32371   5.358   2.948   2.225  0.4857 -0.0473 -0.3255
 8150SOL    HW232372   5.287   2.942   2.289 -0.4531  0.4037 -1.3127
 8150SOL    HW332373   5.338   2.881   2.160  1.2390 -0.2533 -0.3627
 8150SOL    MW432374   5.346   2.938   2.225 -0.4907  0.2157  0.3329
 8151SOL     OW32375   2.209   4.535   6.179  0.2811 -0.3115  0.0833
 8151SOL    HW232376   2.194   4.538   6.273 -0.0850  1.3995  0.0005
 8151SOL    HW332377   2.200   4.625   6.150 -1.5533 -1.0466 -1.8979
 8151SOL    MW432378   2.206   4.547   6.188  0.3016  0.1646 -0.7845
 8152SOL     OW32379   1.171   2.465   6.363 -0.7900 -0.5207  0.4133
 8152SOL    HW232380   1.191   2.458   6.270 -1.0283  2.1439  0.0941
 8152SOL    HW332381   1.206   2.550   6.389 -1.5698 -0.7914  2.5386
 8152SOL    MW432382   1.178   2.475   6.354 -0.3024 -0.1952 -0.0324
 8153SOL     OW32383   1.075   2.726   4.136  0.5096 -0.4789 -0.0458
 8153SOL    HW232384   0.992   2.705   4.178  0.3874 -0.3685 -0.2349
 8153SOL    HW332385   1.114   2.640   4.116 -0.5202 -0.5607 -1.8792
 8153SOL    MW432386   1.069   2.712   4.139  0.6008 -0.7029  0.0192
 8154SOL     OW32387   0.228   0.060   0.414 -0.0517 -0.3811  0.8621
 8154SOL    HW232388   0.207   0.092   0.502  1.0277  1.1616  0.6008
 8154SOL    HW332389   0.320   0.032   0.421  0.6580  1.4980 -0.1798
 8154SOL    MW432390   0.238   0.060   0.427  0.1537 -0.8186  0.2489
 8155SOL     OW32391   2.709   6.203   5.418  0.3205  0.0537 -0.2999
 8155SOL    HW232392   2.793   6.220   5.462  0.1990  1.0438 -0.4295
 8155SOL    HW332393   2.670   6.290   5.406 -0.1510 -0.2882 -1.3701
 8155SOL    MW432394   2.715   6.217   5.422 -0.2316  0.0275 -0.8286
 8156SOL     OW32395   5.369   3.152   3.459 -0.3692  0.2905 -0.2061
 8156SOL    HW232396   5.319   3.077   3.425  0.6338 -0.2369 -0.5484
 8156SOL    HW332397   5.310   3.193   3.522 -0.8276 -0.9932  0.2411
 8156SOL    MW432398   5.354   3.147   3.463  0.1607 -0.4690 -0.3602
 8157SOL     OW32399   4.784   1.680   5.898  0.0625  1.0830  0.8344
 8157SOL    HW232400   4.770   1.734   5.821  0.6614 -0.4463 -0.4133
 8157SOL    HW332401   4.766   1.591   5.868 -0.0382  0.4816  2.5659
 8157SOL    MW432402   4.780   1.675   5.884  0.6917 -0.4805  0.6187
 8158SOL     OW32403   0.104   4.840   5.121 -0.2342 -0.5557 -0.3696
 8158SOL    HW232404   0.063   4.923   5.100  2.5688  0.8210 -0.8726
 8158SOL    HW332405   0.146   4.813   5.039  1.8676 -0.5847  0.6593
 8158SOL    MW432406   0.104   4.847   5.107 -0.4597  0.4466 -0.1718
 8159SOL     OW32407   6.269   3.016   1.599 -0.2842  0.5364  0.2305
 8159SOL    HW232408   6.331   3.072   1.645 -0.7630  1.1835  0.1040
 8159SOL    HW332409   6.208   2.987   1.666  0.3852 -0.4361  0.4325
 8159SOL    MW432410   6.269   3.020   1.614 -0.1263 -0.3773  0.9154
 8160SOL     OW32411   2.882   5.543   5.500  0.0275 -0.3664 -0.1572
 8160SOL    HW232412   2.838   5.474   5.549  0.2042  0.3021  0.9590
 8160SOL    HW332413   2.969   5.507   5.481 -0.2336 -0.8418 -0.4783
 8160SOL    MW432414   2.887   5.529   5.504  0.3100  0.2887 -0.4543
 8161SOL     OW32415   5.190   1.268   0.694  0.4120  0.7401 -0.1147
 8161SOL    HW232416   5.207   1.359   0.671 -1.1265  1.1477  0.2268
 8161SOL    HW332417   5.173   1.225   0.609  2.4838  0.4276 -0.4077
 8161SOL    MW432418   5.190   1.274   0.680 -0.1027 -0.6356 -0.5091
 8162SOL     OW32419   1.250   4.298   2.510  0.4694  0.2351 -0.2691
 8162SOL    HW232420   1.178   4.313   2.449 -0.5199 -0.1323  0.7678
 8162SOL    HW332421   1.325   4.339   2.468 -0.6582  2.0006 -0.6905
 8162SOL    MW432422   1.250   4.306   2.497 -0.3994  0.9135  0.3986
 8163SOL     OW32423   1.966   5.500   2.404 -0.0204 -0.1114  0.0694
 8163SOL    HW232424   2.041   5.478   2.349 -1.7046 -0.1118 -2.3969
 8163SOL    HW332425   2.002   5.559   2.471  2.1647 -0.1270 -1.0024
 8163SOL    MW432426   1.981   5.505   2.406  0.6691  0.2138  0.1591
 8164SOL     OW32427   2.526   3.912   1.079  0.4549 -0.0792  0.4851
 8164SOL    HW232428   2.542   3.832   1.129  1.1656 -0.2802 -0.0433
 8164SOL    HW332429   2.491   3.974   1.144 -1.5532 -1.2524  0.6051
 8164SOL    MW432430   2.524   3.910   1.094 -0.3292 -1.1433  0.5525
 8165SOL     OW32431   3.325   4.623   0.530  0.0873 -0.7736  0.0432
 8165SOL    HW232432   3.240   4.650   0.496  0.2036 -0.6705 -0.1756
 8165SOL    HW332433   3.330   4.660   0.618  0.2743 -0.0108 -0.2783
 8165SOL    MW432434   3.314   4.631   0.537  0.4686 -0.0820  0.0080
 8166SOL     OW32435   1.828   6.341   4.675  0.2955 -0.0214 -0.2156
 8166SOL    HW232436   1.903   6.360   4.619  0.2657  0.8307  0.0267
 8166SOL    HW332437   1.866   6.302   4.754  0.3832 -0.6800 -0.5769
 8166SOL    MW432438   1.843   6.338   4.678  0.1265 -0.2885  0.7253
 8167SOL     OW32439   5.201   0.237   4.314  0.1566 -0.1422 -0.1964
 8167SOL    HW232440   5.283   0.189   4.326 -0.1389 -0.6603 -0.2099
 8167SOL    HW332441   5.162   0.238   4.402 -1.1615 -2.3764 -0.6963
 8167SOL    MW432442   5.207   0.231   4.327 -0.6342  0.1853 -0.5870
 8168SOL     OW32443   2.959   1.579   4.974  0.0094  0.6132  0.6018
 8168SOL    HW232444   2.878   1.585   4.923 -1.2379 -2.4076  1.9714
 8168SOL    HW332445   2.979   1.669   4.997 -2.0843  1.6104 -1.0829
 8168SOL    MW432446   2.951   1.591   4.970 -0.1730  0.4299  0.3915
 8169SOL     OW32447   0.885   5.956   1.421  0.1347 -0.0646 -0.3813
 8169SOL    HW232448   0.914   5.931   1.333 -1.1641  0.6771 -1.0389
 8169SOL    HW332449   0.814   5.896   1.442  0.3406 -0.1447  0.1114
 8169SOL    MW432450   0.880   5.945   1.412  0.1774  0.3515  0.0319
 8170SOL     OW32451   1.750   6.231   5.290 -0.1264  0.1151  0.0511
 8170SOL    HW232452   1.836   6.237   5.332 -0.2355  0.1529  0.2751
 8170SOL    HW332453   1.733   6.138   5.281 -0.4438  0.0907  0.8169
 8170SOL    MW432454   1.759   6.220   5.295 -0.7718  0.1234  0.5401
 8171SOL     OW32455   3.865   2.783   3.038  0.0096  0.2616 -0.3923
 8171SOL    HW232456   3.838   2.755   3.125  0.2320  2.6119  0.5268
 8171SOL    HW332457   3.928   2.853   3.055  2.1473 -1.0122 -2.4629
 8171SOL    MW432458   3.870   2.789   3.051 -0.0357 -0.6009 -0.1429
 8172SOL     OW32459   6.261   1.090   0.166 -0.2508  0.5029  0.1219
 8172SOL    HW232460   6.240   1.179   0.193 -1.8460  0.6181 -1.3929
 8172SOL    HW332461   6.340   1.099   0.114  0.0127  0.9208  0.5806
 8172SOL    MW432462   6.269   1.103   0.163  0.2216  0.2751 -0.1252
 8173SOL     OW32463   3.992   5.386   3.628  0.7017  0.4720  0.0970
 8173SOL    HW232464   4.063   5.393   3.565  0.8261  1.8073  0.3630
 8173SOL    HW332465   4.031   5.345   3.705  0.8874  0.1391 -0.1719
 8173SOL    MW432466   4.006   5.381   3.630  0.1126  0.0469  0.3140
 8174SOL     OW32467   1.293   6.111   1.292 -0.1886  0.2444  0.3711
 8174SOL    HW232468   1.272   6.036   1.347 -0.3908 -0.9054 -1.2097
 8174SOL    HW332469   1.362   6.079   1.233 -1.4806  0.7398 -1.4797
 8174SOL    MW432470   1.300   6.097   1.292  0.4336 -0.1310  0.4891
 8175SOL     OW32471   0.323   1.673   3.005  0.2784  0.4584 -0.3964
 8175SOL    HW232472   0.345   1.612   2.935  0.0212 -0.9041  0.6575
 8175SOL    HW332473   0.305   1.617   3.081  2.4033  1.9279  1.3109
 8175SOL    MW432474   0.323   1.658   3.006  0.2832 -0.6205  0.1650
 8176SOL     OW32475   0.943   3.228   0.865 -0.0082 -0.0728 -0.2822
 8176SOL    HW232476   0.911   3.283   0.936 -3.2035 -0.5824 -1.1881
 8176SOL    HW332477   0.886   3.152   0.866  2.0283 -1.7164 -1.3358
 8176SOL    MW432478   0.932   3.225   0.874  0.0854  0.2406  0.2320
 8177SOL     OW32479   0.984   3.799   0.294 -0.4424  0.0271 -0.6429
 8177SOL    HW232480   0.906   3.746   0.276 -0.0097 -0.7060 -0.4289
 8177SOL    HW332481   1.056   3.750   0.255  0.0530  0.1283  0.1175
 8177SOL    MW432482   0.983   3.785   0.287 -0.3353 -0.2719 -0.1751
 8178SOL     OW32483   6.116   0.815   3.651 -0.3870  0.5700 -0.2581
 8178SOL    HW232484   6.035   0.831   3.699 -0.2915  0.1998  0.0360
 8178SOL    HW332485   6.130   0.895   3.600 -0.6116  0.8856  0.1612
 8178SOL    MW432486   6.107   0.828   3.651  0.3792 -0.3694 -1.0789
 8179SOL     OW32487   5.189   0.308   3.050 -0.0183  0.2751  0.1392
 8179SOL    HW232488   5.226   0.260   2.975 -0.7387  0.8053 -0.5712
 8179SOL    HW332489   5.254   0.298   3.119 -0.4037 -2.2873  0.2383
 8179SOL    MW432490   5.202   0.300   3.049 -0.3166  0.1252 -0.3610
 8180SOL     OW32491   2.825   6.292   0.516 -0.2787  0.2244  0.2766
 8180SOL    HW232492   2.843   6.238   0.592  0.7029  0.5956  0.3151
 8180SOL    HW332493   2.729   6.287   0.506 -0.2717 -1.0609  0.5994
 8180SOL    MW432494   2.814   6.284   0.524  0.3351  0.1484  0.1948
 8181SOL     OW32495   2.779   5.217   4.035  0.0974  0.0261  0.3070
 8181SOL    HW232496   2.801   5.125   4.025  0.6410  0.2277 -0.3989
 8181SOL    HW332497   2.811   5.259   3.955 -1.9933  0.5068 -0.3532
 8181SOL    MW432498   2.786   5.211   4.023  0.2181  0.0969  0.3378
 8182SOL     OW32499   3.257   3.753   1.334 -0.0725  0.1366 -0.4948
 8182SOL    HW232500   3.321   3.691   1.302 -0.2476 -0.5997  0.5231
 8182SOL    HW332501   3.174   3.724   1.297 -0.1438 -0.2024 -0.0742
 8182SOL    MW432502   3.254   3.741   1.325  0.0876  0.9477 -1.1516
 8183SOL     OW32503   3.202   3.676   3.890  0.1074  0.3453 -0.3968
 8183SOL    HW232504   3.237   3.715   3.970  1.9260  1.1793 -1.5460
 8183SOL    HW332505   3.266   3.609   3.865  0.1165  0.8244 -1.7182
 8183SOL    MW432506   3.215   3.672   3.898  0.6830  0.3657  0.3766
 8184SOL     OW32507   5.922   0.967   0.249  0.1196 -0.1290  0.2980
 8184SOL    HW232508   5.843   0.928   0.211  0.0026  1.0387 -0.7239
 8184SOL    HW332509   5.994   0.913   0.215 -0.1468 -0.4436  0.2299
 8184SOL    MW432510   5.921   0.955   0.239 -0.3462  0.1507 -0.2839
 8185SOL     OW32511   3.737   0.540   4.347  0.0100 -0.1512 -0.0611
 8185SOL    HW232512   3.707   0.545   4.256 -1.7201 -2.4795  0.2800
 8185SOL    HW332513   3.821   0.493   4.342  0.2251  0.2783 -0.5034
 8185SOL    MW432514   3.744   0.534   4.335 -0.0281 -0.0433 -0.4241
 8186SOL     OW32515   1.692   1.209   5.996  0.1783 -0.1318  0.2621
 8186SOL    HW232516   1.679   1.252   6.081 -0.2998 -0.7207  0.4968
 8186SOL    HW332517   1.760   1.261   5.953  0.0169  0.5141  0.7699
 8186SOL    MW432518   1.699   1.221   6.002 -0.1684 -0.1524 -0.0357
 8187SOL     OW32519   4.923   4.598   0.779 -0.3885 -0.5177  0.0885
 8187SOL    HW232520   4.913   4.690   0.802  0.1347 -0.4999  0.2503
 8187SOL    HW332521   4.872   4.588   0.699  1.8987  0.6199 -1.6505
 8187SOL    MW432522   4.915   4.609   0.771  0.2468  0.0219 -0.1669
 8188SOL     OW32523   2.702   2.320   6.047  0.2038 -0.1393 -0.1093
 8188SOL    HW232524   2.742   2.234   6.035  1.8374  0.9525 -3.8613
 8188SOL    HW332525   2.760   2.365   6.109  0.2266 -1.1686  0.6461
 8188SOL    MW432526   2.715   2.314   6.054  0.0910 -0.2062 -0.6853
 8189SOL     OW32527   0.500   4.638   0.888 -0.2674 -0.2381 -0.6439
 8189SOL    HW232528   0.591   4.664   0.870 -0.2228  0.2305  0.2279
 8189SOL    HW332529   0.505   4.544   0.902 -0.0186 -0.3181 -1.2089
 8189SOL    MW432530   0.513   4.629   0.887 -0.0159  0.9351 -0.0497
 8190SOL     OW32531   2.102   6.066   6.386 -0.0787 -0.1759  0.0415
 8190SOL    HW232532   2.158   5.988   6.397  0.8005  0.5473  0.9632
 8190SOL    HW332533   2.146   6.117   6.318 -0.6929 -0.5084 -0.6113
 8190SOL    MW432534   2.115   6.062   6.378  0.3027  0.6591  0.0880
 8191SOL     OW32535   0.229   4.567   0.356 -0.1468 -0.2953  0.1221
 8191SOL    HW232536   0.265   4.647   0.393  1.7500 -0.8439 -0.4425
 8191SOL    HW332537   0.175   4.596   0.282 -0.1085  0.4871  0.4014
 8191SOL    MW432538   0.226   4.581   0.351 -0.2253 -0.2091 -0.0583
 8192SOL     OW32539   1.624   0.401   0.521  0.7659 -0.0444 -0.2388
 8192SOL    HW232540   1.707   0.420   0.565  0.3784  2.1260 -0.3650
 8192SOL    HW332541   1.557   0.425   0.585  0.1996 -1.4341 -0.2724
 8192SOL    MW432542   1.626   0.406   0.535 -0.7165  0.3029 -0.0487
 8193SOL     OW32543   6.284   1.829   3.888 -0.1500  0.3506 -0.0158
 8193SOL    HW232544   6.314   1.873   3.967  0.4479 -0.2513  0.1044
 8193SOL    HW332545   6.341   1.862   3.819  1.2974 -1.2549  0.3171
 8193SOL    MW432546   6.295   1.839   3.889 -0.2428  0.0557  0.3725
 8194SOL     OW32547   2.628   2.478   1.599 -0.0579 -0.3864 -0.4898
 8194SOL    HW232548   2.663   2.492   1.511 -1.0588 -2.1222 -1.2009
 8194SOL    HW332549   2.628   2.566   1.638 -1.2569  0.7450 -2.8444
 8194SOL    MW432550   2.633   2.492   1.592  0.3043 -0.1095 -0.4666
 8195SOL     OW32551   5.427   4.107   3.361  0.4909 -0.1870 -0.3728
 8195SOL    HW232552   5.517   4.104   3.396  0.8747 -0.4077 -1.3465
 8195SOL    HW332553   5.419   4.195   3.324  0.6532 -0.4985 -1.1618
 8195SOL    MW432554   5.438   4.118   3.361  0.2653 -0.3433 -0.1678
 8196SOL     OW32555   3.971   0.749   3.721 -0.4819 -0.2561 -0.0006
 8196SOL    HW232556   3.995   0.659   3.741 -1.4889 -0.7915 -1.0390
 8196SOL    HW332557   3.968   0.793   3.806 -1.1269 -1.5120  0.6556
 8196SOL    MW432558   3.974   0.743   3.734 -0.2273 -0.0140 -0.3554
 8197SOL     OW32559   0.375   6.056   2.656 -0.3843 -0.2207  0.0351
 8197SOL    HW232560   0.328   6.119   2.602  0.9923  0.7358 -0.1071
 8197SOL    HW332561   0.448   6.028   2.602  0.2420 -0.2874  0.8956
 8197SOL    MW432562   0.378   6.060   2.642 -0.3835  0.4912  0.1568
 8198SOL     OW32563   3.461   5.264   1.029  0.0048  0.5582  0.4428
 8198SOL    HW232564   3.483   5.182   1.074  0.9739  0.3373 -0.3982
 8198SOL    HW332565   3.541   5.317   1.036 -0.1151  0.8451 -0.2739
 8198SOL    MW432566   3.475   5.260   1.036  0.3550  0.2071 -0.0836
 8199SOL     OW32567   3.662   4.553   3.781 -0.1469  0.1563  0.2747
 8199SOL    HW232568   3.730   4.604   3.825 -0.5006  0.7266  0.1765
 8199SOL    HW332569   3.702   4.526   3.698  0.4376 -0.7206  0.8247
 8199SOL    MW432570   3.676   4.556   3.776 -0.0832  0.0358  0.2513
 8200SOL     OW32571   4.462   3.231   4.329 -0.2327  0.0931  0.3838
 8200SOL    HW232572   4.386   3.288   4.319  0.1826  0.6850  0.5231
 8200SOL    HW332573   4.429   3.143   4.309 -0.3577  0.6510 -2.2763
 8200SOL    MW432574   4.448   3.227   4.325  1.0644  0.4187 -0.0113
 8201SOL     OW32575   1.471   0.762   4.745 -0.1676  0.2700  0.3952
 8201SOL    HW232576   1.460   0.857   4.734 -1.8559  0.0611  0.0067
 8201SOL    HW332577   1.390   0.724   4.710  0.0236 -1.2534  1.4842
 8201SOL    MW432578   1.459   0.770   4.739 -0.0144 -0.2635 -0.2373
 8202SOL     OW32579   0.486   5.480   5.207  0.3297 -0.4981 -0.0402
 8202SOL    HW232580   0.527   5.560   5.240 -1.6535  1.0846 -1.1720
 8202SOL    HW332581   0.392   5.495   5.219 -0.2062 -1.7530 -2.1608
 8202SOL    MW432582   0.479   5.493   5.213 -0.3165 -0.4743  0.7099
 8203SOL     OW32583   4.753   1.820   5.650 -0.2539  0.5554 -0.0306
 8203SOL    HW232584   4.835   1.869   5.651 -1.6490  3.0881  2.0014
 8203SOL    HW332585   4.686   1.883   5.678 -2.5462 -2.0008  0.7226
 8203SOL    MW432586   4.755   1.834   5.654  0.6862 -0.1225  0.4841
 8204SOL     OW32587   2.073   5.743   3.256 -0.2126 -0.0518 -0.6370
 8204SOL    HW232588   2.121   5.788   3.325  0.6347 -0.0718 -1.1949
 8204SOL    HW332589   2.071   5.651   3.283 -0.5326  0.0588 -0.2817
 8204SOL    MW432590   2.079   5.737   3.268  0.1526  0.1158 -0.3528
 8205SOL     OW32591   6.114   4.166   5.572 -0.4583  0.2406 -0.1221
 8205SOL    HW232592   6.050   4.180   5.642  0.5405  1.2946  0.6016
 8205SOL    HW332593   6.150   4.253   5.554  2.3209 -0.5766  1.0061
 8205SOL    MW432594   6.110   4.179   5.579  0.0576 -0.2999 -0.2861
 8206SOL     OW32595   1.053   5.583   1.535 -0.3520  0.0086  0.1851
 8206SOL    HW232596   0.969   5.608   1.573 -1.3315 -3.9264  1.0589
 8206SOL    HW332597   1.048   5.613   1.444 -2.0409  1.1720  0.6125
 8206SOL    MW432598   1.041   5.591   1.528 -0.3468  0.1982 -0.3994
 8207SOL     OW32599   4.266   4.889   4.243  0.0794  0.5022  0.2656
 8207SOL    HW232600   4.207   4.861   4.312  1.3401 -1.2203  0.7211
 8207SOL    HW332601   4.232   4.847   4.164  0.0947  0.3506  0.3379
 8207SOL    MW432602   4.254   4.880   4.241  0.5290 -0.0636 -1.1286
 8208SOL     OW32603   3.990   4.720   3.844 -0.4692  0.2016  0.6975
 8208SOL    HW232604   3.977   4.650   3.909 -0.5714 -0.1738  0.2766
 8208SOL    HW332605   3.913   4.776   3.854 -2.0142 -1.4347 -1.0652
 8208SOL    MW432606   3.978   4.718   3.854 -0.3818  0.7077 -0.4455
 8209SOL     OW32607   2.047   0.617   2.075 -0.2890 -0.4007  0.2587
 8209SOL    HW232608   2.129   0.577   2.044  0.0994  0.6596 -0.1262
 8209SOL    HW332609   1.986   0.544   2.081  0.0590 -0.8905 -1.5589
 8209SOL    MW432610   2.050   0.602   2.072 -0.1192 -0.3151  0.5475
 8210SOL     OW32611   1.316   1.165   0.913  0.5916 -0.1808  0.1292
 8210SOL    HW232612   1.333   1.072   0.897 -0.0612 -0.2894  0.0271
 8210SOL    HW332613   1.337   1.178   1.005 -1.0881 -0.8662  0.6447
 8210SOL    MW432614   1.321   1.154   0.923  0.0664  0.1012 -0.1497
 8211SOL     OW32615   5.723   6.060   5.631 -0.7541 -0.1265  0.3247
 8211SOL    HW232616   5.710   6.154   5.619 -0.0260 -0.1546 -0.9497
 8211SOL    HW332617   5.686   6.021   5.551 -0.6766 -0.8819  0.6548
 8211SOL    MW432618   5.716   6.068   5.619  0.4774  0.0086 -0.2371
 8212SOL     OW32619   1.123   4.612   1.710 -0.4167  0.0473  0.2519
 8212SOL    HW232620   1.056   4.555   1.672 -0.9043 -1.3521  2.9493
 8212SOL    HW332621   1.181   4.553   1.757  0.6709  1.5556  0.8804
 8212SOL    MW432622   1.122   4.597   1.711 -0.0132  0.5934  0.1363
 8213SOL     OW32623   0.255   1.366   3.713 -0.1456 -0.4781 -0.3984
 8213SOL    HW232624   0.285   1.344   3.625  1.2213 -1.3821  0.2522
 8213SOL    HW332625   0.271   1.460   3.722 -2.3212  0.1208 -1.8204
 8213SOL    MW432626   0.261   1.375   3.702 -0.0022  0.0743  0.2813
 8214SOL     OW32627   0.293   5.151   0.274 -0.2813 -0.4001  0.4271
 8214SOL    HW232628   0.338   5.091   0.215 -0.2298 -0.8912  0.9541
 8214SOL    HW332629   0.344   5.147   0.355  0.7083  1.6155 -0.0437
 8214SOL    MW432630   0.306   5.143   0.277 -0.0963  0.3563 -0.0114
 8215SOL     OW32631   1.663   1.003   0.960  0.0599  0.0016  0.2925
 8215SOL    HW232632   1.630   0.929   1.011 -0.2153 -0.7240 -0.9045
 8215SOL    HW332633   1.613   1.001   0.879 -0.1137  1.6627  0.3213
 8215SOL    MW432634   1.652   0.993   0.956 -0.1984 -0.0943  0.2553
 8216SOL     OW32635   5.702   1.393   1.693 -0.5759 -0.2559 -0.0504
 8216SOL    HW232636   5.628   1.416   1.638  1.7985  3.5979 -2.0706
 8216SOL    HW332637   5.738   1.477   1.722  3.2029 -1.7977  0.4220
 8216SOL    MW432638   5.697   1.407   1.690 -0.2557  0.0247  0.7360
 8217SOL     OW32639   2.847   2.878   2.507  0.3843 -0.0150 -0.1448
 8217SOL    HW232640   2.887   2.834   2.432  0.0572  0.9526 -0.9121
 8217SOL    HW332641   2.753   2.860   2.498  0.1568  1.3317 -0.8566
 8217SOL    MW432642   2.840   2.870   2.496  0.0917 -0.2222 -0.0087
 8218SOL     OW32643   6.084   1.975   3.054 -0.6419 -0.9264 -0.0326
 8218SOL    HW232644   6.012   1.912   3.056 -0.8530 -0.7279 -0.8426
 8218SOL    HW332645   6.160   1.926   3.085 -0.7861 -1.6118 -0.7211
 8218SOL    MW432646   6.085   1.960   3.058 -0.5703 -0.4690  0.1953
 8219SOL     OW32647   6.334   0.521   6.339  0.0990 -0.4233 -0.3597
 8219SOL    HW232648   6.377   0.507   6.254  1.7856  0.3749  0.3204
 8219SOL    HW332649   6.353   0.442   6.389 -1.1462 -1.0220 -0.7928
 8219SOL    MW432650   6.342   0.509   6.334 -0.2116  0.3873 -0.2823
 8220SOL     OW32651   2.291   4.381   3.877  0.2839 -0.2194 -0.4528
 8220SOL    HW232652   2.342   4.318   3.826 -0.0856 -0.1290 -0.9391
 8220SOL    HW332653   2.207   4.386   3.831  0.0780  0.1329 -0.0383
 8220SOL    MW432654   2.286   4.373   3.864 -0.2644 -0.2467 -0.2534
 8221SOL     OW32655   1.004   1.538   5.036 -0.0854  0.1411 -0.3743
 8221SOL    HW232656   0.971   1.460   5.081  2.4824 -1.0793 -0.4390
 8221SOL    HW332657   0.971   1.530   4.947 -0.3462 -0.5235 -0.2229
 8221SOL    MW432658   0.995   1.527   5.031 -1.0262 -0.0431  0.1648
 8222SOL     OW32659   1.129   2.262   2.611 -0.0582  0.1768  0.4350
 8222SOL    HW232660   1.169   2.214   2.684  1.5701 -2.6010 -2.0655
 8222SOL    HW332661   1.035   2.257   2.628  0.2689 -0.5017  2.2674
 8222SOL    MW432662   1.122   2.255   2.623  0.2674 -0.2126  0.1283
 8223SOL     OW32663   5.729   0.240   0.441  0.5317 -0.2142  0.1869
 8223SOL    HW232664   5.753   0.157   0.481  1.4615 -0.6247 -1.1295
 8223SOL    HW332665   5.688   0.215   0.358 -1.7200  0.5849  0.9876
 8223SOL    MW432666   5.727   0.226   0.435 -0.2549  0.1384  0.4222
 8224SOL     OW32667   6.422   1.101   4.716 -0.2975 -0.1699 -0.1266
 8224SOL    HW232668   6.467   1.141   4.641 -0.4649  0.3119  0.0284
 8224SOL    HW332669   6.331   1.128   4.706 -0.5184 -0.9319 -0.2981
 8224SOL    MW432670   6.416   1.110   4.705 -0.4419  0.2422 -0.0118
 8225SOL     OW32671   2.595   4.164   4.150  0.4749 -0.0902  0.1899
 8225SOL    HW232672   2.628   4.253   4.138  0.8731 -0.4014 -1.2155
 8225SOL    HW332673   2.611   4.121   4.066  1.5037 -1.8807  1.2414
 8225SOL    MW432674   2.601   4.170   4.138 -0.7018  0.0559  0.4621
 8226SOL     OW32675   5.487   1.345   3.033 -0.0513 -0.0770 -0.2912
 8226SOL    HW232676   5.543   1.348   2.956  1.0266 -0.1380  0.4704
 8226SOL    HW332677   5.535   1.293   3.097 -1.3010 -0.7468  0.1445
 8226SOL    MW432678   5.501   1.339   3.031 -0.1785 -0.5957  0.5944
 8227SOL     OW32679   4.982   4.454   4.126 -0.2566  0.3499 -0.2751
 8227SOL    HW232680   4.917   4.437   4.194  1.0787  1.1831  1.2852
 8227SOL    HW332681   5.059   4.484   4.174  0.6505  1.2373 -2.1920
 8227SOL    MW432682   4.984   4.456   4.141  0.0252  0.2378  0.1371
 8228SOL     OW32683   5.485   4.411   4.478  0.4915 -0.0678 -0.4103
 8228SOL    HW232684   5.491   4.487   4.536  0.2867 -1.2053  1.1522
 8228SOL    HW332685   5.459   4.448   4.393 -1.0450  1.4681  0.6597
 8228SOL    MW432686   5.482   4.426   4.474 -0.1787  0.0679  0.4026
 8229SOL     OW32687   2.248   2.286   2.875  0.0267 -0.1020 -0.1303
 8229SOL    HW232688   2.312   2.233   2.829  1.6900  0.5456  1.3582
 8229SOL    HW332689   2.247   2.369   2.826 -1.3230 -0.8312 -1.4316
 8229SOL    MW432690   2.256   2.290   2.862 -0.2961 -0.0613 -0.2204
 8230SOL     OW32691   1.331   1.682   3.705  0.2090  0.3319 -0.2959
 8230SOL    HW232692   1.246   1.719   3.732 -0.2695  1.3242 -2.9072
 8230SOL    HW332693   1.311   1.592   3.678  0.1311  0.3203 -0.1996
 8230SOL    MW432694   1.317   1.675   3.705 -0.0606 -0.1395 -0.5390
 8231SOL     OW32695   5.598   1.330   4.400 -0.3412 -0.0120  0.2479
 8231SOL    HW232696   5.658   1.266   4.437 -0.4694 -0.8593 -0.9471
 8231SOL    HW332697   5.528   1.277   4.360  0.7812  0.6832 -2.9493
 8231SOL    MW432698   5.596   1.315   4.400  0.1474  0.1455  0.7360
 8232SOL     OW32699   4.816   5.265   6.247  0.6272  0.5950  0.2063
 8232SOL    HW232700   4.730   5.308   6.240  0.7055  0.7231  0.0056
 8232SOL    HW332701   4.834   5.263   6.341 -0.5867 -1.4316  0.4311
 8232SOL    MW432702   4.807   5.271   6.258  0.1571  0.7596 -0.0339
 8233SOL     OW32703   3.647   4.350   4.028  0.2032 -0.6105 -0.6825
 8233SOL    HW232704   3.717   4.399   3.986  1.3020 -1.7004 -0.1945
 8233SOL    HW332705   3.616   4.408   4.097  1.0797 -0.3556 -0.4829
 8233SOL    MW432706   3.652   4.364   4.032  0.2469  0.0962 -0.0543
 8234SOL     OW32707   2.678   0.406   2.248 -0.1921  0.0845 -0.2758
 8234SOL    HW232708   2.642   0.494   2.243 -1.5397 -0.4781 -1.5842
 8234SOL    HW332709   2.614   0.357   2.300  0.9554  0.0291  1.1464
 8234SOL    MW432710   2.665   0.411   2.254 -0.5442 -0.1015 -0.4169
 8235SOL     OW32711   0.844   5.379   5.732 -0.8245 -0.0804  0.4789
 8235SOL    HW232712   0.824   5.359   5.640 -1.6443  0.9471  0.4161
 8235SOL    HW332713   0.853   5.474   5.734 -2.1166  0.0367  1.7182
 8235SOL    MW432714   0.843   5.389   5.720  0.1342 -0.2824  0.4586
 8236SOL     OW32715   0.940   3.782   0.594 -1.2300  0.3454  0.0345
 8236SOL    HW232716   0.956   3.782   0.499 -1.1452 -0.3735  0.0471
 8236SOL    HW332717   0.883   3.857   0.608 -0.9110  0.7087 -0.5301
 8236SOL    MW432718   0.935   3.792   0.583 -0.0449  0.3998  0.0547
 8237SOL     OW32719   1.319   2.344   2.201  0.0907 -0.3498  0.3229
 8237SOL    HW232720   1.271   2.411   2.153 -0.1145 -1.1389 -0.6247
 8237SOL    HW332721   1.295   2.357   2.292  0.1279  0.9093  0.1685
 8237SOL    MW432722   1.310   2.354   2.207 -0.0403  0.3193 -0.0414
 8238SOL     OW32723   2.280   3.066   6.250  0.0141 -0.4313  0.1833
 8238SOL    HW232724   2.250   2.981   6.218  1.3736 -1.7106  2.0652
 8238SOL    HW332725   2.225   3.085   6.326 -1.4272  1.2692 -1.2090
 8238SOL    MW432726   2.269   3.058   6.256  0.1853 -0.0629 -0.7707
 8239SOL     OW32727   5.608   3.487   1.321 -0.0830 -0.2081 -0.5211
 8239SOL    HW232728   5.581   3.522   1.406 -1.2156 -2.1920 -0.0200
 8239SOL    HW332729   5.645   3.401   1.341  4.5809  1.2564 -1.4489
 8239SOL    MW432730   5.609   3.480   1.335  0.0943  0.5546  0.0363
 8240SOL     OW32731   4.672   0.940   0.404 -0.0070 -0.2364 -0.4145
 8240SOL    HW232732   4.600   0.952   0.465  0.3326 -1.1099  0.1796
 8240SOL    HW332733   4.702   0.850   0.419  1.4756  0.2401 -0.3430
 8240SOL    MW432734   4.666   0.929   0.414 -0.4165  0.2285 -0.0864
 8241SOL     OW32735   0.553   2.147   3.650  0.2287 -0.4290  0.4360
 8241SOL    HW232736   0.625   2.101   3.693  1.0864  0.3293 -0.1490
 8241SOL    HW332737   0.549   2.108   3.562  0.0535 -0.3192  0.3945
 8241SOL    MW432738   0.562   2.136   3.644  0.5555  0.9017  0.2600
 8242SOL     OW32739   3.182   2.764   4.734  0.5068 -0.4028 -0.0243
 8242SOL    HW232740   3.215   2.680   4.765  0.4764 -0.5233 -0.3064
 8242SOL    HW332741   3.223   2.829   4.790  0.6986 -0.5942  0.0589
 8242SOL    MW432742   3.192   2.761   4.745  0.4153  0.1150 -0.0792
 8243SOL     OW32743   4.030   5.850   5.683 -0.2641 -0.1917 -0.0245
 8243SOL    HW232744   4.042   5.776   5.742 -3.3458 -0.1971  0.7374
 8243SOL    HW332745   4.010   5.810   5.598  0.9316 -0.1877 -0.3225
 8243SOL    MW432746   4.029   5.835   5.679  0.4167  0.3210  0.3913
 8244SOL     OW32747   1.657   4.668   4.409  0.4572 -0.3147  0.1054
 8244SOL    HW232748   1.650   4.578   4.377  0.7025 -0.3558  0.1686
 8244SOL    HW332749   1.715   4.711   4.347 -1.0373  0.2763 -0.9470
 8244SOL    MW432750   1.664   4.661   4.397  0.1248  0.2617 -0.0602
 8245SOL     OW32751   1.239   2.928   1.361 -0.3665  0.0893 -0.5920
 8245SOL    HW232752   1.276   2.975   1.286  1.2501  0.5288  0.4411
 8245SOL    HW332753   1.228   2.838   1.330  2.3336 -0.2506 -0.7555
 8245SOL    MW432754   1.242   2.922   1.347 -0.3322  0.2388 -0.2658
 8246SOL     OW32755   1.839   4.678   0.186  0.7927  0.2837 -0.4158
 8246SOL    HW232756   1.825   4.607   0.249  1.7527  2.1711  2.0695
 8246SOL    HW332757   1.752   4.712   0.167  0.6156  0.9303  1.4499
 8246SOL    MW432758   1.826   4.673   0.192 -0.5007  0.0198 -0.0647
 8247SOL     OW32759   5.834   2.129   4.161 -0.5413  0.0997 -0.0563
 8247SOL    HW232760   5.743   2.140   4.188 -0.6598 -0.2049 -0.3202
 8247SOL    HW332761   5.850   2.199   4.098 -1.0284 -0.6654 -1.0760
 8247SOL    MW432762   5.824   2.139   4.156  0.3802 -0.2184 -0.2644
 8248SOL     OW32763   0.362   4.979   3.993  0.0839 -0.3671 -0.1206
 8248SOL    HW232764   0.340   4.923   4.067 -0.7613  0.6283  0.4169
 8248SOL    HW332765   0.434   5.034   4.025  0.7830 -0.9972 -0.5805
 8248SOL    MW432766   0.368   4.979   4.007  0.2041 -0.4442  0.4842
 8249SOL     OW32767   1.931   5.179   0.411 -0.1636  0.4425 -0.4981
 8249SOL    HW232768   1.976   5.197   0.329 -0.2776 -0.8069 -0.8469
 8249SOL    HW332769   1.901   5.089   0.404 -1.4453  0.7613  0.3244
 8249SOL    MW432770   1.933   5.170   0.400 -0.2812  0.1452 -0.4638
 8250SOL     OW32771   1.618   3.951   6.214 -0.3052  0.2614  0.2449
 8250SOL    HW232772   1.614   3.980   6.123  0.5982  0.3190  0.2141
 8250SOL    HW332773   1.712   3.948   6.234 -0.4508 -0.7881  0.8392
 8250SOL    MW432774   1.630   3.954   6.205 -0.1535 -0.2534 -0.1429
 8251SOL     OW32775   3.454   6.133   0.609 -0.4055 -0.1607  0.4786
 8251SOL    HW232776   3.496   6.201   0.556  0.5476 -0.3970  0.9014
 8251SOL    HW332777   3.476   6.155   0.699 -0.1106 -0.9994  0.6269
 8251SOL    MW432778   3.463   6.145   0.614  0.1887 -0.2029  0.2343
 8252SOL     OW32779   2.633   5.623   1.371  0.1882 -0.4173  0.5596
 8252SOL    HW232780   2.557   5.659   1.417 -1.4521 -2.0743 -0.7426
 8252SOL    HW332781   2.651   5.540   1.414  0.1665 -0.8448 -0.2448
 8252SOL    MW432782   2.626   5.617   1.383  0.0585  0.1399  0.9727
 8253SOL     OW32783   2.627   1.069   2.670  0.1689 -0.4617 -0.3202
 8253SOL    HW232784   2.607   1.024   2.587  1.5449 -0.8981 -0.4554
 8253SOL    HW332785   2.708   1.117   2.651  0.1666 -0.0858  0.6048
 8253SOL    MW432786   2.635   1.069   2.656  0.5289  0.1066 -0.1634
 8254SOL     OW32787   4.839   4.769   2.645  0.1346 -0.2318  0.0364
 8254SOL    HW232788   4.932   4.773   2.621  0.1004  3.1503  0.0739
 8254SOL    HW332789   4.802   4.703   2.587  2.2936 -0.7543 -0.8507
 8254SOL    MW432790   4.846   4.761   2.634 -0.2864  0.0120  0.0639
 8255SOL     OW32791   5.193   6.383   4.576 -0.3028  0.0617  0.1696
 8255SOL    HW232792   5.167   6.331   4.500  1.6011 -0.2540 -0.3361
 8255SOL    HW332793   5.289   6.373   4.579 -0.2905  0.4689  2.3224
 8255SOL    MW432794   5.202   6.375   4.566 -0.2728 -0.5767  0.5424
 8256SOL     OW32795   3.773   6.048   5.858 -0.4912 -0.6684 -0.5126
 8256SOL    HW232796   3.687   6.007   5.849 -1.3205  0.8303  0.3069
 8256SOL    HW332797   3.805   6.056   5.768 -1.5215 -0.5974 -0.8811
 8256SOL    MW432798   3.766   6.043   5.845  0.4768 -0.5175 -0.6233
 8257SOL     OW32799   3.343   6.376   4.621 -0.1206  0.3885  0.1832
 8257SOL    HW232800   3.283   6.311   4.658  0.0457 -0.3311 -0.7804
 8257SOL    HW332801   3.408   6.389   4.690 -1.6961  1.6721  1.5149
 8257SOL    MW432802   3.343   6.369   4.635  0.5130  0.5519 -0.6098
 8258SOL     OW32803   0.529   3.385   0.874  0.2591  0.3164 -0.3615
 8258SOL    HW232804   0.608   3.395   0.820  1.8329 -1.2205  1.4939
 8258SOL    HW332805   0.558   3.332   0.949 -1.9484  1.7314  1.6413
 8258SOL    MW432806   0.543   3.379   0.877 -0.5992  0.2953 -0.6556
 8259SOL     OW32807   1.268   1.180   4.777  0.0361  0.3037  0.2217
 8259SOL    HW232808   1.278   1.227   4.860  0.0896 -0.8755  0.9122
 8259SOL    HW332809   1.349   1.129   4.769  0.8269  1.7242 -1.4632
 8259SOL    MW432810   1.280   1.179   4.787  0.1691  0.0749 -0.0447
 8260SOL     OW32811   6.420   2.703   6.089 -0.1720  0.2041  0.5652
 8260SOL    HW232812   6.351   2.637   6.094  0.1546 -0.2564 -0.6184
 8260SOL    HW332813   6.501   2.653   6.103  0.3489 -0.2791 -3.0829
 8260SOL    MW432814   6.422   2.687   6.091 -0.0019 -0.3577  0.5531
 8261SOL     OW32815   0.516   3.474   3.440  0.0885 -0.3783 -0.2096
 8261SOL    HW232816   0.465   3.538   3.390 -1.8902 -1.6795  0.0570
 8261SOL    HW332817   0.550   3.524   3.515  0.1702  0.7651 -0.9734
 8261SOL    MW432818   0.514   3.489   3.443  0.6213  0.1860  0.4523
 8262SOL     OW32819   0.816   6.213   1.331  0.2762  0.4426 -0.3683
 8262SOL    HW232820   0.896   6.264   1.315  0.8796 -0.5148 -0.5343
 8262SOL    HW332821   0.848   6.124   1.344 -0.7256  0.1637  0.2357
 8262SOL    MW432822   0.831   6.208   1.331  1.0182  0.4547 -0.2094
 8263SOL     OW32823   5.550   3.671   0.894 -0.3847 -0.7209  0.9381
 8263SOL    HW232824   5.558   3.576   0.887 -0.7109 -0.6904  0.0073
 8263SOL    HW332825   5.463   3.685   0.932 -0.3935 -0.7908  0.9429
 8263SOL    MW432826   5.539   3.660   0.899 -0.4198 -0.1179  0.2475
 8264SOL     OW32827   0.913   0.265   0.496 -0.1814 -0.4115  0.0731
 8264SOL    HW232828   0.896   0.175   0.468 -0.6369 -0.3223  0.0530
 8264SOL    HW332829   0.943   0.310   0.417  3.0687 -1.2780  0.6999
 8264SOL    MW432830   0.914   0.259   0.482 -0.8732 -0.0451 -0.3843
 8265SOL     OW32831   3.194   3.575   3.548  0.0589 -0.2407 -0.7951
 8265SOL    HW232832   3.200   3.535   3.461  0.1013  1.4839 -1.6207
 8265SOL    HW332833   3.150   3.658   3.532 -0.2145 -0.0425  0.9028
 8265SOL    MW432834   3.189   3.580   3.534 -0.1277  0.0051  0.3104
 8266SOL     OW32835   0.332   0.710   1.033 -0.5610 -0.0613  0.4300
 8266SOL    HW232836   0.310   0.802   1.021 -1.5683 -0.5518 -2.0797
 8266SOL    HW332837   0.251   0.663   1.016  0.5580 -1.5233 -1.3382
 8266SOL    MW432838   0.319   0.716   1.029  0.0368  0.7639 -0.4829
 8267SOL     OW32839   3.372   4.773   4.530 -0.5416  0.7440  0.1151
 8267SOL    HW232840   3.347   4.745   4.619  2.2279 -1.1199  0.4208
 8267SOL    HW332841   3.394   4.866   4.540 -1.8235  0.9771  0.9989
 8267SOL    MW432842   3.372   4.781   4.543 -0.1989 -0.0213  0.3586
 8268SOL     OW32843   6.409   1.287   3.680  0.2390 -0.3200 -0.1665
 8268SOL    HW232844   6.380   1.226   3.748 -0.2472 -0.0874 -0.1589
 8268SOL    HW332845   6.488   1.328   3.716  0.7842 -1.2104 -0.3260
 8268SOL    MW432846   6.416   1.284   3.694  0.2357  0.2062  0.0679
 8269SOL     OW32847   2.162   5.067   1.639 -0.1222 -0.2339  0.6066
 8269SOL    HW232848   2.156   5.154   1.677  1.0898  0.6671 -1.1282
 8269SOL    HW332849   2.244   5.031   1.672 -0.7553 -0.8571  1.5427
 8269SOL    MW432850   2.172   5.073   1.648 -0.2566 -0.1332 -0.1133
 8270SOL     OW32851   3.138   5.592   4.318 -0.4288  0.1110 -0.2490
 8270SOL    HW232852   3.207   5.612   4.255 -0.4440  0.2215 -0.2314
 8270SOL    HW332853   3.081   5.530   4.272 -0.8194  0.7125 -0.6028
 8270SOL    MW432854   3.139   5.587   4.304  0.6339  0.3930 -0.1226
 8271SOL     OW32855   1.262   1.599   5.112  0.4514 -0.7935  0.1708
 8271SOL    HW232856   1.248   1.586   5.206 -0.5296 -0.4389  0.0751
 8271SOL    HW332857   1.182   1.567   5.071  0.3692  0.1944 -0.4672
 8271SOL    MW432858   1.250   1.593   5.119  0.3513  0.3319 -0.0474
 8272SOL     OW32859   6.058   4.079   0.713  0.1608  0.0386 -1.0772
 8272SOL    HW232860   6.013   3.995   0.703  1.3289 -0.6411 -0.9593
 8272SOL    HW332861   5.993   4.138   0.749 -0.0942 -1.4738  1.1707
 8272SOL    MW432862   6.044   4.075   0.716  0.5414  0.7558 -0.2455
 8273SOL     OW32863   5.691   1.687   4.076 -0.3847 -0.2554 -0.0736
 8273SOL    HW232864   5.650   1.739   4.145  1.9584  0.7235  0.6594
 8273SOL    HW332865   5.693   1.745   4.000 -1.1049 -0.6153 -0.3788
 8273SOL    MW432866   5.686   1.701   4.075  0.9596 -0.5877 -0.6654
 8274SOL     OW32867   5.813   2.786   5.474 -0.4879  0.2184  0.2197
 8274SOL    HW232868   5.871   2.805   5.548  0.5177  0.0886 -0.5110
 8274SOL    HW332869   5.840   2.849   5.407 -1.5778  0.5203  0.0523
 8274SOL    MW432870   5.824   2.797   5.475 -0.2007  0.2666 -0.4987
 8275SOL     OW32871   5.051   4.440   5.248 -0.1382  0.0240  0.2935
 8275SOL    HW232872   4.988   4.403   5.186 -1.2289  1.0336  0.7648
 8275SOL    HW332873   5.076   4.365   5.303 -1.4279 -0.2841  0.5012
 8275SOL    MW432874   5.046   4.425   5.247 -0.1310  0.2716  0.0601
 8276SOL     OW32875   6.122   5.495   5.203 -0.7133 -0.0245 -0.5225
 8276SOL    HW232876   6.028   5.484   5.190 -0.3820 -1.0338 -2.4933
 8276SOL    HW332877   6.161   5.428   5.147  1.1664 -0.5377  1.3109
 8276SOL    MW432878   6.115   5.485   5.194  0.4684  0.5491  0.5273
 8277SOL     OW32879   3.767   0.621   2.160 -0.2138 -0.6604  0.3690
 8277SOL    HW232880   3.823   0.658   2.092 -1.0705 -1.2421 -0.6713
 8277SOL    HW332881   3.795   0.666   2.240 -0.1946  1.1315 -0.5839
 8277SOL    MW432882   3.778   0.632   2.162 -1.0136 -0.1184  0.1998
 8278SOL     OW32883   3.449   2.949   6.089 -0.1197 -0.6894  0.5176
 8278SOL    HW232884   3.359   2.940   6.120 -0.5038  0.2490 -0.2597
 8278SOL    HW332885   3.455   2.888   6.015 -1.5050  2.1485 -2.2056
 8278SOL    MW432886   3.438   2.940   6.083 -1.0537 -0.4412  0.0917
 8279SOL     OW32887   3.617   3.973   6.208 -0.5048 -0.0166  0.5801
 8279SOL    HW232888   3.707   3.945   6.227 -0.3296  1.2998  1.8599
 8279SOL    HW332889   3.608   3.961   6.114  1.9481  2.2790 -0.0691
 8279SOL    MW432890   3.628   3.967   6.198  0.0402 -0.0936 -0.5578
 8280SOL     OW32891   5.490   0.252   2.409 -0.0510  0.2934 -0.4171
 8280SOL    HW232892   5.577   0.214   2.420 -0.3419  0.2911  2.5484
 8280SOL    HW332893   5.482   0.315   2.481 -2.6203  0.0704 -0.4305
 8280SOL    MW432894   5.501   0.255   2.420 -0.1793 -0.0779  0.1158
 8281SOL     OW32895   6.183   4.275   3.931  0.5362 -0.1404 -0.4548
 8281SOL    HW232896   6.143   4.215   3.994  1.0697  0.2926  0.3222
 8281SOL    HW332897   6.112   4.298   3.871 -0.0188 -0.4568  0.0692
 8281SOL    MW432898   6.169   4.270   3.931  0.4390  0.0377  0.2055
 8282SOL     OW32899   3.007   0.217   3.078  0.5278  0.2079  0.3507
 8282SOL    HW232900   3.008   0.123   3.096  1.8728 -0.1335 -1.2884
 8282SOL    HW332901   2.976   0.257   3.159  0.1677 -1.6285  1.1539
 8282SOL    MW432902   3.003   0.210   3.091  1.0439  0.0354 -0.4977
 8283SOL     OW32903   4.085   5.375   0.907  0.4189 -0.0519  0.1873
 8283SOL    HW232904   4.170   5.411   0.882 -1.0803  1.7350 -2.9252
 8283SOL    HW332905   4.079   5.293   0.859  0.1703  0.0910 -0.0255
 8283SOL    MW432906   4.095   5.369   0.897  0.2372 -0.3496 -0.0091
 8284SOL     OW32907   4.879   0.269   3.769  0.3347  0.5910 -0.3315
 8284SOL    HW232908   4.869   0.311   3.854 -0.8430  0.9861 -0.6373
 8284SOL    HW332909   4.930   0.331   3.717  0.2944  0.7508 -0.1805
 8284SOL    MW432910   4.884   0.283   3.773 -0.0949  0.2244 -0.2217
 8285SOL     OW32911   1.045   2.538   5.900  0.1629 -0.7989 -0.4084
 8285SOL    HW232912   1.077   2.566   5.814 -2.6871  1.4249 -0.9172
 8285SOL    HW332913   0.953   2.565   5.901 -0.1055 -1.3573  3.1321
 8285SOL    MW432914   1.037   2.545   5.889  0.4789  0.5565 -0.3045
 8286SOL     OW32915   2.052   2.993   2.251  0.6304 -0.5306  0.1830
 8286SOL    HW232916   2.131   3.039   2.224  0.7099  0.6793  2.3381
 8286SOL    HW332917   1.983   3.030   2.196  1.2236 -0.2034 -0.3598
 8286SOL    MW432918   2.053   3.004   2.240 -0.4005 -0.0181  0.1216
 8287SOL     OW32919   4.952   3.089   6.109  0.4219 -0.8029  0.2169
 8287SOL    HW232920   5.037   3.131   6.098  0.8498 -0.8917  2.6173
 8287SOL    HW332921   4.968   2.997   6.091  0.4308 -0.5793 -0.9760
 8287SOL    MW432922   4.965   3.083   6.105  0.1803  0.0040  0.0024
 8288SOL     OW32923   2.485   0.844   0.485 -0.0088 -0.0800 -0.2106
 8288SOL    HW232924   2.480   0.824   0.391  1.1337  0.9670 -0.5182
 8288SOL    HW332925   2.423   0.916   0.497 -0.1932 -0.2484 -0.1429
 8288SOL    MW432926   2.476   0.851   0.474 -0.3535  0.7394 -0.2861
 8289SOL     OW32927   6.168   1.579   1.104 -0.2349  0.4643 -1.1350
 8289SOL    HW232928   6.262   1.586   1.092 -0.1335 -1.0655 -1.5080
 8289SOL    HW332929   6.132   1.590   1.015 -0.2706 -0.4831 -1.2520
 8289SOL    MW432930   6.176   1.581   1.090 -0.1470 -0.0829 -0.2287
 8290SOL     OW32931   4.772   0.682   0.459  0.7671 -0.0699  0.4292
 8290SOL    HW232932   4.773   0.713   0.550  0.0884 -0.7434  0.6719
 8290SOL    HW332933   4.685   0.644   0.447  1.4902 -1.7457  0.1137
 8290SOL    MW432934   4.761   0.681   0.470 -0.5843  0.1861  0.2381
 8291SOL     OW32935   6.074   2.950   3.281  0.0907 -0.1081 -0.1107
 8291SOL    HW232936   6.056   2.868   3.235 -3.5457 -0.7785  2.1925
 8291SOL    HW332937   6.110   2.924   3.365 -0.7612  0.6621  0.5125
 8291SOL    MW432938   6.077   2.936   3.286  0.4506 -0.1331  0.0641
 8292SOL     OW32939   5.963   0.996   0.525 -0.2762 -0.0458  0.2711
 8292SOL    HW232940   5.964   0.975   0.431 -0.0876  0.4907  0.1487
 8292SOL    HW332941   5.977   1.091   0.528 -0.5808 -0.0162  0.8302
 8292SOL    MW432942   5.965   1.006   0.513  0.2632 -0.3110  0.8663
 8293SOL     OW32943   4.120   0.539   4.660  0.0239  0.0758  0.0450
 8293SOL    HW232944   4.090   0.629   4.664  5.0285  2.0378  2.9806
 8293SOL    HW332945   4.170   0.533   4.579 -0.4635 -0.1956 -0.2446
 8293SOL    MW432946   4.123   0.550   4.650  0.1247 -0.0679  0.0443
 8294SOL     OW32947   1.548   0.455   5.918  0.0480  0.1121 -0.0355
 8294SOL    HW232948   1.585   0.515   5.852  0.9742  0.3409  0.6781
 8294SOL    HW332949   1.558   0.368   5.879  1.1401  0.1901  0.0350
 8294SOL    MW432950   1.554   0.451   5.904  0.1135 -0.4455  0.1682
 8295SOL     OW32951   1.806   3.092   1.808  0.0233 -0.0088 -0.1009
 8295SOL    HW232952   1.829   3.184   1.798 -1.6537  0.4708 -0.0061
 8295SOL    HW332953   1.720   3.085   1.766  1.2397 -2.1337 -2.4553
 8295SOL    MW432954   1.797   3.103   1.801  0.5174 -0.2204  0.3397
 8296SOL     OW32955   1.520   1.291   0.749  0.4964 -0.0297  0.5657
 8296SOL    HW232956   1.576   1.239   0.692 -0.0431 -1.3297  1.1782
 8296SOL    HW332957   1.469   1.226   0.799 -1.1706  1.0888  0.4086
 8296SOL    MW432958   1.520   1.276   0.748 -0.2616 -0.2112 -0.0719
 8297SOL     OW32959   0.958   3.317   5.980  0.6704 -0.2636 -0.7808
 8297SOL    HW232960   0.972   3.410   5.997 -0.7733 -0.4597  2.1506
 8297SOL    HW332961   0.913   3.313   5.896 -0.8137  1.8508 -0.1457
 8297SOL    MW432962   0.954   3.328   5.971  0.3910 -0.0634  0.5485
 8298SOL     OW32963   3.051   0.209   5.768  0.1198 -0.2808  0.5665
 8298SOL    HW232964   3.119   0.275   5.754  0.1277 -0.3245  0.4013
 8298SOL    HW332965   3.058   0.188   5.861  1.1996 -1.2296  0.2874
 8298SOL    MW432966   3.061   0.215   5.778 -0.0770  0.0086  0.2144
 8299SOL     OW32967   3.948   1.456   3.271  0.1723  0.4448  0.4319
 8299SOL    HW232968   3.928   1.439   3.363 -2.9048  2.1200  0.2326
 8299SOL    HW332969   3.925   1.375   3.226 -1.4870  0.6562  0.8405
 8299SOL    MW432970   3.942   1.443   3.278 -0.5043  0.0365  0.0108
 8300SOL     OW32971   4.674   6.397   5.378 -0.7470  0.1977 -0.5715
 8300SOL    HW232972   4.657   6.334   5.448 -0.9684  1.0991  0.1949
 8300SOL    HW332973   4.726   6.348   5.314  1.0074 -0.1423  1.0540
 8300SOL    MW432974   4.678   6.382   5.379 -0.4141  0.1890 -0.2996
 8301SOL     OW32975   2.763   0.308   3.818  0.0931  0.0453  0.0150
 8301SOL    HW232976   2.820   0.233   3.836  0.6841  0.3525 -0.5458
 8301SOL    HW332977   2.751   0.307   3.723 -0.9550 -0.0958  0.1392
 8301SOL    MW432978   2.769   0.298   3.807  0.1354  0.0046  0.5539
 8302SOL     OW32979   2.438   3.053   3.038 -0.4021 -0.2943  0.0968
 8302SOL    HW232980   2.350   3.084   3.059 -0.7008  0.0819 -1.5457
 8302SOL    HW332981   2.440   2.963   3.071 -2.1766 -1.0538 -1.6737
 8302SOL    MW432982   2.427   3.045   3.045 -0.1070  0.4515  0.0426
 8303SOL     OW32983   6.332   2.429   6.118 -0.6020  0.7141  0.1276
 8303SOL    HW232984   6.240   2.455   6.114 -0.9550 -0.5566 -0.7791
 8303SOL    HW332985   6.365   2.443   6.030 -0.3239 -0.1838  0.0787
 8303SOL    MW432986   6.324   2.434   6.106  0.7933 -0.5062 -0.2941
 8304SOL     OW32987   1.286   5.737   4.806 -0.2217  0.1407  0.0532
 8304SOL    HW232988   1.215   5.703   4.861  1.0064  0.7755  2.1453
 8304SOL    HW332989   1.245   5.805   4.753 -0.9692  1.5304  2.2560
 8304SOL    MW432990   1.271   5.741   4.807 -0.0118  0.1105 -0.3191
 8305SOL     OW32991   4.851   5.546   1.096 -0.0455  0.1258  0.8231
 8305SOL    HW232992   4.912   5.567   1.167 -0.8943  1.6009  1.1659
 8305SOL    HW332993   4.903   5.496   1.033  1.4215  1.0652  1.2370
 8305SOL    MW432994   4.866   5.542   1.097  0.1066 -0.2902 -0.6601
 8306SOL     OW32995   3.302   2.937   2.914 -0.0967  0.1405 -0.0427
 8306SOL    HW232996   3.301   2.869   2.981 -2.4900 -0.0024 -0.1220
 8306SOL    HW332997   3.218   2.926   2.868  1.5385  0.0063 -3.2891
 8306SOL    MW432998   3.291   2.926   2.917  0.1024  0.0340 -0.4006
 8307SOL     OW32999   4.853   4.194   5.960  0.5130  0.4706 -0.0142
 8307SOL    HW233000   4.934   4.194   5.909  2.1558  3.9516  2.1723
 8307SOL    HW333001   4.816   4.281   5.946 -1.3611 -0.0606  1.2313
 8307SOL    MW433002   4.859   4.206   5.952  0.6203  0.5429  0.1553
 8308SOL     OW33003   4.559   2.676   0.236 -0.4659 -0.1151 -0.3938
 8308SOL    HW233004   4.511   2.654   0.156  1.0353  2.1303 -2.0493
 8308SOL    HW333005   4.651   2.664   0.213  0.0267  1.0288  0.8318
 8308SOL    MW433006   4.565   2.672   0.222  0.6939 -0.4013  0.1579
 8309SOL     OW33007   3.899   5.897   3.493  0.6723 -0.2184  0.0592
 8309SOL    HW233008   3.947   5.822   3.459 -0.6601 -2.6285  2.9550
 8309SOL    HW333009   3.825   5.858   3.541 -0.5482  3.0043  1.0656
 8309SOL    MW433010   3.895   5.882   3.495  0.0268  0.4711 -0.7442
 8310SOL     OW33011   3.954   1.596   5.438 -0.0480 -0.0783  0.0267
 8310SOL    HW233012   3.931   1.641   5.356 -1.3102 -0.8855 -0.0806
 8310SOL    HW333013   3.900   1.517   5.438  0.7255 -0.6265  1.1415
 8310SOL    MW433014   3.944   1.592   5.427 -0.2258 -0.2940 -0.1759
 8311SOL     OW33015   2.894   4.538   0.303 -0.2561  0.3415  0.2419
 8311SOL    HW233016   2.873   4.522   0.211 -0.7435  0.2423  0.3650
 8311SOL    HW333017   2.960   4.608   0.301 -1.3228  1.3757 -0.1462
 8311SOL    MW433018   2.900   4.545   0.291 -0.0619  0.4322 -0.2708
 8312SOL     OW33019   2.876   1.249   5.342  0.2877  0.2160  0.5377
 8312SOL    HW233020   2.811   1.222   5.407 -0.0247 -0.6213 -0.1166
 8312SOL    HW333021   2.955   1.202   5.368 -0.3139 -1.5692 -0.7311
 8312SOL    MW433022   2.878   1.239   5.354  0.3085 -0.0022  0.2415
 8313SOL     OW33023   3.667   1.797   0.597 -0.4883 -0.3508 -0.1821
 8313SOL    HW233024   3.656   1.854   0.674 -0.3980  0.2784 -0.6268
 8313SOL    HW333025   3.762   1.792   0.585 -0.5151  0.8467 -1.1746
 8313SOL    MW433026   3.678   1.804   0.606 -0.3579  0.1930  0.3929
 8314SOL     OW33027   2.434   4.458   3.424 -0.2464  0.3442  0.5270
 8314SOL    HW233028   2.454   4.366   3.442 -1.1605  0.0728  0.2253
 8314SOL    HW333029   2.517   4.503   3.436 -0.2335 -0.1982  2.8265
 8314SOL    MW433030   2.447   4.451   3.428 -0.2153 -0.0216 -0.5719
 8315SOL     OW33031   1.954   3.396   3.619  0.0337 -0.2179 -0.5512
 8315SOL    HW233032   1.920   3.306   3.625 -0.0034 -0.1879 -0.3123
 8315SOL    HW333033   1.877   3.452   3.624  0.1148 -0.1484  0.0512
 8315SOL    MW433034   1.939   3.391   3.621 -0.1510  0.5348 -0.2070
 8316SOL     OW33035   4.403   5.113   0.859  0.0606 -0.2622  0.0372
 8316SOL    HW233036   4.416   5.141   0.950 -1.1265 -0.3062  0.2332
 8316SOL    HW333037   4.314   5.139   0.838 -0.2988 -1.8394 -0.5290
 8316SOL    MW433038   4.393   5.120   0.869  0.5356  0.7123  0.4418
 8317SOL     OW33039   0.836   2.810   3.275  0.3042  0.3575  0.0076
 8317SOL    HW233040   0.796   2.741   3.329 -0.0023 -0.2454 -0.9645
 8317SOL    HW333041   0.799   2.891   3.308 -0.4346 -0.0647  0.2255
 8317SOL    MW433042   0.826   2.811   3.287  0.4751  0.0615  0.2147
 8318SOL     OW33043   2.347   3.940   4.604 -0.0675 -0.6123 -0.3550
 8318SOL    HW233044   2.407   3.867   4.615 -0.3901 -0.9583 -0.8562
 8318SOL    HW333045   2.272   3.903   4.557 -0.1194  0.0945 -0.8480
 8318SOL    MW433046   2.345   3.926   4.599 -0.2323  0.1712  0.0721
 8319SOL     OW33047   0.545   2.053   5.939  0.4034  0.2251 -0.1833
 8319SOL    HW233048   0.508   2.029   5.854 -1.7942 -0.4266  0.9030
 8319SOL    HW333049   0.634   2.017   5.936 -0.0192 -0.8356 -1.7646
 8319SOL    MW433050   0.552   2.045   5.927  0.5193  0.3646 -0.1889
 8320SOL     OW33051   5.839   0.126   5.287 -0.2524  0.3671 -0.4417
 8320SOL    HW233052   5.927   0.133   5.251 -0.3236 -1.5401 -1.0569
 8320SOL    HW333053   5.842   0.181   5.366  1.5909  0.0864 -0.2576
 8320SOL    MW433054   5.851   0.134   5.293  0.0532  0.4589  0.1317
 8321SOL     OW33055   4.999   5.233   4.806 -0.1810  0.2252  0.2821
 8321SOL    HW233056   4.994   5.328   4.819 -2.8063  0.4844 -1.8637
 8321SOL    HW333057   4.977   5.196   4.892 -2.0564  1.6181  0.4451
 8321SOL    MW433058   4.996   5.241   4.819  0.0272  0.7465  0.3323
 8322SOL     OW33059   1.314   4.304   3.067  0.1478  0.1277  0.0146
 8322SOL    HW233060   1.255   4.380   3.073 -0.2284 -0.0867 -0.7929
 8322SOL    HW333061   1.401   4.339   3.087 -0.3718  0.2354  2.3463
 8322SOL    MW433062   1.318   4.319   3.070  0.5438 -0.5889  0.2281
 8323SOL     OW33063   0.679   3.777   3.382 -0.7526 -0.0059  0.1711
 8323SOL    HW233064   0.672   3.802   3.474  1.4031 -0.6225  0.5598
 8323SOL    HW333065   0.768   3.800   3.358 -0.9928 -0.7061 -1.5113
 8323SOL    MW433066   0.690   3.783   3.391 -0.7417  0.2949 -0.2059
 8324SOL     OW33067   3.027   4.289   1.630  0.2046  0.3622  0.1651
 8324SOL    HW233068   2.980   4.206   1.627  0.4151  0.2522 -0.1975
 8324SOL    HW333069   2.974   4.345   1.687 -0.5594  0.3663 -0.5407
 8324SOL    MW433070   3.014   4.285   1.637  0.7500 -0.1704 -0.3594
 8325SOL     OW33071   1.442   5.346   3.074 -0.4799  0.3415  0.0481
 8325SOL    HW233072   1.522   5.397   3.079  0.4069 -1.0364  0.5411
 8325SOL    HW333073   1.427   5.333   2.981  0.2635  0.0349 -0.0347
 8325SOL    MW433074   1.450   5.351   3.063 -0.6815  0.2026 -1.0105
 8326SOL     OW33075   4.108   3.786   0.097 -0.4587 -0.5076 -0.0795
 8326SOL    HW233076   4.017   3.760   0.087 -0.5852  0.7832 -3.8462
 8326SOL    HW333077   4.105   3.881   0.111  0.3016 -0.6239  0.9906
 8326SOL    MW433078   4.096   3.795   0.098 -0.2273 -0.4946  0.7388
 8327SOL     OW33079   0.881   1.954   3.194  0.0070 -0.0114 -0.0428
 8327SOL    HW233080   0.858   1.978   3.284  0.8581  0.4892  0.0509
 8327SOL    HW333081   0.892   1.859   3.197  0.3028  0.0308  0.4516
 8327SOL    MW433082   0.879   1.945   3.207 -0.4835 -0.2221  0.1692
 8328SOL     OW33083   3.276   1.644   0.309  0.1989  0.7960  0.5412
 8328SOL    HW233084   3.297   1.562   0.353 -0.9791  0.2595  0.1461
 8328SOL    HW333085   3.353   1.699   0.322  0.4332  0.1528  2.0493
 8328SOL    MW433086   3.289   1.641   0.316  0.0383 -0.1235 -0.1030
 8329SOL     OW33087   5.237   6.222   1.840 -0.5147  0.8344 -0.4553
 8329SOL    HW233088   5.299   6.265   1.780  0.2321  0.3978 -0.0091
 8329SOL    HW333089   5.249   6.129   1.824  0.9265  0.6188  1.5255
 8329SOL    MW433090   5.247   6.216   1.830  0.8064 -0.0544 -0.0655
 8330SOL     OW33091   1.580   2.028   1.951 -0.1537  0.3324 -0.2662
 8330SOL    HW233092   1.574   2.084   2.028  0.4405 -0.7802  0.6179
 8330SOL    HW333093   1.493   1.988   1.943 -0.1955  0.3996 -0.1336
 8330SOL    MW433094   1.568   2.030   1.960  0.8438 -0.1337  0.2109
 8331SOL     OW33095   3.715   6.147   4.392 -0.5255 -0.0596  0.0913
 8331SOL    HW233096   3.797   6.172   4.435  0.7832 -0.1560 -2.1934
 8331SOL    HW333097   3.736   6.066   4.346 -2.5069 -1.1751  1.0307
 8331SOL    MW433098   3.728   6.139   4.391 -0.1157  0.9505 -0.0909
 8332SOL     OW33099   0.190   5.464   1.375 -0.0983 -0.3324 -0.5113
 8332SOL    HW233100   0.234   5.514   1.306  0.7556  0.7135  0.7227
 8332SOL    HW333101   0.261   5.419   1.421 -0.7503 -1.7783 -0.8684
 8332SOL    MW433102   0.206   5.465   1.372  0.3535 -0.4344  0.3150
 8333SOL     OW33103   4.947   4.506   1.736  0.4755 -0.0908  0.3909
 8333SOL    HW233104   4.963   4.592   1.776  0.5975  0.4130 -0.7007
 8333SOL    HW333105   4.915   4.452   1.808  0.8798  0.7281  1.2069
 8333SOL    MW433106   4.945   4.511   1.751 -0.7975 -0.1519 -0.0006
 8334SOL     OW33107   0.080   1.688   0.319  0.1696 -0.2326  0.0483
 8334SOL    HW233108   0.131   1.661   0.396 -0.3866  0.0460  0.5185
 8334SOL    HW333109   0.143   1.686   0.247  0.5012 -1.3404  0.3436
 8334SOL    MW433110   0.095   1.684   0.320 -0.0799  0.3594  0.4792
 8335SOL     OW33111   0.656   5.710   2.018 -0.3908 -1.2053 -0.2614
 8335SOL    HW233112   0.733   5.756   1.986 -1.0902  0.6383  0.5917
 8335SOL    HW333113   0.671   5.619   1.993  2.3173 -1.0280  0.3608
 8335SOL    MW433114   0.668   5.704   2.011 -0.3451  0.0048  0.3750
 8336SOL     OW33115   4.639   5.575   6.020  0.0339 -0.1226 -0.4450
 8336SOL    HW233116   4.544   5.572   6.020  0.0424 -1.7416  0.5869
 8336SOL    HW333117   4.665   5.502   5.964  0.6436 -0.5564  0.3717
 8336SOL    MW433118   4.630   5.565   6.013 -0.1934 -0.5149  0.2800
 8337SOL     OW33119   0.286   3.045   1.201  0.7907  0.7907 -0.2706
 8337SOL    HW233120   0.199   3.009   1.218  0.7216  0.9837 -0.2177
 8337SOL    HW333121   0.275   3.097   1.122  0.9568  0.4565 -0.5149
 8337SOL    MW433122   0.273   3.047   1.193 -0.6572  0.0167 -0.2142
 8338SOL     OW33123   1.382   5.960   5.760 -0.0100 -0.2782  0.0431
 8338SOL    HW233124   1.460   5.936   5.811  0.3787 -1.9427 -1.2441
 8338SOL    HW333125   1.407   6.040   5.713  0.8706 -0.6963 -0.2195
 8338SOL    MW433126   1.395   5.967   5.761 -0.0146 -0.2499 -0.4774
 8339SOL     OW33127   2.708   5.846   3.346  0.0580 -0.0122 -0.0139
 8339SOL    HW233128   2.748   5.761   3.366  0.6017  0.2384 -0.0058
 8339SOL    HW333129   2.673   5.877   3.429  0.4335  0.0651  0.1167
 8339SOL    MW433130   2.709   5.839   3.359  0.3285 -0.2321  0.0912
 8340SOL     OW33131   6.378   5.027   5.005  0.2916 -0.4554 -0.1528
 8340SOL    HW233132   6.344   5.108   5.044  1.3337  0.4389 -1.0175
 8340SOL    HW333133   6.431   5.057   4.931  1.0329 -1.9174 -0.2483
 8340SOL    MW433134   6.380   5.042   5.001 -0.1358 -0.2573  0.2859
 8341SOL     OW33135   2.617   3.567   4.876  0.4681 -0.3202 -0.3131
 8341SOL    HW233136   2.553   3.575   4.946  1.6527 -1.1991  0.9289
 8341SOL    HW333137   2.698   3.602   4.913  0.9542 -0.1412 -1.4912
 8341SOL    MW433138   2.620   3.572   4.890 -0.0432 -0.0707 -0.4915
 8342SOL     OW33139   2.494   2.758   3.645 -0.0215 -0.3375 -0.7144
 8342SOL    HW233140   2.453   2.779   3.561  0.0476 -1.2229 -0.9761
 8342SOL    HW333141   2.554   2.831   3.661 -1.1009  0.5760 -0.7140
 8342SOL    MW433142   2.496   2.771   3.636 -0.1104  0.9415 -0.4538
 8343SOL     OW33143   2.370   3.458   2.286 -0.0683  0.2738  0.1031
 8343SOL    HW233144   2.301   3.520   2.309  0.5930  0.7285  0.8962
 8343SOL    HW333145   2.430   3.460   2.360 -0.2950 -1.7209  0.4049
 8343SOL    MW433146   2.368   3.466   2.299  0.2413 -0.1990 -0.5359
 8344SOL     OW33147   5.881   1.230   3.115 -0.2765  0.0249 -0.0705
 8344SOL    HW233148   5.954   1.287   3.140 -2.0404  1.5535  2.0253
 8344SOL    HW333149   5.912   1.185   3.036  2.7810  0.7883  0.5393
 8344SOL    MW433150   5.895   1.232   3.108  0.0305  0.5530  0.0613
 8345SOL     OW33151   5.981   4.024   3.428  0.1697  0.5532  0.6925
 8345SOL    HW233152   6.034   3.974   3.365 -0.1380  0.5390  0.4416
 8345SOL    HW333153   5.903   4.049   3.378 -0.1951  0.3230  1.1412
 8345SOL    MW433154   5.978   4.020   3.413 -0.2598 -0.4704 -0.4372
 8346SOL     OW33155   0.209   2.092   5.629  0.1704 -0.2705 -0.1645
 8346SOL    HW233156   0.156   2.170   5.621 -0.6246 -0.5202  2.0663
 8346SOL    HW333157   0.169   2.029   5.569  0.4076  0.7759 -1.4565
 8346SOL    MW433158   0.197   2.094   5.620 -0.5578  0.2489  0.0908
 8347SOL     OW33159   4.779   4.697   2.007  0.3066  0.1240  0.6394
 8347SOL    HW233160   4.808   4.606   2.015 -0.5352 -0.1551  0.6874
 8347SOL    HW333161   4.853   4.749   2.037  0.4483 -0.5873  1.5691
 8347SOL    MW433162   4.792   4.692   2.012  0.0559 -0.2328 -0.2041
 8348SOL     OW33163   6.328   4.286   1.192 -0.3724  0.4365 -0.4988
 8348SOL    HW233164   6.240   4.250   1.205 -0.5498  1.1495  0.4240
 8348SOL    HW333165   6.382   4.242   1.257 -0.2972  0.8284 -0.2945
 8348SOL    MW433166   6.324   4.276   1.202  0.2493  0.3346 -0.0507
 8349SOL     OW33167   6.129   1.506   0.588  0.2450 -0.0117  0.5904
 8349SOL    HW233168   6.214   1.484   0.551  0.1792  0.6045  0.0513
 8349SOL    HW333169   6.082   1.550   0.517  0.5603  2.2970  1.7236
 8349SOL    MW433170   6.134   1.509   0.574 -0.1816  0.8936  0.5501
 8350SOL     OW33171   0.253   1.525   3.222 -0.1119 -0.1777  0.5006
 8350SOL    HW233172   0.166   1.486   3.228  0.0434 -0.4837  0.8619
 8350SOL    HW333173   0.306   1.472   3.281  0.6903 -0.9826 -0.8884
 8350SOL    MW433174   0.248   1.513   3.231  0.6466 -0.2778  0.1946
 8351SOL     OW33175   3.518   0.884   2.941 -0.0928 -0.6909  0.2849
 8351SOL    HW233176   3.475   0.884   2.856 -2.0440 -0.6467  1.2202
 8351SOL    HW333177   3.457   0.930   2.999  0.6555 -1.7132  1.9574
 8351SOL    MW433178   3.504   0.890   2.938 -0.9500 -0.3880  0.4935
 8352SOL     OW33179   3.795   2.353   4.976  0.4696 -0.0053 -0.1086
 8352SOL    HW233180   3.878   2.353   4.927  0.0863 -0.0034 -0.7675
 8352SOL    HW333181   3.821   2.339   5.067  1.1339 -0.7845 -0.4066
 8352SOL    MW433182   3.810   2.351   4.981 -0.3860 -0.1326 -0.4922
 8353SOL     OW33183   1.548   2.833   2.041 -0.5424 -0.1144  0.0992
 8353SOL    HW233184   1.536   2.921   2.007 -1.1993 -0.8196 -1.5991
 8353SOL    HW333185   1.625   2.839   2.098 -0.6511  1.5536  0.1045
 8353SOL    MW433186   1.556   2.845   2.044  0.1904  0.1146 -0.4152
 8354SOL     OW33187   5.714   2.411   4.774  0.0504 -0.7825  0.3033
 8354SOL    HW233188   5.752   2.403   4.862 -0.4181 -1.3131  0.4614
 8354SOL    HW333189   5.775   2.363   4.717  0.6952  0.1023  0.2260
 8354SOL    MW433190   5.727   2.403   4.778  0.2959 -0.0760 -0.3749
 8355SOL     OW33191   0.887   3.994   1.666 -0.3131 -0.0466  0.0425
 8355SOL    HW233192   0.873   4.011   1.573 -1.2966 -1.1542 -0.0446
 8355SOL    HW333193   0.907   3.900   1.670 -0.5440 -0.0664  0.9707
 8355SOL    MW433194   0.888   3.984   1.655 -0.3247 -0.5813  0.1464
 8356SOL     OW33195   1.182   6.036   1.021  0.5060  0.4970 -0.6625
 8356SOL    HW233196   1.256   5.987   1.057 -0.5828  0.3133  1.4699
 8356SOL    HW333197   1.178   6.115   1.074 -1.6340 -0.1454  0.2181
 8356SOL    MW433198   1.192   6.040   1.033  0.3137 -0.3777 -0.4132
 8357SOL     OW33199   3.932   2.097   5.642  0.8209 -0.3870  0.4384
 8357SOL    HW233200   4.019   2.112   5.679  0.9928 -0.2309 -0.0327
 8357SOL    HW333201   3.918   2.002   5.650  1.3413 -0.5171 -0.1776
 8357SOL    MW433202   3.942   2.086   5.648  0.1589  0.8429  0.2780
 8358SOL     OW33203   3.129   3.730   5.806  0.3891  0.5606 -0.4592
 8358SOL    HW233204   3.207   3.785   5.807  0.2463  0.7706 -0.4774
 8358SOL    HW333205   3.120   3.698   5.896 -0.8078  2.4387  0.1505
 8358SOL    MW433206   3.138   3.733   5.818  0.0694 -0.0854 -0.1044
 8359SOL     OW33207   5.379   1.121   5.064 -0.2709  0.4453  0.4153
 8359SOL    HW233208   5.289   1.087   5.060  0.0679 -0.5199  0.6286
 8359SOL    HW333209   5.403   1.113   5.156  0.3834 -0.2545  0.1935
 8359SOL    MW433210   5.370   1.115   5.076 -0.5642  0.0778 -0.0383
 8360SOL     OW33211   0.369   1.124   1.552 -0.5968 -0.2453 -0.3991
 8360SOL    HW233212   0.327   1.196   1.505  0.0077 -0.1537 -0.8025
 8360SOL    HW333213   0.463   1.140   1.544 -0.4729 -0.2177  0.8669
 8360SOL    MW433214   0.376   1.135   1.545 -0.2423  0.0901  0.5000
 8361SOL     OW33215   1.706   5.376   0.959  0.2015 -0.3222  0.3275
 8361SOL    HW233216   1.707   5.440   1.030 -0.2633  0.6454 -0.5009
 8361SOL    HW333217   1.718   5.292   1.002 -0.9976  0.1419  1.6590
 8361SOL    MW433218   1.708   5.374   0.974 -0.3842  0.7723  0.5856
 8362SOL     OW33219   3.840   4.607   5.128 -0.2652  0.6702  0.0743
 8362SOL    HW233220   3.913   4.557   5.092 -0.2243  1.5560 -1.1340
 8362SOL    HW333221   3.787   4.631   5.052 -1.8906 -0.0400  0.9350
 8362SOL    MW433222   3.842   4.603   5.113 -0.2946  0.1053 -0.5836
 8363SOL     OW33223   1.611   4.156   3.754 -0.4065  0.1039  0.1909
 8363SOL    HW233224   1.576   4.073   3.723 -0.7728  0.3746 -0.1255
 8363SOL    HW333225   1.704   4.139   3.769 -0.5621 -0.4756  0.5330
 8363SOL    MW433226   1.619   4.143   3.752  0.5114  0.4377  0.3747
 8364SOL     OW33227   2.895   0.280   6.369 -0.1409 -0.0476  0.9358
 8364SOL    HW233228   2.856   0.316   6.290 -0.1550 -0.4389  0.7643
 8364SOL    HW333229   2.938   0.200   6.341  1.0600  0.5325  1.0514
 8364SOL    MW433230   2.896   0.274   6.355  0.2035  0.1857  0.2617
 8365SOL     OW33231   3.382   3.358   3.246  0.2849  0.0238  0.3236
 8365SOL    HW233232   3.439   3.312   3.308 -0.1624  0.1350  0.8319
 8365SOL    HW333233   3.335   3.289   3.200  1.4615 -0.1043 -0.7389
 8365SOL    MW433234   3.383   3.343   3.248 -0.3802  0.1858 -0.1814
 8366SOL     OW33235   3.176   3.403   2.978 -0.1700  0.0157  0.0624
 8366SOL    HW233236   3.251   3.437   2.930  0.9090 -0.2791  1.4485
 8366SOL    HW333237   3.159   3.468   3.046 -0.2721 -0.5919  0.6285
 8366SOL    MW433238   3.183   3.416   2.981 -0.2227 -0.5734 -0.3321
 8367SOL     OW33239   4.331   3.905   4.094  0.2504  0.1785 -0.3027
 8367SOL    HW233240   4.356   3.998   4.091  0.4539  0.1254 -0.2177
 8367SOL    HW333241   4.288   3.895   4.179  0.9460  0.0112  0.0373
 8367SOL    MW433242   4.328   3.916   4.105 -0.0389  0.0504 -0.6619
 8368SOL     OW33243   1.747   1.834   4.758  0.2374 -0.0526 -0.7174
 8368SOL    HW233244   1.736   1.755   4.811  0.0142  0.3440 -0.1718
 8368SOL    HW333245   1.801   1.892   4.812 -0.8499  0.7628 -0.4744
 8368SOL    MW433246   1.753   1.831   4.772 -0.1907 -0.5808 -0.0989
 8369SOL     OW33247   2.679   2.703   1.767  0.6355 -0.0449  0.0928
 8369SOL    HW233248   2.734   2.647   1.822 -0.3728  0.3236  1.5250
 8369SOL    HW333249   2.736   2.777   1.744  1.0199 -0.1034  0.8229
 8369SOL    MW433250   2.694   2.705   1.771  0.0811  0.2167 -0.2352
 8370SOL     OW33251   1.306   3.382   1.783  0.2721  0.1613  0.1458
 8370SOL    HW233252   1.297   3.384   1.879  0.8235 -0.4923  0.2220
 8370SOL    HW333253   1.256   3.457   1.753 -3.0768 -1.6720  0.6857
 8370SOL    MW433254   1.298   3.392   1.792  0.2189 -0.5994 -0.3121
 8371SOL     OW33255   4.943   0.166   2.575 -0.5837  0.2743 -0.1054
 8371SOL    HW233256   4.882   0.238   2.591 -0.7120  0.3503 -0.8727
 8371SOL    HW333257   5.028   0.199   2.605 -1.1134 -0.3028  2.1637
 8371SOL    MW433258   4.946   0.180   2.581 -0.3887  0.0188 -0.4586
 8372SOL     OW33259   5.184   4.947   4.075 -0.1347  0.2449  0.1718
 8372SOL    HW233260   5.266   4.923   4.031 -0.7471 -0.2028 -0.7560
 8372SOL    HW333261   5.153   5.024   4.028 -0.2774  0.3838  0.4898
 8372SOL    MW433262   5.191   4.954   4.063  0.3265  0.3862  0.6683
 8373SOL     OW33263   1.824   0.943   0.267 -0.4643 -0.5672  0.2523
 8373SOL    HW233264   1.753   0.911   0.323 -0.8236  1.4568  1.0216
 8373SOL    HW333265   1.783   1.011   0.213  0.3860 -0.9754 -0.9496
 8373SOL    MW433266   1.809   0.948   0.268 -0.1415 -0.0735 -0.0673
 8374SOL     OW33267   4.875   0.783   1.642  0.3327  0.2468 -0.4756
 8374SOL    HW233268   4.937   0.715   1.668  0.8813  1.1231  0.5934
 8374SOL    HW333269   4.812   0.737   1.585  0.9912 -1.0211 -0.2280
 8374SOL    MW433270   4.875   0.768   1.638 -0.9327  0.0887 -0.2981
 8375SOL     OW33271   1.436   2.348   0.363 -0.4344  0.0934  0.2457
 8375SOL    HW233272   1.495   2.423   0.360 -1.6582  1.0877  0.2532
 8375SOL    HW333273   1.441   2.317   0.454 -0.7085  0.8213  0.5132
 8375SOL    MW433274   1.444   2.354   0.375  0.4836  0.7350  0.2387
 8376SOL     OW33275   5.074   1.739   0.738 -0.5366  0.8429  0.3759
 8376SOL    HW233276   5.134   1.706   0.670 -0.6029  0.1606  0.6411
 8376SOL    HW333277   5.072   1.834   0.724  0.7640  0.9086  0.4835
 8376SOL    MW433278   5.082   1.747   0.727  0.3549  0.2999  0.1303
 8377SOL     OW33279   2.574   6.013   2.669 -0.3183 -0.5049 -0.5411
 8377SOL    HW233280   2.481   5.994   2.678 -0.5999  0.7117 -0.7006
 8377SOL    HW333281   2.617   5.928   2.677 -1.3072 -0.8714  1.3210
 8377SOL    MW433282   2.567   5.999   2.671  0.0155  0.1078  0.4410
 8378SOL     OW33283   0.893   3.270   5.699 -0.0473  0.1071  0.1584
 8378SOL    HW233284   0.850   3.202   5.647 -1.3862  1.8622 -1.1726
 8378SOL    HW333285   0.985   3.246   5.698 -0.4082 -1.3923 -0.7376
 8378SOL    MW433286   0.899   3.258   5.692 -0.1482 -0.0086 -0.8740
 8379SOL     OW33287   1.589   4.659   5.813 -0.1550  0.0283 -0.4037
 8379SOL    HW233288   1.646   4.735   5.824 -0.1512 -0.0604  0.2025
 8379SOL    HW333289   1.550   4.672   5.727 -0.4143  0.8978 -0.1704
 8379SOL    MW433290   1.591   4.671   5.803 -0.1354  0.0348  0.4579
 8380SOL     OW33291   5.153   1.724   5.801  0.1814  0.8755 -0.2228
 8380SOL    HW233292   5.185   1.669   5.729  1.2458  1.1515  0.0196
 8380SOL    HW333293   5.102   1.792   5.757  0.6534  0.9239 -0.7117
 8380SOL    MW433294   5.150   1.726   5.785 -0.0592 -0.2145  0.6590
 8381SOL     OW33295   0.779   0.263   3.714  0.1958 -0.5093 -0.0002
 8381SOL    HW233296   0.749   0.309   3.792 -1.8833  0.3850 -1.2283
 8381SOL    HW333297   0.702   0.261   3.657  1.8022 -0.5601 -2.2819
 8381SOL    MW433298   0.765   0.268   3.717  0.2144  0.2464  0.0988
 8382SOL     OW33299   2.163   3.531   4.873 -0.7194  0.0403  0.3000
 8382SOL    HW233300   2.210   3.514   4.792  0.9553 -0.4147  1.3081
 8382SOL    HW333301   2.074   3.500   4.857 -0.0244 -1.4940 -0.8568
 8382SOL    MW433302   2.158   3.524   4.860 -0.1672  0.2595  0.1394
 8383SOL     OW33303   0.966   3.848   5.677  0.2103  0.1306  0.3167
 8383SOL    HW233304   0.976   3.907   5.602 -1.4245  1.2276  0.9080
 8383SOL    HW333305   1.026   3.776   5.659  0.2976  0.6623 -1.7545
 8383SOL    MW433306   0.975   3.846   5.665 -0.8056  0.5991  0.3539
 8384SOL     OW33307   3.512   0.272   2.852 -0.5589  0.0902 -0.6880
 8384SOL    HW233308   3.458   0.318   2.916 -0.5478 -1.0257  0.1559
 8384SOL    HW333309   3.468   0.187   2.840  1.5820 -1.3467  0.9470
 8384SOL    MW433310   3.499   0.267   2.859 -0.1674  0.7315  0.3269
 8385SOL     OW33311   5.307   6.434   3.198 -0.0438  0.2181 -0.1770
 8385SOL    HW233312   5.221   6.433   3.156  0.1016 -1.0033 -0.5041
 8385SOL    HW333313   5.333   6.526   3.200 -1.3515  0.6035 -0.0739
 8385SOL    MW433314   5.299   6.446   3.193  0.0000  0.0632  0.2049
 8386SOL     OW33315   2.538   0.638   2.264  0.5415  0.4565  0.0406
 8386SOL    HW233316   2.588   0.646   2.345  1.9239 -0.3409 -0.6896
 8386SOL    HW333317   2.463   0.583   2.288  1.9146 -1.3610  0.4066
 8386SOL    MW433318   2.535   0.632   2.278  0.0216  0.7361 -0.1917
 8387SOL     OW33319   2.256   5.683   2.672  0.0490 -0.1928 -0.2225
 8387SOL    HW233320   2.162   5.678   2.654  0.2558 -0.5096 -1.2988
 8387SOL    HW333321   2.277   5.776   2.666  0.0381 -0.2511 -1.2986
 8387SOL    MW433322   2.246   5.694   2.669 -0.1267  0.7010 -0.0462
 8388SOL     OW33323   2.427   4.142   1.250 -0.2801  0.2896 -0.1120
 8388SOL    HW233324   2.481   4.104   1.319 -0.5080 -0.7597 -0.5024
 8388SOL    HW333325   2.489   4.192   1.197  1.1381 -3.5979 -2.5854
 8388SOL    MW433326   2.442   4.144   1.252  0.2731  0.0736  0.7861
 8389SOL     OW33327   0.308   5.011   2.489 -0.0757  0.2706  0.4151
 8389SOL    HW233328   0.326   5.087   2.545  1.9552  1.7651 -2.0310
 8389SOL    HW333329   0.323   4.935   2.546  0.0078  1.6809  2.3741
 8389SOL    MW433330   0.313   5.011   2.504 -1.2148  0.0848  0.4457
 8390SOL     OW33331   1.739   2.164   1.663 -0.1496 -0.7187 -0.1335
 8390SOL    HW233332   1.738   2.185   1.756 -0.5202 -1.3637  0.0192
 8390SOL    HW333333   1.665   2.104   1.651 -0.3255 -0.3621 -0.9115
 8390SOL    MW433334   1.729   2.159   1.674  0.5948 -1.0850 -0.3431
 8391SOL     OW33335   1.734   0.720   5.968  0.2540  0.4119 -0.2349
 8391SOL    HW233336   1.824   0.691   5.983  0.2566  0.6465  0.2359
 8391SOL    HW333337   1.681   0.660   6.022 -0.0091 -0.6506 -1.6040
 8391SOL    MW433338   1.739   0.708   5.977  0.7773 -0.3844  0.5215
 8392SOL     OW33339   5.305   1.435   5.814 -0.0278  0.2229  0.0801
 8392SOL    HW233340   5.351   1.353   5.829 -0.8085 -0.1829  0.3154
 8392SOL    HW333341   5.217   1.420   5.848 -1.0057  0.2786 -2.2566
 8392SOL    MW433342   5.299   1.422   5.821 -0.0936 -0.4462  0.0410
 8393SOL     OW33343   0.185   3.709   4.944  0.5656  0.1525 -0.2414
 8393SOL    HW233344   0.201   3.653   4.868 -3.1160 -2.4030  0.6215
 8393SOL    HW333345   0.163   3.794   4.907 -1.3954 -1.0849 -2.1250
 8393SOL    MW433346   0.184   3.713   4.929  0.0675 -0.0253 -0.0027
 8394SOL     OW33347   5.396   1.542   4.377  0.4791  0.3950 -0.2417
 8394SOL    HW233348   5.386   1.544   4.282 -0.4107 -1.7601 -0.2616
 8394SOL    HW333349   5.435   1.456   4.395 -2.3432 -0.6486  1.5181
 8394SOL    MW433350   5.400   1.531   4.367  0.1805 -0.1939  0.2722
 8395SOL     OW33351   2.153   2.438   5.998 -0.1687 -0.2093  0.6374
 8395SOL    HW233352   2.232   2.420   5.947 -0.7250  0.1055 -0.3605
 8395SOL    HW333353   2.163   2.386   6.077  0.3228 -1.3994 -0.1732
 8395SOL    MW433354   2.165   2.429   6.001 -0.2575 -0.0619 -0.3947
 8396SOL     OW33355   3.182   4.887   5.780  0.6745 -0.1259 -0.3695
 8396SOL    HW233356   3.226   4.859   5.860  0.4166  1.5896  0.4181
 8396SOL    HW333357   3.202   4.818   5.716 -0.6959 -2.5443  1.6401
 8396SOL    MW433358   3.190   4.874   5.782 -0.2103  0.8887  0.4324
 8397SOL     OW33359   0.406   1.347   4.743  0.6698 -0.1712 -0.5692
 8397SOL    HW233360   0.396   1.254   4.762 -0.2619  0.0112 -0.1543
 8397SOL    HW333361   0.405   1.352   4.647  2.3624 -0.7531 -0.6584
 8397SOL    MW433362   0.405   1.335   4.732  0.3635 -0.1570 -0.0264
 8398SOL     OW33363   3.218   4.909   0.795  0.0515 -0.2040 -0.2420
 8398SOL    HW233364   3.141   4.874   0.750  0.2852 -1.3370  0.2228
 8398SOL    HW333365   3.261   4.964   0.729 -0.3051 -0.8123 -0.9889
 8398SOL    MW433366   3.213   4.912   0.780 -0.0298 -0.1973 -0.2052
 8399SOL     OW33367   1.453   4.831   1.666 -0.3482 -0.2605  0.1892
 8399SOL    HW233368   1.446   4.899   1.732 -0.6720  2.2698 -2.2463
 8399SOL    HW333369   1.547   4.821   1.651 -0.3353  1.2019 -0.8576
 8399SOL    MW433370   1.464   4.839   1.673  0.5986 -0.3250  0.0813
 8400SOL     OW33371   5.168   0.133   0.241  0.4429  0.0522  0.1081
 8400SOL    HW233372   5.193   0.081   0.165  0.8381 -1.2897  1.1140
 8400SOL    HW333373   5.121   0.208   0.205  0.6167 -0.5548 -1.4433
 8400SOL    MW433374   5.165   0.136   0.227 -0.0032  0.4715  0.2747
 8401SOL     OW33375   5.572   3.987   4.851 -0.6427 -0.2365  0.3484
 8401SOL    HW233376   5.491   3.994   4.801 -0.6242  0.5929  0.4357
 8401SOL    HW333377   5.630   3.936   4.795 -0.4196  1.1742 -0.7460
 8401SOL    MW433378   5.569   3.981   4.837  0.3074  0.0949  0.0411
 8402SOL     OW33379   2.905   6.404   6.071 -0.1552 -0.0797  0.2237
 8402SOL    HW233380   2.964   6.478   6.085  1.1181 -1.4192  2.5646
 8402SOL    HW333381   2.931   6.368   5.986  1.2685  0.4202  0.4109
 8402SOL    MW433382   2.916   6.409   6.062 -0.2824  0.0131 -0.0638
 8403SOL     OW33383   0.243   5.317   6.252 -0.3242  0.6124 -0.2159
 8403SOL    HW233384   0.183   5.244   6.241  1.6900 -1.2077  0.3056
 8403SOL    HW333385   0.292   5.297   6.331  0.9624  2.0421 -0.5946
 8403SOL    MW433386   0.241   5.305   6.261  0.3180  0.8960 -0.1240
 8404SOL     OW33387   4.676   3.196   2.086 -0.6771 -0.1173  0.3522
 8404SOL    HW233388   4.682   3.278   2.136 -1.8270 -0.1218  0.5283
 8404SOL    HW333389   4.583   3.175   2.086 -0.6265 -0.4464 -1.2860
 8404SOL    MW433390   4.665   3.204   2.093 -0.2871 -0.1416  0.3313
 8405SOL     OW33391   6.268   2.103   2.067 -0.4050 -0.6335 -0.0762
 8405SOL    HW233392   6.340   2.166   2.063 -3.5909  3.5413  1.2093
 8405SOL    HW333393   6.276   2.061   2.153  1.2491 -1.4423 -0.5825
 8405SOL    MW433394   6.279   2.106   2.078  0.5034 -0.1277  0.4386
 8406SOL     OW33395   1.301   1.440   1.911 -0.3605 -0.0326  0.0618
 8406SOL    HW233396   1.345   1.522   1.890  0.9611 -0.5619  0.6550
 8406SOL    HW333397   1.359   1.397   1.974 -1.3853 -1.0949  0.3183
 8406SOL    MW433398   1.314   1.445   1.917  0.2240 -0.2781 -0.3503
 8407SOL     OW33399   1.795   4.678   4.646 -0.2588  0.2179 -0.5512
 8407SOL    HW233400   1.882   4.677   4.606 -1.2031  1.0524 -2.8514
 8407SOL    HW333401   1.736   4.694   4.572 -2.1024  3.4988  1.3912
 8407SOL    MW433402   1.798   4.680   4.631 -0.0956 -0.1227 -0.0512
 8408SOL     OW33403   0.319   4.932   1.652 -0.2518 -0.6168 -0.1551
 8408SOL    HW233404   0.332   4.933   1.557 -0.6120 -1.5730 -0.2264
 8408SOL    HW333405   0.324   5.024   1.678 -0.4604 -0.3137 -1.1398
 8408SOL    MW433406   0.321   4.944   1.643  0.3440 -0.2563  0.2899
 8409SOL     OW33407   0.934   4.625   1.471 -0.0227  0.2753  0.1656
 8409SOL    HW233408   0.985   4.630   1.391  0.3810 -1.2321  0.2975
 8409SOL    HW333409   0.873   4.699   1.466  2.4710  2.4924  0.2481
 8409SOL    MW433410   0.933   4.635   1.460 -0.3666 -0.7350 -0.4237
 8410SOL     OW33411   1.705   5.003   0.736 -0.0304  0.5533 -0.2007
 8410SOL    HW233412   1.633   4.953   0.775  0.3084  0.4594  0.3146
 8410SOL    HW333413   1.775   4.999   0.802  1.4730 -1.6638 -1.7593
 8410SOL    MW433414   1.705   4.996   0.750  0.2453 -0.1156  0.2162
 8411SOL     OW33415   6.248   3.496   1.316 -0.0502 -0.0414  0.4264
 8411SOL    HW233416   6.188   3.499   1.390 -0.2335 -0.3565  0.2911
 8411SOL    HW333417   6.207   3.436   1.253  0.8797 -1.0672  0.7630
 8411SOL    MW433418   6.235   3.488   1.317 -0.1242  0.0495  0.0387
 8412SOL     OW33419   2.718   5.132   4.309 -0.2842 -0.1740  0.3047
 8412SOL    HW233420   2.750   5.174   4.229 -2.5845 -1.3506 -1.3488
 8412SOL    HW333421   2.677   5.202   4.358  1.2439  0.5813  0.5792
 8412SOL    MW433422   2.717   5.147   4.305 -0.1774 -0.4479  0.2956
 8413SOL     OW33423   2.440   0.674   6.027  0.1770  0.2968  0.1088
 8413SOL    HW233424   2.364   0.616   6.033  0.2659 -0.2237 -2.4736
 8413SOL    HW333425   2.408   0.759   6.056 -1.0032 -0.2243  0.3738
 8413SOL    MW433426   2.426   0.677   6.032 -0.3780  0.0213 -0.5108
 8414SOL     OW33427   5.962   1.061   1.661  0.6928  0.2461  0.2442
 8414SOL    HW233428   5.956   1.132   1.597 -1.6409 -0.7748 -0.7697
 8414SOL    HW333429   5.902   1.087   1.731 -0.7364 -0.9657 -0.4652
 8414SOL    MW433430   5.953   1.074   1.662 -0.3470  0.8414 -0.4093
 8415SOL     OW33431   0.198   2.806   0.186 -0.1909  0.2605  0.0221
 8415SOL    HW233432   0.213   2.839   0.275  1.2744 -0.0128 -0.1088
 8415SOL    HW333433   0.148   2.876   0.143  0.8708  1.3120  0.4471
 8415SOL    MW433434   0.193   2.819   0.192 -0.0221  0.5932 -0.0734
 8416SOL     OW33435   2.469   6.370   4.070  0.2528 -0.0055  0.8949
 8416SOL    HW233436   2.533   6.326   4.127 -0.6243 -2.1232  0.3583
 8416SOL    HW333437   2.519   6.396   3.993  0.6585 -0.9612  0.8130
 8416SOL    MW433438   2.484   6.367   4.068  0.1447 -1.1694  0.0220
 8417SOL     OW33439   3.731   0.024   2.423  0.1377  0.5102  0.2756
 8417SOL    HW233440   3.796   0.077   2.377 -0.2130  0.8168  0.1273
 8417SOL    HW333441   3.730   0.058   2.512  0.8543 -0.1177  0.5344
 8417SOL    MW433442   3.740   0.035   2.429 -0.2355 -0.0421 -0.5046
 8418SOL     OW33443   5.362   0.170   3.623 -0.5254 -0.6101 -0.1614
 8418SOL    HW233444   5.268   0.156   3.619 -0.5831 -0.1267 -0.5965
 8418SOL    HW333445   5.378   0.244   3.563  0.2037 -1.0856 -0.5651
 8418SOL    MW433446   5.352   0.178   3.614  0.0522  0.2116  0.2735
 8419SOL     OW33447   0.817   3.294   3.775  0.1381  0.1857  0.2045
 8419SOL    HW233448   0.856   3.214   3.813  0.3801  0.2414  0.0756
 8419SOL    HW333449   0.782   3.341   3.851 -2.0846 -1.1234  0.0857
 8419SOL    MW433450   0.818   3.290   3.790  0.8154 -0.8664  0.5681
 8420SOL     OW33451   0.152   0.951   1.018  0.2872 -0.0533 -0.2661
 8420SOL    HW233452   0.078   0.968   1.076  0.1320  2.1350 -0.9894
 8420SOL    HW333453   0.112   0.916   0.938  0.2364 -0.6622  0.0251
 8420SOL    MW433454   0.137   0.949   1.015 -0.1460  0.0115  0.6814
 8421SOL     OW33455   5.134   1.262   2.003 -0.3186 -0.2353 -0.0512
 8421SOL    HW233456   5.073   1.246   2.075 -2.5894  1.8117 -1.3916
 8421SOL    HW333457   5.157   1.174   1.971 -1.2566 -1.0964  1.5083
 8421SOL    MW433458   5.129   1.248   2.008  0.0219 -0.1849 -0.1028
 8422SOL     OW33459   1.874   1.102   5.332 -0.4374  0.2421 -0.2511
 8422SOL    HW233460   1.856   1.031   5.394 -1.8177  0.0661 -0.8235
 8422SOL    HW333461   1.846   1.067   5.247 -0.5231  1.2297 -0.6372
 8422SOL    MW433462   1.868   1.088   5.329 -0.2120 -0.0058  0.7053
 8423SOL     OW33463   0.886   1.873   4.994 -0.5396 -0.0016 -0.3233
 8423SOL    HW233464   0.839   1.790   4.992  0.7163 -0.7199 -0.5449
 8423SOL    HW333465   0.943   1.871   4.918  2.0727 -0.4974  1.5290
 8423SOL    MW433466   0.887   1.862   4.984  0.0592  0.3558 -0.0627
 8424SOL     OW33467   2.398   6.004   3.052 -0.4590  0.6124 -0.0324
 8424SOL    HW233468   2.411   6.068   3.122  0.5735 -0.8822  1.2261
 8424SOL    HW333469   2.303   5.987   3.052 -0.3935  0.0247  1.6363
 8424SOL    MW433470   2.387   6.010   3.061  0.3792 -0.3404  0.7218
 8425SOL     OW33471   3.181   0.791   4.244 -0.0938 -0.6789 -0.1493
 8425SOL    HW233472   3.111   0.744   4.289 -2.5686  3.1985  0.6233
 8425SOL    HW333473   3.258   0.780   4.299 -1.0884 -2.0279  1.0421
 8425SOL    MW433474   3.182   0.784   4.257  0.7655  0.8831  0.2804
 8426SOL     OW33475   4.650   5.731   1.683  0.1395 -0.0490  1.0306
 8426SOL    HW233476   4.641   5.703   1.774  1.1480 -1.1966  0.8144
 8426SOL    HW333477   4.704   5.810   1.687 -0.5593  0.4137  1.4772
 8426SOL    MW433478   4.656   5.737   1.695 -0.5324  0.2412  0.7062
 8427SOL     OW33479   5.065   1.555   2.175 -0.2008  0.1299 -0.0919
 8427SOL    HW233480   5.036   1.645   2.187 -3.4056 -1.0174  2.4557
 8427SOL    HW333481   4.993   1.513   2.127  1.6846 -0.9201 -2.1509
 8427SOL    MW433482   5.052   1.561   2.170  0.4007 -0.1154 -0.2185
 8428SOL     OW33483   3.061   2.153   5.966 -0.6936 -0.5459  0.3937
 8428SOL    HW233484   3.064   2.219   5.897  0.2887  1.4669  2.2147
 8428SOL    HW333485   3.020   2.077   5.925 -2.0122  1.2096 -1.8135
 8428SOL    MW433486   3.056   2.152   5.952  0.5315  0.2475  0.0123
 8429SOL     OW33487   0.672   6.213   2.837  0.2327 -0.0592  1.0713
 8429SOL    HW233488   0.709   6.167   2.913 -0.8262 -1.5748  0.7033
 8429SOL    HW333489   0.579   6.222   2.857 -0.1824 -1.0177 -0.2609
 8429SOL    MW433490   0.665   6.208   2.849  0.2954  0.0245 -0.4612
 8430SOL     OW33491   0.881   5.130   3.224  0.1145 -0.4964  0.3056
 8430SOL    HW233492   0.940   5.148   3.151 -1.6028  1.2473 -0.7483
 8430SOL    HW333493   0.896   5.203   3.285 -0.1967 -0.6053  0.5139
 8430SOL    MW433494   0.891   5.142   3.222  0.1819  0.3499  0.2919
 8431SOL     OW33495   1.965   1.326   1.793 -0.5417  0.8524  0.2209
 8431SOL    HW233496   1.966   1.359   1.703  0.8088  0.4345  0.0649
 8431SOL    HW333497   1.897   1.258   1.792 -0.4338  0.7457 -0.5244
 8431SOL    MW433498   1.956   1.321   1.781 -0.2312 -0.2085 -0.0982
 8432SOL     OW33499   5.165   3.808   5.956  0.8041  0.0354  0.5628
 8432SOL    HW233500   5.249   3.763   5.963  0.5894 -0.3720  0.5181
 8432SOL    HW333501   5.157   3.857   6.038  1.7868  1.2981 -0.0559
 8432SOL    MW433502   5.175   3.809   5.968 -0.1760 -0.0567  0.4469
 8433SOL     OW33503   1.778   6.343   0.044  0.2571  0.3559  0.6041
 8433SOL    HW233504   1.720   6.336   0.120 -2.3259  0.0494 -1.2666
 8433SOL    HW333505   1.785   6.253   0.011  0.9588  0.5527  0.1873
 8433SOL    MW433506   1.771   6.330   0.049  0.1061 -0.1600 -0.3529
 8434SOL     OW33507   4.821   3.936   3.791  0.5326 -0.3312  0.1693
 8434SOL    HW233508   4.839   3.843   3.784  1.4962 -0.0595 -1.4464
 8434SOL    HW333509   4.746   3.951   3.734 -0.2026 -0.2393  1.1280
 8434SOL    MW433510   4.813   3.926   3.783 -0.0262  0.1931 -0.0551
 8435SOL     OW33511   0.076   6.185   2.816  0.3589 -0.4490 -0.2590
 8435SOL    HW233512   0.029   6.148   2.742 -1.3071 -0.8563  0.9294
 8435SOL    HW333513   0.089   6.111   2.876 -2.3219  0.5656  1.8002
 8435SOL    MW433514   0.071   6.170   2.814 -0.6681 -0.0475  0.2184
 8436SOL     OW33515   0.209   2.060   4.947 -0.0951  0.2490 -0.3306
 8436SOL    HW233516   0.215   2.156   4.948 -1.3119  0.3654 -1.2332
 8436SOL    HW333517   0.290   2.030   4.988  1.4599  1.6248 -2.2012
 8436SOL    MW433518   0.220   2.069   4.953  0.0212 -0.3512  0.2309
 8437SOL     OW33519   4.577   3.389   1.701  0.2652 -0.6153  0.3258
 8437SOL    HW233520   4.610   3.320   1.643  0.2209 -0.7926  0.5088
 8437SOL    HW333521   4.622   3.468   1.672 -0.1132 -0.6040 -0.2686
 8437SOL    MW433522   4.587   3.390   1.689 -0.1839  0.1524  0.3830
 8438SOL     OW33523   4.020   5.093   0.502 -0.2450 -0.4480 -0.6719
 8438SOL    HW233524   4.041   5.000   0.500 -0.1023 -0.4212 -2.3415
 8438SOL    HW333525   4.102   5.137   0.478 -0.0622  0.1843  1.0060
 8438SOL    MW433526   4.033   5.087   0.498  0.3390 -0.4573 -0.3008
 8439SOL     OW33527   0.774   6.174   2.597 -0.2553 -0.2692 -0.1140
 8439SOL    HW233528   0.865   6.152   2.612  0.5255  2.0940 -0.9186
 8439SOL    HW333529   0.739   6.197   2.683  0.7185  1.4039 -0.1236
 8439SOL    MW433530   0.781   6.174   2.610 -0.1220  0.1844  0.3596
 8440SOL     OW33531   3.717   6.030   1.068 -0.3908 -0.1553  0.3885
 8440SOL    HW233532   3.681   6.004   0.983 -0.1556  1.2239 -0.1595
 8440SOL    HW333533   3.745   6.121   1.055  2.8533 -0.9608  0.9216
 8440SOL    MW433534   3.716   6.039   1.055  0.0029 -0.0386  0.4910
 8441SOL     OW33535   5.785   4.390   3.254 -0.2050 -0.4568  0.3913
 8441SOL    HW233536   5.759   4.420   3.167  0.1925 -0.1103  0.3894
 8441SOL    HW333537   5.869   4.433   3.270  0.7228 -2.0668  0.1036
 8441SOL    MW433538   5.793   4.399   3.245 -0.0689  0.3823 -0.2970
 8442SOL     OW33539   5.041   6.349   3.087  0.7640  0.1084 -0.1016
 8442SOL    HW233540   5.067   6.342   2.995  1.0698 -0.9632  0.0432
 8442SOL    HW333541   5.058   6.261   3.123  0.5250  0.4739  0.9422
 8442SOL    MW433542   5.047   6.336   3.080 -0.3027 -0.9590  0.1917
 8443SOL     OW33543   0.665   1.691   3.323 -0.9926 -0.1272  0.9706
 8443SOL    HW233544   0.750   1.670   3.285 -1.0377  0.4247  0.5622
 8443SOL    HW333545   0.622   1.746   3.258 -0.4289  2.2081  2.4605
 8443SOL    MW433546   0.670   1.695   3.310  0.2699  0.5552 -0.1289
 8444SOL     OW33547   5.791   2.613   4.170 -0.4143 -0.1906 -0.3489
 8444SOL    HW233548   5.761   2.637   4.257 -1.8732 -3.1681  0.1083
 8444SOL    HW333549   5.749   2.676   4.111 -1.0226  0.6362  0.9418
 8444SOL    MW433550   5.781   2.624   4.173 -0.3807  0.2608  0.3566
 8445SOL     OW33551   5.543   5.049   4.458  0.2783 -0.6103 -0.0483
 8445SOL    HW233552   5.553   4.954   4.457  0.6691 -0.6001  1.1320
 8445SOL    HW333553   5.484   5.068   4.384  2.6924 -1.4239 -2.3234
 8445SOL    MW433554   5.536   5.039   4.448 -0.1961  0.0313 -1.0200
 8446SOL     OW33555   4.283   5.606   4.594 -0.1878  0.0353 -0.3427
 8446SOL    HW233556   4.376   5.600   4.569 -0.4037  1.2728 -1.5985
 8446SOL    HW333557   4.267   5.527   4.645  2.0362  0.7335  1.5908
 8446SOL    MW433558   4.293   5.595   4.597  0.2535 -0.0390 -0.0404
 8447SOL     OW33559   3.347   5.717   0.822 -0.6409  0.4003 -0.0654
 8447SOL    HW233560   3.383   5.630   0.809 -2.0351  0.0539 -2.1287
 8447SOL    HW333561   3.394   5.772   0.760 -2.0200  0.4015 -1.1506
 8447SOL    MW433562   3.358   5.713   0.812  0.6560 -0.9685 -0.0747
 8448SOL     OW33563   1.057   1.724   2.758  0.0429 -0.1359  0.6293
 8448SOL    HW233564   1.105   1.641   2.750  0.0181 -0.0074 -1.3298
 8448SOL    HW333565   1.104   1.785   2.702 -1.8713  0.2185 -0.7163
 8448SOL    MW433566   1.069   1.721   2.750 -0.1196  0.3008 -0.4309
 8449SOL     OW33567   3.041   0.041   3.579  0.5895 -0.3621 -0.1731
 8449SOL    HW233568   3.110  -0.003   3.630  0.0821  0.4123  1.2369
 8449SOL    HW333569   2.999  -0.030   3.530  1.5181 -1.0425 -0.0211
 8449SOL    MW433570   3.045   0.026   3.579 -0.2023 -0.0523  0.0284
 8450SOL     OW33571   4.988   4.166   3.785 -0.4307 -0.2517  1.0500
 8450SOL    HW233572   5.064   4.166   3.726  1.6769 -3.4775  3.4286
 8450SOL    HW333573   4.957   4.076   3.783 -4.3030  0.9308  0.2851
 8450SOL    MW433574   4.994   4.154   3.777  0.2620  0.3150 -0.5799
 8451SOL     OW33575   0.541   6.329   2.500  0.1543  0.4116 -0.1718
 8451SOL    HW233576   0.502   6.274   2.432  0.2573 -2.8048  2.1163
 8451SOL    HW333577   0.620   6.282   2.527  1.8010  3.1518  0.1515
 8451SOL    MW433578   0.546   6.316   2.495  0.0369 -0.5250  0.1385
 8452SOL     OW33579   3.124   6.008   3.976  0.7474  0.2930 -0.0476
 8452SOL    HW233580   3.111   6.016   3.882  1.3360 -1.3003 -0.2948
 8452SOL    HW333581   3.214   5.977   3.986  1.3049  2.0957  1.1508
 8452SOL    MW433582   3.134   6.005   3.965  0.3396 -0.2975  0.1795
 8453SOL     OW33583   0.797   5.057   1.370 -0.0385 -0.0522 -0.2442
 8453SOL    HW233584   0.891   5.063   1.354 -0.0803  1.1179 -0.1071
 8453SOL    HW333585   0.763   5.143   1.346 -1.0717 -0.4529 -0.2521
 8453SOL    MW433586   0.805   5.069   1.364  0.3924  0.5097 -0.4737
 8454SOL     OW33587   3.318   2.713   3.095  0.3342 -0.3861 -0.0014
 8454SOL    HW233588   3.269   2.648   3.045  0.0804 -0.7492  0.7100
 8454SOL    HW333589   3.409   2.685   3.088  0.0965 -1.6450  1.4633
 8454SOL    MW433590   3.324   2.701   3.087  0.2822 -0.2485  0.2484
 8455SOL     OW33591   2.100   6.113   5.267  0.0303  0.8447  0.7695
 8455SOL    HW233592   2.192   6.099   5.286  0.6835  3.6172 -0.0228
 8455SOL    HW333593   2.098   6.182   5.201 -2.5611 -0.7794 -1.0830
 8455SOL    MW433594   2.112   6.120   5.261  0.0959 -0.1624 -0.3431
 8456SOL     OW33595   0.537   5.551   2.438  0.0959 -0.0742 -0.2350
 8456SOL    HW233596   0.573   5.587   2.519 -1.0753  2.9297 -0.9206
 8456SOL    HW333597   0.607   5.561   2.374 -0.0171  0.4370 -0.2808
 8456SOL    MW433598   0.551   5.557   2.440  0.0747  0.1456  0.9411
 8457SOL     OW33599   4.889   5.676   3.358 -0.2226 -0.0828 -0.5565
 8457SOL    HW233600   4.859   5.746   3.416 -0.2363 -0.9985  0.6022
 8457SOL    HW333601   4.819   5.665   3.295 -0.4782  0.5526 -0.3905
 8457SOL    MW433602   4.876   5.683   3.357  0.0645  0.4702 -0.6704
 8458SOL     OW33603   1.655   5.271   0.349 -0.1735 -0.3887 -0.2691
 8458SOL    HW233604   1.748   5.248   0.353 -0.1360 -0.2537 -0.3526
 8458SOL    HW333605   1.628   5.278   0.441 -1.1215 -4.4382 -0.0689
 8458SOL    MW433606   1.664   5.269   0.362 -0.1018 -0.2367 -0.0148
 8459SOL     OW33607   0.851   5.814   4.003 -0.3322 -0.3265  0.3520
 8459SOL    HW233608   0.790   5.856   4.064  0.5118  0.4123  0.7069
 8459SOL    HW333609   0.905   5.886   3.970  0.7657 -1.0441  0.5422
 8459SOL    MW433610   0.850   5.829   4.007  0.6678  0.1684 -0.8806
 8460SOL     OW33611   1.550   5.097   5.359 -0.3982 -0.8039  0.1235
 8460SOL    HW233612   1.539   5.025   5.422  1.2279 -1.4224 -0.2473
 8460SOL    HW333613   1.547   5.176   5.413 -3.1361 -1.0109  0.4292
 8460SOL    MW433614   1.548   5.098   5.375 -0.2093 -0.5136  0.0121
 8461SOL     OW33615   1.430   0.905   5.306  0.0423 -0.4031  0.7073
 8461SOL    HW233616   1.353   0.849   5.303 -0.6794  0.6141 -0.7357
 8461SOL    HW333617   1.443   0.922   5.400 -2.1042  0.2138  0.9374
 8461SOL    MW433618   1.422   0.900   5.318 -0.0896  0.2768 -0.0996
 8462SOL     OW33619   2.955   0.279   3.360  0.0790 -0.4189 -0.2710
 8462SOL    HW233620   2.983   0.207   3.416  0.5659  0.6448  0.8840
 8462SOL    HW333621   2.878   0.316   3.403  0.5174  0.4745 -0.2304
 8462SOL    MW433622   2.949   0.274   3.373  0.6305 -0.3504  0.5038
 8463SOL     OW33623   0.804   1.246   2.738 -0.6206 -0.4534 -0.0265
 8463SOL    HW233624   0.713   1.256   2.711 -0.7507 -1.8918 -0.1795
 8463SOL    HW333625   0.845   1.198   2.666  0.9514  2.4932 -1.2624
 8463SOL    MW433626   0.797   1.241   2.725 -0.1929  0.0140 -0.1380
 8464SOL     OW33627   3.165   4.900   2.547 -0.1673 -0.3526 -0.7153
 8464SOL    HW233628   3.099   4.908   2.479 -2.1792 -2.0561  0.9216
 8464SOL    HW333629   3.129   4.948   2.622  1.1536 -0.0707 -0.2248
 8464SOL    MW433630   3.152   4.908   2.548 -0.0405 -0.5419  0.1377
 8465SOL     OW33631   4.982   5.975   5.759  0.4171 -0.0285 -0.4351
 8465SOL    HW233632   5.020   6.059   5.784  2.3560 -0.8617 -0.4625
 8465SOL    HW333633   5.016   5.913   5.824 -0.2690 -0.9669 -0.9410
 8465SOL    MW433634   4.991   5.978   5.771  0.4257 -0.3519 -0.2263
 8466SOL     OW33635   4.387   3.528   4.437  0.3291 -0.6956  0.0493
 8466SOL    HW233636   4.477   3.560   4.428 -0.3527  1.4237  0.3156
 8466SOL    HW333637   4.392   3.464   4.509  1.6661 -0.8535 -0.1513
 8466SOL    MW433638   4.400   3.524   4.446  0.1685  0.5753 -0.4105
 8467SOL     OW33639   1.600   5.720   5.687 -0.4129  0.0820  0.1064
 8467SOL    HW233640   1.556   5.770   5.618  0.1163  1.9294  1.0356
 8467SOL    HW333641   1.689   5.708   5.655 -0.6816 -0.7760 -0.3495
 8467SOL    MW433642   1.606   5.725   5.673  0.9064 -0.0073 -0.4794
 8468SOL     OW33643   1.106   5.850   2.909 -0.5313 -0.0810  0.0452
 8468SOL    HW233644   1.167   5.905   2.859  0.9814 -0.7898  1.0243
 8468SOL    HW333645   1.035   5.831   2.848  0.3490  0.5871 -1.2291
 8468SOL    MW433646   1.105   5.855   2.895  0.1125 -0.0708 -0.1216
 8469SOL     OW33647   0.379   5.186   1.722  0.7218  0.1201 -0.4453
 8469SOL    HW233648   0.342   5.239   1.792  0.9745 -0.0489 -0.1831
 8469SOL    HW333649   0.470   5.172   1.748  0.2572 -1.7849  0.3008
 8469SOL    MW433650   0.386   5.191   1.735 -0.6937 -0.2945 -0.5447
 8470SOL     OW33651   3.516   3.175   5.496 -0.5308 -0.0231  0.0311
 8470SOL    HW233652   3.593   3.195   5.443 -0.7462  2.2254  0.4951
 8470SOL    HW333653   3.492   3.258   5.537 -2.5400 -0.9147  0.7984
 8470SOL    MW433654   3.523   3.188   5.495 -0.3198 -0.1288  0.5993
 8471SOL     OW33655   2.395   5.975   1.207 -0.2174 -0.0117  0.1776
 8471SOL    HW233656   2.301   5.985   1.220 -0.2861 -0.2275 -0.1490
 8471SOL    HW333657   2.433   5.997   1.292 -0.4212  1.9225 -0.1805
 8471SOL    MW433658   2.388   5.979   1.220  0.2361  0.7320  0.0889
 8472SOL     OW33659   6.334   3.050   5.223  0.1468 -0.7240 -1.1276
 8472SOL    HW233660   6.402   3.086   5.166 -0.1571  1.1093 -0.3884
 8472SOL    HW333661   6.355   3.083   5.310 -0.9025 -1.2758 -0.6434
 8472SOL    MW433662   6.346   3.059   5.227  0.6829  0.1050 -0.1380
 8473SOL     OW33663   4.022   4.132   0.734  0.2930  0.3196  0.3477
 8473SOL    HW233664   4.113   4.105   0.738 -0.0398 -1.2598 -1.1870
 8473SOL    HW333665   4.024   4.227   0.725  1.7702  0.3069  0.4329
 8473SOL    MW433666   4.034   4.141   0.734  0.2408 -0.0326 -0.1611
 8474SOL     OW33667   4.785   0.645   4.159  0.0201  0.3648  0.2097
 8474SOL    HW233668   4.857   0.622   4.218 -0.1958  1.7376  1.0641
 8474SOL    HW333669   4.715   0.584   4.182  0.9179 -1.0495 -0.7055
 8474SOL    MW433670   4.785   0.634   4.170 -0.1052  0.7582 -0.2295
 8475SOL     OW33671   2.311   5.251   4.177  0.5569 -0.4841 -0.0935
 8475SOL    HW233672   2.319   5.245   4.272  1.2739 -1.5685 -0.2091
 8475SOL    HW333673   2.386   5.304   4.150 -0.4961  1.1542  0.0580
 8475SOL    MW433674   2.322   5.257   4.186 -0.0523 -1.0281 -0.5992
 8476SOL     OW33675   1.313   2.548   3.180  0.2894 -0.5328  0.2139
 8476SOL    HW233676   1.390   2.605   3.177  0.0375 -0.1439  0.8204
 8476SOL    HW333677   1.239   2.609   3.188 -0.0230 -0.9267  0.3319
 8476SOL    MW433678   1.313   2.564   3.181  0.5708 -0.0956 -0.8488
 8477SOL     OW33679   0.009   3.069   2.907 -0.1220 -0.4442 -0.5197
 8477SOL    HW233680   0.018   3.097   2.816  0.2057 -1.2163 -0.7306
 8477SOL    HW333681  -0.069   3.014   2.908  0.1434 -0.8250 -0.4361
 8477SOL    MW433682   0.000   3.065   2.896 -0.0727 -0.0565 -0.8176
 8478SOL     OW33683   2.934   5.250   3.188  0.2640 -0.2089 -0.5108
 8478SOL    HW233684   2.952   5.327   3.135 -0.9557 -0.1718 -0.8882
 8478SOL    HW333685   3.014   5.198   3.182  1.1083  1.0120 -0.2484
 8478SOL    MW433686   2.947   5.253   3.180 -0.4090  0.1300 -0.4279
 8479SOL     OW33687   5.417   4.970   3.440  0.1885  0.0722 -0.5015
 8479SOL    HW233688   5.341   4.912   3.439  0.2877 -0.2443  2.2977
 8479SOL    HW333689   5.453   4.960   3.528  1.6110  2.6410 -0.7082
 8479SOL    MW433690   5.412   4.961   3.451  0.1625 -0.0053  0.1133
 8480SOL     OW33691   1.088   4.215   4.930 -0.0962  0.0860  0.3753
 8480SOL    HW233692   1.054   4.290   4.881 -0.9232 -0.6976 -0.2905
 8480SOL    HW333693   1.161   4.183   4.878 -0.7892 -0.5669 -0.2131
 8480SOL    MW433694   1.093   4.220   4.917  0.3274  0.8801 -0.1910
 8481SOL     OW33695   4.416   2.577   4.123  0.0428 -0.5041 -0.2210
 8481SOL    HW233696   4.418   2.495   4.174  1.9598  0.0124  0.6526
 8481SOL    HW333697   4.481   2.632   4.166 -1.4447  1.6313 -0.5933
 8481SOL    MW433698   4.425   2.573   4.136 -0.2519  0.3422 -0.7722
 8482SOL     OW33699   3.001   2.003   2.931  0.2224  0.7849  0.4715
 8482SOL    HW233700   3.091   1.990   2.961  0.3247  0.2304 -0.0676
 8482SOL    HW333701   3.009   2.027   2.839 -0.1861  0.5697  0.3762
 8482SOL    MW433702   3.014   2.004   2.923 -0.1483  0.7281  0.3273
 8483SOL     OW33703   1.563   2.004   4.635  0.4577  0.4244  0.2340
 8483SOL    HW233704   1.616   1.955   4.698  3.1580  2.6064 -0.1862
 8483SOL    HW333705   1.564   2.094   4.667 -0.9156  1.0016 -1.1932
 8483SOL    MW433706   1.570   2.009   4.648  0.0967 -0.4302  0.9657
 8484SOL     OW33707   3.637   1.733   6.053  0.1588 -0.0797  0.4519
 8484SOL    HW233708   3.570   1.774   6.107 -0.2123  0.4985 -0.4257
 8484SOL    HW333709   3.714   1.788   6.065 -0.1432  0.5056 -0.1838
 8484SOL    MW433710   3.638   1.746   6.062  0.2674  0.0106 -0.5501
 8485SOL     OW33711   4.477   5.506   2.128  0.3076  0.6875 -0.2693
 8485SOL    HW233712   4.487   5.411   2.114 -1.1005  0.4957 -0.1518
 8485SOL    HW333713   4.467   5.515   2.223 -0.0062  0.8925 -0.3193
 8485SOL    MW433714   4.477   5.494   2.139  0.2583  0.3776  0.2698
 8486SOL     OW33715   1.142   0.690   2.366  0.2054 -0.4022  0.0822
 8486SOL    HW233716   1.146   0.784   2.385  1.5561 -0.4758  0.2564
 8486SOL    HW333717   1.223   0.672   2.317  0.7476 -1.7437  1.3878
 8486SOL    MW433718   1.154   0.700   2.362 -0.2639  0.3188 -0.2363
 8487SOL     OW33719   1.740   0.916   4.809 -0.8113  0.0387  0.3209
 8487SOL    HW233720   1.743   0.849   4.741 -1.3871  0.4652 -0.1386
 8487SOL    HW333721   1.708   0.870   4.887 -1.0746 -0.2482  0.0439
 8487SOL    MW433722   1.736   0.902   4.811 -0.3145 -0.1468 -0.6351
 8488SOL     OW33723   2.632   1.936   5.230 -0.2088 -0.0793  0.2343
 8488SOL    HW233724   2.598   1.916   5.143  0.8835 -1.3919  0.0664
 8488SOL    HW333725   2.669   2.024   5.222 -0.4288 -0.0490 -0.5264
 8488SOL    MW433726   2.632   1.945   5.218  0.3424 -0.0216 -0.5766
 8489SOL     OW33727   5.865   3.554   4.947  0.1451 -0.6447  0.5311
 8489SOL    HW233728   5.906   3.487   5.000  1.9592 -0.6876 -0.8400
 8489SOL    HW333729   5.855   3.629   5.006  3.2406 -0.2622  0.6852
 8489SOL    MW433730   5.869   3.555   4.961  0.2181 -0.1352  0.0039
 8490SOL     OW33731   3.092   3.004   3.272  0.9189 -0.1883 -0.2198
 8490SOL    HW233732   3.167   3.034   3.220  0.6582  1.0210  0.0793
 8490SOL    HW333733   3.022   2.992   3.208  0.3442  2.1246 -0.1087
 8490SOL    MW433734   3.093   3.006   3.257  0.3596  0.1706  0.2439
 8491SOL     OW33735   4.012   3.831   3.281  0.2428 -0.4640 -0.1541
 8491SOL    HW233736   4.087   3.803   3.333  1.4045 -0.1355 -1.5817
 8491SOL    HW333737   3.945   3.855   3.345  0.5469 -2.8395  1.1528
 8491SOL    MW433738   4.013   3.830   3.296 -0.1250 -0.1849 -0.8748
 8492SOL     OW33739   2.179   5.928   2.004 -0.3359  0.4150  0.2200
 8492SOL    HW233740   2.157   6.005   1.952 -0.1019  1.2677  1.3486
 8492SOL    HW333741   2.253   5.956   2.058 -0.5682 -0.4376  1.0061
 8492SOL    MW433742   2.186   5.942   2.005  0.7153  0.0954 -0.0686
 8493SOL     OW33743   0.239   1.852   2.484 -1.0184  0.2708 -0.0086
 8493SOL    HW233744   0.204   1.938   2.458 -1.8494  0.6124  2.0877
 8493SOL    HW333745   0.288   1.823   2.407  0.1456  3.0803 -0.4748
 8493SOL    MW433746   0.241   1.860   2.470 -0.1647 -0.2933  0.8362
 8494SOL     OW33747   3.432   2.274   5.544 -0.1795 -0.2226 -0.1094
 8494SOL    HW233748   3.514   2.237   5.511 -0.4684  0.5276 -1.7438
 8494SOL    HW333749   3.401   2.210   5.608  1.7389 -0.4593  0.6567
 8494SOL    MW433750   3.439   2.261   5.548 -0.1967 -0.1813 -0.1603
 8495SOL     OW33751   0.261   3.899   0.604  0.3318 -0.3165  0.5202
 8495SOL    HW233752   0.207   3.977   0.614 -1.3526 -0.6761 -3.6095
 8495SOL    HW333753   0.351   3.930   0.619 -0.4770  1.7661  1.4682
 8495SOL    MW433754   0.266   3.914   0.607 -0.1658 -0.1531 -0.4477
 8496SOL     OW33755   4.434   1.320   5.177 -0.5452 -0.3730  0.0163
 8496SOL    HW233756   4.473   1.237   5.203 -2.2937 -0.7162  1.9148
 8496SOL    HW333757   4.437   1.321   5.082  2.0463 -1.2896  0.0331
 8496SOL    MW433758   4.439   1.309   5.168  0.2741  0.3651  0.6120
 8497SOL     OW33759   2.940   1.316   2.841 -0.2051  0.0364 -0.4263
 8497SOL    HW233760   2.853   1.342   2.870  0.0502 -0.2699  0.6670
 8497SOL    HW333761   2.934   1.221   2.828 -0.1700  0.0907 -0.8672
 8497SOL    MW433762   2.928   1.307   2.843  0.2265 -0.5119 -0.1567
 8498SOL     OW33763   5.874   3.658   3.613  0.4460 -0.4560 -0.5307
 8498SOL    HW233764   5.805   3.681   3.551 -0.4804 -0.5117  0.4473
 8498SOL    HW333765   5.955   3.688   3.572 -0.4281  2.4681 -0.3572
 8498SOL    MW433766   5.875   3.665   3.599 -0.2167  0.5956 -0.3205
 8499SOL     OW33767   1.292   2.463   2.463 -0.4832 -0.4257 -0.0630
 8499SOL    HW233768   1.260   2.406   2.534 -1.7080  0.0786 -0.1819
 8499SOL    HW333769   1.217   2.519   2.442  0.7421  1.3479  0.1438
 8499SOL    MW433770   1.278   2.463   2.469 -0.7223  0.2552  0.4518
 8500SOL     OW33771   0.964   3.713   1.552 -0.4272 -0.1162  0.5058
 8500SOL    HW233772   0.995   3.772   1.483  2.3369  0.4381  2.0885
 8500SOL    HW333773   0.962   3.626   1.510  0.9790  0.2363 -0.3478
 8500SOL    MW433774   0.968   3.709   1.537 -0.0526 -0.0327 -0.3878
 8501SOL     OW33775   5.956   0.055   6.185 -0.2773 -0.2324  0.2646
 8501SOL    HW233776   5.869   0.076   6.220 -0.1516 -0.2772  0.6095
 8501SOL    HW333777   5.942  -0.021   6.129 -0.4507 -0.2862  0.3806
 8501SOL    MW433778   5.943   0.048   6.183  0.4898  0.0850 -0.3179
 8502SOL     OW33779   0.207   2.960   3.959 -0.5178  0.2953  0.5341
 8502SOL    HW233780   0.169   3.033   4.009  0.0845  0.7155  0.3899
 8502SOL    HW333781   0.277   2.927   4.014  1.4128  1.9742 -0.7631
 8502SOL    MW433782   0.211   2.965   3.973  0.3703 -0.4352  0.3710
 8503SOL     OW33783   1.318   0.094   3.994  0.5713 -0.2697  0.2568
 8503SOL    HW233784   1.380   0.148   4.042  0.5359  0.2986 -0.3193
 8503SOL    HW333785   1.372   0.043   3.934  0.4186  1.2029 -1.2016
 8503SOL    MW433786   1.333   0.094   3.992  0.2602 -0.3141  0.3584
 8504SOL     OW33787   2.609   5.812   5.662 -0.2270 -0.0704 -0.3620
 8504SOL    HW233788   2.572   5.900   5.663 -1.1175 -0.4429  0.1984
 8504SOL    HW333789   2.535   5.754   5.680  0.6029 -0.8272  0.7626
 8504SOL    MW433790   2.595   5.816   5.664  0.3608  0.1857 -0.2410
 8505SOL     OW33791   4.973   3.879   4.889  0.2065  0.3995 -0.3682
 8505SOL    HW233792   5.041   3.822   4.926  0.6404  2.5978  2.5893
 8505SOL    HW333793   5.010   3.908   4.805  2.8274  1.1997  0.9463
 8505SOL    MW433794   4.987   3.875   4.883  0.7008  0.3963 -0.0824
 8506SOL     OW33795   3.670   0.643   2.457  0.1898 -0.5997  0.2762
 8506SOL    HW233796   3.658   0.636   2.552  0.9941 -1.4349  0.3368
 8506SOL    HW333797   3.679   0.552   2.428  0.1820 -0.3368 -0.5682
 8506SOL    MW433798   3.670   0.630   2.466 -0.5759 -0.0203  0.3080
 8507SOL     OW33799   4.851   1.172   1.072  0.6102  0.2428  0.9304
 8507SOL    HW233800   4.834   1.205   0.984 -0.3778  1.8999  1.6883
 8507SOL    HW333801   4.931   1.217   1.099  1.1939 -0.6402  0.7252
 8507SOL    MW433802   4.860   1.182   1.064 -0.0089  0.6751 -0.5540
 8508SOL     OW33803   6.064   5.453   1.033  0.2679 -0.5042  1.1567
 8508SOL    HW233804   6.107   5.374   1.067 -1.5572 -2.3835 -0.5990
 8508SOL    HW333805   6.001   5.420   0.969 -0.8128  2.4004  0.5759
 8508SOL    MW433806   6.061   5.438   1.029 -0.0532 -0.1375 -0.1896
 8509SOL     OW33807   2.708   0.665   0.827 -0.3094  0.1550  0.0203
 8509SOL    HW233808   2.663   0.708   0.900 -0.2481 -0.8785  0.6918
 8509SOL    HW333809   2.773   0.609   0.869 -0.8890 -1.1574 -0.7695
 8509SOL    MW433810   2.711   0.663   0.842  0.1052 -0.4815  0.2114
 8510SOL     OW33811   4.889   0.379   6.168 -0.2274  0.0712  0.7843
 8510SOL    HW233812   4.890   0.458   6.220 -2.4277  1.5222 -1.1522
 8510SOL    HW333813   4.797   0.351   6.167 -0.2710 -0.0488 -1.9152
 8510SOL    MW433814   4.877   0.386   6.174  0.2434  0.3262 -0.8337
 8511SOL     OW33815   3.448   1.303   3.119  0.0888  0.3160 -0.3233
 8511SOL    HW233816   3.541   1.298   3.141  0.6860  0.3392 -2.6473
 8511SOL    HW333817   3.422   1.391   3.147 -0.0009 -0.5519  2.7658
 8511SOL    MW433818   3.457   1.314   3.126  0.4389 -0.0278  0.5041
 8512SOL     OW33819   0.572   5.877   5.508  0.2599 -0.1325  0.6071
 8512SOL    HW233820   0.527   5.953   5.545 -0.0664 -0.0403  0.0229
 8512SOL    HW333821   0.658   5.911   5.481  1.0086 -0.4727  2.4190
 8512SOL    MW433822   0.577   5.892   5.509  0.1625 -0.3591 -0.3825
 8513SOL     OW33823   6.185   2.552   5.326 -0.1012  0.1540 -0.2988
 8513SOL    HW233824   6.241   2.610   5.376 -0.2157 -0.3017  0.3673
 8513SOL    HW333825   6.142   2.609   5.262 -0.2804  0.8130  0.3983
 8513SOL    MW433826   6.186   2.567   5.324  0.8572  0.5788 -0.1919
 8514SOL     OW33827   2.061   0.859   0.144 -0.8184  0.3442 -0.4788
 8514SOL    HW233828   1.979   0.898   0.175  0.3247  2.8749 -0.3962
 8514SOL    HW333829   2.090   0.804   0.217 -2.0859 -0.0634 -0.2540
 8514SOL    MW433830   2.054   0.857   0.158 -0.0235 -0.0751  0.3139
 8515SOL     OW33831   2.267   3.177   5.260  0.8127 -0.0956 -0.1778
 8515SOL    HW233832   2.254   3.250   5.199  0.0287 -0.1724 -0.1186
 8515SOL    HW333833   2.301   3.219   5.340  1.7476  0.0140 -0.6209
 8515SOL    MW433834   2.269   3.192   5.263  0.5926 -0.2621 -0.4020
 8516SOL     OW33835   0.663   3.017   0.204 -0.2859  0.4235 -0.8466
 8516SOL    HW233836   0.726   3.082   0.172  1.1032 -1.2590 -1.7181
 8516SOL    HW333837   0.620   2.985   0.125 -0.4131 -0.2364 -0.5160
 8516SOL    MW433838   0.666   3.021   0.189 -0.1088  0.8607  0.1121
 8517SOL     OW33839   2.286   5.761   0.205  0.2282  0.5762  0.3642
 8517SOL    HW233840   2.256   5.819   0.275 -1.6809  0.9118 -0.6631
 8517SOL    HW333841   2.267   5.672   0.238 -0.8290  0.7370  0.2294
 8517SOL    MW433842   2.280   5.757   0.219 -0.7614 -0.2742  0.1646
 8518SOL     OW33843   0.225   1.655   4.648 -0.3568  0.3518  0.7822
 8518SOL    HW233844   0.292   1.699   4.595 -1.7880  0.0726 -1.3861
 8518SOL    HW333845   0.199   1.720   4.713 -0.9196  2.0075 -1.0191
 8518SOL    MW433846   0.230   1.669   4.650  0.4520  0.5387 -0.2734
 8519SOL     OW33847   3.140   6.183   0.911 -0.1034 -0.2563  0.3845
 8519SOL    HW233848   3.050   6.160   0.889 -0.2594  0.4801  0.2056
 8519SOL    HW333849   3.133   6.233   0.993 -0.2855  2.8209 -1.3524
 8519SOL    MW433850   3.127   6.187   0.919  0.3375 -0.2940 -0.0730
 8520SOL     OW33851   4.302   3.781   1.282 -0.1404 -0.5848  0.2897
 8520SOL    HW233852   4.219   3.798   1.238 -0.6700  2.4361  2.1839
 8520SOL    HW333853   4.293   3.691   1.315 -2.2089 -0.7225 -0.4951
 8520SOL    MW433854   4.290   3.771   1.281  0.2758 -0.3899 -0.1645
 8521SOL     OW33855   3.880   3.026   0.894 -0.1392  0.7776 -0.1907
 8521SOL    HW233856   3.793   2.999   0.924 -0.3928 -0.1596 -1.6463
 8521SOL    HW333857   3.866   3.113   0.855 -1.1547 -0.5732 -3.1840
 8521SOL    MW433858   3.867   3.034   0.893  0.0638  0.1945  0.2846
 8522SOL     OW33859   4.132   2.136   3.508  0.1538 -0.1625 -0.0030
 8522SOL    HW233860   4.198   2.205   3.518 -0.8112  0.6125  1.3397
 8522SOL    HW333861   4.054   2.171   3.552 -0.4884 -1.9541  0.3630
 8522SOL    MW433862   4.130   2.150   3.515  0.1117  0.3101  0.1658
 8523SOL     OW33863   2.402   1.039   5.957  0.1855  0.6003 -0.1892
 8523SOL    HW233864   2.489   1.049   5.995  1.1480 -2.8940 -1.0556
 8523SOL    HW333865   2.351   0.996   6.025  0.5959 -1.5264 -1.1174
 8523SOL    MW433866   2.407   1.035   5.971  0.1448  0.3352 -0.3433
 8524SOL     OW33867   1.607   5.587   5.347  0.2991  0.4438  0.1018
 8524SOL    HW233868   1.600   5.556   5.257  0.5323 -2.5419  1.0265
 8524SOL    HW333869   1.517   5.595   5.378  0.2356 -1.3295  0.4454
 8524SOL    MW433870   1.594   5.584   5.339 -0.3708  0.0001 -0.5587
 8525SOL     OW33871   6.062   4.934   1.847 -0.0977 -0.1611  0.2953
 8525SOL    HW233872   6.096   4.963   1.762  0.0638  1.3463  0.8504
 8525SOL    HW333873   6.116   4.858   1.870 -0.7435 -1.1841 -1.3451
 8525SOL    MW433874   6.074   4.928   1.839 -0.3956  0.4082 -0.2746
 8526SOL     OW33875   5.410   4.876   3.942  0.2385  0.3926 -0.1358
 8526SOL    HW233876   5.483   4.911   3.992  0.1663 -0.0990  0.3167
 8526SOL    HW333877   5.426   4.782   3.939 -0.7413  0.1962  0.5616
 8526SOL    MW433878   5.422   4.868   3.948 -0.5552 -0.0905  0.1188
 8527SOL     OW33879   3.104   2.693   3.978 -0.4544  0.4330  0.0441
 8527SOL    HW233880   3.144   2.779   3.988  0.3653  0.1026 -0.3543
 8527SOL    HW333881   3.120   2.669   3.887 -0.7817 -0.0931  0.1226
 8527SOL    MW433882   3.111   2.701   3.967 -0.4109  0.0769  0.6439
 8528SOL     OW33883   5.444   6.325   4.292 -0.0575  0.1789  0.0465
 8528SOL    HW233884   5.503   6.298   4.223  0.6019  1.1254  0.2209
 8528SOL    HW333885   5.456   6.420   4.299 -2.5038  0.6155 -0.7617
 8528SOL    MW433886   5.453   6.334   4.284 -0.2712  1.0747  0.3830
 8529SOL     OW33887   4.012   5.564   2.140 -1.0480  0.2782 -0.1202
 8529SOL    HW233888   4.052   5.483   2.174  0.5392  1.2426  0.4170
 8529SOL    HW333889   3.947   5.533   2.076 -0.5833 -1.4264  0.1671
 8529SOL    MW433890   4.009   5.549   2.136  0.1138  0.0328 -0.2000
 8530SOL     OW33891   0.429   3.232   2.615 -0.7536  0.6535 -0.5212
 8530SOL    HW233892   0.402   3.141   2.603 -1.8092  0.8478  0.3167
 8530SOL    HW333893   0.383   3.262   2.693  2.7055  0.6769  1.7406
 8530SOL    MW433894   0.420   3.224   2.624  0.0293 -0.3510 -0.2522
 8531SOL     OW33895   4.543   2.214   6.225 -0.1308  0.2432 -0.2675
 8531SOL    HW233896   4.476   2.196   6.159  1.2779  0.0354 -1.6985
 8531SOL    HW333897   4.587   2.293   6.193 -0.4862  1.1448  1.3371
 8531SOL    MW433898   4.540   2.222   6.212 -0.2297 -1.3033 -0.3586
 8532SOL     OW33899   6.390   5.346   4.689  0.4914 -0.0675 -0.1446
 8532SOL    HW233900   6.360   5.406   4.622 -1.5889 -2.5637 -1.6287
 8532SOL    HW333901   6.370   5.390   4.772 -2.1904  0.7725 -1.1407
 8532SOL    MW433902   6.383   5.360   4.691  0.2133 -0.3988 -0.6512
 8533SOL     OW33903   0.269   5.552   0.850 -0.1618  0.3779  0.2033
 8533SOL    HW233904   0.219   5.582   0.774  0.6501 -0.7151 -0.7985
 8533SOL    HW333905   0.354   5.595   0.841 -0.0811  0.2852  0.5245
 8533SOL    MW433906   0.274   5.562   0.838 -0.5027  0.8608 -0.1400
 8534SOL     OW33907   1.662   6.019   1.568 -0.1125 -0.3178 -0.4443
 8534SOL    HW233908   1.677   6.079   1.495  1.0657 -0.1815 -0.1091
 8534SOL    HW333909   1.720   5.945   1.551 -0.9001 -0.9622 -0.3900
 8534SOL    MW433910   1.672   6.018   1.556 -0.1369  0.3412 -0.6260
 8535SOL     OW33911   5.420   5.210   2.278 -0.2289 -0.2995  0.5469
 8535SOL    HW233912   5.359   5.157   2.226 -2.1649  0.1690  2.1735
 8535SOL    HW333913   5.374   5.293   2.290  1.0824  0.3533  1.2243
 8535SOL    MW433914   5.406   5.214   2.273 -0.1839  0.2231 -0.1957
 8536SOL     OW33915   4.507   3.332   6.400  0.1461  1.0198  0.5158
 8536SOL    HW233916   4.550   3.413   6.426  0.2277  1.5120 -1.0428
 8536SOL    HW333917   4.573   3.284   6.350 -0.0501  0.2013  1.0207
 8536SOL    MW433918   4.521   3.336   6.397  0.0957  0.4068  0.0292
 8537SOL     OW33919   0.461   5.047   5.391  0.4646 -0.3354  0.9387
 8537SOL    HW233920   0.499   5.134   5.402  0.7530 -0.6283  2.4359
 8537SOL    HW333921   0.492   4.998   5.467  0.0427 -1.6580  0.2828
 8537SOL    MW433922   0.470   5.052   5.402 -0.3409  0.8276 -0.6242
 8538SOL     OW33923   4.920   1.419   5.232 -0.0607 -0.5933  0.7920
 8538SOL    HW233924   4.826   1.438   5.237 -0.6087 -2.4011 -1.2063
 8538SOL    HW333925   4.961   1.505   5.217 -1.6296 -0.0237 -0.4700
 8538SOL    MW433926   4.913   1.433   5.231 -0.4799  0.8508 -0.0203
 8539SOL     OW33927   6.180   1.318   0.272 -0.1387 -0.1852 -0.2274
 8539SOL    HW233928   6.264   1.357   0.250 -0.2508  1.4067  1.8573
 8539SOL    HW333929   6.118   1.360   0.213  0.0321  1.4127  0.6836
 8539SOL    MW433930   6.183   1.329   0.262 -0.1022  0.2664 -0.5885
 8540SOL     OW33931   2.585   3.809   2.853 -0.0341 -0.4143  0.1387
 8540SOL    HW233932   2.563   3.901   2.840 -0.5058 -0.6303 -0.6844
 8540SOL    HW333933   2.542   3.784   2.935  1.0351  0.3822  0.9658
 8540SOL    MW433934   2.576   3.818   2.862 -0.2197 -0.2658  0.2560
 8541SOL     OW33935   3.618   4.030   5.314 -0.2677 -0.5962 -0.0824
 8541SOL    HW233936   3.690   4.080   5.276  0.4630 -0.4963  1.3751
 8541SOL    HW333937   3.553   4.026   5.244  0.3324  0.9962 -0.7953
 8541SOL    MW433938   3.619   4.036   5.300  0.5801  0.0146 -0.1176
 8542SOL     OW33939   0.314   4.481   6.140  0.5639 -0.2305  0.4518
 8542SOL    HW233940   0.233   4.438   6.165  0.9119 -2.4243 -1.8728
 8542SOL    HW333941   0.378   4.451   6.205  0.1532 -0.8064  0.5963
 8542SOL    MW433942   0.312   4.472   6.152  0.7456 -0.0960 -0.0983
 8543SOL     OW33943   1.263   3.583   6.247  0.3724 -0.3827 -0.0008
 8543SOL    HW233944   1.234   3.549   6.162 -2.6667  3.4012 -0.7809
 8543SOL    HW333945   1.185   3.578   6.303  1.4680 -0.0592  1.6495
 8543SOL    MW433946   1.249   3.578   6.243 -0.1801  0.0561 -0.1021
 8544SOL     OW33947   4.677   5.042   6.135 -0.4380  0.1102  0.4928
 8544SOL    HW233948   4.750   5.094   6.168  0.6129 -1.9034  1.5380
 8544SOL    HW333949   4.681   5.053   6.040  0.4178  1.0736  0.6236
 8544SOL    MW433950   4.687   5.050   6.126  0.0285  0.0791 -0.5733
 8545SOL     OW33951   1.882   1.367   5.857 -0.2248 -0.0615 -0.0696
 8545SOL    HW233952   1.925   1.432   5.802 -0.8495  0.9003  0.5323
 8545SOL    HW333953   1.935   1.363   5.936  0.0754 -0.6468 -0.2940
 8545SOL    MW433954   1.895   1.375   5.860 -0.0140  0.0953 -0.1419
 8546SOL     OW33955   4.223   4.272   0.869 -0.2807 -0.3757 -0.2435
 8546SOL    HW233956   4.174   4.354   0.866 -2.6831 -1.7056 -3.0076
 8546SOL    HW333957   4.276   4.273   0.789  1.2452 -0.7161  0.7178
 8546SOL    MW433958   4.224   4.283   0.858 -0.6081 -0.3777 -0.2263
 8547SOL     OW33959   1.023   1.381   3.589  0.7119  0.7688 -0.4186
 8547SOL    HW233960   1.112   1.408   3.610  0.9851  0.1179 -0.7349
 8547SOL    HW333961   0.968   1.452   3.623  0.9609 -0.7597  3.7696
 8547SOL    MW433962   1.027   1.394   3.596 -0.3354 -0.2166 -0.4588
 8548SOL     OW33963   3.854   2.582   3.664  0.9639 -0.5409 -0.0945
 8548SOL    HW233964   3.856   2.601   3.758 -0.0278  0.7802 -0.3036
 8548SOL    HW333965   3.768   2.543   3.649  1.4279 -1.5085 -0.3499
 8548SOL    MW433966   3.843   2.579   3.674  0.4869 -0.1375  0.5497
 8549SOL     OW33967   6.400   4.769   0.425  0.2646  0.2557 -0.4441
 8549SOL    HW233968   6.455   4.723   0.489 -0.1644  0.0838 -0.1955
 8549SOL    HW333969   6.428   4.735   0.340 -0.9318 -1.4520 -0.1995
 8549SOL    MW433970   6.411   4.758   0.422 -0.0227  0.0055 -0.8005
 8550SOL     OW33971   2.186   1.099   5.807 -0.1592  0.1330  0.2188
 8550SOL    HW233972   2.178   1.195   5.805 -1.2402  0.0693  0.8617
 8550SOL    HW333973   2.267   1.083   5.856  0.6619  0.7199 -0.8928
 8550SOL    MW433974   2.196   1.110   5.813 -0.7699  0.0335  0.0070
 8551SOL     OW33975   0.959   4.387   5.309 -0.3684  0.1057  0.1160
 8551SOL    HW233976   0.937   4.299   5.281 -0.3841  0.5220 -1.2700
 8551SOL    HW333977   0.920   4.396   5.396 -1.8577 -0.6615 -0.4475
 8551SOL    MW433978   0.951   4.377   5.317  0.1906  0.2940 -0.1223
 8552SOL     OW33979   4.647   3.250   1.462 -0.0428 -0.0578  0.1263
 8552SOL    HW233980   4.621   3.305   1.388 -0.1189 -1.2311 -0.7437
 8552SOL    HW333981   4.656   3.162   1.425 -1.5711 -0.9951  1.8048
 8552SOL    MW433982   4.645   3.246   1.448  0.1184 -0.1540  0.5691
 8553SOL     OW33983   1.589   3.430   4.027 -0.1828  0.2792 -0.1541
 8553SOL    HW233984   1.554   3.500   3.972  0.2930  0.7121  0.0920
 8553SOL    HW333985   1.607   3.359   3.965 -1.4037  0.0684 -0.3021
 8553SOL    MW433986   1.587   3.430   4.011 -0.4803  0.0826  0.0441
 8554SOL     OW33987   4.976   4.973   5.939  0.4382 -0.2914 -0.3854
 8554SOL    HW233988   4.910   4.914   5.901 -0.2448  0.8723 -1.0704
 8554SOL    HW333989   5.025   5.004   5.864  1.2628 -0.5263  0.0491
 8554SOL    MW433990   4.974   4.969   5.924  0.1887  0.4507 -0.1864
 8555SOL     OW33991   6.077   1.458   0.071  0.1686 -0.7844 -0.2656
 8555SOL    HW233992   5.985   1.479   0.058 -0.0282 -1.1782  0.4262
 8555SOL    HW333993   6.106   1.423  -0.013 -0.2417 -0.4095 -0.5633
 8555SOL    MW433994   6.069   1.456   0.058  0.0850  0.1727 -0.2528
 8556SOL     OW33995   3.546   3.889   4.134  0.0719 -0.3228 -0.3419
 8556SOL    HW233996   3.639   3.867   4.129  0.2549  0.6012 -1.3098
 8556SOL    HW333997   3.544   3.977   4.173 -0.4633 -0.7318  0.5881
 8556SOL    MW433998   3.558   3.898   4.139 -0.2644  0.3373 -0.0312
 8557SOL     OW33999   3.644   4.446   2.463 -0.5262 -0.1950  0.3731
 8557SOL    HW234000   3.584   4.386   2.418 -0.2568 -0.0710 -0.1540
 8557SOL    HW334001   3.704   4.476   2.395  0.1203 -0.2950  0.8895
 8557SOL    MW434002   3.644   4.442   2.448  0.0846 -0.4559  0.0866
 8558SOL     OW34003   5.194   3.269   3.641 -0.0566 -0.4043 -0.4311
 8558SOL    HW234004   5.280   3.269   3.685  0.5933 -2.5565 -1.5603
 8558SOL    HW334005   5.132   3.251   3.711  0.3546  1.2041  0.4123
 8558SOL    MW434006   5.197   3.267   3.656  0.0707  0.0169 -0.1088
 8559SOL     OW34007   5.786   3.730   1.040 -0.4055 -0.6857  0.4552
 8559SOL    HW234008   5.703   3.707   0.998 -1.4951 -0.5908  2.4196
 8559SOL    HW334009   5.770   3.818   1.076  0.6298 -0.5813  0.6753
 8559SOL    MW434010   5.773   3.739   1.039 -0.6348  0.0900  0.8265
 8560SOL     OW34011   5.508   2.014   4.532 -0.3652 -0.0434 -0.0557
 8560SOL    HW234012   5.517   2.104   4.564  2.7551  0.1684 -1.1725
 8560SOL    HW334013   5.464   1.968   4.603  1.0544  1.6320  2.0497
 8560SOL    MW434014   5.503   2.020   4.545 -0.4629 -0.8748  0.1518
 8561SOL     OW34015   4.349   4.936   2.087 -0.4520  0.2188  0.1026
 8561SOL    HW234016   4.337   4.889   2.005 -1.1672 -0.4104  0.5516
 8561SOL    HW334017   4.432   4.903   2.122 -1.0832 -0.9594  0.5540
 8561SOL    MW434018   4.358   4.925   2.081  0.1617  0.7626  0.3070
 8562SOL     OW34019   4.218   2.425   0.653 -0.7043 -0.2081 -0.1568
 8562SOL    HW234020   4.303   2.466   0.666 -1.0330  1.1336 -1.8722
 8562SOL    HW334021   4.177   2.428   0.740  0.5653  0.1130  0.4597
 8562SOL    MW434022   4.224   2.431   0.666 -0.1631 -0.5806  0.5405
 8563SOL     OW34023   4.495   0.268   0.596 -0.0210 -0.2285 -0.9107
 8563SOL    HW234024   4.521   0.177   0.613 -1.8489 -1.1223 -2.5550
 8563SOL    HW334025   4.492   0.274   0.500  2.1381  2.2431 -0.9370
 8563SOL    MW434026   4.498   0.257   0.585  0.0394  0.2438 -0.0236
 8564SOL     OW34027   5.824   0.305   2.056  0.0870 -0.2072  0.2207
 8564SOL    HW234028   5.858   0.343   2.137  1.0647 -0.6889  0.0520
 8564SOL    HW334029   5.731   0.294   2.072  0.0174  1.0164  0.7575
 8564SOL    MW434030   5.816   0.309   2.069  0.2819 -0.2732 -0.0721
 8565SOL     OW34031   3.996   2.759   0.853  0.3630 -0.3006 -0.2601
 8565SOL    HW234032   3.964   2.846   0.828 -0.6967 -1.4881 -3.6009
 8565SOL    HW334033   3.959   2.701   0.786  1.4032 -3.2701  1.5976
 8565SOL    MW434034   3.987   2.763   0.841 -0.8616  0.1212  0.2412
 8566SOL     OW34035   6.072   5.523   5.664  0.1536  0.0861 -0.2430
 8566SOL    HW234036   6.144   5.570   5.622  1.8736  0.2038  2.5409
 8566SOL    HW334037   6.108   5.436   5.682 -0.6084 -0.0543  0.6541
 8566SOL    MW434038   6.087   5.518   5.661  0.0646 -0.4772 -0.0853
 8567SOL     OW34039   0.002   1.591   1.068  0.0890  0.1565  0.2057
 8567SOL    HW234040   0.030   1.645   1.142 -0.0832  0.2089  0.2337
 8567SOL    HW334041   0.012   1.648   0.992  0.5220  0.0135  0.1549
 8567SOL    MW434042   0.007   1.605   1.068  0.6139  0.4387 -0.0027
 8568SOL     OW34043   3.736   3.299   2.196  0.5959  0.0296  0.6506
 8568SOL    HW234044   3.749   3.365   2.128 -0.3772 -0.1335  0.3048
 8568SOL    HW334045   3.755   3.216   2.153 -0.9354 -0.1620  0.2951
 8568SOL    MW434046   3.740   3.297   2.181  0.5150  0.0605  0.5021
 8569SOL     OW34047   5.274   1.088   4.604  0.4649  0.3640 -0.0946
 8569SOL    HW234048   5.356   1.048   4.633  1.0044  1.7685  0.4216
 8569SOL    HW334049   5.206   1.036   4.646  1.0225 -1.4590 -1.3352
 8569SOL    MW434050   5.276   1.076   4.613  0.3067 -0.0113 -0.2673
 8570SOL     OW34051   2.187   0.331   4.102 -0.1670  0.9234 -0.4933
 8570SOL    HW234052   2.269   0.362   4.141 -0.5625  2.3271 -0.7193
 8570SOL    HW334053   2.118   0.367   4.158 -0.6438 -1.1743  0.3523
 8570SOL    MW434054   2.189   0.340   4.115 -0.5416  0.2413  0.4667
 8571SOL     OW34055   4.836   5.886   1.194  0.2113 -0.1688  0.1213
 8571SOL    HW234056   4.841   5.797   1.160  0.2686 -0.2073  0.2332
 8571SOL    HW334057   4.751   5.918   1.163  0.0708 -0.3569  0.3173
 8571SOL    MW434058   4.825   5.879   1.185  0.0010  0.9222 -0.0082
 8572SOL     OW34059   5.037   4.766   0.516  0.1636 -0.1318  0.0774
 8572SOL    HW234060   5.089   4.700   0.562  0.0866 -0.7180 -0.6581
 8572SOL    HW334061   5.052   4.748   0.423 -0.8770  0.0825 -0.1432
 8572SOL    MW434062   5.046   4.755   0.510  0.6386 -0.4273  0.1361
 8573SOL     OW34063   3.007   5.286   0.130  0.4482 -0.2663 -0.2307
 8573SOL    HW234064   3.020   5.366   0.181 -1.3321 -1.0859  1.6900
 8573SOL    HW334065   2.926   5.249   0.164  0.7848 -2.4869 -1.6124
 8573SOL    MW434066   2.998   5.291   0.141  0.1882 -0.3486 -0.7416
 8574SOL     OW34067   1.188   4.791   1.043  0.0067  0.1952  0.2183
 8574SOL    HW234068   1.103   4.797   1.088  0.6024  1.2944  1.2823
 8574SOL    HW334069   1.166   4.793   0.950 -1.1964 -0.7784  0.4496
 8574SOL    MW434070   1.174   4.792   1.037  0.0894 -0.0829  0.1262
 8575SOL     OW34071   3.959   1.462   4.482 -0.0629  0.1562 -0.1743
 8575SOL    HW234072   4.053   1.454   4.464  0.0265  2.2555 -0.8442
 8575SOL    HW334073   3.955   1.487   4.575  0.0301  0.0391 -0.1379
 8575SOL    MW434074   3.971   1.464   4.492  0.0366  0.5857 -0.3388
 8576SOL     OW34075   3.012   4.845   6.420 -1.1426 -0.0268 -0.9682
 8576SOL    HW234076   3.047   4.912   6.479  1.6132 -1.1778 -1.0949
 8576SOL    HW334077   3.054   4.863   6.336  0.4747 -2.3691 -0.7645
 8576SOL    MW434078   3.023   4.856   6.417  0.1974  0.0950 -0.0298
 8577SOL     OW34079   4.355   5.695   5.588 -0.2776  0.1978  0.2706
 8577SOL    HW234080   4.275   5.650   5.613  0.0988 -2.1676 -2.2437
 8577SOL    HW334081   4.384   5.650   5.508  1.8317  3.0287 -0.7469
 8577SOL    MW434082   4.348   5.683   5.580 -0.2413 -0.6308  0.0193
 8578SOL     OW34083   4.001   2.673   1.189  0.6667  0.5003  0.1117
 8578SOL    HW234084   3.969   2.583   1.192  0.9957  0.4025  1.6415
 8578SOL    HW334085   3.993   2.698   1.097  1.6653 -1.4730 -0.5716
 8578SOL    MW434086   3.996   2.665   1.178 -0.0631 -0.3434  0.2241
 8579SOL     OW34087   0.825   3.657   4.230 -0.0987  0.5679  0.6474
 8579SOL    HW234088   0.782   3.621   4.308 -0.5744  1.2944  0.7227
 8579SOL    HW334089   0.762   3.719   4.194  0.4474  0.8344  0.1387
 8579SOL    MW434090   0.811   3.660   4.236 -0.0145 -0.4904 -0.3837
 8580SOL     OW34091   3.990   3.403   0.294 -0.3243 -0.5448 -0.1984
 8580SOL    HW234092   4.039   3.465   0.348 -2.5712  0.6367  0.6390
 8580SOL    HW334093   3.971   3.329   0.352  2.5761 -2.2891 -1.2698
 8580SOL    MW434094   3.994   3.402   0.308 -0.3521 -0.1851 -0.4037
 8581SOL     OW34095   0.362   4.916   0.147  0.0760 -0.0366 -0.9299
 8581SOL    HW234096   0.287   4.902   0.090  1.1852  0.0071 -2.4805
 8581SOL    HW334097   0.330   4.897   0.235 -1.5348 -0.7594 -1.6376
 8581SOL    MW434098   0.348   4.912   0.151 -0.4209 -0.2654  0.6816
 8582SOL     OW34099   6.292   2.997   2.463  0.1858 -0.1354  0.1232
 8582SOL    HW234100   6.380   2.959   2.465 -0.1969 -1.1041 -0.5799
 8582SOL    HW334101   6.292   3.051   2.384  0.6188  1.0865  0.9370
 8582SOL    MW434102   6.303   2.999   2.452 -0.5671 -0.0792 -0.2393
 8583SOL     OW34103   3.654   4.698   0.805 -0.0704  0.0658 -0.2823
 8583SOL    HW234104   3.750   4.694   0.810 -0.0792 -2.6443 -0.9897
 8583SOL    HW334105   3.624   4.662   0.889 -0.4487 -0.6931 -0.7363
 8583SOL    MW434106   3.663   4.693   0.817  0.3014 -0.4153  0.4984
 8584SOL     OW34107   5.531   5.857   2.191 -0.0457  0.1837  0.6848
 8584SOL    HW234108   5.539   5.934   2.134  0.4725  0.0709  0.6012
 8584SOL    HW334109   5.479   5.888   2.266 -1.7796  0.0218 -0.3949
 8584SOL    MW434110   5.525   5.871   2.194 -0.1627  0.5017 -0.2594
 8585SOL     OW34111   6.185   5.217   1.361  0.8626 -0.5339 -0.1129
 8585SOL    HW234112   6.215   5.274   1.431 -0.5100 -1.4715  1.3188
 8585SOL    HW334113   6.244   5.141   1.366  0.1947 -1.0267  0.7102
 8585SOL    MW434114   6.197   5.214   1.371 -0.4325  0.2549  0.0124
 8586SOL     OW34115   1.418   0.380   2.371  0.0048  0.1711  0.1385
 8586SOL    HW234116   1.366   0.312   2.328  1.5653 -0.8176 -0.2545
 8586SOL    HW334117   1.470   0.333   2.436 -0.1223  1.2379  1.0499
 8586SOL    MW434118   1.418   0.365   2.374  0.1525  0.7112 -1.0898
 8587SOL     OW34119   2.880   1.510   5.234 -0.0378  0.0613  0.4715
 8587SOL    HW234120   2.894   1.521   5.140 -1.5617 -1.9293 -0.0728
 8587SOL    HW334121   2.863   1.416   5.244  0.3761  0.1834  2.7894
 8587SOL    MW434122   2.879   1.499   5.223 -0.1915  1.4111 -0.2447
 8588SOL     OW34123   5.273   3.151   0.600  0.0477 -0.1682 -0.2946
 8588SOL    HW234124   5.213   3.131   0.672  0.0445  2.0852  0.3943
 8588SOL    HW334125   5.336   3.079   0.602 -0.2688 -0.4598  1.5936
 8588SOL    MW434126   5.273   3.139   0.610  0.6131 -0.3331 -0.2894
 8589SOL     OW34127   2.121   5.279   3.039  0.1820  0.1803 -0.2136
 8589SOL    HW234128   2.134   5.373   3.042  1.0794  0.0581 -0.2224
 8589SOL    HW334129   2.089   5.257   3.127 -1.4552  0.6733 -0.6374
 8589SOL    MW434130   2.118   5.288   3.051  1.0435  0.6801  0.1068
 8590SOL     OW34131   3.255   3.781   6.215  0.1113  0.5637  0.7404
 8590SOL    HW234132   3.273   3.785   6.309  0.2601  0.3353  0.7209
 8590SOL    HW334133   3.264   3.871   6.185  1.1106  0.4758  0.7455
 8590SOL    MW434134   3.258   3.793   6.224  0.2166 -0.4103 -0.2690
 8591SOL     OW34135   1.497   1.129   1.774 -0.6718  0.3126 -0.1216
 8591SOL    HW234136   1.499   1.219   1.743 -2.8629  0.1190 -1.0271
 8591SOL    HW334137   1.483   1.076   1.695  0.2037 -0.7949  0.4331
 8591SOL    MW434138   1.495   1.134   1.759 -0.1481 -0.4423  0.1132
 8592SOL     OW34139   3.706   3.644   4.866  0.0236 -0.4928  0.5891
 8592SOL    HW234140   3.652   3.569   4.840 -0.5754  0.4131 -0.8469
 8592SOL    HW334141   3.643   3.710   4.895  0.5780 -0.7354  2.5215
 8592SOL    MW434142   3.690   3.643   4.867  0.2767 -0.1141  0.2760
 8593SOL     OW34143   2.633   5.958   3.596 -0.2465  0.1691 -0.0616
 8593SOL    HW234144   2.693   6.031   3.609  0.1800 -0.0405 -0.8324
 8593SOL    HW334145   2.657   5.896   3.666  1.1570 -0.3737 -0.9766
 8593SOL    MW434146   2.644   5.959   3.607  0.0979 -0.2043 -0.0961
 8594SOL     OW34147   3.908   5.590   4.417  0.5421  0.2223  0.6391
 8594SOL    HW234148   3.994   5.574   4.378  0.9210  3.1224  0.0208
 8594SOL    HW334149   3.923   5.659   4.482 -0.9106 -1.1421  2.5747
 8594SOL    MW434150   3.921   5.597   4.420  0.3904  0.2931  0.4779
 8595SOL     OW34151   0.653   5.343   3.225  0.6983 -0.5351  0.3741
 8595SOL    HW234152   0.736   5.379   3.256  0.9108 -1.0360  0.3959
 8595SOL    HW334153   0.665   5.332   3.131  0.3080  0.3048  0.2169
 8595SOL    MW434154   0.665   5.346   3.217 -0.6096  0.2715 -0.0266
 8596SOL     OW34155   4.635   5.351   4.933  0.4694  0.6262  1.0137
 8596SOL    HW234156   4.659   5.291   4.863 -2.2526 -0.3857  0.8346
 8596SOL    HW334157   4.665   5.309   5.013 -0.5747 -0.5666  0.8053
 8596SOL    MW434158   4.642   5.338   4.935 -1.0209 -0.0795 -0.2195
 8597SOL     OW34159   3.718   4.476   1.405  0.8902  0.2879  0.1161
 8597SOL    HW234160   3.637   4.453   1.359 -0.7883  0.0872  2.9226
 8597SOL    HW334161   3.737   4.565   1.378  0.1330  0.0961 -1.1143
 8597SOL    MW434162   3.710   4.485   1.395  0.4789 -0.1945  0.1674
 8598SOL     OW34163   2.426   3.279   0.495 -1.2095 -0.1174 -0.3317
 8598SOL    HW234164   2.474   3.357   0.525 -0.2884 -0.8500  0.1713
 8598SOL    HW334165   2.441   3.214   0.564 -2.2486 -0.6418 -0.5780
 8598SOL    MW434166   2.435   3.281   0.508  0.0718 -0.0889  0.2705
 8599SOL     OW34167   2.012   0.274   2.561 -0.3676  0.3947 -0.1297
 8599SOL    HW234168   2.064   0.351   2.584 -0.2322  0.2292  0.1254
 8599SOL    HW334169   1.995   0.231   2.645  1.6862 -1.2191 -0.4591
 8599SOL    MW434170   2.016   0.278   2.575  0.0665 -0.0165 -0.9081
 8600SOL     OW34171   0.114   2.452   3.347  0.0522  0.3516  0.4342
 8600SOL    HW234172   0.166   2.428   3.424  0.5143 -2.8629 -0.6929
 8600SOL    HW334173   0.023   2.449   3.377  0.0846 -2.7821  0.6039
 8600SOL    MW434174   0.109   2.448   3.361 -0.1653 -0.1456 -0.2395
 8601SOL     OW34175   1.484   6.253   1.715 -0.3870  0.2168 -0.0487
 8601SOL    HW234176   1.538   6.324   1.680 -0.9475  1.3433  1.2969
 8601SOL    HW334177   1.525   6.173   1.681  0.1857  1.1670 -1.6827
 8601SOL    MW434178   1.497   6.252   1.706  0.1158  0.2600 -0.5860
 8602SOL     OW34179   0.562   2.901   2.028 -0.1100 -0.3723  0.3830
 8602SOL    HW234180   0.539   2.994   2.021 -2.0571 -0.7660  0.9575
 8602SOL    HW334181   0.658   2.900   2.027 -0.0572  1.5450 -0.6364
 8602SOL    MW434182   0.572   2.913   2.027  0.1441 -0.6277 -0.5445
 8603SOL     OW34183   4.566   0.181   1.984 -0.2291  0.8832 -0.6499
 8603SOL    HW234184   4.621   0.124   1.929 -1.0405  1.2064 -1.8224
 8603SOL    HW334185   4.477   0.166   1.953 -0.9930 -0.3357  1.8406
 8603SOL    MW434186   4.562   0.171   1.973 -0.4897 -0.6973  0.5517
 8604SOL     OW34187   6.395   2.346   0.528 -0.1781 -0.0130 -0.1755
 8604SOL    HW234188   6.399   2.283   0.600 -0.1695  0.5940  0.3660
 8604SOL    HW334189   6.352   2.299   0.456 -0.3736 -0.5600  0.2973
 8604SOL    MW434190   6.390   2.332   0.528 -0.1504  0.0348 -0.4865
 8605SOL     OW34191   0.440   3.501   4.492  0.1711 -0.0290  0.3291
 8605SOL    HW234192   0.485   3.424   4.459  1.9014  0.7697  0.7153
 8605SOL    HW334193   0.463   3.504   4.585 -0.5630  0.4890  0.5048
 8605SOL    MW434194   0.449   3.492   4.500  0.1189 -0.5292 -0.3100
 8606SOL     OW34195   1.693   5.346   2.095 -0.1585 -0.3867  0.2072
 8606SOL    HW234196   1.616   5.389   2.057 -0.1101 -0.8683 -0.4595
 8606SOL    HW334197   1.733   5.299   2.021  0.9342  0.0800  0.4800
 8606SOL    MW434198   1.688   5.346   2.080  0.0137  0.2316  0.8776
 8607SOL     OW34199   4.446   5.060   0.443  0.3355  0.1898 -0.1055
 8607SOL    HW234200   4.398   5.110   0.376 -0.3566  0.8802  0.8785
 8607SOL    HW334201   4.413   4.971   0.434 -1.2640  0.6778  0.6411
 8607SOL    MW434202   4.435   5.055   0.433  0.0859 -0.4239  0.3323
 8608SOL     OW34203   2.803   3.593   2.841  0.0637  0.2571 -0.5939
 8608SOL    HW234204   2.863   3.617   2.911 -0.9356  1.0113  0.0297
 8608SOL    HW334205   2.722   3.640   2.861 -0.3467  0.2441 -2.0816
 8608SOL    MW434206   2.800   3.602   2.853  0.3488  0.0562  0.0591
 8609SOL     OW34207   5.276   5.490   3.522 -0.3039  0.4570 -0.2263
 8609SOL    HW234208   5.213   5.499   3.594 -1.4074 -0.1893 -1.0853
 8609SOL    HW334209   5.341   5.428   3.556 -0.5797  0.4782  0.3647
 8609SOL    MW434210   5.276   5.483   3.536  0.0388  0.1077 -0.1084
 8610SOL     OW34211   4.731   4.902   3.958 -0.5658  0.1150  0.2222
 8610SOL    HW234212   4.786   4.842   4.009  1.0755  0.6110 -0.8970
 8610SOL    HW334213   4.777   4.986   3.961 -1.7286  0.7842 -0.0118
 8610SOL    MW434214   4.744   4.905   3.965  0.0102  0.2761  0.4479
 8611SOL     OW34215   2.218   5.899   4.649  0.2992  0.4174  0.1368
 8611SOL    HW234216   2.251   5.954   4.720 -0.6397  0.0579  0.8901
 8611SOL    HW334217   2.144   5.948   4.613  0.8747  0.6697 -0.7094
 8611SOL    MW434218   2.212   5.913   4.654  1.3462 -0.0443  0.0246
 8612SOL     OW34219   2.868   2.270   4.526  0.1055  0.1474  0.6264
 8612SOL    HW234220   2.883   2.364   4.537 -0.1934  0.4267 -1.0340
 8612SOL    HW334221   2.775   2.263   4.504  0.1102 -0.5459  0.8040
 8612SOL    MW434222   2.858   2.281   4.524  0.3955 -0.6378  0.3982
 8613SOL     OW34223   3.653   4.314   0.304  0.0508 -0.4761 -0.2257
 8613SOL    HW234224   3.678   4.230   0.343  1.2924  0.3087  0.7394
 8613SOL    HW334225   3.574   4.339   0.351 -0.2797 -1.0581 -0.4612
 8613SOL    MW434226   3.646   4.306   0.315  0.3882 -0.3003  0.9758
 8614SOL     OW34227   5.918   3.873   6.199  0.0467 -0.3825 -0.0144
 8614SOL    HW234228   5.930   3.916   6.114  1.6465 -1.7305 -0.5357
 8614SOL    HW334229   5.828   3.840   6.196 -1.1396  2.4897  0.2768
 8614SOL    MW434230   5.908   3.875   6.187 -0.1714 -0.0065 -0.4240
 8615SOL     OW34231   4.354   4.978   5.915 -0.0984 -0.1505  0.5601
 8615SOL    HW234232   4.285   4.946   5.857  1.4525 -0.1148 -1.4165
 8615SOL    HW334233   4.324   5.064   5.943 -1.0208 -0.3001  0.0614
 8615SOL    MW434234   4.341   4.985   5.911 -0.2100  0.3675 -0.0151
 8616SOL     OW34235   6.208   3.985   0.063  0.2978 -0.3745  0.1026
 8616SOL    HW234236   6.120   3.955   0.041  1.5627 -2.7947 -2.0227
 8616SOL    HW334237   6.211   4.075   0.029 -2.0377  0.7523  2.4270
 8616SOL    MW434238   6.197   3.993   0.056  0.1800 -0.0447 -0.2448
 8617SOL     OW34239   3.218   0.844   0.827 -0.7127 -0.5729  0.6147
 8617SOL    HW234240   3.265   0.901   0.767  0.7138 -1.6261  0.6796
 8617SOL    HW334241   3.205   0.897   0.906  0.5620 -0.3191  0.6707
 8617SOL    MW434242   3.222   0.858   0.829 -0.0183 -0.4289  0.1264
 8618SOL     OW34243   6.067   2.314   0.314  0.5433  0.4668 -0.5128
 8618SOL    HW234244   6.059   2.322   0.409  2.6805 -1.7867 -0.0370
 8618SOL    HW334245   6.006   2.245   0.290  1.3242 -0.2605 -0.4584
 8618SOL    MW434246   6.058   2.306   0.323 -0.0069 -0.1539 -0.1203
 8619SOL     OW34247   3.404   3.230   4.044  0.2000 -0.3256  0.2401
 8619SOL    HW234248   3.444   3.229   4.131 -1.1913  1.7502  1.0011
 8619SOL    HW334249   3.452   3.297   3.995  0.1477 -0.5614 -0.1387
 8619SOL    MW434250   3.415   3.239   4.049 -0.1964  0.4026 -0.1294
 8620SOL     OW34251   6.286   3.995   2.438 -0.0593 -0.1139  0.1631
 8620SOL    HW234252   6.324   3.912   2.467 -0.2425 -0.4764 -0.6119
 8620SOL    HW334253   6.205   3.970   2.395 -0.4445  0.5323  0.5049
 8620SOL    MW434254   6.281   3.981   2.436 -0.0830  0.5089  0.0135
 8621SOL     OW34255   6.195   1.935   5.800  0.2869 -0.5617  0.1655
 8621SOL    HW234256   6.222   2.006   5.741 -0.5397  0.5919  1.1325
 8621SOL    HW334257   6.268   1.924   5.860  0.5565 -0.7784 -0.1986
 8621SOL    MW434258   6.208   1.943   5.800 -0.2132  0.4632 -0.1480
 8622SOL     OW34259   3.553   4.528   1.716 -0.3904 -0.1095  0.1023
 8622SOL    HW234260   3.564   4.433   1.724 -0.4168 -0.2415 -1.2227
 8622SOL    HW334261   3.542   4.558   1.806  0.9614 -1.1941  0.6761
 8622SOL    MW434262   3.553   4.520   1.729  0.2705 -0.2260  0.1123
 8623SOL     OW34263   2.207   6.108   5.848 -0.5635  0.3061  0.0573
 8623SOL    HW234264   2.260   6.065   5.916  0.9253  0.8814 -0.6981
 8623SOL    HW334265   2.126   6.131   5.893  0.3234  0.5642  1.6267
 8623SOL    MW434266   2.204   6.105   5.863 -0.0607 -0.0749 -0.4262
 8624SOL     OW34267   3.773   2.756   4.876  0.2378 -0.2664 -0.0547
 8624SOL    HW234268   3.830   2.726   4.805  0.7254  0.1380  0.1635
 8624SOL    HW334269   3.823   2.825   4.920  0.1769 -0.9097  1.0530
 8624SOL    MW434270   3.787   2.761   4.872  0.9762 -0.0395 -0.5843
 8625SOL     OW34271   5.424   3.226   1.160  0.3444 -0.3000 -0.2948
 8625SOL    HW234272   5.366   3.238   1.235 -1.2551 -1.9544 -1.1820
 8625SOL    HW334273   5.394   3.291   1.096  1.1014  0.4843  0.1281
 8625SOL    MW434274   5.412   3.236   1.161  0.8260  0.6252 -0.5130
 8626SOL     OW34275   4.377   1.493   5.657 -0.4086  0.2605 -0.2155
 8626SOL    HW234276   4.364   1.564   5.720  0.2549 -0.0288  0.2610
 8626SOL    HW334277   4.454   1.520   5.606  0.0009 -0.2140  0.1325
 8626SOL    MW434278   4.386   1.506   5.658  0.6226 -0.3078 -0.2454
 8627SOL     OW34279   5.833   0.929   6.292 -0.1673  0.5245 -0.6102
 8627SOL    HW234280   5.829   1.015   6.334  0.0168 -0.3491  1.3299
 8627SOL    HW334281   5.921   0.924   6.254  1.5169 -0.2905  2.9184
 8627SOL    MW434282   5.844   0.939   6.293 -0.2994 -0.2568 -0.2758
 8628SOL     OW34283   0.412   0.045   2.137  0.3802 -0.3528  0.9302
 8628SOL    HW234284   0.412   0.037   2.042 -0.1951  0.1114  0.8843
 8628SOL    HW334285   0.490   0.097   2.157  1.0146 -1.2212  0.7965
 8628SOL    MW434286   0.422   0.051   2.127 -0.5266  0.0624  0.5000
 8629SOL     OW34287   3.678   2.244   3.494 -0.2225  0.0466  0.3355
 8629SOL    HW234288   3.636   2.176   3.547  2.9420 -1.2064  1.5217
 8629SOL    HW334289   3.648   2.228   3.405 -0.5707 -2.1216  0.7921
 8629SOL    MW434290   3.669   2.233   3.489 -0.2468  0.0765  0.2333
 8630SOL     OW34291   4.026   4.864   5.852  0.4667 -0.1968  0.1643
 8630SOL    HW234292   4.023   4.933   5.919 -1.2283  0.7753 -0.8432
 8630SOL    HW334293   4.017   4.782   5.902 -0.0971  0.4716  1.1837
 8630SOL    MW434294   4.024   4.862   5.868  0.5846  0.0984 -0.0590
 8631SOL     OW34295   4.457   1.360   2.319 -0.0490  0.3632 -0.9399
 8631SOL    HW234296   4.411   1.440   2.344 -0.4098  0.4444 -1.8217
 8631SOL    HW334297   4.499   1.382   2.236  0.7037 -0.0460 -0.6676
 8631SOL    MW434298   4.456   1.373   2.311 -0.7474 -0.2507  0.4634
 8632SOL     OW34299   5.223   2.568   5.475  0.2751  0.0993 -0.0060
 8632SOL    HW234300   5.295   2.628   5.495  1.7132 -2.0218  1.5310
 8632SOL    HW334301   5.147   2.609   5.515  0.9574  1.4603 -0.0234
 8632SOL    MW434302   5.223   2.581   5.483 -0.2894 -0.2280 -0.5379
 8633SOL     OW34303   6.240   0.069   2.973  0.0801  0.0236 -0.1712
 8633SOL    HW234304   6.179  -0.004   2.982 -1.0449  0.6003 -2.5185
 8633SOL    HW334305   6.253   0.078   2.878  3.0375  0.5869  0.1830
 8633SOL    MW434306   6.234   0.060   2.962 -0.2652 -0.3036  0.3097
 8634SOL     OW34307   2.520   4.565   5.023 -0.3966  0.4107  0.2903
 8634SOL    HW234308   2.540   4.477   5.055  1.2455  0.6009 -0.1198
 8634SOL    HW334309   2.430   4.581   5.051 -1.4760 -2.1539 -1.3474
 8634SOL    MW434310   2.511   4.555   5.031 -0.0869  0.1851 -0.0853
 8635SOL     OW34311   4.403   3.277   2.294  0.1646 -0.2842  0.0842
 8635SOL    HW234312   4.375   3.265   2.203  1.9351  0.6099 -0.6366
 8635SOL    HW334313   4.486   3.325   2.287  1.0460 -1.3869  2.1116
 8635SOL    MW434314   4.410   3.282   2.281  0.2416  0.6033  0.1830
 8636SOL     OW34315   4.025   1.422   0.026  0.1713  0.1672  0.2859
 8636SOL    HW234316   4.069   1.452   0.105 -1.3569  0.4726  1.0607
 8636SOL    HW334317   4.076   1.347  -0.004 -0.0494 -0.9156  2.4399
 8636SOL    MW434318   4.037   1.416   0.032 -0.2553 -0.4572 -0.2588
 8637SOL     OW34319   2.481   2.392   4.096 -0.5652  0.1992 -0.0546
 8637SOL    HW234320   2.551   2.399   4.031  0.2216 -1.2409  0.5890
 8637SOL    HW334321   2.478   2.479   4.138  1.2854  0.1183  0.3299
 8637SOL    MW434322   2.490   2.405   4.093 -0.2438 -0.2867 -0.3338
 8638SOL     OW34323   5.748   2.079   4.900  0.0666  0.0542 -0.2705
 8638SOL    HW234324   5.662   2.120   4.886 -0.5155 -1.2262 -0.6590
 8638SOL    HW334325   5.732   2.014   4.969  0.8263  0.0995 -0.0475
 8638SOL    MW434326   5.734   2.075   4.908  0.6629 -0.5667 -0.0050
 8639SOL     OW34327   5.449   1.569   0.961  0.0463 -0.1560  0.0361
 8639SOL    HW234328   5.423   1.584   1.052 -0.1948  1.8094 -0.3216
 8639SOL    HW334329   5.512   1.497   0.966 -0.7360 -0.7870  1.6195
 8639SOL    MW434330   5.454   1.561   0.974  0.4787 -0.2982  0.1059
 8640SOL     OW34331   3.324   0.336   4.954  0.1684  0.6150  0.2986
 8640SOL    HW234332   3.362   0.286   5.026  0.4695 -0.5278 -0.6089
 8640SOL    HW334333   3.361   0.424   4.964 -0.6530  0.7845  2.1379
 8640SOL    MW434334   3.334   0.341   4.965  0.6902 -0.4304 -0.5773
 8641SOL     OW34335   4.854   0.839   2.440 -0.0190  0.7370 -0.6302
 8641SOL    HW234336   4.806   0.883   2.510 -0.7971 -0.7404 -0.1949
 8641SOL    HW334337   4.936   0.812   2.481 -1.3909 -2.1560  0.4955
 8641SOL    MW434338   4.858   0.841   2.455 -0.4200 -0.0005  0.2446
 8642SOL     OW34339   4.721   2.222   2.632  0.3868  0.0636  0.9879
 8642SOL    HW234340   4.791   2.250   2.574 -0.9598  0.3073 -0.5808
 8642SOL    HW334341   4.690   2.139   2.595 -0.1485 -0.0446  1.6564
 8642SOL    MW434342   4.726   2.215   2.620  0.0751 -0.3344  0.0625
 8643SOL     OW34343   2.327   1.204   1.040  0.1719 -0.1078 -1.0328
 8643SOL    HW234344   2.414   1.176   1.012  0.2731 -0.5428 -0.3055
 8643SOL    HW334345   2.341   1.291   1.078  0.4932 -0.6418  0.1149
 8643SOL    MW434346   2.340   1.212   1.041  0.3841 -0.1332 -0.1578
 8644SOL     OW34347   1.293   5.001   0.497 -0.0310 -0.3133 -0.0987
 8644SOL    HW234348   1.236   5.066   0.457  0.6844  0.4242  0.0376
 8644SOL    HW334349   1.313   5.038   0.584  1.0719 -0.2815 -0.3493
 8644SOL    MW434350   1.288   5.015   0.503 -0.1336 -0.2316 -0.1466
 8645SOL     OW34351   4.508   1.184   2.979  0.1451  0.4397 -0.0238
 8645SOL    HW234352   4.590   1.196   2.930  0.4696  1.1124  0.6563
 8645SOL    HW334353   4.447   1.148   2.915  0.2476  2.2530 -1.2232
 8645SOL    MW434354   4.511   1.181   2.964 -0.2024  0.4100 -0.0909
 8646SOL     OW34355   6.260   5.282   5.069  0.3987 -0.5397 -0.6691
 8646SOL    HW234356   6.309   5.263   5.149  1.7280 -0.2134 -1.3852
 8646SOL    HW334357   6.310   5.350   5.025 -0.1496 -0.9212 -1.9359
 8646SOL    MW434358   6.273   5.289   5.074 -0.5003 -0.4132  0.7182
 8647SOL     OW34359   4.728   0.722   5.867  0.5057 -0.2070  0.5605
 8647SOL    HW234360   4.710   0.757   5.954  0.3120 -0.8450  0.7817
 8647SOL    HW334361   4.812   0.678   5.876  1.1991  0.9757  0.0513
 8647SOL    MW434362   4.737   0.720   5.880 -0.4331 -0.2895  0.3175
 8648SOL     OW34363   4.252   3.970   0.820  0.1807  0.0856 -0.2004
 8648SOL    HW234364   4.345   3.981   0.801  0.2636  0.8677  0.6301
 8648SOL    HW334365   4.237   4.021   0.899 -0.6312 -1.3188  0.5925
 8648SOL    MW434366   4.262   3.978   0.828  0.1752 -0.1843 -0.2786
 8649SOL     OW34367   0.430   6.148   1.638  0.8325  0.9478 -0.0120
 8649SOL    HW234368   0.513   6.191   1.618  0.3977  1.8097 -0.0025
 8649SOL    HW334369   0.363   6.212   1.613  0.1998  0.9404  1.5224
 8649SOL    MW434370   0.432   6.162   1.632 -0.0623  0.3788  0.4372
 8650SOL     OW34371   1.440   0.376   5.209 -0.3559  0.2016 -0.5347
 8650SOL    HW234372   1.492   0.304   5.173 -1.0378 -0.9517  0.6813
 8650SOL    HW334373   1.369   0.332   5.256 -3.3096  1.6858 -3.2530
 8650SOL    MW434374   1.438   0.361   5.211  0.0654  0.0544 -0.0254
 8651SOL     OW34375   3.007   4.680   6.162 -0.1931  0.0672 -0.3312
 8651SOL    HW234376   2.945   4.610   6.141  0.3032 -0.4469 -0.1382
 8651SOL    HW334377   3.092   4.635   6.168 -0.0987  0.4071  1.4519
 8651SOL    MW434378   3.010   4.665   6.160  0.4585 -0.1048 -0.1858
 8652SOL     OW34379   2.688   4.838   3.203 -0.1969  0.1117  0.2997
 8652SOL    HW234380   2.628   4.810   3.134  1.5363 -0.5277 -1.0254
 8652SOL    HW334381   2.654   4.796   3.282 -0.2085 -2.2151 -0.8360
 8652SOL    MW434382   2.675   4.829   3.204  0.3708 -0.1412 -0.6513
 8653SOL     OW34383   3.212   3.106   1.895 -0.0580  0.2325 -0.1896
 8653SOL    HW234384   3.258   3.031   1.857  1.0789  0.1570  1.2577
 8653SOL    HW334385   3.166   3.069   1.971 -1.7379  0.5071 -1.0189
 8653SOL    MW434386   3.212   3.091   1.900  0.0718  0.4488 -0.7318
 8654SOL     OW34387   3.120   0.886   0.271 -0.0349 -0.0571  0.0378
 8654SOL    HW234388   3.124   0.979   0.295 -1.2236  0.2042 -0.7178
 8654SOL    HW334389   3.038   0.855   0.309 -0.7397 -0.2347 -1.5547
 8654SOL    MW434390   3.110   0.894   0.280  0.1941 -0.5970 -0.2367
 8655SOL     OW34391   3.318   5.652   0.235  0.8177  0.1092 -0.5950
 8655SOL    HW234392   3.242   5.690   0.191 -0.2713 -0.4826  0.6805
 8655SOL    HW334393   3.353   5.590   0.172 -0.3030 -0.2432 -0.9026
 8655SOL    MW434394   3.312   5.649   0.221 -0.1274  0.9052 -0.1155
 8656SOL     OW34395   0.652   4.948   4.231 -0.2542  0.0006 -0.2923
 8656SOL    HW234396   0.640   5.036   4.194  1.0748  0.5964  0.6457
 8656SOL    HW334397   0.633   4.889   4.158 -2.1676  1.0092 -0.6752
 8656SOL    MW434398   0.648   4.952   4.216  0.2794  0.4418 -0.2782
 8657SOL     OW34399   0.864   5.418   3.414  0.2014 -0.7198  0.1133
 8657SOL    HW234400   0.948   5.463   3.410 -0.2434  0.0319 -2.0796
 8657SOL    HW334401   0.810   5.472   3.472  0.9554 -0.7708  0.8778
 8657SOL    MW434402   0.868   5.431   3.421  0.1563 -0.0106 -0.4417
 8658SOL     OW34403   2.860   5.289   5.029  0.2737  0.8273 -0.0174
 8658SOL    HW234404   2.864   5.257   5.119 -0.1515 -0.9836 -0.6070
 8658SOL    HW334405   2.943   5.263   4.990 -0.5218 -0.6430 -0.8195
 8658SOL    MW434406   2.871   5.282   5.035  0.8887  0.4410  0.7152
 8659SOL     OW34407   6.377   3.802   4.294  0.2480  0.4501  0.2373
 8659SOL    HW234408   6.307   3.741   4.315  1.7944 -1.2602  0.7566
 8659SOL    HW334409   6.436   3.753   4.237  1.1199  1.7632 -0.0455
 8659SOL    MW434410   6.376   3.788   4.289 -0.1706 -0.2017 -0.4542
 8660SOL     OW34411   5.768   0.197   3.428  0.4466 -0.0105 -0.3333
 8660SOL    HW234412   5.765   0.181   3.334 -1.0719  0.1623 -0.3461
 8660SOL    HW334413   5.839   0.142   3.460 -0.2758 -1.5910 -1.3109
 8660SOL    MW434414   5.777   0.188   3.420  0.0063  0.1153  0.1969
 8661SOL     OW34415   2.431   0.386   2.950 -0.5370 -0.2791 -0.2004
 8661SOL    HW234416   2.409   0.306   2.903 -0.9760 -0.1620 -0.1924
 8661SOL    HW334417   2.485   0.357   3.024 -1.3322 -0.6473  0.2422
 8661SOL    MW434418   2.435   0.372   2.953 -0.2454 -0.0322  0.6750
 8662SOL     OW34419   1.942   1.278   3.725  0.3510 -0.5764  0.0844
 8662SOL    HW234420   1.943   1.268   3.630 -2.9535  0.0767 -0.1315
 8662SOL    HW334421   1.916   1.369   3.739  1.7440 -0.3718  1.6813
 8662SOL    MW434422   1.939   1.289   3.715 -0.2485  0.2753  0.0996
 8663SOL     OW34423   4.632   0.840   5.334 -0.1763 -0.1710  1.0631
 8663SOL    HW234424   4.708   0.822   5.279  0.4526 -0.4555  1.9861
 8663SOL    HW334425   4.601   0.753   5.362  0.9339 -0.0235  2.9809
 8663SOL    MW434426   4.638   0.826   5.331 -0.4267  0.8539 -0.2472
 8664SOL     OW34427   0.391   5.481   4.937 -0.0493  0.1797  0.5545
 8664SOL    HW234428   0.453   5.485   4.864  0.3535 -1.3200  0.7617
 8664SOL    HW334429   0.447   5.486   5.015 -0.1386 -1.2649  0.7436
 8664SOL    MW434430   0.407   5.482   4.938 -0.2157  0.1312 -0.7563
 8665SOL     OW34431   4.219   2.444   0.173 -0.4821  0.8827  0.1613
 8665SOL    HW234432   4.143   2.387   0.161 -0.7003  1.3417 -0.7069
 8665SOL    HW334433   4.293   2.383   0.185 -0.9672  0.4348  0.9714
 8665SOL    MW434434   4.219   2.428   0.173  0.2539 -0.4005  0.3248
 8666SOL     OW34435   3.519   4.796   5.674  0.2194 -0.1742  0.1794
 8666SOL    HW234436   3.521   4.832   5.763  2.0835 -2.3496  1.0954
 8666SOL    HW334437   3.571   4.857   5.622  0.6024  0.1764  0.9655
 8666SOL    MW434438   3.526   4.809   5.679  0.2540 -0.0007  0.5211
 8667SOL     OW34439   4.490   0.425   0.839  0.2127  0.6782 -0.0013
 8667SOL    HW234440   4.512   0.387   0.753  0.6570  1.1980 -0.1232
 8667SOL    HW334441   4.438   0.357   0.882  1.0639 -0.1149 -0.1841
 8667SOL    MW434442   4.486   0.411   0.833 -0.3933  0.2858  0.0780
 8668SOL     OW34443   2.658   0.435   1.081  0.0319 -1.0291 -0.3000
 8668SOL    HW234444   2.714   0.403   1.011 -1.9903 -2.2825 -1.4679
 8668SOL    HW334445   2.632   0.356   1.129 -2.2940 -0.8120 -1.0793
 8668SOL    MW434446   2.662   0.420   1.078 -0.1416 -0.1677  0.2282
 8669SOL     OW34447   3.031   3.732   2.077  0.1548 -0.6937  0.3318
 8669SOL    HW234448   3.042   3.781   2.159  0.8813 -1.4518  0.7145
 8669SOL    HW334449   2.952   3.680   2.091  0.2225 -0.7487  0.5172
 8669SOL    MW434450   3.022   3.731   2.090  0.4542  0.3251  0.4086
 8670SOL     OW34451   6.270   2.626   2.437  0.3069  0.4793  0.7908
 8670SOL    HW234452   6.350   2.676   2.454  0.3995  0.7573 -0.3783
 8670SOL    HW334453   6.228   2.673   2.365 -1.4831  0.9684  2.1027
 8670SOL    MW434454   6.275   2.639   2.429 -0.4486 -0.3960  0.5211
 8671SOL     OW34455   5.818   5.513   5.198 -0.0769  0.5630 -0.4384
 8671SOL    HW234456   5.765   5.588   5.172  0.0092  0.5603 -0.6183
 8671SOL    HW334457   5.817   5.515   5.294 -0.8708  0.2372 -0.4340
 8671SOL    MW434458   5.811   5.523   5.207  0.2254  0.4575 -0.0617
 8672SOL     OW34459   1.809   5.528   3.890 -0.2931 -0.1444  0.6032
 8672SOL    HW234460   1.817   5.586   3.966  2.4674  0.7383 -0.2427
 8672SOL    HW334461   1.846   5.579   3.818 -0.6008 -1.8625 -0.8266
 8672SOL    MW434462   1.815   5.543   3.891 -0.1329 -0.0020  0.1350
 8673SOL     OW34463   0.416   2.617   6.260 -0.0284  0.8326  0.1856
 8673SOL    HW234464   0.428   2.652   6.348  0.3322 -1.1251  0.9791
 8673SOL    HW334465   0.490   2.653   6.210 -0.0531  1.7033  0.7563
 8673SOL    MW434466   0.428   2.626   6.265  0.2974  0.0848 -0.1697
 8674SOL     OW34467   1.527   4.123   0.401  0.0726 -0.1653 -0.1137
 8674SOL    HW234468   1.608   4.086   0.365 -0.3205 -0.0199 -1.1894
 8674SOL    HW334469   1.458   4.088   0.344 -0.5357  0.3867  0.2764
 8674SOL    MW434470   1.529   4.113   0.389 -0.0633 -0.4574  0.1608
 8675SOL     OW34471   3.673   0.292   0.369  0.3344 -0.1758  0.2951
 8675SOL    HW234472   3.677   0.258   0.280  1.7076  0.9803 -0.1298
 8675SOL    HW334473   3.582   0.318   0.382 -0.4153 -2.4942  0.0971
 8675SOL    MW434474   3.662   0.291   0.359 -0.2313 -0.2258  0.0131
 8676SOL     OW34475   0.048   5.004   0.587  0.6616  0.6538  1.0515
 8676SOL    HW234476  -0.006   4.962   0.519  0.3761  1.4251  0.7929
 8676SOL    HW334477   0.021   4.962   0.668  1.3622 -0.6435  0.6433
 8676SOL    MW434478   0.038   4.993   0.588 -0.9553  0.2499  0.1622
 8677SOL     OW34479   0.010   3.609   4.672  0.2828 -0.1864 -0.5390
 8677SOL    HW234480  -0.015   3.598   4.581 -0.1005  0.1728 -0.4812
 8677SOL    HW334481  -0.050   3.676   4.705 -0.8151 -1.6023  0.4778
 8677SOL    MW434482  -0.001   3.617   4.665 -0.5457 -0.2697 -0.3313
 8678SOL     OW34483   4.258   0.760   3.350  0.3331  0.4233  0.1684
 8678SOL    HW234484   4.181   0.710   3.324  0.1801  0.3706  0.7004
 8678SOL    HW334485   4.231   0.805   3.430  0.5403  1.1812 -0.1803
 8678SOL    MW434486   4.244   0.760   3.357 -0.1946 -0.6608  0.1610
 8679SOL     OW34487   0.922   1.161   4.936 -0.1409 -0.6224 -0.3043
 8679SOL    HW234488   0.978   1.103   4.885  0.1332 -1.3650  0.8153
 8679SOL    HW334489   0.890   1.107   5.009 -2.0911 -0.1470 -0.7357
 8679SOL    MW434490   0.925   1.147   4.939 -0.5559 -0.4598  0.4635
 8680SOL     OW34491   3.904   0.798   5.552  0.5888  0.1389  0.1566
 8680SOL    HW234492   3.913   0.704   5.543  2.0404  0.1866  0.8141
 8680SOL    HW334493   3.831   0.821   5.495  1.9985 -1.0175 -2.2653
 8680SOL    MW434494   3.896   0.789   5.543 -0.1785 -0.0885 -0.2048
 8681SOL     OW34495   5.759   3.086   3.944 -0.1105  0.5566  0.0102
 8681SOL    HW234496   5.777   2.997   3.914 -1.2666  0.1087  0.5987
 8681SOL    HW334497   5.845   3.120   3.970  0.4241 -0.1718 -0.7415
 8681SOL    MW434498   5.773   3.079   3.944  0.6524  0.1792 -0.3062
 8682SOL     OW34499   1.090   1.260   1.285  0.4504  0.3804 -0.0962
 8682SOL    HW234500   1.056   1.347   1.264 -0.9047 -0.0426  0.2334
 8682SOL    HW334501   1.043   1.201   1.226  1.3569 -0.1408 -0.3194
 8682SOL    MW434502   1.079   1.264   1.274  0.2041  0.6824  0.1459
 8683SOL     OW34503   3.439   0.204   4.714  0.0331  0.3774 -0.1973
 8683SOL    HW234504   3.512   0.254   4.677  2.0266 -1.0876  1.4722
 8683SOL    HW334505   3.386   0.270   4.759  0.7675  1.3975 -0.7654
 8683SOL    MW434506   3.442   0.220   4.715 -0.2469 -0.2781  0.2939
 8684SOL     OW34507   3.098   3.299   5.852 -0.1760  0.7480  0.0276
 8684SOL    HW234508   3.020   3.317   5.905 -0.6617  0.1713 -0.4808
 8684SOL    HW334509   3.129   3.214   5.882  0.0690  0.8272  0.0005
 8684SOL    MW434510   3.092   3.290   5.863 -0.6309  0.2357 -0.3628
 8685SOL     OW34511   2.606   0.064   5.480  0.5040  0.1030  0.3127
 8685SOL    HW234512   2.529   0.017   5.449  0.2489 -0.7046  2.0321
 8685SOL    HW334513   2.578   0.156   5.486 -0.7287 -0.3257  1.9437
 8685SOL    MW434514   2.592   0.070   5.477  0.1085  0.1264  0.0112
 8686SOL     OW34515   2.298   5.973   2.655  0.3704  0.1424  0.1547
 8686SOL    HW234516   2.278   6.001   2.565  1.3337  1.3276  0.2871
 8686SOL    HW334517   2.231   6.015   2.708  0.5320  0.4393  0.1229
 8686SOL    MW434518   2.286   5.982   2.650 -0.2401  0.0294  0.1163
 8687SOL     OW34519   3.211   4.694   1.762 -0.4579  0.2793  0.0805
 8687SOL    HW234520   3.130   4.678   1.714 -0.8213  0.9749  0.4509
 8687SOL    HW334521   3.279   4.656   1.707 -1.0168 -0.1630 -0.3135
 8687SOL    MW434522   3.209   4.687   1.748 -0.0643  0.1745  0.4167
 8688SOL     OW34523   6.239   4.207   3.141 -0.1551 -0.0290 -0.4202
 8688SOL    HW234524   6.279   4.294   3.135  1.0727 -0.6388 -1.8140
 8688SOL    HW334525   6.282   4.166   3.216 -1.0256  0.6892  0.4849
 8688SOL    MW434526   6.250   4.213   3.150 -0.1313  0.2579 -0.1800
 8689SOL     OW34527   3.857   1.211   1.037 -0.0570  0.8332  0.6377
 8689SOL    HW234528   3.872   1.254   1.121  3.1588 -0.8398  1.0685
 8689SOL    HW334529   3.859   1.118   1.057  1.6809  0.3689 -1.3784
 8689SOL    MW434530   3.859   1.204   1.050 -0.0513 -0.3195 -0.1823
 8690SOL     OW34531   6.237   0.497   2.445 -0.0614  0.3671 -0.5688
 8690SOL    HW234532   6.195   0.569   2.492  0.8616  1.0330 -0.7527
 8690SOL    HW334533   6.200   0.418   2.484 -2.0021  0.9200 -1.1639
 8690SOL    MW434534   6.226   0.496   2.456 -0.5261  0.1904 -0.5364
 8691SOL     OW34535   6.008   4.063   3.085  0.3867 -0.2596 -0.1795
 8691SOL    HW234536   5.941   4.109   3.136 -0.3237  0.5033 -1.7377
 8691SOL    HW334537   6.090   4.106   3.108 -0.1529  1.2646 -0.9576
 8691SOL    MW434538   6.010   4.075   3.095 -0.2852 -0.2359  0.2746
 8692SOL     OW34539   6.002   2.404   2.677  0.3002  0.1944 -0.0614
 8692SOL    HW234540   5.939   2.443   2.616 -0.3992  0.2576  0.6723
 8692SOL    HW334541   6.002   2.463   2.752  0.5681 -0.2819  0.3190
 8692SOL    MW434542   5.993   2.417   2.679  0.2234 -0.4631  0.4098
 8693SOL     OW34543   4.720   4.768   6.153 -0.6674 -0.2220  0.2179
 8693SOL    HW234544   4.663   4.736   6.084 -0.4850 -0.9547  0.3977
 8693SOL    HW334545   4.719   4.863   6.143 -3.1872 -0.0717  1.1957
 8693SOL    MW434546   4.712   4.776   6.143  0.5129 -0.2707 -0.4020
 8694SOL     OW34547   4.915   1.239   2.493  0.3104 -0.1056  0.2353
 8694SOL    HW234548   4.989   1.296   2.509  1.8552 -1.3476 -1.9056
 8694SOL    HW334549   4.842   1.298   2.473  1.6401  1.1657 -1.0817
 8694SOL    MW434550   4.915   1.254   2.492  0.3026 -0.6627  0.3397
 8695SOL     OW34551   4.096   0.132   4.111  0.3510  0.0993  0.0525
 8695SOL    HW234552   4.132   0.080   4.182  3.2187  0.5208 -0.9326
 8695SOL    HW334553   4.150   0.109   4.035 -1.1607  1.2722 -1.4637
 8695SOL    MW434554   4.108   0.122   4.110 -0.0259  0.1284  0.1459
 8696SOL     OW34555   3.144   5.097   4.976  0.2445 -0.4868  0.0996
 8696SOL    HW234556   3.223   5.126   5.021  0.0810  1.3996 -0.7235
 8696SOL    HW334557   3.128   5.009   5.009  1.3722 -0.0220  2.0267
 8696SOL    MW434558   3.152   5.090   4.986 -0.1659 -0.0079  0.1580
 8697SOL     OW34559   2.919   3.793   5.336  0.2058 -0.4181 -0.0773
 8697SOL    HW234560   2.841   3.796   5.391  0.2829  0.2565  0.0069
 8697SOL    HW334561   2.988   3.831   5.390  0.4462 -0.4206 -0.3798
 8697SOL    MW434562   2.918   3.799   5.350  0.1780 -0.0380  0.4187
 8698SOL     OW34563   1.777   5.779   1.535 -0.0656 -0.0081 -0.0047
 8698SOL    HW234564   1.860   5.769   1.582 -0.6662 -0.3640  1.0296
 8698SOL    HW334565   1.802   5.787   1.443  1.2335  1.7535  0.4335
 8698SOL    MW434566   1.792   5.779   1.529  0.3464  0.1657  0.0042
 8699SOL     OW34567   5.188   2.205   4.377 -0.4623 -0.1637  0.1535
 8699SOL    HW234568   5.210   2.112   4.386 -0.1583 -0.1003  0.0795
 8699SOL    HW334569   5.099   2.212   4.413 -1.0328 -0.7313 -1.0971
 8699SOL    MW434570   5.179   2.193   4.383  0.4835 -0.4515  0.3438
 8700SOL     OW34571   1.665   3.809   5.204  0.9902 -0.4715  0.2022
 8700SOL    HW234572   1.741   3.758   5.175  0.5344 -1.1034  0.0820
 8700SOL    HW334573   1.598   3.743   5.224  0.5329  0.0652  0.4815
 8700SOL    MW434574   1.666   3.793   5.203 -0.9883 -0.0780  0.0386
 8701SOL     OW34575   3.574   3.008   5.795  0.0195  0.3129 -0.4620
 8701SOL    HW234576   3.654   2.983   5.749  0.2621 -1.7959  0.9611
 8701SOL    HW334577   3.506   2.954   5.755 -0.0874 -0.2225  0.4178
 8701SOL    MW434578   3.576   2.997   5.784 -0.5448 -0.4842 -0.4763
 8702SOL     OW34579   5.383   0.921   0.577  1.0657 -0.1028  0.1819
 8702SOL    HW234580   5.371   0.913   0.483 -0.2567 -2.3092  0.4511
 8702SOL    HW334581   5.296   0.940   0.611  1.6052  1.1211  0.9490
 8702SOL    MW434582   5.370   0.922   0.569  0.7579 -0.3798  0.2066
 8703SOL     OW34583   5.533   0.754   1.297  0.4656 -0.1525 -0.2653
 8703SOL    HW234584   5.584   0.736   1.376 -0.7060 -0.6656  0.4069
 8703SOL    HW334585   5.589   0.726   1.225  0.4109 -2.5420  0.5446
 8703SOL    MW434586   5.547   0.748   1.298 -0.4095 -0.4383  0.5657
 8704SOL     OW34587   4.193   0.433   5.963 -0.3633 -0.3886 -0.2786
 8704SOL    HW234588   4.149   0.472   6.039 -1.1667 -0.3690 -0.7443
 8704SOL    HW334589   4.198   0.504   5.899  0.5743 -0.3244 -0.1422
 8704SOL    MW434590   4.188   0.448   5.965  0.0923  0.3384 -0.3371
 8705SOL     OW34591   0.299   4.742   6.208 -0.1929  0.5092 -0.4619
 8705SOL    HW234592   0.318   4.797   6.132 -1.4190  2.5018  0.5878
 8705SOL    HW334593   0.298   4.653   6.173 -1.6374  1.4011 -3.0174
 8705SOL    MW434594   0.301   4.738   6.193  0.5978  0.2687 -0.1920
 8706SOL     OW34595   0.544   2.460   3.917 -0.5353 -0.1530  0.7103
 8706SOL    HW234596   0.631   2.443   3.953 -0.6829 -0.2103  1.0437
 8706SOL    HW334597   0.500   2.376   3.922 -0.9773  0.1089  1.5637
 8706SOL    MW434598   0.550   2.447   3.923 -0.0951 -0.1563 -0.0725
 8707SOL     OW34599   0.399   2.477   1.832 -0.1242  0.4761 -0.3488
 8707SOL    HW234600   0.412   2.422   1.909 -2.6788 -0.1146 -0.2470
 8707SOL    HW334601   0.392   2.414   1.760 -1.0075  0.7956 -0.5451
 8707SOL    MW434602   0.400   2.461   1.833 -0.3132  0.3097  0.3600
 8708SOL     OW34603   0.683   3.243   4.993  0.3497  0.5663  0.3359
 8708SOL    HW234604   0.652   3.201   4.913  1.4630 -0.2190  0.2922
 8708SOL    HW334605   0.768   3.280   4.970  1.8629 -1.7719  1.7135
 8708SOL    MW434606   0.690   3.243   4.980 -0.0901  0.7597 -0.3498
 8709SOL     OW34607   6.405   1.395   0.558 -0.2922  0.4491  0.0204
 8709SOL    HW234608   6.470   1.422   0.623  0.8032 -0.5445 -0.6355
 8709SOL    HW334609   6.369   1.313   0.593 -1.1763  0.9661  0.3548
 8709SOL    MW434610   6.409   1.388   0.571  0.2228  0.3509 -0.1375
 8710SOL     OW34611   3.253   6.242   5.733 -0.0181 -0.2502  0.5833
 8710SOL    HW234612   3.279   6.250   5.641  0.7692  0.2600  0.8417
 8710SOL    HW334613   3.233   6.149   5.745 -2.2577 -0.0084 -0.6475
 8710SOL    MW434614   3.254   6.231   5.722 -0.8482  0.1898 -0.1628
 8711SOL     OW34615   1.035   3.096   2.688  0.0978 -0.0888 -0.2045
 8711SOL    HW234616   1.068   3.010   2.664  1.4183  0.3804 -0.1755
 8711SOL    HW334617   0.946   3.100   2.652  0.6525 -0.8041 -1.6990
 8711SOL    MW434618   1.027   3.085   2.680 -0.4399  0.0256 -0.2665
 8712SOL     OW34619   5.623   4.673   6.160  0.4346  0.3810  0.4059
 8712SOL    HW234620   5.656   4.735   6.094 -0.0618  1.1859  0.8914
 8712SOL    HW334621   5.587   4.601   6.109  2.7172 -0.4379 -0.1492
 8712SOL    MW434622   5.622   4.672   6.145  0.0466  0.2086  0.1435
 8713SOL     OW34623   5.987   3.026   0.378 -0.1232 -0.4098  0.4438
 8713SOL    HW234624   5.950   3.105   0.338  1.2444  0.1312  0.2018
 8713SOL    HW334625   6.028   2.979   0.306 -2.6922 -2.4741  0.1761
 8713SOL    MW434626   5.987   3.030   0.363  0.6329 -0.2281 -0.0702
 8714SOL     OW34627   5.297   5.736   2.884  0.8020  0.4478  0.9555
 8714SOL    HW234628   5.206   5.711   2.900  0.8976 -0.2195  0.4884
 8714SOL    HW334629   5.340   5.654   2.860  1.1815  1.0078 -0.3488
 8714SOL    MW434630   5.290   5.722   2.883  0.1479 -0.1922 -0.2208
 8715SOL     OW34631   2.996   0.960   3.896  0.0096 -0.2306 -0.6585
 8715SOL    HW234632   2.966   0.870   3.907 -0.3222  0.0138  0.5319
 8715SOL    HW334633   2.927   1.002   3.845 -0.2459 -0.4312 -0.4803
 8715SOL    MW434634   2.983   0.954   3.891 -0.3921  0.3855  0.8571
 8716SOL     OW34635   6.293   2.504   2.840 -0.0019  0.3903  0.2583
 8716SOL    HW234636   6.218   2.555   2.811 -0.2526  0.8945  1.7043
 8716SOL    HW334637   6.305   2.438   2.772 -0.5622  1.4708 -0.9359
 8716SOL    MW434638   6.285   2.502   2.827  0.4307  0.4145 -0.2061
 8717SOL     OW34639   2.733   3.906   6.003  0.0825 -0.0650 -0.3976
 8717SOL    HW234640   2.661   3.915   6.065  1.1119 -1.0703  0.9945
 8717SOL    HW334641   2.691   3.875   5.923 -1.0906 -0.2627  0.2643
 8717SOL    MW434642   2.718   3.903   6.001  0.0537  0.5269  0.7887
 8718SOL     OW34643   2.607   3.117   0.090 -0.3068 -0.0896 -0.7373
 8718SOL    HW234644   2.578   3.056   0.022 -1.6279 -0.3222 -0.0145
 8718SOL    HW334645   2.540   3.110   0.158 -0.3315  1.9219 -0.4847
 8718SOL    MW434646   2.594   3.108   0.090 -0.7020 -0.0282  0.8229
 8719SOL     OW34647   1.893   0.728   4.229 -0.3882  0.3718 -0.6705
 8719SOL    HW234648   1.837   0.714   4.152 -0.9552 -1.8274  0.0871
 8719SOL    HW334649   1.977   0.755   4.192 -1.0419  0.6851 -1.9904
 8719SOL    MW434650   1.897   0.730   4.214 -0.3170  0.8710  0.7795
 8720SOL     OW34651   5.112   0.798   3.048  0.1317  0.2731 -0.2491
 8720SOL    HW234652   5.062   0.795   2.967  0.7032  0.4170 -0.6190
 8720SOL    HW334653   5.203   0.785   3.020  0.6270  2.5725  0.0653
 8720SOL    MW434654   5.118   0.796   3.033 -0.6182 -0.3549  0.1326
 8721SOL     OW34655   2.590   0.047   3.825 -0.0562  0.6232  0.2164
 8721SOL    HW234656   2.685   0.053   3.822  0.1122 -1.0094  0.7988
 8721SOL    HW334657   2.559   0.137   3.819  1.4742  1.0949 -1.1352
 8721SOL    MW434658   2.599   0.059   3.824  0.1637 -0.2795 -0.0883
 8722SOL     OW34659   5.590   4.123   2.407 -0.8418  0.0951  0.2430
 8722SOL    HW234660   5.552   4.196   2.358  1.5059  0.3482 -1.3508
 8722SOL    HW334661   5.634   4.070   2.341 -0.6907 -1.6154  1.6492
 8722SOL    MW434662   5.591   4.126   2.392 -0.1960  0.2561 -0.6894
 8723SOL     OW34663   2.195   1.333   5.267  0.3624  0.4724 -0.3278
 8723SOL    HW234664   2.181   1.239   5.263 -0.7321  0.6550 -1.3739
 8723SOL    HW334665   2.283   1.346   5.232 -0.1515 -0.0409 -1.8897
 8723SOL    MW434666   2.205   1.322   5.262  0.0634 -0.2223 -0.3871
 8724SOL     OW34667   0.210   2.122   1.905 -0.0397  0.0504  0.0354
 8724SOL    HW234668   0.144   2.183   1.938 -1.2345  0.0581 -2.1516
 8724SOL    HW334669   0.171   2.036   1.918  0.6884 -0.1366  1.1012
 8724SOL    MW434670   0.196   2.119   1.911  0.4216  0.0370 -0.1085
 8725SOL     OW34671   0.241   5.336   4.480 -0.5181 -0.0537  0.1745
 8725SOL    HW234672   0.213   5.300   4.395  0.3557 -0.6222  0.1137
 8725SOL    HW334673   0.256   5.259   4.535  0.1701  0.2608  0.4398
 8725SOL    MW434674   0.240   5.321   4.476  0.6635 -0.0823  0.1679
 8726SOL     OW34675   2.255   5.391   4.707 -0.4404 -0.1086 -0.0030
 8726SOL    HW234676   2.241   5.476   4.665 -0.2494  1.0681  2.1625
 8726SOL    HW334677   2.168   5.350   4.710 -0.7823  0.6184  0.1325
 8726SOL    MW434678   2.242   5.397   4.702  0.1478 -0.2174  0.0745
 8727SOL     OW34679   4.210   2.916   3.377  0.4042 -0.1377 -0.1409
 8727SOL    HW234680   4.194   2.822   3.377  0.3926 -0.1368 -0.0030
 8727SOL    HW334681   4.283   2.928   3.438 -1.3802  0.2187  2.0999
 8727SOL    MW434682   4.218   2.905   3.385  0.3590 -0.3825 -0.0354
 8728SOL     OW34683   1.472   6.313   1.348 -0.2447 -0.8766 -0.1578
 8728SOL    HW234684   1.421   6.358   1.415 -0.0572 -0.2955 -0.3922
 8728SOL    HW334685   1.419   6.237   1.323 -0.5622 -0.7943  0.2585
 8728SOL    MW434686   1.458   6.309   1.353 -0.4756 -0.0643  0.0816
 8729SOL     OW34687   1.386   1.905   5.697  0.2237  0.4722 -0.5590
 8729SOL    HW234688   1.398   1.811   5.684 -1.8640 -0.1050  1.1236
 8729SOL    HW334689   1.458   1.930   5.755 -0.0115 -0.4179  0.1421
 8729SOL    MW434690   1.398   1.896   5.703  0.1191 -0.0518  0.7465
 8730SOL     OW34691   1.330   1.628   5.659 -0.0117 -0.1068  0.3419
 8730SOL    HW234692   1.295   1.606   5.573  0.7809 -0.3114  0.0636
 8730SOL    HW334693   1.272   1.584   5.721 -0.0936 -0.6512 -0.1167
 8730SOL    MW434694   1.318   1.620   5.656 -0.8811 -0.2377 -0.1906
 8731SOL     OW34695   0.812   5.606   1.655  0.4606 -0.1427  0.6707
 8731SOL    HW234696   0.801   5.582   1.747  1.7044 -0.5347  0.7323
 8731SOL    HW334697   0.779   5.531   1.607 -1.9548  0.8109  0.7332
 8731SOL    MW434698   0.806   5.593   1.661  0.2993  0.3672 -0.4381
 8732SOL     OW34699   2.167   5.358   4.988  0.1224 -0.5236 -0.3723
 8732SOL    HW234700   2.206   5.409   4.917  1.8392 -1.8050 -0.4015
 8732SOL    HW334701   2.237   5.349   5.053 -1.5181  0.9844  1.7630
 8732SOL    MW434702   2.181   5.364   4.987 -0.6472 -0.0147  0.3199
 8733SOL     OW34703   2.679   5.139   3.267  0.4110  0.5021 -0.5069
 8733SOL    HW234704   2.755   5.188   3.238 -0.7094  1.1856 -2.4890
 8733SOL    HW334705   2.690   5.052   3.229  1.6301 -0.4075  1.7274
 8733SOL    MW434706   2.690   5.134   3.258 -0.4605  0.3265  0.3486
 8734SOL     OW34707   0.583   0.597   0.964  0.0706 -0.0728 -0.2567
 8734SOL    HW234708   0.658   0.618   1.019  1.0968  0.2995 -1.7238
 8734SOL    HW334709   0.516   0.661   0.987 -0.0949 -0.8598  1.5869
 8734SOL    MW434710   0.584   0.608   0.974 -0.2435  0.4942  0.0728
 8735SOL     OW34711   3.574   4.921   2.331 -0.6335  0.4404  0.0009
 8735SOL    HW234712   3.588   4.963   2.246  1.7373 -0.2388 -0.0216
 8735SOL    HW334713   3.507   4.974   2.373 -0.2837  2.1169 -1.4276
 8735SOL    MW434714   3.567   4.934   2.326 -0.5322  0.1961 -0.5235
 8736SOL     OW34715   4.418   0.444   2.804  0.5088  0.0659  0.0065
 8736SOL    HW234716   4.467   0.397   2.872  1.1553  0.1819 -0.3696
 8736SOL    HW334717   4.483   0.501   2.763  0.5401 -1.2134 -1.8198
 8736SOL    MW434718   4.433   0.445   2.808  0.3252  0.6946  0.2885
 8737SOL     OW34719   1.249   4.197   0.060  0.4564  0.5666 -0.3714
 8737SOL    HW234720   1.229   4.198  -0.033 -0.0754 -0.7604 -0.2990
 8737SOL    HW334721   1.220   4.282   0.092 -0.5473  0.5498 -1.1869
 8737SOL    MW434722   1.242   4.208   0.052 -0.4739  0.3286  0.3033
 8738SOL     OW34723   5.374   5.938   2.685 -0.0107  0.4885  0.5292
 8738SOL    HW234724   5.325   5.875   2.737  0.1429 -0.3928 -0.3437
 8738SOL    HW334725   5.466   5.911   2.695 -0.0205 -0.0514 -0.6060
 8738SOL    MW434726   5.380   5.926   2.693  0.1753 -0.4959 -0.3186
 8739SOL     OW34727   0.255   2.113   4.670  0.4692  0.2090 -0.0724
 8739SOL    HW234728   0.211   2.097   4.753 -0.3377  0.1591 -0.4906
 8739SOL    HW334729   0.342   2.074   4.680  0.1958 -0.2518  0.5621
 8739SOL    MW434730   0.261   2.106   4.682 -0.4846 -0.4221  0.1049
 8740SOL     OW34731   5.866   6.382   0.116  0.0283  0.4985  0.1664
 8740SOL    HW234732   5.939   6.381   0.177 -0.4308  0.4165  0.7157
 8740SOL    HW334733   5.881   6.306   0.059  0.7979  0.9377 -0.2483
 8740SOL    MW434734   5.878   6.372   0.116 -0.7928  0.6841  0.7502
 8741SOL     OW34735   3.243   5.427   2.951  0.0540  0.5271 -0.3453
 8741SOL    HW234736   3.148   5.432   2.955  0.0597  0.3381  3.6441
 8741SOL    HW334737   3.262   5.333   2.960  0.6171  0.6112 -0.6246
 8741SOL    MW434738   3.233   5.415   2.953 -0.0947 -0.1301 -0.0159
 8742SOL     OW34739   6.388   6.089   1.819  0.1979 -0.0054 -0.4170
 8742SOL    HW234740   6.392   6.010   1.764 -2.5886  0.3250 -1.2299
 8742SOL    HW334741   6.390   6.056   1.909  1.1421 -0.8110 -0.7115
 8742SOL    MW434742   6.389   6.074   1.823  0.2992  0.1263 -0.1102
 8743SOL     OW34743   3.670   1.616   2.154  0.5128 -0.3867 -0.0009
 8743SOL    HW234744   3.578   1.592   2.160  0.4984 -0.1497  0.9587
 8743SOL    HW334745   3.684   1.674   2.229  0.8342  1.5816 -1.5005
 8743SOL    MW434746   3.659   1.621   2.164 -0.2230 -0.0479 -0.1339
 8744SOL     OW34747   1.083   3.132   3.166 -0.1941  0.2592  0.0747
 8744SOL    HW234748   1.067   3.213   3.215  2.0698  0.7935  0.0529
 8744SOL    HW334749   1.114   3.071   3.232  1.5842  0.5700 -0.4290
 8744SOL    MW434750   1.085   3.135   3.181 -0.5966  0.0740 -0.1465
 8745SOL     OW34751   4.057   2.959   3.163  0.1575  0.3614 -0.0022
 8745SOL    HW234752   4.027   3.043   3.128  0.2401  0.1895 -0.4901
 8745SOL    HW334753   4.114   2.982   3.236  0.9016  0.7524 -0.7005
 8745SOL    MW434754   4.061   2.973   3.168 -0.6929  0.0360 -0.3124
 8746SOL     OW34755   6.421   2.362   1.135 -0.1552 -0.5877  0.3525
 8746SOL    HW234756   6.407   2.281   1.086 -1.9711 -1.3136  1.9596
 8746SOL    HW334757   6.418   2.431   1.068  1.2411 -1.7815 -1.0179
 8746SOL    MW434758   6.419   2.361   1.119 -0.5138 -0.3295  0.4694
 8747SOL     OW34759   3.586   4.062   1.286 -0.0239 -0.3101 -0.1341
 8747SOL    HW234760   3.554   4.152   1.291  1.2637  0.1445  0.3443
 8747SOL    HW334761   3.524   4.012   1.339 -1.2029  0.1398 -1.0414
 8747SOL    MW434762   3.573   4.067   1.294 -0.0410 -0.0453  0.2908
 8748SOL     OW34763   4.243   5.124   2.844 -1.1749 -0.2480  0.3112
 8748SOL    HW234764   4.188   5.049   2.865 -0.3893 -1.6815 -2.3173
 8748SOL    HW334765   4.326   5.087   2.814 -0.1128  1.7403  0.5710
 8748SOL    MW434766   4.247   5.109   2.843  0.3538 -0.3470 -0.3766
 8749SOL     OW34767   6.173   3.534   5.730  0.8806  0.4627 -0.3159
 8749SOL    HW234768   6.198   3.454   5.776 -0.1517  0.0997 -0.3599
 8749SOL    HW334769   6.077   3.531   5.728  0.7362  2.4694  1.0491
 8749SOL    MW434770   6.163   3.523   5.736  0.4085  0.4629  0.1918
 8750SOL     OW34771   0.041   1.421   6.394  0.3905 -0.4163  0.0906
 8750SOL    HW234772   0.108   1.438   6.461  1.6362 -3.0088 -0.3642
 8750SOL    HW334773   0.088   1.424   6.311 -0.1056 -1.7758 -0.2788
 8750SOL    MW434774   0.056   1.423   6.392 -0.2745  0.4822 -0.4051
 8751SOL     OW34775   5.237   0.502   4.502 -0.1102 -0.1192  0.1023
 8751SOL    HW234776   5.278   0.512   4.415  0.9865 -2.8343  0.1894
 8751SOL    HW334777   5.298   0.446   4.550 -1.0035  0.8125  2.4501
 8751SOL    MW434778   5.251   0.496   4.497  0.1054  0.2300  0.5380
 8752SOL     OW34779   1.060   1.364   5.374 -0.0639  0.5613 -0.0694
 8752SOL    HW234780   0.974   1.332   5.400  0.2679 -0.2148  0.1114
 8752SOL    HW334781   1.090   1.302   5.308 -0.0424  1.3748 -0.8438
 8752SOL    MW434782   1.053   1.352   5.369 -0.4310  0.4777 -0.0602
 8753SOL     OW34783   1.339   1.318   5.030 -0.2493  0.4586  0.3796
 8753SOL    HW234784   1.266   1.300   5.089 -0.7982  0.0991 -0.3936
 8753SOL    HW334785   1.365   1.408   5.051  0.4417 -0.1102  2.0762
 8753SOL    MW434786   1.333   1.328   5.040  0.1646  0.6378  0.2912
 8754SOL     OW34787   5.886   2.366   1.398  0.1221 -0.0006  0.1995
 8754SOL    HW234788   5.825   2.374   1.324  0.0874  1.0800  0.3183
 8754SOL    HW334789   5.947   2.297   1.372 -0.4042 -0.2297 -0.4636
 8754SOL    MW434790   5.886   2.358   1.385 -0.0324 -0.3100 -0.1710
 8755SOL     OW34791   1.339   2.819   0.204  0.6211 -0.7753 -0.3847
 8755SOL    HW234792   1.357   2.899   0.254 -1.6956  1.2759 -2.5190
 8755SOL    HW334793   1.295   2.761   0.267 -0.8819  1.1008  0.3829
 8755SOL    MW434794   1.336   2.822   0.219 -0.2404 -0.0760 -1.0069
 8756SOL     OW34795   0.865   4.774   2.888  0.1237  0.1059 -1.0507
 8756SOL    HW234796   0.835   4.856   2.927 -1.2950  0.0607 -1.9820
 8756SOL    HW334797   0.920   4.801   2.815 -2.5246  0.3690 -3.0896
 8756SOL    MW434798   0.869   4.788   2.884 -0.6240  0.2097  0.5124
 8757SOL     OW34799   5.972   1.653   4.117 -0.7189 -0.3031  0.1947
 8757SOL    HW234800   5.996   1.673   4.027 -1.0341  1.5089  0.4575
 8757SOL    HW334801   5.876   1.655   4.117 -0.7163 -0.0679  0.6065
 8757SOL    MW434802   5.963   1.656   4.106  0.1363  0.4379 -0.4160
 8758SOL     OW34803   2.730   0.258   0.178 -0.1476  0.3918  0.1370
 8758SOL    HW234804   2.701   0.168   0.197 -1.6910  0.8055 -0.1292
 8758SOL    HW334805   2.796   0.247   0.110  1.0743 -0.6597  1.4048
 8758SOL    MW434806   2.735   0.244   0.172 -0.6940  0.4740 -0.5297
 8759SOL     OW34807   3.264   5.729   1.622 -0.4954 -0.0633 -0.2308
 8759SOL    HW234808   3.173   5.712   1.597 -0.4890 -3.2449  1.4141
 8759SOL    HW334809   3.258   5.788   1.698 -1.1015  0.3971 -0.6281
 8759SOL    MW434810   3.251   5.735   1.629 -0.1517  0.0077 -0.0292
 8760SOL     OW34811   5.149   0.063   1.671 -0.5787 -0.2605  0.1921
 8760SOL    HW234812   5.102   0.146   1.681 -0.6534 -0.0969 -1.3561
 8760SOL    HW334813   5.235   0.080   1.709 -0.2033  0.8983 -1.1098
 8760SOL    MW434814   5.154   0.076   1.677  0.3649 -0.3813  0.1568
 8761SOL     OW34815   2.210   1.788   3.979  0.0935 -0.1621 -0.1446
 8761SOL    HW234816   2.219   1.693   3.977 -1.0623 -0.2849 -0.0199
 8761SOL    HW334817   2.132   1.804   4.032  0.1079  0.8409 -0.4061
 8761SOL    MW434818   2.201   1.778   3.986  0.3248  0.7301  0.2619
 8762SOL     OW34819   3.627   4.655   5.369  0.4583 -0.1444 -0.4922
 8762SOL    HW234820   3.630   4.741   5.411 -1.1826 -0.7808  1.0459
 8762SOL    HW334821   3.678   4.666   5.288 -0.4707  2.5146 -0.8058
 8762SOL    MW434822   3.635   4.668   5.364 -0.6349  0.0905 -0.1682
 8763SOL     OW34823   6.156   0.103   0.127  0.1377 -0.2645 -0.2740
 8763SOL    HW234824   6.067   0.106   0.093 -0.1846 -0.4778  0.5283
 8763SOL    HW334825   6.153   0.038   0.197  0.6999  0.3910  0.3764
 8763SOL    MW434826   6.144   0.095   0.132 -0.1499  0.0568  0.3273
 8764SOL     OW34827   3.389   0.462   3.985 -0.3018  0.0959  0.1551
 8764SOL    HW234828   3.464   0.505   4.025 -0.9510  2.0767 -0.6366
 8764SOL    HW334829   3.412   0.456   3.892 -0.3611 -1.0428  0.1970
 8764SOL    MW434830   3.402   0.467   3.978  0.1811 -0.0775  0.1810
 8765SOL     OW34831   2.654   5.536   3.210  0.0139  0.1807  0.5418
 8765SOL    HW234832   2.602   5.482   3.269  0.8322 -1.2036  0.0411
 8765SOL    HW334833   2.590   5.588   3.162 -0.9302 -1.3764  0.0225
 8765SOL    MW434834   2.639   5.536   3.212 -0.4060 -0.3131 -0.0385
 8766SOL     OW34835   3.429   3.984   1.817  0.1005 -0.4984 -0.1319
 8766SOL    HW234836   3.508   3.932   1.838  0.0344  0.5314  3.4354
 8766SOL    HW334837   3.356   3.925   1.835  0.0614  0.1126  1.9897
 8766SOL    MW434838   3.430   3.969   1.822  0.0477 -0.0948  0.1955
 8767SOL     OW34839   1.342   5.759   3.598  0.3221  0.1252 -0.8691
 8767SOL    HW234840   1.324   5.762   3.691  1.4666  1.8015 -0.6595
 8767SOL    HW334841   1.391   5.677   3.585 -1.2027 -0.9217 -0.3198
 8767SOL    MW434842   1.346   5.748   3.608 -0.5726  0.2759 -0.0141
 8768SOL     OW34843   2.701   0.742   0.035 -0.0862 -0.3712  0.4219
 8768SOL    HW234844   2.696   0.717  -0.057  2.5113 -1.5361  0.5110
 8768SOL    HW334845   2.781   0.701   0.067 -0.6482  0.4035  3.1000
 8768SOL    MW434846   2.711   0.734   0.027 -0.0694  0.4518  0.5869
 8769SOL     OW34847   1.208   0.348   4.831 -0.2675  0.4953 -0.1014
 8769SOL    HW234848   1.242   0.356   4.742 -1.7527  0.5227 -0.7084
 8769SOL    HW334849   1.241   0.264   4.862 -1.2973 -0.4705 -1.4466
 8769SOL    MW434850   1.217   0.338   4.823 -0.1623 -0.7561 -0.2318
 8770SOL     OW34851   5.570   6.243   1.165 -0.4303  0.0329 -0.5821
 8770SOL    HW234852   5.510   6.221   1.094  0.3568  1.2226 -1.6756
 8770SOL    HW334853   5.514   6.281   1.233 -0.9829  0.7016 -1.3902
 8770SOL    MW434854   5.555   6.245   1.164  0.5969 -0.8060 -0.2845
 8771SOL     OW34855   4.805   5.563   4.077 -0.1569  0.5031  0.3977
 8771SOL    HW234856   4.894   5.529   4.066 -0.1540  0.5575  0.2603
 8771SOL    HW334857   4.759   5.535   3.999 -0.6018 -0.6034  1.0280
 8771SOL    MW434858   4.811   5.555   4.066 -0.3389  0.0541  0.3158
 8772SOL     OW34859   0.648   6.117   5.156 -0.3534  0.3223 -0.2238
 8772SOL    HW234860   0.656   6.059   5.080 -1.7543 -1.1529  0.7107
 8772SOL    HW334861   0.555   6.138   5.161  0.0415  2.2621 -0.2109
 8772SOL    MW434862   0.637   6.112   5.146 -0.3026  0.4690 -0.0297
 8773SOL     OW34863   5.069   0.335   5.583 -0.2083 -0.0415  0.0242
 8773SOL    HW234864   4.990   0.338   5.528 -2.0869 -1.7015  2.3763
 8773SOL    HW334865   5.037   0.302   5.668  2.7764  0.8260  1.6215
 8773SOL    MW434866   5.054   0.331   5.587 -0.3545 -0.1130  0.1582
 8774SOL     OW34867   3.131   5.782   2.266 -0.0712 -0.3131  0.5340
 8774SOL    HW234868   3.047   5.746   2.295 -1.1519  2.6056  1.3943
 8774SOL    HW334869   3.123   5.788   2.171 -1.1024  0.4220  0.6456
 8774SOL    MW434870   3.119   5.778   2.257  0.2175 -0.2628 -0.0841
 8775SOL     OW34871   1.494   1.520   3.287 -0.1930 -0.3218 -0.6615
 8775SOL    HW234872   1.417   1.562   3.326 -1.0923 -1.3199 -1.2863
 8775SOL    HW334873   1.561   1.523   3.356 -1.2270 -0.6277  0.3938
 8775SOL    MW434874   1.493   1.526   3.301 -0.1299 -0.5455  0.2724
 8776SOL     OW34875   6.008   2.020   3.536 -0.8798  0.0800 -0.6076
 8776SOL    HW234876   5.998   1.934   3.496 -0.1353 -0.2189 -0.1639
 8776SOL    HW334877   5.999   2.004   3.630 -0.5817  0.4586 -0.5102
 8776SOL    MW434878   6.005   2.007   3.543  0.3577 -0.1312 -0.0085
 8777SOL     OW34879   4.919   1.807   1.261  0.6629 -0.6263 -0.6071
 8777SOL    HW234880   4.903   1.871   1.191 -1.7869 -1.0890 -0.5471
 8777SOL    HW334881   4.861   1.734   1.240  0.7896 -1.3069  1.2480
 8777SOL    MW434882   4.910   1.806   1.249 -0.6660 -0.4707 -0.1476
 8778SOL     OW34883   3.318   1.081   4.634  0.4122 -0.5713  0.5218
 8778SOL    HW234884   3.376   1.128   4.695 -0.7439 -0.2296  1.3827
 8778SOL    HW334885   3.347   1.111   4.548  0.7530  0.5053  0.9821
 8778SOL    MW434886   3.330   1.091   4.631 -0.1520  0.3557  0.0827
 8779SOL     OW34887   5.088   1.303   6.000  0.6171 -0.2412  0.3786
 8779SOL    HW234888   5.131   1.279   6.082 -1.0512 -0.5284  1.2143
 8779SOL    HW334889   5.023   1.234   5.986 -1.4374  1.5255  0.6293
 8779SOL    MW434890   5.085   1.291   6.009 -0.0841 -0.3134  0.5359
 8780SOL     OW34891   0.007   2.723   4.998 -0.2692 -0.4607 -0.3247
 8780SOL    HW234892   0.013   2.757   5.087 -1.0590 -3.0446  0.8133
 8780SOL    HW334893  -0.045   2.788   4.951 -0.5451  0.5718  1.3340
 8780SOL    MW434894   0.001   2.736   5.004  0.4260  0.1668  0.0029
 8781SOL     OW34895   3.281   2.532   1.158 -0.3661 -0.0518 -0.3802
 8781SOL    HW234896   3.188   2.552   1.146 -0.2096  1.0944  0.1952
 8781SOL    HW334897   3.326   2.589   1.097  0.0177  0.3071  0.2265
 8781SOL    MW434898   3.275   2.542   1.149  0.8238 -0.4221 -0.6773
 8782SOL     OW34899   0.583   5.815   4.516  0.2407  0.3073 -0.0442
 8782SOL    HW234900   0.550   5.749   4.577  0.9435 -0.4896 -0.5155
 8782SOL    HW334901   0.655   5.858   4.563 -1.6386  2.3706  1.1728
 8782SOL    MW434902   0.588   5.812   4.530 -0.0235  0.3249 -0.2969
 8783SOL     OW34903   5.685   1.080   2.793  0.6452 -0.5418 -0.6602
 8783SOL    HW234904   5.681   1.013   2.861  3.8416 -1.5914 -1.3230
 8783SOL    HW334905   5.677   1.031   2.711 -0.3607  0.3728 -1.1437
 8783SOL    MW434906   5.683   1.065   2.791 -0.1168 -0.3177 -0.5281
 8784SOL     OW34907   3.008   2.281   0.511  0.0127 -0.2198 -0.2511
 8784SOL    HW234908   2.991   2.375   0.504  2.4475  0.6356  2.6783
 8784SOL    HW334909   2.922   2.240   0.504 -1.6735  2.5707  1.9295
 8784SOL    MW434910   2.995   2.288   0.509  0.3984 -0.4147 -0.1650
 8785SOL     OW34911   5.758   3.929   5.473  0.0693  0.3997  0.2779
 8785SOL    HW234912   5.786   3.998   5.532 -1.5429  3.3231 -2.0957
 8785SOL    HW334913   5.788   3.957   5.387 -1.4586 -1.3941 -0.9216
 8785SOL    MW434914   5.766   3.942   5.469 -0.0412 -0.1088  0.2267
 8786SOL     OW34915   2.127   6.006   1.222  0.2853  0.5140 -0.3558
 8786SOL    HW234916   2.113   6.094   1.185 -0.7531  0.3062 -0.4714
 8786SOL    HW334917   2.078   6.006   1.304  0.1064 -0.0326 -0.4628
 8786SOL    MW434918   2.119   6.018   1.228  0.1568  0.0250  0.3722
 8787SOL     OW34919   0.430   2.220   0.666  0.1553 -0.3422  0.5262
 8787SOL    HW234920   0.508   2.266   0.634 -1.9712  2.4115 -1.0964
 8787SOL    HW334921   0.439   2.222   0.761  1.7529  0.4686  0.4016
 8787SOL    MW434922   0.442   2.226   0.674 -0.2655 -0.5355  0.3615
 8788SOL     OW34923   0.447   1.351   4.448  0.8679 -0.4464  0.1379
 8788SOL    HW234924   0.368   1.344   4.394  0.1218 -1.3592  1.3077
 8788SOL    HW334925   0.489   1.265   4.440  0.7135 -0.6158  1.0369
 8788SOL    MW434926   0.442   1.338   4.439 -0.4624  0.0407  0.2826
 8789SOL     OW34927   3.670   1.959   0.034 -0.5234  0.1824  0.4324
 8789SOL    HW234928   3.633   2.033   0.083  0.2652  1.6398 -1.0719
 8789SOL    HW334929   3.661   1.985  -0.058  1.0344 -0.9929 -0.0809
 8789SOL    MW434930   3.664   1.973   0.028 -0.3182  0.0023 -0.3877
 8790SOL     OW34931   3.703   1.549   4.636  0.0093  0.0367  0.5107
 8790SOL    HW234932   3.703   1.513   4.724  0.7275 -1.1065  0.0632
 8790SOL    HW334933   3.642   1.623   4.640  0.5202  0.4066  2.1130
 8790SOL    MW434934   3.695   1.554   4.648  0.0638  0.1207  0.3249
 8791SOL     OW34935   4.539   1.560   4.193  0.0366 -0.2687 -0.2908
 8791SOL    HW234936   4.586   1.588   4.272 -0.3260 -0.5562  0.0315
 8791SOL    HW334937   4.601   1.575   4.122  0.3086  0.1450  0.0298
 8791SOL    MW434938   4.554   1.565   4.194  0.4142 -0.1671 -0.0091
 8792SOL     OW34939   1.840   2.272   1.438 -0.6779  0.7248  0.1728
 8792SOL    HW234940   1.808   2.228   1.517 -0.8613  0.1374 -0.2250
 8792SOL    HW334941   1.935   2.273   1.448 -0.6627  0.1214  0.1265
 8792SOL    MW434942   1.848   2.266   1.450  0.5462  0.4146 -0.3585
 8793SOL     OW34943   2.168   3.665   4.233 -0.0396  0.7303 -0.0504
 8793SOL    HW234944   2.240   3.618   4.192  2.0424  2.9228  0.8331
 8793SOL    HW334945   2.114   3.694   4.160 -0.5357 -1.6131 -0.6899
 8793SOL    MW434946   2.171   3.662   4.218  0.2621 -0.0055 -0.5876
 8794SOL     OW34947   5.133   5.815   4.101  0.1727 -0.4393  0.3052
 8794SOL    HW234948   5.073   5.779   4.036 -0.6917  1.2666  0.1261
 8794SOL    HW334949   5.123   5.757   4.177 -1.3462 -0.4632  0.1101
 8794SOL    MW434950   5.124   5.802   4.102  0.4832 -0.8004  0.7070
 8795SOL     OW34951   1.399   3.069   0.318 -0.0732 -0.1110 -0.0943
 8795SOL    HW234952   1.368   3.077   0.408 -0.9467 -0.5718 -0.3448
 8795SOL    HW334953   1.382   3.155   0.279  2.2935  0.8211  0.7488
 8795SOL    MW434954   1.393   3.081   0.324 -0.1138  0.3295 -0.4606
 8796SOL     OW34955   3.211   6.196   4.797  0.0838 -0.1521 -0.0553
 8796SOL    HW234956   3.299   6.165   4.816  0.0526 -2.7291 -3.1799
 8796SOL    HW334957   3.161   6.176   4.876  0.9890 -4.9413 -0.4072
 8796SOL    MW434958   3.216   6.189   4.810  0.5300  0.2295  0.1947
 8797SOL     OW34959   3.193   0.023   5.065  0.2846 -0.0337 -0.4735
 8797SOL    HW234960   3.169  -0.069   5.067 -0.1186  0.0735 -0.2178
 8797SOL    HW334961   3.140   0.061   4.995  0.8638 -0.1025 -0.9588
 8797SOL    MW434962   3.183   0.016   5.056  0.0794  0.0464 -0.3004
 8798SOL     OW34963   5.618   1.188   4.952  0.1941  0.2689 -0.0786
 8798SOL    HW234964   5.681   1.117   4.962 -1.3130 -1.3188 -1.1490
 8798SOL    HW334965   5.542   1.160   5.004 -0.7740  0.6012 -1.2621
 8798SOL    MW434966   5.616   1.175   4.960  0.3254 -0.1785  0.1450
 8799SOL     OW34967   0.074   3.377   1.202  0.2544  0.0635  0.1810
 8799SOL    HW234968   0.136   3.341   1.139  1.2171  0.5401  0.8360
 8799SOL    HW334969  -0.003   3.400   1.149  0.3270 -1.2036 -0.5289
 8799SOL    MW434970   0.072   3.375   1.187  0.0751  0.0358  0.2711
 8800SOL     OW34971   2.447   0.575   1.838  0.2319  0.1359  0.0930
 8800SOL    HW234972   2.528   0.586   1.887 -0.6949  0.6337  1.5701
 8800SOL    HW334973   2.445   0.649   1.777 -0.3823  1.7303  1.9571
 8800SOL    MW434974   2.457   0.586   1.836 -0.4296  0.0879 -0.3418
 8801SOL     OW34975   1.576   3.901   0.045  0.5917 -0.3114 -0.1823
 8801SOL    HW234976   1.578   3.916  -0.049 -0.6105 -1.0325 -0.3401
 8801SOL    HW334977   1.563   3.988   0.083 -1.8972 -0.3384 -0.8498
 8801SOL    MW434978   1.575   3.915   0.038  0.0183  0.0561 -0.5169
 8802SOL     OW34979   0.527   5.883   1.513  0.0640  0.2223  0.3547
 8802SOL    HW234980   0.463   5.844   1.454 -0.2718  0.3914  0.6015
 8802SOL    HW334981   0.485   5.962   1.546 -0.1075 -0.3209  1.4928
 8802SOL    MW434982   0.513   5.889   1.509  0.4431 -0.7495  0.4248
 8803SOL     OW34983   5.710   0.190   6.287 -0.6658 -0.0013  0.4079
 8803SOL    HW234984   5.687   0.280   6.262  2.6342  0.8942  0.0885
 8803SOL    HW334985   5.781   0.201   6.351 -1.5999 -2.4081  1.9709
 8803SOL    MW434986   5.716   0.204   6.292 -0.8511  0.0313  0.5254
 8804SOL     OW34987   5.546   1.520   4.772  0.6239 -0.6902  0.2273
 8804SOL    HW234988   5.476   1.478   4.822  0.7452 -2.0014 -0.6738
 8804SOL    HW334989   5.626   1.496   4.818  0.6632 -1.1597 -0.0792
 8804SOL    MW434990   5.547   1.512   4.785 -0.1908 -0.7390 -0.3216
 8805SOL     OW34991   4.287   1.905   3.630  0.2248  0.0069  0.3746
 8805SOL    HW234992   4.371   1.910   3.585  0.3578  0.3211  0.6585
 8805SOL    HW334993   4.231   1.967   3.584 -0.5735 -1.8375 -1.3182
 8805SOL    MW434994   4.290   1.914   3.618 -0.4995 -0.2726 -0.0507
 8806SOL     OW34995   1.085   1.757   1.717  0.0686  0.0587 -0.4583
 8806SOL    HW234996   1.052   1.701   1.646  0.4291  0.6521 -1.1114
 8806SOL    HW334997   1.022   1.746   1.788  0.1364 -1.1694 -0.5758
 8806SOL    MW434998   1.072   1.748   1.717 -0.4226 -0.3379 -0.5212
 8807SOL     OW34999   4.626   5.313   2.697  0.3499 -0.2567  0.1730
 8807SOL    HW235000   4.632   5.327   2.792  3.2983 -0.3486  0.0947
 8807SOL    HW335001   4.597   5.222   2.688 -0.0302 -0.2287  0.9620
 8807SOL    MW435002   4.623   5.303   2.709 -0.0634  0.2234 -0.0492
 8808SOL     OW35003   4.546   5.874   0.154  0.2143  0.2414  0.5013
 8808SOL    HW235004   4.571   5.957   0.113 -0.7418 -0.3654 -1.4661
 8808SOL    HW335005   4.458   5.889   0.186  0.2144  0.1219  0.5553
 8808SOL    MW435006   4.538   5.887   0.153 -0.0645  0.1076  0.5299
 8809SOL     OW35007   4.056   3.387   1.734  0.0847  0.2737 -0.4769
 8809SOL    HW235008   4.013   3.367   1.651 -0.2998 -0.0232 -0.2072
 8809SOL    HW335009   4.143   3.419   1.708 -0.5455  1.5788 -1.0426
 8809SOL    MW435010   4.062   3.388   1.720  0.1602  0.0107 -0.0216
 8810SOL     OW35011   0.764   0.722   0.057 -0.1585  0.5518 -0.0017
 8810SOL    HW235012   0.753   0.674   0.139 -0.0963 -0.6763 -0.6964
 8810SOL    HW335013   0.859   0.725   0.045 -0.2047 -0.9889 -0.9916
 8810SOL    MW435014   0.775   0.716   0.067  0.3875 -0.1883 -0.0496
 8811SOL     OW35015   4.919   3.683   5.858  0.2378 -0.3445  0.4148
 8811SOL    HW235016   4.945   3.686   5.766 -0.6738 -1.7122  0.0808
 8811SOL    HW335017   4.995   3.717   5.905  1.5270 -1.5370 -0.7093
 8811SOL    MW435018   4.933   3.688   5.852 -0.1745 -0.2711 -1.0561
 8812SOL     OW35019   0.920   0.920   0.940  0.0127  0.4033 -0.2377
 8812SOL    HW235020   0.900   0.971   0.861 -0.0081  3.1570  1.4143
 8812SOL    HW335021   0.943   0.986   1.006  0.7786 -1.8225  1.8744
 8812SOL    MW435022   0.920   0.936   0.938 -0.1744 -0.5240 -0.5237
 8813SOL     OW35023   5.554   3.224   0.658 -0.3660 -0.1908  0.3101
 8813SOL    HW235024   5.583   3.202   0.569  0.0148  0.8883  0.1464
 8813SOL    HW335025   5.509   3.145   0.688  1.2517 -1.3422 -0.0777
 8813SOL    MW435026   5.552   3.210   0.650  0.5553  0.2552  0.0546
 8814SOL     OW35027   3.595   4.383   4.520 -0.3858 -0.3394 -0.0539
 8814SOL    HW235028   3.578   4.361   4.612 -1.5334  1.9740  0.3656
 8814SOL    HW335029   3.509   4.382   4.478  0.0486 -0.7405 -0.9630
 8814SOL    MW435030   3.582   4.380   4.527  0.0373  0.8055 -0.8034
 8815SOL     OW35031   0.050   0.384   6.139  0.2613  0.1999 -0.0012
 8815SOL    HW235032   0.081   0.322   6.206 -0.0485  2.3639  2.2913
 8815SOL    HW335033  -0.028   0.342   6.103 -0.4816 -0.3966  2.1334
 8815SOL    MW435034   0.044   0.370   6.143 -0.5422  0.4151 -0.2185
 8816SOL     OW35035   4.742   4.449   5.834  0.2247 -0.6962 -0.6973
 8816SOL    HW235036   4.789   4.513   5.888 -0.0037 -0.9197 -0.2332
 8816SOL    HW335037   4.781   4.458   5.747  1.1619 -0.9146 -0.3072
 8816SOL    MW435038   4.753   4.459   5.830 -0.2403  0.4662  0.7627
 8817SOL     OW35039   3.481   6.325   1.329 -0.3986 -0.3697 -0.2639
 8817SOL    HW235040   3.542   6.372   1.385  1.5714 -1.8781 -1.0188
 8817SOL    HW335041   3.410   6.299   1.387  1.0376 -0.9319  1.3130
 8817SOL    MW435042   3.479   6.328   1.344 -0.1763 -0.7653 -0.1711
 8818SOL     OW35043   2.758   0.376   5.876 -0.0795 -0.6324 -0.3409
 8818SOL    HW235044   2.665   0.379   5.856 -0.4251 -0.6211  1.1743
 8818SOL    HW335045   2.789   0.295   5.836 -1.0109 -1.2704  0.2131
 8818SOL    MW435046   2.750   0.366   5.868  0.2665  0.2796  0.4086
 8819SOL     OW35047   3.553   3.380   5.210 -0.2273 -0.4485 -0.3013
 8819SOL    HW235048   3.647   3.377   5.226  0.1200  0.3095 -1.9929
 8819SOL    HW335049   3.528   3.471   5.231 -1.0195 -1.1343  2.0967
 8819SOL    MW435050   3.562   3.392   5.215  0.6446 -0.0674 -0.2707
 8820SOL     OW35051   0.749   5.549   2.247 -0.0835  0.0563  0.0558
 8820SOL    HW235052   0.706   5.609   2.186  0.5842  0.3247 -0.1630
 8820SOL    HW335053   0.838   5.583   2.255 -0.3087  0.3453  1.6182
 8820SOL    MW435054   0.755   5.561   2.240  0.2101 -0.2082  0.1015
 8821SOL     OW35055   5.828   0.979   5.327 -0.3653 -0.3352 -0.0946
 8821SOL    HW235056   5.738   0.963   5.298 -1.6230 -1.7614  3.8772
 8821SOL    HW335057   5.879   0.907   5.290 -1.1333 -0.3705 -1.1346
 8821SOL    MW435058   5.823   0.968   5.318  0.1352  1.2728 -0.3464
 8822SOL     OW35059   2.218   3.901   5.177  0.1086  0.0053 -0.0017
 8822SOL    HW235060   2.182   3.878   5.092  0.6764  0.1746 -0.2920
 8822SOL    HW335061   2.312   3.904   5.163  0.3161 -1.2623  0.9517
 8822SOL    MW435062   2.226   3.898   5.164  0.1046 -0.0779 -0.3324
 8823SOL     OW35063   5.229   3.821   2.677 -0.0058 -0.4046  0.2537
 8823SOL    HW235064   5.189   3.763   2.612 -0.3849 -0.6929  0.7413
 8823SOL    HW335065   5.303   3.771   2.711  0.1197 -0.3028  0.1301
 8823SOL    MW435066   5.234   3.807   2.673 -0.0019  0.1531 -0.5193
 8824SOL     OW35067   4.728   6.113   4.471 -0.0127  0.0068 -0.6158
 8824SOL    HW235068   4.731   6.204   4.501 -3.1942 -0.1785  0.6667
 8824SOL    HW335069   4.664   6.071   4.529 -0.0042 -2.6091 -2.3307
 8824SOL    MW435070   4.720   6.120   4.483  0.4749 -0.3571 -0.1627
 8825SOL     OW35071   2.532   3.585   2.522  0.1254 -0.4228 -0.4213
 8825SOL    HW235072   2.542   3.519   2.590 -0.0393  0.1729  0.1916
 8825SOL    HW335073   2.474   3.650   2.560 -1.3019 -0.8759 -1.7434
 8825SOL    MW435074   2.526   3.585   2.536 -0.2206  0.5982  0.4629
 8826SOL     OW35075   0.813   0.301   2.571  0.1263  0.6450  0.3287
 8826SOL    HW235076   0.731   0.295   2.620 -0.2108 -1.4865 -0.3943
 8826SOL    HW335077   0.785   0.297   2.479  1.0579 -1.4567  0.0804
 8826SOL    MW435078   0.798   0.300   2.565 -0.3906  0.0096 -0.4341
 8827SOL     OW35079   1.077   2.205   1.602  0.3645 -0.1015 -0.4076
 8827SOL    HW235080   1.054   2.211   1.509  2.5765 -1.2089 -1.0905
 8827SOL    HW335081   1.073   2.296   1.633 -0.1553  0.3225 -1.6417
 8827SOL    MW435082   1.073   2.218   1.594  0.3514  0.1529 -0.7884
 8828SOL     OW35083   2.346   3.673   1.865 -0.1241 -0.4893  0.2903
 8828SOL    HW235084   2.259   3.648   1.898  0.2002 -1.4137  0.4746
 8828SOL    HW335085   2.407   3.616   1.912  0.6622  0.6903  0.7362
 8828SOL    MW435086   2.342   3.662   1.876 -0.2672  0.2046 -0.3303
 8829SOL     OW35087   0.434   0.140   0.065 -0.1484 -0.0832 -0.7574
 8829SOL    HW235088   0.409   0.132  -0.027 -3.1991  2.5695 -0.3336
 8829SOL    HW335089   0.494   0.214   0.067  1.1139 -1.0608 -0.6971
 8829SOL    MW435090   0.439   0.148   0.053  0.5667 -0.0492 -0.4439
 8830SOL     OW35091   5.204   6.393   1.246  1.2872 -0.4731  0.2219
 8830SOL    HW235092   5.142   6.412   1.316  1.5357  0.1794  0.2766
 8830SOL    HW335093   5.158   6.333   1.188 -0.0292  1.2587 -0.6213
 8830SOL    MW435094   5.190   6.388   1.248  0.8928  0.1882 -0.1174
 8831SOL     OW35095   4.160   0.469   2.403  0.7351  0.3223 -0.2058
 8831SOL    HW235096   4.094   0.435   2.464  0.1468 -1.6227 -1.8182
 8831SOL    HW335097   4.176   0.558   2.433  0.3234 -0.4441  2.6412
 8831SOL    MW435098   4.153   0.476   2.415  0.1930 -0.1677 -0.0982
 8832SOL     OW35099   3.809   4.434   3.575 -0.0510 -0.3963 -0.2677
 8832SOL    HW235100   3.725   4.405   3.539  0.3496 -1.5088 -0.3522
 8832SOL    HW335101   3.836   4.362   3.633  0.2620  0.4897  0.7135
 8832SOL    MW435102   3.801   4.420   3.578 -0.3585  0.1709 -0.6149
 8833SOL     OW35103   4.821   4.221   4.434  0.0166 -0.3496  0.5720
 8833SOL    HW235104   4.794   4.300   4.388 -0.4049 -1.6033 -1.4474
 8833SOL    HW335105   4.739   4.173   4.450  0.3037 -0.5866  1.4190
 8833SOL    MW435106   4.807   4.225   4.430  0.0578  0.4696 -0.0108
 8834SOL     OW35107   5.882   3.264   0.233  0.2614 -0.3721 -0.0571
 8834SOL    HW235108   5.928   3.338   0.272  2.4005 -0.5804 -2.0318
 8834SOL    HW335109   5.849   3.298   0.150 -1.8198 -0.7214  0.5606
 8834SOL    MW435110   5.883   3.279   0.227  0.3776 -0.8134 -0.4777
 8835SOL     OW35111   0.735   5.964   4.919  0.4779  0.7160  0.2820
 8835SOL    HW235112   0.765   5.897   4.981  0.4542  1.2950  0.9295
 8835SOL    HW335113   0.795   5.957   4.845 -0.1557 -0.7251 -0.1389
 8835SOL    MW435114   0.747   5.954   4.918  0.0375 -0.1038  0.0425
 8836SOL     OW35115   5.492   0.921   3.686 -0.2478 -0.4122 -0.4937
 8836SOL    HW235116   5.460   0.832   3.671 -0.9086 -0.3500  0.4909
 8836SOL    HW335117   5.554   0.936   3.614  0.5527 -1.9869 -0.1802
 8836SOL    MW435118   5.496   0.911   3.675  0.9579 -0.2523  0.2275
 8837SOL     OW35119   5.270   2.739   1.664  0.0725  0.1125 -0.3487
 8837SOL    HW235120   5.258   2.760   1.757  1.2582 -0.6234  0.0082
 8837SOL    HW335121   5.360   2.766   1.645 -0.0420 -0.0675 -1.1806
 8837SOL    MW435122   5.281   2.745   1.674  0.0868  0.2027  0.3231
 8838SOL     OW35123   3.686   0.894   4.704  0.2189  0.2682  0.0574
 8838SOL    HW235124   3.672   0.875   4.612  0.6256  0.3938 -0.0321
 8838SOL    HW335125   3.623   0.838   4.750 -1.0082  1.2739 -0.3573
 8838SOL    MW435126   3.676   0.884   4.698 -0.0375  0.6061  0.3165
 8839SOL     OW35127   5.705   2.125   5.551 -0.4925  0.1697 -0.2889
 8839SOL    HW235128   5.748   2.158   5.630  1.0144  0.3962 -1.1548
 8839SOL    HW335129   5.632   2.185   5.537 -1.8644 -0.8715  1.8372
 8839SOL    MW435130   5.701   2.137   5.560  0.1627  0.3153 -0.5565
 8840SOL     OW35131   2.140   2.037   5.831 -0.5689 -0.3541  0.0866
 8840SOL    HW235132   2.073   2.098   5.861 -2.1974 -1.9900 -0.1027
 8840SOL    HW335133   2.178   2.081   5.754  0.1512  1.5676  1.4622
 8840SOL    MW435134   2.136   2.051   5.824 -0.5981  0.2338 -0.4053
 8841SOL     OW35135   1.572   6.068   2.426 -0.4933  0.1463  0.0727
 8841SOL    HW235136   1.605   6.113   2.349  4.2015 -0.0895  1.6000
 8841SOL    HW335137   1.603   5.978   2.417 -2.4305 -0.6716  0.9244
 8841SOL    MW435138   1.580   6.062   2.415 -0.7733  0.0242  0.3522
 8842SOL     OW35139   3.913   0.490   3.152 -0.1241  0.5911  0.0906
 8842SOL    HW235140   3.866   0.407   3.144  1.3002 -0.1091 -1.9235
 8842SOL    HW335141   3.845   0.557   3.150 -1.1996 -0.4595  0.3154
 8842SOL    MW435142   3.898   0.488   3.151 -0.2972  0.1285 -0.3100
 8843SOL     OW35143   5.330   3.131   4.455  0.6067 -0.7251 -0.7270
 8843SOL    HW235144   5.299   3.200   4.515  1.3874 -0.7661 -0.2526
 8843SOL    HW335145   5.401   3.088   4.504 -0.9077 -2.9369 -0.3616
 8843SOL    MW435146   5.335   3.135   4.470  0.0739 -0.6121 -0.0560
 8844SOL     OW35147   0.030   2.335   5.613  0.1113 -0.4435  0.2947
 8844SOL    HW235148  -0.032   2.262   5.613 -3.3492  2.1875 -1.4060
 8844SOL    HW335149   0.007   2.385   5.692 -1.9770  1.9218 -1.6503
 8844SOL    MW435150   0.018   2.332   5.624  0.5872 -0.2452 -0.2273
 8845SOL     OW35151   5.118   6.136   2.404  0.4843  0.0629  0.3867
 8845SOL    HW235152   5.109   6.090   2.320 -1.6451  0.2633  0.4591
 8845SOL    HW335153   5.050   6.202   2.402 -0.1449 -0.4557  2.6224
 8845SOL    MW435154   5.108   6.138   2.393 -0.5232  0.1494 -0.6705
 8846SOL     OW35155   3.160   5.495   4.571  0.5837 -0.0174  0.3197
 8846SOL    HW235156   3.151   5.522   4.479  1.3939  1.6010  0.6721
 8846SOL    HW335157   3.175   5.401   4.567  1.1032  0.0998 -1.2480
 8846SOL    MW435158   3.161   5.486   4.558  0.0717 -0.0885  0.3717
 8847SOL     OW35159   1.382   5.444   1.620 -0.3575 -0.0937 -0.3354
 8847SOL    HW235160   1.458   5.498   1.640 -0.6904  0.5448 -0.7768
 8847SOL    HW335161   1.332   5.441   1.701  0.5602 -1.2295  0.2149
 8847SOL    MW435162   1.385   5.450   1.633 -0.1038 -0.2527  0.3480
 8848SOL     OW35163   0.094   0.429   1.255 -0.0334 -0.6951 -0.0149
 8848SOL    HW235164   0.115   0.376   1.332 -1.4074  0.9157  1.5701
 8848SOL    HW335165   0.163   0.495   1.252  0.0020 -0.7379 -0.1385
 8848SOL    MW435166   0.106   0.430   1.265 -0.3061 -0.3231  0.1960
 8849SOL     OW35167   5.611   2.882   1.856 -0.7243 -0.0764  0.5503
 8849SOL    HW235168   5.598   2.838   1.940  2.6414  1.4593  2.0428
 8849SOL    HW335169   5.704   2.902   1.853 -0.3903 -1.1614 -4.2074
 8849SOL    MW435170   5.622   2.879   1.867  0.2510  0.1096 -0.4295
 8850SOL     OW35171   1.860   3.896   1.241  0.5499 -0.1782  0.1091
 8850SOL    HW235172   1.857   3.985   1.207  0.4507 -0.2363 -0.0369
 8850SOL    HW335173   1.953   3.871   1.235  0.8329  0.4479  1.5586
 8850SOL    MW435174   1.872   3.904   1.236  0.6858  0.4047 -0.3358
 8851SOL     OW35175   4.369   3.203   4.045 -0.5581  0.5422  0.0118
 8851SOL    HW235176   4.391   3.291   4.015 -1.4362  0.8080  0.1212
 8851SOL    HW335177   4.433   3.184   4.113 -0.5002  1.1917  0.1471
 8851SOL    MW435178   4.380   3.212   4.050  0.7913  0.6029  0.0908
 8852SOL     OW35179   4.312   3.882   2.774 -0.4058  0.0436  0.1571
 8852SOL    HW235180   4.337   3.967   2.738 -0.5297  0.2646  0.5866
 8852SOL    HW335181   4.246   3.903   2.840  0.2734 -0.3065  0.9530
 8852SOL    MW435182   4.307   3.896   2.778  0.0941  0.0016  0.4569
 8853SOL     OW35183   3.358   0.393   3.673  0.0633  0.6293  0.1717
 8853SOL    HW235184   3.364   0.477   3.628  3.2564 -0.2329 -1.2848
 8853SOL    HW335185   3.273   0.358   3.646  1.0855  0.8981 -4.0794
 8853SOL    MW435186   3.347   0.399   3.664  0.4564  0.3685 -0.7825
 8854SOL     OW35187   3.145   4.636   4.430  0.0117  0.0580  0.3190
 8854SOL    HW235188   3.146   4.722   4.472  0.4218  0.5045 -0.5719
 8854SOL    HW335189   3.084   4.647   4.356  0.9415 -0.0559 -0.4900
 8854SOL    MW435190   3.137   4.649   4.425 -1.0642 -0.2836  0.6975
 8855SOL     OW35191   0.708   3.022   6.096 -0.3004  0.5547  0.2123
 8855SOL    HW235192   0.694   2.986   6.008 -1.1450 -0.0925  0.5982
 8855SOL    HW335193   0.789   2.980   6.126 -0.4708  0.1203  0.0737
 8855SOL    MW435194   0.717   3.012   6.088 -0.0639  0.1700  0.3977
 8856SOL     OW35195   4.249   5.025   2.541  0.0744 -0.1886 -0.2864
 8856SOL    HW235196   4.165   5.026   2.494  0.4494 -0.2391 -0.9585
 8856SOL    HW335197   4.242   4.950   2.599 -0.0102 -0.7109 -0.9594
 8856SOL    MW435198   4.237   5.015   2.542 -0.2344 -0.1703  0.1684
 8857SOL     OW35199   0.393   6.221   2.889  0.6229  0.2464 -0.0203
 8857SOL    HW235200   0.369   6.310   2.862 -0.6623 -0.0193  0.1953
 8857SOL    HW335201   0.392   6.169   2.809  1.4974  0.4353 -0.1662
 8857SOL    MW435202   0.390   6.226   2.875 -0.3732  0.2678  0.4184
 8858SOL     OW35203   2.143   3.466   1.300 -0.1868  0.6965  0.5614
 8858SOL    HW235204   2.068   3.519   1.326 -1.7441 -0.8255 -0.5865
 8858SOL    HW335205   2.105   3.385   1.267  2.0852 -1.3835  2.6309
 8858SOL    MW435206   2.128   3.463   1.299  0.0101  0.0368 -0.0422
 8859SOL     OW35207   3.271   5.062   3.461 -0.2436  0.3729 -1.1449
 8859SOL    HW235208   3.324   5.092   3.535 -1.2486 -1.8644  0.6138
 8859SOL    HW335209   3.214   5.136   3.441  0.3163  1.1682  0.0741
 8859SOL    MW435210   3.271   5.076   3.468  0.1824  0.3551 -0.3733
 8860SOL     OW35211   6.350   6.132   3.127  0.3455 -0.5096 -0.8114
 8860SOL    HW235212   6.349   6.110   3.034  0.4364  2.4534 -1.6433
 8860SOL    HW335213   6.267   6.179   3.141  0.5008 -0.5855  0.4970
 8860SOL    MW435214   6.339   6.136   3.117  0.1060 -0.2942  0.2159
 8861SOL     OW35215   1.034   3.504   0.431 -0.1254  0.4699  0.4889
 8861SOL    HW235216   1.015   3.455   0.511  1.8319 -0.3330  0.5351
 8861SOL    HW335217   1.102   3.566   0.458  1.4659 -0.6428 -0.7662
 8861SOL    MW435218   1.041   3.506   0.445  0.4609  0.7452 -0.0235
 8862SOL     OW35219   4.795   3.623   1.252 -0.3526 -0.2286 -0.3533
 8862SOL    HW235220   4.714   3.574   1.248 -0.1833 -0.7872  1.8451
 8862SOL    HW335221   4.768   3.715   1.247 -1.0225 -0.4365 -0.6198
 8862SOL    MW435222   4.781   3.629   1.251 -0.3778 -0.3880  0.1462
 8863SOL     OW35223   6.426   5.511   1.182 -0.2500 -0.2551  0.0842
 8863SOL    HW235224   6.469   5.486   1.264 -0.2675 -1.4648 -0.2589
 8863SOL    HW335225   6.466   5.594   1.158 -1.9787  1.4594  2.5986
 8863SOL    MW435226   6.437   5.519   1.190  1.0110 -0.6913 -0.4943
 8864SOL     OW35227   0.378   1.991   4.025 -0.3765  0.4120  0.6767
 8864SOL    HW235228   0.357   1.898   4.013 -0.9278  0.6373 -0.1791
 8864SOL    HW335229   0.469   1.991   4.057  0.5950 -0.3413 -1.8531
 8864SOL    MW435230   0.388   1.979   4.028 -0.3627  0.1905 -0.3936
 8865SOL     OW35231   0.046   2.425   4.530  0.5877 -0.2327  0.2483
 8865SOL    HW235232  -0.016   2.352   4.522  0.0512  0.0998  1.1459
 8865SOL    HW335233   0.109   2.395   4.596  0.9560 -0.2808 -0.1254
 8865SOL    MW435234   0.046   2.411   4.538  0.1566 -0.4961  0.1562
 8866SOL     OW35235   4.620   1.856   3.186  0.2342 -0.1804  0.9700
 8866SOL    HW235236   4.636   1.865   3.092  0.0325 -0.7100  0.8820
 8866SOL    HW335237   4.683   1.917   3.227  0.6957 -0.3461  0.5203
 8866SOL    MW435238   4.631   1.866   3.179  0.1431 -0.0443 -0.6811
 8867SOL     OW35239   4.335   5.022   1.711  0.0838  0.4235  0.3315
 8867SOL    HW235240   4.372   5.085   1.649  1.0886  0.2513  0.7399
 8867SOL    HW335241   4.244   5.049   1.720  0.0944  0.8665 -0.6903
 8867SOL    MW435242   4.328   5.034   1.704  0.0978 -0.7160 -0.0008
 8868SOL     OW35243   3.814   4.493   2.256  0.6817  0.3733  0.5211
 8868SOL    HW235244   3.812   4.583   2.223  0.7898  0.0936 -0.2641
 8868SOL    HW335245   3.794   4.439   2.180 -0.6928 -0.2062  1.2514
 8868SOL    MW435246   3.811   4.497   2.242  0.2397  0.3714  0.3751
 8869SOL     OW35247   2.575   0.123   3.482  0.6594  0.1760  0.3042
 8869SOL    HW235248   2.524   0.046   3.508 -1.0587 -0.2304 -3.5093
 8869SOL    HW335249   2.508   0.188   3.458  2.0631  1.9105  0.9069
 8869SOL    MW435250   2.559   0.121   3.482 -0.3684 -0.2909 -0.1432
 8870SOL     OW35251   1.563   5.227   0.631  0.9594  0.4157 -0.0372
 8870SOL    HW235252   1.613   5.159   0.676  1.2520  1.5478  1.4173
 8870SOL    HW335253   1.608   5.309   0.653 -0.5826  1.2941 -0.0357
 8870SOL    MW435254   1.576   5.229   0.640 -0.7800 -0.2441 -0.0334
 8871SOL     OW35255   4.031   5.698   3.361  0.2798 -0.2323 -0.2862
 8871SOL    HW235256   3.973   5.623   3.356  0.1393 -0.0522 -1.4241
 8871SOL    HW335257   4.084   5.682   3.440 -1.7464 -0.0485  1.2076
 8871SOL    MW435258   4.030   5.686   3.371  0.0446 -0.0805  0.0892
 8872SOL     OW35259   2.568   4.889   4.259  0.3841 -0.3017 -0.3078
 8872SOL    HW235260   2.517   4.876   4.339  0.4812 -0.5203 -0.2820
 8872SOL    HW335261   2.624   4.965   4.279 -0.0319  0.0277 -0.3906
 8872SOL    MW435262   2.569   4.897   4.272 -0.4608  0.3051 -0.5672
 8873SOL     OW35263   6.324   0.882   4.130 -0.0445  0.1851  0.1367
 8873SOL    HW235264   6.322   0.965   4.177 -0.5539  1.1295 -1.4789
 8873SOL    HW335265   6.417   0.864   4.117  0.0783  1.3822 -0.9107
 8873SOL    MW435266   6.336   0.891   4.134  0.1437  0.4780  0.3411
 8874SOL     OW35267   1.151   3.217   3.468 -0.2658 -0.0358 -0.0594
 8874SOL    HW235268   1.182   3.163   3.541 -1.2026  0.4605  0.7270
 8874SOL    HW335269   1.214   3.289   3.464  0.5592 -0.7741 -0.6279
 8874SOL    MW435270   1.163   3.219   3.477  0.1976  0.2872 -0.1988
 8875SOL     OW35271   1.499   5.694   1.283 -0.1500 -0.2503 -0.0471
 8875SOL    HW235272   1.486   5.759   1.352 -0.0466  1.7059 -1.7748
 8875SOL    HW335273   1.446   5.619   1.311 -0.4788  0.6512  1.9069
 8875SOL    MW435274   1.490   5.692   1.295  0.3587 -0.2506 -0.0182
 8876SOL     OW35275   3.336   1.499   2.736  0.9369  0.0298  0.0073
 8876SOL    HW235276   3.404   1.560   2.765 -0.4836  1.4583  0.4833
 8876SOL    HW335277   3.279   1.489   2.812 -2.0599  2.6976 -1.6169
 8876SOL    MW435278   3.337   1.506   2.750 -0.5578  0.2601 -0.3927
 8877SOL     OW35279   4.435   1.785   2.643  0.0603  0.0510  0.1904
 8877SOL    HW235280   4.464   1.694   2.647  0.1871  0.1235  1.1009
 8877SOL    HW335281   4.359   1.783   2.584  1.3936 -0.2658 -1.6265
 8877SOL    MW435282   4.429   1.773   2.635  0.0676  0.3673  0.4476
 8878SOL     OW35283   3.758   2.720   2.597  0.2253 -0.0182 -0.1399
 8878SOL    HW235284   3.797   2.640   2.562 -1.1557 -0.0882 -1.6579
 8878SOL    HW335285   3.806   2.791   2.553 -0.8021 -0.0966 -1.4610
 8878SOL    MW435286   3.770   2.719   2.587  0.3312  0.1352  0.2823
 8879SOL     OW35287   6.112   4.000   5.146 -0.5144  0.2712  0.5035
 8879SOL    HW235288   6.186   3.951   5.109 -0.3355  1.6460 -1.0386
 8879SOL    HW335289   6.137   4.013   5.238  1.3024  0.9058 -0.0294
 8879SOL    MW435290   6.125   3.995   5.153  0.3447  0.5020  0.3694
 8880SOL     OW35291   1.989   1.225   0.999 -0.1786  0.1147  0.1978
 8880SOL    HW235292   1.909   1.253   1.044  0.8249  1.6094  1.1484
 8880SOL    HW335293   2.057   1.284   1.032  1.3835 -1.2712 -0.3928
 8880SOL    MW435294   1.987   1.236   1.010 -0.3807 -0.5714 -0.1658
 8881NA      NA35295   5.277   1.466   2.068 -0.4822 -0.0413  0.1628
 8882NA      NA35296   0.303   3.054   3.742  0.5249 -0.2276 -0.4709
 8883NA      NA35297   2.461   2.336   6.162  0.3332  0.1848  0.0468
 8884NA      NA35298   3.703   0.765   6.287 -0.2916 -0.4287  0.4215
 8885NA      NA35299   5.033   4.960   5.066  0.0713 -0.3200  0.2738
 8886NA      NA35300   5.901   4.914   0.886  0.3207  0.3018  0.2334
 8887NA      NA35301   0.652   2.391   3.105  0.2548  0.2137 -0.1860
   6.42840   6.42840   6.42840
