A-SYNC WITH LIG-47 in water
35301
  121NASP     N    1   5.157   6.022   1.267 -0.3254 -0.5803 -1.3630
  121NASP    H1    2   5.219   5.979   1.335 -2.4380 -0.2143  0.9695
  121NASP    H2    3   5.136   6.118   1.290 -1.9049 -1.2435  0.2473
  121NASP    H3    4   5.208   6.026   1.180 -0.9263  3.5904 -1.7275
  121NASP    CA    5   5.030   5.951   1.251 -0.8219 -0.9453  0.3057
  121NASP    HA    6   5.006   5.974   1.147  1.2156  0.2236  0.0375
  121NASP    CB    7   5.049   5.797   1.252  0.3383  0.2397  0.1320
  121NASP   HB1    8   4.970   5.756   1.190  1.2789  0.8802 -1.5389
  121NASP   HB2    9   5.037   5.761   1.354  0.7830  0.8878  0.4211
  121NASP    CG   10   5.173   5.739   1.188 -0.3459 -0.1462 -0.4903
  121NASP   OD1   11   5.191   5.618   1.204  0.4100  0.3154  0.0633
  121NASP   OD2   12   5.246   5.812   1.116 -0.0196 -0.0543  0.0707
  121NASP     C   13   4.927   6.005   1.347  0.2994  0.5168 -0.1808
  121NASP     O   14   4.951   6.060   1.451 -0.5439  0.2440  0.2601
  122ASN      N   15   4.803   5.973   1.311 -0.0259  0.0310 -0.1806
  122ASN      H   16   4.806   5.918   1.226  0.3519 -1.1601  0.5751
  122ASN     CA   17   4.673   6.009   1.371  0.5001 -0.0018 -0.6785
  122ASN     HA   18   4.669   6.118   1.367 -4.3762  0.0290 -1.2447
  122ASN     CB   19   4.548   5.953   1.288 -0.2144 -0.1615 -0.2919
  122ASN    HB1   20   4.554   5.844   1.299  0.9561 -0.0600  0.2088
  122ASN    HB2   21   4.542   5.981   1.183 -0.7437  1.2843  0.1090
  122ASN     CG   22   4.426   5.998   1.367 -0.6644 -0.2492 -0.2689
  122ASN    OD1   23   4.397   6.118   1.381  0.3946 -0.2473 -0.2417
  122ASN    ND2   24   4.356   5.905   1.422 -0.1113  0.7212 -0.0983
  122ASN   HD21   25   4.277   5.933   1.478 -0.4754  2.7754 -1.5223
  122ASN   HD22   26   4.391   5.810   1.416 -1.5898  0.1394  0.1085
  122ASN      C   27   4.666   5.965   1.523  0.5472 -0.3383 -0.1362
  122ASN      O   28   4.707   5.853   1.550  0.2820 -0.2451  0.5398
  123GLU      N   29   4.612   6.056   1.610 -0.2228 -0.2885 -0.5254
  123GLU      H   30   4.586   6.137   1.557  0.5557 -0.9412 -1.9579
  123GLU     CA   31   4.596   6.047   1.757  0.2237 -0.0358  0.5535
  123GLU     HA   32   4.602   5.940   1.780 -0.4922 -0.1165  0.3837
  123GLU     CB   33   4.706   6.128   1.832  0.0169  0.0872  0.0248
  123GLU    HB1   34   4.679   6.119   1.938  1.4463 -1.8694  0.2814
  123GLU    HB2   35   4.702   6.235   1.814  0.6756  0.0205 -0.5320
  123GLU     CG   36   4.856   6.092   1.808  0.4666 -0.5272  0.0486
  123GLU    HG1   37   4.883   6.092   1.703  1.0161  1.4278  0.1562
  123GLU    HG2   38   4.869   5.989   1.840 -0.4223 -0.9634 -0.9423
  123GLU     CD   39   4.949   6.193   1.883  0.1353  0.2593  0.0012
  123GLU    OE1   40   5.057   6.220   1.826  0.5385  0.4333  0.4632
  123GLU    OE2   41   4.934   6.225   2.008 -0.4727 -0.1760 -0.1583
  123GLU      C   42   4.450   6.083   1.801 -0.1803  0.1587 -0.1591
  123GLU      O   43   4.412   6.046   1.915 -0.1940 -0.0878 -0.3477
  124ALA      N   44   4.374   6.147   1.723 -0.0577  0.2236  0.1373
  124ALA      H   45   4.411   6.179   1.635  0.0242  0.6300  0.3203
  124ALA     CA   46   4.230   6.162   1.735  0.3588 -1.1686  0.2432
  124ALA     HA   47   4.205   6.192   1.837 -1.5279  0.0225 -0.5252
  124ALA     CB   48   4.174   6.275   1.647 -0.0955 -0.3704  0.6301
  124ALA    HB1   49   4.202   6.372   1.688 -0.5407  0.4669 -0.9854
  124ALA    HB2   50   4.065   6.274   1.645 -0.1345  1.5377  0.1008
  124ALA    HB3   51   4.203   6.262   1.543 -2.0984 -0.0699 -0.0087
  124ALA      C   52   4.158   6.030   1.713  0.2833  0.1190 -0.0180
  124ALA      O   53   4.215   5.931   1.666 -0.5948 -0.1293 -0.8111
  125TYR      N   54   4.034   6.020   1.754  0.6694  0.1846 -0.3184
  125TYR      H   55   3.981   6.097   1.792 -2.1854 -2.2833  1.1502
  125TYR     CA   56   3.946   5.899   1.760  0.3012  0.1229 -0.7046
  125TYR     HA   57   3.988   5.822   1.695  0.0940 -0.9706  0.4210
  125TYR     CB   58   3.942   5.831   1.904  0.2067  0.1803  0.5716
  125TYR    HB1   59   3.862   5.757   1.897 -1.8479  2.1613  1.8054
  125TYR    HB2   60   3.903   5.896   1.982 -3.0002  0.2192 -0.8914
  125TYR     CG   61   4.066   5.756   1.969 -0.2137 -0.3727  0.4651
  125TYR    CD1   62   4.172   5.836   2.028 -0.3798 -0.0477  0.4674
  125TYR    HD1   63   4.158   5.943   2.026  0.2289  0.0302 -0.0006
  125TYR    CE1   64   4.298   5.774   2.039 -0.6349  0.0000  0.1126
  125TYR    HE1   65   4.382   5.828   2.080  0.1254 -0.8475 -0.2969
  125TYR     CZ   66   4.312   5.635   2.028 -0.7063  0.1759  0.2503
  125TYR     OH   67   4.428   5.575   2.058 -0.2229  0.0890 -0.2348
  125TYR     HH   68   4.492   5.638   2.094  0.5273 -0.4530 -0.6014
  125TYR    CE2   69   4.205   5.547   1.986  0.5264 -0.1085  0.2139
  125TYR    HE2   70   4.218   5.441   1.972  0.6878  0.1809 -2.0626
  125TYR    CD2   71   4.086   5.616   1.950  0.0363 -0.7796  0.3189
  125TYR    HD2   72   4.009   5.557   1.902 -0.8987 -0.5608  1.4998
  125TYR      C   73   3.807   5.936   1.708 -0.0984  0.3875 -0.5285
  125TYR      O   74   3.769   6.054   1.704 -0.1061 -0.3887 -0.5446
  126GLU      N   75   3.737   5.844   1.639 -0.5837  0.2053 -0.1396
  126GLU      H   76   3.769   5.749   1.649 -2.0496 -0.1099  2.8287
  126GLU     CA   77   3.615   5.874   1.552 -0.1298 -0.4115 -0.2016
  126GLU     HA   78   3.652   5.939   1.473  1.5260  0.9029  1.5531
  126GLU     CB   79   3.573   5.742   1.491 -0.1453 -0.2704 -0.8317
  126GLU    HB1   80   3.577   5.674   1.577  1.2326  0.4844 -0.2594
  126GLU    HB2   81   3.653   5.719   1.421  2.5864  1.8677  1.3543
  126GLU     CG   82   3.438   5.750   1.414  0.1564  0.6104 -0.1338
  126GLU    HG1   83   3.457   5.806   1.322  0.3347  0.2639 -0.3112
  126GLU    HG2   84   3.362   5.797   1.475 -0.1261  0.4403 -0.3475
  126GLU     CD   85   3.392   5.603   1.376  0.1338  0.1041  0.3230
  126GLU    OE1   86   3.275   5.569   1.388 -0.4180  0.2265  0.1898
  126GLU    OE2   87   3.472   5.513   1.361 -0.2983  0.1847 -0.2670
  126GLU      C   88   3.506   5.951   1.626  0.4137  0.6938  0.4230
  126GLU      O   89   3.458   5.908   1.734  0.5952 -0.1408  0.3704
  127MET      N   90   3.483   6.073   1.582 -0.1424  0.0920  0.9023
  127MET      H   91   3.544   6.107   1.509 -1.5713  1.9238  0.5036
  127MET     CA   92   3.365   6.149   1.616 -0.1105  0.2824  0.3425
  127MET     HA   93   3.361   6.157   1.725  0.7138  2.2300  0.2688
  127MET     CB   94   3.366   6.299   1.580 -0.4083  0.1498  0.1269
  127MET    HB1   95   3.458   6.334   1.626  0.8300 -1.3132 -1.1040
  127MET    HB2   96   3.282   6.348   1.628 -0.7994 -0.7621  0.3998
  127MET     CG   97   3.370   6.340   1.433  0.1732  0.0231 -0.2482
  127MET    HG1   98   3.406   6.443   1.434  1.9905 -0.5792 -0.4188
  127MET    HG2   99   3.267   6.332   1.397 -0.5835 -0.2553  1.8343
  127MET     SD  100   3.490   6.254   1.327 -0.1170 -0.1084  0.3914
  127MET     CE  101   3.480   6.374   1.195 -0.8439  0.1008 -0.5130
  127MET    HE1  102   3.482   6.475   1.234 -0.8102 -0.1974  0.2838
  127MET    HE2  103   3.396   6.360   1.127  0.4691 -1.7243 -1.8948
  127MET    HE3  104   3.568   6.357   1.132  0.6694  1.7109  1.0778
  127MET      C  105   3.235   6.087   1.560 -0.1041 -0.3555  0.2028
  127MET      O  106   3.246   6.008   1.460 -0.4354 -0.5271 -0.0090
  128PRO      N  107   3.107   6.111   1.602 -0.0021 -0.2137  0.2696
  128PRO     CD  108   3.064   6.194   1.708  0.6571 -0.0520 -0.1564
  128PRO    HD1  109   3.052   6.292   1.661 -1.1253 -0.3214 -0.3199
  128PRO    HD2  110   3.129   6.200   1.795 -0.6602 -0.7126  0.9054
  128PRO     CG  111   2.931   6.144   1.766 -0.4538  0.0478  0.5754
  128PRO    HG1  112   2.870   6.213   1.824  0.7729 -0.8036  3.0048
  128PRO    HG2  113   2.958   6.059   1.829  0.3983  0.1796  0.3927
  128PRO     CB  114   2.866   6.092   1.637 -0.1575  0.2318 -0.7059
  128PRO    HB1  115   2.798   6.012   1.665  1.3690 -0.8347  0.0431
  128PRO    HB2  116   2.815   6.174   1.585  1.3384  1.3801 -0.4354
  128PRO     CA  117   2.984   6.037   1.551 -0.0238 -0.1850 -0.2782
  128PRO     HA  118   3.006   5.931   1.565  0.7786  0.1344  1.0616
  128PRO      C  119   2.968   6.068   1.403  0.0508  0.2455  0.3590
  128PRO      O  120   2.983   6.175   1.354 -0.2327 -0.0042  0.1697
  129SER      N  121   2.925   5.964   1.329  0.4062 -0.4600 -0.1311
  129SER      H  122   2.926   5.876   1.378  2.4765 -1.2495 -1.4469
  129SER     CA  123   2.889   5.966   1.184 -0.0108 -0.1257  0.1209
  129SER     HA  124   2.976   6.008   1.135 -1.0712  0.5161 -1.2745
  129SER     CB  125   2.848   5.819   1.143 -0.1681  0.0469  0.1247
  129SER    HB1  126   2.777   5.785   1.218 -0.9332  0.4422 -0.4212
  129SER    HB2  127   2.935   5.752   1.151 -1.0784 -0.9776  1.9266
  129SER     OG  128   2.795   5.821   1.010 -0.0189  0.7606 -0.4756
  129SER    HG1  129   2.788   5.736   0.966  0.1831  0.4232  0.1364
  129SER      C  130   2.776   6.063   1.149  0.7439 -0.5363 -0.0089
  129SER      O  131   2.670   6.059   1.214 -0.3381  0.2324 -0.2811
  130GLU      N  132   2.799   6.136   1.033 -0.1824 -0.1134 -0.3486
  130GLU      H  133   2.876   6.116   0.970 -0.6736 -3.7009 -0.0583
  130GLU     CA  134   2.693   6.229   0.986  0.3534 -0.5676 -0.3685
  130GLU     HA  135   2.661   6.285   1.074  0.9702 -0.3746 -0.2600
  130GLU     CB  136   2.753   6.313   0.870  0.3947 -0.2533  0.5432
  130GLU    HB1  137   2.670   6.369   0.825 -0.4438 -0.0692  2.2092
  130GLU    HB2  138   2.806   6.240   0.811 -0.7749  0.2951 -1.2647
  130GLU     CG  139   2.851   6.419   0.922  0.2472  0.2970  0.5873
  130GLU    HG1  140   2.925   6.359   0.975 -1.0087 -2.0225 -0.1607
  130GLU    HG2  141   2.786   6.483   0.982 -2.7190  0.3823 -2.4182
  130GLU     CD  142   2.910   6.511   0.811  0.0800  0.4756  0.3490
  130GLU    OE1  143   2.894   6.486   0.691 -0.2704 -0.5517 -0.2724
  130GLU    OE2  144   2.989   6.602   0.845 -0.4275 -0.4389  0.4338
  130GLU      C  145   2.571   6.167   0.935  0.4402  0.0648 -0.2601
  130GLU      O  146   2.470   6.230   0.943  0.1633 -0.0420 -0.2207
  131GLU      N  147   2.570   6.034   0.903 -0.4857  0.2870  0.5380
  131GLU      H  148   2.660   5.991   0.885 -1.1142  0.0977 -2.7707
  131GLU     CA  149   2.454   5.944   0.870  0.1366 -0.3269 -0.7395
  131GLU     HA  150   2.387   5.984   0.794 -0.2817  2.0718  0.7676
  131GLU     CB  151   2.506   5.804   0.827  0.4893  0.2389 -0.3544
  131GLU    HB1  152   2.421   5.738   0.813  0.2392  0.5953 -0.5396
  131GLU    HB2  153   2.578   5.768   0.900 -0.5161 -0.7109  0.1981
  131GLU     CG  154   2.575   5.814   0.692  0.2435 -0.7510 -0.1650
  131GLU    HG1  155   2.671   5.862   0.712 -1.4659  2.6094  0.7853
  131GLU    HG2  156   2.511   5.873   0.626 -0.2721 -0.4838  0.5583
  131GLU     CD  157   2.612   5.676   0.629  0.1588  0.4320 -0.0557
  131GLU    OE1  158   2.677   5.601   0.698 -0.2102  0.8591 -0.4836
  131GLU    OE2  159   2.574   5.642   0.516 -0.4756  0.1068  0.0733
  131GLU      C  160   2.364   5.928   1.003  0.0114  0.0606  0.2109
  131GLU      O  161   2.245   5.898   0.993 -0.4791  0.4177  0.1159
  132GLY      N  162   2.426   5.937   1.121 -0.1784  0.6821 -0.1752
  132GLY      H  163   2.524   5.957   1.113  0.5676 -2.4551 -0.1223
  132GLY     CA  164   2.366   5.901   1.244 -0.6091 -0.1084  0.0274
  132GLY    HA1  165   2.436   5.912   1.326 -1.6856 -2.3841  1.3574
  132GLY    HA2  166   2.325   5.800   1.245 -2.0311  0.4027 -1.5058
  132GLY      C  167   2.249   5.988   1.285 -0.8551  0.1074  0.2198
  132GLY      O  168   2.177   5.951   1.378 -0.2663 -0.2702 -0.0021
  133TYR      N  169   2.231   6.102   1.223  0.4389  0.4797 -0.6148
  133TYR      H  170   2.305   6.135   1.163  0.4560  0.1293 -0.7889
  133TYR     CA  171   2.117   6.192   1.258 -0.2158  0.4253 -0.1769
  133TYR     HA  172   2.097   6.177   1.364  0.7669  1.3526  0.1434
  133TYR     CB  173   2.147   6.342   1.227  0.2974  0.4163  0.1090
  133TYR    HB1  174   2.169   6.352   1.121  0.0275 -0.1564 -0.0039
  133TYR    HB2  175   2.232   6.377   1.286 -0.6387  1.2348  1.0144
  133TYR     CG  176   2.031   6.433   1.260  0.4270  0.0654  1.6751
  133TYR    CD1  177   1.933   6.459   1.156 -0.0287 -0.2741 -0.7640
  133TYR    HD1  178   1.930   6.411   1.059 -0.9954 -0.0121 -0.8807
  133TYR    CE1  179   1.833   6.553   1.181 -0.2978  0.6852 -0.4387
  133TYR    HE1  180   1.754   6.571   1.110 -2.4157 -1.3844  1.2453
  133TYR     CZ  181   1.812   6.608   1.309  0.1431  0.1149 -0.1834
  133TYR     OH  182   1.726   6.706   1.337  0.0829 -0.3388 -0.4528
  133TYR     HH  183   1.718   6.731   1.430 -2.3246  0.8242 -0.8836
  133TYR    CE2  184   1.904   6.572   1.412 -0.5619  0.2044 -0.2244
  133TYR    HE2  185   1.897   6.613   1.512  1.2038  1.2739 -0.4884
  133TYR    CD2  186   2.016   6.488   1.389 -0.2712  0.2862 -0.1781
  133TYR    HD2  187   2.087   6.462   1.466 -1.3550 -2.9907 -0.1350
  133TYR      C  188   1.986   6.146   1.190 -0.1743  0.7492  0.3945
  133TYR      O  189   1.982   6.113   1.068  0.4537 -0.5990 -0.3127
  134GLN      N  190   1.873   6.162   1.258 -0.2231  0.1537  0.7405
  134GLN      H  191   1.885   6.202   1.350 -3.1835  1.4728  0.6819
  134GLN     CA  192   1.741   6.159   1.196  0.6051  0.4079  0.3768
  134GLN     HA  193   1.748   6.173   1.088 -2.0768 -2.6387 -0.3421
  134GLN     CB  194   1.686   6.021   1.210 -0.1603 -0.3510 -0.1051
  134GLN    HB1  195   1.581   6.031   1.181 -0.0331 -0.6687 -0.7023
  134GLN    HB2  196   1.693   5.993   1.315  3.7624  0.2770 -0.0529
  134GLN     CG  197   1.746   5.905   1.120  0.1211 -0.0626  0.1790
  134GLN    HG1  198   1.841   5.877   1.167  0.8664 -0.9347 -1.7159
  134GLN    HG2  199   1.768   5.936   1.018  0.4352  1.4448  0.6932
  134GLN     CD  200   1.673   5.773   1.107 -0.1054  0.1839 -1.1540
  134GLN    OE1  201   1.552   5.761   1.095  0.1157  0.1366  0.1389
  134GLN    NE2  202   1.747   5.670   1.095 -0.4012 -0.2819 -0.4298
  134GLN   HE21  203   1.709   5.579   1.074 -0.5667 -0.0996 -0.9198
  134GLN   HE22  204   1.842   5.670   1.129  0.1406  0.8585 -1.8359
  134GLN      C  205   1.646   6.261   1.265 -0.7924 -0.6819  0.4112
  134GLN      O  206   1.661   6.288   1.384  0.9415 -0.5974  0.8405
  135ASP      N  207   1.557   6.324   1.195  0.1042 -0.1056  0.3338
  135ASP      H  208   1.559   6.317   1.094 -1.2236 -1.4902  0.3782
  135ASP     CA  209   1.453   6.412   1.252  0.3354 -0.1098  0.4341
  135ASP     HA  210   1.504   6.486   1.313  0.8257 -1.5516  1.8227
  135ASP     CB  211   1.367   6.481   1.143 -0.5912 -0.5680  0.7489
  135ASP    HB1  212   1.308   6.556   1.197  0.5115 -0.4994  1.9129
  135ASP    HB2  213   1.306   6.411   1.086  0.9347 -1.2577 -0.0855
  135ASP     CG  214   1.455   6.554   1.045 -0.1420 -0.4337  0.5017
  135ASP    OD1  215   1.512   6.661   1.075  0.0731  0.0190  0.7622
  135ASP    OD2  216   1.454   6.512   0.929 -0.2224  0.0797  0.0399
  135ASP      C  217   1.361   6.339   1.345 -0.5575  0.2774  0.7866
  135ASP      O  218   1.322   6.229   1.307 -0.7026 -0.4002  0.2392
  136TYR      N  219   1.324   6.408   1.450  0.1158 -0.0802 -0.2092
  136TYR      H  220   1.356   6.502   1.468  0.5999 -0.3079  0.1866
  136TYR     CA  221   1.240   6.353   1.561  0.1325 -0.3827  0.2537
  136TYR     HA  222   1.304   6.291   1.624  1.6926  1.1104  0.2176
  136TYR     CB  223   1.193   6.464   1.662 -0.4563  0.2460  0.0268
  136TYR    HB1  224   1.127   6.541   1.625 -0.0324  0.5263 -0.1513
  136TYR    HB2  225   1.282   6.518   1.695 -0.8361  1.9669 -1.6010
  136TYR     CG  226   1.128   6.406   1.792 -0.3723 -0.2748  0.5346
  136TYR    CD1  227   0.988   6.398   1.804  0.2374  0.4746 -0.2144
  136TYR    HD1  228   0.923   6.437   1.727  2.2981  0.7119 -1.9395
  136TYR    CE1  229   0.934   6.333   1.916  0.0392 -0.5518 -0.1293
  136TYR    HE1  230   0.829   6.319   1.933  0.1162 -1.0369 -0.0431
  136TYR     CZ  231   1.013   6.269   2.008 -0.1486  0.2512  0.4314
  136TYR     OH  232   0.959   6.204   2.116  0.2824 -0.0786  0.5257
  136TYR     HH  233   0.864   6.202   2.101  0.4179  1.7783 -0.9363
  136TYR    CE2  234   1.149   6.281   1.996  0.0209  0.1219 -0.2562
  136TYR    HE2  235   1.208   6.233   2.072 -0.8253  0.1217  0.4232
  136TYR    CD2  236   1.209   6.341   1.884 -0.0101  0.2270 -0.3261
  136TYR    HD2  237   1.316   6.355   1.875  0.4156 -1.6224  1.1067
  136TYR      C  238   1.114   6.266   1.517 -0.3091 -0.6058 -0.2533
  136TYR      O  239   1.013   6.329   1.477  0.2046 -0.2492  0.7512
  137GLU      N  240   1.123   6.137   1.543  0.0016 -0.6268 -0.1339
  137GLU      H  241   1.214   6.098   1.562 -0.0586 -1.1538 -0.8969
  137GLU     CA  242   1.018   6.038   1.521  0.4473 -0.2645  0.1477
  137GLU     HA  243   0.920   6.086   1.520  0.2478 -0.6655 -0.3153
  137GLU     CB  244   1.036   5.969   1.391  0.2366  0.2112  0.7341
  137GLU    HB1  245   1.118   5.900   1.408  0.0524  0.0615  1.0232
  137GLU    HB2  246   1.054   6.042   1.312  0.9083 -2.2607 -1.5373
  137GLU     CG  247   0.907   5.889   1.345 -0.0843  0.2623  0.2041
  137GLU    HG1  248   0.816   5.949   1.346 -0.3761  0.0106 -2.4501
  137GLU    HG2  249   0.884   5.807   1.413 -2.7505 -0.8287 -1.8314
  137GLU     CD  250   0.927   5.831   1.207  0.0921  0.0253 -0.1755
  137GLU    OE1  251   0.830   5.829   1.132  0.1822 -0.0432  0.0461
  137GLU    OE2  252   1.037   5.781   1.166  0.1220  0.1863 -0.3068
  137GLU      C  253   1.012   5.934   1.629 -0.0736  0.1197 -0.4997
  137GLU      O  254   1.117   5.884   1.667 -0.2362 -0.1611 -0.4495
  138PRO      N  255   0.893   5.903   1.687 -0.1098  0.1315 -0.3160
  138PRO     CD  256   0.757   5.944   1.646 -0.2118 -0.1225  1.4254
  138PRO    HD1  257   0.741   5.902   1.546 -1.9579  1.0410  1.1591
  138PRO    HD2  258   0.739   6.052   1.651 -0.1160 -0.0122 -0.0471
  138PRO     CG  259   0.654   5.887   1.743  0.1463 -0.0985  0.4222
  138PRO    HG1  260   0.624   5.789   1.704  0.0337 -0.8623  2.3110
  138PRO    HG2  261   0.565   5.948   1.756 -0.2942 -0.3282 -1.2200
  138PRO     CB  262   0.735   5.866   1.869  0.8176 -0.3711 -0.9629
  138PRO    HB1  263   0.742   5.958   1.926 -2.0490 -1.1088  0.7879
  138PRO    HB2  264   0.695   5.786   1.931 -0.2473  0.3501 -0.6962
  138PRO     CA  265   0.877   5.832   1.814  0.2757 -0.1187 -0.7443
  138PRO     HA  266   0.942   5.886   1.881 -1.7814  1.5245  0.0402
  138PRO      C  267   0.913   5.679   1.817  0.6787 -0.1314  0.1194
  138PRO      O  268   0.871   5.609   1.733 -0.4815 -0.5795  0.4436
  139GLU      N  269   0.983   5.634   1.916 -0.2487 -0.6624 -0.1681
  139GLU      H  270   0.997   5.686   2.001  3.1978 -2.2409  0.3848
  139GLU     CA  271   1.043   5.502   1.920  0.3771  0.4349  0.0401
  139GLU     HA  272   1.079   5.472   1.821  3.3572 -1.5862  1.5877
  139GLU     CB  273   1.162   5.483   2.023 -0.2855 -0.0110 -0.4174
  139GLU    HB1  274   1.191   5.381   2.050  0.7172  0.3573 -0.0386
  139GLU    HB2  275   1.133   5.533   2.115  0.9937  1.0682 -0.5713
  139GLU     CG  276   1.280   5.567   1.966  0.0404  0.3901  0.0935
  139GLU    HG1  277   1.250   5.670   1.949 -1.2411 -0.1066 -0.8644
  139GLU    HG2  278   1.315   5.532   1.869  1.7342  2.6761 -0.1997
  139GLU     CD  279   1.391   5.570   2.075  0.4277  0.4435 -0.0606
  139GLU    OE1  280   1.504   5.619   2.051 -0.3402 -0.1559  0.3363
  139GLU    OE2  281   1.372   5.529   2.192 -0.4506  0.9861  0.4662
  139GLU      C  282   0.937   5.401   1.954  0.5797 -0.2024 -0.3584
  139GLU      O  283   0.902   5.379   2.072  0.1592  0.0928  0.4686
  140CALA     N  284   0.880   5.341   1.843  0.4398 -0.6827  0.0930
  140CALA     H  285   0.901   5.379   1.752  1.8466  2.2557  1.4871
  140CALA    CA  286   0.786   5.222   1.857  0.0181 -0.2102  0.0752
  140CALA    HA  287   0.712   5.247   1.933  1.7026 -0.4785  1.8745
  140CALA    CB  288   0.709   5.187   1.723 -0.0760  0.2912  0.3988
  140CALA   HB1  289   0.615   5.142   1.755 -0.2272 -0.0389 -0.4807
  140CALA   HB2  290   0.771   5.122   1.661  2.3774  0.4865  2.4823
  140CALA   HB3  291   0.682   5.281   1.673  0.2843  0.0864 -0.1925
  140CALA     C  292   0.865   5.108   1.916  0.1729  0.0722 -0.1644
  140CALA   OC1  293   0.982   5.094   1.875  0.2408 -0.1236 -0.8673
  140CALA   OC2  294   0.819   5.044   2.010  0.9601  0.1916  0.6278
  141L47      C  295   1.461   0.275   1.943 -0.6759 -0.3073  0.2196
  141L47      H  296   1.403   0.364   1.918 -1.4395 -0.3325  1.7849
  141L47     H1  297   1.416   0.180   1.909  3.0809 -1.4836 -2.0705
  141L47     H2  298   1.547   0.287   1.875 -0.4310  2.0863  0.8853
  141L47     C1  299   1.507   0.278   2.089 -0.2290  0.4086 -0.7950
  141L47      O  300   1.621   0.248   2.130 -0.3422  0.4130 -0.0555
  141L47      N  301   1.405   0.299   2.182 -0.1393 -0.5010  0.0257
  141L47     C2  302   1.275   0.356   2.134  0.2605 -0.0653 -0.5118
  141L47     H3  303   1.223   0.276   2.080 -0.8196  0.7085 -0.6562
  141L47     H4  304   1.290   0.439   2.065  0.3848 -1.2593 -1.9682
  141L47     C3  305   1.201   0.398   2.267  0.1975 -0.8763 -0.5098
  141L47     H5  306   1.107   0.341   2.271  0.7893 -1.7865  0.8314
  141L47     H6  307   1.185   0.506   2.280  1.4217 -1.0392  3.8646
  141L47     C4  308   1.297   0.370   2.375  0.3789  0.5028  0.0245
  141L47     C5  309   1.411   0.302   2.327  0.2879 -0.5579  0.6307
  141L47     C6  310   1.510   0.263   2.416  0.5702 -0.7873 -0.0177
  141L47     H7  311   1.591   0.209   2.369 -0.6352 -0.6617 -2.3770
  141L47     C7  312   1.500   0.299   2.553 -0.7383 -0.2332 -0.3004
  141L47     H8  313   1.588   0.275   2.612  0.3796  1.7625 -1.0514
  141L47     C8  314   1.389   0.370   2.593  0.0479 -0.1525 -0.0433
  141L47     C9  315   1.288   0.404   2.505  0.3070  0.1301 -0.1831
  141L47     H9  316   1.202   0.466   2.529 -0.1859  0.8682 -3.4209
  141L47      S  317   1.369   0.429   2.756 -0.3736 -0.4384 -0.1244
  141L47     O1  318   1.371   0.576   2.742  0.3434 -0.5257  0.0060
  141L47     O2  319   1.458   0.367   2.853 -0.0816  0.0870 -0.3415
  141L47     N1  320   1.217   0.400   2.804 -0.0165  0.5978  0.6098
  141L47    C10  321   1.154   0.263   2.779 -0.3744  0.5084  0.0505
  141L47    H10  322   1.149   0.201   2.869  0.7946  1.0949  0.5428
  141L47    H11  323   1.225   0.207   2.718  1.9172  3.0221  0.2120
  141L47    C11  324   1.019   0.251   2.717 -0.1673 -0.6528  1.2599
  141L47    H12  325   0.996   0.155   2.669  1.0533 -0.9942  1.3190
  141L47    H13  326   1.019   0.327   2.638  2.3858  0.1501  1.9400
  141L47    C12  327   0.907   0.289   2.820  0.3462 -0.2906  0.1221
  141L47    H14  328   0.912   0.225   2.909  1.2048  1.4984  1.4292
  141L47    H15  329   0.813   0.270   2.768 -0.0716 -3.5416  1.7696
  141L47     N2  330   0.915   0.432   2.870  0.3615  0.2539 -0.7064
  141L47    H16  331   0.927   0.505   2.798  3.9074 -0.0174 -0.6064
  141L47    H17  332   0.828   0.447   2.922 -0.0451 -2.1680 -0.5767
  141L47    C13  333   1.024   0.453   2.973  0.5048  0.2857  0.4392
  141L47    H18  334   1.015   0.355   3.018  2.0343  0.0048  0.1810
  141L47    H19  335   1.010   0.537   3.041  0.3577  1.3372 -0.8513
  141L47    C14  336   1.167   0.473   2.917  0.1074 -0.8301 -0.2162
  141L47    H20  337   1.183   0.581   2.910 -0.1837 -0.6690  1.2457
  141L47    H21  338   1.227   0.438   3.003  3.1083  0.3441 -1.6838
  142SOL     OW  339   5.243   3.390   4.453  0.3693 -0.1583  0.0045
  142SOL    HW2  340   5.317   3.436   4.493 -0.0000 -0.1654  0.7289
  142SOL    HW3  341   5.273   3.300   4.442 -0.0761 -0.6099  1.9382
  142SOL    MW4  342   5.257   3.384   4.457 -0.7676 -0.6781 -0.1424
  143SOL     OW  343   2.243   4.700   6.089 -0.1095  0.2781  0.1550
  143SOL    HW2  344   2.250   4.620   6.142 -0.8629  0.0977 -0.0043
  143SOL    HW3  345   2.221   4.768   6.151  0.3819  0.3316  0.2698
  143SOL    MW4  346   2.241   4.698   6.104  0.1627 -0.3033 -0.3594
  144SOL     OW  347   3.642   5.225   1.796 -0.2096  0.4244  0.0449
  144SOL    HW2  348   3.604   5.287   1.858 -1.1569  1.5569 -1.6034
  144SOL    HW3  349   3.630   5.266   1.710 -1.7455 -2.4136 -1.2407
  144SOL    MW4  350   3.635   5.239   1.793  0.0629  0.0217  0.5482
  145SOL     OW  351   2.478   5.557   3.211 -0.1131 -0.0440  0.3969
  145SOL    HW2  352   2.544   5.556   3.279  1.2779  3.5271 -0.6523
  145SOL    HW3  353   2.527   5.543   3.130 -1.1963 -0.8190 -0.1408
  145SOL    MW4  354   2.493   5.555   3.209  0.2085  0.1339 -0.1063
  146SOL     OW  355   6.242   5.967   4.217 -0.5107  0.1930  0.6806
  146SOL    HW2  356   6.268   5.898   4.156 -0.7784 -1.3977  2.2857
  146SOL    HW3  357   6.304   6.038   4.202  0.7706 -1.0316  0.0732
  146SOL    MW4  358   6.253   5.968   4.207  0.0455 -0.1178  0.8392
  147SOL     OW  359   4.638   1.536   1.735 -0.5477  0.0726  0.3414
  147SOL    HW2  360   4.629   1.443   1.754  0.3328  0.3086  2.1140
  147SOL    HW3  361   4.621   1.579   1.819  0.0289  1.4310 -0.2146
  147SOL    MW4  362   4.635   1.529   1.749  0.0026 -0.0108 -0.4116
  148SOL     OW  363   1.948   3.724   3.142 -0.3264 -0.5756 -0.3114
  148SOL    HW2  364   1.898   3.679   3.210 -0.4254 -1.5581 -1.0261
  148SOL    HW3  365   2.037   3.726   3.177 -0.2688 -1.5480 -0.3705
  148SOL    MW4  366   1.953   3.718   3.156 -0.2697  0.6983  0.0092
  149SOL     OW  367   2.700   4.760   0.641 -0.4476  0.2184  0.5023
  149SOL    HW2  368   2.652   4.691   0.594 -1.5991  0.6904  0.9698
  149SOL    HW3  369   2.692   4.736   0.733 -3.1057  2.2914  0.9284
  149SOL    MW4  370   2.693   4.747   0.647 -0.6162 -0.0747 -0.4163
  150SOL     OW  371   2.229   0.548   3.389 -0.2147 -0.2667  0.3544
  150SOL    HW2  372   2.225   0.472   3.331 -0.6960  0.6785 -0.9158
  150SOL    HW3  373   2.309   0.535   3.440 -0.9293 -2.2161  1.0739
  150SOL    MW4  374   2.239   0.536   3.388  0.2741  0.1234  0.2740
  151SOL     OW  375   6.303   1.701   5.670  0.3172  0.4377  0.0574
  151SOL    HW2  376   6.208   1.700   5.662  0.3890 -1.8072 -1.4242
  151SOL    HW3  377   6.324   1.626   5.726  1.2163  0.8080  0.2347
  151SOL    MW4  378   6.293   1.691   5.676  0.3488 -0.1536  0.0910
  152SOL     OW  379   1.366   3.462   2.608  0.4257  0.1855 -0.1861
  152SOL    HW2  380   1.361   3.503   2.521  1.8544  0.1275 -0.3298
  152SOL    HW3  381   1.339   3.531   2.668  0.3588  0.5377 -0.6125
  152SOL    MW4  382   1.362   3.477   2.604 -0.8418  0.1727 -0.4235
  153SOL     OW  383   6.100   6.092   2.416 -0.2169 -0.0847  0.2187
  153SOL    HW2  384   6.084   6.172   2.466  1.0537 -0.0710  0.6488
  153SOL    HW3  385   6.183   6.058   2.451 -1.5511 -2.5468  1.3282
  153SOL    MW4  386   6.109   6.098   2.427  0.2927  0.1956 -0.5504
  154SOL     OW  387   5.675   2.445   0.944  0.2748 -0.4162 -0.0662
  154SOL    HW2  388   5.744   2.415   1.004 -0.4863 -2.4299 -0.1110
  154SOL    HW3  389   5.711   2.427   0.857 -0.8126 -2.9358 -0.0804
  154SOL    MW4  390   5.689   2.438   0.940 -0.1574  0.2866 -0.1821
  155SOL     OW  391   5.819   5.123   1.013 -0.0350  0.6792  0.1754
  155SOL    HW2  392   5.743   5.142   0.959 -0.7009 -2.6323 -0.2476
  155SOL    HW3  393   5.787   5.130   1.103 -0.3417  1.0131  0.0406
  155SOL    MW4  394   5.805   5.126   1.018  0.5134  0.1530 -0.1809
  156SOL     OW  395   0.097   5.069   1.076 -0.0574  0.0040  0.1082
  156SOL    HW2  396   0.181   5.115   1.082  0.9695 -1.8560  0.4892
  156SOL    HW3  397   0.052   5.112   1.003  0.6269  1.9148  0.7347
  156SOL    MW4  398   0.102   5.081   1.067  1.0599 -0.7250  0.1657
  157SOL     OW  399   1.853   4.103   6.051  0.3013 -0.6023  0.3712
  157SOL    HW2  400   1.816   4.018   6.072 -1.7315  0.2536  0.5555
  157SOL    HW3  401   1.822   4.160   6.122 -0.6551  0.8280 -1.1302
  157SOL    MW4  402   1.844   4.100   6.063  0.1126 -0.3046 -0.3450
  158SOL     OW  403   2.064   0.388   3.017  0.4419  0.0092 -0.0768
  158SOL    HW2  404   2.048   0.294   3.008  2.9566 -0.4493 -0.5595
  158SOL    HW3  405   2.054   0.423   2.928 -0.9930  0.3475  0.1831
  158SOL    MW4  406   2.060   0.381   3.004 -0.6386 -0.1093  0.2315
  159SOL     OW  407   3.255   2.709   2.389 -0.4486 -0.0540 -0.3409
  159SOL    HW2  408   3.198   2.700   2.466 -1.2184  0.9094 -0.7818
  159SOL    HW3  409   3.342   2.682   2.420 -1.0905 -1.3500  0.3998
  159SOL    MW4  410   3.259   2.704   2.404 -0.0116 -0.5187  0.1520
  160SOL     OW  411   3.217   3.905   5.921 -0.7480 -0.2052 -0.6137
  160SOL    HW2  412   3.248   3.925   5.833  1.6024  0.3681  0.2542
  160SOL    HW3  413   3.224   3.987   5.969  1.4533 -1.2124  0.9772
  160SOL    MW4  414   3.222   3.918   5.916  0.0375 -0.2283  0.1352
  161SOL     OW  415   5.511   3.016   5.351  0.0501  0.3203 -0.1098
  161SOL    HW2  416   5.505   3.055   5.263  0.5309  0.5677 -0.0341
  161SOL    HW3  417   5.566   3.077   5.400  0.2611 -0.1189  0.1995
  161SOL    MW4  418   5.517   3.029   5.346 -0.5835  0.8748 -0.5792
  162SOL     OW  419   1.192   2.259   5.591 -0.0452 -0.0687  0.6913
  162SOL    HW2  420   1.176   2.202   5.666  0.1904 -0.1790  0.6580
  162SOL    HW3  421   1.275   2.302   5.610  0.7953 -1.2460 -0.2041
  162SOL    MW4  422   1.201   2.257   5.603 -0.5862 -0.1297  0.0929
  163SOL     OW  423   6.026   2.079   5.239  0.2178  0.0926  0.1042
  163SOL    HW2  424   5.982   2.114   5.316 -0.3197  0.4579 -0.3598
  163SOL    HW3  425   6.041   2.155   5.183  0.8668 -0.1246 -0.0317
  163SOL    MW4  426   6.022   2.093   5.242  0.0324  0.3199 -0.4958
  164SOL     OW  427   1.318   2.075   1.701 -0.0961 -0.4230 -0.1992
  164SOL    HW2  428   1.268   2.151   1.732  0.8288  0.3553 -0.5730
  164SOL    HW3  429   1.284   2.059   1.613 -0.6219 -0.7457  0.0581
  164SOL    MW4  430   1.307   2.083   1.693 -0.3154 -0.1790  0.1240
  165SOL     OW  431   3.060   5.850   2.047 -0.4001  0.8319  0.0010
  165SOL    HW2  432   3.145   5.891   2.057  0.1463  0.1008 -1.3474
  165SOL    HW3  433   3.074   5.759   2.072 -0.8271  0.7533 -0.0397
  165SOL    MW4  434   3.073   5.844   2.052  0.3803  0.5703 -0.2136
  166SOL     OW  435   2.192   5.032   1.785 -0.1884 -0.4476  0.1144
  166SOL    HW2  436   2.152   5.093   1.722  0.6248  0.0705  0.0885
  166SOL    HW3  437   2.274   5.005   1.743  1.6753  1.8741  1.9672
  166SOL    MW4  438   2.197   5.036   1.771 -0.1569  0.6328 -0.1526
  167SOL     OW  439   5.983   5.832   3.944  0.4382  0.2589 -0.4442
  167SOL    HW2  440   6.073   5.801   3.945 -0.3093 -2.1027 -0.8125
  167SOL    HW3  441   5.936   5.769   3.889 -1.4841  1.3081 -0.0954
  167SOL    MW4  442   5.988   5.820   3.937 -0.1680 -0.5483  0.4678
  168SOL     OW  443   5.641   5.152   2.875 -0.0046  0.0146 -1.0096
  168SOL    HW2  444   5.601   5.150   2.962  1.5032 -0.1211 -0.2922
  168SOL    HW3  445   5.567   5.158   2.815 -1.1003 -0.3789  0.2555
  168SOL    MW4  446   5.626   5.153   2.878 -0.3139  0.3284 -0.3156
  169SOL     OW  447   1.737   1.597   6.314 -0.2569  0.2866 -0.3570
  169SOL    HW2  448   1.676   1.586   6.241 -1.0507  0.3001  0.2869
  169SOL    HW3  449   1.691   1.558   6.388 -0.1374  1.6608  0.4684
  169SOL    MW4  450   1.723   1.591   6.314 -0.4854 -0.1555  0.1858
  170SOL     OW  451   3.918   4.330   4.445  0.2786 -0.5045  0.0321
  170SOL    HW2  452   3.943   4.239   4.457 -2.8444 -1.3469  1.3287
  170SOL    HW3  453   3.917   4.343   4.350 -0.6972 -2.3504 -0.2651
  170SOL    MW4  454   3.921   4.320   4.434 -0.4763 -0.1859  0.7802
  171SOL     OW  455   0.901   3.055   3.108  0.2800 -0.4452 -0.1326
  171SOL    HW2  456   0.817   3.014   3.085  0.7794 -1.4935 -0.1498
  171SOL    HW3  457   0.888   3.148   3.088 -0.3768 -0.8156 -1.5600
  171SOL    MW4  458   0.888   3.062   3.102 -0.1107 -0.4488 -0.3359
  172SOL     OW  459   2.441   5.010   5.751 -0.2146 -0.4661  0.0395
  172SOL    HW2  460   2.378   4.949   5.788 -0.6830  0.2164  0.4071
  172SOL    HW3  461   2.391   5.091   5.739  0.5614  0.0549  0.2329
  172SOL    MW4  462   2.427   5.013   5.754  0.1703  0.5346  0.6547
  173SOL     OW  463   4.559   1.530   6.196  0.1469  0.0093 -0.1042
  173SOL    HW2  464   4.541   1.449   6.244  0.9572 -0.1329 -0.0282
  173SOL    HW3  465   4.541   1.600   6.260 -1.1414 -0.0656 -0.3542
  173SOL    MW4  466   4.554   1.529   6.211 -0.6033  0.3512 -0.1647
  174SOL     OW  467   1.785   1.636   3.800 -0.0800 -0.0686 -0.5623
  174SOL    HW2  468   1.792   1.541   3.807  0.3713 -0.0250 -0.3508
  174SOL    HW3  469   1.838   1.669   3.873  1.1978  0.3551 -1.6421
  174SOL    MW4  470   1.793   1.628   3.810  0.1781  0.6742  0.3731
  175SOL     OW  471   5.156   3.791   3.478 -0.2974 -0.5339  0.5058
  175SOL    HW2  472   5.202   3.833   3.405 -0.6407  0.7788  1.0145
  175SOL    HW3  473   5.063   3.809   3.460 -0.3152  1.3110  2.0988
  175SOL    MW4  474   5.149   3.799   3.466  0.5137  0.3081 -0.1949
  176SOL     OW  475   3.021   5.132   4.446 -0.4035 -0.1565 -0.2959
  176SOL    HW2  476   2.938   5.085   4.449 -0.2718 -0.5164 -1.4924
  176SOL    HW3  477   3.083   5.068   4.410  0.3888  0.1194  0.5318
  176SOL    MW4  478   3.018   5.117   4.441 -0.0336  0.2081  0.2037
  177SOL     OW  479   2.216   2.085   5.414 -0.5325  0.4137 -0.7402
  177SOL    HW2  480   2.209   2.004   5.363  3.0733 -0.1134 -0.6550
  177SOL    HW3  481   2.260   2.147   5.356  0.4375  0.9316  0.4827
  177SOL    MW4  482   2.221   2.082   5.400  0.1647 -0.4069 -0.2347
  178SOL     OW  483   2.151   2.329   6.399 -0.3173  0.3534  0.1337
  178SOL    HW2  484   2.186   2.260   6.343 -1.1500  0.3625 -0.4225
  178SOL    HW3  485   2.167   2.410   6.352 -0.4221  0.4212  0.2125
  178SOL    MW4  486   2.158   2.330   6.386  0.5003 -0.1839 -0.2995
  179SOL     OW  487   4.466   4.872   2.636  0.0388  0.4869 -0.2144
  179SOL    HW2  488   4.507   4.829   2.711 -2.3272 -1.5329  0.0437
  179SOL    HW3  489   4.442   4.959   2.668 -0.0155  0.0176  1.0526
  179SOL    MW4  490   4.468   4.878   2.650  0.1226  0.5681  0.1491
  180SOL     OW  491   1.570   3.592   0.711  0.6329  0.4711 -0.4010
  180SOL    HW2  492   1.480   3.570   0.737  0.8746  2.0321  2.1478
  180SOL    HW3  493   1.623   3.522   0.749  0.6354  0.5275 -0.2995
  180SOL    MW4  494   1.565   3.580   0.720  0.0510  0.2133  0.4195
  181SOL     OW  495   1.234   1.925   3.491  0.2212 -0.1579  0.0221
  181SOL    HW2  496   1.285   1.844   3.488 -0.1293 -0.3838  0.0849
  181SOL    HW3  497   1.149   1.901   3.453  0.3408  0.3479 -0.5838
  181SOL    MW4  498   1.229   1.911   3.485 -0.1105  0.4527 -0.2526
  182SOL     OW  499   1.674   0.312   0.043 -0.2443 -0.8725 -0.1882
  182SOL    HW2  500   1.718   0.303   0.128 -0.9255 -2.2465  0.0551
  182SOL    HW3  501   1.600   0.251   0.048 -0.4360 -0.8022 -1.6929
  182SOL    MW4  502   1.670   0.303   0.055  0.2416 -0.2623  0.4456
  183SOL     OW  503   3.626   3.852   6.176 -0.3315 -0.6246  0.1819
  183SOL    HW2  504   3.531   3.850   6.181 -0.3622 -0.2008 -0.1639
  183SOL    HW3  505   3.649   3.784   6.112 -0.5499  0.8000 -1.4741
  183SOL    MW4  506   3.617   3.843   6.168  0.1771 -0.1779  0.7367
  184SOL     OW  507   0.156   2.226   1.851  0.3186  0.1128  0.0386
  184SOL    HW2  508   0.119   2.248   1.937  1.1958  2.9247 -0.1965
  184SOL    HW3  509   0.082   2.191   1.801 -0.6427  0.1834  1.3594
  184SOL    MW4  510   0.141   2.224   1.856  0.1165  0.2743  0.1303
  185SOL     OW  511   2.703   0.723   0.209  0.0220  0.0940  0.1615
  185SOL    HW2  512   2.660   0.744   0.292  0.3890 -0.7550  0.5794
  185SOL    HW3  513   2.788   0.767   0.214 -0.3377  0.8488 -0.1902
  185SOL    MW4  514   2.709   0.732   0.220 -0.6433  0.7331 -0.2429
  186SOL     OW  515   3.073   2.272   3.746 -0.1752 -0.3903 -0.1923
  186SOL    HW2  516   3.009   2.322   3.695  1.0487  2.5842  0.9169
  186SOL    HW3  517   3.030   2.189   3.765 -3.2228  0.9979 -0.4696
  186SOL    MW4  518   3.059   2.268   3.741 -0.1027  0.2794 -0.1586
  187SOL     OW  519   5.352   3.326   1.526 -0.0708  0.2252  0.0127
  187SOL    HW2  520   5.289   3.386   1.568 -0.9698 -1.0084  0.4733
  187SOL    HW3  521   5.311   3.302   1.444 -0.8099 -1.5403  0.8566
  187SOL    MW4  522   5.338   3.331   1.521  0.0721 -0.3637 -0.9000
  188SOL     OW  523   2.263   3.052   2.372  0.1854 -0.2688  0.2120
  188SOL    HW2  524   2.184   3.022   2.326  0.4806 -0.4405 -0.1878
  188SOL    HW3  525   2.301   3.117   2.313 -0.4212  0.8787  1.0513
  188SOL    MW4  526   2.257   3.057   2.358  0.4668  0.0523  0.0250
  189SOL     OW  527   2.670   3.104   6.061  0.2537 -0.3470 -0.5131
  189SOL    HW2  528   2.624   3.184   6.036  2.3785  1.4181  0.8971
  189SOL    HW3  529   2.758   3.114   6.025  0.5118 -2.2134 -0.5350
  189SOL    MW4  530   2.675   3.116   6.053  0.1580  0.1135  0.1656
  190SOL     OW  531   2.089   3.048   1.046 -0.3422 -0.2222 -0.3215
  190SOL    HW2  532   2.143   3.061   1.124  0.3699 -1.4902 -0.5741
  190SOL    HW3  533   2.005   3.017   1.079 -0.2357 -0.1952 -0.0264
  190SOL    MW4  534   2.085   3.046   1.060  0.1084 -0.2383  0.2318
  191SOL     OW  535   2.799   6.066   0.587  0.3777  0.2619  0.1154
  191SOL    HW2  536   2.794   6.015   0.506  2.5206 -0.3736  0.3130
  191SOL    HW3  537   2.717   6.115   0.589 -2.9451 -4.6011  0.9812
  191SOL    MW4  538   2.788   6.066   0.576 -0.4095  0.3662 -0.7856
  192SOL     OW  539   0.351   0.970   5.325  0.0683 -0.1070 -0.0416
  192SOL    HW2  540   0.435   0.995   5.362 -0.8458  1.4486  1.0688
  192SOL    HW3  541   0.301   0.937   5.400 -0.1593 -1.5299 -0.7836
  192SOL    MW4  542   0.355   0.969   5.340  0.1887 -0.0411 -0.0445
  193SOL     OW  543   5.604   3.905   3.226 -0.7262 -0.4415 -0.0609
  193SOL    HW2  544   5.622   3.815   3.199  1.8303  0.3741 -1.4483
  193SOL    HW3  545   5.628   3.958   3.150 -0.4391  1.5283  1.3280
  193SOL    MW4  546   5.610   3.901   3.212  0.1070 -0.2259 -0.1839
  194SOL     OW  547   1.702   2.054   4.059 -0.0990  0.2407  0.0609
  194SOL    HW2  548   1.660   2.105   3.990  1.3296  2.4586  0.7300
  194SOL    HW3  549   1.684   1.963   4.036 -0.1133  0.8997 -2.9420
  194SOL    MW4  550   1.694   2.049   4.047  0.0665  0.2828  0.4207
  195SOL     OW  551   2.558   5.300   2.486  0.2615  0.1970  0.0055
  195SOL    HW2  552   2.598   5.283   2.400  2.1270  0.7201  0.7326
  195SOL    HW3  553   2.623   5.351   2.533 -1.5774  1.7091  1.0343
  195SOL    MW4  554   2.572   5.305   2.481 -0.4062  0.3841 -0.0055
  196SOL     OW  555   4.161   2.912   0.087  0.1431 -0.3071 -0.1876
  196SOL    HW2  556   4.231   2.974   0.108  0.2607 -0.4054 -0.2900
  196SOL    HW3  557   4.204   2.842   0.038 -0.2538  0.2555 -1.3734
  196SOL    MW4  558   4.176   2.911   0.084  0.3670 -0.1278  0.0856
  197SOL     OW  559   3.216   3.787   2.791 -0.2693 -0.5155 -0.2299
  197SOL    HW2  560   3.194   3.870   2.749 -0.6319 -0.8812 -0.7688
  197SOL    HW3  561   3.176   3.792   2.878  0.7065  0.3501  0.1944
  197SOL    MW4  562   3.208   3.799   2.797 -1.0992  0.5095 -0.5847
  198SOL     OW  563   5.427   2.369   4.024 -0.5327 -0.0885 -0.7698
  198SOL    HW2  564   5.411   2.404   4.112 -0.6994  2.0805 -1.6188
  198SOL    HW3  565   5.522   2.364   4.018 -0.4928  0.5584 -0.7496
  198SOL    MW4  566   5.437   2.373   4.035 -0.1271 -0.2144 -0.1405
  199SOL     OW  567   3.351   3.563   3.854 -0.3726 -0.2493  0.2573
  199SOL    HW2  568   3.356   3.568   3.949  0.3746 -3.5719  0.5178
  199SOL    HW3  569   3.261   3.538   3.836 -0.6864  1.0192  0.0217
  199SOL    MW4  570   3.340   3.560   3.864 -0.3531 -0.5420  0.5907
  200SOL     OW  571   4.021   2.612   0.793 -0.0318 -0.0382 -0.1049
  200SOL    HW2  572   4.027   2.525   0.831  2.9836 -0.4443 -1.2029
  200SOL    HW3  573   3.970   2.600   0.713  1.7502 -1.2173 -1.1200
  200SOL    MW4  574   4.015   2.599   0.787  0.0660 -0.0002  0.0035
  201SOL     OW  575   6.036   4.771   4.467 -0.6723  0.1595  0.2253
  201SOL    HW2  576   6.108   4.719   4.502 -0.8661 -0.8361 -0.7705
  201SOL    HW3  577   5.957   4.731   4.503 -0.8200 -0.1895 -0.4659
  201SOL    MW4  578   6.035   4.759   4.476 -0.5375  0.2190  0.3153
  202SOL     OW  579   3.694   3.457   2.849 -0.4617  0.1797  0.2970
  202SOL    HW2  580   3.736   3.535   2.813  0.5261 -0.5796 -0.2578
  202SOL    HW3  581   3.765   3.412   2.897 -0.3839 -1.5282 -1.2923
  202SOL    MW4  582   3.709   3.461   2.851 -0.0284  0.1550  0.1109
  203SOL     OW  583   0.439   0.029   4.529  0.1191 -0.1831  0.6239
  203SOL    HW2  584   0.414   0.008   4.439 -0.0619 -0.9866  0.8489
  203SOL    HW3  585   0.507   0.096   4.520  1.2015 -1.3323 -0.1876
  203SOL    MW4  586   0.445   0.035   4.516  0.4942  0.2216  0.1218
  204SOL     OW  587   6.052   4.739   5.203  0.0857  1.0138  0.4844
  204SOL    HW2  588   6.047   4.824   5.159  1.7143  0.0119 -1.8112
  204SOL    HW3  589   6.144   4.714   5.196  0.0736 -0.0690  2.9607
  204SOL    MW4  590   6.064   4.747   5.196 -0.2725  0.0392 -0.3676
  205SOL     OW  591   0.064   0.057   2.600  0.3325  0.4473 -0.4639
  205SOL    HW2  592   0.149   0.091   2.629  1.8492 -1.5609 -2.2857
  205SOL    HW3  593   0.045   0.105   2.519  1.0279 -0.8564 -1.4338
  205SOL    MW4  594   0.073   0.068   2.593 -0.3456 -0.1173  0.4860
  206SOL     OW  595   2.846   2.900   1.272 -0.0557 -0.2578 -0.4065
  206SOL    HW2  596   2.859   2.994   1.259  0.6187 -0.3927 -0.7618
  206SOL    HW3  597   2.903   2.879   1.345  0.2888 -0.5058 -0.7429
  206SOL    MW4  598   2.855   2.910   1.280 -0.6864  0.4437 -0.2489
  207SOL     OW  599   1.983   2.660   3.580  0.1223  0.1911  0.1087
  207SOL    HW2  600   1.940   2.695   3.658 -0.0952  1.4058 -0.5274
  207SOL    HW3  601   1.993   2.567   3.597 -0.7456  0.2848  1.2004
  207SOL    MW4  602   1.979   2.653   3.592  0.4078 -0.3258  0.1433
  208SOL     OW  603   5.493   2.082   3.393  0.0851  0.7111  0.3596
  208SOL    HW2  604   5.474   2.091   3.486  0.3512  2.3989  0.2807
  208SOL    HW3  605   5.582   2.114   3.383  0.2917 -0.0473 -0.4019
  208SOL    MW4  606   5.502   2.087   3.404 -0.1664 -0.1045 -0.3946
  209SOL     OW  607   0.818   1.516   3.858  0.3931  0.5812 -0.5299
  209SOL    HW2  608   0.844   1.569   3.933  0.5557 -1.4251  0.9003
  209SOL    HW3  609   0.743   1.466   3.890  0.5579 -0.4144 -1.6604
  209SOL    MW4  610   0.811   1.516   3.872  0.0502  0.1738 -0.5643
  210SOL     OW  611   5.040   5.568   6.370  0.1405  0.2621 -0.4882
  210SOL    HW2  612   5.089   5.504   6.421  0.5488  0.7561 -0.2578
  210SOL    HW3  613   4.965   5.591   6.425 -0.4977 -0.6794 -0.9454
  210SOL    MW4  614   5.036   5.563   6.384 -0.0435  0.1568 -0.3042
  211SOL     OW  615   3.241   1.504   3.681 -0.2006  0.3707 -0.1085
  211SOL    HW2  616   3.245   1.446   3.604 -1.0784  0.1303  0.0238
  211SOL    HW3  617   3.327   1.494   3.722 -0.5147 -1.2981  0.2299
  211SOL    MW4  618   3.253   1.495   3.676  0.0461 -0.2386  0.1939
  212SOL     OW  619   4.931   5.058   0.667 -0.2544  0.1247 -0.0784
  212SOL    HW2  620   4.848   5.072   0.621  0.6998  1.7786 -1.3999
  212SOL    HW3  621   4.923   5.110   0.747  0.0049  1.4615 -0.8893
  212SOL    MW4  622   4.919   5.067   0.671  0.7699 -0.3777 -0.2023
  213SOL     OW  623   2.338   2.766   1.588 -0.0741  0.5262  0.3219
  213SOL    HW2  624   2.296   2.695   1.637  1.5160 -0.8204 -0.1578
  213SOL    HW3  625   2.347   2.732   1.499  0.7604  1.3013  0.0925
  213SOL    MW4  626   2.334   2.752   1.583 -0.8968  0.1672 -0.1121
  214SOL     OW  627   4.848   5.446   4.057 -0.0014 -0.2798 -0.1869
  214SOL    HW2  628   4.788   5.373   4.074 -1.0771  0.7570  0.6329
  214SOL    HW3  629   4.793   5.512   4.013  0.7351  0.3709 -0.1472
  214SOL    MW4  630   4.833   5.445   4.054  0.7676 -0.4974 -0.0969
  215SOL     OW  631   6.044   2.845   4.015  0.0067 -0.1015 -0.0716
  215SOL    HW2  632   6.072   2.763   3.976 -0.0237 -1.5884  2.7582
  215SOL    HW3  633   6.095   2.853   4.095 -3.0002  0.3443  1.9833
  215SOL    MW4  634   6.054   2.836   4.020 -0.6100  0.7869 -0.6229
  216SOL     OW  635   4.755   3.873   0.499 -0.6044  0.5004  0.2930
  216SOL    HW2  636   4.710   3.841   0.421 -0.7311 -0.9646  0.9337
  216SOL    HW3  637   4.847   3.855   0.482 -0.8724 -3.6287  2.0027
  216SOL    MW4  638   4.761   3.866   0.486 -0.6259 -0.2181  0.2893
  217SOL     OW  639   3.972   5.455   5.021  0.1787  0.0592  0.0539
  217SOL    HW2  640   3.971   5.452   5.117  3.4098 -0.1938  0.2203
  217SOL    HW3  641   3.923   5.534   4.998  0.0354  0.5782  1.9893
  217SOL    MW4  642   3.966   5.465   5.031  0.3388  0.4958  0.1318
  218SOL     OW  643   0.629   0.925   3.462  0.2577 -0.3402  0.0717
  218SOL    HW2  644   0.589   0.989   3.403 -0.9253  0.7575  1.9767
  218SOL    HW3  645   0.721   0.952   3.467 -0.1156  0.9571  0.4620
  218SOL    MW4  646   0.636   0.937   3.455 -0.0838  0.2070 -0.1935
  219SOL     OW  647   2.355   4.038   2.230 -0.2075  0.4037 -0.1985
  219SOL    HW2  648   2.290   4.079   2.173 -1.3532 -0.4201  0.4619
  219SOL    HW3  649   2.420   4.001   2.171 -1.2648 -0.2609 -0.9721
  219SOL    MW4  650   2.355   4.038   2.215  0.0827 -0.1656  0.1830
  220SOL     OW  651   3.135   6.232   4.623  0.5109 -0.1428 -0.0173
  220SOL    HW2  652   3.216   6.246   4.671  0.9924  0.2692 -0.9139
  220SOL    HW3  653   3.144   6.287   4.545 -1.6899  1.9086  1.0385
  220SOL    MW4  654   3.147   6.241   4.619 -0.4721  0.6893  0.8489
  221SOL     OW  655   0.566   6.035   4.731 -0.4747  0.4415  0.2072
  221SOL    HW2  656   0.479   6.041   4.770 -0.5659  1.3948 -0.1157
  221SOL    HW3  657   0.563   6.094   4.655  0.7361  1.2580  0.7548
  221SOL    MW4  658   0.555   6.044   4.726  0.0253  0.1719 -0.4858
  222SOL     OW  659   1.307   2.221   6.067 -0.3225  0.1207 -0.2154
  222SOL    HW2  660   1.290   2.289   6.132  2.5742  2.3474 -1.5290
  222SOL    HW3  661   1.227   2.219   6.014 -1.1458  1.2515  0.9091
  222SOL    MW4  662   1.294   2.230   6.068  0.6766 -0.0570 -0.2464
  223SOL     OW  663   2.003   3.525   2.952  0.0252 -0.0952 -0.2768
  223SOL    HW2  664   1.985   3.596   3.014  0.6336 -1.3744  1.4242
  223SOL    HW3  665   1.954   3.451   2.985  1.8005 -1.3252 -0.2638
  223SOL    MW4  666   1.994   3.525   2.964  0.8525 -0.0119 -0.0380
  224SOL     OW  667   3.464   2.385   0.532 -0.8374 -0.0718  0.0270
  224SOL    HW2  668   3.441   2.473   0.562  0.3989  0.0546  0.6769
  224SOL    HW3  669   3.557   2.377   0.553 -0.8484 -1.3929 -0.3887
  224SOL    MW4  670   3.473   2.396   0.539 -0.1788  0.2889  0.1127
  225SOL     OW  671   0.907   0.627   1.464 -0.0701 -0.3760  0.7967
  225SOL    HW2  672   0.841   0.616   1.396  1.4090 -0.9042 -0.6256
  225SOL    HW3  673   0.934   0.538   1.486  2.5917 -0.2034 -1.2111
  225SOL    MW4  674   0.902   0.614   1.458  0.1857  0.7619 -0.5275
  226SOL     OW  675   3.376   3.207   0.218 -0.5116 -0.1336  0.9389
  226SOL    HW2  676   3.416   3.283   0.259 -0.3854 -0.4580  1.4394
  226SOL    HW3  677   3.282   3.223   0.226 -0.5043  0.8893 -0.7420
  226SOL    MW4  678   3.369   3.219   0.225  0.3100 -0.0562  0.3136
  227SOL     OW  679   4.286   2.728   3.131  0.0247 -0.0848 -0.1101
  227SOL    HW2  680   4.320   2.691   3.049 -0.3153 -3.6301  1.1552
  227SOL    HW3  681   4.329   2.677   3.199 -1.1792  1.4285  1.8878
  227SOL    MW4  682   4.296   2.716   3.129 -0.3454  0.4094  0.0934
  228SOL     OW  683   1.170   1.248   1.851  0.3336  0.0778 -0.3177
  228SOL    HW2  684   1.232   1.176   1.842 -0.8558 -0.8929 -1.2216
  228SOL    HW3  685   1.175   1.295   1.768  0.1789  0.2496 -0.2312
  228SOL    MW4  686   1.179   1.245   1.839  0.0755  0.0247 -0.0323
  229SOL     OW  687   3.773   5.638   4.885 -0.2361 -0.4713  0.0105
  229SOL    HW2  688   3.680   5.648   4.904  0.5026  0.8407  3.6021
  229SOL    HW3  689   3.788   5.695   4.810 -2.1707 -0.1626 -0.2025
  229SOL    MW4  690   3.763   5.647   4.877  0.4121 -0.7977 -0.3578
  230SOL     OW  691   6.138   2.473   1.930 -0.3331 -1.2422 -0.3347
  230SOL    HW2  692   6.053   2.447   1.966 -0.7410  1.0242  0.5648
  230SOL    HW3  693   6.188   2.502   2.006  0.0837  0.3504 -1.1718
  230SOL    MW4  694   6.133   2.474   1.944 -0.0441  0.2736 -0.9201
  231SOL     OW  695   5.853   1.592   1.832  0.3084 -0.7291  0.3047
  231SOL    HW2  696   5.813   1.676   1.854 -1.2679 -1.2265 -0.4693
  231SOL    HW3  697   5.836   1.537   1.909  0.8461 -0.5022  0.5861
  231SOL    MW4  698   5.845   1.596   1.845 -0.5072  0.4031 -0.0954
  232SOL     OW  699   0.498   2.957   4.003  0.2736 -0.5739  0.0212
  232SOL    HW2  700   0.441   2.916   3.938 -0.5244  0.4048  0.0848
  232SOL    HW3  701   0.567   2.999   3.950 -1.4329  1.8964 -0.4095
  232SOL    MW4  702   0.500   2.957   3.987 -0.2233  0.2085  1.1237
  233SOL     OW  703   0.255   2.528   4.310 -0.3064 -0.1255  0.1406
  233SOL    HW2  704   0.273   2.622   4.311 -3.2800  0.5738  0.6757
  233SOL    HW3  705   0.219   2.511   4.223  4.2576 -1.8873 -1.7164
  233SOL    MW4  706   0.252   2.538   4.299  0.0769 -0.5421 -0.2541
  234SOL     OW  707   4.935   3.866   1.873  0.1033 -0.0655  0.3837
  234SOL    HW2  708   4.840   3.876   1.881  0.1413  0.1207  0.6272
  234SOL    HW3  709   4.947   3.807   1.798 -0.1617  0.8346 -0.3829
  234SOL    MW4  710   4.924   3.859   1.864  0.2518 -0.6778 -0.0249
  235SOL     OW  711   5.289   4.026   5.890  0.1671  0.2396 -0.2488
  235SOL    HW2  712   5.303   3.960   5.823 -1.3945 -0.6575  0.2514
  235SOL    HW3  713   5.376   4.046   5.923  0.7289 -1.1420 -0.8287
  235SOL    MW4  714   5.302   4.020   5.886  0.5097  0.1564  0.6846
  236SOL     OW  715   2.401   3.192   3.090 -0.1523  0.1738 -0.1496
  236SOL    HW2  716   2.393   3.098   3.107  4.0755 -0.3969 -0.2833
  236SOL    HW3  717   2.405   3.198   2.994  0.9905  0.2384 -0.1177
  236SOL    MW4  718   2.400   3.180   3.079 -0.3308  0.6300 -0.5360
  237SOL     OW  719   0.984   2.117   0.404  0.5696  0.3110 -0.3828
  237SOL    HW2  720   0.900   2.118   0.449  0.0125  1.5401 -1.3855
  237SOL    HW3  721   1.028   2.197   0.433  0.5696  0.6683 -1.3487
  237SOL    MW4  722   0.979   2.128   0.414 -0.1289 -0.0415 -1.3626
  238SOL     OW  723   3.480   4.433   1.815 -0.5727  0.5000  0.1866
  238SOL    HW2  724   3.487   4.517   1.859 -0.2163  0.2998  0.5153
  238SOL    HW3  725   3.389   4.430   1.783 -0.7802  0.7158  0.7500
  238SOL    MW4  726   3.469   4.444   1.816 -0.1756  0.5170 -0.1673
  239SOL     OW  727   3.948   5.341   3.379  0.2525  0.8132 -0.1935
  239SOL    HW2  728   3.988   5.426   3.361 -0.0770  1.0353  0.0987
  239SOL    HW3  729   3.935   5.341   3.474 -0.6869  0.8676 -0.3087
  239SOL    MW4  730   3.951   5.352   3.389 -0.4881 -0.3929 -0.4056
  240SOL     OW  731   3.141   3.755   3.082  0.2289 -0.2672 -0.1399
  240SOL    HW2  732   3.173   3.830   3.133  0.9964 -1.6244  1.4717
  240SOL    HW3  733   3.112   3.692   3.148 -0.0842 -1.5411 -1.4410
  240SOL    MW4  734   3.141   3.757   3.098  0.1631 -0.3102  0.1412
  241SOL     OW  735   4.612   5.454   5.026  0.3232 -0.2672  0.6732
  241SOL    HW2  736   4.637   5.540   4.993 -0.4327 -0.3814 -0.2448
  241SOL    HW3  737   4.554   5.473   5.100 -1.1499  0.0546 -0.5277
  241SOL    MW4  738   4.608   5.468   5.032  0.0775  0.1360  0.0425
  242SOL     OW  739   0.360   4.007   0.061  0.8781 -0.0424 -0.2770
  242SOL    HW2  740   0.433   4.063   0.087  0.3007  1.0379 -0.9131
  242SOL    HW3  741   0.313   4.058  -0.006 -0.5808 -0.5965  0.2787
  242SOL    MW4  742   0.363   4.021   0.056  0.2691 -0.1730 -0.2229
  243SOL     OW  743   1.539   5.289   1.227 -0.5269 -0.3715 -0.1652
  243SOL    HW2  744   1.488   5.296   1.308 -0.3831 -0.3956 -0.0715
  243SOL    HW3  745   1.524   5.373   1.183  0.5214  0.2231  0.5639
  243SOL    MW4  746   1.530   5.301   1.232 -0.0754 -0.1544  0.0961
  244SOL     OW  747   4.658   1.996   5.406 -0.1423  0.1666 -0.8093
  244SOL    HW2  748   4.599   1.921   5.418 -0.6550  0.2963 -2.3160
  244SOL    HW3  749   4.743   1.956   5.386  0.2837 -0.0175  1.1612
  244SOL    MW4  750   4.662   1.980   5.405 -0.4893 -0.2598  0.1711
  245SOL     OW  751   5.225   5.533   2.736 -0.1087 -0.0698 -0.2683
  245SOL    HW2  752   5.270   5.611   2.702  0.0559 -0.5065 -1.0722
  245SOL    HW3  753   5.295   5.471   2.754 -0.3568 -0.6434 -1.2388
  245SOL    MW4  754   5.240   5.535   2.734  0.1500 -0.1233 -0.2984
  246SOL     OW  755   5.513   4.863   4.202  0.0603  0.4319 -0.1960
  246SOL    HW2  756   5.585   4.915   4.237 -0.9946  0.7959  1.5294
  246SOL    HW3  757   5.439   4.882   4.259 -1.2810 -0.3383 -1.6029
  246SOL    MW4  758   5.513   4.872   4.214  0.6168  0.6678  0.1030
  247SOL     OW  759   2.632   0.158   4.177 -0.0863 -0.3430  0.0562
  247SOL    HW2  760   2.621   0.148   4.272  2.2608  1.2818  0.5958
  247SOL    HW3  761   2.571   0.095   4.139  0.9295 -3.1871  2.6898
  247SOL    MW4  762   2.622   0.148   4.185 -0.1816 -0.0809  0.1113
  248SOL     OW  763   3.581   2.371   5.430 -0.0194  0.3129 -0.8641
  248SOL    HW2  764   3.562   2.304   5.363 -0.7108 -1.3776  0.9276
  248SOL    HW3  765   3.545   2.452   5.393  1.4127 -0.0935 -3.3971
  248SOL    MW4  766   3.574   2.373   5.416  0.2726  0.4943  0.2808
  249SOL     OW  767   2.175   3.506   6.277 -0.2080  0.1760 -0.0235
  249SOL    HW2  768   2.252   3.455   6.304 -1.4439 -2.2862 -0.9030
  249SOL    HW3  769   2.197   3.596   6.302  2.7134 -0.5042  0.2618
  249SOL    MW4  770   2.188   3.511   6.284 -1.2617 -0.3978 -0.2414
  250SOL     OW  771   4.245   2.438   2.565  0.2720 -0.7807 -0.8178
  250SOL    HW2  772   4.212   2.473   2.648  0.8206  1.6096 -1.5612
  250SOL    HW3  773   4.289   2.356   2.590 -1.1319 -1.0636  0.9616
  250SOL    MW4  774   4.246   2.432   2.579  1.0404  0.1179  0.1076
  251SOL     OW  775   6.209   4.915   0.930  0.5065  0.2008 -0.1441
  251SOL    HW2  776   6.130   4.862   0.922 -0.8432  1.7470  1.8437
  251SOL    HW3  777   6.213   4.966   0.849 -0.8619  0.4648 -0.0619
  251SOL    MW4  778   6.199   4.915   0.918 -0.9584  0.3196  0.3297
  252SOL     OW  779   1.923   1.564   0.580  0.1897  0.0552  0.5056
  252SOL    HW2  780   1.872   1.520   0.512 -0.0978  0.9345  0.1382
  252SOL    HW3  781   1.965   1.493   0.628  1.7387 -0.5476 -1.5973
  252SOL    MW4  782   1.921   1.549   0.577 -0.8324  0.1699  0.0017
  253SOL     OW  783   2.815   1.376   1.368  0.2951  0.7004  0.1579
  253SOL    HW2  784   2.720   1.383   1.381  0.3175 -0.2197  0.9300
  253SOL    HW3  785   2.826   1.380   1.273 -0.6069 -0.1284 -0.0052
  253SOL    MW4  786   2.804   1.378   1.357 -0.8926  0.1723 -0.0945
  254SOL     OW  787   3.004   5.581   6.377  0.0054  0.0439  0.2343
  254SOL    HW2  788   3.078   5.617   6.328  1.2600 -1.3461  1.0277
  254SOL    HW3  789   2.992   5.493   6.341  0.1679 -0.5513  1.5705
  254SOL    MW4  790   3.012   5.574   6.366  0.1114  0.4224  0.0671
  255SOL     OW  791   4.174   4.027   0.956  0.1861 -0.8391 -0.8053
  255SOL    HW2  792   4.251   4.071   0.920  1.1136 -3.0925 -1.7394
  255SOL    HW3  793   4.182   4.040   1.051  0.8769  0.2276 -0.9847
  255SOL    MW4  794   4.185   4.035   0.964 -0.2615 -0.2150 -0.3982
  256SOL     OW  795   5.992   3.485   5.594 -0.3789  0.1520 -0.1952
  256SOL    HW2  796   6.078   3.464   5.631 -0.9099 -1.7582  0.0827
  256SOL    HW3  797   5.993   3.446   5.507 -0.8976  0.2913 -0.2678
  256SOL    MW4  798   6.003   3.477   5.587 -0.1182 -0.0008 -0.4650
  257SOL     OW  799   4.195   2.847   2.369 -0.0133  0.1780  0.2176
  257SOL    HW2  800   4.213   2.941   2.371  0.1267  0.1418  0.7006
  257SOL    HW3  801   4.269   2.810   2.319 -0.9960  0.5168 -1.5912
  257SOL    MW4  802   4.207   2.854   2.362 -0.4551  0.1923 -0.4451
  258SOL     OW  803   2.172   3.090   1.336  0.1683  0.2683  0.1813
  258SOL    HW2  804   2.137   3.176   1.358  1.5861  0.8975  0.0759
  258SOL    HW3  805   2.120   3.029   1.388 -1.6319  1.0628 -0.5923
  258SOL    MW4  806   2.161   3.093   1.345  0.3719  0.0450  0.0513
  259SOL     OW  807   3.023   0.986   5.284  0.4786 -0.9427 -0.1153
  259SOL    HW2  808   3.048   1.044   5.212 -0.3426  0.3752  0.6193
  259SOL    HW3  809   3.059   0.900   5.260  0.4551 -0.4715 -1.9466
  259SOL    MW4  810   3.031   0.982   5.271 -0.5547  0.6020 -0.0431
  260SOL     OW  811   1.830   3.030   5.105 -0.1435 -0.4556 -0.2132
  260SOL    HW2  812   1.838   3.036   5.200  0.1415  0.6199 -0.2876
  260SOL    HW3  813   1.840   3.120   5.074 -2.7192 -0.3699 -1.0708
  260SOL    MW4  814   1.832   3.043   5.113  0.3528 -0.3665  0.6495
  261SOL     OW  815   5.003   1.185   0.283 -0.2223  0.2940 -0.1667
  261SOL    HW2  816   5.067   1.133   0.331  0.1321  1.1884  0.3635
  261SOL    HW3  817   5.022   1.169   0.191  1.3204  1.1625 -0.0392
  261SOL    MW4  818   5.014   1.176   0.277  0.4229 -0.1788  0.5895
  262SOL     OW  819   6.051   4.958   1.165  0.6073 -0.1582  0.5651
  262SOL    HW2  820   5.975   4.904   1.145 -0.6343  0.8978  2.2038
  262SOL    HW3  821   6.106   4.952   1.087  0.1264 -3.0403  0.3229
  262SOL    MW4  822   6.049   4.950   1.152  0.2296 -0.0497 -0.2787
  263SOL     OW  823  -0.003   3.234   4.684 -0.9987 -0.5085 -0.2386
  263SOL    HW2  824  -0.050   3.284   4.618 -1.1589  0.2219  0.4173
  263SOL    HW3  825  -0.010   3.143   4.655 -0.4664 -0.1440 -1.5881
  263SOL    MW4  826  -0.010   3.228   4.671 -0.5828  0.2167 -0.0551
  264SOL     OW  827   3.507   5.992   4.594  0.0709  0.4490 -0.4645
  264SOL    HW2  828   3.417   5.964   4.576  0.6363 -1.0381 -1.1290
  264SOL    HW3  829   3.537   6.029   4.511  0.5440 -0.4351 -0.7027
  264SOL    MW4  830   3.499   5.993   4.580 -0.0869 -0.4516  0.0283
  265SOL     OW  831   3.644   5.366   3.888 -0.5030  0.2011 -0.2112
  265SOL    HW2  832   3.654   5.461   3.879  0.6722  0.1568  0.3830
  265SOL    HW3  833   3.615   5.336   3.802  1.0165  0.8869 -1.0116
  265SOL    MW4  834   3.642   5.374   3.875  0.4232 -0.3575 -0.2506
  266SOL     OW  835   1.569   2.809   5.426  0.7910  0.2950  0.2150
  266SOL    HW2  836   1.573   2.832   5.333  3.6976 -0.0452  0.1737
  266SOL    HW3  837   1.540   2.718   5.427 -1.1628  0.8616 -0.1755
  266SOL    MW4  838   1.565   2.800   5.414  0.4114 -0.2135  0.2963
  267SOL     OW  839   0.019   3.949   4.043 -0.0955 -0.0301  0.1127
  267SOL    HW2  840  -0.038   3.875   4.063  1.4218 -1.3119 -0.1337
  267SOL    HW3  841   0.002   3.967   3.950 -0.6818  0.1447  0.2476
  267SOL    MW4  842   0.009   3.942   4.033  0.1725 -0.8466 -0.0866
  268SOL     OW  843   1.840   3.612   1.178 -0.2509 -0.6313  0.5378
  268SOL    HW2  844   1.784   3.663   1.120 -0.4809 -2.4345 -0.9125
  268SOL    HW3  845   1.797   3.617   1.263 -0.8753  0.6030  0.1777
  268SOL    MW4  846   1.827   3.620   1.181  0.4215 -0.6029  0.0029
  269SOL     OW  847   5.446   6.073   1.662 -0.1871 -0.0715  0.1330
  269SOL    HW2  848   5.408   6.042   1.580  1.9216 -2.3495 -0.1195
  269SOL    HW3  849   5.392   6.148   1.687 -1.9269 -0.3297 -2.4398
  269SOL    MW4  850   5.434   6.079   1.655  0.2625  0.8428  0.8848
  270SOL     OW  851   4.017   4.026   0.197 -0.2141  0.3710 -0.0707
  270SOL    HW2  852   4.064   4.002   0.277 -1.2722 -1.7593 -0.0068
  270SOL    HW3  853   4.085   4.027   0.129  0.5456  1.3050  0.6777
  270SOL    MW4  854   4.033   4.023   0.199  0.2800 -0.3594  0.5699
  271SOL     OW  855   0.998   2.099   6.362 -0.0276 -0.0405 -0.1252
  271SOL    HW2  856   0.980   2.005   6.362 -0.0750 -0.0310 -0.1927
  271SOL    HW3  857   1.032   2.117   6.450  0.3457 -0.1906 -0.2389
  271SOL    MW4  858   1.000   2.089   6.374  0.1296  0.4106 -0.3855
  272SOL     OW  859   2.197   5.861   4.385 -0.3287 -0.8860  0.2113
  272SOL    HW2  860   2.208   5.775   4.425  0.5890 -0.5190  0.7673
  272SOL    HW3  861   2.102   5.874   4.383 -0.4333 -1.0748  1.9714
  272SOL    MW4  862   2.186   5.852   4.390  0.1521  0.0315 -0.2947
  273SOL     OW  863   4.783   2.757   4.247  0.4099  0.3432  0.1912
  273SOL    HW2  864   4.820   2.800   4.324 -2.2933  0.1337  1.7026
  273SOL    HW3  865   4.735   2.827   4.202  0.1604 -0.0155 -0.1051
  273SOL    MW4  866   4.782   2.772   4.251 -0.0971  0.5915  0.2258
  274SOL     OW  867   2.429   4.363   4.457  0.2991 -0.4026  0.5741
  274SOL    HW2  868   2.389   4.370   4.370  0.0904  1.9994  0.8090
  274SOL    HW3  869   2.386   4.430   4.509  0.8911 -1.3555  2.3777
  274SOL    MW4  870   2.418   4.373   4.452  0.1062 -0.0722 -0.3260
  275SOL     OW  871   6.294   6.163   1.218 -0.1760  0.2313 -0.6523
  275SOL    HW2  872   6.282   6.081   1.169 -1.8362  0.1209 -0.1236
  275SOL    HW3  873   6.295   6.136   1.310 -0.2405  0.7592 -0.4977
  275SOL    MW4  874   6.293   6.148   1.223  0.1757 -0.2367 -0.5701
  276SOL     OW  875   2.154   3.561   3.821  0.1674 -0.5993 -0.5031
  276SOL    HW2  876   2.085   3.573   3.757  1.1257  1.6781 -1.2166
  276SOL    HW3  877   2.229   3.609   3.785  0.8268  0.5462  2.1471
  276SOL    MW4  878   2.155   3.569   3.808 -0.4335  0.3045  0.0805
  277SOL     OW  879   6.227   3.262   4.871 -0.5141  0.4733 -0.1174
  277SOL    HW2  880   6.187   3.177   4.854 -0.9948  0.5287  0.6997
  277SOL    HW3  881   6.305   3.264   4.815 -0.8746 -0.2206 -0.6464
  277SOL    MW4  882   6.232   3.251   4.862  1.2867  0.2860  0.0501
  278SOL     OW  883   2.181   3.710   5.595  0.1344 -0.4905  0.1243
  278SOL    HW2  884   2.214   3.709   5.505  1.3145  1.4974  0.4550
  278SOL    HW3  885   2.092   3.744   5.587  0.3190 -0.0787 -0.2987
  278SOL    MW4  886   2.174   3.715   5.582  0.1971  0.2337  0.3637
  279SOL     OW  887   2.586   3.840   4.050  0.0727 -0.4481 -0.0433
  279SOL    HW2  888   2.574   3.747   4.069  1.9206 -0.9550 -1.0651
  279SOL    HW3  889   2.520   3.860   3.984 -1.3035 -0.6260  1.2251
  279SOL    MW4  890   2.576   3.830   4.044  0.3369 -0.8875 -0.4544
  280SOL     OW  891   3.370   3.055   4.578 -0.3989  0.0127 -0.4597
  280SOL    HW2  892   3.276   3.066   4.586 -0.7473 -0.6778 -2.8926
  280SOL    HW3  893   3.388   2.972   4.623 -0.8212  0.4814  0.5998
  280SOL    MW4  894   3.360   3.045   4.585  0.5626 -0.1419  0.2608
  281SOL     OW  895   1.531   0.799   4.224  0.4355  0.0666 -0.2697
  281SOL    HW2  896   1.527   0.793   4.320  2.8062 -0.9334 -0.1835
  281SOL    HW3  897   1.503   0.713   4.194 -1.5693  0.7742 -0.5927
  281SOL    MW4  898   1.527   0.787   4.233  0.2916  0.0936 -0.1343
  282SOL     OW  899   0.784   4.858   4.968  0.3347  0.4738  0.1902
  282SOL    HW2  900   0.865   4.906   4.987  1.2313 -1.0523  0.3989
  282SOL    HW3  901   0.809   4.766   4.974 -1.1995 -0.0386 -0.7490
  282SOL    MW4  902   0.798   4.852   4.971  0.0880  0.0734  0.2307
  283SOL     OW  903   3.284   4.182   2.880 -0.4009  0.1946 -0.1180
  283SOL    HW2  904   3.257   4.164   2.970  0.1123 -0.2571 -0.0483
  283SOL    HW3  905   3.270   4.099   2.834 -0.6187  0.4110 -0.4442
  283SOL    MW4  906   3.279   4.169   2.886  0.2302  0.7140 -0.1685
  284SOL     OW  907   4.745   4.889   3.291 -0.6110 -0.4719 -0.1907
  284SOL    HW2  908   4.652   4.883   3.272 -0.2654  0.4389 -2.5890
  284SOL    HW3  909   4.776   4.799   3.292 -1.2948 -0.7162 -0.7265
  284SOL    MW4  910   4.737   4.877   3.288 -0.3287 -0.1120 -0.1733
  285SOL     OW  911   2.781   2.041   2.808 -0.0739 -0.1763 -0.0678
  285SOL    HW2  912   2.859   2.048   2.752 -1.2165 -0.5022 -1.7652
  285SOL    HW3  913   2.741   1.958   2.783  0.1075 -1.0298  2.2729
  285SOL    MW4  914   2.786   2.031   2.797  0.0389  0.0653 -0.0069
  286SOL     OW  915   0.800   5.642   2.950  0.4862 -0.4874  0.1671
  286SOL    HW2  916   0.819   5.620   3.041  1.5675  1.4665  0.4738
  286SOL    HW3  917   0.727   5.705   2.955  1.2629  0.4774 -0.1913
  286SOL    MW4  918   0.793   5.648   2.962  0.1753  0.4146  0.0977
  287SOL     OW  919   0.703   1.223   4.501  0.0505 -0.2249  0.1115
  287SOL    HW2  920   0.704   1.139   4.455 -0.4674 -0.1771 -0.0016
  287SOL    HW3  921   0.749   1.283   4.444 -1.0010 -0.0547 -0.5870
  287SOL    MW4  922   0.709   1.220   4.488 -0.1502  0.0002  0.2366
  288SOL     OW  923   1.048   3.401   3.082  0.2274  0.3048  0.2990
  288SOL    HW2  924   1.045   3.403   2.986 -1.0026  0.1552  0.3250
  288SOL    HW3  925   1.115   3.336   3.103 -1.5157 -1.8271 -0.4630
  288SOL    MW4  926   1.056   3.393   3.072 -0.0186 -0.4854 -0.2419
  289SOL     OW  927   4.874   3.471   3.566 -0.0547 -0.6792 -0.7226
  289SOL    HW2  928   4.898   3.555   3.606  0.5963 -0.1809 -2.1014
  289SOL    HW3  929   4.882   3.408   3.637  1.9208  0.0290 -0.2553
  289SOL    MW4  930   4.878   3.474   3.581 -0.2239  0.2090  0.1713
  290SOL     OW  931   5.867   4.393   2.608  0.4873 -0.2134  0.0733
  290SOL    HW2  932   5.790   4.426   2.654  1.1210  1.0220  0.2900
  290SOL    HW3  933   5.833   4.323   2.551 -0.7803  0.3092  0.1576
  290SOL    MW4  934   5.853   4.388   2.607  0.9689  0.7566  0.0304
  291SOL     OW  935   3.571   4.612   2.524 -0.3244  0.8131 -0.0520
  291SOL    HW2  936   3.520   4.687   2.555 -1.9266  0.2909 -1.3309
  291SOL    HW3  937   3.506   4.547   2.499  0.9785  0.0084 -1.5062
  291SOL    MW4  938   3.556   4.614   2.525  0.2318 -0.0399  0.2038
  292SOL     OW  939   0.092   5.689   4.970 -0.6372 -0.1673  0.0748
  292SOL    HW2  940   0.042   5.687   5.051 -1.5063  1.3061 -0.3835
  292SOL    HW3  941   0.042   5.634   4.909 -2.2127  1.9281 -0.6183
  292SOL    MW4  942   0.079   5.681   4.972  0.0812 -0.4959 -0.1751
  293SOL     OW  943   0.290   4.855   6.252  0.2990 -0.3440 -0.2375
  293SOL    HW2  944   0.371   4.836   6.205 -0.2114 -0.0415 -1.2604
  293SOL    HW3  945   0.243   4.772   6.255 -0.3668 -0.0553 -1.6672
  293SOL    MW4  946   0.294   4.842   6.247  0.3144 -0.2294 -0.2581
  294SOL     OW  947   5.137   3.634   4.777  0.3041 -0.3050 -0.5103
  294SOL    HW2  948   5.222   3.666   4.745  0.7537 -1.1431 -0.1931
  294SOL    HW3  949   5.114   3.562   4.718 -1.1343  1.1108 -1.7678
  294SOL    MW4  950   5.145   3.628   4.765 -0.3951 -0.7197  0.1778
  295SOL     OW  951   1.664   0.168   4.485  0.2359 -0.0790  0.0684
  295SOL    HW2  952   1.744   0.193   4.437  0.8406  0.0341  1.1065
  295SOL    HW3  953   1.671   0.073   4.494  1.7780  0.1839  2.6845
  295SOL    MW4  954   1.676   0.159   4.480 -0.1269  0.0497  0.2059
  296SOL     OW  955   0.262   6.294   1.286  0.5000 -0.3709 -0.2411
  296SOL    HW2  956   0.329   6.235   1.251  1.6181  1.6662 -1.7747
  296SOL    HW3  957   0.194   6.297   1.219 -1.0894 -2.1659  1.1619
  296SOL    MW4  958   0.262   6.287   1.273  0.0946 -0.5905 -0.2652
  297SOL     OW  959   2.899   0.329   4.970 -0.0788 -0.0005 -0.3308
  297SOL    HW2  960   2.846   0.409   4.960  0.4748  0.3299 -0.6671
  297SOL    HW3  961   2.923   0.306   4.881  0.9026  0.2334 -0.1347
  297SOL    MW4  962   2.895   0.337   4.957 -0.1315 -0.1980 -0.5009
  298SOL     OW  963   2.161   0.750   2.915 -0.3001  0.0160 -0.1602
  298SOL    HW2  964   2.194   0.702   2.991 -4.0328 -1.1863  0.9566
  298SOL    HW3  965   2.134   0.682   2.854  1.0800  0.9557 -1.9166
  298SOL    MW4  966   2.162   0.735   2.917  0.3278  0.0976  0.1831
  299SOL     OW  967   4.201   1.013   2.908  0.8252 -0.2234 -0.2227
  299SOL    HW2  968   4.292   1.018   2.880  0.8994 -1.0355 -0.1602
  299SOL    HW3  969   4.205   0.995   3.002  0.5944  0.3685 -0.0990
  299SOL    MW4  970   4.213   1.011   2.916 -0.3695 -0.3328  0.4828
  300SOL     OW  971   3.878   1.023   0.766  0.7517  0.3120  0.1710
  300SOL    HW2  972   3.972   1.038   0.767  1.0085 -1.1291 -0.8177
  300SOL    HW3  973   3.868   0.930   0.747 -0.9121  0.9090 -2.3334
  300SOL    MW4  974   3.889   1.013   0.764 -0.2836 -0.7095  0.6503
  301SOL     OW  975   0.724   4.626   0.568  0.0720 -0.1579 -0.3923
  301SOL    HW2  976   0.762   4.559   0.511  0.1209 -0.0231 -0.5204
  301SOL    HW3  977   0.747   4.709   0.525 -2.2839 -0.1072 -1.7258
  301SOL    MW4  978   0.732   4.628   0.555 -0.1411 -0.6408  0.1705
  302SOL     OW  979   2.411   2.536   2.818  0.4746 -0.4196 -0.1481
  302SOL    HW2  980   2.439   2.604   2.757 -0.2482 -1.2163 -1.4186
  302SOL    HW3  981   2.431   2.572   2.904  0.3812  1.2775 -0.7830
  302SOL    MW4  982   2.417   2.550   2.821  0.2728 -0.0925  0.2604
  303SOL     OW  983   4.691   1.031   3.028  0.4000 -0.7720 -0.0909
  303SOL    HW2  984   4.772   0.997   2.990  0.5556 -0.8888  0.3415
  303SOL    HW3  985   4.623   1.005   2.965  0.8495  0.5358 -1.1761
  303SOL    MW4  986   4.693   1.023   3.014 -0.0401 -0.2242  0.5511
  304SOL     OW  987   4.897   0.003   3.560  0.1445  0.1976 -0.3286
  304SOL    HW2  988   4.952  -0.002   3.482  0.0787  1.7820 -0.5122
  304SOL    HW3  989   4.847  -0.079   3.559  0.5195 -0.0398 -1.6601
  304SOL    MW4  990   4.897  -0.009   3.550  0.0269  0.3678 -0.2128
  305SOL     OW  991   4.680   1.050   6.385  0.5299 -0.0715 -0.0035
  305SOL    HW2  992   4.701   1.083   6.472  0.9983 -1.4411  0.4292
  305SOL    HW3  993   4.749   1.084   6.329 -0.1199  1.3438  0.0042
  305SOL    MW4  994   4.692   1.059   6.389  0.2195  0.3541 -0.7527
  306SOL     OW  995   1.237   0.687   0.572 -0.2616 -0.4857 -0.2154
  306SOL    HW2  996   1.261   0.690   0.479 -0.0563 -2.1972 -0.2540
  306SOL    HW3  997   1.288   0.614   0.608  0.0505  0.4623  1.3833
  306SOL    MW4  998   1.247   0.678   0.564  0.1072 -0.1025 -0.3349
  307SOL     OW  999   1.780   0.047   5.011  0.3481 -0.0251 -0.4779
  307SOL    HW2 1000   1.721   0.122   5.002  0.9775  0.6981  1.0331
  307SOL    HW3 1001   1.866   0.085   5.027  0.8374 -1.0726 -0.5105
  307SOL    MW4 1002   1.783   0.062   5.012 -0.0246 -0.7097  0.3147
  308SOL     OW 1003   0.102   4.387   2.995  0.2677 -0.0142 -0.0345
  308SOL    HW2 1004   0.011   4.412   2.981 -0.2776 -0.3564  2.5727
  308SOL    HW3 1005   0.103   4.293   2.979  0.0540 -0.0959  0.4277
  308SOL    MW4 1006   0.090   4.378   2.991  0.3669  0.4851  0.6481
  309SOL     OW 1007   5.845   3.803   0.381 -0.1333  0.0968 -0.2630
  309SOL    HW2 1008   5.904   3.728   0.382  0.2921  0.3994  1.7510
  309SOL    HW3 1009   5.892   3.870   0.331 -0.3392 -0.8028 -1.7148
  309SOL    MW4 1010   5.859   3.802   0.375  0.7364  0.4896  0.3122
  310SOL     OW 1011   4.871   3.233   0.327 -0.1500  1.0268 -0.1113
  310SOL    HW2 1012   4.928   3.157   0.313 -0.3624  0.9048 -0.3210
  310SOL    HW3 1013   4.890   3.261   0.417 -0.9549 -0.0273  0.4121
  310SOL    MW4 1014   4.881   3.226   0.337 -0.5651 -0.0062  0.1123
  311SOL     OW 1015   5.101   3.284   1.346 -0.6931 -0.5820 -0.5842
  311SOL    HW2 1016   5.022   3.301   1.396 -0.7364  1.9556 -1.3766
  311SOL    HW3 1017   5.099   3.190   1.327 -1.8128 -1.1857  2.1542
  311SOL    MW4 1018   5.091   3.273   1.350  0.0738 -0.3183  0.1688
  312SOL     OW 1019   2.306   4.387   4.201  0.0976  0.2783  0.3844
  312SOL    HW2 1020   2.361   4.463   4.185  1.0174 -0.2763  0.7997
  312SOL    HW3 1021   2.276   4.359   4.115  1.5476 -0.1867  0.0112
  312SOL    MW4 1022   2.309   4.393   4.188 -0.6390 -0.6613  0.1815
  313SOL     OW 1023   2.456   0.051   2.808 -0.1440  0.2642 -0.3874
  313SOL    HW2 1024   2.377   0.029   2.759 -1.4615 -0.2523  1.8329
  313SOL    HW3 1025   2.430   0.043   2.900  2.4532  0.2592  0.4223
  313SOL    MW4 1026   2.442   0.047   2.814  0.0580 -0.0959 -0.0102
  314SOL     OW 1027   6.057   3.223   6.141  0.0575  0.0055  0.0533
  314SOL    HW2 1028   6.036   3.130   6.136  1.2546 -0.2367 -1.2108
  314SOL    HW3 1029   6.064   3.242   6.235 -1.2049 -0.9149  0.3527
  314SOL    MW4 1030   6.055   3.213   6.153 -0.1199  0.2810 -0.3271
  315SOL     OW 1031   3.931   0.838   1.636  0.0907 -0.1454 -0.2982
  315SOL    HW2 1032   3.855   0.890   1.661  1.1694  0.3320  2.2641
  315SOL    HW3 1033   3.911   0.750   1.669  0.9949  0.1972  1.2487
  315SOL    MW4 1034   3.919   0.833   1.644  0.1970  0.1075 -0.4680
  316SOL     OW 1035   1.858   5.039   6.104 -0.4665  0.1854 -0.3509
  316SOL    HW2 1036   1.782   5.050   6.047 -0.2194 -0.4447 -0.8089
  316SOL    HW3 1037   1.926   5.092   6.062 -0.4248  0.1101 -0.3785
  316SOL    MW4 1038   1.857   5.048   6.091 -0.4060 -0.1082 -0.4823
  317SOL     OW 1039   4.116   2.436   0.292  0.2169  0.0948 -0.2361
  317SOL    HW2 1040   4.114   2.415   0.385 -0.8510 -1.1078 -0.5026
  317SOL    HW3 1041   4.198   2.399   0.260  0.0319 -0.5392  0.0130
  317SOL    MW4 1042   4.126   2.429   0.300 -0.6564 -0.2108 -0.3079
  318SOL     OW 1043   0.195   5.338   2.398  0.1795 -0.3364 -0.1240
  318SOL    HW2 1044   0.193   5.433   2.384 -1.1653 -0.1729  0.9912
  318SOL    HW3 1045   0.199   5.300   2.310 -0.3039  0.7363 -0.6216
  318SOL    MW4 1046   0.196   5.345   2.385  0.2909  0.0203  0.5826
  319SOL     OW 1047   1.506   3.269   2.401  0.4866  0.8493 -0.2520
  319SOL    HW2 1048   1.547   3.301   2.481  1.6262 -0.7386 -0.1483
  319SOL    HW3 1049   1.487   3.177   2.419 -1.5846  1.0895 -0.9332
  319SOL    MW4 1050   1.509   3.261   2.414  1.0450  0.3662  0.0506
  320SOL     OW 1051   0.065   2.205   2.745  0.6155 -0.1026  0.2022
  320SOL    HW2 1052   0.091   2.246   2.662  1.9684  0.4723  0.8731
  320SOL    HW3 1053   0.092   2.268   2.812 -0.0972 -0.7363  1.1110
  320SOL    MW4 1054   0.072   2.219   2.743  0.3747  0.0936 -0.2755
  321SOL     OW 1055   0.306   2.895   2.637 -0.3138 -0.2351  0.0348
  321SOL    HW2 1056   0.232   2.872   2.693 -1.2194 -1.3500 -1.5400
  321SOL    HW3 1057   0.340   2.811   2.606 -0.7331  0.3105 -2.1404
  321SOL    MW4 1058   0.300   2.881   2.640  0.3538  0.0157 -0.1629
  322SOL     OW 1059   2.314   1.540   1.345  0.1915 -0.5709  0.1787
  322SOL    HW2 1060   2.345   1.544   1.255  0.5581  1.7123  0.3594
  322SOL    HW3 1061   2.241   1.478   1.342 -0.0992 -0.2009 -1.7790
  322SOL    MW4 1062   2.308   1.532   1.333  0.5707  0.3685 -0.1492
  323SOL     OW 1063   5.009   4.611   4.245  0.3452  0.5358  0.5854
  323SOL    HW2 1064   4.988   4.697   4.281 -0.1891  1.3628 -1.5389
  323SOL    HW3 1065   5.091   4.625   4.198 -0.2831  0.1730 -0.6556
  323SOL    MW4 1066   5.017   4.625   4.243 -0.3274 -0.0031 -0.1413
  324SOL     OW 1067   3.793   4.380   5.417  0.0620  0.2552 -0.0464
  324SOL    HW2 1068   3.799   4.438   5.341  2.4386  0.7246  0.4045
  324SOL    HW3 1069   3.801   4.292   5.381 -0.8717  0.3522 -0.5052
  324SOL    MW4 1070   3.795   4.376   5.402 -0.6890 -0.2313 -0.0527
  325SOL     OW 1071   1.800   3.633   5.248 -0.1065 -0.4429  0.2295
  325SOL    HW2 1072   1.801   3.721   5.210  0.5393 -0.6396 -0.2409
  325SOL    HW3 1073   1.725   3.633   5.307  0.0714  0.5250  0.4769
  325SOL    MW4 1074   1.790   3.645   5.251  0.0139  0.0506 -0.1868
  326SOL     OW 1075   6.299   4.112   5.408 -0.5447 -0.0309  0.2298
  326SOL    HW2 1076   6.381   4.146   5.372  0.0351 -1.5714  0.0167
  326SOL    HW3 1077   6.236   4.121   5.338  0.1253 -1.2854 -0.5870
  326SOL    MW4 1078   6.302   4.117   5.394 -0.6537  0.1794 -0.6330
  327SOL     OW 1079   4.873   2.750   2.767 -0.0549 -0.0627  0.4334
  327SOL    HW2 1080   4.868   2.837   2.805 -1.7303  0.2881 -0.5059
  327SOL    HW3 1081   4.802   2.701   2.809 -0.2970 -0.4109 -0.3541
  327SOL    MW4 1082   4.863   2.755   2.777 -0.2255  1.1606  1.0476
  328SOL     OW 1083   6.169   3.882   0.597  0.3407  0.0415  0.1975
  328SOL    HW2 1084   6.155   3.958   0.654 -2.1079 -0.1694 -0.0513
  328SOL    HW3 1085   6.101   3.820   0.622  1.5151 -1.5901 -0.4703
  328SOL    MW4 1086   6.158   3.884   0.608  0.0082 -0.2527  0.2262
  329SOL     OW 1087   2.941   4.439   4.115  0.4573  0.6747 -1.1663
  329SOL    HW2 1088   2.864   4.384   4.103  0.8028 -0.2202  0.4835
  329SOL    HW3 1089   2.948   4.488   4.032  0.2767 -1.8902 -2.8099
  329SOL    MW4 1090   2.932   4.438   4.102  0.0185  0.3210 -0.8919
  330SOL     OW 1091   4.859   0.784   0.025 -0.1945 -0.3998  0.3808
  330SOL    HW2 1092   4.876   0.699  -0.014  0.7035  0.7499 -1.9499
  330SOL    HW3 1093   4.770   0.807  -0.003 -0.2537 -0.3420  0.6046
  330SOL    MW4 1094   4.849   0.776   0.017  0.2581  0.0620 -0.5124
  331SOL     OW 1095   5.513   0.257   6.117 -0.2452 -0.2895  0.5891
  331SOL    HW2 1096   5.578   0.295   6.059 -0.2678 -2.0228 -0.6391
  331SOL    HW3 1097   5.429   0.290   6.084 -0.2043 -0.6526  0.1139
  331SOL    MW4 1098   5.511   0.266   6.105  0.3890  0.2487 -0.0363
  332SOL     OW 1099   1.686   1.327   3.088 -0.3237 -0.3841 -0.5773
  332SOL    HW2 1100   1.596   1.296   3.098 -1.2619  1.2708 -3.1114
  332SOL    HW3 1101   1.688   1.369   3.003  3.3028 -1.7248 -1.3264
  332SOL    MW4 1102   1.674   1.328   3.078 -0.0983  0.1911 -0.4241
  333SOL     OW 1103   5.879   3.061   2.772  0.1156 -0.6001 -0.2401
  333SOL    HW2 1104   5.819   3.102   2.834  0.7575 -1.1180  0.7404
  333SOL    HW3 1105   5.959   3.114   2.778 -0.0805 -0.1466 -1.2602
  333SOL    MW4 1106   5.882   3.074   2.781 -0.0307 -0.2370 -0.0921
  334SOL     OW 1107   5.353   0.623   3.644  0.3416 -0.1429 -0.5500
  334SOL    HW2 1108   5.297   0.692   3.608  2.5072  0.9378 -2.1052
  334SOL    HW3 1109   5.406   0.595   3.569  1.4040 -1.5783  0.6943
  334SOL    MW4 1110   5.353   0.628   3.629 -0.1750  0.4247 -0.0809
  335SOL     OW 1111   2.195   5.099   1.489 -0.8224 -0.1508 -0.0782
  335SOL    HW2 1112   2.217   5.163   1.421 -0.5514 -0.3271 -0.1580
  335SOL    HW3 1113   2.108   5.067   1.464 -0.7454 -0.1794 -0.3162
  335SOL    MW4 1114   2.186   5.103   1.477 -0.4807 -0.5207 -0.2400
  336SOL     OW 1115   0.173   0.302   0.527 -0.0186  0.7178 -0.1076
  336SOL    HW2 1116   0.101   0.352   0.565  0.4398 -1.1440  3.8034
  336SOL    HW3 1117   0.251   0.355   0.544  0.2252 -0.2484  2.1833
  336SOL    MW4 1118   0.174   0.316   0.535  0.3729 -0.4481 -0.1920
  337SOL     OW 1119   3.096   2.925   3.421  0.1218  0.0677 -0.4932
  337SOL    HW2 1120   3.045   2.984   3.365 -1.1128  1.3021  1.7898
  337SOL    HW3 1121   3.046   2.920   3.502  1.2402 -2.5769  0.1352
  337SOL    MW4 1122   3.083   2.932   3.424 -0.2998  0.0982  0.4087
  338SOL     OW 1123   3.971   1.210   4.546  0.3750  0.0689 -0.7032
  338SOL    HW2 1124   4.043   1.215   4.609  1.8641 -2.6074 -1.9993
  338SOL    HW3 1125   3.892   1.217   4.599  1.5769  0.4618  1.1210
  338SOL    MW4 1126   3.970   1.212   4.561  0.2621  0.2441 -0.2084
  339SOL     OW 1127   4.109   1.656   2.294 -0.3959 -0.0572  0.4075
  339SOL    HW2 1128   4.033   1.632   2.242  0.2409  1.9047 -1.6007
  339SOL    HW3 1129   4.075   1.722   2.356 -0.3235  1.0552 -0.6991
  339SOL    MW4 1130   4.094   1.662   2.296 -0.0017 -0.8245  0.8092
  340SOL     OW 1131   0.898   0.416   3.533  0.2006 -0.2057 -0.8582
  340SOL    HW2 1132   0.814   0.370   3.540  0.4827 -0.8260 -1.3649
  340SOL    HW3 1133   0.924   0.404   3.442  0.8289 -0.0043 -0.7110
  340SOL    MW4 1134   0.890   0.408   3.522 -0.1587 -0.6503 -0.5885
  341SOL     OW 1135   4.642   0.596   4.615  0.3958  0.1458  0.1737
  341SOL    HW2 1136   4.655   0.554   4.700 -1.1174  0.0244  0.3608
  341SOL    HW3 1137   4.705   0.551   4.557 -0.3015 -1.5371  0.6544
  341SOL    MW4 1138   4.652   0.584   4.618  1.0057  0.2390 -0.3752
  342SOL     OW 1139   3.356   0.633   1.855 -0.2891  0.2794 -0.1521
  342SOL    HW2 1140   3.443   0.619   1.893 -0.0974 -0.9139 -0.9785
  342SOL    HW3 1141   3.297   0.625   1.930  0.2097 -0.3697  0.1872
  342SOL    MW4 1142   3.360   0.630   1.870  0.5137  0.1949 -0.4049
  343SOL     OW 1143   1.096   1.438   2.376  0.1432  0.5702  0.2476
  343SOL    HW2 1144   1.014   1.442   2.326 -0.1159 -0.7181  0.5386
  343SOL    HW3 1145   1.165   1.434   2.310  0.1844  3.7142 -0.0599
  343SOL    MW4 1146   1.094   1.438   2.361 -0.1818 -0.4337  0.1422
  344SOL     OW 1147   4.082   1.901   0.703  0.0101 -1.2589  0.3144
  344SOL    HW2 1148   4.133   1.844   0.761  0.4678 -1.4005 -0.2211
  344SOL    HW3 1149   3.991   1.885   0.728  0.2387 -0.7511  1.5040
  344SOL    MW4 1150   4.077   1.891   0.714 -0.2171 -0.4931  0.0774
  345SOL     OW 1151   3.350   2.301   2.443 -0.3132  0.2051  0.3649
  345SOL    HW2 1152   3.390   2.300   2.530 -2.3553 -0.9125  1.3645
  345SOL    HW3 1153   3.354   2.210   2.414  0.1316  0.5302 -0.6254
  345SOL    MW4 1154   3.356   2.289   2.451  0.4095  0.3965  0.4117
  346SOL     OW 1155   4.769   0.119   3.350  0.5832  0.1870 -0.4445
  346SOL    HW2 1156   4.783   0.088   3.439 -2.5225  0.1366  0.1355
  346SOL    HW3 1157   4.785   0.213   3.354  0.7911  0.1283  0.0834
  346SOL    MW4 1158   4.773   0.127   3.362 -0.5423  0.1660 -0.3439
  347SOL     OW 1159   2.602   0.616   0.869 -0.3344 -0.0717  0.1615
  347SOL    HW2 1160   2.616   0.710   0.854 -3.0433  0.2627 -0.8068
  347SOL    HW3 1161   2.685   0.585   0.906  0.7131  2.6406  0.3133
  347SOL    MW4 1162   2.615   0.624   0.872 -0.1794  0.6146 -0.2579
  348SOL     OW 1163   3.384   3.019   2.651 -0.2361 -0.2301 -0.2612
  348SOL    HW2 1164   3.415   3.072   2.724 -2.2384  0.4521  0.1545
  348SOL    HW3 1165   3.445   3.037   2.580  0.5143  0.7630  0.6110
  348SOL    MW4 1166   3.396   3.028   2.651  0.0603 -0.5007 -0.1392
  349SOL     OW 1167   1.777   2.976   2.281  0.0348  0.1064 -0.4996
  349SOL    HW2 1168   1.780   2.890   2.241 -0.0977  0.7072 -1.8395
  349SOL    HW3 1169   1.752   3.035   2.210 -2.0433  0.9734  0.8525
  349SOL    MW4 1170   1.774   2.973   2.267  0.0109 -0.3665 -0.1166
  350SOL     OW 1171   5.019   5.858   1.626 -0.2048  0.3230 -0.2409
  350SOL    HW2 1172   5.059   5.895   1.705  0.4450 -0.3419 -0.2378
  350SOL    HW3 1173   4.967   5.929   1.589  0.5178  1.0400  0.0884
  350SOL    MW4 1174   5.018   5.872   1.632 -0.1222  0.7650 -0.1522
  351SOL     OW 1175   3.915   3.869   1.765  0.4571 -0.3817 -0.2903
  351SOL    HW2 1176   3.976   3.849   1.836  0.6536 -0.3830 -0.4578
  351SOL    HW3 1177   3.871   3.949   1.792  0.3008 -0.5596 -0.0199
  351SOL    MW4 1178   3.917   3.877   1.778 -0.1455 -0.3735  0.1216
  352SOL     OW 1179   4.455   3.326   1.791 -0.0759 -0.7949 -0.0217
  352SOL    HW2 1180   4.476   3.268   1.864 -1.9313 -0.2121  1.0420
  352SOL    HW3 1181   4.384   3.281   1.744  0.2101 -0.5577 -0.7022
  352SOL    MW4 1182   4.448   3.313   1.794 -0.4861 -0.3404  0.3268
  353SOL     OW 1183   1.075   5.830   4.030  0.6655  0.3199  0.1590
  353SOL    HW2 1184   1.010   5.818   3.961  0.2580  0.4136  0.5228
  353SOL    HW3 1185   1.103   5.742   4.052  2.2682  0.3639 -1.4990
  353SOL    MW4 1186   1.070   5.817   4.023  0.1126  0.5046 -0.7150
  354SOL     OW 1187   1.525   4.687   4.766 -0.5310 -0.0460  0.2656
  354SOL    HW2 1188   1.471   4.702   4.688 -1.2039  0.7221  0.8666
  354SOL    HW3 1189   1.593   4.754   4.761 -0.9690  0.4329  0.6826
  354SOL    MW4 1190   1.527   4.698   4.755  0.0776  0.4539 -0.4680
  355SOL     OW 1191   6.056   5.688   5.808 -0.0701 -0.1927 -0.2775
  355SOL    HW2 1192   6.046   5.727   5.895 -2.8201 -0.7150 -0.2469
  355SOL    HW3 1193   6.080   5.597   5.825 -1.4745 -0.5372  0.0493
  355SOL    MW4 1194   6.058   5.681   5.822 -0.5543  0.0958  0.0143
  356SOL     OW 1195   3.415   4.184   3.575  0.0297 -0.2684  0.8175
  356SOL    HW2 1196   3.393   4.234   3.497  0.2451 -0.4252  0.6534
  356SOL    HW3 1197   3.441   4.098   3.541  0.2734 -0.2869  1.0511
  356SOL    MW4 1198   3.415   4.179   3.560  0.8951  0.1638  0.0105
  357SOL     OW 1199   3.363   0.202   3.862 -0.2607 -0.1292 -0.2443
  357SOL    HW2 1200   3.439   0.207   3.805 -1.0630 -0.3877 -1.3867
  357SOL    HW3 1201   3.389   0.246   3.942  0.3607  1.7485 -1.4175
  357SOL    MW4 1202   3.376   0.208   3.865  0.2520  0.0925 -0.1772
  358SOL     OW 1203   4.479   0.973   2.808  0.0492  0.2675  0.1404
  358SOL    HW2 1204   4.450   0.974   2.717  2.4619  0.9340 -0.7046
  358SOL    HW3 1205   4.489   0.880   2.829 -1.6097  0.0594  0.1548
  358SOL    MW4 1206   4.477   0.961   2.799  0.2357 -0.3098  0.2154
  359SOL     OW 1207   3.058   3.186   4.024  0.3687 -0.3865 -0.0918
  359SOL    HW2 1208   2.984   3.227   3.979  1.3800 -0.1904 -1.6447
  359SOL    HW3 1209   3.096   3.127   3.959  0.3969 -2.0286  1.3266
  359SOL    MW4 1210   3.053   3.184   4.010  0.3539  0.6071  0.3625
  360SOL     OW 1211   6.066   3.440   3.172  0.8285 -0.2124 -0.1224
  360SOL    HW2 1212   6.127   3.449   3.099 -1.0432 -0.9976 -1.8935
  360SOL    HW3 1213   6.075   3.349   3.201  2.7268  0.5066  1.8136
  360SOL    MW4 1214   6.075   3.429   3.166  0.4797  0.0559  0.0940
  361SOL     OW 1215   4.975   3.277   2.689 -0.0765 -0.1710 -0.0076
  361SOL    HW2 1216   5.066   3.302   2.705 -0.6287  0.5650  2.3308
  361SOL    HW3 1217   4.924   3.334   2.746 -2.1144  0.1019 -1.9652
  361SOL    MW4 1218   4.980   3.288   2.698 -0.2584  0.1917  0.2875
  362SOL     OW 1219   2.457   2.750   4.803  1.0335  0.0177 -0.0802
  362SOL    HW2 1220   2.436   2.658   4.817  0.1463  0.2774  0.4090
  362SOL    HW3 1221   2.390   2.781   4.743  1.5944  0.2422 -0.5996
  362SOL    MW4 1222   2.445   2.742   4.797  0.6015  0.0182  0.2966
  363SOL     OW 1223   6.198   1.479   1.270 -0.1180  0.0422 -0.3284
  363SOL    HW2 1224   6.274   1.487   1.213 -1.1413 -0.0938 -1.7770
  363SOL    HW3 1225   6.199   1.558   1.324  1.0381  0.0280 -0.3182
  363SOL    MW4 1226   6.208   1.491   1.270 -0.2029  0.0074 -0.3747
  364SOL     OW 1227   5.641   2.559   6.372  0.1389 -0.1662  0.2296
  364SOL    HW2 1228   5.689   2.522   6.446  0.2450  0.6722  0.5928
  364SOL    HW3 1229   5.567   2.605   6.412  0.0017  0.0015 -0.2075
  364SOL    MW4 1230   5.638   2.561   6.387  0.3235 -0.5333 -0.1516
  365SOL     OW 1231   4.112   0.779   0.074  0.0195  0.4248 -0.0844
  365SOL    HW2 1232   4.031   0.827   0.058  0.7971  1.5602 -0.7308
  365SOL    HW3 1233   4.120   0.778   0.170 -0.9716 -0.1026  0.0114
  365SOL    MW4 1234   4.102   0.785   0.085 -0.3238  0.9923  0.0266
  366SOL     OW 1235   5.781   0.739   5.099  0.4548  0.2921  0.2119
  366SOL    HW2 1236   5.730   0.681   5.043  1.5470 -2.7364  2.1136
  366SOL    HW3 1237   5.867   0.743   5.056 -0.0121  1.8004 -0.6697
  366SOL    MW4 1238   5.786   0.732   5.086 -0.5447  0.0431  0.3559
  367SOL     OW 1239   1.635   0.803   5.460  0.1258  0.2357  0.1633
  367SOL    HW2 1240   1.668   0.754   5.384 -2.9688 -0.3611 -0.9455
  367SOL    HW3 1241   1.595   0.881   5.423 -2.1351 -0.4389  0.9948
  367SOL    MW4 1242   1.634   0.807   5.445 -0.5463  0.4514  0.3219
  368SOL     OW 1243   1.995   0.051   3.904  0.3039  0.2809  0.6398
  368SOL    HW2 1244   2.078   0.060   3.857 -0.0569  0.6392  0.0487
  368SOL    HW3 1245   1.958   0.139   3.904 -1.6331 -0.3978 -2.0869
  368SOL    MW4 1246   2.001   0.064   3.898 -0.5392 -0.1297  0.2721
  369SOL     OW 1247   1.711   1.636   1.710 -0.3708 -0.2912  0.8382
  369SOL    HW2 1248   1.705   1.644   1.805 -0.9244 -0.9184  0.8621
  369SOL    HW3 1249   1.681   1.548   1.691  0.3812 -0.4044  0.1260
  369SOL    MW4 1250   1.706   1.626   1.720  0.4213 -0.4172 -0.0850
  370SOL     OW 1251   4.303   0.169   4.166  0.0896 -0.2310  0.4803
  370SOL    HW2 1252   4.395   0.148   4.177  0.3433  1.2120  1.3810
  370SOL    HW3 1253   4.290   0.250   4.215 -1.7278 -0.5495  0.6299
  370SOL    MW4 1254   4.313   0.177   4.173 -0.3606  0.0207 -0.2549
  371SOL     OW 1255   5.311   5.462   1.381 -0.1082 -0.1999 -0.1070
  371SOL    HW2 1256   5.366   5.522   1.431 -3.1663  0.8064  2.3731
  371SOL    HW3 1257   5.258   5.519   1.325  0.9946 -1.1250 -2.2327
  371SOL    MW4 1258   5.311   5.478   1.380 -0.5777  0.0192  0.5521
  372SOL     OW 1259   1.167   5.386   4.552  0.3399 -0.0310  0.2849
  372SOL    HW2 1260   1.112   5.331   4.497  0.9278  0.9776 -1.3585
  372SOL    HW3 1261   1.141   5.363   4.642 -0.7799 -1.5552 -0.3850
  372SOL    MW4 1262   1.156   5.376   4.557 -0.1351 -0.0931  0.1614
  373SOL     OW 1263   1.307   1.003   2.456  0.3818 -0.2281  0.2871
  373SOL    HW2 1264   1.271   0.917   2.478  1.6290 -0.7896  0.2056
  373SOL    HW3 1265   1.290   1.057   2.533  1.0120 -1.0044  0.9872
  373SOL    MW4 1266   1.300   0.999   2.469 -0.2971 -0.0772  0.0014
  374SOL     OW 1267   0.006   2.752   4.195 -0.6009  0.1161  0.4861
  374SOL    HW2 1268  -0.076   2.801   4.195  0.3264  1.7781 -0.2864
  374SOL    HW3 1269  -0.018   2.663   4.169 -2.2256  0.3812  0.9734
  374SOL    MW4 1270  -0.008   2.747   4.192 -0.8074 -0.3817 -0.2789
  375SOL     OW 1271   4.681   0.441   1.327 -0.3098 -0.0892 -0.0454
  375SOL    HW2 1272   4.774   0.422   1.316 -0.7984 -1.7099 -1.8760
  375SOL    HW3 1273   4.637   0.359   1.307 -2.1650  0.7335  0.4590
  375SOL    MW4 1274   4.688   0.428   1.323  0.5328  0.9088  0.4272
  376SOL     OW 1275   1.242   3.777   3.029 -0.2040  0.3650  0.1325
  376SOL    HW2 1276   1.281   3.691   3.044 -0.9838 -0.0240  0.0040
  376SOL    HW3 1277   1.154   3.770   3.068  0.1906  1.5427  1.3266
  376SOL    MW4 1278   1.236   3.764   3.036  0.3059 -0.5084  0.1376
  377SOL     OW 1279   0.568   5.167   5.005  0.5168  0.2748  0.0245
  377SOL    HW2 1280   0.658   5.174   4.973 -0.8672  0.9609 -4.3888
  377SOL    HW3 1281   0.563   5.079   5.042  2.6010 -0.3991 -1.1060
  377SOL    MW4 1282   0.579   5.156   5.006  0.5400 -0.1961  0.3247
  378SOL     OW 1283   0.523   0.641   5.455  0.1060  0.5180  0.0489
  378SOL    HW2 1284   0.468   0.570   5.422  0.1907  0.8395 -0.8195
  378SOL    HW3 1285   0.566   0.676   5.377  2.3285 -0.3659  0.7944
  378SOL    MW4 1286   0.521   0.636   5.440 -0.7144 -0.0081  0.4268
  379SOL     OW 1287   2.672   2.965   2.503  0.1303  0.5997  0.2929
  379SOL    HW2 1288   2.647   3.037   2.445 -0.0779  0.6860  0.4867
  379SOL    HW3 1289   2.767   2.958   2.493 -0.0968 -0.5758 -1.4346
  379SOL    MW4 1290   2.681   2.974   2.494 -0.4024  0.1397  0.2292
  380SOL     OW 1291   1.631   3.328   0.843 -0.9562 -0.7218 -0.8203
  380SOL    HW2 1292   1.717   3.349   0.881 -0.8401  0.9797 -1.9449
  380SOL    HW3 1293   1.652   3.294   0.756 -1.4173 -0.1596 -1.1561
  380SOL    MW4 1294   1.645   3.326   0.837  0.2866  0.8547  0.3368
  381SOL     OW 1295   6.419   4.792   2.684  0.5962 -0.7701  0.1535
  381SOL    HW2 1296   6.469   4.747   2.615  3.1671  1.9559  0.0368
  381SOL    HW3 1297   6.486   4.825   2.744 -1.3682  0.0367  2.0430
  381SOL    MW4 1298   6.435   4.790   2.683 -0.0608  0.0063  0.3682
  382SOL     OW 1299   2.649   1.927   4.491  0.0343 -0.6273 -0.2573
  382SOL    HW2 1300   2.561   1.890   4.498 -1.1972  1.7498 -1.7245
  382SOL    HW3 1301   2.644   2.010   4.538 -0.2413  2.1147 -4.5544
  382SOL    MW4 1302   2.637   1.933   4.498 -0.9169 -0.0454 -0.0932
  383SOL     OW 1303   4.380   0.637   4.875 -0.2823  0.2702  0.2265
  383SOL    HW2 1304   4.288   0.652   4.854  0.3110  1.6560 -1.6998
  383SOL    HW3 1305   4.426   0.712   4.837  1.5790  0.0056  1.8103
  383SOL    MW4 1306   4.374   0.649   4.867 -0.2653 -0.0385  0.4104
  384SOL     OW 1307   2.079   0.323   1.068  0.5916 -0.2757  0.1278
  384SOL    HW2 1308   2.169   0.355   1.076  1.2061 -1.7646 -0.5083
  384SOL    HW3 1309   2.083   0.232   1.096 -0.1573 -1.1591 -2.3747
  384SOL    MW4 1310   2.091   0.315   1.073  0.3239  0.2644 -0.2145
  385SOL     OW 1311   3.808   3.626   1.532  0.3734  0.1813  0.6201
  385SOL    HW2 1312   3.828   3.715   1.500 -0.2826 -0.0803 -0.5796
  385SOL    HW3 1313   3.799   3.636   1.627  0.4872  1.3654  0.5248
  385SOL    MW4 1314   3.810   3.639   1.540  0.6855 -0.2786 -0.5382
  386SOL     OW 1315   4.959   2.405   5.807  0.4290  0.3740 -0.3805
  386SOL    HW2 1316   4.998   2.422   5.893  0.1970 -1.3003  0.1132
  386SOL    HW3 1317   4.999   2.469   5.749  0.1778  1.9235  1.0750
  386SOL    MW4 1318   4.970   2.415   5.811 -0.6694  0.1164  0.9997
  387SOL     OW 1319   1.143   2.286   1.789 -0.3268 -0.1108 -0.1253
  387SOL    HW2 1320   1.164   2.308   1.880 -1.6238 -1.4442  0.5537
  387SOL    HW3 1321   1.055   2.248   1.794  0.3769 -2.1041 -1.6399
  387SOL    MW4 1322   1.134   2.284   1.802 -0.3737 -0.3935  0.2042
  388SOL     OW 1323   2.335   3.567   1.934  0.5155 -0.4853 -0.4442
  388SOL    HW2 1324   2.334   3.592   2.026  1.0601  0.0467 -0.5709
  388SOL    HW3 1325   2.362   3.475   1.934 -0.5229 -0.7970 -0.0176
  388SOL    MW4 1326   2.339   3.558   1.946  0.0373 -0.3954 -0.4484
  389SOL     OW 1327   5.176   6.067   5.228  0.1640 -0.5358 -0.1521
  389SOL    HW2 1328   5.104   6.117   5.267 -0.2151 -0.9336 -0.3373
  389SOL    HW3 1329   5.243   6.133   5.209 -0.1220 -0.1721  0.0870
  389SOL    MW4 1330   5.176   6.082   5.230  0.3282  0.4417 -0.3971
  390SOL     OW 1331   3.137   0.781   3.673  0.4010  0.5838 -0.0431
  390SOL    HW2 1332   3.228   0.765   3.699  0.6531 -0.5163 -1.4677
  390SOL    HW3 1333   3.086   0.731   3.737  0.8800  0.0017 -0.0973
  390SOL    MW4 1334   3.143   0.772   3.685  0.6914  0.1259  0.4087
  391SOL     OW 1335   4.939   5.973   2.119  0.0266 -0.2376  0.2611
  391SOL    HW2 1336   4.956   6.059   2.082 -1.1545 -0.2829 -0.4322
  391SOL    HW3 1337   4.957   5.983   2.212 -1.4819  1.1839  0.4551
  391SOL    MW4 1338   4.943   5.986   2.126 -0.4268  0.5086  0.2367
  392SOL     OW 1339   4.770   1.864   2.528 -0.3212 -0.2276  0.2985
  392SOL    HW2 1340   4.744   1.800   2.594 -2.6641 -0.8753 -1.0991
  392SOL    HW3 1341   4.828   1.816   2.469 -0.5457 -0.5235  0.3160
  392SOL    MW4 1342   4.774   1.849   2.529  0.0961  0.0438  0.0014
  393SOL     OW 1343   5.417   5.367   1.953  0.9796 -0.5006 -0.3122
  393SOL    HW2 1344   5.331   5.352   1.911  1.1359 -1.9943 -0.1366
  393SOL    HW3 1345   5.395   5.400   2.040  0.6150  0.3398 -0.7063
  393SOL    MW4 1346   5.402   5.369   1.959  0.0525  0.0142 -0.2667
  394SOL     OW 1347   4.827   2.550   3.895  0.6753 -0.0470 -0.0877
  394SOL    HW2 1348   4.920   2.574   3.890  0.9254 -0.8149  0.6996
  394SOL    HW3 1349   4.781   2.632   3.876  1.5113  0.5336  0.2952
  394SOL    MW4 1350   4.833   2.564   3.892  0.0241 -0.2090 -0.2935
  395SOL     OW 1351   4.662   1.493   4.451  0.0279 -0.0505 -0.2645
  395SOL    HW2 1352   4.681   1.577   4.492 -0.3858 -0.2207  0.2915
  395SOL    HW3 1353   4.646   1.514   4.358  3.2477  0.0599 -0.8936
  395SOL    MW4 1354   4.662   1.507   4.444 -0.4431 -0.0991  0.1568
  396SOL     OW 1355   0.372   5.571   5.369 -0.0146  0.5323  0.5367
  396SOL    HW2 1356   0.397   5.657   5.335  0.9504  0.4003  0.8656
  396SOL    HW3 1357   0.438   5.553   5.437  0.7362 -1.1281 -0.5781
  396SOL    MW4 1358   0.384   5.580   5.374 -0.2518  0.5294 -0.3734
  397SOL     OW 1359   4.416   3.436   2.401  0.1400  0.1287  0.0489
  397SOL    HW2 1360   4.461   3.500   2.457  1.7336 -1.2111  0.3608
  397SOL    HW3 1361   4.332   3.478   2.381  1.4435  2.7265 -0.4942
  397SOL    MW4 1362   4.410   3.450   2.406 -0.3386  0.1631  0.1089
  398SOL     OW 1363   3.349   0.667   3.872 -0.7130 -0.6812 -0.2792
  398SOL    HW2 1364   3.444   0.659   3.876 -0.5891  0.9210  0.7391
  398SOL    HW3 1365   3.326   0.726   3.944 -2.5145 -1.2609 -0.3181
  398SOL    MW4 1366   3.358   0.674   3.882  0.3832 -0.1309 -0.5003
  399SOL     OW 1367  -0.003   6.145   5.401  0.6196 -0.2852  0.3770
  399SOL    HW2 1368  -0.084   6.115   5.443  0.6651 -3.8849 -1.6534
  399SOL    HW3 1369   0.065   6.132   5.467 -0.0848  0.0342  1.1792
  399SOL    MW4 1370  -0.005   6.139   5.415 -0.4710  0.4352  0.1565
  400SOL     OW 1371   1.501   2.965   2.452  0.3445  0.6306 -0.5462
  400SOL    HW2 1372   1.596   2.950   2.454  0.4219  0.0933 -3.3401
  400SOL    HW3 1373   1.463   2.877   2.459  0.2612  0.4151 -2.8058
  400SOL    MW4 1374   1.509   2.951   2.453  0.1475 -0.2848 -0.3561
  401SOL     OW 1375   1.828   4.088   0.876  0.7666 -0.1164 -0.2498
  401SOL    HW2 1376   1.896   4.022   0.863  1.8352  0.9718 -0.2983
  401SOL    HW3 1377   1.799   4.075   0.967 -0.3160 -1.7972 -0.7857
  401SOL    MW4 1378   1.833   4.078   0.887  0.4682 -0.2219 -0.0280
  402SOL     OW 1379   0.507   4.960   3.697 -0.3248 -0.2236  0.4090
  402SOL    HW2 1380   0.480   5.006   3.618  1.2105  0.5674  0.3049
  402SOL    HW3 1381   0.591   5.000   3.721  0.0399 -1.5622  1.5149
  402SOL    MW4 1382   0.514   4.972   3.690 -0.1729  0.2608 -0.4582
  403SOL     OW 1383   5.084   1.056   6.121  0.0331 -0.0731  0.1152
  403SOL    HW2 1384   5.140   0.986   6.154  0.7100  0.2620 -0.3016
  403SOL    HW3 1385   5.140   1.105   6.060 -0.4065  0.8643  0.4433
  403SOL    MW4 1386   5.099   1.053   6.117  0.2119 -0.2415  0.3448
  404SOL     OW 1387   5.426   3.038   3.781 -0.2213 -0.0063  0.1654
  404SOL    HW2 1388   5.418   3.065   3.689  0.1751  0.2411  0.1997
  404SOL    HW3 1389   5.342   3.061   3.820  0.3148  1.8519  0.3584
  404SOL    MW4 1390   5.414   3.045   3.774 -0.3054  0.7321 -0.7744
  405SOL     OW 1391   3.847   5.812   2.392  0.1539  0.1805 -0.1420
  405SOL    HW2 1392   3.894   5.739   2.352 -1.4406 -0.7375 -0.4353
  405SOL    HW3 1393   3.904   5.888   2.379  0.7114 -0.5155 -2.1420
  405SOL    MW4 1394   3.861   5.812   2.385  0.1092  0.5847 -0.8337
  406SOL     OW 1395   4.760   1.407   3.964 -0.3612 -0.5303 -0.1071
  406SOL    HW2 1396   4.710   1.335   4.003 -1.3606 -0.0231 -0.4273
  406SOL    HW3 1397   4.701   1.445   3.899  0.1193  0.6259  0.1067
  406SOL    MW4 1398   4.746   1.402   3.961  0.0355 -0.1394  0.5174
  407SOL     OW 1399   2.891   3.497   0.398  0.3822  0.3690 -0.6483
  407SOL    HW2 1400   2.986   3.496   0.386  0.3505  2.0572 -1.4427
  407SOL    HW3 1401   2.873   3.583   0.438 -0.8080  0.1181 -0.6061
  407SOL    MW4 1402   2.901   3.508   0.401 -0.4205 -0.4650  0.3431
  408SOL     OW 1403   0.534   0.333   2.937  0.0747  0.1922 -0.4378
  408SOL    HW2 1404   0.478   0.401   2.899  0.3791  0.2149 -0.8631
  408SOL    HW3 1405   0.525   0.258   2.878 -0.5871 -0.2888  0.2625
  408SOL    MW4 1406   0.526   0.332   2.924 -0.0506  0.0166  0.1250
  409SOL     OW 1407   4.523   3.978   2.110 -0.6792  0.3077  0.3132
  409SOL    HW2 1408   4.592   4.041   2.131 -1.0550  1.3652 -1.4417
  409SOL    HW3 1409   4.443   4.030   2.105 -0.9543 -0.2188 -1.4403
  409SOL    MW4 1410   4.521   3.993   2.112  0.3333  0.1110 -0.5324
  410SOL     OW 1411   5.300   2.542   0.642 -0.4334  0.2824 -0.0955
  410SOL    HW2 1412   5.207   2.522   0.653  0.2330 -1.8934  2.8783
  410SOL    HW3 1413   5.320   2.512   0.553 -2.2987 -0.3411 -0.3589
  410SOL    MW4 1414   5.290   2.535   0.632 -0.8182  0.1219  0.0198
  411SOL     OW 1415   1.825   5.653   4.649  0.4947 -0.4283  0.3673
  411SOL    HW2 1416   1.748   5.610   4.686 -1.1703  2.7281  0.8454
  411SOL    HW3 1417   1.894   5.635   4.713 -0.5499 -0.9526  1.3909
  411SOL    MW4 1418   1.824   5.645   4.663 -0.1238  0.2049 -0.3005
  412SOL     OW 1419   0.146   5.720   2.802  0.0791  0.0566  0.2587
  412SOL    HW2 1420   0.208   5.657   2.763  0.3493  0.9773 -0.8738
  412SOL    HW3 1421   0.195   5.761   2.873  0.5423  0.2821 -0.1846
  412SOL    MW4 1422   0.161   5.717   2.806  0.5949  0.2816 -0.0897
  413SOL     OW 1423   5.430   4.721   0.522  0.3996 -0.8377  0.1547
  413SOL    HW2 1424   5.357   4.661   0.508 -1.1392  1.3579 -2.2419
  413SOL    HW3 1425   5.395   4.788   0.580  1.1677 -0.7515  0.5292
  413SOL    MW4 1426   5.416   4.722   0.527  0.5956 -0.2191 -0.4689
  414SOL     OW 1427   2.328   4.397   2.150  0.3660 -0.0644 -0.3132
  414SOL    HW2 1428   2.328   4.325   2.087  0.4136 -0.7769  0.4842
  414SOL    HW3 1429   2.371   4.362   2.228 -0.6525  0.4424  0.5077
  414SOL    MW4 1430   2.333   4.383   2.152 -0.1228  0.2199 -0.1061
  415SOL     OW 1431   5.482   4.205   1.277  0.4540 -0.3603  0.5222
  415SOL    HW2 1432   5.557   4.221   1.220  0.9074 -0.3946  1.1018
  415SOL    HW3 1433   5.450   4.292   1.299  1.0681 -0.2992  1.2363
  415SOL    MW4 1434   5.488   4.219   1.272  0.4355  0.3172  0.2703
  416SOL     OW 1435   5.412   2.116   0.976  0.3618 -0.4538  0.1007
  416SOL    HW2 1436   5.431   2.196   0.928  0.6941 -2.0040 -2.4954
  416SOL    HW3 1437   5.322   2.128   1.008  1.1092  1.7468  1.6352
  416SOL    MW4 1438   5.402   2.128   0.974  0.3600 -0.8210  0.0023
  417SOL     OW 1439   3.287   2.131   3.630  0.1553 -0.0054  0.2339
  417SOL    HW2 1440   3.207   2.170   3.665 -0.9147 -1.1188 -0.8741
  417SOL    HW3 1441   3.343   2.120   3.706 -2.5106 -3.3889  1.9770
  417SOL    MW4 1442   3.284   2.135   3.645  0.1323 -0.1944 -0.3867
  418SOL     OW 1443   3.404   2.643   0.605 -0.1111 -0.0666  0.1877
  418SOL    HW2 1444   3.385   2.688   0.523  0.0617 -0.2612  0.0391
  418SOL    HW3 1445   3.327   2.659   0.660  1.0373  2.6818  1.1647
  418SOL    MW4 1446   3.391   2.651   0.601  0.2677 -0.0869 -0.0493
  419SOL     OW 1447   5.393   6.407   4.956  0.0983  0.0385  0.1643
  419SOL    HW2 1448   5.357   6.465   4.888  0.3553  1.1250  0.9157
  419SOL    HW3 1449   5.474   6.450   4.983 -0.8682  0.6555  2.4022
  419SOL    MW4 1450   5.399   6.420   4.951  0.4058 -0.2971  0.2800
  420SOL     OW 1451   3.588   6.132   1.896  0.0651  0.8727  0.1271
  420SOL    HW2 1452   3.587   6.228   1.887  1.5133  0.9760  0.7694
  420SOL    HW3 1453   3.663   6.104   1.843 -0.9236 -0.0196 -0.8352
  420SOL    MW4 1454   3.598   6.141   1.888 -0.0775  0.3229 -0.0882
  421SOL     OW 1455   3.066   3.551   6.061  0.4791  0.1384  0.2866
  421SOL    HW2 1456   3.028   3.583   6.143 -0.0578  1.0764 -0.3143
  421SOL    HW3 1457   3.043   3.617   5.996  0.7668 -0.6650 -0.6649
  421SOL    MW4 1458   3.058   3.564   6.063  0.0491  0.1556 -0.3806
  422SOL     OW 1459   5.079   1.628   3.131  0.3818  0.7839  0.0157
  422SOL    HW2 1460   5.081   1.600   3.222 -3.3375 -0.8754 -0.2456
  422SOL    HW3 1461   5.061   1.548   3.081  0.6761  1.9000 -2.0223
  422SOL    MW4 1462   5.077   1.614   3.136  0.1458  0.3796 -0.4113
  423SOL     OW 1463   3.443   1.999   3.408 -0.0387 -0.0022  0.2754
  423SOL    HW2 1464   3.398   1.941   3.347 -0.8506 -0.0215  0.8698
  423SOL    HW3 1465   3.374   2.055   3.443  0.6719  1.1135 -0.0435
  423SOL    MW4 1466   3.428   1.999   3.405  0.9001 -0.2377  0.0762
  424SOL     OW 1467   1.415   1.708   1.294 -0.3929 -0.5434  0.0568
  424SOL    HW2 1468   1.424   1.719   1.389  0.2244 -0.2360 -0.0308
  424SOL    HW3 1469   1.504   1.695   1.263 -0.5166  0.0461 -0.5686
  424SOL    MW4 1470   1.428   1.708   1.303 -0.0069 -0.3237 -0.1255
  425SOL     OW 1471   5.104   1.383   5.778 -0.0249 -0.0470  0.0051
  425SOL    HW2 1472   5.096   1.474   5.805 -0.3999  1.0030 -3.1755
  425SOL    HW3 1473   5.026   1.367   5.725  0.8961 -1.6199 -0.9482
  425SOL    MW4 1474   5.093   1.393   5.774  0.6023 -0.7490 -0.2986
  426SOL     OW 1475   5.129   4.721   1.341 -0.4737 -0.1313  0.5351
  426SOL    HW2 1476   5.122   4.641   1.394  0.1211  0.1390  1.0253
  426SOL    HW3 1477   5.215   4.757   1.362 -0.0586 -0.2151 -0.9010
  426SOL    MW4 1478   5.139   4.715   1.350  0.0668 -0.5189  0.0716
  427SOL     OW 1479   0.114   2.354   0.843 -0.2532 -0.5184  0.3335
  427SOL    HW2 1480   0.209   2.344   0.836 -0.2386 -0.1959  0.0755
  427SOL    HW3 1481   0.100   2.448   0.850 -0.4086 -0.6537  2.4428
  427SOL    MW4 1482   0.125   2.365   0.843 -0.0453 -0.5275 -0.2831
  428SOL     OW 1483   3.712   6.278   6.006  0.4710  0.2395  0.3726
  428SOL    HW2 1484   3.623   6.245   5.992  0.0800  1.1611  0.5398
  428SOL    HW3 1485   3.760   6.254   5.927 -0.1060  0.2617  0.0093
  428SOL    MW4 1486   3.707   6.271   5.994  0.1639 -0.1532  0.6565
  429SOL     OW 1487   3.428   4.454   1.061  0.4542 -0.1809 -0.2299
  429SOL    HW2 1488   3.455   4.538   1.022  0.5608 -1.1563 -2.3908
  429SOL    HW3 1489   3.348   4.474   1.108  0.2565  1.0829 -1.0492
  429SOL    MW4 1490   3.421   4.468   1.062  0.2187 -0.1556 -0.0816
  430SOL     OW 1491   5.961   0.870   6.348  0.0134  0.3730 -0.0562
  430SOL    HW2 1492   5.868   0.861   6.327 -0.1079  1.1776  0.1153
  430SOL    HW3 1493   5.981   0.962   6.330  1.0179 -0.0056 -1.0437
  430SOL    MW4 1494   5.951   0.881   6.343 -0.1569 -0.3436 -0.0238
  431SOL     OW 1495   2.716   4.138   2.663 -0.1170 -0.2716 -0.2610
  431SOL    HW2 1496   2.736   4.072   2.596 -0.6025 -0.1407 -0.5406
  431SOL    HW3 1497   2.786   4.129   2.727  0.4858 -0.2516 -0.9015
  431SOL    MW4 1498   2.728   4.128   2.663  0.0687 -0.4866 -0.4025
  432SOL     OW 1499   2.136   2.194   0.761 -0.6038 -0.2301  0.0201
  432SOL    HW2 1500   2.066   2.210   0.824 -0.7464  3.4164 -0.8815
  432SOL    HW3 1501   2.095   2.142   0.692 -1.6284 -0.4911  0.8102
  432SOL    MW4 1502   2.122   2.189   0.760 -0.0987  0.3494 -0.0875
  433SOL     OW 1503   3.461   3.126   5.296 -0.0688 -0.1190 -0.4404
  433SOL    HW2 1504   3.450   3.053   5.357 -1.9204 -0.2336 -0.8369
  433SOL    HW3 1505   3.516   3.188   5.343  0.5978 -1.2751  0.3536
  433SOL    MW4 1506   3.467   3.125   5.310 -0.4687 -0.0505 -0.7235
  434SOL     OW 1507   3.686   4.458   5.868 -0.1332  0.1161 -0.3236
  434SOL    HW2 1508   3.748   4.505   5.813  0.8265 -3.2730 -2.3956
  434SOL    HW3 1509   3.740   4.418   5.936 -0.4996 -0.3261 -0.2868
  434SOL    MW4 1510   3.701   4.459   5.870  0.2384  0.1973 -0.1465
  435SOL     OW 1511   6.381   4.332   6.400 -0.1360 -0.4141  0.5521
  435SOL    HW2 1512   6.290   4.360   6.410  0.2687  2.6080 -2.3758
  435SOL    HW3 1513   6.432   4.398   6.447  0.6153 -1.1138  0.7475
  435SOL    MW4 1514   6.376   4.344   6.407  0.1759  0.5358  0.5190
  436SOL     OW 1515   5.249   4.602   4.123 -0.3645 -0.0542  0.5301
  436SOL    HW2 1516   5.246   4.526   4.064  1.8158  1.7028 -2.0769
  436SOL    HW3 1517   5.338   4.635   4.115 -1.0481  2.4158  2.0958
  436SOL    MW4 1518   5.260   4.596   4.114  0.1098 -0.3752  0.2301
  437SOL     OW 1519   3.931   3.053   5.118  0.0250  0.1998 -0.5451
  437SOL    HW2 1520   3.914   3.010   5.034  0.3253  0.2262 -0.6178
  437SOL    HW3 1521   4.025   3.071   5.118  0.8863 -3.4123  1.4993
  437SOL    MW4 1522   3.941   3.050   5.107 -0.2121 -0.1883  0.0173
  438SOL     OW 1523   1.748   3.858   2.741  0.5587  0.2425  0.1829
  438SOL    HW2 1524   1.721   3.768   2.723  0.2967  0.2367  0.5827
  438SOL    HW3 1525   1.798   3.884   2.664 -0.9297  0.4034 -0.7664
  438SOL    MW4 1526   1.751   3.849   2.729 -0.1136  0.2316  0.2824
  439SOL     OW 1527   3.779   1.669   3.717  0.2249  0.1439 -0.3823
  439SOL    HW2 1528   3.834   1.593   3.731  0.0666 -0.0101 -0.5856
  439SOL    HW3 1529   3.828   1.724   3.657  0.7962  0.6896  0.5614
  439SOL    MW4 1530   3.792   1.666   3.711  0.5685  0.0234  0.2587
  440SOL     OW 1531   1.783   2.313   0.503  0.4580 -0.2428  0.1076
  440SOL    HW2 1532   1.839   2.238   0.524  1.5924  1.4464  4.0995
  440SOL    HW3 1533   1.843   2.387   0.498 -1.0287  1.0924  1.0990
  440SOL    MW4 1534   1.798   2.313   0.505  0.5969  0.0712 -0.1520
  441SOL     OW 1535   2.400   3.208   4.901  0.3869 -0.9056  0.5602
  441SOL    HW2 1536   2.434   3.188   4.988  1.9171 -0.7292  0.0275
  441SOL    HW3 1537   2.451   3.153   4.842 -1.7473 -2.2732 -0.1280
  441SOL    MW4 1538   2.411   3.198   4.905  0.2694 -0.4440 -0.1000
  442SOL     OW 1539   6.417   1.485   5.151  0.3234 -0.5231 -0.3539
  442SOL    HW2 1540   6.407   1.446   5.238 -1.1325  0.2617 -0.1423
  442SOL    HW3 1541   6.405   1.579   5.165 -0.3372 -0.4270 -1.4626
  442SOL    MW4 1542   6.414   1.492   5.165  0.8005  0.0803 -0.2492
  443SOL     OW 1543   5.631   0.155   2.006 -0.1087  0.3964 -0.1713
  443SOL    HW2 1544   5.677   0.072   1.992 -0.8689 -0.0088 -0.3179
  443SOL    HW3 1545   5.678   0.196   2.079  0.8914  0.3061 -0.7361
  443SOL    MW4 1546   5.644   0.149   2.014  0.7240  0.1452  0.5989
  444SOL     OW 1547   0.920   5.190   4.152 -0.7332 -0.4257 -0.1056
  444SOL    HW2 1548   0.984   5.157   4.089  0.4783 -0.5057  1.1127
  444SOL    HW3 1549   0.849   5.125   4.149  0.0286 -1.2822 -0.2537
  444SOL    MW4 1550   0.919   5.177   4.143 -0.7855  0.3789  0.1800
  445SOL     OW 1551   3.452   5.560   3.365 -0.4191 -0.1045 -0.2454
  445SOL    HW2 1552   3.445   5.593   3.455  2.2174  0.0961 -0.0440
  445SOL    HW3 1553   3.431   5.635   3.310  0.2934  0.4589  0.2277
  445SOL    MW4 1554   3.448   5.574   3.370  0.3913 -0.2427  0.2749
  446SOL     OW 1555   4.646   3.596   0.503  0.0392  0.3396  0.5313
  446SOL    HW2 1556   4.593   3.673   0.482 -0.2212  0.0717  0.1915
  446SOL    HW3 1557   4.618   3.530   0.440  1.0066  0.2955  0.1345
  446SOL    MW4 1558   4.635   3.598   0.492 -0.8231  0.6526 -0.3352
  447SOL     OW 1559   0.831   1.611   4.520  0.8042 -0.2143  0.4512
  447SOL    HW2 1560   0.774   1.625   4.596 -1.4527  0.7851 -1.3034
  447SOL    HW3 1561   0.786   1.544   4.469 -0.1848  2.2399 -2.1511
  447SOL    MW4 1562   0.818   1.604   4.524 -0.0275  0.2176  0.1204
  448SOL     OW 1563   6.423   5.353   0.591 -0.1223  0.1455 -0.3414
  448SOL    HW2 1564   6.449   5.294   0.520 -0.4326 -1.1571  0.5961
  448SOL    HW3 1565   6.501   5.360   0.646 -0.8416 -1.6599  1.0386
  448SOL    MW4 1566   6.437   5.346   0.589 -0.0575  0.3918 -0.5142
  449SOL     OW 1567   6.410   0.289   1.355  0.3199  0.2196  0.5244
  449SOL    HW2 1568   6.392   0.260   1.266  0.1664 -0.2660  0.7104
  449SOL    HW3 1569   6.344   0.357   1.372 -0.4888 -0.5929  0.7194
  449SOL    MW4 1570   6.399   0.294   1.346  0.3061 -0.2748 -0.2921
  450SOL     OW 1571   1.651   0.115   6.118  0.2864 -0.1078 -0.0002
  450SOL    HW2 1572   1.661   0.102   6.024  2.1169  0.1864  0.1004
  450SOL    HW3 1573   1.585   0.052   6.145  0.0557 -0.4969 -1.4179
  450SOL    MW4 1574   1.644   0.105   6.109  0.2318  0.4814 -0.3916
  451SOL     OW 1575   0.611   3.170   0.288 -0.2050  0.2615  0.6534
  451SOL    HW2 1576   0.687   3.216   0.322  0.3333 -0.8693  1.0362
  451SOL    HW3 1577   0.643   3.124   0.210 -0.8266  0.8274  0.0401
  451SOL    MW4 1578   0.625   3.170   0.282  0.5161  0.4434 -0.0129
  452SOL     OW 1579   3.132   1.550   5.813 -0.0889  0.2211  0.3181
  452SOL    HW2 1580   3.219   1.589   5.812 -0.1541  0.3628 -0.5081
  452SOL    HW3 1581   3.092   1.579   5.731 -1.2793  0.9920  1.1325
  452SOL    MW4 1582   3.138   1.559   5.802 -0.7409  0.4375  0.3452
  453SOL     OW 1583   4.253   2.371   4.175 -0.7141  0.5789 -0.2946
  453SOL    HW2 1584   4.257   2.291   4.123 -2.3212 -0.0677  0.5122
  453SOL    HW3 1585   4.305   2.434   4.125  0.2633 -0.8373 -1.1419
  453SOL    MW4 1586   4.260   2.369   4.162 -0.3245 -0.0809  0.1906
  454SOL     OW 1587   5.224   2.780   4.744  0.1016  0.4021 -0.5900
  454SOL    HW2 1588   5.222   2.696   4.698 -1.4029  0.7024 -1.1098
  454SOL    HW3 1589   5.201   2.845   4.678  1.0594  1.2286 -0.1457
  454SOL    MW4 1590   5.221   2.777   4.729 -0.3668 -0.2123  0.2990
  455SOL     OW 1591   5.435   0.108   1.630  0.4227 -0.3265  0.1708
  455SOL    HW2 1592   5.376   0.068   1.566  1.3791 -1.2730 -0.1628
  455SOL    HW3 1593   5.393   0.092   1.714 -1.0292  1.2446 -0.2023
  455SOL    MW4 1594   5.422   0.101   1.633  0.6784  0.1408 -0.1896
  456SOL     OW 1595   5.794   0.059   3.886 -0.3935 -0.5409 -0.0839
  456SOL    HW2 1596   5.874   0.101   3.919  0.1918 -0.3508 -1.6373
  456SOL    HW3 1597   5.824   0.010   3.809 -1.7158 -0.8199 -0.4348
  456SOL    MW4 1598   5.809   0.058   3.880  0.0470  0.1207 -0.6473
  457SOL     OW 1599   3.405   1.454   2.859 -0.4060  0.1948 -0.0754
  457SOL    HW2 1600   3.342   1.400   2.908  0.0200 -0.7812 -0.5636
  457SOL    HW3 1601   3.353   1.524   2.822 -0.9008  0.4141  0.9878
  457SOL    MW4 1602   3.390   1.456   2.861 -0.2265 -0.7881  0.2217
  458SOL     OW 1603   5.141   6.007   4.453  0.0841 -0.2834  0.4583
  458SOL    HW2 1604   5.113   6.072   4.389  0.7351 -0.8650 -0.4406
  458SOL    HW3 1605   5.085   6.022   4.529  1.1758  2.2493  0.8361
  458SOL    MW4 1606   5.130   6.017   4.455  0.3523  0.0422 -0.4699
  459SOL     OW 1607   3.638   3.753   0.426  0.1658 -0.2857  0.0994
  459SOL    HW2 1608   3.679   3.667   0.424 -1.7762 -1.2707 -1.7519
  459SOL    HW3 1609   3.681   3.802   0.356 -0.3434 -0.6135 -0.4576
  459SOL    MW4 1610   3.649   3.748   0.416  0.3468 -0.0971 -0.6337
  460SOL     OW 1611   4.630   0.962   5.881  0.2451  0.4808 -0.2464
  460SOL    HW2 1612   4.634   0.878   5.834  2.6586  1.0540 -1.2456
  460SOL    HW3 1613   4.584   1.021   5.820 -0.8603  0.0731  0.1751
  460SOL    MW4 1614   4.624   0.959   5.867  0.4801 -0.4811  0.6759
  461SOL     OW 1615   1.021   5.241   2.305 -0.2411  0.2048 -0.2149
  461SOL    HW2 1616   1.114   5.262   2.305 -0.0721 -0.4514 -1.1345
  461SOL    HW3 1617   1.009   5.187   2.227 -1.2849 -0.2114  0.2146
  461SOL    MW4 1618   1.032   5.237   2.294 -0.4739  0.7797 -0.2532
  462SOL     OW 1619   5.878   5.994   0.271 -0.2485  0.2181  0.2332
  462SOL    HW2 1620   5.896   6.081   0.306  3.2537  0.2023 -1.1709
  462SOL    HW3 1621   5.835   6.011   0.187 -1.0780  0.4908  0.6994
  462SOL    MW4 1622   5.874   6.008   0.264 -0.0583  0.5327  0.2681
  463SOL     OW 1623   0.005   2.197   5.150  0.4196 -0.2871  0.4157
  463SOL    HW2 1624   0.044   2.213   5.064 -0.5769 -1.7855 -0.3545
  463SOL    HW3 1625  -0.042   2.278   5.171 -1.9390 -0.8996 -1.9374
  463SOL    MW4 1626   0.004   2.210   5.142 -0.1169  0.5855 -0.1757
  464SOL     OW 1627   4.670   6.360   3.169  0.8495 -0.2864 -0.7033
  464SOL    HW2 1628   4.734   6.290   3.163  1.1432 -0.2186  1.1874
  464SOL    HW3 1629   4.715   6.432   3.213 -0.6483 -0.4617  1.2549
  464SOL    MW4 1630   4.684   6.360   3.174  0.6451 -0.2123  0.3091
  465SOL     OW 1631   2.912   0.143   5.410  0.4240 -0.1611  0.0082
  465SOL    HW2 1632   2.833   0.110   5.367  0.7282  1.0881 -1.5864
  465SOL    HW3 1633   2.887   0.152   5.502 -1.9725  2.0812 -0.7499
  465SOL    MW4 1634   2.898   0.140   5.417  0.2765 -0.1017  0.3908
  466SOL     OW 1635   0.784   2.854   1.273  0.0497  0.2145  0.5260
  466SOL    HW2 1636   0.706   2.825   1.226 -0.0279  0.1158  0.7109
  466SOL    HW3 1637   0.839   2.775   1.278  1.8781  1.0585 -2.8471
  466SOL    MW4 1638   0.781   2.839   1.268 -0.5897 -0.4390 -0.2568
  467SOL     OW 1639   2.707   2.821   4.237  0.2181 -0.1226  0.0660
  467SOL    HW2 1640   2.770   2.876   4.190  0.0087 -0.7472 -0.9791
  467SOL    HW3 1641   2.714   2.849   4.328  3.0578 -1.0927  0.2715
  467SOL    MW4 1642   2.717   2.832   4.242 -0.2721  0.4733 -0.6046
  468SOL     OW 1643   5.220   1.453   4.483 -0.0837 -0.5516  0.2796
  468SOL    HW2 1644   5.213   1.358   4.472  0.7649 -0.5478 -0.3620
  468SOL    HW3 1645   5.251   1.465   4.572 -1.6384 -0.8059  0.8912
  468SOL    MW4 1646   5.223   1.442   4.493  0.0573 -0.0391  0.4027
  469SOL     OW 1647   1.242   2.329   0.717 -0.4518 -0.3700 -0.2361
  469SOL    HW2 1648   1.318   2.385   0.736 -1.9725  1.2554  1.6142
  469SOL    HW3 1649   1.221   2.347   0.626 -1.8245  3.5788  0.6186
  469SOL    MW4 1650   1.249   2.339   0.708 -0.2059 -0.4478 -0.3201
  470SOL     OW 1651   1.723   5.139   3.323 -0.6194 -0.2148 -0.2121
  470SOL    HW2 1652   1.744   5.224   3.285 -1.2890  0.3644  0.6708
  470SOL    HW3 1653   1.787   5.079   3.285 -0.0648  0.7003 -0.7572
  470SOL    MW4 1654   1.734   5.142   3.313  0.0009 -0.5555 -0.1344
  471SOL     OW 1655   1.653   5.570   5.900 -0.0505  0.1887 -0.3928
  471SOL    HW2 1656   1.573   5.545   5.948 -0.0593 -0.2089 -0.6083
  471SOL    HW3 1657   1.663   5.663   5.917  0.1150 -0.0052  0.6357
  471SOL    MW4 1658   1.643   5.579   5.909 -0.2594 -0.0827  0.2841
  472SOL     OW 1659   5.051   5.203   1.291 -0.0822 -0.1814  0.2957
  472SOL    HW2 1660   5.039   5.272   1.225  0.8586 -1.5697 -1.4057
  472SOL    HW3 1661   5.063   5.251   1.373  2.0140  1.8022 -1.0408
  472SOL    MW4 1662   5.051   5.219   1.293 -0.1052  0.2070  0.7854
  473SOL     OW 1663   2.561   3.114   1.167  0.0694  0.7348 -0.1336
  473SOL    HW2 1664   2.527   3.176   1.102 -0.8465 -1.0078 -1.4221
  473SOL    HW3 1665   2.653   3.104   1.144  0.1115  1.2793 -0.2127
  473SOL    MW4 1666   2.568   3.121   1.155 -0.0968 -0.3793 -0.5232
  474SOL     OW 1667   5.689   3.067   2.290 -0.0337 -0.4478  0.1018
  474SOL    HW2 1668   5.636   3.136   2.250 -0.3540 -1.1081 -0.6236
  474SOL    HW3 1669   5.741   3.113   2.356 -1.0875  0.3059  0.4445
  474SOL    MW4 1670   5.689   3.082   2.294  0.0624 -0.3499  0.3352
  475SOL     OW 1671   6.411   1.504   1.087  0.3631  0.1216  0.2191
  475SOL    HW2 1672   6.397   1.589   1.046  0.8384 -0.5516 -1.4144
  475SOL    HW3 1673   6.502   1.505   1.117  0.6796 -0.1617 -0.7062
  475SOL    MW4 1674   6.421   1.515   1.085 -0.6129 -0.4978  0.6356
  476SOL     OW 1675   1.465   4.005   2.974  0.0778  0.2221 -0.8914
  476SOL    HW2 1676   1.381   3.959   2.971  0.7753 -1.2284  0.3888
  476SOL    HW3 1677   1.459   4.061   3.052  1.0976 -1.6604  0.6252
  476SOL    MW4 1678   1.453   4.007   2.984  0.4140  0.3756  0.1541
  477SOL     OW 1679   5.025   3.740   3.163 -0.2940  0.1643  0.0715
  477SOL    HW2 1680   5.105   3.689   3.178  0.5356  1.6442  0.9411
  477SOL    HW3 1681   4.955   3.684   3.195  0.3502 -1.2741 -0.9384
  477SOL    MW4 1682   5.027   3.726   3.170 -0.0647 -0.0098  0.5518
  478SOL     OW 1683   3.414   3.447   1.185 -0.1624 -0.2750 -0.3945
  478SOL    HW2 1684   3.503   3.413   1.195  0.5418  1.8238  1.1264
  478SOL    HW3 1685   3.416   3.497   1.104 -0.8025 -2.4743 -1.8577
  478SOL    MW4 1686   3.426   3.449   1.176 -0.1663 -0.3778 -0.0513
  479SOL     OW 1687   0.613   2.606   4.277  0.2856  0.8551 -0.8519
  479SOL    HW2 1688   0.537   2.659   4.254 -1.4588 -1.4743 -0.8469
  479SOL    HW3 1689   0.604   2.589   4.371 -0.0771 -0.6498 -1.1261
  479SOL    MW4 1690   0.602   2.611   4.286  0.4509  0.0886  0.2612
  480SOL     OW 1691   4.161   6.397   4.748  0.3013  0.4826  0.4295
  480SOL    HW2 1692   4.077   6.444   4.739  1.1238  1.8112 -0.7646
  480SOL    HW3 1693   4.136   6.307   4.769 -1.5007  0.5328 -1.1848
  480SOL    MW4 1694   4.146   6.392   4.750 -0.1095  0.3643 -0.5269
  481SOL     OW 1695   0.817   2.390   3.295 -0.2516  0.3032 -0.3780
  481SOL    HW2 1696   0.738   2.348   3.261 -0.0561  1.0732 -1.8494
  481SOL    HW3 1697   0.806   2.387   3.391 -1.7945 -0.0890 -0.5332
  481SOL    MW4 1698   0.805   2.384   3.303 -0.4435 -0.3496  0.4229
  482SOL     OW 1699   5.953   5.903   6.371  0.2403 -0.0048  1.0740
  482SOL    HW2 1700   5.896   5.965   6.326 -0.9198 -2.4919 -1.1554
  482SOL    HW3 1701   6.041   5.920   6.336 -0.3508 -0.6825 -0.8066
  482SOL    MW4 1702   5.957   5.913   6.361  0.0505 -0.1674 -0.1720
  483SOL     OW 1703   4.767   5.333   5.677 -0.2784 -0.1926 -0.6376
  483SOL    HW2 1704   4.743   5.303   5.589 -1.4107 -0.7961 -0.1489
  483SOL    HW3 1705   4.685   5.329   5.726  0.5364 -0.8598  0.7210
  483SOL    MW4 1706   4.753   5.328   5.672 -0.2063 -0.0281  0.2129
  484SOL     OW 1707   4.397   0.744   3.156  0.4363 -0.3094 -0.5317
  484SOL    HW2 1708   4.342   0.676   3.194  0.5718 -1.0965 -1.6935
  484SOL    HW3 1709   4.350   0.826   3.173  0.1365 -0.7049  0.6362
  484SOL    MW4 1710   4.384   0.746   3.163  0.3489 -0.6244 -0.1997
  485SOL     OW 1711   4.766   0.524   6.090  0.0175  0.0231  0.6531
  485SOL    HW2 1712   4.814   0.565   6.018 -0.9287  0.9988  0.5612
  485SOL    HW3 1713   4.834   0.501   6.153  0.8512 -0.7641 -0.4935
  485SOL    MW4 1714   4.781   0.526   6.089 -0.1921 -0.4559  0.1073
  486SOL     OW 1715   3.017   1.461   2.170  0.3174 -0.2972  0.5657
  486SOL    HW2 1716   2.927   1.455   2.203  0.7068  0.6003  1.8699
  486SOL    HW3 1717   3.034   1.375   2.132 -1.4739 -0.1187 -0.7810
  486SOL    MW4 1718   3.007   1.449   2.169  0.4934 -0.1567 -0.1144
  487SOL     OW 1719   5.622   2.759   3.504  0.4223  0.3197 -0.4549
  487SOL    HW2 1720   5.601   2.706   3.581  1.2101  0.5319 -0.0874
  487SOL    HW3 1721   5.676   2.701   3.449 -1.1146 -0.2548 -1.4386
  487SOL    MW4 1722   5.626   2.744   3.507 -0.1799 -0.0611  0.0299
  488SOL     OW 1723   3.351   1.221   1.456  0.6770  0.3906 -0.7883
  488SOL    HW2 1724   3.379   1.163   1.385 -0.7842 -2.4423  0.7716
  488SOL    HW3 1725   3.280   1.173   1.500  0.3911  2.7411  1.5763
  488SOL    MW4 1726   3.345   1.207   1.452  0.1393  0.3952 -0.3048
  489SOL     OW 1727   1.900   5.388   2.042 -0.5053  0.0009 -0.4308
  489SOL    HW2 1728   1.809   5.367   2.020  0.2282 -1.7250 -2.2577
  489SOL    HW3 1729   1.938   5.417   1.959  1.3120 -2.2441 -0.4782
  489SOL    MW4 1730   1.893   5.389   2.028  0.0548 -0.1962 -0.1763
  490SOL     OW 1731   6.245   2.289   2.820  0.4100 -0.2972  0.1734
  490SOL    HW2 1732   6.189   2.224   2.777 -0.3294  0.9164 -0.7654
  490SOL    HW3 1733   6.334   2.264   2.795  0.2345 -1.5182  0.6630
  490SOL    MW4 1734   6.250   2.277   2.811 -0.2034  0.2938  0.0989
  491SOL     OW 1735   0.409   1.912   1.713  0.1971 -0.0161  0.2685
  491SOL    HW2 1736   0.428   1.818   1.719 -0.0381 -0.0503  0.5048
  491SOL    HW3 1737   0.375   1.923   1.624  1.9037  0.1595 -0.3943
  491SOL    MW4 1738   0.407   1.901   1.702 -0.0346 -0.0175 -0.6357
  492SOL     OW 1739   4.963   3.162   3.461  0.3263  0.2411 -0.2391
  492SOL    HW2 1740   5.046   3.119   3.441  0.0772 -0.8295  0.8936
  492SOL    HW3 1741   4.971   3.185   3.554 -1.3006 -1.4920  0.3851
  492SOL    MW4 1742   4.975   3.160   3.471  0.3310 -0.5239  0.6171
  493SOL     OW 1743   3.196   4.826   1.204  0.1820 -0.4601  0.5730
  493SOL    HW2 1744   3.231   4.909   1.236 -0.6789  0.0338  0.2954
  493SOL    HW3 1745   3.184   4.840   1.110  0.4894 -1.0760  0.4366
  493SOL    MW4 1746   3.199   4.839   1.196 -0.0634 -0.5704  0.2886
  494SOL     OW 1747   3.393   0.834   2.379  0.4562 -0.1203 -0.3511
  494SOL    HW2 1748   3.352   0.890   2.313  1.5908  0.0981 -0.8942
  494SOL    HW3 1749   3.322   0.813   2.440  0.0150  2.0404 -0.0356
  494SOL    MW4 1750   3.378   0.839   2.379  0.1257 -0.3100  0.3175
  495SOL     OW 1751   1.653   2.440   3.556  0.2761 -0.2720  0.2252
  495SOL    HW2 1752   1.604   2.506   3.604  0.4324  0.5746 -0.7371
  495SOL    HW3 1753   1.729   2.422   3.611  0.0432  0.0768  0.6659
  495SOL    MW4 1754   1.657   2.447   3.570 -0.4024 -0.1691  0.1234
  496SOL     OW 1755   0.545   3.460   4.711  0.3694 -0.0801  0.8047
  496SOL    HW2 1756   0.599   3.540   4.709 -0.1098  0.2771  1.5964
  496SOL    HW3 1757   0.594   3.397   4.660  0.0728  1.1478 -1.0922
  496SOL    MW4 1758   0.559   3.462   4.704 -0.3072 -0.3870 -0.1249
  497SOL     OW 1759   2.302   5.720   5.709 -0.2282 -0.2401  0.0545
  497SOL    HW2 1760   2.355   5.655   5.753  0.8913  1.6817  1.7192
  497SOL    HW3 1761   2.337   5.725   5.620  0.5022 -0.9962  0.2989
  497SOL    MW4 1762   2.313   5.712   5.703 -0.0519  0.0627 -0.0878
  498SOL     OW 1763   5.480   2.762   4.884 -0.4428 -0.5093 -0.2021
  498SOL    HW2 1764   5.519   2.847   4.905 -2.2212  0.2678  0.1186
  498SOL    HW3 1765   5.397   2.784   4.841 -2.4971 -1.9947  2.6953
  498SOL    MW4 1766   5.474   2.776   4.881 -0.3347 -0.4934  0.2145
  499SOL     OW 1767   3.225   6.164   0.200 -0.0884 -0.0260 -0.7716
  499SOL    HW2 1768   3.172   6.239   0.228  1.7359  0.7284  0.8740
  499SOL    HW3 1769   3.162   6.092   0.191 -1.4551  0.8922  0.8379
  499SOL    MW4 1770   3.210   6.164   0.203 -0.6775  0.3096 -0.1184
  500SOL     OW 1771   0.904   0.982   1.566 -0.1187  0.4106 -0.4111
  500SOL    HW2 1772   0.908   0.978   1.661 -1.7202 -0.0763 -0.3364
  500SOL    HW3 1773   0.982   0.936   1.536 -0.0174 -0.1321  0.6642
  500SOL    MW4 1774   0.915   0.976   1.574 -0.4805  0.3155  0.5715
  501SOL     OW 1775   6.239   2.558   6.172  0.9831  0.1141 -0.2183
  501SOL    HW2 1776   6.246   2.514   6.087  1.5446 -0.4483  0.1123
  501SOL    HW3 1777   6.178   2.504   6.222  1.4792 -0.1576  0.1012
  501SOL    MW4 1778   6.232   2.545   6.167 -0.3124 -0.2097  0.3719
  502SOL     OW 1779   1.266   4.006   5.424  0.1002 -0.2629 -0.0908
  502SOL    HW2 1780   1.191   3.970   5.378  0.4336 -1.4494  0.2577
  502SOL    HW3 1781   1.244   3.999   5.517  1.6572 -3.1545  0.1749
  502SOL    MW4 1782   1.253   4.000   5.430 -0.3242 -0.3514 -0.3309
  503SOL     OW 1783   5.798   3.212   2.504  0.0381  0.3192  0.1022
  503SOL    HW2 1784   5.842   3.191   2.586 -1.8672 -2.2673  0.5853
  503SOL    HW3 1785   5.705   3.218   2.527 -0.4499  0.5054 -1.7121
  503SOL    MW4 1786   5.792   3.210   2.518 -1.2682 -0.5758 -0.4675
  504SOL     OW 1787   2.300   5.801   1.788 -0.1465  0.1958 -0.2114
  504SOL    HW2 1788   2.215   5.826   1.752 -0.1464 -1.9281 -1.9130
  504SOL    HW3 1789   2.283   5.787   1.881 -0.6463  3.7398  0.3526
  504SOL    MW4 1790   2.286   5.802   1.796 -0.0561 -0.4116  0.1539
  505SOL     OW 1791   1.826   2.173   6.387 -0.2124 -0.0369  0.1263
  505SOL    HW2 1792   1.860   2.093   6.346 -0.3717 -0.2882  0.4862
  505SOL    HW3 1793   1.893   2.197   6.451 -0.5485 -0.3380  0.5914
  505SOL    MW4 1794   1.840   2.165   6.390 -0.3439 -0.1099  0.2270
  506SOL     OW 1795   0.191   3.870   0.742  0.4462  0.4663 -0.3647
  506SOL    HW2 1796   0.095   3.867   0.748  0.3844 -0.3695 -1.4587
  506SOL    HW3 1797   0.211   3.962   0.727 -0.2396  0.5471 -0.8272
  506SOL    MW4 1798   0.181   3.882   0.741 -0.4569 -0.1273  0.5059
  507SOL     OW 1799   6.313   4.184   4.121  0.5286  0.3540  0.8627
  507SOL    HW2 1800   6.225   4.151   4.139  0.6747 -0.8199 -0.4554
  507SOL    HW3 1801   6.365   4.106   4.101  1.1165  1.2696 -1.4058
  507SOL    MW4 1802   6.308   4.170   4.121 -0.6649  0.1345  0.8066
  508SOL     OW 1803   5.870   0.215   5.686 -0.1045  0.1396 -0.0597
  508SOL    HW2 1804   5.790   0.218   5.634 -0.3737  1.1874  0.3820
  508SOL    HW3 1805   5.894   0.307   5.698  1.8516 -0.1606 -1.2272
  508SOL    MW4 1806   5.863   0.228   5.681  0.1976  0.2192 -0.1159
  509SOL     OW 1807   2.989   0.193   4.741 -0.0094  0.1474 -0.0439
  509SOL    HW2 1808   2.987   0.098   4.736 -2.2829  0.1409 -0.0620
  509SOL    HW3 1809   3.005   0.221   4.651  1.8967 -0.1764  0.1522
  509SOL    MW4 1810   2.991   0.184   4.729  0.3293 -0.2198  0.9814
  510SOL     OW 1811   0.595   4.781   3.121 -0.3457 -0.5295  0.1832
  510SOL    HW2 1812   0.600   4.828   3.205 -1.6615 -0.8111  0.4425
  510SOL    HW3 1813   0.503   4.756   3.114 -0.2433 -0.5349 -1.3434
  510SOL    MW4 1814   0.583   4.784   3.132 -0.1482 -0.3104 -0.0003
  511SOL     OW 1815   2.176   6.279   0.116  0.0116 -0.2561  0.3850
  511SOL    HW2 1816   2.202   6.340   0.047  0.0901  1.9936  2.2746
  511SOL    HW3 1817   2.251   6.221   0.127  1.2461  1.3576  0.6719
  511SOL    MW4 1818   2.189   6.279   0.108 -0.3104 -0.4763 -0.2949
  512SOL     OW 1819   1.564   5.607   0.265  0.2021  0.0458 -0.1822
  512SOL    HW2 1820   1.659   5.600   0.260  0.2740  1.1287 -0.4649
  512SOL    HW3 1821   1.543   5.692   0.227 -0.8394  0.0460  0.3389
  512SOL    MW4 1822   1.574   5.617   0.260  0.4934 -0.0590 -0.3015
  513SOL     OW 1823   0.758   5.752   4.860 -0.2844 -0.4198  0.1990
  513SOL    HW2 1824   0.847   5.738   4.892 -0.7455 -1.0321  1.2789
  513SOL    HW3 1825   0.703   5.747   4.939 -1.5551 -2.6463 -0.7194
  513SOL    MW4 1826   0.762   5.750   4.875 -0.1794  0.1980  0.4660
  514SOL     OW 1827   2.454   0.517   4.671  0.1753 -0.1068  0.4162
  514SOL    HW2 1828   2.358   0.512   4.674  0.2048 -1.6898 -0.3037
  514SOL    HW3 1829   2.482   0.428   4.652  1.8284  0.2510  1.0148
  514SOL    MW4 1830   2.445   0.505   4.669 -0.4180 -0.3745 -0.2952
  515SOL     OW 1831   1.623   0.122   0.325 -0.2807  0.0566  0.1950
  515SOL    HW2 1832   1.567   0.044   0.323 -0.0265 -0.1177 -1.4889
  515SOL    HW3 1833   1.711   0.088   0.337  0.0500 -0.1151 -2.2440
  515SOL    MW4 1834   1.627   0.107   0.326 -0.1553 -0.9361  0.3545
  516SOL     OW 1835   2.159   2.583   0.139 -0.2396  0.4460  0.0506
  516SOL    HW2 1836   2.187   2.569   0.048  0.2502 -1.7763  0.4751
  516SOL    HW3 1837   2.073   2.623   0.132  0.2538  1.3190 -1.3730
  516SOL    MW4 1838   2.151   2.586   0.126  0.1844 -0.1340 -0.0155
  517SOL     OW 1839   2.452   3.634   1.116 -0.2553 -0.4907 -0.5613
  517SOL    HW2 1840   2.371   3.612   1.071 -0.7299  0.0762 -0.0093
  517SOL    HW3 1841   2.432   3.621   1.209 -0.2824  1.2759 -0.2777
  517SOL    MW4 1842   2.439   3.630   1.123  0.1897 -0.5133  0.5043
  518SOL     OW 1843   4.577   0.792   1.488 -0.2983 -0.4810  0.0297
  518SOL    HW2 1844   4.554   0.712   1.534 -0.7867 -0.6597 -0.5260
  518SOL    HW3 1845   4.650   0.828   1.539 -1.4335 -0.1701  1.5236
  518SOL    MW4 1846   4.584   0.786   1.501 -0.6657 -0.1884 -0.1069
  519SOL     OW 1847   3.204   0.373   4.154 -0.0472 -0.4052 -0.2397
  519SOL    HW2 1848   3.121   0.420   4.150 -0.7939 -1.7031 -0.7147
  519SOL    HW3 1849   3.265   0.426   4.103 -0.8230  0.1070 -0.6525
  519SOL    MW4 1850   3.201   0.386   4.147  0.1787 -0.3258  0.0078
  520SOL     OW 1851   1.789   5.682   4.381  0.0725  0.0558 -0.0601
  520SOL    HW2 1852   1.846   5.754   4.355  0.7541  0.0258  1.2829
  520SOL    HW3 1853   1.814   5.662   4.471 -0.0116 -1.9564 -0.4320
  520SOL    MW4 1854   1.800   5.689   4.389 -0.0447  0.0171 -0.4906
  521SOL     OW 1855   0.066   3.203   4.343  0.0249 -0.2549 -0.4990
  521SOL    HW2 1856   0.115   3.236   4.267  0.6433 -0.3085 -0.1324
  521SOL    HW3 1857   0.134   3.169   4.402 -0.5481 -1.7067 -0.6310
  521SOL    MW4 1858   0.081   3.203   4.341 -0.3924  0.3183  0.2057
  522SOL     OW 1859   4.598   6.391   6.380 -0.5027 -0.3329  0.3366
  522SOL    HW2 1860   4.523   6.442   6.350  1.0450  1.4032 -0.7960
  522SOL    HW3 1861   4.597   6.401   6.475 -0.6175  1.3340  0.1947
  522SOL    MW4 1862   4.588   6.399   6.389  0.2715  0.3009  0.7393
  523SOL     OW 1863   6.374   2.728   0.970  0.1110  0.5809  0.2222
  523SOL    HW2 1864   6.410   2.802   0.921 -0.8786  1.3357  0.6232
  523SOL    HW3 1865   6.303   2.696   0.915  0.5352 -0.0817  0.0507
  523SOL    MW4 1866   6.369   2.733   0.956  0.1261  0.0835 -0.4246
  524SOL     OW 1867   2.177   5.355   0.174 -0.4247  0.0146 -0.5568
  524SOL    HW2 1868   2.145   5.370   0.085 -0.6367 -0.5409 -0.5793
  524SOL    HW3 1869   2.166   5.439   0.218 -1.0433  0.0870 -0.8393
  524SOL    MW4 1870   2.171   5.368   0.168 -0.0390 -0.1513 -0.2971
  525SOL     OW 1871   0.062   1.777   5.461  0.1988 -0.0683  0.2948
  525SOL    HW2 1872   0.105   1.855   5.495  0.1191  0.3226 -0.4912
  525SOL    HW3 1873  -0.000   1.752   5.530 -0.8228  1.4083 -0.0324
  525SOL    MW4 1874   0.059   1.784   5.475  0.2850  0.3314  0.1517
  526SOL     OW 1875   1.517   1.347   2.576  0.3252 -0.1660  0.2774
  526SOL    HW2 1876   1.527   1.330   2.483  0.9537 -1.4519  0.5497
  526SOL    HW3 1877   1.462   1.425   2.581 -0.2773 -0.4725 -1.1524
  526SOL    MW4 1878   1.511   1.355   2.565 -0.1268 -0.3358  0.4248
  527SOL     OW 1879   5.944   4.985   5.129  0.1846  0.0954  0.0197
  527SOL    HW2 1880   5.876   4.975   5.062 -0.0984 -2.2218  0.5513
  527SOL    HW3 1881   5.900   5.028   5.202 -0.1068  0.5788 -0.4304
  527SOL    MW4 1882   5.929   4.989   5.130 -0.5262  0.1626 -0.0603
  528SOL     OW 1883   1.381   3.687   4.757 -0.3966 -0.1722 -0.4726
  528SOL    HW2 1884   1.346   3.664   4.671 -0.2128  1.7418 -1.1100
  528SOL    HW3 1885   1.469   3.650   4.758 -0.9317 -1.4930 -0.4913
  528SOL    MW4 1886   1.388   3.679   4.746 -0.1341  0.2254  0.1366
  529SOL     OW 1887   0.053   3.653   4.655 -0.0649 -0.2442 -0.2243
  529SOL    HW2 1888  -0.011   3.586   4.630 -0.2593  0.0567 -0.5547
  529SOL    HW3 1889   0.117   3.653   4.583  0.5414 -0.8336  0.3063
  529SOL    MW4 1890   0.053   3.644   4.642 -0.4748 -0.1931 -0.2403
  530SOL     OW 1891   4.036   1.902   2.478  0.3538  0.2211  0.3528
  530SOL    HW2 1892   4.105   1.956   2.439 -0.7130  1.9318  0.7004
  530SOL    HW3 1893   3.955   1.943   2.449 -0.5531 -1.8118 -0.1234
  530SOL    MW4 1894   4.035   1.915   2.469 -0.3246 -0.0500 -0.0088
  531SOL     OW 1895   4.417   3.858   2.344 -0.4822 -0.4788  0.5304
  531SOL    HW2 1896   4.458   3.859   2.257  2.4252  0.1481  1.7941
  531SOL    HW3 1897   4.459   3.786   2.390 -0.6828  0.2892  1.9772
  531SOL    MW4 1898   4.428   3.849   2.338  0.0066 -0.2732 -0.2510
  532SOL     OW 1899   1.783   5.795   1.754  0.1818 -0.0982  0.0872
  532SOL    HW2 1900   1.822   5.749   1.679 -1.6802 -0.0142 -0.9698
  532SOL    HW3 1901   1.694   5.761   1.760 -0.2456  1.1270  1.2330
  532SOL    MW4 1902   1.777   5.784   1.745  0.5188  0.4283 -0.3599
  533SOL     OW 1903   6.426   3.878   5.497  0.4548 -0.2165 -0.1773
  533SOL    HW2 1904   6.359   3.820   5.533 -0.1536  0.6279  0.0638
  533SOL    HW3 1905   6.380   3.958   5.474  1.2210  0.0501 -0.8598
  533SOL    MW4 1906   6.411   3.881   5.499  0.2901 -0.2432 -0.0930
  534SOL     OW 1907   1.888   2.409   3.709  0.4690 -0.0471  0.3690
  534SOL    HW2 1908   1.902   2.316   3.726 -1.7358 -0.2031  1.7722
  534SOL    HW3 1909   1.922   2.453   3.787 -1.4430  0.0067  1.2170
  534SOL    MW4 1910   1.894   2.402   3.722 -0.3110 -0.4082 -0.2828
  535SOL     OW 1911   2.928   5.638   3.494 -0.1582  0.0704  0.0690
  535SOL    HW2 1912   2.838   5.611   3.477 -0.2337  0.6221 -0.4468
  535SOL    HW3 1913   2.920   5.712   3.554 -0.0832  0.4275 -0.3532
  535SOL    MW4 1914   2.915   5.644   3.500 -0.5371  0.3929  0.3966
  536SOL     OW 1915   4.621   3.084   1.259  0.3101  0.4443 -0.7430
  536SOL    HW2 1916   4.637   3.052   1.347 -0.7457 -0.7702 -0.9696
  536SOL    HW3 1917   4.601   3.177   1.270 -0.3549  0.1793  0.3544
  536SOL    MW4 1918   4.621   3.092   1.272  0.6144 -0.0282  0.2915
  537SOL     OW 1919   5.680   6.018   2.444  0.4516 -0.2526 -0.1869
  537SOL    HW2 1920   5.654   5.974   2.363  2.5404  0.1079 -1.1293
  537SOL    HW3 1921   5.617   5.989   2.509 -0.6430 -1.4116 -1.6952
  537SOL    MW4 1922   5.668   6.008   2.442  0.0327  0.0985  0.5502
  538SOL     OW 1923   4.912   0.150   4.188  0.3646  0.5187 -0.0210
  538SOL    HW2 1924   4.906   0.098   4.268  0.6668  1.0038  0.3155
  538SOL    HW3 1925   5.005   0.165   4.176  0.4578 -0.8167 -1.2894
  538SOL    MW4 1926   4.923   0.145   4.197  0.1436  0.0347  0.3259
  539SOL     OW 1927   4.514   1.314   6.365 -0.5922 -0.3484  0.6242
  539SOL    HW2 1928   4.435   1.296   6.314  1.5067 -0.5824 -2.8895
  539SOL    HW3 1929   4.570   1.238   6.350  2.5717  2.2439 -2.0924
  539SOL    MW4 1930   4.511   1.302   6.356 -0.2741 -0.3196  0.0690
  540SOL     OW 1931   1.519   4.800   6.131 -0.3886  0.3699 -0.2525
  540SOL    HW2 1932   1.529   4.705   6.142 -0.4123  0.1191 -2.0500
  540SOL    HW3 1933   1.428   4.818   6.155  0.3570  0.4559  2.8984
  540SOL    MW4 1934   1.508   4.790   6.136  0.1186 -0.2382 -0.5629
  541SOL     OW 1935   1.914   5.940   4.312 -0.1308 -0.2552  0.7802
  541SOL    HW2 1936   1.972   5.987   4.253 -0.2187  0.0547  0.9385
  541SOL    HW3 1937   1.872   6.008   4.365  0.1914 -0.5464  1.4230
  541SOL    MW4 1938   1.916   5.955   4.311 -0.2879  0.0533 -0.0712
  542SOL     OW 1939   2.555   0.773   5.394 -0.5171 -0.2852  0.0047
  542SOL    HW2 1940   2.535   0.861   5.426 -0.1174 -0.2575  0.1735
  542SOL    HW3 1941   2.625   0.786   5.330 -1.3846 -0.3243 -0.9877
  542SOL    MW4 1942   2.561   0.787   5.390  0.2359  0.3530 -0.4188
  543SOL     OW 1943   4.254   3.235   1.517 -0.1083 -0.1811  1.2872
  543SOL    HW2 1944   4.219   3.206   1.433  0.6559 -0.7215  1.1459
  543SOL    HW3 1945   4.178   3.240   1.575 -0.9462  1.9484  0.1072
  543SOL    MW4 1946   4.240   3.232   1.514 -0.3250  0.7721  0.9609
  544SOL     OW 1947   2.890   1.583   6.169  0.1373  0.1478 -0.1609
  544SOL    HW2 1948   2.858   1.547   6.252 -0.2982  2.8966  0.9821
  544SOL    HW3 1949   2.844   1.533   6.102  0.8902 -2.5105  1.1652
  544SOL    MW4 1950   2.879   1.571   6.171  0.6379  0.0367  0.5567
  545SOL     OW 1951   5.311   2.042   3.110  0.2154  0.0585 -0.6875
  545SOL    HW2 1952   5.238   1.981   3.099 -0.4516  0.6982  0.0349
  545SOL    HW3 1953   5.339   2.063   3.021 -0.6596  0.0045 -0.9872
  545SOL    MW4 1954   5.305   2.037   3.097  0.6348  0.4222 -0.1958
  546SOL     OW 1955   1.646   3.162   5.515  0.1236  0.5239  0.3300
  546SOL    HW2 1956   1.648   3.088   5.576  0.6482 -0.8853 -1.3356
  546SOL    HW3 1957   1.719   3.146   5.455 -0.2759  1.9515 -0.5722
  546SOL    MW4 1958   1.656   3.150   5.516 -0.3240  0.2908  0.2521
  547SOL     OW 1959   0.630   4.967   4.321  0.8432 -0.0223  0.2900
  547SOL    HW2 1960   0.606   4.893   4.377 -0.2939 -0.8079 -1.1598
  547SOL    HW3 1961   0.547   5.013   4.306  1.0697  0.0335 -0.8946
  547SOL    MW4 1962   0.616   4.963   4.326 -0.2590  0.1958 -0.0700
  548SOL     OW 1963   3.121   2.758   3.666  0.2149 -0.3192 -0.3695
  548SOL    HW2 1964   3.057   2.738   3.734  0.1581  1.2000  0.0573
  548SOL    HW3 1965   3.092   2.709   3.589 -0.3142 -1.2207  0.3974
  548SOL    MW4 1966   3.109   2.749   3.664 -0.4173 -0.4054 -0.3399
  549SOL     OW 1967   3.351   2.628   3.726 -0.1174  0.4066  0.3161
  549SOL    HW2 1968   3.270   2.662   3.688  0.1036 -0.2310 -0.7590
  549SOL    HW3 1969   3.377   2.557   3.667  0.5533 -0.2245  1.3437
  549SOL    MW4 1970   3.344   2.623   3.713 -0.1879  0.4951 -0.4326
  550SOL     OW 1971   4.355   3.524   0.709  0.1019 -0.2031  0.3637
  550SOL    HW2 1972   4.429   3.547   0.765  0.1692  0.1665  0.1336
  550SOL    HW3 1973   4.387   3.451   0.656  0.5684  0.4196 -0.2459
  550SOL    MW4 1974   4.369   3.518   0.709  0.7745 -0.6132  0.0474
  551SOL     OW 1975   2.211   3.707   5.306 -0.4770  0.0260  0.3679
  551SOL    HW2 1976   2.303   3.681   5.318  0.2980  2.3944  0.0742
  551SOL    HW3 1977   2.161   3.636   5.346  1.4997 -0.8623  1.4346
  551SOL    MW4 1978   2.217   3.694   5.313 -0.2430 -0.1849  0.4811
  552SOL     OW 1979   5.869   2.363   4.430 -0.1730  0.3204  0.1490
  552SOL    HW2 1980   5.804   2.320   4.486 -1.5876  0.4142 -1.3393
  552SOL    HW3 1981   5.890   2.297   4.363  1.9180  0.0038  1.0480
  552SOL    MW4 1982   5.863   2.348   4.428  0.0500 -0.1352  0.5879
  553SOL     OW 1983   4.253   0.729   4.581 -0.5321  0.2300  0.1493
  553SOL    HW2 1984   4.303   0.678   4.517 -1.3344 -1.3686  0.7224
  553SOL    HW3 1985   4.230   0.665   4.648 -0.6685  1.6270  1.4727
  553SOL    MW4 1986   4.257   0.714   4.581 -0.4639  0.0886  0.0244
  554SOL     OW 1987   5.799   5.094   1.945  0.3321 -0.1316 -0.0510
  554SOL    HW2 1988   5.754   5.040   1.880 -0.9382 -0.0965  0.7650
  554SOL    HW3 1989   5.837   5.031   2.006 -0.1763 -0.1151  0.2767
  554SOL    MW4 1990   5.798   5.079   1.944  0.1320 -0.2796  0.0682
  555SOL     OW 1991   3.521   4.174   4.971  0.2068 -0.5010 -0.6170
  555SOL    HW2 1992   3.566   4.199   4.891 -0.5368 -0.0739 -0.9123
  555SOL    HW3 1993   3.453   4.113   4.942 -0.1900 -0.1918 -0.3393
  555SOL    MW4 1994   3.518   4.169   4.957  0.1771  0.6013 -0.2819
  556SOL     OW 1995   0.618   5.479   2.800  0.4103 -0.2239  0.4534
  556SOL    HW2 1996   0.560   5.546   2.763  0.5062 -0.4855 -0.1846
  556SOL    HW3 1997   0.680   5.529   2.853  0.3908  0.1854  0.0989
  556SOL    MW4 1998   0.619   5.495   2.802  0.1354 -0.0351 -0.1647
  557SOL     OW 1999   4.912   2.269   3.266  0.0806  0.2163  0.2109
  557SOL    HW2 2000   4.960   2.210   3.208  0.3206  0.2593  0.3675
  557SOL    HW3 2001   4.904   2.350   3.216  1.7481  0.8248  0.8650
  557SOL    MW4 2002   4.917   2.272   3.251 -0.6152  0.3311  0.3602
  558SOL     OW 2003   1.204   1.416   1.634 -0.3205 -0.5144  0.3934
  558SOL    HW2 2004   1.298   1.397   1.629 -0.8312 -3.3558 -0.3984
  558SOL    HW3 2005   1.183   1.454   1.548  0.1556  0.5875  0.7480
  558SOL    MW4 2006   1.213   1.419   1.622  0.3641  0.2696 -0.0761
  559SOL     OW 2007   3.929   1.822   1.039  0.1304 -0.3614 -0.1436
  559SOL    HW2 2008   3.998   1.779   0.988  1.3459  0.2632  0.9321
  559SOL    HW3 2009   3.920   1.768   1.118  0.4286  0.3607  0.3957
  559SOL    MW4 2010   3.937   1.809   1.043 -0.5588 -0.2561 -0.1052
  560SOL     OW 2011   0.946   3.876   6.092  0.4162 -0.1146  0.1199
  560SOL    HW2 2012   0.993   3.946   6.138  0.8127 -0.6811  0.5814
  560SOL    HW3 2013   0.870   3.920   6.054  0.4275  0.4878  0.7721
  560SOL    MW4 2014   0.943   3.891   6.093  0.2424 -0.2804 -0.8831
  561SOL     OW 2015   4.999   4.483   4.511 -0.4859  0.0686 -0.4044
  561SOL    HW2 2016   4.975   4.391   4.500  0.8105 -0.4576  0.8687
  561SOL    HW3 2017   4.981   4.523   4.425 -1.3004 -1.3046 -0.9018
  561SOL    MW4 2018   4.994   4.476   4.498  0.4595  0.3731  0.2333
  562SOL     OW 2019   5.526   0.124   4.622 -0.0047  0.3693 -0.1891
  562SOL    HW2 2020   5.534   0.098   4.531  1.1995  0.1089 -0.0276
  562SOL    HW3 2021   5.488   0.048   4.666  1.0676 -0.1843 -0.1813
  562SOL    MW4 2022   5.522   0.111   4.616  0.2467  0.2804  0.2180
  563SOL     OW 2023   3.836   0.315   1.500 -0.5991  0.0776 -0.6419
  563SOL    HW2 2024   3.913   0.280   1.454 -0.1308  0.0723  0.1178
  563SOL    HW3 2025   3.767   0.250   1.484 -0.5143  0.1885 -1.5086
  563SOL    MW4 2026   3.837   0.302   1.492 -0.3502  0.0457 -0.2133
  564SOL     OW 2027   6.188   6.046   2.144  0.0510  0.6759 -0.1633
  564SOL    HW2 2028   6.281   6.040   2.122  0.0389 -0.4923  0.0279
  564SOL    HW3 2029   6.186   6.063   2.239  0.1107 -2.0760  0.4202
  564SOL    MW4 2030   6.200   6.048   2.154  0.5466  0.5159  0.4331
  565SOL     OW 2031   1.429   2.379   4.401  0.5569 -0.5431 -0.0445
  565SOL    HW2 2032   1.471   2.417   4.479  2.3764  0.2311 -1.3359
  565SOL    HW3 2033   1.493   2.317   4.367  0.5113  0.3109 -1.8073
  565SOL    MW4 2034   1.443   2.376   4.407 -0.9200 -0.1740 -0.0704
  566SOL     OW 2035   0.240   5.764   3.301 -0.0059 -0.2940 -0.7549
  566SOL    HW2 2036   0.331   5.785   3.318  0.1028 -1.0002 -0.4311
  566SOL    HW3 2037   0.237   5.668   3.300 -0.6795 -0.2794 -1.1015
  566SOL    MW4 2038   0.251   5.754   3.303 -0.4220  0.2908 -0.6023
  567SOL     OW 2039   1.913   0.982   1.757  0.0805 -0.1695 -0.1337
  567SOL    HW2 2040   1.927   0.959   1.666 -0.5972  1.2744 -0.6254
  567SOL    HW3 2041   1.895   0.898   1.800 -0.0237 -0.8192 -1.3954
  567SOL    MW4 2042   1.912   0.968   1.751  0.2677 -0.2628  0.7227
  568SOL     OW 2043   0.943   3.233   1.503  0.6036 -0.3192 -0.6262
  568SOL    HW2 2044   0.971   3.143   1.486  0.6975 -0.6432  1.0942
  568SOL    HW3 2045   0.891   3.256   1.426 -3.1729 -3.4119  0.6327
  568SOL    MW4 2046   0.940   3.224   1.490  0.0923 -0.6369 -0.4503
  569SOL     OW 2047   0.833   4.582   6.210  0.4792 -0.3723  0.3532
  569SOL    HW2 2048   0.853   4.489   6.222 -1.5530 -1.0107 -0.6378
  569SOL    HW3 2049   0.766   4.600   6.277 -0.8690 -0.3058 -0.9603
  569SOL    MW4 2050   0.826   4.572   6.221 -0.4904 -0.1771  0.2241
  570SOL     OW 2051   4.541   5.359   4.783 -0.3035  0.2456 -0.0624
  570SOL    HW2 2052   4.564   5.390   4.871 -1.6479  0.6087  0.1773
  570SOL    HW3 2053   4.589   5.277   4.773 -2.8706 -1.7756  2.4892
  570SOL    MW4 2054   4.550   5.352   4.793  0.0696 -0.0395 -0.8862
  571SOL     OW 2055   3.300   0.667   0.224  0.3068  0.5960 -0.4437
  571SOL    HW2 2056   3.337   0.583   0.196  1.5417  0.6917  0.7419
  571SOL    HW3 2057   3.320   0.728   0.153  1.2496  0.3193 -0.4284
  571SOL    MW4 2058   3.308   0.664   0.211  0.3382  0.4589 -0.5028
  572SOL     OW 2059   1.040   2.010   3.097  0.0237 -0.2732 -0.7759
  572SOL    HW2 2060   1.115   2.016   3.038  1.1427 -0.4828  0.5704
  572SOL    HW3 2061   1.054   1.929   3.146 -1.5346 -0.7516 -1.0565
  572SOL    MW4 2062   1.052   2.000   3.095 -0.1827  0.2378 -0.0610
  573SOL     OW 2063   0.578   0.471   5.832 -0.5512  0.6283  0.0771
  573SOL    HW2 2064   0.663   0.474   5.789 -0.2258  0.9847  0.7363
  573SOL    HW3 2065   0.515   0.467   5.760  0.0287  0.1144 -0.4054
  573SOL    MW4 2066   0.581   0.471   5.817 -0.1332 -0.1989 -0.3460
  574SOL     OW 2067   3.564   0.953   1.261 -0.0176 -0.2302  0.2936
  574SOL    HW2 2068   3.549   0.920   1.349  1.4741 -1.4920  0.1278
  574SOL    HW3 2069   3.643   0.907   1.231 -1.7401 -1.6382 -2.5711
  574SOL    MW4 2070   3.573   0.943   1.269 -0.2701  0.0431 -0.2552
  575SOL     OW 2071   4.827   5.642   3.040 -0.0146  0.3736  0.5261
  575SOL    HW2 2072   4.746   5.628   2.991  1.9907 -1.0696 -2.6521
  575SOL    HW3 2073   4.838   5.562   3.092  0.0228 -0.0011 -0.0537
  575SOL    MW4 2074   4.817   5.630   3.040 -0.1767 -0.0524  0.4728
  576SOL     OW 2075   1.242   4.353   5.642 -0.3838  0.2255  0.0228
  576SOL    HW2 2076   1.311   4.294   5.674  0.5451 -0.5411 -3.0936
  576SOL    HW3 2077   1.286   4.437   5.630 -0.7469  0.5313  0.7604
  576SOL    MW4 2078   1.257   4.356   5.645 -0.8852 -0.3840  0.2855
  577SOL     OW 2079   3.142   3.355   0.850 -0.8150 -0.1743  0.3066
  577SOL    HW2 2080   3.164   3.448   0.855  0.2774 -0.1114 -3.3658
  577SOL    HW3 2081   3.226   3.311   0.835 -1.4333 -1.6916  1.0393
  577SOL    MW4 2082   3.156   3.362   0.849 -0.1070 -0.1178  0.5378
  578SOL     OW 2083   2.239   6.400   4.042  0.3384 -0.0684  0.0049
  578SOL    HW2 2084   2.274   6.372   4.127 -0.2863 -1.5806 -0.2117
  578SOL    HW3 2085   2.249   6.324   3.985 -0.0169  0.6511 -1.0491
  578SOL    MW4 2086   2.245   6.387   4.046 -0.2551  0.0278 -0.4096
  579SOL     OW 2087   3.843   4.924   1.615  0.1957 -0.4642 -0.2974
  579SOL    HW2 2088   3.912   4.977   1.575 -0.0592  1.5938  1.7115
  579SOL    HW3 2089   3.890   4.855   1.662  0.7479 -0.3647 -0.6904
  579SOL    MW4 2090   3.859   4.922   1.616  0.2618  0.4817  0.1584
  580SOL     OW 2091   0.444   5.513   6.166  0.4120 -0.1283  0.2325
  580SOL    HW2 2092   0.418   5.596   6.126  1.2422 -0.1398 -0.3590
  580SOL    HW3 2093   0.384   5.448   6.131  0.8504 -0.0614 -0.6655
  580SOL    MW4 2094   0.433   5.516   6.156  0.0365 -0.4096  0.0618
  581SOL     OW 2095   1.616   3.768   4.213  0.7494 -0.0703  0.8987
  581SOL    HW2 2096   1.678   3.795   4.145  0.8779  2.5235  1.9328
  581SOL    HW3 2097   1.665   3.705   4.267  1.1022 -1.0803 -0.5432
  581SOL    MW4 2098   1.631   3.763   4.211  0.2328  0.4541  0.0979
  582SOL     OW 2099   0.666   2.914   5.712 -0.4170 -0.8772  0.0547
  582SOL    HW2 2100   0.622   2.933   5.795 -0.7767  0.6347 -0.4382
  582SOL    HW3 2101   0.759   2.928   5.731 -0.5430 -0.0055  0.1020
  582SOL    MW4 2102   0.673   2.919   5.726  0.1848  0.8181 -0.0462
  583SOL     OW 2103   4.402   2.524   6.274 -0.4289  0.3651  0.1593
  583SOL    HW2 2104   4.436   2.513   6.363  1.1160  0.2794 -0.4054
  583SOL    HW3 2105   4.351   2.605   6.277 -0.0920  0.5517  1.0401
  583SOL    MW4 2106   4.400   2.533   6.286 -0.0768 -0.3276  0.0088
  584SOL     OW 2107   0.969   1.942   0.836  0.0635 -0.4032 -0.0660
  584SOL    HW2 2108   0.991   1.885   0.910  0.6181  1.2863  1.1438
  584SOL    HW3 2109   0.875   1.930   0.823 -0.7976  1.5819  3.1110
  584SOL    MW4 2110   0.960   1.933   0.844  0.8464 -0.4215  0.1712
  585SOL     OW 2111   3.720   1.145   5.480  0.8695 -0.3290 -0.0269
  585SOL    HW2 2112   3.749   1.062   5.518  0.6930  1.3205  4.2201
  585SOL    HW3 2113   3.783   1.209   5.511 -1.9233  1.9129  1.5030
  585SOL    MW4 2114   3.732   1.143   5.489 -0.1067  0.3630 -0.1414
  586SOL     OW 2115   3.593   0.415   0.572 -0.3862  0.1013  0.8633
  586SOL    HW2 2116   3.687   0.396   0.565 -0.4583 -0.9371  2.2865
  586SOL    HW3 2117   3.577   0.479   0.503  1.0143 -0.9972 -0.5677
  586SOL    MW4 2118   3.603   0.421   0.562  0.1373 -0.6666 -0.9248
  587SOL     OW 2119   5.877   2.724   6.163  0.2863 -0.1080  0.0115
  587SOL    HW2 2120   5.921   2.737   6.246  0.2712  0.4248 -0.0650
  587SOL    HW3 2121   5.800   2.671   6.185 -1.2523  2.3038  0.8011
  587SOL    MW4 2122   5.872   2.718   6.177 -0.1955  0.8207  0.2407
  588SOL     OW 2123   1.293   5.210   5.151 -0.7098  0.2807  0.2221
  588SOL    HW2 2124   1.263   5.131   5.195 -1.6506  0.0861 -0.7069
  588SOL    HW3 2125   1.285   5.189   5.057  2.5388  0.1560 -0.1427
  588SOL    MW4 2126   1.288   5.197   5.144 -0.3610 -0.3551  0.7826
  589SOL     OW 2127   6.175   4.665   2.845 -0.1477  0.2922 -0.1462
  589SOL    HW2 2128   6.167   4.714   2.763 -0.4337 -1.0083 -0.9244
  589SOL    HW3 2129   6.221   4.584   2.820 -2.6096 -1.3952  0.3973
  589SOL    MW4 2130   6.180   4.661   2.831  0.5887 -0.5653  0.3233
  590SOL     OW 2131   5.033   6.414   3.924 -0.2976 -0.0101  0.1233
  590SOL    HW2 2132   4.988   6.336   3.957  1.0250 -0.3266  1.2803
  590SOL    HW3 2133   5.089   6.382   3.854  0.7108 -0.2512  1.0056
  590SOL    MW4 2134   5.034   6.399   3.919  0.3235  0.0931  0.6636
  591SOL     OW 2135   4.096   2.007   4.846  0.1874 -0.8023  0.3724
  591SOL    HW2 2136   4.123   1.939   4.785  0.9756 -1.7656  1.7464
  591SOL    HW3 2137   4.177   2.039   4.885 -0.2665  0.1027  0.6101
  591SOL    MW4 2138   4.110   2.002   4.843 -0.0876  0.1349 -0.0933
  592SOL     OW 2139   1.292   2.079   5.123 -0.2603  0.1847 -0.1152
  592SOL    HW2 2140   1.253   2.043   5.202  1.0130 -0.8171  0.0953
  592SOL    HW3 2141   1.375   2.117   5.153 -1.9883  4.5216 -0.0918
  592SOL    MW4 2142   1.298   2.079   5.137  0.2296  0.3738  0.2774
  593SOL     OW 2143   0.510   0.011   0.494 -0.3619  0.1914  0.2949
  593SOL    HW2 2144   0.547  -0.056   0.436 -1.2117  0.5291 -0.6623
  593SOL    HW3 2145   0.429   0.038   0.450 -1.8052 -0.5715  2.3169
  593SOL    MW4 2146   0.504   0.005   0.481 -0.0748  0.0394 -0.5721
  594SOL     OW 2147   1.326   1.782   3.108  0.2783  0.1349 -0.1122
  594SOL    HW2 2148   1.340   1.751   3.018  0.3769  0.3039 -0.1559
  594SOL    HW3 2149   1.405   1.832   3.128  0.4179 -0.2078  0.2006
  594SOL    MW4 2150   1.339   1.784   3.099  0.2744 -0.3432  0.3172
  595SOL     OW 2151   4.385   4.020   4.968  0.7188  0.1774  0.2694
  595SOL    HW2 2152   4.300   3.976   4.967  0.3367  0.8727  0.9573
  595SOL    HW3 2153   4.365   4.112   4.952  1.1996  0.5471  1.6521
  595SOL    MW4 2154   4.371   4.026   4.966  0.0080  0.1610 -0.3610
  596SOL     OW 2155   3.009   2.429   2.207  0.6556  0.1940  0.2302
  596SOL    HW2 2156   3.062   2.508   2.216  2.9021 -1.2651  0.9322
  596SOL    HW3 2157   3.020   2.384   2.291  1.0368 -1.7340 -0.7880
  596SOL    MW4 2158   3.018   2.433   2.219  0.0973  0.1777  0.5227
  597SOL     OW 2159   5.871   5.119   2.643  0.1966  0.3300 -0.4343
  597SOL    HW2 2160   5.859   5.207   2.676 -3.3574 -0.5650  1.0311
  597SOL    HW3 2161   5.868   5.128   2.547  1.6227  1.8924 -0.3771
  597SOL    MW4 2162   5.869   5.132   2.635  0.4940  0.2169 -0.1862
  598SOL     OW 2163   3.771   1.821   3.965 -0.0353 -0.0612  0.5013
  598SOL    HW2 2164   3.791   1.779   4.049  0.6001  0.2076  0.4910
  598SOL    HW3 2165   3.809   1.763   3.899  0.9738  0.5876  0.4946
  598SOL    MW4 2166   3.778   1.808   3.967  0.4672 -0.0616 -1.0529
  599SOL     OW 2167   5.155   0.149   2.089 -0.0897 -0.0884 -0.4441
  599SOL    HW2 2168   5.161   0.225   2.147  2.5749  0.9649 -1.9094
  599SOL    HW3 2169   5.078   0.167   2.034 -2.7404 -1.1589  2.5891
  599SOL    MW4 2170   5.146   0.162   2.089  0.2702  0.3698  0.2075
  600SOL     OW 2171   5.129   5.348   1.542 -0.1126  0.5495 -0.3655
  600SOL    HW2 2172   5.075   5.418   1.579  2.2459  1.4491  1.6281
  600SOL    HW3 2173   5.201   5.394   1.499  1.2628 -0.5806  0.6342
  600SOL    MW4 2174   5.131   5.363   1.541 -0.0797 -0.5628  0.0520
  601SOL     OW 2175   5.268   4.889   1.821 -0.2189 -0.6424 -0.1373
  601SOL    HW2 2176   5.246   4.934   1.903  2.0249  0.4871 -0.0925
  601SOL    HW3 2177   5.228   4.943   1.753 -0.3735 -0.4558  0.0981
  601SOL    MW4 2178   5.259   4.902   1.823 -0.1285  0.2617  0.1462
  602SOL     OW 2179   2.352   1.518   5.652  0.5852 -0.1585 -0.2156
  602SOL    HW2 2180   2.411   1.443   5.643  0.8342 -0.0189  0.2500
  602SOL    HW3 2181   2.399   1.590   5.610  1.4698  0.3414  1.5605
  602SOL    MW4 2182   2.366   1.518   5.645  0.4359 -0.3973 -0.0791
  603SOL     OW 2183   1.355   4.362   0.878  0.1280 -0.2729  0.5314
  603SOL    HW2 2184   1.388   4.451   0.894  0.6852 -0.3836  0.0436
  603SOL    HW3 2185   1.263   4.366   0.904 -0.0220  0.6178 -0.0849
  603SOL    MW4 2186   1.347   4.374   0.884  0.7431  0.1586 -0.0104
  604SOL     OW 2187   2.758   5.486   2.561 -0.0774  0.2277 -0.1663
  604SOL    HW2 2188   2.850   5.478   2.589  0.2171 -2.0268 -1.4820
  604SOL    HW3 2189   2.763   5.530   2.476 -0.2496  0.4371 -0.0672
  604SOL    MW4 2190   2.771   5.491   2.553  0.2958 -0.3884  0.1383
  605SOL     OW 2191   3.823   3.161   1.367 -0.3981  0.3433  0.0599
  605SOL    HW2 2192   3.772   3.206   1.434 -0.9317 -0.2590  0.0652
  605SOL    HW3 2193   3.779   3.077   1.355  1.3684 -0.8170  1.0789
  605SOL    MW4 2194   3.811   3.155   1.374  0.3940 -0.4366 -0.1423
  606SOL     OW 2195   5.628   0.071   5.033  0.1990  0.3968 -0.3130
  606SOL    HW2 2196   5.642   0.160   5.001  1.1362  0.0800 -0.8109
  606SOL    HW3 2197   5.630   0.078   5.128  0.8463  0.8192 -0.3585
  606SOL    MW4 2198   5.630   0.083   5.041  0.4529 -0.0346  0.2257
  607SOL     OW 2199   3.622   3.813   5.794  0.1487  0.2898 -0.3057
  607SOL    HW2 2200   3.711   3.841   5.775 -0.3260  1.6565 -0.6369
  607SOL    HW3 2201   3.629   3.764   5.876  1.1311  0.8374 -0.0487
  607SOL    MW4 2202   3.635   3.810   5.803  0.0806  0.4989  0.0922
  608SOL     OW 2203   5.542   2.799   6.022 -0.2446  0.7100 -0.4916
  608SOL    HW2 2204   5.525   2.871   5.962 -1.3931  0.1971 -0.8064
  608SOL    HW3 2205   5.456   2.764   6.043  0.2311 -0.0068  0.3699
  608SOL    MW4 2206   5.529   2.803   6.017 -0.1178  1.0403  0.3286
  609SOL     OW 2207   4.032   1.395   0.453  0.7232  0.1361  0.4414
  609SOL    HW2 2208   4.017   1.305   0.426  1.3348 -0.1724  1.1111
  609SOL    HW3 2209   3.945   1.436   0.450  0.0347 -1.0557  2.2347
  609SOL    MW4 2210   4.018   1.389   0.449  0.0657  0.7517 -0.2537
  610SOL     OW 2211   3.539   1.373   5.170  0.2225 -0.0662 -0.1695
  610SOL    HW2 2212   3.511   1.417   5.089  0.0868  1.9540  0.9137
  610SOL    HW3 2213   3.536   1.442   5.237  3.0226 -0.9666  1.0215
  610SOL    MW4 2214   3.535   1.388   5.168 -0.0806  0.3785 -0.4624
  611SOL     OW 2215   0.526   2.951   5.950  1.2017 -0.1035 -0.4248
  611SOL    HW2 2216   0.548   3.042   5.968  0.5946  0.0672 -0.5378
  611SOL    HW3 2217   0.583   2.901   6.010 -0.0660  0.4281  1.3074
  611SOL    MW4 2218   0.537   2.956   5.961 -0.0256  0.0503 -0.3327
  612SOL     OW 2219   2.669   4.082   5.127  0.0359 -0.4325 -0.3582
  612SOL    HW2 2220   2.637   4.170   5.148  0.6016 -0.5254  0.9957
  612SOL    HW3 2221   2.733   4.097   5.057 -0.2748  0.1697 -0.5236
  612SOL    MW4 2222   2.673   4.096   5.121  0.1009 -0.3660 -0.2209
  613SOL     OW 2223   4.953   1.537   5.407  0.4817  0.6291  0.2583
  613SOL    HW2 2224   4.924   1.622   5.439  0.3617  0.0680  1.7262
  613SOL    HW3 2225   4.976   1.552   5.315  2.1724  2.6623  0.9320
  613SOL    MW4 2226   4.952   1.550   5.399 -0.1088 -0.0468 -0.1721
  614SOL     OW 2227   5.681   2.366   1.541 -0.1655  0.1864 -0.4216
  614SOL    HW2 2228   5.731   2.441   1.572 -1.1412  0.2817  1.0007
  614SOL    HW3 2229   5.616   2.350   1.609  1.2496 -3.1767  0.3685
  614SOL    MW4 2230   5.679   2.374   1.554 -0.1431  0.2472  0.4931
  615SOL     OW 2231   1.908   1.706   2.428  0.0207  0.7540  0.1404
  615SOL    HW2 2232   1.957   1.628   2.403 -3.3738 -0.9312 -1.9064
  615SOL    HW3 2233   1.937   1.773   2.366  1.0238  0.3746  0.1736
  615SOL    MW4 2234   1.919   1.705   2.416  0.3666 -0.8552  0.0017
  616SOL     OW 2235   4.715   6.026   0.168  0.0023  0.9088  0.9460
  616SOL    HW2 2236   4.705   6.050   0.075  0.8233  1.0447  0.8909
  616SOL    HW3 2237   4.696   5.932   0.170  0.9204  0.7003  0.4758
  616SOL    MW4 2238   4.711   6.017   0.156 -0.2216  0.0606  0.7867
  617SOL     OW 2239   3.797   4.200   3.639 -0.1747  0.5720 -0.6002
  617SOL    HW2 2240   3.778   4.138   3.709 -1.4540 -0.5227 -1.8609
  617SOL    HW3 2241   3.889   4.223   3.651 -0.4384  0.6622  1.6021
  617SOL    MW4 2242   3.807   4.195   3.650  0.3739  0.5050  0.0911
  618SOL     OW 2243   3.343   2.882   5.714  0.8206  0.0437  0.0838
  618SOL    HW2 2244   3.295   2.960   5.685 -0.0798  0.3305  2.1022
  618SOL    HW3 2245   3.410   2.917   5.774 -0.5422 -0.7302  2.1951
  618SOL    MW4 2246   3.345   2.897   5.718  0.1187  0.3714  0.3384
  619SOL     OW 2247   1.443   5.385   4.468  0.1629  0.1114  0.3164
  619SOL    HW2 2248   1.471   5.294   4.470  0.3628  0.1033 -1.3360
  619SOL    HW3 2249   1.355   5.384   4.506  1.3164 -0.2474  3.2025
  619SOL    MW4 2250   1.435   5.373   4.473  0.3601 -0.9018 -0.1497
  620SOL     OW 2251   1.089   1.522   0.107 -0.0756 -0.1861  0.0470
  620SOL    HW2 2252   1.097   1.515   0.202  0.8716  0.2897  0.0131
  620SOL    HW3 2253   1.172   1.561   0.079 -0.7535  0.6193 -0.8713
  620SOL    MW4 2254   1.101   1.526   0.116  0.4078  0.9467 -0.3283
  621SOL     OW 2255   0.075   2.962   0.158 -0.1932  0.3534  0.0978
  621SOL    HW2 2256   0.083   3.057   0.148 -1.7632  0.4670 -0.2444
  621SOL    HW3 2257   0.086   2.928   0.069 -1.5453  0.3924 -0.1115
  621SOL    MW4 2258   0.078   2.970   0.145 -0.2726 -0.7262  0.3574
  622SOL     OW 2259   5.243   2.432   2.142 -0.6648  0.1473  0.6681
  622SOL    HW2 2260   5.275   2.380   2.216 -0.5376  0.3832  0.7786
  622SOL    HW3 2261   5.170   2.482   2.178 -0.6878  0.1633  0.5992
  622SOL    MW4 2262   5.237   2.432   2.156  0.4919 -0.0463  0.1815
  623SOL     OW 2263   3.152   6.216   5.683  0.4772 -0.3143 -0.8374
  623SOL    HW2 2264   3.123   6.296   5.640 -0.8738  0.2725  1.0180
  623SOL    HW3 2265   3.247   6.217   5.675  0.6623  2.4310  0.6145
  623SOL    MW4 2266   3.161   6.227   5.676 -0.0774  0.1491  0.2976
  624SOL     OW 2267   4.578   3.935   3.139  0.1512 -0.8720 -0.3991
  624SOL    HW2 2268   4.673   3.936   3.129  0.0831 -1.1158 -1.1211
  624SOL    HW3 2269   4.544   3.968   3.056 -0.3799  0.4973  0.3250
  624SOL    MW4 2270   4.586   3.939   3.127 -0.0847  0.1801  0.2014
  625SOL     OW 2271   2.328   2.848   3.649  0.0238  0.4950 -0.0563
  625SOL    HW2 2272   2.262   2.837   3.718  0.0446  0.5017 -0.0352
  625SOL    HW3 2273   2.282   2.827   3.568  0.4978 -1.5401  0.1334
  625SOL    MW4 2274   2.313   2.844   3.647 -0.0895 -0.3132 -0.6906
  626SOL     OW 2275   5.886   3.084   5.144  0.2131  0.0143  0.1522
  626SOL    HW2 2276   5.849   3.171   5.141  0.4293  0.1897  1.6223
  626SOL    HW3 2277   5.812   3.025   5.131  0.1246  0.3934 -1.2208
  626SOL    MW4 2278   5.872   3.087   5.142  0.2720  0.3982 -0.0688
  627SOL     OW 2279   6.014   6.226   2.667 -0.7138 -0.3673 -0.8727
  627SOL    HW2 2280   5.935   6.182   2.699  0.6293 -1.5606  0.9496
  627SOL    HW3 2281   6.054   6.265   2.745  1.2331 -1.0066 -1.4960
  627SOL    MW4 2282   6.009   6.226   2.681  0.4785  0.2404 -0.1870
  628SOL     OW 2283   1.902   4.501   0.852  0.1079  0.1029 -0.5284
  628SOL    HW2 2284   1.887   4.595   0.841 -0.5875 -0.0468 -0.9483
  628SOL    HW3 2285   1.987   4.495   0.896  1.6040  0.8339 -3.1188
  628SOL    MW4 2286   1.911   4.513   0.857 -0.3266  0.3895 -0.2384
  629SOL     OW 2287   3.962   3.084   5.866  0.2470 -0.0366  0.1370
  629SOL    HW2 2288   3.911   3.162   5.843 -0.0982 -0.7419 -1.6526
  629SOL    HW3 2289   4.052   3.108   5.845  0.3757  0.4475  1.1997
  629SOL    MW4 2290   3.967   3.098   5.860 -0.3071 -0.2528 -0.1733
  630SOL     OW 2291   3.409   3.853   1.679 -0.2795 -0.0111  0.5081
  630SOL    HW2 2292   3.408   3.765   1.718  0.2476 -0.7492 -1.0532
  630SOL    HW3 2293   3.482   3.897   1.722  1.1382 -1.2564 -0.5420
  630SOL    MW4 2294   3.418   3.847   1.690 -0.6220  0.1698 -0.0896
  631SOL     OW 2295   1.260   1.721   2.243  0.6845  0.2598 -0.8293
  631SOL    HW2 2296   1.280   1.736   2.335  1.0352 -0.5443 -0.7689
  631SOL    HW3 2297   1.231   1.807   2.211  0.1257  0.4417  0.1287
  631SOL    MW4 2298   1.259   1.735   2.251  0.2656 -0.3071  0.1482
  632SOL     OW 2299   5.525   1.593   4.637 -0.1340 -0.2430  0.0862
  632SOL    HW2 2300   5.470   1.671   4.640  1.3631  0.9184 -1.0249
  632SOL    HW3 2301   5.522   1.565   4.546  0.1486 -0.8871  0.2720
  632SOL    MW4 2302   5.518   1.600   4.625  0.2479 -0.1122 -0.6624
  633SOL     OW 2303   2.536   4.986   5.336  0.3652 -0.4084 -0.0189
  633SOL    HW2 2304   2.630   5.002   5.341  0.7102 -2.4192  1.4247
  633SOL    HW3 2305   2.518   4.925   5.408 -2.0533 -0.0973 -0.2567
  633SOL    MW4 2306   2.546   4.980   5.346  0.2011 -0.4585 -0.0600
  634SOL     OW 2307   4.196   5.098   3.165  0.2485 -0.3158 -0.4216
  634SOL    HW2 2308   4.231   5.030   3.108 -0.4762 -0.3077 -0.8971
  634SOL    HW3 2309   4.207   5.064   3.254  1.8138 -0.1250 -0.5262
  634SOL    MW4 2310   4.202   5.085   3.169  0.2358  0.9255 -0.1589
  635SOL     OW 2311   4.883   2.504   4.881 -0.4091 -0.0584  0.1457
  635SOL    HW2 2312   4.871   2.412   4.858  0.2289 -0.1563  0.1821
  635SOL    HW3 2313   4.800   2.531   4.920 -0.9018 -0.3779 -0.6648
  635SOL    MW4 2314   4.870   2.496   4.883  0.0541  0.5334 -0.1997
  636SOL     OW 2315   0.864   2.665   3.200 -0.4515 -0.4429  0.2548
  636SOL    HW2 2316   0.942   2.688   3.151 -0.7346  1.0855  0.4743
  636SOL    HW3 2317   0.874   2.571   3.218  1.6797 -0.1508  0.8972
  636SOL    MW4 2318   0.876   2.655   3.196 -0.4770 -0.8867 -0.0315
  637SOL     OW 2319   2.748   4.287   4.770  0.5480 -0.2760  0.5563
  637SOL    HW2 2320   2.834   4.328   4.756  1.8559 -2.9302  0.1801
  637SOL    HW3 2321   2.710   4.280   4.683  0.2226  0.2995  0.6470
  637SOL    MW4 2322   2.755   4.291   4.757  0.0712 -0.1846  0.2229
  638SOL     OW 2323   5.428   3.962   1.411 -0.5518  0.0839 -0.2424
  638SOL    HW2 2324   5.438   4.049   1.371 -2.7819  0.6033  0.2107
  638SOL    HW3 2325   5.491   3.961   1.483  0.8819  0.5410 -1.4265
  638SOL    MW4 2326   5.438   3.973   1.415  0.0147  0.1104 -0.2927
  639SOL     OW 2327   3.418   0.500   3.074 -0.1065 -0.0605 -0.1724
  639SOL    HW2 2328   3.326   0.508   3.049 -0.5520 -1.7647  0.7241
  639SOL    HW3 2329   3.461   0.466   2.995  0.6553  4.3988 -1.9654
  639SOL    MW4 2330   3.411   0.496   3.060  0.4555  0.1389  0.0317
  640SOL     OW 2331   3.929   4.355   6.029 -0.0059 -0.2589  0.2239
  640SOL    HW2 2332   3.964   4.309   6.105 -1.0743 -0.8952  0.3442
  640SOL    HW3 2333   4.006   4.373   5.975  0.6353 -0.7135  0.9610
  640SOL    MW4 2334   3.944   4.352   6.032  0.9539  0.1257  0.2162
  641SOL     OW 2335   1.632   1.074   4.698  0.4169 -0.0320  0.3499
  641SOL    HW2 2336   1.581   1.135   4.646  0.1408 -1.4351 -1.0921
  641SOL    HW3 2337   1.717   1.070   4.654  0.3741 -0.7990  0.3146
  641SOL    MW4 2338   1.637   1.081   4.685 -0.2297  0.5035 -0.4779
  642SOL     OW 2339   6.166   6.406   4.161  0.2635 -0.3327 -0.0685
  642SOL    HW2 2340   6.163   6.439   4.251 -0.0558 -1.6465  0.4335
  642SOL    HW3 2341   6.137   6.315   4.168 -0.1581 -0.3477 -1.5662
  642SOL    MW4 2342   6.162   6.398   4.174 -0.6423 -0.0986  0.5792
  643SOL     OW 2343   0.519   1.860   3.834 -0.6816 -0.4679 -0.7225
  643SOL    HW2 2344   0.460   1.824   3.900 -1.5104  0.4622 -0.9287
  643SOL    HW3 2345   0.546   1.785   3.781  1.4777 -1.5765  1.7443
  643SOL    MW4 2346   0.515   1.845   3.835 -0.2355 -0.4656 -0.3133
  644SOL     OW 2347   1.235   5.062   1.938  0.3206  0.7379  0.4335
  644SOL    HW2 2348   1.139   5.067   1.938  0.1313 -1.6660  1.6709
  644SOL    HW3 2349   1.256   5.017   1.856  0.3030  0.1461  0.7540
  644SOL    MW4 2350   1.225   5.057   1.927 -0.4158  0.6809 -0.7275
  645SOL     OW 2351   0.244   1.777   2.463 -0.4219  0.2526 -0.1990
  645SOL    HW2 2352   0.177   1.751   2.525 -0.8283  3.6090  1.0049
  645SOL    HW3 2353   0.220   1.866   2.438  3.5738  1.7283  0.4112
  645SOL    MW4 2354   0.232   1.786   2.468  0.1391  0.3684  0.4252
  646SOL     OW 2355   2.676   3.394   2.980 -0.0921 -0.0606  0.0580
  646SOL    HW2 2356   2.669   3.419   3.072 -1.4520 -1.8106  0.4802
  646SOL    HW3 2357   2.588   3.409   2.945  0.9536  2.7835 -1.6181
  646SOL    MW4 2358   2.663   3.399   2.988 -0.2384 -0.2259 -0.0489
  647SOL     OW 2359   3.491   5.987   0.760  0.1783  0.0160 -0.2774
  647SOL    HW2 2360   3.534   5.903   0.743  0.0538 -0.4368  1.5228
  647SOL    HW3 2361   3.401   5.964   0.781  0.5753  0.3895  2.0402
  647SOL    MW4 2362   3.485   5.973   0.760  0.1005  0.1119  0.5882
  648SOL     OW 2363   1.409   1.050   1.516  0.3725  0.3479 -0.1574
  648SOL    HW2 2364   1.445   0.965   1.490 -2.7539 -0.6087 -1.9452
  648SOL    HW3 2365   1.366   1.033   1.600 -1.1493 -0.2299 -0.9992
  648SOL    MW4 2366   1.408   1.037   1.524 -0.7700  0.0497 -0.2427
  649SOL     OW 2367   1.246   4.494   4.482 -0.6825  0.5824  0.0733
  649SOL    HW2 2368   1.298   4.443   4.544 -0.3739  0.5074 -0.2472
  649SOL    HW3 2369   1.158   4.496   4.521 -0.4960  0.5213  0.5022
  649SOL    MW4 2370   1.241   4.488   4.496  0.2425  0.0747 -0.2932
  650SOL     OW 2371   3.503   0.078   6.298  0.7657 -0.0567 -0.1147
  650SOL    HW2 2372   3.470   0.003   6.347  1.0729 -0.4801 -0.5428
  650SOL    HW3 2373   3.578   0.109   6.349  0.5576  0.0401  0.1316
  650SOL    MW4 2374   3.508   0.072   6.311  0.2165  0.8549  0.0066
  651SOL     OW 2375   3.611   3.184   1.558 -0.1423 -0.0722 -0.4275
  651SOL    HW2 2376   3.531   3.232   1.537 -0.0834 -0.2489 -1.0706
  651SOL    HW3 2377   3.654   3.237   1.625  0.0667  0.9427 -1.3271
  651SOL    MW4 2378   3.606   3.197   1.564  0.4781  0.1088 -0.0559
  652SOL     OW 2379   1.009   2.263   4.733 -0.2578 -0.7971  0.0200
  652SOL    HW2 2380   1.068   2.271   4.658  0.7835 -1.5979  0.7071
  652SOL    HW3 2381   1.006   2.350   4.772  1.5652 -1.0100  0.7277
  652SOL    MW4 2382   1.016   2.275   4.729  0.0258  0.7236  0.3058
  653SOL     OW 2383   0.861   2.258   2.234 -0.0154  0.2809  0.1680
  653SOL    HW2 2384   0.778   2.296   2.264  0.1033  1.0710 -0.4693
  653SOL    HW3 2385   0.835   2.195   2.166 -0.3283 -1.9040  2.1753
  653SOL    MW4 2386   0.846   2.255   2.229  0.0223  0.0186  0.7701
  654SOL     OW 2387   5.901   2.774   1.250 -0.1680 -0.7208 -0.3123
  654SOL    HW2 2388   5.984   2.798   1.208  0.0385  0.0221  0.4888
  654SOL    HW3 2389   5.926   2.712   1.319  0.0669  1.2547  1.4778
  654SOL    MW4 2390   5.915   2.769   1.254  0.5711  0.6278 -0.2067
  655SOL     OW 2391   5.129   2.023   5.551  0.2977 -0.1979  0.0411
  655SOL    HW2 2392   5.187   2.048   5.479  0.8601  1.7572  1.0997
  655SOL    HW3 2393   5.162   1.939   5.581  0.1395 -0.9890 -1.8398
  655SOL    MW4 2394   5.141   2.015   5.545  0.1537 -0.5202  0.5800
  656SOL     OW 2395   0.659   3.043   2.071 -0.2396  0.3049  0.0469
  656SOL    HW2 2396   0.673   3.111   2.005 -0.8045  1.0849  0.7021
  656SOL    HW3 2397   0.644   3.092   2.152 -0.4403 -0.6134  0.5767
  656SOL    MW4 2398   0.659   3.059   2.073 -0.0124  0.4863 -0.1173
  657SOL     OW 2399   0.433   0.025   2.543 -0.1489  0.0622  0.2872
  657SOL    HW2 2400   0.416   0.023   2.637 -1.3259 -0.6953  0.0748
  657SOL    HW3 2401   0.404   0.112   2.515  1.9460  1.0394  0.8872
  657SOL    MW4 2402   0.427   0.036   2.551  0.4605  0.4103 -0.4405
  658SOL     OW 2403   4.244   0.339   3.395  0.2339 -0.0485 -0.3087
  658SOL    HW2 2404   4.219   0.280   3.324  2.6817 -1.2064 -0.3212
  658SOL    HW3 2405   4.304   0.288   3.449  0.1172  1.5050  1.3840
  658SOL    MW4 2406   4.249   0.324   3.392  0.1604 -0.2655  0.1575
  659SOL     OW 2407   3.453   5.416   0.583 -0.1669 -0.4582  0.1912
  659SOL    HW2 2408   3.478   5.353   0.516 -1.6870 -0.5487 -0.3406
  659SOL    HW3 2409   3.456   5.501   0.539 -0.2512 -0.4080  0.2819
  659SOL    MW4 2410   3.457   5.419   0.568 -0.1237  0.2477 -0.1072
  660SOL     OW 2411   6.337   5.799   4.466 -0.4919  0.3932  0.9283
  660SOL    HW2 2412   6.278   5.735   4.425  0.8518  0.1834 -0.7848
  660SOL    HW3 2413   6.298   5.884   4.446 -0.4821  0.2364  0.2157
  660SOL    MW4 2414   6.324   5.801   4.458  0.1556  0.2370  1.0741
  661SOL     OW 2415   4.035   5.761   4.481  0.0179 -0.3891 -0.1668
  661SOL    HW2 2416   4.106   5.823   4.498  0.4571 -1.0367  0.4080
  661SOL    HW3 2417   4.062   5.681   4.524 -0.5203 -1.0096 -0.9580
  661SOL    MW4 2418   4.048   5.759   4.489  0.4351 -0.9954 -0.0556
  662SOL     OW 2419   2.725   0.383   3.102  0.3238 -0.0439  0.5214
  662SOL    HW2 2420   2.814   0.414   3.119  0.3758  0.2858 -0.3162
  662SOL    HW3 2421   2.729   0.288   3.114  0.9893 -0.1326 -0.3615
  662SOL    MW4 2422   2.737   0.375   3.106 -0.3163 -0.0236 -0.3885
  663SOL     OW 2423   5.172   4.108   3.949 -0.0079  0.0262 -0.2170
  663SOL    HW2 2424   5.204   4.061   3.872 -0.0530 -0.3345 -0.0236
  663SOL    HW3 2425   5.222   4.070   4.022 -0.4664 -0.1456  0.0175
  663SOL    MW4 2426   5.183   4.097   3.949 -0.0015 -0.3730 -0.5583
  664SOL     OW 2427   4.385   3.147   2.481 -0.4423 -0.3717  0.6730
  664SOL    HW2 2428   4.344   3.164   2.565 -0.2425  0.3945  0.6263
  664SOL    HW3 2429   4.408   3.234   2.448  0.7005 -0.7532  0.4436
  664SOL    MW4 2430   4.382   3.160   2.488 -0.1534  0.1312  0.1770
  665SOL     OW 2431   3.671   1.247   4.012  0.3350  0.7436  0.3259
  665SOL    HW2 2432   3.661   1.210   4.100 -0.7945  0.2563  0.0136
  665SOL    HW3 2433   3.764   1.268   4.005  0.6227 -0.1348  1.2700
  665SOL    MW4 2434   3.682   1.245   4.023 -0.6700  0.3905  0.2444
  666SOL     OW 2435   2.388   3.902   0.362 -0.1648 -0.3899  0.3545
  666SOL    HW2 2436   2.465   3.849   0.382 -0.6803 -1.1788  0.2799
  666SOL    HW3 2437   2.357   3.933   0.448 -0.7781 -1.5189  0.5544
  666SOL    MW4 2438   2.394   3.899   0.376  0.5488  0.0796 -0.1616
  667SOL     OW 2439   0.042   6.162   4.202  0.5332  0.3845 -0.3709
  667SOL    HW2 2440   0.124   6.120   4.226  0.6278  0.0760 -1.1966
  667SOL    HW3 2441   0.027   6.228   4.270  1.8141  0.9203 -0.5921
  667SOL    MW4 2442   0.051   6.165   4.214 -0.4620 -0.5647 -0.5755
  668SOL     OW 2443   6.200   3.420   5.759 -0.1152  0.9702  0.2485
  668SOL    HW2 2444   6.226   3.329   5.772 -0.0194  0.6252 -1.9682
  668SOL    HW3 2445   6.282   3.469   5.759 -0.0298  0.8305 -0.0765
  668SOL    MW4 2446   6.214   3.414   5.760 -0.4751  0.1596 -0.3177
  669SOL     OW 2447   5.757   6.267   0.120  0.3640  0.7734  0.0204
  669SOL    HW2 2448   5.734   6.358   0.140  1.7858  0.6565  2.6258
  669SOL    HW3 2449   5.853   6.268   0.116  0.4101 -0.6584  0.4388
  669SOL    MW4 2450   5.767   6.279   0.122  0.0691  0.3023 -0.2994
  670SOL     OW 2451   0.423   3.403   0.984  0.7555  0.0876 -0.0284
  670SOL    HW2 2452   0.437   3.344   0.910 -1.2014 -2.2680  1.3291
  670SOL    HW3 2453   0.488   3.378   1.048  1.8056  1.4615 -0.4999
  670SOL    MW4 2454   0.433   3.392   0.982 -0.7459 -0.4222  0.3905
  671SOL     OW 2455   3.170   3.028   5.540 -0.5016 -0.0672 -0.4300
  671SOL    HW2 2456   3.077   3.012   5.558 -0.6000  0.6328 -0.2729
  671SOL    HW3 2457   3.186   3.116   5.575  0.3580 -0.3974  0.0349
  671SOL    MW4 2458   3.159   3.038   5.547 -0.3503 -0.2360 -0.0613
  672SOL     OW 2459   2.318   3.553   1.364  0.0898  0.3712  0.4251
  672SOL    HW2 2460   2.365   3.502   1.431 -2.8954 -0.6117  1.9907
  672SOL    HW3 2461   2.284   3.487   1.304 -0.7132  0.8554  0.3346
  672SOL    MW4 2462   2.319   3.537   1.365 -0.2468 -0.4252  0.4500
  673SOL     OW 2463   3.812   0.916   3.034 -0.6935  0.2848 -0.3088
  673SOL    HW2 2464   3.772   0.937   3.118  1.6929 -0.6017  1.1449
  673SOL    HW3 2465   3.765   0.839   3.003 -1.5990  0.6241  0.1870
  673SOL    MW4 2466   3.801   0.909   3.041  0.1762 -0.7039  0.3749
  674SOL     OW 2467   3.664   3.922   4.909  0.5319 -0.2822  0.2940
  674SOL    HW2 2468   3.740   3.897   4.961  2.0025  1.6572 -0.7995
  674SOL    HW3 2469   3.610   3.973   4.968  0.0955 -1.5732  1.0457
  674SOL    MW4 2470   3.667   3.925   4.923  0.4109 -0.2923 -0.5911
  675SOL     OW 2471   3.109   1.478   2.995 -0.2149 -0.2523  0.5356
  675SOL    HW2 2472   3.037   1.419   3.015  0.0729 -0.8127 -0.0490
  675SOL    HW3 2473   3.126   1.524   3.077 -0.0858 -1.3707  1.1625
  675SOL    MW4 2474   3.102   1.476   3.009  0.1309 -0.3672  0.5297
  676SOL     OW 2475   1.026   1.626   3.639 -0.2416 -0.3884  0.3847
  676SOL    HW2 2476   1.018   1.686   3.565  1.3209  0.6188  0.9796
  676SOL    HW3 2477   1.007   1.539   3.603 -0.8154  0.2360 -0.8743
  676SOL    MW4 2478   1.022   1.622   3.625 -0.4947 -0.3618 -0.2958
  677SOL     OW 2479   3.764   6.182   1.110  0.1857  0.2513  0.2028
  677SOL    HW2 2480   3.821   6.165   1.035  1.5351 -1.0458  1.4502
  677SOL    HW3 2481   3.685   6.130   1.093  0.4828 -0.0404 -0.3039
  677SOL    MW4 2482   3.761   6.173   1.098  0.2747 -0.3580 -0.1668
  678SOL     OW 2483   2.010   6.042   6.406  0.1439 -0.0236 -0.0151
  678SOL    HW2 2484   1.976   6.080   6.325 -2.4069 -1.1506  0.4329
  678SOL    HW3 2485   2.093   6.087   6.420  0.2095  0.8970 -2.7201
  678SOL    MW4 2486   2.016   6.053   6.397 -0.3452  0.0837 -0.3018
  679SOL     OW 2487   0.915   1.753   0.463 -0.3835  0.5881 -0.2081
  679SOL    HW2 2488   0.954   1.696   0.530 -0.4688 -0.2531 -0.8667
  679SOL    HW3 2489   0.854   1.697   0.415 -1.0654  1.4380 -0.3634
  679SOL    MW4 2490   0.912   1.738   0.466  0.1632  0.2485  0.0364
  680SOL     OW 2491   0.386   1.637   1.766 -0.2086 -0.6572  0.2972
  680SOL    HW2 2492   0.295   1.645   1.738  0.2824  0.4345 -1.0450
  680SOL    HW3 2493   0.420   1.563   1.715 -0.2213 -0.8144  0.5125
  680SOL    MW4 2494   0.379   1.628   1.756  0.2380 -0.6505 -0.4831
  681SOL     OW 2495   4.786   2.207   6.045 -0.0229  0.1341 -0.1481
  681SOL    HW2 2496   4.751   2.119   6.031 -0.8632  0.3446  0.4809
  681SOL    HW3 2497   4.710   2.258   6.075  0.4466  1.0756 -0.5233
  681SOL    MW4 2498   4.771   2.202   6.047  0.7410 -0.1760  0.6826
  682SOL     OW 2499   1.383   3.215   4.554 -0.0059 -0.3045  0.1849
  682SOL    HW2 2500   1.316   3.218   4.622 -0.0640  1.1403  0.0968
  682SOL    HW3 2501   1.372   3.129   4.514  0.4651 -1.4681  2.4068
  682SOL    MW4 2502   1.372   3.204   4.558  0.0847  0.4994  0.3469
  683SOL     OW 2503   3.971   5.565   2.328  0.3709 -0.2320  0.3425
  683SOL    HW2 2504   3.922   5.511   2.266 -0.2007 -0.1851  0.7407
  683SOL    HW3 2505   4.056   5.578   2.287 -0.4429  0.9618 -1.0815
  683SOL    MW4 2506   3.976   5.560   2.314 -0.0055 -0.0174  0.0692
  684SOL     OW 2507   5.234   0.447   1.919 -0.0678  0.0922  0.0112
  684SOL    HW2 2508   5.263   0.500   1.845 -0.6218 -0.6691 -0.7704
  684SOL    HW3 2509   5.315   0.413   1.957  0.2679  1.2019  0.3062
  684SOL    MW4 2510   5.249   0.450   1.914 -0.2224 -0.1466 -0.0731
  685SOL     OW 2511   4.507   4.187   0.624  0.0377  0.0527  0.2332
  685SOL    HW2 2512   4.469   4.247   0.561  1.1167 -1.2822 -1.8142
  685SOL    HW3 2513   4.584   4.233   0.659 -0.1377  0.5114  0.0159
  685SOL    MW4 2514   4.513   4.201   0.620  0.1488  0.6595 -0.5741
  686SOL     OW 2515   5.492   2.418   0.417 -0.0573 -0.2555 -0.3911
  686SOL    HW2 2516   5.425   2.351   0.434  1.1879 -1.8588 -1.5309
  686SOL    HW3 2517   5.552   2.411   0.492  0.2286 -0.6206 -0.6533
  686SOL    MW4 2518   5.491   2.408   0.429  0.1218 -0.7183 -0.1047
  687SOL     OW 2519   0.613   5.076   2.175 -0.4252  0.1064  0.0810
  687SOL    HW2 2520   0.690   5.052   2.122 -1.5320 -0.9466 -1.1066
  687SOL    HW3 2521   0.640   5.057   2.265  0.4473 -1.0286 -0.3906
  687SOL    MW4 2522   0.627   5.070   2.180  0.0787  0.1451  0.2474
  688SOL     OW 2523   6.349   0.181   1.097 -0.1490  0.1581 -0.1077
  688SOL    HW2 2524   6.366   0.222   1.012 -2.6321  1.3362 -0.1385
  688SOL    HW3 2525   6.254   0.186   1.106 -0.1533 -2.0347  1.7428
  688SOL    MW4 2526   6.339   0.187   1.087  0.2516  0.4963 -0.5325
  689SOL     OW 2527   1.875   4.837   3.126  0.1773  0.0428  0.0867
  689SOL    HW2 2528   1.953   4.818   3.075  0.5014 -0.3465  0.7166
  689SOL    HW3 2529   1.904   4.833   3.217 -0.7451 -0.9644  0.3619
  689SOL    MW4 2530   1.889   4.834   3.131 -0.3701  0.2724  0.1490
  690SOL     OW 2531   1.048   3.382   4.390 -0.2219  0.2387 -0.1811
  690SOL    HW2 2532   1.073   3.431   4.312 -0.9970  2.3148  0.7995
  690SOL    HW3 2533   0.964   3.342   4.368 -0.7751  1.3868 -0.2147
  690SOL    MW4 2534   1.040   3.383   4.377  0.1260 -0.6141 -0.2793
  691SOL     OW 2535   2.406   2.426   1.013  0.2191 -0.1917 -0.3299
  691SOL    HW2 2536   2.429   2.399   1.102 -1.4377  0.4040  0.3220
  691SOL    HW3 2537   2.388   2.344   0.967  0.6324 -0.4801  0.0160
  691SOL    MW4 2538   2.407   2.411   1.019  0.3094  0.3932 -0.4051
  692SOL     OW 2539   3.509   3.384   1.948  0.0163 -0.2456 -0.6839
  692SOL    HW2 2540   3.589   3.345   1.983  0.6503 -0.0676 -1.8728
  692SOL    HW3 2541   3.455   3.403   2.025  0.1542 -2.4279 -0.0016
  692SOL    MW4 2542   3.513   3.382   1.963  0.3039  0.7749  0.2522
  693SOL     OW 2543   2.384   3.674   5.782  0.3092 -0.0335  0.2593
  693SOL    HW2 2544   2.452   3.733   5.749 -1.0896  1.4693 -0.0366
  693SOL    HW3 2545   2.308   3.691   5.727 -0.6017 -1.0350  1.1603
  693SOL    MW4 2546   2.383   3.684   5.770 -0.1035  0.1920 -0.7492
  694SOL     OW 2547   6.238   0.131   3.239 -0.8601  0.1547 -0.0723
  694SOL    HW2 2548   6.333   0.138   3.236 -0.2992 -3.4170  2.6339
  694SOL    HW3 2549   6.213   0.110   3.149  1.1653 -0.7155 -0.4879
  694SOL    MW4 2550   6.247   0.129   3.227 -0.0378 -0.3399  0.4632
  695SOL     OW 2551   1.249   5.982   1.894 -0.3140  0.6696  0.1665
  695SOL    HW2 2552   1.205   5.941   1.968  1.3650 -3.1409 -0.7047
  695SOL    HW3 2553   1.191   5.966   1.819 -0.3068  1.1805  0.0508
  695SOL    MW4 2554   1.236   5.974   1.894 -0.5309 -0.1924 -0.1031
  696SOL     OW 2555   0.828   3.940   2.831  0.0677  0.7504 -0.7911
  696SOL    HW2 2556   0.788   3.881   2.766  1.1525  0.0494 -0.8471
  696SOL    HW3 2557   0.768   3.937   2.905  0.0863 -0.4469 -0.7930
  696SOL    MW4 2558   0.815   3.931   2.832  0.4594 -0.5684 -0.4134
  697SOL     OW 2559   0.422   4.887   1.149 -0.2493 -0.1996 -0.2254
  697SOL    HW2 2560   0.378   4.962   1.108  4.3102  1.7241 -2.2068
  697SOL    HW3 2561   0.407   4.899   1.243 -3.3847  0.4790 -0.6953
  697SOL    MW4 2562   0.414   4.898   1.156  0.3657  0.1569  0.6493
  698SOL     OW 2563   4.546   5.773   3.633 -0.0962  0.5574 -0.2130
  698SOL    HW2 2564   4.473   5.766   3.694 -0.7583  3.5844 -0.4693
  698SOL    HW3 2565   4.623   5.786   3.688  0.5291 -3.3351  0.0888
  698SOL    MW4 2566   4.546   5.774   3.648  0.0977 -0.4158 -0.2330
  699SOL     OW 2567   1.481   0.101   0.023 -0.1750 -0.1204 -0.4598
  699SOL    HW2 2568   1.502   0.026   0.078  0.0168 -0.3877 -0.8898
  699SOL    HW3 2569   1.420   0.153   0.075  1.1794  0.4352  0.6233
  699SOL    MW4 2570   1.476   0.098   0.037 -0.1569  0.1267 -0.5326
  700SOL     OW 2571   3.147   6.274   4.137  0.1057  0.1523  0.4628
  700SOL    HW2 2572   3.103   6.235   4.061  0.2169  0.0198  0.4651
  700SOL    HW3 2573   3.236   6.293   4.105 -0.3198  1.5685  0.0816
  700SOL    MW4 2574   3.153   6.271   4.122 -0.0159 -0.0852  0.1819
  701SOL     OW 2575   5.514   1.234   5.945  0.5908  0.6171 -0.1342
  701SOL    HW2 2576   5.559   1.277   6.018  0.5993  1.2495 -0.5078
  701SOL    HW3 2577   5.507   1.143   5.972  1.8079  0.5704  0.0751
  701SOL    MW4 2578   5.519   1.228   5.958 -0.3237  0.5537  0.2467
  702SOL     OW 2579   6.225   0.508   1.408  0.1578 -0.1938 -0.0331
  702SOL    HW2 2580   6.218   0.600   1.434 -0.6868 -0.4246  0.5828
  702SOL    HW3 2581   6.162   0.462   1.463  0.8472 -1.2078 -0.0564
  702SOL    MW4 2582   6.216   0.514   1.419 -0.0467 -0.0657  0.4262
  703SOL     OW 2583   3.794   2.917   4.896  0.0304 -0.2110  0.1968
  703SOL    HW2 2584   3.724   2.869   4.939 -1.4915  0.3105 -1.5316
  703SOL    HW3 2585   3.844   2.851   4.848 -0.6084 -0.3546 -0.2778
  703SOL    MW4 2586   3.792   2.902   4.895 -0.0177 -0.2049  0.0024
  704SOL     OW 2587   2.998   5.377   1.613  0.5094  0.0113  0.0492
  704SOL    HW2 2588   2.975   5.438   1.683 -0.6229  2.4777 -2.2832
  704SOL    HW3 2589   2.914   5.341   1.584  1.1031 -2.2569  0.9207
  704SOL    MW4 2590   2.984   5.380   1.619 -0.3616  0.1565  0.4593
  705SOL     OW 2591   5.474   1.383   2.475 -0.1396  0.1679 -0.4632
  705SOL    HW2 2592   5.529   1.456   2.501  1.1027 -1.3023  1.3014
  705SOL    HW3 2593   5.431   1.354   2.556 -2.3368  0.2708 -1.5033
  705SOL    MW4 2594   5.475   1.388   2.489 -0.2945  0.6556  0.5110
  706SOL     OW 2595   3.459   1.868   0.174  1.3098  0.3401 -0.2295
  706SOL    HW2 2596   3.387   1.894   0.117  1.7995  1.4890 -0.3427
  706SOL    HW3 2597   3.507   1.802   0.122 -0.0218 -0.9622  0.1307
  706SOL    MW4 2598   3.456   1.863   0.159  0.5064  0.2125  0.2468
  707SOL     OW 2599   1.201   4.240   2.598  0.3634  0.6226  0.2912
  707SOL    HW2 2600   1.126   4.265   2.653 -0.1203 -0.3014  0.0656
  707SOL    HW3 2601   1.170   4.256   2.509  0.4635  0.3209  0.2022
  707SOL    MW4 2602   1.187   4.246   2.594  0.1951  0.4938 -0.0348
  708SOL     OW 2603   2.930   3.280   1.756  0.7301  0.4496 -0.4665
  708SOL    HW2 2604   2.920   3.221   1.830 -3.1050  1.1616 -0.1958
  708SOL    HW3 2605   2.867   3.248   1.691  2.2071  1.3100 -2.4489
  708SOL    MW4 2606   2.920   3.268   1.757 -0.1271  0.1454  0.3375
  709SOL     OW 2607   2.652   2.808   1.428 -0.4376 -0.5380  0.0795
  709SOL    HW2 2608   2.705   2.830   1.352  0.4494  0.6801  1.0024
  709SOL    HW3 2609   2.710   2.754   1.483 -0.9266 -1.0686  0.0791
  709SOL    MW4 2610   2.667   2.804   1.425 -0.4548  0.5660 -0.0589
  710SOL     OW 2611   0.935   0.344   5.746  0.1892 -0.1230  0.3951
  710SOL    HW2 2612   0.889   0.320   5.665  0.5575 -2.1062  0.7422
  710SOL    HW3 2613   0.962   0.435   5.731 -0.2763 -0.2465 -1.4744
  710SOL    MW4 2614   0.933   0.353   5.733 -0.4536  0.1208  0.3934
  711SOL     OW 2615   4.345   3.858   1.822 -0.0724 -0.1586 -0.3539
  711SOL    HW2 2616   4.432   3.834   1.856 -0.3695 -0.5399  0.1495
  711SOL    HW3 2617   4.363   3.924   1.755  0.5489  0.4013  0.3501
  711SOL    MW4 2618   4.359   3.863   1.818 -0.6318  0.1373  0.5861
  712SOL     OW 2619   2.569   3.576   4.069 -0.1489 -0.2141 -0.2866
  712SOL    HW2 2620   2.514   3.521   4.014  0.6047 -0.4348 -0.8342
  712SOL    HW3 2621   2.655   3.573   4.029  0.2280  0.2882  0.4414
  712SOL    MW4 2622   2.573   3.569   4.057 -0.1591 -0.7297 -0.3917
  713SOL     OW 2623   2.829   5.380   2.056  0.3092 -0.1479 -0.1550
  713SOL    HW2 2624   2.745   5.371   2.010 -0.0686 -1.1153  0.6868
  713SOL    HW3 2625   2.876   5.299   2.034  0.9497  0.3072 -0.4720
  713SOL    MW4 2626   2.824   5.368   2.047  0.2819  0.0481  0.0616
  714SOL     OW 2627   3.985   3.687   2.536  0.7726 -0.1823  0.2078
  714SOL    HW2 2628   3.969   3.595   2.518  1.6553  0.0325 -1.9825
  714SOL    HW3 2629   3.926   3.708   2.609 -1.9668 -1.6585 -1.3944
  714SOL    MW4 2630   3.975   3.678   2.543  0.6331  0.5274  0.9568
  715SOL     OW 2631   5.113   2.400   3.419 -0.3287  0.4809 -0.0062
  715SOL    HW2 2632   5.037   2.355   3.381 -0.1199  1.1674 -1.2873
  715SOL    HW3 2633   5.187   2.366   3.369  0.0589  0.7248  0.4039
  715SOL    MW4 2634   5.113   2.389   3.407 -0.7143 -0.3142  0.1632
  716SOL     OW 2635   0.638   5.403   3.598  0.0124 -0.1596 -0.3066
  716SOL    HW2 2636   0.693   5.422   3.522  0.2738  0.0458 -0.0688
  716SOL    HW3 2637   0.698   5.368   3.663  0.1685  1.5754  0.5393
  716SOL    MW4 2638   0.653   5.401   3.596  0.1151  0.4748  0.3275
  717SOL     OW 2639   3.895   4.949   2.582  0.0085  0.2705  0.1575
  717SOL    HW2 2640   3.911   4.933   2.675  1.5890 -2.1026 -0.4428
  717SOL    HW3 2641   3.800   4.942   2.573 -0.3459  2.0790  1.7938
  717SOL    MW4 2642   3.885   4.946   2.593 -0.3425 -0.1941 -0.2726
  718SOL     OW 2643   2.040   3.771   4.771  0.4779 -0.1058  0.4139
  718SOL    HW2 2644   2.119   3.767   4.716 -0.4784  2.7318 -1.4180
  718SOL    HW3 2645   2.023   3.681   4.795  3.0166 -1.0778 -0.9848
  718SOL    MW4 2646   2.048   3.759   4.767  0.3816  0.2313 -0.7474
  719SOL     OW 2647   1.700   0.667   3.781 -0.2907 -0.6581  0.6861
  719SOL    HW2 2648   1.782   0.674   3.830 -1.4542 -0.7095  2.7554
  719SOL    HW3 2649   1.725   0.630   3.697  2.3874  2.9674 -0.3873
  719SOL    MW4 2650   1.714   0.663   3.776 -0.6834  0.1331 -0.1588
  720SOL     OW 2651   3.211   3.245   5.280 -0.7396  0.1358 -0.2395
  720SOL    HW2 2652   3.304   3.225   5.289 -0.4057  1.9629  0.9212
  720SOL    HW3 2653   3.196   3.246   5.185  1.0129  2.0898 -0.5769
  720SOL    MW4 2654   3.222   3.243   5.269  0.0260 -0.2644 -0.2330
  721SOL     OW 2655   4.412   2.716   1.513  0.3356  0.0215 -0.3509
  721SOL    HW2 2656   4.356   2.755   1.580 -1.1870 -0.4850 -1.2744
  721SOL    HW3 2657   4.495   2.698   1.558  0.5995  2.8272  0.5151
  721SOL    MW4 2658   4.416   2.719   1.528 -0.0654  0.8621 -0.3319
  722SOL     OW 2659   2.417   2.025   1.103  0.1498  0.2009  0.0656
  722SOL    HW2 2660   2.361   1.947   1.100  0.3236  0.1071 -1.0929
  722SOL    HW3 2661   2.507   1.990   1.104  0.2337  0.3797 -0.6938
  722SOL    MW4 2662   2.422   2.010   1.103 -0.8961  0.0828 -0.2898
  723SOL     OW 2663   2.455   0.453   4.396  0.0724 -0.6383 -0.5642
  723SOL    HW2 2664   2.464   0.480   4.487  0.2975 -0.5504 -0.6103
  723SOL    HW3 2665   2.369   0.412   4.391 -1.6231  2.6617 -1.1504
  723SOL    MW4 2666   2.445   0.451   4.407  0.1330  0.6017 -0.0941
  724SOL     OW 2667   2.217   5.897   3.945  0.1383 -0.6549  0.3998
  724SOL    HW2 2668   2.223   5.802   3.958  1.5751 -0.4329  1.6084
  724SOL    HW3 2669   2.165   5.928   4.018  0.2593 -0.4348  0.3929
  724SOL    MW4 2670   2.211   5.888   3.956 -0.3730 -0.5206 -0.3478
  725SOL     OW 2671   2.419   0.203   1.453  0.1729  0.2531 -0.8683
  725SOL    HW2 2672   2.441   0.212   1.360  1.7590  0.2170 -0.5328
  725SOL    HW3 2673   2.401   0.110   1.465  0.2433  0.2113 -1.0886
  725SOL    MW4 2674   2.420   0.192   1.442 -0.4500 -0.1169  0.0104
  726SOL     OW 2675   2.074   3.662   1.882 -0.6808 -0.5079  0.1231
  726SOL    HW2 2676   2.050   3.590   1.824  0.2675 -1.1447  0.5017
  726SOL    HW3 2677   2.164   3.643   1.909  0.6022  2.1116 -1.7942
  726SOL    MW4 2678   2.083   3.650   1.878 -0.0543  0.3248  0.1115
  727SOL     OW 2679   0.568   2.153   3.809  0.6507  0.4497  0.1774
  727SOL    HW2 2680   0.610   2.210   3.874  0.9151  0.2658  0.1696
  727SOL    HW3 2681   0.515   2.092   3.860 -0.7852  1.5952  0.1315
  727SOL    MW4 2682   0.566   2.152   3.824  0.5999 -0.2021  0.2832
  728SOL     OW 2683   0.074   3.987   2.487 -0.5256  0.1241  0.1175
  728SOL    HW2 2684   0.039   4.072   2.461 -2.4519 -0.7843 -0.4377
  728SOL    HW3 2685   0.076   3.935   2.407  1.3791 -0.1662  0.2945
  728SOL    MW4 2686   0.070   3.991   2.473 -0.2741 -1.1974  0.8172
  729SOL     OW 2687   4.463   5.206   0.185  0.1980  0.1808  0.6980
  729SOL    HW2 2688   4.534   5.181   0.127 -0.8674 -0.6276 -0.3081
  729SOL    HW3 2689   4.384   5.199   0.131 -0.5664  2.0699  1.4664
  729SOL    MW4 2690   4.462   5.202   0.170 -0.7003  0.1475  0.2500
  730SOL     OW 2691   3.967   1.105   3.850 -0.3174  0.0617 -0.0138
  730SOL    HW2 2692   3.968   1.026   3.905  1.7328 -0.4740 -0.7402
  730SOL    HW3 2693   3.903   1.085   3.782  0.1814 -1.0196 -0.1965
  730SOL    MW4 2694   3.959   1.092   3.849 -0.4671  0.4936 -0.4236
  731SOL     OW 2695   5.918   3.271   6.384 -0.2502  0.7660  0.3329
  731SOL    HW2 2696   5.862   3.348   6.396  0.8909  1.8106 -0.6673
  731SOL    HW3 2697   5.982   3.276   6.455 -0.9451 -0.0211  1.0421
  731SOL    MW4 2698   5.919   3.282   6.395 -0.2242 -0.2913  0.0231
  732SOL     OW 2699   4.736   1.559   1.192  0.1836  0.4617 -0.3462
  732SOL    HW2 2700   4.642   1.545   1.181  0.1078  0.4559  0.2608
  732SOL    HW3 2701   4.742   1.640   1.242  0.5180  0.6885 -0.7515
  732SOL    MW4 2702   4.724   1.567   1.197 -0.2682  0.2653  0.2388
  733SOL     OW 2703   0.073   4.337   3.254  0.2966  0.1587 -0.4482
  733SOL    HW2 2704   0.057   4.362   3.163  1.2228  2.4195 -0.0678
  733SOL    HW3 2705   0.046   4.414   3.305  1.5417 -0.3315  1.0293
  733SOL    MW4 2706   0.067   4.350   3.249 -0.1323 -0.2369 -0.6449
  734SOL     OW 2707   1.212   0.205   3.646 -0.0558 -0.4018  0.3488
  734SOL    HW2 2708   1.248   0.164   3.725 -1.4146 -0.0763  1.1660
  734SOL    HW3 2709   1.156   0.137   3.607 -0.3305 -0.1569  0.3183
  734SOL    MW4 2710   1.209   0.190   3.651 -0.3655  0.1560 -0.1587
  735SOL     OW 2711   6.209   4.472   3.428 -0.1342  0.3725 -0.2060
  735SOL    HW2 2712   6.131   4.519   3.459 -0.1631  1.1556 -1.3710
  735SOL    HW3 2713   6.179   4.383   3.412 -0.2432  0.0913  1.4188
  735SOL    MW4 2714   6.195   4.466   3.430 -0.4419  0.6601  0.4411
  736SOL     OW 2715   2.288   3.413   2.433  0.0416  1.1049  0.0195
  736SOL    HW2 2716   2.278   3.344   2.368 -1.9165  0.0285  1.3622
  736SOL    HW3 2717   2.372   3.396   2.475 -0.8469 -1.1239  1.0150
  736SOL    MW4 2718   2.298   3.402   2.430  0.4278 -0.0005 -0.1157
  737SOL     OW 2719   3.457   1.417   1.158 -0.3789 -0.1136  0.3756
  737SOL    HW2 2720   3.389   1.484   1.155  0.9533  1.2662 -2.3807
  737SOL    HW3 2721   3.408   1.335   1.172 -2.5607  0.9188 -0.6036
  737SOL    MW4 2722   3.441   1.415   1.159  0.8210 -0.1387 -0.1689
  738SOL     OW 2723   3.683   5.479   0.710 -0.0613  0.0813  0.1290
  738SOL    HW2 2724   3.611   5.431   0.669  0.4024 -0.5607  0.0471
  738SOL    HW3 2725   3.761   5.449   0.664  0.7757 -2.3856  2.8324
  738SOL    MW4 2726   3.684   5.469   0.699  0.1426 -0.6405 -0.3240
  739SOL     OW 2727   1.440   2.320   5.687  0.0044  0.0475 -0.1190
  739SOL    HW2 2728   1.465   2.279   5.770 -0.8371  0.0437  0.1493
  739SOL    HW3 2729   1.462   2.412   5.698 -0.4451  0.1135  0.2587
  739SOL    MW4 2730   1.446   2.326   5.699  0.0291  0.0503 -0.1375
  740SOL     OW 2731   1.966   0.379   4.137  0.1809 -0.1363  0.1265
  740SOL    HW2 2732   2.023   0.455   4.123  0.6825 -0.2709  1.2751
  740SOL    HW3 2733   1.959   0.338   4.051  0.4438  0.8324 -0.3741
  740SOL    MW4 2734   1.973   0.383   4.124 -0.3493 -0.0342 -0.0785
  741SOL     OW 2735   4.919   4.455   4.969 -0.0751 -0.4096 -0.0858
  741SOL    HW2 2736   4.848   4.410   4.923  0.6151 -1.5943 -0.0093
  741SOL    HW3 2737   4.998   4.430   4.922  0.6165 -1.3785  1.5249
  741SOL    MW4 2738   4.920   4.446   4.957 -0.2002  0.3523 -0.1322
  742SOL     OW 2739   5.523   4.733   2.428 -0.7637  0.0780  0.0839
  742SOL    HW2 2740   5.601   4.683   2.453 -2.3908 -2.4360  0.4774
  742SOL    HW3 2741   5.550   4.783   2.351  1.0249 -1.3229 -0.2631
  742SOL    MW4 2742   5.537   4.733   2.422  0.4261  0.1100 -0.0151
  743SOL     OW 2743   4.240   2.121   1.829 -0.1540  0.4134  0.1967
  743SOL    HW2 2744   4.261   2.072   1.750  1.0815  2.5565 -0.8971
  743SOL    HW3 2745   4.323   2.128   1.875 -0.2295  1.6900  0.1694
  743SOL    MW4 2746   4.254   2.115   1.825 -0.3217 -0.0113  0.0402
  744SOL     OW 2747   0.513   0.693   2.412 -0.1504  0.4012 -0.3344
  744SOL    HW2 2748   0.545   0.604   2.429  0.6229  0.7110 -0.0933
  744SOL    HW3 2749   0.449   0.683   2.342 -1.2786 -0.5533  0.7913
  744SOL    MW4 2750   0.509   0.680   2.405  0.3996  0.4841  0.8493
  745SOL     OW 2751   0.237   2.946   0.472  0.4807 -0.1735 -0.3938
  745SOL    HW2 2752   0.274   2.890   0.404  0.3900  0.1097 -0.6769
  745SOL    HW3 2753   0.241   3.034   0.435  0.3339 -0.0329 -0.0734
  745SOL    MW4 2754   0.243   2.950   0.458  0.0056  0.4066 -0.2526
  746SOL     OW 2755   5.852   2.167   4.851  0.0671 -0.1380 -0.1601
  746SOL    HW2 2756   5.930   2.199   4.896 -1.5006  0.2819  2.4939
  746SOL    HW3 2757   5.855   2.072   4.863  0.3530 -0.1574 -0.3846
  746SOL    MW4 2758   5.862   2.158   4.859 -0.1619  0.1522 -0.3544
  747SOL     OW 2759   2.379   1.304   0.680  0.0138 -0.0472  0.7355
  747SOL    HW2 2760   2.416   1.318   0.593  1.0541 -0.5657  1.0780
  747SOL    HW3 2761   2.444   1.252   0.726 -1.8070 -2.3645  0.8827
  747SOL    MW4 2762   2.392   1.299   0.675 -0.4359 -0.4152 -0.1805
  748SOL     OW 2763   2.609   0.275   5.680 -0.6259 -0.1269  0.4880
  748SOL    HW2 2764   2.553   0.347   5.708  2.0190  3.6742 -2.7989
  748SOL    HW3 2765   2.573   0.248   5.595  0.6274  0.1081 -0.1382
  748SOL    MW4 2766   2.597   0.281   5.673 -0.3941 -0.1493 -0.1084
  749SOL     OW 2767   3.008   5.146   0.792 -0.6872 -0.2093  0.4618
  749SOL    HW2 2768   3.015   5.097   0.710 -1.0968 -1.6212  1.2431
  749SOL    HW3 2769   2.993   5.237   0.764  0.6080 -0.4065 -1.0285
  749SOL    MW4 2770   3.007   5.152   0.777 -0.0788  0.0776  0.2237
  750SOL     OW 2771   6.129   0.591   2.971 -0.0102  0.7511 -0.2362
  750SOL    HW2 2772   6.078   0.612   3.050 -0.3757  0.6759 -0.4491
  750SOL    HW3 2773   6.146   0.498   2.978  1.5736  1.0802  0.6860
  750SOL    MW4 2774   6.124   0.582   2.982 -0.2345 -0.2910  0.1011
  751SOL     OW 2775   2.350   4.871   2.255  0.1335  0.2744  0.2484
  751SOL    HW2 2776   2.390   4.914   2.180  0.6340  0.2681  0.5043
  751SOL    HW3 2777   2.256   4.877   2.240  0.2321  0.1356 -0.4561
  751SOL    MW4 2778   2.343   4.877   2.243 -0.0546 -0.2677 -0.0032
  752SOL     OW 2779   4.402   6.260   3.253  0.2070  0.0320  0.1153
  752SOL    HW2 2780   4.425   6.167   3.251  0.5790  0.1155  0.3562
  752SOL    HW3 2781   4.480   6.305   3.221 -1.0278  0.0985 -3.1118
  752SOL    MW4 2782   4.415   6.254   3.249 -0.7282 -0.6817  0.0739
  753SOL     OW 2783   3.021   5.630   3.237  0.4402  0.1373 -0.2694
  753SOL    HW2 2784   2.953   5.572   3.203  1.5711 -1.1422 -0.4552
  753SOL    HW3 2785   2.992   5.651   3.326 -0.7120  0.5031 -0.7127
  753SOL    MW4 2786   3.008   5.625   3.244 -0.3721  0.3448 -0.2948
  754SOL     OW 2787   2.079   0.145   3.337  0.3877  0.0289  0.4618
  754SOL    HW2 2788   2.144   0.212   3.314 -0.0372  0.8282  1.4966
  754SOL    HW3 2789   2.037   0.123   3.254  2.8899 -1.5517 -0.5033
  754SOL    MW4 2790   2.082   0.151   3.323  0.1911 -0.6762 -0.0982
  755SOL     OW 2791   2.012   0.454   2.507  0.1995  0.2992  0.2361
  755SOL    HW2 2792   2.041   0.378   2.457  0.9006  0.8173 -0.1667
  755SOL    HW3 2793   2.060   0.527   2.469  0.1577  0.8221  1.1639
  755SOL    MW4 2794   2.022   0.454   2.495  0.2749 -0.0756 -0.4375
  756SOL     OW 2795   0.628   0.648   3.626 -0.0904  0.2679  0.0040
  756SOL    HW2 2796   0.640   0.554   3.613  0.8361  0.2300  0.9922
  756SOL    HW3 2797   0.663   0.687   3.546  0.9870 -0.1684  0.2348
  756SOL    MW4 2798   0.634   0.640   3.614  0.2755  0.6237  0.3941
  757SOL     OW 2799   1.276   1.962   3.948 -0.2660 -0.1015 -0.0152
  757SOL    HW2 2800   1.257   2.009   3.867 -1.2868 -0.8268 -0.2231
  757SOL    HW3 2801   1.371   1.961   3.954 -0.2083  1.5588 -0.2375
  757SOL    MW4 2802   1.286   1.968   3.938 -0.1856 -0.9130  0.1127
  758SOL     OW 2803   2.038   5.871   1.601 -0.2096 -0.2606  0.1215
  758SOL    HW2 2804   1.977   5.942   1.621 -0.5389 -0.4068 -0.3544
  758SOL    HW3 2805   2.072   5.892   1.514  0.0078 -0.4689  0.1539
  758SOL    MW4 2806   2.035   5.883   1.592 -0.1843 -0.1041  0.1751
  759SOL     OW 2807   2.284   4.509   2.875  0.5023 -0.0060 -0.1161
  759SOL    HW2 2808   2.327   4.483   2.956 -0.5199  0.9914  0.7796
  759SOL    HW3 2809   2.335   4.584   2.844  2.4115 -1.8421 -1.7949
  759SOL    MW4 2810   2.297   4.516   2.881 -0.0948 -0.5116  0.1590
  760SOL     OW 2811   4.363   3.626   6.147  0.6713 -0.2046  0.4441
  760SOL    HW2 2812   4.276   3.625   6.187  1.1879  1.4229  1.7408
  760SOL    HW3 2813   4.373   3.715   6.113  2.5321  0.2887  2.0882
  760SOL    MW4 2814   4.353   3.638   6.148 -0.3179  0.2076 -0.0489
  761SOL     OW 2815   0.316   6.009   5.861 -1.0413  0.0670  0.2551
  761SOL    HW2 2816   0.343   5.925   5.899  0.9476  0.6560  0.2586
  761SOL    HW3 2817   0.327   6.072   5.932  1.7321  1.0081 -0.8658
  761SOL    MW4 2818   0.321   6.006   5.875 -0.6224 -0.1902  0.0319
  762SOL     OW 2819   1.565   6.167   2.888 -0.1018 -0.2695 -0.6088
  762SOL    HW2 2820   1.482   6.125   2.911  0.2553 -0.3283  0.6505
  762SOL    HW3 2821   1.541   6.258   2.869 -0.2065  0.3993  2.2276
  762SOL    MW4 2822   1.551   6.174   2.889 -0.0231 -0.1944 -0.5455
  763SOL     OW 2823   0.818   3.489   6.322 -0.5818 -0.9300 -0.4538
  763SOL    HW2 2824   0.833   3.438   6.401  2.2680 -2.2487 -1.6857
  763SOL    HW3 2825   0.775   3.428   6.262 -2.9717  0.1392  0.0676
  763SOL    MW4 2826   0.815   3.474   6.324  0.4499 -0.0924 -0.3721
  764SOL     OW 2827   3.252   4.108   3.155  0.7448 -0.1015  0.5738
  764SOL    HW2 2828   3.300   4.148   3.228 -0.8872  1.6079  0.7998
  764SOL    HW3 2829   3.160   4.127   3.174  0.2679  0.5014 -1.9814
  764SOL    MW4 2830   3.246   4.116   3.167  0.0659 -0.4056 -0.0195
  765SOL     OW 2831   5.735   5.312   4.381 -0.1573 -0.2273  0.1935
  765SOL    HW2 2832   5.778   5.386   4.425 -0.3040 -0.3145  0.4907
  765SOL    HW3 2833   5.779   5.235   4.418  1.9794 -0.2565 -2.1539
  765SOL    MW4 2834   5.747   5.312   4.392  0.2588 -0.2457  0.1357
  766SOL     OW 2835   2.732   1.654   0.661  0.5055 -0.6435 -0.2112
  766SOL    HW2 2836   2.732   1.723   0.727 -1.3378 -1.3657  0.6369
  766SOL    HW3 2837   2.643   1.655   0.626  0.3249 -2.7598  0.0565
  766SOL    MW4 2838   2.720   1.663   0.665 -0.9080 -0.2733  0.0705
  767SOL     OW 2839   3.988   0.976   5.060  0.4013 -0.4884 -0.4873
  767SOL    HW2 2840   4.081   0.954   5.058  0.6557  0.4935 -0.2538
  767SOL    HW3 2841   3.960   0.970   4.968  1.3111  1.5600 -0.9626
  767SOL    MW4 2842   3.997   0.973   5.048  0.2322 -0.5318 -0.2528
  768SOL     OW 2843   4.596   2.540   3.466 -0.5790 -0.3668 -0.2450
  768SOL    HW2 2844   4.674   2.526   3.519  0.4967  1.1060 -1.3443
  768SOL    HW3 2845   4.623   2.605   3.401 -3.0434  1.0134  0.0037
  768SOL    MW4 2846   4.610   2.547   3.464  1.0167 -0.4182  0.1612
  769SOL     OW 2847   3.644   4.132   5.237 -0.2807  0.9445  0.3966
  769SOL    HW2 2848   3.563   4.097   5.274 -0.0512 -0.6927 -0.5386
  769SOL    HW3 2849   3.622   4.149   5.145  0.6118 -0.2817 -0.0731
  769SOL    MW4 2850   3.630   4.129   5.229 -0.0178 -0.0354 -0.9618
  770SOL     OW 2851   0.948   4.828   4.329  0.4730 -0.5147 -0.1222
  770SOL    HW2 2852   0.970   4.745   4.287 -1.9758 -0.3281 -1.9530
  770SOL    HW3 2853   0.955   4.893   4.259  0.2756  0.5032  0.7755
  770SOL    MW4 2854   0.952   4.826   4.314  0.0533  0.4876  0.5192
  771SOL     OW 2855   1.895   1.396   2.074  0.2170 -0.1369 -0.1453
  771SOL    HW2 2856   1.942   1.474   2.045 -0.0798  0.0716 -0.0635
  771SOL    HW3 2857   1.892   1.340   1.997  0.3805 -0.0463 -0.2197
  771SOL    MW4 2858   1.901   1.399   2.060 -0.3510  0.2344  0.8553
  772SOL     OW 2859   4.691   2.587   2.898  0.4121  0.3035 -0.7802
  772SOL    HW2 2860   4.604   2.620   2.920 -0.2068 -1.6088 -0.0934
  772SOL    HW3 2861   4.674   2.502   2.857  1.9551 -1.5175  1.9745
  772SOL    MW4 2862   4.678   2.580   2.896  0.1059 -0.4969 -0.4423
  773SOL     OW 2863   1.903   3.537   4.890 -0.1114 -0.0238  0.1847
  773SOL    HW2 2864   1.847   3.578   4.956  0.9657 -0.2334  1.2574
  773SOL    HW3 2865   1.852   3.463   4.858 -0.9828  0.5711  0.1667
  773SOL    MW4 2866   1.889   3.533   4.894  0.8254 -0.5659  0.7795
  774SOL     OW 2867   4.280   3.140   0.453  0.5229  0.1923 -0.0913
  774SOL    HW2 2868   4.323   3.059   0.479 -0.3380 -0.0157  0.7421
  774SOL    HW3 2869   4.286   3.141   0.357 -0.1365 -1.2407 -0.1750
  774SOL    MW4 2870   4.287   3.130   0.444  0.3579  0.0579  0.5123
  775SOL     OW 2871   5.211   0.836   3.559 -0.6577 -0.0417  0.3951
  775SOL    HW2 2872   5.228   0.926   3.529 -1.4677 -0.1247 -0.3422
  775SOL    HW3 2873   5.191   0.787   3.479 -0.5379 -0.8108  0.8257
  775SOL    MW4 2874   5.211   0.842   3.544 -0.4853  0.1422 -0.3396
  776SOL     OW 2875   4.279   3.898   3.182 -0.2429  0.4501 -0.8060
  776SOL    HW2 2876   4.244   3.885   3.093 -0.5272 -2.5773 -0.3373
  776SOL    HW3 2877   4.374   3.889   3.171 -0.1335  1.5913 -0.9788
  776SOL    MW4 2878   4.287   3.895   3.169 -0.4988  0.1659  0.2781
  777SOL     OW 2879   5.235   3.212   0.325 -0.2391 -0.1337  0.5329
  777SOL    HW2 2880   5.275   3.295   0.352  0.8230 -0.1052 -1.0221
  777SOL    HW3 2881   5.249   3.153   0.399  3.1243 -0.2633 -0.0585
  777SOL    MW4 2882   5.242   3.215   0.339  0.1840  0.3408  0.5029
  778SOL     OW 2883   1.275   5.156   4.875  0.3255 -0.3352  0.7148
  778SOL    HW2 2884   1.190   5.164   4.832  1.4901 -1.3343 -1.9274
  778SOL    HW3 2885   1.280   5.064   4.901 -0.4102  0.2669  3.3107
  778SOL    MW4 2886   1.264   5.145   4.873  0.0918 -0.1026  0.3980
  779SOL     OW 2887   0.698   5.836   5.507 -0.2931 -0.2707 -0.3565
  779SOL    HW2 2888   0.669   5.923   5.534 -1.9430 -0.9671  0.2256
  779SOL    HW3 2889   0.772   5.817   5.565 -0.1831  0.5686 -0.2111
  779SOL    MW4 2890   0.704   5.845   5.518 -0.0092  0.7864 -0.5568
  780SOL     OW 2891   5.001   0.811   4.260  0.1420 -0.3516 -0.1997
  780SOL    HW2 2892   4.977   0.720   4.243 -0.8650 -0.3389  0.9901
  780SOL    HW3 2893   4.935   0.862   4.212  0.1560 -0.2586 -0.1188
  780SOL    MW4 2894   4.989   0.806   4.251  0.1144  0.0976 -0.4996
  781SOL     OW 2895   4.487   0.048   0.778 -0.3255 -0.0483 -0.2585
  781SOL    HW2 2896   4.410   0.102   0.759  0.3699  0.6865 -1.0717
  781SOL    HW3 2897   4.540   0.053   0.698 -0.8087 -2.9696 -0.8883
  781SOL    MW4 2898   4.484   0.056   0.765  0.5987  0.6169  0.4442
  782SOL     OW 2899   3.571   1.480   4.132 -0.3969  0.1069 -0.1115
  782SOL    HW2 2900   3.518   1.538   4.077  0.3412 -0.1494 -1.1288
  782SOL    HW3 2901   3.620   1.426   4.069  1.6802  0.8894  0.7418
  782SOL    MW4 2902   3.571   1.481   4.116  0.5948  0.1827 -0.1763
  783SOL     OW 2903   5.673   0.156   1.271  0.4038 -0.1727  0.1268
  783SOL    HW2 2904   5.733   0.120   1.207  0.0882 -0.2250 -0.1400
  783SOL    HW3 2905   5.726   0.166   1.351  0.8964  0.2517 -0.2478
  783SOL    MW4 2906   5.688   0.153   1.273  0.1163 -0.6947  0.1133
  784SOL     OW 2907   0.348   1.734   1.457  0.0485  0.1753  0.1209
  784SOL    HW2 2908   0.308   1.647   1.459 -0.1869  0.2667 -0.5155
  784SOL    HW3 2909   0.442   1.716   1.444  0.0798  0.0004  0.5679
  784SOL    MW4 2910   0.355   1.720   1.456  0.1137  0.6740 -0.0213
  785SOL     OW 2911   1.855   2.291   6.127  0.6910 -0.5210  0.0476
  785SOL    HW2 2912   1.859   2.277   6.222 -0.1668 -0.0127  0.1734
  785SOL    HW3 2913   1.934   2.341   6.106  0.1868  0.6047  0.7335
  785SOL    MW4 2914   1.866   2.296   6.137 -0.1591  0.1794 -0.3124
  786SOL     OW 2915   3.759   3.625   1.811  0.3421 -0.3565 -0.5739
  786SOL    HW2 2916   3.707   3.651   1.887 -1.1139  0.5723 -1.8228
  786SOL    HW3 2917   3.844   3.665   1.825  0.0024  0.0463  0.4126
  786SOL    MW4 2918   3.763   3.633   1.823  1.0853  0.3618 -0.0855
  787SOL     OW 2919   4.323   2.060   5.007 -0.8655  0.0375  0.1086
  787SOL    HW2 2920   4.281   2.110   5.077 -1.7932 -1.4024  0.6222
  787SOL    HW3 2921   4.400   2.020   5.049 -0.4536  0.5549 -0.1475
  787SOL    MW4 2922   4.328   2.061   5.022 -0.3309  0.0534 -0.8775
  788SOL     OW 2923   4.163   5.639   1.212 -0.9458  0.0145 -0.6150
  788SOL    HW2 2924   4.241   5.595   1.246 -1.5353 -1.3924 -1.0074
  788SOL    HW3 2925   4.119   5.673   1.289  0.2084  1.1288 -0.4102
  788SOL    MW4 2926   4.168   5.637   1.227 -0.2917 -0.5268 -0.3280
  789SOL     OW 2927   5.283   2.599   3.532 -0.0542 -0.6119  0.1106
  789SOL    HW2 2928   5.209   2.555   3.490 -0.3489 -1.4940  1.5029
  789SOL    HW3 2929   5.243   2.659   3.595  0.1125  4.4900 -3.9659
  789SOL    MW4 2930   5.268   2.601   3.535 -0.7204  1.0188 -0.0132
  790SOL     OW 2931   1.264   2.107   1.049  0.2019  0.4996  0.5351
  790SOL    HW2 2932   1.182   2.156   1.058 -1.1327 -1.4226 -0.3909
  790SOL    HW3 2933   1.279   2.105   0.954  1.2537  0.7035  0.6921
  790SOL    MW4 2934   1.255   2.113   1.037 -0.1057  0.4191  0.0925
  791SOL     OW 2935   1.929   3.289   5.049 -0.5410  0.1721 -0.2868
  791SOL    HW2 2936   1.949   3.305   4.957 -1.3008  1.1881 -0.2899
  791SOL    HW3 2937   2.014   3.291   5.093  0.0067 -1.8037 -1.1434
  791SOL    MW4 2938   1.943   3.291   5.043  0.1574  0.1204 -0.0890
  792SOL     OW 2939   3.522   2.695   2.488  0.8267  0.5999  0.4017
  792SOL    HW2 2940   3.490   2.722   2.574  0.7931  1.8146  0.0349
  792SOL    HW3 2941   3.546   2.777   2.445  0.4882  0.0460 -0.8860
  792SOL    MW4 2942   3.521   2.709   2.494  0.2879  0.3115 -0.7302
  793SOL     OW 2943   5.027   3.631   2.693  0.1371  0.5581  0.0314
  793SOL    HW2 2944   5.005   3.724   2.690 -0.9048  0.3306 -3.2883
  793SOL    HW3 2945   4.979   3.597   2.768  1.0202  2.7273  1.6900
  793SOL    MW4 2946   5.018   3.639   2.703 -0.0718 -0.3449  0.3397
  794SOL     OW 2947   3.070   1.203   2.085 -0.3281 -0.1512 -0.0833
  794SOL    HW2 2948   2.993   1.147   2.097 -0.1788  0.0078  1.9820
  794SOL    HW3 2949   3.081   1.208   1.991 -1.0948 -2.5847 -0.3744
  794SOL    MW4 2950   3.061   1.196   2.074  0.5589 -0.3501 -0.3508
  795SOL     OW 2951   0.776   4.957   1.051  0.3722 -0.3072 -0.4637
  795SOL    HW2 2952   0.753   4.956   1.144  1.1787 -1.9347 -0.2352
  795SOL    HW3 2953   0.795   5.048   1.031 -0.8895  0.2323  0.6875
  795SOL    MW4 2954   0.776   4.969   1.060 -0.4785 -0.4463  0.0640
  796SOL     OW 2955   5.825   5.833   5.742 -0.1681  0.0060  0.4871
  796SOL    HW2 2956   5.912   5.800   5.762 -0.1786  0.5260  1.4600
  796SOL    HW3 2957   5.803   5.795   5.658  1.4774  0.8041 -0.3419
  796SOL    MW4 2958   5.833   5.824   5.734  0.7774  0.0818  0.0101
  797SOL     OW 2959   3.861   3.634   4.606 -0.4598  0.2612  0.4449
  797SOL    HW2 2960   3.793   3.631   4.673 -0.6850 -0.3551  0.1977
  797SOL    HW3 2961   3.894   3.544   4.600 -0.9580  0.1346 -0.7891
  797SOL    MW4 2962   3.857   3.622   4.614  0.3170 -0.0092  0.1400
  798SOL     OW 2963   3.211   1.932   5.073  0.3188 -0.0192  0.1340
  798SOL    HW2 2964   3.145   1.908   5.138 -1.4396  1.3432 -1.0249
  798SOL    HW3 2965   3.190   2.023   5.049  1.1276 -0.3202 -2.0067
  798SOL    MW4 2966   3.199   1.941   5.078 -0.1146  0.4036 -0.5171
  799SOL     OW 2967   5.209   2.352   3.693  0.4833  0.2806  0.5459
  799SOL    HW2 2968   5.184   2.363   3.602 -4.2800  0.4853  1.6122
  799SOL    HW3 2969   5.228   2.440   3.724 -1.2311  0.7154  0.4535
  799SOL    MW4 2970   5.208   2.365   3.685 -0.1302  0.5433 -0.6894
  800SOL     OW 2971   4.034   5.500   6.094  0.0346  0.1299 -0.1594
  800SOL    HW2 2972   3.957   5.445   6.109 -0.1593  0.4587  0.0937
  800SOL    HW3 2973   4.000   5.574   6.043  0.6110 -0.7777 -1.9531
  800SOL    MW4 2974   4.019   5.503   6.089 -0.5385 -0.6651  0.4003
  801SOL     OW 2975   2.794   2.509   5.375  0.5466 -0.0127  0.7794
  801SOL    HW2 2976   2.819   2.583   5.320 -2.1803  1.8165  1.7764
  801SOL    HW3 2977   2.740   2.454   5.318  0.6373  0.0071  0.6741
  801SOL    MW4 2978   2.790   2.511   5.360  0.3594 -0.3356 -0.1511
  802SOL     OW 2979   3.738   3.950   4.504 -0.0697 -0.2214 -0.1868
  802SOL    HW2 2980   3.700   4.019   4.450 -0.8269 -1.1326 -0.8481
  802SOL    HW3 2981   3.771   3.995   4.581 -0.6128  0.8697 -0.5786
  802SOL    MW4 2982   3.737   3.965   4.507  0.1358 -0.0896 -0.0499
  803SOL     OW 2983   0.858   1.068   2.560 -0.0288  0.0726 -0.4078
  803SOL    HW2 2984   0.842   1.001   2.494 -0.0230 -2.2760  1.8204
  803SOL    HW3 2985   0.886   1.019   2.638 -0.3212  2.6454  1.4519
  803SOL    MW4 2986   0.859   1.053   2.562 -0.1472  0.6788  0.2440
  804SOL     OW 2987   5.170   4.590   3.746 -0.3263 -0.1782  0.0736
  804SOL    HW2 2988   5.100   4.549   3.694 -0.1474 -0.7728  0.2982
  804SOL    HW3 2989   5.204   4.519   3.801  0.8940 -0.0539 -0.4883
  804SOL    MW4 2990   5.165   4.575   3.747 -0.3241 -0.5096  0.6491
  805SOL     OW 2991   3.198   1.251   0.273 -0.2133 -0.0987  0.2099
  805SOL    HW2 2992   3.263   1.227   0.339 -1.5406 -0.0555  1.5954
  805SOL    HW3 2993   3.185   1.170   0.223  0.8181 -0.1322 -0.0240
  805SOL    MW4 2994   3.205   1.237   0.275  0.6076  0.1993  0.3622
  806SOL     OW 2995   3.720   1.514   6.342  0.4953 -0.1172  0.7526
  806SOL    HW2 2996   3.667   1.501   6.263  0.4014  1.1358  0.5945
  806SOL    HW3 2997   3.747   1.426   6.367  2.2903 -0.4090 -1.8593
  806SOL    MW4 2998   3.716   1.501   6.335 -0.5037  0.5403 -0.0055
  807SOL     OW 2999   3.251   0.719   1.108  0.0232 -0.1588 -0.1578
  807SOL    HW2 3000   3.253   0.677   1.022 -2.7548 -1.6090  0.3718
  807SOL    HW3 3001   3.191   0.793   1.096  0.6983  0.4600  0.2297
  807SOL    MW4 3002   3.244   0.724   1.095 -0.1431 -0.0389 -0.4864
  808SOL     OW 3003   3.513   3.362   3.801 -0.3860  0.3186  0.8079
  808SOL    HW2 3004   3.474   3.286   3.846 -0.0745  0.4220  1.2564
  808SOL    HW3 3005   3.449   3.432   3.815 -0.7995  0.0764  0.1698
  808SOL    MW4 3006   3.499   3.361   3.809 -0.8683 -0.2523  0.0086
  809SOL     OW 3007   0.383   4.409   3.092  0.2050 -0.7427  0.7020
  809SOL    HW2 3008   0.288   4.404   3.083 -0.0159  0.0649  2.2967
  809SOL    HW3 3009   0.401   4.379   3.181  1.4021 -0.5431  0.5450
  809SOL    MW4 3010   0.373   4.404   3.102  0.1288 -0.0332  0.3299
  810SOL     OW 3011   2.755   2.386   3.510 -0.7494 -0.3024 -0.2941
  810SOL    HW2 3012   2.773   2.292   3.519  0.6848  0.0532  1.1384
  810SOL    HW3 3013   2.836   2.421   3.472 -0.8379  0.5072  0.2599
  810SOL    MW4 3014   2.768   2.378   3.506  0.1547 -0.6447 -0.1896
  811SOL     OW 3015   2.306   5.160   2.009 -0.6463  0.2490  0.6526
  811SOL    HW2 3016   2.376   5.100   2.033 -0.0692  0.1947 -1.0156
  811SOL    HW3 3017   2.269   5.123   1.929 -1.0990  1.4652  0.2691
  811SOL    MW4 3018   2.310   5.147   2.001 -0.2231  0.5234  0.1195
  812SOL     OW 3019   0.234   2.419   0.196  0.2085  0.0526  0.2805
  812SOL    HW2 3020   0.144   2.431   0.163  0.2632 -0.2427  0.0199
  812SOL    HW3 3021   0.282   2.494   0.162  0.0678  0.1934  0.3920
  812SOL    MW4 3022   0.228   2.430   0.187  0.3659 -0.5002 -0.1665
  813SOL     OW 3023   4.596   0.531   2.680  0.6228 -0.3419  0.1489
  813SOL    HW2 3024   4.557   0.571   2.759  1.4872  0.1708  0.3268
  813SOL    HW3 3025   4.690   0.530   2.698  0.6389 -2.6978  0.2415
  813SOL    MW4 3026   4.603   0.536   2.693 -0.1371  0.1719 -0.1411
  814SOL     OW 3027   6.308   2.165   3.126 -0.2900  0.1808 -0.0292
  814SOL    HW2 3028   6.266   2.124   3.202  1.2443  1.1730  1.4238
  814SOL    HW3 3029   6.255   2.138   3.051 -0.1422 -3.3150  0.9747
  814SOL    MW4 3030   6.295   2.156   3.126  0.1357  0.2334  0.2125
  815SOL     OW 3031   2.055   2.544   1.588  0.7444 -0.2133  0.2648
  815SOL    HW2 3032   2.005   2.464   1.574  1.0132 -0.3407  0.0098
  815SOL    HW3 3033   2.117   2.522   1.658 -0.0746  0.1848  1.1436
  815SOL    MW4 3034   2.057   2.531   1.595  0.1935 -0.3492  0.4391
  816SOL     OW 3035   4.859   1.176   6.234 -0.3031  0.0462  0.4547
  816SOL    HW2 3036   4.881   1.266   6.212  0.4059 -0.0933  0.5726
  816SOL    HW3 3037   4.929   1.123   6.194 -1.9113 -0.6586 -1.5932
  816SOL    MW4 3038   4.871   1.181   6.226  0.2404 -0.0717  0.0953
  817SOL     OW 3039   5.843   1.517   4.270 -0.0853 -0.3969 -0.2746
  817SOL    HW2 3040   5.845   1.479   4.357 -1.2055  1.1918  0.4729
  817SOL    HW3 3041   5.834   1.441   4.211  0.8016 -1.4911  0.9450
  817SOL    MW4 3042   5.842   1.502   4.273 -0.1535 -0.2094  0.2080
  818SOL     OW 3043   3.050   3.914   4.868  0.3936  0.1610 -0.0784
  818SOL    HW2 3044   2.987   3.978   4.903  1.0687  1.3515 -0.9832
  818SOL    HW3 3045   3.136   3.950   4.892  0.7727 -1.0987  0.5436
  818SOL    MW4 3046   3.053   3.927   4.876  0.0158 -0.5244 -0.1027
  819SOL     OW 3047   0.134   0.542   4.146  0.6684 -0.0638 -0.0345
  819SOL    HW2 3048   0.045   0.566   4.121  0.6732  0.2261  0.2350
  819SOL    HW3 3049   0.162   0.481   4.077 -0.2872 -1.3604  0.6718
  819SOL    MW4 3050   0.126   0.537   4.133 -0.1697 -0.0719  0.1261
  820SOL     OW 3051   5.489   0.363   1.296 -0.0953  0.7103 -0.3554
  820SOL    HW2 3052   5.546   0.286   1.297 -0.8499  0.1563  0.4649
  820SOL    HW3 3053   5.535   0.424   1.238  0.9029 -0.0481 -0.4097
  820SOL    MW4 3054   5.503   0.361   1.288 -0.0006 -0.1208  0.1936
  821SOL     OW 3055   5.715   1.573   5.166  0.6525 -0.6002 -0.2348
  821SOL    HW2 3056   5.645   1.532   5.217  0.8212 -0.9598 -0.2862
  821SOL    HW3 3057   5.787   1.584   5.229  0.0132  1.2602  0.2389
  821SOL    MW4 3058   5.715   1.569   5.181 -0.5647 -0.2927 -0.2147
  822SOL     OW 3059   4.169   4.715   5.135  0.0201  1.0166 -0.2749
  822SOL    HW2 3060   4.214   4.756   5.208  0.5631 -0.3131  0.1611
  822SOL    HW3 3061   4.222   4.736   5.058  1.4194 -0.5061  0.2249
  822SOL    MW4 3062   4.182   4.723   5.134 -0.1997  0.2032 -0.4782
  823SOL     OW 3063   1.285   0.485   3.601  0.3294  0.4607  1.2593
  823SOL    HW2 3064   1.337   0.515   3.675 -0.6246  1.0225  1.7281
  823SOL    HW3 3065   1.262   0.394   3.623  1.9873 -0.1834  0.5294
  823SOL    MW4 3066   1.289   0.477   3.613 -0.1525  0.0180  0.3564
  824SOL     OW 3067   1.545   1.140   5.175  0.1025  0.1128  0.4100
  824SOL    HW2 3068   1.458   1.178   5.167 -0.5053 -1.5308 -2.1374
  824SOL    HW3 3069   1.590   1.165   5.094  0.9910 -1.3403  0.4044
  824SOL    MW4 3070   1.539   1.148   5.163 -0.0843 -0.3686 -0.1572
  825SOL     OW 3071   2.266   5.504   3.728 -0.3995  0.0502  0.3783
  825SOL    HW2 3072   2.319   5.552   3.665  0.6902 -0.9144  0.5215
  825SOL    HW3 3073   2.238   5.426   3.681  1.7844 -1.5153  1.4831
  825SOL    MW4 3074   2.270   5.500   3.714  0.5652  0.7074 -0.3015
  826SOL     OW 3075   1.977   6.096   2.196  0.3350  0.1983 -0.2476
  826SOL    HW2 3076   1.918   6.024   2.221  0.9134 -0.5543 -1.0232
  826SOL    HW3 3077   1.931   6.140   2.125 -0.2319  0.9018  0.5304
  826SOL    MW4 3078   1.963   6.092   2.190 -0.1148  0.0551 -0.5114
  827SOL     OW 3079   0.297   3.026   6.105  0.6276 -0.0643  0.2201
  827SOL    HW2 3080   0.379   2.985   6.078  0.4935  0.3750 -0.9175
  827SOL    HW3 3081   0.314   3.120   6.100 -0.7431  0.1328 -2.9164
  827SOL    MW4 3082   0.310   3.033   6.101 -0.2528 -0.8790 -0.1435
  828SOL     OW 3083   0.292   0.551   6.126 -0.1591  0.7119  0.4875
  828SOL    HW2 3084   0.271   0.548   6.219 -0.6835  1.6542  0.4135
  828SOL    HW3 3085   0.354   0.479   6.113 -0.5192  0.2103  1.4429
  828SOL    MW4 3086   0.298   0.541   6.137 -0.1445  0.5343 -0.6565
  829SOL     OW 3087   0.089   0.104   3.676 -0.3970  0.4546 -0.1506
  829SOL    HW2 3088   0.017   0.042   3.666 -0.2223 -0.0080  1.2072
  829SOL    HW3 3089   0.047   0.187   3.697 -0.5980  0.6319 -1.2039
  829SOL    MW4 3090   0.074   0.107   3.678  0.1018  0.5031  0.4831
  830SOL     OW 3091   0.466   3.430   6.342 -0.4838 -0.3776  0.0087
  830SOL    HW2 3092   0.526   3.459   6.411 -0.0085  0.0733 -0.5869
  830SOL    HW3 3093   0.447   3.509   6.291  0.7111 -1.0275 -1.5437
  830SOL    MW4 3094   0.471   3.444   6.344  0.0384  0.3308 -0.4180
  831SOL     OW 3095   2.021   0.526   4.407 -0.1661  0.2596  0.1666
  831SOL    HW2 3096   2.071   0.552   4.485  0.0963  0.0710  0.0631
  831SOL    HW3 3097   2.074   0.557   4.334  0.3136 -0.8280  0.0290
  831SOL    MW4 3098   2.035   0.534   4.408  0.3585  0.1016 -0.0973
  832SOL     OW 3099   5.670   3.657   3.092  0.4956 -0.4726 -0.4688
  832SOL    HW2 3100   5.730   3.586   3.071 -0.2117 -1.6826  1.3566
  832SOL    HW3 3101   5.585   3.614   3.106 -0.8501  1.1654 -2.8754
  832SOL    MW4 3102   5.667   3.642   3.091 -0.2371 -0.1945 -0.3735
  833SOL     OW 3103   2.470   6.373   2.190 -0.0427  0.1492 -0.0600
  833SOL    HW2 3104   2.490   6.465   2.203 -0.1727  0.4966 -1.9397
  833SOL    HW3 3105   2.481   6.360   2.095  0.3780 -1.8544  0.2264
  833SOL    MW4 3106   2.474   6.383   2.179  0.7108  0.3345 -0.1063
  834SOL     OW 3107   3.257   0.263   3.433  0.7690  0.4573  0.8022
  834SOL    HW2 3108   3.291   0.347   3.464 -0.3206  1.3986 -0.4612
  834SOL    HW3 3109   3.305   0.245   3.353 -1.0488  1.4307 -0.5914
  834SOL    MW4 3110   3.267   0.272   3.427 -0.2084  0.2593 -0.0113
  835SOL     OW 3111   0.579   1.393   3.928  0.2175  0.5425 -0.0027
  835SOL    HW2 3112   0.577   1.403   4.023 -0.1780  0.9284 -0.0494
  835SOL    HW3 3113   0.500   1.343   3.907  0.5192  0.0916 -0.0933
  835SOL    MW4 3114   0.569   1.387   3.937 -0.4188 -0.0330 -0.3519
  836SOL     OW 3115   6.365   5.964   0.526 -0.2869  0.6244 -0.0159
  836SOL    HW2 3116   6.388   5.882   0.568 -3.2221 -0.2591  0.0845
  836SOL    HW3 3117   6.334   6.020   0.598 -0.3047  1.0631 -0.3569
  836SOL    MW4 3118   6.364   5.961   0.541 -0.3674 -0.2550  0.3603
  837SOL     OW 3119   2.869   4.814   5.734  0.0411  0.4590  0.8540
  837SOL    HW2 3120   2.872   4.800   5.640  1.4547 -0.5615  1.0261
  837SOL    HW3 3121   2.913   4.897   5.748  0.8931  0.0440  0.6983
  837SOL    MW4 3122   2.875   4.823   5.724 -0.5051 -0.3983  0.5259
  838SOL     OW 3123   0.616   3.974   1.941 -0.0476 -0.2575  0.1725
  838SOL    HW2 3124   0.583   4.063   1.947  0.7181  0.0891 -0.5184
  838SOL    HW3 3125   0.682   3.977   1.871 -0.9864 -1.6657 -0.8413
  838SOL    MW4 3126   0.620   3.986   1.933 -0.0399 -1.1868 -0.8533
  839SOL     OW 3127   5.603   0.561   1.119 -0.0764 -0.1125 -0.0372
  839SOL    HW2 3128   5.687   0.579   1.160  0.0186  0.1720 -0.3597
  839SOL    HW3 3129   5.561   0.646   1.111  0.7281  0.1326 -2.3571
  839SOL    MW4 3130   5.608   0.574   1.124  0.3051  0.3930  0.6142
  840SOL     OW 3131   3.488   0.033   0.421  0.7872  0.0086  0.3429
  840SOL    HW2 3132   3.579   0.019   0.448  0.8819 -0.6271 -0.3086
  840SOL    HW3 3133   3.437   0.005   0.496  1.1345  0.9181  0.9442
  840SOL    MW4 3134   3.494   0.028   0.435  0.1916 -0.3737  0.0711
  841SOL     OW 3135   0.173   3.263   4.081  0.0179 -0.0734  0.1371
  841SOL    HW2 3136   0.249   3.277   4.024  0.5878 -0.5591  0.7656
  841SOL    HW3 3137   0.143   3.175   4.059  0.2725 -0.2833  0.6163
  841SOL    MW4 3138   0.179   3.254   4.070  0.3611  0.3202 -0.3656
  842SOL     OW 3139   2.064   0.890   1.499 -0.0381  0.2094  0.0275
  842SOL    HW2 3140   2.032   0.873   1.411 -0.5751 -0.1679  0.2856
  842SOL    HW3 3141   2.096   0.805   1.530  1.1648  0.5545 -0.1885
  842SOL    MW4 3142   2.064   0.877   1.492 -0.1002 -0.1325 -0.3096
  843SOL     OW 3143   5.758   6.038   6.214 -0.1848  0.0949 -0.5196
  843SOL    HW2 3144   5.686   6.065   6.157  0.5102 -0.2355 -1.5923
  843SOL    HW3 3145   5.816   6.114   6.217  1.5975 -0.9694 -3.2604
  843SOL    MW4 3146   5.756   6.051   6.207 -0.0521 -0.2628  0.0732
  844SOL     OW 3147   0.781   2.642   2.275 -0.1674 -0.0329 -0.0553
  844SOL    HW2 3148   0.817   2.720   2.233 -1.6866 -0.0946 -1.6044
  844SOL    HW3 3149   0.717   2.676   2.338  2.6801  0.0995  3.0466
  844SOL    MW4 3150   0.778   2.657   2.277  0.3585 -0.1977  0.1102
  845SOL     OW 3151   0.528   1.606   0.639 -1.0117  0.1162  0.5213
  845SOL    HW2 3152   0.510   1.547   0.566 -0.4995  1.0692 -0.4074
  845SOL    HW3 3153   0.554   1.688   0.597  0.0510  0.4535  1.7904
  845SOL    MW4 3154   0.529   1.609   0.624 -0.4963 -0.1315 -0.1419
  846SOL     OW 3155   1.392   1.396   0.392  0.1926  0.2526 -0.6855
  846SOL    HW2 3156   1.429   1.467   0.340 -1.4551  0.7074 -1.3028
  846SOL    HW3 3157   1.454   1.385   0.465  1.3384  1.1753 -1.4767
  846SOL    MW4 3158   1.405   1.404   0.395 -0.3468  0.9823 -0.9704
  847SOL     OW 3159   3.434   6.324   4.063 -0.2917 -0.4096 -0.5392
  847SOL    HW2 3160   3.472   6.325   4.150 -1.0559 -3.4566 -0.0534
  847SOL    HW3 3161   3.459   6.408   4.024  0.1339  1.0119  2.5453
  847SOL    MW4 3162   3.442   6.335   4.069 -0.2896  0.1653  0.4454
  848SOL     OW 3163   2.473   0.201   3.170  0.6975 -0.0947 -0.0268
  848SOL    HW2 3164   2.497   0.286   3.133 -3.0565  0.8422 -0.7114
  848SOL    HW3 3165   2.555   0.151   3.169  2.7109  2.9023 -1.1421
  848SOL    MW4 3166   2.487   0.206   3.165 -0.0523  0.1015  0.1523
  849SOL     OW 3167   6.303   2.474   2.527 -0.2877 -0.2030 -0.2525
  849SOL    HW2 3168   6.236   2.406   2.518 -0.0941 -0.4124 -0.1284
  849SOL    HW3 3169   6.287   2.511   2.614 -0.2822 -0.2112 -0.2480
  849SOL    MW4 3170   6.292   2.469   2.538  1.5599  0.0800  0.0841
  850SOL     OW 3171   0.694   5.331   5.301 -0.2675 -0.0116 -0.3401
  850SOL    HW2 3172   0.752   5.384   5.247  0.2288 -1.0773 -0.8750
  850SOL    HW3 3173   0.607   5.345   5.264 -0.1063  0.2317 -0.6286
  850SOL    MW4 3174   0.690   5.340   5.289  0.0331  0.0547 -0.3685
  851SOL     OW 3175   2.671   4.212   2.258  0.0163 -0.0185  0.6296
  851SOL    HW2 3176   2.591   4.209   2.311 -0.8692  0.7115 -0.6139
  851SOL    HW3 3177   2.663   4.293   2.208  0.9057 -0.5988 -0.4828
  851SOL    MW4 3178   2.659   4.222   2.258 -0.4132  0.0426  0.5303
  852SOL     OW 3179   5.174   0.603   0.090 -0.2389 -0.1897 -0.2653
  852SOL    HW2 3180   5.176   0.682   0.143  0.2462  0.1868 -0.8355
  852SOL    HW3 3181   5.264   0.572   0.088 -0.2424 -0.1792 -0.8873
  852SOL    MW4 3182   5.186   0.609   0.097  0.4293 -0.7044 -0.5712
  853SOL     OW 3183   4.519   4.053   0.998  0.1543 -0.2461 -0.0761
  853SOL    HW2 3184   4.609   4.024   0.983 -0.5042 -2.8385  0.6109
  853SOL    HW3 3185   4.471   3.974   1.022 -2.3284  1.0659 -0.3510
  853SOL    MW4 3186   4.524   4.039   0.999 -0.3055  0.5094 -0.4914
  854SOL     OW 3187   5.811   3.642   3.759  0.8534 -0.3487  0.2151
  854SOL    HW2 3188   5.862   3.571   3.720  2.4851 -0.4213  2.3144
  854SOL    HW3 3189   5.875   3.712   3.774  0.2977 -0.2754  2.5540
  854SOL    MW4 3190   5.827   3.642   3.756  0.5304  0.1012  1.0452
  855SOL     OW 3191   1.217   2.435   1.284 -0.5896  0.0905 -0.3735
  855SOL    HW2 3192   1.168   2.453   1.203  0.2303 -1.0092 -1.1489
  855SOL    HW3 3193   1.309   2.439   1.257 -0.3074 -0.1884  0.5361
  855SOL    MW4 3194   1.223   2.438   1.269 -0.1508  0.5936 -0.6016
  856SOL     OW 3195   1.213   1.219   1.231 -0.1761 -0.6942  0.2309
  856SOL    HW2 3196   1.219   1.136   1.183 -0.4472  0.9513 -2.9268
  856SOL    HW3 3197   1.142   1.206   1.293 -0.0517 -2.8793 -0.0052
  856SOL    MW4 3198   1.204   1.206   1.233 -0.2036 -0.3787  0.4117
  857SOL     OW 3199   5.763   0.685   0.898 -0.2452 -0.0976 -0.3417
  857SOL    HW2 3200   5.679   0.653   0.929 -0.0820  0.2450  0.4780
  857SOL    HW3 3201   5.766   0.660   0.806 -0.5140 -1.6255  0.0416
  857SOL    MW4 3202   5.753   0.678   0.890  0.1223  0.6432  0.2442
  858SOL     OW 3203   4.431   2.175   6.381  0.5111  0.5241 -0.3722
  858SOL    HW2 3204   4.404   2.261   6.347 -0.6502 -0.1278 -1.1788
  858SOL    HW3 3205   4.365   2.115   6.347  1.4408 -0.7291 -0.0008
  858SOL    MW4 3206   4.418   2.179   6.372  0.0225  1.0541  0.5123
  859SOL     OW 3207   1.212   0.128   4.188  0.4201 -0.0606  0.2178
  859SOL    HW2 3208   1.240   0.101   4.100 -0.4618 -1.3827  0.3153
  859SOL    HW3 3209   1.189   0.047   4.232 -1.1345  0.7451  0.9802
  859SOL    MW4 3210   1.212   0.114   4.182 -0.4774 -0.8356  0.0350
  860SOL     OW 3211   0.054   6.342   1.118 -0.1266 -0.1565 -0.2541
  860SOL    HW2 3212  -0.002   6.268   1.140 -0.2637 -0.7857 -2.4585
  860SOL    HW3 3213  -0.008   6.415   1.105 -0.4036 -0.6119 -1.7201
  860SOL    MW4 3214   0.038   6.342   1.119 -0.1470 -0.2387 -0.2120
  861SOL     OW 3215   4.647   5.312   2.217  0.2806  0.7813 -0.0365
  861SOL    HW2 3216   4.678   5.401   2.201  1.7200  0.0699 -1.4296
  861SOL    HW3 3217   4.612   5.282   2.133 -0.3739  0.0891  0.4612
  861SOL    MW4 3218   4.646   5.319   2.204 -0.1576 -0.0451 -0.2513
  862SOL     OW 3219   2.403   2.686   1.310 -0.3799  0.6800 -0.1443
  862SOL    HW2 3220   2.486   2.727   1.335 -0.2079 -0.2365  0.9067
  862SOL    HW3 3221   2.370   2.739   1.238 -0.4872  3.0547  1.5299
  862SOL    MW4 3222   2.410   2.698   1.304 -0.2859 -0.7055 -0.2949
  863SOL     OW 3223   1.615   2.575   0.659  0.5831  0.2200 -0.1564
  863SOL    HW2 3224   1.599   2.503   0.598 -0.9665 -0.3023  0.8316
  863SOL    HW3 3225   1.706   2.563   0.687  0.7293 -0.6107 -0.9341
  863SOL    MW4 3226   1.625   2.564   0.654 -0.0618  0.1610 -0.0324
  864SOL     OW 3227   2.464   3.493   6.404  0.1080 -0.2215  0.4932
  864SOL    HW2 3228   2.453   3.439   6.326  0.0896 -0.7949  0.8844
  864SOL    HW3 3229   2.419   3.575   6.383  0.2298 -0.3135 -0.1488
  864SOL    MW4 3230   2.456   3.496   6.391 -0.1207  0.1641 -0.1343
  865SOL     OW 3231   1.032   0.992   6.182  0.4134  0.2495 -0.1137
  865SOL    HW2 3232   1.013   0.962   6.271  1.4071 -1.3274 -0.3915
  865SOL    HW3 3233   1.010   0.917   6.127  2.3645  0.2150 -0.9150
  865SOL    MW4 3234   1.027   0.978   6.187  0.3531 -0.0485  0.7317
  866SOL     OW 3235   5.000   5.733   5.064  0.2740 -0.9791  0.3404
  866SOL    HW2 3236   5.083   5.774   5.038 -0.4986  0.2114 -0.3052
  866SOL    HW3 3237   5.026   5.664   5.125  1.5845  0.6009  1.6393
  866SOL    MW4 3238   5.015   5.729   5.068 -0.7593  0.4522  0.0330
  867SOL     OW 3239   3.313   6.263   2.985  0.1273  0.0080 -0.3008
  867SOL    HW2 3240   3.319   6.241   3.078  1.0582 -0.5056 -0.4747
  867SOL    HW3 3241   3.219   6.257   2.966 -0.2219  1.2700  0.8640
  867SOL    MW4 3242   3.301   6.259   2.995 -0.0154 -0.0139  0.2423
  868SOL     OW 3243   2.532   2.028   2.952 -0.5982  0.0760 -0.5227
  868SOL    HW2 3244   2.593   2.077   2.897 -0.0269 -1.9094 -1.7661
  868SOL    HW3 3245   2.566   2.039   3.041 -0.4383  1.7815 -0.7545
  868SOL    MW4 3246   2.544   2.036   2.956 -0.1850 -0.1891  0.0714
  869SOL     OW 3247   0.863   6.213   4.059 -0.2861 -0.3767 -0.6068
  869SOL    HW2 3248   0.945   6.193   4.103 -0.8475 -0.6912  0.3236
  869SOL    HW3 3249   0.872   6.175   3.972  0.6009 -0.2896 -0.5570
  869SOL    MW4 3250   0.875   6.205   4.053  0.3644 -0.0049  0.2850
  870SOL     OW 3251   5.397   3.093   6.235 -0.2158  0.0107 -0.8580
  870SOL    HW2 3252   5.419   3.153   6.165 -0.5472  2.1672  0.7847
  870SOL    HW3 3253   5.409   3.144   6.316 -1.3941 -1.8372  0.5814
  870SOL    MW4 3254   5.402   3.107   6.237  0.3776  0.0630 -0.4704
  871SOL     OW 3255   5.574   3.867   4.970 -0.9376  0.3736 -0.2286
  871SOL    HW2 3256   5.653   3.921   4.974  0.1142 -1.1607  0.6834
  871SOL    HW3 3257   5.603   3.783   4.935 -2.6880  0.5643 -2.3745
  871SOL    MW4 3258   5.588   3.863   4.966 -0.3625 -0.3977 -0.7053
  872SOL     OW 3259   2.313   5.774   2.685  0.3316 -0.1502  0.2559
  872SOL    HW2 3260   2.271   5.703   2.733  2.6853 -2.0125 -0.2189
  872SOL    HW3 3261   2.370   5.816   2.750  0.3424  0.1106  0.0801
  872SOL    MW4 3262   2.315   5.770   2.700 -0.2309 -0.0734  0.3098
  873SOL     OW 3263   0.517   2.340   1.600  0.3458  1.1605  0.0528
  873SOL    HW2 3264   0.591   2.280   1.595  0.1024  0.5954  2.1045
  873SOL    HW3 3265   0.471   2.314   1.680 -2.4826  1.0335 -1.4720
  873SOL    MW4 3266   0.521   2.328   1.610 -0.1634 -0.1865  0.2516
  874SOL     OW 3267   3.087   0.996   1.156  0.0755 -0.3716  0.5205
  874SOL    HW2 3268   3.046   1.018   1.239  0.0524 -0.6353  0.5802
  874SOL    HW3 3269   3.054   1.061   1.094 -0.0540 -0.2897  0.6765
  874SOL    MW4 3270   3.078   1.007   1.159 -0.2667  0.3044 -0.0175
  875SOL     OW 3271   5.371   2.817   4.201  0.4143  0.0473 -0.7585
  875SOL    HW2 3272   5.407   2.854   4.281 -1.2399  1.1764 -0.4683
  875SOL    HW3 3273   5.444   2.813   4.140  0.7498  3.8080 -0.7739
  875SOL    MW4 3274   5.385   2.821   4.203  0.6673 -0.6719  0.3549
  876SOL     OW 3275   4.557   4.386   4.684 -0.5524 -0.4850 -0.3857
  876SOL    HW2 3276   4.605   4.441   4.621  1.9450 -2.2756 -0.2250
  876SOL    HW3 3277   4.541   4.304   4.636 -0.5325 -1.0905  0.6219
  876SOL    MW4 3278   4.561   4.382   4.669  0.0612  0.0264 -0.9150
  877SOL     OW 3279   2.294   0.152   5.153  0.8192  0.4165 -0.2196
  877SOL    HW2 3280   2.269   0.185   5.240  0.2133  0.3844 -0.3763
  877SOL    HW3 3281   2.381   0.190   5.138  1.3647 -0.3681  0.8144
  877SOL    MW4 3282   2.302   0.162   5.163 -0.2599 -0.7568 -0.0179
  878SOL     OW 3283   3.076   3.488   1.512 -0.8510  0.1795  0.0555
  878SOL    HW2 3284   3.134   3.513   1.439 -0.7674 -1.4288 -0.4683
  878SOL    HW3 3285   3.062   3.394   1.500 -2.4050  0.2551  1.0283
  878SOL    MW4 3286   3.082   3.479   1.501  0.3763 -0.2519 -0.2647
  879SOL     OW 3287   5.015   3.163   2.178  0.1742  0.2055 -0.0105
  879SOL    HW2 3288   5.084   3.126   2.234 -0.2522  0.3159  0.6019
  879SOL    HW3 3289   4.968   3.087   2.144  0.4259  0.1382 -0.2140
  879SOL    MW4 3290   5.018   3.148   2.181 -0.3689  0.1927  0.1680
  880SOL     OW 3291   3.502   2.241   3.171  0.8407 -0.4752 -0.5179
  880SOL    HW2 3292   3.578   2.203   3.128 -0.0607 -0.8234 -1.8376
  880SOL    HW3 3293   3.435   2.174   3.165  0.1203  0.2105 -0.2650
  880SOL    MW4 3294   3.503   2.227   3.165  0.3973  0.8060 -0.3447
  881SOL     OW 3295   4.938   5.011   6.098 -0.2924 -0.2371  0.3567
  881SOL    HW2 3296   4.951   5.096   6.056  0.1590  0.6242  2.1583
  881SOL    HW3 3297   4.988   5.016   6.179 -2.0842 -1.4004  1.6075
  881SOL    MW4 3298   4.947   5.023   6.103  0.2532  0.6244 -0.1105
  882SOL     OW 3299   0.416   1.362   2.499 -0.7121  0.8567 -0.5368
  882SOL    HW2 3300   0.470   1.422   2.447  0.8249  0.7966  0.9239
  882SOL    HW3 3301   0.432   1.276   2.461  1.6607  0.5720  0.9272
  882SOL    MW4 3302   0.425   1.359   2.487 -0.3377 -0.6692 -0.3744
  883SOL     OW 3303   1.679   6.355   4.248 -0.1364 -0.1774  0.0574
  883SOL    HW2 3304   1.763   6.379   4.211 -0.3848  0.3426 -0.1822
  883SOL    HW3 3305   1.626   6.435   4.242 -1.3378 -1.0369 -1.7373
  883SOL    MW4 3306   1.683   6.369   4.242 -0.2509  0.4049  0.0615
  884SOL     OW 3307   2.901   2.809   4.928 -0.0830 -0.0659 -0.4577
  884SOL    HW2 3308   2.983   2.791   4.882  1.1602  0.6960  1.3566
  884SOL    HW3 3309   2.833   2.777   4.869  1.4538  0.2348 -2.4990
  884SOL    MW4 3310   2.903   2.803   4.914  0.2989  0.2169  0.7955
  885SOL     OW 3311   1.587   3.515   6.345 -0.9977 -0.4369  0.2759
  885SOL    HW2 3312   1.564   3.447   6.282 -2.4796  0.4324 -0.1807
  885SOL    HW3 3313   1.620   3.468   6.421  2.6234 -1.4855 -1.7276
  885SOL    MW4 3314   1.588   3.500   6.346 -0.1276 -0.2005 -0.1436
  886SOL     OW 3315   4.034   0.663   1.902  0.3228 -0.4688  0.4757
  886SOL    HW2 3316   4.081   0.742   1.929 -0.9425  0.1084  1.0622
  886SOL    HW3 3317   4.067   0.595   1.962  1.1768 -0.3322  0.1816
  886SOL    MW4 3318   4.045   0.664   1.914  0.2010  0.1550  0.3850
  887SOL     OW 3319   1.451   1.556   2.913 -0.2628 -0.1215 -0.3772
  887SOL    HW2 3320   1.540   1.591   2.912 -0.0105 -0.6466  0.9561
  887SOL    HW3 3321   1.419   1.568   2.824  0.6862  1.2236 -0.5754
  887SOL    MW4 3322   1.458   1.562   2.901 -0.4449  0.1158 -0.4490
  888SOL     OW 3323   2.018   1.630   1.970  0.2979 -0.5751 -0.4439
  888SOL    HW2 3324   2.090   1.631   2.034  0.6979 -0.5218 -0.8902
  888SOL    HW3 3325   2.046   1.690   1.901 -1.2080  1.2984  0.4932
  888SOL    MW4 3326   2.031   1.638   1.969 -0.0617  0.0415  0.2476
  889SOL     OW 3327   4.298   0.421   4.293  0.2691 -0.2241 -0.0670
  889SOL    HW2 3328   4.313   0.369   4.371  1.7823 -1.8140 -1.3312
  889SOL    HW3 3329   4.365   0.489   4.295 -0.4422  0.4741  0.5818
  889SOL    MW4 3330   4.309   0.423   4.303 -0.0914 -0.3103  0.4759
  890SOL     OW 3331   3.699   0.376   4.145 -0.3018  0.5871 -0.0528
  890SOL    HW2 3332   3.611   0.398   4.113 -0.8140  1.5040  1.8281
  890SOL    HW3 3333   3.710   0.283   4.123 -1.2874  0.7176 -1.2464
  890SOL    MW4 3334   3.689   0.367   4.138 -0.3063  0.7595  0.2220
  891SOL     OW 3335   3.784   2.177   0.319  0.2281  0.2485 -0.7801
  891SOL    HW2 3336   3.866   2.136   0.293  0.7473  0.6202  0.2016
  891SOL    HW3 3337   3.740   2.199   0.237  0.6535 -0.8445 -1.3081
  891SOL    MW4 3338   3.789   2.175   0.305 -0.0319  0.3697 -0.1664
  892SOL     OW 3339   4.658   6.044   4.271  0.1419  0.0710  0.1747
  892SOL    HW2 3340   4.613   6.003   4.345  0.0341 -0.5895 -0.2450
  892SOL    HW3 3341   4.589   6.061   4.207  0.4037 -0.4833 -0.2659
  892SOL    MW4 3342   4.643   6.041   4.272 -0.0309  0.3664 -0.1226
  893SOL     OW 3343   4.958   2.577   4.606  0.6481  0.6698 -0.1844
  893SOL    HW2 3344   4.937   2.557   4.698  1.4516  1.5311  0.1962
  893SOL    HW3 3345   4.884   2.541   4.557  1.2701 -1.8351  0.5752
  893SOL    MW4 3346   4.945   2.570   4.612 -0.3073  0.2561  0.0560
  894SOL     OW 3347   5.867   6.251   0.690 -0.0791  0.3323 -0.4707
  894SOL    HW2 3348   5.810   6.292   0.755 -1.1552  0.6021 -1.5459
  894SOL    HW3 3349   5.882   6.163   0.724 -0.3736  0.5621  0.2875
  894SOL    MW4 3350   5.861   6.245   0.703  0.3436  0.0202  0.0533
  895SOL     OW 3351   1.185   2.213   0.141 -0.7037 -0.2216 -0.4489
  895SOL    HW2 3352   1.266   2.219   0.192 -0.2343  1.9425 -1.3423
  895SOL    HW3 3353   1.139   2.295   0.160 -1.3149 -0.1300 -2.1593
  895SOL    MW4 3354   1.190   2.225   0.151 -0.0518  0.6675 -0.5839
  896SOL     OW 3355   3.962   1.730   4.491  0.2829 -0.4273 -0.2364
  896SOL    HW2 3356   3.867   1.740   4.497  0.5324  1.8043  2.0947
  896SOL    HW3 3357   3.985   1.770   4.407 -0.7408  0.3774 -0.1616
  896SOL    MW4 3358   3.952   1.737   4.481 -0.3276  0.0939 -0.7384
  897SOL     OW 3359   4.665   0.352   5.225  0.4116 -0.3944 -0.5239
  897SOL    HW2 3360   4.633   0.312   5.305  1.7514 -0.0715  0.2184
  897SOL    HW3 3361   4.670   0.446   5.245 -0.8024 -0.0901 -1.5573
  897SOL    MW4 3362   4.662   0.359   5.238  0.0685  0.3308  0.8033
  898SOL     OW 3363   5.890   4.091   1.764 -0.2128 -0.2541  0.3142
  898SOL    HW2 3364   5.851   4.178   1.767 -0.2590 -0.2485 -0.2626
  898SOL    HW3 3365   5.861   4.055   1.680 -1.7606 -1.5649  1.3569
  898SOL    MW4 3366   5.881   4.097   1.753  0.4462 -0.1737  0.0489
  899SOL     OW 3367   6.225   5.404   6.300  0.2483 -0.0506 -0.3331
  899SOL    HW2 3368   6.211   5.336   6.234 -2.1107  1.0787 -1.1071
  899SOL    HW3 3369   6.212   5.486   6.254  0.6425  0.8583  1.1007
  899SOL    MW4 3370   6.221   5.406   6.285 -0.2893 -0.5861 -0.4862
  900SOL     OW 3371   2.530   1.131   2.991 -0.2360  0.0079 -0.7864
  900SOL    HW2 3372   2.468   1.082   3.045 -0.0278 -0.2313 -0.7574
  900SOL    HW3 3373   2.508   1.223   3.005  1.0268  0.0512  1.2108
  900SOL    MW4 3374   2.519   1.136   3.000  0.4599  0.3633  0.2543
  901SOL     OW 3375   0.433   3.811   2.102  0.4070  0.1898  0.0726
  901SOL    HW2 3376   0.449   3.821   2.196  1.0711  1.2688 -0.1397
  901SOL    HW3 3377   0.504   3.859   2.060 -0.6756  0.9422 -0.9653
  901SOL    MW4 3378   0.444   3.819   2.109  0.0894  0.0942 -0.3324
  902SOL     OW 3379   4.942   5.525   4.853 -0.1959  0.5357 -0.3666
  902SOL    HW2 3380   4.908   5.543   4.765 -2.0125  1.1140  0.4010
  902SOL    HW3 3381   4.999   5.600   4.871  1.5800 -0.4406 -1.6773
  902SOL    MW4 3382   4.945   5.537   4.844 -0.0821  0.2046 -0.1013
  903SOL     OW 3383   1.004   0.891   1.180  0.0314 -0.3229 -0.1879
  903SOL    HW2 3384   1.055   0.872   1.259 -1.8991  0.9261  1.4488
  903SOL    HW3 3385   0.922   0.929   1.213 -0.6074  0.7818 -2.8239
  903SOL    MW4 3386   1.000   0.894   1.195  0.3206  0.0264 -0.3469
  904SOL     OW 3387   1.099   3.990   2.777  0.4182  0.4713  0.6066
  904SOL    HW2 3388   1.135   3.907   2.746  0.5294 -0.4151  2.9379
  904SOL    HW3 3389   1.005   3.975   2.781  0.2835  0.9722 -0.3064
  904SOL    MW4 3390   1.091   3.977   2.773  0.3468 -0.3847  0.3833
  905SOL     OW 3391   3.652   6.413   3.301  0.1869  0.4567  0.4700
  905SOL    HW2 3392   3.658   6.507   3.287  3.9945  0.4379  0.8175
  905SOL    HW3 3393   3.645   6.403   3.396  1.7453  0.4547  0.6150
  905SOL    MW4 3394   3.652   6.424   3.311 -0.1297 -0.0161  0.2476
  906SOL     OW 3395   3.505   3.727   3.689  0.7541  0.3220  0.4506
  906SOL    HW2 3396   3.584   3.735   3.742  0.5080  1.6560  0.6645
  906SOL    HW3 3397   3.447   3.670   3.740  0.5079  1.6167  1.6794
  906SOL    MW4 3398   3.507   3.721   3.703  0.0277 -0.3739  0.1532
  907SOL     OW 3399   5.565   0.353   5.214 -0.0086  0.0373  0.1414
  907SOL    HW2 3400   5.555   0.448   5.205  0.5610  0.0333 -0.6534
  907SOL    HW3 3401   5.596   0.324   5.128 -1.1326 -1.0114  0.0625
  907SOL    MW4 3402   5.568   0.362   5.201 -0.4741 -0.1573 -0.0765
  908SOL     OW 3403   3.343   5.864   6.388 -0.3846 -0.3389 -0.6440
  908SOL    HW2 3404   3.282   5.852   6.461 -1.4718 -0.2159 -1.5025
  908SOL    HW3 3405   3.324   5.952   6.355  1.3030  0.3084 -0.0145
  908SOL    MW4 3406   3.332   5.874   6.393  0.6646 -0.5791 -0.2048
  909SOL     OW 3407   5.263   5.240   5.740 -0.0196  0.1813  0.2698
  909SOL    HW2 3408   5.323   5.310   5.716 -0.3540  0.0353 -1.0484
  909SOL    HW3 3409   5.204   5.280   5.803  1.0841  0.4883  1.1431
  909SOL    MW4 3410   5.263   5.254   5.745 -0.1728  0.3290 -0.0386
  910SOL     OW 3411   3.770   2.787   4.144  0.0999  0.0169  0.2937
  910SOL    HW2 3412   3.768   2.880   4.120  0.7946  0.0915  0.5045
  910SOL    HW3 3413   3.679   2.760   4.141 -0.2670  1.0389  1.5286
  910SOL    MW4 3414   3.758   2.796   4.140  0.1048 -0.4887 -0.0788
  911SOL     OW 3415   5.069   5.519   5.216  0.0303  0.2353  0.0412
  911SOL    HW2 3416   5.002   5.453   5.201  0.3614 -0.0501 -0.1993
  911SOL    HW3 3417   5.084   5.517   5.311  0.9172 -0.9224 -0.0875
  911SOL    MW4 3418   5.062   5.510   5.227  1.0904  0.2721  0.1828
  912SOL     OW 3419   3.795   3.274   5.019 -0.0141  0.0018 -0.0032
  912SOL    HW2 3420   3.840   3.209   5.073 -0.9060 -0.3261  0.3856
  912SOL    HW3 3421   3.814   3.248   4.929  0.0541 -0.5113  0.1532
  912SOL    MW4 3422   3.803   3.262   5.014 -0.0913  0.0987 -0.2566
  913SOL     OW 3423   5.590   3.157   1.559 -0.2979  0.1345  0.0604
  913SOL    HW2 3424   5.641   3.157   1.479  1.3532 -0.8333  1.0534
  913SOL    HW3 3425   5.507   3.197   1.535  1.1517  2.4668 -1.4770
  913SOL    MW4 3426   5.586   3.162   1.546 -0.1698 -0.1244  0.2696
  914SOL     OW 3427   1.723   5.948   2.838 -0.0092  0.1097 -0.2863
  914SOL    HW2 3428   1.666   5.872   2.849  0.7443 -0.3909  0.2446
  914SOL    HW3 3429   1.665   6.023   2.849 -0.8156 -0.3801 -1.0925
  914SOL    MW4 3430   1.708   5.948   2.841 -0.7040  0.0704  0.1217
  915SOL     OW 3431   3.735   3.878   5.291  0.0166  0.2697 -0.4712
  915SOL    HW2 3432   3.701   3.968   5.285 -0.8325  0.0787  1.0286
  915SOL    HW3 3433   3.807   3.884   5.354 -0.5424 -0.2210  0.2299
  915SOL    MW4 3434   3.740   3.891   5.299 -0.6559  0.2313 -0.0315
  916SOL     OW 3435   5.702   4.574   1.895 -0.0055 -0.0678 -0.0617
  916SOL    HW2 3436   5.689   4.669   1.899 -0.5921 -0.1392 -0.1830
  916SOL    HW3 3437   5.698   4.553   1.802 -0.1640 -0.2496 -0.0150
  916SOL    MW4 3438   5.700   4.584   1.883 -0.7520  0.1141  0.3676
  917SOL     OW 3439   0.695   2.778   5.217 -0.1561  0.1646  0.5703
  917SOL    HW2 3440   0.609   2.753   5.185  0.6473 -2.0822 -0.0105
  917SOL    HW3 3441   0.699   2.873   5.204 -0.9527 -0.1842 -3.4035
  917SOL    MW4 3442   0.684   2.787   5.211 -0.4402  0.4204  0.0695
  918SOL     OW 3443   2.063   6.304   3.324  0.0217  0.4098 -0.4085
  918SOL    HW2 3444   2.089   6.395   3.337  1.8980 -0.2754  1.0420
  918SOL    HW3 3445   2.134   6.253   3.362 -1.0499 -1.6786 -1.0641
  918SOL    MW4 3446   2.076   6.310   3.331 -0.2838  0.0799  0.0458
  919SOL     OW 3447   0.189   5.421   0.799  0.0910  0.1254  0.2898
  919SOL    HW2 3448   0.237   5.447   0.720 -1.1069  1.3719 -0.0586
  919SOL    HW3 3449   0.243   5.453   0.871  0.3114  0.5826 -0.0732
  919SOL    MW4 3450   0.203   5.429   0.798 -0.1031  0.7787  0.0346
  920SOL     OW 3451   0.811   5.532   5.159 -0.6488 -0.1031  0.0291
  920SOL    HW2 3452   0.872   5.526   5.086 -2.0878 -1.0633 -1.1393
  920SOL    HW3 3453   0.799   5.626   5.173 -0.9235  0.1128 -1.4844
  920SOL    MW4 3454   0.818   5.544   5.152 -0.0380 -0.0193  0.3431
  921SOL     OW 3455   1.151   1.546   5.546  0.1414 -0.1704  0.4110
  921SOL    HW2 3456   1.111   1.549   5.633 -2.5285  0.2904 -0.7439
  921SOL    HW3 3457   1.179   1.635   5.529 -0.7354  0.0784  0.2192
  921SOL    MW4 3458   1.149   1.558   5.556 -0.2700  0.3330  0.0632
  922SOL     OW 3459   6.220   4.267   3.072  0.4617  0.5415 -0.2493
  922SOL    HW2 3460   6.225   4.362   3.086 -2.0532  0.7160  0.0527
  922SOL    HW3 3461   6.227   4.256   2.977  2.6673  0.8079 -0.1523
  922SOL    MW4 3462   6.221   4.278   3.061  0.7650  0.6509  0.7936
  923SOL     OW 3463   5.082   3.688   2.021  0.1168  0.0602  0.5401
  923SOL    HW2 3464   5.005   3.731   1.985  0.1287 -0.5042 -0.1833
  923SOL    HW3 3465   5.072   3.596   1.995  0.9642 -0.0439  0.5583
  923SOL    MW4 3466   5.071   3.681   2.013 -0.1975  0.0600  0.4584
  924SOL     OW 3467   4.262   5.093   4.775  0.6423 -0.3718  0.1904
  924SOL    HW2 3468   4.225   5.174   4.809  0.7507  0.2893 -1.2202
  924SOL    HW3 3469   4.357   5.107   4.778  0.6472 -0.2205 -0.5760
  924SOL    MW4 3470   4.270   5.105   4.780  0.3266 -0.0659 -0.5610
  925SOL     OW 3471   1.146   4.621   3.663 -0.9549 -0.2840 -0.2901
  925SOL    HW2 3472   1.240   4.617   3.648 -1.0983 -0.5349 -1.2171
  925SOL    HW3 3473   1.118   4.530   3.669 -0.8745 -0.2123  1.9866
  925SOL    MW4 3474   1.155   4.609   3.661 -0.4783 -0.0627  0.2247
  926SOL     OW 3475   2.103   5.509   6.140 -0.1185 -0.6935  1.1252
  926SOL    HW2 3476   2.143   5.471   6.061 -1.1766 -3.1304  1.6686
  926SOL    HW3 3477   2.027   5.557   6.107  1.0604  0.8152  0.4534
  926SOL    MW4 3478   2.098   5.511   6.125 -0.4590 -0.0942 -1.2008
  927SOL     OW 3479   2.727   2.893   4.499 -0.5125 -0.8156  0.5538
  927SOL    HW2 3480   2.736   2.982   4.532 -0.8778 -0.1119 -1.1113
  927SOL    HW3 3481   2.718   2.838   4.577  1.2120  0.4003  1.6809
  927SOL    MW4 3482   2.727   2.897   4.513  0.2213  0.1195  0.0083
  928SOL     OW 3483   1.397   3.646   2.108 -0.2385 -0.2215 -0.1974
  928SOL    HW2 3484   1.484   3.686   2.117  0.0749 -0.8822 -0.2362
  928SOL    HW3 3485   1.342   3.715   2.072  0.8084 -0.4400 -2.3823
  928SOL    MW4 3486   1.402   3.660   2.104  0.1736  0.2565 -0.5158
  929SOL     OW 3487   1.011   5.874   2.411  0.3967 -0.8622 -0.0246
  929SOL    HW2 3488   1.088   5.816   2.411 -0.5322 -2.1533 -1.2603
  929SOL    HW3 3489   0.950   5.833   2.350 -1.3108  0.1201  0.9525
  929SOL    MW4 3490   1.013   5.861   2.403 -0.2192 -0.0673 -0.3071
  930SOL     OW 3491  -0.006   1.835   2.060  0.3284  0.0736 -0.3230
  930SOL    HW2 3492   0.009   1.742   2.043  0.5457 -0.0066  0.2995
  930SOL    HW3 3493   0.053   1.880   1.999 -0.4288 -0.1705 -1.2672
  930SOL    MW4 3494   0.004   1.829   2.049  0.7385 -0.0458 -0.2630
  931SOL     OW 3495   5.824   0.766   3.902  0.5202 -0.3818 -0.1805
  931SOL    HW2 3496   5.846   0.676   3.928  1.5838  0.4772  2.1201
  931SOL    HW3 3497   5.872   0.821   3.963 -0.2377  1.7851 -1.4442
  931SOL    MW4 3498   5.833   0.761   3.913 -0.0185  0.7095 -0.1320
  932SOL     OW 3499   5.671   3.706   4.574 -0.5752 -0.0199 -0.1412
  932SOL    HW2 3500   5.716   3.636   4.525  1.9210  1.6101 -0.3837
  932SOL    HW3 3501   5.682   3.784   4.519 -0.9425  1.1025  1.3271
  932SOL    MW4 3502   5.678   3.707   4.560  0.3258 -0.2629  0.2317
  933SOL     OW 3503   6.102   0.180   1.262 -0.8871  0.1729 -0.0173
  933SOL    HW2 3504   6.099   0.203   1.355  0.4912 -1.2991  0.4223
  933SOL    HW3 3505   6.014   0.147   1.243 -1.3556  1.0137  0.5944
  933SOL    MW4 3506   6.090   0.179   1.272 -0.7213 -0.4810 -0.4737
  934SOL     OW 3507   5.553   3.192   4.280  0.0241 -0.7485  0.1366
  934SOL    HW2 3508   5.535   3.276   4.238 -1.8204 -1.6371 -0.9949
  934SOL    HW3 3509   5.643   3.171   4.254 -0.2364 -0.1309 -1.3630
  934SOL    MW4 3510   5.563   3.200   4.271  0.5951 -0.2521 -0.0152
  935SOL     OW 3511   0.565   2.247   3.181 -0.1754 -0.3105  0.1413
  935SOL    HW2 3512   0.499   2.315   3.166  1.0939  1.6909  2.7824
  935SOL    HW3 3513   0.611   2.238   3.098 -0.8977  1.5156 -0.5014
  935SOL    MW4 3514   0.562   2.255   3.168 -0.6128  0.4074  0.4436
  936SOL     OW 3515   4.398   5.901   2.736  0.3423  0.2523 -0.1703
  936SOL    HW2 3516   4.458   5.912   2.810 -1.0800  0.5444  0.9782
  936SOL    HW3 3517   4.394   5.987   2.695  0.5427  0.2773 -0.1390
  936SOL    MW4 3518   4.405   5.913   2.740  0.8256 -0.2470 -0.2490
  937SOL     OW 3519   5.051   6.337   3.335  0.4972 -0.3371  0.2163
  937SOL    HW2 3520   5.094   6.266   3.382  2.3169 -0.5574 -1.6443
  937SOL    HW3 3521   5.122   6.387   3.296 -0.6209  3.2860  2.3244
  937SOL    MW4 3522   5.066   6.335   3.336  0.1393 -0.3307  0.9125
  938SOL     OW 3523   5.530   0.932   4.274 -0.4003 -0.1835  0.4290
  938SOL    HW2 3524   5.467   0.893   4.214  1.0210 -0.2656 -1.0664
  938SOL    HW3 3525   5.590   0.860   4.296  0.8531  0.5425 -0.4742
  938SOL    MW4 3526   5.530   0.917   4.269 -0.3405 -0.0063  0.6743
  939SOL     OW 3527   1.666   5.933   0.012 -0.0638 -0.1847 -0.3644
  939SOL    HW2 3528   1.682   5.959  -0.079 -0.5547 -1.3276 -0.8109
  939SOL    HW3 3529   1.676   6.013   0.063  0.9041  0.3414 -1.3440
  939SOL    MW4 3530   1.669   5.947   0.007 -0.0107 -0.1507  0.2738
  940SOL     OW 3531   1.832   1.307   4.112  0.6572 -0.5873  0.0789
  940SOL    HW2 3532   1.747   1.350   4.099  1.3349  0.0151 -3.0493
  940SOL    HW3 3533   1.876   1.361   4.178 -0.2984  0.7831 -0.3512
  940SOL    MW4 3534   1.826   1.320   4.119  0.1353  0.0322  0.0644
  941SOL     OW 3535   3.494   6.212   0.292 -0.0521 -0.0606  0.4839
  941SOL    HW2 3536   3.403   6.183   0.279 -0.1155  0.0950  0.5732
  941SOL    HW3 3537   3.486   6.295   0.339  0.1211  0.2160  0.0365
  941SOL    MW4 3538   3.481   6.219   0.296 -0.4412 -0.2084 -0.6831
  942SOL     OW 3539   5.077   5.937   2.388 -0.0037 -0.2278  0.2029
  942SOL    HW2 3540   5.131   5.955   2.311 -0.2156  0.8187  0.2873
  942SOL    HW3 3541   5.137   5.895   2.450  0.8790  1.3928  0.5020
  942SOL    MW4 3542   5.092   5.934   2.386  0.0370  0.2070 -0.3411
  943SOL     OW 3543   0.182   4.176   0.459  0.1724  0.2191 -0.0941
  943SOL    HW2 3544   0.149   4.263   0.437  2.0540  1.8305  2.8157
  943SOL    HW3 3545   0.104   4.123   0.473 -1.0469  1.8212 -0.5817
  943SOL    MW4 3546   0.168   4.181   0.458 -0.3557 -0.1935  0.1093
  944SOL     OW 3547   1.481   0.961   5.733 -0.1078 -0.7376 -0.8267
  944SOL    HW2 3548   1.538   0.968   5.656  1.6834 -0.5773  0.4332
  944SOL    HW3 3549   1.479   1.050   5.769 -0.9634 -0.8035 -0.6884
  944SOL    MW4 3550   1.489   0.974   5.727  0.3307 -0.3449 -0.1340
  945SOL     OW 3551   6.288   5.386   2.633 -0.0621 -0.4506 -0.6014
  945SOL    HW2 3552   6.218   5.405   2.695  0.5141  0.0428 -0.0887
  945SOL    HW3 3553   6.301   5.468   2.586  0.3143 -0.4767 -0.5442
  945SOL    MW4 3554   6.281   5.399   2.635 -0.3651  0.6410 -0.0313
  946SOL     OW 3555   4.997   2.835   2.105  0.0756 -0.5681 -0.3841
  946SOL    HW2 3556   4.914   2.862   2.143 -0.2912  2.0362 -2.6938
  946SOL    HW3 3557   5.057   2.828   2.179 -1.5776 -0.0060  1.0798
  946SOL    MW4 3558   4.994   2.837   2.119 -0.5769  0.2264 -0.4004
  947SOL     OW 3559   3.117   1.320   5.330  0.1708 -0.0490  0.2910
  947SOL    HW2 3560   3.168   1.269   5.267  0.4729  0.4416  0.1317
  947SOL    HW3 3561   3.167   1.313   5.412  0.1987 -0.0360  0.2753
  947SOL    MW4 3562   3.131   1.313   5.332  0.0649 -0.2417  0.4946
  948SOL     OW 3563   2.345   3.324   0.788 -0.0142  0.3195  0.1386
  948SOL    HW2 3564   2.407   3.332   0.860 -0.5681 -0.6475  0.7418
  948SOL    HW3 3565   2.259   3.336   0.828 -0.2925  0.4149 -0.4721
  948SOL    MW4 3566   2.342   3.326   0.803  0.1618 -0.4794  0.3386
  949SOL     OW 3567   4.803   1.364   1.395 -0.1611 -0.1698 -0.4587
  949SOL    HW2 3568   4.799   1.415   1.314  0.1042  1.8732  0.7340
  949SOL    HW3 3569   4.888   1.319   1.390 -0.8201 -1.3299 -1.9712
  949SOL    MW4 3570   4.814   1.365   1.383 -0.4109 -0.6005 -0.3976
  950SOL     OW 3571   2.289   2.190   1.583 -0.0868  0.1583  0.6084
  950SOL    HW2 3572   2.383   2.183   1.567 -0.0272  0.8905  0.5894
  950SOL    HW3 3573   2.254   2.223   1.501 -0.5367 -1.2281  0.2159
  950SOL    MW4 3574   2.297   2.193   1.570 -0.9945  0.0666  0.2191
  951SOL     OW 3575   5.410   2.850   0.714 -0.4359  0.2332 -0.5382
  951SOL    HW2 3576   5.449   2.834   0.800 -0.3812  1.4156 -0.3275
  951SOL    HW3 3577   5.388   2.763   0.681 -0.2155 -0.2510  0.5558
  951SOL    MW4 3578   5.412   2.836   0.721 -0.2218  0.6457  0.2910
  952SOL     OW 3579   2.167   6.041   2.404  0.3298  0.4769 -0.6894
  952SOL    HW2 3580   2.111   6.085   2.340  0.2069  0.8939 -0.3043
  952SOL    HW3 3581   2.179   6.106   2.473  1.3405  0.4131 -0.7908
  952SOL    MW4 3582   2.161   6.055   2.405  0.2962 -0.5481 -1.2031
  953SOL     OW 3583   1.170   3.376   5.652 -0.3556 -0.5476 -0.0100
  953SOL    HW2 3584   1.197   3.290   5.622 -0.1801 -1.3048  2.1813
  953SOL    HW3 3585   1.251   3.417   5.684 -0.8508 -0.7231  1.5777
  953SOL    MW4 3586   1.184   3.370   5.652  0.3749 -0.1908 -0.1849
  954SOL     OW 3587   0.941   3.701   5.678  0.1052  0.0587  0.7010
  954SOL    HW2 3588   0.919   3.786   5.640 -0.1121 -0.6498 -0.8432
  954SOL    HW3 3589   0.869   3.643   5.650  0.5038 -0.7529  1.3055
  954SOL    MW4 3590   0.928   3.704   5.670 -0.1203  0.0856  0.4355
  955SOL     OW 3591   2.364   0.075   0.936  0.2330 -0.3696 -0.0662
  955SOL    HW2 3592   2.426   0.003   0.925  2.3844  1.2278  0.8402
  955SOL    HW3 3593   2.382   0.133   0.862  0.4199  0.5056  0.6508
  955SOL    MW4 3594   2.375   0.073   0.925  0.2928 -0.4576  0.1112
  956SOL     OW 3595   0.215   0.812   3.470 -0.3502 -0.7061 -0.6956
  956SOL    HW2 3596   0.214   0.821   3.566 -1.3711 -1.5607 -0.6176
  956SOL    HW3 3597   0.207   0.902   3.438  0.5724 -0.3513 -0.0004
  956SOL    MW4 3598   0.214   0.825   3.479 -0.3256  0.7369  0.0712
  957SOL     OW 3599   1.904   2.923   2.529 -0.6581 -0.2698 -0.4259
  957SOL    HW2 3600   1.840   2.951   2.463  0.0133  0.3360 -0.8324
  957SOL    HW3 3601   1.939   3.005   2.564  0.2379 -0.6002 -0.5428
  957SOL    MW4 3602   1.900   2.938   2.525  0.3896  0.5080  0.0277
  958SOL     OW 3603   5.241   5.801   2.561 -0.8266 -1.3013  0.0406
  958SOL    HW2 3604   5.289   5.746   2.498 -1.8620 -0.4370 -1.5642
  958SOL    HW3 3605   5.275   5.889   2.546 -0.8354 -1.1277  0.9854
  958SOL    MW4 3606   5.252   5.805   2.551 -0.3366 -0.0889 -0.0022
  959SOL     OW 3607   0.956   1.363   6.361  0.2229  0.2589 -1.0377
  959SOL    HW2 3608   1.015   1.405   6.424 -0.5015 -0.3764  0.1060
  959SOL    HW3 3609   0.950   1.425   6.288  0.9990  1.0673 -0.4326
  959SOL    MW4 3610   0.963   1.376   6.360  0.2768 -0.9429 -0.1590
  960SOL     OW 3611   4.181   1.069   6.395  0.7732 -0.5999  0.3572
  960SOL    HW2 3612   4.179   1.023   6.311  0.2072 -1.2726  0.7307
  960SOL    HW3 3613   4.262   1.039   6.437  2.0130  1.0946 -0.6684
  960SOL    MW4 3614   4.192   1.059   6.389 -0.3149  0.3123  0.0107
  961SOL     OW 3615   5.409   4.833   1.295  0.3782  0.0778  0.0758
  961SOL    HW2 3616   5.347   4.898   1.261  0.7835 -0.1168 -1.0784
  961SOL    HW3 3617   5.405   4.761   1.232 -0.3870 -1.2334  1.5504
  961SOL    MW4 3618   5.400   4.832   1.282  0.3174  0.3954 -0.1791
  962SOL     OW 3619   4.788   1.394   3.196  0.0387 -0.0534  0.0992
  962SOL    HW2 3620   4.737   1.378   3.116  0.8102 -0.6278 -0.2797
  962SOL    HW3 3621   4.746   1.340   3.263  0.8372 -1.4447 -0.4865
  962SOL    MW4 3622   4.775   1.385   3.194  0.7563  0.3254 -0.0108
  963SOL     OW 3623   5.854   3.186   0.468  0.0369 -0.3445 -0.4917
  963SOL    HW2 3624   5.899   3.229   0.541 -0.0224  0.5054 -0.9392
  963SOL    HW3 3625   5.904   3.105   0.453  2.4861  1.3096 -2.0185
  963SOL    MW4 3626   5.866   3.181   0.476 -0.4364 -0.0495  0.2278
  964SOL     OW 3627   5.712   3.658   4.834 -0.6896  0.2267  0.0466
  964SOL    HW2 3628   5.722   3.678   4.740  1.0331  2.8343  0.6630
  964SOL    HW3 3629   5.801   3.660   4.868 -1.3750  0.3703  1.9315
  964SOL    MW4 3630   5.725   3.661   4.826 -0.1069 -0.3656 -0.2457
  965SOL     OW 3631   2.319   0.276   0.203 -0.4247  0.3738  0.5221
  965SOL    HW2 3632   2.396   0.266   0.148 -0.3068  1.2291  0.5188
  965SOL    HW3 3633   2.293   0.186   0.225 -0.3040  0.0221 -0.6871
  965SOL    MW4 3634   2.325   0.262   0.199  0.2047 -0.1104 -0.6829
  966SOL     OW 3635   0.322   0.750   0.220 -0.0640 -0.6376 -0.3024
  966SOL    HW2 3636   0.263   0.788   0.285  1.7191  1.9750 -0.0416
  966SOL    HW3 3637   0.408   0.749   0.263  0.8022 -0.6195 -1.9514
  966SOL    MW4 3638   0.325   0.755   0.234 -0.5830 -0.2389 -0.6615
  967SOL     OW 3639   1.531   5.270   0.749  0.0962  0.2387 -0.2619
  967SOL    HW2 3640   1.621   5.250   0.725 -0.1096  1.2114 -2.0044
  967SOL    HW3 3641   1.515   5.218   0.828  2.2664  0.2882  0.2735
  967SOL    MW4 3642   1.541   5.260   0.756 -0.4639 -0.3695 -0.0200
  968SOL     OW 3643   3.435   0.918   3.030 -0.1889  0.4867  0.8331
  968SOL    HW2 3644   3.456   0.992   2.974 -0.2518  0.0286  0.1975
  968SOL    HW3 3645   3.496   0.849   3.003 -2.0034 -0.6486 -0.5769
  968SOL    MW4 3646   3.446   0.919   3.019 -0.6957 -0.1533 -0.1913
  969SOL     OW 3647   1.940   5.620   1.579  0.2819  0.1571 -0.6299
  969SOL    HW2 3648   1.987   5.702   1.567  0.2750  0.0259 -1.6670
  969SOL    HW3 3649   1.966   5.589   1.665  0.2481  1.2688 -0.2083
  969SOL    MW4 3650   1.950   5.626   1.589  0.1510  0.3078 -0.4357
  970SOL     OW 3651   2.071   5.778   0.041 -0.1180 -0.6650 -0.0915
  970SOL    HW2 3652   2.063   5.868   0.012  1.5268 -0.4706 -0.0489
  970SOL    HW3 3653   2.147   5.744  -0.006  1.4817 -0.9064  2.4898
  970SOL    MW4 3654   2.080   5.785   0.031  0.0061 -0.1418 -0.0742
  971SOL     OW 3655   0.288   4.633   2.688  0.5933 -0.1416 -0.4311
  971SOL    HW2 3656   0.278   4.695   2.760  2.0106 -0.1018 -0.2493
  971SOL    HW3 3657   0.348   4.567   2.721 -1.3426 -2.0101 -0.3916
  971SOL    MW4 3658   0.294   4.632   2.702  0.1181  0.2967  0.0203
  972SOL     OW 3659   2.155   1.908   6.095 -0.0638  0.0802  0.2152
  972SOL    HW2 3660   2.207   1.844   6.046  0.9187  1.4416 -0.5950
  972SOL    HW3 3661   2.067   1.900   6.059  0.1532 -0.4937 -0.2098
  972SOL    MW4 3662   2.150   1.898   6.084  0.3606 -0.3159 -0.4437
  973SOL     OW 3663   0.996   5.691   4.980 -0.0233 -0.5928 -0.4649
  973SOL    HW2 3664   1.066   5.754   4.996  0.8243 -1.6463  0.0643
  973SOL    HW3 3665   1.041   5.611   4.955 -1.1046 -0.8829 -1.5457
  973SOL    MW4 3666   1.011   5.689   4.979  0.0352  0.7811  0.6269
  974SOL     OW 3667   2.221   2.515   5.283  0.7005  0.2789  0.0492
  974SOL    HW2 3668   2.289   2.555   5.338  0.4848 -0.1596  0.6496
  974SOL    HW3 3669   2.151   2.493   5.344  0.4513 -0.2109 -0.4063
  974SOL    MW4 3670   2.221   2.517   5.298 -0.3990  0.7553  0.0316
  975SOL     OW 3671   0.919   4.532   5.306  0.4935  0.5771 -0.0506
  975SOL    HW2 3672   0.916   4.627   5.320  1.3549  0.4687  0.9913
  975SOL    HW3 3673   1.004   4.505   5.341 -0.5993 -0.8834  1.6689
  975SOL    MW4 3674   0.930   4.541   5.312 -0.4189  0.2086  0.0664
  976SOL     OW 3675   0.525   4.291   1.774  0.4582 -0.3922 -0.5041
  976SOL    HW2 3676   0.470   4.368   1.758  1.4190  0.2383 -0.9278
  976SOL    HW3 3677   0.610   4.315   1.736  0.5542 -1.9964 -1.3600
  976SOL    MW4 3678   0.529   4.305   1.767 -0.0498  0.0665  0.3657
  977SOL     OW 3679   4.364   5.341   4.510 -0.1093  0.1996 -0.0197
  977SOL    HW2 3680   4.424   5.304   4.445  0.2108  1.2125 -0.3237
  977SOL    HW3 3681   4.413   5.336   4.593 -0.2797 -0.5346  0.0408
  977SOL    MW4 3682   4.379   5.336   4.513 -0.0843  0.1198  0.2317
  978SOL     OW 3683   4.815   5.971   4.854 -0.0050  0.1983 -0.1819
  978SOL    HW2 3684   4.770   6.053   4.836  1.7449  0.7669 -2.4606
  978SOL    HW3 3685   4.886   5.996   4.913 -1.1754 -0.2780  1.5062
  978SOL    MW4 3686   4.819   5.985   4.859 -0.2359  0.3930 -0.0657
  979SOL     OW 3687   5.430   3.773   2.393 -0.1829 -0.1219 -0.3270
  979SOL    HW2 3688   5.499   3.755   2.329 -1.1601 -0.4513 -1.3188
  979SOL    HW3 3689   5.390   3.855   2.363 -1.4141 -0.8803 -0.8447
  979SOL    MW4 3690   5.434   3.782   2.381  0.3249  0.3545 -0.1795
  980SOL     OW 3691   0.201   4.654   1.901 -0.3595 -0.2146  0.2386
  980SOL    HW2 3692   0.272   4.660   1.965 -0.7391 -1.2975  0.7791
  980SOL    HW3 3693   0.125   4.690   1.947 -0.6509 -1.0641  0.4360
  980SOL    MW4 3694   0.200   4.660   1.915  0.5288 -0.2093 -0.1406
  981SOL     OW 3695   5.953   3.055   1.118 -0.2200 -0.2177 -0.0287
  981SOL    HW2 3696   5.866   3.018   1.137 -0.8028  0.4698 -1.2453
  981SOL    HW3 3697   5.978   3.100   1.198 -1.2180  0.0005  0.1777
  981SOL    MW4 3698   5.945   3.056   1.131 -0.1188  0.3585 -0.2932
  982SOL     OW 3699   3.573   0.697   5.687 -0.3107  0.0165  0.4428
  982SOL    HW2 3700   3.493   0.713   5.638 -0.4448  1.5161  1.1201
  982SOL    HW3 3701   3.581   0.601   5.688 -2.3352 -0.1894  0.7566
  982SOL    MW4 3702   3.564   0.686   5.681  0.4453  0.2747  0.3120
  983SOL     OW 3703   4.347   5.729   6.275  0.7645  0.1180  0.1781
  983SOL    HW2 3704   4.299   5.647   6.270  1.9129 -0.5192 -2.8802
  983SOL    HW3 3705   4.298   5.790   6.220  1.8589  0.2967 -0.6564
  983SOL    MW4 3706   4.334   5.726   6.267 -0.2729  0.2591  0.1512
  984SOL     OW 3707   6.378   3.482   3.420  0.5853 -0.6703 -0.1477
  984SOL    HW2 3708   6.427   3.413   3.375  0.6124 -1.4965  1.0843
  984SOL    HW3 3709   6.341   3.535   3.350  0.3573 -2.0888 -1.1376
  984SOL    MW4 3710   6.380   3.480   3.405  0.2465  0.1042 -0.8685
  985SOL     OW 3711   0.009   5.574   1.862 -0.0836  0.4529  0.1844
  985SOL    HW2 3712  -0.034   5.516   1.799  0.6181 -0.5282  0.5846
  985SOL    HW3 3713  -0.059   5.637   1.886 -1.0569 -0.5602  0.1892
  985SOL    MW4 3714  -0.006   5.574   1.857 -0.0661  0.0961 -0.8730
  986SOL     OW 3715   4.318   1.823   0.049 -0.1568 -0.0749  0.2517
  986SOL    HW2 3716   4.303   1.730   0.028  0.0267  0.0278 -0.3732
  986SOL    HW3 3717   4.284   1.834   0.137  0.1269 -0.8209  0.4595
  986SOL    MW4 3718   4.312   1.812   0.058  0.3713 -0.0759 -0.3428
  987SOL     OW 3719   4.971   6.103   4.642 -0.2659 -0.0552  0.3997
  987SOL    HW2 3720   5.005   6.191   4.656 -2.1704  0.8089 -0.0813
  987SOL    HW3 3721   4.955   6.069   4.730  0.2218  0.1861  0.5846
  987SOL    MW4 3722   4.974   6.110   4.655 -0.1041 -0.0923 -0.1748
  988SOL     OW 3723   6.038   3.976   5.534 -0.7603  0.2114 -0.3091
  988SOL    HW2 3724   6.100   3.970   5.606 -1.2569 -0.3218  0.0827
  988SOL    HW3 3725   5.952   3.968   5.575 -1.1821  2.2367 -0.6746
  988SOL    MW4 3726   6.035   3.974   5.549  0.8163  0.2468  0.2834
  989SOL     OW 3727   6.364   1.118   1.934  0.1540  0.2026 -0.1384
  989SOL    HW2 3728   6.298   1.144   1.998  0.1834 -0.1523  0.0398
  989SOL    HW3 3729   6.378   1.025   1.951 -0.9580 -0.2826 -1.6570
  989SOL    MW4 3730   6.357   1.109   1.945 -0.1798 -0.0507 -0.5183
  990SOL     OW 3731   0.528   2.027   3.387 -0.6303  0.0458 -0.0566
  990SOL    HW2 3732   0.461   1.960   3.395 -0.1907 -0.5651 -1.2175
  990SOL    HW3 3733   0.512   2.066   3.301 -0.7678  1.3141  0.5265
  990SOL    MW4 3734   0.517   2.023   3.377 -0.0701  0.9031 -0.1461
  991SOL     OW 3735   2.761   1.766   1.775 -0.2662  0.1624  0.1334
  991SOL    HW2 3736   2.678   1.814   1.776 -0.7708 -0.6092 -1.4010
  991SOL    HW3 3737   2.828   1.833   1.763 -0.6430  0.7960  1.4322
  991SOL    MW4 3738   2.759   1.781   1.774 -0.0021  0.2968 -0.1909
  992SOL     OW 3739   0.295   0.538   0.703  0.7809  0.4317  0.1919
  992SOL    HW2 3740   0.269   0.466   0.760 -0.0487  0.3549 -0.2699
  992SOL    HW3 3741   0.344   0.597   0.760  3.4140 -1.5168  0.1363
  992SOL    MW4 3742   0.298   0.536   0.718  0.4402  0.0741 -0.1495
  993SOL     OW 3743   4.627   2.279   3.391  0.2502 -0.4210  0.2872
  993SOL    HW2 3744   4.712   2.278   3.347 -0.2543 -0.3550 -0.7314
  993SOL    HW3 3745   4.612   2.371   3.413  0.3647 -0.4048  0.2975
  993SOL    MW4 3746   4.636   2.291   3.388 -0.5379 -0.1404 -0.3044
  994SOL     OW 3747   0.331   3.580   5.396 -0.2478 -0.1435 -0.3163
  994SOL    HW2 3748   0.325   3.587   5.492  0.0938  0.5345 -0.3362
  994SOL    HW3 3749   0.269   3.645   5.364 -2.4090 -2.1991 -0.6015
  994SOL    MW4 3750   0.322   3.590   5.405  0.3114 -0.3867  0.0114
  995SOL     OW 3751   1.225   1.703   5.136 -0.3165  1.1332 -0.3975
  995SOL    HW2 3752   1.170   1.625   5.130  0.1002  0.7533  0.4661
  995SOL    HW3 3753   1.236   1.732   5.046 -0.5656  0.2532 -0.7234
  995SOL    MW4 3754   1.219   1.697   5.124  0.1846  0.2735  0.1898
  996SOL     OW 3755   0.120   6.223   0.847 -0.3954  0.8087  0.1716
  996SOL    HW2 3756   0.193   6.266   0.802 -0.7566  0.2023 -1.0315
  996SOL    HW3 3757   0.110   6.273   0.928  0.5768  1.6443 -0.1925
  996SOL    MW4 3758   0.129   6.235   0.851  0.2048  0.1271  0.2782
  997SOL     OW 3759   5.197   2.008   3.360  0.7125  0.2681 -0.2789
  997SOL    HW2 3760   5.260   1.939   3.381  1.5139  1.0847  0.1238
  997SOL    HW3 3761   5.220   2.034   3.270  0.2998 -0.1046 -0.4931
  997SOL    MW4 3762   5.209   2.002   3.351  0.1654  0.1685 -0.2552
  998SOL     OW 3763   5.106   3.314   5.033 -0.2957 -0.0803  0.5103
  998SOL    HW2 3764   5.163   3.241   5.008 -1.0941 -0.5841  0.1254
  998SOL    HW3 3765   5.166   3.388   5.046  0.3611 -0.3763 -0.7237
  998SOL    MW4 3766   5.122   3.314   5.032  0.1014 -0.4384 -0.0912
  999SOL     OW 3767   5.474   5.852   3.089 -0.0434 -0.0093 -0.3069
  999SOL    HW2 3768   5.554   5.856   3.141 -0.9119  0.8581  1.0001
  999SOL    HW3 3769   5.496   5.791   3.018  1.3347 -0.8515  0.7711
  999SOL    MW4 3770   5.488   5.844   3.086  0.1600 -0.1260 -0.4735
 1000SOL     OW 3771   3.140   5.594   2.208 -0.2179  0.3755 -0.3071
 1000SOL    HW2 3772   3.120   5.513   2.162 -1.2512 -0.5973  1.6906
 1000SOL    HW3 3773   3.235   5.598   2.211 -0.1540 -0.1710 -1.4072
 1000SOL    MW4 3774   3.150   5.584   2.203 -0.6430 -0.1547  0.7874
 1001SOL     OW 3775   5.895   2.847   2.948  0.0452  0.1066 -0.2263
 1001SOL    HW2 3776   5.956   2.784   2.912 -2.3413 -2.5419 -0.0027
 1001SOL    HW3 3777   5.882   2.911   2.878 -0.9179 -2.2911 -2.3935
 1001SOL    MW4 3778   5.901   2.847   2.934 -0.5172 -0.0057  1.0399
 1002SOL     OW 3779   3.956   2.229   4.763  0.5943 -0.0138 -0.4974
 1002SOL    HW2 3780   3.984   2.152   4.811  0.8615  0.2317 -0.2529
 1002SOL    HW3 3781   4.026   2.293   4.777 -0.2933  0.7921  0.5470
 1002SOL    MW4 3782   3.969   2.228   4.771 -0.0284  0.3103  0.0437
 1003SOL     OW 3783   1.066   1.374   2.948 -0.1680 -0.2601 -0.0802
 1003SOL    HW2 3784   1.047   1.373   2.854 -1.9176 -0.6690  0.2564
 1003SOL    HW3 3785   1.161   1.389   2.953  0.0580 -0.8503 -1.9257
 1003SOL    MW4 3786   1.076   1.376   2.936 -0.2899 -0.4004  0.7153
 1004SOL     OW 3787   5.004   2.100   5.870 -0.1433  0.0903  0.4305
 1004SOL    HW2 3788   4.925   2.142   5.904  0.9243  2.2970  0.3749
 1004SOL    HW3 3789   4.982   2.007   5.866 -2.5578  0.5749  0.8533
 1004SOL    MW4 3790   4.991   2.094   5.874  1.2584 -0.0224 -0.3421
 1005SOL     OW 3791   6.360   0.856   5.430  0.2849  0.5900 -0.3626
 1005SOL    HW2 3792   6.425   0.848   5.360  1.2750  0.4246  0.5525
 1005SOL    HW3 3793   6.402   0.818   5.507 -0.8523  0.5996  0.2975
 1005SOL    MW4 3794   6.374   0.850   5.431  0.5573 -0.4039  0.5660
 1006SOL     OW 3795   0.068   5.577   0.372  0.1254  0.2814  0.0906
 1006SOL    HW2 3796   0.017   5.658   0.367  2.2191  1.9910  2.9245
 1006SOL    HW3 3797   0.012   5.515   0.417 -1.4543  0.1038 -1.9719
 1006SOL    MW4 3798   0.054   5.580   0.377  0.0837  0.3313 -0.1175
 1007SOL     OW 3799   4.246   4.497   1.681 -1.0258 -0.2181  0.3680
 1007SOL    HW2 3800   4.193   4.421   1.705  1.1139 -1.0145  3.1650
 1007SOL    HW3 3801   4.323   4.461   1.637 -0.0963  0.2535  1.5205
 1007SOL    MW4 3802   4.249   4.482   1.678  0.3790 -0.0880 -0.2050
 1008SOL     OW 3803   2.123   4.603   3.817 -0.1876 -0.4876 -0.2589
 1008SOL    HW2 3804   2.087   4.689   3.840 -0.8489 -0.5427 -1.0466
 1008SOL    HW3 3805   2.188   4.621   3.749 -1.2632 -0.7150 -1.3803
 1008SOL    MW4 3806   2.127   4.617   3.811  0.0418 -0.2193  0.7593
 1009SOL     OW 3807   4.463   0.010   3.632 -0.1296 -0.0806 -0.2325
 1009SOL    HW2 3808   4.476   0.048   3.546  3.5339 -0.0410  0.1815
 1009SOL    HW3 3809   4.513   0.066   3.692  0.8326 -2.3391  1.2299
 1009SOL    MW4 3810   4.471   0.022   3.629  0.0049  0.2521 -0.4566
 1010SOL     OW 3811   1.228   0.945   4.605  0.4471  0.6241  0.0844
 1010SOL    HW2 3812   1.251   0.937   4.698  1.6562  1.1408 -0.1572
 1010SOL    HW3 3813   1.222   1.039   4.589 -3.1553  0.6200  0.3874
 1010SOL    MW4 3814   1.230   0.956   4.615 -0.2394  0.1885 -0.7320
 1011SOL     OW 3815   4.360   0.101   0.112  0.0337 -0.1127 -0.1522
 1011SOL    HW2 3816   4.450   0.088   0.141 -1.0659 -1.2895  3.1790
 1011SOL    HW3 3817   4.325   0.169   0.170 -2.0938 -1.9782  0.9135
 1011SOL    MW4 3818   4.367   0.109   0.123 -0.2230 -0.0102  1.0076
 1012SOL     OW 3819   2.446   3.317   6.196  0.1279 -0.0188  0.5848
 1012SOL    HW2 3820   2.449   3.356   6.109 -0.4441 -0.3927  0.3941
 1012SOL    HW3 3821   2.363   3.270   6.199 -0.1380  0.4752  1.5445
 1012SOL    MW4 3822   2.435   3.316   6.185 -0.3077 -0.6580  0.2583
 1013SOL     OW 3823   0.153   3.498   2.115  0.2427 -0.3579 -0.2745
 1013SOL    HW2 3824   0.143   3.403   2.118  0.6411 -0.4791 -1.9592
 1013SOL    HW3 3825   0.065   3.532   2.104  0.2568 -0.6445 -1.3701
 1013SOL    MW4 3826   0.140   3.490   2.114 -0.1132  0.1478  0.1421
 1014SOL     OW 3827   3.237   5.668   4.111  0.0136  0.3797 -0.4627
 1014SOL    HW2 3828   3.192   5.681   4.028  0.0701  3.0317 -0.1512
 1014SOL    HW3 3829   3.175   5.697   4.177  0.2271 -1.0676  0.4145
 1014SOL    MW4 3830   3.223   5.673   4.108 -0.2419  0.0535 -0.4128
 1015SOL     OW 3831   4.655   4.172   3.909  0.2107 -0.2505 -0.2326
 1015SOL    HW2 3832   4.738   4.129   3.890 -0.7949 -2.1413 -0.6052
 1015SOL    HW3 3833   4.608   4.110   3.965 -1.2163  0.4871 -0.5542
 1015SOL    MW4 3834   4.660   4.158   3.914  0.0618  0.1208  0.0270
 1016SOL     OW 3835   4.541   2.015   2.494 -0.1003  0.3558 -0.1683
 1016SOL    HW2 3836   4.533   2.027   2.399  3.0521 -1.1499 -0.7747
 1016SOL    HW3 3837   4.602   1.942   2.503 -0.5811  0.2310  3.0646
 1016SOL    MW4 3838   4.548   2.007   2.483 -0.3146  0.0345  0.2188
 1017SOL     OW 3839   0.820   1.287   0.759  0.0461 -0.9370  0.0464
 1017SOL    HW2 3840   0.787   1.357   0.814  1.8588  0.2388 -0.3045
 1017SOL    HW3 3841   0.744   1.261   0.706 -0.7119  0.5923  0.3320
 1017SOL    MW4 3842   0.806   1.292   0.759  0.9311 -0.7162  0.4711
 1018SOL     OW 3843   4.566   1.866   4.339 -0.3280  0.1071  0.0620
 1018SOL    HW2 3844   4.632   1.887   4.274 -0.3640 -3.1129 -1.1903
 1018SOL    HW3 3845   4.615   1.853   4.420  0.0017  1.7853  0.1644
 1018SOL    MW4 3846   4.581   1.867   4.341  0.5065  0.1487 -0.1159
 1019SOL     OW 3847   0.193   0.904   5.541 -0.4829  0.0499 -0.3300
 1019SOL    HW2 3848   0.218   0.822   5.584  1.9460  0.6694 -0.4142
 1019SOL    HW3 3849   0.183   0.966   5.613  0.5346  0.3491 -0.4367
 1019SOL    MW4 3850   0.195   0.901   5.556 -0.4085 -0.0292 -0.0654
 1020SOL     OW 3851   5.955   5.459   5.276 -0.0794 -0.6116  0.1750
 1020SOL    HW2 3852   5.945   5.471   5.181 -1.2091 -0.1769  0.3276
 1020SOL    HW3 3853   6.047   5.436   5.288  0.0705 -0.7152 -1.0321
 1020SOL    MW4 3854   5.966   5.458   5.265  0.1918 -0.4328  0.6915
 1021SOL     OW 3855   0.564   0.709   0.407 -0.1303  0.4512  0.5789
 1021SOL    HW2 3856   0.658   0.698   0.395  0.3821  1.8434  2.7864
 1021SOL    HW3 3857   0.533   0.623   0.434  0.5323  0.0359  0.0468
 1021SOL    MW4 3858   0.572   0.696   0.409 -0.0223  0.0509 -0.0868
 1022SOL     OW 3859   2.767   4.907   3.037 -0.1489 -0.3517 -0.4587
 1022SOL    HW2 3860   2.803   4.841   3.097  0.5718 -0.5553 -1.0921
 1022SOL    HW3 3861   2.826   4.982   3.046 -1.9575  0.9266  1.5632
 1022SOL    MW4 3862   2.780   4.908   3.046  0.9544  0.0213  0.1253
 1023SOL     OW 3863   4.295   5.250   0.565 -0.3495 -0.0064  0.2396
 1023SOL    HW2 3864   4.259   5.268   0.652  3.6961  0.0518  2.1493
 1023SOL    HW3 3865   4.288   5.155   0.556  0.8982 -0.2848  1.6237
 1023SOL    MW4 3866   4.289   5.239   0.575 -0.0719  0.3033  0.2202
 1024SOL     OW 3867   3.102   2.411   4.007  0.5397 -0.7849  0.3109
 1024SOL    HW2 3868   3.090   2.368   3.922 -0.5454  2.4022 -1.2967
 1024SOL    HW3 3869   3.188   2.453   4.001 -0.0613  0.4860  0.2311
 1024SOL    MW4 3870   3.111   2.411   3.995  0.0889  0.2194 -0.4153
 1025SOL     OW 3871   4.770   3.905   4.308  0.1482  0.0565 -0.2890
 1025SOL    HW2 3872   4.840   3.898   4.372 -0.4739 -0.4727  0.3461
 1025SOL    HW3 3873   4.694   3.863   4.349 -0.7042  1.0930 -0.7271
 1025SOL    MW4 3874   4.769   3.899   4.322  0.1880  0.1128 -0.5722
 1026SOL     OW 3875   4.772   5.136   5.059  0.0505 -0.3989 -0.2896
 1026SOL    HW2 3876   4.790   5.043   5.070  0.4551 -0.1950  0.9412
 1026SOL    HW3 3877   4.733   5.143   4.972 -0.0615 -1.7226 -0.3637
 1026SOL    MW4 3878   4.769   5.125   5.049  0.4730 -0.0210  0.1688
 1027SOL     OW 3879   3.620   6.024   4.326 -0.0050 -0.1341 -0.2697
 1027SOL    HW2 3880   3.570   6.008   4.246  2.1395 -0.8504 -1.5762
 1027SOL    HW3 3881   3.671   5.944   4.338 -0.6472 -0.2403  2.1601
 1027SOL    MW4 3882   3.620   6.012   4.317  0.4236 -0.0439 -0.0339
 1028SOL     OW 3883   0.549   0.343   5.426  0.2696  0.1148  0.0141
 1028SOL    HW2 3884   0.468   0.292   5.423 -0.2148  0.6887  1.8520
 1028SOL    HW3 3885   0.567   0.366   5.335 -1.5494 -0.1685 -0.4459
 1028SOL    MW4 3886   0.541   0.339   5.414  0.0962 -0.8286  0.2810
 1029SOL     OW 3887   2.774   1.075   3.064 -0.6774 -0.4072  0.4686
 1029SOL    HW2 3888   2.770   0.985   3.098  0.2031  0.2923  2.5791
 1029SOL    HW3 3889   2.683   1.098   3.047 -0.8282 -2.2823 -1.9544
 1029SOL    MW4 3890   2.762   1.066   3.066  0.3566  0.4631 -0.2529
 1030SOL     OW 3891   5.641   5.681   5.927  0.5386 -0.2129 -0.3267
 1030SOL    HW2 3892   5.705   5.730   5.876  1.4278  1.3597  2.0926
 1030SOL    HW3 3893   5.666   5.589   5.917  0.6854  0.0315 -2.5879
 1030SOL    MW4 3894   5.653   5.675   5.919 -0.0547  1.0009  0.0109
 1031SOL     OW 3895   5.584   3.674   3.535  0.2139 -0.1553  0.2080
 1031SOL    HW2 3896   5.647   3.637   3.597  0.3958  1.7762  1.2695
 1031SOL    HW3 3897   5.589   3.769   3.549  1.1614  0.5352 -3.6930
 1031SOL    MW4 3898   5.593   3.682   3.545  0.0784  0.1675  0.9268
 1032SOL     OW 3899   3.642   5.403   2.436 -0.3895  0.1941 -0.1290
 1032SOL    HW2 3900   3.621   5.495   2.421 -2.1035 -0.2531 -0.7972
 1032SOL    HW3 3901   3.619   5.360   2.353 -1.2636 -1.0635  0.7215
 1032SOL    MW4 3902   3.636   5.409   2.423 -0.4724  0.6063 -0.5415
 1033SOL     OW 3903   2.532   1.043   5.494  0.6833  0.3158 -0.1786
 1033SOL    HW2 3904   2.563   1.118   5.443  2.2712  0.2229  0.5923
 1033SOL    HW3 3905   2.486   1.083   5.568  1.3699  0.5464  0.1349
 1033SOL    MW4 3906   2.530   1.059   5.497  0.9348  0.0934  0.1097
 1034SOL     OW 3907   3.623   5.345   0.946  0.2285  0.2579  0.3817
 1034SOL    HW2 3908   3.663   5.391   0.872 -2.6734 -0.9866 -2.2066
 1034SOL    HW3 3909   3.629   5.252   0.922 -1.0957 -0.1563  1.4947
 1034SOL    MW4 3910   3.629   5.339   0.933 -0.5176 -0.6020 -0.4631
 1035SOL     OW 3911   5.550   4.349   0.969  0.0847  0.4390  0.0980
 1035SOL    HW2 3912   5.536   4.440   0.941 -1.9640  0.6880  1.7170
 1035SOL    HW3 3913   5.614   4.355   1.039  1.5163  0.3503 -1.1480
 1035SOL    MW4 3914   5.557   4.362   0.974 -0.3580  0.1527  0.1902
 1036SOL     OW 3915   0.422   0.436   3.399  0.1350  0.0014 -0.8271
 1036SOL    HW2 3916   0.375   0.409   3.320  0.0276  0.8780 -1.0725
 1036SOL    HW3 3917   0.413   0.531   3.401  0.5364  0.0311 -0.0059
 1036SOL    MW4 3918   0.414   0.445   3.389  0.0579  0.4797  0.1163
 1037SOL     OW 3919   5.264   1.778   2.724  0.4542 -0.2583  0.3331
 1037SOL    HW2 3920   5.169   1.778   2.730  0.5191 -0.5609  1.7299
 1037SOL    HW3 3921   5.284   1.716   2.653 -0.3646 -0.9696  0.7082
 1037SOL    MW4 3922   5.254   1.770   2.715  0.0493  0.1370  0.1837
 1038SOL     OW 3923   2.607   2.557   2.178  0.5137 -0.1372 -0.0737
 1038SOL    HW2 3924   2.668   2.611   2.230  1.6810 -0.1909 -1.3313
 1038SOL    HW3 3925   2.523   2.565   2.224  0.7947  2.2265  0.1614
 1038SOL    MW4 3926   2.604   2.565   2.191 -0.2112  0.3026 -0.5104
 1039SOL     OW 3927   5.085   0.182   5.427 -0.0451  0.0446  0.0926
 1039SOL    HW2 3928   5.156   0.180   5.491 -0.7120  0.3238  0.8593
 1039SOL    HW3 3929   5.122   0.228   5.352  1.1325 -1.3173 -0.2140
 1039SOL    MW4 3930   5.099   0.188   5.426 -0.2569  0.1926  0.0314
 1040SOL     OW 3931   6.016   2.562   4.532 -0.4564  0.0952 -0.8230
 1040SOL    HW2 3932   5.970   2.646   4.533 -2.6985 -1.0506  0.1379
 1040SOL    HW3 3933   5.949   2.498   4.507  1.4974 -1.2932 -2.8120
 1040SOL    MW4 3934   6.001   2.565   4.529 -0.5543 -0.2399 -0.0227
 1041SOL     OW 3935   2.539   2.459   0.135  0.1677  0.2758 -0.2843
 1041SOL    HW2 3936   2.623   2.474   0.178  0.0135  0.4441 -0.0433
 1041SOL    HW3 3937   2.549   2.499   0.049  1.0982 -1.5863 -1.0924
 1041SOL    MW4 3938   2.551   2.466   0.129 -0.2393  0.7023 -0.2977
 1042SOL     OW 3939   1.620   4.029   1.914 -0.4241  0.0456 -0.2899
 1042SOL    HW2 3940   1.534   4.059   1.942 -1.1575 -2.5838  0.5118
 1042SOL    HW3 3941   1.609   4.008   1.821 -0.4616  0.2609 -0.3359
 1042SOL    MW4 3942   1.608   4.031   1.906  0.3273  0.7902  0.3896
 1043SOL     OW 3943   5.433   6.009   3.436  0.1357  0.6261  0.1560
 1043SOL    HW2 3944   5.461   5.995   3.527  1.0396 -0.5192 -0.2736
 1043SOL    HW3 3945   5.410   5.922   3.404 -3.8238  1.4249  0.3702
 1043SOL    MW4 3946   5.434   5.996   3.444  0.3700 -0.1693  0.5369
 1044SOL     OW 3947   4.609   3.832   0.258  0.5382 -0.2193 -0.4630
 1044SOL    HW2 3948   4.533   3.790   0.219  1.4676 -1.2802 -1.1769
 1044SOL    HW3 3949   4.684   3.786   0.221  1.5180  0.3160  0.7775
 1044SOL    MW4 3950   4.609   3.821   0.248 -0.1189 -0.2578 -0.2432
 1045SOL     OW 3951   0.875   3.208   0.978 -0.9968 -0.2339 -0.6693
 1045SOL    HW2 3952   0.870   3.271   0.905 -1.2364  0.1248 -0.3474
 1045SOL    HW3 3953   0.899   3.125   0.936  0.3852  0.2924 -0.9835
 1045SOL    MW4 3954   0.877   3.206   0.963  0.7334  0.6334 -0.4520
 1046SOL     OW 3955   4.050   0.619   2.536  0.1748  0.2382  0.0841
 1046SOL    HW2 3956   4.055   0.676   2.612 -0.3983  1.2083 -0.5864
 1046SOL    HW3 3957   3.983   0.554   2.559  1.9974 -1.2706  1.5188
 1046SOL    MW4 3958   4.042   0.618   2.549 -0.5712  0.2136  0.5064
 1047SOL     OW 3959   3.641   4.654   0.398 -0.1250  0.3487  0.2172
 1047SOL    HW2 3960   3.628   4.684   0.308  0.1533  0.5403  0.2398
 1047SOL    HW3 3961   3.554   4.660   0.438 -0.4529 -0.6914 -0.3178
 1047SOL    MW4 3962   3.628   4.659   0.392 -0.4935 -0.2029  0.5149
 1048SOL     OW 3963   3.406   2.917   3.140  0.6286  0.4457  0.1944
 1048SOL    HW2 3964   3.462   2.970   3.198  0.9756  0.4152 -0.1089
 1048SOL    HW3 3965   3.344   2.979   3.103 -0.9733  0.1367  2.2044
 1048SOL    MW4 3966   3.405   2.932   3.143 -0.3038 -0.5041 -0.4863
 1049SOL     OW 3967   5.541   0.826   4.624 -0.0875 -0.0873 -0.3269
 1049SOL    HW2 3968   5.514   0.736   4.604 -1.3509  0.4693 -1.2460
 1049SOL    HW3 3969   5.473   0.881   4.585  1.3607  1.3247 -0.9754
 1049SOL    MW4 3970   5.529   0.821   4.616  0.2836 -0.1960 -0.6076
 1050SOL     OW 3971   4.466   4.805   1.070  0.0216 -0.1748 -0.0921
 1050SOL    HW2 3972   4.558   4.830   1.079 -0.8951  3.1921  1.3043
 1050SOL    HW3 3973   4.459   4.723   1.119  1.9932  0.3175  1.1364
 1050SOL    MW4 3974   4.477   4.797   1.078 -0.0070 -0.4806 -0.0792
 1051SOL     OW 3975   4.097   0.118   5.463  0.0621  0.3343  0.8426
 1051SOL    HW2 3976   4.076   0.195   5.411  1.1867  0.3721  0.4318
 1051SOL    HW3 3977   4.073   0.142   5.553 -3.1711 -0.1916  0.2631
 1051SOL    MW4 3978   4.091   0.131   5.468  0.2712  0.1563  0.2896
 1052SOL     OW 3979   0.973   6.361   6.024  0.1194  0.0658  0.2909
 1052SOL    HW2 3980   0.974   6.265   6.015 -0.1515  0.1009 -0.1905
 1052SOL    HW3 3981   0.996   6.393   5.936 -0.0195  0.4434  0.3910
 1052SOL    MW4 3982   0.976   6.352   6.011  0.1508 -0.2089 -0.1192
 1053SOL     OW 3983   6.405   0.156   2.007  0.4062  0.0549  0.3119
 1053SOL    HW2 3984   6.396   0.067   1.974 -1.1755  0.3490 -0.1559
 1053SOL    HW3 3985   6.335   0.205   1.964  1.1854  1.5202  0.6170
 1053SOL    MW4 3986   6.395   0.151   1.997 -0.1497  0.5628 -0.0957
 1054SOL     OW 3987   4.018   2.655   5.105 -0.1889 -0.0889  0.4426
 1054SOL    HW2 3988   4.079   2.707   5.157  0.6236  1.2485 -1.7081
 1054SOL    HW3 3989   3.937   2.655   5.156  0.0882  2.4807  1.0297
 1054SOL    MW4 3990   4.015   2.662   5.119  0.2482  0.4231  0.1786
 1055SOL     OW 3991   4.113   3.188   1.291  0.1954 -0.3697  0.0735
 1055SOL    HW2 3992   4.129   3.094   1.278 -2.1717 -0.7089 -0.9990
 1055SOL    HW3 3993   4.019   3.194   1.306  0.2204  1.9087 -0.3408
 1055SOL    MW4 3994   4.103   3.176   1.292  0.3838 -0.5248  0.4237
 1056SOL     OW 3995   5.856   1.497   3.906 -0.0548 -0.0724 -0.1687
 1056SOL    HW2 3996   5.895   1.560   3.846  1.4068 -0.5129  0.2736
 1056SOL    HW3 3997   5.798   1.444   3.852 -0.1195  0.6692 -0.8306
 1056SOL    MW4 3998   5.853   1.498   3.891 -0.8005  0.0801 -0.3376
 1057SOL     OW 3999   2.474   0.545   3.501 -0.4534 -0.0588 -0.2921
 1057SOL    HW2 4000   2.512   0.619   3.454  1.9559  0.3076  2.0011
 1057SOL    HW3 4001   2.537   0.474   3.490 -1.0749 -0.7207  0.2855
 1057SOL    MW4 4002   2.487   0.545   3.493 -0.6453 -0.2332  0.1001
 1058SOL     OW 4003   5.373   4.979   2.231 -0.3961 -0.2454 -0.2214
 1058SOL    HW2 4004   5.295   5.031   2.253  0.2453  0.1754  1.2336
 1058SOL    HW3 4005   5.414   5.026   2.159 -0.5812  0.5011  0.1508
 1058SOL    MW4 4006   5.368   4.992   2.225 -0.2477  0.5983 -1.0047
 1059SOL     OW 4007   5.039   5.032   1.920 -0.2623 -0.8978 -0.3949
 1059SOL    HW2 4008   4.948   5.062   1.917 -0.0424  0.1275  1.5016
 1059SOL    HW3 4009   5.091   5.112   1.930  0.6875 -1.5854  0.4175
 1059SOL    MW4 4010   5.034   5.046   1.921  0.0063  0.3775  0.0972
 1060SOL     OW 4011   3.774   1.094   2.831 -0.0832 -0.7721  0.4203
 1060SOL    HW2 4012   3.790   1.030   2.762 -0.0907 -1.3870  0.9820
 1060SOL    HW3 4013   3.790   1.046   2.912 -0.8943 -0.2832  0.8743
 1060SOL    MW4 4014   3.779   1.079   2.832  0.6582  0.3446 -0.3968
 1061SOL     OW 4015   3.509   2.627   4.398  0.1143  0.1081  0.8036
 1061SOL    HW2 4016   3.559   2.676   4.463 -0.5437  0.0386  1.3714
 1061SOL    HW3 4017   3.574   2.574   4.352  0.5961  0.2355  1.3376
 1061SOL    MW4 4018   3.524   2.626   4.400  0.0112  0.1734 -0.1699
 1062SOL     OW 4019   0.789   3.825   0.899  0.1034  0.3506 -0.6571
 1062SOL    HW2 4020   0.749   3.738   0.890  1.1636 -0.2494  0.2259
 1062SOL    HW3 4021   0.786   3.843   0.992 -0.3904  1.4294 -0.8643
 1062SOL    MW4 4022   0.783   3.816   0.910  0.5989 -0.0755 -0.6050
 1063SOL     OW 4023   4.529   4.344   5.880 -0.3147 -0.4213 -0.0556
 1063SOL    HW2 4024   4.502   4.368   5.791  1.4442 -0.1109 -0.5549
 1063SOL    HW3 4025   4.611   4.392   5.893  0.1659 -1.5407  1.2073
 1063SOL    MW4 4026   4.537   4.353   5.870  0.6260  0.0601  0.1069
 1064SOL     OW 4027   1.172   2.826   0.962 -0.2169  0.2644 -0.3555
 1064SOL    HW2 4028   1.090   2.828   1.012  0.1673 -0.6875  0.3402
 1064SOL    HW3 4029   1.188   2.917   0.938 -0.5991  0.6991  0.9472
 1064SOL    MW4 4030   1.163   2.838   0.965  0.1821  0.3592  0.1558
 1065SOL     OW 4031   0.539   3.293   4.243  0.3308 -0.6086  0.2656
 1065SOL    HW2 4032   0.470   3.272   4.307 -1.6898  1.0698 -1.2121
 1065SOL    HW3 4033   0.496   3.281   4.158  1.9874  0.1997 -0.7277
 1065SOL    MW4 4034   0.524   3.288   4.240 -0.0487 -0.5058  0.4364
 1066SOL     OW 4035   2.199   2.754   5.138  0.0980 -0.0555  0.6004
 1066SOL    HW2 4036   2.145   2.724   5.064  1.0433  2.1854 -1.1421
 1066SOL    HW3 4037   2.217   2.675   5.188  0.0761 -1.8628 -2.0399
 1066SOL    MW4 4038   2.194   2.740   5.135  0.0998  0.6610 -0.4331
 1067SOL     OW 4039   3.979   1.967   2.846  0.4146 -0.9126  0.1175
 1067SOL    HW2 4040   4.023   1.890   2.809 -0.3967 -0.8645 -1.0192
 1067SOL    HW3 4041   4.038   2.040   2.827  0.1945 -0.9507 -0.7634
 1067SOL    MW4 4042   3.992   1.967   2.838 -0.0065  0.0040  0.2550
 1068SOL     OW 4043   3.580   2.294   5.940  0.5464  0.0329 -0.1209
 1068SOL    HW2 4044   3.534   2.249   5.870  0.4104 -0.2363  0.1414
 1068SOL    HW3 4045   3.666   2.252   5.943  0.4303 -0.1927  0.1032
 1068SOL    MW4 4046   3.586   2.282   5.931  0.3965  0.1209 -0.1059
 1069SOL     OW 4047   5.169   1.121   2.990  0.1124 -0.1648  0.1755
 1069SOL    HW2 4048   5.091   1.067   2.977 -0.3413  0.4167  0.4314
 1069SOL    HW3 4049   5.226   1.099   2.916 -0.7878  0.2505 -0.6691
 1069SOL    MW4 4050   5.166   1.111   2.978  0.3724  0.1876 -0.7349
 1070SOL     OW 4051   0.804   4.412   1.746  0.2372  0.9502  0.7682
 1070SOL    HW2 4052   0.810   4.440   1.655 -0.3931 -1.2036 -0.0132
 1070SOL    HW3 4053   0.810   4.492   1.797  1.5268  2.1260 -1.1224
 1070SOL    MW4 4054   0.806   4.426   1.741  0.5667 -0.0426 -0.3545
 1071SOL     OW 4055   2.955   5.263   5.431 -0.3610 -0.5365 -0.1492
 1071SOL    HW2 4056   2.963   5.322   5.507 -0.6913 -0.5302 -0.1158
 1071SOL    HW3 4057   3.041   5.225   5.422  0.1859  0.7973 -0.8661
 1071SOL    MW4 4058   2.967   5.266   5.440 -0.0511 -0.2319  0.6405
 1072SOL     OW 4059   5.758   0.805   3.189  0.2620 -0.5745 -0.2717
 1072SOL    HW2 4060   5.756   0.891   3.147  1.8217 -0.1611  0.4115
 1072SOL    HW3 4061   5.737   0.822   3.280  0.7626 -0.8700 -0.0938
 1072SOL    MW4 4062   5.755   0.818   3.195 -0.1770  0.7129  0.8664
 1073SOL     OW 4063   5.425   1.381   4.141 -0.3942  0.0573 -0.1200
 1073SOL    HW2 4064   5.457   1.413   4.225 -0.8793 -1.3308  0.6173
 1073SOL    HW3 4065   5.492   1.319   4.112 -0.6509 -0.1260 -0.3281
 1073SOL    MW4 4066   5.438   1.377   4.148 -0.0734 -0.4825  0.2248
 1074SOL     OW 4067   5.571   1.264   4.590 -0.7199  0.4661 -0.1929
 1074SOL    HW2 4068   5.558   1.327   4.661 -1.0035  0.7038 -0.4539
 1074SOL    HW3 4069   5.621   1.193   4.630  1.3732  1.7506 -0.3516
 1074SOL    MW4 4070   5.576   1.263   4.604 -0.0809 -0.1718 -0.4108
 1075SOL     OW 4071   1.968   4.373   0.135 -0.1037  1.0515  0.6188
 1075SOL    HW2 4072   2.037   4.339   0.192  0.3401 -0.4798 -0.7546
 1075SOL    HW3 4073   1.986   4.467   0.129 -0.5660  1.4310  3.4741
 1075SOL    MW4 4074   1.979   4.381   0.142 -0.1069  0.5406 -0.1755
 1076SOL     OW 4075   1.441   2.879   1.951  0.2892  0.2780  0.4013
 1076SOL    HW2 4076   1.413   2.890   1.861 -0.2685 -0.3277  0.4885
 1076SOL    HW3 4077   1.396   2.948   2.000 -0.8984 -0.5275  0.4990
 1076SOL    MW4 4078   1.432   2.889   1.946  0.1263  0.1881  0.4620
 1077SOL     OW 4079   2.771   4.372   0.358  0.3405  0.2446 -0.1685
 1077SOL    HW2 4080   2.726   4.300   0.404 -0.2934  1.6011  1.4485
 1077SOL    HW3 4081   2.852   4.384   0.407  1.0381 -0.1572 -1.1970
 1077SOL    MW4 4082   2.776   4.364   0.371  0.2824  0.7245  0.0867
 1078SOL     OW 4083   6.166   0.001   3.480 -0.1279 -0.4522  0.1250
 1078SOL    HW2 4084   6.087  -0.036   3.441  0.1546 -0.5941 -0.3223
 1078SOL    HW3 4085   6.205   0.053   3.410  0.3116 -0.5924  0.2597
 1078SOL    MW4 4086   6.161   0.003   3.466 -0.5000 -0.4307 -0.1583
 1079SOL     OW 4087   2.411   1.374   3.050  0.1653  0.1368 -0.3739
 1079SOL    HW2 4088   2.321   1.340   3.053 -0.1622  0.8069 -1.6758
 1079SOL    HW3 4089   2.426   1.410   3.137 -0.9306  0.2383 -0.2146
 1079SOL    MW4 4090   2.401   1.374   3.062 -0.0547  0.4475  0.7469
 1080SOL     OW 4091   5.375   4.425   0.001  0.1369 -0.0861  0.0337
 1080SOL    HW2 4092   5.324   4.373  -0.062 -0.7596  1.0297 -0.2105
 1080SOL    HW3 4093   5.347   4.393   0.087 -1.4798  0.9057 -0.0810
 1080SOL    MW4 4094   5.364   4.414   0.004  0.1370 -0.4261  0.4498
 1081SOL     OW 4095   4.461   6.140   0.212  0.0070  0.4822 -0.1787
 1081SOL    HW2 4096   4.536   6.081   0.207 -1.5632 -1.6467  0.0456
 1081SOL    HW3 4097   4.384   6.082   0.214 -1.6241  2.5189  0.5022
 1081SOL    MW4 4098   4.460   6.124   0.212 -0.2888 -0.1002  0.0740
 1082SOL     OW 4099   3.839   3.109   0.009  0.0309 -0.1424 -0.0914
 1082SOL    HW2 4100   3.774   3.166   0.051  0.4427 -0.3534  0.8657
 1082SOL    HW3 4101   3.842   3.138  -0.082 -2.0582 -0.7069 -0.3935
 1082SOL    MW4 4102   3.831   3.120   0.003  0.0734  0.5346  0.3872
 1083SOL     OW 4103   0.114   6.268   3.447  0.6052 -0.0392 -0.1553
 1083SOL    HW2 4104   0.043   6.276   3.510  2.4692  1.7552  1.9033
 1083SOL    HW3 4105   0.138   6.175   3.451  1.6076  0.2321  3.0494
 1083SOL    MW4 4106   0.108   6.256   3.456  0.3024  0.0835 -0.0732
 1084SOL     OW 4107   4.236   4.248   0.308  0.0888 -0.0242 -0.1836
 1084SOL    HW2 4108   4.239   4.171   0.364  1.3775  0.5504  0.5894
 1084SOL    HW3 4109   4.256   4.321   0.367  2.9197  0.4580 -1.5719
 1084SOL    MW4 4110   4.239   4.248   0.323  0.2511  0.1153 -0.2537
 1085SOL     OW 4111   3.264   4.452   0.833  0.3979  0.4895 -0.1182
 1085SOL    HW2 4112   3.328   4.447   0.904  1.1395 -1.3368 -0.8517
 1085SOL    HW3 4113   3.314   4.484   0.758  0.4411 -0.7320 -0.6363
 1085SOL    MW4 4114   3.279   4.455   0.833  0.2766  0.1276 -0.2656
 1086SOL     OW 4115  -0.004   3.109   3.910  0.2729  0.2140 -0.4403
 1086SOL    HW2 4116  -0.099   3.111   3.906  0.2602 -0.3455 -0.5746
 1086SOL    HW3 4117   0.025   3.161   3.836  0.0589 -0.8691 -1.3137
 1086SOL    MW4 4118  -0.013   3.116   3.900  0.4538  0.0786  0.0121
 1087SOL     OW 4119   0.335   0.021   3.032  0.2369  0.4078 -0.5521
 1087SOL    HW2 4120   0.310  -0.070   3.048  2.8595 -0.5739 -1.5455
 1087SOL    HW3 4121   0.256   0.072   3.053 -0.4595 -1.7703  2.9554
 1087SOL    MW4 4122   0.321   0.016   3.037 -0.1852 -0.3469 -0.2813
 1088SOL     OW 4123   6.335   4.710   0.257  0.0253 -0.3050  0.7344
 1088SOL    HW2 4124   6.366   4.800   0.266 -2.3150  0.5008  1.4044
 1088SOL    HW3 4125   6.286   4.694   0.337 -2.3429 -0.9836 -0.7678
 1088SOL    MW4 4126   6.333   4.720   0.269  0.0510 -0.0215 -0.5459
 1089SOL     OW 4127   0.927   0.580   4.462  0.2368  0.4840  0.1371
 1089SOL    HW2 4128   0.903   0.610   4.374  1.6582 -0.3643 -0.5770
 1089SOL    HW3 4129   0.996   0.516   4.447 -0.3157 -0.5536  1.8291
 1089SOL    MW4 4130   0.933   0.576   4.448 -0.3236 -0.0477  0.2280
 1090SOL     OW 4131   3.877   3.822   0.907 -0.1129  0.2317  0.5992
 1090SOL    HW2 4132   3.887   3.906   0.953  0.4214  0.5463 -0.0746
 1090SOL    HW3 4133   3.911   3.758   0.969  0.5578  0.6492  0.6829
 1090SOL    MW4 4134   3.883   3.825   0.921 -0.7629  0.1471  0.1204
 1091SOL     OW 4135   6.412   4.780   2.995  0.2511  0.4625  0.5907
 1091SOL    HW2 4136   6.354   4.750   2.925  1.2754 -0.4344  0.0850
 1091SOL    HW3 4137   6.369   4.858   3.030 -0.7988  0.3410 -0.3518
 1091SOL    MW4 4138   6.399   4.786   2.991  0.4609  0.2552  0.3849
 1092SOL     OW 4139   6.124   4.012   6.321  0.4752  0.1825  0.6597
 1092SOL    HW2 4140   6.101   3.956   6.247  0.2208  0.5896  0.4198
 1092SOL    HW3 4141   6.129   4.100   6.283 -0.8048  0.5721  1.3305
 1092SOL    MW4 4142   6.121   4.016   6.307 -0.0615  0.1216  0.0334
 1093SOL     OW 4143   5.901   2.079   5.502 -0.2449 -0.2186 -0.4549
 1093SOL    HW2 4144   5.828   2.018   5.508 -1.0776  0.8750  1.6643
 1093SOL    HW3 4145   5.861   2.163   5.481 -0.1751  1.0526  3.5611
 1093SOL    MW4 4146   5.886   2.082   5.500  0.7742 -0.2258  0.8866
 1094SOL     OW 4147   0.335   5.382   4.043 -0.3990  0.3355 -0.5823
 1094SOL    HW2 4148   0.399   5.361   3.975  0.3611 -0.4162  0.3451
 1094SOL    HW3 4149   0.265   5.319   4.030 -1.3070  1.5661 -2.0083
 1094SOL    MW4 4150   0.334   5.371   4.033  0.3648 -0.8219  0.1860
 1095SOL     OW 4151   4.021   0.696   3.143 -0.6030  0.1202  0.0138
 1095SOL    HW2 4152   4.034   0.704   3.237 -2.5178 -1.7629  0.5102
 1095SOL    HW3 4153   3.963   0.768   3.120 -0.0567  0.6392  0.2321
 1095SOL    MW4 4154   4.015   0.706   3.152 -0.0666 -0.1553 -0.0001
 1096SOL     OW 4155   0.447   0.118   0.835 -0.4319  0.0814  0.3193
 1096SOL    HW2 4156   0.446   0.029   0.801  2.2381 -0.6778  1.9309
 1096SOL    HW3 4157   0.488   0.170   0.766  1.1716 -0.6554  0.6748
 1096SOL    MW4 4158   0.452   0.113   0.821  0.4107  0.2952  0.5561
 1097SOL     OW 4159   0.029   1.950   6.226  0.3566 -0.6134 -0.2850
 1097SOL    HW2 4160  -0.066   1.942   6.240  0.8109 -1.6073  3.5672
 1097SOL    HW3 4161   0.042   2.042   6.203 -1.5089 -0.4410 -0.8316
 1097SOL    MW4 4162   0.018   1.961   6.225  0.1456  0.0504  0.1615
 1098SOL     OW 4163   5.826   1.422   0.143  0.3357  0.6102  0.2794
 1098SOL    HW2 4164   5.824   1.452   0.053  2.1046 -1.5775 -0.6033
 1098SOL    HW3 4165   5.734   1.419   0.170 -0.2481  1.0499 -1.5418
 1098SOL    MW4 4166   5.814   1.425   0.135  0.0775  0.0132  0.0327
 1099SOL     OW 4167   4.860   5.084   1.449 -0.0814  0.6420  0.0876
 1099SOL    HW2 4168   4.926   5.122   1.391  1.6996  0.3635  1.8245
 1099SOL    HW3 4169   4.820   5.159   1.493 -0.0614  0.7556 -0.0908
 1099SOL    MW4 4170   4.863   5.099   1.447  0.0199  0.3571 -0.8539
 1100SOL     OW 4171   3.706   4.990   2.267 -0.3712 -0.5708  0.6838
 1100SOL    HW2 4172   3.671   4.989   2.356 -0.3522  0.8618  0.7329
 1100SOL    HW3 4173   3.630   4.974   2.211 -0.6754  0.0812  0.8995
 1100SOL    MW4 4174   3.691   4.988   2.271  0.1724 -0.3726  0.7777
 1101SOL     OW 4175   2.774   0.793   3.128 -0.0461 -0.7668  0.0065
 1101SOL    HW2 4176   2.862   0.799   3.165 -0.6293 -0.4990  1.4437
 1101SOL    HW3 4177   2.781   0.730   3.057  1.6300  0.4293 -0.9459
 1101SOL    MW4 4178   2.787   0.785   3.123 -0.2953  0.0346  0.4935
 1102SOL     OW 4179   1.693   3.207   1.266 -0.8314 -0.0941  0.0276
 1102SOL    HW2 4180   1.678   3.174   1.354 -1.8637 -0.2279 -0.1829
 1102SOL    HW3 4181   1.605   3.211   1.226 -0.2235 -2.2066 -1.7529
 1102SOL    MW4 4182   1.679   3.203   1.272  0.3121  0.3091 -0.1865
 1103SOL     OW 4183   5.036   0.312   6.067 -0.2703 -0.2283  0.3991
 1103SOL    HW2 4184   5.007   0.240   6.011 -1.3435  0.0351  0.5896
 1103SOL    HW3 4185   5.067   0.270   6.147 -0.0563 -0.5250  0.1602
 1103SOL    MW4 4186   5.036   0.297   6.071  1.2084  0.0284 -0.3264
 1104SOL     OW 4187   2.354   0.262   0.726 -1.0843 -0.3268 -0.3287
 1104SOL    HW2 4188   2.368   0.241   0.633  0.8979 -0.0711 -0.1428
 1104SOL    HW3 4189   2.345   0.357   0.728 -0.3805 -0.2579 -0.1990
 1104SOL    MW4 4190   2.355   0.271   0.714  0.0309  0.7022 -0.1857
 1105SOL     OW 4191   6.027   3.599   4.709 -0.7232 -0.6169 -0.0714
 1105SOL    HW2 4192   6.013   3.673   4.650 -0.6678 -0.2879  0.3213
 1105SOL    HW3 4193   5.945   3.550   4.705 -0.9710 -0.2251  0.0975
 1105SOL    MW4 4194   6.014   3.602   4.701 -0.3230 -0.6808 -0.0480
 1106SOL     OW 4195   2.320   4.854   0.579  0.2540  0.6270  0.4924
 1106SOL    HW2 4196   2.285   4.940   0.555 -0.6799 -0.4691 -2.5123
 1106SOL    HW3 4197   2.253   4.792   0.549  1.6815 -1.2219  0.9794
 1106SOL    MW4 4198   2.306   4.857   0.572 -0.9595 -0.2192 -0.2270
 1107SOL     OW 4199   4.353   2.205   5.956  0.1724  0.1869  0.2774
 1107SOL    HW2 4200   4.341   2.180   5.864  0.9823 -0.7055  0.3943
 1107SOL    HW3 4201   4.298   2.282   5.968  0.7154  0.8195 -1.1775
 1107SOL    MW4 4202   4.344   2.212   5.945  0.0848  0.0097 -0.1509
 1108SOL     OW 4203   0.883   4.459   1.485  0.5640 -0.3095 -0.6637
 1108SOL    HW2 4204   0.908   4.550   1.468 -2.0963  0.3780 -1.4018
 1108SOL    HW3 4205   0.804   4.445   1.432 -2.1766 -1.3616  3.2135
 1108SOL    MW4 4206   0.876   4.469   1.476  0.2322 -0.0867  0.5027
 1109SOL     OW 4207   1.658   4.889   3.681  0.0155  0.4036  0.1314
 1109SOL    HW2 4208   1.614   4.863   3.600  2.2161 -1.9223 -0.4705
 1109SOL    HW3 4209   1.718   4.958   3.655  0.1048  0.2590 -0.0477
 1109SOL    MW4 4210   1.660   4.894   3.667  0.1083 -0.3983 -0.3784
 1110SOL     OW 4211   6.046   1.283   1.513 -0.1011  0.5670 -0.0463
 1110SOL    HW2 4212   6.107   1.243   1.451 -0.6080  0.3239 -0.3914
 1110SOL    HW3 4213   6.102   1.314   1.584  0.3147 -0.9034  0.3092
 1110SOL    MW4 4214   6.061   1.282   1.514  0.1322 -0.2181 -0.4111
 1111SOL     OW 4215   3.359   2.897   2.030  0.2330  0.3430 -0.0722
 1111SOL    HW2 4216   3.419   2.887   2.104  0.3029  1.2857  0.0019
 1111SOL    HW3 4217   3.284   2.842   2.053 -0.4027  1.7493  1.3998
 1111SOL    MW4 4218   3.357   2.888   2.043  0.4189 -0.0493 -0.0114
 1112SOL     OW 4219   0.267   6.284   3.810  0.0312  0.0542 -0.6995
 1112SOL    HW2 4220   0.179   6.246   3.815  0.8291 -1.9783 -1.0909
 1112SOL    HW3 4221   0.263   6.344   3.736 -0.7292 -0.8740 -1.4375
 1112SOL    MW4 4222   0.255   6.287   3.801 -0.3315 -0.0317  0.0032
 1113SOL     OW 4223   6.188   4.511   1.275  0.1822  0.3683  0.2103
 1113SOL    HW2 4224   6.109   4.531   1.324 -0.5500 -2.5370  0.4373
 1113SOL    HW3 4225   6.250   4.580   1.299 -2.4219  3.2062 -0.5701
 1113SOL    MW4 4226   6.186   4.523   1.285  0.3419 -0.8066  0.2351
 1114SOL     OW 4227   2.415   2.546   0.363 -0.2895  0.0147 -0.0669
 1114SOL    HW2 4228   2.456   2.509   0.285  0.9634  0.3587  0.4090
 1114SOL    HW3 4229   2.382   2.470   0.411  0.3369 -0.3241 -0.1585
 1114SOL    MW4 4230   2.416   2.531   0.359 -0.8771  0.5320  0.2029
 1115SOL     OW 4231   6.225   1.466   3.685  0.0441 -0.3334 -0.1170
 1115SOL    HW2 4232   6.177   1.468   3.768 -0.1458 -0.1316 -0.2312
 1115SOL    HW3 4233   6.190   1.389   3.640  0.4130 -0.6603  0.1452
 1115SOL    MW4 4234   6.214   1.456   3.690  0.2378 -0.6374 -0.6256
 1116SOL     OW 4235   4.173   5.459   5.583 -0.4983  0.7026 -0.2156
 1116SOL    HW2 4236   4.223   5.528   5.626  0.7220  1.1259 -2.1841
 1116SOL    HW3 4237   4.239   5.402   5.543 -1.5389 -0.4148 -0.4192
 1116SOL    MW4 4238   4.188   5.460   5.584 -0.2754 -0.4862  0.2629
 1117SOL     OW 4239   5.219   2.981   4.022  0.4913  0.3322  0.8348
 1117SOL    HW2 4240   5.269   2.924   4.080 -0.6151 -0.0370  1.4397
 1117SOL    HW3 4241   5.191   3.054   4.077  0.7888  0.8072  0.3724
 1117SOL    MW4 4242   5.222   2.983   4.037 -0.2360  0.3787  0.1201
 1118SOL     OW 4243   5.619   4.290   3.359  0.3193  0.1302 -0.1133
 1118SOL    HW2 4244   5.691   4.289   3.295 -0.1547 -1.5921 -0.6774
 1118SOL    HW3 4245   5.654   4.242   3.434  0.6878  1.6888  0.7386
 1118SOL    MW4 4246   5.633   4.283   3.360 -0.1150 -0.7950 -0.0477
 1119SOL     OW 4247   1.185   0.053   3.177 -0.5432  0.3169 -0.4774
 1119SOL    HW2 4248   1.257   0.051   3.114  0.6483 -1.1562  0.8421
 1119SOL    HW3 4249   1.190   0.140   3.215 -0.8266  0.9730 -1.8890
 1119SOL    MW4 4250   1.195   0.064   3.174  1.0184  0.6549 -0.5539
 1120SOL     OW 4251   2.847   2.274   3.240 -0.3994  0.1347  0.4718
 1120SOL    HW2 4252   2.929   2.229   3.261  0.5053  0.9143 -1.1883
 1120SOL    HW3 4253   2.783   2.204   3.227 -0.5094 -0.4444  3.5212
 1120SOL    MW4 4254   2.849   2.259   3.241 -0.1513 -0.1283 -0.0604
 1121SOL     OW 4255   5.735   5.918   2.004  0.3474 -0.8411 -0.5139
 1121SOL    HW2 4256   5.780   5.928   1.920  1.1274 -1.4461 -0.1837
 1121SOL    HW3 4257   5.797   5.954   2.068 -0.8948  1.1222 -0.3298
 1121SOL    MW4 4258   5.749   5.924   2.001  0.0718  0.4626 -0.3664
 1122SOL     OW 4259   3.501   1.660   0.006 -0.0483  0.3383 -0.5391
 1122SOL    HW2 4260   3.429   1.647  -0.056 -0.2696 -0.4603 -0.1295
 1122SOL    HW3 4261   3.574   1.610  -0.031  0.4587  1.5097 -1.1863
 1122SOL    MW4 4262   3.501   1.652  -0.007  0.3155 -0.3067 -0.4538
 1123SOL     OW 4263   2.405   6.372   1.520 -0.0035  0.0509 -0.1980
 1123SOL    HW2 4264   2.350   6.294   1.529 -0.6440  0.5874  0.7028
 1123SOL    HW3 4265   2.451   6.360   1.437 -0.1241 -1.2624 -0.0895
 1123SOL    MW4 4266   2.404   6.360   1.510 -0.0968 -0.3658 -0.3898
 1124SOL     OW 4267   5.283   0.810   5.799 -0.0529 -0.4738  0.5939
 1124SOL    HW2 4268   5.262   0.716   5.803  0.1043 -0.5025  0.7830
 1124SOL    HW3 4269   5.296   0.827   5.706 -1.6793 -0.2737  0.3819
 1124SOL    MW4 4270   5.282   0.800   5.787  0.0504  0.0130 -0.6012
 1125SOL     OW 4271   0.284   2.087   4.793  0.3809  0.2368  0.7645
 1125SOL    HW2 4272   0.336   2.158   4.756  0.0719 -0.0308 -0.1966
 1125SOL    HW3 4273   0.349   2.027   4.832  1.0345 -1.1219 -2.1556
 1125SOL    MW4 4274   0.299   2.088   4.794  0.7532  0.7266  0.3105
 1126SOL     OW 4275   5.695   1.132   4.365 -0.5107  0.3544  0.4739
 1126SOL    HW2 4276   5.669   1.176   4.446  0.2034 -1.1510  1.5551
 1126SOL    HW3 4277   5.631   1.062   4.353 -0.4556  0.3965 -0.1372
 1126SOL    MW4 4278   5.683   1.129   4.374  0.1973  0.3317 -1.0044
 1127SOL     OW 4279   0.102   4.168   5.285 -0.0200 -0.0990  0.0458
 1127SOL    HW2 4280   0.137   4.109   5.219  0.3779  1.1320 -0.8851
 1127SOL    HW3 4281   0.166   4.164   5.357 -0.3130 -1.2338  0.2587
 1127SOL    MW4 4282   0.115   4.160   5.286  0.0390 -0.2334 -0.5477
 1128SOL     OW 4283   2.290   1.709   5.963  0.3780  0.1351  0.1039
 1128SOL    HW2 4284   2.286   1.752   5.877  2.1151 -1.0490 -0.6078
 1128SOL    HW3 4285   2.383   1.706   5.985  0.1766 -1.6815  0.9293
 1128SOL    MW4 4286   2.301   1.714   5.954 -0.1771  0.0794 -0.0966
 1129SOL     OW 4287   2.626   3.950   1.662 -0.5754 -0.0402 -0.6879
 1129SOL    HW2 4288   2.597   3.880   1.721  2.7790 -1.5625 -0.6456
 1129SOL    HW3 4289   2.642   3.905   1.579  0.0479  0.9950 -1.1383
 1129SOL    MW4 4290   2.624   3.934   1.659 -0.0109  0.1325 -0.0326
 1130SOL     OW 4291   0.128   0.824   1.764 -0.2470  0.2834  0.4839
 1130SOL    HW2 4292   0.144   0.730   1.758 -0.1167  0.2677  1.0010
 1130SOL    HW3 4293   0.094   0.848   1.678 -1.8853 -0.5432  0.8522
 1130SOL    MW4 4294   0.126   0.815   1.752 -0.4113 -0.1844  0.6109
 1131SOL     OW 4295   5.659   2.925   2.670 -0.0509 -0.0301 -0.7940
 1131SOL    HW2 4296   5.743   2.955   2.705  0.2310 -2.5959  0.9562
 1131SOL    HW3 4297   5.625   3.002   2.623  2.3263  1.7160  0.0938
 1131SOL    MW4 4298   5.666   2.939   2.668 -0.0149 -0.1774  0.4345
 1132SOL     OW 4299   5.813   2.970   1.412 -0.0686 -0.3312 -0.2022
 1132SOL    HW2 4300   5.890   3.026   1.406 -0.0615 -0.4813 -1.8191
 1132SOL    HW3 4301   5.823   2.907   1.340 -2.7426  0.9802 -1.8850
 1132SOL    MW4 4302   5.824   2.969   1.402 -0.2391 -0.1947  0.1525
 1133SOL     OW 4303   2.482   4.125   5.717 -0.1263 -0.2145  0.1612
 1133SOL    HW2 4304   2.393   4.134   5.751 -0.1280  1.4968 -0.2200
 1133SOL    HW3 4305   2.501   4.031   5.725 -1.5646 -0.4533  1.2078
 1133SOL    MW4 4306   2.473   4.114   5.723  0.8164  0.2729 -0.1423
 1134SOL     OW 4307   4.337   3.693   5.525  0.5190  0.1534 -0.7006
 1134SOL    HW2 4308   4.358   3.604   5.499  1.2631 -0.1209  0.7596
 1134SOL    HW3 4309   4.281   3.683   5.602  1.2355  0.9423 -0.0595
 1134SOL    MW4 4310   4.332   3.680   5.531 -0.1247  0.3010 -0.4056
 1135SOL     OW 4311   3.798   0.012   1.135  0.6268  0.1898  0.1264
 1135SOL    HW2 4312   3.756  -0.074   1.128  0.8669  0.0313  0.5923
 1135SOL    HW3 4313   3.773   0.044   1.222  0.9548  0.3708  0.1554
 1135SOL    MW4 4314   3.789   0.005   1.146  0.5833  0.0807  0.0333
 1136SOL     OW 4315   2.028   4.616   1.195  0.1528  0.1980 -0.1069
 1136SOL    HW2 4316   2.070   4.583   1.115 -0.2174 -1.6233  0.3952
 1136SOL    HW3 4317   2.062   4.559   1.264 -1.8487 -0.2478  0.5598
 1136SOL    MW4 4318   2.038   4.604   1.193 -0.8927 -0.1909 -0.8239
 1137SOL     OW 4319   2.674   4.972   4.960  0.1725 -0.1218  0.4512
 1137SOL    HW2 4320   2.711   4.986   4.873  1.0028  1.7944  1.0592
 1137SOL    HW3 4321   2.579   4.978   4.947  0.1509 -2.1899 -0.6588
 1137SOL    MW4 4322   2.666   4.975   4.947 -0.0269 -0.7345  0.4323
 1138SOL     OW 4323   1.950   1.183   5.221 -0.2064 -0.4209  0.4869
 1138SOL    HW2 4324   1.978   1.091   5.227 -3.6204 -1.6859 -0.4751
 1138SOL    HW3 4325   1.938   1.210   5.311  1.1035 -0.7831  0.7981
 1138SOL    MW4 4326   1.952   1.174   5.233  0.6531 -0.2659 -0.0749
 1139SOL     OW 4327   2.647   4.455   2.054 -0.0596  0.3625 -0.6492
 1139SOL    HW2 4328   2.733   4.498   2.052  0.6118 -0.3658  3.5749
 1139SOL    HW3 4329   2.590   4.518   2.098 -0.9460 -0.3127 -0.8011
 1139SOL    MW4 4330   2.651   4.469   2.060 -0.1939 -0.2715  0.1886
 1140SOL     OW 4331   5.483   5.683   2.865  0.4263  0.2170 -0.1766
 1140SOL    HW2 4332   5.576   5.659   2.861  0.4889  0.4958 -0.5116
 1140SOL    HW3 4333   5.471   5.742   2.790 -0.3412 -0.9032 -0.9660
 1140SOL    MW4 4334   5.494   5.688   2.855  0.1656 -0.3344  0.4049
 1141SOL     OW 4335   3.197   4.968   4.310  0.1909 -0.0629  0.1865
 1141SOL    HW2 4336   3.277   4.955   4.361 -0.7747 -2.6283  1.2341
 1141SOL    HW3 4337   3.183   4.884   4.266 -3.4157 -0.8656  2.4370
 1141SOL    MW4 4338   3.206   4.955   4.311  0.0003  0.3218  0.2864
 1142SOL     OW 4339   5.729   5.570   0.840 -0.3753 -0.2484  0.3396
 1142SOL    HW2 4340   5.745   5.518   0.919 -0.8354  0.8235  1.1702
 1142SOL    HW3 4341   5.656   5.526   0.796  1.4552 -2.2902 -0.8464
 1142SOL    MW4 4342   5.722   5.558   0.845 -0.2569  0.5758  0.9248
 1143SOL     OW 4343   0.662   1.843   0.580  0.4452 -0.3716 -0.1938
 1143SOL    HW2 4344   0.742   1.808   0.541  0.2390 -0.7848 -0.2537
 1143SOL    HW3 4345   0.661   1.935   0.555  0.4478 -0.5718 -0.9576
 1143SOL    MW4 4346   0.672   1.851   0.572  0.5994 -0.6943  0.2870
 1144SOL     OW 4347   5.690   5.557   2.128  0.0432  0.3920  0.7356
 1144SOL    HW2 4348   5.684   5.599   2.042  2.3929 -1.8334 -0.6743
 1144SOL    HW3 4349   5.601   5.529   2.148 -0.5601  0.9869 -0.9423
 1144SOL    MW4 4350   5.678   5.559   2.119 -0.2981  0.2850 -0.4173
 1145SOL     OW 4351   3.239   5.910   0.832 -0.1459  0.3187  0.8485
 1145SOL    HW2 4352   3.175   5.866   0.777 -0.4985  0.7720  0.8862
 1145SOL    HW3 4353   3.189   5.977   0.879  0.1066 -0.1841  1.8737
 1145SOL    MW4 4354   3.224   5.913   0.831  0.2830 -0.4459  0.4184
 1146SOL     OW 4355   3.491   2.166   3.828 -0.2002 -0.6890 -0.7285
 1146SOL    HW2 4356   3.441   2.120   3.896  0.2675  0.0583  0.1422
 1146SOL    HW3 4357   3.558   2.104   3.801 -0.3660 -0.9766 -0.4778
 1146SOL    MW4 4358   3.493   2.152   3.833  0.1163  1.0120  0.2528
 1147SOL     OW 4359   5.795   6.047   3.527 -0.3840 -0.2761  0.3924
 1147SOL    HW2 4360   5.712   6.020   3.566 -0.9042 -0.2698 -0.6521
 1147SOL    HW3 4361   5.776   6.132   3.487  0.0696 -0.3731 -0.0428
 1147SOL    MW4 4362   5.782   6.055   3.527 -0.2255  0.2715 -0.1553
 1148SOL     OW 4363   4.955   1.488   3.727 -0.1528  0.3330 -0.1364
 1148SOL    HW2 4364   4.982   1.578   3.709 -1.4257  0.9475  0.8560
 1148SOL    HW3 4365   4.884   1.497   3.792 -2.1296 -1.2193 -1.9486
 1148SOL    MW4 4366   4.949   1.501   3.734  0.2773  0.1162 -0.2547
 1149SOL     OW 4367   5.795   3.303   4.031 -0.1416 -0.7472 -0.3622
 1149SOL    HW2 4368   5.830   3.225   4.074 -0.6054 -0.5568  0.3888
 1149SOL    HW3 4369   5.744   3.270   3.957 -0.1554 -1.1438 -0.1752
 1149SOL    MW4 4370   5.793   3.289   4.027  0.1194  0.0918  0.2276
 1150SOL     OW 4371   3.968   4.286   5.616  0.0231 -0.1945  0.4238
 1150SOL    HW2 4372   3.930   4.332   5.541  2.6378 -0.6733 -1.3134
 1150SOL    HW3 4373   3.892   4.253   5.664 -1.7869  1.0965 -1.3527
 1150SOL    MW4 4374   3.953   4.288   5.612  0.4772 -0.6294  0.2239
 1151SOL     OW 4375   5.554   2.227   2.263 -0.2681  0.5830 -0.0457
 1151SOL    HW2 4376   5.496   2.156   2.289  0.1692  0.3767  0.3761
 1151SOL    HW3 4377   5.625   2.225   2.327  0.4727  0.4968 -0.8526
 1151SOL    MW4 4378   5.556   2.217   2.275  0.3980  0.1039 -0.2423
 1152SOL     OW 4379   5.739   0.557   0.654 -0.1060 -0.3389  0.3030
 1152SOL    HW2 4380   5.822   0.514   0.672 -0.0499  0.0785  1.0664
 1152SOL    HW3 4381   5.758   0.616   0.581 -0.0823 -1.2741 -0.4678
 1152SOL    MW4 4382   5.752   0.559   0.646  0.1321 -0.3195 -0.2898
 1153SOL     OW 4383   1.864   3.806   0.463 -0.4674 -0.7382  0.4294
 1153SOL    HW2 4384   1.824   3.833   0.546 -0.4898  3.4931 -0.7278
 1153SOL    HW3 4385   1.790   3.795   0.403 -0.3533 -2.3904  0.5340
 1153SOL    MW4 4386   1.849   3.808   0.466 -0.0045  0.5421 -0.0706
 1154SOL     OW 4387   2.416   3.155   0.067  0.5086 -0.4579  0.2961
 1154SOL    HW2 4388   2.326   3.149   0.037  0.2188 -2.0007  1.3164
 1154SOL    HW3 4389   2.409   3.183   0.158  1.1544  0.7844 -0.0226
 1154SOL    MW4 4390   2.403   3.158   0.075 -0.0752 -0.0316 -1.2323
 1155SOL     OW 4391   4.003   5.067   0.629 -0.1388 -0.1541 -0.1698
 1155SOL    HW2 4392   3.923   5.073   0.576 -0.3680 -0.8726  0.0775
 1155SOL    HW3 4393   4.039   4.981   0.609 -1.7561 -1.7171  2.9022
 1155SOL    MW4 4394   3.997   5.056   0.619  0.2009 -0.9609 -0.4058
 1156SOL     OW 4395   5.409   1.331   1.042  0.0351 -0.0946 -0.2464
 1156SOL    HW2 4396   5.478   1.395   1.058 -0.0693 -0.1520  0.4685
 1156SOL    HW3 4397   5.445   1.248   1.075 -1.8786  0.5622  4.2958
 1156SOL    MW4 4398   5.422   1.328   1.049 -0.0089 -0.2074 -0.3014
 1157SOL     OW 4399   5.676   2.549   4.322 -0.0754 -0.2163 -0.4779
 1157SOL    HW2 4400   5.712   2.467   4.355 -0.3173 -0.5331 -0.9935
 1157SOL    HW3 4401   5.724   2.565   4.240 -1.2745 -0.7952 -1.3303
 1157SOL    MW4 4402   5.687   2.540   4.315 -0.2830  0.2079 -0.2964
 1158SOL     OW 4403   0.619   0.349   3.596 -0.2690 -0.6175 -0.0810
 1158SOL    HW2 4404   0.572   0.366   3.678 -2.0578  3.2017 -1.6071
 1158SOL    HW3 4405   0.552   0.356   3.529  1.7689  0.7452 -2.1221
 1158SOL    MW4 4406   0.604   0.352   3.598 -0.1827  0.2043  0.0137
 1159SOL     OW 4407   0.917   2.876   2.190  0.2885  0.4308 -0.2370
 1159SOL    HW2 4408   0.992   2.879   2.130 -0.3588  0.4534 -1.0664
 1159SOL    HW3 4409   0.869   2.957   2.173 -2.5064 -1.6061 -3.1895
 1159SOL    MW4 4410   0.921   2.887   2.180  0.2665  0.0301 -1.2191
 1160SOL     OW 4411   0.549   1.035   3.734 -0.0088  0.0014  0.0788
 1160SOL    HW2 4412   0.582   0.966   3.791  0.2175 -0.3054 -0.4255
 1160SOL    HW3 4413   0.573   1.008   3.646 -0.9095  0.1656 -0.2307
 1160SOL    MW4 4414   0.556   1.023   3.730 -0.1388 -0.2922 -0.3903
 1161SOL     OW 4415   4.012   4.608   4.081  0.1366 -0.2468 -0.1879
 1161SOL    HW2 4416   4.063   4.625   4.002  0.9084  0.7424  0.4946
 1161SOL    HW3 4417   4.021   4.514   4.096  1.1567 -0.2105 -0.4811
 1161SOL    MW4 4418   4.020   4.598   4.072  0.5108 -0.0825 -0.1597
 1162SOL     OW 4419   2.124   5.793   3.598  0.0127  0.9245  0.5055
 1162SOL    HW2 4420   2.214   5.765   3.581 -0.1967  0.8578 -0.5500
 1162SOL    HW3 4421   2.088   5.725   3.655  0.2368  0.2658 -0.1250
 1162SOL    MW4 4422   2.131   5.781   3.604  0.5760  0.3872  0.3425
 1163SOL     OW 4423   4.280   6.377   1.286  0.4380 -1.2045 -0.8557
 1163SOL    HW2 4424   4.343   6.345   1.350  2.4360 -1.3710 -2.7653
 1163SOL    HW3 4425   4.195   6.375   1.331  1.6810 -1.6334  1.5960
 1163SOL    MW4 4426   4.277   6.372   1.300 -0.3528 -0.9976  0.0442
 1164SOL     OW 4427   6.350   2.138   1.728  0.2646 -0.4568 -0.6962
 1164SOL    HW2 4428   6.277   2.148   1.788 -0.6599  1.4765 -2.0559
 1164SOL    HW3 4429   6.328   2.061   1.676  0.6500 -1.6139  0.7720
 1164SOL    MW4 4430   6.338   2.129   1.729 -0.3104  0.6259 -0.2990
 1165SOL     OW 4431   2.760   4.968   0.924 -0.2926 -0.5755 -0.1364
 1165SOL    HW2 4432   2.731   4.879   0.904  0.2845 -0.4725 -1.5470
 1165SOL    HW3 4433   2.853   4.969   0.901 -0.1959  0.3000  0.2224
 1165SOL    MW4 4434   2.769   4.956   0.919  0.6896  0.9116 -0.2594
 1166SOL     OW 4435   4.289   1.043   0.469 -0.3886 -0.4478 -0.0874
 1166SOL    HW2 4436   4.344   0.968   0.493 -0.5305 -0.4073  0.3655
 1166SOL    HW3 4437   4.323   1.070   0.383  0.4943 -0.2331  0.3162
 1166SOL    MW4 4438   4.301   1.036   0.461  0.3006 -0.1310 -0.2455
 1167SOL     OW 4439   1.957   1.171   0.835 -0.5050 -0.1020 -0.0738
 1167SOL    HW2 4440   1.883   1.215   0.876  0.4024  2.0860 -0.6315
 1167SOL    HW3 4441   2.028   1.179   0.899  0.1363  0.8499 -0.8574
 1167SOL    MW4 4442   1.957   1.178   0.848  0.2200  0.0296 -0.0612
 1168SOL     OW 4443   2.053   5.110   5.117  0.0126  0.0535 -0.0156
 1168SOL    HW2 4444   2.090   5.036   5.069 -1.7012 -0.7229 -0.2060
 1168SOL    HW3 4445   2.029   5.074   5.202 -0.1957  0.5679  0.1455
 1168SOL    MW4 4446   2.055   5.096   5.122  0.5402  0.2285 -0.1851
 1169SOL     OW 4447   4.239   4.618   2.096  0.1575  0.4865 -0.2862
 1169SOL    HW2 4448   4.298   4.620   2.021  0.0324 -0.1698 -0.4053
 1169SOL    HW3 4449   4.158   4.580   2.062 -0.0752  0.6626  0.0626
 1169SOL    MW4 4450   4.236   4.613   2.082  0.1650 -0.2105  0.6158
 1170SOL     OW 4451   2.785   4.964   2.629 -0.1692 -0.0704  0.1878
 1170SOL    HW2 4452   2.707   4.940   2.579  0.0435 -0.5425  0.0744
 1170SOL    HW3 4453   2.834   5.021   2.570  1.6651 -3.1226 -1.5183
 1170SOL    MW4 4454   2.781   4.968   2.614 -0.6171  0.4926 -0.1451
 1171SOL     OW 4455   4.155   1.418   1.498 -0.3141  0.6552  0.6472
 1171SOL    HW2 4456   4.137   1.410   1.405 -0.8205  0.6383  0.7468
 1171SOL    HW3 4457   4.129   1.508   1.519  2.8198  1.8363  0.0964
 1171SOL    MW4 4458   4.149   1.429   1.489  0.4035  0.3779 -0.0837
 1172SOL     OW 4459   2.416   0.429   5.792  0.0982 -0.0237 -0.2828
 1172SOL    HW2 4460   2.336   0.408   5.743  0.4448  0.0580 -0.8896
 1172SOL    HW3 4461   2.394   0.408   5.883 -0.4093 -0.5860 -0.5262
 1172SOL    MW4 4462   2.403   0.424   5.797  0.2261  0.0951 -0.0686
 1173SOL     OW 4463   5.450   2.731   1.642  0.2491 -0.0863 -0.4296
 1173SOL    HW2 4464   5.369   2.707   1.596 -0.3844  0.9804  0.0837
 1173SOL    HW3 4465   5.465   2.660   1.704 -0.2638 -0.3182 -0.5637
 1173SOL    MW4 4466   5.441   2.719   1.644  0.0206  0.0321  1.0768
 1174SOL     OW 4467   5.242   3.005   5.961 -0.8011 -0.9493  0.4931
 1174SOL    HW2 4468   5.300   3.051   5.901 -0.4527 -1.8742  0.1051
 1174SOL    HW3 4469   5.177   3.071   5.987  0.0018 -0.1029  0.3868
 1174SOL    MW4 4470   5.241   3.020   5.957  0.6828 -0.0531  0.3717
 1175SOL     OW 4471   2.104   6.375   2.424  0.3136  0.2128 -0.3199
 1175SOL    HW2 4472   2.008   6.372   2.429  0.3696 -2.0522  0.7778
 1175SOL    HW3 4473   2.124   6.355   2.333 -0.2696 -1.4382 -0.1206
 1175SOL    MW4 4474   2.094   6.372   2.413  0.3620 -0.9463  0.1534
 1176SOL     OW 4475   2.550   2.793   3.975  0.2016  0.0152  0.3368
 1176SOL    HW2 4476   2.600   2.821   4.052  1.1498  0.9819 -0.5846
 1176SOL    HW3 4477   2.604   2.821   3.901 -0.3013 -1.6132 -0.6777
 1176SOL    MW4 4478   2.564   2.801   3.976  0.2162 -0.1503 -0.2891
 1177SOL     OW 4479   4.572   1.773   0.375 -0.4759 -0.0156 -0.4324
 1177SOL    HW2 4480   4.571   1.678   0.366 -2.1279  0.0696 -1.6687
 1177SOL    HW3 4481   4.490   1.795   0.418 -0.0294  0.8495  0.0172
 1177SOL    MW4 4482   4.561   1.764   0.379 -0.4602  0.6559 -0.3072
 1178SOL     OW 4483   1.968   1.394   1.145 -0.0597  0.3108  0.2771
 1178SOL    HW2 4484   1.966   1.447   1.225  1.1109  0.1931  0.4059
 1178SOL    HW3 4485   2.003   1.310   1.173  0.4733  0.3055 -0.3805
 1178SOL    MW4 4486   1.972   1.390   1.159 -0.0244 -0.5531  0.3776
 1179SOL     OW 4487   5.522   0.863   5.146 -0.1182 -0.2088 -0.4349
 1179SOL    HW2 4488   5.617   0.859   5.153  0.2434  3.4872 -1.2377
 1179SOL    HW3 4489   5.504   0.866   5.052 -0.8875  0.4558 -0.2822
 1179SOL    MW4 4490   5.532   0.863   5.135  1.0783 -0.2583 -0.3313
 1180SOL     OW 4491   0.996   2.713   1.618  0.6643 -0.7418  0.2824
 1180SOL    HW2 4492   0.938   2.639   1.602  0.3033 -0.5198  0.5475
 1180SOL    HW3 4493   1.062   2.680   1.678  0.3256 -0.7704  0.6455
 1180SOL    MW4 4494   0.997   2.699   1.623  0.0888 -0.2878  0.7487
 1181SOL     OW 4495   4.863   5.135   3.434  0.3302  0.0227  0.5226
 1181SOL    HW2 4496   4.923   5.151   3.361  0.4232 -1.9153  0.1100
 1181SOL    HW3 4497   4.838   5.043   3.423  1.7686 -0.9128  3.9341
 1181SOL    MW4 4498   4.868   5.125   3.423  0.8146  0.7190 -1.2075
 1182SOL     OW 4499   3.905   5.793   3.903 -0.0376 -0.0252  0.1321
 1182SOL    HW2 4500   3.952   5.791   3.986  0.2265  0.7700  0.0137
 1182SOL    HW3 4501   3.945   5.723   3.851 -0.3609 -0.6753  0.7523
 1182SOL    MW4 4502   3.917   5.784   3.907  0.1824 -0.0665 -0.2078
 1183SOL     OW 4503   2.066   5.893   4.752  0.2630 -0.0469  0.2336
 1183SOL    HW2 4504   2.047   5.970   4.699  0.2604  0.1116  0.4602
 1183SOL    HW3 4505   2.093   5.929   4.837 -1.9369 -0.2879  1.1178
 1183SOL    MW4 4506   2.067   5.908   4.756 -0.1432  0.8135  0.2879
 1184SOL     OW 4507   1.305   1.769   0.663 -0.4155 -0.3267  0.4537
 1184SOL    HW2 4508   1.238   1.827   0.627  1.9070  0.7744 -2.5374
 1184SOL    HW3 4509   1.324   1.804   0.749 -1.3755  1.3445  0.0211
 1184SOL    MW4 4510   1.299   1.781   0.669 -0.2572 -0.1819  0.6045
 1185SOL     OW 4511   3.680   3.303   1.199 -0.4631  0.1215  0.2049
 1185SOL    HW2 4512   3.714   3.391   1.216  0.3994  0.3482 -2.3489
 1185SOL    HW3 4513   3.736   3.246   1.251  0.5427  0.9152  0.0295
 1185SOL    MW4 4514   3.692   3.307   1.208  0.3231 -0.1653 -0.7641
 1186SOL     OW 4515   0.076   1.740   3.826  0.3351 -0.1889 -0.0286
 1186SOL    HW2 4516   0.084   1.656   3.780  2.4058 -0.0322 -0.0585
 1186SOL    HW3 4517   0.097   1.806   3.759  0.6280  0.2168  0.4580
 1186SOL    MW4 4518   0.080   1.738   3.811  0.0656  0.8826 -0.6941
 1187SOL     OW 4519   0.860   0.695   0.385  0.7874 -0.5706  0.1534
 1187SOL    HW2 4520   0.924   0.667   0.320 -2.0940 -1.7017 -2.4435
 1187SOL    HW3 4521   0.854   0.790   0.374  1.9302 -0.4472  0.4335
 1187SOL    MW4 4522   0.867   0.704   0.375 -0.5001 -0.2510 -0.2161
 1188SOL     OW 4523   3.655   1.699   4.453  1.4947 -0.1434 -0.0547
 1188SOL    HW2 4524   3.631   1.790   4.437 -1.4028 -0.9737 -1.0160
 1188SOL    HW3 4525   3.686   1.666   4.369  0.9710 -0.4378 -0.1426
 1188SOL    MW4 4526   3.656   1.706   4.440  0.3649 -0.5098 -0.5326
 1189SOL     OW 4527   5.476   5.120   6.386  0.2358 -0.2832  0.2666
 1189SOL    HW2 4528   5.390   5.139   6.423 -0.7161  0.7958 -2.2756
 1189SOL    HW3 4529   5.523   5.074   6.455 -1.0099  2.4061  3.1436
 1189SOL    MW4 4530   5.471   5.117   6.400  0.2838 -0.5671  0.1833
 1190SOL     OW 4531   3.347   3.433   2.164 -0.2172  0.2380  0.2525
 1190SOL    HW2 4532   3.299   3.448   2.245  0.5229  2.0393  0.4158
 1190SOL    HW3 4533   3.283   3.449   2.095 -0.4693  0.2444  0.4892
 1190SOL    MW4 4534   3.332   3.437   2.165  0.0466 -0.4944 -0.1387
 1191SOL     OW 4535   1.424   3.201   1.689  0.6910 -0.2801 -0.6114
 1191SOL    HW2 4536   1.403   3.272   1.628  0.2577 -0.6465 -0.9022
 1191SOL    HW3 4537   1.458   3.244   1.766  0.8433  0.2204 -0.9555
 1191SOL    MW4 4538   1.425   3.216   1.691  0.5940  0.3554  0.3463
 1192SOL     OW 4539   1.155   4.228   1.980 -0.2003  0.1176 -0.2046
 1192SOL    HW2 4540   1.101   4.210   2.057 -0.3672 -2.0681 -0.7612
 1192SOL    HW3 4541   1.238   4.183   1.998 -0.4074 -0.8384 -1.4452
 1192SOL    MW4 4542   1.158   4.219   1.992 -0.4265 -0.0805  0.8272
 1193SOL     OW 4543   6.098   4.756   3.259 -0.5514  0.0018 -0.1139
 1193SOL    HW2 4544   6.127   4.810   3.333  0.6233 -0.7007 -0.0402
 1193SOL    HW3 4545   6.004   4.742   3.275 -0.3225 -0.1218  1.2382
 1193SOL    MW4 4546   6.089   4.761   3.271 -0.5966 -0.0043  0.4223
 1194SOL     OW 4547   2.415   4.868   1.003 -0.0137  0.4346 -0.8618
 1194SOL    HW2 4548   2.384   4.953   0.970 -1.6597  0.3802  0.4209
 1194SOL    HW3 4549   2.415   4.878   1.098 -0.5385 -1.0886 -0.6777
 1194SOL    MW4 4550   2.411   4.880   1.011 -0.0097 -0.2038  0.0651
 1195SOL     OW 4551   3.800   6.101   0.467  0.3151 -0.4466  0.3428
 1195SOL    HW2 4552   3.815   6.042   0.542  0.0134  0.1963  0.9232
 1195SOL    HW3 4553   3.776   6.184   0.507 -0.6378 -0.3007 -0.4826
 1195SOL    MW4 4554   3.799   6.104   0.482  0.1631 -0.2471  0.0055
 1196SOL     OW 4555   4.664   1.109   5.429 -0.1935  0.2184  0.5245
 1196SOL    HW2 4556   4.729   1.086   5.495  0.4641 -1.0548 -0.5192
 1196SOL    HW3 4557   4.710   1.166   5.368 -0.1603 -0.3369  0.0176
 1196SOL    MW4 4558   4.678   1.113   5.429 -0.3714  0.3052  0.5604
 1197SOL     OW 4559   2.814   2.018   5.514  0.2834  0.5253  0.3415
 1197SOL    HW2 4560   2.728   2.039   5.478  0.2397  1.0286  0.7271
 1197SOL    HW3 4561   2.875   2.039   5.443  0.0730 -0.0907 -0.0299
 1197SOL    MW4 4562   2.811   2.023   5.500 -0.6805 -0.5298  0.0773
 1198SOL     OW 4563   5.978   5.691   1.935  0.4181 -0.2799  0.0298
 1198SOL    HW2 4564   5.964   5.686   2.030  0.0874  1.1309  0.0887
 1198SOL    HW3 4565   5.896   5.727   1.901  0.7414 -0.2405 -0.7214
 1198SOL    MW4 4566   5.965   5.695   1.943 -0.0515  0.4557  0.2983
 1199SOL     OW 4567   1.740   5.975   3.976 -0.4975 -0.4571  0.3457
 1199SOL    HW2 4568   1.673   5.985   3.909 -0.3994  1.2164  0.4556
 1199SOL    HW3 4569   1.792   6.055   3.970  1.0932 -1.4153  0.7112
 1199SOL    MW4 4570   1.738   5.987   3.966  0.0888  0.2515 -0.2093
 1200SOL     OW 4571   2.252   2.603   5.642  0.5360 -0.5934  0.2055
 1200SOL    HW2 4572   2.174   2.550   5.624  0.5345 -0.1931 -1.0847
 1200SOL    HW3 4573   2.325   2.541   5.634  0.4183 -0.7542  0.3789
 1200SOL    MW4 4574   2.251   2.588   5.638  0.4541 -0.0809  0.4531
 1201SOL     OW 4575   0.545   5.719   1.022 -0.2051  0.3241 -0.2219
 1201SOL    HW2 4576   0.533   5.773   1.100 -1.8476  1.0934 -0.9799
 1201SOL    HW3 4577   0.616   5.659   1.047 -1.3574 -0.1625  2.2449
 1201SOL    MW4 4578   0.553   5.718   1.036 -0.3083  0.2452  0.5310
 1202SOL     OW 4579   1.231   5.988   6.092 -0.0718 -0.8705 -0.2878
 1202SOL    HW2 4580   1.277   5.926   6.035 -0.1618 -0.1342 -1.1909
 1202SOL    HW3 4581   1.299   6.028   6.145 -0.0914 -2.2596  0.8551
 1202SOL    MW4 4582   1.246   5.985   6.092  0.4686 -1.2592 -0.3451
 1203SOL     OW 4583   2.788   3.401   0.840  0.2669  0.2807 -0.2312
 1203SOL    HW2 4584   2.883   3.410   0.834  0.2493  2.0802  1.3007
 1203SOL    HW3 4585   2.756   3.420   0.752  1.2934  0.0057 -0.6788
 1203SOL    MW4 4586   2.796   3.405   0.827 -0.2208  0.6031  0.0573
 1204SOL     OW 4587   2.311   5.502   1.781  0.2881  0.4710 -0.0206
 1204SOL    HW2 4588   2.275   5.588   1.758 -1.5711 -0.7196 -1.9199
 1204SOL    HW3 4589   2.316   5.503   1.876 -1.0633  2.1743  0.0880
 1204SOL    MW4 4590   2.307   5.513   1.790 -0.2786 -0.3155 -0.4860
 1205SOL     OW 4591   1.590   3.284   5.109 -0.4142  0.5057 -0.3642
 1205SOL    HW2 4592   1.581   3.371   5.070 -0.5230  0.4409 -0.4858
 1205SOL    HW3 4593   1.682   3.263   5.100 -0.2056  1.0005  0.5054
 1205SOL    MW4 4594   1.601   3.293   5.103  0.1443 -0.6042 -0.3425
 1206SOL     OW 4595   5.276   5.805   3.712 -0.3914  0.3577  0.3388
 1206SOL    HW2 4596   5.234   5.840   3.633 -1.4202  0.0371  0.7320
 1206SOL    HW3 4597   5.273   5.878   3.774 -0.4028  0.3223  0.3797
 1206SOL    MW4 4598   5.270   5.819   3.710 -0.3746  0.2214 -0.3282
 1207SOL     OW 4599   1.023   3.165   4.579 -0.1841 -0.1178 -0.4645
 1207SOL    HW2 4600   1.055   3.241   4.530 -0.1365  0.1550 -0.0093
 1207SOL    HW3 4601   0.970   3.201   4.650  1.6531 -0.3804  1.1229
 1207SOL    MW4 4602   1.020   3.179   4.582 -0.0376 -0.2690 -0.0223
 1208SOL     OW 4603   1.796   3.289   4.360  0.4476 -0.5077  0.3952
 1208SOL    HW2 4604   1.805   3.202   4.399  2.6538 -0.7739 -0.5489
 1208SOL    HW3 4605   1.865   3.342   4.402  2.7048 -0.7194 -2.6803
 1208SOL    MW4 4606   1.806   3.285   4.371  0.0132 -0.2245  0.1259
 1209SOL     OW 4607   3.448   5.955   2.827 -0.7495  0.2446 -0.4871
 1209SOL    HW2 4608   3.513   5.887   2.809 -2.0636 -1.0073 -0.6641
 1209SOL    HW3 4609   3.498   6.037   2.828  0.6609 -0.5696 -1.5738
 1209SOL    MW4 4610   3.463   5.957   2.825  0.6638 -0.2971 -0.1624
 1210SOL     OW 4611   0.871   3.390   0.137  0.0511  0.6750  0.4922
 1210SOL    HW2 4612   0.906   3.477   0.156  0.8964  0.3491  0.4932
 1210SOL    HW3 4613   0.938   3.330   0.172 -0.3208  0.0348  0.1122
 1210SOL    MW4 4614   0.885   3.394   0.144  0.2103  0.2624  0.0454
 1211SOL     OW 4615   5.997   1.068   4.792 -0.0863  0.0540  0.3246
 1211SOL    HW2 4616   6.031   0.985   4.826  1.4539 -0.7909 -2.9214
 1211SOL    HW3 4617   5.909   1.047   4.761 -0.2846  0.0408  0.8881
 1211SOL    MW4 4618   5.990   1.054   4.793 -0.0109  0.1148 -0.7155
 1212SOL     OW 4619   2.771   3.972   2.234 -0.1822 -0.0727  0.3588
 1212SOL    HW2 4620   2.752   4.064   2.251 -1.3197 -0.1082 -0.6106
 1212SOL    HW3 4621   2.751   3.928   2.317  1.1447  0.6220  1.0858
 1212SOL    MW4 4622   2.766   3.978   2.247  0.3818 -0.0719 -0.3980
 1213SOL     OW 4623   5.346   0.923   1.570  0.3761  0.5570 -0.3525
 1213SOL    HW2 4624   5.359   0.947   1.661  0.6972 -0.3903 -0.1314
 1213SOL    HW3 4625   5.425   0.954   1.526 -0.2035  1.8710 -0.5039
 1213SOL    MW4 4626   5.358   0.930   1.576  0.3442 -0.6094  0.0422
 1214SOL     OW 4627   3.174   4.143   0.812 -0.5472  0.2257  0.1906
 1214SOL    HW2 4628   3.083   4.150   0.782  0.1317 -0.1088 -2.1370
 1214SOL    HW3 4629   3.214   4.227   0.788 -0.1621  0.2862  0.9930
 1214SOL    MW4 4630   3.167   4.155   0.805 -0.2916  0.3618 -0.0220
 1215SOL     OW 4631   3.240   1.806   1.576  0.2607 -0.1761 -0.6843
 1215SOL    HW2 4632   3.240   1.826   1.482  0.0738  0.7704 -0.4978
 1215SOL    HW3 4633   3.311   1.861   1.612 -0.3481  0.2627 -0.1255
 1215SOL    MW4 4634   3.249   1.816   1.568  0.2674  0.3624 -0.0215
 1216SOL     OW 4635   1.465   4.373   1.955 -0.0737  0.6030 -0.0431
 1216SOL    HW2 4636   1.458   4.465   1.981  1.7928  1.1459 -1.2656
 1216SOL    HW3 4637   1.499   4.376   1.866 -0.9160 -1.2805 -0.4731
 1216SOL    MW4 4638   1.468   4.386   1.947  0.0500 -0.2210  0.2652
 1217SOL     OW 4639   2.918   4.118   3.202 -0.1955 -0.2711  0.2908
 1217SOL    HW2 4640   2.897   4.206   3.233 -2.8943  0.0109 -1.9655
 1217SOL    HW3 4641   2.896   4.061   3.276 -1.3073  0.7141  0.7472
 1217SOL    MW4 4642   2.913   4.122   3.216  0.6065 -0.2024  0.1787
 1218SOL     OW 4643   6.210   4.151   4.716  0.1437 -0.7829  0.4400
 1218SOL    HW2 4644   6.286   4.099   4.741  0.9681  0.5983  0.8778
 1218SOL    HW3 4645   6.244   4.239   4.699 -1.4221  0.0469  1.2772
 1218SOL    MW4 4646   6.224   4.156   4.717 -0.3628  0.1314 -0.3914
 1219SOL     OW 4647   5.895   1.999   1.462  0.6395  0.0611 -0.2250
 1219SOL    HW2 4648   5.952   1.948   1.404  0.6231  0.1155 -0.2893
 1219SOL    HW3 4649   5.815   1.946   1.468  0.3121  0.4616 -0.9416
 1219SOL    MW4 4650   5.892   1.985   1.455  0.0068 -0.9763 -0.1795
 1220SOL     OW 4651   6.046   4.485   2.401  0.6655  0.1232  0.0608
 1220SOL    HW2 4652   5.984   4.537   2.349 -0.5760 -1.5510 -0.2273
 1220SOL    HW3 4653   5.997   4.460   2.479  0.3676 -2.5382 -0.8948
 1220SOL    MW4 4654   6.031   4.489   2.404  0.2060 -0.2438  0.3382
 1221SOL     OW 4655   2.481   5.154   6.079 -0.3172  0.2342  0.4136
 1221SOL    HW2 4656   2.494   5.093   6.006  0.3259  0.3531  0.4182
 1221SOL    HW3 4657   2.478   5.241   6.038  0.8230  0.3756  0.5752
 1221SOL    MW4 4658   2.483   5.158   6.064 -0.0562 -0.3120 -0.0511
 1222SOL     OW 4659   1.674   2.999   1.790  0.5437 -0.3209  0.0353
 1222SOL    HW2 4660   1.766   2.977   1.796  0.4855 -0.5341  0.1616
 1222SOL    HW3 4661   1.665   3.044   1.706  0.4950 -1.5987 -0.6727
 1222SOL    MW4 4662   1.685   3.002   1.780 -0.0966 -0.3204 -0.4543
 1223SOL     OW 4663   3.750   0.730   1.005 -0.4714 -0.4930 -0.1359
 1223SOL    HW2 4664   3.714   0.751   0.918 -1.7150  0.1407  0.4967
 1223SOL    HW3 4665   3.719   0.642   1.023 -0.0176 -0.7142 -0.4281
 1223SOL    MW4 4666   3.741   0.721   0.996 -0.3657 -0.0626 -0.0640
 1224SOL     OW 4667   3.083   2.310   1.050 -0.5086 -0.2381 -0.0217
 1224SOL    HW2 4668   3.036   2.258   0.984 -0.4211 -3.1035  1.9693
 1224SOL    HW3 4669   3.128   2.377   1.000 -0.0912 -2.4841 -2.9647
 1224SOL    MW4 4670   3.082   2.312   1.035 -0.0190  0.8301 -0.3305
 1225SOL     OW 4671   4.622   5.580   3.446  0.4784 -0.3112  0.0758
 1225SOL    HW2 4672   4.624   5.644   3.516 -0.8749  0.2517 -0.3746
 1225SOL    HW3 4673   4.713   5.576   3.416  1.2987 -1.3088  2.4644
 1225SOL    MW4 4674   4.634   5.588   3.451  0.1326  0.4649 -0.2667
 1226SOL     OW 4675   1.241   0.841   3.859  0.0561 -0.3631 -0.2373
 1226SOL    HW2 4676   1.202   0.757   3.884  1.7199 -0.5604  1.9169
 1226SOL    HW3 4677   1.172   0.905   3.875 -0.2566 -0.9894  1.0351
 1226SOL    MW4 4678   1.226   0.838   3.864  0.3291 -0.4885 -0.3032
 1227SOL     OW 4679   0.888   6.343   1.246 -0.2071 -0.0474  0.2067
 1227SOL    HW2 4680   0.948   6.307   1.311 -1.2983 -0.8588  0.8139
 1227SOL    HW3 4681   0.855   6.423   1.285  1.7414  1.3726 -0.8743
 1227SOL    MW4 4682   0.891   6.349   1.260  0.1598  0.7394 -0.0154
 1228SOL     OW 4683   5.459   2.210   5.000  0.1231  0.1376 -0.0165
 1228SOL    HW2 4684   5.444   2.269   4.926  0.4747  1.5300  0.9897
 1228SOL    HW3 4685   5.391   2.234   5.064  1.9392  1.4080  1.5343
 1228SOL    MW4 4686   5.448   2.221   4.999 -0.5458 -0.0745 -0.3507
 1229SOL     OW 4687   2.548   3.926   3.341 -0.2522 -0.0493  0.5585
 1229SOL    HW2 4688   2.619   3.964   3.393  0.0102 -0.5814  0.5943
 1229SOL    HW3 4689   2.585   3.915   3.254 -0.6131  0.6102  0.3212
 1229SOL    MW4 4690   2.563   3.929   3.337  0.0180  0.1328 -0.2873
 1230SOL     OW 4691   1.935   4.001   4.148 -0.6067  0.1513 -0.2189
 1230SOL    HW2 4692   1.890   3.940   4.090  0.7326 -0.2548 -0.8689
 1230SOL    HW3 4693   1.878   4.077   4.151 -2.0143 -0.8763  0.1197
 1230SOL    MW4 4694   1.921   4.003   4.141  0.1951 -0.3873 -0.5542
 1231SOL     OW 4695   4.431   4.910   5.106  0.8672  0.5545 -0.1440
 1231SOL    HW2 4696   4.362   4.976   5.096 -0.2749 -0.5973 -0.1426
 1231SOL    HW3 4697   4.424   4.883   5.197 -1.8610 -2.8193 -1.1297
 1231SOL    MW4 4698   4.421   4.915   5.117 -0.2558 -0.7238 -0.0888
 1232SOL     OW 4699   1.950   0.634   3.907 -0.4859 -0.0772  0.5187
 1232SOL    HW2 4700   2.014   0.589   3.852  0.2407 -0.4240  1.6069
 1232SOL    HW3 4701   1.998   0.708   3.944 -1.3519  0.9591 -0.3485
 1232SOL    MW4 4702   1.965   0.638   3.905 -0.2558 -0.1112  0.1186
 1233SOL     OW 4703   1.701   2.158   2.223 -0.0575  0.0502 -0.6492
 1233SOL    HW2 4704   1.679   2.236   2.171 -0.6805  0.6964  0.5200
 1233SOL    HW3 4705   1.697   2.189   2.314 -0.5672 -1.4154 -0.1486
 1233SOL    MW4 4706   1.698   2.173   2.228 -0.2159  0.1531 -0.4298
 1234SOL     OW 4707   1.193   2.478   5.830 -0.6981 -0.2703  0.1783
 1234SOL    HW2 4708   1.223   2.534   5.758 -2.1659  0.0167 -0.2553
 1234SOL    HW3 4709   1.186   2.391   5.792 -1.3470 -0.1440 -0.0023
 1234SOL    MW4 4710   1.196   2.474   5.816 -0.4795 -0.1710  0.1507
 1235SOL     OW 4711   4.054   3.526   5.922  0.1986  0.3523 -0.7347
 1235SOL    HW2 4712   3.990   3.464   5.887 -0.4584  0.0764  0.8764
 1235SOL    HW3 4713   4.125   3.470   5.954 -1.0449  0.2480  2.0574
 1235SOL    MW4 4714   4.055   3.510   5.921 -0.4614 -0.0533 -0.1588
 1236SOL     OW 4715   3.139   5.319   2.107  0.8042  0.0594 -0.2861
 1236SOL    HW2 4716   3.146   5.246   2.168  0.1954  0.6350  0.4917
 1236SOL    HW3 4717   3.214   5.309   2.049 -0.5895 -2.6437 -1.8298
 1236SOL    MW4 4718   3.149   5.308   2.107 -0.0803  0.3922  0.4350
 1237SOL     OW 4719   2.007   2.524   2.025  0.2546  0.0595 -0.0957
 1237SOL    HW2 4720   1.947   2.514   1.951  2.2619  0.3524 -1.8700
 1237SOL    HW3 4721   2.061   2.446   2.022 -1.5582 -1.4787  3.0713
 1237SOL    MW4 4722   2.006   2.513   2.014  0.1879 -0.2003 -0.2589
 1238SOL     OW 4723   3.482   0.043   3.008  0.1165 -0.5816  0.1884
 1238SOL    HW2 4724   3.420  -0.029   3.019  1.0486 -1.7317 -1.6288
 1238SOL    HW3 4725   3.476   0.092   3.090 -1.6641 -1.8271  0.8728
 1238SOL    MW4 4726   3.473   0.040   3.020  0.1739 -0.5099 -0.2664
 1239SOL     OW 4727   6.050   2.554   1.051 -0.0940 -0.3645 -0.2795
 1239SOL    HW2 4728   6.119   2.490   1.032  0.5762  0.9594 -2.7160
 1239SOL    HW3 4729   6.095   2.624   1.099  0.1470  0.1496 -1.2196
 1239SOL    MW4 4730   6.065   2.555   1.055  0.1406  0.0976 -0.2068
 1240SOL     OW 4731   0.866   5.312   5.840 -0.0131 -0.3096  0.2946
 1240SOL    HW2 4732   0.820   5.300   5.756 -1.8725  0.9555  1.0779
 1240SOL    HW3 4733   0.797   5.337   5.902  1.4181 -0.6067  2.0797
 1240SOL    MW4 4734   0.850   5.313   5.837  0.0604 -0.8822 -0.5526
 1241SOL     OW 4735   2.132   5.624   0.282 -0.7526  0.2472  0.3037
 1241SOL    HW2 4736   2.222   5.646   0.310 -0.7817  1.2757 -0.3727
 1241SOL    HW3 4737   2.122   5.666   0.197 -1.3022 -1.3159 -0.4377
 1241SOL    MW4 4738   2.143   5.632   0.275  0.3911 -0.2784 -0.1457
 1242SOL     OW 4739   5.140   2.270   4.935 -0.6000 -0.2002 -0.5027
 1242SOL    HW2 4740   5.143   2.320   4.853  0.0802  0.7391  0.0610
 1242SOL    HW3 4741   5.129   2.179   4.908 -1.3534  0.1984 -1.5900
 1242SOL    MW4 4742   5.139   2.265   4.921  0.1631 -0.5700  0.0093
 1243SOL     OW 4743   2.736   2.193   3.896 -0.0003  0.1267  0.1115
 1243SOL    HW2 4744   2.755   2.137   3.821 -1.1726  2.0543 -1.7364
 1243SOL    HW3 4745   2.781   2.275   3.876  0.9654  0.2062  2.3197
 1243SOL    MW4 4746   2.745   2.197   3.883 -0.1193  0.4611 -0.5478
 1244SOL     OW 4747   4.731   6.288   2.444 -0.2521  0.6138  0.3549
 1244SOL    HW2 4748   4.727   6.351   2.372 -0.8145  1.7384  1.3598
 1244SOL    HW3 4749   4.679   6.214   2.413  0.6187  0.4964 -0.9362
 1244SOL    MW4 4750   4.724   6.286   2.430  0.6997  0.0128  0.3806
 1245SOL     OW 4751   0.186   2.167   3.537 -0.8047 -0.0347 -0.3672
 1245SOL    HW2 4752   0.182   2.215   3.455 -1.5160 -0.3798 -0.5382
 1245SOL    HW3 4753   0.279   2.163   3.558 -0.7679  2.0776  0.0516
 1245SOL    MW4 4754   0.198   2.172   3.529  0.5316  0.4615 -0.1583
 1246SOL     OW 4755   3.784   6.102   3.955  0.6941 -0.5112 -0.0783
 1246SOL    HW2 4756   3.847   6.037   3.987  1.8822  0.8364  0.4504
 1246SOL    HW3 4757   3.837   6.161   3.902 -0.7889 -1.2643 -2.5626
 1246SOL    MW4 4758   3.800   6.101   3.952  0.1566 -0.3630  0.0356
 1247SOL     OW 4759   3.177   1.323   5.616 -0.0207 -0.8580  0.3316
 1247SOL    HW2 4760   3.134   1.396   5.660  0.6569 -0.6362  0.6449
 1247SOL    HW3 4761   3.219   1.273   5.686  0.8431 -0.6554 -0.0155
 1247SOL    MW4 4762   3.177   1.326   5.631  0.4734 -0.0060  0.1781
 1248SOL     OW 4763   0.381   4.941   0.061  0.0672 -0.0045 -0.7716
 1248SOL    HW2 4764   0.357   4.936  -0.032  0.6647 -2.0576 -0.8625
 1248SOL    HW3 4765   0.472   4.972   0.059  0.7987 -2.0162 -1.0477
 1248SOL    MW4 4766   0.390   4.945   0.048  0.0119  0.3873 -0.6272
 1249SOL     OW 4767   6.421   2.789   2.035 -0.5602  0.2003 -0.3639
 1249SOL    HW2 4768   6.432   2.794   1.940  1.3367 -0.6127 -0.2368
 1249SOL    HW3 4769   6.510   2.789   2.070 -1.2149  1.9041  1.5382
 1249SOL    MW4 4770   6.434   2.789   2.027 -0.6803 -0.2047 -0.0184
 1250SOL     OW 4771   1.126   5.984   3.148  0.1883  0.4062  0.2984
 1250SOL    HW2 4772   1.031   5.984   3.142  0.1962 -0.6060  0.1202
 1250SOL    HW3 4773   1.147   5.918   3.214  0.7455  1.1639  0.9011
 1250SOL    MW4 4774   1.116   5.976   3.156  0.5100  0.4451  0.0575
 1251SOL     OW 4775   2.069   1.126   2.202  0.2628 -0.2080 -0.0996
 1251SOL    HW2 4776   2.105   1.052   2.153  0.4876  0.6949 -1.3512
 1251SOL    HW3 4777   2.098   1.203   2.154 -2.0505  0.6316 -0.2986
 1251SOL    MW4 4778   2.078   1.126   2.189 -0.3599  0.0260 -0.1912
 1252SOL     OW 4779   5.464   3.180   0.043  0.4747 -0.2840 -0.8191
 1252SOL    HW2 4780   5.428   3.118   0.107  1.4831  0.1516  0.2119
 1252SOL    HW3 4781   5.555   3.152   0.033  0.6957  0.5043 -1.0089
 1252SOL    MW4 4782   5.471   3.168   0.050 -0.5174 -0.2703 -0.0611
 1253SOL     OW 4783   5.531   2.046   2.660  0.2250  0.3216 -0.1890
 1253SOL    HW2 4784   5.488   2.019   2.579  0.2510  0.8545 -0.3812
 1253SOL    HW3 4785   5.465   2.095   2.708 -0.4468 -1.6680  1.0433
 1253SOL    MW4 4786   5.517   2.049   2.656  0.3110 -0.2545 -0.3576
 1254SOL     OW 4787   5.509   6.299   2.693 -0.0425 -0.1947 -0.1278
 1254SOL    HW2 4788   5.474   6.209   2.700 -2.0702  0.5584  0.2584
 1254SOL    HW3 4789   5.472   6.331   2.610  1.6269 -0.0726 -0.8526
 1254SOL    MW4 4790   5.499   6.291   2.683  0.3830  0.3073  0.1628
 1255SOL     OW 4791   0.041   1.164   4.954  0.0663  0.4432 -0.1592
 1255SOL    HW2 4792   0.081   1.199   5.033 -0.2235  0.5077 -0.0409
 1255SOL    HW3 4793   0.069   1.224   4.885 -0.0911  0.6699 -0.0251
 1255SOL    MW4 4794   0.050   1.176   4.955 -0.2566  0.4698 -0.7480
 1256SOL     OW 4795   2.757   3.585   1.049 -0.1836 -0.2862 -0.1529
 1256SOL    HW2 4796   2.845   3.558   1.020 -0.2302 -0.2055 -0.3738
 1256SOL    HW3 4797   2.709   3.598   0.967 -0.7766 -1.5547 -0.0356
 1256SOL    MW4 4798   2.763   3.583   1.034 -0.5481 -0.2580 -0.4630
 1257SOL     OW 4799   1.575   2.950   2.805 -0.1398 -0.5586  0.7571
 1257SOL    HW2 4800   1.583   2.964   2.900 -1.9757  2.6499  0.5874
 1257SOL    HW3 4801   1.498   2.893   2.797 -0.5242 -0.1195  1.2030
 1257SOL    MW4 4802   1.566   2.944   2.817 -0.1185 -0.6540 -0.3166
 1258SOL     OW 4803   5.585   4.218   3.847 -0.2596  0.2993 -0.3547
 1258SOL    HW2 4804   5.507   4.274   3.854  0.5981  1.5017 -0.0443
 1258SOL    HW3 4805   5.651   4.274   3.807  0.6005 -0.5333 -0.1401
 1258SOL    MW4 4806   5.583   4.233   3.843  0.2130  0.0999  0.0969
 1259SOL     OW 4807   5.070   2.349   1.927 -0.5202 -0.0897  0.6376
 1259SOL    HW2 4808   5.017   2.424   1.898 -1.3779 -1.5478 -1.9067
 1259SOL    HW3 4809   5.111   2.379   2.007 -2.3004  2.4489  0.7439
 1259SOL    MW4 4810   5.068   2.363   1.934  0.0344 -0.1033 -0.0308
 1260SOL     OW 4811   4.715   0.315   0.873 -0.6609 -0.3593 -0.3849
 1260SOL    HW2 4812   4.630   0.294   0.913 -1.1277 -0.1408 -1.2272
 1260SOL    HW3 4813   4.749   0.387   0.926 -1.5536  0.3404 -0.7124
 1260SOL    MW4 4814   4.708   0.322   0.885  0.1745 -0.5705 -0.1064
 1261SOL     OW 4815   3.660   0.268   3.368  0.1252 -0.5160  0.1224
 1261SOL    HW2 4816   3.676   0.278   3.462 -0.2203  0.4021  0.1002
 1261SOL    HW3 4817   3.659   0.358   3.334 -0.4534 -0.7926 -0.6363
 1261SOL    MW4 4818   3.662   0.281   3.376 -0.6088  0.2446  0.5374
 1262SOL     OW 4819   4.563   2.060   0.715 -0.4118  0.4527  0.0038
 1262SOL    HW2 4820   4.520   1.975   0.700  2.1168 -1.0191  0.4367
 1262SOL    HW3 4821   4.591   2.056   0.806 -0.0164  1.6410 -0.0596
 1262SOL    MW4 4822   4.561   2.048   0.725 -0.1206 -0.1340 -0.0946
 1263SOL     OW 4823   4.276   0.347   3.689 -0.3802 -0.2791 -0.0529
 1263SOL    HW2 4824   4.228   0.276   3.733  1.1583 -0.9738  0.5826
 1263SOL    HW3 4825   4.358   0.353   3.737 -0.4353  1.9294 -0.1390
 1263SOL    MW4 4826   4.280   0.338   3.701  0.3787 -0.8370 -0.2101
 1264SOL     OW 4827   0.555   5.436   4.549  0.3143  0.6121 -0.2701
 1264SOL    HW2 4828   0.526   5.362   4.496  1.0662 -1.5448  2.1431
 1264SOL    HW3 4829   0.628   5.473   4.500  0.7860 -1.1018 -0.9330
 1264SOL    MW4 4830   0.561   5.431   4.535  0.3204  0.7083 -0.1886
 1265SOL     OW 4831   1.956   0.905   2.415 -0.1390 -0.1940  0.3792
 1265SOL    HW2 4832   1.918   0.992   2.403  0.1040 -0.1579 -0.2115
 1265SOL    HW3 4833   1.893   0.857   2.468  0.3693  0.7724  1.9241
 1265SOL    MW4 4834   1.943   0.910   2.420  0.4543 -0.1770  0.0026
 1266SOL     OW 4835   3.253   5.689   5.813 -0.2079 -0.5014  0.5085
 1266SOL    HW2 4836   3.323   5.752   5.833  0.1550 -1.0816  1.0758
 1266SOL    HW3 4837   3.212   5.724   5.734  0.5779 -0.0326  0.2951
 1266SOL    MW4 4838   3.257   5.702   5.805 -0.3385 -0.0446  0.1790
 1267SOL     OW 4839   2.090   2.781   2.020  0.4929 -0.2682  0.8101
 1267SOL    HW2 4840   2.062   2.690   2.023  0.0212 -0.1076  1.6106
 1267SOL    HW3 4841   2.034   2.821   1.954 -1.9033  0.2537  2.9883
 1267SOL    MW4 4842   2.079   2.774   2.012  0.2196 -0.7551 -0.6427
 1268SOL     OW 4843   1.256   3.365   4.812 -0.6176  0.3265  0.1903
 1268SOL    HW2 4844   1.223   3.427   4.747  0.2850 -1.4437 -2.1440
 1268SOL    HW3 4845   1.234   3.404   4.897 -0.1946  3.7105 -1.1025
 1268SOL    MW4 4846   1.249   3.378   4.815  0.0315 -0.8356 -0.4699
 1269SOL     OW 4847   1.865   1.903   6.318  0.5978  0.4859 -0.0355
 1269SOL    HW2 4848   1.958   1.888   6.335  0.6523  0.0168 -0.7382
 1269SOL    HW3 4849   1.828   1.816   6.304  0.4796  0.7986 -1.9187
 1269SOL    MW4 4850   1.872   1.890   6.319 -0.3259 -0.4654  0.1944
 1270SOL     OW 4851   6.040   3.574   0.378 -0.1226 -0.1308 -0.2368
 1270SOL    HW2 4852   6.055   3.483   0.350  0.5622 -0.6674  1.7025
 1270SOL    HW3 4853   6.125   3.616   0.370 -0.0846 -0.0964  0.2989
 1270SOL    MW4 4854   6.053   3.567   0.373  0.2752 -0.4313 -0.3487
 1271SOL     OW 4855   3.531   6.356   5.684  0.2110 -0.5939 -0.5480
 1271SOL    HW2 4856   3.486   6.295   5.742 -1.0584  0.5493 -0.2708
 1271SOL    HW3 4857   3.498   6.442   5.709  2.2370  0.2732 -0.6694
 1271SOL    MW4 4858   3.521   6.359   5.695  0.6164  0.1459 -0.1559
 1272SOL     OW 4859   1.215   6.380   2.752 -0.1003  0.5264  0.2331
 1272SOL    HW2 4860   1.263   6.332   2.685 -2.0531 -0.9238 -0.2282
 1272SOL    HW3 4861   1.274   6.379   2.828  1.0238 -0.2217 -0.6026
 1272SOL    MW4 4862   1.229   6.373   2.753 -0.3850  0.1392  0.6083
 1273SOL     OW 4863  -0.000   1.626   1.482  0.0898  0.0384 -0.1982
 1273SOL    HW2 4864  -0.080   1.663   1.519  1.0854  2.9083 -0.6059
 1273SOL    HW3 4865   0.016   1.678   1.403  2.5401 -0.1727  0.0768
 1273SOL    MW4 4866  -0.008   1.638   1.477 -0.8233  0.0242 -0.3768
 1274SOL     OW 4867   5.220   3.148   4.725 -0.7400 -0.3036  0.5091
 1274SOL    HW2 4868   5.154   3.217   4.719 -0.8073 -0.5282 -2.3392
 1274SOL    HW3 4869   5.191   3.081   4.664 -0.0097 -2.3498  2.2656
 1274SOL    MW4 4870   5.208   3.148   4.716 -0.6148  0.6967  0.5872
 1275SOL     OW 4871   4.529   3.172   5.799 -0.3538  0.3590 -0.1207
 1275SOL    HW2 4872   4.572   3.136   5.877  1.4659  2.7453  0.1092
 1275SOL    HW3 4873   4.437   3.182   5.824 -0.5437 -2.1762  0.4220
 1275SOL    MW4 4874   4.523   3.169   5.813 -0.4397  0.6742 -0.9794
 1276SOL     OW 4875   5.667   4.936   1.376 -0.7539 -0.5064 -0.1536
 1276SOL    HW2 4876   5.580   4.914   1.343 -0.6038 -0.1777 -0.7944
 1276SOL    HW3 4877   5.684   5.024   1.342  0.4997 -1.2017 -1.4555
 1276SOL    MW4 4878   5.658   4.944   1.367 -0.1842 -0.1206  0.6716
 1277SOL     OW 4879   5.661   6.369   1.626  0.1500 -0.3262 -0.1257
 1277SOL    HW2 4880   5.581   6.421   1.633 -0.4454 -1.3003  0.4937
 1277SOL    HW3 4881   5.732   6.434   1.627 -0.6307  0.6036 -1.4333
 1277SOL    MW4 4882   5.660   6.385   1.627 -0.3855  0.0608  0.2726
 1278SOL     OW 4883   5.652   2.807   2.419 -0.5174  1.0021 -0.2641
 1278SOL    HW2 4884   5.673   2.848   2.503  1.4159  1.1867 -0.7718
 1278SOL    HW3 4885   5.654   2.880   2.356  1.1124  0.4483 -0.8964
 1278SOL    MW4 4886   5.655   2.822   2.422 -0.3399 -0.2927  0.0393
 1279SOL     OW 4887   5.928   5.964   2.196 -0.4092 -0.6177 -0.2682
 1279SOL    HW2 4888   5.930   5.878   2.238  1.2737 -1.8371 -2.6105
 1279SOL    HW3 4889   6.020   5.992   2.195 -0.9268  1.2193  0.4222
 1279SOL    MW4 4890   5.941   5.956   2.201 -0.2369  0.9442  0.5087
 1280SOL     OW 4891   5.784   0.059   4.289 -0.5104  0.3307  0.3196
 1280SOL    HW2 4892   5.796  -0.001   4.215  1.1639  0.3159  0.5645
 1280SOL    HW3 4893   5.830   0.139   4.263  0.2853  0.2531  1.4280
 1280SOL    MW4 4894   5.791   0.062   4.276 -0.3987 -0.2574 -0.5872
 1281SOL     OW 4895   5.920   0.280   1.042  0.6830  0.6633  0.2547
 1281SOL    HW2 4896   5.845   0.310   0.990  1.4841  0.7956 -0.8725
 1281SOL    HW3 4897   5.961   0.360   1.075 -0.5448  0.5428  2.2100
 1281SOL    MW4 4898   5.916   0.294   1.039 -0.1442 -0.1681  0.1927
 1282SOL     OW 4899   5.740   3.378   2.129 -0.0121  0.2178  0.0116
 1282SOL    HW2 4900   5.662   3.330   2.102  0.4415  0.0194 -0.9815
 1282SOL    HW3 4901   5.765   3.429   2.052  1.1230 -0.0957  0.1524
 1282SOL    MW4 4902   5.733   3.378   2.115  0.0703 -0.3037 -0.2251
 1283SOL     OW 4903   4.659   2.038   1.034  0.6139 -0.5402  0.1077
 1283SOL    HW2 4904   4.754   2.038   1.021  0.7744  0.6764  1.0594
 1283SOL    HW3 4905   4.641   2.122   1.076 -0.9579 -0.5308 -0.5206
 1283SOL    MW4 4906   4.669   2.049   1.038 -0.1580  0.1490 -0.1803
 1284SOL     OW 4907   4.969   1.958   2.082 -0.0652 -0.1965 -0.3234
 1284SOL    HW2 4908   5.037   1.948   2.015  1.3695  1.7439  0.7519
 1284SOL    HW3 4909   4.926   2.041   2.061  0.6039  0.5928  1.2855
 1284SOL    MW4 4910   4.972   1.968   2.070  0.4659 -0.3645  0.1298
 1285SOL     OW 4911   3.043   2.450   1.845  0.5394 -0.0664  0.0291
 1285SOL    HW2 4912   3.125   2.455   1.893 -0.1970  1.4547  1.2123
 1285SOL    HW3 4913   2.997   2.530   1.868 -1.0221 -0.5951 -1.0930
 1285SOL    MW4 4914   3.048   2.461   1.854 -0.2032  0.1007 -0.5626
 1286SOL     OW 4915   1.870   4.690   2.614  0.2733 -0.3581  0.4711
 1286SOL    HW2 4916   1.864   4.758   2.548 -0.7309 -1.6464 -0.8210
 1286SOL    HW3 4917   1.812   4.719   2.685  0.4840  0.4938  0.3018
 1286SOL    MW4 4918   1.862   4.703   2.615  0.4755 -0.3891  0.4011
 1287SOL     OW 4919   3.491   5.356   5.719  0.8279 -0.4873 -0.7041
 1287SOL    HW2 4920   3.400   5.377   5.697  0.4823 -0.3776  0.7352
 1287SOL    HW3 4921   3.543   5.412   5.662 -0.0401  1.6022  0.4506
 1287SOL    MW4 4922   3.486   5.366   5.709 -0.1757 -0.4790 -0.8547
 1288SOL     OW 4923   1.278   6.109   5.518 -0.0896 -0.1138 -0.1490
 1288SOL    HW2 4924   1.361   6.110   5.470  1.2102  2.2310  1.9388
 1288SOL    HW3 4925   1.302   6.085   5.607 -1.3694  1.9863  0.8412
 1288SOL    MW4 4926   1.292   6.106   5.523  0.1274  0.4338  0.3592
 1289SOL     OW 4927   3.693   4.998   1.173 -0.3280  0.8598 -0.0747
 1289SOL    HW2 4928   3.636   4.922   1.161 -1.6647  1.9270 -0.6431
 1289SOL    HW3 4929   3.699   5.038   1.087  0.5752  1.2721  0.1687
 1289SOL    MW4 4930   3.686   4.993   1.160 -0.3944  0.9448 -0.1723
 1290SOL     OW 4931   0.666   3.256   1.884  0.0156  0.7964  0.2232
 1290SOL    HW2 4932   0.570   3.264   1.884 -0.0888 -0.2631  0.0849
 1290SOL    HW3 4933   0.695   3.320   1.820 -0.6474  0.7734 -0.1174
 1290SOL    MW4 4934   0.657   3.265   1.876  0.0535 -0.2033  0.2001
 1291SOL     OW 4935   0.054   3.386   6.174  0.4982 -0.0423  0.1917
 1291SOL    HW2 4936   0.138   3.343   6.159 -0.1543 -1.1027 -0.5050
 1291SOL    HW3 4937  -0.009   3.315   6.179 -0.5658  0.8143 -0.6804
 1291SOL    MW4 4938   0.057   3.371   6.173  0.4551 -0.3031 -0.1905
 1292SOL     OW 4939   1.574   0.537   6.349 -0.2513 -0.3539  0.4946
 1292SOL    HW2 4940   1.623   0.604   6.398 -0.0041  0.1143 -0.3734
 1292SOL    HW3 4941   1.604   0.454   6.386  1.3918 -0.0902 -0.1572
 1292SOL    MW4 4942   1.585   0.535   6.361  0.5358 -0.2839  0.0551
 1293SOL     OW 4943   1.531   0.891   3.157  0.7430 -0.0669 -0.3985
 1293SOL    HW2 4944   1.623   0.873   3.137  1.0372  1.7361 -0.8761
 1293SOL    HW3 4945   1.514   0.975   3.114 -1.5998 -1.1192 -1.7248
 1293SOL    MW4 4946   1.541   0.900   3.149 -0.1312 -0.0640  0.3507
 1294SOL     OW 4947   4.610   0.425   5.723  0.1090  0.0831  0.5586
 1294SOL    HW2 4948   4.597   0.344   5.772  0.4070 -0.5280 -0.3605
 1294SOL    HW3 4949   4.679   0.405   5.660 -1.2353  0.4056 -1.0985
 1294SOL    MW4 4950   4.618   0.412   5.721 -0.0294  0.0382  0.4892
 1295SOL     OW 4951   5.406   0.177   3.437  0.0776 -0.5463 -0.0265
 1295SOL    HW2 4952   5.501   0.191   3.444 -0.2653  1.3136  1.7668
 1295SOL    HW3 4953   5.372   0.261   3.404 -1.0210 -0.9033  0.1683
 1295SOL    MW4 4954   5.414   0.190   3.434 -0.2533  0.0057  0.0809
 1296SOL     OW 4955   1.956   6.015   2.691  0.2633 -0.1433  0.4398
 1296SOL    HW2 4956   1.881   5.984   2.741  0.7892  0.0478  1.3676
 1296SOL    HW3 4957   1.987   5.938   2.643 -1.3250  0.0791 -1.0291
 1296SOL    MW4 4958   1.951   6.001   2.691  0.2060 -0.0414  0.2519
 1297SOL     OW 4959   2.657   4.684   0.922 -0.2326  0.1406  0.2904
 1297SOL    HW2 4960   2.570   4.654   0.947  0.1253 -2.2290 -0.9188
 1297SOL    HW3 4961   2.715   4.612   0.948  0.9903  0.5321 -1.1806
 1297SOL    MW4 4962   2.654   4.670   0.928 -0.1110 -0.6618 -0.4981
 1298SOL     OW 4963   1.814   1.155   0.037  0.0946  0.1517  0.0331
 1298SOL    HW2 4964   1.897   1.147   0.085  0.2488  0.8256 -0.1185
 1298SOL    HW3 4965   1.837   1.203  -0.043 -0.2940 -0.3510 -0.3867
 1298SOL    MW4 4966   1.828   1.160   0.033 -0.1338 -0.7061  0.0815
 1299SOL     OW 4967   4.630   3.062   2.655  0.5761 -0.3316  0.0422
 1299SOL    HW2 4968   4.618   3.085   2.563 -0.4994  1.6016  0.6078
 1299SOL    HW3 4969   4.557   3.003   2.676 -1.2491  1.9386  0.4527
 1299SOL    MW4 4970   4.619   3.057   2.646 -0.1696  0.1668 -0.6479
 1300SOL     OW 4971   4.995   0.911   4.694  0.4627  0.1058  0.1279
 1300SOL    HW2 4972   4.982   0.999   4.659 -1.8602 -0.1634  0.1574
 1300SOL    HW3 4973   5.038   0.863   4.623 -0.8052  0.5522 -0.9850
 1300SOL    MW4 4974   4.999   0.916   4.680  0.1339  0.1891  0.8469
 1301SOL     OW 4975   0.412   3.260   2.997  0.3333  0.3920 -0.3031
 1301SOL    HW2 4976   0.435   3.317   2.923  0.5945 -0.2340 -0.7138
 1301SOL    HW3 4977   0.317   3.252   2.992  0.3588  0.2582 -0.6506
 1301SOL    MW4 4978   0.402   3.267   2.986 -0.3637  0.1214  0.2539
 1302SOL     OW 4979   2.573   1.260   4.400  0.1146  0.2251 -0.2109
 1302SOL    HW2 4980   2.661   1.224   4.398  0.3360  0.5832  1.7323
 1302SOL    HW3 4981   2.539   1.238   4.487  0.1952  4.3989  1.0989
 1302SOL    MW4 4982   2.580   1.252   4.411  0.3583 -0.2900  0.6032
 1303SOL     OW 4983   4.105   0.950   4.545  0.1957 -0.3777  0.1066
 1303SOL    HW2 4984   4.170   1.015   4.573  0.3545 -0.6324  0.3370
 1303SOL    HW3 4985   4.151   0.866   4.549  0.3452 -0.3771 -1.3435
 1303SOL    MW4 4986   4.120   0.947   4.549  0.1484 -0.0626  0.5362
 1304SOL     OW 4987   0.051   0.904   5.185 -0.1371  0.0119  0.3395
 1304SOL    HW2 4988   0.090   0.991   5.178  0.8146 -0.3026  1.3889
 1304SOL    HW3 4989   0.125   0.844   5.176 -0.6658 -0.6725  0.4553
 1304SOL    MW4 4990   0.066   0.908   5.183  0.4498 -1.0071 -0.1400
 1305SOL     OW 4991   2.619   3.200   3.379 -0.0983  0.6043  0.2685
 1305SOL    HW2 4992   2.535   3.201   3.426 -0.0713  2.5350  0.3682
 1305SOL    HW3 4993   2.614   3.276   3.321  0.7152 -0.5417 -1.3596
 1305SOL    MW4 4994   2.607   3.210   3.378  0.1967  0.0822 -0.4951
 1306SOL     OW 4995   1.102   4.324   3.282 -0.2593 -0.5477  0.0473
 1306SOL    HW2 4996   1.007   4.311   3.279 -0.1621 -1.1917 -0.9373
 1306SOL    HW3 4997   1.136   4.266   3.214  0.8840 -0.6718  0.6901
 1306SOL    MW4 4998   1.094   4.314   3.273 -0.8501  0.1090  0.3260
 1307SOL     OW 4999   4.667   5.790   2.017 -0.1041  0.6054 -0.0776
 1307SOL    HW2 5000   4.697   5.732   1.947  0.9318 -1.7555  2.1609
 1307SOL    HW3 5001   4.744   5.839   2.043 -0.3611  1.0819 -0.1907
 1307SOL    MW4 5002   4.681   5.789   2.011 -0.2194 -0.2628 -0.2388
 1308SOL     OW 5003   4.106   1.949   5.276  0.2617  0.3212 -0.1091
 1308SOL    HW2 5004   4.164   1.894   5.328 -0.8217  0.3460  1.1788
 1308SOL    HW3 5005   4.147   2.035   5.278  2.1899 -0.4474 -2.4916
 1308SOL    MW4 5006   4.119   1.953   5.283  0.5388 -0.0159 -0.2814
 1309SOL     OW 5007   4.261   1.945   1.608 -0.5479 -0.4617  0.1630
 1309SOL    HW2 5008   4.273   1.979   1.519 -1.7177  0.7803  0.4510
 1309SOL    HW3 5009   4.349   1.945   1.645 -0.1489 -0.3031 -0.7550
 1309SOL    MW4 5010   4.274   1.949   1.601 -0.0735  0.5408  0.1622
 1310SOL     OW 5011   1.364   0.446   5.671 -0.3631 -0.4239  0.1801
 1310SOL    HW2 5012   1.387   0.481   5.585 -1.4975  0.7389  0.3267
 1310SOL    HW3 5013   1.301   0.376   5.652 -2.7457  1.6005  0.1147
 1310SOL    MW4 5014   1.359   0.441   5.657  0.2482 -0.1218 -0.2239
 1311SOL     OW 5015   2.182   2.361   1.367 -0.5231  0.1140 -0.9125
 1311SOL    HW2 5016   2.159   2.436   1.422 -0.4140 -0.4846 -0.0218
 1311SOL    HW3 5017   2.274   2.376   1.345 -0.3895  0.0552 -0.4167
 1311SOL    MW4 5018   2.191   2.373   1.372 -0.1015  0.5898  0.2742
 1312SOL     OW 5019   3.662   1.216   3.239 -0.4084  0.6260  0.0838
 1312SOL    HW2 5020   3.620   1.273   3.303 -0.4515  1.4290 -0.6449
 1312SOL    HW3 5021   3.733   1.269   3.202  0.3364 -0.2105  0.2583
 1312SOL    MW4 5022   3.666   1.230   3.242 -0.1491  0.5466  0.1028
 1313SOL     OW 5023   0.369   5.146   1.595 -0.2378 -0.2926 -0.1938
 1313SOL    HW2 5024   0.294   5.205   1.601  2.1618  2.9976  0.2324
 1313SOL    HW3 5025   0.379   5.111   1.684  0.0883  1.1622  0.3740
 1313SOL    MW4 5026   0.360   5.149   1.608 -0.3402 -0.1587 -0.4686
 1314SOL     OW 5027   4.562   3.464   3.127 -0.0721 -0.6119 -0.2311
 1314SOL    HW2 5028   4.558   3.401   3.199  0.0997 -0.0994  0.2332
 1314SOL    HW3 5029   4.550   3.411   3.048  0.2337 -1.2501  0.1419
 1314SOL    MW4 5030   4.560   3.449   3.126  0.8031  0.1354 -0.2625
 1315SOL     OW 5031   1.404   3.314   2.897 -0.8389 -1.0712  0.2434
 1315SOL    HW2 5032   1.413   3.392   2.952 -1.0627  0.3920 -1.7053
 1315SOL    HW3 5033   1.332   3.265   2.937 -0.2893 -0.6107  1.8649
 1315SOL    MW4 5034   1.396   3.318   2.910  0.1762  0.6233 -0.2070
 1316SOL     OW 5035   3.006   4.404   0.521 -0.3458  0.1049  0.1207
 1316SOL    HW2 5036   2.985   4.493   0.548 -0.9293  0.0060  0.0016
 1316SOL    HW3 5037   3.101   4.405   0.505 -0.0278  0.2586  1.7961
 1316SOL    MW4 5038   3.016   4.416   0.522  0.3002  0.2371 -0.3533
 1317SOL     OW 5039   4.241   1.786   5.454 -0.6086 -0.0303  0.4884
 1317SOL    HW2 5040   4.192   1.704   5.445 -0.3582 -0.1134 -0.2092
 1317SOL    HW3 5041   4.187   1.840   5.512 -0.5426 -0.8600  1.3577
 1317SOL    MW4 5042   4.227   1.782   5.460 -0.1310 -0.4375 -0.3291
 1318SOL     OW 5043   4.480   5.717   3.202  0.1697  0.1850  0.3259
 1318SOL    HW2 5044   4.499   5.652   3.269  1.1394 -0.3020 -0.3956
 1318SOL    HW3 5045   4.562   5.763   3.189 -0.1363  0.6020 -0.1720
 1318SOL    MW4 5046   4.493   5.714   3.209  0.0531  0.6049 -0.2740
 1319SOL     OW 5047   3.569   1.595   6.041 -0.3953  0.5724  0.0457
 1319SOL    HW2 5048   3.609   1.554   5.965 -0.0631 -0.0942  0.5721
 1319SOL    HW3 5049   3.512   1.663   6.005 -1.9179 -1.1260 -0.9327
 1319SOL    MW4 5050   3.567   1.599   6.027 -0.1456 -0.0178 -0.4400
 1320SOL     OW 5051   2.561   3.826   4.763  0.3421  0.1199  0.1635
 1320SOL    HW2 5052   2.612   3.865   4.692 -0.9818  0.8893 -0.4105
 1320SOL    HW3 5053   2.480   3.797   4.720 -1.0722  1.8024  1.5220
 1320SOL    MW4 5054   2.557   3.827   4.748 -0.7520  0.4092  0.1676
 1321SOL     OW 5055   3.239   2.206   5.032 -0.2345 -0.0536  0.1575
 1321SOL    HW2 5056   3.146   2.185   5.022  0.2358 -1.7244 -0.9534
 1321SOL    HW3 5057   3.277   2.189   4.947  0.9818  1.4552  0.3505
 1321SOL    MW4 5058   3.231   2.201   5.020  0.3015 -0.1769  0.0474
 1322SOL     OW 5059   5.351   4.396   4.306 -0.5120 -0.1594  0.0928
 1322SOL    HW2 5060   5.406   4.342   4.250 -0.9247  1.3992 -1.9636
 1322SOL    HW3 5061   5.342   4.478   4.258 -1.5607  0.9891  2.1279
 1322SOL    MW4 5062   5.357   4.400   4.292 -0.4864  0.2183  0.9079
 1323SOL     OW 5063   4.825   4.926   4.621 -0.2610 -0.9415 -0.0979
 1323SOL    HW2 5064   4.809   4.862   4.691  0.3687 -1.1813 -0.1642
 1323SOL    HW3 5065   4.877   4.878   4.557  0.8194 -0.1708  0.1769
 1323SOL    MW4 5066   4.830   4.911   4.622 -0.4810 -0.3782 -0.6713
 1324SOL     OW 5067   2.061   5.741   3.310  0.6472 -0.1436  0.4653
 1324SOL    HW2 5068   1.985   5.786   3.274  0.4791 -0.3187  0.5939
 1324SOL    HW3 5069   2.052   5.750   3.405 -0.4118 -2.0482  0.5932
 1324SOL    MW4 5070   2.050   5.748   3.318  0.1703  0.5814  0.8730
 1325SOL     OW 5071   2.812   6.277   4.210  0.3290 -0.4368 -0.0395
 1325SOL    HW2 5072   2.724   6.246   4.185  0.3930 -0.2657 -0.4899
 1325SOL    HW3 5073   2.845   6.320   4.131  0.0505  1.2065  0.6994
 1325SOL    MW4 5074   2.804   6.279   4.196 -0.4242 -0.8843  0.1067
 1326SOL     OW 5075   2.818   4.525   2.766  0.4984 -0.2752  0.1732
 1326SOL    HW2 5076   2.843   4.617   2.770 -1.2690  0.3906 -1.8086
 1326SOL    HW3 5077   2.841   4.498   2.677  0.6959 -1.6616  0.6201
 1326SOL    MW4 5078   2.824   4.533   2.755  0.3267 -0.8513  0.4066
 1327SOL     OW 5079   0.352   1.821   0.416 -0.0520  0.1861 -0.4739
 1327SOL    HW2 5080   0.318   1.744   0.461  1.0510 -0.8612 -1.3765
 1327SOL    HW3 5081   0.371   1.883   0.486  0.5031 -0.9497  0.4060
 1327SOL    MW4 5082   0.350   1.819   0.431  0.1144  0.2193  0.4365
 1328SOL     OW 5083   4.143   4.401   0.847  0.0626  0.0972 -0.2247
 1328SOL    HW2 5084   4.091   4.347   0.787  0.6081  1.4164 -1.9545
 1328SOL    HW3 5085   4.227   4.356   0.853  0.0848  0.0840 -0.6245
 1328SOL    MW4 5086   4.147   4.388   0.840  0.0646  0.5114 -0.1311
 1329SOL     OW 5087   5.657   0.492   5.682  0.4667  0.1771 -0.4853
 1329SOL    HW2 5088   5.675   0.454   5.768 -1.4829  2.0588  0.8544
 1329SOL    HW3 5089   5.592   0.433   5.643 -1.8307  1.4774  1.1783
 1329SOL    MW4 5090   5.651   0.479   5.688 -0.4656 -0.5100  0.6575
 1330SOL     OW 5091   4.964   5.586   0.899 -0.2828 -0.4129 -0.0290
 1330SOL    HW2 5092   4.894   5.647   0.923 -0.3045 -0.8048  0.9485
 1330SOL    HW3 5093   4.946   5.565   0.807  0.1226  1.5520 -0.6082
 1330SOL    MW4 5094   4.952   5.591   0.890 -0.6781 -0.0462  0.1404
 1331SOL     OW 5095   3.527   4.212   1.981 -0.0326 -0.5264  0.1468
 1331SOL    HW2 5096   3.493   4.284   1.929  1.2408 -0.1289 -0.1737
 1331SOL    HW3 5097   3.611   4.244   2.015  0.5553 -1.8459  0.0083
 1331SOL    MW4 5098   3.533   4.226   1.979  0.1280  0.4318 -0.1073
 1332SOL     OW 5099   1.391   0.472   4.679 -0.5062 -0.7020  0.1001
 1332SOL    HW2 5100   1.331   0.411   4.722 -0.5118  0.8237  2.3765
 1332SOL    HW3 5101   1.334   0.534   4.633 -0.6190 -0.2555  0.8418
 1332SOL    MW4 5102   1.375   0.472   4.678  0.1121  0.3973 -0.5533
 1333SOL     OW 5103   5.125   2.744   2.336 -0.4721  0.1386 -0.1661
 1333SOL    HW2 5104   5.057   2.752   2.403 -0.4465 -2.0348  0.2012
 1333SOL    HW3 5105   5.207   2.758   2.383 -0.5739  2.2258 -0.5073
 1333SOL    MW4 5106   5.127   2.747   2.351 -0.3136 -0.5058  0.6931
 1334SOL     OW 5107   3.893   1.891   3.568  0.0714 -0.0291  0.6459
 1334SOL    HW2 5108   3.864   1.896   3.477 -0.2839  0.4940  0.7838
 1334SOL    HW3 5109   3.986   1.872   3.563  0.3882  1.5103  0.1406
 1334SOL    MW4 5110   3.901   1.889   3.555  0.2223 -0.7038 -0.5111
 1335SOL     OW 5111   0.158   4.545   4.803  0.1084  0.4748 -0.7741
 1335SOL    HW2 5112   0.192   4.552   4.714 -0.3716  1.3063 -0.9028
 1335SOL    HW3 5113   0.192   4.622   4.848 -1.8256  1.5329 -1.0031
 1335SOL    MW4 5114   0.167   4.556   4.797 -0.2516 -0.1309  0.0264
 1336SOL     OW 5115   4.310   3.008   5.563  0.0828  0.4018 -0.1068
 1336SOL    HW2 5116   4.300   2.915   5.542 -1.2201  0.6894 -0.8651
 1336SOL    HW3 5117   4.403   3.026   5.548  0.3466 -0.7659  0.0282
 1336SOL    MW4 5118   4.321   2.998   5.558  0.6076 -0.2691 -0.6578
 1337SOL     OW 5119   4.212   1.031   4.269  0.4801 -0.0842 -0.4082
 1337SOL    HW2 5120   4.165   1.106   4.233  1.2852  0.9768  0.6407
 1337SOL    HW3 5121   4.163   1.008   4.348  1.4164  0.7497  0.4510
 1337SOL    MW4 5122   4.199   1.038   4.275  0.0953  0.2395 -0.3827
 1338SOL     OW 5123   5.953   5.627   2.574  0.9824 -0.2373 -0.0683
 1338SOL    HW2 5124   6.031   5.611   2.520  0.1129  0.6935 -1.6692
 1338SOL    HW3 5125   5.924   5.715   2.549 -0.6379 -0.5984  0.4300
 1338SOL    MW4 5126   5.960   5.636   2.564 -0.4220  0.0048  0.1406
 1339SOL     OW 5127   1.906   0.802   4.581 -0.3426 -0.3130  0.1434
 1339SOL    HW2 5128   1.851   0.764   4.512  1.0561  0.2651 -1.3466
 1339SOL    HW3 5129   1.901   0.896   4.566  1.5219 -0.2749 -0.4319
 1339SOL    MW4 5130   1.898   0.809   4.570  0.0273  0.0792  0.2904
 1340SOL     OW 5131   0.560   5.850   4.300 -0.0717  0.1218  0.0971
 1340SOL    HW2 5132   0.556   5.850   4.395 -1.7006 -1.9154  0.0858
 1340SOL    HW3 5133   0.644   5.811   4.278 -0.0032 -0.0671  0.7054
 1340SOL    MW4 5134   0.570   5.845   4.309 -0.7038 -0.0972 -0.1757
 1341SOL     OW 5135   1.059   3.848   2.491  0.3610  0.3000 -0.0552
 1341SOL    HW2 5136   0.979   3.900   2.481 -0.0547 -0.6438 -2.1223
 1341SOL    HW3 5137   1.129   3.913   2.496 -0.3399  1.1115 -0.4398
 1341SOL    MW4 5138   1.058   3.863   2.490  0.5673  0.7712  0.3159
 1342SOL     OW 5139   0.977   5.353   2.831  0.0629 -0.0860 -0.5397
 1342SOL    HW2 5140   1.030   5.310   2.898  0.4069  1.1915  0.0376
 1342SOL    HW3 5141   0.888   5.323   2.847 -0.0194  0.9283  1.1358
 1342SOL    MW4 5142   0.972   5.344   2.842 -0.8142  0.1108  0.2926
 1343SOL     OW 5143   5.952   2.934   3.215  0.3411  0.0350  0.0650
 1343SOL    HW2 5144   5.908   2.909   3.134  0.1883 -1.8820  0.6917
 1343SOL    HW3 5145   5.882   2.967   3.271  0.4688  1.5079 -0.5853
 1343SOL    MW4 5146   5.937   2.935   3.212  0.2622 -0.0987  0.5181
 1344SOL     OW 5147   0.415   2.431   2.033  0.1041  0.3754 -0.2799
 1344SOL    HW2 5148   0.398   2.500   1.969  0.7105 -0.5896 -1.5426
 1344SOL    HW3 5149   0.510   2.436   2.049  0.2005 -0.3309 -0.6000
 1344SOL    MW4 5150   0.426   2.441   2.026 -0.1738 -0.5461 -0.8918
 1345SOL     OW 5151   4.945   1.340   3.485 -0.0648 -0.0531 -0.7036
 1345SOL    HW2 5152   4.934   1.372   3.575 -4.1931  1.5772 -1.5802
 1345SOL    HW3 5153   4.963   1.419   3.433  0.6041 -0.7393 -1.5428
 1345SOL    MW4 5154   4.946   1.355   3.490  0.5658  0.1390 -0.1799
 1346SOL     OW 5155   1.041   4.133   3.050  0.2291  0.5519 -0.0289
 1346SOL    HW2 5156   0.973   4.193   3.018  0.7804  2.4616  2.1253
 1346SOL    HW3 5157   1.078   4.094   2.970  0.8856  4.2662 -1.7616
 1346SOL    MW4 5158   1.037   4.136   3.035  0.2773 -0.0343  0.2294
 1347SOL     OW 5159   4.008   4.318   4.790 -0.1317 -0.0813  0.4123
 1347SOL    HW2 5160   3.971   4.234   4.815  1.5566 -0.7037  0.9943
 1347SOL    HW3 5161   4.046   4.303   4.703 -0.0374  0.1484  0.4106
 1347SOL    MW4 5162   4.008   4.305   4.782 -0.1254 -0.7516 -0.0873
 1348SOL     OW 5163   0.399   0.734   3.101 -0.2932  0.5424 -0.0002
 1348SOL    HW2 5164   0.488   0.770   3.101  0.1693 -0.5221 -1.0354
 1348SOL    HW3 5165   0.387   0.700   3.189 -0.5556  2.7173  0.8584
 1348SOL    MW4 5166   0.409   0.735   3.112 -0.0696  0.1143 -0.3090
 1349SOL     OW 5167   2.965   3.802   5.962  0.2914 -0.3700 -0.6175
 1349SOL    HW2 5168   2.903   3.861   6.005  1.0163 -0.4861  0.6509
 1349SOL    HW3 5169   3.050   3.845   5.972  0.5933 -0.8012 -1.2345
 1349SOL    MW4 5170   2.968   3.815   5.969  0.6043  0.1439  0.4324
 1350SOL     OW 5171   0.423   1.343   3.490  0.0041 -0.0237  0.0467
 1350SOL    HW2 5172   0.471   1.419   3.522  0.0051 -0.1985  0.4706
 1350SOL    HW3 5173   0.359   1.379   3.428  0.2004  0.2884  0.0250
 1350SOL    MW4 5174   0.421   1.358   3.486 -0.1969  0.1123  0.0502
 1351SOL     OW 5175   5.582   2.705   1.250  0.4208  0.1381 -0.7277
 1351SOL    HW2 5176   5.671   2.719   1.217  0.5918  0.9747  0.0613
 1351SOL    HW3 5177   5.558   2.788   1.290 -0.5426 -0.2333 -0.5211
 1351SOL    MW4 5178   5.591   2.717   1.251  0.4833 -0.8043  0.5556
 1352SOL     OW 5179   0.691   1.733   5.177 -0.4618 -0.0951 -0.0241
 1352SOL    HW2 5180   0.752   1.733   5.251 -0.0302 -1.0538 -0.3730
 1352SOL    HW3 5181   0.633   1.808   5.195 -0.3774 -0.3121  1.2796
 1352SOL    MW4 5182   0.691   1.743   5.189  0.7605  0.3203 -0.2936
 1353SOL     OW 5183   5.125   4.738   3.066 -0.3237  0.1196 -0.1523
 1353SOL    HW2 5184   5.049   4.794   3.085 -0.3147  0.4757 -1.1386
 1353SOL    HW3 5185   5.198   4.798   3.059 -0.0215 -0.1829  0.3243
 1353SOL    MW4 5186   5.124   4.753   3.068  0.1032  0.4125  1.0081
 1354SOL     OW 5187   1.828   1.217   3.326  0.0502  0.2844  0.1053
 1354SOL    HW2 5188   1.777   1.228   3.246 -2.5576 -0.7396  1.5168
 1354SOL    HW3 5189   1.869   1.131   3.317  1.5161  1.0215 -0.9338
 1354SOL    MW4 5190   1.827   1.207   3.314 -0.2641  0.2379 -0.3647
 1355SOL     OW 5191   1.034   1.381   2.656  0.3918  0.7991 -0.1038
 1355SOL    HW2 5192   0.939   1.379   2.641  0.2313 -0.2669  0.8781
 1355SOL    HW3 5193   1.071   1.401   2.571 -0.6829  0.3218 -0.7039
 1355SOL    MW4 5194   1.026   1.383   2.643  0.1332 -0.3486 -0.2578
 1356SOL     OW 5195   0.271   2.611   6.117 -0.2484 -0.3902 -0.2568
 1356SOL    HW2 5196   0.355   2.614   6.164 -0.4952  1.8632  0.1609
 1356SOL    HW3 5197   0.209   2.578   6.182  0.0486 -0.7707 -0.1562
 1356SOL    MW4 5198   0.274   2.607   6.132 -0.2273 -0.1639  0.4859
 1357SOL     OW 5199   1.357   2.431   5.275 -0.3168 -0.5519 -0.3066
 1357SOL    HW2 5200   1.434   2.448   5.222  0.0552 -1.1560  0.0262
 1357SOL    HW3 5201   1.311   2.515   5.278  0.6267 -0.0275 -0.0220
 1357SOL    MW4 5202   1.361   2.444   5.269  0.4075 -0.1427 -0.5575
 1358SOL     OW 5203   1.123   1.814   6.368  0.0268 -0.3844  0.2546
 1358SOL    HW2 5204   1.081   1.821   6.454 -0.8301  1.3574 -0.2535
 1358SOL    HW3 5205   1.050   1.796   6.308  0.8271 -3.6114  0.0366
 1358SOL    MW4 5206   1.108   1.812   6.372  0.1311  0.4267  0.5061
 1359SOL     OW 5207   1.050   4.933   1.005 -0.0228 -0.5778  0.3828
 1359SOL    HW2 5208   1.071   4.890   0.921 -2.0079 -3.1987  1.0654
 1359SOL    HW3 5209   0.955   4.946   1.001 -0.2131 -1.0938  2.3366
 1359SOL    MW4 5210   1.040   4.929   0.993 -0.2066 -0.5486  0.0779
 1360SOL     OW 5211   5.062   1.597   5.150  0.3261 -0.1692  0.4329
 1360SOL    HW2 5212   5.112   1.663   5.198  2.2605 -2.2694  1.4641
 1360SOL    HW3 5213   5.128   1.536   5.117 -1.2794 -0.8938 -1.6550
 1360SOL    MW4 5214   5.077   1.598   5.152 -0.2697 -0.1653  0.3971
 1361SOL     OW 5215   0.626   0.215   4.514 -0.3926 -0.1139 -0.9448
 1361SOL    HW2 5216   0.605   0.306   4.535 -0.9114 -0.3557 -0.3872
 1361SOL    HW3 5217   0.711   0.219   4.470 -0.2348  0.6040 -0.5810
 1361SOL    MW4 5218   0.634   0.227   4.511  0.0478  0.0624 -0.1018
 1362SOL     OW 5219   2.427   3.955   3.836  0.0312  0.3230  0.4645
 1362SOL    HW2 5220   2.333   3.966   3.855  0.1625  0.4621  1.0649
 1362SOL    HW3 5221   2.452   4.036   3.792  0.0948  0.7311  1.2390
 1362SOL    MW4 5222   2.418   3.967   3.833  0.7100  0.5614  0.0273
 1363SOL     OW 5223   3.870   0.266   3.787  0.1538 -0.1167 -0.1971
 1363SOL    HW2 5224   3.931   0.290   3.856 -0.4149  0.3196  0.1676
 1363SOL    HW3 5225   3.915   0.289   3.706  0.0752  1.1715  0.1037
 1363SOL    MW4 5226   3.884   0.273   3.785  0.6518  0.0718  0.0403
 1364SOL     OW 5227   3.707   5.089   5.776  0.2159  0.0941  0.3039
 1364SOL    HW2 5228   3.621   5.125   5.754  0.5729  2.1720  1.9704
 1364SOL    HW3 5229   3.688   5.023   5.843 -0.0559  1.0672  1.2112
 1364SOL    MW4 5230   3.693   5.085   5.782 -0.6672  0.1396 -0.0174
 1365SOL     OW 5231   4.315   3.959   0.628  0.2042  0.3617  0.1349
 1365SOL    HW2 5232   4.360   4.034   0.667 -0.4472  0.5145  0.6226
 1365SOL    HW3 5233   4.278   3.912   0.703  1.2765 -0.9058 -0.0961
 1365SOL    MW4 5234   4.316   3.963   0.643 -0.0483  0.2391  1.0494
 1366SOL     OW 5235   4.395   4.853   2.140  0.1401 -0.0376  0.0141
 1366SOL    HW2 5236   4.474   4.800   2.130 -0.4148 -0.6244 -1.5566
 1366SOL    HW3 5237   4.325   4.798   2.104 -0.6282  1.3053 -0.6139
 1366SOL    MW4 5238   4.396   4.839   2.134 -0.3870  0.0613  0.5470
 1367SOL     OW 5239   3.143   3.894   1.687  0.3132 -0.9096 -0.4816
 1367SOL    HW2 5240   3.136   3.907   1.781  0.1555  1.1333 -0.7188
 1367SOL    HW3 5241   3.238   3.889   1.671  0.5529  1.8143 -0.4699
 1367SOL    MW4 5242   3.155   3.895   1.697 -0.1788 -0.3834  0.1290
 1368SOL     OW 5243   2.920   4.158   0.670 -0.6018 -0.2164  0.3578
 1368SOL    HW2 5244   2.939   4.123   0.583 -0.9021 -1.9436  0.9593
 1368SOL    HW3 5245   2.893   4.248   0.654  1.1756  0.1151 -1.1655
 1368SOL    MW4 5246   2.919   4.165   0.657 -0.1641 -0.0337 -0.0483
 1369SOL     OW 5247   2.817   5.759   4.182 -0.0500  0.0880 -0.3180
 1369SOL    HW2 5248   2.842   5.709   4.260 -1.3431  0.2097  0.2037
 1369SOL    HW3 5249   2.852   5.847   4.198  0.4207 -0.1073 -0.2652
 1369SOL    MW4 5250   2.825   5.764   4.195  0.2012 -1.0130 -0.1300
 1370SOL     OW 5251   5.096   3.492   5.715 -0.2202 -0.5485 -0.4395
 1370SOL    HW2 5252   5.066   3.551   5.646 -0.1983 -0.6278 -0.5169
 1370SOL    HW3 5253   5.018   3.441   5.738  0.3517 -2.3848 -2.2563
 1370SOL    MW4 5254   5.082   3.493   5.709  0.2027  0.1049  0.1933
 1371SOL     OW 5255   0.310   1.567   2.779 -0.1155 -0.5135 -0.9274
 1371SOL    HW2 5256   0.397   1.527   2.773 -0.0295 -0.4090 -0.4352
 1371SOL    HW3 5257   0.325   1.660   2.759  0.2446 -0.0757  1.0819
 1371SOL    MW4 5258   0.323   1.574   2.776  0.0703  0.8228  0.1665
 1372SOL     OW 5259   1.951   4.640   4.155 -0.2468  0.2562  0.0137
 1372SOL    HW2 5260   1.990   4.679   4.077  0.7033 -1.1004 -0.2169
 1372SOL    HW3 5261   1.997   4.682   4.228  0.0575  0.2881 -0.1963
 1372SOL    MW4 5262   1.962   4.651   4.155  0.4308  0.0703  0.0637
 1373SOL     OW 5263   6.245   6.143   0.207  0.3617  0.1119 -0.1135
 1373SOL    HW2 5264   6.240   6.149   0.303  0.2530 -0.6479 -0.0710
 1373SOL    HW3 5265   6.334   6.174   0.186  0.3936  0.2631  0.2281
 1373SOL    MW4 5266   6.256   6.148   0.217  0.7732  0.2550  0.0120
 1374SOL     OW 5267   5.826   2.171   4.198  0.4439 -0.0386  0.2956
 1374SOL    HW2 5268   5.890   2.130   4.139  2.2850  1.2560  1.2795
 1374SOL    HW3 5269   5.771   2.099   4.227  2.3244 -1.5043  0.4442
 1374SOL    MW4 5270   5.828   2.156   4.194 -0.6049 -0.1821  0.0946
 1375SOL     OW 5271   1.026   5.158   4.733  0.4502  0.1291  0.0762
 1375SOL    HW2 5272   0.939   5.159   4.774  0.8813  0.3388  1.0249
 1375SOL    HW3 5273   1.021   5.088   4.669  0.1355 -1.0988  1.3826
 1375SOL    MW4 5274   1.014   5.149   4.730 -0.1033  0.2935 -0.5095
 1376SOL     OW 5275   3.308   3.621   2.605  0.4147 -0.1075 -0.0569
 1376SOL    HW2 5276   3.274   3.668   2.681 -1.3682  0.8263 -1.3667
 1376SOL    HW3 5277   3.345   3.689   2.549 -1.4529 -0.2876 -1.5994
 1376SOL    MW4 5278   3.308   3.636   2.608 -0.2240  0.1769  0.3294
 1377SOL     OW 5279   3.023   5.790   0.704  0.5748  0.1148 -0.3040
 1377SOL    HW2 5280   3.001   5.722   0.767 -0.4960  0.5787 -0.1510
 1377SOL    HW3 5281   2.941   5.837   0.690  1.2859  1.3771 -0.3990
 1377SOL    MW4 5282   3.009   5.787   0.711 -0.0832 -0.5110  0.4973
 1378SOL     OW 5283   4.929   6.365   2.970  0.0532 -0.7849  0.6206
 1378SOL    HW2 5284   4.902   6.371   2.879 -1.1358  0.1527  1.0049
 1378SOL    HW3 5285   4.955   6.454   2.994  2.3488 -1.4005  0.6561
 1378SOL    MW4 5286   4.929   6.377   2.961 -0.0596 -0.3220 -0.0482
 1379SOL     OW 5287   0.145   1.123   0.710 -0.5133  0.3840 -0.0415
 1379SOL    HW2 5288   0.094   1.173   0.646  0.3817  0.3068 -0.8314
 1379SOL    HW3 5289   0.080   1.090   0.772 -1.4390  0.1656 -1.1060
 1379SOL    MW4 5290   0.130   1.126   0.710 -0.0112 -0.0179 -0.4997
 1380SOL     OW 5291   5.438   0.795   1.131  0.5096  0.0060  0.4002
 1380SOL    HW2 5292   5.428   0.804   1.036 -0.1045  0.1621  0.4739
 1380SOL    HW3 5293   5.468   0.881   1.160  1.4143 -0.2527  0.2658
 1380SOL    MW4 5294   5.441   0.808   1.122  0.2218 -0.0293  0.0865
 1381SOL     OW 5295   4.615   0.183   1.279  0.4435 -0.2759 -0.5916
 1381SOL    HW2 5296   4.703   0.146   1.274 -0.0597 -1.4279 -1.1692
 1381SOL    HW3 5297   4.567   0.142   1.207 -0.1540  1.5123 -1.2689
 1381SOL    MW4 5298   4.621   0.173   1.269 -0.5851 -0.4020 -0.0682
 1382SOL     OW 5299   1.307   6.075   2.870 -0.3675  0.9752  0.1284
 1382SOL    HW2 5300   1.309   6.079   2.775 -0.5780  2.9409  0.1585
 1382SOL    HW3 5301   1.214   6.071   2.892 -0.3174  0.4444  0.2671
 1382SOL    MW4 5302   1.295   6.075   2.861 -0.3906  0.1038  0.3286
 1383SOL     OW 5303   0.357   4.138   6.090  0.9663  0.0412 -0.6751
 1383SOL    HW2 5304   0.309   4.162   6.170  1.4844 -0.9097 -0.0499
 1383SOL    HW3 5305   0.447   4.166   6.107  0.8752  0.7685 -1.3632
 1383SOL    MW4 5306   0.363   4.145   6.103  0.3448  0.1799 -0.2639
 1384SOL     OW 5307   3.029   3.092   4.939 -0.8786 -0.2228  0.6527
 1384SOL    HW2 5308   3.028   3.003   4.974 -0.5066 -1.0486 -1.2739
 1384SOL    HW3 5309   2.938   3.110   4.918 -1.1330  0.3545  2.1438
 1384SOL    MW4 5310   3.017   3.082   4.941 -0.4596 -0.0087 -0.0543
 1385SOL     OW 5311   0.417   4.569   6.130 -0.8922  0.3973  0.1808
 1385SOL    HW2 5312   0.459   4.653   6.114 -0.6016  0.0325 -1.1181
 1385SOL    HW3 5313   0.450   4.512   6.061 -0.6349 -0.9637  1.3789
 1385SOL    MW4 5314   0.427   4.573   6.119  0.0011  0.6554  0.5165
 1386SOL     OW 5315   1.043   5.528   2.626 -0.0490 -0.0010  0.1955
 1386SOL    HW2 5316   1.042   5.461   2.695  2.2072 -1.8796 -1.4447
 1386SOL    HW3 5317   1.135   5.537   2.602 -0.7341  0.5483 -2.5833
 1386SOL    MW4 5318   1.055   5.520   2.632  0.0546  0.0026 -0.1617
 1387SOL     OW 5319   3.485   4.188   0.676  0.2114  0.1109 -0.1372
 1387SOL    HW2 5320   3.488   4.095   0.651 -1.2039 -0.4610  1.5766
 1387SOL    HW3 5321   3.577   4.214   0.682  0.6613 -1.4811  0.3256
 1387SOL    MW4 5322   3.497   4.179   0.674 -0.1001  0.1894 -0.6245
 1388SOL     OW 5323   4.698   3.136   2.377 -0.0725 -0.3872 -0.2310
 1388SOL    HW2 5324   4.714   3.057   2.324 -0.6860 -0.3221 -0.5238
 1388SOL    HW3 5325   4.681   3.204   2.312  1.0592  0.1397 -0.0014
 1388SOL    MW4 5326   4.698   3.134   2.361  0.5845 -0.2537  0.5440
 1389SOL     OW 5327   5.795   0.532   1.321  0.1974  0.1659 -0.0481
 1389SOL    HW2 5328   5.881   0.518   1.282  1.0199  1.7267  1.0816
 1389SOL    HW3 5329   5.777   0.453   1.370  1.0125 -0.1544 -0.2500
 1389SOL    MW4 5330   5.804   0.520   1.322 -0.0684  0.0389 -0.0940
 1390SOL     OW 5331   5.754   2.593   5.493  0.0806  0.1002 -0.8470
 1390SOL    HW2 5332   5.801   2.675   5.482  0.7775 -0.2877 -0.8295
 1390SOL    HW3 5333   5.670   2.618   5.531  0.0489  0.8550 -1.4002
 1390SOL    MW4 5334   5.749   2.607   5.497 -0.2459 -0.4337 -0.0024
 1391SOL     OW 5335   2.186   4.188   1.291  0.2140 -0.3548  1.2599
 1391SOL    HW2 5336   2.154   4.099   1.278  2.3672 -0.8340 -1.7322
 1391SOL    HW3 5337   2.263   4.179   1.347  1.0357 -0.5573  0.1260
 1391SOL    MW4 5338   2.192   4.175   1.296 -0.8941 -0.0371 -0.6326
 1392SOL     OW 5339   3.431   0.387   4.721  0.4576  0.4900 -0.2641
 1392SOL    HW2 5340   3.511   0.393   4.774  0.5375 -1.1878 -0.1374
 1392SOL    HW3 5341   3.379   0.319   4.764  0.2658 -0.4975 -1.9662
 1392SOL    MW4 5342   3.435   0.379   4.734  0.3181 -0.5782  0.1411
 1393SOL     OW 5343   5.746   1.044   5.224 -0.0730  0.0164 -0.0167
 1393SOL    HW2 5344   5.832   1.005   5.204  0.8158  1.0169  1.6946
 1393SOL    HW3 5345   5.765   1.114   5.286 -2.2100 -0.1316  0.8732
 1393SOL    MW4 5346   5.760   1.048   5.229 -0.1009  0.4286 -0.3433
 1394SOL     OW 5347   3.116   4.160   1.659  0.0563 -0.2495 -0.0020
 1394SOL    HW2 5348   3.038   4.173   1.713 -0.2511 -1.0268 -0.2424
 1394SOL    HW3 5349   3.145   4.071   1.679  1.5558  0.4190  0.9259
 1394SOL    MW4 5350   3.109   4.150   1.668 -0.3598 -0.7961 -0.4524
 1395SOL     OW 5351   1.337   2.464   4.885 -0.0347 -0.4768 -0.4884
 1395SOL    HW2 5352   1.281   2.396   4.924 -1.0943  0.6762  0.0697
 1395SOL    HW3 5353   1.299   2.547   4.915  1.3125  0.3770 -1.0362
 1395SOL    MW4 5354   1.324   2.466   4.894  0.8970  0.5447 -0.1861
 1396SOL     OW 5355   3.081   1.649   0.253 -0.2404  0.2620  0.0612
 1396SOL    HW2 5356   3.150   1.609   0.306  0.5954  0.4327 -0.8737
 1396SOL    HW3 5357   3.011   1.667   0.316 -0.3723 -2.0097  0.6372
 1396SOL    MW4 5358   3.081   1.646   0.269 -0.2470 -0.2090 -0.1932
 1397SOL     OW 5359   0.974   4.870   2.433 -0.7099 -0.2935  0.1357
 1397SOL    HW2 5360   1.044   4.879   2.368 -1.6697  2.8379 -0.6407
 1397SOL    HW3 5361   1.017   4.889   2.516 -0.0057 -1.7351  0.1315
 1397SOL    MW4 5362   0.989   4.873   2.435  0.5964 -0.1744  0.0345
 1398SOL     OW 5363   0.944   3.014   0.756  0.0188  0.3987 -0.3186
 1398SOL    HW2 5364   0.948   2.918   0.761 -0.2446  0.3273 -1.2842
 1398SOL    HW3 5365   0.850   3.033   0.749 -0.0623  0.8405  1.4957
 1398SOL    MW4 5366   0.932   3.004   0.756 -0.4436 -0.0429  0.0352
 1399SOL     OW 5367   1.116   5.564   2.973 -0.0596  0.3274 -0.1735
 1399SOL    HW2 5368   1.076   5.501   2.914 -1.0725  0.3799  0.4389
 1399SOL    HW3 5369   1.115   5.646   2.925  1.5519 -0.1467 -1.0994
 1399SOL    MW4 5370   1.111   5.566   2.959  0.4348  0.1680  0.3365
 1400SOL     OW 5371   0.967   6.215   1.030 -0.2297 -0.1096  0.6809
 1400SOL    HW2 5372   1.054   6.178   1.044 -0.0175  0.3594  0.6402
 1400SOL    HW3 5373   0.954   6.273   1.105 -0.3948  0.0298  0.5447
 1400SOL    MW4 5374   0.977   6.218   1.042 -0.6557  0.2818  1.1625
 1401SOL     OW 5375   1.898   5.853   5.301 -0.1354  0.1150 -0.0645
 1401SOL    HW2 5376   1.905   5.785   5.368 -1.9763 -0.2863 -0.2456
 1401SOL    HW3 5377   1.884   5.805   5.220 -0.7657  0.6786 -0.2954
 1401SOL    MW4 5378   1.897   5.838   5.299 -0.0157 -0.0596  0.1865
 1402SOL     OW 5379   2.183   2.124   2.236 -0.2800 -0.3717  0.6961
 1402SOL    HW2 5380   2.112   2.117   2.173 -0.2632  1.6432  0.3840
 1402SOL    HW3 5381   2.152   2.076   2.313 -0.9671 -1.5019 -0.2377
 1402SOL    MW4 5382   2.170   2.117   2.238 -0.5264  0.1517 -0.1841
 1403SOL     OW 5383   4.109   0.588   4.773  0.4101  0.0212 -0.0568
 1403SOL    HW2 5384   4.015   0.601   4.781 -0.0224 -0.2513 -3.4158
 1403SOL    HW3 5385   4.122   0.495   4.789  0.1432  0.0672  0.4610
 1403SOL    MW4 5386   4.098   0.577   4.777  0.3072 -0.3383 -0.1685
 1404SOL     OW 5387   2.626   5.766   3.713 -0.5016 -0.3258 -0.2626
 1404SOL    HW2 5388   2.691   5.723   3.769 -0.4587 -1.2677 -1.0036
 1404SOL    HW3 5389   2.615   5.852   3.752  0.6849 -0.3872  0.2828
 1404SOL    MW4 5390   2.633   5.771   3.725 -0.0904  0.1806  0.3190
 1405SOL     OW 5391   0.368   3.570   3.029  0.3133 -0.0666 -0.4615
 1405SOL    HW2 5392   0.436   3.608   3.084  0.6676  1.8595 -2.1143
 1405SOL    HW3 5393   0.416   3.518   2.965  0.1388  0.1681 -0.7862
 1405SOL    MW4 5394   0.383   3.568   3.028 -0.1008  0.0058  0.3797
 1406SOL     OW 5395   6.019   0.928   5.206 -0.5355  0.0560 -0.3802
 1406SOL    HW2 5396   6.013   0.885   5.121 -0.0655  0.5852 -0.6884
 1406SOL    HW3 5397   6.030   0.857   5.269 -3.2417 -0.5379 -0.4632
 1406SOL    MW4 5398   6.020   0.913   5.203  0.6980  0.0707  0.3194
 1407SOL     OW 5399   6.072   0.514   1.161  0.9257 -0.1560  0.0142
 1407SOL    HW2 5400   6.133   0.529   1.233 -1.3583  1.2713  1.8255
 1407SOL    HW3 5401   6.027   0.598   1.150  0.3788 -0.6717 -2.3407
 1407SOL    MW4 5402   6.074   0.527   1.169 -0.1732  0.5692  0.3523
 1408SOL     OW 5403   4.703   4.469   5.319 -0.1512  0.3116  0.0135
 1408SOL    HW2 5404   4.774   4.425   5.272 -1.3373  0.8446 -2.3937
 1408SOL    HW3 5405   4.740   4.554   5.344  0.1804  0.4474 -0.9158
 1408SOL    MW4 5406   4.717   4.474   5.316  0.4351  0.1930  0.0503
 1409SOL     OW 5407   3.413   3.562   5.775 -0.4142  0.1707 -0.3049
 1409SOL    HW2 5408   3.379   3.564   5.864 -1.6579 -0.5048 -0.7385
 1409SOL    HW3 5409   3.337   3.575   5.719  0.5482  2.1003 -1.2737
 1409SOL    MW4 5410   3.399   3.564   5.779 -0.0362  0.7365  0.0303
 1410SOL     OW 5411   5.833   5.498   6.117  0.3592  0.1503  0.5427
 1410SOL    HW2 5412   5.910   5.442   6.110 -0.1541 -0.6323  0.9896
 1410SOL    HW3 5413   5.827   5.519   6.210  0.7836  1.3155  0.3284
 1410SOL    MW4 5414   5.842   5.493   6.128 -0.5564 -0.2297  0.3300
 1411SOL     OW 5415   0.098   0.127   3.130 -0.2492 -0.0820  0.2073
 1411SOL    HW2 5416   0.069   0.036   3.130  0.0795 -0.1891  0.5667
 1411SOL    HW3 5417   0.115   0.147   3.222  1.0789 -0.1139 -0.0138
 1411SOL    MW4 5418   0.096   0.118   3.142 -0.1935  0.6610 -0.3217
 1412SOL     OW 5419   5.500   5.898   1.193  0.1198  0.0322 -0.2735
 1412SOL    HW2 5420   5.420   5.858   1.159  0.7166 -0.8063 -0.7216
 1412SOL    HW3 5421   5.568   5.831   1.180  1.1812  1.2503 -1.1891
 1412SOL    MW4 5422   5.498   5.884   1.187  0.0909 -0.6149  0.0419
 1413SOL     OW 5423   4.777   5.068   2.830  0.0675 -0.3176  0.1865
 1413SOL    HW2 5424   4.830   5.029   2.899  0.9031  0.3783 -0.0451
 1413SOL    HW3 5425   4.818   5.153   2.813 -0.5619 -0.1637 -0.6578
 1413SOL    MW4 5426   4.789   5.074   2.837 -0.0876  0.0826  0.0435
 1414SOL     OW 5427   1.899   5.476   4.112 -0.1223 -0.5779  0.3248
 1414SOL    HW2 5428   1.922   5.481   4.205  0.4717 -0.2779  0.1738
 1414SOL    HW3 5429   1.864   5.563   4.092 -0.2977 -0.6593  0.2776
 1414SOL    MW4 5430   1.898   5.488   4.122 -0.4009  0.1647 -0.1155
 1415SOL     OW 5431   4.745   5.558   1.824 -0.1080  0.5218 -0.1974
 1415SOL    HW2 5432   4.798   5.491   1.868 -1.3071  0.0510  0.5983
 1415SOL    HW3 5433   4.664   5.512   1.802  0.7831  0.4080 -3.9573
 1415SOL    MW4 5434   4.741   5.543   1.827  0.3675  0.3320 -0.6732
 1416SOL     OW 5435   4.527   5.376   1.754  0.1786 -0.9088  0.0622
 1416SOL    HW2 5436   4.549   5.412   1.669  1.9568  1.3792  1.3622
 1416SOL    HW3 5437   4.440   5.339   1.743 -1.0395  2.1554 -1.9858
 1416SOL    MW4 5438   4.518   5.376   1.742 -0.7806 -0.8285  0.4839
 1417SOL     OW 5439   2.084   1.858   1.299  0.2231 -0.7509  0.7545
 1417SOL    HW2 5440   2.018   1.928   1.308  0.9972  0.1879 -0.5236
 1417SOL    HW3 5441   2.127   1.854   1.385 -0.3563 -0.1995  1.0769
 1417SOL    MW4 5442   2.081   1.867   1.312 -0.4264 -0.3153 -0.0371
 1418SOL     OW 5443   4.662   2.478   1.703 -0.2076 -0.0425 -0.3921
 1418SOL    HW2 5444   4.640   2.392   1.741  1.1082 -0.4734 -0.5698
 1418SOL    HW3 5445   4.757   2.477   1.693 -0.2180  1.2601 -0.8585
 1418SOL    MW4 5446   4.672   2.466   1.707 -0.1592 -0.2125  0.4848
 1419SOL     OW 5447   2.586   2.729   3.689  0.0654  0.6296  0.0473
 1419SOL    HW2 5448   2.617   2.703   3.603  1.2667 -0.1250  0.6835
 1419SOL    HW3 5449   2.495   2.756   3.675 -0.9354 -2.7880 -0.8787
 1419SOL    MW4 5450   2.578   2.729   3.676 -0.2188  0.6555 -0.1506
 1420SOL     OW 5451   3.029   4.322   5.094  0.1501 -0.3269  0.4297
 1420SOL    HW2 5452   2.977   4.402   5.080 -0.9585 -1.3765 -2.0628
 1420SOL    HW3 5453   3.119   4.353   5.104 -0.0242  1.2284 -2.0229
 1420SOL    MW4 5454   3.034   4.337   5.094 -0.5462  0.4875 -0.6641
 1421SOL     OW 5455   3.620   3.012   2.478  0.5062  0.3762 -0.0856
 1421SOL    HW2 5456   3.711   2.989   2.501  0.5004 -0.2250 -0.6214
 1421SOL    HW3 5457   3.627   3.050   2.391  0.1915 -0.0506 -0.2958
 1421SOL    MW4 5458   3.633   3.014   2.470 -0.3558 -0.0614 -0.3140
 1422SOL     OW 5459   5.475   2.877   2.905  0.2371 -0.0775  0.4781
 1422SOL    HW2 5460   5.530   2.903   2.832 -0.7203  0.7186  0.0094
 1422SOL    HW3 5461   5.403   2.829   2.865 -0.1238  0.0796  0.9244
 1422SOL    MW4 5462   5.472   2.874   2.890  0.3152  0.4084 -0.1593
 1423SOL     OW 5463   4.613   3.800   6.156 -0.1687 -0.0423  0.2002
 1423SOL    HW2 5464   4.705   3.817   6.135 -0.6949  0.1274 -2.2159
 1423SOL    HW3 5465   4.564   3.836   6.082 -2.0427 -2.0063  0.3964
 1423SOL    MW4 5466   4.619   3.807   6.144  0.0572 -0.0213 -0.3402
 1424SOL     OW 5467   6.180   1.410   1.732  0.4078  0.1336  0.3824
 1424SOL    HW2 5468   6.231   1.483   1.698  1.5786 -0.2963  1.1353
 1424SOL    HW3 5469   6.180   1.422   1.826 -0.8643  0.0886  0.4005
 1424SOL    MW4 5470   6.187   1.421   1.740  0.3108 -0.1707  0.1836
 1425SOL     OW 5471   5.516   3.782   6.121 -0.2186  0.4383 -0.6553
 1425SOL    HW2 5472   5.485   3.786   6.031 -2.0893  0.7539 -0.0417
 1425SOL    HW3 5473   5.444   3.742   6.170  0.9501 -0.1956  0.6296
 1425SOL    MW4 5474   5.502   3.777   6.116 -0.1924  0.1862 -0.0837
 1426SOL     OW 5475   5.995   4.052   0.284 -0.7975  0.3413  0.5236
 1426SOL    HW2 5476   6.087   4.072   0.267 -1.0786  2.3051  1.0822
 1426SOL    HW3 5477   5.948   4.089   0.209 -1.0480 -2.4455 -0.8257
 1426SOL    MW4 5478   6.000   4.060   0.272 -0.0183  0.3229  0.7172
 1427SOL     OW 5479   5.913   1.827   4.372  0.0755 -0.0567  0.0596
 1427SOL    HW2 5480   5.988   1.800   4.425 -1.1332 -0.9223  1.4010
 1427SOL    HW3 5481   5.837   1.793   4.419 -1.5569  4.2569  1.0808
 1427SOL    MW4 5482   5.913   1.819   4.385 -0.2163 -0.3780 -0.3593
 1428SOL     OW 5483   6.196   3.862   5.847 -0.3605  0.2300 -1.2301
 1428SOL    HW2 5484   6.205   3.805   5.771  0.0048  0.7404 -1.5797
 1428SOL    HW3 5485   6.223   3.948   5.816  0.5401  0.2953 -0.3264
 1428SOL    MW4 5486   6.201   3.866   5.833 -0.1005 -0.5109 -0.4222
 1429SOL     OW 5487   1.338   0.289   0.152 -0.2810  0.0567  0.1245
 1429SOL    HW2 5488   1.341   0.357   0.085 -1.2598 -0.3121 -0.3120
 1429SOL    HW3 5489   1.256   0.243   0.136 -0.2411 -0.4242  1.2064
 1429SOL    MW4 5490   1.328   0.292   0.141  0.3903 -0.3265  0.7016
 1430SOL     OW 5491   1.769   6.137   2.535  0.0768 -0.3573 -0.1017
 1430SOL    HW2 5492   1.840   6.095   2.584  0.0320 -0.2874  0.0237
 1430SOL    HW3 5493   1.710   6.065   2.511  1.0363 -0.6775 -1.6702
 1430SOL    MW4 5494   1.770   6.122   2.538  0.3020 -0.0825 -0.5765
 1431SOL     OW 5495   1.017   2.957   5.472 -0.2517 -0.0096  0.0402
 1431SOL    HW2 5496   0.948   3.023   5.483 -0.4884 -0.2109 -0.2354
 1431SOL    HW3 5497   0.977   2.875   5.501  0.1039 -0.0073  0.5622
 1431SOL    MW4 5498   1.003   2.955   5.477 -0.0290 -0.0788  0.1051
 1432SOL     OW 5499   4.669   5.661   5.401  0.3573  0.3979  0.0313
 1432SOL    HW2 5500   4.609   5.713   5.455 -0.3498 -0.7294  0.3744
 1432SOL    HW3 5501   4.741   5.640   5.460 -0.1725 -0.4068  0.4162
 1432SOL    MW4 5502   4.670   5.665   5.416  0.0055 -0.0446  0.1067
 1433SOL     OW 5503   0.334   1.048   2.939  0.6165  0.7039  0.4927
 1433SOL    HW2 5504   0.401   1.000   2.891  0.3188  1.3953 -0.6686
 1433SOL    HW3 5505   0.376   1.131   2.963  0.0202  1.4339 -0.8388
 1433SOL    MW4 5506   0.348   1.053   2.936  0.0502  0.9157  0.5905
 1434SOL     OW 5507   0.599   1.218   0.605  0.3201 -0.1882  0.0920
 1434SOL    HW2 5508   0.604   1.131   0.646 -1.8974 -0.2530  0.3361
 1434SOL    HW3 5509   0.569   1.201   0.516  0.2647  0.2960  0.0159
 1434SOL    MW4 5510   0.596   1.204   0.599 -0.2550  0.0791 -0.2703
 1435SOL     OW 5511   5.329   2.164   5.860 -0.0105  0.4968  0.0041
 1435SOL    HW2 5512   5.324   2.232   5.928 -1.1928  2.4162 -1.8835
 1435SOL    HW3 5513   5.252   2.109   5.876 -0.6684  1.3486 -0.1632
 1435SOL    MW4 5514   5.318   2.165   5.871  0.0014 -0.2712  0.0270
 1436SOL     OW 5515   1.716   4.716   6.409 -0.1925  0.2625  0.3652
 1436SOL    HW2 5516   1.696   4.656   6.338  0.5447  0.1513  0.2441
 1436SOL    HW3 5517   1.742   4.660   6.482 -2.5530  0.2778  1.3038
 1436SOL    MW4 5518   1.717   4.701   6.409  0.0224  0.1337  1.1615
 1437SOL     OW 5519   3.585   5.727   3.003 -0.4633 -0.0647 -0.5454
 1437SOL    HW2 5520   3.605   5.633   3.002  2.5543  0.4476  0.5091
 1437SOL    HW3 5521   3.497   5.732   3.042  1.0217 -2.3450  3.8317
 1437SOL    MW4 5522   3.576   5.715   3.008  0.2561 -0.6048 -0.6236
 1438SOL     OW 5523   2.601   0.556   1.661  0.0775 -0.3597 -0.6916
 1438SOL    HW2 5524   2.590   0.461   1.669  1.0880 -0.5073 -0.9576
 1438SOL    HW3 5525   2.512   0.590   1.661 -0.2915 -1.2875 -0.3533
 1438SOL    MW4 5526   2.588   0.548   1.662 -0.6545 -0.5498  0.1878
 1439SOL     OW 5527   3.005   6.175   3.172  0.3825 -0.4443  0.4187
 1439SOL    HW2 5528   3.008   6.080   3.183  0.8206 -0.4541  0.2356
 1439SOL    HW3 5529   2.990   6.188   3.078 -4.5131 -0.3816  0.9500
 1439SOL    MW4 5530   3.003   6.164   3.161  0.2117  0.3697  0.0008
 1440SOL     OW 5531   0.508   1.476   0.187 -0.8039  0.1589 -0.0070
 1440SOL    HW2 5532   0.585   1.425   0.162 -2.0572 -2.5048  1.2050
 1440SOL    HW3 5533   0.492   1.533   0.111  1.9477  0.3912 -0.5296
 1440SOL    MW4 5534   0.516   1.477   0.174 -0.4996 -0.2082 -0.4257
 1441SOL     OW 5535   5.907   3.270   1.740 -0.4699  0.0636  0.0685
 1441SOL    HW2 5536   5.859   3.203   1.790 -2.0882  1.1803  0.0661
 1441SOL    HW3 5537   5.862   3.273   1.655  0.0641  0.6450 -0.1957
 1441SOL    MW4 5538   5.895   3.261   1.735 -0.4705 -0.2384  0.2645
 1442SOL     OW 5539   5.007   3.635   5.496 -0.7457 -0.0993  0.0192
 1442SOL    HW2 5540   4.994   3.721   5.536 -0.5216 -0.3578  0.6718
 1442SOL    HW3 5541   4.926   3.617   5.448 -0.7246  0.5483 -0.2592
 1442SOL    MW4 5542   4.995   3.644   5.495 -0.1009 -0.4748 -0.1440
 1443SOL     OW 5543   2.535   3.372   0.999 -0.0423  0.0858  0.1749
 1443SOL    HW2 5544   2.622   3.376   0.960  0.0272 -2.1660  0.0003
 1443SOL    HW3 5545   2.520   3.461   1.033  1.8456  0.8048 -0.7477
 1443SOL    MW4 5546   2.545   3.384   0.999  0.2571 -0.3520 -0.4302
 1444SOL     OW 5547   2.322   1.758   2.155 -0.3929 -0.0467 -0.0395
 1444SOL    HW2 5548   2.366   1.826   2.205 -0.1996 -0.2554  0.0753
 1444SOL    HW3 5549   2.388   1.689   2.145  0.1860  0.7336 -2.1227
 1444SOL    MW4 5550   2.336   1.758   2.160 -0.4833  0.9572  0.0681
 1445SOL     OW 5551   1.078   0.321   3.279 -0.0947 -0.1912  0.4966
 1445SOL    HW2 5552   1.169   0.351   3.280 -0.5474  1.2371  1.6235
 1445SOL    HW3 5553   1.074   0.256   3.349 -0.3170  1.0069  1.6253
 1445SOL    MW4 5554   1.090   0.316   3.288 -0.3246  0.4359 -0.2165
 1446SOL     OW 5555   3.990   2.335   5.757  0.3440  0.1544 -0.3401
 1446SOL    HW2 5556   3.943   2.365   5.679  1.5696  0.5990 -0.9497
 1446SOL    HW3 5557   3.924   2.290   5.810 -0.8091  1.0410 -0.9893
 1446SOL    MW4 5558   3.975   2.333   5.753  0.0704  0.0200 -0.4182
 1447SOL     OW 5559   0.633   3.202   4.587  0.7864 -0.3748 -0.3566
 1447SOL    HW2 5560   0.689   3.237   4.517  1.8986 -2.5210 -0.6091
 1447SOL    HW3 5561   0.691   3.193   4.662  0.3724 -1.0353 -0.1092
 1447SOL    MW4 5562   0.648   3.206   4.587 -0.3535 -0.0036  0.5749
 1448SOL     OW 5563   5.441   2.847   4.485  0.5604  0.0518  0.0682
 1448SOL    HW2 5564   5.466   2.907   4.556  0.6660 -1.3937  1.2984
 1448SOL    HW3 5565   5.440   2.761   4.526  0.3554 -0.7967 -1.6500
 1448SOL    MW4 5566   5.444   2.844   4.500  0.4193  0.7138 -0.2324
 1449SOL     OW 5567   4.098   3.155   5.473  0.4766  0.1964  0.2312
 1449SOL    HW2 5568   4.156   3.088   5.509  0.4230  0.4463  0.7976
 1449SOL    HW3 5569   4.010   3.123   5.492  0.3737 -0.6008 -1.3766
 1449SOL    MW4 5570   4.094   3.142   5.480 -0.3621  0.4161 -0.1747
 1450SOL     OW 5571   1.819   2.460   5.043 -0.1488 -0.2429 -0.5276
 1450SOL    HW2 5572   1.822   2.374   5.000 -0.3583 -0.8702  0.6772
 1450SOL    HW3 5573   1.825   2.440   5.137  0.9341  1.1229 -0.2692
 1450SOL    MW4 5574   1.820   2.446   5.050 -0.2326 -0.5819 -0.2772
 1451SOL     OW 5575   3.334   3.601   6.344  0.5408  0.9186  0.0995
 1451SOL    HW2 5576   3.421   3.563   6.344  0.3230  0.2845 -2.3308
 1451SOL    HW3 5577   3.331   3.656   6.265 -1.8627 -0.6540 -1.0396
 1451SOL    MW4 5578   3.345   3.604   6.333  0.1384 -0.2587 -1.0985
 1452SOL     OW 5579   2.493   1.115   6.365 -0.2594  0.1077  0.0660
 1452SOL    HW2 5580   2.481   1.186   6.428  1.1092 -0.0119  0.5001
 1452SOL    HW3 5581   2.546   1.050   6.412 -0.6344 -0.7509 -0.6614
 1452SOL    MW4 5582   2.498   1.115   6.380 -0.4864 -0.4120 -0.0685
 1453SOL     OW 5583   2.704   5.916   3.127  0.6665  0.4903 -0.1606
 1453SOL    HW2 5584   2.724   5.995   3.078 -1.1194  0.9217 -0.2666
 1453SOL    HW3 5585   2.789   5.873   3.140  1.5599  1.9980 -0.7984
 1453SOL    MW4 5586   2.718   5.921   3.122  0.5086 -0.3820 -0.0800
 1454SOL     OW 5587   2.475   0.178   1.182 -0.4684  0.0438  0.6396
 1454SOL    HW2 5588   2.428   0.154   1.102 -0.0404 -0.9976  0.6838
 1454SOL    HW3 5589   2.557   0.216   1.151 -0.7867  0.6918  0.5783
 1454SOL    MW4 5590   2.480   0.180   1.167  0.0571  0.6105  0.1896
 1455SOL     OW 5591   4.348   0.562   0.361  0.1109  0.1362 -0.1288
 1455SOL    HW2 5592   4.266   0.519   0.335 -1.8533  4.3519 -1.8255
 1455SOL    HW3 5593   4.360   0.537   0.452 -3.3517 -0.3741  0.3396
 1455SOL    MW4 5594   4.339   0.553   0.369 -0.1717 -0.5697  0.4929
 1456SOL     OW 5595   4.595   3.171   4.652  0.1804  0.0575  0.9015
 1456SOL    HW2 5596   4.536   3.214   4.714  0.5291 -1.6983  2.5361
 1456SOL    HW3 5597   4.556   3.085   4.636  0.3412  0.2909 -1.0029
 1456SOL    MW4 5598   4.582   3.165   4.658 -0.0421  0.1783  0.0119
 1457SOL     OW 5599   5.960   4.593   0.582 -0.1117  0.0329  0.5958
 1457SOL    HW2 5600   5.967   4.609   0.676 -1.0821 -0.0881  0.7009
 1457SOL    HW3 5601   5.868   4.610   0.562  0.0130 -0.2724 -0.2698
 1457SOL    MW4 5602   5.949   4.597   0.592  0.1432  0.2519 -0.1266
 1458SOL     OW 5603   5.277   4.411   3.508 -0.7153 -0.2439 -0.5141
 1458SOL    HW2 5604   5.255   4.427   3.417 -0.0880 -0.1559 -0.6562
 1458SOL    HW3 5605   5.210   4.458   3.558 -0.3995  0.6693 -0.9275
 1458SOL    MW4 5606   5.265   4.420   3.503  0.3044 -0.3656  0.1254
 1459SOL     OW 5607   5.909   0.422   5.087  0.1395  0.2895 -0.0159
 1459SOL    HW2 5608   5.920   0.387   5.175 -2.1095 -0.4836  0.0163
 1459SOL    HW3 5609   5.995   0.411   5.046  1.0593  0.0815  1.8515
 1459SOL    MW4 5610   5.922   0.416   5.093  0.4418  0.0069 -0.1489
 1460SOL     OW 5611   6.290   1.980   5.125  0.8842 -0.1647 -0.7205
 1460SOL    HW2 5612   6.201   1.999   5.155  0.3646 -0.8193 -1.7942
 1460SOL    HW3 5613   6.341   2.055   5.154  0.2068 -0.2704  0.8414
 1460SOL    MW4 5614   6.285   1.993   5.133  0.0751  0.5797  0.1271
 1461SOL     OW 5615   1.921   3.592   2.686  0.6956  0.4203 -0.1941
 1461SOL    HW2 5616   1.936   3.554   2.773 -0.2052 -1.1680 -0.6827
 1461SOL    HW3 5617   1.939   3.521   2.625 -1.3051  0.6467 -1.1458
 1461SOL    MW4 5618   1.925   3.577   2.690  0.7356 -0.3383  0.4904
 1462SOL     OW 5619   1.616   3.344   4.586 -0.6590  0.3888 -0.2711
 1462SOL    HW2 5620   1.654   3.274   4.533  0.6330 -0.5312  1.7414
 1462SOL    HW3 5621   1.522   3.339   4.568 -0.3548 -0.4392 -1.7757
 1462SOL    MW4 5622   1.608   3.334   4.577  0.0250 -0.1845  0.8719
 1463SOL     OW 5623   5.493   5.197   1.535 -0.5770 -0.2184  0.5349
 1463SOL    HW2 5624   5.483   5.197   1.440  2.0999  0.9659  0.1668
 1463SOL    HW3 5625   5.501   5.289   1.559  1.0405 -0.5813  1.5715
 1463SOL    MW4 5626   5.492   5.209   1.526 -0.0657 -0.4497  0.2688
 1464SOL     OW 5627   1.269   2.167   1.389 -0.6106 -0.1888  0.2736
 1464SOL    HW2 5628   1.246   2.243   1.335 -1.3754 -1.3427 -1.1095
 1464SOL    HW3 5629   1.188   2.115   1.393 -0.0242 -1.0811  0.9400
 1464SOL    MW4 5630   1.255   2.170   1.382 -0.6424 -0.3162  0.1002
 1465SOL     OW 5631   0.584   0.271   0.208  0.1221  0.2619 -0.4675
 1465SOL    HW2 5632   0.556   0.201   0.148 -0.3285  1.2070 -1.3900
 1465SOL    HW3 5633   0.566   0.352   0.161  3.9464  1.0284 -0.9375
 1465SOL    MW4 5634   0.578   0.272   0.194 -0.3305 -0.6092 -0.1563
 1466SOL     OW 5635   5.507   1.570   2.182 -0.3801  0.2307 -0.2149
 1466SOL    HW2 5636   5.572   1.500   2.176 -1.2243 -0.4684 -1.6075
 1466SOL    HW3 5637   5.424   1.524   2.198 -1.1910  0.7425 -2.5837
 1466SOL    MW4 5638   5.504   1.555   2.183  0.2662  0.1562 -0.3295
 1467SOL     OW 5639   1.375   3.106   6.066  0.3582 -0.2156 -0.4277
 1467SOL    HW2 5640   1.290   3.105   6.109  0.4036 -1.0417 -0.3424
 1467SOL    HW3 5641   1.403   3.014   6.066  0.7581 -0.1063 -1.4171
 1467SOL    MW4 5642   1.368   3.094   6.072 -0.4651  0.1338  0.1576
 1468SOL     OW 5643   3.840   1.730   4.861 -0.3315 -0.0635  0.2841
 1468SOL    HW2 5644   3.904   1.668   4.826 -0.7018 -0.5293  0.4268
 1468SOL    HW3 5645   3.836   1.711   4.954  1.2006  1.6673  0.7673
 1468SOL    MW4 5646   3.848   1.719   4.868  0.7337 -0.1690  0.0682
 1469SOL     OW 5647   1.169   4.545   6.001 -0.0872  0.0997  0.0508
 1469SOL    HW2 5648   1.253   4.503   5.985  0.7075  0.1762  3.2496
 1469SOL    HW3 5649   1.103   4.481   5.974  1.0422 -0.9432 -0.2727
 1469SOL    MW4 5650   1.171   4.531   5.996  0.5336 -0.0803  0.7033
 1470SOL     OW 5651   3.900   2.453   2.829 -0.3017 -0.4621 -0.5123
 1470SOL    HW2 5652   3.806   2.474   2.834 -0.3788 -0.6379 -1.1515
 1470SOL    HW3 5653   3.943   2.537   2.822 -0.4121 -0.3814 -0.2542
 1470SOL    MW4 5654   3.893   2.467   2.829  0.7632  0.2281  0.2278
 1471SOL     OW 5655   3.823   1.777   0.743 -0.2869  0.5142  0.4109
 1471SOL    HW2 5656   3.809   1.801   0.835 -1.0361  0.0241  0.4341
 1471SOL    HW3 5657   3.736   1.750   0.712 -0.2598  1.7050 -0.7565
 1471SOL    MW4 5658   3.809   1.777   0.751 -0.4492 -0.0521  0.0435
 1472SOL     OW 5659   1.337   4.715   1.154 -0.0468  0.7856  0.1003
 1472SOL    HW2 5660   1.272   4.667   1.102 -1.0623  0.4898  1.5657
 1472SOL    HW3 5661   1.326   4.806   1.129 -2.3264  1.0008  1.5340
 1472SOL    MW4 5662   1.327   4.721   1.144 -0.1170  0.0890  0.7155
 1473SOL     OW 5663   6.035   5.835   3.003 -0.6297  0.4572  0.7895
 1473SOL    HW2 5664   6.087   5.910   2.974 -1.3240  1.0782  1.1229
 1473SOL    HW3 5665   5.960   5.834   2.945 -0.1748 -0.5393  0.2041
 1473SOL    MW4 5666   6.032   5.845   2.992  0.3218  0.1761 -0.3457
 1474SOL     OW 5667   6.360   2.672   3.829  0.4195 -0.0766  0.6788
 1474SOL    HW2 5668   6.318   2.733   3.768  0.5587 -0.6764 -0.0283
 1474SOL    HW3 5669   6.422   2.726   3.877 -1.1886  0.8537  1.8000
 1474SOL    MW4 5670   6.362   2.687   3.827  0.3401 -0.4401  0.1899
 1475SOL     OW 5671   0.052   6.311   5.771  0.6362 -0.4384  0.3394
 1475SOL    HW2 5672  -0.004   6.367   5.825 -0.3489 -1.3854  0.3235
 1475SOL    HW3 5673   0.016   6.223   5.781  2.3173 -1.1432  0.5737
 1475SOL    MW4 5674   0.040   6.307   5.779 -0.4472 -0.2535 -0.5107
 1476SOL     OW 5675   5.087   0.408   0.294 -0.1250  0.0928  0.5160
 1476SOL    HW2 5676   5.129   0.485   0.256 -1.6886 -0.1583 -1.9031
 1476SOL    HW3 5677   5.064   0.354   0.219 -0.9205 -1.7825  2.0332
 1476SOL    MW4 5678   5.090   0.411   0.279 -0.3439  1.0878  0.2397
 1477SOL     OW 5679   1.538   4.596   4.223 -0.4857 -0.5133  0.0874
 1477SOL    HW2 5680   1.568   4.525   4.281 -0.8823 -0.8920 -0.1607
 1477SOL    HW3 5681   1.568   4.676   4.265  2.4705 -0.9158 -1.0452
 1477SOL    MW4 5682   1.546   4.597   4.236 -0.1156  0.2281  0.4675
 1478SOL     OW 5683   4.293   2.137   0.643 -0.2422  0.2535 -0.2163
 1478SOL    HW2 5684   4.359   2.126   0.713  0.6615 -0.9364 -1.2014
 1478SOL    HW3 5685   4.246   2.053   0.643 -1.7058  1.0437  0.3787
 1478SOL    MW4 5686   4.296   2.124   0.652  0.4881  0.6025  0.2428
 1479SOL     OW 5687   5.363   6.366   5.970 -0.0162  0.1428 -0.4161
 1479SOL    HW2 5688   5.453   6.381   5.939  0.0841  2.2659  0.7162
 1479SOL    HW3 5689   5.311   6.432   5.925 -0.6488  0.2256  0.4111
 1479SOL    MW4 5690   5.368   6.377   5.960 -0.0913 -0.4300 -0.4628
 1480SOL     OW 5691   1.846   0.413   6.072 -0.1222 -0.0009 -0.3454
 1480SOL    HW2 5692   1.859   0.442   6.162 -2.0214  0.0634 -0.0619
 1480SOL    HW3 5693   1.884   0.324   6.071  0.2738  0.1460  0.3893
 1480SOL    MW4 5694   1.853   0.405   6.084  0.4787  0.1503 -0.0874
 1481SOL     OW 5695   0.574   3.435   0.536  0.0672  0.3070 -0.4817
 1481SOL    HW2 5696   0.593   3.508   0.595  0.6350 -0.7214  0.6592
 1481SOL    HW3 5697   0.508   3.469   0.476 -0.5845  1.3741  0.7942
 1481SOL    MW4 5698   0.568   3.449   0.536  0.7117 -0.1176 -0.9829
 1482SOL     OW 5699   3.807   0.030   5.659 -0.0821  0.9118  0.6625
 1482SOL    HW2 5700   3.813   0.017   5.565  1.9662  0.3032  0.8160
 1482SOL    HW3 5701   3.721  -0.004   5.683 -1.4747  2.8331 -1.1868
 1482SOL    MW4 5702   3.797   0.024   5.650  0.2220 -0.0896  0.0051
 1483SOL     OW 5703   4.007   5.190   2.491 -0.0816  0.0855  0.0794
 1483SOL    HW2 5704   3.956   5.264   2.524  0.2694 -0.6008  2.3318
 1483SOL    HW3 5705   3.964   5.113   2.529  0.4436 -0.7763 -1.0103
 1483SOL    MW4 5706   3.994   5.190   2.500  0.5799  0.3792 -0.1757
 1484SOL     OW 5707   2.555   6.026   1.988 -0.3229 -0.6142  0.2444
 1484SOL    HW2 5708   2.590   5.996   1.904  0.8569 -0.9144  0.8225
 1484SOL    HW3 5709   2.570   5.953   2.047  0.0859  0.0917  1.0326
 1484SOL    MW4 5710   2.561   6.012   1.984  0.2146  0.8247 -0.0459
 1485SOL     OW 5711   2.830   0.444   4.636 -0.5740 -0.3995 -0.5561
 1485SOL    HW2 5712   2.772   0.379   4.678 -1.0016  0.8597  0.9169
 1485SOL    HW3 5713   2.899   0.392   4.596 -1.3086 -1.8128 -0.0782
 1485SOL    MW4 5714   2.831   0.429   4.636 -0.4331  0.9380  0.1687
 1486SOL     OW 5715   2.091   0.535   0.862  0.4032 -0.3101 -0.0180
 1486SOL    HW2 5716   2.168   0.568   0.909 -0.8172  0.8313  1.2725
 1486SOL    HW3 5717   2.058   0.464   0.917  0.1800 -0.3909 -0.2542
 1486SOL    MW4 5718   2.097   0.530   0.875 -0.0944  0.6632 -0.2458
 1487SOL     OW 5719   1.319   2.009   6.305 -0.4249 -0.4976  0.3735
 1487SOL    HW2 5720   1.237   1.982   6.346  0.8611 -0.6472  3.1283
 1487SOL    HW3 5721   1.320   2.104   6.314 -0.7946 -0.3735 -0.7595
 1487SOL    MW4 5722   1.309   2.018   6.312  0.3197 -0.0975 -0.0831
 1488SOL     OW 5723  -0.006   3.121   2.352  0.7806 -0.1746 -0.3760
 1488SOL    HW2 5724   0.017   3.160   2.437  1.5819 -0.0097 -0.6567
 1488SOL    HW3 5725   0.020   3.030   2.360 -0.3719 -0.4815  0.0079
 1488SOL    MW4 5726  -0.000   3.114   2.364  0.3983  0.7219  0.7794
 1489SOL     OW 5727   5.845   6.232   2.347  0.2208 -0.5927  0.1521
 1489SOL    HW2 5728   5.790   6.191   2.413 -0.3683 -0.8655 -0.5013
 1489SOL    HW3 5729   5.856   6.165   2.279 -1.1015  0.4212 -1.1347
 1489SOL    MW4 5730   5.840   6.218   2.347 -0.3705  0.0074  0.3208
 1490SOL     OW 5731   0.931   4.638   2.166 -0.3718  0.2345  0.1253
 1490SOL    HW2 5732   0.850   4.633   2.216  0.4411 -0.3601  1.4426
 1490SOL    HW3 5733   0.943   4.731   2.150 -0.4599  0.4944  1.4097
 1490SOL    MW4 5734   0.922   4.649   2.171  0.3542 -0.1750 -0.4812
 1491SOL     OW 5735   3.785   1.900   1.563 -0.1199  0.3259 -0.7556
 1491SOL    HW2 5736   3.765   1.834   1.628  1.7765  2.0240  1.7521
 1491SOL    HW3 5737   3.707   1.903   1.506 -0.8010 -2.9789 -0.1602
 1491SOL    MW4 5738   3.772   1.892   1.564  0.1378  0.0722 -0.1031
 1492SOL     OW 5739   5.225   0.343   2.297 -0.4858 -0.1998  0.2436
 1492SOL    HW2 5740   5.296   0.369   2.238 -1.6432  0.9749 -0.6837
 1492SOL    HW3 5741   5.250   0.256   2.327 -0.1484 -1.1426 -2.5059
 1492SOL    MW4 5742   5.238   0.335   2.294 -0.0612 -0.3786 -0.8414
 1493SOL     OW 5743   0.847   2.771   0.368  0.5780  0.0091  0.4015
 1493SOL    HW2 5744   0.827   2.755   0.276  1.6280 -0.2138  0.2044
 1493SOL    HW3 5745   0.933   2.813   0.367 -0.9697  3.6508  1.0133
 1493SOL    MW4 5746   0.856   2.775   0.356 -0.0534 -0.4336  0.2724
 1494SOL     OW 5747   5.317   5.408   3.347  0.0745  0.4841  0.8558
 1494SOL    HW2 5748   5.269   5.353   3.408  0.3766 -0.1440  0.5393
 1494SOL    HW3 5749   5.297   5.371   3.261  1.3339  0.0315  0.7368
 1494SOL    MW4 5750   5.308   5.396   3.343 -0.4134 -0.5798  0.3251
 1495SOL     OW 5751   4.040   2.339   1.248  0.1148  0.4912  0.7664
 1495SOL    HW2 5752   3.972   2.322   1.313  0.3603 -1.6313  0.5557
 1495SOL    HW3 5753   4.101   2.398   1.291 -1.1736  1.3899  1.4171
 1495SOL    MW4 5754   4.039   2.344   1.262 -0.5545  0.4627  0.6134
 1496SOL     OW 5755   5.867   2.442   0.077  0.0917  0.2297 -0.2389
 1496SOL    HW2 5756   5.936   2.428   0.141 -0.9012  1.8069  1.2597
 1496SOL    HW3 5757   5.786   2.433   0.127 -0.7377  0.5662 -1.4788
 1496SOL    MW4 5758   5.865   2.439   0.092  0.4014  0.4790  0.0241
 1497SOL     OW 5759   6.279   1.035   4.432  0.0297  0.4507 -0.0066
 1497SOL    HW2 5760   6.262   1.049   4.525 -0.1014 -1.0820  0.2364
 1497SOL    HW3 5761   6.197   1.059   4.389  0.5527  2.5795  0.0811
 1497SOL    MW4 5762   6.266   1.040   4.439  0.1408  0.1991  0.0003
 1498SOL     OW 5763   3.047   6.411   4.442 -0.1382 -0.3928  0.3612
 1498SOL    HW2 5764   3.066   6.484   4.383 -1.4881 -0.0504  0.3374
 1498SOL    HW3 5765   2.955   6.391   4.428 -0.5664 -0.1541  2.5204
 1498SOL    MW4 5766   3.038   6.418   4.433 -0.2674  0.5321 -0.6592
 1499SOL     OW 5767   4.220   1.442   0.959 -0.4174  0.0543  0.2155
 1499SOL    HW2 5768   4.144   1.420   0.905 -0.5524  1.0240  0.0038
 1499SOL    HW3 5769   4.188   1.436   1.049 -0.3789 -0.8673  0.1779
 1499SOL    MW4 5770   4.206   1.438   0.964  0.2944  0.9624  0.4406
 1500SOL     OW 5771   3.616   2.518   6.251  0.1736 -0.4099 -0.2928
 1500SOL    HW2 5772   3.651   2.578   6.185  0.3264  0.3149  0.4185
 1500SOL    HW3 5773   3.532   2.558   6.276  0.4920 -0.2297  0.5181
 1500SOL    MW4 5774   3.610   2.531   6.246 -1.0332 -0.0518  0.3516
 1501SOL     OW 5775   1.975   4.558   1.944  0.3569 -0.3231  0.3044
 1501SOL    HW2 5776   2.017   4.644   1.951  0.2706 -0.2250 -0.3289
 1501SOL    HW3 5777   1.999   4.513   2.025 -1.1802  0.9838  1.5386
 1501SOL    MW4 5778   1.984   4.564   1.955  0.5171  0.0626 -0.6472
 1502SOL     OW 5779   3.354   0.861   1.725  0.1675  0.3856  0.0960
 1502SOL    HW2 5780   3.347   0.787   1.786 -0.9012  0.9447  0.6818
 1502SOL    HW3 5781   3.265   0.873   1.691  0.0627  2.1227  0.8875
 1502SOL    MW4 5782   3.341   0.853   1.728  0.0753  0.3826 -0.1609
 1503SOL     OW 5783   3.785   0.878   5.499 -0.0597  0.6900  0.1146
 1503SOL    HW2 5784   3.754   0.822   5.428  0.2065  1.5816 -0.7354
 1503SOL    HW3 5785   3.719   0.869   5.567  0.6305 -1.6488  0.5627
 1503SOL    MW4 5786   3.772   0.870   5.499  0.1111  0.3753  0.4843
 1504SOL     OW 5787   3.836   3.773   3.543 -0.0778  0.3054 -0.3344
 1504SOL    HW2 5788   3.842   3.861   3.504 -1.2105 -0.1191 -1.5203
 1504SOL    HW3 5789   3.920   3.733   3.522  0.3625  1.0111  0.0176
 1504SOL    MW4 5790   3.848   3.780   3.535  0.2660 -0.5107 -0.0678
 1505SOL     OW 5791   4.645   1.013   3.326 -0.4011 -0.2329 -0.5336
 1505SOL    HW2 5792   4.658   1.103   3.356 -0.4639  0.0309 -1.2813
 1505SOL    HW3 5793   4.647   1.019   3.230 -0.4273 -1.0240 -0.5898
 1505SOL    MW4 5794   4.647   1.026   3.317  0.9744  0.2016 -0.9004
 1506SOL     OW 5795   4.515   5.392   0.439  0.0100 -0.0619 -0.1585
 1506SOL    HW2 5796   4.528   5.349   0.354  1.3944 -0.8384  0.4254
 1506SOL    HW3 5797   4.447   5.339   0.482  1.9709 -2.0116  0.7165
 1506SOL    MW4 5798   4.508   5.379   0.433 -0.0280 -0.5815  0.0840
 1507SOL     OW 5799   2.548   2.094   1.520 -0.4070  0.0776 -0.0688
 1507SOL    HW2 5800   2.621   2.094   1.458  0.6708  1.1668  1.1337
 1507SOL    HW3 5801   2.585   2.130   1.600 -2.5528  1.8098  0.2471
 1507SOL    MW4 5802   2.562   2.099   1.522 -0.3457  0.3468 -0.0574
 1508SOL     OW 5803   3.455   4.545   4.802 -0.1783 -0.1659  0.2472
 1508SOL    HW2 5804   3.394   4.524   4.873 -0.3359 -1.6852 -0.2993
 1508SOL    HW3 5805   3.538   4.561   4.847  0.2999 -3.3052  0.7613
 1508SOL    MW4 5806   3.458   4.544   4.817 -0.0457 -0.0155  0.3853
 1509SOL     OW 5807   4.268   3.589   4.144 -0.7315 -0.1503  0.3144
 1509SOL    HW2 5808   4.349   3.628   4.175 -0.9941 -0.3799  1.3398
 1509SOL    HW3 5809   4.201   3.654   4.165 -1.1580 -1.0536  1.9545
 1509SOL    MW4 5810   4.270   3.603   4.151  0.4160  0.0970  0.6076
 1510SOL     OW 5811   3.456   2.278   6.295  0.3610 -0.0474 -0.1177
 1510SOL    HW2 5812   3.499   2.353   6.255  0.0090 -0.2067 -0.8185
 1510SOL    HW3 5813   3.362   2.295   6.285  0.2488  0.1226  1.0668
 1510SOL    MW4 5814   3.449   2.290   6.289  0.0200  0.3899  0.0132
 1511SOL     OW 5815   3.154   1.867   0.518 -0.0028 -0.2123 -0.2858
 1511SOL    HW2 5816   3.222   1.808   0.486 -0.0584 -0.9826  0.9455
 1511SOL    HW3 5817   3.144   1.931   0.448 -0.7037 -2.2506 -2.1732
 1511SOL    MW4 5818   3.162   1.868   0.505 -0.3890  0.1272 -0.3206
 1512SOL     OW 5819   6.151   0.271   5.512 -0.2747 -0.1729 -0.2636
 1512SOL    HW2 5820   6.244   0.255   5.498 -0.5825 -1.3524 -1.1529
 1512SOL    HW3 5821   6.148   0.343   5.575  1.2274 -0.6423  0.3853
 1512SOL    MW4 5822   6.163   0.278   5.518  0.9791 -0.1596 -0.0811
 1513SOL     OW 5823   3.890   5.199   0.193  0.0217 -0.4925 -0.0250
 1513SOL    HW2 5824   3.810   5.228   0.149  1.2111  0.8549 -1.4346
 1513SOL    HW3 5825   3.913   5.118   0.149  0.6590  0.3276 -1.2399
 1513SOL    MW4 5826   3.882   5.192   0.181 -0.6211  0.1247 -0.6071
 1514SOL     OW 5827   1.097   1.719   0.994  0.4108 -0.2053  0.0250
 1514SOL    HW2 5828   1.058   1.636   1.020 -0.6763  0.4893  0.6569
 1514SOL    HW3 5829   1.094   1.773   1.073 -1.3687  1.3603 -1.0194
 1514SOL    MW4 5830   1.092   1.715   1.008  0.0692 -0.0783 -0.4424
 1515SOL     OW 5831   0.495   5.629   0.728 -0.1923 -0.2424  0.1676
 1515SOL    HW2 5832   0.462   5.544   0.700  0.1669 -0.5658  0.7157
 1515SOL    HW3 5833   0.490   5.627   0.824  1.3351 -0.2776  0.2661
 1515SOL    MW4 5834   0.490   5.618   0.737 -0.0851 -0.3904 -0.0805
 1516SOL     OW 5835   0.778   5.376   5.568  0.2627  0.1486  0.1394
 1516SOL    HW2 5836   0.837   5.433   5.519  0.1058  1.6673  1.6143
 1516SOL    HW3 5837   0.721   5.337   5.502 -1.1654  3.5242 -0.8497
 1516SOL    MW4 5838   0.778   5.379   5.553 -0.9484 -0.7671 -0.0594
 1517SOL     OW 5839   6.038   3.100   4.596  0.6551  0.0839  0.8820
 1517SOL    HW2 5840   5.979   3.094   4.671 -0.1218  0.7913  0.3403
 1517SOL    HW3 5841   5.998   3.165   4.539  0.9991 -0.7561 -0.3607
 1517SOL    MW4 5842   6.025   3.108   4.598 -0.0781  0.0246 -0.0447
 1518SOL     OW 5843   3.518   2.923   1.628 -0.6385  0.4784 -0.0538
 1518SOL    HW2 5844   3.446   2.967   1.674 -1.3919 -0.7732 -0.0154
 1518SOL    HW3 5845   3.572   2.995   1.595 -0.9374  1.4249  1.4294
 1518SOL    MW4 5846   3.516   2.939   1.630  0.2969  0.3148  0.1595
 1519SOL     OW 5847   0.831   2.828   3.772  0.0621  0.0958  0.3024
 1519SOL    HW2 5848   0.873   2.748   3.804 -0.5533 -0.3983 -0.0986
 1519SOL    HW3 5849   0.757   2.797   3.720 -1.3491  0.9414  1.7144
 1519SOL    MW4 5850   0.827   2.813   3.770  0.1099  0.0715 -0.2106
 1520SOL     OW 5851   4.679   1.137   1.490  0.4127 -0.0021 -0.3843
 1520SOL    HW2 5852   4.590   1.146   1.457  0.4598  2.2585 -0.0692
 1520SOL    HW3 5853   4.723   1.217   1.462  1.7297 -0.0890  1.2869
 1520SOL    MW4 5854   4.673   1.149   1.482 -0.3763 -0.3409 -0.0196
 1521SOL     OW 5855   4.321   0.509   6.178  0.1633  0.0919  0.0602
 1521SOL    HW2 5856   4.258   0.454   6.225  0.8633  0.4437  1.4423
 1521SOL    HW3 5857   4.391   0.450   6.152  0.7294  0.2416  1.2095
 1521SOL    MW4 5858   4.322   0.494   6.181 -0.1701 -0.2429  0.4194
 1522SOL     OW 5859   5.547   2.596   1.880 -0.5512  0.0259  0.4400
 1522SOL    HW2 5860   5.616   2.660   1.901 -1.2837  1.1016 -0.3175
 1522SOL    HW3 5861   5.471   2.626   1.930 -0.9633 -0.1241 -0.0882
 1522SOL    MW4 5862   5.546   2.608   1.889  0.6448 -1.1024  0.5536
 1523SOL     OW 5863   2.558   0.241   5.098 -0.4169  0.0939  0.4343
 1523SOL    HW2 5864   2.635   0.192   5.128 -1.0540  0.1529  2.2505
 1523SOL    HW3 5865   2.580   0.333   5.115  0.0361  0.3411 -1.2760
 1523SOL    MW4 5866   2.571   0.247   5.104 -0.2453  0.4330  0.4590
 1524SOL     OW 5867   2.323   6.043   4.575  0.1570  0.0048  0.1820
 1524SOL    HW2 5868   2.257   6.077   4.635  0.5531 -2.0853  1.9062
 1524SOL    HW3 5869   2.277   5.980   4.520  0.2902  0.1450 -0.0961
 1524SOL    MW4 5870   2.308   6.039   4.575 -0.0032  0.0180  0.4751
 1525SOL     OW 5871   0.325   3.774   3.850  0.3084  0.5640 -0.2815
 1525SOL    HW2 5872   0.281   3.816   3.776  2.8403  0.2442 -2.1044
 1525SOL    HW3 5873   0.293   3.822   3.927 -3.7153 -0.1745 -1.2679
 1525SOL    MW4 5874   0.315   3.786   3.850 -0.4867 -0.2593 -0.5915
 1526SOL     OW 5875   5.245   3.963   0.967  0.4577 -0.1700  0.2702
 1526SOL    HW2 5876   5.315   3.904   0.996  2.2680  0.7742 -1.8794
 1526SOL    HW3 5877   5.265   4.046   1.010 -0.9769 -0.5213  1.7533
 1526SOL    MW4 5878   5.257   3.966   0.977  0.4226  0.1950 -0.4855
 1527SOL     OW 5879   3.230   3.272   4.985  0.1575  0.0051  0.9191
 1527SOL    HW2 5880   3.310   3.245   4.941  0.6496  1.5642  0.8137
 1527SOL    HW3 5881   3.163   3.210   4.954  0.9690 -0.3201 -0.2345
 1527SOL    MW4 5882   3.231   3.260   4.975  0.0099 -0.5661 -0.7160
 1528SOL     OW 5883   3.636   3.514   5.615  0.3612 -0.2206  0.1707
 1528SOL    HW2 5884   3.726   3.543   5.631  1.0312 -0.5242 -2.5276
 1528SOL    HW3 5885   3.583   3.569   5.673  2.0775  1.9087 -0.1180
 1528SOL    MW4 5886   3.641   3.525   5.625  0.5114 -0.9141  0.0577
 1529SOL     OW 5887   2.499   1.277   5.736 -0.1396 -0.4434  1.1189
 1529SOL    HW2 5888   2.594   1.289   5.731 -0.0428 -1.3974  0.4285
 1529SOL    HW3 5889   2.483   1.258   5.829  0.4990 -1.4480  1.0363
 1529SOL    MW4 5890   2.509   1.276   5.748  0.3758  0.2143  0.0208
 1530SOL     OW 5891   5.886   0.558   2.296 -0.1736 -0.3992 -0.1319
 1530SOL    HW2 5892   5.812   0.552   2.235 -0.5714  1.8388  0.0416
 1530SOL    HW3 5893   5.855   0.514   2.375 -0.1624 -2.1358 -1.0507
 1530SOL    MW4 5894   5.872   0.551   2.298 -0.0899 -0.1754 -0.7613
 1531SOL     OW 5895   2.849   0.753   0.598  0.2230  0.3351  0.1435
 1531SOL    HW2 5896   2.869   0.782   0.687  0.6454  1.1968 -0.2247
 1531SOL    HW3 5897   2.891   0.818   0.541 -1.5981  0.8470 -0.6816
 1531SOL    MW4 5898   2.857   0.765   0.602  0.0219 -0.2966 -0.2967
 1532SOL     OW 5899   5.109   5.975   6.155 -0.2009  0.0001  0.2033
 1532SOL    HW2 5900   5.186   6.028   6.133 -0.1316 -0.6823 -1.3620
 1532SOL    HW3 5901   5.143   5.905   6.211  0.0516  0.5449  0.7269
 1532SOL    MW4 5902   5.124   5.973   6.159 -0.0401 -0.2672 -0.3889
 1533SOL     OW 5903   0.256   4.021   2.711  0.5407 -0.0376 -0.2288
 1533SOL    HW2 5904   0.194   4.000   2.640  0.3143  2.5630 -0.9060
 1533SOL    HW3 5905   0.337   3.977   2.686 -0.6928 -2.6994  0.1702
 1533SOL    MW4 5906   0.258   4.013   2.698 -0.1201  0.1807  0.0484
 1534SOL     OW 5907   1.757   1.103   4.300 -0.3081 -0.3199 -0.1880
 1534SOL    HW2 5908   1.774   1.175   4.240 -0.4230 -0.2231 -0.1043
 1534SOL    HW3 5909   1.773   1.024   4.248 -0.1014 -0.2337 -0.2553
 1534SOL    MW4 5910   1.761   1.102   4.285 -0.5105  0.3777  0.8987
 1535SOL     OW 5911   2.985   0.537   0.277  0.5147 -0.4060 -0.1539
 1535SOL    HW2 5912   2.896   0.529   0.243  1.1365  2.1635 -2.8731
 1535SOL    HW3 5913   3.035   0.472   0.229  0.3810 -0.7758  0.2064
 1535SOL    MW4 5914   2.980   0.528   0.266  0.4815  0.7739  0.0367
 1536SOL     OW 5915   5.349   1.694   3.132  0.4301  0.0784 -0.1357
 1536SOL    HW2 5916   5.364   1.742   3.213  0.6901  0.8918 -0.6485
 1536SOL    HW3 5917   5.254   1.683   3.128  0.4293 -0.1039  0.3536
 1536SOL    MW4 5918   5.338   1.699   3.142 -0.1817 -0.0943 -0.5875
 1537SOL     OW 5919   3.904   3.458   2.301 -0.1321 -0.1065 -0.0809
 1537SOL    HW2 5920   3.901   3.417   2.215  1.4134  0.2947 -0.3587
 1537SOL    HW3 5921   3.827   3.514   2.304 -0.0849  0.0428 -1.3030
 1537SOL    MW4 5922   3.894   3.460   2.290 -0.5405 -0.2102  0.3555
 1538SOL     OW 5923   5.584   3.475   4.196 -0.1351 -0.5267 -0.1555
 1538SOL    HW2 5924   5.506   3.530   4.203 -0.3961 -0.9373  0.1549
 1538SOL    HW3 5925   5.604   3.474   4.102  0.3922  0.8208 -0.0849
 1538SOL    MW4 5926   5.577   3.482   4.184  0.0484  0.2767  0.2206
 1539SOL     OW 5927   0.019   2.242   6.253  0.1140 -0.8878  0.2708
 1539SOL    HW2 5928   0.039   2.324   6.208  1.4178 -1.7110 -0.7279
 1539SOL    HW3 5929  -0.058   2.262   6.307 -0.5198  0.5901 -1.0919
 1539SOL    MW4 5930   0.011   2.255   6.254  0.0783  0.0078  0.1438
 1540SOL     OW 5931   6.392   0.559   1.069 -0.1040 -0.5765  0.4391
 1540SOL    HW2 5932   6.485   0.537   1.069 -0.3536 -1.8613 -1.4757
 1540SOL    HW3 5933   6.353   0.498   1.132  0.3822  0.3637  1.7027
 1540SOL    MW4 5934   6.399   0.548   1.077 -0.2381 -0.3996  0.2918
 1541SOL     OW 5935   3.658   0.398   4.420 -0.0619  0.9029  0.5870
 1541SOL    HW2 5936   3.610   0.315   4.416  0.2162  0.7121  1.2056
 1541SOL    HW3 5937   3.685   0.414   4.329 -0.4176  0.4948  0.4057
 1541SOL    MW4 5938   3.655   0.389   4.407 -0.2379  0.3312  0.0889
 1542SOL     OW 5939   5.463   6.229   0.874  0.5569  0.2904 -0.3167
 1542SOL    HW2 5940   5.493   6.186   0.793 -0.0144  2.4467 -1.7755
 1542SOL    HW3 5941   5.423   6.310   0.843 -0.1862  0.9163  2.1414
 1542SOL    MW4 5942   5.462   6.234   0.859 -0.2238  0.1570  0.2129
 1543SOL     OW 5943   1.519   1.343   0.865  0.1071  0.2300 -0.5705
 1543SOL    HW2 5944   1.491   1.252   0.858  0.6146 -0.1178  1.3256
 1543SOL    HW3 5945   1.610   1.337   0.894 -0.5822  1.2718  2.1365
 1543SOL    MW4 5946   1.527   1.330   0.868  0.0520 -0.0357  0.3106
 1544SOL     OW 5947   0.211   3.217   0.382  0.2134 -0.1709 -0.5787
 1544SOL    HW2 5948   0.270   3.287   0.356 -1.0948  0.7312 -1.2441
 1544SOL    HW3 5949   0.173   3.246   0.465 -0.8047  0.2279 -1.1696
 1544SOL    MW4 5950   0.213   3.230   0.389 -0.2806  0.3301  0.0212
 1545SOL     OW 5951   3.998   6.051   5.585  0.0085 -0.2067  0.1059
 1545SOL    HW2 5952   4.011   5.983   5.520 -2.8558  0.7768 -1.7228
 1545SOL    HW3 5953   4.044   6.127   5.550 -0.4443 -0.0420 -0.1506
 1545SOL    MW4 5954   4.006   6.052   5.572  0.4560 -0.0767 -0.4926
 1546SOL     OW 5955   3.880   1.721   6.086 -0.4692 -0.4059  0.6432
 1546SOL    HW2 5956   3.798   1.676   6.062  0.2647 -1.0571 -0.7455
 1546SOL    HW3 5957   3.942   1.650   6.102  0.1241  0.0958  0.5843
 1546SOL    MW4 5958   3.877   1.706   6.085 -0.0415 -0.0916  0.3009
 1547SOL     OW 5959   1.642   6.093   0.807 -0.0369 -0.1973  0.1112
 1547SOL    HW2 5960   1.652   6.167   0.868 -1.3272 -1.2660  1.7101
 1547SOL    HW3 5961   1.721   6.042   0.818 -0.5250 -0.7186  1.4351
 1547SOL    MW4 5962   1.654   6.096   0.817  0.0740  0.0179 -0.2050
 1548SOL     OW 5963   0.102   1.421   6.193  0.4011 -0.3473  0.0882
 1548SOL    HW2 5964   0.027   1.374   6.157  0.0986 -0.0308  0.3088
 1548SOL    HW3 5965   0.160   1.351   6.225 -0.4038 -0.5640  1.1317
 1548SOL    MW4 5966   0.100   1.405   6.193  0.0594  0.8963  0.2656
 1549SOL     OW 5967   3.619   3.140   0.461 -0.0219  0.1495  0.5753
 1549SOL    HW2 5968   3.614   3.092   0.378  0.7593  1.2146 -0.1254
 1549SOL    HW3 5969   3.544   3.200   0.458 -0.2831 -0.1607  0.8748
 1549SOL    MW4 5970   3.608   3.142   0.450 -0.0097 -0.1681  0.4345
 1550SOL     OW 5971   1.860   0.138   0.868 -0.2715  0.5371  0.1968
 1550SOL    HW2 5972   1.932   0.131   0.805 -1.5385 -2.0722 -1.1540
 1550SOL    HW3 5973   1.896   0.185   0.942  3.2452 -1.7538  0.1427
 1550SOL    MW4 5974   1.874   0.144   0.869 -0.7831  0.0761  0.1220
 1551SOL     OW 5975   6.315   6.166   0.703 -0.2079 -0.2956  0.1549
 1551SOL    HW2 5976   6.398   6.207   0.727 -0.7136 -0.0448  1.5921
 1551SOL    HW3 5977   6.248   6.229   0.730 -0.9576 -1.5544  1.3926
 1551SOL    MW4 5978   6.317   6.179   0.710  0.3473  0.0667  0.2670
 1552SOL     OW 5979   4.743   5.576   2.174 -0.0854  0.4137 -0.1686
 1552SOL    HW2 5980   4.790   5.600   2.255  1.1337 -2.0173 -0.0611
 1552SOL    HW3 5981   4.724   5.660   2.132 -0.6564  1.7688  2.5455
 1552SOL    MW4 5982   4.747   5.590   2.179  0.0722  0.7579 -0.0652
 1553SOL     OW 5983   5.772   3.011   4.187 -0.2220  0.0538 -0.5588
 1553SOL    HW2 5984   5.731   2.951   4.250 -2.1608 -0.0216 -1.8107
 1553SOL    HW3 5985   5.767   2.966   4.103  2.1754  0.2239 -0.8635
 1553SOL    MW4 5986   5.766   2.997   4.184  0.1565 -0.1882 -0.5440
 1554SOL     OW 5987   1.625   5.482   3.881 -0.4477  0.1500 -0.3338
 1554SOL    HW2 5988   1.535   5.495   3.913 -0.2214 -0.3175  0.5224
 1554SOL    HW3 5989   1.673   5.557   3.915 -0.2865 -0.1524  0.1054
 1554SOL    MW4 5990   1.619   5.494   3.889  0.0165 -0.7153  0.1424
 1555SOL     OW 5991   4.410   5.000   1.868  0.5472  0.0596  0.6042
 1555SOL    HW2 5992   4.440   5.087   1.896 -1.7771  0.7772  1.1320
 1555SOL    HW3 5993   4.409   4.948   1.949  0.9053 -0.1434  0.4815
 1555SOL    MW4 5994   4.414   5.005   1.883  0.0051  0.0878 -0.3467
 1556SOL     OW 5995   5.947   1.099   5.571 -0.2980  0.1118 -0.2701
 1556SOL    HW2 5996   5.958   1.013   5.530  0.1537 -0.2479  0.5832
 1556SOL    HW3 5997   5.886   1.084   5.643 -2.5194  1.0978 -1.8401
 1556SOL    MW4 5998   5.940   1.085   5.575 -0.5756  0.3352 -0.1426
 1557SOL     OW 5999   4.411   1.340   1.580 -0.3875  0.6652 -0.0550
 1557SOL    HW2 6000   4.329   1.379   1.552 -1.5542 -1.0402  0.7850
 1557SOL    HW3 6001   4.459   1.324   1.499 -0.6767  2.0494 -0.5247
 1557SOL    MW4 6002   4.407   1.343   1.566 -0.2121  0.4396  0.1726
 1558SOL     OW 6003   2.787   3.159   6.355 -0.3738 -0.9787 -0.2360
 1558SOL    HW2 6004   2.717   3.126   6.298 -1.0281 -0.3884  0.2190
 1558SOL    HW3 6005   2.763   3.129   6.442  1.7449 -3.7665 -0.4852
 1558SOL    MW4 6006   2.774   3.151   6.359  0.0784 -0.4252 -0.0671
 1559SOL     OW 6007   3.735   0.067   4.102  0.0041  0.8579  0.2474
 1559SOL    HW2 6008   3.788   0.060   4.023  1.1271 -0.3433  1.0705
 1559SOL    HW3 6009   3.729  -0.022   4.136 -1.9000  1.0804  0.6252
 1559SOL    MW4 6010   3.741   0.054   4.096  0.5328 -0.5476  0.0407
 1560SOL     OW 6011   4.150   0.609   1.643  0.2337  0.1432 -0.7167
 1560SOL    HW2 6012   4.112   0.594   1.730 -0.6982  1.5322 -0.8536
 1560SOL    HW3 6013   4.156   0.522   1.604 -1.5187 -0.2811 -0.1286
 1560SOL    MW4 6014   4.146   0.595   1.649 -0.7240  0.4387 -0.2653
 1561SOL     OW 6015   2.379   5.720   3.563 -0.4295  0.4690 -0.3176
 1561SOL    HW2 6016   2.461   5.738   3.609 -0.9395  2.8565 -0.2070
 1561SOL    HW3 6017   2.385   5.770   3.481 -2.4389  2.2463  0.5012
 1561SOL    MW4 6018   2.390   5.729   3.558  0.2298 -0.5521 -0.4093
 1562SOL     OW 6019   5.794   4.609   3.168 -0.0991 -0.5277 -0.2896
 1562SOL    HW2 6020   5.848   4.631   3.092 -1.8245 -2.3953 -2.1869
 1562SOL    HW3 6021   5.821   4.520   3.191 -0.6965 -0.5638  0.2977
 1562SOL    MW4 6022   5.805   4.600   3.161 -0.3200  0.0413  0.2333
 1563SOL     OW 6023   3.025   4.482   2.293 -0.3232  0.3694 -0.6673
 1563SOL    HW2 6024   2.992   4.427   2.364  2.3471  1.6750  1.8529
 1563SOL    HW3 6025   3.092   4.429   2.251 -0.0652  0.4956 -0.4237
 1563SOL    MW4 6026   3.030   4.468   2.297 -0.4282 -0.6371  0.3044
 1564SOL     OW 6027   0.821   0.138   5.194 -0.1436 -0.2726  0.0902
 1564SOL    HW2 6028   0.830   0.211   5.133 -0.5443  0.7376  1.1866
 1564SOL    HW3 6029   0.726   0.126   5.203 -0.1923  1.0226  2.0655
 1564SOL    MW4 6030   0.809   0.146   5.187 -0.3234  0.0953 -0.0934
 1565SOL     OW 6031   3.443   1.916   4.376  0.1032 -0.0379 -0.6484
 1565SOL    HW2 6032   3.411   1.851   4.313  1.7180 -0.5734 -0.9579
 1565SOL    HW3 6033   3.528   1.943   4.341  0.8285 -0.0162  1.0599
 1565SOL    MW4 6034   3.450   1.911   4.363  0.3322  0.0584 -0.0759
 1566SOL     OW 6035   0.533   5.630   4.003  0.4172 -0.5330  0.0629
 1566SOL    HW2 6036   0.453   5.577   4.009  1.0251 -1.9148 -2.5981
 1566SOL    HW3 6037   0.502   5.721   4.011 -1.0007 -1.1151  1.9563
 1566SOL    MW4 6038   0.518   5.635   4.005 -0.6633 -0.4463 -0.3701
 1567SOL     OW 6039   3.133   4.240   1.405 -0.0321 -0.1292  0.1085
 1567SOL    HW2 6040   3.111   4.203   1.490 -2.8962 -1.1678 -0.9866
 1567SOL    HW3 6041   3.200   4.182   1.370 -1.3023 -1.7669  0.2754
 1567SOL    MW4 6042   3.139   4.228   1.412  0.2906 -0.0460 -0.1648
 1568SOL     OW 6043   4.360   3.591   0.114 -0.0083 -0.4592  0.1293
 1568SOL    HW2 6044   4.418   3.640   0.056 -1.4366  1.6443  0.3499
 1568SOL    HW3 6045   4.300   3.657   0.149 -2.7725 -2.5123 -0.3695
 1568SOL    MW4 6046   4.359   3.606   0.111 -0.0947  0.2357  1.1764
 1569SOL     OW 6047   2.804   5.359   0.334  0.5462 -0.0282 -0.0741
 1569SOL    HW2 6048   2.763   5.361   0.420 -1.0318  2.4019 -0.7728
 1569SOL    HW3 6049   2.745   5.306   0.281 -0.2634  1.1095 -0.3712
 1569SOL    MW4 6050   2.791   5.353   0.338 -0.2395 -0.2542 -0.3244
 1570SOL     OW 6051   2.897   5.754   0.146  0.3551 -0.4873  0.0138
 1570SOL    HW2 6052   2.811   5.717   0.165 -0.0521  0.2489 -0.3083
 1570SOL    HW3 6053   2.931   5.701   0.074 -0.4772  0.0990 -0.8457
 1570SOL    MW4 6054   2.890   5.742   0.139 -0.3515 -0.1556  0.1548
 1571SOL     OW 6055   2.875   4.205   3.681 -0.2581  0.1660 -0.9403
 1571SOL    HW2 6056   2.837   4.130   3.637 -1.4005 -0.5091  1.0751
 1571SOL    HW3 6057   2.963   4.177   3.706 -0.7500 -0.5832 -0.0283
 1571SOL    MW4 6058   2.882   4.192   3.679  0.8411  0.2292 -0.3589
 1572SOL     OW 6059   6.007   3.049   5.530  0.2562  0.0246  0.0649
 1572SOL    HW2 6060   6.101   3.044   5.511  0.3130 -0.6411  0.5009
 1572SOL    HW3 6061   5.980   3.134   5.494  0.8292 -0.1903 -0.8968
 1572SOL    MW4 6062   6.016   3.060   5.523 -0.4547 -0.3277  0.1042
 1573SOL     OW 6063   3.823   0.641   4.788 -0.1093  0.0475  0.3795
 1573SOL    HW2 6064   3.868   0.726   4.787  0.7739 -0.4161 -0.5422
 1573SOL    HW3 6065   3.782   0.637   4.875 -0.7665  1.7187  0.1984
 1573SOL    MW4 6066   3.823   0.652   4.799  0.4013  0.1901 -0.1426
 1574SOL     OW 6067   0.992   3.719   0.452  0.2087 -0.1657 -0.2964
 1574SOL    HW2 6068   1.038   3.785   0.504 -0.2544  0.7958 -1.0735
 1574SOL    HW3 6069   0.899   3.734   0.470  0.1021 -0.7533 -0.3171
 1574SOL    MW4 6070   0.986   3.730   0.461  0.4747  0.6073  0.3470
 1575SOL     OW 6071   6.059   0.112   1.922 -0.3092  0.1810  0.1046
 1575SOL    HW2 6072   6.066   0.183   1.986 -0.7153  1.9968 -1.7433
 1575SOL    HW3 6073   6.092   0.035   1.968 -0.0217  1.5012  2.2763
 1575SOL    MW4 6074   6.064   0.111   1.937  0.2453 -0.0296  0.6882
 1576SOL     OW 6075   4.146   5.520   4.589  0.4244 -0.3403  0.4533
 1576SOL    HW2 6076   4.089   5.456   4.632 -0.9131 -0.6406 -1.6111
 1576SOL    HW3 6077   4.215   5.468   4.549 -1.1773 -0.7294 -2.0266
 1576SOL    MW4 6078   4.147   5.505   4.589  0.2332  0.4556 -0.5863
 1577SOL     OW 6079   4.477   1.096   4.345  0.3275  0.1671 -0.2895
 1577SOL    HW2 6080   4.402   1.038   4.333 -0.5009  1.1606 -0.0594
 1577SOL    HW3 6081   4.449   1.179   4.305  1.5060  0.3993 -0.6618
 1577SOL    MW4 6082   4.463   1.100   4.338 -0.0280  0.7233 -0.1796
 1578SOL     OW 6083   6.169   2.803   1.176  0.0209 -0.2473  0.3664
 1578SOL    HW2 6084   6.228   2.806   1.100 -1.6182 -2.0484 -1.1078
 1578SOL    HW3 6085   6.226   2.783   1.250  1.3124 -2.1823 -1.0329
 1578SOL    MW4 6086   6.184   2.800   1.175  0.1760  0.2983 -0.3419
 1579SOL     OW 6087   2.985   0.508   2.162 -0.0312 -0.5057 -0.4974
 1579SOL    HW2 6088   2.894   0.485   2.180 -0.4308  0.3418 -1.3229
 1579SOL    HW3 6089   3.020   0.536   2.246 -0.4740 -1.0128 -0.1376
 1579SOL    MW4 6090   2.978   0.509   2.175  0.6012 -0.1973  0.5509
 1580SOL     OW 6091   2.969   4.077   0.387 -0.1942  0.4778  0.0506
 1580SOL    HW2 6092   2.971   3.993   0.434 -0.0243 -0.9643 -2.3362
 1580SOL    HW3 6093   2.903   4.064   0.319 -1.0500  2.7727  0.3707
 1580SOL    MW4 6094   2.961   4.064   0.384 -0.3690  0.1125 -0.2204
 1581SOL     OW 6095   4.863   3.100   5.653 -0.1874 -0.0693  0.6703
 1581SOL    HW2 6096   4.801   3.136   5.590 -0.2607  0.5945  1.1129
 1581SOL    HW3 6097   4.876   3.010   5.625  0.0296  0.3052 -0.4856
 1581SOL    MW4 6098   4.856   3.093   5.641 -0.0507  0.0047  0.7280
 1582SOL     OW 6099   2.219   5.415   0.626 -0.4612  0.2930 -0.0489
 1582SOL    HW2 6100   2.186   5.325   0.618 -0.6800  0.1256  2.1486
 1582SOL    HW3 6101   2.142   5.467   0.649 -0.5646  1.3035 -2.4545
 1582SOL    MW4 6102   2.204   5.410   0.628 -0.1948  1.0125  0.0338
 1583SOL     OW 6103   2.066   3.950   1.289 -0.4380  0.8306  0.1975
 1583SOL    HW2 6104   1.997   3.917   1.346 -1.8076 -0.6209 -2.1483
 1583SOL    HW3 6105   2.145   3.906   1.320 -0.9303  0.8647  1.5880
 1583SOL    MW4 6106   2.067   3.940   1.301  0.0016  0.0127  0.1347
 1584SOL     OW 6107   2.934   1.935   3.034 -0.2219  0.5250  0.2670
 1584SOL    HW2 6108   2.852   1.976   3.005 -0.5036 -0.5535 -0.4934
 1584SOL    HW3 6109   3.001   2.001   3.016 -0.4339  0.0767 -2.5312
 1584SOL    MW4 6110   2.932   1.949   3.028 -0.1787  0.2283  0.5127
 1585SOL     OW 6111   1.581   2.275   2.778  0.6158  0.1734 -0.2083
 1585SOL    HW2 6112   1.641   2.340   2.741  0.4974 -0.0325 -0.7697
 1585SOL    HW3 6113   1.496   2.297   2.740  0.7762 -0.9793 -1.2733
 1585SOL    MW4 6114   1.578   2.287   2.768 -0.1427 -0.5590 -0.4708
 1586SOL     OW 6115   3.975   2.950   3.601  0.0877 -0.4903  0.4707
 1586SOL    HW2 6116   3.988   2.942   3.696  1.5888  0.2782  0.3707
 1586SOL    HW3 6117   3.887   2.985   3.591 -0.4252 -1.3987  1.5265
 1586SOL    MW4 6118   3.965   2.953   3.612  0.0753 -0.0285 -0.3323
 1587SOL     OW 6119   3.968   4.572   0.225 -0.7509 -0.2097  0.0720
 1587SOL    HW2 6120   3.895   4.616   0.182 -0.7144 -0.0449  0.1804
 1587SOL    HW3 6121   3.971   4.486   0.184 -1.0693 -0.2532  0.1338
 1587SOL    MW4 6122   3.958   4.566   0.214 -0.0810  0.2942  0.1288
 1588SOL     OW 6123   5.337   0.985   2.623 -0.0361  0.3388 -0.1400
 1588SOL    HW2 6124   5.293   0.918   2.675  1.4104 -0.3585  0.2277
 1588SOL    HW3 6125   5.343   1.061   2.681 -1.5704  0.7869 -0.5166
 1588SOL    MW4 6126   5.332   0.986   2.637  0.0924 -0.1002 -0.0268
 1589SOL     OW 6127   2.026   2.773   5.362  0.4111  0.2801 -0.0162
 1589SOL    HW2 6128   2.092   2.800   5.426  0.2094 -0.7355  0.6307
 1589SOL    HW3 6129   2.074   2.765   5.280  1.1536 -0.6691  0.4965
 1589SOL    MW4 6130   2.041   2.776   5.359  0.6730 -0.1285 -0.7034
 1590SOL     OW 6131   1.489   3.142   4.890 -0.5500 -0.7059  0.4289
 1590SOL    HW2 6132   1.454   3.217   4.841 -1.5809 -1.0520  0.6321
 1590SOL    HW3 6133   1.501   3.175   4.979  1.5593 -0.0000 -0.0325
 1590SOL    MW4 6134   1.486   3.156   4.895  0.2135  0.2984 -0.1579
 1591SOL     OW 6135   5.744   0.684   6.406  0.5509  0.4985  0.3173
 1591SOL    HW2 6136   5.810   0.619   6.382  0.8287  1.2964 -1.2206
 1591SOL    HW3 6137   5.661   0.635   6.405  0.7379  0.1707 -0.9507
 1591SOL    MW4 6138   5.742   0.669   6.403  0.0362 -0.0877  0.1304
 1592SOL     OW 6139   3.168   0.419   1.250  0.0468 -0.0298  0.2462
 1592SOL    HW2 6140   3.247   0.471   1.235  0.1016 -0.4365 -0.9676
 1592SOL    HW3 6141   3.099   0.484   1.263  0.6091  0.3301  1.6113
 1592SOL    MW4 6142   3.169   0.435   1.250  0.6336 -0.3258 -0.0025
 1593SOL     OW 6143   0.647   6.137   1.416 -0.0973 -0.5363  0.0497
 1593SOL    HW2 6144   0.685   6.202   1.475  1.2786  0.3008 -1.6694
 1593SOL    HW3 6145   0.552   6.152   1.423  0.0551 -0.1104  1.6034
 1593SOL    MW4 6146   0.639   6.148   1.424  0.0847 -0.4950  0.0352
 1594SOL     OW 6147   6.219   1.623   3.460  0.3323 -0.1331 -0.2440
 1594SOL    HW2 6148   6.194   1.585   3.544  0.1258 -0.5250 -0.4823
 1594SOL    HW3 6149   6.158   1.697   3.449 -0.9473 -1.2376 -0.9430
 1594SOL    MW4 6150   6.207   1.628   3.470  0.0763  0.0592 -0.3239
 1595SOL     OW 6151   5.381   6.206   1.174  0.4828 -0.5682 -0.0028
 1595SOL    HW2 6152   5.455   6.213   1.233  1.3026  0.4788 -1.1096
 1595SOL    HW3 6153   5.420   6.197   1.087 -0.6849 -1.2672 -0.4724
 1595SOL    MW4 6154   5.396   6.206   1.170 -0.3711  0.1743 -0.2286
 1596SOL     OW 6155   5.193   0.840   2.804  0.1177  0.0252 -0.3496
 1596SOL    HW2 6156   5.160   0.754   2.776 -2.0837  1.1710 -1.5479
 1596SOL    HW3 6157   5.131   0.867   2.872 -0.6971  1.6453 -1.6584
 1596SOL    MW4 6158   5.180   0.832   2.810 -0.4703 -0.8479 -0.7594
 1597SOL     OW 6159   2.931   4.879   3.903 -0.3034  0.3507  0.8924
 1597SOL    HW2 6160   2.860   4.932   3.866 -0.1662  0.6472  1.0497
 1597SOL    HW3 6161   3.010   4.926   3.880 -0.2132  0.5159  1.5264
 1597SOL    MW4 6162   2.932   4.892   3.895  0.1097  0.1757 -0.9824
 1598SOL     OW 6163   6.378   3.153   3.126 -0.5597 -0.1768  0.2882
 1598SOL    HW2 6164   6.290   3.181   3.150 -0.9130  0.3173 -1.4242
 1598SOL    HW3 6165   6.377   3.057   3.134 -1.6398 -0.2833 -0.8037
 1598SOL    MW4 6166   6.366   3.144   3.130  0.3145  0.2454  0.0314
 1599SOL     OW 6167   0.150   1.155   3.493  0.0091 -0.5856  0.0644
 1599SOL    HW2 6168   0.156   1.178   3.585 -0.5616  1.2607 -0.3246
 1599SOL    HW3 6169   0.069   1.104   3.486  0.6047 -1.6655  0.7247
 1599SOL    MW4 6170   0.141   1.151   3.504  0.5352 -0.2289 -0.5319
 1600SOL     OW 6171   0.609   2.949   4.466  0.2266  0.1875 -0.1390
 1600SOL    HW2 6172   0.615   3.030   4.517 -0.2280  0.2732 -0.2179
 1600SOL    HW3 6173   0.628   2.879   4.529 -2.1247  0.1510  0.6151
 1600SOL    MW4 6174   0.612   2.950   4.481 -0.2411 -0.6179  0.1834
 1601SOL     OW 6175   2.654   2.622   2.451  0.5349 -0.1829  0.1630
 1601SOL    HW2 6176   2.715   2.687   2.486  0.5177  0.8985 -1.6361
 1601SOL    HW3 6177   2.679   2.540   2.494  0.7097  0.9355  2.3410
 1601SOL    MW4 6178   2.666   2.620   2.461  0.8313  0.1290  0.3169
 1602SOL     OW 6179   2.959   4.853   3.507 -0.4532  0.6960  0.2448
 1602SOL    HW2 6180   2.869   4.851   3.475  0.4866 -0.0104 -2.7039
 1602SOL    HW3 6181   3.000   4.925   3.460  1.0697 -0.4930 -0.3617
 1602SOL    MW4 6182   2.953   4.862   3.497  0.3406  0.2896 -0.2504
 1603SOL     OW 6183   6.151   2.004   2.776  0.0062  0.1704  0.2909
 1603SOL    HW2 6184   6.091   1.938   2.740 -0.5962  0.5281  0.6295
 1603SOL    HW3 6185   6.231   1.955   2.795  0.2407 -0.0769 -1.2544
 1603SOL    MW4 6186   6.154   1.988   2.774 -0.0820 -0.3046 -0.2569
 1604SOL     OW 6187   6.028   2.929   6.063 -0.2262 -0.2507 -0.0086
 1604SOL    HW2 6188   5.981   2.846   6.075 -0.2042 -0.2150  0.3373
 1604SOL    HW3 6189   6.033   2.940   5.968 -2.3402  0.5570 -0.0692
 1604SOL    MW4 6190   6.023   2.919   6.052 -0.1612  0.4654  0.0674
 1605SOL     OW 6191   2.432   4.196   3.278 -0.1535 -0.7676 -0.1025
 1605SOL    HW2 6192   2.490   4.124   3.302 -0.4937 -1.4638 -1.2664
 1605SOL    HW3 6193   2.345   4.157   3.278 -0.1670 -0.8760 -2.5232
 1605SOL    MW4 6194   2.428   4.181   3.281 -0.0171 -0.2604 -0.0609
 1606SOL     OW 6195   0.375   1.066   5.973 -0.2649 -0.1161  0.4487
 1606SOL    HW2 6196   0.284   1.060   6.003  0.2494 -1.1114  1.9003
 1606SOL    HW3 6197   0.369   1.115   5.891 -2.3077 -1.4883 -0.3201
 1606SOL    MW4 6198   0.362   1.072   5.966 -0.4139 -0.2250  0.6062
 1607SOL     OW 6199   5.940   2.436   6.007  0.6522  0.2952  0.0227
 1607SOL    HW2 6200   6.016   2.407   5.957  1.0764  2.1575 -0.5124
 1607SOL    HW3 6201   5.913   2.518   5.964 -1.3860 -0.0716  0.4706
 1607SOL    MW4 6202   5.946   2.443   5.994  0.3126 -0.3955  0.1685
 1608SOL     OW 6203   2.684   0.504   1.933  0.2063 -0.2930  0.4056
 1608SOL    HW2 6204   2.618   0.538   1.993  0.4960  0.0937  0.5048
 1608SOL    HW3 6205   2.661   0.542   1.848 -0.3279 -1.0040  0.2144
 1608SOL    MW4 6206   2.672   0.513   1.930 -0.3069 -0.1994 -0.0350
 1609SOL     OW 6207   0.321   3.308   6.113 -0.6713  0.2270 -0.0517
 1609SOL    HW2 6208   0.342   3.375   6.048  0.6628  0.0005  0.1224
 1609SOL    HW3 6209   0.374   3.332   6.189 -0.7929 -0.5719  0.2905
 1609SOL    MW4 6210   0.331   3.320   6.114 -0.0869 -0.1986  0.3691
 1610SOL     OW 6211   0.607   5.679   6.333 -0.2178  0.5863  0.5890
 1610SOL    HW2 6212   0.590   5.594   6.292 -1.2790  1.0472  0.0147
 1610SOL    HW3 6213   0.541   5.737   6.294 -0.5152  1.3150  2.1174
 1610SOL    MW4 6214   0.596   5.675   6.322 -0.1997 -0.3782 -0.1816
 1611SOL     OW 6215   1.143   5.573   6.043  0.1719 -0.3031 -0.1597
 1611SOL    HW2 6216   1.109   5.630   5.975  0.6465 -2.4158 -2.2923
 1611SOL    HW3 6217   1.232   5.553   6.015  0.8847 -0.1644  1.8336
 1611SOL    MW4 6218   1.150   5.578   6.030  0.1090  0.1118  0.7479
 1612SOL     OW 6219   2.181   5.314   4.960 -0.2816 -0.3003 -0.8695
 1612SOL    HW2 6220   2.159   5.341   4.871  0.0875  1.1247 -0.5507
 1612SOL    HW3 6221   2.117   5.246   4.981 -0.5565 -0.4388 -2.1055
 1612SOL    MW4 6222   2.170   5.309   4.951  0.0748 -0.0938  0.2371
 1613SOL     OW 6223   5.166   3.493   0.561  0.2859 -0.1114  0.3678
 1613SOL    HW2 6224   5.110   3.560   0.521  1.5515  0.1107 -1.1236
 1613SOL    HW3 6225   5.243   3.489   0.504 -0.4156 -4.0095 -0.5991
 1613SOL    MW4 6226   5.168   3.502   0.548  0.0661  0.0732  0.5397
 1614SOL     OW 6227   2.984   4.695   0.597 -0.3707  0.1144  0.5207
 1614SOL    HW2 6228   3.007   4.680   0.689 -1.9107  1.3576  1.1453
 1614SOL    HW3 6229   2.895   4.729   0.600  0.2364  2.0488 -1.2945
 1614SOL    MW4 6230   2.975   4.697   0.610 -0.0783  0.4110  0.2946
 1615SOL     OW 6231   0.593   3.471   5.359  0.2095  0.1177 -0.4769
 1615SOL    HW2 6232   0.601   3.493   5.266 -0.5018  0.9079 -0.3612
 1615SOL    HW3 6233   0.504   3.497   5.382  0.4455  0.1016  0.4783
 1615SOL    MW4 6234   0.582   3.477   5.350  0.0936  0.0039 -0.0794
 1616SOL     OW 6235   2.626   3.667   2.233  0.4273  0.1810  0.8968
 1616SOL    HW2 6236   2.648   3.608   2.160  3.0624  0.7137  1.1438
 1616SOL    HW3 6237   2.607   3.751   2.191  1.5907  0.3953  0.7561
 1616SOL    MW4 6238   2.627   3.670   2.218  0.3609 -0.3564 -0.1779
 1617SOL     OW 6239   3.587   4.526   3.685 -0.0426  0.1691  0.3837
 1617SOL    HW2 6240   3.614   4.521   3.594 -1.6219  0.1007 -0.1072
 1617SOL    HW3 6241   3.605   4.439   3.721  2.0998  0.6537  0.6321
 1617SOL    MW4 6242   3.593   4.514   3.678  0.2923  0.4207 -0.0688
 1618SOL     OW 6243   5.228   3.972   3.046 -0.0771  0.4180 -0.6590
 1618SOL    HW2 6244   5.229   3.939   3.136 -0.9315  0.2844 -0.6868
 1618SOL    HW3 6245   5.239   3.894   2.992 -0.4092  0.3909 -0.6881
 1618SOL    MW4 6246   5.229   3.957   3.051 -0.8825  0.8828 -0.0381
 1619SOL     OW 6247   3.161   0.155   3.178 -0.4056  0.2844  0.5259
 1619SOL    HW2 6248   3.252   0.184   3.183  0.0021 -1.1922  2.7131
 1619SOL    HW3 6249   3.158   0.075   3.231 -2.9254  0.1561  0.2872
 1619SOL    MW4 6250   3.173   0.148   3.186  0.1374  0.2789  0.0754
 1620SOL     OW 6251   2.326   1.624   4.826  0.0466  0.3106 -0.4644
 1620SOL    HW2 6252   2.389   1.598   4.893  1.1161  0.5877 -1.3471
 1620SOL    HW3 6253   2.250   1.567   4.842  0.7233 -0.4246  0.2514
 1620SOL    MW4 6254   2.324   1.613   4.837 -0.1346  0.0592 -0.9112
 1621SOL     OW 6255   2.966   5.108   3.055  0.1814 -0.8495  0.3398
 1621SOL    HW2 6256   2.990   5.199   3.040  0.6697 -1.2565 -1.6411
 1621SOL    HW3 6257   3.006   5.085   3.139  1.2346  0.3510  0.1847
 1621SOL    MW4 6258   2.974   5.117   3.064 -0.4964  0.1652 -0.3011
 1622SOL     OW 6259   4.918   1.533   0.936 -0.4758  0.2976  0.3457
 1622SOL    HW2 6260   4.906   1.466   1.003 -0.9476 -2.6353 -2.4556
 1622SOL    HW3 6261   4.830   1.559   0.911 -0.3005  1.9494  1.2636
 1622SOL    MW4 6262   4.905   1.528   0.942  0.1475  0.6702 -0.1272
 1623SOL     OW 6263   3.115   3.536   4.985  0.3375  0.5282 -0.7325
 1623SOL    HW2 6264   3.025   3.503   4.973  0.6587 -0.6509 -0.0890
 1623SOL    HW3 6265   3.166   3.458   5.004  1.0915  1.4329  1.1745
 1623SOL    MW4 6266   3.110   3.521   4.986  0.1003 -0.2362  0.0426
 1624SOL     OW 6267   2.807   2.865   3.881 -0.4155  0.2292 -0.4112
 1624SOL    HW2 6268   2.862   2.788   3.895  0.5578  0.6407 -1.8120
 1624SOL    HW3 6269   2.833   2.926   3.949 -0.8135 -0.4441  0.3736
 1624SOL    MW4 6270   2.818   2.863   3.892 -0.3085 -0.4491  0.0589
 1625SOL     OW 6271   4.979   1.751   4.939  0.3219 -0.5217  0.3874
 1625SOL    HW2 6272   5.000   1.697   5.015  1.2360 -0.7873 -0.0416
 1625SOL    HW3 6273   5.060   1.754   4.888  0.0458  0.5549 -0.0301
 1625SOL    MW4 6274   4.993   1.744   4.943  0.1579  0.5051  0.1380
 1626SOL     OW 6275   4.733   4.160   2.902  0.1987  0.0844  0.0959
 1626SOL    HW2 6276   4.762   4.215   2.830  0.9783 -0.9123 -0.3744
 1626SOL    HW3 6277   4.812   4.115   2.932 -0.2908 -0.2652  0.9194
 1626SOL    MW4 6278   4.747   4.161   2.897 -0.5533  0.1828  0.3898
 1627SOL     OW 6279   5.763   2.162   3.334 -0.1002 -0.0833  0.3656
 1627SOL    HW2 6280   5.849   2.202   3.347  0.1088 -0.1743 -0.6649
 1627SOL    HW3 6281   5.758   2.147   3.240 -2.1236  1.9059  0.0971
 1627SOL    MW4 6282   5.774   2.165   3.324  0.4681  0.2867  0.3568
 1628SOL     OW 6283   6.129   1.172   0.565  0.1769  0.4642  0.6085
 1628SOL    HW2 6284   6.122   1.129   0.479  0.1977  1.0821  0.2889
 1628SOL    HW3 6285   6.080   1.254   0.554  0.2458  0.5792  1.1667
 1628SOL    MW4 6286   6.121   1.177   0.552  0.3974  0.2859  0.1408
 1629SOL     OW 6287   4.378   0.789   5.876  0.4987  0.2122 -0.1575
 1629SOL    HW2 6288   4.309   0.724   5.893  1.5051 -0.7083  0.5548
 1629SOL    HW3 6289   4.331   0.866   5.843 -0.6524 -1.2526 -2.2048
 1629SOL    MW4 6290   4.362   0.790   5.874  0.0876 -0.1271 -0.4498
 1630SOL     OW 6291   2.274   2.162   3.410 -0.3195  0.0905 -0.1446
 1630SOL    HW2 6292   2.366   2.174   3.387 -0.5641  1.5843 -0.4462
 1630SOL    HW3 6293   2.251   2.241   3.459 -1.8056  0.4329 -1.3249
 1630SOL    MW4 6294   2.283   2.174   3.413 -0.3756  0.5385  0.1858
 1631SOL     OW 6295   0.851   5.159   0.338  0.0351 -0.5745 -0.1068
 1631SOL    HW2 6296   0.796   5.186   0.265 -0.0834 -0.4032  0.0445
 1631SOL    HW3 6297   0.811   5.201   0.415  1.5294  1.2146 -0.2376
 1631SOL    MW4 6298   0.839   5.168   0.339 -0.0743  0.4561  0.2673
 1632SOL     OW 6299   5.089   1.731   2.264 -0.5653  0.0369 -0.0239
 1632SOL    HW2 6300   5.031   1.725   2.188 -1.5623 -0.5749  0.7613
 1632SOL    HW3 6301   5.151   1.800   2.241 -0.0856 -0.9490 -1.8883
 1632SOL    MW4 6302   5.089   1.739   2.251 -0.1307  0.6301  0.5725
 1633SOL     OW 6303   2.300   2.919   3.031  0.0865 -0.3922 -0.3106
 1633SOL    HW2 6304   2.245   2.910   2.954 -2.4507  5.1737  0.3715
 1633SOL    HW3 6305   2.241   2.908   3.105  1.5780 -1.4512  0.8006
 1633SOL    MW4 6306   2.285   2.916   3.031 -0.0340  0.4009 -0.3302
 1634SOL     OW 6307   1.171   2.952   2.723  0.1474  0.1849  0.4897
 1634SOL    HW2 6308   1.262   2.928   2.737 -0.1818 -0.8569  0.9722
 1634SOL    HW3 6309   1.174   3.037   2.680  1.4426 -0.9984 -2.0246
 1634SOL    MW4 6310   1.183   2.960   2.719 -0.5207 -0.0952 -0.4432
 1635SOL     OW 6311   0.496   1.146   2.307  0.4497 -0.6799 -0.4106
 1635SOL    HW2 6312   0.542   1.165   2.225 -0.8251 -1.3406 -1.3152
 1635SOL    HW3 6313   0.412   1.110   2.280 -0.2351 -0.3905  1.1981
 1635SOL    MW4 6314   0.491   1.144   2.293  0.3197  0.1254 -0.6406
 1636SOL     OW 6315   0.705   1.869   0.843  0.0772  0.1755 -0.1422
 1636SOL    HW2 6316   0.678   1.834   0.758  0.2419  0.2375 -0.2205
 1636SOL    HW3 6317   0.642   1.938   0.861  0.9575  1.2347 -0.9601
 1636SOL    MW4 6318   0.693   1.874   0.834 -0.3218 -0.1660  0.7700
 1637SOL     OW 6319   4.214   3.775   0.856  0.0821 -0.8630 -0.1672
 1637SOL    HW2 6320   4.145   3.709   0.852  0.1399 -0.9190 -0.2363
 1637SOL    HW3 6321   4.170   3.853   0.891 -0.1373 -0.7542 -0.6628
 1637SOL    MW4 6322   4.199   3.777   0.860  0.0960 -0.2581  0.1237
 1638SOL     OW 6323   0.967   5.812   5.959 -0.3129 -0.0188 -0.3187
 1638SOL    HW2 6324   0.963   5.906   5.974 -1.8663 -0.0267 -0.4855
 1638SOL    HW3 6325   0.898   5.776   6.015 -0.5959 -0.9043 -1.2068
 1638SOL    MW4 6326   0.957   5.819   5.968  0.3259 -0.0481  0.4875
 1639SOL     OW 6327   1.687   4.418   2.225 -0.2821 -0.5808 -0.7080
 1639SOL    HW2 6328   1.741   4.410   2.304  0.6854  2.0233 -1.0147
 1639SOL    HW3 6329   1.724   4.493   2.178 -2.7087 -0.1741 -2.1307
 1639SOL    MW4 6330   1.699   4.427   2.229  0.3706 -0.3938  0.8373
 1640SOL     OW 6331   0.121   2.359   2.989  0.1525 -1.0097  0.3086
 1640SOL    HW2 6332   0.079   2.350   3.075 -0.3814  1.0229  0.2952
 1640SOL    HW3 6333   0.215   2.359   3.008  0.1138 -2.6189  0.6448
 1640SOL    MW4 6334   0.128   2.357   3.003  0.4889 -0.1580  0.5401
 1641SOL     OW 6335   1.835   1.667   0.820  0.3655  0.2255  0.3703
 1641SOL    HW2 6336   1.848   1.633   0.732 -1.1969 -0.1494  0.2563
 1641SOL    HW3 6337   1.751   1.713   0.817 -0.1716 -0.5793  1.8705
 1641SOL    MW4 6338   1.826   1.669   0.808 -0.1032  0.2913 -0.2547
 1642SOL     OW 6339   0.912   6.330   2.711  0.4454 -0.1867 -0.3418
 1642SOL    HW2 6340   0.860   6.382   2.772  0.5342  0.2353 -0.6217
 1642SOL    HW3 6341   1.002   6.343   2.739  0.5566  0.6674 -1.0499
 1642SOL    MW4 6342   0.917   6.339   2.723  0.7721 -0.9034  0.3522
 1643SOL     OW 6343   2.298   3.288   5.502  0.0752  0.5428  0.2779
 1643SOL    HW2 6344   2.292   3.340   5.421  2.2588  2.5411  1.2908
 1643SOL    HW3 6345   2.362   3.220   5.483  0.1827  0.6757  0.1661
 1643SOL    MW4 6346   2.305   3.286   5.489 -0.2052  0.2720 -0.7250
 1644SOL     OW 6347   0.565   0.638   2.702 -0.1835  0.0277 -0.3927
 1644SOL    HW2 6348   0.524   0.700   2.642  1.5179  0.2472 -1.4067
 1644SOL    HW3 6349   0.579   0.559   2.649 -1.3696 -0.8896  0.5898
 1644SOL    MW4 6350   0.562   0.636   2.687  0.6261 -0.4560 -0.0484
 1645SOL     OW 6351   5.101   0.720   0.679 -0.1485  0.2438  0.0366
 1645SOL    HW2 6352   5.071   0.697   0.767 -2.3411  0.3536 -0.6043
 1645SOL    HW3 6353   5.116   0.814   0.682 -0.4620  0.2894  0.2590
 1645SOL    MW4 6354   5.099   0.729   0.691  0.6248  0.4520  0.3094
 1646SOL     OW 6355   1.360   3.771   4.077 -0.1303 -0.0897  0.5144
 1646SOL    HW2 6356   1.358   3.717   3.998  0.5054 -1.5100  1.4149
 1646SOL    HW3 6357   1.449   3.763   4.109 -0.6484 -0.4688  1.9534
 1646SOL    MW4 6358   1.371   3.763   4.071 -0.0167  0.2218 -0.2009
 1647SOL     OW 6359   6.033   6.257   2.965 -0.4527 -0.1293 -0.6372
 1647SOL    HW2 6360   6.085   6.242   3.044 -1.3704 -0.0685  0.0015
 1647SOL    HW3 6361   6.001   6.347   2.974  0.0037  0.1181 -1.4243
 1647SOL    MW4 6362   6.035   6.267   2.977  0.2762  0.3678  0.0156
 1648SOL     OW 6363   6.310   3.568   2.728 -0.0916  0.4174  0.4021
 1648SOL    HW2 6364   6.346   3.515   2.657  1.0261 -0.2766  1.4458
 1648SOL    HW3 6365   6.292   3.653   2.688  0.7168  0.1069 -0.6594
 1648SOL    MW4 6366   6.313   3.572   2.713 -0.2264  0.3968  0.5884
 1649SOL     OW 6367   4.430   4.593   1.249  0.1445  0.3621 -0.3372
 1649SOL    HW2 6368   4.490   4.537   1.199  0.9063 -0.5525  1.5064
 1649SOL    HW3 6369   4.486   4.637   1.313 -0.7565  1.7263 -0.4415
 1649SOL    MW4 6370   4.446   4.591   1.251  0.2326 -0.2540  0.2413
 1650SOL     OW 6371   1.355   5.096   2.597 -0.0554  0.2134 -0.4041
 1650SOL    HW2 6372   1.446   5.112   2.571  0.3368 -0.3326  0.5676
 1650SOL    HW3 6373   1.343   5.149   2.676 -1.0390  1.3943 -1.3033
 1650SOL    MW4 6374   1.365   5.105   2.604 -0.4353 -0.0027 -0.1224
 1651SOL     OW 6375   1.734   3.211   3.329  0.4790  0.0387 -0.4628
 1651SOL    HW2 6376   1.724   3.242   3.419  1.5305  0.8354 -0.6016
 1651SOL    HW3 6377   1.730   3.116   3.336 -1.7458  0.1080  0.1168
 1651SOL    MW4 6378   1.732   3.203   3.342  0.2330 -0.2809 -0.3709
 1652SOL     OW 6379   2.505   5.926   0.244  0.1906 -0.1087  0.1856
 1652SOL    HW2 6380   2.508   5.865   0.170 -1.2243  0.0460 -0.0428
 1652SOL    HW3 6381   2.448   5.882   0.307 -0.1247  0.5892  0.3889
 1652SOL    MW4 6382   2.498   5.912   0.242  0.3523 -0.4136 -0.1434
 1653SOL     OW 6383   5.367   6.081   2.821 -0.8674 -0.0180 -0.1558
 1653SOL    HW2 6384   5.273   6.069   2.804 -0.9795 -2.8252  1.7392
 1653SOL    HW3 6385   5.372   6.098   2.915  0.5433 -0.0359 -0.2107
 1653SOL    MW4 6386   5.355   6.082   2.831  0.1673  0.2100 -0.6285
 1654SOL     OW 6387   1.663   6.270   3.345  0.2695  0.7319 -0.6256
 1654SOL    HW2 6388   1.635   6.202   3.284  0.5189 -0.5617  0.6770
 1654SOL    HW3 6389   1.729   6.229   3.399 -0.9047  1.4199  1.4391
 1654SOL    MW4 6390   1.668   6.256   3.344 -0.5574  0.3063 -0.0961
 1655SOL     OW 6391   0.493   4.684   3.746 -0.0060 -0.5574  0.3557
 1655SOL    HW2 6392   0.581   4.649   3.740 -0.1195 -0.7881  0.0350
 1655SOL    HW3 6393   0.500   4.774   3.716  0.0257 -0.7304 -0.1603
 1655SOL    MW4 6394   0.505   4.691   3.741 -0.4708  0.3332  0.0261
 1656SOL     OW 6395   5.791   3.647   5.660  0.4005  0.3240  0.7950
 1656SOL    HW2 6396   5.773   3.633   5.753 -0.4227 -0.5804  0.5241
 1656SOL    HW3 6397   5.868   3.592   5.642  0.6504  0.6150  0.9708
 1656SOL    MW4 6398   5.799   3.638   5.670 -0.3602  0.4313 -0.5937
 1657SOL     OW 6399   0.747   4.444   1.223 -0.0834 -0.1734 -0.4722
 1657SOL    HW2 6400   0.775   4.531   1.197  0.4541 -0.6781 -1.6589
 1657SOL    HW3 6401   0.803   4.385   1.174 -0.0303 -1.2007  0.7598
 1657SOL    MW4 6402   0.758   4.447   1.213  0.0978  0.1885 -0.0326
 1658SOL     OW 6403   1.586   4.874   5.879  0.0959  0.2367 -0.0104
 1658SOL    HW2 6404   1.556   4.851   5.966  0.1633  0.2163  0.0074
 1658SOL    HW3 6405   1.506   4.896   5.831  0.1487  1.3693  0.3822
 1658SOL    MW4 6406   1.572   4.874   5.884  0.4768 -0.2091  0.3333
 1659SOL     OW 6407   5.756   6.340   1.979 -0.3371  0.2096 -0.6290
 1659SOL    HW2 6408   5.746   6.268   1.917  1.1750 -1.1686  0.6575
 1659SOL    HW3 6409   5.842   6.328   2.018 -1.0261  1.2866  1.4110
 1659SOL    MW4 6410   5.766   6.329   1.976 -0.4250  0.1823  0.3260
 1660SOL     OW 6411   5.360   4.875   2.656 -0.3679  0.1879 -0.1919
 1660SOL    HW2 6412   5.384   4.790   2.694  0.6774 -0.3155 -1.8735
 1660SOL    HW3 6413   5.433   4.898   2.599 -1.6211  1.1415 -1.5074
 1660SOL    MW4 6414   5.372   4.867   2.654  0.6717  0.1060 -0.1335
 1661SOL     OW 6415   1.353   4.818   3.980 -0.6288  0.4182  0.1918
 1661SOL    HW2 6416   1.448   4.803   3.981 -1.1154 -4.6577  1.5853
 1661SOL    HW3 6417   1.328   4.812   3.888  0.3117  1.0081 -0.1116
 1661SOL    MW4 6418   1.362   4.815   3.968 -0.2483  0.3634  0.3674
 1662SOL     OW 6419   2.213   0.913   2.492  0.4091 -0.3167 -0.0119
 1662SOL    HW2 6420   2.124   0.929   2.461  0.2813  3.4608  1.7702
 1662SOL    HW3 6421   2.221   0.967   2.571  4.6687  0.5428 -0.7873
 1662SOL    MW4 6422   2.202   0.922   2.499  0.1082 -0.0145  0.1339
 1663SOL     OW 6423   0.531   0.096   3.852  0.0112  0.0081  0.2533
 1663SOL    HW2 6424   0.493   0.134   3.773  1.4650  0.7335 -0.1372
 1663SOL    HW3 6425   0.555   0.007   3.826 -0.1039  0.0327  0.0644
 1663SOL    MW4 6426   0.529   0.089   3.838 -0.3954 -0.0175 -0.0133
 1664SOL     OW 6427   1.761   1.311   0.972 -0.5918  0.2786  0.2381
 1664SOL    HW2 6428   1.708   1.251   1.025 -0.2936 -0.2860 -0.1001
 1664SOL    HW3 6429   1.815   1.358   1.036 -1.7864  1.1667  0.6305
 1664SOL    MW4 6430   1.761   1.309   0.988  0.1131 -0.1287 -0.0428
 1665SOL     OW 6431   2.321   0.923   6.224 -0.2923  0.5819  0.1087
 1665SOL    HW2 6432   2.233   0.955   6.207  0.1905  1.8042 -0.1751
 1665SOL    HW3 6433   2.365   0.996   6.268  0.8448  0.3182 -0.5671
 1665SOL    MW4 6434   2.315   0.936   6.228  0.3458  1.0491  0.0584
 1666SOL     OW 6435   0.449   2.379   2.751 -0.3205 -0.1574  0.0556
 1666SOL    HW2 6436   0.468   2.405   2.661 -1.4879 -0.5490 -0.3199
 1666SOL    HW3 6437   0.521   2.321   2.775  0.6700  0.9497 -0.1752
 1666SOL    MW4 6438   0.461   2.375   2.742  0.4815 -0.0217  0.9703
 1667SOL     OW 6439   3.708   5.487   1.927 -0.2213 -0.4736 -0.5617
 1667SOL    HW2 6440   3.694   5.582   1.930 -1.9972 -0.7024 -0.5283
 1667SOL    HW3 6441   3.762   5.473   1.849  0.0597  0.5517 -0.5686
 1667SOL    MW4 6442   3.713   5.498   1.917 -0.0442 -0.0205  0.0602
 1668SOL     OW 6443   3.949   1.570   2.877 -0.3280 -0.1728 -0.5907
 1668SOL    HW2 6444   3.993   1.639   2.828 -0.7696  0.4126 -0.1787
 1668SOL    HW3 6445   3.966   1.491   2.827  1.6106 -0.0685 -0.1888
 1668SOL    MW4 6446   3.957   1.569   2.864 -0.0815 -0.0088 -0.3609
 1669SOL     OW 6447   2.633   1.160   0.757 -0.4176  0.2263 -0.4146
 1669SOL    HW2 6448   2.707   1.135   0.702  1.3180  1.0270  1.4139
 1669SOL    HW3 6449   2.596   1.076   0.786  1.9765 -0.3311  1.3569
 1669SOL    MW4 6450   2.638   1.146   0.754  0.8537 -0.3131 -0.1618
 1670SOL     OW 6451   5.708   3.046   5.928 -0.5872 -0.3746 -0.8972
 1670SOL    HW2 6452   5.738   3.060   6.018  1.1742 -3.6819 -0.8211
 1670SOL    HW3 6453   5.782   3.074   5.873 -0.3525 -1.3428 -1.1019
 1670SOL    MW4 6454   5.722   3.052   5.932 -0.3621 -0.7963 -0.5441
 1671SOL     OW 6455   3.368   0.383   2.472 -0.0019 -0.0400  0.7208
 1671SOL    HW2 6456   3.437   0.441   2.504 -0.4022  0.9712 -0.2039
 1671SOL    HW3 6457   3.378   0.383   2.377 -0.4257 -0.9688  0.6640
 1671SOL    MW4 6458   3.378   0.390   2.464  0.1704  0.5371  0.7405
 1672SOL     OW 6459   6.037   5.748   0.198 -0.3983  0.6018  0.2880
 1672SOL    HW2 6460   6.047   5.763   0.293 -0.8142  0.4279  0.3593
 1672SOL    HW3 6461   6.028   5.836   0.162  1.0187  0.7601  0.2553
 1672SOL    MW4 6462   6.037   5.762   0.206 -0.2834  0.6827 -0.6083
 1673SOL     OW 6463   1.996   0.183   6.176  0.1078 -0.1676  0.1674
 1673SOL    HW2 6464   1.940   0.124   6.226  1.2412 -0.2210  1.4166
 1673SOL    HW3 6465   2.031   0.128   6.105  0.4996 -0.7840  0.8287
 1673SOL    MW4 6466   1.993   0.168   6.173  0.4659  0.1541 -0.4269
 1674SOL     OW 6467   3.162   3.417   1.964 -0.3298 -0.7818 -0.3506
 1674SOL    HW2 6468   3.177   3.343   1.904 -0.5201 -1.3619  0.3071
 1674SOL    HW3 6469   3.127   3.486   1.908  2.3041 -0.2532 -1.4903
 1674SOL    MW4 6470   3.159   3.416   1.949  0.8021 -0.0940  0.3429
 1675SOL     OW 6471   3.587   5.144   6.085 -0.6758  0.5790 -0.8784
 1675SOL    HW2 6472   3.655   5.210   6.102 -1.2046  1.0362 -0.5103
 1675SOL    HW3 6473   3.506   5.184   6.116 -1.0663 -0.1013 -0.9954
 1675SOL    MW4 6474   3.585   5.158   6.091  0.0430 -0.3257 -0.3515
 1676SOL     OW 6475   5.783   1.100   3.887  0.0241 -0.0748 -0.2203
 1676SOL    HW2 6476   5.749   1.170   3.832 -0.5055 -0.7969 -0.8309
 1676SOL    HW3 6477   5.745   1.020   3.851 -3.2565 -0.3824  3.2251
 1676SOL    MW4 6478   5.774   1.099   3.875 -0.2281  0.1065  0.5013
 1677SOL     OW 6479   0.259   1.387   4.595 -0.4018 -0.4835  0.4618
 1677SOL    HW2 6480   0.297   1.467   4.558 -0.8170  0.1069  1.2550
 1677SOL    HW3 6481   0.216   1.344   4.522  1.9707 -1.3176 -0.5343
 1677SOL    MW4 6482   0.259   1.392   4.581 -0.2632  0.4688  0.0937
 1678SOL     OW 6483   5.511   4.254   4.130  0.1669  0.1983 -0.8018
 1678SOL    HW2 6484   5.586   4.288   4.179  1.3730 -2.2749 -0.7716
 1678SOL    HW3 6485   5.548   4.223   4.047 -0.7001 -1.4088 -0.6423
 1678SOL    MW4 6486   5.526   4.254   4.125  0.1522  1.1903 -0.1309
 1679SOL     OW 6487   0.555   3.356   3.759 -0.5861 -0.3683  0.1182
 1679SOL    HW2 6488   0.646   3.367   3.788 -0.1535  0.2903 -1.4076
 1679SOL    HW3 6489   0.509   3.430   3.799 -0.3742 -0.4803  0.5752
 1679SOL    MW4 6490   0.561   3.367   3.768 -0.5112 -0.4645 -0.8331
 1680SOL     OW 6491   1.907   6.022   0.818 -0.1720  0.3131 -0.0377
 1680SOL    HW2 6492   1.926   6.065   0.901 -3.1673  0.1763  0.8308
 1680SOL    HW3 6493   1.943   5.934   0.827 -1.5278 -0.1142  1.6753
 1680SOL    MW4 6494   1.914   6.016   0.830  0.4223  0.1834 -0.0714
 1681SOL     OW 6495   1.610   4.988   6.348  0.8843 -0.2912 -0.3969
 1681SOL    HW2 6496   1.653   4.906   6.374  0.7529 -0.3982 -0.5169
 1681SOL    HW3 6497   1.554   4.963   6.274  1.6153  0.1041 -1.0919
 1681SOL    MW4 6498   1.608   4.974   6.342 -0.5311 -0.0600 -0.0209
 1682SOL     OW 6499   0.503   0.605   1.992  0.1774 -0.5947  0.0151
 1682SOL    HW2 6500   0.495   0.512   1.971  1.0663 -0.6672 -0.0370
 1682SOL    HW3 6501   0.518   0.647   1.907 -0.1943 -0.4074  0.0423
 1682SOL    MW4 6502   0.504   0.598   1.978  0.8631 -0.2343  0.2409
 1683SOL     OW 6503   1.991   3.127   0.691  0.1374  0.8250 -0.0237
 1683SOL    HW2 6504   1.942   3.044   0.690 -2.3322  2.2106 -0.1912
 1683SOL    HW3 6505   2.039   3.126   0.608  1.3945 -1.0882  0.6604
 1683SOL    MW4 6506   1.991   3.116   0.680  0.0702 -0.2441  0.6694
 1684SOL     OW 6507   2.181   2.494   4.255 -0.3704  0.4088  0.0661
 1684SOL    HW2 6508   2.239   2.513   4.181 -1.2788  1.3932 -0.4085
 1684SOL    HW3 6509   2.111   2.441   4.217  0.4216 -1.2099  0.7376
 1684SOL    MW4 6510   2.180   2.489   4.240 -0.3099  0.2628  0.3540
 1685SOL     OW 6511   4.109   3.584   6.257  0.0075  0.3064 -1.1482
 1685SOL    HW2 6512   4.152   3.505   6.289 -0.3445  0.3807 -0.4719
 1685SOL    HW3 6513   4.090   3.634   6.336 -2.2243 -0.1715 -1.3149
 1685SOL    MW4 6514   4.112   3.580   6.272 -0.2918 -0.4076 -0.4196
 1686SOL     OW 6515   3.377   1.145   0.447  0.0095  0.0064 -0.3679
 1686SOL    HW2 6516   3.311   1.122   0.513  1.9416 -0.4020  1.5504
 1686SOL    HW3 6517   3.438   1.202   0.494  0.4396  1.3473 -2.4079
 1686SOL    MW4 6518   3.376   1.150   0.462  0.2220  0.4059 -0.1557
 1687SOL     OW 6519   5.127   4.406   5.719  0.3962 -0.2660  0.0039
 1687SOL    HW2 6520   5.148   4.389   5.811  3.5004 -0.9913 -0.7418
 1687SOL    HW3 6521   5.093   4.496   5.719 -1.0364 -0.7301  1.9846
 1687SOL    MW4 6522   5.125   4.416   5.731 -0.3392  0.7918 -0.2524
 1688SOL     OW 6523   4.156   4.984   1.722  0.2208 -0.0626  0.2949
 1688SOL    HW2 6524   4.233   5.016   1.768 -1.4654  0.4471  3.0016
 1688SOL    HW3 6525   4.127   4.908   1.773 -2.6265  1.4497  1.1766
 1688SOL    MW4 6526   4.162   4.978   1.735  0.5179 -0.2043 -0.5138
 1689SOL     OW 6527   4.862   2.540   1.939  0.2779 -0.0908 -0.3328
 1689SOL    HW2 6528   4.901   2.530   2.026 -0.3608  1.4494  0.1699
 1689SOL    HW3 6529   4.887   2.628   1.912 -2.1650  0.6884 -0.2895
 1689SOL    MW4 6530   4.871   2.550   1.947 -0.5336 -0.2099  0.4304
 1690SOL     OW 6531   3.982   0.018   0.613  0.0341  0.2903 -0.3335
 1690SOL    HW2 6532   4.029  -0.065   0.619 -0.8382 -0.2447 -0.6570
 1690SOL    HW3 6533   3.969   0.046   0.703 -1.0131 -0.7259 -0.1451
 1690SOL    MW4 6534   3.986   0.011   0.625  0.4981  0.1253 -0.4194
 1691SOL     OW 6535   4.638   4.090   5.904  0.2521  0.3389 -0.1983
 1691SOL    HW2 6536   4.577   4.024   5.873 -1.0225  0.7306  1.3603
 1691SOL    HW3 6537   4.596   4.174   5.885  0.7386  0.6464  0.0413
 1691SOL    MW4 6538   4.625   4.093   5.897  0.2158  0.0550 -0.4471
 1692SOL     OW 6539   0.618   2.945   0.083  0.0177 -0.7733 -0.1229
 1692SOL    HW2 6540   0.678   2.959   0.010  0.2380  1.7650  0.4849
 1692SOL    HW3 6541   0.638   2.856   0.114  0.9015 -1.3541 -2.2059
 1692SOL    MW4 6542   0.628   2.935   0.077  0.1237  0.6494 -0.5185
 1693SOL     OW 6543   2.217   2.897   0.818  0.0455 -0.0408  0.2208
 1693SOL    HW2 6544   2.257   2.970   0.770  1.8194 -0.1243  1.4478
 1693SOL    HW3 6545   2.148   2.938   0.870 -1.2257  0.2018 -1.5469
 1693SOL    MW4 6546   2.213   2.912   0.819  0.4252 -0.7428  0.4602
 1694SOL     OW 6547   0.970   6.347   3.068 -0.0956 -0.5326 -0.5331
 1694SOL    HW2 6548   1.037   6.398   3.114  0.0340 -1.9182  0.9078
 1694SOL    HW3 6549   1.019   6.298   3.002  0.4705 -1.9623  0.8778
 1694SOL    MW4 6550   0.985   6.347   3.066  0.3797  0.0331  0.2546
 1695SOL     OW 6551   5.552   3.077   0.341  0.2750 -0.5940 -0.2021
 1695SOL    HW2 6552   5.635   3.067   0.294  0.4567 -1.3631  0.2697
 1695SOL    HW3 6553   5.574   3.062   0.433 -0.1542  0.4696  0.0898
 1695SOL    MW4 6554   5.566   3.074   0.347 -0.3498  0.0674  0.2529
 1696SOL     OW 6555   4.994   4.119   0.749 -0.7083  0.3257 -0.1672
 1696SOL    HW2 6556   4.964   4.147   0.662  1.4871  0.6068 -0.8989
 1696SOL    HW3 6557   5.007   4.024   0.741 -0.2467  0.3910 -0.2604
 1696SOL    MW4 6558   4.992   4.110   0.736  0.6125 -0.3233 -0.1396
 1697SOL     OW 6559   0.410   2.284   4.365  0.0138 -0.6565 -0.5141
 1697SOL    HW2 6560   0.326   2.239   4.373 -0.6751  0.9360  3.5154
 1697SOL    HW3 6561   0.386   2.375   4.347  0.6040  0.2409  2.6840
 1697SOL    MW4 6562   0.396   2.290   4.364  0.2267  0.0239 -0.2764
 1698SOL     OW 6563   4.187   0.351   1.506 -0.2125 -0.2564  0.1380
 1698SOL    HW2 6564   4.268   0.303   1.524 -1.8778 -2.2393  3.2133
 1698SOL    HW3 6565   4.137   0.293   1.448 -0.2285  0.1128 -0.2255
 1698SOL    MW4 6566   4.191   0.337   1.500  0.2851 -0.6521  0.6923
 1699SOL     OW 6567   1.540   3.337   6.130  0.4174  1.0005 -0.1044
 1699SOL    HW2 6568   1.485   3.260   6.122  1.6374  0.1732 -0.8986
 1699SOL    HW3 6569   1.514   3.394   6.057  1.8447 -0.2332 -1.6633
 1699SOL    MW4 6570   1.529   3.335   6.119 -0.3450 -0.4629 -0.7235
 1700SOL     OW 6571   2.869   0.116   2.604  0.2275 -0.1192 -0.0215
 1700SOL    HW2 6572   2.787   0.123   2.556  0.4294 -0.8635 -0.4949
 1700SOL    HW3 6573   2.918   0.047   2.558  1.3639  0.7114 -0.1243
 1700SOL    MW4 6574   2.865   0.108   2.591 -0.1581  0.0060 -0.0785
 1701SOL     OW 6575   3.196   1.657   1.882 -0.7636 -0.1218  0.7396
 1701SOL    HW2 6576   3.136   1.698   1.945 -1.1936 -0.9513  0.8748
 1701SOL    HW3 6577   3.257   1.727   1.859 -2.8180  1.3068 -0.7517
 1701SOL    MW4 6578   3.196   1.672   1.887 -0.3492 -0.0225 -0.2712
 1702SOL     OW 6579   1.674   3.144   0.206  0.4705 -0.0675  0.3291
 1702SOL    HW2 6580   1.671   3.236   0.180 -4.2229  0.0510  0.4641
 1702SOL    HW3 6581   1.669   3.095   0.124  2.3127 -0.2714  0.2977
 1702SOL    MW4 6582   1.673   3.150   0.192  0.0461  0.0253  0.0406
 1703SOL     OW 6583   1.557   2.870   6.076  0.2672 -0.6088  0.1693
 1703SOL    HW2 6584   1.565   2.820   6.157 -1.0208 -0.1857  0.5933
 1703SOL    HW3 6585   1.636   2.924   6.073 -0.1225  0.1021  1.6808
 1703SOL    MW4 6586   1.568   2.871   6.086 -0.2667  0.0595  0.0373
 1704SOL     OW 6587   0.082   4.659   3.251 -0.0133  0.1393  0.3982
 1704SOL    HW2 6588   0.025   4.620   3.185 -0.5836  0.2283  0.8323
 1704SOL    HW3 6589   0.023   4.685   3.322  0.3580  1.7731  0.1336
 1704SOL    MW4 6590   0.067   4.657   3.252  0.3819 -0.0643 -0.8495
 1705SOL     OW 6591   1.768   5.061   2.723  0.4598  0.0220 -0.7650
 1705SOL    HW2 6592   1.700   5.104   2.670 -1.3449 -0.1940  1.2300
 1705SOL    HW3 6593   1.836   5.128   2.733 -0.0630  0.7275 -1.7275
 1705SOL    MW4 6594   1.768   5.076   2.717  0.1344  0.0491  0.0395
 1706SOL     OW 6595   6.250   2.555   2.785  0.4286  0.1943  0.3162
 1706SOL    HW2 6596   6.307   2.590   2.853 -1.1972  2.8273  0.4648
 1706SOL    HW3 6597   6.252   2.460   2.799  1.2538  0.5166  3.1368
 1706SOL    MW4 6598   6.258   2.547   2.796 -0.2436  0.0507 -0.4584
 1707SOL     OW 6599   2.448   0.701   6.106  0.0020  0.1399 -0.3877
 1707SOL    HW2 6600   2.431   0.784   6.152 -2.2638 -1.1989  1.3946
 1707SOL    HW3 6601   2.430   0.722   6.014 -0.7528  1.6045  0.0538
 1707SOL    MW4 6602   2.443   0.715   6.100  0.0996 -1.2314 -0.1653
 1708SOL     OW 6603   0.847   0.095   2.311  0.2242 -0.1076 -0.3185
 1708SOL    HW2 6604   0.871   0.020   2.365  0.8480 -0.9420 -1.6984
 1708SOL    HW3 6605   0.834   0.167   2.374  0.3427 -1.1738  0.9645
 1708SOL    MW4 6606   0.848   0.095   2.327  0.1521 -0.3558  0.4243
 1709SOL     OW 6607   4.596   1.976   3.495  0.3175 -0.4188  0.0898
 1709SOL    HW2 6608   4.647   2.032   3.554 -2.0719  0.0037  1.9099
 1709SOL    HW3 6609   4.507   2.008   3.504 -1.0362 -3.8973  0.4984
 1709SOL    MW4 6610   4.591   1.988   3.504  0.4143 -0.1667  0.0433
 1710SOL     OW 6611   0.669   4.922   3.376  0.1082  0.5797  0.0809
 1710SOL    HW2 6612   0.586   4.913   3.424  0.2942 -0.2450  0.2613
 1710SOL    HW3 6613   0.736   4.920   3.444  0.4415 -1.6149 -0.2510
 1710SOL    MW4 6614   0.667   4.921   3.391  0.9185  0.0526 -0.5247
 1711SOL     OW 6615   3.026   5.111   1.704  0.3353 -0.1486  0.6150
 1711SOL    HW2 6616   3.028   5.205   1.685  0.4098 -0.0984  0.8692
 1711SOL    HW3 6617   2.967   5.104   1.779 -0.1782 -0.3759  0.1992
 1711SOL    MW4 6618   3.018   5.123   1.711 -0.4336  0.0996  0.3033
 1712SOL     OW 6619   0.338   1.578   2.248 -0.0368 -0.1601  0.3147
 1712SOL    HW2 6620   0.299   1.621   2.324  1.2554 -0.0496  0.9295
 1712SOL    HW3 6621   0.429   1.565   2.271  0.4952  0.2410 -1.3787
 1712SOL    MW4 6622   0.345   1.582   2.261 -0.3179 -0.2510  0.5364
 1713SOL     OW 6623   1.879   1.516   4.324 -0.8993  0.1018 -0.0648
 1713SOL    HW2 6624   1.818   1.575   4.280  0.0354  1.3417  0.2207
 1713SOL    HW3 6625   1.965   1.556   4.310 -0.2709 -1.0157  0.4513
 1713SOL    MW4 6626   1.882   1.529   4.316  0.4662  0.0877 -0.3451
 1714SOL     OW 6627   5.786   1.858   2.178  0.0877 -0.3723 -0.3556
 1714SOL    HW2 6628   5.836   1.935   2.206  0.6983 -1.2060  0.9554
 1714SOL    HW3 6629   5.721   1.846   2.247  0.0257 -1.0483 -0.5315
 1714SOL    MW4 6630   5.784   1.867   2.191  0.1540  0.3575  0.0332
 1715SOL     OW 6631   2.890   1.110   0.906 -0.1563 -0.5577 -1.0531
 1715SOL    HW2 6632   2.948   1.185   0.916 -0.6186 -0.3285  0.2265
 1715SOL    HW3 6633   2.802   1.148   0.903 -0.4488 -1.0413  0.3282
 1715SOL    MW4 6634   2.886   1.125   0.907 -0.0785 -0.3178 -0.9086
 1716SOL     OW 6635   4.903   3.447   4.164 -0.2069  0.3653 -0.3893
 1716SOL    HW2 6636   4.973   3.382   4.157 -0.1834  0.2257  0.8935
 1716SOL    HW3 6637   4.910   3.499   4.085  0.7659 -0.2290 -0.7045
 1716SOL    MW4 6638   4.913   3.445   4.153 -0.3890  0.5190 -0.2358
 1717SOL     OW 6639   3.896   3.649   5.634 -0.0888 -0.1858  0.0052
 1717SOL    HW2 6640   3.982   3.633   5.672 -0.1846 -0.3991  0.1308
 1717SOL    HW3 6641   3.914   3.661   5.540  0.0679 -0.2907  0.0215
 1717SOL    MW4 6642   3.910   3.649   5.626  0.0945 -0.4779  0.7190
 1718SOL     OW 6643   6.421   3.491   0.323 -0.4691 -0.0316  0.0687
 1718SOL    HW2 6644   6.369   3.571   0.330 -0.1728  0.0226  1.9646
 1718SOL    HW3 6645   6.451   3.490   0.232 -1.1811  1.5628 -0.2094
 1718SOL    MW4 6646   6.418   3.501   0.312 -0.8255  0.6604  0.2803
 1719SOL     OW 6647   0.469   6.047   2.019 -0.3334  0.2928 -0.5910
 1719SOL    HW2 6648   0.452   5.954   2.007 -0.5894  0.2318  0.1761
 1719SOL    HW3 6649   0.430   6.088   1.942 -0.5099 -0.2047 -0.7719
 1719SOL    MW4 6650   0.461   6.040   2.007 -0.1522 -0.5280 -0.0829
 1720SOL     OW 6651   3.870   2.473   3.325 -0.0649  0.1792  0.3463
 1720SOL    HW2 6652   3.857   2.523   3.245 -0.8923  0.2871  0.5402
 1720SOL    HW3 6653   3.803   2.405   3.322  0.3007 -0.1953  0.6488
 1720SOL    MW4 6654   3.859   2.471   3.314 -0.7369  0.0931 -0.2482
 1721SOL     OW 6655   1.942   4.435   3.651 -0.2467 -0.5079  0.6797
 1721SOL    HW2 6656   1.861   4.421   3.700  0.3037 -0.7349  1.5498
 1721SOL    HW3 6657   1.998   4.485   3.710 -0.1230  0.5655 -0.3048
 1721SOL    MW4 6658   1.939   4.440   3.665 -0.0042 -0.0006  0.2511
 1722SOL     OW 6659   0.649   1.968   5.313 -0.2301  0.0034 -0.4298
 1722SOL    HW2 6660   0.575   1.928   5.358 -0.2641  0.2258 -0.2864
 1722SOL    HW3 6661   0.615   2.051   5.280 -0.3927 -0.4464 -1.4329
 1722SOL    MW4 6662   0.635   1.974   5.314  0.3911  0.0928 -0.3438
 1723SOL     OW 6663   2.489   4.440   1.449  0.2026  0.2449  0.5629
 1723SOL    HW2 6664   2.413   4.490   1.417 -0.6813  1.6523  4.3088
 1723SOL    HW3 6665   2.565   4.490   1.418 -0.4502  0.4255 -0.8459
 1723SOL    MW4 6666   2.489   4.453   1.440 -0.0861 -0.7561 -0.1911
 1724SOL     OW 6667   5.980   3.436   3.619  0.6721  0.6095 -0.0766
 1724SOL    HW2 6668   6.054   3.479   3.661  0.0793  1.9135 -0.3292
 1724SOL    HW3 6669   5.979   3.471   3.530  0.9918 -0.9682 -0.7355
 1724SOL    MW4 6670   5.990   3.446   3.613  0.0487 -0.0185 -0.1968
 1725SOL     OW 6671   4.737   4.752   5.810  0.2452 -0.0281 -0.2090
 1725SOL    HW2 6672   4.644   4.773   5.807  0.7756  2.7533  0.4834
 1725SOL    HW3 6673   4.767   4.761   5.720  0.0865  0.4323 -0.2189
 1725SOL    MW4 6674   4.729   4.756   5.798  0.2092 -0.4890 -0.0468
 1726SOL     OW 6675   3.076   2.599   6.264  0.0224 -0.4140  0.1862
 1726SOL    HW2 6676   3.053   2.645   6.183 -0.6774  1.1816  1.2535
 1726SOL    HW3 6677   2.997   2.551   6.288  0.8565 -2.6079 -1.1167
 1726SOL    MW4 6678   3.063   2.598   6.256  0.5728 -0.1864  0.5721
 1727SOL     OW 6679   3.154   2.736   4.818  0.2613  0.4285 -0.4006
 1727SOL    HW2 6680   3.241   2.770   4.798  1.0349 -1.2698 -0.1646
 1727SOL    HW3 6681   3.171   2.661   4.875 -1.3995  0.3787  0.0655
 1727SOL    MW4 6682   3.168   2.730   4.823 -0.3816  0.4839 -0.0954
 1728SOL     OW 6683   0.292   3.684   0.502  0.4503 -0.3819 -0.1378
 1728SOL    HW2 6684   0.290   3.607   0.444 -0.8519 -0.1599 -0.4275
 1728SOL    HW3 6685   0.299   3.647   0.590 -1.6688 -0.9475 -0.1558
 1728SOL    MW4 6686   0.293   3.669   0.506  0.0370 -0.4893 -0.2823
 1729SOL     OW 6687   3.663   1.024   4.996 -0.6490 -0.4122 -0.0108
 1729SOL    HW2 6688   3.711   1.099   5.033  0.0545 -1.5657  1.5490
 1729SOL    HW3 6689   3.601   1.063   4.935 -0.5264  1.4651  0.9868
 1729SOL    MW4 6690   3.661   1.039   4.993 -0.1244  0.3077  0.5144
 1730SOL     OW 6691   0.496   0.095   4.127  0.1614  0.3546 -0.6734
 1730SOL    HW2 6692   0.410   0.054   4.138 -0.4453  1.7210 -0.1330
 1730SOL    HW3 6693   0.508   0.100   4.033 -0.2209 -0.1009 -0.7512
 1730SOL    MW4 6694   0.486   0.090   4.116  0.5319  0.7845 -1.0671
 1731SOL     OW 6695   0.412   5.096   3.447 -0.2659  0.4122  0.2424
 1731SOL    HW2 6696   0.430   5.089   3.353  1.6762  1.1759  0.5138
 1731SOL    HW3 6697   0.320   5.071   3.455  0.0212 -1.5423 -1.5951
 1731SOL    MW4 6698   0.402   5.092   3.435  0.1857  0.2063 -0.3739
 1732SOL     OW 6699   4.880   4.395   1.945  0.0131 -0.3143  0.4494
 1732SOL    HW2 6700   4.958   4.450   1.954 -0.0947 -0.0148 -0.3683
 1732SOL    HW3 6701   4.915   4.306   1.940  0.1773 -0.3479  1.9377
 1732SOL    MW4 6702   4.895   4.390   1.945  0.6148 -0.1823  0.4408
 1733SOL     OW 6703   6.284   2.411   1.696  0.3374 -0.0441 -0.4217
 1733SOL    HW2 6704   6.242   2.418   1.782  1.5762  0.1793  0.1851
 1733SOL    HW3 6705   6.292   2.317   1.681 -0.3656 -0.0882 -0.5447
 1733SOL    MW4 6706   6.280   2.400   1.705 -0.0917  0.1029  0.2470
 1734SOL     OW 6707   5.935   1.266   2.727 -0.5390  0.1878 -0.4653
 1734SOL    HW2 6708   5.892   1.292   2.646 -1.3512 -0.3094 -0.2148
 1734SOL    HW3 6709   5.975   1.181   2.707 -0.7369  0.0663 -0.3447
 1734SOL    MW4 6710   5.935   1.258   2.714 -0.4521  0.2873 -0.3269
 1735SOL     OW 6711   2.705   3.672   6.133  0.5376 -0.6616  0.0258
 1735SOL    HW2 6712   2.723   3.582   6.160  0.4181 -1.0446 -1.1229
 1735SOL    HW3 6713   2.636   3.702   6.192  2.1775 -0.4816  1.9784
 1735SOL    MW4 6714   2.699   3.664   6.145 -0.7012 -0.4352  0.0610
 1736SOL     OW 6715   6.311   4.418   4.799 -0.2219 -0.2480  0.5631
 1736SOL    HW2 6716   6.392   4.462   4.825 -0.3258  0.7021 -0.6181
 1736SOL    HW3 6717   6.253   4.428   4.874 -0.0106  1.0947  0.5743
 1736SOL    MW4 6718   6.314   4.425   4.812  0.6140  0.5892 -0.4194
 1737SOL     OW 6719   4.618   0.863   5.204 -0.2894 -0.6658 -0.4345
 1737SOL    HW2 6720   4.613   0.923   5.278  2.5737 -1.1751  0.3305
 1737SOL    HW3 6721   4.532   0.821   5.200 -0.5996 -0.5164  2.5335
 1737SOL    MW4 6722   4.606   0.865   5.213  0.0405 -0.5419  0.2932
 1738SOL     OW 6723   3.918   2.195   6.191  0.3443 -0.4769  0.2618
 1738SOL    HW2 6724   3.895   2.242   6.272 -1.0174  0.2396 -0.5219
 1738SOL    HW3 6725   3.889   2.105   6.206  1.0161 -0.5881  0.9480
 1738SOL    MW4 6726   3.911   2.190   6.204  0.5787 -0.3074 -0.2823
 1739SOL     OW 6727   5.390   3.463   0.415 -0.3621 -0.3294  0.2813
 1739SOL    HW2 6728   5.466   3.412   0.440  0.3245  0.1070 -0.8451
 1739SOL    HW3 6729   5.412   3.553   0.440 -0.1525 -0.0764 -0.7653
 1739SOL    MW4 6730   5.403   3.468   0.421 -0.2907 -0.0631  0.0945
 1740SOL     OW 6731   2.138   6.260   4.960 -0.3512  0.3845 -0.4274
 1740SOL    HW2 6732   2.179   6.288   5.041 -0.4632 -1.7550  0.4347
 1740SOL    HW3 6733   2.145   6.336   4.902  1.3725  1.3576  0.9524
 1740SOL    MW4 6734   2.145   6.274   4.963 -0.0300  0.2592 -0.3112
 1741SOL     OW 6735   2.320   5.202   1.240 -0.1153  0.1926  0.6853
 1741SOL    HW2 6736   2.268   5.251   1.176  0.4462 -0.6427 -0.4562
 1741SOL    HW3 6737   2.410   5.229   1.222  0.1453 -0.8244  0.4170
 1741SOL    MW4 6738   2.325   5.212   1.229 -0.1950 -0.5214  0.3411
 1742SOL     OW 6739   1.430   3.550   5.971 -0.4501  0.2237  0.2822
 1742SOL    HW2 6740   1.433   3.503   5.887  0.7661 -0.1447  0.5182
 1742SOL    HW3 6741   1.444   3.641   5.947 -0.1337  0.1234  0.0874
 1742SOL    MW4 6742   1.432   3.556   5.956 -0.2782  0.2116 -0.3551
 1743SOL     OW 6743   3.256   5.768   1.080  0.1816  0.1957 -0.6866
 1743SOL    HW2 6744   3.296   5.682   1.070 -0.5163 -0.0892 -1.0543
 1743SOL    HW3 6745   3.270   5.811   0.995 -0.6594 -0.0647 -0.9626
 1743SOL    MW4 6746   3.263   5.762   1.068  0.8299 -0.0703  0.0499
 1744SOL     OW 6747   5.898   4.511   4.904  0.0687  0.2322 -0.1196
 1744SOL    HW2 6748   5.817   4.556   4.928  0.1783  0.5098 -0.2541
 1744SOL    HW3 6749   5.870   4.431   4.860 -0.1401  0.7900 -1.0308
 1744SOL    MW4 6750   5.884   4.507   4.901  0.4593 -0.2580 -0.4891
 1745SOL     OW 6751   4.491   6.153   2.153 -0.7879 -0.3037  0.7390
 1745SOL    HW2 6752   4.484   6.111   2.067 -2.5966  0.2357  0.5751
 1745SOL    HW3 6753   4.544   6.231   2.137 -2.3458  0.6169 -0.2744
 1745SOL    MW4 6754   4.497   6.158   2.139  0.4037  0.2489 -0.2098
 1746SOL     OW 6755   5.920   1.679   0.252  0.1471 -0.1566 -0.2471
 1746SOL    HW2 6756   5.870   1.700   0.331  2.6719  0.1456  1.3873
 1746SOL    HW3 6757   5.879   1.600   0.217 -0.0847 -1.2784  2.3249
 1746SOL    MW4 6758   5.908   1.672   0.258  0.6848 -0.5576 -0.2557
 1747SOL     OW 6759   0.097   0.095   1.764 -0.3079 -0.6188  0.2359
 1747SOL    HW2 6760   0.070   0.057   1.680 -0.4387  0.1672 -0.0925
 1747SOL    HW3 6761   0.019   0.142   1.795 -0.0505 -0.3306  0.4531
 1747SOL    MW4 6762   0.083   0.096   1.757  0.2560 -0.7963 -0.1144
 1748SOL     OW 6763   0.653   6.111   2.384 -0.8205 -0.2137  0.1189
 1748SOL    HW2 6764   0.662   6.020   2.412 -2.1073 -0.6125 -0.6835
 1748SOL    HW3 6765   0.566   6.137   2.414 -1.2688  0.0978 -1.3701
 1748SOL    MW4 6766   0.643   6.102   2.392  0.0569  0.9403  0.4370
 1749SOL     OW 6767   4.352   2.618   0.364 -0.4161 -0.3314  0.3548
 1749SOL    HW2 6768   4.309   2.567   0.296  1.5397 -1.4366 -0.1356
 1749SOL    HW3 6769   4.355   2.559   0.440  0.6586 -0.4765  0.2146
 1749SOL    MW4 6770   4.347   2.604   0.365 -0.2657 -0.5242 -0.2405
 1750SOL     OW 6771   2.227   5.623   3.981 -0.3190  0.2343  0.3195
 1750SOL    HW2 6772   2.267   5.573   3.910 -0.7540  1.5162 -0.8763
 1750SOL    HW3 6773   2.201   5.557   4.045 -0.3674 -1.0113 -0.9346
 1750SOL    MW4 6774   2.229   5.608   3.980  0.1335 -0.1085  0.9243
 1751SOL     OW 6775   4.130   6.094   1.224  0.4471 -0.4456  0.1706
 1751SOL    HW2 6776   4.202   6.109   1.286  0.7716 -1.4068  0.0397
 1751SOL    HW3 6777   4.163   6.027   1.164  0.3116  0.8235 -1.3641
 1751SOL    MW4 6778   4.143   6.087   1.225 -0.2078 -0.5812 -0.1856
 1752SOL     OW 6779   6.419   4.410   0.490  0.1903  0.8644  0.6298
 1752SOL    HW2 6780   6.346   4.416   0.428  2.0726 -0.8289 -1.9245
 1752SOL    HW3 6781   6.455   4.499   0.493 -1.2195  1.4575  1.0498
 1752SOL    MW4 6782   6.414   4.423   0.482 -0.0861 -0.5461 -0.5905
 1753SOL     OW 6783   5.234   3.935   4.475 -0.5659 -0.4388  0.2112
 1753SOL    HW2 6784   5.287   3.992   4.420 -0.4956  0.7403  1.4447
 1753SOL    HW3 6785   5.293   3.907   4.545 -1.4228  0.5894  1.3963
 1753SOL    MW4 6786   5.249   3.939   4.477 -0.1656 -0.3520  0.6855
 1754SOL     OW 6787   3.205   5.097   5.421  0.6119  0.0222  0.2945
 1754SOL    HW2 6788   3.145   5.040   5.372 -0.3023  0.4437  0.8966
 1754SOL    HW3 6789   3.281   5.106   5.364  0.6604 -1.5614  0.0542
 1754SOL    MW4 6790   3.207   5.091   5.407 -0.5858 -0.4296 -0.1609
 1755SOL     OW 6791   0.675   5.414   1.257  0.0635  0.8360 -0.3420
 1755SOL    HW2 6792   0.730   5.336   1.253  1.0860  1.5628 -0.8359
 1755SOL    HW3 6793   0.695   5.462   1.177 -2.6581  0.2591 -1.4758
 1755SOL    MW4 6794   0.685   5.410   1.246  0.3391 -0.6556 -0.7587
 1756SOL     OW 6795   6.412   1.059   4.196  0.0830  0.3037 -0.0507
 1756SOL    HW2 6796   6.460   0.978   4.181  0.7216  0.8329 -0.9908
 1756SOL    HW3 6797   6.374   1.049   4.283 -1.0546 -1.5815 -0.7012
 1756SOL    MW4 6798   6.413   1.047   4.206 -0.1291 -0.2817  0.1276
 1757SOL     OW 6799   2.349   3.606   2.237  0.0630  0.4621 -0.3688
 1757SOL    HW2 6800   2.305   3.545   2.296  0.9620 -0.0653 -0.2185
 1757SOL    HW3 6801   2.441   3.604   2.265  0.3219  0.9732 -1.1399
 1757SOL    MW4 6802   2.355   3.598   2.249  0.1609 -0.1527  0.3499
 1758SOL     OW 6803   4.595   2.740   3.270  0.4854 -0.1379  0.5038
 1758SOL    HW2 6804   4.545   2.822   3.275  1.4400  0.4538  0.4854
 1758SOL    HW3 6805   4.681   2.766   3.237  0.7489 -1.1768  0.3402
 1758SOL    MW4 6806   4.599   2.754   3.266 -0.0050 -0.1882 -0.0508
 1759SOL     OW 6807   5.753   5.598   2.866 -0.2250 -0.3144  0.3908
 1759SOL    HW2 6808   5.790   5.679   2.832 -0.6345 -0.3483 -0.1496
 1759SOL    HW3 6809   5.774   5.532   2.800  0.8976 -0.8479  1.2467
 1759SOL    MW4 6810   5.761   5.600   2.853  0.0203 -0.2647  0.4261
 1760SOL     OW 6811   3.405   3.637   3.045 -0.1343  0.2738  0.3251
 1760SOL    HW2 6812   3.315   3.669   3.050 -0.6692 -1.1646  0.4422
 1760SOL    HW3 6813   3.405   3.580   2.968  1.0570  1.3399 -0.4940
 1760SOL    MW4 6814   3.393   3.634   3.035  0.2841 -0.2273  0.7515
 1761SOL     OW 6815   2.725   3.451   2.067 -0.1465  0.1820 -0.3091
 1761SOL    HW2 6816   2.779   3.407   2.133 -1.0277  3.0140  2.5848
 1761SOL    HW3 6817   2.788   3.493   2.008  0.6811 -1.6355 -0.7774
 1761SOL    MW4 6818   2.740   3.451   2.068  0.0583 -0.1338  0.4212
 1762SOL     OW 6819   2.077   5.126   5.969  0.5843 -0.2071  0.2507
 1762SOL    HW2 6820   2.124   5.095   6.047  1.2608 -2.2552 -0.8869
 1762SOL    HW3 6821   2.034   5.048   5.934 -2.8724  1.3699  0.5996
 1762SOL    MW4 6822   2.078   5.111   5.974  0.2068  0.7919 -0.3831
 1763SOL     OW 6823   3.429   3.803   4.776  0.3420  0.1268 -0.0554
 1763SOL    HW2 6824   3.519   3.811   4.809  0.7542 -2.0647 -0.4875
 1763SOL    HW3 6825   3.440   3.787   4.682 -0.5538  0.7400 -0.2685
 1763SOL    MW4 6826   3.443   3.802   4.768 -1.0761 -0.1523  0.6776
 1764SOL     OW 6827   1.353   6.201   3.150  0.0739  0.3812  0.5577
 1764SOL    HW2 6828   1.346   6.263   3.078  1.3948 -0.3174 -0.1974
 1764SOL    HW3 6829   1.280   6.140   3.135  0.5072  0.0695 -0.3763
 1764SOL    MW4 6830   1.342   6.201   3.139 -0.2392  0.4653  0.3621
 1765SOL     OW 6831   2.469   6.139   2.362  0.0282 -0.5812  0.1095
 1765SOL    HW2 6832   2.427   6.210   2.312  2.7915  0.7741 -0.4849
 1765SOL    HW3 6833   2.440   6.059   2.319 -0.7504  0.3642 -1.1983
 1765SOL    MW4 6834   2.460   6.138   2.350 -0.3093 -0.0837  0.3063
 1766SOL     OW 6835   2.698   4.282   5.764 -0.3304  0.8678 -0.1360
 1766SOL    HW2 6836   2.669   4.374   5.761  1.7457  1.6038  0.4121
 1766SOL    HW3 6837   2.618   4.232   5.776 -1.5664  2.5810 -0.7902
 1766SOL    MW4 6838   2.684   4.288   5.765  0.0630  0.3253 -0.2570
 1767SOL     OW 6839   5.295   3.451   5.911  0.3078 -0.3773  0.4464
 1767SOL    HW2 6840   5.328   3.539   5.891 -0.8405 -0.3398 -1.4721
 1767SOL    HW3 6841   5.239   3.429   5.837  0.0140 -2.4620  1.2368
 1767SOL    MW4 6842   5.292   3.460   5.899  0.3569  0.3582  0.1798
 1768SOL     OW 6843   4.891   0.889   5.154  0.0386 -0.2743  0.2359
 1768SOL    HW2 6844   4.926   0.954   5.215  2.7242 -1.9610  0.6850
 1768SOL    HW3 6845   4.796   0.897   5.162  0.2736  1.9380  2.0023
 1768SOL    MW4 6846   4.883   0.899   5.163 -0.0037  0.1533  0.1960
 1769SOL     OW 6847   3.312   1.762   4.888 -0.2092  0.2236 -0.3402
 1769SOL    HW2 6848   3.340   1.798   4.804 -0.8069  1.0462 -0.1969
 1769SOL    HW3 6849   3.270   1.835   4.933 -0.3243 -0.3318  0.4830
 1769SOL    MW4 6850   3.310   1.776   4.883  0.6704  0.5384  0.3426
 1770SOL     OW 6851   3.840   0.561   1.666  0.4385  0.7432  0.2360
 1770SOL    HW2 6852   3.854   0.530   1.755  1.8009  0.9556  0.1054
 1770SOL    HW3 6853   3.845   0.482   1.612  0.0521  0.6780  0.2882
 1770SOL    MW4 6854   3.842   0.547   1.670 -0.1826  0.8743  0.3404
 1771SOL     OW 6855   4.772   3.745   2.964  0.1376 -0.0530  0.7174
 1771SOL    HW2 6856   4.713   3.698   3.021 -0.3704  0.6774  0.8118
 1771SOL    HW3 6857   4.856   3.747   3.011  0.1836 -0.8993  0.6774
 1771SOL    MW4 6858   4.775   3.739   2.978 -0.2845  0.9390  0.3426
 1772SOL     OW 6859   2.010   2.374   4.711  0.4662  0.7383 -0.4032
 1772SOL    HW2 6860   1.995   2.344   4.801  1.1978 -0.5050 -0.6702
 1772SOL    HW3 6861   1.928   2.415   4.685 -0.1606  0.0311  0.4183
 1772SOL    MW4 6862   1.997   2.375   4.720 -0.0438  0.1485  0.3733
 1773SOL     OW 6863   4.158   4.961   4.545 -0.1961 -0.0585  0.0458
 1773SOL    HW2 6864   4.227   4.905   4.509  0.0240 -1.1682  1.9958
 1773SOL    HW3 6865   4.199   5.004   4.620 -0.6737  1.9744 -0.8065
 1773SOL    MW4 6866   4.172   4.959   4.550  0.3798 -0.3485 -0.3345
 1774SOL     OW 6867   4.253   4.376   1.293  0.2300  0.2909  0.4542
 1774SOL    HW2 6868   4.318   4.444   1.312  0.7275 -0.2618  0.7616
 1774SOL    HW3 6869   4.193   4.417   1.230  1.4604  0.4838 -0.6365
 1774SOL    MW4 6870   4.254   4.390   1.287  0.2215 -0.2506 -0.2588
 1775SOL     OW 6871   1.621   5.120   2.075  0.0750  0.2830 -0.6367
 1775SOL    HW2 6872   1.537   5.083   2.103  1.0917 -1.2113  0.6441
 1775SOL    HW3 6873   1.603   5.212   2.060 -1.6521  0.1364  0.2699
 1775SOL    MW4 6874   1.607   5.127   2.077 -0.3600 -0.2418  0.6152
 1776SOL     OW 6875   5.097   2.808   5.831  0.1283 -0.1711 -0.0381
 1776SOL    HW2 6876   5.007   2.796   5.862 -0.2697 -0.1725 -1.1229
 1776SOL    HW3 6877   5.130   2.882   5.882 -0.3214 -0.4666  0.7010
 1776SOL    MW4 6878   5.089   2.816   5.842  0.4607 -0.0252  0.7944
 1777SOL     OW 6879   3.303   5.461   4.288  0.6942  0.0654  0.1073
 1777SOL    HW2 6880   3.283   5.523   4.218  0.8872  1.3406  1.1443
 1777SOL    HW3 6881   3.357   5.394   4.247  1.7848  1.4115 -0.7099
 1777SOL    MW4 6882   3.307   5.460   4.273 -0.2865  0.2571  0.1483
 1778SOL     OW 6883   1.344   3.636   3.831 -0.0644 -0.6804 -0.5130
 1778SOL    HW2 6884   1.340   3.716   3.778 -1.3363 -0.7128 -0.4973
 1778SOL    HW3 6885   1.437   3.618   3.841  0.2526  0.8388 -0.4822
 1778SOL    MW4 6886   1.356   3.644   3.826 -0.6680 -0.1954  0.5076
 1779SOL     OW 6887   6.286   4.536   3.148  0.6231  0.4423  0.1326
 1779SOL    HW2 6888   6.243   4.621   3.133 -0.3312 -0.0305  0.1463
 1779SOL    HW3 6889   6.264   4.513   3.238  0.1337 -0.2330 -0.1509
 1779SOL    MW4 6890   6.278   4.544   3.158  0.4002  0.2456 -0.1321
 1780SOL     OW 6891   3.172   0.267   5.712 -0.0940  0.3381  0.0459
 1780SOL    HW2 6892   3.099   0.218   5.674  0.8940 -0.4974 -0.8344
 1780SOL    HW3 6893   3.131   0.322   5.779 -1.5000 -0.2528 -0.2827
 1780SOL    MW4 6894   3.157   0.268   5.716 -0.5715 -0.2563  0.0948
 1781SOL     OW 6895   5.323   3.414   2.097  0.3079 -0.1399  0.2693
 1781SOL    HW2 6896   5.255   3.421   2.030  2.0285  0.2745 -1.5289
 1781SOL    HW3 6897   5.371   3.496   2.091 -0.1517  0.4310  2.8892
 1781SOL    MW4 6898   5.320   3.426   2.087 -0.0200  0.7038 -0.1231
 1782SOL     OW 6899   0.970   2.258   0.778 -0.9321 -0.5312 -0.3058
 1782SOL    HW2 6900   1.058   2.290   0.759 -0.7478  0.1476  1.4517
 1782SOL    HW3 6901   0.983   2.170   0.814 -0.7300  0.3341  1.8808
 1782SOL    MW4 6902   0.983   2.251   0.781  0.4892  0.1051  0.0348
 1783SOL     OW 6903   2.826   5.679   3.923  0.3171  0.3212  0.1547
 1783SOL    HW2 6904   2.822   5.698   4.017  3.8057  1.8352  0.1759
 1783SOL    HW3 6905   2.797   5.589   3.915  2.3519 -0.7690  3.1584
 1783SOL    MW4 6906   2.822   5.670   3.934  0.4050 -0.2542 -0.3312
 1784SOL     OW 6907   4.257   1.290   2.921 -0.6582  0.2869  0.6243
 1784SOL    HW2 6908   4.307   1.310   3.000 -0.8851  1.4379  0.4988
 1784SOL    HW3 6909   4.240   1.196   2.925  2.8136 -0.4837 -0.0933
 1784SOL    MW4 6910   4.261   1.281   2.932  0.3109 -0.1337  0.1148
 1785SOL     OW 6911   5.046   1.149   3.296 -0.0340  0.3962  0.0140
 1785SOL    HW2 6912   5.135   1.118   3.314 -0.3368  0.2859  1.5078
 1785SOL    HW3 6913   5.040   1.232   3.342 -0.3719  0.9509 -1.0053
 1785SOL    MW4 6914   5.057   1.156   3.304  0.3722  0.5061  0.4674
 1786SOL     OW 6915   0.705   5.790   5.246  0.0258  0.6360  0.4925
 1786SOL    HW2 6916   0.750   5.857   5.194 -0.3970  1.2901  0.9470
 1786SOL    HW3 6917   0.709   5.824   5.336 -0.2877  0.0983  0.7090
 1786SOL    MW4 6918   0.712   5.804   5.251  0.3308  0.2764  0.3618
 1787SOL     OW 6919   4.875   5.153   0.961 -0.3338  0.3058 -0.1068
 1787SOL    HW2 6920   4.814   5.079   0.958  0.0739 -0.0792  0.8273
 1787SOL    HW3 6921   4.818   5.230   0.967 -0.7462  0.0049 -0.0742
 1787SOL    MW4 6922   4.859   5.153   0.961  0.6110  0.0817  0.1405
 1788SOL     OW 6923   2.833   4.052   6.001  0.6595  0.0960  0.3723
 1788SOL    HW2 6924   2.871   4.138   5.980  0.8502 -0.0782 -0.0040
 1788SOL    HW3 6925   2.749   4.072   6.041  0.5421  0.4492 -0.0443
 1788SOL    MW4 6926   2.827   4.066   6.004 -0.1025 -0.2281  0.3173
 1789SOL     OW 6927   4.754   5.542   0.697 -0.1478  0.1744  0.3815
 1789SOL    HW2 6928   4.756   5.466   0.639 -1.8129  1.1385 -1.0508
 1789SOL    HW3 6929   4.661   5.563   0.705  0.1707  1.0850  2.0743
 1789SOL    MW4 6930   4.742   5.535   0.690  0.2115  0.2610 -0.1476
 1790SOL     OW 6931   1.368   1.945   6.035 -0.5217 -0.1115  0.0808
 1790SOL    HW2 6932   1.322   1.869   6.069 -0.1849 -0.5234 -0.3766
 1790SOL    HW3 6933   1.339   2.018   6.091 -1.1071 -0.5070  0.3001
 1790SOL    MW4 6934   1.358   1.945   6.047 -0.2010  0.1531  0.6609
 1791SOL     OW 6935   3.111   2.907   0.402 -0.5441  0.0091 -0.7348
 1791SOL    HW2 6936   3.188   2.852   0.395 -0.2672 -0.0734  2.0697
 1791SOL    HW3 6937   3.043   2.849   0.436 -0.6311  1.0121  0.9058
 1791SOL    MW4 6938   3.112   2.892   0.405  0.0083  0.4199  0.3723
 1792SOL     OW 6939   2.199   2.877   0.415 -0.4661  1.1621  0.3091
 1792SOL    HW2 6940   2.124   2.818   0.404 -0.0793  0.6982  0.0898
 1792SOL    HW3 6941   2.162   2.958   0.449 -0.8513  0.3088  2.0173
 1792SOL    MW4 6942   2.184   2.880   0.418  0.2089  0.1084 -0.3367
 1793SOL     OW 6943   4.561   6.178   5.749 -0.1074 -0.0406  0.2815
 1793SOL    HW2 6944   4.640   6.131   5.723  0.4481 -0.4794  2.5012
 1793SOL    HW3 6945   4.496   6.157   5.682  1.5787  0.2239 -1.5277
 1793SOL    MW4 6946   4.563   6.169   5.737 -0.0275  0.3814  0.2314
 1794SOL     OW 6947   5.926   2.825   4.568  0.0965 -0.0657  0.1391
 1794SOL    HW2 6948   5.851   2.832   4.509 -1.3088  1.1265  1.9559
 1794SOL    HW3 6949   5.969   2.910   4.563  1.1131 -0.6143 -0.6006
 1794SOL    MW4 6950   5.921   2.837   4.560  0.4678  0.3300 -0.3105
 1795SOL     OW 6951   2.889   0.210   6.174 -0.7352  0.4350 -0.4393
 1795SOL    HW2 6952   2.887   0.230   6.268 -0.9975 -0.0175 -0.3480
 1795SOL    HW3 6953   2.813   0.255   6.138 -0.6531  0.5811 -0.4325
 1795SOL    MW4 6954   2.879   0.219   6.182 -0.0442 -0.5188  0.0090
 1796SOL     OW 6955   4.483   3.912   5.408 -0.3866  0.1133  0.5643
 1796SOL    HW2 6956   4.500   3.890   5.317 -2.1118 -1.1357  0.4975
 1796SOL    HW3 6957   4.434   3.837   5.442 -0.6265  0.9854  2.2471
 1796SOL    MW4 6958   4.479   3.899   5.401  0.2828  0.0373  0.4404
 1797SOL     OW 6959   5.272   0.903   5.548  0.2610 -0.1999  0.1175
 1797SOL    HW2 6960   5.365   0.916   5.529  0.2485 -0.2128  0.0460
 1797SOL    HW3 6961   5.242   0.987   5.581 -0.2530  0.5267 -2.0493
 1797SOL    MW4 6962   5.281   0.916   5.549 -0.0886  0.0038  0.2496
 1798SOL     OW 6963   5.377   2.592   3.876  0.1709 -0.1624 -0.0758
 1798SOL    HW2 6964   5.423   2.661   3.923 -0.7808  0.3666  0.1045
 1798SOL    HW3 6965   5.404   2.511   3.919  0.0984  0.2343  0.7279
 1798SOL    MW4 6966   5.386   2.590   3.888 -0.5405 -0.0802 -0.0513
 1799SOL     OW 6967   2.611   4.644   3.265  0.0203 -0.2784  0.0985
 1799SOL    HW2 6968   2.592   4.563   3.312 -0.5429 -0.2175 -0.0096
 1799SOL    HW3 6969   2.525   4.674   3.234  0.1321  0.7491  0.7568
 1799SOL    MW4 6970   2.597   4.637   3.267 -0.4037 -0.2858  0.0694
 1800SOL     OW 6971   0.624   2.644   1.804 -0.4280 -0.6122  0.0502
 1800SOL    HW2 6972   0.651   2.719   1.752  0.1514 -1.6116 -1.1285
 1800SOL    HW3 6973   0.529   2.641   1.795 -0.2498 -1.4469 -1.9589
 1800SOL    MW4 6974   0.615   2.653   1.796 -0.2631 -0.6486 -0.1411
 1801SOL     OW 6975   5.628   2.347   0.197  0.1241  0.3560 -0.0529
 1801SOL    HW2 6976   5.560   2.311   0.139  0.2333  1.4984 -0.9129
 1801SOL    HW3 6977   5.585   2.352   0.283  0.0576 -1.6343  0.0780
 1801SOL    MW4 6978   5.613   2.343   0.201 -0.2646 -0.1191 -0.4433
 1802SOL     OW 6979   1.872   3.470   0.474  0.2567  0.0187  0.3849
 1802SOL    HW2 6980   1.879   3.536   0.543 -1.7719  1.3273 -0.5320
 1802SOL    HW3 6981   1.924   3.506   0.402 -1.2132  0.9267 -0.2757
 1802SOL    MW4 6982   1.880   3.484   0.473 -0.4672  0.1494 -0.6271
 1803SOL     OW 6983   6.091   4.426   0.016 -0.1172  0.1073 -0.0473
 1803SOL    HW2 6984   6.138   4.419   0.099 -0.5030 -1.4640  0.0771
 1803SOL    HW3 6985   6.100   4.518  -0.009  1.9916  0.1344  0.5654
 1803SOL    MW4 6986   6.099   4.437   0.024 -0.0079  0.0121  0.0728
 1804SOL     OW 6987   0.216   2.585   2.160  0.0248  0.5830 -0.0635
 1804SOL    HW2 6988   0.244   2.667   2.120 -1.4452  0.3478 -1.6826
 1804SOL    HW3 6989   0.281   2.520   2.132  1.4514  1.2197  1.5958
 1804SOL    MW4 6990   0.228   2.587   2.151 -0.3252  0.1764 -1.0647
 1805SOL     OW 6991   0.754   5.667   4.144 -0.4446  0.5740 -0.2510
 1805SOL    HW2 6992   0.815   5.606   4.101 -2.5814 -2.3293  0.4748
 1805SOL    HW3 6993   0.669   5.646   4.105 -1.5298  2.0617  1.1947
 1805SOL    MW4 6994   0.750   5.656   4.133 -0.0936  0.2608  0.1045
 1806SOL     OW 6995   3.669   2.773   4.552  0.3020 -0.0531  0.1242
 1806SOL    HW2 6996   3.756   2.745   4.524 -0.5362 -2.2567 -0.5378
 1806SOL    HW3 6997   3.669   2.868   4.541  2.9608  0.1489  1.2004
 1806SOL    MW4 6998   3.680   2.782   4.547  0.4350  0.4120  0.3838
 1807SOL     OW 6999   1.468   5.777   3.860 -0.3105  0.3843 -0.1095
 1807SOL    HW2 7000   1.447   5.758   3.769 -0.6799  1.0136 -0.1684
 1807SOL    HW3 7001   1.421   5.859   3.878  0.5573  0.7975  0.3477
 1807SOL    MW4 7002   1.459   5.785   3.850  0.2593  0.1095 -0.2338
 1808SOL     OW 7003   5.513   1.917   0.197 -0.0752 -0.4327 -0.0534
 1808SOL    HW2 7004   5.570   1.939   0.123 -1.6029 -0.1353 -1.2013
 1808SOL    HW3 7005   5.492   1.825   0.184 -0.2035 -0.4302  0.1297
 1808SOL    MW4 7006   5.518   1.908   0.186 -0.5588 -0.8527  0.4133
 1809SOL     OW 7007   0.135   5.606   5.722 -0.7263  0.0528  0.0853
 1809SOL    HW2 7008   0.083   5.538   5.765 -0.6813  0.3405  0.5949
 1809SOL    HW3 7009   0.074   5.679   5.710 -0.5838  0.1880  0.1868
 1809SOL    MW4 7010   0.120   5.607   5.726 -0.1633  0.0122  0.4371
 1810SOL     OW 7011   3.006   0.558   1.799 -0.1004 -0.5181 -0.4942
 1810SOL    HW2 7012   2.968   0.474   1.773 -1.0796 -1.0276  2.2410
 1810SOL    HW3 7013   3.082   0.535   1.852 -0.7757  0.2543  0.8628
 1810SOL    MW4 7014   3.011   0.544   1.802 -0.0204  0.0254  0.0962
 1811SOL     OW 7015   4.434   5.388   6.168 -0.2324 -0.5890 -0.7770
 1811SOL    HW2 7016   4.398   5.424   6.087  0.8144  0.8593 -0.6325
 1811SOL    HW3 7017   4.371   5.413   6.235 -0.5787 -0.8905 -0.9854
 1811SOL    MW4 7018   4.421   5.396   6.166  0.1485 -0.2904 -0.4608
 1812SOL     OW 7019   5.202   1.490   1.915 -0.2233  0.0722  0.5605
 1812SOL    HW2 7020   5.253   1.426   1.865 -1.2465 -0.0898 -0.3149
 1812SOL    HW3 7021   5.250   1.572   1.905 -0.4298  0.0635 -0.7886
 1812SOL    MW4 7022   5.215   1.492   1.907 -0.0128 -0.0739 -0.3626
 1813SOL     OW 7023   2.178   5.416   5.892 -0.0878 -0.4682 -0.7286
 1813SOL    HW2 7024   2.118   5.466   5.836 -0.0554  0.4505  0.0339
 1813SOL    HW3 7025   2.148   5.326   5.884 -2.3513  0.0950  0.5255
 1813SOL    MW4 7026   2.166   5.411   5.883  0.1966 -0.0948 -0.2571
 1814SOL     OW 7027   2.490   3.889   2.602  0.5251  0.2293 -0.7665
 1814SOL    HW2 7028   2.424   3.889   2.533  0.0641  1.2313 -0.3550
 1814SOL    HW3 7029   2.470   3.967   2.654  2.4534  0.9412 -1.0059
 1814SOL    MW4 7030   2.479   3.900   2.600 -0.4170 -0.0860 -0.0933
 1815SOL     OW 7031   2.751   1.879   3.422 -0.1338 -0.1236 -0.2853
 1815SOL    HW2 7032   2.844   1.887   3.444  0.4968 -1.5455 -2.1485
 1815SOL    HW3 7033   2.708   1.861   3.506  1.4180 -0.4255  0.4846
 1815SOL    MW4 7034   2.758   1.877   3.436  0.5338  0.5166 -0.4456
 1816SOL     OW 7035   4.848   0.987   0.504  0.0380  0.0666  0.3662
 1816SOL    HW2 7036   4.848   0.952   0.593 -2.2875  0.5006  0.5991
 1816SOL    HW3 7037   4.834   0.911   0.447 -1.8234  0.1617  0.6466
 1816SOL    MW4 7038   4.846   0.972   0.508  0.7483 -0.1220 -0.3435
 1817SOL     OW 7039   2.258   1.181   4.271  0.8969 -0.1457  0.1535
 1817SOL    HW2 7040   2.221   1.116   4.331 -0.3098  1.2017  0.9456
 1817SOL    HW3 7041   2.247   1.144   4.184 -1.2893 -0.3200  0.4668
 1817SOL    MW4 7042   2.252   1.168   4.268 -0.8760 -0.7196 -0.7706
 1818SOL     OW 7043   1.535   0.717   5.868  0.6880  0.3352 -0.1797
 1818SOL    HW2 7044   1.551   0.811   5.867  2.2914  0.0937  0.1370
 1818SOL    HW3 7045   1.579   0.686   5.947 -0.8088 -0.5422  0.3650
 1818SOL    MW4 7046   1.543   0.725   5.879  0.1010  0.0227  0.0723
 1819SOL     OW 7047   0.462   0.717   0.866  0.2582 -0.0142  0.0042
 1819SOL    HW2 7048   0.410   0.789   0.832  0.2519  0.6559  1.3611
 1819SOL    HW3 7049   0.546   0.725   0.821 -1.2107 -2.1751 -3.5746
 1819SOL    MW4 7050   0.466   0.727   0.856 -0.1701 -0.0929 -0.1369
 1820SOL     OW 7051   0.309   4.082   2.346  0.5706 -0.2594 -0.2007
 1820SOL    HW2 7052   0.235   4.075   2.406 -0.1117 -1.3120 -1.1332
 1820SOL    HW3 7053   0.369   4.143   2.390 -0.1935 -0.4789  1.2269
 1820SOL    MW4 7054   0.307   4.089   2.360  0.8270 -0.1517 -0.4978
 1821SOL     OW 7055   0.170   0.278   0.046  0.0867 -0.3212  0.2524
 1821SOL    HW2 7056   0.116   0.299   0.122 -0.8061 -0.5149 -0.3107
 1821SOL    HW3 7057   0.245   0.337   0.053  0.1963 -0.5718  1.4597
 1821SOL    MW4 7058   0.173   0.289   0.057 -0.0315  0.6958  0.2833
 1822SOL     OW 7059   0.262   4.146   0.725  0.2508 -0.2131  0.0287
 1822SOL    HW2 7060   0.223   4.177   0.644  0.6886  0.6867  0.1529
 1822SOL    HW3 7061   0.202   4.176   0.794  1.0741  1.0978  0.2129
 1822SOL    MW4 7062   0.249   4.154   0.723  0.6618 -0.6275  0.4142
 1823SOL     OW 7063   4.761   0.021   5.598  0.0486  0.3841  0.1639
 1823SOL    HW2 7064   4.774  -0.029   5.517  0.7338  0.6549  0.0963
 1823SOL    HW3 7065   4.820  -0.019   5.661 -0.0950  0.5120  0.3806
 1823SOL    MW4 7066   4.770   0.010   5.596  0.1182  0.1425 -0.4672
 1824SOL     OW 7067   6.024   2.021   3.032  0.6086 -0.5367  0.0472
 1824SOL    HW2 7068   5.934   2.043   3.056  1.8685  3.6271  2.0306
 1824SOL    HW3 7069   6.026   2.027   2.937 -0.7808  1.9327  0.0928
 1824SOL    MW4 7070   6.013   2.025   3.023  0.1552  0.9278  0.1513
 1825SOL     OW 7071   4.841   4.459   1.360  0.2718  0.1559 -0.0497
 1825SOL    HW2 7072   4.769   4.397   1.374  0.3957  0.0416  0.0990
 1825SOL    HW3 7073   4.849   4.505   1.444  0.6994 -0.1885  0.1043
 1825SOL    MW4 7074   4.833   4.457   1.373  0.0285 -0.2248 -0.4387
 1826SOL     OW 7075   5.171   3.701   5.283 -0.9607 -0.0758  0.4185
 1826SOL    HW2 7076   5.115   3.667   5.353 -2.8473 -0.9982 -1.4384
 1826SOL    HW3 7077   5.111   3.745   5.223  0.4602 -0.0191 -1.0204
 1826SOL    MW4 7078   5.156   3.702   5.284 -0.9307  0.0346 -0.3508
 1827SOL     OW 7079   4.709   5.874   3.149 -0.6489 -0.1210  0.3435
 1827SOL    HW2 7080   4.762   5.799   3.120 -1.5456  0.0430 -1.8870
 1827SOL    HW3 7081   4.756   5.906   3.226  2.1174 -0.4505 -1.0472
 1827SOL    MW4 7082   4.722   5.868   3.156 -0.1001 -0.7258 -0.8108
 1828SOL     OW 7083   5.982   3.858   3.850  0.5270 -0.2874 -0.5038
 1828SOL    HW2 7084   5.916   3.915   3.888 -0.4065 -2.0377  0.6748
 1828SOL    HW3 7085   6.034   3.829   3.925  1.4300 -0.4171 -1.1632
 1828SOL    MW4 7086   5.980   3.861   3.865  0.3017  0.4033  0.1258
 1829SOL     OW 7087   2.534   5.229   4.736  0.6834  0.9657 -0.2498
 1829SOL    HW2 7088   2.567   5.290   4.802 -1.1017  0.4493  1.2119
 1829SOL    HW3 7089   2.489   5.161   4.787 -0.6039  0.4377 -2.0044
 1829SOL    MW4 7090   2.532   5.228   4.751 -0.0945  0.0887  0.0979
 1830SOL     OW 7091   0.841   3.596   3.440  0.3140 -0.3120  0.1739
 1830SOL    HW2 7092   0.824   3.689   3.452 -1.3942 -0.7646  1.6391
 1830SOL    HW3 7093   0.779   3.552   3.498  0.2352 -2.4040 -1.3636
 1830SOL    MW4 7094   0.831   3.603   3.449 -0.6705 -0.3579  0.6516
 1831SOL     OW 7095   2.835   2.349   1.498  0.0315  0.1913  0.0462
 1831SOL    HW2 7096   2.863   2.262   1.470 -0.7696 -0.5005  1.3111
 1831SOL    HW3 7097   2.887   2.409   1.445  1.8186 -1.0379  0.3161
 1831SOL    MW4 7098   2.845   2.346   1.487 -0.2798 -0.1062 -0.2476
 1832SOL     OW 7099   3.281   0.233   6.352 -0.3338 -0.1625 -0.3717
 1832SOL    HW2 7100   3.356   0.175   6.363  0.2817  0.9143  1.4101
 1832SOL    HW3 7101   3.208   0.174   6.333  0.8834 -1.2413 -1.9222
 1832SOL    MW4 7102   3.281   0.217   6.351 -0.4021  0.0198 -0.1950
 1833SOL     OW 7103   4.642   1.505   3.741 -0.2935  0.1028  0.1867
 1833SOL    HW2 7104   4.596   1.427   3.709  1.9521 -1.9410  1.5698
 1833SOL    HW3 7105   4.573   1.567   3.762 -2.1136 -0.5993 -2.9838
 1833SOL    MW4 7106   4.627   1.503   3.739  0.3650 -0.0215  0.1489
 1834SOL     OW 7107   3.490   1.759   3.602 -0.4032 -0.1986 -0.4232
 1834SOL    HW2 7108   3.514   1.814   3.528  1.6445 -1.9071 -1.1212
 1834SOL    HW3 7109   3.541   1.794   3.676 -1.8562  1.0175  0.0593
 1834SOL    MW4 7110   3.500   1.771   3.602 -0.7085 -0.3296  0.0482
 1835SOL     OW 7111   2.018   5.501   1.178  0.0380 -0.2339 -0.5179
 1835SOL    HW2 7112   2.093   5.472   1.126  0.6346 -0.8234  0.6473
 1835SOL    HW3 7113   1.945   5.448   1.147  0.6102 -1.3115 -0.0552
 1835SOL    MW4 7114   2.019   5.490   1.167 -1.0716 -0.4439  0.2942
 1836SOL     OW 7115   3.905   5.255   5.381 -0.1244 -0.4953 -0.0403
 1836SOL    HW2 7116   3.812   5.231   5.377 -0.9947  2.5217 -2.2523
 1836SOL    HW3 7117   3.914   5.302   5.464  0.2374 -3.2385  1.5720
 1836SOL    MW4 7118   3.894   5.258   5.392  0.5706  0.4077  0.9281
 1837SOL     OW 7119   0.953   4.396   4.387  0.3467 -0.1673 -0.1446
 1837SOL    HW2 7120   0.949   4.441   4.303  1.4669  2.9468  1.2801
 1837SOL    HW3 7121   0.867   4.413   4.427  0.8342  1.0509  0.4701
 1837SOL    MW4 7122   0.941   4.404   4.381 -0.4332 -0.6683  0.1606
 1838SOL     OW 7123   1.823   2.852   2.770  0.0971  0.2634  0.5930
 1838SOL    HW2 7124   1.736   2.891   2.767 -0.4296 -0.7478  1.7747
 1838SOL    HW3 7125   1.856   2.862   2.681 -2.4133 -1.8818 -0.7363
 1838SOL    MW4 7126   1.816   2.858   2.758  0.6230  0.2737 -0.0348
 1839SOL     OW 7127   3.921   1.012   4.335 -0.0386 -0.1624 -0.2134
 1839SOL    HW2 7128   3.907   0.928   4.379  0.8875  1.0346  2.6585
 1839SOL    HW3 7129   3.958   1.069   4.403 -1.2721  2.8085 -1.8072
 1839SOL    MW4 7130   3.924   1.009   4.350  0.4293  0.7438 -0.5416
 1840SOL     OW 7131   2.790   2.590   0.271 -0.3578 -0.0321  0.1800
 1840SOL    HW2 7132   2.885   2.600   0.283 -0.2725  0.0892 -0.5719
 1840SOL    HW3 7133   2.762   2.672   0.230 -0.6414 -0.4292 -0.4277
 1840SOL    MW4 7134   2.799   2.602   0.267  0.0952  0.0061 -0.1479
 1841SOL     OW 7135   6.204   5.014   6.307 -0.1484 -0.4234  0.2581
 1841SOL    HW2 7136   6.263   5.067   6.252  1.8898 -1.1977  1.5861
 1841SOL    HW3 7137   6.258   4.986   6.381 -1.8857 -2.2071  0.9534
 1841SOL    MW4 7138   6.219   5.018   6.310  0.3726  0.2836  0.0955
 1842SOL     OW 7139   6.137   2.975   4.924  0.8197  1.3084 -0.9344
 1842SOL    HW2 7140   6.124   2.937   5.011  0.6398  0.5639 -1.2726
 1842SOL    HW3 7141   6.232   2.978   4.913  0.8505 -0.2503 -1.3873
 1842SOL    MW4 7142   6.148   2.970   4.934  0.5091  0.1786 -0.3434
 1843SOL     OW 7143   6.387   5.983   1.918 -0.4380  0.1952 -0.3342
 1843SOL    HW2 7144   6.461   5.927   1.941  0.4331  1.9943  1.4484
 1843SOL    HW3 7145   6.416   6.030   1.840 -0.3018 -0.1575 -0.5007
 1843SOL    MW4 7146   6.400   5.981   1.910  0.2371  0.3885  0.1881
 1844SOL     OW 7147   5.237   2.539   6.392  0.5259 -0.0100 -0.2571
 1844SOL    HW2 7148   5.298   2.611   6.402  0.9874 -0.4802  0.4451
 1844SOL    HW3 7149   5.277   2.466   6.440 -0.7041 -0.2496  0.4680
 1844SOL    MW4 7150   5.250   2.539   6.400 -0.6048  0.4799  0.0927
 1845SOL     OW 7151   3.864   5.927   6.150 -0.2239 -0.4482  0.2840
 1845SOL    HW2 7152   3.853   5.869   6.225 -2.0273  1.2953  1.5076
 1845SOL    HW3 7153   3.878   5.869   6.076 -2.8113 -2.5643  1.2658
 1845SOL    MW4 7154   3.864   5.912   6.150  0.6854  0.5726  0.0916
 1846SOL     OW 7155   3.540   4.712   0.127 -0.3817 -0.3192 -0.2097
 1846SOL    HW2 7156   3.548   4.784   0.065  1.6811  0.1001  0.4805
 1846SOL    HW3 7157   3.461   4.732   0.177 -1.2628  0.0902 -1.6940
 1846SOL    MW4 7158   3.530   4.724   0.125  0.0835 -0.2562  0.3642
 1847SOL     OW 7159   4.999   1.818   0.922 -0.1644  0.3743 -0.6824
 1847SOL    HW2 7160   4.967   1.845   0.836 -0.7054  1.4854 -0.1554
 1847SOL    HW3 7161   4.966   1.729   0.933 -1.2515  0.7118 -1.0686
 1847SOL    MW4 7162   4.990   1.810   0.912  0.0516  0.1566  0.6026
 1848SOL     OW 7163   0.791   1.050   3.081  0.2159 -0.2462 -0.0229
 1848SOL    HW2 7164   0.724   1.109   3.047 -1.1037 -1.3777  0.5458
 1848SOL    HW3 7165   0.840   1.104   3.144 -2.2243 -0.2010  2.0002
 1848SOL    MW4 7166   0.789   1.065   3.085 -0.5110  0.2644  0.2675
 1849SOL     OW 7167   2.063   5.785   0.840 -0.4775  0.3374 -0.0594
 1849SOL    HW2 7168   2.113   5.823   0.912 -0.1731 -1.0754  0.5093
 1849SOL    HW3 7169   2.120   5.796   0.763  0.1940 -0.1502  0.3536
 1849SOL    MW4 7170   2.077   5.791   0.839 -0.1513  1.1333  0.6220
 1850SOL     OW 7171   1.146   4.070   4.766  0.2239 -0.2346  0.3939
 1850SOL    HW2 7172   1.241   4.070   4.778  0.3203 -0.8381 -0.3023
 1850SOL    HW3 7173   1.111   4.028   4.844  0.4147  1.3540  1.3801
 1850SOL    MW4 7174   1.154   4.065   4.778  0.0706  0.2786 -1.0304
 1851SOL     OW 7175   4.057   2.369   0.957  0.0564 -0.1974  0.3394
 1851SOL    HW2 7176   4.050   2.362   1.052  0.7499 -3.2668  0.2710
 1851SOL    HW3 7177   4.148   2.346   0.938 -0.0366  0.5157 -1.0899
 1851SOL    MW4 7178   4.068   2.365   0.967 -0.1019  0.9003  0.0214
 1852SOL     OW 7179   4.876   2.335   0.030 -0.1592  0.0257  0.5294
 1852SOL    HW2 7180   4.925   2.272  -0.022 -0.5406 -0.3943  0.6708
 1852SOL    HW3 7181   4.901   2.420  -0.004 -0.7418 -0.2570 -0.6434
 1852SOL    MW4 7182   4.885   2.338   0.019  0.0789  0.4911 -0.3751
 1853SOL     OW 7183   5.040   3.759   5.896 -0.5654  0.2231  0.5493
 1853SOL    HW2 7184   5.021   3.665   5.888 -0.4577  0.2503 -0.1368
 1853SOL    HW3 7185   5.027   3.793   5.807  0.9810  0.5607  0.4388
 1853SOL    MW4 7186   5.035   3.751   5.883 -0.4700  0.0466  0.7069
 1854SOL     OW 7187   0.614   1.705   0.306 -0.1352 -0.4014  0.2770
 1854SOL    HW2 7188   0.535   1.751   0.335 -1.3199 -0.5265 -2.4727
 1854SOL    HW3 7189   0.582   1.623   0.271  1.4131 -1.0687  0.3706
 1854SOL    MW4 7190   0.599   1.701   0.305  0.2678 -0.0778 -0.0768
 1855SOL     OW 7191   2.144   2.086   3.166  0.1489 -0.1316 -0.1167
 1855SOL    HW2 7192   2.180   2.111   3.251 -1.5257 -0.1191  0.6210
 1855SOL    HW3 7193   2.220   2.087   3.106  1.3932 -0.3424  1.3953
 1855SOL    MW4 7194   2.159   2.089   3.169 -0.5850 -0.3801  0.1072
 1856SOL     OW 7195   1.947   3.480   5.646  0.2208 -0.2608 -0.2994
 1856SOL    HW2 7196   1.929   3.391   5.677 -0.5288 -0.3160 -0.8621
 1856SOL    HW3 7197   1.994   3.467   5.564 -1.3567 -0.1858 -1.2593
 1856SOL    MW4 7198   1.951   3.466   5.639  0.8315  0.1174 -0.3674
 1857SOL     OW 7199   1.389   5.241   1.469  0.3131  0.3643  0.4345
 1857SOL    HW2 7200   1.372   5.217   1.560 -1.7075  1.4779  0.4126
 1857SOL    HW3 7201   1.318   5.201   1.420  2.2044 -1.5125 -0.9414
 1857SOL    MW4 7202   1.378   5.232   1.475  0.1365  0.2647 -0.7760
 1858SOL     OW 7203   1.545   6.402   3.922  0.2484  0.7781 -0.9163
 1858SOL    HW2 7204   1.613   6.390   3.856 -0.3210 -2.0967 -1.1314
 1858SOL    HW3 7205   1.592   6.431   4.000  1.5273  0.2834 -1.4706
 1858SOL    MW4 7206   1.560   6.404   3.924 -0.0173 -0.1771  0.2591
 1859SOL     OW 7207   2.440   1.581   6.297  0.1547 -0.4284  0.7366
 1859SOL    HW2 7208   2.464   1.649   6.235  0.1611 -0.6302  0.5177
 1859SOL    HW3 7209   2.376   1.527   6.250  0.6286 -0.9502  0.6826
 1859SOL    MW4 7210   2.434   1.582   6.283  0.0106 -0.5697 -0.0716
 1860SOL     OW 7211   5.744   3.734   5.351 -0.6118  0.2584 -0.0999
 1860SOL    HW2 7212   5.748   3.706   5.442  0.6051  0.0839 -0.1927
 1860SOL    HW3 7213   5.815   3.688   5.308 -1.3817  0.0733 -1.2317
 1860SOL    MW4 7214   5.754   3.724   5.357  0.3730 -0.0393  0.1848
 1861SOL     OW 7215   1.948   3.336   1.301  0.4684 -0.5605 -0.2767
 1861SOL    HW2 7216   1.918   3.426   1.291  1.4399 -0.0972  0.7028
 1861SOL    HW3 7217   1.872   3.282   1.279 -0.3041  0.5089 -0.2770
 1861SOL    MW4 7218   1.934   3.341   1.297  0.3574 -0.5293 -0.7724
 1862SOL     OW 7219   3.246   0.670   0.559 -0.7161  0.1534  0.1497
 1862SOL    HW2 7220   3.339   0.654   0.543 -0.6007 -0.1450  1.0705
 1862SOL    HW3 7221   3.201   0.618   0.492 -0.2666 -1.6563  1.1865
 1862SOL    MW4 7222   3.252   0.661   0.548  1.0037 -0.3396 -0.4425
 1863SOL     OW 7223   5.367   1.278   0.770 -0.1150 -0.2829 -0.2937
 1863SOL    HW2 7224   5.381   1.300   0.862  0.4614 -1.6777 -0.0259
 1863SOL    HW3 7225   5.317   1.352   0.735  1.3539  1.2349  0.6386
 1863SOL    MW4 7226   5.363   1.291   0.777  0.0049  0.4305 -0.2418
 1864SOL     OW 7227   1.139   2.979   2.999  0.0554  0.2180 -0.1191
 1864SOL    HW2 7228   1.160   3.009   2.911 -0.6216 -0.1583 -0.4226
 1864SOL    HW3 7229   1.051   3.014   3.015  0.5775  1.1441  0.8159
 1864SOL    MW4 7230   1.130   2.987   2.989  0.1958  0.8188 -0.2694
 1865SOL     OW 7231   3.000   1.153   4.796  0.6145 -0.1639 -0.4045
 1865SOL    HW2 7232   3.038   1.069   4.770 -0.1091 -0.7945  0.4803
 1865SOL    HW3 7233   2.905   1.140   4.785  0.5767  1.0958 -1.8012
 1865SOL    MW4 7234   2.992   1.140   4.791 -0.3850  0.6531  0.6639
 1866SOL     OW 7235   2.384   2.176   0.878  0.0667  0.3130 -0.2614
 1866SOL    HW2 7236   2.379   2.128   0.960 -0.9096  1.0160  0.1117
 1866SOL    HW3 7237   2.295   2.172   0.843  0.7203 -1.0140 -1.9130
 1866SOL    MW4 7238   2.372   2.169   0.884  0.1093  0.3136  0.4694
 1867SOL     OW 7239   3.603   3.486   6.307 -0.9089  0.3239  0.0252
 1867SOL    HW2 7240   3.585   3.409   6.361  0.1747 -1.1301 -1.6117
 1867SOL    HW3 7241   3.696   3.482   6.288 -1.3360  0.4651 -2.3883
 1867SOL    MW4 7242   3.613   3.476   6.312 -0.3212 -0.3205 -0.3605
 1868SOL     OW 7243   0.143   5.364   6.230  0.4344  0.2936  0.0856
 1868SOL    HW2 7244   0.066   5.356   6.175  0.1312  0.1242  0.5268
 1868SOL    HW3 7245   0.111   5.348   6.319  0.7655  1.3007  0.4078
 1868SOL    MW4 7246   0.129   5.361   6.235  0.2020 -0.3816 -0.1663
 1869SOL     OW 7247   5.490   4.844   5.693  0.5858 -0.0938 -0.0205
 1869SOL    HW2 7248   5.460   4.757   5.720  1.8223 -1.1118 -1.7408
 1869SOL    HW3 7249   5.435   4.905   5.743  0.1344 -1.8359  1.7310
 1869SOL    MW4 7250   5.479   4.841   5.703  0.3109 -0.0371 -0.0710
 1870SOL     OW 7251   6.021   0.702   3.218  0.0471  0.4271 -0.7552
 1870SOL    HW2 7252   6.085   0.770   3.194  0.1481  1.2676  1.5747
 1870SOL    HW3 7253   5.936   0.746   3.213  0.1585  0.9525  1.2933
 1870SOL    MW4 7254   6.018   0.717   3.214 -0.1616 -0.3267  0.0906
 1871SOL     OW 7255   3.347   3.740   2.128 -0.2614  0.4552 -0.3424
 1871SOL    HW2 7256   3.286   3.667   2.134  2.4466 -1.8620  2.6461
 1871SOL    HW3 7257   3.366   3.764   2.219  2.9326  1.2546 -1.0670
 1871SOL    MW4 7258   3.342   3.734   2.140 -0.6792  0.0611 -0.0591
 1872SOL     OW 7259   4.794   4.002   4.896 -0.2582  0.1673 -0.1294
 1872SOL    HW2 7260   4.841   3.942   4.838 -0.4419  1.0485 -1.2186
 1872SOL    HW3 7261   4.709   3.961   4.909 -0.4438  0.2601 -1.0001
 1872SOL    MW4 7262   4.789   3.988   4.890  0.0925 -0.0679  0.0952
 1873SOL     OW 7263   1.616   6.408   5.351 -1.2337 -0.1859  0.0455
 1873SOL    HW2 7264   1.671   6.387   5.275  0.2481  2.0180  0.4177
 1873SOL    HW3 7265   1.564   6.483   5.323 -1.7123 -0.2376  0.7733
 1873SOL    MW4 7266   1.617   6.415   5.337 -0.7779 -0.2190  0.2383
 1874SOL     OW 7267   2.511   5.513   5.756  0.4699 -0.0588 -0.2869
 1874SOL    HW2 7268   2.478   5.448   5.818  0.9110 -0.8190 -0.8220
 1874SOL    HW3 7269   2.581   5.558   5.803  1.7209 -1.5481 -0.6400
 1874SOL    MW4 7270   2.516   5.510   5.770 -0.0552  0.0799 -0.3720
 1875SOL     OW 7271   5.234   5.085   1.608 -0.0577  0.2026  0.2893
 1875SOL    HW2 7272   5.326   5.099   1.591  0.6982 -1.3010  2.6024
 1875SOL    HW3 7273   5.191   5.166   1.579  1.3933 -0.3156 -4.0892
 1875SOL    MW4 7274   5.240   5.097   1.602  0.2646 -0.7725 -0.1817
 1876SOL     OW 7275   6.409   1.790   4.384 -0.0745 -0.0990 -0.4833
 1876SOL    HW2 7276   6.382   1.801   4.475  0.2062  0.0614 -0.4178
 1876SOL    HW3 7277   6.494   1.835   4.378 -1.4087  2.5131 -1.5418
 1876SOL    MW4 7278   6.417   1.797   4.395  0.0386  0.6666 -0.4757
 1877SOL     OW 7279   3.812   0.989   3.364  0.1702  0.2371 -0.2238
 1877SOL    HW2 7280   3.757   1.063   3.335 -0.7239 -0.5638 -0.6326
 1877SOL    HW3 7281   3.750   0.927   3.401  1.1776  0.7548  2.5145
 1877SOL    MW4 7282   3.796   0.991   3.365  0.5732  0.4600  0.3344
 1878SOL     OW 7283   0.205   1.167   5.199  0.0067  0.4527 -0.2814
 1878SOL    HW2 7284   0.267   1.103   5.233  0.6203  0.7055 -0.9193
 1878SOL    HW3 7285   0.189   1.227   5.272  0.2500  0.1885 -0.0116
 1878SOL    MW4 7286   0.211   1.167   5.213  0.7419  0.1817  0.0329
 1879SOL     OW 7287   5.138   3.763   4.244 -0.4975  0.2342 -0.2718
 1879SOL    HW2 7288   5.120   3.822   4.318 -1.7823 -0.9660  0.4406
 1879SOL    HW3 7289   5.061   3.772   4.188 -0.8513 -0.9306 -0.0085
 1879SOL    MW4 7290   5.125   3.772   4.247  0.0608 -0.0510  0.0015
 1880SOL     OW 7291   1.506   3.965   5.925  0.1990  0.1248  0.0483
 1880SOL    HW2 7292   1.569   3.923   5.983 -0.3180  0.1970  0.6638
 1880SOL    HW3 7293   1.421   3.930   5.952 -0.1268  0.7587 -0.1384
 1880SOL    MW4 7294   1.503   3.955   5.936  0.0603  0.5908 -0.8035
 1881SOL     OW 7295   3.644   3.889   2.582  0.2211 -0.6542  0.5066
 1881SOL    HW2 7296   3.699   3.967   2.580  0.3359 -0.7334 -1.4532
 1881SOL    HW3 7297   3.585   3.903   2.656 -0.3511  1.7255 -0.3064
 1881SOL    MW4 7298   3.643   3.901   2.591 -0.4072  0.6086  0.3142
 1882SOL     OW 7299   5.911   6.112   3.917 -0.1012  0.4246  0.2335
 1882SOL    HW2 7300   5.906   6.017   3.924  0.6376  0.1425 -2.2567
 1882SOL    HW3 7301   5.978   6.137   3.981  0.8101 -0.9011 -0.1677
 1882SOL    MW4 7302   5.919   6.103   3.927 -0.9109 -0.1437  0.2125
 1883SOL     OW 7303   0.879   4.311   6.208 -0.0210  0.1843  0.4871
 1883SOL    HW2 7304   0.795   4.272   6.188  1.4358 -2.5047 -0.9683
 1883SOL    HW3 7305   0.912   4.262   6.283  0.7769  0.3446  0.2523
 1883SOL    MW4 7306   0.873   4.300   6.215 -0.2556  0.0629 -0.7450
 1884SOL     OW 7307   5.570   1.140   4.073  0.4210  0.0930 -0.2870
 1884SOL    HW2 7308   5.563   1.097   4.158  0.2908 -0.0548 -0.3716
 1884SOL    HW3 7309   5.664   1.143   4.056  0.4376 -0.0552 -0.2275
 1884SOL    MW4 7310   5.582   1.134   4.082  0.4906 -0.2283  0.4642
 1885SOL     OW 7311   3.743   2.104   0.765  0.2819  0.6851 -0.1744
 1885SOL    HW2 7312   3.769   2.109   0.857  0.7972 -1.0607 -0.1856
 1885SOL    HW3 7313   3.690   2.025   0.759 -0.7844  1.4303 -1.1698
 1885SOL    MW4 7314   3.739   2.094   0.776  0.5416 -0.2997 -0.3085
 1886SOL     OW 7315   0.371   2.845   4.838 -0.0713 -0.0267 -0.4550
 1886SOL    HW2 7316   0.329   2.904   4.900  0.4752  0.1424 -0.2449
 1886SOL    HW3 7317   0.406   2.774   4.891 -0.6469 -0.4978 -0.6981
 1886SOL    MW4 7318   0.370   2.844   4.853 -0.0596 -0.1115  0.3255
 1887SOL     OW 7319   1.901   3.627   0.693  0.7934 -0.1691 -0.2070
 1887SOL    HW2 7320   1.850   3.702   0.723  1.1119  0.4032 -1.0745
 1887SOL    HW3 7321   1.915   3.574   0.772 -1.2251 -0.4055  0.0529
 1887SOL    MW4 7322   1.896   3.630   0.708  0.3882 -0.0507  0.3134
 1888SOL     OW 7323   4.472   1.115   0.265 -0.2044 -0.8378 -0.3431
 1888SOL    HW2 7324   4.472   1.042   0.204  0.6184 -2.3777  1.4189
 1888SOL    HW3 7325   4.563   1.146   0.265 -0.2066 -0.8226  0.0503
 1888SOL    MW4 7326   4.484   1.110   0.257  0.1248  0.5511  0.2211
 1889SOL     OW 7327   4.383   3.877   5.978  0.1073  0.0676  0.2768
 1889SOL    HW2 7328   4.322   3.949   5.992  0.6398  0.8627 -1.2780
 1889SOL    HW3 7329   4.366   3.848   5.888 -0.1688 -1.8379  0.8883
 1889SOL    MW4 7330   4.373   3.883   5.968 -0.4454 -0.2989 -0.5066
 1890SOL     OW 7331   2.394   5.104   0.797 -0.4638 -0.5099  0.7131
 1890SOL    HW2 7332   2.455   5.107   0.724 -0.0709 -2.4641  0.9046
 1890SOL    HW3 7333   2.420   5.177   0.853  1.3013 -0.9011  0.4645
 1890SOL    MW4 7334   2.406   5.114   0.795 -0.0839 -0.0082  0.2650
 1891SOL     OW 7335   5.324   1.385   0.383 -0.3344 -0.1658  0.3887
 1891SOL    HW2 7336   5.268   1.408   0.456 -1.4257 -1.1862 -0.1053
 1891SOL    HW3 7337   5.310   1.292   0.369  0.2049 -0.0893 -0.8300
 1891SOL    MW4 7338   5.315   1.376   0.390  0.2850  0.3268  0.8305
 1892SOL     OW 7339   2.002   1.888   0.790  0.2380 -0.2237 -0.3462
 1892SOL    HW2 7340   1.946   1.810   0.786  1.0207 -0.8656  0.8087
 1892SOL    HW3 7341   2.019   1.901   0.883  1.9279  0.0195 -0.6642
 1892SOL    MW4 7342   1.997   1.879   0.802 -0.3836 -0.8867  0.0588
 1893SOL     OW 7343   5.120   2.600   1.259  0.3998  0.3161 -0.3838
 1893SOL    HW2 7344   5.155   2.577   1.173  1.4325 -1.3178  0.4305
 1893SOL    HW3 7345   5.029   2.622   1.242  0.8615  1.1507 -2.0476
 1893SOL    MW4 7346   5.113   2.600   1.245 -0.1331  0.1114 -0.3224
 1894SOL     OW 7347   2.309   1.320   0.369 -0.0808 -0.2964 -0.1470
 1894SOL    HW2 7348   2.227   1.273   0.385 -0.8035  0.6962 -0.8184
 1894SOL    HW3 7349   2.283   1.412   0.362  1.3748  0.3284  1.7277
 1894SOL    MW4 7350   2.294   1.326   0.370  0.1103  0.0226  0.0455
 1895SOL     OW 7351   5.415   5.661   1.533 -0.4810  0.1083 -0.2370
 1895SOL    HW2 7352   5.501   5.693   1.559 -0.8213  1.6201 -0.8776
 1895SOL    HW3 7353   5.373   5.636   1.615  0.0495  0.7052  0.2219
 1895SOL    MW4 7354   5.421   5.662   1.547 -0.3930  0.0090  0.1326
 1896SOL     OW 7355   1.834   5.113   3.585 -0.0560 -0.0700 -0.4026
 1896SOL    HW2 7356   1.921   5.154   3.587  1.2291 -2.6040  0.1355
 1896SOL    HW3 7357   1.811   5.112   3.492  0.6455  0.3436 -0.5947
 1896SOL    MW4 7358   1.843   5.118   3.573 -0.2845  0.2671 -0.2580
 1897SOL     OW 7359   4.938   1.976   3.471  0.3306  0.3954 -0.0451
 1897SOL    HW2 7360   4.888   1.984   3.389  0.4404  0.9998 -0.0590
 1897SOL    HW3 7361   5.024   2.014   3.450 -0.1474  2.0240  0.7804
 1897SOL    MW4 7362   4.943   1.982   3.457 -0.5039  0.2248  0.0583
 1898SOL     OW 7363   3.222   3.301   6.045  0.7532 -0.7137  0.5952
 1898SOL    HW2 7364   3.173   3.382   6.057  3.5279  0.8582  2.2865
 1898SOL    HW3 7365   3.213   3.255   6.128 -0.1599 -1.8324 -0.0922
 1898SOL    MW4 7366   3.214   3.306   6.057 -0.5735 -0.0822 -0.1213
 1899SOL     OW 7367   0.340   1.006   4.386 -0.0969  0.3208 -0.3770
 1899SOL    HW2 7368   0.376   0.984   4.472 -1.0543  0.2058  0.0002
 1899SOL    HW3 7369   0.335   0.923   4.339 -0.1879  0.2901 -0.3118
 1899SOL    MW4 7370   0.344   0.992   4.391  0.2262 -0.3053  0.4156
 1900SOL     OW 7371   4.400   4.233   3.642 -0.3524 -0.0819 -0.3747
 1900SOL    HW2 7372   4.408   4.293   3.717 -1.4406  1.4121 -1.3778
 1900SOL    HW3 7373   4.351   4.159   3.676  1.3660 -0.6475  1.0083
 1900SOL    MW4 7374   4.395   4.231   3.656 -0.1696  0.5796 -0.1689
 1901SOL     OW 7375   3.352   3.799   6.164 -0.0396 -0.2131 -0.0944
 1901SOL    HW2 7376   3.315   3.878   6.203  1.7825  1.0183 -0.7357
 1901SOL    HW3 7377   3.352   3.816   6.070 -2.9126 -2.5005 -0.6905
 1901SOL    MW4 7378   3.347   3.811   6.157 -0.2045 -0.4083 -0.3801
 1902SOL     OW 7379   2.272   0.888   0.784  0.8402 -0.3070 -0.5182
 1902SOL    HW2 7380   2.279   0.793   0.798 -0.0162 -0.3429 -0.2362
 1902SOL    HW3 7381   2.294   0.900   0.691  3.2468 -0.4733 -0.0191
 1902SOL    MW4 7382   2.276   0.877   0.773 -0.4763  0.2426 -1.0625
 1903SOL     OW 7383   1.225   1.222   4.579 -0.1600  0.0003 -0.0087
 1903SOL    HW2 7384   1.226   1.301   4.634  0.0425  0.0144 -0.0323
 1903SOL    HW3 7385   1.306   1.227   4.529  0.0044 -0.3865  0.2189
 1903SOL    MW4 7386   1.236   1.233   4.580  0.3578  0.3531  0.2044
 1904SOL     OW 7387   4.830   5.622   5.638  0.0967  0.1030  0.5640
 1904SOL    HW2 7388   4.884   5.658   5.708 -1.8392  1.6872  1.3415
 1904SOL    HW3 7389   4.809   5.533   5.666  0.5302  0.2186  1.2796
 1904SOL    MW4 7390   4.834   5.615   5.651  0.0948  0.1659  0.3346
 1905SOL     OW 7391   4.479   4.635   0.527 -0.3331  0.3565 -0.2434
 1905SOL    HW2 7392   4.492   4.665   0.617  0.3250  1.3248 -0.6438
 1905SOL    HW3 7393   4.568   4.616   0.495 -0.5346  0.3223 -0.7891
 1905SOL    MW4 7394   4.493   4.636   0.535 -0.4202  0.0920  0.4898
 1906SOL     OW 7395   3.907   4.317   6.384  0.1166 -0.3181 -0.7792
 1906SOL    HW2 7396   3.835   4.377   6.364 -1.2966 -0.7750  2.3119
 1906SOL    HW3 7397   3.876   4.231   6.357  0.2946 -0.2857 -1.1017
 1906SOL    MW4 7398   3.894   4.314   6.378 -0.2549 -0.4130 -0.5138
 1907SOL     OW 7399   1.881   0.709   0.979 -0.0181  0.0266  0.3033
 1907SOL    HW2 7400   1.916   0.686   0.893 -1.9696 -1.0367 -0.2817
 1907SOL    HW3 7401   1.852   0.626   1.017 -3.0136  0.8591  0.1484
 1907SOL    MW4 7402   1.882   0.695   0.973 -0.1338 -0.3263 -0.2456
 1908SOL     OW 7403   1.974   3.185   2.626  0.0877  0.2716  0.3912
 1908SOL    HW2 7404   1.958   3.246   2.697  2.1792  2.3708 -0.7752
 1908SOL    HW3 7405   2.065   3.158   2.637 -0.1703 -1.0214 -0.3314
 1908SOL    MW4 7406   1.984   3.189   2.637 -0.1739  0.0632 -0.0996
 1909SOL     OW 7407   3.938   0.051   2.788  0.0177 -0.0006 -0.3672
 1909SOL    HW2 7408   4.009   0.110   2.814 -1.4253  0.8889  1.8231
 1909SOL    HW3 7409   3.945  -0.023   2.848 -0.1772 -0.5133 -0.9648
 1909SOL    MW4 7410   3.949   0.049   2.800  0.5824  0.3008  0.3535
 1910SOL     OW 7411   3.549   5.692   4.556 -0.3652 -0.4944  0.2524
 1910SOL    HW2 7412   3.615   5.745   4.600 -0.6680  0.8901 -0.8559
 1910SOL    HW3 7413   3.467   5.740   4.569 -0.6547 -0.6778 -0.7483
 1910SOL    MW4 7414   3.547   5.705   4.563 -0.7264 -0.2916  0.3934
 1911SOL     OW 7415   5.260   1.930   2.153 -0.0738  0.6295 -0.4025
 1911SOL    HW2 7416   5.312   1.878   2.091 -1.3696 -0.4389 -0.6429
 1911SOL    HW3 7417   5.212   1.992   2.097  0.0930  0.8517 -0.2968
 1911SOL    MW4 7418   5.260   1.931   2.137  0.2346 -0.7303  0.0139
 1912SOL     OW 7419   1.245   6.142   1.066 -0.3059  0.1790  0.5603
 1912SOL    HW2 7420   1.257   6.175   1.155  0.5762 -2.8335  1.6852
 1912SOL    HW3 7421   1.286   6.055   1.066  1.4379  0.7491 -3.3270
 1912SOL    MW4 7422   1.252   6.135   1.077 -0.4400  0.5968 -0.3176
 1913SOL     OW 7423   0.999   1.917   3.747  0.1667 -0.1381  0.3192
 1913SOL    HW2 7424   1.080   1.968   3.743 -0.3465  1.2358  3.7872
 1913SOL    HW3 7425   1.027   1.826   3.735  2.3950  0.2097  2.2963
 1913SOL    MW4 7426   1.013   1.912   3.745  0.4365  0.3538 -0.2395
 1914SOL     OW 7427   3.853   0.913   2.611  0.2016  0.1506  0.7193
 1914SOL    HW2 7428   3.829   0.999   2.576 -0.2974 -0.0802  0.4844
 1914SOL    HW3 7429   3.870   0.859   2.533  0.3002 -0.0255  0.8622
 1914SOL    MW4 7430   3.852   0.917   2.596 -0.0959  0.3836 -0.1243
 1915SOL     OW 7431   2.040   5.163   0.320  0.7746  0.1731 -0.2723
 1915SOL    HW2 7432   2.082   5.235   0.274 -0.0030  0.1783 -1.0119
 1915SOL    HW3 7433   2.104   5.135   0.386  1.6372  0.6248 -0.8984
 1915SOL    MW4 7434   2.054   5.169   0.323  0.0802  0.5188  0.6653
 1916SOL     OW 7435   4.959   4.901   1.669  0.4414  0.2699 -0.1134
 1916SOL    HW2 7436   4.995   4.971   1.724  0.0100  0.4440 -0.0468
 1916SOL    HW3 7437   4.925   4.947   1.592 -0.4920  0.2195  0.2588
 1916SOL    MW4 7438   4.959   4.916   1.666  0.2886 -0.2704  0.0151
 1917SOL     OW 7439   1.306   6.142   2.591  0.1060 -0.2350 -0.9538
 1917SOL    HW2 7440   1.387   6.103   2.560  0.1855 -0.6080 -0.2997
 1917SOL    HW3 7441   1.245   6.132   2.518  0.4179 -0.6852 -1.1549
 1917SOL    MW4 7442   1.308   6.135   2.577 -0.0225  0.2291  0.2186
 1918SOL     OW 7443   4.600   3.369   0.885 -0.1224  0.1742  0.6230
 1918SOL    HW2 7444   4.529   3.387   0.947 -1.2218 -0.3104 -0.4385
 1918SOL    HW3 7445   4.569   3.293   0.835  0.1795  1.2386 -1.2857
 1918SOL    MW4 7446   4.586   3.361   0.887 -0.6785 -0.5243  0.5174
 1919SOL     OW 7447   5.449   3.517   4.565  0.3065 -0.4658 -0.0028
 1919SOL    HW2 7448   5.514   3.587   4.556 -0.7141  0.4964 -0.1357
 1919SOL    HW3 7449   5.417   3.526   4.655  0.7601 -1.3157  0.2540
 1919SOL    MW4 7450   5.453   3.527   4.576  0.7689 -0.3682 -0.3097
 1920SOL     OW 7451   2.959   6.093   6.075 -0.4690  0.1893  0.4114
 1920SOL    HW2 7452   3.013   6.017   6.054 -1.6991 -0.4174 -0.7546
 1920SOL    HW3 7453   2.901   6.102   5.999 -1.6406  1.1058  1.3796
 1920SOL    MW4 7454   2.958   6.084   6.062 -0.6360 -0.3954  0.0837
 1921SOL     OW 7455   4.565   5.016   6.239 -0.2415 -0.3575  0.0876
 1921SOL    HW2 7456   4.480   5.048   6.210  0.1722  0.3637 -0.3576
 1921SOL    HW3 7457   4.611   4.992   6.159  0.1669 -0.2384  0.2784
 1921SOL    MW4 7458   4.560   5.017   6.225  0.1613 -0.6996  0.0844
 1922SOL     OW 7459   2.845   3.163   2.986 -0.6191  0.2492  0.0189
 1922SOL    HW2 7460   2.783   3.233   2.967 -1.0689 -0.0796  0.2355
 1922SOL    HW3 7461   2.847   3.158   3.081  0.3893  0.8202  0.0276
 1922SOL    MW4 7462   2.837   3.171   2.996  0.0363  0.3866 -0.1455
 1923SOL     OW 7463   0.662   0.180   5.883  0.6788  0.1460 -0.1580
 1923SOL    HW2 7464   0.690   0.127   5.957  1.2198  0.5041 -0.0991
 1923SOL    HW3 7465   0.733   0.242   5.869  0.0239  0.9202 -0.1631
 1923SOL    MW4 7466   0.675   0.181   5.891 -0.3492 -0.0394  0.1910
 1924SOL     OW 7467   5.732   4.611   0.220 -0.6301  0.7318 -0.3940
 1924SOL    HW2 7468   5.724   4.532   0.167 -1.5132  1.8402 -2.0019
 1924SOL    HW3 7469   5.817   4.647   0.197 -0.3934  0.4503  0.0434
 1924SOL    MW4 7470   5.742   4.605   0.210 -0.5398  0.0593 -0.7663
 1925SOL     OW 7471   3.397   3.911   3.463  0.1520 -0.0066 -0.1667
 1925SOL    HW2 7472   3.428   3.857   3.537 -0.7483 -0.5869 -0.1935
 1925SOL    HW3 7473   3.304   3.925   3.481  0.3202  1.3745 -0.2819
 1925SOL    MW4 7474   3.389   3.905   3.475  0.2301  0.2661 -0.0690
 1926SOL     OW 7475   0.731   4.762   4.120 -0.1014  0.4787 -0.2749
 1926SOL    HW2 7476   0.650   4.750   4.071  0.4700 -0.0624 -1.0971
 1926SOL    HW3 7477   0.714   4.838   4.175 -0.9482  0.7547 -0.8994
 1926SOL    MW4 7478   0.718   4.770   4.121  0.3280  0.1458  0.5847
 1927SOL     OW 7479   3.241   0.345   5.222  0.1253 -0.4786 -0.1078
 1927SOL    HW2 7480   3.160   0.387   5.194  1.0783  1.1576 -0.5681
 1927SOL    HW3 7481   3.256   0.379   5.311  0.3001 -0.7608 -0.0281
 1927SOL    MW4 7482   3.232   0.355   5.230  0.0320 -0.3637 -0.7763
 1928SOL     OW 7483   2.252   0.957   5.408 -0.0620 -0.3117  0.1496
 1928SOL    HW2 7484   2.181   1.004   5.452 -0.7018 -0.9676 -0.1541
 1928SOL    HW3 7485   2.321   1.023   5.397 -0.1667  0.0430  1.4730
 1928SOL    MW4 7486   2.252   0.972   5.412 -0.1606 -0.0197  0.1225
 1929SOL     OW 7487   0.938   4.269   2.444 -0.2694  0.2243 -0.2380
 1929SOL    HW2 7488   0.906   4.359   2.451  1.8637  1.0904 -0.7024
 1929SOL    HW3 7489   0.939   4.252   2.349 -2.8332 -1.1902 -0.0820
 1929SOL    MW4 7490   0.934   4.279   2.432 -0.6628 -0.6443 -0.2920
 1930SOL     OW 7491   2.987   0.857   0.846  0.1311  0.0939  0.5641
 1930SOL    HW2 7492   3.081   0.857   0.831  0.3479  0.2606  1.8047
 1930SOL    HW3 7493   2.963   0.950   0.844  0.1339  0.1068  1.0236
 1930SOL    MW4 7494   2.996   0.870   0.843 -0.1359 -0.0875  0.1990
 1931SOL     OW 7495   3.225   4.098   0.300  0.7242  0.1922 -0.4274
 1931SOL    HW2 7496   3.140   4.106   0.343  1.5888  1.3806  1.1938
 1931SOL    HW3 7497   3.206   4.056   0.216 -1.5723  1.3033 -0.5374
 1931SOL    MW4 7498   3.211   4.093   0.295  0.1855 -0.0163  0.0467
 1932SOL     OW 7499   6.094   5.033   2.788 -0.2428 -0.0036  0.3453
 1932SOL    HW2 7500   6.021   5.091   2.767 -0.2380 -0.4734 -1.0089
 1932SOL    HW3 7501   6.157   5.048   2.718  0.4609 -0.4582  0.8766
 1932SOL    MW4 7502   6.093   5.043   2.776 -0.1399  0.6014  0.1747
 1933SOL     OW 7503   0.072   1.013   2.652 -0.1765 -0.1464 -0.1043
 1933SOL    HW2 7504   0.033   0.929   2.676 -0.0158 -0.1385  0.1854
 1933SOL    HW3 7505   0.138   0.991   2.587  0.1381 -0.2886  0.2613
 1933SOL    MW4 7506   0.075   0.999   2.646 -0.4958  0.6248  0.3793
 1934SOL     OW 7507   2.517   2.245   6.162 -0.0430  0.2161 -0.4881
 1934SOL    HW2 7508   2.571   2.312   6.204 -0.0019  2.2123 -3.4534
 1934SOL    HW3 7509   2.578   2.173   6.143  0.6210  0.6589 -0.0662
 1934SOL    MW4 7510   2.532   2.244   6.165 -0.3459  0.0642 -0.3204
 1935SOL     OW 7511   2.016   1.873   3.300  0.0747 -0.6691  0.1814
 1935SOL    HW2 7512   1.997   1.920   3.381 -1.8869 -0.6805 -0.2163
 1935SOL    HW3 7513   2.063   1.936   3.246 -0.0451 -0.1109  0.7207
 1935SOL    MW4 7514   2.019   1.887   3.304  0.0652 -0.3192  0.0321
 1936SOL     OW 7515   1.335   1.297   2.923 -0.5961 -0.2381 -0.3743
 1936SOL    HW2 7516   1.402   1.365   2.928  2.0015 -2.5666 -0.7481
 1936SOL    HW3 7517   1.328   1.277   2.830 -0.9064 -0.8468 -0.2258
 1936SOL    MW4 7518   1.343   1.303   2.911  0.4732 -0.4811  0.2549
 1937SOL     OW 7519   6.327   4.111   3.277  0.0782  0.2439 -0.0337
 1937SOL    HW2 7520   6.288   4.148   3.197  0.7345  1.6348  0.2583
 1937SOL    HW3 7521   6.406   4.164   3.291  0.7858 -0.9752  0.7020
 1937SOL    MW4 7522   6.333   4.123   3.268  0.2532  0.4754 -0.6499
 1938SOL     OW 7523   1.948   1.954   3.545 -0.2700 -0.9227  0.0955
 1938SOL    HW2 7524   1.923   2.042   3.516  0.8200  0.2893  2.4980
 1938SOL    HW3 7525   1.865   1.911   3.564 -0.8121  0.1540  0.2907
 1938SOL    MW4 7526   1.934   1.960   3.544 -0.2635  0.0983  0.0296
 1939SOL     OW 7527   1.599   5.832   2.174 -0.3031 -0.0032 -0.1928
 1939SOL    HW2 7528   1.521   5.887   2.174 -0.5473 -0.3119  1.0973
 1939SOL    HW3 7529   1.573   5.754   2.126 -0.8011 -0.1164  0.2526
 1939SOL    MW4 7530   1.585   5.829   2.168  0.7312  0.5945  0.2666
 1940SOL     OW 7531   5.765   0.945   0.194 -0.0543  0.2200  0.0947
 1940SOL    HW2 7532   5.763   0.958   0.099 -0.6547 -1.4666 -0.1566
 1940SOL    HW3 7533   5.840   0.888   0.209 -0.3620 -0.0744  0.5477
 1940SOL    MW4 7534   5.775   0.939   0.183  0.1489  0.4694  0.1890
 1941SOL     OW 7535   5.921   0.611   4.748 -0.1953  0.1413 -0.5417
 1941SOL    HW2 7536   5.828   0.633   4.737 -0.0235  0.6971 -0.8883
 1941SOL    HW3 7537   5.965   0.653   4.674  0.2650 -0.5850 -0.6981
 1941SOL    MW4 7538   5.914   0.619   4.736 -0.3997 -0.1290 -0.1126
 1942SOL     OW 7539   1.615   5.548   0.862 -0.7082  0.0532  0.0442
 1942SOL    HW2 7540   1.539   5.511   0.907 -1.1140  0.9459  0.0986
 1942SOL    HW3 7541   1.680   5.477   0.863 -1.8337 -1.0439 -0.7932
 1942SOL    MW4 7542   1.614   5.534   0.868 -0.0956 -0.3048  0.1443
 1943SOL     OW 7543   1.906   0.199   4.346 -0.2843 -0.0882 -0.7414
 1943SOL    HW2 7544   1.889   0.283   4.304 -1.5699 -0.6290 -1.3534
 1943SOL    HW3 7545   1.914   0.137   4.273  1.9338 -0.3284 -0.3685
 1943SOL    MW4 7546   1.905   0.202   4.331  0.4862  0.1063 -0.1274
 1944SOL     OW 7547   5.458   5.802   4.108  0.2160  0.0648 -0.3016
 1944SOL    HW2 7548   5.515   5.765   4.041 -0.4739  0.6671 -1.2460
 1944SOL    HW3 7549   5.415   5.726   4.147  2.1179 -0.4667  0.9043
 1944SOL    MW4 7550   5.460   5.787   4.104 -0.5989  0.3292  0.1766
 1945SOL     OW 7551   1.810   4.464   1.486  0.7495  0.1284 -0.1916
 1945SOL    HW2 7552   1.774   4.376   1.485  1.2798 -0.1205  1.0719
 1945SOL    HW3 7553   1.805   4.493   1.395  1.3079 -1.4996 -0.7753
 1945SOL    MW4 7554   1.804   4.457   1.474  0.5929  0.0538  0.2499
 1946SOL     OW 7555   5.755   1.887   0.411  0.0952  0.0756  0.3327
 1946SOL    HW2 7556   5.666   1.884   0.376  0.7022 -1.1960 -1.2079
 1946SOL    HW3 7557   5.746   1.856   0.501 -1.0582  0.2640  0.2981
 1946SOL    MW4 7558   5.742   1.883   0.418  0.6337 -0.0240  0.2306
 1947SOL     OW 7559   2.495  -0.011   3.996  0.3769 -0.2386 -0.6381
 1947SOL    HW2 7560   2.401   0.003   3.989  0.0390 -1.8153  0.2359
 1947SOL    HW3 7561   2.533   0.046   3.930 -1.0589  1.7377  0.1471
 1947SOL    MW4 7562   2.488  -0.002   3.986  0.4784  0.2314  0.1154
 1948SOL     OW 7563   5.545   5.523   5.167  0.6173 -0.3583  0.0573
 1948SOL    HW2 7564   5.633   5.546   5.137  0.3381  0.0327 -0.4845
 1948SOL    HW3 7565   5.533   5.433   5.137 -0.2665  0.5391 -2.5174
 1948SOL    MW4 7566   5.555   5.514   5.159  0.3324  0.3317  0.4635
 1949SOL     OW 7567   4.595   3.704   1.469  0.2932  0.1452  0.3458
 1949SOL    HW2 7568   4.611   3.614   1.498  0.3715  0.7903  2.4950
 1949SOL    HW3 7569   4.500   3.714   1.473  0.2579  0.0856 -0.2031
 1949SOL    MW4 7570   4.584   3.693   1.473  0.4321  0.5356  0.3558
 1950SOL     OW 7571   1.038   4.124   4.123 -0.2883 -0.2933 -0.0106
 1950SOL    HW2 7572   0.981   4.128   4.200  0.3084 -0.4877  0.4434
 1950SOL    HW3 7573   0.991   4.068   4.061  0.5264 -2.5911  1.3241
 1950SOL    MW4 7574   1.024   4.117   4.125 -0.2466  0.0362  0.6909
 1951SOL     OW 7575   3.536   6.051   1.025 -0.5083 -0.5783  0.0335
 1951SOL    HW2 7576   3.453   6.038   1.072 -0.3241 -0.7190  0.3269
 1951SOL    HW3 7577   3.515   6.035   0.934 -0.8108 -0.5960  0.1055
 1951SOL    MW4 7578   3.522   6.047   1.019  0.2224 -0.8454  0.3291
 1952SOL     OW 7579   5.480   2.532   5.652  0.0714 -0.2567 -0.5300
 1952SOL    HW2 7580   5.524   2.526   5.737  0.9386 -1.8904 -1.0603
 1952SOL    HW3 7581   5.442   2.620   5.651  1.0522  0.2198  1.0571
 1952SOL    MW4 7582   5.481   2.543   5.663  0.0185 -0.4773 -0.2695
 1953SOL     OW 7583   3.196   4.023   2.649 -0.1898 -0.0698  0.4691
 1953SOL    HW2 7584   3.279   4.037   2.604  0.2837  0.0215  1.3584
 1953SOL    HW3 7585   3.130   4.052   2.586  0.3860 -1.1042 -0.6473
 1953SOL    MW4 7586   3.198   4.029   2.635 -0.1361  0.2478  0.1346
 1954SOL     OW 7587   4.778   3.008   1.813  0.0297 -0.1069  0.5125
 1954SOL    HW2 7588   4.784   3.088   1.866  0.5372 -0.2684  0.7070
 1954SOL    HW3 7589   4.687   2.980   1.822  0.2186 -0.4036  1.7141
 1954SOL    MW4 7590   4.767   3.015   1.821  0.1908  0.1816 -0.4210
 1955SOL     OW 7591   5.038   1.222   1.360  0.1962  0.0510 -0.3971
 1955SOL    HW2 7592   4.997   1.169   1.291 -1.2854  1.1233 -0.3831
 1955SOL    HW3 7593   5.070   1.158   1.424 -1.2989 -0.8536 -0.5135
 1955SOL    MW4 7594   5.037   1.207   1.359  0.0839 -0.4786  0.3426
 1956SOL     OW 7595   3.468   0.965   4.418 -0.5538  0.0828  0.3718
 1956SOL    HW2 7596   3.524   1.013   4.357  0.2423 -1.1153  0.1249
 1956SOL    HW3 7597   3.388   1.017   4.422 -0.2876  0.6625 -1.0261
 1956SOL    MW4 7598   3.465   0.978   4.410 -0.0273 -0.3484  0.0080
 1957SOL     OW 7599   2.792   6.174   3.751  0.1323  0.0737  0.5218
 1957SOL    HW2 7600   2.827   6.208   3.834  2.3554  0.8658 -0.6553
 1957SOL    HW3 7601   2.787   6.250   3.694 -2.2829 -0.2851  0.1407
 1957SOL    MW4 7602   2.796   6.188   3.755  0.2561  0.4309 -0.3536
 1958SOL     OW 7603   4.222   4.920   3.876 -0.6838 -0.0292 -0.3511
 1958SOL    HW2 7604   4.162   4.994   3.874  2.2201  2.5099 -0.4799
 1958SOL    HW3 7605   4.222   4.892   3.968 -0.2599  1.5579  0.1637
 1958SOL    MW4 7606   4.214   4.926   3.888  0.1572 -0.1707 -0.1362
 1959SOL     OW 7607   4.448   5.045   5.869  0.2899 -0.3114 -0.3575
 1959SOL    HW2 7608   4.526   5.037   5.924  0.2034  2.1040  0.2379
 1959SOL    HW3 7609   4.377   5.066   5.930  0.0799  1.8808 -1.2759
 1959SOL    MW4 7610   4.449   5.046   5.884  0.0804 -0.2911  0.8660
 1960SOL     OW 7611   4.204   2.515   2.853  0.0541 -0.3420 -0.2636
 1960SOL    HW2 7612   4.198   2.446   2.919 -1.0926  0.0569  0.0638
 1960SOL    HW3 7613   4.143   2.582   2.883  1.4447  1.0200 -0.3533
 1960SOL    MW4 7614   4.195   2.514   2.866  0.0948  0.3333  0.0170
 1961SOL     OW 7615   4.863   4.845   3.693  0.1789 -0.4438 -0.2507
 1961SOL    HW2 7616   4.782   4.820   3.648 -0.7327 -0.5383  1.3944
 1961SOL    HW3 7617   4.874   4.779   3.761  0.6428  0.5926  0.7140
 1961SOL    MW4 7618   4.854   4.833   3.696  0.1911 -0.0153 -0.0805
 1962SOL     OW 7619   6.171   5.200   1.519 -0.4704  0.2225 -0.1533
 1962SOL    HW2 7620   6.188   5.190   1.426 -0.4097  0.6149 -0.1858
 1962SOL    HW3 7621   6.135   5.116   1.546 -0.6741  0.1724 -0.5722
 1962SOL    MW4 7622   6.169   5.188   1.511 -0.4473  0.3961  0.2072
 1963SOL     OW 7623   5.772   0.862   6.076 -0.0066  0.4129 -0.1912
 1963SOL    HW2 7624   5.862   0.838   6.053 -0.0351 -0.7148  0.7600
 1963SOL    HW3 7625   5.721   0.782   6.059 -0.2524 -0.0449  2.3894
 1963SOL    MW4 7626   5.777   0.848   6.071  0.2201 -0.2183  0.0782
 1964SOL     OW 7627   2.923   2.625   4.280  0.2690 -0.2057  0.3515
 1964SOL    HW2 7628   2.944   2.628   4.373 -2.5579  1.0682  1.0447
 1964SOL    HW3 7629   2.852   2.689   4.269 -0.4849 -1.3744 -2.4072
 1964SOL    MW4 7630   2.916   2.634   4.290  0.5352 -0.8177 -0.4568
 1965SOL     OW 7631   2.411   4.909   1.299 -0.1085 -0.4770 -0.2195
 1965SOL    HW2 7632   2.503   4.931   1.287 -0.5588  0.2771 -3.0355
 1965SOL    HW3 7633   2.371   4.990   1.331  0.3202 -1.1582  2.2782
 1965SOL    MW4 7634   2.418   4.922   1.301  1.0151 -0.0233  0.4771
 1966SOL     OW 7635   2.281   4.652   0.118 -0.0097 -0.4909  0.0453
 1966SOL    HW2 7636   2.308   4.735   0.158 -0.2374 -0.4910  0.2005
 1966SOL    HW3 7637   2.186   4.660   0.108 -0.2197 -1.2519  1.2676
 1966SOL    MW4 7638   2.272   4.664   0.122  0.1989  0.6367  0.1106
 1967SOL     OW 7639   0.211   3.239   2.215  0.2610 -0.2001  0.1034
 1967SOL    HW2 7640   0.279   3.173   2.208  0.2979 -0.0431 -1.4671
 1967SOL    HW3 7641   0.137   3.194   2.257  0.5411 -1.0252 -0.2769
 1967SOL    MW4 7642   0.210   3.225   2.219  0.2962 -0.4552  0.1464
 1968SOL     OW 7643   0.787   0.953   0.107 -0.0612 -0.0822  0.4842
 1968SOL    HW2 7644   0.752   1.008   0.037 -0.4647  0.2949  0.9709
 1968SOL    HW3 7645   0.769   1.002   0.187 -1.7738 -1.5729  1.0778
 1968SOL    MW4 7646   0.780   0.966   0.108 -0.1631  0.3661  0.3183
 1969SOL     OW 7647   0.834   5.759   4.525 -0.7113  0.6313 -0.1741
 1969SOL    HW2 7648   0.753   5.775   4.573 -0.6242  1.3396 -0.2609
 1969SOL    HW3 7649   0.815   5.682   4.471 -0.7197 -0.3612  1.1905
 1969SOL    MW4 7650   0.821   5.751   4.524  0.1999  0.4943 -0.0466
 1970SOL     OW 7651   6.032   2.121   6.249 -0.4425  0.3251 -0.1059
 1970SOL    HW2 7652   6.059   2.112   6.157 -0.8089  0.7234 -0.2559
 1970SOL    HW3 7653   6.047   2.213   6.269  1.8380 -0.2029  0.9462
 1970SOL    MW4 7654   6.038   2.132   6.239 -0.3024 -0.6614  0.7009
 1971SOL     OW 7655   0.672   1.940   1.338 -0.0590 -0.6984 -0.2057
 1971SOL    HW2 7656   0.661   1.848   1.365  0.7911 -1.1625 -1.3567
 1971SOL    HW3 7657   0.750   1.939   1.283  1.5998  1.2114  1.9279
 1971SOL    MW4 7658   0.681   1.928   1.335  0.8308  0.1756  0.5417
 1972SOL     OW 7659   5.461   5.653   6.426 -0.8238  0.3000 -0.5740
 1972SOL    HW2 7660   5.473   5.590   6.355  0.7154 -0.7994  0.6127
 1972SOL    HW3 7661   5.527   5.721   6.409 -2.0676  1.3417 -1.5009
 1972SOL    MW4 7662   5.471   5.654   6.414  0.2382  0.2057  0.5342
 1973SOL     OW 7663   5.214   5.062   5.327  0.2563 -0.4043 -0.2216
 1973SOL    HW2 7664   5.174   5.133   5.377 -0.4387 -0.2078 -1.0180
 1973SOL    HW3 7665   5.307   5.067   5.347 -0.0326 -0.5608  1.3051
 1973SOL    MW4 7666   5.221   5.072   5.336  0.3232  0.0937 -0.2537
 1974SOL     OW 7667   1.879   2.348   1.470  0.0814  0.3009  0.5208
 1974SOL    HW2 7668   1.902   2.276   1.411  1.3118  0.9026  0.2398
 1974SOL    HW3 7669   1.855   2.420   1.411 -0.7279  0.2729  0.7973
 1974SOL    MW4 7670   1.879   2.348   1.454 -0.0271 -0.3115  0.0468
 1975SOL     OW 7671   5.031   5.246   4.903  0.0347 -0.1400  0.1097
 1975SOL    HW2 7672   5.014   5.336   4.930  1.0737 -0.1201  0.7468
 1975SOL    HW3 7673   4.951   5.219   4.858 -0.2638  1.1222 -0.1587
 1975SOL    MW4 7674   5.018   5.254   4.900  1.0567  0.2475 -0.2394
 1976SOL     OW 7675   2.103   4.308   4.684  0.1834  0.0987  0.1901
 1976SOL    HW2 7676   2.193   4.323   4.714 -0.2511 -0.3866  1.8294
 1976SOL    HW3 7677   2.077   4.227   4.727 -0.8669 -0.0573 -0.7062
 1976SOL    MW4 7678   2.112   4.300   4.694  0.5275 -0.2122 -0.1078
 1977SOL     OW 7679   6.424   4.090   0.118  0.0981 -0.1632 -0.0405
 1977SOL    HW2 7680   6.448   4.011   0.069  1.6955  1.0109 -1.2369
 1977SOL    HW3 7681   6.381   4.146   0.053  0.4621  0.6187  0.3896
 1977SOL    MW4 7682   6.421   4.087   0.103 -0.1791  0.3020 -0.1218
 1978SOL     OW 7683   4.066   3.876   4.018 -0.4234  0.3730 -0.0857
 1978SOL    HW2 7684   4.020   3.811   3.964 -1.2130 -1.1938  2.2844
 1978SOL    HW3 7685   4.049   3.960   3.976  1.0461 -0.9192 -3.5711
 1978SOL    MW4 7686   4.057   3.878   4.006  0.2709  0.2343 -0.1664
 1979SOL     OW 7687   3.696   0.984   1.702  0.0274 -0.1924  0.6825
 1979SOL    HW2 7688   3.676   1.077   1.694  0.5713 -0.0133  1.3713
 1979SOL    HW3 7689   3.641   0.942   1.635  0.4778  0.7064 -0.2830
 1979SOL    MW4 7690   3.686   0.990   1.692 -0.1874 -0.6006  0.4245
 1980SOL     OW 7691   4.660   2.398   2.058  0.3603 -0.3091  0.0548
 1980SOL    HW2 7692   4.572   2.430   2.077  0.4986  1.3639 -1.8250
 1980SOL    HW3 7693   4.704   2.470   2.014  1.7308 -2.0418 -1.6348
 1980SOL    MW4 7694   4.654   2.411   2.055  0.1325  0.8519  0.1281
 1981SOL     OW 7695   0.313   2.489   0.568  0.0964 -0.4118 -0.1432
 1981SOL    HW2 7696   0.269   2.432   0.505  2.4003 -0.7234 -1.5803
 1981SOL    HW3 7697   0.339   2.566   0.517 -1.4742  1.2408  1.3941
 1981SOL    MW4 7698   0.311   2.492   0.553  0.0932 -0.0717 -0.0243
 1982SOL     OW 7699   1.819   2.529   4.368 -0.0206 -0.2427  0.1415
 1982SOL    HW2 7700   1.779   2.474   4.301 -2.3333  0.7546  0.6039
 1982SOL    HW3 7701   1.901   2.559   4.329 -0.1688 -1.5566 -1.2863
 1982SOL    MW4 7702   1.825   2.526   4.354 -0.2226  0.6544 -0.4172
 1983SOL     OW 7703   1.570   6.148   5.525  0.2972  0.3751  0.5331
 1983SOL    HW2 7704   1.559   6.234   5.485  0.1385  0.0443 -0.1579
 1983SOL    HW3 7705   1.663   6.128   5.516  0.3257  0.4523  0.6526
 1983SOL    MW4 7706   1.581   6.156   5.519  0.1636  0.4724  0.0837
 1984SOL     OW 7707   0.807   0.249   5.525 -0.0034 -0.3454  0.0322
 1984SOL    HW2 7708   0.819   0.155   5.531 -0.5108 -0.3942  0.4613
 1984SOL    HW3 7709   0.712   0.261   5.524  0.0204  0.2340  1.6394
 1984SOL    MW4 7710   0.796   0.238   5.526  0.1990  0.3447 -0.1203
 1985SOL     OW 7711   3.199   4.960   3.846  0.4504  0.4077  0.2073
 1985SOL    HW2 7712   3.195   5.045   3.891 -0.2543 -0.1591  1.2745
 1985SOL    HW3 7713   3.281   4.921   3.877 -0.1463 -0.0792  1.2244
 1985SOL    MW4 7714   3.209   4.966   3.856 -0.0696 -0.1701 -0.7985
 1986SOL     OW 7715   2.431   6.372   4.556 -0.2720 -0.2551 -0.4632
 1986SOL    HW2 7716   2.488   6.303   4.590 -0.4795 -0.2929 -0.1867
 1986SOL    HW3 7717   2.368   6.387   4.626 -0.7199 -0.3485 -0.8455
 1986SOL    MW4 7718   2.431   6.365   4.570  0.6833 -0.9434  0.0781
 1987SOL     OW 7719   4.108   3.588   1.771  0.4728 -0.6008 -0.5245
 1987SOL    HW2 7720   4.117   3.625   1.683 -1.5451 -0.1276 -0.5935
 1987SOL    HW3 7721   4.099   3.664   1.828  1.5761 -0.9095  0.0805
 1987SOL    MW4 7722   4.108   3.603   1.767 -0.6366 -0.1405 -0.0691
 1988SOL     OW 7723   6.267   3.459   4.272 -0.5258 -0.0530  0.3096
 1988SOL    HW2 7724   6.272   3.367   4.297 -0.3496 -0.0422  0.3211
 1988SOL    HW3 7725   6.358   3.490   4.277 -0.7074  0.3659  1.2202
 1988SOL    MW4 7726   6.280   3.451   4.276 -0.3444  0.0312 -0.2652
 1989SOL     OW 7727   2.282   3.238   5.854  0.2332  0.2383 -0.3924
 1989SOL    HW2 7728   2.279   3.332   5.835  0.5644  0.1458 -0.9386
 1989SOL    HW3 7729   2.265   3.231   5.948 -0.1375  0.8171 -0.4125
 1989SOL    MW4 7730   2.279   3.249   5.864  0.0190 -0.2462 -0.1961
 1990SOL     OW 7731   0.724   2.355   4.183  0.1063  0.1274 -0.1913
 1990SOL    HW2 7732   0.678   2.408   4.249 -0.9753 -2.4228  1.2259
 1990SOL    HW3 7733   0.813   2.346   4.217 -0.1688 -0.3294  0.4275
 1990SOL    MW4 7734   0.730   2.361   4.196 -0.2814  0.7537 -0.3132
 1991SOL     OW 7735   1.227   2.685   5.247 -0.2544 -0.4330 -0.1162
 1991SOL    HW2 7736   1.135   2.678   5.220  0.0112  0.1887 -1.2228
 1991SOL    HW3 7737   1.241   2.778   5.261  0.4979 -0.4003 -1.0104
 1991SOL    MW4 7738   1.217   2.696   5.245  0.2517  0.1467 -0.3323
 1992SOL     OW 7739   2.984   5.477   5.284 -0.1291  0.0956  0.0619
 1992SOL    HW2 7740   2.896   5.505   5.258  0.0199 -0.8009 -1.5577
 1992SOL    HW3 7741   2.969   5.397   5.335 -0.3832  1.5082  2.3319
 1992SOL    MW4 7742   2.970   5.470   5.287  0.0583  0.2873  0.2070
 1993SOL     OW 7743   0.502   5.973   0.241 -0.5282 -0.2671 -0.0314
 1993SOL    HW2 7744   0.506   5.914   0.316 -2.3287 -0.8682 -0.3439
 1993SOL    HW3 7745   0.546   5.926   0.170 -0.9588 -0.7667  0.0266
 1993SOL    MW4 7746   0.508   5.959   0.241 -0.8717  0.8919 -0.1189
 1994SOL     OW 7747   1.939   6.394   5.983 -0.1053  0.1174  0.1583
 1994SOL    HW2 7748   1.869   6.452   5.953  1.9097  1.8936 -1.4624
 1994SOL    HW3 7749   1.911   6.307   5.955 -1.7213  0.7562 -0.3428
 1994SOL    MW4 7750   1.926   6.390   5.975  0.7274 -0.4471 -0.2058
 1995SOL     OW 7751   3.827   2.598   1.667 -0.0273 -0.1110 -0.1859
 1995SOL    HW2 7752   3.759   2.643   1.617 -1.1067 -0.2797  1.0819
 1995SOL    HW3 7753   3.780   2.533   1.719  1.1213 -0.3461  0.6013
 1995SOL    MW4 7754   3.812   2.595   1.668 -0.3914 -0.1558 -0.6382
 1996SOL     OW 7755   2.568   0.234   0.063 -0.1815 -0.5617 -0.2936
 1996SOL    HW2 7756   2.627   0.209   0.134 -1.3268 -2.3382  0.0928
 1996SOL    HW3 7757   2.585   0.327   0.050  2.3500 -0.8831  0.1107
 1996SOL    MW4 7758   2.578   0.243   0.071 -0.1879  0.1471  0.1603
 1997SOL     OW 7759   6.370   4.336   3.663 -0.1259  0.4282 -0.4151
 1997SOL    HW2 7760   6.303   4.383   3.613 -1.0388  1.1362  1.3637
 1997SOL    HW3 7761   6.357   4.366   3.753  1.5940 -0.6115  0.2213
 1997SOL    MW4 7762   6.360   4.346   3.668 -0.3322  0.1754 -0.1664
 1998SOL     OW 7763   1.653   0.374   4.213  0.2275  0.8472 -0.3397
 1998SOL    HW2 7764   1.732   0.406   4.170  0.3399  1.7144  0.4710
 1998SOL    HW3 7765   1.587   0.441   4.196  0.0747  0.8459  0.2240
 1998SOL    MW4 7766   1.654   0.387   4.205 -0.0340 -0.3342 -0.3149
 1999SOL     OW 7767   5.148   1.374   1.116 -0.3176  0.4288 -0.0695
 1999SOL    HW2 7768   5.129   1.302   1.176 -0.3625  0.7166  0.2655
 1999SOL    HW3 7769   5.242   1.368   1.099 -0.6350 -0.9640 -1.6843
 1999SOL    MW4 7770   5.158   1.364   1.121  0.6186 -0.6294  0.1918
 2000SOL     OW 7771   0.392   2.344   3.719  0.3777  0.1272  0.7813
 2000SOL    HW2 7772   0.309   2.336   3.767  1.4461 -0.2826  2.6572
 2000SOL    HW3 7773   0.443   2.268   3.747  0.9644 -0.2873 -1.2884
 2000SOL    MW4 7774   0.388   2.333   3.729 -0.1975 -0.0768 -0.3058
 2001SOL     OW 7775   3.994   4.627   2.639  0.0119 -0.2062  0.2113
 2001SOL    HW2 7776   4.045   4.699   2.677  0.0169 -0.5727  0.9184
 2001SOL    HW3 7777   3.917   4.669   2.603 -0.2806  0.1001  1.1625
 2001SOL    MW4 7778   3.991   4.642   2.639  0.3167  0.0824  0.3921
 2002SOL     OW 7779   5.106   2.209   1.637  0.4306 -0.5398  0.3612
 2002SOL    HW2 7780   5.137   2.298   1.656 -0.4494 -0.2718  0.5819
 2002SOL    HW3 7781   5.183   2.165   1.601  0.9333  0.2556  0.4177
 2002SOL    MW4 7782   5.120   2.215   1.634 -0.8734 -0.7720 -0.2893
 2003SOL     OW 7783   5.475   0.250   0.613 -0.5926 -0.0972 -0.0781
 2003SOL    HW2 7784   5.460   0.167   0.658 -1.1689 -0.1927 -0.4263
 2003SOL    HW3 7785   5.396   0.262   0.560 -1.3796  1.5735  1.3711
 2003SOL    MW4 7786   5.462   0.241   0.612 -0.2416 -0.1909 -0.0338
 2004SOL     OW 7787   4.224   5.916   1.019  0.3729 -0.2453  0.4838
 2004SOL    HW2 7788   4.207   5.945   0.929  2.0387 -1.6209 -0.3333
 2004SOL    HW3 7789   4.162   5.844   1.032 -0.3014  0.3649  0.6715
 2004SOL    MW4 7790   4.214   5.910   1.009  0.6699 -1.0087  0.1297
 2005SOL     OW 7791   2.705   4.893   1.909 -0.7970  0.1992  0.2992
 2005SOL    HW2 7792   2.793   4.881   1.944 -0.5050  1.1924 -0.0505
 2005SOL    HW3 7793   2.694   4.819   1.848 -0.2613 -0.0088  0.4448
 2005SOL    MW4 7794   2.715   4.881   1.905 -0.0188  0.1639  0.2587
 2006SOL     OW 7795   6.417   0.675   0.079 -0.0833  0.1578 -0.2307
 2006SOL    HW2 7796   6.358   0.633   0.142 -1.2155  1.9273 -0.0284
 2006SOL    HW3 7797   6.382   0.648  -0.007  1.2048 -1.9069 -0.1819
 2006SOL    MW4 7798   6.405   0.666   0.076 -0.1617 -0.5075  0.1495
 2007SOL     OW 7799   1.648   1.234   5.661 -0.0134 -0.1082 -0.2559
 2007SOL    HW2 7800   1.665   1.168   5.594 -0.1300  0.0197 -0.4132
 2007SOL    HW3 7801   1.553   1.244   5.661  0.0843  0.9959 -1.1521
 2007SOL    MW4 7802   1.637   1.227   5.652 -0.0232  0.4219  0.2758
 2008SOL     OW 7803   4.016   0.169   0.148 -0.0944  0.5252  0.0510
 2008SOL    HW2 7804   4.085   0.128   0.199  0.5286  0.1500 -1.0909
 2008SOL    HW3 7805   3.955   0.203   0.215  1.5135  1.4939  1.1048
 2008SOL    MW4 7806   4.017   0.168   0.164  0.6359 -0.3261  0.4373
 2009SOL     OW 7807   1.366   4.566   1.402  0.9376  0.3152  0.4683
 2009SOL    HW2 7808   1.347   4.631   1.335  0.3964  1.1036  1.3530
 2009SOL    HW3 7809   1.434   4.607   1.456 -0.0950  0.5903  1.6082
 2009SOL    MW4 7810   1.373   4.580   1.400  0.3038  0.3483  0.3472
 2010SOL     OW 7811   4.406   1.133   6.096  0.2928  0.1580 -0.1218
 2010SOL    HW2 7812   4.419   1.039   6.105  1.0217  0.2000 -0.6801
 2010SOL    HW3 7813   4.492   1.167   6.071  0.5720  1.2445  2.0963
 2010SOL    MW4 7814   4.419   1.125   6.094  0.2279 -0.3010 -0.1688
 2011SOL     OW 7815   3.003   2.711   6.012 -0.4714 -0.4803 -0.3742
 2011SOL    HW2 7816   3.041   2.789   6.051 -0.7579 -1.2174  1.4997
 2011SOL    HW3 7817   2.911   2.733   5.998 -0.2064  0.0465 -1.4359
 2011SOL    MW4 7818   2.996   2.724   6.015 -0.3149 -0.3281 -0.3987
 2012SOL     OW 7819   5.279   6.166   4.129  0.0376  0.0610 -0.1228
 2012SOL    HW2 7820   5.297   6.088   4.077 -1.4928 -0.6472  0.3573
 2012SOL    HW3 7821   5.323   6.237   4.082 -0.3141 -0.7458 -1.7397
 2012SOL    MW4 7822   5.287   6.165   4.116  0.3495 -0.0689  0.4206
 2013SOL     OW 7823   3.660   1.484   2.970 -0.0319  0.2138 -0.1855
 2013SOL    HW2 7824   3.716   1.551   2.931 -0.0722  1.3337  1.5554
 2013SOL    HW3 7825   3.578   1.490   2.923  0.7251 -0.2581 -1.6118
 2013SOL    MW4 7826   3.657   1.494   2.959 -0.6366  0.4310 -0.7715
 2014SOL     OW 7827   4.115   3.786   1.957  0.4152 -0.1909  0.4656
 2014SOL    HW2 7828   4.121   3.800   2.052 -2.0915 -1.5877  0.9039
 2014SOL    HW3 7829   4.202   3.808   1.924  1.0761  1.2533  2.9541
 2014SOL    MW4 7830   4.127   3.791   1.965  0.1452 -0.3024  0.1696
 2015SOL     OW 7831   0.218   1.011   6.238  0.4770  0.2205 -0.8304
 2015SOL    HW2 7832   0.249   1.101   6.250 -0.8629  0.4304  1.7738
 2015SOL    HW3 7833   0.272   0.959   6.297 -1.2650 -0.0162  0.6565
 2015SOL    MW4 7834   0.229   1.016   6.247  0.1780 -0.0473  0.4016
 2016SOL     OW 7835   6.160   1.420   2.742  0.7143 -0.0638  0.0192
 2016SOL    HW2 7836   6.084   1.364   2.727  0.4810  0.5167 -1.1150
 2016SOL    HW3 7837   6.234   1.369   2.709  0.5870  0.0150 -0.4022
 2016SOL    MW4 7838   6.160   1.406   2.736 -0.1115 -0.3664  0.6877
 2017SOL     OW 7839   5.472   3.069   5.796 -0.0041  0.4825 -0.4810
 2017SOL    HW2 7840   5.542   3.065   5.860  0.3136 -0.9848 -0.8997
 2017SOL    HW3 7841   5.499   3.138   5.734  0.8238  0.2581 -0.3691
 2017SOL    MW4 7842   5.485   3.078   5.796 -0.5545 -0.6063 -0.2424
 2018SOL     OW 7843   5.925   0.077   1.661 -0.3311  0.2014 -0.2456
 2018SOL    HW2 7844   5.954  -0.009   1.631 -0.7222  0.3358 -1.0396
 2018SOL    HW3 7845   5.941   0.076   1.756 -0.5630 -0.8358 -0.2009
 2018SOL    MW4 7846   5.931   0.065   1.670  0.2021 -0.2017  0.3713
 2019SOL     OW 7847   0.974   1.209   1.382 -0.3248  0.7704  0.1553
 2019SOL    HW2 7848   0.946   1.147   1.450  0.0962  0.4959  0.0791
 2019SOL    HW3 7849   0.921   1.288   1.399 -2.0050 -0.1230 -0.7036
 2019SOL    MW4 7850   0.963   1.211   1.393  0.6294  0.2652 -0.5110
 2020SOL     OW 7851   0.964   6.377   5.005  0.3188 -0.4612  0.3693
 2020SOL    HW2 7852   1.042   6.421   4.970  0.2952 -1.1353 -0.5934
 2020SOL    HW3 7853   0.925   6.440   5.064  1.4802 -0.0213  0.7040
 2020SOL    MW4 7854   0.969   6.391   5.008  0.0098 -0.1121  0.3587
 2021SOL     OW 7855   4.735   1.181   0.191  0.0676 -0.2192 -0.9764
 2021SOL    HW2 7856   4.743   1.269   0.153  0.7667 -0.5348 -1.5744
 2021SOL    HW3 7857   4.819   1.164   0.233  0.1540 -0.8383 -1.3828
 2021SOL    MW4 7858   4.747   1.190   0.191 -0.3573  0.3588 -0.1877
 2022SOL     OW 7859   1.325   4.151   1.486  0.2078  0.1278  0.0377
 2022SOL    HW2 7860   1.260   4.139   1.416  0.1552 -0.0583  0.1159
 2022SOL    HW3 7861   1.291   4.224   1.538 -0.6154 -0.7817  0.8225
 2022SOL    MW4 7862   1.312   4.159   1.484  0.0500  0.3915 -0.1288
 2023SOL     OW 7863   4.470   4.076   2.890 -0.3000 -0.1599  0.6295
 2023SOL    HW2 7864   4.561   4.107   2.890 -0.1219 -0.3403  3.5010
 2023SOL    HW3 7865   4.419   4.155   2.910 -0.5542 -0.4115  0.9847
 2023SOL    MW4 7866   4.475   4.091   2.893 -0.2322  0.4228  0.1779
 2024SOL     OW 7867   4.190   2.385   4.693  0.2642 -0.5872  0.2916
 2024SOL    HW2 7868   4.123   2.433   4.644  1.1343  0.1002 -0.2770
 2024SOL    HW3 7869   4.230   2.327   4.628  0.0783 -1.1418  0.6738
 2024SOL    MW4 7870   4.187   2.384   4.678  0.6709 -0.1348 -0.2661
 2025SOL     OW 7871   1.567   6.359   2.533 -0.6286  0.5519  0.1910
 2025SOL    HW2 7872   1.607   6.272   2.527  0.1443  0.9721 -1.0282
 2025SOL    HW3 7873   1.503   6.361   2.462 -0.7285  0.9423  0.2881
 2025SOL    MW4 7874   1.564   6.348   2.523  0.6921  0.4517 -0.3230
 2026SOL     OW 7875   4.620   2.386   1.434  0.6173 -0.3091 -0.1885
 2026SOL    HW2 7876   4.607   2.434   1.516 -1.6525  0.4601 -0.9264
 2026SOL    HW3 7877   4.549   2.321   1.432 -0.1041  0.4564 -2.0234
 2026SOL    MW4 7878   4.609   2.384   1.445 -0.8712  0.0759 -0.1299
 2027SOL     OW 7879   0.397   3.154   3.631  0.4606  0.0221  0.5467
 2027SOL    HW2 7880   0.442   3.112   3.558 -0.6063 -1.1705  0.5604
 2027SOL    HW3 7881   0.468   3.176   3.692  1.1528 -0.8032  0.0716
 2027SOL    MW4 7882   0.413   3.152   3.629  0.1426  0.4695 -0.4024
 2028SOL     OW 7883   0.765   1.313   4.791  0.2310  0.1801  0.1904
 2028SOL    HW2 7884   0.797   1.401   4.774 -1.0319  0.3382 -1.7067
 2028SOL    HW3 7885   0.713   1.291   4.714  1.3992 -2.6511  0.0591
 2028SOL    MW4 7886   0.763   1.322   4.778  0.8081  0.6738 -0.7409
 2029SOL     OW 7887   2.594   2.783   5.578  0.0535  0.6418 -0.3534
 2029SOL    HW2 7888   2.639   2.864   5.555  0.9743  0.3324  0.3039
 2029SOL    HW3 7889   2.663   2.716   5.577  0.0266  0.4393  2.3183
 2029SOL    MW4 7890   2.609   2.785   5.575 -0.4686 -0.2087 -0.6315
 2030SOL     OW 7891   3.262   1.145   4.423 -0.4810  0.0119  0.3556
 2030SOL    HW2 7892   3.268   1.195   4.342 -0.4078 -1.4738 -0.5897
 2030SOL    HW3 7893   3.171   1.158   4.453 -0.2647  1.2625  0.5366
 2030SOL    MW4 7894   3.250   1.153   4.417 -0.8011  0.1936 -0.6851
 2031SOL     OW 7895   3.228   5.526   5.172  0.1177 -0.7054 -0.2174
 2031SOL    HW2 7896   3.241   5.485   5.087 -1.1950 -1.1866 -0.2191
 2031SOL    HW3 7897   3.152   5.480   5.209 -0.2167  0.4614  0.5974
 2031SOL    MW4 7898   3.220   5.514   5.166 -0.1063  0.1436  0.0881
 2032SOL     OW 7899   2.215   2.158   4.362  0.1981  0.0702 -0.1454
 2032SOL    HW2 7900   2.267   2.094   4.314  1.5715  0.3971  0.8495
 2032SOL    HW3 7901   2.144   2.181   4.302  0.7302 -1.0096 -1.2208
 2032SOL    MW4 7902   2.213   2.153   4.348  0.4248 -0.1762 -0.3570
 2033SOL     OW 7903   0.284   3.600   4.482 -0.0571  0.0612  0.0891
 2033SOL    HW2 7904   0.350   3.666   4.460 -0.9102  1.3816  1.2393
 2033SOL    HW3 7905   0.331   3.517   4.481  1.6277  0.9440  0.8288
 2033SOL    MW4 7906   0.299   3.598   4.479 -0.3385 -0.2073 -0.3979
 2034SOL     OW 7907   6.047   1.760   3.101  0.3740 -0.3676  0.0842
 2034SOL    HW2 7908   6.057   1.846   3.062  0.7705 -0.2192  0.5018
 2034SOL    HW3 7909   6.135   1.723   3.101  0.0132 -1.2817 -1.2283
 2034SOL    MW4 7910   6.060   1.766   3.096  1.0104 -0.7434 -0.2801
 2035SOL     OW 7911   4.920   6.070   2.555  0.0651  0.5127  0.0076
 2035SOL    HW2 7912   4.854   6.116   2.502 -1.8954 -0.3668  1.5204
 2035SOL    HW3 7913   4.971   6.020   2.492 -1.0967  0.7824 -1.2033
 2035SOL    MW4 7914   4.918   6.070   2.539 -0.0012  0.4197 -0.1917
 2036SOL     OW 7915   0.971   1.665   2.853 -0.0617 -0.3600  0.6228
 2036SOL    HW2 7916   0.878   1.675   2.834 -0.0888 -0.3618  0.7512
 2036SOL    HW3 7917   0.989   1.572   2.837  0.0229 -0.2637  0.1514
 2036SOL    MW4 7918   0.961   1.654   2.849  0.0376 -0.5091  0.3905
 2037SOL     OW 7919   4.850   2.198   1.972  0.5295  1.0894 -0.1985
 2037SOL    HW2 7920   4.784   2.263   1.996  0.5868  0.6089  1.3392
 2037SOL    HW3 7921   4.927   2.250   1.950  0.2421  1.5833 -0.0657
 2037SOL    MW4 7922   4.851   2.214   1.972  0.3728  0.0855 -0.0060
 2038SOL     OW 7923   6.209   5.855   5.048 -0.2732  0.0183  0.0367
 2038SOL    HW2 7924   6.257   5.867   5.131  1.2114  0.5166 -0.8421
 2038SOL    HW3 7925   6.272   5.883   4.981 -0.5627 -2.5786 -1.4493
 2038SOL    MW4 7926   6.224   5.860   5.050  0.5804  0.1077  0.0402
 2039SOL     OW 7927   3.833   4.166   1.837 -0.1263 -0.2728 -0.3977
 2039SOL    HW2 7928   3.824   4.206   1.924 -0.0674  1.5075 -1.1607
 2039SOL    HW3 7929   3.753   4.115   1.825 -0.0470 -0.6980  0.7742
 2039SOL    MW4 7930   3.822   4.165   1.847  0.1835 -0.5485  0.1397
 2040SOL     OW 7931   1.818   5.705   3.962 -0.7304 -0.1294  0.2736
 2040SOL    HW2 7932   1.799   5.799   3.961 -3.3616 -0.5837  0.5847
 2040SOL    HW3 7933   1.877   5.692   3.888  0.3780  1.8565  0.7195
 2040SOL    MW4 7934   1.823   5.716   3.952 -0.1133 -0.1042 -0.0328
 2041SOL     OW 7935   1.151   5.157   1.318 -0.6351  0.4850 -0.5735
 2041SOL    HW2 7936   1.067   5.186   1.281 -2.0830  0.3676  2.3182
 2041SOL    HW3 7937   1.128   5.084   1.375  1.3546  0.8288  0.7567
 2041SOL    MW4 7938   1.137   5.151   1.321  0.9044  0.0386  0.2816
 2042SOL     OW 7939   0.355   5.555   0.008  0.1679 -0.2804  0.3859
 2042SOL    HW2 7940   0.391   5.535  -0.079 -1.3716 -0.1937 -0.3167
 2042SOL    HW3 7941   0.393   5.640   0.030 -1.7312  1.2270 -1.6423
 2042SOL    MW4 7942   0.365   5.563  -0.001  0.2038  0.0478  0.3350
 2043SOL     OW 7943   0.925   5.880   3.556  0.4428 -0.2933 -0.7619
 2043SOL    HW2 7944   1.005   5.931   3.543  0.6006 -0.0946  0.8268
 2043SOL    HW3 7945   0.856   5.945   3.568  0.5327 -0.4225  0.6116
 2043SOL    MW4 7946   0.927   5.895   3.555  0.0159 -0.2091  0.3086
 2044SOL     OW 7947   5.702   1.358   2.158 -0.1623  0.0305  0.1343
 2044SOL    HW2 7948   5.695   1.263   2.148  2.4249 -0.5500  2.4786
 2044SOL    HW3 7949   5.790   1.371   2.194 -0.1304  3.4248 -0.8668
 2044SOL    MW4 7950   5.713   1.347   2.161  0.7026 -0.0653  0.1817
 2045SOL     OW 7951   3.153   0.531   2.952 -0.6784  0.2144 -0.0619
 2045SOL    HW2 7952   3.137   0.616   2.910 -2.2307  1.0775  2.0674
 2045SOL    HW3 7953   3.170   0.471   2.880 -3.6180  1.4988 -2.0105
 2045SOL    MW4 7954   3.153   0.535   2.937  0.3987 -0.1493  0.2175
 2046SOL     OW 7955   1.039   0.435   1.925 -0.3356 -0.1503  0.1910
 2046SOL    HW2 7956   1.070   0.501   1.987 -0.7592  0.3988 -0.1732
 2046SOL    HW3 7957   1.039   0.353   1.975  1.2575 -0.0909  0.3389
 2046SOL    MW4 7958   1.043   0.433   1.940 -0.4491  0.0909  0.4674
 2047SOL     OW 7959   5.053   4.610   2.002 -0.3200 -0.1354  0.0362
 2047SOL    HW2 7960   5.085   4.595   1.914  1.2890  0.5560  0.4601
 2047SOL    HW3 7961   5.117   4.671   2.041 -0.2300 -1.4353  2.0982
 2047SOL    MW4 7962   5.066   4.616   1.996  0.5706  0.9331  0.6495
 2048SOL     OW 7963   6.175   4.962   4.302  0.1381 -0.4906  0.3711
 2048SOL    HW2 7964   6.127   4.883   4.328 -0.5654  0.2744  1.5326
 2048SOL    HW3 7965   6.255   4.930   4.262  0.4443 -1.8003  1.9251
 2048SOL    MW4 7966   6.179   4.947   4.301 -0.7462 -0.1994 -0.4071
 2049SOL     OW 7967   2.433   4.268   2.368  0.6852  0.7035  0.3711
 2049SOL    HW2 7968   2.377   4.200   2.329 -1.0446  2.3969 -0.2805
 2049SOL    HW3 7969   2.384   4.298   2.445  0.1321  2.8663 -0.7376
 2049SOL    MW4 7970   2.419   4.263   2.373  0.1265 -0.4785 -0.1036
 2050SOL     OW 7971   4.575   3.670   1.894  0.2958 -0.1529 -0.5599
 2050SOL    HW2 7972   4.510   3.606   1.862 -0.7034  0.1167  0.8430
 2050SOL    HW3 7973   4.630   3.621   1.954  0.2487  0.0430 -0.3565
 2050SOL    MW4 7974   4.573   3.655   1.898 -0.1457  0.1137  0.5109
 2051SOL     OW 7975   1.901   1.115   3.925 -0.2029  0.1551  0.1620
 2051SOL    HW2 7976   1.832   1.050   3.924 -0.7236  0.5286  2.8263
 2051SOL    HW3 7977   1.870   1.182   3.987  1.4816  1.5582 -0.4139
 2051SOL    MW4 7978   1.888   1.116   3.933 -0.0650  0.2948 -0.0437
 2052SOL     OW 7979   3.603   2.282   4.404 -0.1162  0.0280 -0.4520
 2052SOL    HW2 7980   3.521   2.264   4.359  0.6038 -0.0805 -1.7710
 2052SOL    HW3 7981   3.577   2.308   4.492 -1.6338  1.1863 -1.1948
 2052SOL    MW4 7982   3.589   2.284   4.410  0.1405  0.0931 -0.1576
 2053SOL     OW 7983   5.631   6.406   2.986  0.0345  0.8052 -0.1444
 2053SOL    HW2 7984   5.573   6.373   2.917 -1.3561  1.1678  0.7922
 2053SOL    HW3 7985   5.651   6.329   3.039 -0.6455  0.8869  0.2460
 2053SOL    MW4 7986   5.626   6.391   2.984 -0.1041 -0.2525 -0.2068
 2054SOL     OW 7987   4.886   4.648   3.872  0.3758  0.2714  0.1446
 2054SOL    HW2 7988   4.980   4.631   3.876  0.0505 -1.9171 -0.0947
 2054SOL    HW3 7989   4.847   4.561   3.867 -1.6645  1.1470  0.0737
 2054SOL    MW4 7990   4.893   4.634   3.872  0.0963  0.2605  0.1166
 2055SOL     OW 7991   5.859   3.530   1.898 -0.1704 -0.3465 -0.4365
 2055SOL    HW2 7992   5.794   3.485   1.845  0.8768 -2.8248  0.2431
 2055SOL    HW3 7993   5.943   3.502   1.862  0.5444  0.5160  0.4893
 2055SOL    MW4 7994   5.862   3.520   1.887 -0.0643  0.0731 -0.4537
 2056SOL     OW 7995   2.771   6.394   3.568  0.2975 -0.1591 -0.2867
 2056SOL    HW2 7996   2.753   6.338   3.492 -0.1885  0.9110 -0.9732
 2056SOL    HW3 7997   2.706   6.464   3.563 -0.2058 -0.4389  1.5191
 2056SOL    MW4 7998   2.760   6.395   3.557 -0.0902 -0.3186 -0.0134
 2057SOL     OW 7999   1.396   6.321   2.313  0.0505  0.0810  0.0510
 2057SOL    HW2 8000   1.464   6.348   2.251  0.1098  0.2868  0.2059
 2057SOL    HW3 8001   1.316   6.358   2.277  0.3378  1.7766  1.0525
 2057SOL    MW4 8002   1.395   6.329   2.300 -0.1374 -0.0298  0.1734
 2058SOL     OW 8003   3.395   1.274   3.134 -0.5785  0.1080 -0.4383
 2058SOL    HW2 8004   3.379   1.349   3.192 -0.2698 -0.2082  0.0649
 2058SOL    HW3 8005   3.476   1.236   3.166 -1.2045 -0.9939 -0.0930
 2058SOL    MW4 8006   3.403   1.279   3.146  0.0566  0.1641  0.1735
 2059SOL     OW 8007   4.822   1.599   1.541 -0.4980 -0.7024  0.1344
 2059SOL    HW2 8008   4.749   1.600   1.603 -1.8920 -0.9161 -1.4686
 2059SOL    HW3 8009   4.809   1.520   1.489  0.5015 -0.3940 -0.6144
 2059SOL    MW4 8010   4.811   1.589   1.543  0.0637  0.3939 -0.7053
 2060SOL     OW 8011   3.148   5.470   0.183 -0.1539 -0.3167  0.0480
 2060SOL    HW2 8012   3.117   5.381   0.199 -1.0801 -0.3150 -1.5666
 2060SOL    HW3 8013   3.086   5.506   0.120  1.5636  0.6523 -1.1645
 2060SOL    MW4 8014   3.135   5.463   0.177  0.0801 -0.2158 -0.5619
 2061SOL     OW 8015   2.020   5.153   0.983 -0.3529 -0.1509  0.0238
 2061SOL    HW2 8016   2.054   5.068   0.957  0.2424 -0.4774  1.6921
 2061SOL    HW3 8017   1.960   5.133   1.055 -1.5101  0.7168 -0.6734
 2061SOL    MW4 8018   2.017   5.139   0.989 -0.0936 -0.0679  0.8278
 2062SOL     OW 8019   5.480   4.658   2.807 -0.2806 -0.1237 -0.5646
 2062SOL    HW2 8020   5.494   4.701   2.891 -0.7887 -1.6386  0.3425
 2062SOL    HW3 8021   5.549   4.592   2.802 -1.1662 -1.0938 -0.5642
 2062SOL    MW4 8022   5.491   4.655   2.818  0.2017 -0.4719 -0.0820
 2063SOL     OW 8023   1.959   1.560   5.865  0.0580  0.4104  0.0638
 2063SOL    HW2 8024   2.040   1.509   5.876  0.0512  0.3265 -0.2587
 2063SOL    HW3 8025   1.891   1.494   5.850 -0.1831  0.4463  0.9599
 2063SOL    MW4 8026   1.961   1.545   5.864 -0.0584  0.2726  0.4505
 2064SOL     OW 8027   4.580   4.975   4.498 -0.2302  0.0919  0.4511
 2064SOL    HW2 8028   4.592   5.053   4.445  0.8755  1.3184  2.3890
 2064SOL    HW3 8029   4.668   4.941   4.514 -0.7151 -2.1281 -1.0582
 2064SOL    MW4 8030   4.593   4.981   4.493 -0.1979  0.3829  0.4005
 2065SOL     OW 8031   0.898   2.629   0.996  0.7719 -0.4783 -0.1124
 2065SOL    HW2 8032   0.900   2.623   1.091  0.2578  2.4872  0.1696
 2065SOL    HW3 8033   0.823   2.576   0.970 -1.1995  1.3495  1.4917
 2065SOL    MW4 8034   0.888   2.621   1.005 -0.2906  0.0906 -0.6345
 2066SOL     OW 8035   0.886   0.988   0.414 -0.7550 -0.3734 -0.5161
 2066SOL    HW2 8036   0.981   1.004   0.408 -0.8332  1.0532  1.2643
 2066SOL    HW3 8037   0.847   1.069   0.380 -1.3395 -0.8117 -0.8935
 2066SOL    MW4 8038   0.894   1.001   0.409 -0.3296  0.0037  0.1077
 2067SOL     OW 8039   4.685   5.687   2.529  0.1406 -0.4078 -0.0356
 2067SOL    HW2 8040   4.706   5.730   2.612 -2.4697  0.1492  0.4129
 2067SOL    HW3 8041   4.648   5.602   2.554 -1.0087 -0.0893 -0.5887
 2067SOL    MW4 8042   4.683   5.681   2.543  0.6589  0.1162 -0.5243
 2068SOL     OW 8043   2.690   3.248   3.638 -0.0404 -0.3531 -0.2053
 2068SOL    HW2 8044   2.618   3.203   3.683 -1.2347  0.9855 -0.6925
 2068SOL    HW3 8045   2.681   3.222   3.546 -0.7926  0.8801 -0.5074
 2068SOL    MW4 8046   2.679   3.239   3.632  0.2375  0.3882 -0.3454
 2069SOL     OW 8047   1.184   0.180   4.561  0.5626  0.5986  0.1049
 2069SOL    HW2 8048   1.235   0.184   4.642  0.7952  0.7362 -0.0481
 2069SOL    HW3 8049   1.094   0.164   4.590  0.8317 -0.5860  0.3389
 2069SOL    MW4 8050   1.179   0.178   4.576 -0.4653  0.0237 -0.0903
 2070SOL     OW 8051   5.898   5.926   1.784 -0.3104  0.1564 -0.4162
 2070SOL    HW2 8052   5.973   5.974   1.819 -0.4281  1.4316 -1.7910
 2070SOL    HW3 8053   5.844   5.993   1.743 -1.3948 -0.9436 -0.8542
 2070SOL    MW4 8054   5.901   5.941   1.783 -1.0094  1.0149 -0.5665
 2071SOL     OW 8055   1.671   5.093   4.706  0.3172 -0.2317  0.0842
 2071SOL    HW2 8056   1.583   5.119   4.677 -0.5249 -2.8246  0.0215
 2071SOL    HW3 8057   1.679   5.001   4.678  2.2505 -0.6853  1.8936
 2071SOL    MW4 8058   1.660   5.084   4.698 -0.2938 -0.0399  0.6785
 2072SOL     OW 8059   1.063   1.708   3.144 -0.1716 -0.0230  0.2925
 2072SOL    HW2 8060   1.037   1.708   3.052  1.6344 -0.5631 -0.2743
 2072SOL    HW3 8061   1.159   1.716   3.141 -0.0246 -0.6739  2.1030
 2072SOL    MW4 8062   1.072   1.709   3.132  0.0518 -0.0104 -0.0678
 2073SOL     OW 8063   5.810   2.660   5.893 -0.4225  0.2432 -0.3958
 2073SOL    HW2 8064   5.824   2.720   5.966 -1.6672  1.9798 -1.4897
 2073SOL    HW3 8065   5.738   2.604   5.921  0.1170 -0.1294  0.2694
 2073SOL    MW4 8066   5.802   2.660   5.906  0.3437  0.2779 -0.4465
 2074SOL     OW 8067   1.117   5.276   6.396  0.0469 -0.1061  0.3838
 2074SOL    HW2 8068   1.032   5.303   6.362 -0.3654 -0.8399  0.8173
 2074SOL    HW3 8069   1.172   5.354   6.386 -0.3935  0.0860 -0.8015
 2074SOL    MW4 8070   1.113   5.290   6.390  0.8092 -0.7539 -0.3814
 2075SOL     OW 8071   6.012   5.918   4.441  0.0137 -0.3055  0.0405
 2075SOL    HW2 8072   6.072   5.879   4.378  0.2540 -0.2649  0.2458
 2075SOL    HW3 8073   6.066   5.975   4.495 -0.5841  1.5464 -1.2308
 2075SOL    MW4 8074   6.027   5.920   4.439  1.1488  0.2674 -0.4903
 2076SOL     OW 8075   4.145   0.601   5.916 -0.0160  0.1717  0.3006
 2076SOL    HW2 8076   4.151   0.516   5.872  0.3819  0.9488 -1.1897
 2076SOL    HW3 8077   4.188   0.587   6.000 -0.6838 -1.3163  0.4288
 2076SOL    MW4 8078   4.151   0.588   5.921 -0.2131 -0.8502  0.1138
 2077SOL     OW 8079   0.952   5.028   5.939  0.1775  0.6745 -0.4171
 2077SOL    HW2 8080   0.962   4.944   5.984 -0.5809  0.1255 -1.2289
 2077SOL    HW3 8081   0.858   5.046   5.942 -0.0450  0.1650 -2.5076
 2077SOL    MW4 8082   0.941   5.019   5.945 -0.8837 -0.3800 -0.2249
 2078SOL     OW 8083   4.018   0.231   1.326 -0.1481 -0.1861 -0.2873
 2078SOL    HW2 8084   4.000   0.137   1.330  1.6708 -0.5826 -0.1711
 2078SOL    HW3 8085   3.986   0.259   1.240 -2.7882 -0.3682  0.5485
 2078SOL    MW4 8086   4.012   0.222   1.315  0.2568  0.8058  0.4055
 2079SOL     OW 8087   3.148   0.216   1.436  0.5851 -0.1489  0.3260
 2079SOL    HW2 8088   3.143   0.270   1.357 -0.1532 -2.6925 -1.4954
 2079SOL    HW3 8089   3.080   0.251   1.494  0.2422  0.9570 -0.7150
 2079SOL    MW4 8090   3.138   0.228   1.433 -0.3181  0.3597 -0.3055
 2080SOL     OW 8091   2.293   0.331   3.817  0.0146  0.3488  0.4038
 2080SOL    HW2 8092   2.247   0.409   3.786 -0.5045 -0.2546 -0.3800
 2080SOL    HW3 8093   2.352   0.364   3.885 -0.4003  1.3784  0.2893
 2080SOL    MW4 8094   2.295   0.346   3.822  0.4506  0.4353  0.2970
 2081SOL     OW 8095   4.119   5.078   4.302 -0.3212  0.0746 -0.0582
 2081SOL    HW2 8096   4.147   5.041   4.386 -2.7156  0.5872  1.0523
 2081SOL    HW3 8097   4.177   5.153   4.288  0.7838 -0.6345  0.5924
 2081SOL    MW4 8098   4.131   5.083   4.311  0.2996  0.4796 -0.4091
 2082SOL     OW 8099   4.597   1.218   4.786  0.4295 -0.1587 -0.2930
 2082SOL    HW2 8100   4.623   1.150   4.724  0.5866  1.1154 -1.7033
 2082SOL    HW3 8101   4.675   1.236   4.838  0.9795  0.2688 -1.2350
 2082SOL    MW4 8102   4.610   1.212   4.784  0.6990 -0.0610  0.6509
 2083SOL     OW 8103   0.557   5.584   5.577  0.0305  0.3231  0.1505
 2083SOL    HW2 8104   0.590   5.672   5.556  0.7327 -0.3213 -1.5621
 2083SOL    HW3 8105   0.635   5.531   5.589 -0.3909 -0.0557  1.4028
 2083SOL    MW4 8106   0.572   5.589   5.576  0.1378  0.4249 -0.4130
 2084SOL     OW 8107   6.201   0.977   5.727 -0.2406 -0.1805  0.5238
 2084SOL    HW2 8108   6.145   0.976   5.805 -1.3444  0.8904 -0.2436
 2084SOL    HW3 8109   6.198   1.067   5.696 -0.4629 -0.7718 -1.2302
 2084SOL    MW4 8110   6.193   0.988   5.733 -0.1649 -0.0017  0.3534
 2085SOL     OW 8111  -0.007   4.818   1.127 -0.0384  0.0851 -0.3800
 2085SOL    HW2 8112   0.038   4.903   1.121  0.1115  0.1729  1.4721
 2085SOL    HW3 8113  -0.100   4.839   1.116 -0.2405  0.8511  2.2352
 2085SOL    MW4 8114  -0.013   4.832   1.125  0.4564 -0.1189  0.3949
 2086SOL     OW 8115   2.534   5.775   0.014 -0.6001  0.3252  0.0681
 2086SOL    HW2 8116   2.482   5.700   0.043 -0.7739  0.3905 -0.0761
 2086SOL    HW3 8117   2.543   5.762  -0.081 -2.2515  1.4818 -0.2911
 2086SOL    MW4 8118   2.528   5.763   0.005  0.0893 -0.8754 -0.4198
 2087SOL     OW 8119   0.758   1.686   1.679 -0.1895  0.3282 -0.2189
 2087SOL    HW2 8120   0.692   1.684   1.748 -1.7254 -0.3131 -1.6364
 2087SOL    HW3 8121   0.802   1.770   1.689  0.0167  0.0143  1.8591
 2087SOL    MW4 8122   0.755   1.697   1.689  0.0402  0.5276  0.2874
 2088SOL     OW 8123   1.931   6.205   0.578  0.2444  0.7132  0.1852
 2088SOL    HW2 8124   1.933   6.162   0.664  0.1649 -0.1143 -0.2232
 2088SOL    HW3 8125   1.857   6.266   0.583 -0.2995  0.0417  0.4080
 2088SOL    MW4 8126   1.922   6.208   0.590 -0.0083  0.0401 -0.0916
 2089SOL     OW 8127   1.251   5.520   3.636 -0.2398  0.0120  0.4349
 2089SOL    HW2 8128   1.255   5.615   3.622 -1.1857 -0.1872 -1.6027
 2089SOL    HW3 8129   1.341   5.490   3.630 -0.0803  0.6279 -0.3430
 2089SOL    MW4 8130   1.263   5.529   3.633  1.2001  0.9056 -0.4541
 2090SOL     OW 8131   3.196   4.779   2.540  1.0428 -0.8144  0.5628
 2090SOL    HW2 8132   3.172   4.689   2.562  2.2953 -1.4665 -0.5832
 2090SOL    HW3 8133   3.169   4.790   2.449  0.0678  0.3157  0.9433
 2090SOL    MW4 8134   3.189   4.769   2.531 -0.4839  0.1513  0.1111
 2091SOL     OW 8135   4.149   4.065   5.352  0.6538  0.1774 -0.3202
 2091SOL    HW2 8136   4.198   3.991   5.315  0.5923 -0.5532  1.0331
 2091SOL    HW3 8137   4.213   4.113   5.404  0.1249 -0.3593  0.8527
 2091SOL    MW4 8138   4.164   4.062   5.354  0.1500  0.5466  0.3235
 2092SOL     OW 8139   3.313   0.506   0.917 -0.1000 -0.2239 -0.1821
 2092SOL    HW2 8140   3.348   0.424   0.952 -1.6792 -1.0955 -0.5514
 2092SOL    HW3 8141   3.223   0.485   0.893 -0.8721  1.8994  0.6521
 2092SOL    MW4 8142   3.306   0.492   0.918  0.4096  0.0552 -0.3876
 2093SOL     OW 8143   4.061   1.576   0.167  0.0684  0.3079 -0.0297
 2093SOL    HW2 8144   4.058   1.510   0.236 -0.0689 -1.4163 -1.5850
 2093SOL    HW3 8145   3.974   1.616   0.168 -0.1686 -0.2078  0.3465
 2093SOL    MW4 8146   4.049   1.573   0.176 -1.2186  0.6518  0.0848
 2094SOL     OW 8147   3.253   5.893   4.516 -0.3297  0.0546 -0.1950
 2094SOL    HW2 8148   3.183   5.925   4.573  0.9587  1.1012  0.8644
 2094SOL    HW3 8149   3.240   5.939   4.434 -1.6833 -0.8027 -0.4915
 2094SOL    MW4 8150   3.242   5.903   4.513  0.0081 -0.2800  0.0285
 2095SOL     OW 8151   3.368   6.010   3.347  0.4092 -0.2480  0.4842
 2095SOL    HW2 8152   3.280   6.007   3.384  0.5727  0.4212  0.9271
 2095SOL    HW3 8153   3.379   6.100   3.318  0.5032 -0.6131 -0.6847
 2095SOL    MW4 8154   3.358   6.021   3.348  0.2855  0.3422  0.2273
 2096SOL     OW 8155   5.152   0.516   4.470 -0.5980  0.4448 -0.0323
 2096SOL    HW2 8156   5.095   0.451   4.510 -1.7228  0.3801 -1.6486
 2096SOL    HW3 8157   5.119   0.600   4.503  0.6935  0.2766  1.8502
 2096SOL    MW4 8158   5.140   0.519   4.479  0.1900  0.1590 -0.1777
 2097SOL     OW 8159   0.011   1.888   0.706 -0.6996 -1.2351  0.2530
 2097SOL    HW2 8160   0.008   1.963   0.766 -0.9795  0.7824 -2.1331
 2097SOL    HW3 8161   0.102   1.857   0.712  0.0820  0.7739 -0.3339
 2097SOL    MW4 8162   0.023   1.894   0.715  0.5114  0.9865 -0.0507
 2098SOL     OW 8163   2.180   0.762   3.689  0.1679  1.3969 -0.2841
 2098SOL    HW2 8164   2.262   0.810   3.700  0.9982  0.3410 -1.5470
 2098SOL    HW3 8165   2.113   0.830   3.678  1.0039  2.2618 -0.0963
 2098SOL    MW4 8166   2.182   0.777   3.689 -0.0357 -0.1472  0.2820
 2099SOL     OW 8167   1.050   3.498   1.794  0.4621 -0.2170  0.1692
 2099SOL    HW2 8168   1.082   3.494   1.704  0.0004 -3.4427  0.0472
 2099SOL    HW3 8169   0.957   3.476   1.788  0.3641 -0.2086  1.3991
 2099SOL    MW4 8170   1.042   3.495   1.781  0.5886  0.3686 -0.4091
 2100SOL     OW 8171   0.690   3.191   3.309 -0.1383 -0.7843  0.1427
 2100SOL    HW2 8172   0.704   3.137   3.231  1.6536 -0.8478  0.4682
 2100SOL    HW3 8173   0.730   3.276   3.287  2.0513 -1.3554  1.5805
 2100SOL    MW4 8174   0.697   3.195   3.296  0.1760  0.1736  0.1544
 2101SOL     OW 8175   0.359   5.690   4.981  0.5200 -0.4194  0.7179
 2101SOL    HW2 8176   0.267   5.664   4.987  0.7426 -1.2810  0.4663
 2101SOL    HW3 8177   0.384   5.669   4.891  1.0530 -0.4757  0.8771
 2101SOL    MW4 8178   0.350   5.684   4.969 -0.7760 -0.2596 -0.3315
 2102SOL     OW 8179   3.943   6.122   0.871 -0.5682 -0.8389 -0.1852
 2102SOL    HW2 8180   4.015   6.183   0.887 -1.2500  0.4696 -1.8499
 2102SOL    HW3 8181   3.876   6.174   0.826 -2.2182 -2.2257  0.5567
 2102SOL    MW4 8182   3.944   6.137   0.867  0.2674  0.0820 -0.2820
 2103SOL     OW 8183   6.368   4.169   0.649 -0.0203  0.0347  0.0015
 2103SOL    HW2 8184   6.383   4.250   0.601  1.8282  1.0662  2.1108
 2103SOL    HW3 8185   6.273   4.164   0.659 -0.2489  1.2864 -1.2210
 2103SOL    MW4 8186   6.358   4.179   0.644  0.0765 -0.0789 -0.0263
 2104SOL     OW 8187   1.256   3.170   0.105  0.1734  0.0776 -0.1100
 2104SOL    HW2 8188   1.272   3.125   0.022 -1.9299  0.4394 -0.7621
 2104SOL    HW3 8189   1.293   3.258   0.093  1.5367 -0.4450  0.0570
 2104SOL    MW4 8190   1.263   3.176   0.093  0.5832 -0.0105  0.2604
 2105SOL     OW 8191   4.494   4.943   3.744  0.0384  0.0402 -0.2761
 2105SOL    HW2 8192   4.410   4.899   3.749 -0.2522  0.6434  0.2552
 2105SOL    HW3 8193   4.539   4.918   3.825 -0.3315  1.0968  0.2821
 2105SOL    MW4 8194   4.489   4.934   3.756 -0.1415  0.0348 -0.1076
 2106SOL     OW 8195   6.122   1.645   1.493 -0.0127 -0.4466 -0.0217
 2106SOL    HW2 8196   6.105   1.689   1.576 -1.2008  1.3666 -1.1574
 2106SOL    HW3 8197   6.036   1.637   1.452  0.3956 -2.3874 -0.6084
 2106SOL    MW4 8198   6.109   1.650   1.499  0.0209  0.1438  0.2760
 2107SOL     OW 8199   4.939   2.225   4.443 -0.0681  0.1256 -0.2711
 2107SOL    HW2 8200   4.894   2.141   4.444  1.3277 -0.6342  0.0872
 2107SOL    HW3 8201   4.987   2.227   4.361  1.5773 -0.3720  0.6356
 2107SOL    MW4 8202   4.939   2.214   4.433 -0.5263  0.1947 -0.1190
 2108SOL     OW 8203   5.247   5.376   0.023  0.5498 -0.0214  0.1616
 2108SOL    HW2 8204   5.298   5.432   0.082  0.5277 -1.2505  1.4024
 2108SOL    HW3 8205   5.274   5.403  -0.065  0.6675  1.7818  0.7143
 2108SOL    MW4 8206   5.258   5.387   0.019 -0.0205 -1.0044  0.1159
 2109SOL     OW 8207   6.091   3.502   4.979  0.0327  0.0605 -0.4550
 2109SOL    HW2 8208   6.114   3.413   4.953 -1.4095 -0.2143 -0.9087
 2109SOL    HW3 8209   6.032   3.532   4.909 -0.9751  0.6693  0.6257
 2109SOL    MW4 8210   6.086   3.494   4.966  0.3192 -0.4983 -0.5897
 2110SOL     OW 8211   5.439   2.765   1.015  0.3460  0.4398 -0.5575
 2110SOL    HW2 8212   5.394   2.840   1.054  0.2385  1.3434 -2.3341
 2110SOL    HW3 8213   5.504   2.739   1.080 -1.7174  0.0100  1.4771
 2110SOL    MW4 8214   5.442   2.771   1.029 -0.3432  1.1397  0.6993
 2111SOL     OW 8215   4.211   2.229   3.708  0.2137  0.2593 -0.3748
 2111SOL    HW2 8216   4.116   2.236   3.715  0.4478  2.8704  2.0680
 2111SOL    HW3 8217   4.240   2.317   3.686  2.1457  0.2598  1.7435
 2111SOL    MW4 8218   4.202   2.241   3.706  0.0943  0.5813 -0.4890
 2112SOL     OW 8219   1.259   4.877   1.712  0.0255 -0.5034  0.1641
 2112SOL    HW2 8220   1.196   4.913   1.649 -0.2339  1.2070  1.3536
 2112SOL    HW3 8221   1.343   4.882   1.666 -0.4587 -1.3755 -0.8642
 2112SOL    MW4 8222   1.262   4.882   1.697 -0.1348  0.4210 -0.0591
 2113SOL     OW 8223   4.484   1.082   1.118 -0.3418  0.0764 -0.4868
 2113SOL    HW2 8224   4.411   1.062   1.176  0.3454  0.3189  0.5062
 2113SOL    HW3 8225   4.444   1.119   1.040 -1.2693  0.4449  0.1455
 2113SOL    MW4 8226   4.469   1.085   1.116  0.2274  0.4157 -0.4790
 2114SOL     OW 8227   1.940   0.983   4.896  0.2234  0.3355 -0.2059
 2114SOL    HW2 8228   1.967   0.975   4.988 -0.8796  0.0073  0.1105
 2114SOL    HW3 8229   1.873   0.915   4.886  1.1038 -0.3793 -1.5680
 2114SOL    MW4 8230   1.935   0.973   4.907  0.2084 -0.4289 -0.6603
 2115SOL     OW 8231   1.114   6.325   4.352  0.2263 -0.1351  0.3151
 2115SOL    HW2 8232   1.019   6.331   4.358  0.2128  0.0113  0.0162
 2115SOL    HW3 8233   1.130   6.252   4.292  0.3025 -0.1636  0.3703
 2115SOL    MW4 8234   1.104   6.316   4.344 -0.1452 -0.3253  0.2409
 2116SOL     OW 8235   3.894  -0.002   2.276  0.0639 -0.1089  0.8469
 2116SOL    HW2 8236   3.831   0.047   2.222  0.3924  0.9369  1.3812
 2116SOL    HW3 8237   3.871  -0.094   2.261 -1.5381  0.2320  0.9736
 2116SOL    MW4 8238   3.882  -0.007   2.267  0.2503 -0.1330  0.3294
 2117SOL     OW 8239   0.213   1.905   4.570 -0.1589 -0.0033 -0.0436
 2117SOL    HW2 8240   0.223   1.968   4.641 -2.5591  2.2860 -1.5460
 2117SOL    HW3 8241   0.156   1.837   4.606  0.9542 -0.3925  1.0449
 2117SOL    MW4 8242   0.207   1.904   4.584  0.0545 -0.1414 -0.7013
 2118SOL     OW 8243   5.872   5.594   3.543 -0.2228  0.1195 -0.0310
 2118SOL    HW2 8244   5.793   5.610   3.492 -0.7403  0.1746  0.7711
 2118SOL    HW3 8245   5.934   5.556   3.481 -1.4152 -1.4204 -0.3265
 2118SOL    MW4 8246   5.870   5.591   3.528  0.4668  0.3802  0.5763
 2119SOL     OW 8247   2.167   1.437   0.059  0.6061 -0.0367 -0.0318
 2119SOL    HW2 8248   2.116   1.373   0.109 -0.7568  1.0195 -0.0103
 2119SOL    HW3 8249   2.257   1.405   0.064  0.0146 -1.7655  0.2382
 2119SOL    MW4 8250   2.173   1.424   0.066  0.6222 -0.3349  0.0755
 2120SOL     OW 8251   1.413   5.749   6.221  0.0404 -0.2646 -0.0873
 2120SOL    HW2 8252   1.467   5.712   6.290 -0.4088 -2.4010 -0.8262
 2120SOL    HW3 8253   1.401   5.841   6.247  0.4180 -0.8349  2.3119
 2120SOL    MW4 8254   1.418   5.756   6.234  0.0666 -0.1848  0.2223
 2121SOL     OW 8255   3.149   1.397   1.354 -0.5290  0.1451  0.8637
 2121SOL    HW2 8256   3.228   1.356   1.390  0.2379  1.6546  0.9801
 2121SOL    HW3 8257   3.104   1.434   1.430 -1.3809 -0.7165  0.7985
 2121SOL    MW4 8258   3.154   1.397   1.369  0.3319  0.5582 -0.2652
 2122SOL     OW 8259   5.124   5.024   5.063 -0.1902 -0.0558 -0.5163
 2122SOL    HW2 8260   5.091   5.111   5.039  1.0351  0.6254  0.1535
 2122SOL    HW3 8261   5.133   5.028   5.159 -0.4247 -1.0381 -0.4491
 2122SOL    MW4 8262   5.121   5.036   5.073  0.0541 -0.4729 -0.0373
 2123SOL     OW 8263   2.263   5.675   6.294 -0.3751  0.0291 -0.1636
 2123SOL    HW2 8264   2.273   5.756   6.244 -0.2262 -0.7141 -1.3825
 2123SOL    HW3 8265   2.212   5.618   6.236  1.7238 -1.6795 -0.4537
 2123SOL    MW4 8266   2.257   5.678   6.280 -0.6439  0.5771 -0.3388
 2124SOL     OW 8267   3.051   0.505   5.889 -0.5386 -0.4243  0.5449
 2124SOL    HW2 8268   2.961   0.518   5.859 -0.1582  1.7717  0.1990
 2124SOL    HW3 8269   3.099   0.580   5.853  0.9683 -0.3399  2.5852
 2124SOL    MW4 8270   3.046   0.517   5.880 -0.0534  0.3013  0.4586
 2125SOL     OW 8271   4.057   1.371   0.734 -0.5011 -0.2619  0.4061
 2125SOL    HW2 8272   4.061   1.361   0.639 -1.3518  0.8449  0.2279
 2125SOL    HW3 8273   3.971   1.409   0.751  1.0357  3.2971  1.1919
 2125SOL    MW4 8274   4.046   1.375   0.724 -0.2475  0.7883 -0.0177
 2126SOL     OW 8275   5.545   0.897   0.615  0.0907 -0.4145 -0.2759
 2126SOL    HW2 8276   5.565   0.990   0.604  0.9356 -0.6977 -1.4088
 2126SOL    HW3 8277   5.474   0.881   0.553 -0.8475 -0.3074  0.7363
 2126SOL    MW4 8278   5.539   0.907   0.605  0.6209 -0.1484  0.8358
 2127SOL     OW 8279   3.171   2.680   0.070  0.6372  0.1218  0.0765
 2127SOL    HW2 8280   3.135   2.648  -0.013 -0.6598 -2.5388  1.5467
 2127SOL    HW3 8281   3.173   2.775   0.060 -2.2312  0.1083 -1.9553
 2127SOL    MW4 8282   3.166   2.688   0.058 -0.0963  0.7841 -0.3807
 2128SOL     OW 8283   6.165   0.770   0.831  0.1463  0.6436  0.3158
 2128SOL    HW2 8284   6.088   0.769   0.773  1.4573  0.8999 -1.5412
 2128SOL    HW3 8285   6.208   0.686   0.814 -1.0025 -0.6527  3.2690
 2128SOL    MW4 8286   6.160   0.759   0.821 -0.6990 -0.0239  0.8058
 2129SOL     OW 8287   3.206   6.297   2.692  0.3038  0.4682  0.4857
 2129SOL    HW2 8288   3.142   6.268   2.756 -0.4193  0.4490 -0.2321
 2129SOL    HW3 8289   3.236   6.216   2.650 -1.4617  0.6497 -1.2787
 2129SOL    MW4 8290   3.202   6.282   2.695  0.3010  0.1210  0.1527
 2130SOL     OW 8291   3.497   5.561   1.085 -0.3964 -0.0225 -0.3693
 2130SOL    HW2 8292   3.514   5.489   1.024  0.9370  0.7460 -0.9571
 2130SOL    HW3 8293   3.506   5.522   1.172 -0.2848 -0.6947 -0.6750
 2130SOL    MW4 8294   3.500   5.546   1.088 -0.0760  0.5993  0.4035
 2131SOL     OW 8295   5.781   0.640   5.367 -0.2918 -0.5813 -0.2170
 2131SOL    HW2 8296   5.822   0.554   5.364 -0.1229 -0.4730 -1.2833
 2131SOL    HW3 8297   5.792   0.675   5.279  1.9207  1.5962  0.7996
 2131SOL    MW4 8298   5.788   0.633   5.355  0.1825  0.0653  0.2619
 2132SOL     OW 8299   4.193   3.988   3.691 -0.4371  0.1119 -0.0914
 2132SOL    HW2 8300   4.142   4.039   3.753  0.2635 -0.4487  0.9725
 2132SOL    HW3 8301   4.190   3.898   3.725  0.4287 -0.1057 -0.5442
 2132SOL    MW4 8302   4.186   3.983   3.703 -0.0902 -0.4293 -0.0172
 2133SOL     OW 8303   0.242   6.195   5.163  0.5553 -0.7586 -0.3025
 2133SOL    HW2 8304   0.213   6.285   5.147  0.8506 -0.3127  1.3985
 2133SOL    HW3 8305   0.181   6.140   5.115 -0.3191  0.3209 -0.4500
 2133SOL    MW4 8306   0.230   6.200   5.155  0.0892 -0.6192  0.2436
 2134SOL     OW 8307   6.010   2.970   0.386  0.9070 -0.4160  0.7469
 2134SOL    HW2 8308   5.974   2.912   0.454  1.5633 -1.5223  0.1881
 2134SOL    HW3 8309   6.093   3.000   0.422  1.5716 -1.5253  0.2113
 2134SOL    MW4 8310   6.016   2.966   0.400  0.8009  0.0957  0.4225
 2135SOL     OW 8311   0.648   5.080   2.467  0.2390  0.8071  0.6891
 2135SOL    HW2 8312   0.583   5.151   2.469 -0.9004  0.0081 -2.3489
 2135SOL    HW3 8313   0.730   5.122   2.493 -0.9787  2.4250  2.1889
 2135SOL    MW4 8314   0.650   5.095   2.471  0.1838 -0.5622 -0.5128
 2136SOL     OW 8315   0.561   4.251   1.344  0.3900 -0.1581  0.0626
 2136SOL    HW2 8316   0.609   4.327   1.309  0.9095 -0.8441 -0.7345
 2136SOL    HW3 8317   0.630   4.193   1.377 -0.0797  0.6267  2.6399
 2136SOL    MW4 8318   0.576   4.254   1.344  0.5335  0.0837  0.0450
 2137SOL     OW 8319   4.514   1.189   2.010 -0.7635  0.0465  0.0046
 2137SOL    HW2 8320   4.595   1.214   1.965 -0.8201  0.5938  0.2041
 2137SOL    HW3 8321   4.444   1.227   1.958 -0.8944 -0.4294 -0.1689
 2137SOL    MW4 8322   4.515   1.197   1.998 -0.1595  0.3814  0.4170
 2138SOL     OW 8323   1.572   3.052   4.031  0.4062  0.0210  0.2318
 2138SOL    HW2 8324   1.562   3.146   4.049  0.6437  0.1196 -0.1407
 2138SOL    HW3 8325   1.576   3.012   4.118 -2.3985  0.0344  0.4576
 2138SOL    MW4 8326   1.571   3.059   4.045 -0.0795  0.0178 -0.2776
 2139SOL     OW 8327   6.373   2.498   0.657  0.2023 -0.5333 -0.1158
 2139SOL    HW2 8328   6.278   2.506   0.642  0.3779 -0.3477 -1.2056
 2139SOL    HW3 8329   6.399   2.420   0.609  0.7964  0.1106 -0.8848
 2139SOL    MW4 8330   6.364   2.489   0.649  0.1683  1.0411  0.6051
 2140SOL     OW 8331   3.317   6.348   3.587 -0.1904  0.1887  0.2948
 2140SOL    HW2 8332   3.286   6.268   3.629  0.0460 -0.4686 -0.7492
 2140SOL    HW3 8333   3.260   6.360   3.512  0.6739  0.1978 -0.3802
 2140SOL    MW4 8334   3.306   6.339   3.583  0.3602  0.2525  0.2571
 2141SOL     OW 8335   6.015   1.706   2.238  0.4213  0.2778  0.4232
 2141SOL    HW2 8336   5.930   1.738   2.208  0.1338 -0.7339  0.1069
 2141SOL    HW3 8337   6.031   1.754   2.319 -0.5228  0.3940  0.5569
 2141SOL    MW4 8338   6.006   1.716   2.245 -0.0680 -0.4135  0.6115
 2142SOL     OW 8339   3.237   2.345   5.463 -0.5280  0.3689  0.5620
 2142SOL    HW2 8340   3.307   2.395   5.422  0.5388 -1.8829 -0.5748
 2142SOL    HW3 8341   3.157   2.372   5.417  0.3106 -0.3675 -1.4084
 2142SOL    MW4 8342   3.235   2.355   5.452  0.1728 -0.4336  0.1120
 2143SOL     OW 8343   6.352   3.827   0.796  0.0586  0.5326 -0.3965
 2143SOL    HW2 8344   6.384   3.746   0.835 -0.0194  0.7626  0.1541
 2143SOL    HW3 8345   6.282   3.799   0.737 -0.7423  0.2978  0.6523
 2143SOL    MW4 8346   6.347   3.813   0.793 -0.1502 -0.0583  0.2717
 2144SOL     OW 8347   1.758   0.526   3.544  0.0402 -0.4478 -0.2665
 2144SOL    HW2 8348   1.840   0.570   3.523 -0.1168  0.8983  1.6158
 2144SOL    HW3 8349   1.780   0.433   3.545  0.8369 -0.3231 -2.5333
 2144SOL    MW4 8350   1.771   0.520   3.542 -0.0641 -0.1087  0.5769
 2145SOL     OW 8351   2.783   5.405   3.916  0.2456  0.5004 -0.4262
 2145SOL    HW2 8352   2.815   5.343   3.982 -1.0333 -0.1989 -0.4344
 2145SOL    HW3 8353   2.853   5.409   3.851 -0.7176 -3.2047 -1.9482
 2145SOL    MW4 8354   2.796   5.397   3.916  0.0955 -0.6431 -0.3598
 2146SOL     OW 8355   4.531   3.171   4.236  0.3681  0.2016 -0.3356
 2146SOL    HW2 8356   4.552   3.260   4.207  2.0564  0.4623  1.4753
 2146SOL    HW3 8357   4.436   3.172   4.248  0.3869  1.8755 -0.0701
 2146SOL    MW4 8358   4.521   3.183   4.234  0.0569  0.4766 -0.5499
 2147SOL     OW 8359   0.650   0.869   3.931  0.1032  0.4602 -0.4371
 2147SOL    HW2 8360   0.714   0.804   3.903 -0.2708 -0.7595  1.3726
 2147SOL    HW3 8361   0.698   0.924   3.994 -0.1205  0.6968 -0.4726
 2147SOL    MW4 8362   0.665   0.868   3.936 -0.1740 -0.2345  0.6831
 2148SOL     OW 8363   2.943   0.738   3.869  0.1980 -0.0294 -0.3491
 2148SOL    HW2 8364   2.877   0.807   3.876  0.8214  0.6258 -0.7565
 2148SOL    HW3 8365   2.940   0.693   3.953 -0.6662  0.0825 -0.3154
 2148SOL    MW4 8366   2.934   0.742   3.881 -0.6064 -0.4412 -0.2494
 2149SOL     OW 8367   4.672   2.473   4.129 -0.0350  0.1378  0.7185
 2149SOL    HW2 8368   4.699   2.538   4.194  0.6198 -1.5802  2.2718
 2149SOL    HW3 8369   4.740   2.478   4.061  1.9063 -1.1229  2.4421
 2149SOL    MW4 8370   4.685   2.482   4.129  0.1111 -0.2685  0.2698
 2150SOL     OW 8371   1.332   6.245   4.834  0.8317 -0.1827  0.5237
 2150SOL    HW2 8372   1.413   6.202   4.862  0.2883 -0.0691  2.4757
 2150SOL    HW3 8373   1.262   6.190   4.870 -0.0856 -1.1805 -2.4787
 2150SOL    MW4 8374   1.334   6.232   4.843 -0.5140 -0.8682  0.2945
 2151SOL     OW 8375   3.100   1.844   4.621  0.0383 -0.3531  0.2760
 2151SOL    HW2 8376   3.070   1.818   4.708  1.9644 -0.5281  0.9397
 2151SOL    HW3 8377   3.167   1.780   4.599  1.4175  1.1962 -0.1864
 2151SOL    MW4 8378   3.105   1.832   4.630  0.0768 -0.4186 -0.1998
 2152SOL     OW 8379   1.663   6.363   0.897  0.0965  0.0054 -0.1316
 2152SOL    HW2 8380   1.597   6.426   0.925  0.1704  0.1694 -0.3243
 2152SOL    HW3 8381   1.744   6.414   0.891  0.3955 -0.3362  0.7701
 2152SOL    MW4 8382   1.665   6.378   0.900 -0.0549  0.4894 -0.6357
 2153SOL     OW 8383   5.328   6.251   1.859 -0.2645  0.2629  0.1601
 2153SOL    HW2 8384   5.351   6.340   1.888  0.9780  0.1156 -0.2817
 2153SOL    HW3 8385   5.233   6.252   1.850 -0.1886  1.8842 -0.8818
 2153SOL    MW4 8386   5.319   6.263   1.862  0.4534  0.2917  0.4258
 2154SOL     OW 8387   5.121   3.080   0.108  0.3935  0.2787  0.3860
 2154SOL    HW2 8388   5.166   3.119   0.182  1.4152 -0.2416  0.0528
 2154SOL    HW3 8389   5.104   3.154   0.049 -1.3005  0.8674  1.5292
 2154SOL    MW4 8390   5.124   3.095   0.110 -0.3788 -0.0859  0.1390
 2155SOL     OW 8391   4.209   2.316   3.074 -0.9866  0.0422  0.0011
 2155SOL    HW2 8392   4.178   2.251   3.010  0.3250 -1.2566  0.6230
 2155SOL    HW3 8393   4.264   2.266   3.134 -1.1307  1.4777  1.3991
 2155SOL    MW4 8394   4.212   2.301   3.073  0.5261  0.0089 -0.3908
 2156SOL     OW 8395   5.592   3.460   1.853  0.3030  0.7388  0.4134
 2156SOL    HW2 8396   5.592   3.492   1.763  1.6238  0.8730  0.4467
 2156SOL    HW3 8397   5.538   3.523   1.901 -0.4315  0.6531 -0.2775
 2156SOL    MW4 8398   5.585   3.472   1.848  0.4197  0.4701  0.8860
 2157SOL     OW 8399   1.847   4.288   0.669 -0.1375 -0.2280 -0.4426
 2157SOL    HW2 8400   1.894   4.361   0.708  0.5583  0.1935 -1.9769
 2157SOL    HW3 8401   1.840   4.223   0.739  1.0126  0.4938  0.3707
 2157SOL    MW4 8402   1.852   4.289   0.683 -0.4701  0.0061 -0.0843
 2158SOL     OW 8403   6.236   3.072   0.518 -0.4163  0.0415 -0.0004
 2158SOL    HW2 8404   6.287   3.030   0.587  0.5546 -0.1530 -0.8054
 2158SOL    HW3 8405   6.287   3.149   0.493 -1.6355  1.1003  0.6918
 2158SOL    MW4 8406   6.250   3.076   0.524  0.2303 -0.4553  0.2134
 2159SOL     OW 8407   5.281   5.935   3.942  0.7070 -0.4748 -0.3886
 2159SOL    HW2 8408   5.193   5.919   3.977  0.4290  1.2065 -0.2466
 2159SOL    HW3 8409   5.337   5.876   3.992  0.0575  0.5061  1.5966
 2159SOL    MW4 8410   5.277   5.925   3.953  0.6130  0.1663 -0.2258
 2160SOL     OW 8411   5.824   5.898   2.778  0.2689  0.2380 -0.0254
 2160SOL    HW2 8412   5.809   5.991   2.792 -0.6528  0.2204 -0.8593
 2160SOL    HW3 8413   5.843   5.890   2.685 -0.9872 -0.5573 -0.2378
 2160SOL    MW4 8414   5.825   5.909   2.768 -0.4035 -0.3658  0.6499
 2161SOL     OW 8415   4.833   0.992   4.111 -0.0425 -0.4703 -0.2077
 2161SOL    HW2 8416   4.814   0.952   4.026  0.4994  0.9164 -1.0183
 2161SOL    HW3 8417   4.887   1.068   4.090 -0.3578  0.2173  1.3385
 2161SOL    MW4 8418   4.838   0.997   4.097 -0.6011  0.5615 -0.5189
 2162SOL     OW 8419   0.699   1.096   1.077  0.0861  0.1456 -0.0318
 2162SOL    HW2 8420   0.789   1.115   1.048  0.4636 -1.2826  0.1327
 2162SOL    HW3 8421   0.710   1.052   1.161 -0.7054 -1.0143 -0.5111
 2162SOL    MW4 8422   0.712   1.093   1.084 -0.4634  0.2494 -0.1608
 2163SOL     OW 8423   2.608   3.671   0.830  0.5325 -0.2383  0.0615
 2163SOL    HW2 8424   2.561   3.745   0.868  0.2736 -0.5561  0.3728
 2163SOL    HW3 8425   2.587   3.674   0.737  0.8272  0.2964  0.0082
 2163SOL    MW4 8426   2.599   3.681   0.823 -0.3141  0.5239 -0.3593
 2164SOL     OW 8427   0.974   2.318   3.867  0.6689  0.4215  0.5275
 2164SOL    HW2 8428   0.980   2.260   3.791 -1.3790  0.8528 -0.0116
 2164SOL    HW3 8429   1.046   2.291   3.924  1.4763 -0.7458 -0.9898
 2164SOL    MW4 8430   0.985   2.307   3.864  0.0949 -0.1161 -0.0777
 2165SOL     OW 8431   6.149   4.756   6.154 -0.0314  0.2215 -0.0313
 2165SOL    HW2 8432   6.165   4.788   6.243  0.7980 -0.7010  0.1620
 2165SOL    HW3 8433   6.232   4.771   6.108  0.3831 -1.6202  0.0632
 2165SOL    MW4 8434   6.162   4.762   6.160  0.4401 -0.7510 -0.0084
 2166SOL     OW 8435   1.150   0.316   1.337 -0.2736 -0.2713 -0.3070
 2166SOL    HW2 8436   1.105   0.393   1.303  1.5728  1.7422  1.4107
 2166SOL    HW3 8437   1.229   0.309   1.284 -0.4739 -1.0657 -0.5129
 2166SOL    MW4 8438   1.155   0.325   1.326 -0.5194  0.2213  0.4805
 2167SOL     OW 8439   1.864   0.515   6.360 -0.4609 -0.4079  0.0288
 2167SOL    HW2 8440   1.787   0.471   6.396 -0.9449  0.2026 -0.2447
 2167SOL    HW3 8441   1.938   0.475   6.406 -0.8158 -2.0544 -0.7480
 2167SOL    MW4 8442   1.864   0.503   6.371 -0.1522  0.0249 -0.5030
 2168SOL     OW 8443   2.456   2.594   6.102 -0.4886 -0.2860 -0.2955
 2168SOL    HW2 8444   2.455   2.676   6.053  1.4622 -0.3676 -0.5589
 2168SOL    HW3 8445   2.461   2.526   6.034  1.4818 -0.4306 -0.0713
 2168SOL    MW4 8446   2.456   2.596   6.087  0.0633 -0.2779  0.1392
 2169SOL     OW 8447   5.581   2.067   0.757 -0.4406 -0.0703  0.3815
 2169SOL    HW2 8448   5.501   2.085   0.708  0.6583  2.8168 -0.5507
 2169SOL    HW3 8449   5.552   2.062   0.848 -1.9503 -1.3773 -0.1194
 2169SOL    MW4 8450   5.567   2.069   0.762  0.2836  0.2486 -0.0939
 2170SOL     OW 8451   0.227   0.086   6.292 -0.5342  0.4984 -0.2278
 2170SOL    HW2 8452   0.315   0.063   6.322 -1.0480 -1.4804 -0.1199
 2170SOL    HW3 8453   0.193   0.143   6.361  0.5410  1.0618 -0.1324
 2170SOL    MW4 8454   0.234   0.090   6.305  0.2167  0.2999  0.1678
 2171SOL     OW 8455   4.459   1.559   2.343 -0.2892 -0.0047 -0.4835
 2171SOL    HW2 8456   4.443   1.472   2.308  0.9354 -1.3705  2.0659
 2171SOL    HW3 8457   4.401   1.566   2.418  1.4958  0.2384  0.9499
 2171SOL    MW4 8458   4.449   1.549   2.348 -0.0020 -0.2650  0.3826
 2172SOL     OW 8459   4.205   1.613   1.839 -0.0829  0.0826 -0.2356
 2172SOL    HW2 8460   4.260   1.605   1.917 -1.0992  0.6345  0.5790
 2172SOL    HW3 8461   4.265   1.605   1.765  0.7406 -1.6290  0.5815
 2172SOL    MW4 8462   4.220   1.611   1.840 -0.3585  0.1282  0.3439
 2173SOL     OW 8463   1.885   4.573   5.167 -0.5051 -0.0045  0.8704
 2173SOL    HW2 8464   1.854   4.649   5.118 -3.2887 -1.8038 -0.4259
 2173SOL    HW3 8465   1.972   4.597   5.197 -0.3663  2.8036 -1.4108
 2173SOL    MW4 8466   1.892   4.586   5.164  0.2248  0.9541 -0.2350
 2174SOL     OW 8467   0.643   5.251   6.203  0.6478  0.5490  0.5375
 2174SOL    HW2 8468   0.715   5.307   6.234 -0.0440  1.8688 -0.1376
 2174SOL    HW3 8469   0.615   5.292   6.121 -0.6337 -0.1484  0.5985
 2174SOL    MW4 8470   0.649   5.264   6.196 -0.3050  0.8135  0.8579
 2175SOL     OW 8471   2.545   0.514   0.040  0.0196  0.2075  0.0867
 2175SOL    HW2 8472   2.581   0.597   0.071 -0.3061  0.7686 -0.9907
 2175SOL    HW3 8473   2.451   0.523   0.051 -0.1320  0.5487 -1.3189
 2175SOL    MW4 8474   2.538   0.526   0.046 -0.5854  0.6316  0.1599
 2176SOL     OW 8475   3.221   1.110   3.272 -0.2330 -0.3335 -0.0813
 2176SOL    HW2 8476   3.278   1.159   3.213  0.1331 -1.8053 -1.0052
 2176SOL    HW3 8477   3.134   1.119   3.233 -0.0998 -0.7404 -0.4839
 2176SOL    MW4 8478   3.217   1.118   3.259  0.6713 -0.3875 -0.3136
 2177SOL     OW 8479   1.645   5.144   5.929 -0.5674 -0.4746  0.4301
 2177SOL    HW2 8480   1.630   5.059   5.889  0.7115 -0.3632 -0.3050
 2177SOL    HW3 8481   1.623   5.207   5.861  0.7989 -0.2719  0.1570
 2177SOL    MW4 8482   1.640   5.141   5.915 -0.2466 -0.4023 -0.0640
 2178SOL     OW 8483   2.467   0.930   2.327  0.2712  0.4099  0.0281
 2178SOL    HW2 8484   2.520   0.851   2.334 -0.2691  0.0478  0.1126
 2178SOL    HW3 8485   2.396   0.917   2.390  0.4888  1.2151  0.4606
 2178SOL    MW4 8486   2.464   0.918   2.336 -0.2081 -0.0512 -0.1535
 2179SOL     OW 8487   2.344   3.176   0.348  0.1165 -0.2345  0.1004
 2179SOL    HW2 8488   2.407   3.112   0.380  0.9453  0.6530  0.3191
 2179SOL    HW3 8489   2.261   3.153   0.390  0.4277 -1.0885  0.2468
 2179SOL    MW4 8490   2.341   3.165   0.357 -0.3374  0.0935 -0.3341
 2180SOL     OW 8491   3.228   0.623   6.359 -0.0670 -0.3197 -0.5222
 2180SOL    HW2 8492   3.134   0.641   6.364  0.2171  1.5738 -1.1633
 2180SOL    HW3 8493   3.237   0.569   6.280 -0.7388 -1.6309  0.2702
 2180SOL    MW4 8494   3.217   0.618   6.349 -0.6506  0.2473  0.5155
 2181SOL     OW 8495   5.590   0.878   2.589  0.9174 -0.2104 -0.0721
 2181SOL    HW2 8496   5.631   0.931   2.521 -0.6854  0.2521 -0.7241
 2181SOL    HW3 8497   5.501   0.912   2.596  0.2206 -2.0119  0.3748
 2181SOL    MW4 8498   5.584   0.890   2.581  0.3712  0.1497  0.2330
 2182SOL     OW 8499   0.022   3.676   3.878  0.2941  0.0701 -0.1708
 2182SOL    HW2 8500   0.018   3.593   3.926 -1.1816  0.0061 -0.3657
 2182SOL    HW3 8501   0.093   3.665   3.815 -0.8162 -1.5952 -1.1830
 2182SOL    MW4 8502   0.031   3.664   3.876 -0.0351 -0.2003 -0.0171
 2183SOL     OW 8503   5.716   2.217   5.100 -0.2261 -0.5676  0.4837
 2183SOL    HW2 8504   5.621   2.216   5.100 -0.2828  1.1400 -0.2246
 2183SOL    HW3 8505   5.740   2.214   5.007  0.3104  1.4067  0.5146
 2183SOL    MW4 8506   5.707   2.217   5.087 -0.3161  0.0261 -0.4033
 2184SOL     OW 8507   4.823   5.136   4.411  0.4532 -0.5113 -0.1797
 2184SOL    HW2 8508   4.881   5.071   4.450  2.9089  1.2335 -0.6394
 2184SOL    HW3 8509   4.867   5.220   4.428 -2.6867  1.1258  0.6592
 2184SOL    MW4 8510   4.836   5.139   4.419 -0.4578 -0.1381 -0.0592
 2185SOL     OW 8511   0.534   3.968   1.162  0.2548 -0.2270 -0.6208
 2185SOL    HW2 8512   0.481   4.047   1.152 -0.2855 -0.3329  1.1769
 2185SOL    HW3 8513   0.479   3.908   1.212  1.0409 -1.3898 -1.1021
 2185SOL    MW4 8514   0.520   3.971   1.167  0.1056  0.7138 -0.0781
 2186SOL     OW 8515   5.615   2.523   5.175 -0.2625  0.0977  0.6273
 2186SOL    HW2 8516   5.609   2.619   5.179  1.7290  0.2715  0.4062
 2186SOL    HW3 8517   5.664   2.505   5.095 -1.1497 -1.1650  0.3389
 2186SOL    MW4 8518   5.620   2.533   5.165  0.1846 -1.2673  0.0722
 2187SOL     OW 8519   3.746   3.002   1.031 -0.4749 -0.1959  0.5170
 2187SOL    HW2 8520   3.679   3.043   0.976 -1.5176 -0.5487  1.4803
 2187SOL    HW3 8521   3.745   2.910   1.006  0.9529  0.1073 -0.7376
 2187SOL    MW4 8522   3.737   2.996   1.021  0.5803 -0.2188 -0.0875
 2188SOL     OW 8523   0.069   2.531   6.264 -0.2124 -0.1879 -0.0632
 2188SOL    HW2 8524   0.060   2.513   6.357  2.1348  0.7526  0.3926
 2188SOL    HW3 8525  -0.021   2.533   6.232 -1.1253  0.4282  2.3459
 2188SOL    MW4 8526   0.056   2.529   6.272 -0.4937  0.0662  0.4474
 2189SOL     OW 8527   1.164   2.288   5.023 -0.5978 -0.0778 -0.3204
 2189SOL    HW2 8528   1.158   2.334   5.107  1.1110 -0.2406 -0.0876
 2189SOL    HW3 8529   1.212   2.208   5.042  0.4519  0.2208 -1.5698
 2189SOL    MW4 8530   1.169   2.284   5.037  0.3672 -0.1754  0.0025
 2190SOL     OW 8531   4.262   3.317   4.158  0.1042 -0.1419 -0.3848
 2190SOL    HW2 8532   4.281   3.410   4.163  0.0678 -0.2051  1.8528
 2190SOL    HW3 8533   4.187   3.304   4.216  0.6878 -1.6956  0.0824
 2190SOL    MW4 8534   4.255   3.327   4.166  0.4007  0.7049  0.5161
 2191SOL     OW 8535   1.108   2.796   3.373 -0.1501  0.2571 -0.1640
 2191SOL    HW2 8536   1.125   2.768   3.283 -2.6712 -0.7003 -0.4207
 2191SOL    HW3 8537   1.021   2.837   3.370 -1.7994 -2.6481  2.3002
 2191SOL    MW4 8538   1.099   2.798   3.361 -0.6160 -0.4691 -0.3428
 2192SOL     OW 8539   1.756   4.216   5.796  0.2026  0.0463  0.5251
 2192SOL    HW2 8540   1.817   4.256   5.734  0.4340  0.2532  0.8841
 2192SOL    HW3 8541   1.810   4.191   5.871  0.3664 -2.3604 -0.2881
 2192SOL    MW4 8542   1.771   4.218   5.798  0.3463 -0.2260 -0.0886
 2193SOL     OW 8543   1.762   4.077   3.226  0.3514  0.0538 -0.0537
 2193SOL    HW2 8544   1.809   4.027   3.160 -0.3894 -1.4391  0.4939
 2193SOL    HW3 8545   1.674   4.086   3.191  0.7652  2.1323 -0.7074
 2193SOL    MW4 8546   1.757   4.072   3.213  0.5949  0.0352 -0.2887
 2194SOL     OW 8547   3.198   5.441   5.941 -0.1111  0.5187 -0.3181
 2194SOL    HW2 8548   3.155   5.386   5.876 -0.5823  0.6964 -0.1598
 2194SOL    HW3 8549   3.227   5.518   5.893 -0.0215  0.4262 -0.4125
 2194SOL    MW4 8550   3.196   5.444   5.926 -0.0572 -0.0085 -0.1176
 2195SOL     OW 8551   4.279   0.464   5.068  0.0488 -0.1712  0.6131
 2195SOL    HW2 8552   4.307   0.471   4.977 -1.7252 -0.6492 -0.0037
 2195SOL    HW3 8553   4.342   0.405   5.109  1.1546  0.4503 -0.1575
 2195SOL    MW4 8554   4.291   0.457   5.062  0.4263  0.3049  0.3295
 2196SOL     OW 8555   4.596   3.292   2.800 -0.6503  0.4745 -0.1943
 2196SOL    HW2 8556   4.615   3.205   2.765 -0.4328  0.3551  0.2234
 2196SOL    HW3 8557   4.664   3.348   2.764 -1.2749  0.6484 -1.1532
 2196SOL    MW4 8558   4.607   3.288   2.791 -0.1130 -0.1377 -0.0881
 2197SOL     OW 8559   2.891   4.698   3.162  0.0606 -0.9196  0.0313
 2197SOL    HW2 8560   2.808   4.664   3.194  0.2261 -0.4480  0.9955
 2197SOL    HW3 8561   2.956   4.669   3.225  0.0725  1.9248  1.4952
 2197SOL    MW4 8562   2.888   4.690   3.174 -0.8972  0.0643  0.7972
 2198SOL     OW 8563   5.604   5.197   0.819  0.0689  0.4718 -0.1063
 2198SOL    HW2 8564   5.561   5.264   0.871 -1.3694  0.2302 -0.9356
 2198SOL    HW3 8565   5.579   5.216   0.729  1.1226 -0.1235 -0.5495
 2198SOL    MW4 8566   5.595   5.208   0.814  0.3606  0.2474 -0.3263
 2199SOL     OW 8567   0.625   6.277   1.792 -0.3251 -0.0268 -0.0182
 2199SOL    HW2 8568   0.611   6.352   1.850  0.5940 -1.5264  2.3050
 2199SOL    HW3 8569   0.538   6.243   1.775 -0.9586  2.4583 -2.5776
 2199SOL    MW4 8570   0.612   6.283   1.797 -0.4797 -0.0407 -0.6719
 2200SOL     OW 8571   3.539   3.228   4.702 -0.2420 -0.3250 -0.3639
 2200SOL    HW2 8572   3.467   3.174   4.668 -0.9949 -0.6339  1.5796
 2200SOL    HW3 8573   3.519   3.237   4.796  1.8133  0.2958  0.0530
 2200SOL    MW4 8574   3.527   3.222   4.710  0.4813 -0.5080  0.0383
 2201SOL     OW 8575   5.739   6.252   0.974  0.4227  0.0828  0.2991
 2201SOL    HW2 8576   5.655   6.257   0.928  0.3431  0.7435  0.5070
 2201SOL    HW3 8577   5.751   6.158   0.992 -0.5630  0.0450  0.8066
 2201SOL    MW4 8578   5.730   6.240   0.970  0.3403  0.5776 -0.1950
 2202SOL     OW 8579   2.178   0.568   4.639 -0.5446  0.0946 -0.1653
 2202SOL    HW2 8580   2.132   0.494   4.679 -1.2894  0.3492 -0.5437
 2202SOL    HW3 8581   2.172   0.638   4.704 -0.3875  0.0217 -0.0712
 2202SOL    MW4 8582   2.171   0.567   4.653  0.5769 -0.0251  1.0825
 2203SOL     OW 8583   3.982   0.731   1.378  0.1198  0.2672  0.2665
 2203SOL    HW2 8584   4.068   0.694   1.356  1.2293  2.7194  0.1413
 2203SOL    HW3 8585   3.988   0.750   1.472  0.4398  2.0882 -0.0893
 2203SOL    MW4 8586   3.994   0.728   1.388 -0.2172 -0.8579  0.5779
 2204SOL     OW 8587   4.713   1.923   0.168  0.4017  0.0597  0.4965
 2204SOL    HW2 8588   4.679   2.012   0.164 -0.0350 -0.1473 -1.3414
 2204SOL    HW3 8589   4.664   1.882   0.240 -1.0386  0.6747 -0.0810
 2204SOL    MW4 8590   4.702   1.929   0.177 -0.0161  0.1850 -0.1753
 2205SOL     OW 8591   2.683  -0.010   4.865 -0.3926 -0.2301 -0.6351
 2205SOL    HW2 8592   2.751  -0.068   4.831  0.1073  0.2528 -0.4777
 2205SOL    HW3 8593   2.627  -0.066   4.919 -0.2687 -0.6819 -0.9727
 2205SOL    MW4 8594   2.685  -0.025   4.868  0.0940 -0.3896  0.3458
 2206SOL     OW 8595   3.904   5.438   5.575  0.2379 -0.2546  0.3845
 2206SOL    HW2 8596   3.886   5.429   5.669  0.3711  0.8314  0.5244
 2206SOL    HW3 8597   3.999   5.450   5.569  0.3674 -1.3231  0.0152
 2206SOL    MW4 8598   3.914   5.438   5.587 -0.4759 -0.4464 -0.3664
 2207SOL     OW 8599   0.522   2.086   0.928 -0.1304 -0.4152 -0.6487
 2207SOL    HW2 8600   0.483   2.173   0.919  0.2200 -0.2786 -0.8605
 2207SOL    HW3 8601   0.468   2.043   0.994 -0.2318  0.0055 -0.4508
 2207SOL    MW4 8602   0.510   2.092   0.936  0.6803  0.1250  0.2041
 2208SOL     OW 8603   1.263   3.084   0.895 -0.2921 -0.1240 -0.0795
 2208SOL    HW2 8604   1.203   3.158   0.896 -1.7469 -1.2429 -0.5736
 2208SOL    HW3 8605   1.320   3.099   0.819  1.5145  1.9815  1.5440
 2208SOL    MW4 8606   1.263   3.096   0.885 -0.0978 -0.0123 -0.3685
 2209SOL     OW 8607   0.586   3.482   0.170  0.3465 -0.1955 -0.2757
 2209SOL    HW2 8608   0.614   3.573   0.179 -1.5327  0.4301 -0.1343
 2209SOL    HW3 8609   0.667   3.431   0.170  1.5183  1.5588 -1.6170
 2209SOL    MW4 8610   0.600   3.487   0.171  0.3639 -0.9690 -0.1744
 2210SOL     OW 8611   5.188   3.230   3.796  0.2345 -0.2614 -0.1298
 2210SOL    HW2 8612   5.140   3.298   3.844  0.0472  0.8560 -1.8253
 2210SOL    HW3 8613   5.197   3.265   3.708  1.8835 -1.6116 -0.5399
 2210SOL    MW4 8614   5.183   3.244   3.791 -0.2464 -0.4567  0.4154
 2211SOL     OW 8615   6.271   3.517   3.001  0.6618  0.7027  0.2889
 2211SOL    HW2 8616   6.359   3.525   3.040  1.4006 -2.2964 -0.5281
 2211SOL    HW3 8617   6.286   3.531   2.907  0.0416  1.2006  0.2563
 2211SOL    MW4 8618   6.285   3.520   2.994  0.2947  0.7997 -0.6711
 2212SOL     OW 8619   1.233   4.959   5.298  0.1056 -0.0098  0.2093
 2212SOL    HW2 8620   1.279   5.002   5.371  1.8993 -0.6977 -0.4603
 2212SOL    HW3 8621   1.266   4.869   5.299  0.6342  0.1169 -1.7967
 2212SOL    MW4 8622   1.243   4.953   5.308 -0.3916 -0.1441 -0.1628
 2213SOL     OW 8623   0.073   1.965   3.109  0.5023 -0.8175 -0.2021
 2213SOL    HW2 8624   0.004   2.031   3.105  0.7906 -0.5527 -0.9134
 2213SOL    HW3 8625   0.042   1.902   3.174  0.3325  0.1333  0.6558
 2213SOL    MW4 8626   0.060   1.965   3.117  0.2155  0.5536 -0.2574
 2214SOL     OW 8627   2.628   0.882   3.640  0.9247 -0.0223  0.1297
 2214SOL    HW2 8628   2.665   0.932   3.713 -0.6842 -0.9379  1.6776
 2214SOL    HW3 8629   2.622   0.792   3.673 -1.0505 -0.2178 -0.6162
 2214SOL    MW4 8630   2.632   0.877   3.654  0.3138  0.4401 -0.2333
 2215SOL     OW 8631   5.176   3.079   2.372  0.1002  0.2246  0.3280
 2215SOL    HW2 8632   5.099   3.062   2.426  0.8613 -2.0881  0.7975
 2215SOL    HW3 8633   5.191   3.173   2.381 -1.8341  0.4955  1.3157
 2215SOL    MW4 8634   5.168   3.089   2.380 -0.9253  0.5624 -0.4703
 2216SOL     OW 8635   3.737   4.409   3.460 -0.0670  0.2140  0.1725
 2216SOL    HW2 8636   3.749   4.353   3.383 -1.3069  0.7159 -0.4121
 2216SOL    HW3 8637   3.751   4.350   3.534  2.0100 -0.0846 -0.3811
 2216SOL    MW4 8638   3.740   4.394   3.459  0.4670  0.3306 -0.8652
 2217SOL     OW 8639   4.729   0.434   3.041 -0.5187 -0.1335 -0.5906
 2217SOL    HW2 8640   4.762   0.421   3.129 -0.9991 -0.9555 -0.5146
 2217SOL    HW3 8641   4.670   0.359   3.026  0.5216 -0.7174 -2.0650
 2217SOL    MW4 8642   4.726   0.422   3.050  0.0972  0.2600 -0.2718
 2218SOL     OW 8643   2.514   1.063   2.723  0.5869 -0.1810  0.4001
 2218SOL    HW2 8644   2.528   1.057   2.818  1.4393  1.0069  0.3651
 2218SOL    HW3 8645   2.584   1.011   2.685 -0.1430 -1.2100  0.4140
 2218SOL    MW4 8646   2.525   1.055   2.731 -0.6678  0.3978 -0.5501
 2219SOL     OW 8647   0.179   3.584   1.595  0.3477  0.4609  0.1633
 2219SOL    HW2 8648   0.195   3.676   1.573 -1.0934  0.6814 -0.0716
 2219SOL    HW3 8649   0.134   3.586   1.679  1.8353 -0.1522  1.0133
 2219SOL    MW4 8650   0.175   3.596   1.603  0.4369  0.3206  0.6441
 2220SOL     OW 8651   1.846   5.336   3.137 -0.0569  0.0229 -0.2375
 2220SOL    HW2 8652   1.761   5.321   3.097  0.5756  1.1928 -2.1514
 2220SOL    HW3 8653   1.898   5.260   3.113 -0.2606 -0.2453  0.1451
 2220SOL    MW4 8654   1.842   5.324   3.129 -0.2429 -0.7682  0.0704
 2221SOL     OW 8655   1.991   5.418   3.383 -0.7201 -0.2023 -0.2685
 2221SOL    HW2 8656   2.072   5.443   3.339 -0.4614  0.3624  0.5034
 2221SOL    HW3 8657   1.931   5.397   3.312 -0.4229  1.0084 -0.9068
 2221SOL    MW4 8658   1.994   5.418   3.368 -0.4259 -0.5563  0.5827
 2222SOL     OW 8659   2.077   1.820   1.778  0.3888  0.0473  0.0235
 2222SOL    HW2 8660   1.996   1.870   1.774  0.0771 -0.4490  0.0232
 2222SOL    HW3 8661   2.140   1.873   1.730 -0.0471  0.2293 -0.3531
 2222SOL    MW4 8662   2.075   1.834   1.771  0.4288 -0.0657 -0.7295
 2223SOL     OW 8663   5.298   0.186   3.684  0.2705 -0.1851  0.0724
 2223SOL    HW2 8664   5.256   0.103   3.705  0.7549 -0.7061 -0.9487
 2223SOL    HW3 8665   5.345   0.170   3.602 -0.1815  1.2856 -0.5133
 2223SOL    MW4 8666   5.299   0.173   3.676  0.2845 -0.2579  0.2403
 2224SOL     OW 8667   1.912   5.425   5.380  0.0199  0.5062  0.4539
 2224SOL    HW2 8668   1.983   5.435   5.316  1.0112  2.5888  1.7664
 2224SOL    HW3 8669   1.836   5.403   5.327  1.2358  0.0503 -1.2151
 2224SOL    MW4 8670   1.912   5.424   5.364 -0.2107  0.0183 -0.9950
 2225SOL     OW 8671   4.170   0.703   0.617  1.1928  0.5594  0.1275
 2225SOL    HW2 8672   4.155   0.739   0.530 -0.4470 -1.1038 -0.3485
 2225SOL    HW3 8673   4.139   0.771   0.677 -1.7642  0.1313 -0.7411
 2225SOL    MW4 8674   4.164   0.717   0.613 -0.9019 -0.3519 -0.5650
 2226SOL     OW 8675   5.560   5.398   5.406 -0.4301 -0.3616  0.1124
 2226SOL    HW2 8676   5.502   5.323   5.398 -1.4239  0.4954 -1.4327
 2226SOL    HW3 8677   5.546   5.447   5.324 -0.3415  1.8369  1.3284
 2226SOL    MW4 8678   5.550   5.395   5.394 -0.4307  0.1931 -0.0599
 2227SOL     OW 8679   2.367   3.992   6.076  0.3510 -0.2372 -0.0502
 2227SOL    HW2 8680   2.377   3.897   6.077 -0.3306 -0.3162 -0.2527
 2227SOL    HW3 8681   2.455   4.025   6.097  0.4912 -0.9109  0.4907
 2227SOL    MW4 8682   2.380   3.984   6.079  0.4892  0.1791  0.3697
 2228SOL     OW 8683   5.282   4.242   3.018 -0.3179  0.3567 -0.1039
 2228SOL    HW2 8684   5.204   4.260   3.071 -0.4733  1.7255 -0.7639
 2228SOL    HW3 8685   5.285   4.147   3.013 -1.9288  0.2658 -0.0242
 2228SOL    MW4 8686   5.272   4.232   3.025 -0.3575 -0.3231  0.2663
 2229SOL     OW 8687   2.260   5.097   3.132  0.3334  0.3237  0.1422
 2229SOL    HW2 8688   2.290   5.186   3.151 -1.1006  0.4607  2.0868
 2229SOL    HW3 8689   2.297   5.044   3.202 -0.8965 -0.1423  0.4531
 2229SOL    MW4 8690   2.269   5.102   3.144  0.4324 -0.6874 -0.3867
 2230SOL     OW 8691   4.102   4.549   4.472 -0.0261 -0.0404  0.1482
 2230SOL    HW2 8692   4.059   4.470   4.505  0.0369  0.1074  0.5943
 2230SOL    HW3 8693   4.191   4.544   4.506  0.5709 -0.7509 -1.4412
 2230SOL    MW4 8694   4.108   4.538   4.481  0.7966  0.2693  0.2295
 2231SOL     OW 8695   3.141   2.946   0.112  0.1344  0.5209 -0.3528
 2231SOL    HW2 8696   3.174   3.036   0.115 -1.3494  1.1239 -1.1211
 2231SOL    HW3 8697   3.151   2.914   0.202 -0.8275  2.0256  0.3205
 2231SOL    MW4 8698   3.147   2.954   0.124 -0.7749  0.0620  0.2809
 2232SOL     OW 8699   6.053   6.159   4.164  0.0782  0.3269 -0.6166
 2232SOL    HW2 8700   6.111   6.087   4.190 -0.4797 -0.3409 -1.1983
 2232SOL    HW3 8701   5.973   6.145   4.215  0.7174  1.7681  0.8842
 2232SOL    MW4 8702   6.050   6.148   4.174 -0.2680 -0.2792  0.2372
 2233SOL     OW 8703   2.355   5.756   0.397  0.4328  0.3796  0.0231
 2233SOL    HW2 8704   2.293   5.767   0.469  3.1277  0.3690  2.5748
 2233SOL    HW3 8705   2.432   5.717   0.438  2.4129  1.0084 -2.7718
 2233SOL    MW4 8706   2.357   5.753   0.412  0.1186 -0.3986  0.0267
 2234SOL     OW 8707   4.250   2.647   0.923 -0.3050 -0.1833  0.1477
 2234SOL    HW2 8708   4.266   2.553   0.933  1.1337 -0.3848 -2.9383
 2234SOL    HW3 8709   4.193   2.654   0.847 -0.4204  1.4730  0.3427
 2234SOL    MW4 8710   4.245   2.635   0.915  0.4136  0.0789 -0.3299
 2235SOL     OW 8711   3.074   1.966   0.984 -0.1163  0.3912 -0.5741
 2235SOL    HW2 8712   3.143   1.973   0.917 -1.3433 -1.1279 -2.1075
 2235SOL    HW3 8713   3.008   2.030   0.957 -0.6544 -0.2880 -0.9315
 2235SOL    MW4 8714   3.074   1.975   0.972 -0.5044  0.1051 -0.4205
 2236SOL     OW 8715   0.794   1.548   5.837 -0.3310 -0.3692 -0.1131
 2236SOL    HW2 8716   0.748   1.538   5.754 -0.4786 -4.3005  0.2587
 2236SOL    HW3 8717   0.882   1.514   5.820  0.6185  1.5315  0.6807
 2236SOL    MW4 8718   0.799   1.542   5.824  0.5052  0.1315  0.2254
 2237SOL     OW 8719   3.215   1.176   2.860 -0.0465 -0.1050  0.7059
 2237SOL    HW2 8720   3.156   1.119   2.910  0.5032 -1.3804 -0.0446
 2237SOL    HW3 8721   3.302   1.158   2.896  0.1368  0.2377  0.4401
 2237SOL    MW4 8722   3.219   1.166   2.872 -0.4311  0.2909  0.1622
 2238SOL     OW 8723   3.857   5.391   2.140 -0.1665  0.4147  0.6303
 2238SOL    HW2 8724   3.825   5.422   2.055 -0.3107 -2.0206 -0.2984
 2238SOL    HW3 8725   3.925   5.327   2.118 -1.1629 -1.3203  2.2630
 2238SOL    MW4 8726   3.862   5.387   2.126  0.3843  0.1808  0.1793
 2239SOL     OW 8727   0.999   2.448   0.181  0.5707  0.3077  0.9453
 2239SOL    HW2 8728   0.925   2.406   0.225  0.0315 -1.0437 -1.1019
 2239SOL    HW3 8729   0.959   2.503   0.114  1.3778 -0.4927 -0.2355
 2239SOL    MW4 8730   0.984   2.450   0.178 -0.7561  0.0673  0.2273
 2240SOL     OW 8731   4.003   0.897   4.072 -0.1005  0.2993 -0.0458
 2240SOL    HW2 8732   3.996   0.944   4.156 -0.9812 -0.9033  0.5814
 2240SOL    HW3 8733   4.046   0.815   4.095 -0.2410  0.0121 -0.7954
 2240SOL    MW4 8734   4.008   0.892   4.086  0.7166  0.4805 -0.0506
 2241SOL     OW 8735   5.107   4.859   0.803  0.5887  0.4826  0.5427
 2241SOL    HW2 8736   5.069   4.851   0.890 -2.5421  0.4149 -0.6829
 2241SOL    HW3 8737   5.056   4.929   0.761  0.6995 -0.7457 -1.8150
 2241SOL    MW4 8738   5.095   4.867   0.809 -0.0968 -0.3483  0.8141
 2242SOL     OW 8739   4.841   3.078   3.975  0.3596  0.1529 -0.1596
 2242SOL    HW2 8740   4.757   3.032   3.981 -1.2772  2.9016  0.1019
 2242SOL    HW3 8741   4.900   3.016   3.933 -2.1556 -1.4910 -1.5426
 2242SOL    MW4 8742   4.838   3.064   3.970 -0.5410 -0.2776 -0.3360
 2243SOL     OW 8743   5.493   5.092   5.381 -0.1956  0.2572 -0.0665
 2243SOL    HW2 8744   5.546   5.099   5.460 -0.8072 -0.0247  0.3835
 2243SOL    HW3 8745   5.554   5.105   5.308  0.1285  1.9831  0.4768
 2243SOL    MW4 8746   5.508   5.094   5.381 -0.0409  0.3356  0.8033
 2244SOL     OW 8747   2.425   4.778   5.208  0.0095  0.3482  0.5366
 2244SOL    HW2 8748   2.477   4.706   5.242 -1.3237 -0.8114  0.2288
 2244SOL    HW3 8749   2.460   4.856   5.251  1.2929 -0.5089  1.0956
 2244SOL    MW4 8750   2.436   4.779   5.218  0.3678  0.5908  0.0359
 2245SOL     OW 8751   4.373   1.390   0.268 -0.1473 -0.3093  0.4674
 2245SOL    HW2 8752   4.331   1.421   0.188  0.6665 -0.1375  0.1068
 2245SOL    HW3 8753   4.393   1.298   0.251  1.3146  0.0830 -0.0839
 2245SOL    MW4 8754   4.370   1.382   0.256 -0.6660 -0.1079  0.1580
 2246SOL     OW 8755   4.760   1.727   4.157 -0.2883 -0.5231 -0.3678
 2246SOL    HW2 8756   4.804   1.727   4.072  1.6974 -1.5976  0.5786
 2246SOL    HW3 8757   4.801   1.798   4.206  0.7327 -1.7551  0.6515
 2246SOL    MW4 8758   4.771   1.736   4.153  0.7661  0.1946 -0.6268
 2247SOL     OW 8759   3.472   3.610   0.806  0.2186  0.8077 -0.1940
 2247SOL    HW2 8760   3.508   3.698   0.821  3.3598 -0.5070  0.9613
 2247SOL    HW3 8761   3.484   3.595   0.712  0.3626  1.3495 -0.2655
 2247SOL    MW4 8762   3.478   3.620   0.795  0.2213 -0.3548  0.6482
 2248SOL     OW 8763   4.854   2.946   4.678  0.3123  0.4407  0.1648
 2248SOL    HW2 8764   4.896   2.903   4.753 -1.6433 -1.6482  0.1471
 2248SOL    HW3 8765   4.845   3.037   4.705  1.8466  0.2657  1.4482
 2248SOL    MW4 8766   4.859   2.952   4.691 -0.2940  0.0264  0.4170
 2249SOL     OW 8767   5.704   6.135   1.759 -0.0072 -0.2428 -0.3472
 2249SOL    HW2 8768   5.622   6.096   1.728 -0.4937  2.2436 -2.5314
 2249SOL    HW3 8769   5.711   6.218   1.712  1.8807  1.4884  2.6080
 2249SOL    MW4 8770   5.695   6.141   1.749  0.3177 -0.7389 -0.7388
 2250SOL     OW 8771   4.019   4.496   2.003  0.5221 -0.1315  0.5235
 2250SOL    HW2 8772   3.938   4.546   2.013  1.0504  1.2282 -1.3136
 2250SOL    HW3 8773   3.993   4.421   1.949  0.1557 -0.6691  1.4328
 2250SOL    MW4 8774   4.005   4.493   1.997  0.3408 -0.1817  0.5366
 2251SOL     OW 8775   3.448   5.030   4.152 -0.2393 -0.1714  0.3396
 2251SOL    HW2 8776   3.493   4.984   4.222 -0.1811  0.6338  0.8469
 2251SOL    HW3 8777   3.355   5.022   4.174 -0.3519 -1.5650 -0.5398
 2251SOL    MW4 8778   3.441   5.023   4.164 -0.1097 -0.6234 -0.1803
 2252SOL     OW 8779   0.469   3.045   3.388  0.3334 -0.0628  0.0329
 2252SOL    HW2 8780   0.553   3.091   3.381  0.2906  0.0112  0.0107
 2252SOL    HW3 8781   0.485   2.960   3.346  0.0885  0.3635 -0.9542
 2252SOL    MW4 8782   0.482   3.040   3.381  0.5572 -0.2113  0.3540
 2253SOL     OW 8783   5.214   4.328   2.335 -0.3757 -0.3833  1.2178
 2253SOL    HW2 8784   5.284   4.390   2.355 -0.9671  1.1724 -1.1437
 2253SOL    HW3 8785   5.156   4.332   2.411  1.1456 -0.3879  2.4350
 2253SOL    MW4 8786   5.216   4.336   2.347 -0.7490  0.2867 -0.1583
 2254SOL     OW 8787   2.831   0.637   5.002  0.0366  0.0248 -0.2218
 2254SOL    HW2 8788   2.899   0.634   4.935  2.0958 -1.1814  1.7707
 2254SOL    HW3 8789   2.750   0.656   4.954  1.6247  0.7757 -2.7932
 2254SOL    MW4 8790   2.829   0.639   4.987 -0.1830 -0.1374 -0.3467
 2255SOL     OW 8791   0.276   0.005   4.769 -0.3629  0.6970 -0.4115
 2255SOL    HW2 8792   0.323  -0.060   4.820 -0.7840  1.3267  0.8061
 2255SOL    HW3 8793   0.304  -0.011   4.679 -2.1990 -2.6853 -0.5491
 2255SOL    MW4 8794   0.286  -0.005   4.764  0.1082 -0.4961 -0.0883
 2256SOL     OW 8795   4.466   4.316   1.891 -0.6594  0.4172  0.5734
 2256SOL    HW2 8796   4.529   4.341   1.958 -1.1772  1.9577  0.5221
 2256SOL    HW3 8797   4.426   4.399   1.863 -1.0413 -0.2768 -1.0419
 2256SOL    MW4 8798   4.469   4.330   1.896 -0.4277  0.1432  0.8777
 2257SOL     OW 8799   2.504   4.442   3.427  0.3264 -0.1239 -0.3853
 2257SOL    HW2 8800   2.470   4.365   3.381 -1.2299  0.2741  0.0674
 2257SOL    HW3 8801   2.580   4.408   3.476 -0.1086 -1.2901 -0.4865
 2257SOL    MW4 8802   2.510   4.427   3.428  0.1496  0.0556 -0.2456
 2258SOL     OW 8803   3.523   1.165   6.425 -0.2997 -0.4368 -0.5644
 2258SOL    HW2 8804   3.487   1.098   6.483 -1.2849 -0.1689 -0.8396
 2258SOL    HW3 8805   3.468   1.242   6.442  1.2576  0.5429  0.2727
 2258SOL    MW4 8806   3.511   1.167   6.435 -0.5511  0.0504 -0.3738
 2259SOL     OW 8807   3.657   0.835   3.705 -0.7637 -0.3243 -0.2831
 2259SOL    HW2 8808   3.633   0.864   3.792  1.7709  1.9030 -0.2103
 2259SOL    HW3 8809   3.727   0.771   3.719  0.2853  0.7081 -0.6436
 2259SOL    MW4 8810   3.664   0.830   3.718 -0.3887  0.1200 -0.0452
 2260SOL     OW 8811   5.113   6.314   2.168 -0.1018 -0.1156 -0.3204
 2260SOL    HW2 8812   5.045   6.291   2.105 -0.9734  0.2673  0.4522
 2260SOL    HW3 8813   5.147   6.398   2.137 -0.0686 -0.2505 -0.6457
 2260SOL    MW4 8814   5.109   6.322   2.156 -0.0198  0.2014  0.2768
 2261SOL     OW 8815   4.124   0.359   6.422  0.1979 -0.4989  0.0694
 2261SOL    HW2 8816   4.151   0.444   6.457 -2.2961  0.1557  0.5742
 2261SOL    HW3 8817   4.094   0.310   6.498 -0.0193 -1.1847 -0.4536
 2261SOL    MW4 8818   4.124   0.364   6.436 -0.2001  0.1320  0.2647
 2262SOL     OW 8819   4.308   1.599   4.947 -0.1473 -0.1098  0.1064
 2262SOL    HW2 8820   4.250   1.668   4.981 -0.3741 -0.2131 -0.0684
 2262SOL    HW3 8821   4.279   1.586   4.857  0.3108  0.0081 -0.0590
 2262SOL    MW4 8822   4.297   1.606   4.940 -0.5645  0.4718 -0.4210
 2263SOL     OW 8823   5.659   6.328   5.626  0.7258 -0.2963  0.7259
 2263SOL    HW2 8824   5.662   6.305   5.534 -3.3862 -0.5235  0.4996
 2263SOL    HW3 8825   5.664   6.245   5.672 -0.6474 -0.5095  0.5150
 2263SOL    MW4 8826   5.660   6.314   5.620 -0.3469  0.1247  0.1149
 2264SOL     OW 8827   3.378   1.361   4.563  0.5335  0.2001 -0.2078
 2264SOL    HW2 8828   3.392   1.356   4.657 -1.5134  1.9225  0.2658
 2264SOL    HW3 8829   3.336   1.278   4.539 -0.1431  0.2872  0.6563
 2264SOL    MW4 8830   3.374   1.349   4.572 -0.4272 -0.6810  0.4349
 2265SOL     OW 8831   5.627   1.642   4.012 -0.4849 -0.2288 -0.7873
 2265SOL    HW2 8832   5.698   1.584   3.984  0.7422  0.7609  0.1592
 2265SOL    HW3 8833   5.642   1.654   4.106 -2.2698 -0.4535 -0.4331
 2265SOL    MW4 8834   5.638   1.636   4.021  0.5009  0.0497  0.4514
 2266SOL     OW 8835   4.510   0.581   0.828  0.1847  0.8484  0.3083
 2266SOL    HW2 8836   4.601   0.553   0.825 -0.1018 -0.0868  0.2189
 2266SOL    HW3 8837   4.515   0.675   0.848  1.1490  0.6912  0.8887
 2266SOL    MW4 8838   4.523   0.590   0.830 -0.1397  0.2921  0.1912
 2267SOL     OW 8839   2.650   3.466   5.056  0.2433  0.1736  0.1613
 2267SOL    HW2 8840   2.712   3.437   4.990 -0.8224 -0.0886 -0.7666
 2267SOL    HW3 8841   2.565   3.461   5.012 -0.2252  2.6567  0.6529
 2267SOL    MW4 8842   2.647   3.462   5.042  0.0390  0.7628  0.2821
 2268SOL     OW 8843   2.060   2.893   1.529  0.2022 -0.0112 -0.2603
 2268SOL    HW2 8844   2.123   2.826   1.558  1.1108  0.5160 -0.9744
 2268SOL    HW3 8845   1.979   2.844   1.515  0.5099 -0.7499  0.4203
 2268SOL    MW4 8846   2.058   2.877   1.531  0.1722 -0.7946  0.0250
 2269SOL     OW 8847   2.568   5.167   6.352  0.0968 -0.4258 -0.1174
 2269SOL    HW2 8848   2.540   5.171   6.261 -0.6833 -0.6253  0.1021
 2269SOL    HW3 8849   2.562   5.074   6.375 -1.3769 -0.1748  0.6205
 2269SOL    MW4 8850   2.564   5.155   6.343 -0.2416 -0.6187  0.1051
 2270SOL     OW 8851   4.924   1.160   3.769 -0.0909  0.4846 -0.5337
 2270SOL    HW2 8852   4.861   1.228   3.793 -1.5015 -0.9827  0.0953
 2270SOL    HW3 8853   4.889   1.122   3.688 -0.2351 -0.5804  0.0104
 2270SOL    MW4 8854   4.911   1.164   3.761  0.0079 -0.1446  0.5707
 2271SOL     OW 8855   2.321  -0.003   0.287  0.3598 -0.5082  0.1539
 2271SOL    HW2 8856   2.367  -0.069   0.339  2.7608 -1.6438 -3.0946
 2271SOL    HW3 8857   2.265  -0.054   0.229 -0.7244  0.6113  0.1749
 2271SOL    MW4 8858   2.319  -0.018   0.286  1.0360  0.2435  0.0056
 2272SOL     OW 8859   0.547   4.091   4.127 -0.3362 -0.1729 -0.1890
 2272SOL    HW2 8860   0.456   4.120   4.129 -0.1205  0.5179 -0.2476
 2272SOL    HW3 8861   0.598   4.169   4.151  0.2923 -0.3199 -1.0055
 2272SOL    MW4 8862   0.542   4.105   4.130 -0.1065  0.5506 -0.2347
 2273SOL     OW 8863   1.321   2.083   0.786  0.6794  0.1237 -0.2575
 2273SOL    HW2 8864   1.310   2.169   0.746  1.9701 -0.5047 -2.1351
 2273SOL    HW3 8865   1.282   2.022   0.723  1.9199 -0.8363 -0.1377
 2273SOL    MW4 8866   1.314   2.086   0.772  0.0722  0.6047 -0.6443
 2274SOL     OW 8867   5.790   3.574   4.360  0.5036  0.4152  0.3113
 2274SOL    HW2 8868   5.723   3.514   4.327  0.3659 -0.3131  1.8180
 2274SOL    HW3 8869   5.868   3.554   4.308 -0.1412  0.4777 -0.6935
 2274SOL    MW4 8870   5.792   3.563   4.349  0.3323 -0.0204  0.1739
 2275SOL     OW 8871   2.550   2.507   5.042  0.8538 -0.2129 -0.2660
 2275SOL    HW2 8872   2.476   2.519   4.983 -0.6837 -1.0734  1.3641
 2275SOL    HW3 8873   2.569   2.595   5.074 -1.6296 -0.2354  1.6532
 2275SOL    MW4 8874   2.542   2.520   5.039 -0.6069  0.4026 -0.3317
 2276SOL     OW 8875   0.133   2.406   2.563 -0.0999 -0.2535 -0.3638
 2276SOL    HW2 8876   0.158   2.480   2.619 -2.1989  1.4558 -1.5033
 2276SOL    HW3 8877   0.041   2.424   2.540 -1.7010 -4.7008  1.5437
 2276SOL    MW4 8878   0.124   2.418   2.567 -0.4719  0.0374  0.0744
 2277SOL     OW 8879   1.569   2.408   2.149  0.0521 -0.4978 -0.2846
 2277SOL    HW2 8880   1.520   2.428   2.229 -0.3747 -0.6091 -0.5162
 2277SOL    HW3 8881   1.564   2.489   2.098 -1.1323 -0.9683 -0.9430
 2277SOL    MW4 8882   1.562   2.422   2.153  0.8585 -0.9364 -0.1454
 2278SOL     OW 8883   0.303   2.297   2.304 -0.2996 -0.0821  0.4544
 2278SOL    HW2 8884   0.292   2.369   2.366 -0.2555 -2.8251  3.9670
 2278SOL    HW3 8885   0.397   2.294   2.285 -0.1113 -0.0074  1.3564
 2278SOL    MW4 8886   0.314   2.306   2.309 -0.1275  0.4678 -0.0900
 2279SOL     OW 8887   0.709   1.715   2.765  0.0056  0.0266  0.4261
 2279SOL    HW2 8888   0.695   1.620   2.764  1.9228 -0.2903 -0.3394
 2279SOL    HW3 8889   0.636   1.750   2.714  0.9262 -1.3498 -2.0393
 2279SOL    MW4 8890   0.697   1.707   2.758  0.1048 -0.2822  0.3995
 2280SOL     OW 8891   0.667   0.745   6.385  0.9063  0.0572 -0.1320
 2280SOL    HW2 8892   0.710   0.799   6.452  0.5594 -2.4764  2.3435
 2280SOL    HW3 8893   0.735   0.685   6.356  0.1280 -1.3810  0.8849
 2280SOL    MW4 8894   0.682   0.745   6.390 -0.1301 -0.5228  0.4315
 2281SOL     OW 8895   0.270   0.731   5.217  0.6078  0.9018 -0.5560
 2281SOL    HW2 8896   0.330   0.797   5.254  2.0180  0.8233 -2.5347
 2281SOL    HW3 8897   0.323   0.684   5.154 -0.8711 -1.0117 -0.4526
 2281SOL    MW4 8898   0.285   0.734   5.214  0.8855  0.6226 -0.1593
 2282SOL     OW 8899   0.096   0.215   3.403  0.7023 -0.0665 -0.0933
 2282SOL    HW2 8900   0.092   0.180   3.492 -2.1546 -0.4295 -0.2709
 2282SOL    HW3 8901   0.113   0.309   3.414  0.5475 -0.1417  0.8096
 2282SOL    MW4 8902   0.098   0.223   3.416 -0.0114  0.2630  0.0150
 2283SOL     OW 8903   2.849   3.316   2.275 -0.3511  0.2979  0.1300
 2283SOL    HW2 8904   2.888   3.390   2.321 -0.6647 -0.1559  1.1443
 2283SOL    HW3 8905   2.923   3.271   2.234  0.2867 -0.6598  2.1810
 2283SOL    MW4 8906   2.864   3.320   2.276  0.0276  0.7830  0.9125
 2284SOL     OW 8907   2.918   0.992   2.184  0.3207 -0.2632 -0.3998
 2284SOL    HW2 8908   2.905   0.923   2.249  2.7021  0.7296  1.2823
 2284SOL    HW3 8909   2.830   1.022   2.163 -0.6055 -1.5284  1.3877
 2284SOL    MW4 8910   2.904   0.986   2.190  0.2653  0.8978 -0.0599
 2285SOL     OW 8911   5.407   3.556   2.983  0.3045 -0.6485  0.2145
 2285SOL    HW2 8912   5.345   3.615   2.941  0.1755 -1.7389 -1.2201
 2285SOL    HW3 8913   5.358   3.474   2.994  0.1443 -0.2558  3.1062
 2285SOL    MW4 8914   5.392   3.553   2.979 -0.7265  0.3446 -0.2583
 2286SOL     OW 8915   2.712   2.430   4.637 -0.4919 -0.4202 -0.3064
 2286SOL    HW2 8916   2.682   2.494   4.573 -1.6517 -0.2279  0.3975
 2286SOL    HW3 8917   2.774   2.375   4.589  0.8807  1.4724 -0.8214
 2286SOL    MW4 8918   2.716   2.431   4.622  0.0461  0.6072  0.1642
 2287SOL     OW 8919   1.456   2.082   3.378  0.6011  0.1084  0.6364
 2287SOL    HW2 8920   1.499   2.051   3.299 -0.8737  2.1214 -1.0679
 2287SOL    HW3 8921   1.393   2.013   3.401  1.6591 -0.8871  0.6184
 2287SOL    MW4 8922   1.453   2.069   3.371  0.4783  0.4735  0.0167
 2288SOL     OW 8923   6.087   3.506   1.426 -0.0260 -0.3588 -0.0692
 2288SOL    HW2 8924   6.092   3.498   1.330  0.9008  0.5102 -0.1042
 2288SOL    HW3 8925   6.177   3.523   1.453 -0.6550  2.1692  0.6776
 2288SOL    MW4 8926   6.099   3.507   1.417  0.4902 -0.0515  0.1284
 2289SOL     OW 8927   0.691   5.772   0.354  0.2530  0.1559 -0.3734
 2289SOL    HW2 8928   0.726   5.860   0.341 -1.6766  0.6639 -3.1266
 2289SOL    HW3 8929   0.630   5.781   0.427  1.3442  0.6713  0.4929
 2289SOL    MW4 8930   0.688   5.785   0.362  0.2243 -0.6058 -0.2765
 2290SOL     OW 8931   3.114   3.558   4.476 -0.4190 -0.3338  0.2269
 2290SOL    HW2 8932   3.129   3.652   4.484 -0.4936 -0.4231  1.7083
 2290SOL    HW3 8933   3.158   3.533   4.394  1.2237  0.6671  0.7520
 2290SOL    MW4 8934   3.122   3.567   4.466 -0.7129  0.0396 -0.1767
 2291SOL     OW 8935   1.886   2.856   5.746 -0.0535  0.1435  0.1920
 2291SOL    HW2 8936   1.971   2.891   5.775 -0.4648 -1.1033  3.3103
 2291SOL    HW3 8937   1.901   2.762   5.735 -1.5525 -0.6620  3.7399
 2291SOL    MW4 8938   1.899   2.848   5.748  0.0123 -0.6715 -0.2432
 2292SOL     OW 8939   4.474   4.968   0.324  0.4485 -0.4761  0.1823
 2292SOL    HW2 8940   4.528   4.907   0.274 -0.7509 -0.2003 -1.5351
 2292SOL    HW3 8941   4.472   5.048   0.271 -1.3545 -0.3703  0.3538
 2292SOL    MW4 8942   4.481   4.971   0.310  0.3851 -0.5299 -0.3693
 2293SOL     OW 8943   0.770   5.508   4.398  0.0145  0.0684  0.8564
 2293SOL    HW2 8944   0.832   5.436   4.399 -1.4399 -1.2739 -0.2224
 2293SOL    HW3 8945   0.760   5.530   4.305 -0.5395  0.7607  1.0721
 2293SOL    MW4 8946   0.777   5.501   4.386  0.4503 -0.1904  0.3241
 2294SOL     OW 8947   4.768   0.144   2.296 -0.5082 -0.3436  0.4286
 2294SOL    HW2 8948   4.718   0.216   2.257  2.6516  1.1866 -1.1574
 2294SOL    HW3 8949   4.770   0.076   2.229  0.1954 -0.0507  0.1435
 2294SOL    MW4 8950   4.762   0.145   2.282  0.3766  0.0474  1.2889
 2295SOL     OW 8951   1.366   2.501   0.394  0.6647 -0.4012 -0.5698
 2295SOL    HW2 8952   1.410   2.422   0.426  1.9571  0.1227 -1.0088
 2295SOL    HW3 8953   1.434   2.551   0.351 -0.4815  0.1565 -1.8292
 2295SOL    MW4 8954   1.380   2.497   0.392 -0.4027 -0.1128  0.4148
 2296SOL     OW 8955   5.061   4.777   3.496 -0.2097  0.3360 -0.1760
 2296SOL    HW2 8956   5.131   4.790   3.560 -1.7534 -0.1531  1.7116
 2296SOL    HW3 8957   4.981   4.784   3.547 -1.5019 -4.0772 -1.2047
 2296SOL    MW4 8958   5.060   4.780   3.511  0.2103  0.5340  0.0578
 2297SOL     OW 8959   2.819   5.193   5.015  0.3591 -0.0943  0.7230
 2297SOL    HW2 8960   2.769   5.265   4.977 -0.1032 -0.5872  0.3661
 2297SOL    HW3 8961   2.767   5.115   4.994  1.1813 -0.5952  0.5199
 2297SOL    MW4 8962   2.805   5.192   5.007  0.1898 -0.0723 -0.0703
 2298SOL     OW 8963   0.276   3.792   1.862 -0.0661  0.5089 -0.0700
 2298SOL    HW2 8964   0.203   3.731   1.863  0.6987 -0.4574  1.5838
 2298SOL    HW3 8965   0.327   3.770   1.940  1.7325  1.4673 -0.9022
 2298SOL    MW4 8966   0.273   3.781   1.872 -0.6012  0.0644 -0.6341
 2299SOL     OW 8967   4.506   6.380   4.015  0.3085 -0.1353 -0.7541
 2299SOL    HW2 8968   4.541   6.461   3.978  1.8663 -0.5981 -0.3970
 2299SOL    HW3 8969   4.536   6.380   4.106 -1.2555 -0.2463 -0.2214
 2299SOL    MW4 8970   4.515   6.391   4.022  0.3783 -0.1582  0.2691
 2300SOL     OW 8971   4.452   5.829   2.410 -0.4052  0.0613  0.2356
 2300SOL    HW2 8972   4.400   5.855   2.486  0.3476  0.5497  0.5867
 2300SOL    HW3 8973   4.533   5.793   2.447  1.2662  2.9473 -0.3158
 2300SOL    MW4 8974   4.456   5.828   2.425  0.3596 -0.4196  0.4168
 2301SOL     OW 8975   1.887   2.249   1.886 -0.5103  0.2085  0.0906
 2301SOL    HW2 8976   1.942   2.205   1.821 -2.2758 -4.1178  1.1326
 2301SOL    HW3 8977   1.819   2.292   1.835 -0.8749 -1.6295 -1.0785
 2301SOL    MW4 8978   1.885   2.249   1.871  0.0206 -0.3174  0.4570
 2302SOL     OW 8979   1.215   5.639   2.375  0.3111 -0.0220  0.2425
 2302SOL    HW2 8980   1.133   5.591   2.360  0.9210 -0.4783 -1.9732
 2302SOL    HW3 8981   1.279   5.594   2.320  1.6884  1.3215  0.6892
 2302SOL    MW4 8982   1.213   5.627   2.365  0.3150  0.1087 -0.2638
 2303SOL     OW 8983   1.597   6.081   5.792  0.3446 -0.1048 -0.8042
 2303SOL    HW2 8984   1.590   6.099   5.698  0.3051 -0.0369 -0.7886
 2303SOL    HW3 8985   1.543   6.148   5.833 -1.0325 -1.1603 -0.8313
 2303SOL    MW4 8986   1.589   6.092   5.785 -0.8813  0.3194 -0.1246
 2304SOL     OW 8987   1.879   3.321   2.050  0.1591 -0.0904 -0.0647
 2304SOL    HW2 8988   1.843   3.383   1.986  0.0732  0.3252  0.3731
 2304SOL    HW3 8989   1.817   3.248   2.050 -0.3742  0.3544  0.2543
 2304SOL    MW4 8990   1.866   3.320   2.041  0.2804  0.5352 -0.1151
 2305SOL     OW 8991   0.583   1.841   4.320  0.1034 -0.4493  0.0367
 2305SOL    HW2 8992   0.600   1.923   4.273 -1.8133  0.1455  0.2802
 2305SOL    HW3 8993   0.659   1.786   4.301  1.7161  1.5618  0.3092
 2305SOL    MW4 8994   0.595   1.845   4.311  0.2877  0.8910 -0.7659
 2306SOL     OW 8995   6.094   4.793   2.609 -0.0733  0.1477  0.4715
 2306SOL    HW2 8996   6.111   4.798   2.515 -1.5970  1.3096  0.2199
 2306SOL    HW3 8997   6.087   4.884   2.637 -1.8100 -0.1854  1.2639
 2306SOL    MW4 8998   6.096   4.806   2.600 -0.1926  0.0310 -0.4657
 2307SOL     OW 8999   5.236   2.739   2.770  0.0314 -0.6138 -0.0279
 2307SOL    HW2 9000   5.277   2.710   2.689 -1.3937 -2.0294 -0.2833
 2307SOL    HW3 9001   5.192   2.820   2.747  1.1962  0.0040 -0.1705
 2307SOL    MW4 9002   5.236   2.746   2.756 -0.2251 -0.4084  0.3306
 2308SOL     OW 9003   3.945   4.347   4.159  0.2402 -0.1625  0.0322
 2308SOL    HW2 9004   3.850   4.357   4.161  0.3509  1.4467 -1.2361
 2308SOL    HW3 9005   3.958   4.253   4.142 -1.2127  0.0474 -3.0241
 2308SOL    MW4 9006   3.934   4.336   4.157  1.4519  0.5466  0.2622
 2309SOL     OW 9007   6.014   2.279   3.302  0.2976  0.1836  0.3209
 2309SOL    HW2 9008   6.040   2.350   3.361 -2.6620 -0.1352  2.2268
 2309SOL    HW3 9009   6.018   2.318   3.214  3.6222  1.0580  0.7436
 2309SOL    MW4 9010   6.018   2.293   3.298 -0.0912 -0.1622 -0.5535
 2310SOL     OW 9011   6.109   5.845   1.362 -0.2922 -0.3332 -0.5225
 2310SOL    HW2 9012   6.121   5.758   1.324 -2.1704 -0.9308  0.1555
 2310SOL    HW3 9013   6.061   5.894   1.296 -2.6949 -1.0724  0.5705
 2310SOL    MW4 9014   6.104   5.840   1.348 -0.7645 -0.4176 -0.2796
 2311SOL     OW 9015   4.302   0.576   2.177 -0.1858  0.3882 -0.2128
 2311SOL    HW2 9016   4.309   0.516   2.252  0.8289 -0.1315 -0.7059
 2311SOL    HW3 9017   4.357   0.650   2.200  1.0376 -0.2766 -0.8908
 2311SOL    MW4 9018   4.310   0.578   2.190  0.8833  0.1887 -0.3012
 2312SOL     OW 9019   2.294   3.264   1.780  0.8428  0.3602  0.6763
 2312SOL    HW2 9020   2.325   3.179   1.748 -1.5156  0.0825 -1.1190
 2312SOL    HW3 9021   2.273   3.249   1.872  1.1614 -0.7756  0.5773
 2312SOL    MW4 9022   2.295   3.251   1.788  0.0198  0.7808 -0.0351
 2313SOL     OW 9023   0.347   2.625   1.847 -0.4360 -0.3604  0.3919
 2313SOL    HW2 9024   0.272   2.604   1.792 -1.0993  2.2661  0.1887
 2313SOL    HW3 9025   0.315   2.690   1.909  1.4476  0.1791  0.8791
 2313SOL    MW4 9026   0.333   2.631   1.848 -0.1895  0.0488  0.7108
 2314SOL     OW 9027   4.485   1.286   1.302  0.4534 -0.5628 -0.0861
 2314SOL    HW2 9028   4.481   1.214   1.238  0.3444  0.6050 -1.4503
 2314SOL    HW3 9029   4.479   1.365   1.249  4.3166  0.6454  0.9305
 2314SOL    MW4 9030   4.484   1.287   1.286  0.0901 -0.1473 -0.1305
 2315SOL     OW 9031   3.751   1.098   6.150  0.0421 -0.2141 -0.8945
 2315SOL    HW2 9032   3.656   1.096   6.148  0.0444 -1.5588 -0.5834
 2315SOL    HW3 9033   3.776   1.015   6.192  1.2888  0.9000  0.7211
 2315SOL    MW4 9034   3.742   1.087   6.155 -0.3941 -0.3113  0.7447
 2316SOL     OW 9035   0.964   4.367   5.920  0.3143  0.4798  0.0920
 2316SOL    HW2 9036   0.987   4.288   5.872 -0.2710  0.6588 -0.5151
 2316SOL    HW3 9037   0.904   4.337   5.988  0.2028  0.3792 -0.0491
 2316SOL    MW4 9038   0.959   4.353   5.923  0.1591  0.4680  0.6168
 2317SOL     OW 9039   4.351   0.144   5.867  0.0594 -0.1850 -0.4185
 2317SOL    HW2 9040   4.424   0.166   5.809 -1.3283  1.8960 -1.5055
 2317SOL    HW3 9041   4.384   0.159   5.955  0.6521  1.8617 -0.9327
 2317SOL    MW4 9042   4.365   0.149   5.871  0.0567  0.2724  0.1484
 2318SOL     OW 9043   2.928   5.456   4.658  0.3346 -0.1536 -0.8249
 2318SOL    HW2 9044   2.905   5.364   4.639  1.6929 -1.3914  2.7414
 2318SOL    HW3 9045   3.023   5.458   4.654  0.3182  1.1231 -0.7962
 2318SOL    MW4 9046   2.937   5.444   4.655 -0.2610  0.0402  0.1115
 2319SOL     OW 9047   2.407   0.231   4.859  0.0484  0.4277  0.0357
 2319SOL    HW2 9048   2.450   0.212   4.943 -0.1395  0.4751  0.1422
 2319SOL    HW3 9049   2.478   0.261   4.803 -0.1345  2.5023  0.8189
 2319SOL    MW4 9050   2.422   0.233   4.863  0.3314  0.1202  0.5218
 2320SOL     OW 9051   3.901   5.495   0.543 -0.3907  0.0159 -0.0776
 2320SOL    HW2 9052   3.944   5.528   0.622 -0.0593  1.5910 -0.8756
 2320SOL    HW3 9053   3.966   5.436   0.504 -0.0565  0.2174  0.1640
 2320SOL    MW4 9054   3.916   5.492   0.549  0.2756  0.1404 -0.6205
 2321SOL     OW 9055   1.392   0.722   1.046 -0.2937 -0.3263  0.4110
 2321SOL    HW2 9056   1.447   0.692   0.974 -1.3453  0.2112 -0.6436
 2321SOL    HW3 9057   1.304   0.694   1.022 -1.0703  2.0629  0.2239
 2321SOL    MW4 9058   1.388   0.714   1.033 -0.7514 -0.2257  0.3520
 2322SOL     OW 9059   1.287   2.723   0.573 -0.3283  0.4185 -0.2245
 2322SOL    HW2 9060   1.328   2.661   0.513 -0.1214  0.4960 -0.1612
 2322SOL    HW3 9061   1.359   2.766   0.618 -0.4857 -0.7498  1.2265
 2322SOL    MW4 9062   1.302   2.720   0.571  0.8245 -0.1447 -0.5863
 2323SOL     OW 9063   6.272   0.873   3.237 -0.3955  0.6358 -0.5309
 2323SOL    HW2 9064   6.278   0.966   3.257 -0.5600  0.4828  0.2481
 2323SOL    HW3 9065   6.266   0.830   3.322 -0.6659 -0.0651 -0.8935
 2323SOL    MW4 9066   6.272   0.880   3.251 -0.1286  0.5608 -0.2415
 2324SOL     OW 9067   4.196   3.349   4.783  0.3703 -0.1332  0.0459
 2324SOL    HW2 9068   4.184   3.354   4.689  1.2447  0.2029 -0.0529
 2324SOL    HW3 9069   4.291   3.354   4.796  0.2938 -0.6100  0.9133
 2324SOL    MW4 9070   4.207   3.350   4.773  0.1105  0.2348  0.1986
 2325SOL     OW 9071   5.300   3.527   4.210 -0.1018 -0.7719 -0.9813
 2325SOL    HW2 9072   5.239   3.599   4.228 -0.4803 -1.2542 -0.3067
 2325SOL    HW3 9073   5.284   3.464   4.279  1.1608 -0.9242 -0.8048
 2325SOL    MW4 9074   5.290   3.528   4.221  0.3107  0.0319  0.2419
 2326SOL     OW 9075   2.498   5.879   2.927 -0.7056  0.1737 -0.4205
 2326SOL    HW2 9076   2.444   5.927   2.988  0.3846  0.3441  0.4461
 2326SOL    HW3 9077   2.572   5.847   2.979 -0.4128 -0.7993 -1.3694
 2326SOL    MW4 9078   2.501   5.881   2.942 -0.4457  0.1136 -0.3785
 2327SOL     OW 9079   2.791   3.366   2.634 -0.4965 -0.3558  0.3336
 2327SOL    HW2 9080   2.824   3.277   2.624 -1.6876 -0.9473  1.3906
 2327SOL    HW3 9081   2.847   3.405   2.701  1.3401  0.4245 -1.5450
 2327SOL    MW4 9082   2.803   3.359   2.642  0.1541  0.4496  0.7390
 2328SOL     OW 9083   4.114   0.587   1.026  0.1288 -0.3974 -0.2911
 2328SOL    HW2 9084   4.079   0.671   1.056  1.8019  1.1186 -2.2947
 2328SOL    HW3 9085   4.200   0.581   1.068 -0.1170 -1.2954  0.1034
 2328SOL    MW4 9086   4.121   0.597   1.036 -0.2536 -0.2024 -0.8147
 2329SOL     OW 9087   3.864   2.792   1.441  0.2106 -0.2485  0.0693
 2329SOL    HW2 9088   3.873   2.874   1.393  0.6176  0.2038  0.9009
 2329SOL    HW3 9089   3.830   2.730   1.376 -0.4664  0.6606 -0.4740
 2329SOL    MW4 9090   3.860   2.795   1.426  0.0761 -0.2543 -0.3295
 2330SOL     OW 9091   1.107   3.194   2.140 -0.5452  0.2584 -0.1572
 2330SOL    HW2 9092   1.160   3.270   2.117  2.0715 -1.0861  0.9432
 2330SOL    HW3 9093   1.098   3.198   2.235 -2.3069  0.3122 -0.2920
 2330SOL    MW4 9094   1.113   3.204   2.149 -0.1251 -0.4418 -0.4871
 2331SOL     OW 9095   2.730   1.997   4.827  0.2770  0.6692  0.0749
 2331SOL    HW2 9096   2.780   2.043   4.759 -1.2938  1.4588 -0.5952
 2331SOL    HW3 9097   2.640   2.027   4.815 -0.7503 -2.1752 -0.0459
 2331SOL    MW4 9098   2.725   2.007   4.816 -1.2410  0.4477 -0.2326
 2332SOL     OW 9099   1.008   0.180   0.513 -0.0030  0.2907  0.0473
 2332SOL    HW2 9100   1.080   0.226   0.470  0.2346  0.2721  0.4197
 2332SOL    HW3 9101   1.050   0.133   0.585 -0.7759  2.7549  2.2741
 2332SOL    MW4 9102   1.023   0.180   0.517  0.0444  0.2259  0.5674
 2333SOL     OW 9103   2.334   0.482   5.460  0.2873 -0.1188 -0.6870
 2333SOL    HW2 9104   2.274   0.546   5.497  0.4447 -1.1564  1.4798
 2333SOL    HW3 9105   2.355   0.517   5.373 -0.6218  2.0805 -0.0890
 2333SOL    MW4 9106   2.329   0.495   5.453  0.2110 -0.3379  0.2696
 2334SOL     OW 9107   4.919   3.481   0.160 -0.0447  0.5560 -0.2406
 2334SOL    HW2 9108   4.892   3.408   0.215 -0.3418  1.8676  1.4422
 2334SOL    HW3 9109   5.007   3.458   0.131  0.3540  0.0764  1.2698
 2334SOL    MW4 9110   4.927   3.468   0.163 -0.0746 -0.4031  0.2028
 2335SOL     OW 9111   2.277   4.256   3.615 -0.0148 -0.3084 -0.2263
 2335SOL    HW2 9112   2.229   4.290   3.539 -0.4648 -1.6485 -0.5610
 2335SOL    HW3 9113   2.208   4.230   3.676  0.3449  0.7143  0.6359
 2335SOL    MW4 9114   2.262   4.257   3.613 -0.0562  0.3622  0.4619
 2336SOL     OW 9115   1.815   2.382   5.325 -0.5071  0.0869 -0.1714
 2336SOL    HW2 9116   1.847   2.291   5.325 -1.3111 -0.2739  2.2846
 2336SOL    HW3 9117   1.723   2.375   5.349 -0.9990  1.4963 -1.4891
 2336SOL    MW4 9118   1.807   2.369   5.328  0.0469 -0.6859 -0.0114
 2337SOL     OW 9119   2.771   2.983   5.484  0.0041  0.8673 -0.5372
 2337SOL    HW2 9120   2.704   3.050   5.501 -1.4256  0.1379 -2.8214
 2337SOL    HW3 9121   2.836   3.027   5.430 -0.7277  0.5746 -1.6934
 2337SOL    MW4 9122   2.770   2.997   5.479 -0.2930  0.1094 -0.2694
 2338SOL     OW 9123   5.570   2.530   5.928  0.4693 -0.5591  0.6763
 2338SOL    HW2 9124   5.547   2.619   5.952  0.7653 -0.2589 -0.1115
 2338SOL    HW3 9125   5.542   2.477   6.002 -0.8736  0.0334  0.6206
 2338SOL    MW4 9126   5.563   2.535   5.941 -0.0304  0.6293 -0.3843
 2339SOL     OW 9127   6.278   6.292   6.206 -0.5951 -0.1119 -0.1956
 2339SOL    HW2 9128   6.274   6.377   6.250  0.6567 -0.2142  0.1532
 2339SOL    HW3 9129   6.203   6.292   6.147 -1.3555  0.7052  0.7441
 2339SOL    MW4 9130   6.268   6.303   6.204 -0.3443 -0.2601  0.0459
 2340SOL     OW 9131   5.515   0.028   4.359 -0.7105  0.6737 -0.6962
 2340SOL    HW2 9132   5.491   0.093   4.294 -2.2738 -1.0198 -1.9186
 2340SOL    HW3 9133   5.609   0.014   4.346 -1.0862 -0.0636 -3.0921
 2340SOL    MW4 9134   5.524   0.034   4.349  0.0483  0.4991 -0.1165
 2341SOL     OW 9135   4.781   3.606   5.362  0.2656  0.6183  0.4767
 2341SOL    HW2 9136   4.813   3.530   5.313  1.1767  0.3600  1.4398
 2341SOL    HW3 9137   4.790   3.679   5.301  1.3113  0.2853  0.2024
 2341SOL    MW4 9138   4.787   3.605   5.347 -0.0298  0.3317 -0.0994
 2342SOL     OW 9139   1.053   2.713   0.710 -0.2213 -0.0634 -0.5599
 2342SOL    HW2 9140   1.131   2.705   0.656  0.1044  0.9520 -0.2716
 2342SOL    HW3 9141   1.083   2.759   0.788 -0.8836 -0.6650  0.0560
 2342SOL    MW4 9142   1.067   2.718   0.713  0.5822 -0.3466  0.1837
 2343SOL     OW 9143   4.058   5.015   4.977 -0.3194 -0.2237 -0.6684
 2343SOL    HW2 9144   4.140   5.062   4.994 -2.5331  3.1533  1.8865
 2343SOL    HW3 9145   4.033   5.042   4.889  0.3651  0.2247 -0.7402
 2343SOL    MW4 9146   4.066   5.025   4.968 -0.5351  0.3722  0.8092
 2344SOL     OW 9147   4.474   3.861   6.421  0.2825  0.4431 -0.1908
 2344SOL    HW2 9148   4.529   3.928   6.463  0.8542 -0.3408  0.3653
 2344SOL    HW3 9149   4.523   3.835   6.343 -0.2473  1.1181 -0.7537
 2344SOL    MW4 9150   4.488   3.866   6.417  0.0280 -0.3167 -0.6395
 2345SOL     OW 9151   1.660   0.680   5.197 -0.0471  0.2477  0.1972
 2345SOL    HW2 9152   1.746   0.688   5.156 -0.2126 -0.3019 -0.2674
 2345SOL    HW3 9153   1.610   0.753   5.160  0.7429  1.7132  1.8637
 2345SOL    MW4 9154   1.665   0.691   5.187  0.1787  0.6099 -0.8685
 2346SOL     OW 9155   3.429   5.959   4.095  0.2418 -0.4335  0.9209
 2346SOL    HW2 9156   3.341   5.964   4.133  0.9238 -0.3471  2.5744
 2346SOL    HW3 9157   3.454   5.867   4.104 -0.4410 -0.9345 -1.4761
 2346SOL    MW4 9158   3.421   5.947   4.101 -0.0868  0.8740 -0.2057
 2347SOL     OW 9159   4.633   6.170   3.863  0.2146  0.6830  0.3612
 2347SOL    HW2 9160   4.588   6.086   3.865  2.0405 -0.3681 -0.6254
 2347SOL    HW3 9161   4.580   6.226   3.920 -0.6600 -1.3097  1.6396
 2347SOL    MW4 9162   4.620   6.166   3.871  0.2098  0.2027  0.3456
 2348SOL     OW 9163   0.341   1.517   3.063 -0.2615 -0.2583 -0.1886
 2348SOL    HW2 9164   0.367   1.596   3.109 -0.0237 -0.1348 -0.5315
 2348SOL    HW3 9165   0.327   1.545   2.973 -1.1335 -0.4160 -0.1071
 2348SOL    MW4 9166   0.343   1.531   3.057  0.0912 -0.7313 -0.4870
 2349SOL     OW 9167   5.103   5.957   0.306  0.3876  0.4103  0.6429
 2349SOL    HW2 9168   5.165   5.948   0.233  0.8877 -0.0690  1.1222
 2349SOL    HW3 9169   5.158   5.971   0.383 -0.1368  0.8248  0.9471
 2349SOL    MW4 9170   5.119   5.958   0.306  0.3285  0.3028  0.0839
 2350SOL     OW 9171   5.192   5.478   0.728 -0.0324  0.0519 -0.1946
 2350SOL    HW2 9172   5.186   5.524   0.812  1.2657  0.6760 -0.4169
 2350SOL    HW3 9173   5.278   5.437   0.729 -0.5687 -1.1180 -0.6448
 2350SOL    MW4 9174   5.203   5.479   0.739  0.2447 -0.2773 -0.2885
 2351SOL     OW 9175   3.500   2.134   1.004 -0.3354 -0.3474  0.0644
 2351SOL    HW2 9176   3.488   2.177   0.920  0.0414  0.1284  0.2514
 2351SOL    HW3 9177   3.567   2.186   1.049 -0.7907 -0.3835  0.8059
 2351SOL    MW4 9178   3.507   2.146   0.999 -0.1549  0.1252  0.1047
 2352SOL     OW 9179   0.454   4.107   0.388 -0.6208  0.6608 -0.1097
 2352SOL    HW2 9180   0.363   4.122   0.413 -1.4010 -0.3780 -2.0998
 2352SOL    HW3 9181   0.476   4.181   0.332 -0.4389  0.5924 -0.1302
 2352SOL    MW4 9182   0.445   4.119   0.384  0.3272  0.6155 -0.2761
 2353SOL     OW 9183   3.928   4.617   6.174 -0.1451  0.2733 -0.2998
 2353SOL    HW2 9184   3.839   4.612   6.210  0.8182 -1.3931  2.0797
 2353SOL    HW3 9185   3.936   4.539   6.119  0.2577 -0.3238  0.5864
 2353SOL    MW4 9186   3.917   4.606   6.171 -0.4898  0.8321 -0.3903
 2354SOL     OW 9187   1.309   3.452   0.043 -0.2980  0.3371  0.1889
 2354SOL    HW2 9188   1.276   3.531   0.086  1.8568  1.5232 -0.2303
 2354SOL    HW3 9189   1.392   3.478   0.005 -0.8449 -1.4056 -2.4187
 2354SOL    MW4 9190   1.315   3.466   0.044  0.2857  0.0017 -0.3507
 2355SOL     OW 9191   0.348   4.160   1.110  0.6582 -0.0208 -0.2274
 2355SOL    HW2 9192   0.403   4.204   1.045  1.7870  0.3058  0.9169
 2355SOL    HW3 9193   0.354   4.215   1.188 -0.0004 -0.8458  0.4218
 2355SOL    MW4 9194   0.356   4.173   1.112 -0.3226 -0.1770  0.4044
 2356SOL     OW 9195   4.482   5.309   5.758  0.0991  0.1016 -0.3751
 2356SOL    HW2 9196   4.488   5.227   5.807  0.0420  0.2179 -0.1712
 2356SOL    HW3 9197   4.430   5.367   5.814  0.3820  0.3704 -0.3875
 2356SOL    MW4 9198   4.476   5.306   5.772  0.3240 -0.2975  0.1759
 2357SOL     OW 9199   0.770   1.293   1.702 -0.1289 -0.5109 -0.0500
 2357SOL    HW2 9200   0.809   1.213   1.735 -0.6753 -1.2766 -1.1971
 2357SOL    HW3 9201   0.794   1.360   1.767 -0.4884 -1.7671  1.4422
 2357SOL    MW4 9202   0.778   1.292   1.715  0.9258  0.6294  0.5569
 2358SOL     OW 9203   2.538   4.335   5.116  0.3034 -0.6969 -0.1875
 2358SOL    HW2 9204   2.447   4.358   5.103  0.4607 -0.1947 -0.4175
 2358SOL    HW3 9205   2.566   4.389   5.190  0.4163 -0.8546 -0.1130
 2358SOL    MW4 9206   2.530   4.345   5.124  0.1457  0.1240 -0.1481
 2359SOL     OW 9207   2.822   4.988   4.719 -0.2039  0.2891 -0.1623
 2359SOL    HW2 9208   2.911   5.023   4.712  2.0332 -4.5247  0.5301
 2359SOL    HW3 9209   2.806   4.948   4.634 -0.4210 -1.4026  0.6475
 2359SOL    MW4 9210   2.832   4.987   4.707 -0.3658 -0.2687  0.3334
 2360SOL     OW 9211   5.728   2.535   2.482 -0.0346 -0.1840 -0.2089
 2360SOL    HW2 9212   5.761   2.505   2.397 -0.9298 -0.0229 -0.6363
 2360SOL    HW3 9213   5.697   2.624   2.465  0.9677  0.3403  0.6176
 2360SOL    MW4 9214   5.728   2.543   2.469 -0.5459 -0.2603 -0.2409
 2361SOL     OW 9215   4.772   5.411   1.269 -0.2328  0.6103  0.2685
 2361SOL    HW2 9216   4.857   5.432   1.230 -0.8820  1.1978 -0.8763
 2361SOL    HW3 9217   4.709   5.462   1.218 -1.3865 -0.6061  0.4308
 2361SOL    MW4 9218   4.775   5.421   1.258  0.1094 -0.4248 -0.3754
 2362SOL     OW 9219   3.708   5.873   5.100 -0.2538 -0.2725  0.4309
 2362SOL    HW2 9220   3.652   5.942   5.064  1.3007  0.9525  0.2743
 2362SOL    HW3 9221   3.732   5.819   5.025  0.2583  0.3015  0.1707
 2362SOL    MW4 9222   3.704   5.875   5.085  0.5789  0.1289 -0.6327
 2363SOL     OW 9223   3.314   4.418   5.851  0.4985  0.2331 -0.3551
 2363SOL    HW2 9224   3.240   4.478   5.844  0.9205  0.6381 -1.6199
 2363SOL    HW3 9225   3.389   4.468   5.818  1.0676 -0.6203 -0.4023
 2363SOL    MW4 9226   3.314   4.433   5.845 -0.4419 -0.3051  0.4229
 2364SOL     OW 9227   1.970   4.672   4.602  0.5820  0.2173  0.1690
 2364SOL    HW2 9228   1.988   4.624   4.522  0.0121 -0.0031  0.1690
 2364SOL    HW3 9229   1.946   4.605   4.666  3.3270  0.1273  1.2342
 2364SOL    MW4 9230   1.970   4.657   4.600  0.1492  0.5288  0.2084
 2365SOL     OW 9231   1.484   4.154   1.018 -0.3133  0.0975  0.1631
 2365SOL    HW2 9232   1.479   4.193   1.105  0.3148 -0.0530  0.2738
 2365SOL    HW3 9233   1.428   4.210   0.964 -1.6195 -0.4672  0.8856
 2365SOL    MW4 9234   1.476   4.167   1.022 -0.2564  0.0638  0.5071
 2366SOL     OW 9235   3.806   3.026   4.015  0.0378  0.2086 -0.5064
 2366SOL    HW2 9236   3.726   3.021   3.962  0.2782 -0.7267 -0.7873
 2366SOL    HW3 9237   3.811   3.118   4.041 -0.7852  0.4104 -1.0241
 2366SOL    MW4 9238   3.796   3.038   4.012  0.4550  0.1500 -0.6454
 2367SOL     OW 9239   0.600   4.827   4.755  0.2568  0.2552 -0.3220
 2367SOL    HW2 9240   0.533   4.888   4.787 -0.4001  0.6082 -2.2676
 2367SOL    HW3 9241   0.681   4.855   4.797 -0.5789  0.5356  1.1823
 2367SOL    MW4 9242   0.602   4.838   4.765  0.1290 -0.1393  0.0024
 2368SOL     OW 9243   3.972   6.389   1.349  0.2984 -0.6510  0.3023
 2368SOL    HW2 9244   3.914   6.328   1.395 -1.1994  1.0932  0.8575
 2368SOL    HW3 9245   3.928   6.403   1.265 -0.5206  1.1846  0.9824
 2368SOL    MW4 9246   3.958   6.383   1.344  0.2899 -0.7269  0.5545
 2369SOL     OW 9247   4.993   3.437   2.197 -0.0243 -0.3779 -0.6397
 2369SOL    HW2 9248   4.964   3.432   2.288 -2.1317  0.6689 -1.1864
 2369SOL    HW3 9249   5.015   3.347   2.174 -0.2868 -0.8030  0.6508
 2369SOL    MW4 9250   4.992   3.425   2.206  0.4662 -0.1234  0.0003
 2370SOL     OW 9251   0.736   3.826   0.541 -0.3364  0.2758  0.1468
 2370SOL    HW2 9252   0.737   3.913   0.581 -1.1146  0.4834 -0.2663
 2370SOL    HW3 9253   0.652   3.821   0.495 -0.3655 -0.7473  0.2803
 2370SOL    MW4 9254   0.725   3.837   0.540 -0.3068 -0.1026  0.4778
 2371SOL     OW 9255   5.727   4.943   4.955 -0.0383  0.3938  0.4157
 2371SOL    HW2 9256   5.676   4.906   5.028 -0.3943  0.4519  0.1992
 2371SOL    HW3 9257   5.748   4.868   4.900 -2.5319  0.7040 -1.1328
 2371SOL    MW4 9258   5.723   4.928   4.958  0.1953  0.4424 -0.0380
 2372SOL     OW 9259   2.823   2.484   6.313 -0.1325  0.5467  0.5886
 2372SOL    HW2 9260   2.747   2.536   6.339 -0.8573  0.7623 -1.7317
 2372SOL    HW3 9261   2.806   2.460   6.222  1.4704 -1.4644  0.7444
 2372SOL    MW4 9262   2.811   2.488   6.304 -0.1884 -0.1530 -0.2358
 2373SOL     OW 9263   0.859   6.374   5.520  0.1386 -0.2943  0.4119
 2373SOL    HW2 9264   0.899   6.299   5.564  0.6422  0.1658  0.7502
 2373SOL    HW3 9265   0.789   6.336   5.466  0.6942 -1.0597  0.2113
 2373SOL    MW4 9266   0.855   6.359   5.519 -0.1552 -0.0327 -0.3300
 2374SOL     OW 9267   5.160   5.479   4.477  0.0059 -0.5041 -0.2751
 2374SOL    HW2 9268   5.138   5.425   4.401  0.7933 -1.7118  0.3192
 2374SOL    HW3 9269   5.128   5.567   4.455  2.2920 -0.2131 -3.0213
 2374SOL    MW4 9270   5.153   5.484   4.464  0.0084  0.6134  0.0705
 2375SOL     OW 9271   1.597   0.379   0.427  0.2768  0.0518 -0.1102
 2375SOL    HW2 9272   1.612   0.289   0.401  0.6180 -0.0396  0.3792
 2375SOL    HW3 9273   1.646   0.389   0.509  2.4990  1.4371 -1.4966
 2375SOL    MW4 9274   1.606   0.369   0.435 -0.8600  0.0497  0.1398
 2376SOL     OW 9275   1.078   0.663   3.454  0.5214  0.0948  0.3681
 2376SOL    HW2 9276   1.131   0.719   3.510  1.0393 -0.9810  0.9708
 2376SOL    HW3 9277   1.054   0.588   3.509 -1.0537  0.2115 -0.0953
 2376SOL    MW4 9278   1.082   0.661   3.469  0.1953  0.0502  0.2540
 2377SOL     OW 9279   5.918   0.191   6.220  0.0612 -0.4618 -0.0873
 2377SOL    HW2 9280   5.908   0.268   6.164 -0.2282 -0.4592 -0.0324
 2377SOL    HW3 9281   5.839   0.139   6.203  0.1787 -0.6667 -0.0024
 2377SOL    MW4 9282   5.906   0.195   6.210 -0.1747 -0.1386  0.2475
 2378SOL     OW 9283   2.687   3.402   1.294 -0.1658  0.6533  0.0291
 2378SOL    HW2 9284   2.654   3.482   1.334  0.0692  1.3021 -1.0298
 2378SOL    HW3 9285   2.703   3.426   1.202  0.5660 -0.4122 -0.1405
 2378SOL    MW4 9286   2.685   3.416   1.287  0.6696 -0.2276  0.7295
 2379SOL     OW 9287   6.000   3.777   2.767  0.9660 -0.2494 -0.6790
 2379SOL    HW2 9288   5.960   3.690   2.764 -0.0629  0.1958 -0.0625
 2379SOL    HW3 9289   5.928   3.838   2.751  1.4226  0.5595  0.2618
 2379SOL    MW4 9290   5.985   3.773   2.764 -0.3070 -0.2571  0.4926
 2380SOL     OW 9291   0.332   3.502   3.899 -0.4593  0.4069 -0.4870
 2380SOL    HW2 9292   0.329   3.594   3.872 -1.1776  0.3838 -0.5018
 2380SOL    HW3 9293   0.349   3.505   3.993  0.2728  0.5295 -0.6140
 2380SOL    MW4 9294   0.334   3.515   3.908  0.2036  1.1103  0.5438
 2381SOL     OW 9295   1.628   4.175   4.674 -0.2833 -0.4217 -0.5160
 2381SOL    HW2 9296   1.705   4.161   4.619 -0.8381 -1.2835 -1.1112
 2381SOL    HW3 9297   1.654   4.144   4.761 -0.8037 -3.5889 -1.3362
 2381SOL    MW4 9298   1.641   4.169   4.678 -0.0968  0.3053  0.1762
 2382SOL     OW 9299   5.869   1.198   5.969  0.1386 -0.3687 -0.4890
 2382SOL    HW2 9300   5.815   1.198   6.048 -1.0689 -1.0163 -1.2842
 2382SOL    HW3 9301   5.825   1.137   5.910  1.0221  0.0953 -1.6707
 2382SOL    MW4 9302   5.856   1.190   5.972  0.4689  0.1130  0.2647
 2383SOL     OW 9303   2.773   4.075   0.171  0.1205  0.0504  0.4052
 2383SOL    HW2 9304   2.681   4.062   0.195  0.2373 -0.5350  0.5651
 2383SOL    HW3 9305   2.772   4.082   0.076 -0.0388 -0.4544  0.3675
 2383SOL    MW4 9306   2.760   4.074   0.162 -0.2670 -0.6037 -0.1239
 2384SOL     OW 9307   5.734   4.488   3.507  0.6291  0.5185 -0.1401
 2384SOL    HW2 9308   5.661   4.534   3.548  1.2027  1.9782 -0.7049
 2384SOL    HW3 9309   5.693   4.420   3.454 -0.2962  1.0668 -0.1398
 2384SOL    MW4 9310   5.719   4.485   3.506  0.0350 -0.2405  0.6851
 2385SOL     OW 9311   4.629   0.307   0.076 -0.5502  0.1101 -0.9072
 2385SOL    HW2 9312   4.588   0.392   0.060  1.8162  1.2913 -1.2276
 2385SOL    HW3 9313   4.625   0.296   0.171  0.0750  1.1492 -0.7398
 2385SOL    MW4 9314   4.623   0.317   0.087 -0.5711 -0.0957 -0.2996
 2386SOL     OW 9315   6.228   0.586   2.086  0.2250 -0.6509  0.2511
 2386SOL    HW2 9316   6.175   0.659   2.055  0.6912 -0.9154 -1.2415
 2386SOL    HW3 9317   6.259   0.613   2.172  1.3978  1.4648 -0.7700
 2386SOL    MW4 9318   6.225   0.599   2.093  0.4685  0.4579 -0.5638
 2387SOL     OW 9319   2.900   4.701   6.363  0.0379  0.3909 -0.1735
 2387SOL    HW2 9320   2.886   4.763   6.292 -0.9771 -0.4407 -0.7227
 2387SOL    HW3 9321   2.852   4.623   6.337 -0.5849  0.1581  1.5396
 2387SOL    MW4 9322   2.892   4.699   6.350  0.4368  0.3795  0.5182
 2388SOL     OW 9323   6.053   3.533   1.143 -0.0692  0.0059 -0.4298
 2388SOL    HW2 9324   6.113   3.518   1.070 -0.0454  0.6680 -0.5501
 2388SOL    HW3 9325   5.976   3.480   1.121 -1.5906  2.8661 -2.8029
 2388SOL    MW4 9326   6.051   3.524   1.130  0.3245 -0.7573 -0.2281
 2389SOL     OW 9327   0.499   3.982   5.034 -0.4403 -0.1855  0.0972
 2389SOL    HW2 9328   0.436   3.951   5.100 -0.3338 -1.2824 -0.2993
 2389SOL    HW3 9329   0.554   4.044   5.081 -0.7777 -0.4681  0.8826
 2389SOL    MW4 9330   0.498   3.986   5.049  0.0301 -0.0106  0.0007
 2390SOL     OW 9331   0.117   2.579   1.122  0.6679  0.0824  0.1519
 2390SOL    HW2 9332   0.073   2.649   1.075  0.0273 -0.2353  0.2718
 2390SOL    HW3 9333   0.206   2.579   1.087  0.6946  0.9884  0.1938
 2390SOL    MW4 9334   0.123   2.588   1.111  0.3166  0.6177 -0.1336
 2391SOL     OW 9335   2.385   1.274   2.482  0.3182 -0.6232 -0.3181
 2391SOL    HW2 9336   2.431   1.261   2.399  0.0973  2.9741 -1.1650
 2391SOL    HW3 9337   2.455   1.290   2.545  0.4246 -1.5502 -0.1962
 2391SOL    MW4 9338   2.401   1.275   2.479  0.2674  0.7849 -0.4151
 2392SOL     OW 9339   5.041   2.308   4.155  0.1839  0.2452  0.0083
 2392SOL    HW2 9340   5.012   2.399   4.155  1.9760  0.9121  1.7455
 2392SOL    HW3 9341   5.061   2.289   4.063 -0.1351  1.6431 -0.3788
 2392SOL    MW4 9342   5.040   2.317   4.143 -0.1583 -0.0040 -0.0587
 2393SOL     OW 9343   3.324   3.034   3.549  0.5500  0.4835  0.0395
 2393SOL    HW2 9344   3.254   2.982   3.510 -0.9526  0.4253  2.5999
 2393SOL    HW3 9345   3.398   2.974   3.556 -0.8635 -1.1313  2.1202
 2393SOL    MW4 9346   3.324   3.019   3.545  0.1454  0.0414 -0.1453
 2394SOL     OW 9347   3.445   5.013   2.155 -0.9902  0.1546 -0.2707
 2394SOL    HW2 9348   3.394   5.049   2.082 -0.4266 -0.3112 -0.9073
 2394SOL    HW3 9349   3.405   4.928   2.173 -1.4713  0.5016  0.3349
 2394SOL    MW4 9350   3.433   5.006   2.148 -0.0059  0.0537  0.0364
 2395SOL     OW 9351   3.957   2.189   1.513 -0.2835  0.6297 -0.4777
 2395SOL    HW2 9352   3.964   2.107   1.464  1.5587  1.1895 -1.2557
 2395SOL    HW3 9353   3.877   2.229   1.480 -0.0932  0.0962 -1.6722
 2395SOL    MW4 9354   3.948   2.184   1.502 -0.3405  0.1638  0.0910
 2396SOL     OW 9355   0.278   4.993   1.834 -0.1695  0.2409  0.3677
 2396SOL    HW2 9356   0.210   5.059   1.826 -0.3568 -0.0239 -0.2843
 2396SOL    HW3 9357   0.319   5.010   1.919 -1.8335 -0.3403  1.3202
 2396SOL    MW4 9358   0.275   5.004   1.845  0.7155  0.1328 -0.1454
 2397SOL     OW 9359   4.895   4.195   3.372  0.8129  0.1867  0.3475
 2397SOL    HW2 9360   4.848   4.271   3.405  0.8709 -0.0113  0.8920
 2397SOL    HW3 9361   4.964   4.232   3.317  0.2628  0.4889 -0.1499
 2397SOL    MW4 9362   4.898   4.210   3.369 -0.1652 -0.6377  0.4718
 2398SOL     OW 9363   1.682   0.083   3.600  0.2856 -0.7126  0.0361
 2398SOL    HW2 9364   1.683  -0.009   3.628 -0.7588 -0.7891 -0.1192
 2398SOL    HW3 9365   1.607   0.088   3.541  0.0420  0.3528  0.4246
 2398SOL    MW4 9366   1.672   0.071   3.596 -0.1649  0.3429 -0.0229
 2399SOL     OW 9367   0.485   1.202   4.691  0.7451  0.2744 -0.1532
 2399SOL    HW2 9368   0.538   1.208   4.611  0.8638  3.6900  0.0406
 2399SOL    HW3 9369   0.410   1.259   4.674  0.2354  0.2177  1.7765
 2399SOL    MW4 9370   0.482   1.211   4.678 -0.6299 -0.1046 -0.5152
 2400SOL     OW 9371   2.083   3.189   4.242 -0.2435 -0.7161 -0.4833
 2400SOL    HW2 9372   2.116   3.183   4.332 -0.2723 -2.4275 -0.5518
 2400SOL    HW3 9373   2.153   3.150   4.189 -0.4728 -0.2421 -1.1355
 2400SOL    MW4 9374   2.097   3.183   4.247 -0.8416  0.3295  1.2212
 2401SOL     OW 9375   5.767   0.297   1.482 -1.4744 -0.1201 -0.0197
 2401SOL    HW2 9376   5.842   0.320   1.537 -1.7824 -0.8702  0.7463
 2401SOL    HW3 9377   5.691   0.321   1.535 -1.7796 -1.1467  0.0219
 2401SOL    MW4 9378   5.767   0.303   1.496  0.0613 -0.4088  0.3625
 2402SOL     OW 9379   5.283   0.172   4.789 -0.1684  0.0315 -0.5092
 2402SOL    HW2 9380   5.342   0.244   4.770 -0.8971  0.2175 -2.3320
 2402SOL    HW3 9381   5.228   0.203   4.861  0.2886  0.8380 -0.5096
 2402SOL    MW4 9382   5.283   0.185   4.796 -0.2906 -0.1404 -0.5871
 2403SOL     OW 9383   5.543   4.651   3.260 -0.1326  0.0969  0.2364
 2403SOL    HW2 9384   5.631   4.640   3.223 -1.0386 -0.9718 -1.7226
 2403SOL    HW3 9385   5.498   4.569   3.241 -1.7826  0.8826  0.6123
 2403SOL    MW4 9386   5.549   4.639   3.253 -0.1105  0.2584 -0.2438
 2404SOL     OW 9387   2.711   1.125   4.773 -0.5464 -0.0300  0.1839
 2404SOL    HW2 9388   2.697   1.049   4.716  2.1519  0.4650 -1.3273
 2404SOL    HW3 9389   2.654   1.193   4.737 -1.4584 -0.7322  0.2760
 2404SOL    MW4 9390   2.702   1.124   4.761 -0.3872  0.3785  0.4540
 2405SOL     OW 9391   0.442   6.066   2.745 -0.4055 -0.2680 -0.5054
 2405SOL    HW2 9392   0.535   6.080   2.762 -0.6002 -1.7815  2.6101
 2405SOL    HW3 9393   0.436   5.974   2.717 -1.0876 -1.2609  2.4476
 2405SOL    MW4 9394   0.453   6.055   2.744 -0.9490 -0.2752  0.2325
 2406SOL     OW 9395   4.526   0.815   0.309  0.2158  0.2328 -0.4107
 2406SOL    HW2 9396   4.496   0.724   0.304  0.5803  0.0536  0.5442
 2406SOL    HW3 9397   4.533   0.834   0.402 -0.3961  1.4357 -0.5803
 2406SOL    MW4 9398   4.523   0.806   0.320  0.7612 -0.3815 -0.3695
 2407SOL     OW 9399   2.964   1.096   1.424 -0.2013 -0.2254 -0.0080
 2407SOL    HW2 9400   2.902   1.038   1.380 -0.0725 -0.5010  0.1698
 2407SOL    HW3 9401   2.935   1.184   1.401 -0.1436 -0.3635 -0.6332
 2407SOL    MW4 9402   2.952   1.100   1.415 -0.3023  0.2005 -0.7934
 2408SOL     OW 9403   0.691   1.602   4.762  0.1696 -0.3027 -0.5611
 2408SOL    HW2 9404   0.625   1.664   4.732  0.8568  0.0419 -1.3864
 2408SOL    HW3 9405   0.749   1.654   4.816 -0.3186 -0.6457  0.3178
 2408SOL    MW4 9406   0.690   1.617   4.765 -0.1866 -0.3989  0.1925
 2409SOL     OW 9407   3.883   1.159   2.000 -0.1338 -0.3244  0.0517
 2409SOL    HW2 9408   3.915   1.228   1.942  1.1520 -0.3744  0.6677
 2409SOL    HW3 9409   3.958   1.099   2.009  0.1819  0.3494  2.7707
 2409SOL    MW4 9410   3.897   1.160   1.993  0.1839  0.2536  0.0250
 2410SOL     OW 9411   2.564   1.269   3.461  0.5214  0.1388  0.2435
 2410SOL    HW2 9412   2.564   1.306   3.549  0.0044 -1.3413  0.8993
 2410SOL    HW3 9413   2.524   1.337   3.406  1.7156  1.4630  0.9527
 2410SOL    MW4 9414   2.559   1.283   3.465  0.2387  0.1743  0.1420
 2411SOL     OW 9415   1.728   5.353   6.400  0.5675 -0.1737  0.0446
 2411SOL    HW2 9416   1.710   5.302   6.478 -0.3943 -0.0956 -0.1184
 2411SOL    HW3 9417   1.694   5.300   6.328  0.1290  0.3993 -0.1844
 2411SOL    MW4 9418   1.721   5.340   6.400  0.1895 -0.0237 -0.1846
 2412SOL     OW 9419   5.587   0.502   0.270  0.0822  0.3750  0.2482
 2412SOL    HW2 9420   5.602   0.596   0.256 -0.5436  0.4487  0.0081
 2412SOL    HW3 9421   5.534   0.498   0.350  0.1289  0.2244  0.2721
 2412SOL    MW4 9422   5.582   0.514   0.279 -0.2048 -0.4155  0.0763
 2413SOL     OW 9423   5.058   2.956   1.571  0.1299  0.9304 -0.0999
 2413SOL    HW2 9424   5.096   3.024   1.627 -2.0725  3.5447 -1.5544
 2413SOL    HW3 9425   4.975   2.933   1.613 -0.3797  1.1128 -0.9824
 2413SOL    MW4 9426   5.052   2.962   1.583  0.4856  0.1736  0.2833
 2414SOL     OW 9427   0.468   5.296   2.432  0.0492  1.2493 -0.0907
 2414SOL    HW2 9428   0.375   5.301   2.411  0.0413  2.3535  0.1555
 2414SOL    HW3 9429   0.498   5.387   2.433  1.3084  0.8680 -0.9121
 2414SOL    MW4 9430   0.460   5.309   2.430  0.6405  1.4814 -0.6815
 2415SOL     OW 9431   4.619   2.336   2.789  0.1871  0.1356 -0.0022
 2415SOL    HW2 9432   4.665   2.365   2.710  1.0627 -0.2268  0.3546
 2415SOL    HW3 9433   4.553   2.275   2.758  2.4971 -2.4344 -0.2976
 2415SOL    MW4 9434   4.617   2.332   2.775  0.1958 -0.8401 -0.0625
 2416SOL     OW 9435   6.291   3.035   5.524 -0.4945 -0.5911 -0.8046
 2416SOL    HW2 9436   6.377   3.043   5.482 -0.1020 -1.2580 -0.1508
 2416SOL    HW3 9437   6.297   2.954   5.574 -1.8031 -1.0998 -1.4355
 2416SOL    MW4 9438   6.303   3.025   5.525  0.4546  0.3971  0.0203
 2417SOL     OW 9439   1.462   6.326   0.452  0.2086  0.2576  0.2016
 2417SOL    HW2 9440   1.395   6.374   0.403  1.8364 -0.2877 -2.7901
 2417SOL    HW3 9441   1.412   6.266   0.509 -1.8432  0.3349 -1.4090
 2417SOL    MW4 9442   1.446   6.324   0.453  0.1990  0.9328 -0.5505
 2418SOL     OW 9443   1.352   0.399   3.221  0.1463  0.1718  0.5004
 2418SOL    HW2 9444   1.424   0.339   3.202  0.5479  0.9212 -0.4046
 2418SOL    HW3 9445   1.392   0.468   3.274  0.1119  0.6362 -0.0804
 2418SOL    MW4 9446   1.367   0.400   3.226 -0.0964 -0.4906 -0.0002
 2419SOL     OW 9447   1.160   4.654   2.620  0.0859  0.7313 -0.8059
 2419SOL    HW2 9448   1.148   4.639   2.526  1.2298 -0.3438 -0.7976
 2419SOL    HW3 9449   1.094   4.597   2.661  0.8206 -0.2276 -0.9233
 2419SOL    MW4 9450   1.150   4.645   2.613  0.1482 -0.2615  0.3812
 2420SOL     OW 9451   3.560   2.430   5.058  0.0142  0.1378 -0.5560
 2420SOL    HW2 9452   3.537   2.351   5.108 -1.5824  0.9736  0.1177
 2420SOL    HW3 9453   3.614   2.398   4.986 -0.5240 -1.5775 -0.2506
 2420SOL    MW4 9454   3.564   2.415   5.055 -0.2813 -0.0345  0.1869
 2421SOL     OW 9455   5.429   0.477   0.788  0.6662 -0.3618  0.1618
 2421SOL    HW2 9456   5.446   0.397   0.739 -1.6592 -0.6587 -0.2768
 2421SOL    HW3 9457   5.354   0.457   0.843  0.0307  1.4866  0.0550
 2421SOL    MW4 9458   5.422   0.464   0.789 -1.8173  0.3337  0.1984
 2422SOL     OW 9459   2.638   0.983   0.123 -0.2962 -0.5397  0.5543
 2422SOL    HW2 9460   2.708   1.041   0.153 -0.3688 -0.8547  1.3551
 2422SOL    HW3 9461   2.676   0.895   0.127  0.2238 -0.4946 -1.8185
 2422SOL    MW4 9462   2.652   0.979   0.127  0.5710  0.7613 -0.3759
 2423SOL     OW 9463   3.343   2.771   6.130 -0.3936 -0.4842 -0.1489
 2423SOL    HW2 9464   3.403   2.834   6.090  0.3114  1.0783  3.0569
 2423SOL    HW3 9465   3.259   2.817   6.133 -0.9233 -1.3159 -1.4197
 2423SOL    MW4 9466   3.340   2.786   6.125  0.4952 -0.2251 -0.4821
 2424SOL     OW 9467   0.446   4.455   3.538 -0.8369  0.1785 -0.1569
 2424SOL    HW2 9468   0.427   4.464   3.631 -0.9212 -2.4951  0.1631
 2424SOL    HW3 9469   0.377   4.399   3.504  0.0830 -0.2302 -1.4716
 2424SOL    MW4 9470   0.435   4.449   3.546  0.1397  0.1203 -0.0461
 2425SOL     OW 9471   1.935   3.063   0.210 -0.0675  0.2258 -0.3459
 2425SOL    HW2 9472   1.935   2.975   0.248 -0.3806 -0.3555 -1.6290
 2425SOL    HW3 9473   1.843   3.088   0.206 -0.0040  0.4743 -0.2823
 2425SOL    MW4 9474   1.923   3.055   0.214  0.1528 -0.1131 -0.1947
 2426SOL     OW 9475   3.540   3.515   5.053 -0.0614 -0.7619  0.6507
 2426SOL    HW2 9476   3.491   3.574   4.995  0.5424 -1.0094 -0.1244
 2426SOL    HW3 9477   3.538   3.559   5.138  1.4329  1.0337 -0.1611
 2426SOL    MW4 9478   3.533   3.529   5.057 -0.2776  0.0707  0.2514
 2427SOL     OW 9479   5.684   3.231   1.304 -0.3136  0.0380  0.1736
 2427SOL    HW2 9480   5.668   3.161   1.241 -2.4371 -0.6378  1.3654
 2427SOL    HW3 9481   5.612   3.293   1.290  0.5708  1.1342  0.3045
 2427SOL    MW4 9482   5.672   3.230   1.294 -0.2497 -0.1740  0.6208
 2428SOL     OW 9483   6.377   3.555   5.043  0.5538 -0.3501  0.3936
 2428SOL    HW2 9484   6.430   3.548   4.964 -0.6056 -0.0215 -0.4449
 2428SOL    HW3 9485   6.288   3.537   5.014  0.4115 -2.9916  2.1423
 2428SOL    MW4 9486   6.372   3.552   5.029 -0.7881  0.7203  0.2996
 2429SOL     OW 9487   3.937   6.001   5.214 -0.8257  0.0955  0.3124
 2429SOL    HW2 9488   3.991   5.952   5.277  0.1950  1.6309  0.6901
 2429SOL    HW3 9489   3.856   5.951   5.208  1.1013 -3.1891 -1.3926
 2429SOL    MW4 9490   3.934   5.988   5.222  0.3784 -0.3473 -0.3207
 2430SOL     OW 9491   4.632   3.748   1.167  0.8140 -0.7247 -0.0260
 2430SOL    HW2 9492   4.635   3.723   1.260  2.2504  0.7335  0.3677
 2430SOL    HW3 9493   4.720   3.728   1.134  1.2774  1.4910 -0.2639
 2430SOL    MW4 9494   4.644   3.742   1.175 -1.1598  0.0837 -0.0054
 2431SOL     OW 9495   5.807   5.363   2.746  0.0634  0.5606 -0.3941
 2431SOL    HW2 9496   5.743   5.341   2.814  1.2136 -0.2708  0.4643
 2431SOL    HW3 9497   5.891   5.367   2.792  1.2411 -2.1142 -2.0232
 2431SOL    MW4 9498   5.810   5.360   2.761 -0.2379 -0.1846 -0.4732
 2432SOL     OW 9499   1.752   3.240   0.604 -0.2369 -0.3624  0.2481
 2432SOL    HW2 9500   1.782   3.310   0.546 -0.5212  0.5502  1.1576
 2432SOL    HW3 9501   1.833   3.197   0.633 -0.1153 -1.0330 -1.0524
 2432SOL    MW4 9502   1.767   3.244   0.600  0.2599 -0.1362 -0.3946
 2433SOL     OW 9503   1.451   3.812   5.317  0.1724 -0.9429  0.1209
 2433SOL    HW2 9504   1.430   3.726   5.353  0.9793 -0.5233  1.6945
 2433SOL    HW3 9505   1.396   3.873   5.366  0.5620 -0.4371 -0.0619
 2433SOL    MW4 9506   1.441   3.809   5.328 -0.7951  0.3243  0.2417
 2434SOL     OW 9507   5.093   4.697   2.768  0.2248 -0.2261 -0.5728
 2434SOL    HW2 9508   5.066   4.777   2.722 -0.1926  0.0416  0.1228
 2434SOL    HW3 9509   5.093   4.722   2.860  0.7295 -0.8515 -0.3995
 2434SOL    MW4 9510   5.090   4.711   2.774  0.5933 -0.2498 -0.1850
 2435SOL     OW 9511   3.702   4.871   1.897  0.1561 -0.1119  0.2673
 2435SOL    HW2 9512   3.624   4.912   1.861 -0.8803 -1.3012  1.0467
 2435SOL    HW3 9513   3.769   4.879   1.829 -0.6786  0.8265 -0.4525
 2435SOL    MW4 9514   3.701   4.877   1.884  0.0865 -0.5266 -0.3901
 2436SOL     OW 9515   4.838   2.527   5.354  0.4713 -0.1576 -0.5407
 2436SOL    HW2 9516   4.809   2.512   5.444  1.1859  0.6055 -0.1717
 2436SOL    HW3 9517   4.917   2.580   5.363  0.9238 -0.6311 -1.5967
 2436SOL    MW4 9518   4.845   2.532   5.367 -0.0138 -0.2106 -0.3551
 2437SOL     OW 9519   6.311   3.849   1.081  0.1011  0.1126 -0.6498
 2437SOL    HW2 9520   6.365   3.927   1.096  0.4761 -0.4559  1.3065
 2437SOL    HW3 9521   6.311   3.837   0.986 -0.9598  3.1605 -1.1372
 2437SOL    MW4 9522   6.318   3.857   1.070 -0.0685 -0.8637  0.7753
 2438SOL     OW 9523   4.063   6.216   2.652  0.2418  0.0459 -0.3958
 2438SOL    HW2 9524   3.985   6.269   2.634 -0.3507 -0.5772  0.2618
 2438SOL    HW3 9525   4.084   6.235   2.743  0.6560 -0.0652 -0.4662
 2438SOL    MW4 9526   4.055   6.226   2.661  0.0642  0.1497  0.1082
 2439SOL     OW 9527   5.821   1.187   1.125  0.1232 -0.5876  0.0243
 2439SOL    HW2 9528   5.765   1.219   1.195  1.0365  0.4461  0.3160
 2439SOL    HW3 9529   5.904   1.234   1.137  0.1987 -0.1299 -1.9310
 2439SOL    MW4 9530   5.824   1.197   1.135 -0.0135 -0.1336 -0.3003
 2440SOL     OW 9531   1.273   3.872   4.480  0.4315  0.6815 -0.4506
 2440SOL    HW2 9532   1.288   3.949   4.424  2.0309 -0.0889 -1.1750
 2440SOL    HW3 9533   1.334   3.883   4.553  0.8913 -0.0173 -0.7149
 2440SOL    MW4 9534   1.283   3.883   4.482 -0.0537  0.3428 -0.0498
 2441SOL     OW 9535   3.561   4.953   3.616 -0.1061 -0.0292  0.1707
 2441SOL    HW2 9536   3.602   4.924   3.534  0.4735  2.5783 -0.5558
 2441SOL    HW3 9537   3.605   4.902   3.684  3.4765  1.5899 -0.7086
 2441SOL    MW4 9538   3.572   4.943   3.614 -0.0101  0.0160 -0.0696
 2442SOL     OW 9539   5.076   3.159   4.162 -0.2911  0.1869  0.3536
 2442SOL    HW2 9540   4.988   3.138   4.131 -0.1585  0.2843 -0.0989
 2442SOL    HW3 9541   5.065   3.178   4.256 -0.6565 -0.3596  0.4248
 2442SOL    MW4 9542   5.063   3.159   4.171  0.0193  0.4294 -0.2825
 2443SOL     OW 9543   3.919   2.730   2.327 -0.2319 -0.6123 -0.4565
 2443SOL    HW2 9544   3.900   2.642   2.295 -0.3561 -0.1928 -1.5885
 2443SOL    HW3 9545   4.014   2.739   2.320 -0.2710 -0.4764 -0.8556
 2443SOL    MW4 9546   3.929   2.720   2.322 -0.0374 -0.4140 -0.0990
 2444SOL     OW 9547   5.505   6.325   2.141  0.7099 -0.7411  0.5586
 2444SOL    HW2 9548   5.459   6.379   2.077  0.6260 -1.3162  0.1294
 2444SOL    HW3 9549   5.597   6.331   2.116  0.8728  0.2849  1.3255
 2444SOL    MW4 9550   5.511   6.333   2.129  0.3948  0.2984 -0.5898
 2445SOL     OW 9551   2.728   2.978   3.235  0.5368 -0.2280  0.3371
 2445SOL    HW2 9552   2.812   3.023   3.244 -0.2695  1.4112  0.0636
 2445SOL    HW3 9553   2.664   3.036   3.276 -0.4060 -1.7247  1.0932
 2445SOL    MW4 9554   2.730   2.992   3.241  0.3578  0.1425 -0.4570
 2446SOL     OW 9555   5.795   2.714   0.953  0.2747  0.2338  0.3920
 2446SOL    HW2 9556   5.869   2.675   1.001 -0.3299  1.6381  2.6151
 2446SOL    HW3 9557   5.728   2.644   0.953  1.2983 -0.8008 -1.0370
 2446SOL    MW4 9558   5.796   2.699   0.960 -0.2557  0.1438  0.4121
 2447SOL     OW 9559   5.649   5.992   1.408  0.5586  0.2376  0.1387
 2447SOL    HW2 9560   5.667   5.917   1.466  1.2817  1.1925  1.2003
 2447SOL    HW3 9561   5.575   5.964   1.354  0.3644 -0.9799  0.9967
 2447SOL    MW4 9562   5.642   5.978   1.409  0.0544 -0.2359 -0.0241
 2448SOL     OW 9563   2.775   1.782   4.114 -0.0424 -0.4071  0.5635
 2448SOL    HW2 9564   2.695   1.762   4.162  0.0518 -0.0116  0.8826
 2448SOL    HW3 9565   2.835   1.711   4.138 -0.3193 -0.7535  0.2546
 2448SOL    MW4 9566   2.773   1.770   4.123  0.0338 -0.0242  0.5245
 2449SOL     OW 9567   5.366   1.849   6.010 -0.3068  0.0225 -0.1019
 2449SOL    HW2 9568   5.364   1.919   6.075  0.7415  0.6332 -0.6972
 2449SOL    HW3 9569   5.459   1.834   5.994 -0.5214  0.7456 -2.3415
 2449SOL    MW4 9570   5.378   1.856   6.017 -0.0295  0.2941  0.5216
 2450SOL     OW 9571   2.275   1.034   3.771  0.5890 -0.0539  0.3291
 2450SOL    HW2 9572   2.238   1.060   3.686 -1.4857 -1.6571  0.6574
 2450SOL    HW3 9573   2.364   1.069   3.770  1.0192 -0.9358 -2.9665
 2450SOL    MW4 9574   2.282   1.042   3.760  0.3815  0.5269  0.5384
 2451SOL     OW 9575   5.546   3.426   2.772 -0.0951  0.1594  0.3177
 2451SOL    HW2 9576   5.499   3.486   2.830 -1.7656  0.4355 -1.2154
 2451SOL    HW3 9577   5.589   3.365   2.831 -0.2503  1.4719  1.8743
 2451SOL    MW4 9578   5.545   3.426   2.787  0.1897  0.0959 -0.0661
 2452SOL     OW 9579   1.941   1.587   5.109  0.3694 -0.8203 -0.4929
 2452SOL    HW2 9580   1.870   1.585   5.174  0.6662 -0.6509 -0.1619
 2452SOL    HW3 9581   2.008   1.529   5.145  1.4507  0.9042  0.4306
 2452SOL    MW4 9582   1.940   1.579   5.123 -0.3283  0.3544  0.0844
 2453SOL     OW 9583   4.272   2.893   3.935 -0.7108  0.4699  0.3208
 2453SOL    HW2 9584   4.291   2.986   3.940 -2.2813  0.7680  1.0764
 2453SOL    HW3 9585   4.296   2.859   4.021 -2.4293  0.6500  0.9018
 2453SOL    MW4 9586   4.278   2.901   3.947 -0.6344 -0.5220 -1.0447
 2454SOL     OW 9587   1.007   0.061   3.499  0.2856 -0.0455  0.4416
 2454SOL    HW2 9588   0.935   0.054   3.562 -0.5685  1.8508 -0.2446
 2454SOL    HW3 9589   0.964   0.080   3.416  1.5759  1.8677  0.1568
 2454SOL    MW4 9590   0.992   0.063   3.497  0.5362 -0.1187 -0.4824
 2455SOL     OW 9591   5.705   0.572   2.079 -0.3105 -0.3557 -0.1823
 2455SOL    HW2 9592   5.663   0.613   2.003  1.4633  1.5697 -0.2244
 2455SOL    HW3 9593   5.769   0.512   2.041 -0.2743 -0.3059 -0.2009
 2455SOL    MW4 9594   5.708   0.570   2.064  0.3153  0.2837  0.1228
 2456SOL     OW 9595   4.351   0.480   0.627  0.7201  0.4645 -0.0585
 2456SOL    HW2 9596   4.299   0.559   0.612 -0.4425 -0.7628 -3.2868
 2456SOL    HW3 9597   4.406   0.502   0.702 -2.5448  2.8011  1.9508
 2456SOL    MW4 9598   4.351   0.493   0.635 -0.4173 -0.1509  0.1478
 2457SOL     OW 9599   5.484   5.257   0.276  0.0446 -0.2090  0.0614
 2457SOL    HW2 9600   5.436   5.191   0.225  0.7476  0.3907 -1.4660
 2457SOL    HW3 9601   5.459   5.341   0.235  1.9506  0.1560 -0.4476
 2457SOL    MW4 9602   5.474   5.260   0.264 -0.0772 -0.2827  0.3221
 2458SOL     OW 9603   0.284   2.230   1.115  0.2034  0.0444 -0.2717
 2458SOL    HW2 9604   0.229   2.275   1.180  1.0107 -1.1287  1.2908
 2458SOL    HW3 9605   0.224   2.169   1.072 -0.0469 -0.1912  0.3930
 2458SOL    MW4 9606   0.269   2.228   1.118  0.7938  0.5004 -0.1577
 2459SOL     OW 9607   5.045   0.974   5.390 -0.0785 -0.6209  0.1899
 2459SOL    HW2 9608   5.106   0.926   5.446 -0.5451 -0.3225  0.9741
 2459SOL    HW3 9609   4.969   0.989   5.445 -1.8040 -2.8653 -1.4063
 2459SOL    MW4 9610   5.043   0.969   5.405  0.1047 -0.4137 -0.2965
 2460SOL     OW 9611   4.440   4.623   4.002 -0.0573 -0.0915  0.2693
 2460SOL    HW2 9612   4.496   4.678   3.949 -1.6725 -0.5765 -2.0807
 2460SOL    HW3 9613   4.499   4.582   4.066  1.6158  2.0586  0.1956
 2460SOL    MW4 9614   4.455   4.625   4.004  0.0251 -0.2561  0.0447
 2461SOL     OW 9615   2.050   2.580   4.938 -0.3962 -0.9857  0.0853
 2461SOL    HW2 9616   1.974   2.541   4.981  0.3087 -0.7682  1.5848
 2461SOL    HW3 9617   2.012   2.642   4.876 -1.4600 -0.7438  0.9284
 2461SOL    MW4 9618   2.035   2.583   4.936 -0.1561 -0.3578 -0.3625
 2462SOL     OW 9619  -0.000   5.854   5.674 -0.3136  0.5451 -0.0758
 2462SOL    HW2 9620   0.067   5.911   5.637 -0.3986  0.2313 -0.7284
 2462SOL    HW3 9621  -0.078   5.869   5.620 -0.5557  0.3723  0.2216
 2462SOL    MW4 9622  -0.002   5.863   5.662 -0.2895  0.0548  0.3307
 2463SOL     OW 9623   6.107   5.019   1.942 -0.0270 -0.2241  0.4211
 2463SOL    HW2 9624   6.154   4.946   1.903 -0.8187 -0.2665 -0.4607
 2463SOL    HW3 9625   6.057   4.980   2.013  1.0037 -0.2250  1.1808
 2463SOL    MW4 9626   6.107   5.004   1.947 -0.5354 -0.0284 -0.1128
 2464SOL     OW 9627   3.192   2.297   0.460 -0.0881 -0.8529  0.9231
 2464SOL    HW2 9628   3.174   2.383   0.422  0.5097 -0.7572  0.8484
 2464SOL    HW3 9629   3.171   2.307   0.553  0.7116 -0.4032  1.0574
 2464SOL    MW4 9630   3.187   2.310   0.468  0.1823 -0.3438  0.2914
 2465SOL     OW 9631   1.905   6.030   0.353  0.1337  0.0232  0.3849
 2465SOL    HW2 9632   1.898   6.096   0.422  0.0145 -2.5413  3.0059
 2465SOL    HW3 9633   1.818   6.029   0.313 -0.2957  0.4792  1.2750
 2465SOL    MW4 9634   1.892   6.039   0.357 -0.2200  0.3140 -0.0722
 2466SOL     OW 9635   3.912   5.127   3.221 -0.6397  0.1946 -0.4411
 2466SOL    HW2 9636   3.998   5.123   3.180 -0.2786 -1.5699  0.3835
 2466SOL    HW3 9637   3.908   5.213   3.262  1.1242 -0.0573  0.3107
 2466SOL    MW4 9638   3.923   5.138   3.221 -0.2494  0.3746 -0.0523
 2467SOL     OW 9639   6.017   0.521   0.104  0.1118 -0.1129  0.1058
 2467SOL    HW2 9640   5.966   0.440   0.100 -0.8214  0.4797 -0.5928
 2467SOL    HW3 9641   6.027   0.548   0.013  2.5090 -0.6702  0.1320
 2467SOL    MW4 9642   6.011   0.514   0.091  0.2546 -0.3262 -0.4743
 2468SOL     OW 9643   4.140   0.931   2.014  0.3287 -0.1394  0.2837
 2468SOL    HW2 9644   4.149   0.969   1.926  1.1089 -2.3357 -0.6730
 2468SOL    HW3 9645   4.228   0.938   2.052  0.4679 -0.8623  0.1170
 2468SOL    MW4 9646   4.153   0.937   2.007  0.4555  0.0915  0.5071
 2469SOL     OW 9647   1.289   4.889   3.735 -0.3239  0.3531 -0.1020
 2469SOL    HW2 9648   1.361   4.847   3.687 -0.9424  0.4154 -1.1103
 2469SOL    HW3 9649   1.329   4.968   3.772  1.3367 -1.8387  3.3236
 2469SOL    MW4 9650   1.304   4.894   3.734  0.1545 -0.2838 -0.5519
 2470SOL     OW 9651   5.354   6.073   2.445 -0.4728 -0.0511 -0.5779
 2470SOL    HW2 9652   5.286   6.070   2.378  0.4966 -0.5388 -1.5733
 2470SOL    HW3 9653   5.401   6.155   2.428  0.2935 -0.5679 -1.0606
 2470SOL    MW4 9654   5.351   6.083   2.434 -0.7709 -0.5794 -0.1842
 2471SOL     OW 9655   1.571   2.390   3.048 -0.1946 -0.1698 -0.3869
 2471SOL    HW2 9656   1.484   2.357   3.070 -0.6665  0.1421 -1.6603
 2471SOL    HW3 9657   1.596   2.342   2.969  0.4539  0.3058 -0.4853
 2471SOL    MW4 9658   1.563   2.379   3.040 -0.2902  0.6754  0.6792
 2472SOL     OW 9659   3.413   0.114   2.585 -0.0337 -0.3413  0.4668
 2472SOL    HW2 9660   3.388   0.200   2.551 -0.6545 -0.4292  0.6978
 2472SOL    HW3 9661   3.331   0.066   2.591  0.1469 -0.5324  1.5095
 2472SOL    MW4 9662   3.399   0.119   2.581  0.0754  0.5837 -0.0415
 2473SOL     OW 9663   0.196   3.270   3.783  0.3084  0.4976 -0.0013
 2473SOL    HW2 9664   0.272   3.214   3.766  0.4447  0.7373 -0.1994
 2473SOL    HW3 9665   0.234   3.351   3.818  0.1535  0.6632 -0.2117
 2473SOL    MW4 9666   0.211   3.273   3.785  0.1637 -0.6290 -0.1233
 2474SOL     OW 9667   1.450   5.750   0.662  0.3319  0.0851 -0.0618
 2474SOL    HW2 9668   1.418   5.660   0.661 -0.4633  0.3639 -0.5333
 2474SOL    HW3 9669   1.426   5.784   0.748 -1.2637  0.4876 -0.6217
 2474SOL    MW4 9670   1.443   5.743   0.673  0.3711  0.8136  0.2031
 2475SOL     OW 9671   0.307   6.256   6.083  0.2825  0.0736  0.2843
 2475SOL    HW2 9672   0.277   6.327   6.026  1.2457  0.0167 -0.3145
 2475SOL    HW3 9673   0.381   6.294   6.131 -0.6452  0.1859  1.6665
 2475SOL    MW4 9674   0.313   6.270   6.082 -0.5626 -0.4471  0.6473
 2476SOL     OW 9675   3.426   4.267   3.305 -0.1879  0.6484 -0.7509
 2476SOL    HW2 9676   3.397   4.354   3.333  2.0672  1.2915 -0.1878
 2476SOL    HW3 9677   3.491   4.285   3.238  1.0307 -0.5420  0.0643
 2476SOL    MW4 9678   3.431   4.281   3.300  0.4609 -0.0540 -0.2220
 2477SOL     OW 9679   2.645   5.403   4.941  0.1910  0.4049  0.4149
 2477SOL    HW2 9680   2.573   5.443   4.991 -0.4830 -0.1607 -0.0931
 2477SOL    HW3 9681   2.692   5.478   4.905 -0.9155  0.7690 -0.3243
 2477SOL    MW4 9682   2.641   5.418   4.943  0.0946 -0.2600  0.1678
 2478SOL     OW 9683   1.001   1.910   5.966 -0.4249 -0.2351  0.2881
 2478SOL    HW2 9684   1.005   1.872   5.878  1.2341  1.6464 -0.5428
 2478SOL    HW3 9685   1.054   1.852   6.020  0.8314  0.0487 -0.6030
 2478SOL    MW4 9686   1.009   1.898   5.962 -0.2371 -0.2031 -0.2142
 2479SOL     OW 9687   3.441   5.421   5.311 -0.1133  0.2318 -0.1717
 2479SOL    HW2 9688   3.441   5.326   5.300  0.3970  0.2332 -0.1680
 2479SOL    HW3 9689   3.372   5.451   5.251 -0.8025 -0.2022  0.3942
 2479SOL    MW4 9690   3.432   5.413   5.301  0.1328  0.3704  0.2171
 2480SOL     OW 9691   4.245   6.197   4.367  0.4759 -0.2451 -0.1696
 2480SOL    HW2 9692   4.163   6.217   4.323  0.2991 -0.8052 -0.1027
 2480SOL    HW3 9693   4.273   6.280   4.404 -0.0170 -0.0339 -0.2613
 2480SOL    MW4 9694   4.238   6.210   4.366  0.1898 -0.3529  0.3810
 2481SOL     OW 9695   4.152   4.832   2.787  0.3521 -0.7204  0.1602
 2481SOL    HW2 9696   4.080   4.888   2.815 -1.2379 -3.3780  1.7891
 2481SOL    HW3 9697   4.222   4.893   2.764 -1.4638  1.9134  1.1447
 2481SOL    MW4 9698   4.152   4.848   2.787 -0.5266  0.0950 -0.0285
 2482SOL     OW 9699   4.134   3.423   5.032 -0.3973 -0.2442 -0.0928
 2482SOL    HW2 9700   4.172   3.394   4.949 -1.1677 -1.6523  0.0158
 2482SOL    HW3 9701   4.139   3.347   5.089 -1.6258  0.1172  0.5400
 2482SOL    MW4 9702   4.139   3.409   5.028  0.1172  0.5437 -0.0259
 2483SOL     OW 9703   0.628   0.254   1.305 -0.2323  0.2549  0.0014
 2483SOL    HW2 9704   0.552   0.257   1.363 -0.9761  2.6460 -0.9961
 2483SOL    HW3 9705   0.703   0.268   1.363 -0.7836  0.5744  0.6419
 2483SOL    MW4 9706   0.628   0.256   1.320 -0.3399  0.0284 -0.0396
 2484SOL     OW 9707   1.892   2.157   3.016 -0.4453  0.6431 -0.0088
 2484SOL    HW2 9708   1.889   2.106   2.935 -2.1304  2.5495 -1.2357
 2484SOL    HW3 9709   1.976   2.134   3.056  1.5949  1.3843 -3.4862
 2484SOL    MW4 9710   1.903   2.147   3.011 -0.4238 -0.1008  0.0623
 2485SOL     OW 9711   2.167   3.699   4.057 -0.2348  0.6145 -0.1240
 2485SOL    HW2 9712   2.218   3.642   4.114 -0.6392  0.0393 -0.3244
 2485SOL    HW3 9713   2.145   3.644   3.982 -1.4427  0.7340  0.1218
 2485SOL    MW4 9714   2.171   3.684   4.054 -0.1460  0.0738 -0.3394
 2486SOL     OW 9715   1.524   0.492   5.081  0.2136  0.6125  0.4426
 2486SOL    HW2 9716   1.577   0.552   5.134  0.3369  0.1005  0.9104
 2486SOL    HW3 9717   1.587   0.433   5.041  0.1303  1.0784 -0.3932
 2486SOL    MW4 9718   1.539   0.492   5.083 -0.1044  0.1619  0.4723
 2487SOL     OW 9719   1.233   4.798   3.333  0.4129 -0.2335 -0.2780
 2487SOL    HW2 9720   1.171   4.728   3.354  0.7702 -0.8988 -1.3703
 2487SOL    HW3 9721   1.319   4.758   3.342  0.6805  0.5138  0.6113
 2487SOL    MW4 9722   1.236   4.783   3.337  0.4197  0.3901 -0.0822
 2488SOL     OW 9723   0.510   2.719   2.306  0.3597  0.6352  0.4307
 2488SOL    HW2 9724   0.457   2.796   2.323  0.4545  0.8477 -0.2277
 2488SOL    HW3 9725   0.538   2.728   2.215 -1.1515 -1.0753 -0.2714
 2488SOL    MW4 9726   0.507   2.730   2.297 -0.0021 -0.3537 -0.2976
 2489SOL     OW 9727   2.352   1.921   3.533 -0.1904 -0.4393  0.1582
 2489SOL    HW2 9728   2.311   2.006   3.514 -0.5765 -0.7672 -0.5107
 2489SOL    HW3 9729   2.350   1.875   3.450 -0.3000 -1.2446  0.5982
 2489SOL    MW4 9730   2.346   1.926   3.520  0.1455 -0.1902 -0.4981
 2490SOL     OW 9731   3.241   5.570   3.703  0.0093 -0.5162 -0.0542
 2490SOL    HW2 9732   3.190   5.632   3.754 -1.8706 -1.9368 -0.0715
 2490SOL    HW3 9733   3.311   5.621   3.665 -0.4731  1.2288  1.2836
 2490SOL    MW4 9734   3.243   5.585   3.705  0.3266  0.4086  0.2887
 2491SOL     OW 9735   0.831   2.237   5.558 -0.3239 -0.1544  0.4129
 2491SOL    HW2 9736   0.842   2.285   5.476  2.7126  1.4735  1.6290
 2491SOL    HW3 9737   0.851   2.146   5.534 -1.1566 -0.0143 -0.9434
 2491SOL    MW4 9738   0.835   2.231   5.544  0.0402  0.7436  0.0377
 2492SOL     OW 9739   0.894   3.664   4.929 -0.0822 -0.0297 -0.0613
 2492SOL    HW2 9740   0.898   3.569   4.926 -0.5598 -0.0386 -0.8861
 2492SOL    HW3 9741   0.819   3.683   4.985  1.2876 -0.0866  1.8771
 2492SOL    MW4 9742   0.884   3.654   4.936  0.2359 -0.0251  0.7134
 2493SOL     OW 9743   4.481   5.678   4.315 -0.0913 -0.6041  0.5419
 2493SOL    HW2 9744   4.486   5.752   4.376 -0.0049 -1.1392  1.1950
 2493SOL    HW3 9745   4.561   5.627   4.333 -0.1409 -0.8466  0.0841
 2493SOL    MW4 9746   4.493   5.681   4.326  0.5380  0.9687  0.0619
 2494SOL     OW 9747   2.314   2.506   4.860  0.4899  0.3458 -0.0631
 2494SOL    HW2 9748   2.228   2.533   4.893  1.2837  0.2900  2.1851
 2494SOL    HW3 9749   2.300   2.418   4.824 -0.6156  0.8277 -0.8810
 2494SOL    MW4 9750   2.301   2.498   4.859 -0.5421  0.4833 -0.3350
 2495SOL     OW 9751   0.781   1.463   3.379  0.4171  0.1663  0.0800
 2495SOL    HW2 9752   0.868   1.480   3.345  0.3925 -1.7887 -1.0763
 2495SOL    HW3 9753   0.796   1.416   3.461  0.4312  1.1040  0.6327
 2495SOL    MW4 9754   0.794   1.459   3.385  0.0508 -0.0181 -0.0245
 2496SOL     OW 9755   5.832   3.366   1.496  0.5111  0.1912 -0.2078
 2496SOL    HW2 9756   5.812   3.303   1.426 -0.3873 -0.2105  0.3906
 2496SOL    HW3 9757   5.921   3.395   1.477  0.5996 -0.5648 -1.0282
 2496SOL    MW4 9758   5.841   3.361   1.484  0.0336  0.6230 -0.0522
 2497SOL     OW 9759   0.005   4.432   2.581 -0.4325  0.4175  0.4326
 2497SOL    HW2 9760   0.093   4.398   2.596 -0.7402 -0.5800  0.0451
 2497SOL    HW3 9761   0.018   4.524   2.560  0.6671 -0.0526 -1.1262
 2497SOL    MW4 9762   0.018   4.440   2.580  0.3248 -0.3428 -0.1815
 2498SOL     OW 9763   5.685   0.110   0.174 -0.4040  0.4271  0.2563
 2498SOL    HW2 9764   5.676   0.148   0.261 -0.2827 -0.2199  0.5561
 2498SOL    HW3 9765   5.742   0.170   0.127  0.5587  0.1333  1.0235
 2498SOL    MW4 9766   5.691   0.123   0.179 -0.0222 -0.6238  0.6275
 2499SOL     OW 9767   0.619   1.104   0.313  0.0147  0.0589  0.2151
 2499SOL    HW2 9768   0.564   1.145   0.247 -0.3121 -0.3818  0.2040
 2499SOL    HW3 9769   0.563   1.038   0.354  0.7812 -0.9947 -0.3783
 2499SOL    MW4 9770   0.605   1.101   0.310  0.3293 -0.1592  0.5861
 2500SOL     OW 9771   4.236   6.241   3.480 -0.4331  0.1838 -0.5639
 2500SOL    HW2 9772   4.301   6.260   3.413  0.3249 -0.1194  0.0753
 2500SOL    HW3 9773   4.181   6.319   3.483  1.2575  1.3831  0.4565
 2500SOL    MW4 9774   4.237   6.254   3.471 -0.7694  0.4367 -0.5040
 2501SOL     OW 9775   1.369   5.693   4.709  0.1710 -0.0341  0.2913
 2501SOL    HW2 9776   1.314   5.662   4.636  1.6700 -0.2633 -0.7783
 2501SOL    HW3 9777   1.392   5.783   4.685 -1.4180  0.8296  1.7701
 2501SOL    MW4 9778   1.364   5.701   4.696  0.0544  0.2030  0.0177
 2502SOL     OW 9779   1.139   0.398   5.472 -0.2513 -0.1271  0.1184
 2502SOL    HW2 9780   1.134   0.471   5.534 -0.9789  0.4908 -0.6487
 2502SOL    HW3 9781   1.176   0.436   5.393 -3.1568  0.1185 -1.2385
 2502SOL    MW4 9782   1.143   0.412   5.470 -0.1286 -0.1815 -0.1000
 2503SOL     OW 9783   2.644   4.463   0.632  0.1001  0.0692  0.9808
 2503SOL    HW2 9784   2.617   4.399   0.698  0.8996 -0.3710  0.8898
 2503SOL    HW3 9785   2.662   4.411   0.554  0.5500  0.4276  0.8418
 2503SOL    MW4 9786   2.642   4.448   0.631 -0.3895  0.3603 -0.2404
 2504SOL     OW 9787   2.488   6.280   3.381  0.2759  0.1231  0.0814
 2504SOL    HW2 9788   2.453   6.214   3.440  2.0663 -0.7225  0.2683
 2504SOL    HW3 9789   2.455   6.363   3.415 -2.7099 -0.6659 -0.6421
 2504SOL    MW4 9790   2.479   6.283   3.393  0.1571  0.1218 -0.1174
 2505SOL     OW 9791   0.180   0.231   6.036  0.2371 -0.3262 -0.0031
 2505SOL    HW2 9792   0.215   0.152   5.994 -0.8013 -0.5110 -0.5529
 2505SOL    HW3 9793   0.178   0.210   6.129  0.4967 -0.7349 -0.0860
 2505SOL    MW4 9794   0.184   0.218   6.043  0.0275 -0.3689  1.0218
 2506SOL     OW 9795   0.391   0.907   1.170  0.0660  0.1780 -0.4493
 2506SOL    HW2 9796   0.414   0.975   1.106 -1.5902  1.0190 -0.2224
 2506SOL    HW3 9797   0.396   0.825   1.121 -0.4983  0.7371 -1.4821
 2506SOL    MW4 9798   0.395   0.905   1.155 -0.4338  0.3397  0.5304
 2507SOL     OW 9799   5.425   2.568   4.542 -0.2260 -0.3244 -0.1599
 2507SOL    HW2 9800   5.415   2.485   4.590 -0.5509 -1.5966 -2.2700
 2507SOL    HW3 9801   5.338   2.584   4.504 -0.1099  0.8808  0.0445
 2507SOL    MW4 9802   5.412   2.559   4.543  0.4476  0.4531 -0.3295
 2508SOL     OW 9803   1.026   4.904   2.113  0.0384 -0.2427 -0.0150
 2508SOL    HW2 9804   0.967   4.973   2.085  1.9968  1.8080  0.5782
 2508SOL    HW3 9805   1.101   4.911   2.053  0.4457 -1.6270  0.2881
 2508SOL    MW4 9806   1.028   4.914   2.101  0.3820 -0.5229 -0.3725
 2509SOL     OW 9807   5.546   0.924   5.469 -0.6346 -0.2484 -0.4076
 2509SOL    HW2 9808   5.595   0.930   5.388  2.7254 -1.4603  1.3532
 2509SOL    HW3 9809   5.551   1.012   5.507  1.0073 -0.5165  0.0968
 2509SOL    MW4 9810   5.553   0.937   5.464 -0.1510 -0.0696 -0.7094
 2510SOL     OW 9811   5.254   5.155   0.688 -0.0549 -0.5588 -0.0047
 2510SOL    HW2 9812   5.203   5.088   0.642 -1.4907  0.3263  0.2215
 2510SOL    HW3 9813   5.206   5.170   0.769 -0.2986  1.3514 -0.4458
 2510SOL    MW4 9814   5.241   5.148   0.693 -0.1015  0.8221 -0.1813
 2511SOL     OW 9815   2.666   0.346   6.081  0.1045  0.4116  0.3265
 2511SOL    HW2 9816   2.666   0.429   6.127 -1.8047 -0.3717  1.8684
 2511SOL    HW3 9817   2.586   0.348   6.028  1.4524  0.6368 -1.8424
 2511SOL    MW4 9818   2.656   0.357   6.080  0.1789  0.7636 -0.6257
 2512SOL     OW 9819   6.377   3.162   6.332 -0.6783  0.6423  0.4701
 2512SOL    HW2 9820   6.399   3.074   6.302 -0.7325  0.8718 -0.2776
 2512SOL    HW3 9821   6.431   3.176   6.410 -1.2297 -0.3356  1.0496
 2512SOL    MW4 9822   6.387   3.153   6.338 -0.1073 -0.2367  1.2102
 2513SOL     OW 9823   2.624   5.682   1.809  0.0375  0.5809 -0.4091
 2513SOL    HW2 9824   2.546   5.687   1.753 -1.1360  0.5409  1.1505
 2513SOL    HW3 9825   2.679   5.754   1.779 -0.0771 -0.0500 -2.2678
 2513SOL    MW4 9826   2.621   5.692   1.798 -0.5217  0.2792  0.6344
 2514SOL     OW 9827   2.537   6.207   5.873 -0.1439  0.4050  0.2377
 2514SOL    HW2 9828   2.525   6.262   5.796  0.9234  1.0815  0.5436
 2514SOL    HW3 9829   2.526   6.266   5.947 -0.0604 -0.0181  0.5949
 2514SOL    MW4 9830   2.534   6.222   5.873  0.3039  0.4641  0.1645
 2515SOL     OW 9831   5.569   4.906   5.194 -0.0434  0.5987 -0.1292
 2515SOL    HW2 9832   5.531   4.865   5.272 -0.9783  0.8627 -0.4324
 2515SOL    HW3 9833   5.496   4.952   5.153  0.9534  2.5329  0.1561
 2515SOL    MW4 9834   5.554   4.906   5.199 -0.0022 -0.4373  0.3101
 2516SOL     OW 9835   3.354   3.318   1.517 -0.6072  0.1664 -0.4628
 2516SOL    HW2 9836   3.340   3.276   1.432  0.3397 -0.9296 -0.1197
 2516SOL    HW3 9837   3.393   3.402   1.496 -0.7411  0.0673 -1.1304
 2516SOL    MW4 9838   3.358   3.323   1.503  0.1375  0.4776 -0.4159
 2517SOL     OW 9839   3.754   4.504   4.604 -0.2282 -0.1968  0.0595
 2517SOL    HW2 9840   3.796   4.432   4.557  0.6349 -0.4648  1.1688
 2517SOL    HW3 9841   3.827   4.558   4.635 -0.8255  0.6649  0.0004
 2517SOL    MW4 9842   3.769   4.502   4.602 -0.0964 -0.0480 -0.1437
 2518SOL     OW 9843   0.235   1.484   1.191  0.3112 -0.1853  0.4294
 2518SOL    HW2 9844   0.213   1.426   1.264  2.2276 -1.1695  0.3002
 2518SOL    HW3 9845   0.268   1.426   1.123  0.7098  0.9172 -0.3589
 2518SOL    MW4 9846   0.236   1.469   1.192 -0.3010 -0.3989 -0.1562
 2519SOL     OW 9847   1.065   1.061   0.791 -0.9988 -0.2141  0.0852
 2519SOL    HW2 9848   1.094   1.122   0.723 -1.2152  1.8684  1.7673
 2519SOL    HW3 9849   0.969   1.067   0.789 -0.9915  0.2111  0.8636
 2519SOL    MW4 9850   1.056   1.069   0.782  0.0873 -0.1120 -0.2998
 2520SOL     OW 9851   1.983   5.544   0.663 -0.1847 -0.3108  0.0818
 2520SOL    HW2 9852   2.003   5.617   0.721 -2.4709  0.7431 -0.3535
 2520SOL    HW3 9853   1.918   5.578   0.601 -0.3936 -2.3474 -0.9340
 2520SOL    MW4 9854   1.977   5.558   0.663 -0.6834  0.1707  0.0690
 2521SOL     OW 9855   4.379   3.995   4.234  0.0242  0.3591  0.1275
 2521SOL    HW2 9856   4.332   4.059   4.181  0.0934  0.2159 -0.1091
 2521SOL    HW3 9857   4.311   3.939   4.270 -0.2446  1.8255  2.0695
 2521SOL    MW4 9858   4.364   3.996   4.232 -0.0486  0.9505  0.1158
 2522SOL     OW 9859   4.536   5.236   2.468 -0.8005  0.1404  0.0708
 2522SOL    HW2 9860   4.544   5.271   2.379 -0.2100  0.3566  0.2037
 2522SOL    HW3 9861   4.448   5.199   2.471 -0.9185  0.3534 -0.5261
 2522SOL    MW4 9862   4.526   5.236   2.457 -0.2443  0.1836  0.4898
 2523SOL     OW 9863   3.838   0.327   0.307  0.1281  0.3327  0.3296
 2523SOL    HW2 9864   3.754   0.287   0.285  0.8121 -1.0347  0.0557
 2523SOL    HW3 9865   3.852   0.304   0.399  0.7040 -0.4576  0.0638
 2523SOL    MW4 9866   3.829   0.318   0.316  0.1331  0.8590  0.3476
 2524SOL     OW 9867   3.557   0.730   6.371 -0.2403  0.4611  0.2621
 2524SOL    HW2 9868   3.512   0.665   6.317  0.1366  0.5989 -0.2259
 2524SOL    HW3 9869   3.618   0.773   6.311  0.4435  0.3754  0.8750
 2524SOL    MW4 9870   3.559   0.727   6.356 -0.5730  0.2050  0.5347
 2525SOL     OW 9871   3.638   0.779   3.424  0.2074  0.5363 -0.1640
 2525SOL    HW2 9872   3.622   0.790   3.518 -2.6017  3.1673 -0.7709
 2525SOL    HW3 9873   3.560   0.816   3.383  0.9048 -1.4187 -3.5599
 2525SOL    MW4 9874   3.625   0.786   3.431 -0.0232  0.1072  0.0516
 2526SOL     OW 9875   3.289   1.632   1.127  0.6061  0.5486  0.1898
 2526SOL    HW2 9876   3.310   1.666   1.040  0.9767  0.3051  0.1807
 2526SOL    HW3 9877   3.231   1.558   1.110 -0.1236  1.1063  0.2049
 2526SOL    MW4 9878   3.284   1.627   1.113  0.3208 -0.0254 -0.3334
 2527SOL     OW 9879   4.567   3.209   0.089  0.1741 -0.5226 -0.1899
 2527SOL    HW2 9880   4.565   3.243  -0.001  2.0506  1.7577  0.5346
 2527SOL    HW3 9881   4.631   3.138   0.087  0.7353 -0.0113 -0.5228
 2527SOL    MW4 9882   4.575   3.204   0.077  0.3588  0.8694  0.4085
 2528SOL     OW 9883   1.508   6.143   1.901 -0.7227 -0.0346  0.1069
 2528SOL    HW2 9884   1.548   6.115   1.819  0.0485 -2.1979  1.1434
 2528SOL    HW3 9885   1.444   6.074   1.922  0.9416 -1.0064  2.5548
 2528SOL    MW4 9886   1.505   6.130   1.893  0.1284 -0.1581 -0.1181
 2529SOL     OW 9887   0.386   6.295   0.682 -0.3017  0.0886  0.0107
 2529SOL    HW2 9888   0.456   6.267   0.741 -0.9723  1.7367  1.6745
 2529SOL    HW3 9889   0.431   6.342   0.612  0.4889 -1.7255 -0.7561
 2529SOL    MW4 9890   0.401   6.298   0.680  0.3726  0.1912 -0.2809
 2530SOL     OW 9891   0.274   1.008   1.955 -0.0107  0.2990  0.0699
 2530SOL    HW2 9892   0.220   0.971   1.885  1.0600 -0.4337 -0.3910
 2530SOL    HW3 9893   0.281   1.101   1.934 -1.0317  0.4001  0.1134
 2530SOL    MW4 9894   0.268   1.016   1.943  0.0742  0.3317  0.2623
 2531SOL     OW 9895   3.015   2.776   1.086 -0.1455 -0.1568 -0.1753
 2531SOL    HW2 9896   3.012   2.846   1.021  0.0471 -1.1776 -1.3162
 2531SOL    HW3 9897   2.955   2.804   1.155  0.5329  1.4972 -0.2029
 2531SOL    MW4 9898   3.007   2.789   1.087 -0.6568  0.2083 -0.0114
 2532SOL     OW 9899   2.707   0.294   1.130 -0.0317 -1.0448  0.9032
 2532SOL    HW2 9900   2.727   0.337   1.213  0.3189 -0.4890  0.5391
 2532SOL    HW3 9901   2.752   0.210   1.134 -0.1000 -1.0639  1.3129
 2532SOL    MW4 9902   2.716   0.289   1.141  0.3926 -0.5915 -0.1130
 2533SOL     OW 9903   4.303   2.908   5.996  0.2039 -0.8575  0.2558
 2533SOL    HW2 9904   4.312   2.825   5.948  0.9856 -0.2100 -0.7477
 2533SOL    HW3 9905   4.392   2.939   6.007 -0.0997 -0.0420  0.4467
 2533SOL    MW4 9906   4.316   2.901   5.991 -0.1589 -0.0176  0.0342
 2534SOL     OW 9907   5.257   4.873   6.410 -0.3755  0.5163 -0.3464
 2534SOL    HW2 9908   5.274   4.903   6.499 -1.8741  1.0824 -0.2212
 2534SOL    HW3 9909   5.342   4.845   6.377  0.0955 -0.3689  1.5024
 2534SOL    MW4 9910   5.270   4.873   6.417 -0.1217 -0.8689  0.2511
 2535SOL     OW 9911   1.874   3.810   2.232 -0.4735  0.2098  0.7570
 2535SOL    HW2 9912   1.929   3.732   2.237 -0.0781  0.0812 -3.0844
 2535SOL    HW3 9913   1.929   3.877   2.192 -1.6183  1.6794  1.5293
 2535SOL    MW4 9914   1.888   3.808   2.227 -0.1412  0.4090 -0.2107
 2536SOL     OW 9915   6.091   5.516   3.365 -0.1279  0.7191  0.4192
 2536SOL    HW2 9916   6.089   5.520   3.269 -0.8437 -0.7399  0.3400
 2536SOL    HW3 9917   6.175   5.555   3.389  1.2611 -1.2241 -0.9860
 2536SOL    MW4 9918   6.102   5.521   3.356 -0.1430 -0.1351 -0.5513
 2537SOL     OW 9919   5.854   2.328   3.622  0.2403  0.3444 -0.1062
 2537SOL    HW2 9920   5.896   2.401   3.668  0.0248  0.1695  0.3861
 2537SOL    HW3 9921   5.776   2.309   3.674  0.3156 -0.2654 -0.2000
 2537SOL    MW4 9922   5.849   2.335   3.635  0.4190  0.8271 -0.4753
 2538SOL     OW 9923   1.963   1.879   5.028  0.8852 -0.4188  0.3320
 2538SOL    HW2 9924   1.930   1.789   5.020 -0.2997  0.0039  0.2869
 2538SOL    HW3 9925   2.011   1.894   4.947 -1.0324 -0.1909 -0.8315
 2538SOL    MW4 9926   1.965   1.869   5.016 -0.3300 -0.5050  0.0133
 2539SOL     OW 9927   4.248   0.942   5.128  0.5957 -0.1905  0.1449
 2539SOL    HW2 9928   4.279   0.853   5.146  1.2183 -0.2444 -1.0723
 2539SOL    HW3 9929   4.306   0.974   5.059 -1.4700  0.0717 -1.5622
 2539SOL    MW4 9930   4.260   0.935   5.121 -0.3678 -0.2287 -0.3266
 2540SOL     OW 9931   4.615   4.414   0.286  0.0612  0.5587 -0.2062
 2540SOL    HW2 9932   4.620   4.321   0.307 -0.0319  0.4394 -0.6958
 2540SOL    HW3 9933   4.594   4.416   0.192 -0.9764  1.0608  0.0163
 2540SOL    MW4 9934   4.613   4.402   0.276  0.4043 -0.3599 -0.1925
 2541SOL     OW 9935   0.290   5.648   1.247 -0.2108  0.3212  0.6633
 2541SOL    HW2 9936   0.340   5.634   1.327 -0.3568 -1.2597  0.5045
 2541SOL    HW3 9937   0.237   5.725   1.265  0.8897  0.9087  1.5123
 2541SOL    MW4 9938   0.290   5.656   1.260  0.0214 -0.3935  0.0898
 2542SOL     OW 9939   0.669   6.203   2.137 -0.3650  0.5571 -0.3592
 2542SOL    HW2 9940   0.611   6.159   2.075  0.0341 -1.5091  0.6510
 2542SOL    HW3 9941   0.661   6.153   2.218  1.2222  1.5083  0.4476
 2542SOL    MW4 9942   0.661   6.191   2.140 -0.3679 -0.6004  0.0557
 2543SOL     OW 9943   3.741   3.647   0.047  0.0960 -0.3135  0.3746
 2543SOL    HW2 9944   3.665   3.627  -0.008  0.1539  0.1173  0.1390
 2543SOL    HW3 9945   3.716   3.726   0.095  0.5565  0.0747 -0.0174
 2543SOL    MW4 9946   3.728   3.654   0.046  0.5455  0.3467 -0.4346
 2544SOL     OW 9947   5.556   2.116   5.442  0.1889  0.5244  0.6722
 2544SOL    HW2 9948   5.542   2.210   5.430 -2.3467  0.2089  0.5308
 2544SOL    HW3 9949   5.628   2.094   5.383  1.2633  2.4569  1.1732
 2544SOL    MW4 9950   5.563   2.125   5.433  0.0064  0.3929  0.6014
 2545SOL     OW 9951   4.203   4.304   6.205  0.3077 -0.3926 -0.7334
 2545SOL    HW2 9952   4.175   4.298   6.297  0.1162 -1.6922 -0.8557
 2545SOL    HW3 9953   4.298   4.309   6.209  0.2500  2.8685 -0.3641
 2545SOL    MW4 9954   4.212   4.304   6.218  0.0551  0.5940 -0.7106
 2546SOL     OW 9955   2.515   0.618   2.103 -0.1836  0.1414  0.0247
 2546SOL    HW2 9956   2.567   0.608   2.182  1.5690 -0.4237 -1.1233
 2546SOL    HW3 9957   2.524   0.710   2.079 -1.4091  0.5109  0.8949
 2546SOL    MW4 9958   2.523   0.629   2.110  0.1664 -0.8766 -0.0998
 2547SOL     OW 9959   3.020   0.829   3.255  0.6995  0.4087  0.0634
 2547SOL    HW2 9960   3.079   0.768   3.299  1.1782  0.1422 -0.9084
 2547SOL    HW3 9961   3.031   0.912   3.301  0.8661  0.0340  0.6987
 2547SOL    MW4 9962   3.029   0.832   3.267 -0.4511  0.4499  0.9966
 2548SOL     OW 9963   3.107   5.033   3.314  0.4555 -0.0070  0.1714
 2548SOL    HW2 9964   3.147   5.117   3.338  2.7997 -1.5743  2.2657
 2548SOL    HW3 9965   3.174   4.990   3.261  0.5364 -1.6623  1.5329
 2548SOL    MW4 9966   3.121   5.038   3.310 -0.3569  0.2085 -0.2160
 2549SOL     OW 9967   1.258   5.969   3.860  0.2676 -1.1216 -0.3091
 2549SOL    HW2 9968   1.291   6.048   3.902 -0.8099 -0.0092 -1.4706
 2549SOL    HW3 9969   1.194   5.934   3.922 -0.2254 -0.3237 -0.3528
 2549SOL    MW4 9970   1.254   5.975   3.874  0.1931  0.6486  0.0799
 2550SOL     OW 9971   6.063   5.192   0.234 -0.7387 -0.6077  0.1679
 2550SOL    HW2 9972   6.057   5.262   0.169  0.8241 -0.9463 -0.3979
 2550SOL    HW3 9973   6.071   5.237   0.318 -2.2843 -0.1612  0.1006
 2550SOL    MW4 9974   6.064   5.207   0.237 -0.0645  0.1207 -0.1513
 2551SOL     OW 9975   4.584   3.636   2.503 -0.2261 -0.0770  0.5147
 2551SOL    HW2 9976   4.580   3.690   2.582  0.7806 -0.2091  0.6757
 2551SOL    HW3 9977   4.677   3.635   2.479 -0.5475  0.1810 -0.8356
 2551SOL    MW4 9978   4.596   3.643   2.510 -0.3181 -0.2797 -0.6915
 2552SOL     OW 9979   1.152   1.145   5.494 -0.2926 -0.3740 -0.0282
 2552SOL    HW2 9980   1.060   1.119   5.502 -0.6653  1.2882  1.8589
 2552SOL    HW3 9981   1.151   1.224   5.440 -0.1519  0.2979  0.9142
 2552SOL    MW4 9982   1.140   1.152   5.488 -0.4354 -0.5118 -0.3280
 2553SOL     OW 9983   1.643   3.862   5.513  0.3274  0.4073  0.0020
 2553SOL    HW2 9984   1.577   3.856   5.444  1.0464 -1.6504 -0.5682
 2553SOL    HW3 9985   1.619   3.793   5.575  1.0184  0.7085  0.6160
 2553SOL    MW4 9986   1.631   3.852   5.512 -0.3908  0.6721 -0.1459
 2554SOL     OW 9987   2.445   1.970   2.257 -0.3006 -0.4392  0.0126
 2554SOL    HW2 9988   2.504   1.981   2.332  2.5755  0.7904 -2.2779
 2554SOL    HW3 9989   2.384   2.043   2.264  1.7244  1.3750 -0.2964
 2554SOL    MW4 9990   2.445   1.981   2.268 -0.3070  0.3924 -0.3145
 2555SOL     OW 9991   1.577   1.918   3.177  0.5604 -0.0602  0.4235
 2555SOL    HW2 9992   1.653   1.873   3.212 -0.0113 -0.7585  0.7873
 2555SOL    HW3 9993   1.601   1.938   3.086  1.1327 -0.3642  0.5023
 2555SOL    MW4 9994   1.590   1.915   3.169 -0.3904  0.0511  0.2488
 2556SOL     OW 9995   1.561   4.472   2.582 -0.1285  0.0727  0.5799
 2556SOL    HW2 9996   1.584   4.382   2.607  1.4411  0.2770  0.0169
 2556SOL    HW3 9997   1.527   4.511   2.662  0.2033 -0.7075  1.1227
 2556SOL    MW4 9998   1.560   4.465   2.596 -0.4806 -0.3540  0.3443
 2557SOL     OW 9999   3.617   2.955   3.773  0.0921 -0.3618 -0.4517
 2557SOL    HW210000   3.543   2.997   3.816  0.4410 -0.3227  0.1309
 2557SOL    HW310001   3.614   2.864   3.804 -0.6107 -0.7512 -1.6396
 2557SOL    MW410002   3.607   2.949   3.783  0.3907  1.0245  0.4587
 2558SOL     OW10003   4.596   5.771   0.173 -0.0780  0.3499 -0.1585
 2558SOL    HW210004   4.596   5.752   0.267 -0.8546 -1.2255 -0.4502
 2558SOL    HW310005   4.508   5.747   0.144  0.0140  1.2255 -1.2295
 2558SOL    MW410006   4.585   5.765   0.181  0.3930 -0.2403 -0.1485
 2559SOL     OW10007   6.117   1.054   0.323  0.5167 -0.0174  0.1297
 2559SOL    HW210008   6.074   0.969   0.315  3.4838 -1.8927  2.1758
 2559SOL    HW310009   6.198   1.044   0.272  1.0405  1.4918  0.6260
 2559SOL    MW410010   6.122   1.041   0.315 -0.1747 -0.1922 -0.2233
 2560SOL     OW10011   2.094   0.912   0.110  0.2192 -0.2816  0.2153
 2560SOL    HW210012   2.043   0.857   0.169 -0.8820  0.4783 -0.0027
 2560SOL    HW310013   2.109   0.857   0.033 -0.9056 -0.2759 -0.0171
 2560SOL    MW410014   2.089   0.898   0.108 -0.1302  0.7257  0.2543
 2561SOL     OW10015   0.747   4.174   0.412 -0.5903  0.0788 -0.4847
 2561SOL    HW210016   0.767   4.268   0.410  0.0602 -0.0564 -0.5241
 2561SOL    HW310017   0.755   4.150   0.505 -0.6621  0.0357 -0.4893
 2561SOL    MW410018   0.750   4.183   0.424 -0.2369 -0.5509 -0.1943
 2562SOL     OW10019   4.801   2.522   0.897 -0.1496  0.4494  0.5590
 2562SOL    HW210020   4.874   2.504   0.838 -0.2712  0.0960  0.5153
 2562SOL    HW310021   4.803   2.450   0.960 -0.4800  0.4216  0.5386
 2562SOL    MW410022   4.811   2.510   0.898  0.1249  0.4776  0.3999
 2563SOL     OW10023   2.837   0.721   4.534  0.5399  0.3052 -0.0577
 2563SOL    HW210024   2.909   0.764   4.581 -0.7301 -0.3244  2.6319
 2563SOL    HW310025   2.822   0.640   4.582 -2.1117  0.5441 -0.3402
 2563SOL    MW410026   2.845   0.716   4.547  0.4829 -0.0169  0.2853
 2564SOL     OW10027   3.994   3.347   3.572 -0.3437 -0.2460 -0.0602
 2564SOL    HW210028   4.011   3.293   3.649 -2.8063  0.3533  0.9926
 2564SOL    HW310029   3.901   3.367   3.576 -0.1140  1.6534 -2.0074
 2564SOL    MW410030   3.984   3.343   3.583 -0.8754  0.5581  0.6281
 2565SOL     OW10031   0.328   1.276   6.293 -0.1981  0.4100  0.0760
 2565SOL    HW210032   0.405   1.288   6.237 -0.1096 -0.7866 -0.0984
 2565SOL    HW310033   0.364   1.261   6.380 -0.2263  0.0395  0.0282
 2565SOL    MW410034   0.343   1.275   6.297 -0.0833  0.2762  0.2808
 2566SOL     OW10035   3.479   1.683   5.122  0.0115  0.3420 -0.2422
 2566SOL    HW210036   3.433   1.728   5.051  0.9511 -0.2530 -1.2431
 2566SOL    HW310037   3.409   1.641   5.173 -0.6552  0.6392 -0.9034
 2566SOL    MW410038   3.463   1.684   5.120 -0.0680  0.2437 -0.3424
 2567SOL     OW10039   0.842   1.790   6.308 -0.3262 -0.1973  0.3064
 2567SOL    HW210040   0.824   1.769   6.399 -0.0549  1.8187  0.8680
 2567SOL    HW310041   0.769   1.845   6.280 -0.7872 -1.3939 -0.9399
 2567SOL    MW410042   0.830   1.795   6.316 -0.3373  0.7128  0.3228
 2568SOL     OW10043   0.074   3.872   0.465 -0.6199 -0.2948  0.3806
 2568SOL    HW210044   0.001   3.812   0.447 -0.4181 -0.3474 -0.2845
 2568SOL    HW310045   0.140   3.817   0.507 -0.5455 -0.4858  0.0235
 2568SOL    MW410046   0.073   3.857   0.468 -0.6805 -0.2908  0.0525
 2569SOL     OW10047   5.361   0.003   0.686  0.0647 -0.0772  0.1574
 2569SOL    HW210048   5.283  -0.002   0.741 -0.7196  3.0650 -0.4628
 2569SOL    HW310049   5.342  -0.054   0.612 -0.2989 -1.7105  1.4567
 2569SOL    MW410050   5.348  -0.005   0.683  0.6245 -0.0286  0.0489
 2570SOL     OW10051   0.676   3.711   4.639 -0.5373 -0.3450 -0.2610
 2570SOL    HW210052   0.711   3.749   4.559 -0.6543  1.8163  0.6523
 2570SOL    HW310053   0.719   3.759   4.709 -1.3105 -1.3868  0.9731
 2570SOL    MW410054   0.687   3.722   4.638  0.1352 -0.1654 -0.2674
 2571SOL     OW10055   2.235   3.046   4.076 -0.0051 -0.3202  0.0260
 2571SOL    HW210056   2.167   3.002   4.025  2.0320 -2.1006 -1.3200
 2571SOL    HW310057   2.264   2.980   4.138 -0.3480  0.8614  1.5096
 2571SOL    MW410058   2.230   3.032   4.077  0.2474  0.0843  0.1423
 2572SOL     OW10059   1.357   2.390   3.886  0.2994  0.0265  0.1181
 2572SOL    HW210060   1.379   2.483   3.897  0.2507 -0.0479  0.9390
 2572SOL    HW310061   1.304   2.387   3.806 -2.0684  1.1219  1.5388
 2572SOL    MW410062   1.353   2.402   3.877  0.2660  0.1537  0.2107
 2573SOL     OW10063   5.160   0.417   3.655 -0.1630 -0.2111  0.6391
 2573SOL    HW210064   5.236   0.474   3.658  0.2592 -0.7756  0.7928
 2573SOL    HW310065   5.196   0.328   3.658 -0.6879 -0.5638 -1.8279
 2573SOL    MW410066   5.174   0.413   3.656 -0.6267  0.5671  0.2017
 2574SOL     OW10067   2.420   2.698   5.363 -0.3042 -0.3091 -0.3261
 2574SOL    HW210068   2.467   2.703   5.279 -0.9247  0.9733 -0.6201
 2574SOL    HW310069   2.488   2.713   5.428  0.3623 -2.2519 -0.5024
 2574SOL    MW410070   2.436   2.700   5.360 -0.3234 -0.1360  0.1830
 2575SOL     OW10071   2.285   6.078   0.517 -0.5207  0.7423  0.0435
 2575SOL    HW210072   2.249   6.164   0.537  1.3380  1.5053  0.3559
 2575SOL    HW310073   2.260   6.061   0.427 -0.6070  1.7872 -0.1412
 2575SOL    MW410074   2.277   6.087   0.508  0.5813 -0.6294  0.3879
 2576SOL     OW10075   3.685   4.299   4.182  0.0341  0.0209 -0.2312
 2576SOL    HW210076   3.627   4.355   4.131 -1.5428 -0.0625  1.3667
 2576SOL    HW310077   3.644   4.295   4.268  3.2613  1.2566  1.5305
 2576SOL    MW410078   3.672   4.306   4.187  0.0866 -0.9567 -0.0254
 2577SOL     OW10079   3.573   1.360   0.544  0.1517  0.2688  0.0888
 2577SOL    HW210080   3.647   1.402   0.587  0.2969  1.3199 -1.1321
 2577SOL    HW310081   3.581   1.385   0.452  1.3422 -3.9704 -1.1805
 2577SOL    MW410082   3.584   1.369   0.537  0.7424 -0.2374 -0.4206
 2578SOL     OW10083   5.747   3.002   0.828 -0.3304 -0.0273  0.0474
 2578SOL    HW210084   5.750   2.914   0.866  1.5205  0.7510  1.9570
 2578SOL    HW310085   5.839   3.026   0.817 -0.8157  1.1417 -1.8270
 2578SOL    MW410086   5.759   2.993   0.832 -0.2683 -0.1850 -0.0301
 2579SOL     OW10087   4.882   0.630   2.095  0.1637  0.0177  0.2623
 2579SOL    HW210088   4.795   0.656   2.065  1.0866  2.0020 -0.8679
 2579SOL    HW310089   4.887   0.662   2.185 -0.5371 -0.8431  0.6249
 2579SOL    MW410090   4.871   0.638   2.103 -0.0311 -0.1426  0.4169
 2580SOL     OW10091   3.450   4.880   6.264 -0.1507  0.5165  0.5985
 2580SOL    HW210092   3.403   4.940   6.323 -0.8129  0.8043 -0.2105
 2580SOL    HW310093   3.403   4.797   6.272  0.6904  0.1054  1.6228
 2580SOL    MW410094   3.438   4.877   6.273 -0.8048  0.5852  0.0192
 2581SOL     OW10095   4.417   0.803   3.747 -0.1307 -0.1279  0.3510
 2581SOL    HW210096   4.446   0.748   3.674 -0.2876  1.2587 -0.7922
 2581SOL    HW310097   4.455   0.889   3.728 -2.0873  0.8452  0.6572
 2581SOL    MW410098   4.426   0.807   3.735  0.4009 -0.5436 -0.1200
 2582SOL     OW10099   3.218   4.071   6.180  0.1851 -0.0080  0.1055
 2582SOL    HW210100   3.224   4.072   6.275  1.5858 -0.1926  0.0412
 2582SOL    HW310101   3.268   4.147   6.152  1.8945 -1.3084 -0.5451
 2582SOL    MW410102   3.225   4.081   6.189  0.4585 -1.1632 -0.2477
 2583SOL     OW10103   1.526   5.991   2.482 -0.2955 -0.2555  0.1990
 2583SOL    HW210104   1.577   5.912   2.501 -0.6942 -0.2683  1.3292
 2583SOL    HW310105   1.490   5.976   2.395  0.1707 -1.0331  0.1295
 2583SOL    MW410106   1.528   5.979   2.473  0.4316  0.0566  0.0489
 2584SOL     OW10107   4.267   2.042   2.392  0.4384 -0.0249  0.6577
 2584SOL    HW210108   4.237   2.122   2.348  0.6350 -0.2088  0.1835
 2584SOL    HW310109   4.322   1.998   2.327 -3.4499 -2.9941 -0.9815
 2584SOL    MW410110   4.270   2.047   2.377 -0.0620 -0.3294  0.1952
 2585SOL     OW10111   2.510   1.261   4.678 -0.7770 -0.2387  0.1351
 2585SOL    HW210112   2.436   1.200   4.677 -0.2404 -0.8937 -0.3664
 2585SOL    HW310113   2.472   1.345   4.654 -1.3623 -0.5695 -0.1160
 2585SOL    MW410114   2.495   1.264   4.675 -0.6189  0.3986  0.5549
 2586SOL     OW10115   0.371   6.152   1.785  0.2036 -0.2515 -0.2423
 2586SOL    HW210116   0.340   6.138   1.695 -0.3238  1.6983 -0.4271
 2586SOL    HW310117   0.323   6.230   1.814  0.5074 -0.7417  1.6713
 2586SOL    MW410118   0.361   6.161   1.777 -0.0864 -0.5282  0.8553
 2587SOL     OW10119   4.127   1.226   2.188 -0.4477  0.2058 -0.1434
 2587SOL    HW210120   4.216   1.248   2.215 -0.0606  0.8335 -1.8391
 2587SOL    HW310121   4.100   1.298   2.132 -2.1341  0.1369  0.5085
 2587SOL    MW410122   4.135   1.238   2.184  0.7390 -0.7173  0.1367
 2588SOL     OW10123   3.149   6.247   1.166 -0.0967 -0.2314  0.2385
 2588SOL    HW210124   3.201   6.169   1.185 -2.1271 -1.3280  1.4977
 2588SOL    HW310125   3.084   6.251   1.236 -0.3748  2.3240 -0.0812
 2588SOL    MW410126   3.148   6.237   1.177  0.0944 -0.0917  0.0309
 2589SOL     OW10127   3.399   2.722   0.975  0.5014 -0.0190 -0.0592
 2589SOL    HW210128   3.408   2.742   1.068 -0.1456 -0.8349  0.1934
 2589SOL    HW310129   3.331   2.655   0.971  1.4028 -0.9173 -1.0080
 2589SOL    MW410130   3.391   2.716   0.987 -0.1482  0.2206  0.1319
 2590SOL     OW10131   4.741   3.091   4.393 -0.1576 -0.2683  0.3633
 2590SOL    HW210132   4.656   3.110   4.353 -0.2330 -0.6896  0.3174
 2590SOL    HW310133   4.726   3.103   4.487  0.5341  2.7341  0.1988
 2590SOL    MW410134   4.728   3.095   4.400  0.0559 -0.3893 -0.0145
 2591SOL     OW10135   5.556   4.686   4.734  0.1580  0.1102  0.0044
 2591SOL    HW210136   5.572   4.773   4.697  0.6262 -0.4352 -1.1339
 2591SOL    HW310137   5.504   4.702   4.813  1.4925  1.5329  0.6467
 2591SOL    MW410138   5.551   4.700   4.740 -0.4258  0.0435  0.1824
 2592SOL     OW10139   0.638   3.636   0.730 -0.3253  0.0374  0.6948
 2592SOL    HW210140   0.668   3.708   0.674 -1.6593 -0.7425 -1.1365
 2592SOL    HW310141   0.581   3.679   0.794  1.1507  0.9382  1.4664
 2592SOL    MW410142   0.634   3.652   0.731 -0.0244  0.0459 -0.3674
 2593SOL     OW10143   4.627   5.999   0.808  0.0007  0.2294  0.2457
 2593SOL    HW210144   4.623   5.967   0.718 -2.3087 -0.9643  0.6881
 2593SOL    HW310145   4.580   6.082   0.806  0.9722  0.7942  0.1693
 2593SOL    MW410146   4.620   6.006   0.796 -0.2121  0.2615 -0.5127
 2594SOL     OW10147   5.415   0.123   0.080  0.5713 -0.1291  0.2590
 2594SOL    HW210148   5.416   0.096  -0.012  0.5752 -0.2800  0.3019
 2594SOL    HW310149   5.504   0.105   0.111  0.7918  0.6531  0.0852
 2594SOL    MW410150   5.427   0.117   0.072 -0.0784  0.0740  0.0566
 2595SOL     OW10151   0.058   3.739   3.287 -0.2604  0.4628 -0.0912
 2595SOL    HW210152   0.088   3.821   3.248 -0.0529  0.1057 -0.7079
 2595SOL    HW310153  -0.032   3.756   3.313  0.3201  1.4262  1.4222
 2595SOL    MW410154   0.050   3.752   3.285 -0.2792  0.2529  0.2383
 2596SOL     OW10155   0.358   5.306   5.955  0.3352  0.6856 -0.3458
 2596SOL    HW210156   0.360   5.211   5.943 -0.3515  0.6826 -0.5220
 2596SOL    HW310157   0.362   5.342   5.867 -0.4810  0.7826 -0.3555
 2596SOL    MW410158   0.359   5.299   5.942 -0.0923  0.0741  0.4078
 2597SOL     OW10159   1.602   4.600   0.439  0.4270  0.2394 -0.3843
 2597SOL    HW210160   1.547   4.665   0.394 -1.2334 -0.2045  0.9076
 2597SOL    HW310161   1.578   4.609   0.532  0.1795 -2.1765 -0.1675
 2597SOL    MW410162   1.592   4.610   0.445 -0.4216 -0.1234  0.0809
 2598SOL     OW10163   2.353   3.723   6.085 -0.0738  0.0507 -0.5751
 2598SOL    HW210164   2.262   3.697   6.095  0.4884 -2.1479 -0.4812
 2598SOL    HW310165   2.372   3.706   5.992  0.4883 -0.4311 -0.3755
 2598SOL    MW410166   2.344   3.717   6.074 -0.4856 -0.5976  0.0014
 2599SOL     OW10167   3.745   6.245   4.199 -0.5880 -0.1173 -0.2402
 2599SOL    HW210168   3.758   6.215   4.109  1.4196 -0.5408  0.1439
 2599SOL    HW310169   3.721   6.166   4.247  0.4014 -0.3071 -0.0380
 2599SOL    MW410170   3.744   6.231   4.193  0.2771 -0.3499  0.7215
 2600SOL     OW10171   2.197   1.616   3.378 -0.0210  0.3062  0.0735
 2600SOL    HW210172   2.132   1.546   3.375 -0.8740  0.9244  2.1805
 2600SOL    HW310173   2.148   1.695   3.354 -0.4228  0.9481  2.6816
 2600SOL    MW410174   2.182   1.617   3.375 -0.1869 -0.2020  0.5821
 2601SOL     OW10175   2.614   6.144   4.604  0.6793 -0.4649  0.0706
 2601SOL    HW210176   2.681   6.078   4.592  0.3865 -0.4841 -1.5715
 2601SOL    HW310177   2.534   6.105   4.569  0.0104 -0.0647  1.0933
 2601SOL    MW410178   2.612   6.130   4.598  0.0129  0.1616 -0.3878
 2602SOL     OW10179   2.673   1.789   2.715 -0.1008  0.0011 -0.1129
 2602SOL    HW210180   2.620   1.725   2.762  0.0703 -0.8182 -0.9944
 2602SOL    HW310181   2.751   1.740   2.687  1.0761  1.1370  1.0164
 2602SOL    MW410182   2.676   1.774   2.717 -0.1988  0.2106  0.8408
 2603SOL     OW10183   1.211   3.972   5.710  0.3924  0.3504 -0.8132
 2603SOL    HW210184   1.229   3.881   5.734  0.2156  0.7093  0.7880
 2603SOL    HW310185   1.295   4.017   5.723 -0.1453  0.8988  0.9747
 2603SOL    MW410186   1.225   3.966   5.715  0.5237  0.0925 -0.2601
 2604SOL     OW10187   6.201   1.216   5.036  0.4524 -0.5203 -0.3972
 2604SOL    HW210188   6.292   1.197   5.015  1.0681  0.6377  1.1105
 2604SOL    HW310189   6.194   1.203   5.130 -0.2723  1.8656 -0.0561
 2604SOL    MW410190   6.212   1.211   5.045  0.5935  0.2703  0.1096
 2605SOL     OW10191   5.179   5.200   3.537  0.1758 -0.3993  0.4012
 2605SOL    HW210192   5.182   5.176   3.629 -1.4819 -1.0429  0.3129
 2605SOL    HW310193   5.184   5.117   3.490  1.9254 -0.0229 -0.1480
 2605SOL    MW410194   5.180   5.186   3.543 -0.6313  0.3508 -0.1497
 2606SOL     OW10195   3.870   4.050   4.761  0.5049 -0.4253  0.3029
 2606SOL    HW210196   3.816   3.976   4.789 -1.0001 -0.0972 -1.5837
 2606SOL    HW310197   3.931   4.012   4.698  0.6740 -0.2879  0.3812
 2606SOL    MW410198   3.871   4.035   4.757  0.2326 -0.5929 -0.7556
 2607SOL     OW10199   2.114   0.693   5.322  0.0100  0.2392 -0.0758
 2607SOL    HW210200   2.182   0.658   5.264 -0.8383 -1.3035 -0.2020
 2607SOL    HW310201   2.146   0.780   5.347  1.4510  0.0351 -1.0686
 2607SOL    MW410202   2.127   0.700   5.317 -0.1532 -0.0086 -0.6575
 2608SOL     OW10203   0.325   1.945   2.215 -0.2539 -0.5729 -0.3099
 2608SOL    HW210204   0.255   1.996   2.257 -0.2565 -0.1924 -0.7680
 2608SOL    HW310205   0.292   1.926   2.128  0.0972 -0.6407 -0.4302
 2608SOL    MW410206   0.311   1.949   2.209 -0.0791  0.1730  0.1324
 2609SOL     OW10207   6.251   5.317   4.641 -0.3042  0.1405 -0.0243
 2609SOL    HW210208   6.261   5.228   4.609  0.7377  0.3222 -0.2144
 2609SOL    HW310209   6.164   5.318   4.681  1.0443 -2.0576  3.4299
 2609SOL    MW410210   6.241   5.305   4.642 -0.2452 -0.5291 -0.0829
 2610SOL     OW10211   0.468   2.650   0.375  0.3929 -0.1128  0.4204
 2610SOL    HW210212   0.524   2.727   0.376  1.7496 -1.0383 -0.5020
 2610SOL    HW310213   0.400   2.670   0.312  0.3657  0.5611  0.6569
 2610SOL    MW410214   0.466   2.663   0.367  0.2300 -0.0663 -0.0262
 2611SOL     OW10215   1.027   1.034   3.924  0.0245 -0.4889  0.1835
 2611SOL    HW210216   0.948   1.049   3.871  0.1118 -0.8201 -0.0480
 2611SOL    HW310217   1.075   1.116   3.919  0.0338 -0.5186 -0.2625
 2611SOL    MW410218   1.023   1.047   3.916 -0.0136  0.2344 -0.3121
 2612SOL     OW10219   5.536   3.906   1.679 -0.4932 -0.0209 -0.2437
 2612SOL    HW210220   5.619   3.863   1.656  0.0102 -0.3583  1.9649
 2612SOL    HW310221   5.562   3.994   1.707 -0.7731 -0.2725  0.8894
 2612SOL    MW410222   5.551   3.912   1.680  0.2771 -0.6599  0.5145
 2613SOL     OW10223   5.804   3.817   1.022 -0.0197  0.2184  0.2233
 2613SOL    HW210224   5.884   3.795   1.070 -0.2991 -0.2648  0.4671
 2613SOL    HW310225   5.767   3.732   0.997 -0.3056  0.4492 -0.1413
 2613SOL    MW410226   5.810   3.803   1.025 -0.3933 -0.0707  0.4026
 2614SOL     OW10227   1.763   0.897   1.449 -0.4237  0.1476  0.2434
 2614SOL    HW210228   1.674   0.868   1.472 -0.2654 -1.7392 -1.2536
 2614SOL    HW310229   1.820   0.827   1.482  0.4275  0.8731  0.3361
 2614SOL    MW410230   1.758   0.884   1.456 -0.1019  0.0540  0.1196
 2615SOL     OW10231   3.207   3.097   3.073  0.0651 -0.1422  0.0282
 2615SOL    HW210232   3.244   3.184   3.057  0.2531  0.1695  1.8998
 2615SOL    HW310233   3.146   3.083   3.001  0.6106  1.2046 -0.7320
 2615SOL    MW410234   3.204   3.107   3.061  0.2780 -0.3679  0.1564
 2616SOL     OW10235   1.895   1.068   4.545 -0.2077 -0.1940 -0.5285
 2616SOL    HW210236   1.861   1.086   4.458 -1.3631 -0.7770 -0.2159
 2616SOL    HW310237   1.945   1.146   4.568 -2.0260  1.0597 -0.6745
 2616SOL    MW410238   1.897   1.080   4.537  0.4267  0.7923 -0.2321
 2617SOL     OW10239   1.725   3.642   1.419 -0.3260  0.6643 -0.0835
 2617SOL    HW210240   1.792   3.710   1.420  2.0330 -1.4805 -1.2238
 2617SOL    HW310241   1.711   3.619   1.511  0.7899  0.8872  0.1480
 2617SOL    MW410242   1.732   3.648   1.431  0.0748 -0.7966 -0.1165
 2618SOL     OW10243   4.336   0.159   2.469 -0.0972 -0.0638 -0.2811
 2618SOL    HW210244   4.246   0.153   2.503  0.0261 -0.0876  0.0489
 2618SOL    HW310245   4.379   0.081   2.503 -0.0799 -0.3090 -0.8485
 2618SOL    MW410246   4.330   0.148   2.478  0.2118 -0.1311  0.4962
 2619SOL     OW10247   2.754   5.236   3.572 -0.4962  0.0131  0.2755
 2619SOL    HW210248   2.828   5.293   3.594  0.0539 -1.3105  2.1201
 2619SOL    HW310249   2.774   5.203   3.484  0.3990  0.7770  0.1824
 2619SOL    MW410250   2.767   5.239   3.563  0.0624 -0.1088 -0.5417
 2620SOL     OW10251   2.585   3.041   1.604 -0.3529  0.2806  0.5798
 2620SOL    HW210252   2.596   2.949   1.583  0.0341 -0.0552  2.0840
 2620SOL    HW310253   2.525   3.075   1.538 -2.3602 -1.6022  1.3212
 2620SOL    MW410254   2.579   3.034   1.593 -0.0346 -0.1385 -0.9307
 2621SOL     OW10255   4.045   5.552   3.232 -0.0152 -0.1482  0.6025
 2621SOL    HW210256   4.105   5.616   3.271  0.3071  1.5087 -2.2554
 2621SOL    HW310257   3.978   5.605   3.189  0.3888 -1.6103 -2.1057
 2621SOL    MW410258   4.044   5.568   3.231  0.1860  0.4341  0.5882
 2622SOL     OW10259   5.367   6.108   4.937  0.2466 -0.4029  0.3280
 2622SOL    HW210260   5.377   6.201   4.918  4.7893 -0.5014  1.0752
 2622SOL    HW310261   5.400   6.064   4.859 -4.1785 -1.7275 -1.1129
 2622SOL    MW410262   5.373   6.115   4.924  0.3288 -0.7387 -0.0588
 2623SOL     OW10263   6.146   3.483   0.634  0.0889  0.1023  0.0118
 2623SOL    HW210264   6.217   3.457   0.576  2.0344  2.2440  1.2310
 2623SOL    HW310265   6.082   3.526   0.577  1.3239  0.9721 -0.7717
 2623SOL    MW410266   6.147   3.485   0.619 -0.3909 -0.5994 -0.2690
 2624SOL     OW10267   3.393   4.929   0.963 -0.7062 -0.0033  0.0089
 2624SOL    HW210268   3.304   4.960   0.979 -0.9909 -0.2544 -0.9951
 2624SOL    HW310269   3.390   4.895   0.874 -0.2361 -2.2810  0.8034
 2624SOL    MW410270   3.381   4.929   0.953  0.2488  0.6301 -0.1136
 2625SOL     OW10271   5.473   3.489   4.842 -0.1510  0.6765  0.1489
 2625SOL    HW210272   5.549   3.545   4.829  0.0628  0.6624  1.2009
 2625SOL    HW310273   5.432   3.523   4.922 -0.8320  0.2280  0.0002
 2625SOL    MW410274   5.477   3.501   4.851  0.2149 -0.3996  0.8355
 2626SOL     OW10275   6.218   5.278   1.974  0.8424  0.0326  0.2990
 2626SOL    HW210276   6.212   5.328   1.892  0.8834  0.3340  0.4781
 2626SOL    HW310277   6.191   5.189   1.950  0.9199  0.1024 -0.0569
 2626SOL    MW410278   6.214   5.273   1.960 -0.1467  0.0197  0.1976
 2627SOL     OW10279   2.306   1.076   4.750 -0.1243  0.3443  0.4565
 2627SOL    HW210280   2.246   1.136   4.705  0.8721  0.3914 -0.8655
 2627SOL    HW310281   2.272   0.989   4.729  0.6777  0.3391 -0.9795
 2627SOL    MW410282   2.293   1.072   4.741 -0.3467 -0.3631  0.0368
 2628SOL     OW10283   3.443   1.930   5.313  0.0686  0.2700 -0.1893
 2628SOL    HW210284   3.357   1.963   5.338 -0.7000 -1.7469 -0.0090
 2628SOL    HW310285   3.426   1.875   5.236  1.1723 -0.2592 -0.0680
 2628SOL    MW410286   3.430   1.927   5.306 -0.3671 -0.1801 -0.2532
 2629SOL     OW10287   4.605   3.406   4.144 -0.6206  0.0702  0.0707
 2629SOL    HW210288   4.584   3.388   4.052  0.7636  0.7793 -0.4269
 2629SOL    HW310289   4.700   3.423   4.143 -0.4529 -0.6058  1.7524
 2629SOL    MW410290   4.615   3.406   4.132 -0.0908  0.0835 -0.3042
 2630SOL     OW10291   3.791   5.520   0.293  0.6026  0.1905  1.1825
 2630SOL    HW210292   3.746   5.604   0.301  0.3574  0.1146  0.6269
 2630SOL    HW310293   3.839   5.511   0.375  0.2136  0.6278  1.4613
 2630SOL    MW410294   3.792   5.530   0.305 -0.0660  0.3932  0.1954
 2631SOL     OW10295   2.531   5.018   2.090  0.4122 -0.0968  0.2098
 2631SOL    HW210296   2.600   4.972   2.042  1.2055 -0.0652  1.2862
 2631SOL    HW310297   2.573   5.098   2.122  0.0209 -0.2787  1.2405
 2631SOL    MW410298   2.546   5.022   2.088  0.4366 -0.2622 -0.8405
 2632SOL     OW10299   2.977   3.633   5.663  0.5292  0.0217 -0.0714
 2632SOL    HW210300   3.051   3.614   5.606  0.6292 -0.0967  0.0980
 2632SOL    HW310301   2.975   3.729   5.669  0.9062  0.0106  0.2370
 2632SOL    MW410302   2.986   3.643   5.656 -0.2818  0.3031  0.2518
 2633SOL     OW10303   0.343   0.964   0.767 -0.5231 -0.1494  0.1731
 2633SOL    HW210304   0.261   1.008   0.743 -1.7815 -0.7151  3.0254
 2633SOL    HW310305   0.384   1.023   0.830  1.1891 -0.0260 -0.9846
 2633SOL    MW410306   0.337   0.978   0.772  0.3604  0.0358 -0.0580
 2634SOL     OW10307   4.620   2.768   6.213  0.9908  0.0335  0.3003
 2634SOL    HW210308   4.678   2.737   6.282  0.3950 -1.1277  0.3092
 2634SOL    HW310309   4.614   2.694   6.152 -1.3166 -0.2892  0.8499
 2634SOL    MW410310   4.627   2.754   6.214  0.2611  0.6330 -0.3478
 2635SOL     OW10311   3.745   1.928   0.072 -0.4456  0.0911  0.0118
 2635SOL    HW210312   3.712   1.993   0.134 -1.0424 -0.8259  0.6913
 2635SOL    HW310313   3.734   1.968  -0.014 -1.5576  0.5724  0.3603
 2635SOL    MW410314   3.739   1.942   0.069  0.4276 -0.6535 -0.2148
 2636SOL     OW10315   0.478   3.645   1.736  0.0893 -0.0207 -0.2725
 2636SOL    HW210316   0.440   3.561   1.760  0.4998 -0.0010  0.4516
 2636SOL    HW310317   0.416   3.710   1.770 -0.9348 -0.0239 -2.0084
 2636SOL    MW410318   0.465   3.643   1.744 -0.2483 -0.3375 -0.2683
 2637SOL     OW10319   3.522   5.693   4.110 -0.3398  0.4204  0.2729
 2637SOL    HW210320   3.567   5.649   4.182 -0.5183  0.4967  0.4359
 2637SOL    HW310321   3.432   5.660   4.114 -0.4428  0.6979  0.3173
 2637SOL    MW410322   3.516   5.683   4.120  0.2019 -0.3693  0.0388
 2638SOL     OW10323   4.662   4.738   2.093 -0.9042  0.0233 -0.0963
 2638SOL    HW210324   4.711   4.721   2.012 -0.7223  0.7092 -0.1394
 2638SOL    HW310325   4.701   4.818   2.128  0.1736 -1.1622  1.5836
 2638SOL    MW410326   4.674   4.746   2.087  0.3233  0.2343 -0.6067
 2639SOL     OW10327   0.421   5.761   1.988 -0.0552 -0.1237  0.7446
 2639SOL    HW210328   0.441   5.669   1.973 -1.0574 -0.2105 -0.1495
 2639SOL    HW310329   0.333   5.773   1.954  0.1392  1.2230  0.6419
 2639SOL    MW410330   0.412   5.750   1.981 -0.2758 -0.4228 -0.0222
 2640SOL     OW10331   0.861   4.437   0.384 -0.6087  0.2647 -0.6380
 2640SOL    HW210332   0.953   4.443   0.410 -0.9092  0.0123  0.5709
 2640SOL    HW310333   0.864   4.410   0.293  0.5173  0.6687 -0.7461
 2640SOL    MW410334   0.874   4.434   0.376 -0.1469 -0.0350  0.3183
 2641SOL     OW10335   4.280   1.241   1.807  0.0035 -0.0570  0.7837
 2641SOL    HW210336   4.244   1.157   1.780 -0.6018  0.0573  1.2188
 2641SOL    HW310337   4.339   1.266   1.735 -1.0524 -0.0773 -0.1223
 2641SOL    MW410338   4.283   1.233   1.794  0.2292 -0.4229  0.2641
 2642SOL     OW10339   1.617   4.708   0.719  0.0145 -0.2373  0.1199
 2642SOL    HW210340   1.547   4.768   0.694 -1.0100 -1.6485 -0.5966
 2642SOL    HW310341   1.594   4.680   0.807  1.2190  1.3714  0.9988
 2642SOL    MW410342   1.605   4.712   0.727 -0.0702 -0.3658 -0.2885
 2643SOL     OW10343   2.298   3.685   0.720  0.3881 -0.0737 -0.7896
 2643SOL    HW210344   2.376   3.660   0.670  0.1849  1.2530 -1.8385
 2643SOL    HW310345   2.234   3.710   0.653 -0.4723  0.1470  0.0984
 2643SOL    MW410346   2.300   3.685   0.704  0.3821  0.2938  0.2234
 2644SOL     OW10347   3.223   4.047   5.665 -0.3811 -0.4801  0.7085
 2644SOL    HW210348   3.318   4.030   5.670 -0.3198 -0.1457  0.7208
 2644SOL    HW310349   3.216   4.143   5.667 -0.7567 -0.5119  1.3925
 2644SOL    MW410350   3.235   4.058   5.666 -0.5422  0.0806  0.1689
 2645SOL     OW10351   6.048   2.545   5.204 -0.4102 -0.5642  0.2742
 2645SOL    HW210352   5.980   2.499   5.254  0.3499 -0.1184  1.7682
 2645SOL    HW310353   6.130   2.507   5.234  0.1462  0.7590  0.4635
 2645SOL    MW410354   6.050   2.534   5.215  0.2622  0.3626 -0.3369
 2646SOL     OW10355   1.075   2.082   2.401 -0.1840 -0.4076 -0.3218
 2646SOL    HW210356   1.001   2.139   2.379  1.7226  2.4567  0.2069
 2646SOL    HW310357   1.128   2.079   2.321  0.6359  0.1124  0.1807
 2646SOL    MW410358   1.072   2.089   2.388 -0.6373 -0.3512 -0.5094
 2647SOL     OW10359   0.502   4.615   1.438 -0.1623 -0.4026 -0.5347
 2647SOL    HW210360   0.462   4.589   1.521  0.2573 -1.7888 -0.7452
 2647SOL    HW310361   0.548   4.696   1.458 -0.8536 -0.2047  0.3490
 2647SOL    MW410362   0.503   4.622   1.452  0.1320 -0.1926  0.2182
 2648SOL     OW10363   6.365   1.327   1.499  0.0125  0.1868 -0.8436
 2648SOL    HW210364   6.312   1.383   1.443 -2.4362 -0.9997  0.1552
 2648SOL    HW310365   6.423   1.280   1.439 -0.6952  0.8440 -2.0709
 2648SOL    MW410366   6.366   1.328   1.484  0.2171  0.2531 -0.5738
 2649SOL     OW10367   5.754   0.712   1.542  0.0700 -0.2534 -0.3223
 2649SOL    HW210368   5.845   0.741   1.548 -0.1154  0.0806  1.5205
 2649SOL    HW310369   5.753   0.652   1.468  1.4135  1.0310 -1.4331
 2649SOL    MW410370   5.766   0.708   1.533  0.4330  0.0911  0.6185
 2650SOL     OW10371   6.373   0.047   0.644  0.0383  0.1682  0.3556
 2650SOL    HW210372   6.303   0.033   0.708  1.5205 -0.7134  1.8486
 2650SOL    HW310373   6.330   0.095   0.573 -3.1172 -3.6719 -0.7207
 2650SOL    MW410374   6.358   0.052   0.643  0.1995 -0.0885  0.7442
 2651SOL     OW10375   2.223   2.914   6.111  0.4113  0.0674 -0.6438
 2651SOL    HW210376   2.315   2.884   6.113  0.2368 -0.5465 -1.2880
 2651SOL    HW310377   2.187   2.883   6.194  0.1532 -1.8720 -1.4238
 2651SOL    MW410378   2.231   2.906   6.122  0.5141 -0.3181 -0.1143
 2652SOL     OW10379   5.741   3.630   5.950  0.0189  0.0866 -0.3211
 2652SOL    HW210380   5.820   3.585   5.981  1.1749  0.4081 -2.5508
 2652SOL    HW310381   5.712   3.681   6.025  1.7247 -0.3182  0.6892
 2652SOL    MW410382   5.748   3.630   5.964 -0.0399 -0.3270 -0.4095
 2653SOL     OW10383   4.384   3.721   0.492  0.1132  0.3357 -0.2595
 2653SOL    HW210384   4.373   3.674   0.575  1.1843 -0.4068 -0.5216
 2653SOL    HW310385   4.361   3.812   0.513  1.2501  0.3481  1.0922
 2653SOL    MW410386   4.380   3.727   0.506  0.5954 -0.2638  0.1968
 2654SOL     OW10387   3.659   4.928   0.639  0.0782 -0.1308 -0.1502
 2654SOL    HW210388   3.564   4.915   0.642 -0.0497  0.8791  0.6063
 2654SOL    HW310389   3.675   4.977   0.558  0.3211 -2.8184 -1.8549
 2654SOL    MW410390   3.648   4.933   0.629 -0.0046 -0.0899 -0.6509
 2655SOL     OW10391   2.097   1.672   4.545  0.0002  0.2042  0.2500
 2655SOL    HW210392   2.131   1.703   4.629 -3.9592  0.1507  2.1239
 2655SOL    HW310393   2.142   1.589   4.530  0.8630  0.2317  2.3285
 2655SOL    MW410394   2.107   1.665   4.554 -0.1877  0.4338  0.2876
 2656SOL     OW10395   0.756   2.496   3.559  0.2801  0.4843 -0.0749
 2656SOL    HW210396   0.727   2.579   3.598  1.5109  2.0069 -2.1393
 2656SOL    HW310397   0.703   2.429   3.602 -1.8250  2.4700  0.6506
 2656SOL    MW410398   0.745   2.498   3.570 -0.4388 -0.0230  0.0315
 2657SOL     OW10399   1.187   1.914   1.883  0.5761 -0.6944  0.2451
 2657SOL    HW210400   1.185   1.819   1.891  1.2487 -0.8522 -1.2417
 2657SOL    HW310401   1.238   1.931   1.804 -0.0280  0.8900  0.1607
 2657SOL    MW410402   1.194   1.904   1.874 -0.4049  0.7310 -0.0896
 2658SOL     OW10403   1.197   0.232   5.804 -0.5686 -0.9698  0.0076
 2658SOL    HW210404   1.235   0.288   5.872  0.3223 -0.1152 -1.1451
 2658SOL    HW310405   1.122   0.282   5.771 -0.8876 -1.3014  0.2159
 2658SOL    MW410406   1.192   0.246   5.809  0.3132 -0.7598  0.7093
 2659SOL     OW10407   2.072   4.175   5.127  0.0407  0.0752  0.2606
 2659SOL    HW210408   2.122   4.094   5.124 -0.4972 -0.2546 -2.0507
 2659SOL    HW310409   2.131   4.241   5.090 -0.5206  0.0717 -0.6987
 2659SOL    MW410410   2.086   4.173   5.122  0.6424 -0.1829  0.1118
 2660SOL     OW10411   1.233   3.610   6.154  0.2784 -0.5212  0.0978
 2660SOL    HW210412   1.181   3.534   6.178 -2.4518  0.2008 -2.7770
 2660SOL    HW310413   1.296   3.577   6.090 -1.5669 -0.3513 -1.9211
 2660SOL    MW410414   1.234   3.596   6.149  0.0207  0.2828  0.3495
 2661SOL     OW10415   4.567   5.025   0.710  0.4122  0.1923 -0.6617
 2661SOL    HW210416   4.580   5.036   0.616  1.3149  0.7176 -0.4905
 2661SOL    HW310417   4.534   4.936   0.719  1.2590 -0.2195 -1.4032
 2661SOL    MW410418   4.564   5.014   0.699 -0.0053  0.6263  0.5469
 2662SOL     OW10419   0.882   0.332   3.814  0.0099 -0.0091 -0.2654
 2662SOL    HW210420   0.850   0.245   3.793  0.2268  0.1779 -1.4436
 2662SOL    HW310421   0.885   0.378   3.730  0.8174  0.8258  0.1956
 2662SOL    MW410422   0.878   0.327   3.800 -0.0228  0.0692  0.1151
 2663SOL     OW10423   1.016   5.927   6.251  0.1423  0.5369  0.0520
 2663SOL    HW210424   1.094   5.943   6.198  0.6430 -0.7556  0.3536
 2663SOL    HW310425   1.003   5.832   6.246 -1.4864  0.7397 -0.0896
 2663SOL    MW410426   1.024   5.916   6.243  0.1079  0.7636  0.0208
 2664SOL     OW10427   2.736   3.118   5.195 -0.0956 -0.3918  0.3477
 2664SOL    HW210428   2.825   3.089   5.213  0.2527 -0.1593 -0.9052
 2664SOL    HW310429   2.736   3.211   5.217 -0.0374 -0.4017  0.3901
 2664SOL    MW410430   2.748   3.126   5.200  0.4358 -0.3115  0.2053
 2665SOL     OW10431   2.729   0.096   3.133  0.5425  0.8288  0.1496
 2665SOL    HW210432   2.775   0.087   3.050 -2.0539 -0.7872 -1.2371
 2665SOL    HW310433   2.753   0.017   3.182 -1.4860 -0.6611 -1.0749
 2665SOL    MW410434   2.739   0.084   3.129 -0.5438  0.0809 -0.5600
 2666SOL     OW10435   0.494   4.190   4.687  0.2336  0.8984 -0.9656
 2666SOL    HW210436   0.438   4.118   4.713 -0.2376  1.7803  0.5964
 2666SOL    HW310437   0.526   4.166   4.600  0.4153 -1.3589 -0.3365
 2666SOL    MW410438   0.491   4.177   4.679  0.1574 -0.6851  0.0070
 2667SOL     OW10439   2.684   0.876   5.859 -0.0957  0.2931  0.3761
 2667SOL    HW210440   2.733   0.903   5.782  0.2191  0.0594  0.4912
 2667SOL    HW310441   2.744   0.818   5.907 -1.2519 -1.8618 -0.6485
 2667SOL    MW410442   2.698   0.872   5.856 -0.3357 -0.3524  0.2485
 2668SOL     OW10443   5.529   1.157   3.332  0.3752 -0.0714  0.2099
 2668SOL    HW210444   5.550   1.183   3.243  0.5018  0.1884  0.3134
 2668SOL    HW310445   5.609   1.118   3.366 -0.1015 -1.4960 -0.2641
 2668SOL    MW410446   5.542   1.156   3.325 -0.4153  0.8316 -0.6356
 2669SOL     OW10447   4.051   0.026   3.524  0.0125 -0.4048 -0.2322
 2669SOL    HW210448   3.971  -0.023   3.543 -1.5789  1.1130 -2.5089
 2669SOL    HW310449   4.023   0.118   3.523  1.5785  0.1048 -1.9991
 2669SOL    MW410450   4.037   0.032   3.527 -0.2955 -0.2764  0.9848
 2670SOL     OW10451   2.555   5.522   2.934 -0.4183 -0.0534  0.4454
 2670SOL    HW210452   2.609   5.592   2.898  0.5588 -0.6002  0.8257
 2670SOL    HW310453   2.467   5.540   2.900 -0.4055  1.9133  1.3395
 2670SOL    MW410454   2.551   5.534   2.924  0.6967 -0.0013 -0.6836
 2671SOL     OW10455   4.637   1.010   3.663 -0.4941 -0.7410  0.2527
 2671SOL    HW210456   4.608   1.100   3.680 -2.3566 -1.2835  0.1493
 2671SOL    HW310457   4.683   1.016   3.579  0.7710  0.3589  0.9818
 2671SOL    MW410458   4.639   1.023   3.654  0.1723 -0.1420 -0.0940
 2672SOL     OW10459   2.177   1.867   1.038  0.2130 -0.0976 -0.0222
 2672SOL    HW210460   2.123   1.892   1.113 -1.1722 -0.6336 -0.8066
 2672SOL    HW310461   2.152   1.777   1.019  0.8393 -0.1091 -0.8746
 2672SOL    MW410462   2.167   1.859   1.045 -0.4923 -0.1094 -0.5527
 2673SOL     OW10463   2.234   4.084   5.855 -0.2950  1.0951  0.5255
 2673SOL    HW210464   2.167   4.017   5.844  2.5567 -1.8606 -0.7264
 2673SOL    HW310465   2.276   4.063   5.938  1.8926 -0.1276 -0.7663
 2673SOL    MW410466   2.231   4.073   5.864  0.1761 -0.1349  0.0649
 2674SOL     OW10467   4.551   5.214   4.329  0.1416 -0.2865 -0.0713
 2674SOL    HW210468   4.647   5.216   4.339 -0.0002  0.8409  1.3777
 2674SOL    HW310469   4.532   5.293   4.277 -0.3055  2.3043  3.6413
 2674SOL    MW410470   4.561   5.225   4.323  0.1039 -0.1515 -0.2334
 2675SOL     OW10471   3.966   5.333   4.677 -0.2062 -0.3567 -0.1513
 2675SOL    HW210472   3.890   5.353   4.623 -0.1104  1.1163  0.2144
 2675SOL    HW310473   3.961   5.238   4.692 -1.1688 -0.5096 -1.2975
 2675SOL    MW410474   3.956   5.323   4.672 -0.1825  0.6432 -0.2688
 2676SOL     OW10475   4.812   2.448   3.631 -0.1724 -0.7888  0.4479
 2676SOL    HW210476   4.807   2.355   3.612 -2.4803 -0.8143  0.9733
 2676SOL    HW310477   4.838   2.452   3.723 -0.4029 -0.9206  0.5190
 2676SOL    MW410478   4.815   2.436   3.641 -0.1831  0.2286  0.4241
 2677SOL     OW10479   0.912   2.006   4.821  0.4854  0.2857  0.0313
 2677SOL    HW210480   0.923   2.098   4.797  0.9951 -0.0488 -1.0561
 2677SOL    HW310481   0.998   1.966   4.807 -0.1504 -0.7195 -1.1888
 2677SOL    MW410482   0.925   2.013   4.816  0.3503  0.3196  0.1678
 2678SOL     OW10483   2.688   4.682   4.687 -0.0939 -0.0608 -0.2583
 2678SOL    HW210484   2.734   4.759   4.722 -0.7241  0.2342 -0.0630
 2678SOL    HW310485   2.678   4.624   4.763 -0.9810  0.3438 -0.0486
 2678SOL    MW410486   2.693   4.685   4.702  0.0307  0.0096 -0.2664
 2679SOL     OW10487   2.710   5.039   3.824 -0.1250  0.2016 -0.1503
 2679SOL    HW210488   2.706   5.108   3.891  1.2897 -0.4890  0.6919
 2679SOL    HW310489   2.741   5.084   3.746  2.2811  0.3152  0.7889
 2679SOL    MW410490   2.714   5.054   3.823  0.2202  0.4574  0.3898
 2680SOL     OW10491   1.412   4.750   4.513 -0.5983 -0.0152  0.1513
 2680SOL    HW210492   1.354   4.679   4.486  1.2398 -1.2075 -0.9231
 2680SOL    HW310493   1.362   4.830   4.498 -1.4854 -0.9163 -2.0808
 2680SOL    MW410494   1.398   4.751   4.508  0.6213  0.8914  0.2167
 2681SOL     OW10495   2.223   4.025   5.425  0.2132  0.1729 -0.9157
 2681SOL    HW210496   2.213   3.933   5.450 -0.9936  0.2226 -1.1670
 2681SOL    HW310497   2.134   4.061   5.430  0.5601  1.1400 -1.5388
 2681SOL    MW410498   2.210   4.018   5.429  0.3079  0.2712 -0.1297
 2682SOL     OW10499   2.297   5.246   5.708  0.5574  0.4203 -0.3389
 2682SOL    HW210500   2.278   5.327   5.756 -0.9389  1.4004 -2.4290
 2682SOL    HW310501   2.353   5.274   5.636  1.9626 -0.8527  0.2130
 2682SOL    MW410502   2.302   5.261   5.705  0.0647  0.4048  0.0674
 2683SOL     OW10503   4.814   3.620   3.940 -0.3264  0.1062 -0.2427
 2683SOL    HW210504   4.721   3.632   3.923 -0.1500 -0.5839 -1.8226
 2683SOL    HW310505   4.835   3.687   4.006 -1.9791  0.0815  0.3493
 2683SOL    MW410506   4.805   3.631   3.946  0.4567  0.3385  0.1572
 2684SOL     OW10507   4.235   5.962   0.699 -0.5686  0.0586 -0.0999
 2684SOL    HW210508   4.271   6.009   0.624 -1.6707  0.0980 -0.6227
 2684SOL    HW310509   4.196   5.883   0.662 -2.4205  0.7764  0.1872
 2684SOL    MW410510   4.235   5.958   0.685 -0.1203  0.2400  0.0300
 2685SOL     OW10511   5.049   2.990   3.818 -0.2150 -0.1075  0.1113
 2685SOL    HW210512   5.071   3.076   3.782  0.2800  0.0620  0.8238
 2685SOL    HW310513   5.105   2.980   3.894  0.1349 -1.3075 -0.2838
 2685SOL    MW410514   5.059   3.000   3.823  0.5439  0.1539 -0.1006
 2686SOL     OW10515   5.469   3.685   1.299  0.3449 -0.5915 -0.2506
 2686SOL    HW210516   5.449   3.755   1.361  0.9941 -0.0401 -0.6613
 2686SOL    HW310517   5.456   3.725   1.213 -1.6581 -1.6574 -0.5143
 2686SOL    MW410518   5.464   3.700   1.296  0.6875  0.2616 -0.0795
 2687SOL     OW10519   4.846   4.714   4.865  0.6938  0.6116  0.0869
 2687SOL    HW210520   4.806   4.784   4.917 -1.7289 -0.8058  0.2969
 2687SOL    HW310521   4.846   4.638   4.923  1.4990 -0.0628 -0.7614
 2687SOL    MW410522   4.841   4.713   4.879 -0.1666  0.4972  0.5761
 2688SOL     OW10523   4.354   4.791   6.360 -0.3199 -0.2341 -0.1005
 2688SOL    HW210524   4.278   4.747   6.397 -1.2117  0.6483 -0.8009
 2688SOL    HW310525   4.368   4.750   6.275  0.7504 -1.1946  0.5065
 2688SOL    MW410526   4.346   4.780   6.354  0.5369  0.0864  0.1549
 2689SOL     OW10527   5.497   0.155   3.901 -0.2412 -0.3371 -0.6788
 2689SOL    HW210528   5.444   0.187   3.828 -2.1550  0.4265  0.9739
 2689SOL    HW310529   5.582   0.137   3.861 -1.1548  0.1747 -3.0688
 2689SOL    MW410530   5.501   0.157   3.886 -0.1552 -0.1253  0.4822
 2690SOL     OW10531   4.409   3.024   1.572 -0.3156 -0.0610 -0.1535
 2690SOL    HW210532   4.356   3.094   1.533 -1.2454 -1.7315 -2.0681
 2690SOL    HW310533   4.347   2.974   1.626  0.0021 -0.3046 -0.0122
 2690SOL    MW410534   4.393   3.027   1.574 -0.2180  0.2412  0.3753
 2691SOL     OW10535   4.944   4.399   2.945 -0.3068  0.0604 -0.4032
 2691SOL    HW210536   5.014   4.460   2.920  0.6557 -1.2421 -0.9645
 2691SOL    HW310537   4.879   4.408   2.875 -0.4652  0.8737 -0.1661
 2691SOL    MW410538   4.945   4.408   2.932  0.0599  0.0349  0.2825
 2692SOL     OW10539   4.863   1.067   5.621 -0.4071 -0.5290  0.1410
 2692SOL    HW210540   4.925   1.006   5.661 -0.3219 -0.5507 -0.0253
 2692SOL    HW310541   4.895   1.154   5.649 -0.5463 -0.5598  0.4026
 2692SOL    MW410542   4.876   1.071   5.630 -0.3002  0.4789 -0.5124
 2693SOL     OW10543   0.793   0.153   6.394  0.2953  0.2604 -0.1973
 2693SOL    HW210544   0.744   0.216   6.341 -2.1690 -2.2672 -1.1791
 2693SOL    HW310545   0.726   0.105   6.442  2.2447  0.0193  2.5085
 2693SOL    MW410546   0.778   0.155   6.393  0.5272  0.1450  0.1912
 2694SOL     OW10547   1.335   6.142   4.500  0.0562  0.4269  0.1792
 2694SOL    HW210548   1.370   6.149   4.411  1.3044  1.7677  0.7464
 2694SOL    HW310549   1.245   6.112   4.487  1.0631 -2.2797 -1.3567
 2694SOL    MW410550   1.328   6.139   4.486 -0.6391 -0.0613  0.1411
 2695SOL     OW10551   0.564   4.417   5.082  0.5142 -0.5738  0.1751
 2695SOL    HW210552   0.582   4.479   5.011  0.9675  1.6409  2.0778
 2695SOL    HW310553   0.469   4.407   5.082  0.0991  2.2314  1.3181
 2695SOL    MW410554   0.554   4.424   5.073 -0.1027  0.2114 -0.2508
 2696SOL     OW10555   2.466   1.747   5.513  0.3677 -0.1257 -0.4801
 2696SOL    HW210556   2.465   1.774   5.421 -2.2063  1.1831 -0.1539
 2696SOL    HW310557   2.558   1.756   5.539  0.9216  0.8277 -2.5595
 2696SOL    MW410558   2.478   1.752   5.505  0.1259  0.2679 -0.2838
 2697SOL     OW10559   0.827   2.459   1.776 -0.0873 -0.3339 -0.3703
 2697SOL    HW210560   0.891   2.486   1.843  1.2651  0.2234 -1.8258
 2697SOL    HW310561   0.755   2.520   1.786  1.4225  1.7183 -1.3352
 2697SOL    MW410562   0.826   2.470   1.786 -0.3794  0.1697  0.2814
 2698SOL     OW10563   2.403   3.502   4.872  0.0705  0.1763  0.0000
 2698SOL    HW210564   2.389   3.409   4.858  0.4286  0.1060  0.1215
 2698SOL    HW310565   2.342   3.525   4.943 -0.7027  0.2359 -0.6643
 2698SOL    MW410566   2.393   3.493   4.880 -0.5296 -0.4919 -1.0957
 2699SOL     OW10567   2.764   4.201   4.179 -0.7082  0.5350 -0.2806
 2699SOL    HW210568   2.814   4.201   4.261 -0.5698  0.1169 -0.3608
 2699SOL    HW310569   2.673   4.197   4.207 -0.6375 -0.3894 -0.1496
 2699SOL    MW410570   2.759   4.200   4.194 -0.3991  0.6202 -0.1750
 2700SOL     OW10571   2.979   1.245   3.135 -0.4874 -0.4661  0.3866
 2700SOL    HW210572   2.932   1.295   3.201 -0.9345  0.8037 -0.8405
 2700SOL    HW310573   2.917   1.177   3.108 -0.2699 -1.0465  1.3005
 2700SOL    MW410574   2.965   1.243   3.140  0.2386  0.1899 -0.0074
 2701SOL     OW10575   5.458   5.815   1.803  0.0970 -0.8331 -0.0875
 2701SOL    HW210576   5.454   5.841   1.895 -0.8308 -0.3104 -0.2656
 2701SOL    HW310577   5.428   5.892   1.754  0.7894 -1.0304 -0.8434
 2701SOL    MW410578   5.453   5.829   1.808  0.4442 -0.5117  0.0545
 2702SOL     OW10579   2.691   5.522   3.419 -0.0744  0.2398  0.3416
 2702SOL    HW210580   2.730   5.446   3.377  1.3248 -0.7416  3.1663
 2702SOL    HW310581   2.621   5.486   3.474 -0.7609  1.2715  0.1841
 2702SOL    MW410582   2.687   5.507   3.421  0.1067 -0.0931 -1.1957
 2703SOL     OW10583   0.689   2.085   4.982  0.6168 -0.3536 -0.0795
 2703SOL    HW210584   0.732   2.067   4.898 -1.2269 -0.2129 -1.0890
 2703SOL    HW310585   0.761   2.086   5.045  1.9458 -1.3466 -1.5028
 2703SOL    MW410586   0.704   2.083   4.979  0.0255 -0.1015 -0.1197
 2704SOL     OW10587   3.176   2.495   4.958 -0.3861 -0.1516  0.1491
 2704SOL    HW210588   3.236   2.539   5.018 -1.2421  0.1723  0.7840
 2704SOL    HW310589   3.206   2.404   4.957  0.8280  0.2283 -0.4586
 2704SOL    MW410590   3.188   2.489   4.966  0.6913  0.0216  0.3350
 2705SOL     OW10591   5.150   4.867   5.939  0.2763 -0.3324  0.1357
 2705SOL    HW210592   5.089   4.928   5.982 -0.4585  0.7657 -2.2979
 2705SOL    HW310593   5.215   4.924   5.898  0.8054 -1.3139 -0.4127
 2705SOL    MW410594   5.150   4.883   5.939  0.2693  0.4284 -0.1310
 2706SOL     OW10595   0.204   4.837   2.849 -0.0577 -0.7373  0.1926
 2706SOL    HW210596   0.235   4.928   2.852  1.0374 -1.0446 -0.9526
 2706SOL    HW310597   0.133   4.834   2.913 -0.0530  0.9032  0.3233
 2706SOL    MW410598   0.199   4.849   2.857  0.6021 -0.1488  0.0020
 2707SOL     OW10599   0.233   5.183   3.693 -0.0339  0.4268 -0.2827
 2707SOL    HW210600   0.150   5.224   3.669 -0.3429  0.4954  0.8167
 2707SOL    HW310601   0.217   5.089   3.685  0.1489  0.4693 -1.1884
 2707SOL    MW410602   0.220   5.176   3.689  0.1787  0.1017 -0.0893
 2708SOL     OW10603   1.855   3.436   0.945  0.2615 -0.4349 -0.4389
 2708SOL    HW210604   1.859   3.468   1.035  1.8129  0.0036 -0.6474
 2708SOL    HW310605   1.934   3.384   0.934 -0.6240 -1.7037 -1.1242
 2708SOL    MW410606   1.866   3.433   0.956 -0.7290  0.8242 -0.6178
 2709SOL     OW10607   4.685   5.010   2.480 -0.0492  0.2140  0.2085
 2709SOL    HW210608   4.638   5.094   2.478 -0.0757  0.1999  0.2542
 2709SOL    HW310609   4.624   4.949   2.520  0.1342  0.2739  0.5887
 2709SOL    MW410610   4.671   5.013   2.485  0.0959 -0.6406 -0.5427
 2710SOL     OW10611   4.740   2.877   2.240  0.0017  0.1744 -0.0070
 2710SOL    HW210612   4.670   2.851   2.180 -0.1798  0.8745 -0.1172
 2710SOL    HW310613   4.715   2.839   2.324  0.4153 -1.0730 -0.4297
 2710SOL    MW410614   4.728   2.869   2.243  0.0530  0.4954 -0.0566
 2711SOL     OW10615   1.574   6.403   2.115 -0.2193  0.5833 -0.1499
 2711SOL    HW210616   1.594   6.496   2.127 -2.3851  1.3170 -1.5941
 2711SOL    HW310617   1.592   6.386   2.022  3.3194 -1.3947  0.7244
 2711SOL    MW410618   1.579   6.413   2.104 -0.4690  0.0110 -0.7237
 2712SOL     OW10619   3.748   1.177   2.534  0.0578  0.1685  0.0501
 2712SOL    HW210620   3.774   1.196   2.444  1.5967  0.6344  0.5491
 2712SOL    HW310621   3.708   1.259   2.565 -1.0857 -0.2057 -0.3938
 2712SOL    MW410622   3.746   1.191   2.526  0.1723  0.0168 -0.3462
 2713SOL     OW10623   4.008   3.708   0.052 -0.0046 -0.1359  0.1304
 2713SOL    HW210624   3.921   3.669   0.046 -0.3345  0.6300 -0.2270
 2713SOL    HW310625   4.036   3.692   0.142 -1.0529  0.7137  0.6252
 2713SOL    MW410626   4.000   3.701   0.063  0.4082 -0.3145  0.9096
 2714SOL     OW10627   3.796   5.059   3.818 -0.1855  0.5608  0.0252
 2714SOL    HW210628   3.805   5.124   3.888  1.5545  0.2209  0.1597
 2714SOL    HW310629   3.803   4.975   3.863  1.0770  0.3372 -0.5463
 2714SOL    MW410630   3.798   5.056   3.833 -0.1770  0.1916  0.7301
 2715SOL     OW10631   0.577   1.687   5.900  0.2014 -0.4898 -0.1483
 2715SOL    HW210632   0.653   1.629   5.889 -0.9933 -2.3407  0.7783
 2715SOL    HW310633   0.551   1.675   5.991  0.0919  1.8411  0.1905
 2715SOL    MW410634   0.584   1.677   5.910  0.7074  0.1673  0.1484
 2716SOL     OW10635   3.891   2.823   6.339 -0.1506 -0.4263  0.1127
 2716SOL    HW210636   3.871   2.915   6.357 -0.6639 -0.2834 -1.0811
 2716SOL    HW310637   3.916   2.786   6.424 -2.0180  0.2775  1.0172
 2716SOL    MW410638   3.892   2.830   6.352  0.3249 -0.2783  0.0845
 2717SOL     OW10639   6.201   4.245   1.224 -0.2515 -0.4934  0.0934
 2717SOL    HW210640   6.160   4.190   1.292 -0.3986 -1.2479 -0.5813
 2717SOL    HW310641   6.211   4.330   1.265  0.5099 -1.1641  1.3789
 2717SOL    MW410642   6.197   4.249   1.239  0.3715  0.3409  0.0708
 2718SOL     OW10643   4.467   1.939   2.214  0.2918  0.0288  0.3957
 2718SOL    HW210644   4.559   1.915   2.204  0.1134 -0.9981  1.0794
 2718SOL    HW310645   4.419   1.862   2.182 -0.3313  0.6434 -0.1684
 2718SOL    MW410646   4.472   1.925   2.208 -0.0857  0.0960 -0.2467
 2719SOL     OW10647   1.137   4.081   3.470 -0.1413  0.6077 -0.2168
 2719SOL    HW210648   1.062   4.064   3.413  0.4135 -2.6116 -0.1723
 2719SOL    HW310649   1.113   4.041   3.554  1.7003 -0.9374 -0.3382
 2719SOL    MW410650   1.124   4.073   3.474 -0.1674 -0.3912 -0.4296
 2720SOL     OW10651   2.288   2.158   2.951  0.7819 -0.0073 -0.6361
 2720SOL    HW210652   2.274   2.218   2.878  0.6246  0.4392 -0.2406
 2720SOL    HW310653   2.374   2.119   2.933 -0.1505 -1.4829 -2.1656
 2720SOL    MW410654   2.298   2.161   2.939 -0.7383 -0.1211 -0.6256
 2721SOL     OW10655   0.555   1.554   5.408  0.2740  0.4495  0.4360
 2721SOL    HW210656   0.587   1.500   5.481  0.3530  0.0134  0.0817
 2721SOL    HW310657   0.461   1.562   5.424 -0.6203 -3.2473 -1.6267
 2721SOL    MW410658   0.547   1.548   5.420 -0.2322 -0.7668 -0.0038
 2722SOL     OW10659   1.186   0.772   1.781  0.0759  0.6311 -0.3727
 2722SOL    HW210660   1.188   0.732   1.868  0.7191  1.1186 -0.1613
 2722SOL    HW310661   1.121   0.720   1.733  1.2224 -0.9997 -0.2601
 2722SOL    MW410662   1.177   0.760   1.786 -0.1409 -1.0353 -0.4695
 2723SOL     OW10663   0.451   6.138   3.513  0.3295  0.3688  0.5044
 2723SOL    HW210664   0.439   6.093   3.597 -0.3241 -0.6247 -0.0885
 2723SOL    HW310665   0.438   6.069   3.448  1.4969  0.9814 -0.4048
 2723SOL    MW410666   0.448   6.123   3.515  0.6192 -0.0002  0.1378
 2724SOL     OW10667   0.316   4.414   4.289  0.4148 -0.2095  0.1041
 2724SOL    HW210668   0.411   4.403   4.290  0.4465 -0.1353  2.2512
 2724SOL    HW310669   0.296   4.459   4.371 -1.3258  1.3617 -1.0936
 2724SOL    MW410670   0.326   4.418   4.300  0.0898  0.6473  0.1555
 2725SOL     OW10671   3.116   1.357   3.451  0.2387 -0.2416 -1.0071
 2725SOL    HW210672   3.060   1.301   3.504  1.3989 -0.4383  0.0587
 2725SOL    HW310673   3.169   1.296   3.400  0.5911 -0.1013 -0.8155
 2725SOL    MW410674   3.116   1.342   3.451  0.9954 -0.5746 -0.5587
 2726SOL     OW10675   4.441   5.663   5.941  0.0031 -0.3347 -0.0867
 2726SOL    HW210676   4.532   5.634   5.955 -0.5745 -1.3166  2.2029
 2726SOL    HW310677   4.436   5.746   5.989  0.5688  1.7174 -3.2748
 2726SOL    MW410678   4.453   5.670   5.950 -0.0815 -0.2101 -0.2679
 2727SOL     OW10679   4.767   1.757   2.871 -0.0722 -1.0269 -0.6047
 2727SOL    HW210680   4.728   1.729   2.955 -0.1736 -0.7606 -0.5616
 2727SOL    HW310681   4.804   1.843   2.890  0.6018 -1.3053 -0.6298
 2727SOL    MW410682   4.766   1.765   2.885  0.4147 -0.2218  0.4136
 2728SOL     OW10683   0.551   4.417   5.943  0.0041  0.1669  0.0168
 2728SOL    HW210684   0.612   4.491   5.937  1.4077 -0.9769 -0.5669
 2728SOL    HW310685   0.555   4.376   5.857 -2.4331  0.6271 -0.3860
 2728SOL    MW410686   0.560   4.421   5.931  0.5056 -0.0274 -0.7300
 2729SOL     OW10687   3.046   6.076   2.348  0.0172 -0.3004  0.1398
 2729SOL    HW210688   2.954   6.078   2.372  0.3016 -1.8119  1.5082
 2729SOL    HW310689   3.053   6.135   2.273 -1.4702  2.2767  1.8930
 2729SOL    MW410690   3.035   6.084   2.341 -0.7286  0.0600  0.1234
 2730SOL     OW10691   2.942   5.521   1.279 -0.3735  0.0845  0.2766
 2730SOL    HW210692   3.001   5.566   1.341 -0.4321  2.8806 -1.4813
 2730SOL    HW310693   3.001   5.482   1.215 -0.3699 -0.5983  0.6898
 2730SOL    MW410694   2.958   5.522   1.279  0.1970 -0.3007 -0.5280
 2731SOL     OW10695   3.517   4.259   3.800 -0.2058 -0.2936  0.0813
 2731SOL    HW210696   3.476   4.234   3.717 -0.6109 -2.2968  0.8217
 2731SOL    HW310697   3.582   4.191   3.815  1.8933  1.6114  0.0515
 2731SOL    MW410698   3.520   4.246   3.791 -0.3351  0.0214  0.8734
 2732SOL     OW10699   3.149   0.394   0.086 -0.0458 -0.4262  0.1392
 2732SOL    HW210700   3.197   0.329   0.036 -0.4434  0.6646 -1.7518
 2732SOL    HW310701   3.189   0.478   0.061  0.0323  0.1542  2.0077
 2732SOL    MW410702   3.160   0.397   0.076 -0.6568  0.2321 -0.4811
 2733SOL     OW10703   4.787   3.589   2.083 -0.2639  0.2078  0.0533
 2733SOL    HW210704   4.858   3.538   2.120 -1.8386 -0.1016  2.8820
 2733SOL    HW310705   4.793   3.674   2.125 -1.1004  0.4423 -0.2634
 2733SOL    MW410706   4.797   3.594   2.093  0.6574  0.5660 -0.7358
 2734SOL     OW10707   2.781   2.103   1.355  0.3942  0.2261 -0.2714
 2734SOL    HW210708   2.761   2.182   1.304 -0.1403  0.9844  1.0577
 2734SOL    HW310709   2.861   2.068   1.315  0.1267  0.9194 -1.4627
 2734SOL    MW410710   2.789   2.109   1.343  0.1979 -0.4213  0.3890
 2735SOL     OW10711   4.104   4.104   1.226 -0.6310 -0.5496  0.3083
 2735SOL    HW210712   4.139   4.040   1.288  0.4120 -0.0011  0.2936
 2735SOL    HW310713   4.148   4.186   1.248 -1.4127  0.0072 -0.1467
 2735SOL    MW410714   4.114   4.106   1.237 -0.5570  0.0611 -0.9331
 2736SOL     OW10715   4.109   5.087   3.455  0.5706  0.1680  0.3258
 2736SOL    HW210716   4.056   5.144   3.399 -0.2261  1.0852  1.9425
 2736SOL    HW310717   4.046   5.025   3.493  1.0940 -0.4242  0.2525
 2736SOL    MW410718   4.094   5.086   3.453  0.6202  0.2093  0.2699
 2737SOL     OW10719   6.221   4.487   6.074  0.2767 -0.3254 -0.5267
 2737SOL    HW210720   6.203   4.567   6.123 -0.0565 -1.0213  0.5102
 2737SOL    HW310721   6.196   4.508   5.984 -2.0974  0.0067  0.1331
 2737SOL    MW410722   6.215   4.500   6.069 -0.1373 -0.5741  0.8254
 2738SOL     OW10723   4.840   3.363   1.048 -0.1042 -0.2466  0.3985
 2738SOL    HW210724   4.895   3.289   1.021 -0.3997 -0.5576  0.6324
 2738SOL    HW310725   4.761   3.354   0.994  0.2683  0.4852 -0.2943
 2738SOL    MW410726   4.837   3.352   1.037 -0.1404 -0.0560 -0.2427
 2739SOL     OW10727   2.245   2.131   5.690  0.1602 -0.1346  0.4618
 2739SOL    HW210728   2.340   2.144   5.693 -0.1713  3.5749  0.2172
 2739SOL    HW310729   2.223   2.136   5.597 -0.2878 -1.0904  0.5077
 2739SOL    MW410730   2.255   2.134   5.678 -0.0096 -0.8546 -0.0615
 2740SOL     OW10731   0.900   2.441   1.498  0.4378  0.1484  0.2403
 2740SOL    HW210732   0.843   2.425   1.422  0.5098 -0.9314  0.3883
 2740SOL    HW310733   0.851   2.404   1.572  1.0703 -0.2795  0.4569
 2740SOL    MW410734   0.886   2.434   1.498  0.2186  0.5859 -0.1193
 2741SOL     OW10735   0.649   4.912   0.811  0.1213  0.1754 -0.0830
 2741SOL    HW210736   0.602   4.829   0.807 -0.0745  0.2859 -0.1146
 2741SOL    HW310737   0.671   4.924   0.903  1.8868 -0.8662 -0.3194
 2741SOL    MW410738   0.646   4.903   0.822  0.0613  0.8432  0.0508
 2742SOL     OW10739   1.746   4.367   6.084 -0.3481 -0.3951 -0.4224
 2742SOL    HW210740   1.699   4.330   6.010 -0.9121 -1.0712  0.2612
 2742SOL    HW310741   1.806   4.431   6.045 -1.5834  0.2427 -1.3383
 2742SOL    MW410742   1.748   4.370   6.069 -0.2080 -0.1302  0.4047
 2743SOL     OW10743   1.882   0.447   5.794  0.0860  0.1816  0.8721
 2743SOL    HW210744   1.857   0.450   5.886 -0.9586 -3.6267  0.8874
 2743SOL    HW310745   1.812   0.494   5.749 -0.5602  0.2087  1.8703
 2743SOL    MW410746   1.869   0.454   5.800 -0.0330  0.2565  0.3046
 2744SOL     OW10747   6.213   6.034   2.891  0.3231  0.2228 -0.1499
 2744SOL    HW210748   6.172   6.119   2.903 -0.6583 -0.3343  0.6597
 2744SOL    HW310749   6.233   6.030   2.797  0.6321  1.4390 -0.1509
 2744SOL    MW410750   6.210   6.044   2.880  0.3001  0.5564 -0.6262
 2745SOL     OW10751   3.947   3.396   2.618 -1.4025  0.2295 -0.5682
 2745SOL    HW210752   3.979   3.374   2.531  2.8678 -0.4500  0.8938
 2745SOL    HW310753   3.920   3.311   2.655 -1.0257  0.1386 -0.4962
 2745SOL    MW410754   3.948   3.382   2.612 -0.3617  0.2176  0.6406
 2746SOL     OW10755   1.277   6.117   5.796 -0.3061  0.3821 -0.0534
 2746SOL    HW210756   1.316   6.038   5.835 -1.4100 -0.9146 -1.4277
 2746SOL    HW310757   1.308   6.189   5.851 -1.8477 -1.2881  3.2976
 2746SOL    MW410758   1.286   6.116   5.809  0.2926 -0.5715 -0.1595
 2747SOL     OW10759   3.334   1.313   4.191  0.3523 -0.4358  0.3265
 2747SOL    HW210760   3.413   1.357   4.224  0.6684 -0.2643 -0.6515
 2747SOL    HW310761   3.346   1.307   4.097  0.1025 -2.2148  0.3606
 2747SOL    MW410762   3.346   1.318   4.183  0.2257 -0.6205  0.2001
 2748SOL     OW10763   2.477   6.157   5.386  0.1459 -0.0215  0.1827
 2748SOL    HW210764   2.423   6.206   5.324  1.5081  0.5460 -0.6052
 2748SOL    HW310765   2.428   6.161   5.468 -0.6872  1.0520 -0.3350
 2748SOL    MW410766   2.464   6.164   5.389  0.4610 -0.4648  0.4725
 2749SOL     OW10767   5.796   4.589   5.318 -0.5311 -0.5366 -0.2859
 2749SOL    HW210768   5.792   4.494   5.324  1.4496 -0.5803  2.1240
 2749SOL    HW310769   5.862   4.607   5.251 -0.1530 -0.8956 -0.0115
 2749SOL    MW410770   5.804   4.579   5.310  0.0515 -0.3086 -0.5512
 2750SOL     OW10771   2.115   1.276   3.064  0.2835 -0.3432  0.2433
 2750SOL    HW210772   2.031   1.234   3.045  0.0231 -0.3973  1.4631
 2750SOL    HW310773   2.128   1.264   3.158  2.5563 -1.9612 -0.2001
 2750SOL    MW410774   2.105   1.269   3.074 -0.2893 -0.2409  0.5683
 2751SOL     OW10775   1.492   1.427   5.345  0.2733 -0.4257 -0.4467
 2751SOL    HW210776   1.473   1.507   5.393 -1.7773 -1.4406  0.5797
 2751SOL    HW310777   1.475   1.449   5.253  0.4338  0.4919 -0.2627
 2751SOL    MW410778   1.487   1.440   5.339  0.7102 -0.0420 -0.4500
 2752SOL     OW10779   5.680   5.651   1.832 -0.0122  0.5581 -0.1251
 2752SOL    HW210780   5.666   5.583   1.766 -0.4752 -0.4422  0.9736
 2752SOL    HW310781   5.594   5.694   1.839 -0.8744 -1.3159  1.9366
 2752SOL    MW410782   5.667   5.648   1.824  0.1445 -0.1031  0.7758
 2753SOL     OW10783   1.705   1.950   0.451 -0.5674  0.6117 -0.1740
 2753SOL    HW210784   1.667   1.867   0.481 -0.7694  1.0179  0.7308
 2753SOL    HW310785   1.730   1.933   0.360 -1.3287 -0.2029 -0.2505
 2753SOL    MW410786   1.703   1.937   0.443 -0.0800  1.0607 -0.4745
 2754SOL     OW10787   4.050   4.694   3.154  0.3110  0.0487  0.2733
 2754SOL    HW210788   4.075   4.677   3.245 -0.7802 -2.4010  0.1857
 2754SOL    HW310789   4.058   4.608   3.110  1.9433  1.3482 -2.2727
 2754SOL    MW410790   4.054   4.680   3.160  0.2643  0.1368 -0.0924
 2755SOL     OW10791   1.876   5.219   1.385  0.0524  0.4012 -0.0836
 2755SOL    HW210792   1.951   5.277   1.399 -0.0881  0.5463  0.0774
 2755SOL    HW310793   1.858   5.183   1.472  0.1038  0.1596 -0.1738
 2755SOL    MW410794   1.883   5.222   1.399  0.0453 -0.1892 -0.2850
 2756SOL     OW10795   5.912   0.203   0.566 -0.4566  0.1640  0.3281
 2756SOL    HW210796   5.838   0.224   0.509 -0.2695 -1.8822 -0.7609
 2756SOL    HW310797   5.871   0.170   0.647 -0.7369 -0.1423  0.0636
 2756SOL    MW410798   5.897   0.202   0.569 -0.2691  0.2593  0.4486
 2757SOL     OW10799   1.741   3.328   5.811 -0.3847  0.1490 -0.2384
 2757SOL    HW210800   1.687   3.255   5.780 -0.5782 -0.1068  0.6562
 2757SOL    HW310801   1.680   3.385   5.857 -0.0966  0.4736 -0.2558
 2757SOL    MW410802   1.726   3.326   5.813  0.0170 -0.6063 -0.3364
 2758SOL     OW10803   4.105   1.371   1.222 -0.0034 -0.0857 -0.0791
 2758SOL    HW210804   4.110   1.277   1.242 -0.8767 -0.0285  0.4215
 2758SOL    HW310805   4.013   1.387   1.202  0.6074  0.0532 -3.3539
 2758SOL    MW410806   4.094   1.361   1.222  0.0521 -0.0010 -0.0626
 2759SOL     OW10807   5.071   6.324   5.479 -0.1323  0.2148 -0.6422
 2759SOL    HW210808   5.091   6.414   5.453  2.1504 -0.1188 -0.3026
 2759SOL    HW310809   4.983   6.308   5.445 -0.8268  2.7259 -0.2443
 2759SOL    MW410810   5.062   6.334   5.471  0.3857 -0.6563 -0.2995
 2760SOL     OW10811   5.283   4.284   0.200  0.0123  0.4089  0.6271
 2760SOL    HW210812   5.239   4.205   0.167 -1.8534  1.7838 -0.3057
 2760SOL    HW310813   5.339   4.251   0.270 -0.0926 -1.8615 -0.2565
 2760SOL    MW410814   5.284   4.269   0.205 -0.3849  0.0311 -0.4510
 2761SOL     OW10815   4.772   3.020   0.056 -0.4847 -0.5930 -0.7990
 2761SOL    HW210816   4.807   3.102   0.020  1.1218 -0.9504 -0.0944
 2761SOL    HW310817   4.849   2.971   0.085 -1.5843 -1.2757  1.0961
 2761SOL    MW410818   4.787   3.024   0.055 -0.1569 -0.8120  0.4326
 2762SOL     OW10819   0.113   5.467   0.095  0.2557 -0.7206  0.0089
 2762SOL    HW210820   0.094   5.510   0.178 -0.6476 -1.0554 -0.0153
 2762SOL    HW310821   0.203   5.493   0.075 -0.0346  0.5914  0.3305
 2762SOL    MW410822   0.122   5.476   0.103  0.2470  0.1032 -0.2597
 2763SOL     OW10823   3.077   1.765   5.338  0.2942  0.3235  0.6170
 2763SOL    HW210824   3.002   1.759   5.279  1.1565  0.9702 -0.5904
 2763SOL    HW310825   3.060   1.700   5.405 -0.9913 -0.0502 -0.0383
 2763SOL    MW410826   3.065   1.756   5.339  0.3839 -0.3722  0.6809
 2764SOL     OW10827   3.855   0.536   3.391  0.2149  0.0112  0.3289
 2764SOL    HW210828   3.900   0.533   3.307 -0.9564  1.4263 -0.3949
 2764SOL    HW310829   3.886   0.617   3.432 -0.6305  0.3109  0.4006
 2764SOL    MW410830   3.865   0.547   3.385 -0.4719  0.1530  0.4609
 2765SOL     OW10831   6.402   4.050   3.779 -0.0986 -0.4078 -0.7910
 2765SOL    HW210832   6.466   4.005   3.725 -1.7516 -0.6390 -2.6452
 2765SOL    HW310833   6.413   4.143   3.758  0.9550 -0.2128  0.4441
 2765SOL    MW410834   6.411   4.057   3.769  0.6515 -0.3397  0.0408
 2766SOL     OW10835   4.246   3.135   5.830 -0.1860 -0.2062 -0.0259
 2766SOL    HW210836   4.259   3.048   5.867 -0.1967 -0.9762 -1.7576
 2766SOL    HW310837   4.264   3.125   5.737 -3.0789  0.9438 -0.8285
 2766SOL    MW410838   4.250   3.123   5.823  0.3733  0.2689 -0.3090
 2767SOL     OW10839   5.034   4.853   2.355 -0.2593  0.3408 -0.6360
 2767SOL    HW210840   5.092   4.923   2.324 -0.2791 -0.0654 -1.6294
 2767SOL    HW310841   5.077   4.772   2.329 -1.0687  0.0198 -1.0213
 2767SOL    MW410842   5.047   4.851   2.348 -0.0829 -0.4841  0.3487
 2768SOL     OW10843   0.333   3.615   5.695  0.3171  0.5069  0.0657
 2768SOL    HW210844   0.417   3.640   5.734  0.9762  2.1740 -2.1935
 2768SOL    HW310845   0.276   3.690   5.711  0.1610  0.5947 -0.8285
 2768SOL    MW410846   0.337   3.628   5.702 -0.2776 -0.3071 -0.5066
 2769SOL     OW10847   3.108   2.102   1.855 -0.6557 -0.4708 -0.4599
 2769SOL    HW210848   3.017   2.131   1.847 -0.5081  0.7188  1.4521
 2769SOL    HW310849   3.155   2.152   1.788 -1.0406  0.8499  0.2170
 2769SOL    MW410850   3.103   2.112   1.845  0.0772  0.2012 -0.2229
 2770SOL     OW10851   5.717   3.258   2.931  0.9659 -1.1362  0.1022
 2770SOL    HW210852   5.770   3.337   2.944 -0.4782 -0.1089  0.0883
 2770SOL    HW310853   5.666   3.250   3.012  0.6397 -1.6849 -0.1509
 2770SOL    MW410854   5.717   3.268   2.943 -0.2908 -0.3639  0.0759
 2771SOL     OW10855   3.948   4.910   2.107 -0.5939  0.2117  0.3398
 2771SOL    HW210856   3.990   4.867   2.182  0.0434  0.3144  0.0546
 2771SOL    HW310857   3.867   4.945   2.141 -1.0158 -1.0046  0.6424
 2771SOL    MW410858   3.943   4.909   2.121  0.3510  0.0635 -0.3500
 2772SOL     OW10859   4.547   3.349   1.261 -0.0177 -0.0723 -0.0281
 2772SOL    HW210860   4.632   3.390   1.276 -0.1601  0.4273 -0.5670
 2772SOL    HW310861   4.494   3.417   1.221 -0.0065 -1.0042 -1.7095
 2772SOL    MW410862   4.551   3.364   1.258 -0.0227  0.3676  0.0476
 2773SOL     OW10863   0.485   1.916   4.887 -0.1128  0.1663 -0.9508
 2773SOL    HW210864   0.457   1.868   4.965  1.3659 -1.1600 -1.1896
 2773SOL    HW310865   0.542   1.985   4.920 -0.0220  0.0186 -0.7949
 2773SOL    MW410866   0.489   1.919   4.901  0.0956  0.0711 -0.1527
 2774SOL     OW10867   5.332   4.419   2.693  0.6048  0.1220  0.0355
 2774SOL    HW210868   5.380   4.442   2.773  1.1130  0.6428 -0.4144
 2774SOL    HW310869   5.333   4.499   2.640 -1.5314  0.4532  0.3731
 2774SOL    MW410870   5.338   4.433   2.697 -0.5706 -0.3043  0.1536
 2775SOL     OW10871   0.201   2.043   4.087  0.0738  0.5923 -0.3802
 2775SOL    HW210872   0.163   2.082   4.165 -0.6571 -0.0412 -0.4009
 2775SOL    HW310873   0.245   1.964   4.118  1.0221  1.0964 -0.4185
 2775SOL    MW410874   0.202   2.038   4.101 -0.0339  0.4387  0.4683
 2776SOL     OW10875   0.870   1.679   0.131 -0.0640  0.1843  0.1102
 2776SOL    HW210876   0.805   1.613   0.153  0.6919 -0.4143  0.6040
 2776SOL    HW310877   0.946   1.629   0.099 -0.7553  0.9702 -3.0590
 2776SOL    MW410878   0.872   1.664   0.130  0.0225  0.2672 -0.1573
 2777SOL     OW10879   1.107   1.648   4.569 -0.0877 -0.1899 -0.1053
 2777SOL    HW210880   1.017   1.641   4.538 -0.6398  1.9501  0.8730
 2777SOL    HW310881   1.113   1.584   4.640 -0.8840 -0.2461 -0.0837
 2777SOL    MW410882   1.096   1.638   4.574 -0.1957 -0.2502  0.0159
 2778SOL     OW10883   4.114   3.490   0.855  0.0340 -0.6131  0.3281
 2778SOL    HW210884   4.139   3.413   0.907  1.1375 -0.1401  0.5214
 2778SOL    HW310885   4.194   3.514   0.809 -0.7618 -0.6471 -1.1267
 2778SOL    MW410886   4.128   3.483   0.856  0.0681  0.5700 -0.3039
 2779SOL     OW10887   4.341   2.795   6.358  0.2218  0.4435 -0.6251
 2779SOL    HW210888   4.417   2.767   6.409  0.6045  1.2653 -0.7133
 2779SOL    HW310889   4.379   2.840   6.282 -0.3355 -0.9461 -1.7599
 2779SOL    MW410890   4.356   2.798   6.354 -0.0434  0.0911 -0.5608
 2780SOL     OW10891   3.814   0.834   0.090 -0.2409 -0.0207 -0.4177
 2780SOL    HW210892   3.853   0.914   0.124 -0.6157  0.8138 -1.8522
 2780SOL    HW310893   3.821   0.771   0.162  2.8920  0.3390 -0.2629
 2780SOL    MW410894   3.820   0.836   0.104 -0.2481  0.2120  0.0839
 2781SOL     OW10895   1.556   0.824   4.537 -0.0270 -0.4798 -0.2850
 2781SOL    HW210896   1.556   0.904   4.590  0.7917  0.0691 -1.0847
 2781SOL    HW310897   1.488   0.769   4.576 -1.9427  1.3554 -0.8419
 2781SOL    MW410898   1.547   0.827   4.549  0.8666  0.3257 -0.2397
 2782SOL     OW10899   4.538   1.820   6.299 -0.0605 -0.6234  0.3593
 2782SOL    HW210900   4.471   1.821   6.367 -1.2328  1.1914 -0.7493
 2782SOL    HW310901   4.621   1.815   6.347 -0.9042 -2.3127  1.7719
 2782SOL    MW410902   4.540   1.819   6.314 -0.1185  0.2919  1.0398
 2783SOL     OW10903   1.727   0.402   1.615 -0.5719 -0.6801 -0.1260
 2783SOL    HW210904   1.768   0.321   1.647 -0.2605 -0.2939  0.4640
 2783SOL    HW310905   1.633   0.387   1.626 -0.5205 -0.9749 -0.0658
 2783SOL    MW410906   1.720   0.389   1.620  0.5035  0.0080  0.6934
 2784SOL     OW10907   5.655   5.083   5.616 -0.3624 -0.1331 -0.1499
 2784SOL    HW210908   5.718   5.086   5.687 -0.4811  0.2684 -0.0629
 2784SOL    HW310909   5.587   5.022   5.646 -0.6728  0.4224  0.2993
 2784SOL    MW410910   5.654   5.075   5.629 -0.0139 -0.3399 -0.1799
 2785SOL     OW10911   5.167   2.034   2.638  0.1469  0.6111 -0.0860
 2785SOL    HW210912   5.222   2.077   2.704 -0.6205 -1.7164  2.2224
 2785SOL    HW310913   5.204   1.946   2.630 -1.8630 -0.2763 -0.1091
 2785SOL    MW410914   5.179   2.028   2.646 -0.7477  0.1646 -0.0144
 2786SOL     OW10915   0.607   0.989   1.619  0.2183 -0.4077  0.1300
 2786SOL    HW210916   0.559   0.997   1.536  0.3958  1.9896  0.1880
 2786SOL    HW310917   0.699   1.003   1.595  0.2205  0.7752  0.7610
 2786SOL    MW410918   0.613   0.992   1.605  0.4218 -0.1505  0.0799
 2787SOL     OW10919   3.296   2.307   1.416 -0.0671  0.5633 -0.3803
 2787SOL    HW210920   3.304   2.236   1.353  0.8626 -0.7774  1.1493
 2787SOL    HW310921   3.238   2.272   1.484  1.1772  0.8468  0.8772
 2787SOL    MW410922   3.289   2.293   1.417 -0.5115 -0.2167 -0.1918
 2788SOL     OW10923   5.740   1.534   6.326  0.0033  0.1999  0.7727
 2788SOL    HW210924   5.653   1.524   6.287 -0.4532  1.1571  1.5036
 2788SOL    HW310925   5.757   1.629   6.323  0.7439  0.0883  1.2152
 2788SOL    MW410926   5.730   1.546   6.320 -0.1668 -0.1234 -0.0224
 2789SOL     OW10927   0.211   5.216   4.478 -0.2283 -0.0808 -0.4167
 2789SOL    HW210928   0.305   5.199   4.489  0.5583  2.4223 -2.2941
 2789SOL    HW310929   0.182   5.245   4.565  1.3601  1.4301 -0.3187
 2789SOL    MW410930   0.220   5.218   4.491 -0.3797  0.1007  0.1745
 2790SOL     OW10931   0.266   1.710   0.720  0.8385  0.3340  0.3590
 2790SOL    HW210932   0.337   1.652   0.694  1.5267  0.9104  0.8873
 2790SOL    HW310933   0.188   1.672   0.681  1.4522 -0.2522 -0.3333
 2790SOL    MW410934   0.265   1.697   0.712  0.6615 -0.2556  0.0176
 2791SOL     OW10935   2.789   1.830   3.820  0.0452 -0.7110  0.5246
 2791SOL    HW210936   2.753   1.796   3.902 -2.0625  0.6944  0.2571
 2791SOL    HW310937   2.713   1.837   3.762  1.3120 -0.6075 -1.1817
 2791SOL    MW410938   2.774   1.826   3.824 -0.2143  0.5498 -0.0437
 2792SOL     OW10939   0.993   3.577   2.632  0.2119  0.5039  0.0459
 2792SOL    HW210940   1.063   3.641   2.643  0.8596 -0.3751  1.2099
 2792SOL    HW310941   1.023   3.520   2.561  0.1667  0.7638 -0.1869
 2792SOL    MW410942   1.006   3.578   2.624 -0.7523  0.1763 -0.3665
 2793SOL     OW10943   2.016   1.654   6.399 -0.5368  0.1192 -0.1520
 2793SOL    HW210944   2.063   1.589   6.451 -0.7405 -1.3895 -1.7567
 2793SOL    HW310945   1.932   1.664   6.444  0.3938  1.1359  1.4577
 2793SOL    MW410946   2.011   1.646   6.411 -0.4647  0.0180  0.2054
 2794SOL     OW10947   3.966   2.663   3.552  0.2006  0.0789  0.2401
 2794SOL    HW210948   3.926   2.653   3.466  0.5129  0.0342  0.1017
 2794SOL    HW310949   3.961   2.757   3.569 -0.4886  0.0094  0.4770
 2794SOL    MW410950   3.960   2.674   3.543 -0.0228  0.2463  0.0563
 2795SOL     OW10951   4.634   1.310   2.957 -0.3729  0.2025  0.2673
 2795SOL    HW210952   4.686   1.229   2.961  2.1948  1.7612  0.7350
 2795SOL    HW310953   4.652   1.345   2.869 -3.1481 -0.6742 -0.7605
 2795SOL    MW410954   4.643   1.304   2.946  0.1204  0.2876  0.5410
 2796SOL     OW10955   2.719   3.750   0.074  0.5135  0.0374 -0.0175
 2796SOL    HW210956   2.658   3.805   0.027  3.4200  1.3407 -2.5753
 2796SOL    HW310957   2.704   3.662   0.040 -0.5923  0.1244  0.2086
 2796SOL    MW410958   2.709   3.745   0.064  0.1568  0.3327 -0.5523
 2797SOL     OW10959   6.122   2.702   4.906 -0.0870  0.4980 -0.2164
 2797SOL    HW210960   6.126   2.700   5.002  1.3205  0.3204 -0.2547
 2797SOL    HW310961   6.121   2.795   4.884  0.1611  0.5480 -0.0313
 2797SOL    MW410962   6.123   2.714   4.916 -0.3826  0.3575 -0.0114
 2798SOL     OW10963   5.567   5.843   2.228  0.2871 -0.3205 -0.2746
 2798SOL    HW210964   5.501   5.908   2.204  1.1561  1.4740  1.9240
 2798SOL    HW310965   5.605   5.816   2.144 -2.6562 -0.8886 -1.5517
 2798SOL    MW410966   5.563   5.848   2.214  0.6245 -0.2813 -0.7043
 2799SOL     OW10967   0.600   1.349   6.160 -0.1035  0.1371  0.0854
 2799SOL    HW210968   0.607   1.310   6.073 -3.2060  2.4453 -1.3516
 2799SOL    HW310969   0.662   1.422   6.159  0.2705 -0.1788  0.0402
 2799SOL    MW410970   0.609   1.353   6.148  0.6552  0.2264 -0.1991
 2800SOL     OW10971   2.242   2.165   6.190  0.2615 -0.7621 -0.1930
 2800SOL    HW210972   2.335   2.190   6.186  0.6544 -1.6568  1.9968
 2800SOL    HW310973   2.242   2.071   6.171 -0.0379 -0.9931  0.8820
 2800SOL    MW410974   2.255   2.156   6.187  0.0543  0.1136  0.3609
 2801SOL     OW10975   4.062   4.778   5.865  0.2142 -0.3832  0.2913
 2801SOL    HW210976   4.136   4.721   5.888  2.0099  2.1694  1.2368
 2801SOL    HW310977   4.093   4.829   5.790 -0.6637  0.5498  0.5443
 2801SOL    MW410978   4.076   4.777   5.858 -0.0851  0.0638 -0.3351
 2802SOL     OW10979   6.105   1.514   4.209  0.1027 -0.1467 -0.3517
 2802SOL    HW210980   6.107   1.493   4.115 -0.8698  2.6660 -1.1093
 2802SOL    HW310981   6.012   1.517   4.231  0.2044  1.6906 -0.0052
 2802SOL    MW410982   6.093   1.512   4.199  0.0441  0.0578  0.1826
 2803SOL     OW10983   1.926   1.001   2.757 -0.8075  0.5385 -0.7089
 2803SOL    HW210984   1.882   0.923   2.724 -0.6379 -0.8291  2.0629
 2803SOL    HW310985   2.019   0.985   2.741 -0.7438 -0.0169  0.1704
 2803SOL    MW410986   1.933   0.989   2.751 -0.5056  0.7331  0.5732
 2804SOL     OW10987   5.443   0.749   0.846 -0.3163  0.1181 -0.1820
 2804SOL    HW210988   5.465   0.812   0.777 -0.9144 -0.5537 -1.0002
 2804SOL    HW310989   5.446   0.664   0.804  0.5782 -0.4303  0.9471
 2804SOL    MW410990   5.446   0.746   0.832 -0.4430  0.0264  0.3895
 2805SOL     OW10991   4.736   4.274   0.773 -0.7456  0.1959  0.4325
 2805SOL    HW210992   4.770   4.360   0.747 -0.1496 -0.5245 -1.3906
 2805SOL    HW310993   4.810   4.232   0.817 -0.4643  0.0158 -0.1930
 2805SOL    MW410994   4.751   4.279   0.775  0.6899  0.5799  0.0086
 2806SOL     OW10995   0.788   1.943   3.923 -0.5514  0.4062 -0.2351
 2806SOL    HW210996   0.701   1.913   3.896 -0.7284 -0.2227  0.9544
 2806SOL    HW310997   0.842   1.930   3.845 -0.9161 -1.8419 -0.1818
 2806SOL    MW410998   0.783   1.937   3.909  0.4968 -0.2011  0.7795
 2807SOL     OW10999   3.006   4.613   4.544  0.0108  0.4202  0.0021
 2807SOL    HW211000   3.027   4.634   4.453 -1.3501 -1.5951 -0.8596
 2807SOL    HW311001   3.041   4.686   4.595 -0.3066  2.2522 -2.2438
 2807SOL    MW411002   3.013   4.625   4.539 -0.6937  0.0625  0.6715
 2808SOL     OW11003   1.424   4.599   5.572  0.2003  0.0796  0.3052
 2808SOL    HW211004   1.474   4.536   5.623 -1.2275 -1.3376  0.0392
 2808SOL    HW311005   1.365   4.641   5.636  0.2834  0.2519  0.2707
 2808SOL    MW411006   1.423   4.596   5.588  0.0443 -0.8965 -0.0603
 2809SOL     OW11007   2.023   5.128   2.376 -0.1010 -0.0271  0.0332
 2809SOL    HW211008   2.106   5.093   2.409  1.0848  2.8615  0.4080
 2809SOL    HW311009   2.034   5.129   2.281 -0.4567 -1.3071 -0.0346
 2809SOL    MW411010   2.036   5.124   2.368  0.4434 -0.2053  0.2823
 2810SOL     OW11011   4.121   5.190   0.863 -0.2532  0.0827  0.6167
 2810SOL    HW211012   4.075   5.149   0.936  0.1589 -1.7177 -0.0913
 2810SOL    HW311013   4.107   5.131   0.789  1.3760  0.6038 -0.1564
 2810SOL    MW411014   4.113   5.177   0.862 -0.4756 -0.5995  0.5312
 2811SOL     OW11015   1.564   4.725   2.483 -0.2016  0.0451  0.0100
 2811SOL    HW211016   1.572   4.766   2.569  0.1937 -0.7335  0.3519
 2811SOL    HW311017   1.568   4.631   2.501 -1.4707 -0.1671 -0.7184
 2811SOL    MW411018   1.565   4.718   2.497 -0.2286 -0.0300  0.1289
 2812SOL     OW11019   5.951   0.520   3.869 -0.1315  0.5147 -0.2723
 2812SOL    HW211020   5.906   0.468   3.803  0.2260  0.0964 -0.1987
 2812SOL    HW311021   6.044   0.514   3.845  0.2878 -1.5293  1.4910
 2812SOL    MW411022   5.957   0.512   3.857 -0.2870 -0.4245  0.3475
 2813SOL     OW11023   4.849   5.645   0.098  0.5546  0.2074  0.0634
 2813SOL    HW211024   4.756   5.668   0.101  0.4052 -0.2742 -0.5361
 2813SOL    HW311025   4.882   5.666   0.185 -0.0774  0.5484  0.2267
 2813SOL    MW411026   4.841   5.651   0.109  0.3526 -0.3511 -0.2546
 2814SOL     OW11027   3.367   5.771   3.204  0.1436 -0.2870  0.3664
 2814SOL    HW211028   3.295   5.797   3.146  0.4457  0.3940  0.3009
 2814SOL    HW311029   3.380   5.845   3.262 -0.1757 -0.9711  1.3474
 2814SOL    MW411030   3.359   5.784   3.204 -0.0638 -0.4523  0.2068
 2815SOL     OW11031   5.908   5.893   2.507  0.3685 -0.0633 -0.0763
 2815SOL    HW211032   5.981   5.948   2.478  1.0929 -1.4390 -0.9400
 2815SOL    HW311033   5.830   5.942   2.481  0.9491  1.4104  0.8298
 2815SOL    MW411034   5.907   5.907   2.500 -0.0553  0.2033  0.4649
 2816SOL     OW11035   3.696   4.953   6.389  0.2881 -0.3909  0.0919
 2816SOL    HW211036   3.686   5.041   6.425  1.1515 -0.5602  0.7911
 2816SOL    HW311037   3.621   4.941   6.331 -0.9981 -0.0018  1.6275
 2816SOL    MW411038   3.685   4.963   6.386 -0.7610  0.4632 -0.2767
 2817SOL     OW11039   5.580   4.024   0.243  0.0939 -0.2726 -0.1287
 2817SOL    HW211040   5.575   3.929   0.258  1.7578 -0.2831  0.5463
 2817SOL    HW311041   5.525   4.062   0.311 -1.8625 -0.7589 -1.3326
 2817SOL    MW411042   5.572   4.016   0.254  0.7223 -0.0097  0.2356
 2818SOL     OW11043   4.138   0.400   0.305  0.1242  0.2694 -0.0750
 2818SOL    HW211044   4.066   0.455   0.334  1.6965  1.1192  2.4544
 2818SOL    HW311045   4.119   0.314   0.343  0.6542  0.6120  0.9854
 2818SOL    MW411046   4.126   0.396   0.314  0.4558  0.1305  0.2674
 2819SOL     OW11047   0.755   6.046   0.973 -0.0518 -0.5143 -0.1063
 2819SOL    HW211048   0.819   6.112   1.000  0.3879 -1.0684  0.2407
 2819SOL    HW311049   0.774   5.970   1.029 -0.6141 -0.8997 -0.4251
 2819SOL    MW411050   0.766   6.045   0.984 -0.2551 -0.5682 -0.5357
 2820SOL     OW11051   5.354   1.702   0.677  0.0224 -0.1622 -0.4497
 2820SOL    HW211052   5.437   1.656   0.691 -0.4639 -0.9505 -0.0358
 2820SOL    HW311053   5.339   1.750   0.758  0.0735 -0.0132 -0.5275
 2820SOL    MW411054   5.363   1.702   0.689  0.0594 -0.6153  0.1966
 2821SOL     OW11055   5.757   5.865   0.522 -0.2789 -0.1074  0.4857
 2821SOL    HW211056   5.674   5.832   0.488  0.7466 -1.4643 -0.8573
 2821SOL    HW311057   5.806   5.889   0.443  1.4431 -1.4915  1.0805
 2821SOL    MW411058   5.752   5.864   0.507 -0.1407  0.3172 -0.2247
 2822SOL     OW11059   5.013   5.450   1.135  0.3314 -0.2136  0.0964
 2822SOL    HW211060   4.997   5.487   1.048 -2.4581  2.6836  1.6247
 2822SOL    HW311061   5.085   5.501   1.171  0.8226 -0.7402 -0.1252
 2822SOL    MW411062   5.020   5.462   1.128  0.1758 -0.0717  0.1332
 2823SOL     OW11063   1.042   4.987   5.072 -0.5371  0.9543  0.8781
 2823SOL    HW211064   1.118   4.950   5.027 -1.1891  1.8957 -1.1223
 2823SOL    HW311065   1.070   4.995   5.163  1.4105  0.3583  0.3833
 2823SOL    MW411066   1.056   4.983   5.078 -0.3094  0.1856 -0.1239
 2824SOL     OW11067   2.686   4.821   3.467  0.2061 -0.3505  0.1385
 2824SOL    HW211068   2.653   4.787   3.550  1.8076 -0.8839  0.6011
 2824SOL    HW311069   2.659   4.757   3.401  1.1165 -1.3018  0.6550
 2824SOL    MW411070   2.678   4.808   3.469 -0.4259  0.9341  0.3947
 2825SOL     OW11071   5.740   5.221   1.310  0.3152 -0.7285  0.2707
 2825SOL    HW211072   5.814   5.247   1.365  0.4553 -0.6551  0.0490
 2825SOL    HW311073   5.663   5.245   1.361  0.4408  0.4612 -0.0919
 2825SOL    MW411074   5.740   5.227   1.324 -0.1945 -0.6781 -0.4058
 2826SOL     OW11075   3.603   0.660   4.982  0.3560 -0.6826  0.4506
 2826SOL    HW211076   3.563   0.575   5.002 -0.6764 -0.1794  0.5692
 2826SOL    HW311077   3.537   0.707   4.933  0.7174  0.2656  0.8544
 2826SOL    MW411078   3.589   0.655   4.978 -0.0569  0.6340 -0.0735
 2827SOL     OW11079   4.418   5.572   1.316  0.5603 -0.5996 -0.3973
 2827SOL    HW211080   4.485   5.579   1.247  0.5818  2.9638 -0.2386
 2827SOL    HW311081   4.468   5.572   1.397  0.4353 -1.9746 -0.2989
 2827SOL    MW411082   4.434   5.573   1.317 -0.9860  0.0264 -0.1264
 2828SOL     OW11083   0.211   0.335   3.943  0.1517 -0.1231  0.0611
 2828SOL    HW211084   0.290   0.355   3.892  1.1311 -0.7216  1.2927
 2828SOL    HW311085   0.207   0.239   3.945  0.3102 -0.1207  1.3460
 2828SOL    MW411086   0.221   0.325   3.936 -0.1452 -0.4149  0.4121
 2829SOL     OW11087   3.007   3.558   2.273  0.0041 -0.5831  0.4358
 2829SOL    HW211088   3.091   3.539   2.315  1.4987  1.5035 -1.3838
 2829SOL    HW311089   2.952   3.592   2.344  0.7708 -1.6120  1.5714
 2829SOL    MW411090   3.011   3.560   2.288  1.1591 -0.3068  0.7972
 2830SOL     OW11091   6.342   1.028   0.166 -0.0241 -0.4460  0.6477
 2830SOL    HW211092   6.431   1.058   0.184  0.4328 -1.6882  0.5191
 2830SOL    HW311093   6.347   0.989   0.079 -0.6643 -0.6449  0.6985
 2830SOL    MW411094   6.354   1.027   0.157  0.3573 -0.0322 -0.7606
 2831SOL     OW11095   3.518   1.125   2.153 -0.0852 -0.3100  0.1123
 2831SOL    HW211096   3.579   1.162   2.217 -1.4222 -0.6663  1.6533
 2831SOL    HW311097   3.571   1.064   2.101  0.7118 -1.3293  2.0357
 2831SOL    MW411098   3.533   1.122   2.154  0.2867  0.4595  0.1943
 2832SOL     OW11099   5.773   4.688   1.593 -0.0347  0.1157 -0.7481
 2832SOL    HW211100   5.691   4.668   1.549  0.0625 -0.5508 -0.6469
 2832SOL    HW311101   5.839   4.684   1.523 -0.2790  2.4109 -1.1864
 2832SOL    MW411102   5.771   4.684   1.578  0.3978  0.2569 -0.1584
 2833SOL     OW11103   0.674   0.888   4.925  0.2269  0.2914 -0.0514
 2833SOL    HW211104   0.755   0.934   4.903  1.2456 -1.6695 -0.6926
 2833SOL    HW311105   0.614   0.956   4.955  2.3833  1.7245  1.2837
 2833SOL    MW411106   0.677   0.903   4.926 -0.6922  0.0983  0.8890
 2834SOL     OW11107   4.156   0.939   3.610 -0.0959 -0.0860  0.4534
 2834SOL    HW211108   4.235   0.943   3.555  0.1545 -0.9658  0.7299
 2834SOL    HW311109   4.184   0.890   3.688 -0.5900  0.6723  1.1280
 2834SOL    MW411110   4.170   0.933   3.613 -0.0202  0.5436  0.4944
 2835SOL     OW11111   4.014   3.929   6.340 -0.0822 -0.0340 -0.1998
 2835SOL    HW211112   4.106   3.953   6.343  0.6198 -2.4873  0.1989
 2835SOL    HW311113   4.005   3.857   6.402 -2.6503  1.1876  1.0144
 2835SOL    MW411114   4.025   3.923   6.348  0.1788  0.1106 -0.5420
 2836SOL     OW11115   5.265   1.161   4.193 -0.3241 -0.6549  0.1422
 2836SOL    HW211116   5.313   1.241   4.173 -0.3917 -0.3762  1.0596
 2836SOL    HW311117   5.203   1.151   4.121  1.6738 -1.5063 -1.5445
 2836SOL    MW411118   5.263   1.170   4.181 -0.0187  0.2397 -0.6543
 2837SOL     OW11119   2.262   2.392   3.137  0.0003  0.3022  0.6797
 2837SOL    HW211120   2.190   2.373   3.197 -2.6640 -0.4768 -2.4547
 2837SOL    HW311121   2.281   2.308   3.095 -0.5113  1.3079 -1.7467
 2837SOL    MW411122   2.255   2.379   3.139 -0.1125  0.0599 -0.5383
 2838SOL     OW11123   0.267   0.516   1.090  0.0239 -0.0458  0.2945
 2838SOL    HW211124   0.272   0.432   1.046 -1.0875  0.3222 -0.5720
 2838SOL    HW311125   0.356   0.550   1.088  0.0988 -0.2970 -1.1563
 2838SOL    MW411126   0.279   0.509   1.084  0.1194  0.5872  0.5500
 2839SOL     OW11127   1.882   4.233   6.334 -0.1936  0.1370  0.0623
 2839SOL    HW211128   1.904   4.283   6.413  0.7887  1.6744 -1.1423
 2839SOL    HW311129   1.795   4.265   6.309  0.7604  1.9399 -1.1610
 2839SOL    MW411130   1.873   4.244   6.341  0.3118  0.3937  0.5884
 2840SOL     OW11131   3.824   3.111   5.551  0.0594 -0.2330 -0.4894
 2840SOL    HW211132   3.774   3.087   5.630  0.1834  0.7606 -0.0971
 2840SOL    HW311133   3.767   3.171   5.504  0.2585 -0.3076 -0.8281
 2840SOL    MW411134   3.810   3.116   5.555  0.2934 -0.0911 -0.6426
 2841SOL     OW11135   0.147   2.634   5.648 -0.2284  0.7779  0.5271
 2841SOL    HW211136   0.150   2.673   5.735  2.3283 -0.4447  1.0859
 2841SOL    HW311137   0.129   2.541   5.664  1.8967  0.2094 -0.0111
 2841SOL    MW411138   0.145   2.627   5.662  0.2225  0.0906 -0.6120
 2842SOL     OW11139   6.057   5.497   1.385  0.4181  0.6201  0.7665
 2842SOL    HW211140   5.998   5.434   1.424  3.2602 -1.4007  2.1415
 2842SOL    HW311141   6.083   5.458   1.301  3.3706 -1.0251  2.2903
 2842SOL    MW411142   6.053   5.484   1.379  0.2424 -0.1057 -0.0029
 2843SOL     OW11143   2.922   5.139   2.462 -0.5634  0.2680  0.2644
 2843SOL    HW211144   3.012   5.145   2.429 -1.1789 -0.7743 -1.7662
 2843SOL    HW311145   2.901   5.228   2.490 -0.0247  1.3545 -2.4886
 2843SOL    MW411146   2.931   5.151   2.461  0.2543 -0.1167  0.5501
 2844SOL     OW11147   5.626   5.187   3.581 -0.8312  0.7627 -0.5147
 2844SOL    HW211148   5.570   5.169   3.656  0.8313  0.2770  0.6523
 2844SOL    HW311149   5.662   5.101   3.557  0.7094  1.2677 -0.1539
 2844SOL    MW411150   5.623   5.173   3.587 -0.1475 -0.2348 -0.2061
 2845SOL     OW11151   2.269   6.104   2.021  0.1761 -0.0771  0.1878
 2845SOL    HW211152   2.243   6.022   2.063  1.6450 -0.3486  0.6144
 2845SOL    HW311153   2.365   6.102   2.020  0.2212  1.0733 -0.9236
 2845SOL    MW411154   2.278   6.093   2.026  0.4192 -0.2773  0.4730
 2846SOL     OW11155   3.315   4.309   5.570  0.0647  0.1578 -0.1031
 2846SOL    HW211156   3.264   4.370   5.517 -3.7775 -2.0663  0.6902
 2846SOL    HW311157   3.300   4.338   5.660 -3.3179 -2.6979  0.4356
 2846SOL    MW411158   3.306   4.321   5.575  0.0869  0.1193 -0.3999
 2847SOL     OW11159   2.321   5.490   5.311  0.2216  0.5715  0.2479
 2847SOL    HW211160   2.296   5.570   5.356 -0.8673 -0.3577  1.3742
 2847SOL    HW311161   2.362   5.436   5.379 -0.4604 -0.4292 -0.1062
 2847SOL    MW411162   2.323   5.493   5.326 -0.0013 -0.5465 -0.7120
 2848SOL     OW11163   2.481   0.535   1.306 -0.2048  0.3852  0.0528
 2848SOL    HW211164   2.565   0.496   1.330 -0.6943 -1.0122 -0.3820
 2848SOL    HW311165   2.503   0.621   1.271  1.1865 -0.3944 -1.1094
 2848SOL    MW411166   2.495   0.541   1.304  0.0030 -0.0716 -0.1622
 2849SOL     OW11167   4.192   2.004   6.039  0.2344  0.1881 -0.1868
 2849SOL    HW211168   4.178   2.018   6.133  0.7321 -0.0719 -0.0753
 2849SOL    HW311169   4.254   2.072   6.014 -0.2846  0.5746 -0.4346
 2849SOL    MW411170   4.198   2.015   6.048  0.2812  0.0370 -1.1359
 2850SOL     OW11171   4.840   3.644   1.011 -0.0117  0.1776 -0.1577
 2850SOL    HW211172   4.807   3.644   0.921  0.7226 -0.9723 -0.4320
 2850SOL    HW311173   4.848   3.552   1.034  2.2110  0.4219  0.2001
 2850SOL    MW411174   4.836   3.632   1.002 -0.1029  0.2133  0.4248
 2851SOL     OW11175   1.900   0.631   1.568 -0.0457  0.7503 -0.0560
 2851SOL    HW211176   1.951   0.605   1.491 -0.9175  2.0820 -1.1234
 2851SOL    HW311177   1.830   0.566   1.572  0.5976  0.0609  0.2526
 2851SOL    MW411178   1.898   0.619   1.558  0.2089  0.5708 -0.0717
 2852SOL     OW11179   5.987   1.387   5.271 -0.4472 -0.7179 -0.1781
 2852SOL    HW211180   5.909   1.350   5.314  0.1134  0.2919  1.7943
 2852SOL    HW311181   6.052   1.317   5.275 -1.0913 -1.4420 -1.5255
 2852SOL    MW411182   5.985   1.373   5.277 -0.3646 -0.0191  0.2272
 2853SOL     OW11183   1.900   6.228   3.103 -0.3924 -0.2853  0.1937
 2853SOL    HW211184   1.966   6.245   3.169 -1.7243 -0.6563  1.6844
 2853SOL    HW311185   1.839   6.167   3.145 -0.4542 -1.7964 -1.9167
 2853SOL    MW411186   1.901   6.222   3.117 -0.3770  0.2496 -0.1937
 2854SOL     OW11187   2.218   6.328   0.648 -0.7683 -0.2477  0.2029
 2854SOL    HW211188   2.307   6.356   0.625 -0.9912  2.2883  2.0625
 2854SOL    HW311189   2.228   6.285   0.733 -1.3954  0.7785  0.8079
 2854SOL    MW411190   2.231   6.326   0.656 -0.3417  0.8134  0.3654
 2855SOL     OW11191   1.940   5.330   4.397  0.2018  0.0519  0.3593
 2855SOL    HW211192   2.031   5.319   4.369  0.3128 -0.8831  0.9977
 2855SOL    HW311193   1.946   5.339   4.493 -0.4372 -1.2169  0.5427
 2855SOL    MW411194   1.953   5.329   4.406 -0.5512 -0.3041 -0.5790
 2856SOL     OW11195   1.311   4.692   2.189 -0.5542 -0.1047  0.5045
 2856SOL    HW211196   1.274   4.748   2.257 -0.4906 -1.8271  2.0418
 2856SOL    HW311197   1.372   4.635   2.236  0.4016 -0.5569 -1.2116
 2856SOL    MW411198   1.314   4.692   2.205  0.2022 -0.2352  0.4277
 2857SOL     OW11199   6.064   2.841   5.178 -0.1872  0.4130 -0.2211
 2857SOL    HW211200   5.999   2.888   5.231 -1.3534 -1.6142  0.2535
 2857SOL    HW311201   6.060   2.751   5.210  1.6983 -0.1141 -1.3320
 2857SOL    MW411202   6.055   2.836   5.189  0.1332  0.0360 -0.6308
 2858SOL     OW11203   3.288   4.392   0.489 -0.2918 -0.1736  0.0464
 2858SOL    HW211204   3.301   4.390   0.394 -0.0063  0.4524  0.0673
 2858SOL    HW311205   3.336   4.317   0.522  2.1502  1.2573 -0.0256
 2858SOL    MW411206   3.296   4.382   0.481 -0.8334 -0.0329 -0.7101
 2859SOL     OW11207   2.429   0.770   5.839  0.1612 -0.1574 -0.3150
 2859SOL    HW211208   2.438   0.715   5.761  0.4899 -0.0923 -0.3258
 2859SOL    HW311209   2.519   0.793   5.862  0.3118 -2.4667  1.7441
 2859SOL    MW411210   2.442   0.766   5.832  0.1819  0.3115  0.1934
 2860SOL     OW11211   4.969   5.487   2.048 -0.4864  0.0265  0.3606
 2860SOL    HW211212   5.044   5.546   2.055  1.3533 -2.3060  2.0090
 2860SOL    HW311213   4.902   5.526   2.104  0.0681  1.3378  0.1433
 2860SOL    MW411214   4.970   5.500   2.056  0.3275 -0.1564 -0.1771
 2861SOL     OW11215   0.357   2.847   0.711  0.1449 -0.0286  0.1864
 2861SOL    HW211216   0.278   2.794   0.714  1.3863 -1.9263  0.5598
 2861SOL    HW311217   0.347   2.901   0.632 -1.8345  0.3512  0.6511
 2861SOL    MW411218   0.345   2.847   0.701 -0.0282 -0.2004  0.7821
 2862SOL     OW11219   0.030   4.829   2.027 -0.4641 -0.8406  0.3441
 2862SOL    HW211220   0.051   4.910   1.982 -1.6936  0.0208  1.2396
 2862SOL    HW311221   0.016   4.855   2.119 -0.7394 -2.0727  0.6762
 2862SOL    MW411222   0.031   4.843   2.033 -0.1502 -0.1472  0.5551
 2863SOL     OW11223   5.347   0.978   4.508 -0.0708 -0.0745  0.1589
 2863SOL    HW211224   5.400   0.971   4.429  1.5770 -0.1491  1.2202
 2863SOL    HW311225   5.290   1.054   4.492 -1.2119 -1.2845 -1.8583
 2863SOL    MW411226   5.346   0.987   4.496 -0.4251  0.9095  0.2688
 2864SOL     OW11227   5.806   4.166   0.458 -0.0816  0.4121 -0.1497
 2864SOL    HW211228   5.730   4.173   0.401 -1.2771 -0.1617  1.3083
 2864SOL    HW311229   5.868   4.113   0.408 -0.0157  2.0716 -1.9407
 2864SOL    MW411230   5.804   4.160   0.444 -0.2795 -0.1078 -0.7824
 2865SOL     OW11231   0.592   5.377   0.910  0.4402  0.7506 -0.1683
 2865SOL    HW211232   0.552   5.311   0.853 -0.7627  0.3816  1.0710
 2865SOL    HW311233   0.685   5.354   0.912  0.1927 -0.3208 -0.5214
 2865SOL    MW411234   0.599   5.365   0.902  0.1382 -0.2796 -0.0205
 2866SOL     OW11235   1.126   5.889   5.307  0.0125  0.0030 -0.1905
 2866SOL    HW211236   1.143   5.886   5.213  0.5947  1.4239 -0.1584
 2866SOL    HW311237   1.134   5.982   5.330 -1.7586 -0.0903  0.9820
 2866SOL    MW411238   1.130   5.901   5.298  0.3690 -0.0384 -0.3999
 2867SOL     OW11239   6.070   3.749   4.099  0.3812  0.3550  0.3579
 2867SOL    HW211240   6.036   3.668   4.136 -0.9249  1.7088  2.2975
 2867SOL    HW311241   6.164   3.745   4.115  0.2709 -0.5478  0.8734
 2867SOL    MW411242   6.078   3.738   4.106  0.5669 -0.7671  0.1346
 2868SOL     OW11243   5.622   0.693   1.795  0.0748 -0.6287 -0.0971
 2868SOL    HW211244   5.533   0.663   1.779  0.3435 -1.4573 -0.1264
 2868SOL    HW311245   5.659   0.705   1.707  0.6792 -2.4736 -0.1356
 2868SOL    MW411246   5.615   0.690   1.781 -0.3415  0.0216  0.0549
 2869SOL     OW11247   5.225   1.024   0.760 -0.1723 -0.1722 -0.2702
 2869SOL    HW211248   5.246   0.973   0.838  2.3146 -1.6307 -1.7448
 2869SOL    HW311249   5.281   1.102   0.766  0.3278 -0.4858 -0.7606
 2869SOL    MW411250   5.235   1.028   0.771  0.1098 -0.4415 -0.2586
 2870SOL     OW11251   0.307   1.721   4.015  0.0751 -0.4191 -0.1372
 2870SOL    HW211252   0.230   1.739   3.962  0.6423 -0.8258 -1.1329
 2870SOL    HW311253   0.295   1.631   4.046  0.3243 -0.6234 -0.6208
 2870SOL    MW411254   0.295   1.711   4.012  0.1993  0.0463 -0.7700
 2871SOL     OW11255   0.847   5.331   3.761 -0.1717 -0.2345 -0.3129
 2871SOL    HW211256   0.880   5.389   3.829 -1.2441  1.6313 -1.2827
 2871SOL    HW311257   0.924   5.308   3.709  0.7608 -2.1105  1.7062
 2871SOL    MW411258   0.861   5.335   3.763  0.3052  1.1197  0.2104
 2872SOL     OW11259   4.327   0.405   5.559 -0.4371  0.0746  0.1751
 2872SOL    HW211260   4.277   0.392   5.640 -0.4194 -0.2988  0.1292
 2872SOL    HW311261   4.260   0.406   5.490 -0.6365  2.2219  0.3522
 2872SOL    MW411262   4.311   0.403   5.561 -1.0003 -0.2059 -0.0546
 2873SOL     OW11263   5.530   0.766   0.200  0.1781 -0.2360 -0.2010
 2873SOL    HW211264   5.476   0.778   0.122  0.1431 -0.0411 -0.1458
 2873SOL    HW311265   5.609   0.816   0.182 -0.5775  1.3305  0.6474
 2873SOL    MW411266   5.533   0.774   0.187 -0.2473  1.1570 -0.2973
 2874SOL     OW11267   5.250   2.759   1.448  0.4454  0.1536  0.1347
 2874SOL    HW211268   5.189   2.820   1.489  1.3536  0.6278  0.8345
 2874SOL    HW311269   5.196   2.704   1.392 -0.2664  2.3353 -1.4481
 2874SOL    MW411270   5.235   2.760   1.446  0.2250  0.0688  0.4215
 2875SOL     OW11271   0.970   0.529   5.977 -0.0070 -0.5452 -0.0037
 2875SOL    HW211272   1.064   0.513   5.986 -0.0555  0.3970  4.1086
 2875SOL    HW311273   0.930   0.442   5.982  0.5885 -0.7907  0.6985
 2875SOL    MW411274   0.977   0.515   5.979 -0.3336 -0.4201 -0.5760
 2876SOL     OW11275   6.208   5.186   1.226  0.5758 -0.6773  0.4591
 2876SOL    HW211276   6.211   5.248   1.154  0.3644 -1.2018 -0.0038
 2876SOL    HW311277   6.151   5.115   1.196  1.5482 -1.5578  0.6108
 2876SOL    MW411278   6.201   5.185   1.213  0.0206  0.4687 -0.4618
 2877SOL     OW11279   3.173   5.273   2.707 -0.0714 -0.0612 -0.4028
 2877SOL    HW211280   3.165   5.179   2.725  1.3952  0.0412  1.0561
 2877SOL    HW311281   3.240   5.303   2.768 -1.9600  2.3551  0.6763
 2877SOL    MW411282   3.180   5.265   2.718  0.0074 -0.1722 -0.2684
 2878SOL     OW11283   5.034   3.835   0.794  0.0357  0.2618  0.2817
 2878SOL    HW211284   4.950   3.790   0.805  0.0906  0.3259  1.0787
 2878SOL    HW311285   5.086   3.807   0.870  0.6050  0.4934 -0.0193
 2878SOL    MW411286   5.030   3.826   0.806  0.1079  0.4534  0.0590
 2879SOL     OW11287   5.670   5.309   4.108  0.0930  0.0166  0.3190
 2879SOL    HW211288   5.675   5.290   4.202  0.8248 -2.5958 -0.1527
 2879SOL    HW311289   5.754   5.350   4.087  0.8045 -1.2795  0.4964
 2879SOL    MW411290   5.682   5.312   4.117 -0.3844 -0.0210 -0.0012
 2880SOL     OW11291   0.886   2.969   2.723  0.2286 -0.3594  0.2530
 2880SOL    HW211292   0.874   3.029   2.649 -0.0169 -1.2472 -0.4491
 2880SOL    HW311293   0.977   2.940   2.716  0.3076 -0.1766  0.5099
 2880SOL    MW411294   0.896   2.973   2.712  0.0603 -0.1470  0.1926
 2881SOL     OW11295   5.748   3.496   0.010 -0.0163 -0.1188  0.6757
 2881SOL    HW211296   5.670   3.532   0.052  0.1569  1.3190 -0.1759
 2881SOL    HW311297   5.819   3.556   0.034  0.2888  0.1349 -0.7478
 2881SOL    MW411298   5.747   3.508   0.018 -0.2943 -0.1508  0.5199
 2882SOL     OW11299   0.815   3.181   2.532 -0.2522 -0.0492  0.5949
 2882SOL    HW211300   0.903   3.187   2.496 -0.0385 -0.5850  1.0086
 2882SOL    HW311301   0.760   3.156   2.458  0.1609 -1.0190  0.6039
 2882SOL    MW411302   0.819   3.179   2.517  0.1039  0.5435  0.2794
 2883SOL     OW11303   5.059   1.150   4.017 -0.2907  0.2777 -0.1992
 2883SOL    HW211304   5.037   1.237   4.051  1.6325  0.8026 -0.1372
 2883SOL    HW311305   5.024   1.150   3.928 -0.1181  1.2250 -0.2857
 2883SOL    MW411306   5.052   1.162   4.010  0.2062 -0.0423  0.3182
 2884SOL     OW11307   3.462   2.420   3.544 -0.7017 -0.4126  0.6882
 2884SOL    HW211308   3.548   2.385   3.518 -1.3532 -1.8264  0.3367
 2884SOL    HW311309   3.426   2.352   3.601 -2.8418 -1.3338 -1.5759
 2884SOL    MW411310   3.469   2.406   3.548 -0.8411  0.1671 -0.3937
 2885SOL     OW11311   5.471   5.255   4.501 -0.3362  0.0510  0.4938
 2885SOL    HW211312   5.558   5.282   4.472 -0.5995 -0.3224 -0.7340
 2885SOL    HW311313   5.452   5.311   4.576  1.1199 -0.1295  1.0488
 2885SOL    MW411314   5.480   5.266   4.507  0.1932  0.1458 -0.0166
 2886SOL     OW11315   1.520   1.438   5.051  0.3952 -0.0735 -0.7078
 2886SOL    HW211316   1.582   1.371   5.025  0.2720  1.0710 -4.4308
 2886SOL    HW311317   1.434   1.395   5.047  0.6041 -0.8835  1.7110
 2886SOL    MW411318   1.517   1.424   5.047  0.1900  0.1361  0.0904
 2887SOL     OW11319   6.341   1.917   1.541 -0.4986 -0.1372  0.0469
 2887SOL    HW211320   6.419   1.945   1.494 -0.8066  0.8177  0.0937
 2887SOL    HW311321   6.276   1.904   1.472 -0.4112 -0.5655  0.0428
 2887SOL    MW411322   6.343   1.919   1.525  0.1627 -0.0355 -0.4095
 2888SOL     OW11323   0.170   1.829  -0.007  0.0424 -0.5011 -0.0216
 2888SOL    HW211324   0.136   1.740  -0.015  0.4780 -0.7509  0.7893
 2888SOL    HW311325   0.105   1.884  -0.052 -1.0495 -1.0523  0.8310
 2888SOL    MW411326   0.157   1.825  -0.014 -0.1729  0.1982 -0.1608
 2889SOL     OW11327   3.208   6.026   4.273  0.1809  0.3199  0.1733
 2889SOL    HW211328   3.216   6.116   4.241  0.4512 -0.4972 -2.2498
 2889SOL    HW311329   3.116   6.004   4.260  0.2049  0.0987  0.3638
 2889SOL    MW411330   3.197   6.035   4.267 -1.3321  0.7603  0.6129
 2890SOL     OW11331   2.402   3.355   3.995 -0.4412 -0.9209  0.2774
 2890SOL    HW211332   2.355   3.341   3.913  1.1550  2.9816 -1.5808
 2890SOL    HW311333   2.463   3.281   4.000 -1.3520 -1.8600 -1.4447
 2890SOL    MW411334   2.404   3.343   3.985 -0.0289 -0.1347  0.3010
 2891SOL     OW11335   3.108   1.511   6.428  0.3309  0.8054 -0.2783
 2891SOL    HW211336   3.015   1.501   6.408  0.5822  0.5613 -1.4202
 2891SOL    HW311337   3.110   1.546   6.517 -0.8177 -0.3705  0.2400
 2891SOL    MW411338   3.096   1.515   6.437 -0.4746  0.3703 -0.3279
 2892SOL     OW11339   1.846   4.987   4.047 -0.1942  0.2872 -0.4080
 2892SOL    HW211340   1.851   5.031   4.131 -1.1403  0.0257 -0.2059
 2892SOL    HW311341   1.789   5.042   3.994 -0.6513 -0.2172 -0.4480
 2892SOL    MW411342   1.839   5.000   4.051 -0.4375 -0.1430  0.0880
 2893SOL     OW11343   5.903   2.577   3.747  0.4481  0.3532  0.5518
 2893SOL    HW211344   5.808   2.575   3.753  0.4754  0.7764  1.2454
 2893SOL    HW311345   5.923   2.653   3.694  0.3965  0.1898  0.2977
 2893SOL    MW411346   5.893   2.587   3.741 -0.1805  0.2389  0.3853
 2894SOL     OW11347   4.444   6.096   6.187  0.0741  0.0563 -0.1610
 2894SOL    HW211348   4.525   6.103   6.239 -0.6855  0.2408  1.0378
 2894SOL    HW311349   4.422   6.187   6.166  0.1443  0.0105 -0.4262
 2894SOL    MW411350   4.452   6.109   6.191  0.4806 -0.2925  0.2253
 2895SOL     OW11351   0.787   3.929   2.154 -0.5223 -0.2489  0.5358
 2895SOL    HW211352   0.724   3.949   2.085  1.4360 -0.1152 -1.3117
 2895SOL    HW311353   0.808   3.836   2.141  1.6409  0.3491 -0.6727
 2895SOL    MW411354   0.782   3.919   2.143 -0.3543 -0.1074 -0.1165
 2896SOL     OW11355   3.913   2.235   3.680  0.2207  0.7016 -0.3953
 2896SOL    HW211356   3.889   2.180   3.755  0.6851  0.5830 -0.3336
 2896SOL    HW311357   3.891   2.324   3.708 -1.1638  0.5031 -0.7421
 2896SOL    MW411358   3.907   2.239   3.694  0.4418  0.0304 -0.0270
 2897SOL     OW11359   5.590   1.111   2.141  0.1105  0.1731 -0.0008
 2897SOL    HW211360   5.580   1.070   2.055 -0.0621  1.3126 -0.5496
 2897SOL    HW311361   5.515   1.171   2.147  0.6166  0.7650  0.5450
 2897SOL    MW411362   5.579   1.114   2.130  0.0643  0.4557 -0.0071
 2898SOL     OW11363   1.218   2.368   3.618  0.0936  0.0729 -0.4766
 2898SOL    HW211364   1.277   2.353   3.544  0.7902  1.0226 -0.1242
 2898SOL    HW311365   1.148   2.422   3.582  1.3455  2.0449 -0.0630
 2898SOL    MW411366   1.216   2.373   3.603 -0.0552  0.0015 -0.0378
 2899SOL     OW11367   5.575   5.841   0.821 -0.1902  0.3752  0.1668
 2899SOL    HW211368   5.486   5.808   0.838  0.3814 -1.1654  0.3254
 2899SOL    HW311369   5.627   5.762   0.805  1.2449  1.2314  0.4515
 2899SOL    MW411370   5.570   5.826   0.821 -0.3259 -0.1345  0.2108
 2900SOL     OW11371   0.159   3.870   0.193  0.5114  0.0213  0.2317
 2900SOL    HW211372   0.133   3.895   0.282  1.5132 -0.9318  0.8044
 2900SOL    HW311373   0.231   3.930   0.172  1.7924 -1.2215  0.9590
 2900SOL    MW411374   0.165   3.881   0.202 -0.4389 -0.0934  0.3107
 2901SOL     OW11375   4.821   3.372   5.174  0.2975 -0.1069 -0.7138
 2901SOL    HW211376   4.819   3.281   5.203  0.9398 -0.6238 -2.1665
 2901SOL    HW311377   4.904   3.380   5.127  0.4613  1.3637 -0.2076
 2901SOL    MW411378   4.831   3.361   5.171  0.9534  0.0454 -0.2223
 2902SOL     OW11379   0.410   5.245   0.378  0.1045  0.5587  0.0394
 2902SOL    HW211380   0.462   5.273   0.302 -0.1522  0.6815 -0.0898
 2902SOL    HW311381   0.440   5.156   0.395 -1.3665 -0.3101 -1.5592
 2902SOL    MW411382   0.421   5.237   0.370  0.2637 -0.0742  0.0186
 2903SOL     OW11383   1.386   6.034   2.227  0.3351 -0.3254 -0.2937
 2903SOL    HW211384   1.371   6.128   2.239  2.0794  0.1005 -1.0480
 2903SOL    HW311385   1.299   5.995   2.227 -0.3388  0.8293  3.2448
 2903SOL    MW411386   1.372   6.041   2.228 -0.8922 -0.2759  0.1614
 2904SOL     OW11387   1.514   3.423   3.256  0.4653  0.4170 -0.6027
 2904SOL    HW211388   1.583   3.487   3.272  0.9690  0.3882 -2.4579
 2904SOL    HW311389   1.560   3.339   3.247 -0.1276 -0.1292  1.1471
 2904SOL    MW411390   1.529   3.420   3.257  0.0799  0.7106  0.2872
 2905SOL     OW11391   1.966   5.777   2.525 -0.0623 -0.4011 -0.4020
 2905SOL    HW211392   2.022   5.699   2.534 -0.2800 -0.6707 -1.2732
 2905SOL    HW311393   1.960   5.791   2.431 -0.5143  0.3214 -0.2703
 2905SOL    MW411394   1.972   5.768   2.514  0.0016 -0.2075 -0.0609
 2906SOL     OW11395   4.596   0.347   2.227  0.4106  0.4915 -0.0201
 2906SOL    HW211396   4.577   0.432   2.267 -0.0634 -0.0114  0.8510
 2906SOL    HW311397   4.510   0.313   2.203  0.5405 -0.0328  0.2521
 2906SOL    MW411398   4.582   0.354   2.229  0.4180 -0.0496  0.4081
 2907SOL     OW11399   2.620   1.294   5.387 -0.3505  0.4058 -0.0177
 2907SOL    HW211400   2.560   1.334   5.323  0.0325  0.0250 -0.6229
 2907SOL    HW311401   2.652   1.368   5.438 -1.5294  0.5937  0.4989
 2907SOL    MW411402   2.616   1.309   5.385 -0.5140  0.1345 -0.1286
 2908SOL     OW11403   6.044   0.617   6.281 -0.1254 -0.7748  0.9580
 2908SOL    HW211404   6.137   0.596   6.271  0.2148  0.6148  0.9836
 2908SOL    HW311405   6.043   0.705   6.317 -1.4599 -0.5512  0.4429
 2908SOL    MW411406   6.056   0.626   6.284  0.0187  0.2194  0.6189
 2909SOL     OW11407   4.217   4.661   0.807 -0.3527  0.2057 -0.2948
 2909SOL    HW211408   4.146   4.699   0.859 -1.4100 -1.1386 -0.6751
 2909SOL    HW311409   4.199   4.567   0.807  0.9679 -0.0797 -1.1102
 2909SOL    MW411410   4.205   4.653   0.814  0.5064 -0.7368  0.6266
 2910SOL     OW11411   5.784   2.213   0.671 -0.5306  0.1392 -0.1861
 2910SOL    HW211412   5.801   2.182   0.582 -0.4080 -0.4575  0.0396
 2910SOL    HW311413   5.720   2.151   0.706 -0.0578 -0.0422  0.3742
 2910SOL    MW411414   5.778   2.201   0.664 -0.8035  0.0880  0.3517
 2911SOL     OW11415   5.519   3.218   2.111 -0.0500 -1.1369 -0.0064
 2911SOL    HW211416   5.450   3.284   2.101  0.7687 -0.3380 -0.4675
 2911SOL    HW311417   5.483   3.139   2.071 -0.3464 -0.4746 -1.0891
 2911SOL    MW411418   5.505   3.216   2.105 -0.1868  0.0479  0.1478
 2912SOL     OW11419   3.038   4.606   0.856 -0.5149  0.5113 -0.3939
 2912SOL    HW211420   2.965   4.545   0.866 -0.4689  0.4379 -0.5070
 2912SOL    HW311421   3.116   4.550   0.858 -0.4471  0.6141 -0.0154
 2912SOL    MW411422   3.039   4.591   0.858  0.6237 -0.2378 -0.5399
 2913SOL     OW11423   1.728   3.874   6.106  0.4131 -0.0808 -0.0803
 2913SOL    HW211424   1.665   3.862   6.178 -0.3327 -2.0429 -0.9931
 2913SOL    HW311425   1.792   3.804   6.119  2.1708  1.5465  0.5092
 2913SOL    MW411426   1.728   3.863   6.118  0.0409  0.2161 -0.1773
 2914SOL     OW11427   0.006   0.193   5.475 -0.2652 -0.8437 -0.0515
 2914SOL    HW211428   0.084   0.231   5.436 -0.2890 -0.0054  0.6657
 2914SOL    HW311429   0.028   0.101   5.490  0.8764 -0.4434  0.8516
 2914SOL    MW411430   0.019   0.186   5.472  0.0509  0.1837 -0.0732
 2915SOL     OW11431   2.240   3.552   0.962  0.2910 -0.6823 -0.4407
 2915SOL    HW211432   2.273   3.590   0.881  1.1128  1.0374  0.6580
 2915SOL    HW311433   2.181   3.618   0.997  0.1639 -1.2854  0.5144
 2915SOL    MW411434   2.236   3.566   0.956 -0.1449 -0.0812  0.5336
 2916SOL     OW11435   2.111   4.421   1.437  0.3973  0.3827 -0.4557
 2916SOL    HW211436   2.156   4.367   1.371  0.1781  0.6052 -0.7910
 2916SOL    HW311437   2.062   4.358   1.489 -0.9736  0.3676 -1.7075
 2916SOL    MW411438   2.111   4.405   1.435  0.0430 -0.2593  0.4459
 2917SOL     OW11439   2.749   3.161   4.910 -0.0797 -0.9081 -0.7515
 2917SOL    HW211440   2.703   3.108   4.845 -1.8548 -0.1395 -0.1772
 2917SOL    HW311441   2.720   3.127   4.994 -0.2345  0.1223 -0.3729
 2917SOL    MW411442   2.739   3.149   4.912  1.0166 -0.6961 -0.2899
 2918SOL     OW11443   5.702   2.532   2.788  0.1487  0.2179 -0.5113
 2918SOL    HW211444   5.707   2.574   2.702 -3.8341  0.7355 -0.6760
 2918SOL    HW311445   5.713   2.604   2.850  2.4561 -0.0729 -0.4875
 2918SOL    MW411446   5.704   2.547   2.785 -0.7393  0.3672  0.2144
 2919SOL     OW11447   2.958   0.663   6.339 -0.0126 -0.4220 -0.2452
 2919SOL    HW211448   2.937   0.666   6.245  0.0635  0.0118 -0.2525
 2919SOL    HW311449   2.935   0.750   6.371  1.5986  0.0364 -0.2242
 2919SOL    MW411450   2.952   0.675   6.331  0.2102 -0.2433 -0.3592
 2920SOL     OW11451   0.532   1.029   1.897 -0.2184  0.3709  0.5037
 2920SOL    HW211452   0.558   1.031   1.806  2.3829 -0.8900  1.1373
 2920SOL    HW311453   0.436   1.022   1.895 -0.1763 -0.1941 -2.1019
 2920SOL    MW411454   0.523   1.028   1.885  0.2956 -0.0353 -0.8956
 2921SOL     OW11455   4.922   2.997   1.315  0.1972 -0.0311  0.1433
 2921SOL    HW211456   4.833   3.020   1.289  0.3841 -0.2118 -0.6902
 2921SOL    HW311457   4.931   3.032   1.403 -1.4350 -1.9094  1.1277
 2921SOL    MW411458   4.912   3.005   1.323 -0.1715  0.0563  0.4286
 2922SOL     OW11459   2.678   5.621   0.278  0.1649  0.2538  0.4385
 2922SOL    HW211460   2.721   5.535   0.279  0.9608  0.5919 -1.3090
 2922SOL    HW311461   2.656   5.638   0.369 -0.7803 -2.1801  0.7425
 2922SOL    MW411462   2.681   5.612   0.290  0.2716 -0.2325 -0.3376
 2923SOL     OW11463   5.708   5.766   1.556  0.4641 -0.4134 -0.5439
 2923SOL    HW211464   5.690   5.768   1.650 -2.5224 -0.5604 -1.0246
 2923SOL    HW311465   5.804   5.761   1.550  0.7428 -0.3806  2.4574
 2923SOL    MW411466   5.718   5.766   1.568  0.7786 -0.4832 -0.4878
 2924SOL     OW11467   2.454   0.335   4.069  0.3211 -0.5272  0.1666
 2924SOL    HW211468   2.527   0.287   4.110  0.5725  0.9494  1.5464
 2924SOL    HW311469   2.376   0.305   4.116  0.3586 -0.3296  0.3594
 2924SOL    MW411470   2.454   0.325   4.081  0.0772  0.7239 -0.1498
 2925SOL     OW11471   2.335   0.989   0.525 -0.6371  0.2843 -0.4353
 2925SOL    HW211472   2.402   1.055   0.514  0.4213 -0.3505  1.6904
 2925SOL    HW311473   2.323   0.951   0.437  0.9969  1.1151 -1.0451
 2925SOL    MW411474   2.342   0.993   0.512  0.1199 -0.0111 -0.1931
 2926SOL     OW11475   2.358   2.864   1.092  0.8577 -0.0744 -0.5268
 2926SOL    HW211476   2.312   2.869   1.008 -0.1533 -1.5055 -0.1025
 2926SOL    HW311477   2.359   2.954   1.125  2.0589  0.6772 -2.4484
 2926SOL    MW411478   2.352   2.876   1.085 -0.3090  0.0344 -0.7020
 2927SOL     OW11479   5.802   1.149   1.500  0.0035  0.0315  0.3409
 2927SOL    HW211480   5.888   1.191   1.505  0.0871 -0.0844 -0.1065
 2927SOL    HW311481   5.780   1.130   1.591  1.4621 -1.9671  0.3327
 2927SOL    MW411482   5.811   1.152   1.513 -0.3767 -0.7554  0.2592
 2928SOL     OW11483   4.204   5.547   3.920  0.0652  0.3376  0.3476
 2928SOL    HW211484   4.137   5.536   3.852  0.7099 -0.2697 -0.2174
 2928SOL    HW311485   4.157   5.582   3.995 -1.0301 -0.7389  0.1968
 2928SOL    MW411486   4.189   5.550   3.921 -0.5189  0.1489  0.1577
 2929SOL     OW11487   4.183   5.119   5.352 -0.0594  0.1020  0.5556
 2929SOL    HW211488   4.239   5.169   5.412 -0.3199 -0.7878  1.5686
 2929SOL    HW311489   4.100   5.167   5.350  0.1558  0.4707  0.4145
 2929SOL    MW411490   4.180   5.132   5.359 -0.1500  0.2498  0.1869
 2930SOL     OW11491   2.372   6.086   2.654  0.6804  0.4702 -0.7971
 2930SOL    HW211492   2.330   6.001   2.668 -0.9952  1.4411  0.4547
 2930SOL    HW311493   2.410   6.079   2.566 -0.3937 -1.1789 -1.1808
 2930SOL    MW411494   2.371   6.074   2.644 -0.3475  0.7026 -0.4404
 2931SOL     OW11495   2.002   3.301   6.242  0.2853 -0.1362  0.2408
 2931SOL    HW211496   2.014   3.396   6.241  0.9110 -0.1867  1.1487
 2931SOL    HW311497   2.064   3.270   6.308 -0.0233 -1.1626  0.0688
 2931SOL    MW411498   2.011   3.310   6.251  0.3382  0.2049  0.2930
 2932SOL     OW11499   2.069   1.079   5.582  0.1768  0.3852 -0.3518
 2932SOL    HW211500   2.022   0.996   5.589  0.1752  0.4111 -0.0405
 2932SOL    HW311501   2.145   1.069   5.639 -0.1719  0.8306  0.2035
 2932SOL    MW411502   2.073   1.067   5.591 -0.5796 -0.1401 -0.0477
 2933SOL     OW11503   5.815   5.764   3.303  0.4694 -0.2566  0.1287
 2933SOL    HW211504   5.726   5.733   3.317  0.1902  0.5084  0.0961
 2933SOL    HW311505   5.852   5.703   3.239  0.3531 -1.2414  0.9633
 2933SOL    MW411506   5.808   5.752   3.296  0.8153  0.3995 -0.1552
 2934SOL     OW11507   1.288   4.697   5.309  0.0427 -0.2942 -0.0381
 2934SOL    HW211508   1.382   4.717   5.316 -0.1033 -0.0301  1.5071
 2934SOL    HW311509   1.278   4.615   5.358 -0.7322  0.4130  1.0389
 2934SOL    MW411510   1.299   4.689   5.317  0.3706 -0.0873 -0.0816
 2935SOL     OW11511   4.822   0.912   1.594 -0.4096  0.5626  0.5722
 2935SOL    HW211512   4.769   0.976   1.546 -0.7654 -0.1379  0.0193
 2935SOL    HW311513   4.806   0.931   1.686 -0.3895  1.3683  0.4167
 2935SOL    MW411514   4.813   0.923   1.600  0.0993  0.0019 -0.6166
 2936SOL     OW11515   4.994   2.341   1.265  0.1553 -0.5165 -0.3548
 2936SOL    HW211516   5.049   2.304   1.196  1.0290  0.2157 -0.0868
 2936SOL    HW311517   5.033   2.427   1.282 -1.1957  0.0990 -0.2719
 2936SOL    MW411518   5.007   2.348   1.258  0.0277  0.2136  0.3412
 2937SOL     OW11519   2.246   2.789   4.632  0.7709 -0.0369 -0.0873
 2937SOL    HW211520   2.217   2.704   4.599  2.1588 -0.2649 -0.7853
 2937SOL    HW311521   2.166   2.841   4.638 -0.0647 -1.2919  0.0811
 2937SOL    MW411522   2.232   2.784   4.629 -0.0113  0.2768 -0.2307
 2938SOL     OW11523   1.855   2.187   5.629 -0.1033  0.1515 -0.2060
 2938SOL    HW211524   1.837   2.279   5.647 -1.7375 -0.0466 -0.6306
 2938SOL    HW311525   1.913   2.159   5.701  0.3737  1.4774 -0.0485
 2938SOL    MW411526   1.860   2.195   5.641  1.5673 -0.4762  0.2331
 2939SOL     OW11527   3.576   0.940   0.390  0.1091  0.7079 -0.6893
 2939SOL    HW211528   3.512   1.011   0.402  0.0694  0.5740 -0.0520
 2939SOL    HW311529   3.645   0.960   0.452  0.4998  0.6338 -1.0972
 2939SOL    MW411530   3.576   0.952   0.400  0.0978  0.1419  1.0710
 2940SOL     OW11531   4.658   6.270   0.598  0.0272 -0.1167 -0.2020
 2940SOL    HW211532   4.653   6.363   0.575 -1.2248  0.3369  1.6971
 2940SOL    HW311533   4.721   6.234   0.536 -0.9438  1.5691 -2.3087
 2940SOL    MW411534   4.665   6.278   0.587 -0.4047  0.5824  0.4747
 2941SOL     OW11535   5.378   0.440   5.560  0.3698 -0.1649 -0.3496
 2941SOL    HW211536   5.368   0.355   5.516 -0.1220 -0.1077 -0.3499
 2941SOL    HW311537   5.350   0.504   5.495 -0.8640 -0.1109  0.2051
 2941SOL    MW411538   5.373   0.437   5.546  0.1921  0.1336  0.1174
 2942SOL     OW11539   3.578   0.398   5.363 -0.3354 -0.2511  0.0995
 2942SOL    HW211540   3.524   0.397   5.443 -3.4722  0.5892 -1.8385
 2942SOL    HW311541   3.630   0.477   5.370 -1.9361  0.8107  0.5353
 2942SOL    MW411542   3.577   0.408   5.375 -0.5249  0.0211  0.1877
 2943SOL     OW11543   5.263   1.391   1.468  0.0698 -0.4491  0.6027
 2943SOL    HW211544   5.220   1.337   1.402  1.1577 -1.0635  0.3721
 2943SOL    HW311545   5.191   1.429   1.519 -0.7556 -3.3127  1.7678
 2943SOL    MW411546   5.248   1.389   1.466  0.7364 -0.2265  0.4092
 2944SOL     OW11547   2.323   4.714   3.199 -0.0628  0.0355  0.3235
 2944SOL    HW211548   2.275   4.763   3.133  1.8624  1.0167 -0.4145
 2944SOL    HW311549   2.322   4.623   3.168 -0.0894  0.3140 -0.4852
 2944SOL    MW411550   2.317   4.708   3.186  0.1587  0.7929  0.3137
 2945SOL     OW11551   5.424   5.387   2.251  0.0251 -0.3803 -0.4348
 2945SOL    HW211552   5.329   5.396   2.254  0.2300  2.6940  0.7031
 2945SOL    HW311553   5.444   5.320   2.316 -1.3181 -0.1174  0.2893
 2945SOL    MW411554   5.414   5.379   2.260 -0.2096  0.5605 -0.4731
 2946SOL     OW11555   1.573   1.831   3.947 -0.5239  0.5770 -0.5269
 2946SOL    HW211556   1.640   1.777   3.905  0.6826  1.4011  0.2596
 2946SOL    HW311557   1.559   1.789   4.032 -0.5954  0.7266 -0.4648
 2946SOL    MW411558   1.580   1.818   3.953 -0.0295 -0.0127 -0.1828
 2947SOL     OW11559   0.868   1.358   3.634  0.3775  0.4352  0.3437
 2947SOL    HW211560   0.854   1.268   3.664 -0.2620  0.6668  0.7554
 2947SOL    HW311561   0.847   1.412   3.710 -1.4117  1.0435 -0.5325
 2947SOL    MW411562   0.864   1.353   3.648 -0.4700 -0.8240 -0.8095
 2948SOL     OW11563   5.111   3.408   3.263  0.3698  0.5444 -0.1041
 2948SOL    HW211564   5.149   3.360   3.189 -0.2989  0.8004 -0.6272
 2948SOL    HW311565   5.020   3.423   3.237  0.3150  1.2501  0.4714
 2948SOL    MW411566   5.104   3.403   3.249  0.0408 -0.3985 -0.1700
 2949SOL     OW11567   3.398   0.023   4.653  0.1648 -0.0574  0.2342
 2949SOL    HW211568   3.490   0.047   4.639 -0.0166  0.6092  0.1555
 2949SOL    HW311569   3.402  -0.056   4.707  0.8418 -1.3624 -1.6012
 2949SOL    MW411570   3.411   0.016   4.658  0.0580 -0.1128  0.0308
 2950SOL     OW11571   3.717   2.457   4.222 -0.2368  0.1429 -0.0109
 2950SOL    HW211572   3.654   2.443   4.151 -1.0146  1.5328  0.3724
 2950SOL    HW311573   3.692   2.394   4.289 -0.4726 -0.1187 -0.3398
 2950SOL    MW411574   3.706   2.447   4.221 -0.6402  0.2923  0.3814
 2951SOL     OW11575   2.873   5.960   3.584  0.1992  0.4281 -0.0792
 2951SOL    HW211576   2.835   5.989   3.667 -2.2637 -0.7435 -0.6965
 2951SOL    HW311577   2.800   5.964   3.522  1.2514 -1.3637 -1.5310
 2951SOL    MW411578   2.858   5.965   3.587 -0.1481 -0.4211 -1.0485
 2952SOL     OW11579   0.017   6.396   4.687  0.7048  0.7276  0.2358
 2952SOL    HW211580   0.094   6.417   4.739 -0.0931  2.8057  0.6965
 2952SOL    HW311581  -0.024   6.323   4.732  2.3024 -0.3497  0.0418
 2952SOL    MW411582   0.022   6.389   4.700  0.2622  1.4172 -0.3143
 2953SOL     OW11583   4.547   4.448   2.373 -0.2004  0.2940 -0.4580
 2953SOL    HW211584   4.628   4.497   2.389  0.4299 -0.6395 -0.7163
 2953SOL    HW311585   4.482   4.491   2.429  0.8151  0.1398  0.8894
 2953SOL    MW411586   4.549   4.460   2.383 -0.0363 -0.2891 -0.2597
 2954SOL     OW11587   1.571   0.606   2.039  0.4707 -0.1832  0.0537
 2954SOL    HW211588   1.579   0.667   1.966  0.6006 -2.6099 -2.0712
 2954SOL    HW311589   1.658   0.604   2.079  0.2560  1.5738  0.6994
 2954SOL    MW411590   1.583   0.614   2.035  0.4850 -0.2268 -0.2724
 2955SOL     OW11591   2.866   4.842   5.129  0.4780  0.5971 -0.0023
 2955SOL    HW211592   2.806   4.891   5.073  0.6406  2.0757  1.0560
 2955SOL    HW311593   2.856   4.882   5.216  1.6970 -0.2975  0.5779
 2955SOL    MW411594   2.857   4.854   5.133  0.0087 -0.0060 -0.3582
 2956SOL     OW11595   0.463   1.060   1.402  0.3337  0.0767 -0.0243
 2956SOL    HW211596   0.477   1.146   1.362  0.6801  0.0739  0.0830
 2956SOL    HW311597   0.455   1.000   1.327  0.7093  0.1120 -0.0958
 2956SOL    MW411598   0.464   1.063   1.387  0.1305 -0.0790  0.6512
 2957SOL     OW11599   4.657   6.199   4.872  0.1515  0.2993  0.5526
 2957SOL    HW211600   4.631   6.284   4.835  1.2050  1.3827  2.1750
 2957SOL    HW311601   4.574   6.153   4.886 -0.4150  0.8812 -0.7221
 2957SOL    MW411602   4.643   6.205   4.869 -0.1858  0.1023 -0.1726
 2958SOL     OW11603   1.283   5.297   2.303 -0.2523  0.1883  0.3006
 2958SOL    HW211604   1.329   5.217   2.276  1.7078  0.8564  1.4806
 2958SOL    HW311605   1.324   5.366   2.252  0.3019  0.8466  1.6130
 2958SOL    MW411606   1.295   5.295   2.293  0.1061 -0.1605  0.2777
 2959SOL     OW11607   3.443   1.063   5.405  0.3333  0.1855 -0.0442
 2959SOL    HW211608   3.380   1.063   5.477  0.4227  0.2583  0.0332
 2959SOL    HW311609   3.517   1.114   5.437 -0.3920  1.8275 -0.8219
 2959SOL    MW411610   3.444   1.070   5.419  0.2776  0.1046 -0.1069
 2960SOL     OW11611   0.554   0.609   1.111 -0.2523  0.6435  0.4107
 2960SOL    HW211612   0.639   0.566   1.118  0.0815  1.0439 -0.8391
 2960SOL    HW311613   0.556   0.651   1.025 -0.6738  2.8909  1.4109
 2960SOL    MW411614   0.566   0.609   1.101 -0.2572  0.5126  0.1416
 2961SOL     OW11615   1.017   5.350   6.108  0.3234 -0.0644 -0.3368
 2961SOL    HW211616   0.982   5.341   6.019  0.1791 -1.0514 -0.1931
 2961SOL    HW311617   1.073   5.427   6.104  1.1861 -0.7240 -1.5606
 2961SOL    MW411618   1.019   5.359   6.095 -0.4477  0.4749  0.2923
 2962SOL     OW11619   3.098   5.736   4.348  0.1994 -0.9131 -0.0875
 2962SOL    HW211620   3.156   5.763   4.419 -1.3096 -0.7771  1.1535
 2962SOL    HW311621   3.031   5.682   4.390 -0.9296 -0.5525 -1.3269
 2962SOL    MW411622   3.096   5.733   4.363  0.4296 -0.3515 -0.2184
 2963SOL     OW11623   2.274   4.486   0.639  0.3514  0.5546 -0.3081
 2963SOL    HW211624   2.322   4.546   0.697 -0.3819  1.2422 -0.3972
 2963SOL    HW311625   2.195   4.534   0.615 -0.5477 -0.6985  0.0965
 2963SOL    MW411626   2.270   4.500   0.643  0.2685  0.0774 -0.0784
 2964SOL     OW11627   2.298   0.723   3.176 -0.3568 -0.2468  0.3994
 2964SOL    HW211628   2.271   0.666   3.248  1.1702  0.1995  1.3509
 2964SOL    HW311629   2.393   0.719   3.176  0.1614  4.8100  2.6953
 2964SOL    MW411630   2.307   0.715   3.186 -0.1702 -0.4452 -0.0665
 2965SOL     OW11631   6.382   0.328   5.769 -0.6501  0.0348  0.3369
 2965SOL    HW211632   6.315   0.261   5.780 -1.4638  0.8106  0.2603
 2965SOL    HW311633   6.404   0.324   5.676 -2.5968  1.5818 -0.2543
 2965SOL    MW411634   6.376   0.319   5.758 -0.4411 -0.4629  0.0257
 2966SOL     OW11635   5.691   1.432   0.522  0.0102 -0.0925  0.1944
 2966SOL    HW211636   5.785   1.420   0.505 -0.0020 -0.8624  0.6471
 2966SOL    HW311637   5.653   1.442   0.435  0.4397 -0.3739 -0.0323
 2966SOL    MW411638   5.699   1.432   0.508  0.8183 -0.3511  0.1569
 2967SOL     OW11639   5.603   6.148   0.345 -0.0931 -0.0879  0.1338
 2967SOL    HW211640   5.602   6.060   0.307 -0.0572 -0.9441  2.0382
 2967SOL    HW311641   5.672   6.193   0.296 -0.2653 -1.0248 -1.0312
 2967SOL    MW411642   5.612   6.142   0.333 -0.3839  0.0976  0.0602
 2968SOL     OW11643   1.369   4.884   0.613 -0.0258  0.1107  0.3788
 2968SOL    HW211644   1.337   4.825   0.544 -2.3319 -0.8921  2.1813
 2968SOL    HW311645   1.377   4.969   0.569  0.4995 -0.8948 -1.5823
 2968SOL    MW411646   1.366   4.888   0.598 -0.3022 -0.5262  0.1739
 2969SOL     OW11647   4.254   1.872   0.321  0.0602  0.5735  0.0379
 2969SOL    HW211648   4.182   1.933   0.334 -0.4072 -0.1766  1.1312
 2969SOL    HW311649   4.226   1.792   0.366  1.5378  0.2517  0.4432
 2969SOL    MW411650   4.241   1.869   0.329 -0.0972  0.4448 -0.2266
 2970SOL     OW11651   6.275   3.392   5.308 -0.0248  0.6009  0.3111
 2970SOL    HW211652   6.254   3.299   5.311 -1.7422  0.9358 -0.1827
 2970SOL    HW311653   6.345   3.399   5.243 -0.0901 -0.2885  0.1300
 2970SOL    MW411654   6.282   3.381   5.300  0.6563 -0.0631 -0.5862
 2971SOL     OW11655   3.899   2.061   4.190  0.7889 -0.0690 -0.0347
 2971SOL    HW211656   3.894   2.052   4.095  0.0039 -0.2783  0.0141
 2971SOL    HW311657   3.971   2.004   4.217  0.7118 -0.3683 -0.4618
 2971SOL    MW411658   3.908   2.052   4.181 -0.7311  0.5672 -0.0445
 2972SOL     OW11659   3.836   1.429   1.211 -0.2317  0.3418  0.3013
 2972SOL    HW211660   3.771   1.424   1.281  0.5662 -0.9692  0.9802
 2972SOL    HW311661   3.784   1.436   1.131 -1.1768  0.8503  0.9417
 2972SOL    MW411662   3.820   1.429   1.209 -0.3787 -0.1909  0.5998
 2973SOL     OW11663   2.801   0.225   0.223 -0.1265  0.3156 -0.1038
 2973SOL    HW211664   2.831   0.247   0.135 -0.4874 -0.2553 -0.3764
 2973SOL    HW311665   2.804   0.130   0.227  2.4103  0.3746  1.4290
 2973SOL    MW411666   2.805   0.216   0.212 -0.0956  0.1880  0.5947
 2974SOL     OW11667   2.668   6.334   5.422 -0.4693 -0.3394  0.2160
 2974SOL    HW211668   2.613   6.413   5.423 -1.8393 -1.2637  0.1430
 2974SOL    HW311669   2.606   6.262   5.413  0.7905 -1.4138 -0.1073
 2974SOL    MW411670   2.652   6.335   5.421 -0.4373 -0.4806  0.0548
 2975SOL     OW11671   1.798   0.023   5.539  0.0640  0.1796  0.6008
 2975SOL    HW211672   1.813   0.117   5.535  0.2805  0.1068 -1.3276
 2975SOL    HW311673   1.733   0.006   5.470  1.7262 -1.3274 -0.7121
 2975SOL    MW411674   1.792   0.033   5.529  0.0147 -0.1474  0.0661
 2976SOL     OW11675   3.086   5.779   2.415 -0.1877 -0.4603 -0.3018
 2976SOL    HW211676   3.106   5.733   2.334 -1.5493 -0.3301 -0.7378
 2976SOL    HW311677   3.072   5.870   2.389  0.3288 -0.2236  0.2280
 2976SOL    MW411678   3.086   5.785   2.401  0.2739  0.4108 -0.1084
 2977SOL     OW11679   5.157   0.124   2.670 -0.2833  0.8995  0.3649
 2977SOL    HW211680   5.202   0.068   2.733 -0.0771 -0.1329 -0.6758
 2977SOL    HW311681   5.068   0.089   2.665  0.0606  0.1603 -0.8577
 2977SOL    MW411682   5.151   0.112   2.678 -0.1876 -1.1732 -0.3865
 2978SOL     OW11683   3.097   3.477   3.800  0.0079  0.2739 -0.0394
 2978SOL    HW211684   3.093   3.404   3.738  0.3549  1.2132 -1.1802
 2978SOL    HW311685   3.059   3.551   3.753  2.3878  1.5959 -0.0144
 2978SOL    MW411686   3.091   3.477   3.786  0.2506 -0.0689 -0.5649
 2979SOL     OW11687   3.443   2.030   2.468 -0.3984  0.0785  0.4410
 2979SOL    HW211688   3.483   2.075   2.542  1.6979  1.6315 -1.5017
 2979SOL    HW311689   3.459   1.937   2.484  1.2830  0.4835  1.2448
 2979SOL    MW411690   3.450   2.023   2.479  0.1645  1.1204 -0.0845
 2980SOL     OW11691   3.347   3.180   5.828 -0.0607  0.0580 -0.2874
 2980SOL    HW211692   3.302   3.204   5.909 -0.2244 -0.0468 -0.3455
 2980SOL    HW311693   3.309   3.239   5.762  0.9439  0.9803 -0.0629
 2980SOL    MW411694   3.336   3.191   5.830  0.2777  0.3915  0.0466
 2981SOL     OW11695   3.036  -0.001   1.965 -0.3162  0.3578  0.0128
 2981SOL    HW211696   3.013   0.059   2.036  1.1649 -1.3222  2.0442
 2981SOL    HW311697   3.014  -0.088   2.000  3.0439 -0.7677 -0.3614
 2981SOL    MW411698   3.030  -0.005   1.979 -0.2898 -0.7663  0.2829
 2982SOL     OW11699   3.813   2.066   1.800  0.5966  0.3604 -0.0525
 2982SOL    HW211700   3.818   2.010   1.723  1.9276 -1.6471  1.3875
 2982SOL    HW311701   3.880   2.133   1.786  0.1239  0.6398 -1.0573
 2982SOL    MW411702   3.822   2.067   1.788  0.8019 -0.0701  0.5532
 2983SOL     OW11703   0.384   4.660   0.093 -0.3262  0.2807  0.2441
 2983SOL    HW211704   0.361   4.646   0.185  1.1154  0.6065  0.6936
 2983SOL    HW311705   0.381   4.755   0.082 -2.6683  0.1534 -0.6942
 2983SOL    MW411706   0.381   4.671   0.104  0.1227  0.1206  0.8850
 2984SOL     OW11707   4.904   0.079   0.806  0.1731  0.6531  0.4258
 2984SOL    HW211708   4.840   0.135   0.851 -1.6293 -1.1918  0.3213
 2984SOL    HW311709   4.926   0.127   0.726 -0.3864  1.7532  0.9125
 2984SOL    MW411710   4.898   0.093   0.801 -0.2873 -0.0642 -0.0881
 2985SOL     OW11711   3.717   3.642   2.367  0.7696 -0.1944 -0.4313
 2985SOL    HW211712   3.739   3.662   2.458  0.9916  0.3234 -0.5930
 2985SOL    HW311713   3.647   3.578   2.373  1.2244 -0.6628  0.1047
 2985SOL    MW411714   3.711   3.636   2.380 -0.0037 -0.5476  0.0935
 2986SOL     OW11715   3.811   2.557   5.251  0.5234  0.2685 -0.2686
 2986SOL    HW211716   3.783   2.471   5.220 -0.4460  0.2043  0.7183
 2986SOL    HW311717   3.738   2.588   5.305  1.8203  0.6831  1.3154
 2986SOL    MW411718   3.798   2.550   5.254 -0.3689  0.2129 -0.2006
 2987SOL     OW11719   0.850   0.215   4.351 -0.0022 -0.3170  0.7213
 2987SOL    HW211720   0.934   0.260   4.363  0.1943  0.4953 -2.6531
 2987SOL    HW311721   0.867   0.126   4.384  1.8819  0.0759  0.9711
 2987SOL    MW411722   0.864   0.209   4.357  0.0056 -0.2351  0.4951
 2988SOL     OW11723   2.658   5.620   6.231 -0.3622  0.2736  0.1653
 2988SOL    HW211724   2.594   5.549   6.229  0.1637 -0.2085  0.1589
 2988SOL    HW311725   2.726   5.588   6.290  1.1127 -0.2965 -1.7722
 2988SOL    MW411726   2.658   5.607   6.239 -0.0274  0.7118  1.0349
 2989SOL     OW11727   2.731   3.503   3.509 -0.1900 -0.5018 -0.0340
 2989SOL    HW211728   2.665   3.442   3.542 -0.6695  0.2421  0.4118
 2989SOL    HW311729   2.714   3.508   3.415 -0.4344 -0.7121  0.0000
 2989SOL    MW411730   2.720   3.496   3.501  0.1249  0.2782 -0.4228
 2990SOL     OW11731   5.617   3.727   2.808 -0.4310  0.3801 -0.2698
 2990SOL    HW211732   5.637   3.643   2.765  0.1182  0.6652 -0.5826
 2990SOL    HW311733   5.623   3.708   2.902  4.7253  1.1007 -0.1427
 2990SOL    MW411734   5.620   3.713   2.815  0.3972  0.2248 -0.3835
 2991SOL     OW11735   1.364   2.644   3.375  0.4852  0.8435  0.5130
 2991SOL    HW211736   1.275   2.671   3.396  0.0214  1.8607 -2.3563
 2991SOL    HW311737   1.361   2.549   3.378 -0.3330  0.8818  1.6765
 2991SOL    MW411738   1.352   2.635   3.378 -0.2989  0.2772 -0.2907
 2992SOL     OW11739   0.879   3.341   2.059 -0.0582 -0.6965  0.0375
 2992SOL    HW211740   0.967   3.303   2.062  0.0970 -0.3796 -0.5227
 2992SOL    HW311741   0.832   3.287   1.996  0.5307  0.7745 -1.7595
 2992SOL    MW411742   0.885   3.329   2.051  0.2525  0.3050 -0.3104
 2993SOL     OW11743   5.585   0.587   3.150 -0.0134  0.0181 -0.0926
 2993SOL    HW211744   5.636   0.515   3.112 -1.0791 -0.5289 -0.5612
 2993SOL    HW311745   5.646   0.660   3.156  0.6887 -0.4580 -1.1221
 2993SOL    MW411746   5.600   0.587   3.146  0.1137  0.1897  0.1454
 2994SOL     OW11747   4.851   3.427   2.444 -0.1229  0.4139 -0.2050
 2994SOL    HW211748   4.888   3.411   2.531 -2.3303  1.1584  0.9351
 2994SOL    HW311749   4.811   3.344   2.419  0.8243  0.0925 -0.7066
 2994SOL    MW411750   4.851   3.414   2.452 -0.3449  0.2599 -0.0301
 2995SOL     OW11751   4.778   0.548   1.027  0.1954 -0.2804  0.1505
 2995SOL    HW211752   4.822   0.495   1.094  1.1858  1.9391  1.3810
 2995SOL    HW311753   4.705   0.589   1.074 -0.3048 -0.2417 -0.6561
 2995SOL    MW411754   4.775   0.546   1.042 -0.1272  0.0773  0.3751
 2996SOL     OW11755   1.925   6.359   1.667  0.4662 -0.1718 -0.3351
 2996SOL    HW211756   1.843   6.363   1.616  0.0223 -1.2494  0.2595
 2996SOL    HW311757   1.909   6.417   1.741 -0.1524 -1.1002  0.2871
 2996SOL    MW411758   1.912   6.367   1.670  0.5909  0.1505 -0.0768
 2997SOL     OW11759   1.547   0.000   2.790 -0.0523  0.0898  0.0947
 2997SOL    HW211760   1.538  -0.019   2.697  1.0083  0.2488 -0.0506
 2997SOL    HW311761   1.641   0.006   2.804 -0.2139  0.3599  1.1215
 2997SOL    MW411762   1.558  -0.002   2.780 -0.0618  0.9835 -0.2162
 2998SOL     OW11763   1.754   4.031   5.323 -0.2751 -0.1318  0.1114
 2998SOL    HW211764   1.729   3.968   5.391  1.0364 -0.2443  0.5215
 2998SOL    HW311765   1.692   4.103   5.332 -0.1859 -0.1963  1.3759
 2998SOL    MW411766   1.743   4.032   5.333 -0.2419  0.0596 -0.0278
 2999SOL     OW11767   1.168   4.144   1.265 -0.6909 -0.0420  0.0104
 2999SOL    HW211768   1.186   4.054   1.238  0.3760 -0.1200  0.9274
 2999SOL    HW311769   1.090   4.138   1.320  0.4878 -0.7041  1.6631
 2999SOL    MW411770   1.160   4.131   1.269 -0.7786  0.6562  0.7135
 3000SOL     OW11771   4.264   4.212   4.061 -0.6110 -1.1462  0.1181
 3000SOL    HW211772   4.309   4.260   3.991 -1.2416 -1.4327 -0.5022
 3000SOL    HW311773   4.244   4.278   4.127 -1.1564 -0.6142 -0.5638
 3000SOL    MW411774   4.267   4.227   4.060  0.0353  0.5760  0.1737
 3001SOL     OW11775   2.469   5.353   5.526 -0.3647  0.1615  0.2617
 3001SOL    HW211776   2.532   5.351   5.454  0.2539 -2.2188  0.7588
 3001SOL    HW311777   2.492   5.430   5.577  1.5826 -0.1420 -0.0903
 3001SOL    MW411778   2.480   5.363   5.523  0.1540  0.0523  0.4764
 3002SOL     OW11779   2.123   2.902   2.815 -0.6186 -0.0373 -0.2115
 3002SOL    HW211780   2.125   2.807   2.801  1.8988 -0.4778  2.1547
 3002SOL    HW311781   2.048   2.916   2.872  0.7852 -1.1913  2.0654
 3002SOL    MW411782   2.114   2.891   2.821  0.5521  0.0243  0.0265
 3003SOL     OW11783   5.828   1.600   1.128 -0.0338 -0.4801  0.0035
 3003SOL    HW211784   5.839   1.580   1.221  1.5478 -0.8343 -0.2312
 3003SOL    HW311785   5.739   1.634   1.122  0.1761  0.5418  1.8103
 3003SOL    MW411786   5.817   1.602   1.140 -1.6807 -0.2680 -0.2812
 3004SOL     OW11787   1.387   6.299   3.420 -0.7414 -0.9121 -0.8071
 3004SOL    HW211788   1.338   6.304   3.338  0.7048 -0.4242 -1.6823
 3004SOL    HW311789   1.479   6.287   3.393  0.0794  1.4771  0.6461
 3004SOL    MW411790   1.393   6.298   3.405 -0.8562  0.8028  0.0856
 3005SOL     OW11791   6.371   1.014   0.848 -0.2011  0.1420  0.0252
 3005SOL    HW211792   6.332   1.093   0.884 -0.4101  0.0579 -0.0150
 3005SOL    HW311793   6.297   0.965   0.811 -0.2978 -0.7283  1.2822
 3005SOL    MW411794   6.356   1.018   0.848 -0.2036  0.9046  0.1560
 3006SOL     OW11795   2.670   1.652   2.401 -0.7589  0.1857  0.2190
 3006SOL    HW211796   2.687   1.715   2.471 -0.0549 -0.6354  0.8175
 3006SOL    HW311797   2.576   1.638   2.404 -0.5957 -0.8698  1.9651
 3006SOL    MW411798   2.660   1.659   2.411  0.1319 -0.4510 -0.1201
 3007SOL     OW11799   1.370   3.570   5.434  0.7993  0.5792 -0.1594
 3007SOL    HW211800   1.422   3.497   5.401 -1.0428 -1.8784  1.9612
 3007SOL    HW311801   1.290   3.568   5.380 -0.2727 -0.5848  1.3810
 3007SOL    MW411802   1.366   3.560   5.422 -0.4078 -0.3227  0.1315
 3008SOL     OW11803   3.554   5.213   2.637  0.4282 -0.0053 -0.2373
 3008SOL    HW211804   3.584   5.290   2.588  1.2765 -0.3647 -0.2873
 3008SOL    HW311805   3.518   5.250   2.718  0.9771  0.4414 -0.1888
 3008SOL    MW411806   3.553   5.228   2.641  0.7156  0.7098  0.7126
 3009SOL     OW11807   5.317   6.190   0.375  0.1454 -0.0961  0.2992
 3009SOL    HW211808   5.410   6.214   0.377  0.1438 -0.1262  1.3188
 3009SOL    HW311809   5.273   6.269   0.344  0.4397  0.2052  0.6310
 3009SOL    MW411810   5.323   6.204   0.372 -0.3317  0.1611 -0.1484
 3010SOL     OW11811   0.716   5.211   2.827  0.2163 -0.8696  0.3015
 3010SOL    HW211812   0.674   5.284   2.782  1.5315 -0.7117 -0.7260
 3010SOL    HW311813   0.686   5.133   2.780  0.4316 -0.8169  0.0726
 3010SOL    MW411814   0.707   5.210   2.815  0.6199  0.4104 -0.5639
 3011SOL     OW11815   3.381   0.881   3.303  0.2260 -0.2057  0.3288
 3011SOL    HW211816   3.414   0.879   3.213 -2.8541 -2.2692 -0.9484
 3011SOL    HW311817   3.327   0.960   3.307  1.9836  1.0194  1.1358
 3011SOL    MW411818   3.378   0.891   3.292 -0.2953  0.0434 -0.6847
 3012SOL     OW11819   2.852   5.609   4.435  0.1195 -0.0842  0.0130
 3012SOL    HW211820   2.894   5.559   4.505 -1.2042 -0.1778  0.7789
 3012SOL    HW311821   2.764   5.629   4.469 -0.8428 -0.7939 -1.9180
 3012SOL    MW411822   2.846   5.605   4.449 -0.2202 -0.0909  0.0392
 3013SOL     OW11823   2.850   6.068   0.033 -0.1810 -0.3406  0.0608
 3013SOL    HW211824   2.820   6.114   0.111  1.0756  1.0796 -0.2480
 3013SOL    HW311825   2.845   5.976   0.056 -3.0904 -0.1575  0.5976
 3013SOL    MW411826   2.845   6.062   0.046 -0.1620  0.4049 -1.0149
 3014SOL     OW11827   1.739   3.880   5.107  0.4112 -0.2229 -0.1432
 3014SOL    HW211828   1.830   3.869   5.080  0.3788  2.2131 -1.4845
 3014SOL    HW311829   1.744   3.941   5.181 -0.1763  0.2478 -0.4945
 3014SOL    MW411830   1.752   3.886   5.113 -0.4743 -0.2797  0.1731
 3015SOL     OW11831   0.358   0.429   5.671 -0.0406  0.3951 -0.2705
 3015SOL    HW211832   0.329   0.474   5.592 -2.3887 -1.1017 -0.3536
 3015SOL    HW311833   0.293   0.454   5.737  0.4934 -0.2883  0.5315
 3015SOL    MW411834   0.345   0.438   5.670  0.4098  0.0885 -0.1332
 3016SOL     OW11835   3.423   3.808   2.432  0.4863 -0.4458  0.3412
 3016SOL    HW211836   3.512   3.808   2.468  0.1533 -0.6298  1.1874
 3016SOL    HW311837   3.378   3.878   2.479 -0.2439 -1.3568  1.0495
 3016SOL    MW411838   3.429   3.817   2.443  0.6502  0.1732  0.1171
 3017SOL     OW11839   5.621   1.827   5.047 -0.2108  0.5287  0.5193
 3017SOL    HW211840   5.647   1.871   5.128  0.0135 -0.3749  0.9483
 3017SOL    HW311841   5.640   1.735   5.063  1.0968  0.4910 -1.0411
 3017SOL    MW411842   5.627   1.821   5.060  0.0291  0.3609 -0.3895
 3018SOL     OW11843   3.468   0.034   5.175  0.4734  0.2062 -0.1823
 3018SOL    HW211844   3.384   0.061   5.139 -0.3350 -3.4817 -1.5896
 3018SOL    HW311845   3.450   0.016   5.267 -0.3093 -0.4070 -0.4379
 3018SOL    MW411846   3.454   0.035   5.182  0.2104 -0.0361  0.5831
 3019SOL     OW11847   0.215   5.232   2.136  0.0457  0.1632  0.0668
 3019SOL    HW211848   0.229   5.303   2.074  0.5498  0.8904  0.9964
 3019SOL    HW311849   0.284   5.169   2.116 -1.0183 -0.5926 -1.4420
 3019SOL    MW411850   0.226   5.233   2.125 -0.2310  0.0976  0.1218
 3020SOL     OW11851   6.102   4.442   3.737 -0.6225 -0.0131  0.3211
 3020SOL    HW211852   6.156   4.441   3.816 -2.8531  2.0602  2.0195
 3020SOL    HW311853   6.093   4.350   3.713 -0.4625 -0.8038  2.9711
 3020SOL    MW411854   6.108   4.430   3.745  0.1188 -0.0175 -0.4770
 3021SOL     OW11855   2.359   2.809   4.380 -0.0962  0.0802  0.5092
 3021SOL    HW211856   2.413   2.740   4.418 -0.0248 -0.5727 -0.7034
 3021SOL    HW311857   2.285   2.818   4.440  0.3189 -0.4595  1.1180
 3021SOL    MW411858   2.357   2.801   4.393 -0.5110 -0.5112 -0.1421
 3022SOL     OW11859   0.372   4.968   2.097 -0.1498 -0.4834  0.5798
 3022SOL    HW211860   0.463   4.990   2.118  0.5775  0.4204 -2.8768
 3022SOL    HW311861   0.373   4.873   2.084  0.6772 -0.3214 -0.7303
 3022SOL    MW411862   0.384   4.959   2.098 -0.2218 -0.0139  0.6082
 3023SOL     OW11863   1.773   4.229   4.249  0.1527 -0.2674  0.2190
 3023SOL    HW211864   1.680   4.241   4.234  0.1223 -0.9037 -0.1748
 3023SOL    HW311865   1.790   4.269   4.334 -0.3447  0.4510 -0.0186
 3023SOL    MW411866   1.763   4.236   4.258  0.6206 -0.1412 -0.3020
 3024SOL     OW11867   1.658   4.418   0.143  0.7894 -0.4222  0.4688
 3024SOL    HW211868   1.740   4.402   0.189  2.1979  1.9525 -1.0015
 3024SOL    HW311869   1.610   4.478   0.200  0.4634 -1.0787  0.8986
 3024SOL    MW411870   1.662   4.424   0.156  0.1002  0.6177 -0.1876
 3025SOL     OW11871   5.288   1.290   2.670  0.1444 -0.5455  0.0596
 3025SOL    HW211872   5.333   1.286   2.755  2.2791 -0.6387 -1.0030
 3025SOL    HW311873   5.212   1.346   2.686  2.0327  1.8386  1.4356
 3025SOL    MW411874   5.284   1.297   2.684 -0.0175  0.5724  0.0606
 3026SOL     OW11875   6.323   5.405   5.609 -0.1937  0.6630 -0.2400
 3026SOL    HW211876   6.317   5.494   5.574 -1.1309  0.4018 -0.7695
 3026SOL    HW311877   6.331   5.349   5.531 -0.6006  0.2113  0.0371
 3026SOL    MW411878   6.323   5.409   5.594  0.3439  0.2020  0.0860
 3027SOL     OW11879   3.875   5.288   2.833 -0.3417  0.5081  0.1971
 3027SOL    HW211880   3.798   5.328   2.874 -0.2810  0.9252 -0.0853
 3027SOL    HW311881   3.865   5.309   2.740 -0.7918 -0.9230 -0.1012
 3027SOL    MW411882   3.863   5.296   2.826  0.6939  0.0649  0.1290
 3028SOL     OW11883   3.552   0.544   2.610 -0.4859 -0.4922 -0.9945
 3028SOL    HW211884   3.536   0.638   2.607 -0.2109 -0.4544 -3.2422
 3028SOL    HW311885   3.638   0.533   2.568 -0.6901 -1.7654 -1.1304
 3028SOL    MW411886   3.561   0.555   2.604  0.1982  0.4191  0.1804
 3029SOL     OW11887   1.283   1.260   3.306  0.1022 -0.3974 -0.3729
 3029SOL    HW211888   1.297   1.287   3.396 -0.5955  0.6718 -0.5658
 3029SOL    HW311889   1.314   1.334   3.253 -0.3608 -0.6130 -0.9688
 3029SOL    MW411890   1.289   1.274   3.311  0.5262 -0.3604  0.2492
 3030SOL     OW11891   4.898   6.169   4.017  0.8476  0.5919 -0.8850
 3030SOL    HW211892   4.942   6.089   3.988  0.4450  0.4632 -1.1587
 3030SOL    HW311893   4.809   6.161   3.982  0.4527  0.6075  0.0826
 3030SOL    MW411894   4.892   6.157   4.008 -0.2664 -0.6293 -0.4667
 3031SOL     OW11895   1.399   5.553   4.011  0.2901  0.0478 -0.2339
 3031SOL    HW211896   1.460   5.563   4.084  0.5846 -1.5408 -0.2393
 3031SOL    HW311897   1.402   5.637   3.966  0.8720  0.7123  0.9843
 3031SOL    MW411898   1.407   5.566   4.015  0.4612 -1.1827 -0.0875
 3032SOL     OW11899   5.463   6.026   2.004 -0.4332 -0.2268  0.0116
 3032SOL    HW211900   5.439   6.107   1.958 -0.3541  0.3590  0.9890
 3032SOL    HW311901   5.558   6.020   1.995 -0.3565  0.1594  0.5272
 3032SOL    MW411902   5.472   6.036   1.997  0.0256  0.7022  0.3642
 3033SOL     OW11903   3.832   4.923   4.134 -0.2304  0.0944  0.0695
 3033SOL    HW211904   3.888   4.887   4.203  0.1093  2.4278  1.1141
 3033SOL    HW311905   3.798   5.005   4.171 -2.1611  0.1266 -1.5773
 3033SOL    MW411906   3.835   4.929   4.148  0.2310 -0.3938  0.1787
 3034SOL     OW11907   1.112   6.136   2.397 -0.2320 -0.3397  0.5703
 3034SOL    HW211908   1.074   6.048   2.397 -1.3158  0.1075 -0.3783
 3034SOL    HW311909   1.037   6.195   2.397  0.4693  0.5899  0.1383
 3034SOL    MW411910   1.097   6.132   2.397  0.0270 -0.0903  0.2827
 3035SOL     OW11911   3.590   1.754   0.547 -0.2043  0.3824  0.0622
 3035SOL    HW211912   3.603   1.848   0.532 -0.7988  0.3281 -0.8996
 3035SOL    HW311913   3.647   1.711   0.483 -0.2440  0.0953  0.2194
 3035SOL    MW411914   3.599   1.761   0.537 -0.4677 -0.0719 -0.2064
 3036SOL     OW11915   0.690   6.169   4.933  0.2934 -0.3808  0.6217
 3036SOL    HW211916   0.718   6.255   4.900  0.5553 -0.1701  1.3688
 3036SOL    HW311917   0.678   6.116   4.854  0.7404  0.1568  0.1786
 3036SOL    MW411918   0.692   6.174   4.918 -0.5170  0.8564 -0.8353
 3037SOL     OW11919   0.798   0.168   3.285  0.3750  0.4106  0.2131
 3037SOL    HW211920   0.713   0.124   3.276 -0.0288  0.7703  1.9608
 3037SOL    HW311921   0.785   0.256   3.251  0.6680 -0.1923 -1.5361
 3037SOL    MW411922   0.785   0.173   3.280 -0.2725 -0.1898 -0.5025
 3038SOL     OW11923   0.037   4.365   2.162  0.1592  0.1659 -0.5432
 3038SOL    HW211924   0.010   4.319   2.241 -1.5006 -2.9885 -2.6783
 3038SOL    HW311925   0.106   4.311   2.124 -0.5790  0.3519 -2.2817
 3038SOL    MW411926   0.042   4.352   2.167 -0.3963  0.1158  0.3699
 3039SOL     OW11927   0.364   1.389   0.975 -0.0977  0.2531 -0.5920
 3039SOL    HW211928   0.372   1.366   0.882 -0.9503  3.0546 -1.4816
 3039SOL    HW311929   0.449   1.428   0.997 -0.0132 -0.1025 -0.2734
 3039SOL    MW411930   0.376   1.391   0.965  0.4150  0.5994  0.0536
 3040SOL     OW11931   3.702   2.541   0.084  0.2601  0.3483 -0.1098
 3040SOL    HW211932   3.779   2.593   0.108 -0.7633  1.9491 -0.1993
 3040SOL    HW311933   3.698   2.547  -0.011  0.3471 -0.2250 -0.1533
 3040SOL    MW411934   3.712   2.548   0.075  0.2744 -0.1443 -0.0130
 3041SOL     OW11935   6.122   5.399   2.194  0.9715  0.2069  0.3666
 3041SOL    HW211936   6.146   5.339   2.265  0.2269 -1.5755 -0.8027
 3041SOL    HW311937   6.155   5.356   2.115  0.2977  1.2999 -0.5362
 3041SOL    MW411938   6.130   5.385   2.193 -0.8332  0.1459 -0.2606
 3042SOL     OW11939   2.275   2.117   3.857 -0.4213  0.4038 -0.3897
 3042SOL    HW211940   2.194   2.130   3.808  0.3131 -0.2950 -1.8541
 3042SOL    HW311941   2.300   2.026   3.839  0.5191  0.5120  0.2908
 3042SOL    MW411942   2.267   2.107   3.848 -0.4644  0.2556  0.3553
 3043SOL     OW11943   6.069   3.290   0.292  0.4877 -0.3467  0.2350
 3043SOL    HW211944   5.996   3.252   0.341  0.6841 -0.3192  0.5564
 3043SOL    HW311945   6.114   3.215   0.254 -0.0387 -0.3272 -0.4467
 3043SOL    MW411946   6.065   3.275   0.294 -0.0965 -0.0339  0.2714
 3044SOL     OW11947   5.843   4.369   1.436  0.2383  0.1779  1.0323
 3044SOL    HW211948   5.934   4.383   1.462 -0.0313  1.0512  1.5492
 3044SOL    HW311949   5.815   4.454   1.402  0.2385 -0.6329 -1.1035
 3044SOL    MW411950   5.851   4.382   1.435 -0.0578  0.2944 -0.2912
 3045SOL     OW11951   2.388   5.144   2.678  0.9892  0.1299  0.2608
 3045SOL    HW211952   2.448   5.094   2.734  2.0916 -2.4665 -2.9465
 3045SOL    HW311953   2.445   5.195   2.621  0.1845 -0.9644 -1.6180
 3045SOL    MW411954   2.403   5.144   2.678 -0.5941  0.1311 -0.3138
 3046SOL     OW11955   1.985   3.576   3.585 -0.0928 -0.7107 -0.4109
 3046SOL    HW211956   1.979   3.672   3.580 -3.0877 -0.7778  0.1511
 3046SOL    HW311957   2.014   3.550   3.498  1.6693  0.7006 -0.3168
 3046SOL    MW411958   1.988   3.585   3.573  0.2714  0.4950  0.1925
 3047SOL     OW11959   0.548   2.798   2.030 -0.5935 -0.5111  0.2015
 3047SOL    HW211960   0.596   2.881   2.025  1.0440 -1.4834 -0.8327
 3047SOL    HW311961   0.577   2.748   1.955 -2.6612 -1.5003 -0.0140
 3047SOL    MW411962   0.558   2.802   2.020  0.1990 -0.5548  0.0650
 3048SOL     OW11963   6.039   5.304   6.108 -0.1882  0.0427  0.1527
 3048SOL    HW211964   5.976   5.234   6.128 -0.4411  0.1158 -0.3714
 3048SOL    HW311965   6.050   5.300   6.013  0.2787  0.3093  0.1921
 3048SOL    MW411966   6.032   5.294   6.098 -1.3655 -0.3893 -0.0094
 3049SOL     OW11967   5.618   1.539   2.715  0.5366  0.0617 -0.2523
 3049SOL    HW211968   5.665   1.491   2.782  1.6034  1.5540  0.1191
 3049SOL    HW311969   5.562   1.600   2.763 -0.2433 -0.2701 -0.7153
 3049SOL    MW411970   5.617   1.541   2.730 -0.3541 -0.0640  0.0660
 3050SOL     OW11971   1.324   1.006   1.075  0.2780 -0.3550  0.3150
 3050SOL    HW211972   1.365   1.011   0.989  0.5055 -3.4068  0.1273
 3050SOL    HW311973   1.316   0.912   1.092 -1.8995  0.1445  2.6251
 3050SOL    MW411974   1.329   0.994   1.066 -0.1840  0.2718 -0.2996
 3051SOL     OW11975   3.983   1.914   5.880 -0.1883  0.5044  0.0131
 3051SOL    HW211976   3.934   1.848   5.929 -0.4995  0.8835  0.2222
 3051SOL    HW311977   4.047   1.948   5.943  0.7141 -0.3591 -0.4091
 3051SOL    MW411978   3.985   1.910   5.895 -0.0258  0.1008 -0.1064
 3052SOL     OW11979   5.825   4.115   0.988  0.0106 -0.6003 -0.0507
 3052SOL    HW211980   5.797   4.024   0.983 -0.8853 -0.3979  0.7542
 3052SOL    HW311981   5.829   4.145   0.897  0.0319 -1.3578 -0.3009
 3052SOL    MW411982   5.822   4.107   0.976  0.0441  0.5042  0.4680
 3053SOL     OW11983   3.739   4.054   5.987  0.1721  0.2270  0.1546
 3053SOL    HW211984   3.732   3.981   6.048 -2.8421  0.3581  0.0811
 3053SOL    HW311985   3.726   4.132   6.041  1.5082  0.6244 -0.0644
 3053SOL    MW411986   3.737   4.055   6.002 -0.3825 -0.0324 -0.3616
 3054SOL     OW11987   3.392   1.221   3.594  0.1762  0.3647  0.4552
 3054SOL    HW211988   3.446   1.270   3.656 -1.4911  3.3209 -0.2328
 3054SOL    HW311989   3.322   1.184   3.648 -0.3654  1.5579  0.6095
 3054SOL    MW411990   3.390   1.223   3.609 -0.3734  0.4576 -0.6642
 3055SOL     OW11991   4.524   0.322   0.360  0.0377 -0.3170 -1.0733
 3055SOL    HW211992   4.580   0.335   0.436 -0.8359 -2.1077 -0.0617
 3055SOL    HW311993   4.455   0.388   0.369 -1.4684 -2.0231  1.1482
 3055SOL    MW411994   4.522   0.332   0.371 -0.2853 -0.1032 -0.3591
 3056SOL     OW11995   2.557   3.711   1.822  0.1311  0.1812 -0.4678
 3056SOL    HW211996   2.627   3.646   1.821  1.1260  1.1546 -3.1417
 3056SOL    HW311997   2.478   3.660   1.842  0.9730 -1.7291 -1.6793
 3056SOL    MW411998   2.556   3.695   1.825  0.0500  0.2535 -0.1636
 3057SOL     OW11999   5.959   3.356   2.307 -0.9085  0.0599  0.1667
 3057SOL    HW212000   5.901   3.368   2.231 -1.4975 -2.5921  0.1186
 3057SOL    HW312001   5.905   3.308   2.371  1.3459 -3.2716 -0.1849
 3057SOL    MW412002   5.944   3.351   2.305 -0.2359 -0.2764 -0.1323
 3058SOL     OW12003   6.367   5.186   6.144  0.0648  0.5709  0.6347
 3058SOL    HW212004   6.356   5.223   6.057  0.2130  1.6235  1.0409
 3058SOL    HW312005   6.424   5.110   6.132 -0.1402  0.5422 -0.2117
 3058SOL    MW412006   6.373   5.181   6.131 -0.3290 -0.5013 -0.5032
 3059SOL     OW12007   2.802   2.136   0.545 -0.0962 -0.1724 -0.3115
 3059SOL    HW212008   2.728   2.081   0.523  1.0560 -0.4350 -4.2137
 3059SOL    HW312009   2.774   2.225   0.522  0.9663 -0.3866 -2.7443
 3059SOL    MW412010   2.789   2.140   0.539  0.1647  0.3102  0.2926
 3060SOL     OW12011   4.908   5.355   2.931 -0.3280  0.4165 -0.0205
 3060SOL    HW212012   4.982   5.297   2.919 -0.3066  0.3730  0.3301
 3060SOL    HW312013   4.932   5.435   2.884  0.8448  1.2078  1.7998
 3060SOL    MW412014   4.921   5.358   2.923 -0.0773 -1.3146  0.2145
 3061SOL     OW12015   1.800   0.919   1.154 -0.1497  0.8509 -0.4588
 3061SOL    HW212016   1.776   0.892   1.243  0.3611  1.0049 -0.2713
 3061SOL    HW312017   1.802   0.837   1.104  0.7406  0.6076 -0.0427
 3061SOL    MW412018   1.797   0.904   1.159  0.3130 -0.2130  0.3763
 3062SOL     OW12019   1.442   0.817   3.468 -0.5035  0.1899  0.1703
 3062SOL    HW212020   1.441   0.862   3.383 -2.1194  0.4107  0.2855
 3062SOL    HW312021   1.476   0.729   3.447  1.8919  1.1037 -0.1842
 3062SOL    MW412022   1.447   0.811   3.454  0.0958 -0.2049  0.0193
 3063SOL     OW12023   3.779   2.004   2.330  0.8040  0.2939  0.6208
 3063SOL    HW212024   3.735   1.925   2.297  0.6537  0.1372  1.1995
 3063SOL    HW312025   3.761   2.004   2.424 -0.6640  1.9374  0.3786
 3063SOL    MW412026   3.771   1.993   2.338 -0.4004  0.2691 -0.3954
 3064SOL     OW12027   4.269   5.002   1.453 -0.4385 -0.1034 -0.4124
 3064SOL    HW212028   4.235   5.005   1.542  1.3150 -1.2713  0.3627
 3064SOL    HW312029   4.225   4.927   1.413 -2.4170  1.3496 -1.1286
 3064SOL    MW412030   4.259   4.992   1.459 -0.3629 -0.5107  0.0366
 3065SOL     OW12031   4.352   1.118   4.914  0.4152 -0.1993  0.1880
 3065SOL    HW212032   4.315   1.192   4.962 -0.9701  0.9971 -2.5077
 3065SOL    HW312033   4.433   1.153   4.876  0.3392 -0.4185 -0.1750
 3065SOL    MW412034   4.358   1.133   4.916  0.3951  0.2472  0.0705
 3066SOL     OW12035   1.117   4.539   2.375  0.2713  1.1579 -0.4715
 3066SOL    HW212036   1.075   4.550   2.289  0.1621  0.3573 -0.5321
 3066SOL    HW312037   1.198   4.492   2.355 -1.0559 -1.6010  0.1099
 3066SOL    MW412038   1.122   4.534   2.361  0.4555  0.0162  0.2118
 3067SOL     OW12039   3.503   2.767   4.136  0.5109  0.0770 -0.4026
 3067SOL    HW212040   3.460   2.710   4.072 -1.5479  1.1408 -0.0630
 3067SOL    HW312041   3.480   2.730   4.221 -0.9598  1.3998 -0.1718
 3067SOL    MW412042   3.495   2.755   4.138  1.0814 -0.1765 -0.5322
 3068SOL     OW12043   0.751   1.849   3.433 -0.4413  0.1128  0.5042
 3068SOL    HW212044   0.683   1.784   3.418  0.4246 -0.7597  0.1980
 3068SOL    HW312045   0.710   1.933   3.415 -2.1615 -0.1416  2.7677
 3068SOL    MW412046   0.737   1.852   3.429  0.1743  0.0426  0.1487
 3069SOL     OW12047   5.838   4.604   2.178  0.2538  0.4292  0.3628
 3069SOL    HW212048   5.914   4.636   2.129  0.2565  0.8760  0.6481
 3069SOL    HW312049   5.817   4.520   2.138 -0.1201  1.0573 -0.8065
 3069SOL    MW412050   5.845   4.597   2.167 -0.1819  0.7308 -0.0321
 3070SOL     OW12051   0.093   0.406   5.072 -0.2539  0.1805 -0.1722
 3070SOL    HW212052   0.078   0.471   5.003 -1.1975  0.4646  0.2799
 3070SOL    HW312053   0.037   0.435   5.144  0.0900 -0.5767  0.4111
 3070SOL    MW412054   0.083   0.418   5.072 -0.2980 -0.5175  0.6696
 3071SOL     OW12055   6.211   2.833   2.352 -0.1726 -0.3047  0.6366
 3071SOL    HW212056   6.192   2.771   2.281  0.6247  1.3947 -1.1729
 3071SOL    HW312057   6.202   2.919   2.312  0.8695  0.7290  2.4637
 3071SOL    MW412058   6.208   2.836   2.337  0.1378  0.4390 -0.9575
 3072SOL     OW12059   0.647   5.570   2.326 -0.1947  0.1502  0.5524
 3072SOL    HW212060   0.692   5.538   2.404  1.1439 -0.7597 -0.5518
 3072SOL    HW312061   0.658   5.500   2.262 -1.2730  0.8804 -0.4623
 3072SOL    MW412062   0.654   5.557   2.328  0.2706 -0.4425  0.3958
 3073SOL     OW12063   5.258   4.429   5.036  0.8349  0.3742 -0.3264
 3073SOL    HW212064   5.244   4.464   4.948  0.6110 -0.4752 -0.6396
 3073SOL    HW312065   5.259   4.506   5.092 -0.5755  0.8261 -0.8698
 3073SOL    MW412066   5.256   4.443   5.032  0.3972 -0.2776 -0.6020
 3074SOL     OW12067   3.552   2.640   1.591 -0.4116 -0.0595 -0.2940
 3074SOL    HW212068   3.546   2.607   1.501  2.4808  0.1495 -0.6503
 3074SOL    HW312069   3.542   2.735   1.582  0.4849  0.0269 -0.5228
 3074SOL    MW412070   3.550   2.648   1.578 -0.4782 -0.1553  0.1642
 3075SOL     OW12071   4.009   2.285   4.326  0.1809  1.1346  0.0225
 3075SOL    HW212072   3.963   2.217   4.277 -0.9181  1.5928  0.3765
 3075SOL    HW312073   4.084   2.308   4.271 -2.1357  3.1305 -2.5709
 3075SOL    MW412074   4.013   2.279   4.313  0.4584 -0.3366  0.3209
 3076SOL     OW12075   1.389   5.813   0.175 -0.7961 -0.0269 -0.3361
 3076SOL    HW212076   1.365   5.848   0.260  2.0723  1.5363 -0.0623
 3076SOL    HW312077   1.309   5.819   0.123 -2.3558 -0.1352  1.9213
 3076SOL    MW412078   1.375   5.818   0.179  0.1014  0.1816  0.3162
 3077SOL     OW12079   0.804   1.421   1.435  0.1875 -0.0319  0.0667
 3077SOL    HW212080   0.862   1.494   1.411 -0.9846  0.6017 -0.9658
 3077SOL    HW312081   0.812   1.415   1.531 -0.8224  2.5000  0.4046
 3077SOL    MW412082   0.813   1.430   1.445  0.8581  0.1349 -0.0223
 3078SOL     OW12083   1.141   4.918   2.670 -0.3801  0.0243 -0.3076
 3078SOL    HW212084   1.161   4.826   2.651 -0.2862 -0.1157  0.4494
 3078SOL    HW312085   1.212   4.967   2.629 -0.8832 -0.1708 -1.4621
 3078SOL    MW412086   1.153   4.912   2.662 -0.1943 -0.0572  0.1241
 3079SOL     OW12087   0.674   4.685   5.573  0.1133 -0.2010  0.3787
 3079SOL    HW212088   0.744   4.634   5.613 -0.2992 -0.7147  0.4509
 3079SOL    HW312089   0.656   4.642   5.490 -0.4648 -0.3747  0.5887
 3079SOL    MW412090   0.681   4.673   5.568  0.2820  0.0358  0.0285
 3080SOL     OW12091   4.445   5.800   5.479  0.4767  0.2942  0.0219
 3080SOL    HW212092   4.433   5.894   5.485 -0.5209  0.0834  2.9598
 3080SOL    HW312093   4.375   5.771   5.420 -0.5524  1.2138  0.7516
 3080SOL    MW412094   4.434   5.808   5.472 -0.3551  0.2935  0.2555
 3081SOL     OW12095   1.924   2.222   4.946  0.4322 -0.3980  0.0211
 3081SOL    HW212096   2.002   2.209   5.000 -1.6359 -0.1473  3.3457
 3081SOL    HW312097   1.855   2.172   4.990 -1.8631  1.2898 -1.4042
 3081SOL    MW412098   1.925   2.214   4.959 -0.1428 -0.0671 -0.6755
 3082SOL     OW12099   0.119   1.327   3.886  0.5819  0.1143 -0.0740
 3082SOL    HW212100   0.214   1.320   3.875  0.9340  3.4545 -0.2474
 3082SOL    HW312101   0.108   1.374   3.968 -0.9187  0.2391 -0.3242
 3082SOL    MW412102   0.131   1.332   3.895 -0.3267 -0.0170  0.2049
 3083SOL     OW12103   2.062   0.411   0.107 -0.2988  0.1960  0.4821
 3083SOL    HW212104   2.147   0.403   0.149 -0.0315 -2.1134 -0.3824
 3083SOL    HW312105   1.999   0.389   0.175  0.0146 -1.4981  0.2542
 3083SOL    MW412106   2.065   0.407   0.121 -1.0596  0.3362 -0.3319
 3084SOL     OW12107   1.451   2.058   0.359  0.0527 -0.1300  0.9939
 3084SOL    HW212108   1.536   2.017   0.374  0.5216  0.5980  0.4520
 3084SOL    HW312109   1.389   1.985   0.354  0.9830 -0.8547 -0.8023
 3084SOL    MW412110   1.454   2.043   0.360 -0.2813 -0.1548 -0.4740
 3085SOL     OW12111   4.893   4.933   3.035 -0.8206  0.2480  0.5264
 3085SOL    HW212112   4.833   4.918   3.108  0.9656 -1.7142  1.7212
 3085SOL    HW312113   4.960   4.991   3.071 -0.4292  0.0233  0.1736
 3085SOL    MW412114   4.894   4.938   3.050  0.3104  0.1074  0.0133
 3086SOL     OW12115   6.264   3.463   2.148 -0.3236 -0.0907  0.3078
 3086SOL    HW212116   6.185   3.414   2.126 -0.8589  1.9519 -3.0724
 3086SOL    HW312117   6.291   3.429   2.233 -3.2924 -2.7479  0.3544
 3086SOL    MW412118   6.257   3.452   2.156 -0.4472  0.2485 -0.3819
 3087SOL     OW12119   1.324   1.623   0.013  0.5606  0.0067  0.6588
 3087SOL    HW212120   1.350   1.576  -0.066 -2.7741 -3.4255  1.3134
 3087SOL    HW312121   1.270   1.695  -0.018 -0.2060 -0.9383 -0.2984
 3087SOL    MW412122   1.321   1.626  -0.001  0.2449 -0.0545 -0.0285
 3088SOL     OW12123   4.349   3.226   6.184  0.8812  0.0732 -0.1806
 3088SOL    HW212124   4.330   3.279   6.261  2.1294  0.0220  0.1884
 3088SOL    HW312125   4.300   3.145   6.197 -1.7342  1.3922 -1.1573
 3088SOL    MW412126   4.340   3.222   6.196 -0.5327  0.8390 -0.0450
 3089SOL     OW12127   5.539   4.324   5.364 -0.3798  0.5852  0.2574
 3089SOL    HW212128   5.563   4.397   5.421 -0.0644  0.8367 -0.1938
 3089SOL    HW312129   5.453   4.295   5.397  1.8468 -2.6722  4.2793
 3089SOL    MW412130   5.531   4.329   5.376  0.2147 -0.1200  0.1850
 3090SOL     OW12131   3.822   5.632   1.223 -0.4378  0.1571  0.0137
 3090SOL    HW212132   3.771   5.691   1.167  0.2305  0.2551 -0.4984
 3090SOL    HW312133   3.873   5.578   1.162 -1.1146 -1.0368  0.4687
 3090SOL    MW412134   3.822   5.633   1.207 -0.1248  0.5569 -0.5593
 3091SOL     OW12135   4.966   3.678   1.648  0.1641 -0.4481  0.1457
 3091SOL    HW212136   4.936   3.718   1.566  1.6043  0.6411  0.1116
 3091SOL    HW312137   5.050   3.638   1.626  0.7587  0.1967  1.1581
 3091SOL    MW412138   4.973   3.678   1.634 -0.1833 -0.0975  0.3210
 3092SOL     OW12139   1.489   6.139   4.267  0.7150 -0.3766 -0.6252
 3092SOL    HW212140   1.515   6.048   4.281  1.9959  0.2654  1.7709
 3092SOL    HW312141   1.567   6.190   4.288 -0.6215  1.3534  0.4555
 3092SOL    MW412142   1.502   6.134   4.272 -0.1906 -0.2340  0.5067
 3093SOL     OW12143   1.851   5.532   2.268 -0.2517 -0.3689  0.0064
 3093SOL    HW212144   1.893   5.617   2.281 -3.0748  1.3496 -1.1910
 3093SOL    HW312145   1.869   5.510   2.176 -0.7398 -0.3516 -0.0930
 3093SOL    MW412146   1.859   5.540   2.258  0.5500 -0.0697  0.2006
 3094SOL     OW12147   6.317   0.738   3.477  0.1403  0.4392  0.3223
 3094SOL    HW212148   6.402   0.711   3.442  0.9623  1.9682  1.0364
 3094SOL    HW312149   6.331   0.828   3.507 -1.2523  0.1309  2.0651
 3094SOL    MW412150   6.330   0.747   3.476 -0.0621 -0.1363 -0.2517
 3095SOL     OW12151   4.587   6.353   5.967 -0.5005 -0.2067  0.3517
 3095SOL    HW212152   4.621   6.440   5.950  1.6483 -0.7622  1.4761
 3095SOL    HW312153   4.570   6.316   5.880 -0.2326  0.8576 -0.1678
 3095SOL    MW412154   4.589   6.360   5.953 -0.8036  0.5454 -0.2494
 3096SOL     OW12155   3.914   4.962   2.867  0.3371 -0.2689 -0.6263
 3096SOL    HW212156   3.908   5.053   2.895  1.5453 -0.3393 -0.0754
 3096SOL    HW312157   3.866   4.913   2.934 -2.2840  0.1268 -2.1086
 3096SOL    MW412158   3.907   4.967   2.880  0.2346  0.1196 -0.0764
 3097SOL     OW12159   5.188   2.145   4.589 -0.2891  0.5417 -0.5300
 3097SOL    HW212160   5.097   2.153   4.559 -0.3274  0.2355 -0.5013
 3097SOL    HW312161   5.239   2.130   4.510 -0.5037 -1.2025 -0.3795
 3097SOL    MW412162   5.183   2.144   4.575  0.0074  0.1873 -0.4000
 3098SOL     OW12163   0.328   1.246   1.821  0.4352  0.2800 -0.2456
 3098SOL    HW212164   0.277   1.302   1.880  1.7390  0.0398  1.1481
 3098SOL    HW312165   0.398   1.302   1.788  1.5369 -0.4008  0.8752
 3098SOL    MW412166   0.330   1.261   1.824  0.7287  1.1924 -0.4903
 3099SOL     OW12167   1.314   4.293   3.802 -0.0911  0.4289  0.4765
 3099SOL    HW212168   1.366   4.234   3.858  0.5482  0.2529 -0.2853
 3099SOL    HW312169   1.238   4.315   3.856  0.5472  0.3360  1.4514
 3099SOL    MW412170   1.311   4.288   3.817 -0.2012  0.5246  0.1662
 3100SOL     OW12171   0.255   5.341   2.821  0.2165 -0.1114 -0.0951
 3100SOL    HW212172   0.209   5.383   2.893 -0.4890 -0.0818 -0.5512
 3100SOL    HW312173   0.187   5.293   2.773  0.5330  0.4811 -1.1778
 3100SOL    MW412174   0.240   5.340   2.824 -0.1322 -0.4632  0.4736
 3101SOL     OW12175   2.622   3.736   2.803 -0.0778 -0.3834 -0.3707
 3101SOL    HW212176   2.583   3.774   2.725  2.0141  0.8469 -0.8969
 3101SOL    HW312177   2.570   3.657   2.820 -1.6991  0.2852 -1.9193
 3101SOL    MW412178   2.610   3.730   2.795  0.1417 -0.4996  0.3394
 3102SOL     OW12179   4.437   0.651   5.455  0.7404 -0.2354  0.5007
 3102SOL    HW212180   4.517   0.609   5.424 -0.6722 -2.6248 -0.1945
 3102SOL    HW312181   4.394   0.583   5.509 -0.4481  1.2554  1.5123
 3102SOL    MW412182   4.442   0.636   5.458 -0.1463 -0.1057 -0.0110
 3103SOL     OW12183   3.968   4.061   4.214 -0.2240  0.2064  0.3675
 3103SOL    HW212184   3.878   4.041   4.187  0.0779  1.1421 -1.4802
 3103SOL    HW312185   4.019   3.985   4.187 -0.4693 -0.4155  1.6045
 3103SOL    MW412186   3.963   4.049   4.207 -0.0355 -0.6895 -0.5024
 3104SOL     OW12187   1.088   6.312   3.764 -0.3328  0.1206 -0.9075
 3104SOL    HW212188   1.033   6.244   3.803 -0.5840 -1.0027 -3.0675
 3104SOL    HW312189   1.026   6.373   3.724 -0.0643  0.6963 -0.4599
 3104SOL    MW412190   1.073   6.311   3.764 -0.3688 -0.3522 -0.0915
 3105SOL     OW12191   0.370   1.329   4.968  0.7116  0.3455  0.0614
 3105SOL    HW212192   0.441   1.393   4.962  0.5182  0.5137 -0.5458
 3105SOL    HW312193   0.413   1.247   4.990  1.3649  0.0174 -2.1172
 3105SOL    MW412194   0.385   1.327   4.970  0.7739  0.2728 -0.6190
 3106SOL     OW12195   4.560   6.045   5.150  0.1712 -0.5751 -0.5927
 3106SOL    HW212196   4.487   6.050   5.213  0.5784  0.4364 -0.1692
 3106SOL    HW312197   4.617   5.976   5.184 -0.4707 -1.2180 -0.8035
 3106SOL    MW412198   4.558   6.037   5.163  0.1334 -0.1539 -0.2287
 3107SOL     OW12199   0.462   0.948   0.501 -0.3308 -0.1117  0.1851
 3107SOL    HW212200   0.462   0.950   0.597 -0.4904  1.1316  0.1726
 3107SOL    HW312201   0.497   0.861   0.479  0.9227  0.0589  1.3675
 3107SOL    MW412202   0.467   0.936   0.511  0.2951  0.1986  0.3248
 3108SOL     OW12203   2.665   1.474   0.222 -0.1838 -0.5139  0.1911
 3108SOL    HW212204   2.666   1.418   0.300 -1.6465 -1.7855 -0.6624
 3108SOL    HW312205   2.629   1.557   0.253 -0.7765 -1.0095  0.8762
 3108SOL    MW412206   2.661   1.478   0.236 -0.2324  0.0358 -0.6072
 3109SOL     OW12207   2.438   3.529   2.850  0.9040  0.7522  0.3548
 3109SOL    HW212208   2.415   3.474   2.774 -0.2145 -0.1195  1.2916
 3109SOL    HW312209   2.363   3.586   2.861  0.9600  0.7139  0.9433
 3109SOL    MW412210   2.425   3.529   2.841  0.9348 -0.5410  0.0018
 3110SOL     OW12211   0.180   0.463   5.884 -0.0330 -0.5144  0.5384
 3110SOL    HW212212   0.126   0.384   5.892  0.7920 -1.0796  0.6444
 3110SOL    HW312213   0.200   0.488   5.974  0.3400 -0.6351  0.4918
 3110SOL    MW412214   0.175   0.456   5.897  0.6635  0.4353 -0.5302
 3111SOL     OW12215   1.576   1.764   4.635 -0.0118 -0.5388 -0.3704
 3111SOL    HW212216   1.671   1.767   4.623  0.0366  2.7812  0.0810
 3111SOL    HW312217   1.541   1.817   4.564 -1.5954 -1.8848 -0.6502
 3111SOL    MW412218   1.584   1.771   4.624  0.3559  0.2376 -0.3464
 3112SOL     OW12219   3.259   5.377   4.954 -0.3362  0.3388  0.8244
 3112SOL    HW212220   3.338   5.324   4.952  0.2092  0.8446  4.1034
 3112SOL    HW312221   3.187   5.314   4.960 -0.0663 -0.0691 -0.0906
 3112SOL    MW412222   3.260   5.362   4.954 -0.3665 -0.2155 -0.1264
 3113SOL     OW12223   5.596   1.960   4.541  0.0102  0.0592 -0.3382
 3113SOL    HW212224   5.637   1.890   4.591 -0.6032 -0.6200 -0.7761
 3113SOL    HW312225   5.650   2.037   4.559  0.9291 -0.6101 -0.1853
 3113SOL    MW412226   5.609   1.961   4.550  0.0237  0.1537 -0.0560
 3114SOL     OW12227   2.587   5.313   5.276  0.4495 -0.1205  0.3449
 3114SOL    HW212228   2.595   5.388   5.217  3.0999  0.4241  1.2552
 3114SOL    HW312229   2.564   5.240   5.218 -0.1747  0.9667 -0.8522
 3114SOL    MW412230   2.585   5.313   5.260  0.3697 -0.4582  0.3140
 3115SOL     OW12231   3.064   1.699   3.205 -0.2953  0.3675 -0.2240
 3115SOL    HW212232   2.996   1.673   3.268 -1.3591 -0.2220 -1.5750
 3115SOL    HW312233   3.018   1.755   3.143  0.1471 -1.0138 -1.8586
 3115SOL    MW412234   3.049   1.703   3.205 -0.0711  0.1569  0.0189
 3116SOL     OW12235   4.795   3.159   5.937  0.3119  0.2529 -0.4481
 3116SOL    HW212236   4.875   3.143   5.987  0.1026 -0.5849 -0.3538
 3116SOL    HW312237   4.815   3.126   5.849 -0.7488 -2.4947  0.2204
 3116SOL    MW412238   4.808   3.152   5.932 -0.5616 -0.3781 -0.0075
 3117SOL     OW12239   4.062   1.521   5.833  0.0207 -0.2099  0.5286
 3117SOL    HW212240   4.081   1.437   5.793 -1.9091  0.1948 -1.4221
 3117SOL    HW312241   4.040   1.500   5.924 -1.2537 -1.9476 -0.1275
 3117SOL    MW412242   4.062   1.507   5.840  0.0243 -0.7638  0.6369
 3118SOL     OW12243   0.580   3.911   6.284 -0.0867 -0.4577 -0.3492
 3118SOL    HW212244   0.668   3.873   6.283  0.0764 -0.1398 -2.2322
 3118SOL    HW312245   0.521   3.837   6.294  0.3830 -0.6384  1.3071
 3118SOL    MW412246   0.584   3.897   6.285 -0.4287 -0.2169 -0.7128
 3119SOL     OW12247   1.950   3.515   2.252  0.1145  0.1444 -0.1127
 3119SOL    HW212248   1.986   3.478   2.332  1.3090  0.5280 -0.4496
 3119SOL    HW312249   1.951   3.443   2.189 -0.0354  0.0593 -0.0165
 3119SOL    MW412250   1.955   3.501   2.254 -0.1863 -0.1253  0.5149
 3120SOL     OW12251   5.720   5.009   1.642  0.1603 -0.3678 -0.2546
 3120SOL    HW212252   5.644   5.066   1.656 -0.2581 -1.2945  1.5968
 3120SOL    HW312253   5.709   4.975   1.553 -0.2943  1.3555 -0.8972
 3120SOL    MW412254   5.708   5.012   1.632 -0.5312 -0.1422  0.2788
 3121SOL     OW12255   0.151   6.329   2.187 -0.3487  0.5397 -0.1588
 3121SOL    HW212256   0.178   6.238   2.198 -0.1008  0.4660 -1.2515
 3121SOL    HW312257   0.075   6.324   2.129 -0.6798  0.9907  0.2339
 3121SOL    MW412258   0.145   6.316   2.180 -0.0573  0.1508  0.2593
 3122SOL     OW12259   5.477   0.437   2.490  0.0874  0.8488  0.0639
 3122SOL    HW212260   5.399   0.488   2.511 -0.5185 -0.5606  1.4555
 3122SOL    HW312261   5.489   0.449   2.396 -1.4424  1.6116 -0.0664
 3122SOL    MW412262   5.468   0.445   2.480 -0.0811 -0.3060 -0.2124
 3123SOL     OW12263   5.484   2.645   0.159 -0.4823  0.2381  0.4759
 3123SOL    HW212264   5.510   2.595   0.236  1.9046  0.1470 -0.2980
 3123SOL    HW312265   5.448   2.726   0.194 -1.5329 -0.7156  1.6897
 3123SOL    MW412266   5.483   2.649   0.174  0.3387 -0.0419 -0.5318
 3124SOL     OW12267   2.987   1.721   2.049  0.1409  0.2479  0.7954
 3124SOL    HW212268   2.985   1.631   2.081 -0.7971 -0.3724 -0.8950
 3124SOL    HW312269   3.012   1.773   2.126  0.6990 -1.4308  1.8012
 3124SOL    MW412270   2.990   1.716   2.064 -0.6307  0.2949 -0.5348
 3125SOL     OW12271   3.829   1.661   5.775 -0.3212 -0.2385  0.2097
 3125SOL    HW212272   3.908   1.615   5.804 -1.1741 -0.9930  1.4625
 3125SOL    HW312273   3.763   1.592   5.768 -0.6801  0.2497 -1.6494
 3125SOL    MW412274   3.830   1.646   5.778  0.5442  0.3635  1.0359
 3126SOL     OW12275   4.827   4.697   1.877 -0.0282 -0.2280 -0.4227
 3126SOL    HW212276   4.856   4.776   1.832  2.0832 -0.9061 -0.3381
 3126SOL    HW312277   4.902   4.670   1.929 -0.7726 -2.1716 -0.2762
 3126SOL    MW412278   4.841   4.704   1.878  0.4237  0.1515 -0.7640
 3127SOL     OW12279   1.467   1.998   2.245 -0.1351  0.1230  0.1879
 3127SOL    HW212280   1.482   1.913   2.203 -0.0673  0.4865 -0.5412
 3127SOL    HW312281   1.543   2.051   2.221  0.2811  0.1121  1.4130
 3127SOL    MW412282   1.479   1.994   2.236 -0.3634 -0.3371  0.3338
 3128SOL     OW12283   0.575   1.841   2.348  0.3153 -0.2077  0.1891
 3128SOL    HW212284   0.636   1.863   2.278 -0.3598  1.7259  0.1462
 3128SOL    HW312285   0.489   1.845   2.306  0.0520 -1.5203  0.5675
 3128SOL    MW412286   0.571   1.845   2.333  0.1183  0.3657 -0.5995
 3129SOL     OW12287   4.219   0.579   1.304  0.2489 -0.4190  0.4278
 3129SOL    HW212288   4.221   0.521   1.381  0.7539 -1.0423 -0.0438
 3129SOL    HW312289   4.285   0.543   1.245  0.5241  0.6011  0.0873
 3129SOL    MW412290   4.228   0.567   1.307 -0.0718  0.0097 -0.1697
 3130SOL     OW12291   3.698   4.881   3.388  0.7236  0.4869 -0.3844
 3130SOL    HW212292   3.715   4.849   3.300 -1.6199  1.8428 -1.4308
 3130SOL    HW312293   3.784   4.884   3.430  1.7792 -1.0785 -2.2723
 3130SOL    MW412294   3.711   4.877   3.382  1.1613 -0.8289  0.0885
 3131SOL     OW12295   4.241   2.820   1.717 -0.0899  0.0141 -0.2556
 3131SOL    HW212296   4.224   2.735   1.756  1.5617  0.0235  0.5684
 3131SOL    HW312297   4.156   2.848   1.683 -0.8460 -1.5469  0.2494
 3131SOL    MW412298   4.228   2.813   1.718  0.8365  0.2138  0.5323
 3132SOL     OW12299   3.858   1.387   3.143 -0.0976  0.4738  0.0498
 3132SOL    HW212300   3.905   1.465   3.173 -0.7551  1.1465 -0.6288
 3132SOL    HW312301   3.793   1.421   3.081 -0.3020 -0.6299 -0.3570
 3132SOL    MW412302   3.856   1.402   3.138  0.1667 -0.0863  0.2583
 3133SOL     OW12303   2.769   6.312   3.291  0.5577  0.1638 -0.4693
 3133SOL    HW212304   2.821   6.241   3.254  1.9029  0.2816  1.0654
 3133SOL    HW312305   2.682   6.273   3.305  1.2428 -1.1731  0.2669
 3133SOL    MW412306   2.764   6.297   3.288  0.8237  0.4074  0.3377
 3134SOL     OW12307   3.042   0.725   4.354 -0.6953  0.1180  0.3890
 3134SOL    HW212308   3.114   0.743   4.415  0.3811 -0.6968 -0.5899
 3134SOL    HW312309   2.965   0.715   4.410 -0.0328  0.9026  1.4802
 3134SOL    MW412310   3.042   0.726   4.370  0.3654 -0.3334  0.7602
 3135SOL     OW12311   3.152   4.517   2.619 -0.2315 -0.6707  0.5031
 3135SOL    HW212312   3.084   4.468   2.572 -2.8711  1.1539  2.1095
 3135SOL    HW312313   3.137   4.497   2.711 -0.1810  1.5955  1.0703
 3135SOL    MW412314   3.141   4.508   2.625 -0.1293 -0.1875 -0.1739
 3136SOL     OW12315   2.958   6.261   6.280 -0.4180  0.4619 -0.5226
 3136SOL    HW212316   2.933   6.196   6.347  0.0459  0.1739 -0.6198
 3136SOL    HW312317   2.961   6.210   6.199 -1.3676  0.8931 -0.8421
 3136SOL    MW412318   2.955   6.246   6.278 -0.7007 -0.4138 -0.3406
 3137SOL     OW12319   4.803   0.807   0.299 -0.4957 -0.5754  0.2106
 3137SOL    HW212320   4.709   0.798   0.285 -0.5862 -0.1667  0.5106
 3137SOL    HW312321   4.840   0.820   0.212 -0.4372 -2.8696 -0.1741
 3137SOL    MW412322   4.796   0.808   0.286  0.1674  0.2322  0.1533
 3138SOL     OW12323   4.261   1.143   4.649  0.6486 -0.1018 -0.1031
 3138SOL    HW212324   4.285   1.126   4.740  1.0463 -1.6275 -0.4750
 3138SOL    HW312325   4.328   1.203   4.618  0.0344  1.1265  0.8217
 3138SOL    MW412326   4.273   1.149   4.657 -0.7643 -0.2674  0.0464
 3139SOL     OW12327   0.066   3.940   6.011  0.2409 -0.4408 -0.0687
 3139SOL    HW212328   0.144   3.917   6.061  0.2631 -0.1067  0.0547
 3139SOL    HW312329   0.004   3.870   6.029 -0.0960  0.1600  1.2118
 3139SOL    MW412330   0.068   3.928   6.020  0.6183  0.0629  0.1215
 3140SOL     OW12331   0.796   5.593   0.091 -0.1085  0.0950 -0.2982
 3140SOL    HW212332   0.736   5.616   0.019 -0.6805 -0.3359  0.0364
 3140SOL    HW312333   0.739   5.571   0.164  0.4591 -0.7245 -0.0932
 3140SOL    MW412334   0.780   5.593   0.091  0.7252 -0.0761 -0.1292
 3141SOL     OW12335   2.762   3.843   1.113 -0.5007  0.1987 -0.1844
 3141SOL    HW212336   2.761   3.747   1.106 -0.5600 -0.1214  2.8622
 3141SOL    HW312337   2.685   3.871   1.065 -1.5959 -1.4743  0.5038
 3141SOL    MW412338   2.752   3.834   1.106  0.4337 -0.3090  0.2857
 3142SOL     OW12339   4.877   3.822   3.486  0.0568 -1.0064  0.7962
 3142SOL    HW212340   4.875   3.777   3.571 -0.0446 -1.2602  0.6597
 3142SOL    HW312341   4.789   3.810   3.451  0.0747 -0.8288  0.6926
 3142SOL    MW412342   4.865   3.814   3.493  0.0614  0.0636  0.5601
 3143SOL     OW12343   2.766   3.882   2.501  0.4338 -0.3773  0.2503
 3143SOL    HW212344   2.786   3.791   2.480 -0.3034 -0.2573 -1.0428
 3143SOL    HW312345   2.676   3.880   2.535  0.2822 -0.0820 -0.1327
 3143SOL    MW412346   2.757   3.870   2.503 -0.5125  0.4957  0.0030
 3144SOL     OW12347   0.565   0.813   5.701 -0.1817  0.4401  0.3125
 3144SOL    HW212348   0.550   0.741   5.641 -0.0155 -0.2246  1.0542
 3144SOL    HW312349   0.553   0.775   5.788  1.1715  0.9865  0.7710
 3144SOL    MW412350   0.562   0.799   5.705 -0.5302  0.3748  0.9629
 3145SOL     OW12351   1.878   3.956   2.958 -0.2146  0.0852  0.9446
 3145SOL    HW212352   1.935   3.887   2.994  1.2361  0.2947 -0.8355
 3145SOL    HW312353   1.822   3.910   2.896  0.3043  0.3972  0.2399
 3145SOL    MW412354   1.879   3.941   2.955 -0.5247  0.3729  0.8959
 3146SOL     OW12355   5.876   0.391   1.965 -0.2136  0.1559  0.2161
 3146SOL    HW212356   5.963   0.376   2.002 -0.3242 -0.6243  0.1935
 3146SOL    HW312357   5.830   0.308   1.980  0.3519 -0.9652 -3.4397
 3146SOL    MW412358   5.881   0.378   1.972 -0.3154  0.6291  0.1219
 3147SOL     OW12359   2.700   3.913   4.533  0.5469 -0.1945  0.2387
 3147SOL    HW212360   2.790   3.932   4.562  0.8434  2.2002 -1.8744
 3147SOL    HW312361   2.655   3.997   4.542 -1.0885 -1.0077 -0.1177
 3147SOL    MW412362   2.706   3.927   4.538 -0.5452 -0.1214 -0.1640
 3148SOL     OW12363   0.730   6.396   2.921 -0.3652  0.7407  0.2650
 3148SOL    HW212364   0.686   6.322   2.963 -1.7839  0.5616 -1.3788
 3148SOL    HW312365   0.809   6.411   2.973 -0.8319 -0.9371  1.5344
 3148SOL    MW412366   0.735   6.388   2.933  0.0191 -1.0092 -0.9108
 3149SOL     OW12367   0.972   0.877   4.586 -0.2023 -0.5001  0.1008
 3149SOL    HW212368   1.068   0.881   4.585  0.0211 -3.0229  1.5599
 3149SOL    HW312369   0.952   0.785   4.570 -2.1361 -0.9623  3.9652
 3149SOL    MW412370   0.982   0.866   4.584  0.6244  0.1575 -0.3478
 3150SOL     OW12371   4.418   2.098   4.351 -0.3447  0.5726  0.6014
 3150SOL    HW212372   4.436   2.146   4.270 -0.4852 -0.2900  0.0450
 3150SOL    HW312373   4.478   2.024   4.349 -1.6394 -0.5069  0.3495
 3150SOL    MW412374   4.428   2.094   4.340 -0.5657  0.1726  0.2822
 3151SOL     OW12375   4.668   0.364   0.609  0.4904 -0.4349  0.0360
 3151SOL    HW212376   4.736   0.428   0.587 -1.8145  2.4521  0.7303
 3151SOL    HW312377   4.678   0.352   0.703  0.3198 -0.3502  0.0642
 3151SOL    MW412378   4.679   0.371   0.618  0.5685  0.1047 -0.1096
 3152SOL     OW12379   4.519   5.187   0.947 -0.1777  0.0406  0.0334
 3152SOL    HW212380   4.518   5.132   0.869 -0.0394  0.5970 -0.3681
 3152SOL    HW312381   4.426   5.199   0.969 -0.1982 -0.6476  0.3423
 3152SOL    MW412382   4.507   5.182   0.940  0.1136 -0.1436 -0.0441
 3153SOL     OW12383   3.166   3.913   1.957  0.4145  0.4322 -0.2835
 3153SOL    HW212384   3.088   3.858   1.966  0.9793 -0.4225 -0.4341
 3153SOL    HW312385   3.231   3.871   2.014 -0.0373  2.7467  2.1607
 3153SOL    MW412386   3.164   3.900   1.966 -0.1884 -0.3706  0.3459
 3154SOL     OW12387   4.077   5.592   2.887 -0.2576  0.7095  0.2277
 3154SOL    HW212388   4.033   5.606   2.971  1.1951  0.4641  1.0571
 3154SOL    HW312389   4.050   5.504   2.860 -1.2027  1.0191  0.1251
 3154SOL    MW412390   4.068   5.582   2.895  0.3301  0.0580  0.2374
 3155SOL     OW12391   0.521   2.186   1.295  0.0314  0.0235 -0.1003
 3155SOL    HW212392   0.455   2.211   1.230  0.7547 -0.3211 -0.9914
 3155SOL    HW312393   0.533   2.092   1.281  1.2603  0.2304 -0.4730
 3155SOL    MW412394   0.514   2.177   1.284 -0.4874  0.3663  0.6274
 3156SOL     OW12395   5.358   3.012   1.151  0.0040 -0.0650 -0.3115
 3156SOL    HW212396   5.372   2.986   1.242  0.6039  0.5857 -0.2053
 3156SOL    HW312397   5.266   3.039   1.148 -0.5213 -1.7815 -0.3421
 3156SOL    MW412398   5.347   3.012   1.162 -0.3418  0.2997  0.2657
 3157SOL     OW12399   5.231   5.680   0.518 -0.3298 -0.0039  0.3989
 3157SOL    HW212400   5.230   5.763   0.565  1.6189 -0.5429  1.5132
 3157SOL    HW312401   5.210   5.614   0.585 -2.1049 -0.4448 -0.5182
 3157SOL    MW412402   5.228   5.682   0.533 -0.6876  0.6112  0.6682
 3158SOL     OW12403   1.070   0.791   5.304  0.0739  0.3701 -0.4069
 3158SOL    HW212404   1.129   0.864   5.326 -0.8749  1.0547 -0.0429
 3158SOL    HW312405   0.998   0.799   5.367 -2.3177  1.8435 -3.0434
 3158SOL    MW412406   1.068   0.802   5.315  0.5305 -0.3344  0.0804
 3159SOL     OW12407   2.157   4.523   0.966 -0.0336  0.2218 -0.7188
 3159SOL    HW212408   2.212   4.556   0.895 -0.1431 -0.1084 -0.9541
 3159SOL    HW312409   2.179   4.431   0.974 -0.1700  0.2090 -0.4576
 3159SOL    MW412410   2.167   4.515   0.958 -0.4934 -0.7882 -0.2823
 3160SOL     OW12411   3.238   4.007   0.022 -0.2112  0.4105 -0.2506
 3160SOL    HW212412   3.231   3.914   0.041 -1.2149  0.5760  0.2650
 3160SOL    HW312413   3.332   4.026   0.024 -0.1042 -0.1783  1.6694
 3160SOL    MW412414   3.249   3.998   0.024 -0.3596 -0.0406 -0.2387
 3161SOL     OW12415   1.941   1.598   1.339 -0.2514  0.3208  0.2455
 3161SOL    HW212416   1.949   1.578   1.432  2.3948 -2.0603 -0.3518
 3161SOL    HW312417   1.992   1.679   1.328 -1.1317  0.9852  0.9295
 3161SOL    MW412418   1.949   1.606   1.350 -0.4666 -0.5774  0.0212
 3162SOL     OW12419   1.701   2.372   1.726 -0.6110 -0.0406 -0.1910
 3162SOL    HW212420   1.726   2.337   1.641  0.8350 -1.2964  0.6983
 3162SOL    HW312421   1.606   2.387   1.719 -0.4488  0.3551 -2.1474
 3162SOL    MW412422   1.692   2.369   1.714 -0.2314  0.0306 -0.1862
 3163SOL     OW12423   4.944   1.786   3.954 -0.2185  0.1013 -0.1963
 3163SOL    HW212424   4.972   1.802   3.864  0.0346  0.7106 -0.0181
 3163SOL    HW312425   5.025   1.790   4.005 -0.5303  1.1150  0.2328
 3163SOL    MW412426   4.959   1.788   3.949 -0.0884 -0.3212 -0.3407
 3164SOL     OW12427   2.275   5.570   2.864  0.1664 -0.1757  0.4484
 3164SOL    HW212428   2.200   5.589   2.921 -0.4196  0.7996 -0.6052
 3164SOL    HW312429   2.248   5.493   2.814 -0.2494  0.3263 -0.1108
 3164SOL    MW412430   2.261   5.562   2.865 -0.0684 -0.0562 -0.1453
 3165SOL     OW12431   6.230   5.076   0.687 -0.5275  0.0681  0.7673
 3165SOL    HW212432   6.191   5.139   0.626 -0.6312 -0.6677  0.0519
 3165SOL    HW312433   6.285   5.020   0.632 -0.4455 -0.4744  1.3814
 3165SOL    MW412434   6.232   5.077   0.672 -0.2667 -0.0934 -0.7138
 3166SOL     OW12435   0.590   3.706   3.728 -0.4638 -0.2689  0.1369
 3166SOL    HW212436   0.580   3.691   3.634 -0.0569 -0.4038  0.1131
 3166SOL    HW312437   0.501   3.723   3.759 -0.4546  1.1212 -0.5017
 3166SOL    MW412438   0.577   3.706   3.719  0.3275  0.3369 -0.4455
 3167SOL     OW12439   5.458   1.946   1.324 -0.4293  0.6915  0.2233
 3167SOL    HW212440   5.456   1.893   1.245  1.8276 -1.2576  1.3401
 3167SOL    HW312441   5.465   2.036   1.292 -0.4340  0.0372 -1.7642
 3167SOL    MW412442   5.459   1.951   1.309 -0.1417  0.5609 -0.0008
 3168SOL     OW12443   0.199   1.713   1.031  0.0542  0.0008 -0.1774
 3168SOL    HW212444   0.242   1.646   1.085  0.2634  1.5646  1.6899
 3168SOL    HW312445   0.231   1.696   0.942  0.9513 -1.6822  0.4201
 3168SOL    MW412446   0.209   1.702   1.027 -0.0729 -0.1315  0.1302
 3169SOL     OW12447   1.769   0.508   2.831 -0.2762  0.8686  0.2954
 3169SOL    HW212448   1.728   0.487   2.915  0.7461  0.6339  0.7548
 3169SOL    HW312449   1.730   0.592   2.806 -0.7411  0.8445  0.9007
 3169SOL    MW412450   1.758   0.516   2.839  0.2817  0.0871  0.4553
 3170SOL     OW12451   1.350   1.548   2.635 -0.0155 -0.0235 -0.1158
 3170SOL    HW212452   1.267   1.559   2.590  0.9916  0.9673 -1.8446
 3170SOL    HW312453   1.406   1.618   2.601  1.9320 -1.4253 -0.0030
 3170SOL    MW412454   1.347   1.559   2.625 -0.6084 -0.1281  0.5414
 3171SOL     OW12455   1.939   0.819   5.594  0.1144  0.1595 -0.1555
 3171SOL    HW212456   1.859   0.782   5.555  0.5487  0.0427 -0.9406
 3171SOL    HW312457   1.920   0.820   5.688 -0.6652 -0.2279 -0.2944
 3171SOL    MW412458   1.926   0.814   5.602  0.1181 -0.5904 -0.1372
 3172SOL     OW12459   2.174   3.436   0.391 -0.1548  0.5186 -0.2946
 3172SOL    HW212460   2.252   3.442   0.337 -0.3850  0.5845 -0.6264
 3172SOL    HW312461   2.159   3.526   0.421 -0.1567  0.5249 -0.3142
 3172SOL    MW412462   2.182   3.449   0.388  0.4574 -0.2763 -0.0678
 3173SOL     OW12463   3.886   4.955   3.573 -0.8309  0.3033  0.1985
 3173SOL    HW212464   3.936   4.880   3.607  0.5360  1.4775  0.8665
 3173SOL    HW312465   3.814   4.966   3.635 -2.2605 -1.6184 -0.9573
 3173SOL    MW412466   3.883   4.946   3.585 -0.1288 -0.7429 -0.2356
 3174SOL     OW12467   1.618   0.479   4.490 -0.0426  0.4700  0.2993
 3174SOL    HW212468   1.538   0.461   4.539 -0.5760  0.5581 -0.5101
 3174SOL    HW312469   1.650   0.392   4.465  1.1654  0.3150  2.1967
 3174SOL    MW412470   1.612   0.465   4.493  0.1231 -0.6535  0.0628
 3175SOL     OW12471   1.343   3.824   0.346 -0.3645 -0.0219  0.3658
 3175SOL    HW212472   1.427   3.781   0.359  1.5568  3.0988 -0.7952
 3175SOL    HW312473   1.301   3.774   0.276  1.2892 -0.6280 -0.2430
 3175SOL    MW412474   1.348   3.812   0.339  0.0222 -0.0244  0.1264
 3176SOL     OW12475   2.110   1.540   5.493  0.7258 -0.2259  0.2475
 3176SOL    HW212476   2.061   1.620   5.472  0.5660 -0.5548 -0.6983
 3176SOL    HW312477   2.185   1.570   5.545 -0.7896  0.2105  2.2880
 3176SOL    MW412478   2.114   1.554   5.497 -0.3163 -0.2466 -0.3258
 3177SOL     OW12479   6.194   1.505   0.064  0.3027 -0.1262 -0.2826
 3177SOL    HW212480   6.140   1.444   0.115 -0.5748  0.5201 -0.4087
 3177SOL    HW312481   6.163   1.494  -0.026 -1.5847  2.1477 -0.0267
 3177SOL    MW412482   6.182   1.495   0.059 -0.1550 -0.3556 -0.0719
 3178SOL     OW12483   4.465   5.066   4.032 -0.2377 -0.1108  1.0744
 3178SOL    HW212484   4.382   5.043   3.991 -0.2996 -0.4168  1.3673
 3178SOL    HW312485   4.441   5.110   4.113 -0.1251 -1.0135  1.6161
 3178SOL    MW412486   4.451   5.069   4.037 -0.2944 -0.3579  0.0434
 3179SOL     OW12487   0.196   2.765   5.888 -0.0556  0.1302 -0.8347
 3179SOL    HW212488   0.143   2.842   5.908  0.6248  0.6239 -0.8818
 3179SOL    HW312489   0.231   2.738   5.973 -0.6092 -0.3697 -0.7619
 3179SOL    MW412490   0.193   2.772   5.902  0.5275  0.9143  0.1401
 3180SOL     OW12491   3.636   5.540   5.581 -0.3122 -0.3768  0.2176
 3180SOL    HW212492   3.615   5.561   5.490  0.6785  1.8914  0.4519
 3180SOL    HW312493   3.727   5.510   5.579 -0.2605 -0.2456  0.4545
 3180SOL    MW412494   3.645   5.539   5.569 -0.0987 -0.7059 -0.5138
 3181SOL     OW12495   2.987   0.697   5.579 -0.6723 -0.8197 -0.0078
 3181SOL    HW212496   2.986   0.666   5.488 -1.1627  2.4105 -1.2459
 3181SOL    HW312497   2.901   0.737   5.591  0.2552  0.9950  0.9849
 3181SOL    MW412498   2.976   0.698   5.568  0.3227  0.0489 -0.0531
 3182SOL     OW12499   0.926   1.113   1.830 -0.6940  0.3544 -0.1419
 3182SOL    HW212500   0.912   1.100   1.924 -0.1673  0.1518 -0.0894
 3182SOL    HW312501   1.005   1.166   1.824 -0.3369 -0.2023 -0.4862
 3182SOL    MW412502   0.934   1.118   1.841  0.3733 -0.2793  0.1962
 3183SOL     OW12503   3.308   4.258   4.172  0.6865  0.1124  0.1175
 3183SOL    HW212504   3.358   4.332   4.137 -0.5179  1.9007  1.9398
 3183SOL    HW312505   3.229   4.298   4.209  0.3195 -2.0054  1.8100
 3183SOL    MW412506   3.304   4.273   4.172 -0.7241 -0.1934 -0.1212
 3184SOL     OW12507   1.610   5.121   2.481  0.2553  0.1150  0.2054
 3184SOL    HW212508   1.611   5.057   2.410 -0.2231  0.0231  0.2766
 3184SOL    HW312509   1.683   5.179   2.462 -1.4972  1.8260 -1.9541
 3184SOL    MW412510   1.619   5.120   2.469  1.0951 -0.5967  1.0623
 3185SOL     OW12511   3.452   3.340   0.873 -0.9358  0.3908  0.4474
 3185SOL    HW212512   3.443   3.435   0.872 -1.5031  0.3613 -1.4098
 3185SOL    HW312513   3.530   3.323   0.820  0.0555 -0.1572  2.0000
 3185SOL    MW412514   3.461   3.350   0.866  0.4221  0.5680  0.0356
 3186SOL     OW12515   3.843   2.499   3.767 -0.1422 -0.1102 -0.2953
 3186SOL    HW212516   3.865   2.533   3.680 -0.5258 -0.4564 -0.5319
 3186SOL    HW312517   3.917   2.525   3.822  0.4140 -0.4514 -0.8686
 3186SOL    MW412518   3.856   2.507   3.763  0.0364 -0.5352 -0.1347
 3187SOL     OW12519   4.303   0.620   3.936  0.1780  0.5749 -0.0300
 3187SOL    HW212520   4.372   0.577   3.986  0.2032 -0.8658 -1.2312
 3187SOL    HW312521   4.345   0.698   3.898  0.4785  1.0035  1.1402
 3187SOL    MW412522   4.318   0.625   3.938 -0.1945  0.0554  0.1523
 3188SOL     OW12523   0.739   4.994   5.544 -0.3841  0.1930  0.3704
 3188SOL    HW212524   0.752   4.899   5.542 -2.3472 -0.1676  1.6998
 3188SOL    HW312525   0.733   5.019   5.452  0.4756 -0.9136 -0.0115
 3188SOL    MW412526   0.740   4.984   5.532  0.1531 -0.1650 -0.2348
 3189SOL     OW12527   0.602   3.476   5.081  0.3305 -0.2239 -0.1372
 3189SOL    HW212528   0.591   3.569   5.063  1.8763  0.2245  1.0381
 3189SOL    HW312529   0.561   3.432   5.006  1.3655  1.4282 -1.7560
 3189SOL    MW412530   0.595   3.483   5.068  0.3508  0.9032 -0.0931
 3190SOL     OW12531   4.701   5.558   5.934 -0.1066  0.5933 -0.5677
 3190SOL    HW212532   4.767   5.585   5.997 -1.9531  0.7214  1.4148
 3190SOL    HW312533   4.700   5.628   5.869 -0.4085  2.1936  1.0639
 3190SOL    MW412534   4.710   5.571   5.934 -0.5918  0.5375  0.0156
 3191SOL     OW12535   3.144   4.219   3.800 -0.2911  0.5855 -0.2406
 3191SOL    HW212536   3.178   4.291   3.747  0.2673 -0.0221 -0.7295
 3191SOL    HW312537   3.210   4.207   3.869  0.3153 -0.3354 -0.9571
 3191SOL    MW412538   3.157   4.227   3.802  0.4366  0.3114 -0.5958
 3192SOL     OW12539   2.851   1.192   6.332  0.7818 -0.3208  0.3975
 3192SOL    HW212540   2.947   1.190   6.329  0.7630 -0.0049 -1.2526
 3192SOL    HW312541   2.825   1.107   6.297  0.4530 -0.2784  0.5404
 3192SOL    MW412542   2.860   1.180   6.327 -0.2046 -0.5310 -0.4453
 3193SOL     OW12543   2.507   3.870   1.004  0.1394  1.1435  0.0612
 3193SOL    HW212544   2.487   3.803   1.069  0.1131  1.0666 -0.0251
 3193SOL    HW312545   2.422   3.898   0.970  0.1722  0.7797 -0.3423
 3193SOL    MW412546   2.493   3.865   1.008 -0.3212  0.7944  0.1339
 3194SOL     OW12547   2.627   3.491   4.351 -0.5319  0.3771 -0.2613
 3194SOL    HW212548   2.538   3.516   4.375 -0.5326 -0.0275  0.1839
 3194SOL    HW312549   2.631   3.502   4.256 -0.7310  1.4129 -0.1678
 3194SOL    MW412550   2.616   3.496   4.342 -0.6360  0.1260  0.3890
 3195SOL     OW12551   3.794   0.841   6.254 -0.1958  0.2997  0.2885
 3195SOL    HW212552   3.851   0.777   6.211 -0.8378  0.9921 -1.7073
 3195SOL    HW312553   3.800   0.820   6.347 -0.7220 -2.9701 -0.2899
 3195SOL    MW412554   3.802   0.830   6.261  0.5257 -0.3853 -0.8498
 3196SOL     OW12555   4.490   0.841   4.687 -0.5989 -0.0845  0.0884
 3196SOL    HW212556   4.407   0.823   4.644 -2.4859  0.7243  3.1374
 3196SOL    HW312557   4.547   0.769   4.659 -1.6180  0.2730 -3.4885
 3196SOL    MW412558   4.487   0.829   4.677 -0.0027  0.2767 -0.5831
 3197SOL     OW12559   1.512   0.148   4.147 -0.0460  0.0883  0.0790
 3197SOL    HW212560   1.577   0.206   4.187  0.1509  0.0618 -0.2034
 3197SOL    HW312561   1.435   0.156   4.204 -0.5892  1.8908 -0.8499
 3197SOL    MW412562   1.510   0.157   4.160  0.2172  0.1025 -0.1076
 3198SOL     OW12563   5.001   4.235   5.452 -0.7602  0.7298  0.3598
 3198SOL    HW212564   5.093   4.255   5.434 -0.6092 -0.5375 -0.4294
 3198SOL    HW312565   4.958   4.243   5.367 -1.0795 -0.1510  0.4265
 3198SOL    MW412566   5.007   4.239   5.438  0.2214 -0.2910  0.2814
 3199SOL     OW12567   6.179   1.158   5.318  0.0010 -0.6074  0.1072
 3199SOL    HW212568   6.180   1.067   5.289 -1.8399 -0.7520  0.4018
 3199SOL    HW312569   6.231   1.158   5.398 -1.1057 -1.6843  0.8470
 3199SOL    MW412570   6.186   1.146   5.325  0.8178 -0.0243  0.1741
 3200SOL     OW12571   6.043   2.407   3.041  0.0681 -0.5770 -0.1589
 3200SOL    HW212572   6.093   2.473   3.090 -0.7893  0.7320 -0.9804
 3200SOL    HW312573   6.104   2.377   2.973  0.2182  0.0042 -0.2961
 3200SOL    MW412574   6.058   2.412   3.038  0.5872  0.3286  0.5303
 3201SOL     OW12575   2.623   2.328   5.220  0.1479 -0.2165  0.5516
 3201SOL    HW212576   2.592   2.378   5.144  2.7143  1.2485  0.3365
 3201SOL    HW312577   2.656   2.246   5.183  0.0985 -0.1110  0.2691
 3201SOL    MW412578   2.623   2.324   5.205 -0.2078 -0.2212 -0.5167
 3202SOL     OW12579   3.367   6.033   0.521  0.4376 -0.1846  0.5066
 3202SOL    HW212580   3.428   6.049   0.449  0.0912  0.3806  0.3269
 3202SOL    HW312581   3.421   6.032   0.600  0.5513  1.6340  0.5050
 3202SOL    MW412582   3.382   6.035   0.522  0.5173  0.0391  0.7398
 3203SOL     OW12583   1.191   2.010   2.159  0.1796 -0.2580 -0.9272
 3203SOL    HW212584   1.185   1.988   2.066  1.1167  0.5349 -1.1853
 3203SOL    HW312585   1.284   2.028   2.174 -0.3653  2.8384 -0.6134
 3203SOL    MW412586   1.202   2.009   2.149 -0.5075 -0.5236 -0.4418
 3204SOL     OW12587   1.773   2.286   3.208  0.5433  0.0109 -0.7546
 3204SOL    HW212588   1.819   2.233   3.142 -0.3375 -0.3702 -1.0860
 3204SOL    HW312589   1.709   2.336   3.158  0.4781  0.4076 -0.2807
 3204SOL    MW412590   1.771   2.285   3.192  0.0473 -0.0512  0.0949
 3205SOL     OW12591   1.824   2.863   3.189  0.5802  0.0811  0.0011
 3205SOL    HW212592   1.829   2.782   3.137 -0.7381 -0.3264  0.4668
 3205SOL    HW312593   1.827   2.834   3.280 -3.6677  0.0824  0.3316
 3205SOL    MW412594   1.825   2.849   3.194 -0.1105  0.2994  0.0760
 3206SOL     OW12595   5.728   4.282   1.184 -0.3235  0.3012 -0.0607
 3206SOL    HW212596   5.795   4.304   1.248 -0.4762  0.0225  0.1992
 3206SOL    HW312597   5.773   4.228   1.119 -0.3551 -0.1406  0.2741
 3206SOL    MW412598   5.742   4.278   1.183 -0.1205 -0.5255  0.4485
 3207SOL     OW12599   2.657   5.018   1.661  0.2133 -0.6679  0.6967
 3207SOL    HW212600   2.569   4.980   1.667 -0.1574 -0.0478 -0.5106
 3207SOL    HW312601   2.687   5.023   1.752 -1.7497  0.7961  1.3345
 3207SOL    MW412602   2.649   5.014   1.674 -0.2251  0.1216 -0.1463
 3208SOL     OW12603   3.581   4.165   1.369  0.2314  0.0791 -0.3012
 3208SOL    HW212604   3.593   4.176   1.464  0.8912 -0.4898 -0.3114
 3208SOL    HW312605   3.669   4.152   1.335 -0.1185 -1.0848 -0.8130
 3208SOL    MW412606   3.594   4.165   1.377  0.1890 -0.0365 -0.7145
 3209SOL     OW12607   3.070   3.054   2.832 -0.4342 -0.0420 -0.1998
 3209SOL    HW212608   3.050   2.961   2.825 -0.8094 -0.0039  0.2862
 3209SOL    HW312609   2.992   3.092   2.872  0.0167  0.3587  0.3103
 3209SOL    MW412610   3.057   3.047   2.836 -0.7889 -0.1286  0.2190
 3210SOL     OW12611   5.370   5.668   2.039 -0.4931  0.1908  0.1911
 3210SOL    HW212612   5.338   5.605   1.975  0.5349  0.1059 -0.2522
 3210SOL    HW312613   5.291   5.707   2.076 -1.1098 -0.3843 -0.5026
 3210SOL    MW412614   5.355   5.665   2.036  0.1506 -0.6499 -0.1709
 3211SOL     OW12615   6.244   3.909   2.637  0.2608  0.0811  0.3081
 3211SOL    HW212616   6.304   3.922   2.564 -0.5162  1.1539 -0.1631
 3211SOL    HW312617   6.180   3.845   2.605  1.5746 -1.7330  1.1049
 3211SOL    MW412618   6.244   3.902   2.623  0.2597  0.7018 -0.0882
 3212SOL     OW12619   5.930   4.193   4.790  0.6454  0.1441  0.1812
 3212SOL    HW212620   6.019   4.160   4.779  0.1183 -1.3927  0.2930
 3212SOL    HW312621   5.895   4.145   4.865 -0.4437  0.3548 -0.1707
 3212SOL    MW412622   5.937   4.183   4.798  0.7937  0.7942  0.0201
 3213SOL     OW12623   3.843   4.306   5.058  0.3345  0.1933 -0.0100
 3213SOL    HW212624   3.896   4.344   4.988 -0.3296 -0.0048 -0.6320
 3213SOL    HW312625   3.900   4.242   5.100  0.3572 -0.5359 -1.1305
 3213SOL    MW412626   3.858   4.303   5.054 -0.0003  0.0549  0.1512
 3214SOL     OW12627   5.765   3.936   2.719 -0.1443  0.0754 -0.3404
 3214SOL    HW212628   5.751   4.006   2.782 -0.6070  1.1507 -1.5872
 3214SOL    HW312629   5.695   3.873   2.736  0.9604 -0.7070  1.5596
 3214SOL    MW412630   5.754   3.937   2.729  0.4043  0.0088 -0.0300
 3215SOL     OW12631   3.883   0.678   3.743  0.1392  0.5950 -1.0499
 3215SOL    HW212632   3.973   0.674   3.712  0.4780  1.7565 -0.2587
 3215SOL    HW312633   3.885   0.638   3.829 -0.2714 -0.1178 -1.3620
 3215SOL    MW412634   3.895   0.672   3.750  0.2763  0.2038 -0.2898
 3216SOL     OW12635   0.190   4.513   1.530  0.1851  0.2876  0.5045
 3216SOL    HW212636   0.207   4.466   1.449  0.7065  1.3702 -0.0346
 3216SOL    HW312637   0.132   4.455   1.580 -0.9960  0.0405 -1.0843
 3216SOL    MW412638   0.184   4.499   1.526 -0.7971 -0.0128 -0.8932
 3217SOL     OW12639   2.812   2.385   2.542 -0.2507 -0.1539 -0.0051
 3217SOL    HW212640   2.779   2.309   2.493  0.8949 -1.4424  1.1438
 3217SOL    HW312641   2.907   2.373   2.544 -0.2764 -0.4254  2.9135
 3217SOL    MW412642   2.820   2.373   2.536  0.6184  0.6495  0.2342
 3218SOL     OW12643   0.329   4.497   0.630  0.1230 -0.4607 -0.1497
 3218SOL    HW212644   0.280   4.489   0.712 -0.0833 -1.0576 -0.3298
 3218SOL    HW312645   0.410   4.449   0.645  1.0571  1.2190  0.4379
 3218SOL    MW412646   0.333   4.490   0.643  0.1289 -0.4411 -0.4567
 3219SOL     OW12647   5.665   4.996   0.124  0.2128 -0.1247 -0.2603
 3219SOL    HW212648   5.708   5.042   0.196  0.1673 -2.1771  1.1529
 3219SOL    HW312649   5.622   4.921   0.165  0.1253 -1.3487 -2.4237
 3219SOL    MW412650   5.665   4.992   0.139  0.2027  0.1239 -0.2065
 3220SOL     OW12651   3.951   5.042   4.710 -0.3627  0.5539 -0.0210
 3220SOL    HW212652   3.875   4.983   4.702 -0.1891  0.1889  0.8930
 3220SOL    HW312653   4.019   4.999   4.659  0.0622 -0.5852  1.4293
 3220SOL    MW412654   3.950   5.028   4.703  0.0969 -0.5580  0.0499
 3221SOL     OW12655   4.161   6.213   3.890  0.0384 -0.3439 -0.4337
 3221SOL    HW212656   4.197   6.287   3.841 -1.8726  1.4938  0.7969
 3221SOL    HW312657   4.217   6.207   3.968  0.8575 -0.9393 -1.0485
 3221SOL    MW412658   4.173   6.222   3.894  0.1102 -0.4887  0.4498
 3222SOL     OW12659   5.047   4.130   6.006  0.1123 -0.5227 -0.2049
 3222SOL    HW212660   5.031   4.057   6.066 -0.1986  0.5418  1.0460
 3222SOL    HW312661   5.139   4.120   5.980  0.2831 -0.9305  0.5278
 3222SOL    MW412662   5.057   4.119   6.010 -0.1624  0.3050  0.7869
 3223SOL     OW12663   6.161   0.702   5.627  1.1651  0.2884 -0.5668
 3223SOL    HW212664   6.071   0.678   5.647  0.5941  1.8568 -1.1277
 3223SOL    HW312665   6.171   0.790   5.663  1.6595  1.1487 -2.6797
 3223SOL    MW412666   6.151   0.710   5.634  0.1490 -0.1401 -0.6040
 3224SOL     OW12667   3.203   3.360   4.173 -0.0319  0.0285 -0.6145
 3224SOL    HW212668   3.159   3.307   4.108  0.7926 -0.6947 -0.6009
 3224SOL    HW312669   3.264   3.300   4.216  0.4676  0.8302 -0.1711
 3224SOL    MW412670   3.205   3.345   4.170 -0.3132 -0.2191  0.1285
 3225SOL     OW12671   5.394   1.812   3.362 -0.2587  0.1968 -0.0413
 3225SOL    HW212672   5.445   1.753   3.418 -0.1082  0.3510 -0.0129
 3225SOL    HW312673   5.455   1.883   3.341 -0.8731  1.1292  1.1532
 3225SOL    MW412674   5.409   1.814   3.367  0.1658  0.3138  0.2709
 3226SOL     OW12675   2.195   1.066   0.988 -0.3686  0.1404 -0.0674
 3226SOL    HW212676   2.278   1.095   1.027  0.3938 -2.6364  0.5658
 3226SOL    HW312677   2.220   0.994   0.930 -2.2474 -0.1615 -0.5636
 3226SOL    MW412678   2.210   1.060   0.985  0.4841 -0.1321  0.0755
 3227SOL     OW12679   2.348   3.079   0.652 -0.8763  0.7269  0.2304
 3227SOL    HW212680   2.440   3.054   0.645 -1.1203 -0.1046 -0.1335
 3227SOL    HW312681   2.348   3.153   0.712  0.1652  1.4933 -0.6562
 3227SOL    MW412682   2.360   3.086   0.659 -0.4375  0.0799  0.0129
 3228SOL     OW12683   2.427   4.988   4.428  0.1016  0.2879  0.2736
 3228SOL    HW212684   2.495   5.055   4.429 -0.5837  1.0481  1.9325
 3228SOL    HW312685   2.473   4.906   4.444  0.9581  0.3170 -1.8033
 3228SOL    MW412686   2.442   4.986   4.431 -0.4288  0.5624  0.2335
 3229SOL     OW12687   4.349   2.866   4.204  0.4539  0.0734 -0.0525
 3229SOL    HW212688   4.340   2.944   4.259  0.8640 -0.3365  0.6049
 3229SOL    HW312689   4.300   2.798   4.250  2.2321 -0.7331  0.7222
 3229SOL    MW412690   4.341   2.867   4.217 -0.0049  0.0667 -0.9310
 3230SOL     OW12691   6.042   2.724   6.399  0.6239 -0.0982  0.9370
 3230SOL    HW212692   6.137   2.722   6.401  0.6273  0.2126  1.3067
 3230SOL    HW312693   6.015   2.644   6.445  0.6967 -0.9517 -0.4566
 3230SOL    MW412694   6.051   2.713   6.406 -0.2525 -0.5136  0.5705
 3231SOL     OW12695   5.919   4.806   0.154 -0.1781  0.3147  0.1956
 3231SOL    HW212696   5.864   4.861   0.098 -0.3032 -0.6914 -0.6880
 3231SOL    HW312697   5.933   4.859   0.233 -0.6798  1.4216 -0.4366
 3231SOL    MW412698   5.914   4.820   0.157  0.3614  0.3615 -0.1886
 3232SOL     OW12699   2.935   3.068   1.934 -0.3333 -0.0109  0.1957
 3232SOL    HW212700   2.971   3.100   2.017 -0.5212  0.2815  0.1675
 3232SOL    HW312701   2.841   3.066   1.948 -0.2297 -2.4260  0.8554
 3232SOL    MW412702   2.927   3.072   1.947 -0.2448  1.1116  0.3147
 3233SOL     OW12703   2.049   2.663   2.483  0.0152 -0.2580  0.0126
 3233SOL    HW212704   2.015   2.753   2.486  1.0262  0.1971 -1.0849
 3233SOL    HW312705   2.086   2.649   2.570  0.2478  0.5701  0.0627
 3233SOL    MW412706   2.049   2.673   2.495  0.0078 -0.1401  0.4243
 3234SOL     OW12707   0.254   4.557   3.784 -0.5617  0.2667  0.2664
 3234SOL    HW212708   0.340   4.599   3.780 -0.6356  0.6234  1.8660
 3234SOL    HW312709   0.273   4.464   3.784 -0.2460  0.3242 -0.4996
 3234SOL    MW412710   0.268   4.550   3.783  0.4987  0.2529  0.2793
 3235SOL     OW12711   1.956   0.675   3.403 -0.3807 -0.5810 -0.2718
 3235SOL    HW212712   1.914   0.614   3.344  0.0837  0.5229 -1.8220
 3235SOL    HW312713   2.049   0.654   3.397 -0.4507 -1.4522  1.2814
 3235SOL    MW412714   1.963   0.664   3.395 -0.2697  0.3031 -0.1810
 3236SOL     OW12715   6.419   5.249   3.548  0.2236 -0.2608 -0.2496
 3236SOL    HW212716   6.458   5.177   3.499 -0.5016 -0.0875 -1.0953
 3236SOL    HW312717   6.451   5.328   3.505 -1.9781 -0.1019 -1.7850
 3236SOL    MW412718   6.428   5.250   3.536  0.5189  0.0750 -0.1894
 3237SOL     OW12719   5.238   4.505   0.502 -0.2177  1.0053 -0.0063
 3237SOL    HW212720   5.161   4.498   0.445 -1.6307 -1.7770  1.9655
 3237SOL    HW312721   5.203   4.538   0.585  0.6180 -0.5066  1.0003
 3237SOL    MW412722   5.223   4.509   0.506 -0.2885  0.0497  0.2413
 3238SOL     OW12723   3.965   0.307   3.525 -0.0423  0.5050 -0.5226
 3238SOL    HW212724   3.908   0.373   3.484 -0.4094  0.6678  0.2371
 3238SOL    HW312725   4.051   0.322   3.486 -0.1026  1.4991 -0.2865
 3238SOL    MW412726   3.968   0.318   3.514  0.2893  0.4919  0.2589
 3239SOL     OW12727   2.400   4.563   5.641  0.5480  0.0217  0.1334
 3239SOL    HW212728   2.373   4.496   5.578 -0.3648  1.2145 -0.7910
 3239SOL    HW312729   2.318   4.590   5.683  0.8978  0.6096  0.4448
 3239SOL    MW412730   2.386   4.558   5.639  0.1816  0.4536  0.1047
 3240SOL     OW12731   2.510   2.633   1.938 -0.4233 -0.0518 -0.3333
 3240SOL    HW212732   2.542   2.588   2.017  0.0002 -0.5491 -0.7770
 3240SOL    HW312733   2.444   2.694   1.970  0.3703  0.3939  0.5201
 3240SOL    MW412734   2.506   2.635   1.953  0.0866 -0.3307 -0.0910
 3241SOL     OW12735   3.571   5.977   3.568  0.7352  0.5624  0.2022
 3241SOL    HW212736   3.512   6.021   3.506 -3.0120 -2.5236  1.1698
 3241SOL    HW312737   3.546   6.012   3.654  0.5514 -0.4659  0.5840
 3241SOL    MW412738   3.560   5.988   3.571 -0.3554  0.1665  0.0525
 3242SOL     OW12739   1.577   0.272   3.885  0.0802 -0.1457  0.2630
 3242SOL    HW212740   1.540   0.197   3.839  1.6099  0.4357 -2.0896
 3242SOL    HW312741   1.552   0.259   3.976 -1.9819 -2.0732 -0.4980
 3242SOL    MW412742   1.569   0.260   3.891  0.2103 -0.3725  0.4235
 3243SOL     OW12743   3.255   1.806   2.226  0.2189 -0.5434  0.7276
 3243SOL    HW212744   3.306   1.858   2.164  0.5101 -0.0895  1.3250
 3243SOL    HW312745   3.284   1.716   2.213 -1.2149 -0.7800 -1.2214
 3243SOL    MW412746   3.266   1.801   2.216  0.3099 -0.2156  0.2476
 3244SOL     OW12747   5.180   2.416   4.684  0.0435 -0.6210 -0.0889
 3244SOL    HW212748   5.172   2.326   4.651 -3.1649 -0.1393 -0.9394
 3244SOL    HW312749   5.103   2.461   4.650  0.9711  2.2054  1.2485
 3244SOL    MW412750   5.169   2.410   4.675 -0.0674 -0.3175  0.9932
 3245SOL     OW12751   4.980   0.204   3.093  0.5060  0.2798  0.2419
 3245SOL    HW212752   5.008   0.291   3.065 -0.6098  0.4709 -0.3137
 3245SOL    HW312753   4.909   0.221   3.155 -0.4751 -0.2554 -0.7238
 3245SOL    MW412754   4.975   0.218   3.098 -1.1882  0.2532  0.0282
 3246SOL     OW12755   1.283   5.047   0.222  0.1795 -0.3258 -0.3157
 3246SOL    HW212756   1.346   5.094   0.167  0.8518  0.2839  0.9262
 3246SOL    HW312757   1.198   5.070   0.186  0.6365 -1.3846 -2.2053
 3246SOL    MW412758   1.280   5.056   0.210  0.5100  0.3828  0.0062
 3247SOL     OW12759   5.820   4.465   5.900  0.1393 -0.2859 -0.0327
 3247SOL    HW212760   5.850   4.524   5.969  0.4275 -1.2066  0.6412
 3247SOL    HW312761   5.845   4.509   5.819 -0.4347  0.9379  0.4124
 3247SOL    MW412762   5.827   4.479   5.899  0.5883 -0.7753 -0.5094
 3248SOL     OW12763   6.027   1.841   6.019  0.2105 -0.0972 -0.2681
 3248SOL    HW212764   6.116   1.815   6.042  0.2730 -0.9151 -1.3476
 3248SOL    HW312765   5.978   1.835   6.102  1.0703  0.0037  0.2545
 3248SOL    MW412766   6.032   1.837   6.033 -0.5120  0.4733 -0.6179
 3249SOL     OW12767   5.375   1.407   3.145 -0.5186 -0.1436 -0.5066
 3249SOL    HW212768   5.326   1.388   3.225 -1.6282  0.3179 -1.0662
 3249SOL    HW312769   5.369   1.501   3.134  0.0736 -0.1407 -0.8637
 3249SOL    MW412770   5.368   1.417   3.154 -0.4469  0.3685  0.3238
 3250SOL     OW12771   5.545   0.568   3.413 -0.5116 -0.1067 -0.3080
 3250SOL    HW212772   5.544   0.579   3.318 -2.0335  1.8324 -0.1362
 3250SOL    HW312773   5.599   0.639   3.445 -0.4078 -0.4580  0.3077
 3250SOL    MW412774   5.552   0.579   3.405  0.3910 -0.1561  0.1631
 3251SOL     OW12775   1.374   2.278   1.974 -0.1548  0.3542  0.6365
 3251SOL    HW212776   1.414   2.194   1.951  0.8140  1.2544 -1.1796
 3251SOL    HW312777   1.433   2.315   2.040  0.8769  0.7175 -0.4547
 3251SOL    MW412778   1.387   2.272   1.980  0.4654  0.2169  0.2401
 3252SOL     OW12779   3.096   5.742   5.574 -0.5847  0.6652 -0.1153
 3252SOL    HW212780   3.033   5.672   5.592  0.3546  0.0199  0.7962
 3252SOL    HW312781   3.065   5.816   5.624 -0.6516  0.3570  0.3044
 3252SOL    MW412782   3.084   5.742   5.583 -0.0937 -0.5526 -0.2399
 3253SOL     OW12783   0.771   3.305   2.951 -0.1727 -0.3159  0.6907
 3253SOL    HW212784   0.743   3.358   3.025  1.0600  1.2588  0.0951
 3253SOL    HW312785   0.711   3.231   2.950 -3.8338  2.3941 -0.0477
 3253SOL    MW412786   0.760   3.303   2.960 -0.1769 -0.6137 -0.2030
 3254SOL     OW12787   0.663   4.973   0.054  0.6917  0.4613 -0.2278
 3254SOL    HW212788   0.676   5.068   0.059 -1.1638  0.8102 -0.9608
 3254SOL    HW312789   0.673   4.953  -0.039 -1.3144  0.4086 -0.4899
 3254SOL    MW412790   0.666   4.983   0.042 -0.1050  0.0161  0.9395
 3255SOL     OW12791   1.558   0.927   2.435  0.1080 -0.9774 -0.3565
 3255SOL    HW212792   1.526   0.837   2.440  0.8091 -1.2459 -0.6755
 3255SOL    HW312793   1.482   0.980   2.459 -0.7345 -1.5695 -1.6028
 3255SOL    MW412794   1.544   0.922   2.439 -0.1430  0.4149  0.3514
 3256SOL     OW12795   2.745   3.354   5.577  0.9798 -0.0853 -0.5269
 3256SOL    HW212796   2.751   3.371   5.484 -1.0569 -2.5307 -1.2155
 3256SOL    HW312797   2.670   3.406   5.607  1.0473 -0.0298 -0.4531
 3256SOL    MW412798   2.736   3.363   5.569  0.2745  0.7060 -0.0481
 3257SOL     OW12799   3.137   3.981   3.533  0.1232  0.3977 -0.1727
 3257SOL    HW212800   3.112   4.000   3.624  2.8377 -1.9915  1.2490
 3257SOL    HW312801   3.062   3.934   3.497 -1.1641  1.7452  0.6462
 3257SOL    MW412802   3.124   3.977   3.541  0.1326  0.3816 -0.5320
 3258SOL     OW12803   0.791   5.575   1.039 -0.6398 -0.3214  0.2030
 3258SOL    HW212804   0.781   5.571   0.944 -0.2900  0.3720  0.1330
 3258SOL    HW312805   0.805   5.667   1.058  1.0778 -0.6396  0.7231
 3258SOL    MW412806   0.792   5.587   1.029 -0.1501  0.1037  0.6081
 3259SOL     OW12807   4.986   3.092   5.200 -0.6876 -0.1651  0.3506
 3259SOL    HW212808   5.016   3.123   5.285 -0.1076  0.0027  0.0920
 3259SOL    HW312809   5.022   3.155   5.137  0.2340 -1.1610 -0.1558
 3259SOL    MW412810   4.995   3.104   5.203  0.4773 -0.3265 -0.4854
 3260SOL     OW12811   5.146   2.139   3.900 -0.4361  0.0842  0.1353
 3260SOL    HW212812   5.182   2.204   3.840  0.0904 -0.7109 -0.4327
 3260SOL    HW312813   5.221   2.112   3.954 -0.4788 -0.5794 -0.1274
 3260SOL    MW412814   5.160   2.144   3.899  0.6561  0.0797 -0.4872
 3261SOL     OW12815   0.146   4.645   6.313 -0.5954 -0.2412  0.0361
 3261SOL    HW212816   0.202   4.615   6.385  1.1362  1.2038 -0.6506
 3261SOL    HW312817   0.078   4.696   6.355 -1.0750 -1.4714  0.8267
 3261SOL    MW412818   0.145   4.647   6.328 -0.2978 -0.3720 -0.3122
 3262SOL     OW12819   5.756   1.641   2.519 -0.3298 -0.3188 -0.5455
 3262SOL    HW212820   5.701   1.620   2.595 -0.1815 -0.1005 -0.3772
 3262SOL    HW312821   5.783   1.555   2.485  0.3735 -0.4132  0.2124
 3262SOL    MW412822   5.752   1.627   2.525 -0.7970 -0.0418  0.1982
 3263SOL     OW12823   4.387   3.912   1.261 -0.3013  0.2359  0.0496
 3263SOL    HW212824   4.384   3.978   1.330 -0.6696 -2.0829  2.4225
 3263SOL    HW312825   4.480   3.888   1.255 -0.4076 -0.3999  0.6816
 3263SOL    MW412826   4.399   3.917   1.269 -0.2900 -0.2549  0.1852
 3264SOL     OW12827   4.874   0.751   2.604  0.1135  0.3124 -0.4146
 3264SOL    HW212828   4.921   0.835   2.602 -0.7929  0.8190 -1.4067
 3264SOL    HW312829   4.935   0.690   2.644  1.3232  1.1323 -0.9651
 3264SOL    MW412830   4.888   0.754   2.609  0.2379 -0.0982  0.0470
 3265SOL     OW12831   4.641   0.187   5.886  0.1378 -0.2323 -0.5670
 3265SOL    HW212832   4.733   0.172   5.908 -0.5186 -2.5459  0.9744
 3265SOL    HW312833   4.608   0.244   5.955  0.6565  1.7136 -1.8464
 3265SOL    MW412834   4.649   0.192   5.898  0.2441 -0.2929 -0.6992
 3266SOL     OW12835   4.339   6.156   2.538 -0.2479  0.1813  0.6723
 3266SOL    HW212836   4.327   6.129   2.447  0.1573  2.0483  0.0299
 3266SOL    HW312837   4.250   6.168   2.571 -0.4199  1.9642 -0.2959
 3266SOL    MW412838   4.326   6.154   2.530  0.5917  0.1572  0.3086
 3267SOL     OW12839   2.492   3.060   3.742  0.1450 -0.6537  0.0915
 3267SOL    HW212840   2.478   2.966   3.725 -0.7525 -0.5990  0.4694
 3267SOL    HW312841   2.441   3.104   3.675  1.2148 -0.4203 -0.5857
 3267SOL    MW412842   2.484   3.053   3.731 -0.4871 -0.0874 -0.1701
 3268SOL     OW12843   6.327   5.622   3.447 -0.3178 -0.3532 -0.2925
 3268SOL    HW212844   6.410   5.579   3.469 -1.1749 -3.2602 -2.1122
 3268SOL    HW312845   6.351   5.689   3.384  0.8494  0.3495  0.8472
 3268SOL    MW412846   6.341   5.625   3.441  0.0484 -0.2740 -0.2632
 3269SOL     OW12847   3.470   0.570   5.993 -0.2807  0.3505  0.3746
 3269SOL    HW212848   3.458   0.661   6.017 -1.1547  0.0947  0.9347
 3269SOL    HW312849   3.395   0.524   6.032  0.5078 -0.7086  0.6918
 3269SOL    MW412850   3.458   0.576   6.001 -0.0168 -0.2070 -0.0965
 3270SOL     OW12851   6.353   4.840   5.970 -0.5024 -0.0113 -0.2554
 3270SOL    HW212852   6.324   4.911   5.913  1.9742  1.4498  0.1782
 3270SOL    HW312853   6.398   4.779   5.911  1.9157  1.4197 -0.0101
 3270SOL    MW412854   6.355   4.841   5.955 -0.2078 -0.1818  0.4256
 3271SOL     OW12855   3.981   2.475   4.548 -0.7352 -0.3053  0.5954
 3271SOL    HW212856   3.913   2.440   4.606 -0.9176 -1.4125 -0.2502
 3271SOL    HW312857   3.995   2.406   4.483  0.5191  0.3001  0.1854
 3271SOL    MW412858   3.974   2.461   4.547 -0.3441 -0.7447  0.2743
 3272SOL     OW12859   5.905   1.304   1.951 -0.1355  0.4173  0.3938
 3272SOL    HW212860   5.982   1.258   1.984  0.1970  0.2519 -0.5778
 3272SOL    HW312861   5.845   1.306   2.026  0.6775  0.2710  1.0722
 3272SOL    MW412862   5.907   1.298   1.965  0.1982  0.3723  0.3285
 3273SOL     OW12863   2.485   5.624   1.369  0.1261 -0.5846 -0.0019
 3273SOL    HW212864   2.469   5.536   1.405 -0.5686 -0.5119 -0.1232
 3273SOL    HW312865   2.454   5.619   1.279  0.4804 -0.3319 -0.1392
 3273SOL    MW412866   2.479   5.612   1.362 -0.8787  0.3632  0.3906
 3274SOL     OW12867   1.644   0.763   2.824  0.7090  0.0452 -0.4515
 3274SOL    HW212868   1.594   0.845   2.822  0.4089 -0.1047  0.7149
 3274SOL    HW312869   1.681   0.759   2.912 -0.7327 -1.9525  0.1159
 3274SOL    MW412870   1.642   0.773   2.835 -0.1717 -0.0426  0.5500
 3275SOL     OW12871   3.910   3.728   3.075  0.1377 -0.7055  0.0352
 3275SOL    HW212872   3.893   3.642   3.114 -0.5046 -0.5995  0.0053
 3275SOL    HW312873   3.824   3.757   3.044  0.5963 -0.7085 -1.2974
 3275SOL    MW412874   3.897   3.720   3.076  0.5441  0.5087  0.1793
 3276SOL     OW12875   1.601   2.183   4.307  0.4750  0.0624 -0.2437
 3276SOL    HW212876   1.683   2.164   4.354 -0.1353 -0.2024  0.7332
 3276SOL    HW312877   1.624   2.171   4.214  1.6875  0.5468 -0.0259
 3276SOL    MW412878   1.615   2.179   4.301  0.4512  0.1894  0.0194
 3277SOL     OW12879   1.306   5.694   1.588  0.0767  0.4453  0.1050
 3277SOL    HW212880   1.382   5.697   1.646  0.7686  1.6936 -0.8172
 3277SOL    HW312881   1.256   5.773   1.611  0.2965  0.8896 -0.8787
 3277SOL    MW412882   1.309   5.705   1.599 -0.1723 -0.0669  0.5794
 3278SOL     OW12883   3.106   1.811   2.563  0.2436 -0.0057 -0.1793
 3278SOL    HW212884   3.168   1.744   2.534  1.0887  1.0412 -0.8581
 3278SOL    HW312885   3.042   1.816   2.492 -1.3410 -1.8834  1.0120
 3278SOL    MW412886   3.106   1.803   2.549  0.0124  0.1627 -0.4628
 3279SOL     OW12887   3.278   0.448   4.476 -0.1611  0.2272  0.0571
 3279SOL    HW212888   3.320   0.475   4.558 -1.4749  0.2247  0.7696
 3279SOL    HW312889   3.323   0.368   4.450  0.8900  0.7342  0.2703
 3279SOL    MW412890   3.289   0.441   4.484 -0.3331  0.6643 -0.0005
 3280SOL     OW12891   5.357   4.978   2.928 -0.5491 -0.3595  0.4946
 3280SOL    HW212892   5.346   4.940   2.840 -2.4413 -1.2404  1.0587
 3280SOL    HW312893   5.449   4.963   2.949 -0.3841 -1.3578 -0.7862
 3280SOL    MW412894   5.368   4.971   2.919  0.3845  0.5253  0.7269
 3281SOL     OW12895   3.181   0.989   0.154  0.3716 -0.1507  0.0077
 3281SOL    HW212896   3.094   0.955   0.177  0.6561 -0.5889  0.4494
 3281SOL    HW312897   3.240   0.949   0.218  0.7031  1.2535  0.6254
 3281SOL    MW412898   3.177   0.979   0.165 -0.0743 -0.3199  0.3480
 3282SOL     OW12899   3.683   5.091   5.315  0.3312 -0.4352 -0.0311
 3282SOL    HW212900   3.743   5.033   5.268 -1.1318 -2.7715  0.8267
 3282SOL    HW312901   3.664   5.044   5.396 -1.0065  1.2291  0.6576
 3282SOL    MW412902   3.689   5.077   5.319 -0.2033  0.5653  0.2634
 3283SOL     OW12903   5.129   5.983   5.741 -0.0372  0.0250  0.5411
 3283SOL    HW212904   5.160   5.924   5.809 -3.2399  1.7694  3.9116
 3283SOL    HW312905   5.169   6.068   5.761 -1.9281  0.8432  1.1346
 3283SOL    MW412906   5.138   5.987   5.752  0.8399 -0.2302  0.1668
 3284SOL     OW12907   5.611   1.681   4.295 -0.0847  0.5026 -0.4841
 3284SOL    HW212908   5.696   1.637   4.293 -0.9565 -1.3193  0.1193
 3284SOL    HW312909   5.549   1.613   4.322 -1.4790  2.2123  0.9012
 3284SOL    MW412910   5.614   1.666   4.298  0.1922 -0.1223 -0.3378
 3285SOL     OW12911   5.063   5.725   4.460 -0.6109  0.1668 -0.2547
 3285SOL    HW212912   5.002   5.747   4.530 -1.6362  2.5965 -1.7706
 3285SOL    HW312913   5.110   5.807   4.442  0.8434 -0.8325 -1.2741
 3285SOL    MW412914   5.061   5.739   4.466 -0.5940  0.2800 -0.2350
 3286SOL     OW12915   5.766   2.176   0.400  0.4305 -0.2736 -0.4038
 3286SOL    HW212916   5.730   2.207   0.317 -2.9321 -0.2055  0.9408
 3286SOL    HW312917   5.748   2.082   0.401  2.0460 -0.6127 -0.4335
 3286SOL    MW412918   5.759   2.168   0.389  0.1622 -0.0730  0.3582
 3287SOL     OW12919   4.172   0.213   2.840 -0.2321  0.4005  0.1289
 3287SOL    HW212920   4.145   0.263   2.917  1.3801  0.6652  0.5477
 3287SOL    HW312921   4.221   0.274   2.786  0.6220 -0.3706  0.0006
 3287SOL    MW412922   4.175   0.227   2.843 -0.2090 -0.2850 -0.8534
 3288SOL     OW12923   0.124   4.088   1.421  0.2678  0.4559  0.0679
 3288SOL    HW212924   0.179   4.028   1.471 -0.4855  0.4972  0.9735
 3288SOL    HW312925   0.039   4.084   1.463  0.1080  1.9039 -0.0545
 3288SOL    MW412926   0.120   4.080   1.433 -0.2525  0.3978  0.5858
 3289SOL     OW12927   2.439   2.871   2.280 -0.1182 -0.3363  0.2319
 3289SOL    HW212928   2.396   2.948   2.319 -1.1525  0.0360 -1.5528
 3289SOL    HW312929   2.383   2.798   2.305 -0.4135 -0.1902  0.0029
 3289SOL    MW412930   2.426   2.872   2.289 -0.0115  0.0263  0.1795
 3290SOL     OW12931   1.335   1.419   1.075  0.5520 -0.4669  0.0579
 3290SOL    HW212932   1.290   1.337   1.097 -0.0343 -0.4842 -1.1384
 3290SOL    HW312933   1.400   1.393   1.009  1.2916 -0.1807  0.6531
 3290SOL    MW412934   1.338   1.405   1.069  0.1033 -0.0351 -0.0482
 3291SOL     OW12935   5.354   6.076   0.102 -0.2516  0.3934 -0.5447
 3291SOL    HW212936   5.354   6.132   0.180  0.7464 -1.5163  0.8848
 3291SOL    HW312937   5.412   6.120   0.041 -0.3761  1.4889  0.0993
 3291SOL    MW412938   5.361   6.089   0.105 -0.1470 -0.3039  0.2205
 3292SOL     OW12939   0.564   4.980   2.756 -0.4156  0.0862 -0.6148
 3292SOL    HW212940   0.558   4.962   2.662 -1.8092  0.1426 -0.5587
 3292SOL    HW312941   0.608   4.903   2.792 -1.7460 -0.9107 -1.0524
 3292SOL    MW412942   0.569   4.967   2.748  0.6615 -0.2685  0.1434
 3293SOL     OW12943   4.019   0.301   1.055 -0.3671 -0.6955 -1.0787
 3293SOL    HW212944   4.046   0.393   1.053 -0.3603 -0.6466  0.1737
 3293SOL    HW312945   3.927   0.303   1.032 -0.9277 -0.0930  0.9770
 3293SOL    MW412946   4.011   0.313   1.052 -0.6529  0.1929 -0.3194
 3294SOL     OW12947   3.049   0.876   0.460  0.1467  0.3129 -0.7172
 3294SOL    HW212948   3.123   0.816   0.463  1.0312  1.3693 -0.7676
 3294SOL    HW312949   3.080   0.955   0.506 -1.3077  0.3886  0.2181
 3294SOL    MW412950   3.063   0.879   0.467  0.6814  0.5102  0.5303
 3295SOL     OW12951   0.427   2.233   1.832  0.0164 -0.2501  0.3904
 3295SOL    HW212952   0.333   2.217   1.821  0.1506 -0.1315 -1.0914
 3295SOL    HW312953   0.432   2.312   1.886 -0.7709  0.5187 -0.6281
 3295SOL    MW412954   0.415   2.241   1.838 -0.3188 -0.1600 -0.0001
 3296SOL     OW12955   5.712   2.806   4.404 -0.0719 -0.5703 -0.3810
 3296SOL    HW212956   5.707   2.714   4.378 -0.1258 -0.4830 -0.6923
 3296SOL    HW312957   5.622   2.829   4.427  0.1529 -0.9339  0.9153
 3296SOL    MW412958   5.700   2.797   4.403  0.0756  0.2363 -0.3825
 3297SOL     OW12959   0.691   2.262   2.920  0.0947  0.0585  0.0099
 3297SOL    HW212960   0.720   2.171   2.916 -0.2725 -0.0636  0.1455
 3297SOL    HW312961   0.772   2.312   2.920  0.3289 -0.3001  0.7866
 3297SOL    MW412962   0.706   2.257   2.919  0.5363  0.3148  0.1816
 3298SOL     OW12963   4.464   1.902   4.662  0.3403  0.0340 -0.4413
 3298SOL    HW212964   4.411   1.981   4.670  0.6701  0.2913 -0.7449
 3298SOL    HW312965   4.459   1.860   4.748  0.2341  0.4311 -0.2533
 3298SOL    MW412966   4.456   1.907   4.674 -0.2920  1.2354 -0.0605
 3299SOL     OW12967   5.025   4.394   0.332 -0.2511 -0.7314 -0.1202
 3299SOL    HW212968   5.092   4.379   0.265 -1.3558  1.1505 -1.7513
 3299SOL    HW312969   4.999   4.306   0.360  1.9789 -1.5242 -0.3501
 3299SOL    MW412970   5.030   4.380   0.327 -0.3183  0.2123 -0.1690
 3300SOL     OW12971   0.774   2.519   2.575  0.0851 -0.3794 -0.4005
 3300SOL    HW212972   0.725   2.581   2.629  0.4339 -0.0297 -0.4799
 3300SOL    HW312973   0.707   2.477   2.521 -0.2474 -0.6026  0.1662
 3300SOL    MW412974   0.759   2.522   2.575  0.4888  0.3320  0.3739
 3301SOL     OW12975   3.853   6.034   3.575 -0.1306 -0.8727  0.2720
 3301SOL    HW212976   3.764   6.005   3.594 -0.1012  0.3830  2.6105
 3301SOL    HW312977   3.904   5.953   3.571 -1.3422 -1.6092 -1.1962
 3301SOL    MW412978   3.848   6.019   3.577  0.3463  0.4996  0.3318
 3302SOL     OW12979   1.935   5.017   0.662 -0.2900  0.4237  0.2093
 3302SOL    HW212980   1.861   5.033   0.603  0.0291  2.2426  0.2442
 3302SOL    HW312981   1.907   4.944   0.717 -2.4302  1.6059  0.7999
 3302SOL    MW412982   1.921   5.009   0.661 -0.2192  0.2403 -0.0430
 3303SOL     OW12983   1.086   5.656   0.133 -0.1121 -0.5884 -0.4608
 3303SOL    HW212984   1.110   5.591   0.200 -0.3035 -0.7382 -0.5366
 3303SOL    HW312985   0.996   5.634   0.110 -0.4676  0.2171  0.1141
 3303SOL    MW412986   1.077   5.644   0.139 -0.4113 -0.4520 -0.0731
 3304SOL     OW12987   3.145   0.019   3.862 -0.8348 -0.0117 -0.4348
 3304SOL    HW212988   3.124   0.005   3.770 -0.3249  0.9022 -0.7051
 3304SOL    HW312989   3.214   0.086   3.861  1.3178 -2.0709  0.4680
 3304SOL    MW412990   3.151   0.026   3.850  0.1135  0.3917  0.0755
 3305SOL     OW12991   1.398   3.382   1.454 -0.6841  0.5355 -0.5566
 3305SOL    HW212992   1.445   3.385   1.370  1.0371  0.5258  0.3507
 3305SOL    HW312993   1.430   3.459   1.502 -0.6086 -0.1790  0.5812
 3305SOL    MW412994   1.409   3.393   1.449  0.0919 -0.2133  0.0507
 3306SOL     OW12995   4.662   0.716   4.242 -0.0964 -0.3760  0.1757
 3306SOL    HW212996   4.666   0.809   4.219 -0.1885 -0.4848 -0.3000
 3306SOL    HW312997   4.738   0.702   4.299 -0.0431 -0.0244  0.1928
 3306SOL    MW412998   4.672   0.726   4.247  0.4642 -1.0749  0.4361
 3307SOL     OW12999   4.364   5.651   2.966 -0.1893 -0.2051 -0.4298
 3307SOL    HW213000   4.314   5.574   2.995 -0.9449  0.6333  0.5686
 3307SOL    HW313001   4.388   5.695   3.047 -0.3999  1.0068 -1.0093
 3307SOL    MW413002   4.360   5.646   2.981 -0.9059 -0.5420 -0.3304
 3308SOL     OW13003   3.901   5.335   3.697  0.1813  0.0436 -0.0481
 3308SOL    HW213004   3.934   5.245   3.697 -1.9814 -0.8238  0.8670
 3308SOL    HW313005   3.811   5.328   3.663  0.5194  2.1407 -1.6171
 3308SOL    MW413006   3.893   5.322   3.692  0.0448  0.0656  0.6059
 3309SOL     OW13007   0.960   4.803   5.321  0.4800  0.3322 -0.2516
 3309SOL    HW213008   0.919   4.883   5.287  0.1859 -0.0215 -0.7372
 3309SOL    HW313009   1.053   4.814   5.302  0.3609  0.2835 -0.8835
 3309SOL    MW413010   0.967   4.815   5.314  0.2922 -0.2555 -0.1980
 3310SOL     OW13011   2.874   0.348   6.421  0.1281 -0.1652 -0.2842
 3310SOL    HW213012   2.838   0.432   6.392 -0.8167  0.7143  3.0382
 3310SOL    HW313013   2.968   0.363   6.428  0.3270 -0.2606 -2.1579
 3310SOL    MW413014   2.881   0.361   6.418  0.0151 -0.0207 -0.3554
 3311SOL     OW13015   5.337   2.659   2.028 -0.1991  0.5295  0.1011
 3311SOL    HW213016   5.309   2.579   2.071  0.6176 -0.5700 -1.3343
 3311SOL    HW313017   5.256   2.696   1.993 -0.6982  0.8145  1.4920
 3311SOL    MW413018   5.323   2.654   2.029 -0.8192  0.6194 -0.4354
 3312SOL     OW13019   0.649   2.414   0.155 -0.4827  0.2747 -0.1069
 3312SOL    HW213020   0.676   2.325   0.129 -0.0746  0.3796 -0.0526
 3312SOL    HW313021   0.621   2.404   0.246 -1.2272  0.0451 -0.3554
 3312SOL    MW413022   0.649   2.401   0.164 -0.2332 -0.4210 -0.4223
 3313SOL     OW13023   5.926   4.261   5.369  0.1855  0.2454 -0.3804
 3313SOL    HW213024   5.992   4.256   5.439  2.4216 -1.6569 -2.4330
 3313SOL    HW313025   5.865   4.190   5.388  0.4402  0.1206 -0.0214
 3313SOL    MW413026   5.927   4.251   5.381 -0.0243  0.4349  0.5424
 3314SOL     OW13027   4.138   2.301   2.311  0.3402 -0.6341  0.2441
 3314SOL    HW213028   4.051   2.276   2.278  0.1384  1.9686 -1.5502
 3314SOL    HW313029   4.124   2.317   2.404 -1.1418 -0.2598 -0.0025
 3314SOL    MW413030   4.124   2.300   2.319 -0.1736 -0.3286 -0.0518
 3315SOL     OW13031   3.208   1.512   4.928  0.2973  0.4056  0.0536
 3315SOL    HW213032   3.206   1.500   5.023 -1.8600 -0.3573 -0.0349
 3315SOL    HW313033   3.242   1.601   4.916  2.4388 -0.1628  1.4134
 3315SOL    MW413034   3.212   1.522   4.939  0.1421 -0.4776  0.1528
 3316SOL     OW13035   5.606   0.949   1.422 -0.2224  0.7352 -0.0287
 3316SOL    HW213036   5.652   0.866   1.433 -1.0590  0.4775  1.9631
 3316SOL    HW313037   5.673   1.016   1.437  0.2693  0.4390 -0.8179
 3316SOL    MW413038   5.621   0.947   1.425  0.6164 -0.1599 -0.8681
 3317SOL     OW13039   1.690   0.093   5.840 -0.1862 -0.2450 -0.8471
 3317SOL    HW213040   1.687   0.070   5.747  0.7649  0.5531 -1.0917
 3317SOL    HW313041   1.635   0.171   5.847 -0.8072 -0.6944 -0.6023
 3317SOL    MW413042   1.682   0.100   5.828 -0.0523 -0.0239  0.2285
 3318SOL     OW13043   5.173   0.111   5.820 -0.2249 -0.5162  1.0806
 3318SOL    HW213044   5.198   0.187   5.873 -1.7884 -0.5413  1.9161
 3318SOL    HW313045   5.080   0.098   5.839 -0.3869 -1.6383 -0.3188
 3318SOL    MW413046   5.164   0.119   5.830 -0.5473 -0.7833  0.4725
 3319SOL     OW13047   2.680   1.107   2.375 -0.0848 -0.0033  0.2077
 3319SOL    HW213048   2.611   1.043   2.358 -0.3846  0.4096 -0.1556
 3319SOL    HW313049   2.652   1.185   2.327  1.2095 -0.1922 -0.9138
 3319SOL    MW413050   2.667   1.109   2.366  0.2131  0.3756  0.0639
 3320SOL     OW13051   2.923   3.386   4.544  0.6456 -0.5055  0.7500
 3320SOL    HW213052   2.982   3.458   4.520  0.5932 -0.8018 -0.3053
 3320SOL    HW313053   2.835   3.425   4.540  0.7488 -0.0013  2.5488
 3320SOL    MW413054   2.919   3.401   4.540 -0.8947 -0.7757  0.1920
 3321SOL     OW13055   4.112   5.808   2.571  0.3884  0.0372 -0.2173
 3321SOL    HW213056   4.029   5.761   2.570  0.6551 -0.4411  0.0969
 3321SOL    HW313057   4.088   5.899   2.552 -0.2996  0.0551  0.6900
 3321SOL    MW413058   4.097   5.814   2.568 -0.4429  0.1906  0.3360
 3322SOL     OW13059   2.327   4.699   0.804 -0.2731 -0.3061 -0.1364
 3322SOL    HW213060   2.362   4.754   0.874 -1.9077 -0.2836  0.7170
 3322SOL    HW313061   2.314   4.759   0.731  1.6573 -0.3719 -0.5936
 3322SOL    MW413062   2.330   4.714   0.804 -0.5855  0.1813 -0.3396
 3323SOL     OW13063   0.941   2.601   3.939  0.1182 -0.7576 -0.6991
 3323SOL    HW213064   1.015   2.642   3.896  1.0549 -0.1142  1.4158
 3323SOL    HW313065   0.932   2.516   3.897 -0.3024  0.5448 -3.4725
 3323SOL    MW413066   0.949   2.595   3.928  0.4790  0.8034 -0.4255
 3324SOL     OW13067   4.592   3.921   4.077  0.2342  0.3180 -0.4110
 3324SOL    HW213068   4.641   3.919   4.160 -2.5978  0.1415  1.3871
 3324SOL    HW313069   4.502   3.940   4.103 -1.0481 -1.1726 -3.3558
 3324SOL    MW413070   4.587   3.924   4.091  1.1715 -0.1639 -0.5062
 3325SOL     OW13071   5.559   4.112   5.979 -0.4552 -0.4331 -0.0436
 3325SOL    HW213072   5.647   4.074   5.982 -0.7112 -0.9941  0.7630
 3325SOL    HW313073   5.569   4.199   6.017  0.2098  0.5325 -2.2543
 3325SOL    MW413074   5.572   4.118   5.985 -0.5351  0.1972  0.7019
 3326SOL     OW13075   2.714   0.756   1.498  0.2847  0.9050  0.2733
 3326SOL    HW213076   2.806   0.745   1.519  0.5834 -0.4673 -1.4623
 3326SOL    HW313077   2.672   0.678   1.535  0.4833 -0.4196 -2.1127
 3326SOL    MW413078   2.720   0.744   1.506  0.4165  0.2301 -0.6254
 3327SOL     OW13079   5.310   5.363   3.803 -0.4358 -0.0406  0.2750
 3327SOL    HW213080   5.340   5.276   3.775  0.7362  0.6981 -0.8918
 3327SOL    HW313081   5.216   5.353   3.817 -0.1631 -1.7302  1.1585
 3327SOL    MW413082   5.302   5.350   3.801  0.9611 -0.1626  0.2028
 3328SOL     OW13083   3.207   3.638   0.804 -0.1386  0.0108 -0.2993
 3328SOL    HW213084   3.184   3.731   0.799 -0.0319  0.0028 -1.0998
 3328SOL    HW313085   3.299   3.635   0.781 -0.7729 -0.5523 -3.1533
 3328SOL    MW413086   3.216   3.650   0.800  0.2895  0.4681  0.4775
 3329SOL     OW13087   1.962   2.069   3.987 -0.0138 -0.1600 -0.7354
 3329SOL    HW213088   1.981   1.978   4.008  0.7104 -0.1256 -1.2066
 3329SOL    HW313089   1.869   2.079   4.004  0.2145 -0.5612  0.8826
 3329SOL    MW413090   1.952   2.058   3.992  0.6438  0.3500  0.0407
 3330SOL     OW13091   4.754   2.446   4.463  0.2325  0.4038 -0.4633
 3330SOL    HW213092   4.828   2.387   4.453 -0.9936 -1.0756 -1.2359
 3330SOL    HW313093   4.696   2.401   4.525  0.2531  1.8493  0.6636
 3330SOL    MW413094   4.756   2.433   4.470  0.2346 -0.1175  0.4382
 3331SOL     OW13095   5.799   1.620   5.903 -0.5607 -0.1066 -0.2387
 3331SOL    HW213096   5.822   1.711   5.882  0.2652 -0.3365 -0.3542
 3331SOL    HW313097   5.854   1.598   5.978 -0.4604 -0.6453 -0.4656
 3331SOL    MW413098   5.809   1.629   5.911 -0.0505  0.9200 -0.3505
 3332SOL     OW13099   1.574   0.788   1.837 -0.2591 -0.3239  0.1575
 3332SOL    HW213100   1.546   0.736   1.762  1.4779 -0.6190 -0.3498
 3332SOL    HW313101   1.670   0.788   1.831 -0.1262  0.6629  1.6975
 3332SOL    MW413102   1.583   0.781   1.826 -0.7454  0.4597  0.0997
 3333SOL     OW13103   2.132   2.552   0.950 -0.2671 -0.3854  0.0300
 3333SOL    HW213104   2.209   2.505   0.984 -1.0461 -2.4175 -0.8614
 3333SOL    HW313105   2.155   2.576   0.861  0.0278  0.7461  0.3966
 3333SOL    MW413106   2.145   2.549   0.943  0.1520 -0.1025  0.9042
 3334SOL     OW13107   0.113   0.819   4.112  0.3254 -0.1021 -0.2252
 3334SOL    HW213108   0.125   0.726   4.128  0.9492 -0.1599 -0.9889
 3334SOL    HW313109   0.166   0.838   4.035 -0.0426  0.8226 -0.2708
 3334SOL    MW413110   0.121   0.809   4.104  0.6151  0.5359  0.0114
 3335SOL     OW13111   1.446   1.577   4.792 -0.0562  0.2847 -0.0544
 3335SOL    HW213112   1.502   1.580   4.870  0.5611 -1.7986 -0.3336
 3335SOL    HW313113   1.482   1.643   4.733  1.3815 -0.1914  0.2545
 3335SOL    MW413114   1.458   1.586   4.794 -0.1232  0.0095 -0.5432
 3336SOL     OW13115   5.806   2.297   2.921  0.3084  0.0673 -0.4815
 3336SOL    HW213116   5.865   2.347   2.978  0.3359  1.3265 -1.5606
 3336SOL    HW313117   5.748   2.363   2.883 -2.2344 -1.1557  0.9567
 3336SOL    MW413118   5.806   2.312   2.923 -0.1083 -0.5865 -0.4685
 3337SOL     OW13119   4.001   0.457   5.157  0.0834 -0.1744 -0.0829
 3337SOL    HW213120   3.986   0.549   5.136  1.0215 -0.1410 -0.6795
 3337SOL    HW313121   4.090   0.439   5.126  0.5289 -0.8523  1.4600
 3337SOL    MW413122   4.011   0.467   5.150 -0.1405  0.5304  0.0701
 3338SOL     OW13123   3.668   3.263   3.102  0.8014 -0.3281  0.3148
 3338SOL    HW213124   3.695   3.342   3.149  1.2882 -0.9668  1.1408
 3338SOL    HW313125   3.668   3.194   3.169  0.2351 -1.0005 -0.3560
 3338SOL    MW413126   3.672   3.264   3.117 -0.0708  0.5158  0.4347
 3339SOL     OW13127   4.517   2.143   3.734  0.2042  0.7885  0.0269
 3339SOL    HW213128   4.508   2.236   3.755 -1.3082  0.9674 -1.2044
 3339SOL    HW313129   4.593   2.140   3.675  0.8462  1.0974  0.8262
 3339SOL    MW413130   4.526   2.155   3.729 -0.5625 -0.2610  0.0027
 3340SOL     OW13131   4.875   5.371   0.243 -0.8812  0.7646 -0.1906
 3340SOL    HW213132   4.936   5.443   0.223 -1.1623  1.3559  1.0048
 3340SOL    HW313133   4.795   5.395   0.198 -0.2612 -0.0207 -1.7823
 3340SOL    MW413134   4.873   5.384   0.234 -0.1363 -0.4367  0.6261
 3341SOL     OW13135   5.345   1.822   0.933  0.4424  0.1973  0.0673
 3341SOL    HW213136   5.368   1.914   0.947  1.1131 -0.2627  2.4428
 3341SOL    HW313137   5.251   1.817   0.952  0.0739  0.6082 -1.5072
 3341SOL    MW413138   5.335   1.833   0.938  0.5354  0.4877 -0.6493
 3342SOL     OW13139   2.720   6.188   2.958  0.0445 -0.3862 -0.2072
 3342SOL    HW213140   2.692   6.184   2.867 -1.2594 -0.0770  0.1723
 3342SOL    HW313141   2.647   6.227   3.005  0.5596 -0.8536  1.0370
 3342SOL    MW413142   2.707   6.193   2.952  0.2440 -0.6137  0.8205
 3343SOL     OW13143   5.177   2.746   0.404  0.6113 -0.2887  0.4876
 3343SOL    HW213144   5.113   2.728   0.473 -0.5865  0.1380 -0.4916
 3343SOL    HW313145   5.174   2.670   0.347  3.3329 -1.7817  2.0879
 3343SOL    MW413146   5.168   2.734   0.406  0.0707 -0.4146  0.1034
 3344SOL     OW13147  -0.006   3.534   5.940 -0.2013  0.3706  0.0008
 3344SOL    HW213148   0.019   3.482   6.017 -0.3428 -0.6844 -0.6423
 3344SOL    HW313149  -0.064   3.602   5.975  0.8062  0.7437  1.0095
 3344SOL    MW413150  -0.010   3.536   5.955 -0.9643  0.3251 -0.2854
 3345SOL     OW13151   1.219   3.430   2.023  0.3065 -0.4658  0.3859
 3345SOL    HW213152   1.166   3.463   1.950 -0.8512  0.7929  1.7418
 3345SOL    HW313153   1.265   3.508   2.055 -1.5935 -0.2875  2.9411
 3345SOL    MW413154   1.218   3.445   2.017  0.1909 -0.0792 -0.1565
 3346SOL     OW13155   3.227   5.660   6.210  0.3088 -0.2787  0.1153
 3346SOL    HW213156   3.277   5.725   6.259 -0.0138  0.7150 -0.8244
 3346SOL    HW313157   3.185   5.711   6.140 -1.3112 -1.2118  0.3626
 3346SOL    MW413158   3.228   5.676   6.207  0.2251 -0.6693 -0.1142
 3347SOL     OW13159   3.854   0.769   2.100  0.3234  0.6024 -1.0759
 3347SOL    HW213160   3.927   0.753   2.040  0.3325 -0.3290 -0.8215
 3347SOL    HW313161   3.790   0.817   2.047  1.1730  1.5830 -1.2544
 3347SOL    MW413162   3.855   0.773   2.085 -0.2422 -0.1323  0.2763
 3348SOL     OW13163   2.804   2.690   1.908  0.3145 -0.6173  0.1027
 3348SOL    HW213164   2.837   2.743   1.980 -0.3910  0.6494 -0.4805
 3348SOL    HW313165   2.724   2.649   1.943 -0.0514  0.0305  0.0303
 3348SOL    MW413166   2.797   2.691   1.922 -1.0137 -0.1346 -0.0468
 3349SOL     OW13167   1.657   4.137   3.895  0.5066  0.5817  0.9111
 3349SOL    HW213168   1.638   4.129   3.801 -0.0933 -1.1959  1.1548
 3349SOL    HW313169   1.725   4.204   3.900 -0.4280  1.7122 -0.6621
 3349SOL    MW413170   1.663   4.145   3.883  0.2784 -0.1828 -0.0101
 3350SOL     OW13171   5.138   5.103   2.279  0.5532  0.5772 -0.3297
 3350SOL    HW213172   5.131   5.180   2.223 -0.0592  0.5608 -0.2782
 3350SOL    HW313173   5.134   5.138   2.368 -3.3415  0.2753 -0.2051
 3350SOL    MW413174   5.137   5.118   2.283 -0.6986  0.3036  0.1858
 3351SOL     OW13175   5.968   5.671   4.191  0.1328 -0.4227  0.2030
 3351SOL    HW213176   5.964   5.709   4.103  3.0166 -0.9616 -0.2676
 3351SOL    HW313177   5.885   5.695   4.231 -0.4072  1.6886 -1.9268
 3351SOL    MW413178   5.956   5.680   4.185 -0.3767  0.2982  1.0599
 3352SOL     OW13179   1.223   5.103   5.941 -0.3740  0.2522 -0.5351
 3352SOL    HW213180   1.264   5.039   5.882 -1.3973 -3.6081  2.5219
 3352SOL    HW313181   1.132   5.074   5.948 -0.1841  0.0674  3.2558
 3352SOL    MW413182   1.216   5.091   5.934  0.5610 -0.0477 -0.0905
 3353SOL     OW13183   0.361   0.764   4.265 -0.0761 -0.1683 -0.2910
 3353SOL    HW213184   0.377   0.748   4.172  0.4062 -0.0812 -0.2268
 3353SOL    HW313185   0.404   0.692   4.310  1.9653  1.1378 -0.0079
 3353SOL    MW413186   0.369   0.753   4.259  0.1373 -0.3155  0.1542
 3354SOL     OW13187   6.428   3.552   6.418  0.1653 -0.0030 -0.5412
 3354SOL    HW213188   6.420   3.640   6.383  1.6775 -0.8110 -3.1954
 3354SOL    HW313189   6.456   3.499   6.344 -2.1563 -3.0663  0.5744
 3354SOL    MW413190   6.431   3.557   6.404 -0.3897 -0.0890  0.4568
 3355SOL     OW13191   2.980   6.017   2.728  0.7185  0.0559 -0.3663
 3355SOL    HW213192   3.065   5.987   2.695 -0.0431 -0.8446 -1.5840
 3355SOL    HW313193   2.918   5.951   2.698 -0.6058  1.3594 -0.5998
 3355SOL    MW413194   2.983   6.004   2.720 -0.2271 -0.1296 -0.4674
 3356SOL     OW13195   1.787   0.511   1.163  0.2020 -0.5540 -0.1163
 3356SOL    HW213196   1.734   0.483   1.088 -0.5681 -0.5005  0.3911
 3356SOL    HW313197   1.778   0.440   1.227  1.1676 -0.7791 -0.2123
 3356SOL    MW413198   1.779   0.498   1.162  0.2497 -0.3529 -0.3328
 3357SOL     OW13199   0.388   0.038   1.489  0.1556 -0.0858  0.4738
 3357SOL    HW213200   0.375   0.132   1.480  1.2003  0.0888  0.6264
 3357SOL    HW313201   0.338   0.000   1.418  2.1269  0.7864 -1.4887
 3357SOL    MW413202   0.380   0.045   1.479 -0.2049 -0.4820  0.0343
 3358SOL     OW13203   5.323   2.201   2.807 -0.0293 -0.4943  0.2069
 3358SOL    HW213204   5.241   2.245   2.827 -0.4880 -1.3065  0.1851
 3358SOL    HW313205   5.380   2.270   2.773 -0.5879  0.1409  0.5388
 3358SOL    MW413206   5.320   2.216   2.805  0.0568  0.7457  0.0200
 3359SOL     OW13207   0.001   4.113   1.163  0.1926  0.3532 -0.5872
 3359SOL    HW213208   0.065   4.102   1.233 -0.9557  0.0310  0.4551
 3359SOL    HW313209  -0.070   4.163   1.204 -1.2533 -1.2642 -1.0271
 3359SOL    MW413210  -0.000   4.118   1.178  0.2484  0.6328 -0.1475
 3360SOL     OW13211   2.370   4.085   1.697  0.3167  0.0544 -0.1969
 3360SOL    HW213212   2.459   4.064   1.727 -0.2171 -1.4680  0.3724
 3360SOL    HW313213   2.380   4.102   1.603  1.0479 -1.1729 -0.3536
 3360SOL    MW413214   2.383   4.085   1.688 -0.0757  0.2250  0.5351
 3361SOL     OW13215   1.969   4.357   4.129 -0.4104 -0.2141  0.1422
 3361SOL    HW213216   1.896   4.314   4.174  0.1144 -0.6502  0.5898
 3361SOL    HW313217   1.949   4.451   4.135 -1.8749 -0.3742 -1.3718
 3361SOL    MW413218   1.957   4.364   4.136 -0.4209 -0.0793  0.0574
 3362SOL     OW13219   6.060   4.771   2.321  0.4734 -0.1743  0.0439
 3362SOL    HW213220   6.149   4.741   2.302  0.3079 -0.3082 -0.5524
 3362SOL    HW313221   6.025   4.798   2.236 -0.1181 -0.3001  0.2393
 3362SOL    MW413222   6.067   4.770   2.308  0.0648 -0.4459 -0.1192
 3363SOL     OW13223   1.298   0.652   6.150 -0.0795 -0.0047  0.0075
 3363SOL    HW213224   1.270   0.725   6.096 -3.2051 -1.8503 -1.0936
 3363SOL    HW313225   1.299   0.688   6.239  0.5017  1.8548 -0.6989
 3363SOL    MW413226   1.295   0.667   6.155 -0.0467  0.6000  0.4361
 3364SOL     OW13227   1.616   1.572   3.356 -0.5447  0.3348 -0.2372
 3364SOL    HW213228   1.692   1.620   3.322  0.6343 -1.3961 -0.1753
 3364SOL    HW313229   1.654   1.494   3.397 -2.3663 -0.5350 -0.1399
 3364SOL    MW413230   1.631   1.568   3.357  0.1401 -0.1410 -0.0095
 3365SOL     OW13231   2.069   0.997   6.120 -0.1782 -0.0570 -0.6064
 3365SOL    HW213232   2.108   0.942   6.052  0.5245  0.1132 -0.3419
 3365SOL    HW313233   1.988   0.951   6.144  0.8278 -1.4775  0.2548
 3365SOL    MW413234   2.063   0.984   6.114 -0.1365 -0.0736  0.0294
 3366SOL     OW13235   3.512   6.052   5.359 -0.8280  0.4477  0.4623
 3366SOL    HW213236   3.432   6.105   5.348 -1.6210 -0.9386 -1.0135
 3366SOL    HW313237   3.493   5.972   5.310  0.8283 -0.6557  1.5494
 3366SOL    MW413238   3.499   6.049   5.351 -0.2262  0.2684 -0.2915
 3367SOL     OW13239   2.661   0.532   4.227 -0.1087 -0.6040  0.3927
 3367SOL    HW213240   2.614   0.569   4.152 -0.2227  2.2030  1.7491
 3367SOL    HW313241   2.594   0.485   4.276 -0.1214 -2.0858 -0.9643
 3367SOL    MW413242   2.646   0.531   4.223 -0.0801 -0.4967 -0.0217
 3368SOL     OW13243   5.446   3.439   3.923 -0.0751  0.0656  0.4807
 3368SOL    HW213244   5.495   3.367   3.883  0.8255  0.6630  0.4712
 3368SOL    HW313245   5.354   3.418   3.907  0.2062 -0.7087 -0.1629
 3368SOL    MW413246   5.441   3.427   3.916  0.7204  0.5796 -0.1348
 3369SOL     OW13247   0.197   0.939   0.410 -0.2341  0.1004  0.6307
 3369SOL    HW213248   0.184   0.999   0.337 -0.5203 -0.4684  0.2065
 3369SOL    HW313249   0.281   0.965   0.447  0.3672 -0.1989 -0.4769
 3369SOL    MW413250   0.206   0.951   0.405  0.5584  0.5710  0.1555
 3370SOL     OW13251   1.412   1.705   4.160  0.2151  0.3933  0.4342
 3370SOL    HW213252   1.420   1.770   4.230  0.1357 -0.1973  0.9999
 3370SOL    HW313253   1.323   1.715   4.127  0.3325  0.8417  0.2418
 3370SOL    MW413254   1.401   1.715   4.165  0.1369 -0.0602 -0.0364
 3371SOL     OW13255   5.236   5.803   6.391  0.2854  0.2965 -0.0038
 3371SOL    HW213256   5.319   5.764   6.418  1.2546  0.5136 -2.4227
 3371SOL    HW313257   5.179   5.729   6.372  0.6311  0.1182 -0.3488
 3371SOL    MW413258   5.239   5.788   6.392 -0.8160  0.3458 -0.0337
 3372SOL     OW13259   5.583   3.212   4.868  0.4435  0.1114  0.2566
 3372SOL    HW213260   5.538   3.292   4.843  0.8135 -0.2408 -1.6263
 3372SOL    HW313261   5.537   3.183   4.947 -0.9117  1.1502 -0.1131
 3372SOL    MW413262   5.571   3.219   4.875  0.4151 -0.5746  0.0758
 3373SOL     OW13263   1.086   2.424   2.275  0.0485 -0.4472  0.7881
 3373SOL    HW213264   1.008   2.368   2.272  0.2526 -0.7126  0.3225
 3373SOL    HW313265   1.063   2.494   2.337 -0.2899 -0.9217  1.2092
 3373SOL    MW413266   1.072   2.426   2.283 -0.2976 -0.1558 -0.4289
 3374SOL     OW13267   3.052   2.459   5.255 -0.4499  0.1925  0.5161
 3374SOL    HW213268   2.957   2.460   5.266 -0.8679 -1.8118 -1.9273
 3374SOL    HW313269   3.065   2.468   5.160  1.7615 -0.1592  0.7289
 3374SOL    MW413270   3.041   2.460   5.244 -0.2337 -0.1597 -0.6430
 3375SOL     OW13271   4.069   2.563   3.124 -0.1753  0.7175  0.4519
 3375SOL    HW213272   4.134   2.631   3.142 -1.0602  1.3014  1.6222
 3375SOL    HW313273   4.118   2.481   3.129  0.1465  0.9851  3.5223
 3375SOL    MW413274   4.084   2.561   3.127  0.0325  0.4312  0.6268
 3376SOL     OW13275   3.581   1.676   3.203 -1.1068  0.0995  0.0016
 3376SOL    HW213276   3.493   1.712   3.211 -0.8877  0.9418 -1.1960
 3376SOL    HW313277   3.577   1.620   3.126 -1.3772 -2.3794  1.6728
 3376SOL    MW413278   3.569   1.673   3.194  0.0866  0.3678  0.2950
 3377SOL     OW13279   0.084   0.496   3.377  0.3615 -0.4799 -0.5523
 3377SOL    HW213280  -0.008   0.470   3.375 -0.1349  1.0962  0.3631
 3377SOL    HW313281   0.095   0.550   3.298  0.2680  0.0303 -0.2202
 3377SOL    MW413282   0.073   0.500   3.366 -0.0710 -0.1571 -0.1263
 3378SOL     OW13283   0.437   0.324   6.073  0.4474  0.4664 -0.0116
 3378SOL    HW213284   0.495   0.288   6.006  0.1730 -0.0564  0.0280
 3378SOL    HW313285   0.350   0.292   6.048  0.2455  0.8520  0.1966
 3378SOL    MW413286   0.433   0.315   6.061  0.6366  0.2043 -0.3236
 3379SOL     OW13287   1.547   3.457   4.164 -0.3210  0.4190 -0.5252
 3379SOL    HW213288   1.459   3.420   4.172 -0.2058 -0.1654 -1.7086
 3379SOL    HW313289   1.581   3.457   4.253 -1.8552  1.5665  0.1194
 3379SOL    MW413290   1.540   3.452   4.177 -0.2881 -0.5388  0.4391
 3380SOL     OW13291   3.664   4.358   0.380 -0.1386 -0.5100  0.5627
 3380SOL    HW213292   3.656   4.453   0.374 -1.4899 -0.6232  0.1023
 3380SOL    HW313293   3.747   4.338   0.337 -0.1231  0.4075  0.1357
 3380SOL    MW413294   3.674   4.368   0.374  0.3465 -0.0493 -0.2429
 3381SOL     OW13295   0.769   2.136   0.601 -0.2769  0.7179 -0.2798
 3381SOL    HW213296   0.684   2.176   0.618 -0.5520 -0.8873  2.7071
 3381SOL    HW313297   0.822   2.158   0.677  1.0466 -0.6950 -0.7447
 3381SOL    MW413298   0.765   2.144   0.613  0.1228 -0.4718 -0.0040
 3382SOL     OW13299   6.179   4.549   5.805 -0.0802 -0.1414 -0.9050
 3382SOL    HW213300   6.184   4.642   5.780 -1.1571  0.6068  1.3663
 3382SOL    HW313301   6.241   4.505   5.747  0.0882  1.9101 -2.3965
 3382SOL    MW413302   6.188   4.556   5.794  0.3273 -0.8827 -0.1989
 3383SOL     OW13303   1.684   4.048   0.302 -0.4103  0.2921  0.2470
 3383SOL    HW213304   1.655   4.131   0.339 -1.6544 -0.3055  0.6820
 3383SOL    HW313305   1.669   4.058   0.208  1.8639  1.4615 -0.0644
 3383SOL    MW413306   1.678   4.060   0.294 -0.1166  0.1789 -0.1118
 3384SOL     OW13307   4.254   3.374   6.421 -0.6356  0.5300 -1.1913
 3384SOL    HW213308   4.289   3.450   6.468  0.5745  0.1932 -1.5147
 3384SOL    HW313309   4.165   3.366   6.453 -0.5352  1.6198 -0.5689
 3384SOL    MW413310   4.247   3.383   6.432 -0.7776  0.4341 -0.3436
 3385SOL     OW13311   5.804   4.387   3.760  0.2104  0.0888 -0.0860
 3385SOL    HW213312   5.898   4.404   3.760  0.1830  0.3098 -0.8951
 3385SOL    HW313313   5.778   4.397   3.668 -0.4628 -0.7331 -0.0002
 3385SOL    MW413314   5.813   4.390   3.748  0.8119  0.0906 -0.3441
 3386SOL     OW13315   4.137   1.118   0.697  0.5604  0.5237  0.0494
 3386SOL    HW213316   4.171   1.124   0.607 -1.3398  1.8609 -0.6455
 3386SOL    HW313317   4.119   1.209   0.721 -1.5288 -0.0349  0.7448
 3386SOL    MW413318   4.139   1.131   0.688  0.3078 -0.0337  0.9918
 3387SOL     OW13319   1.806   2.465   5.687  0.1288 -0.0476  0.0073
 3387SOL    HW213320   1.763   2.447   5.770 -1.1251 -1.7351 -0.9414
 3387SOL    HW313321   1.886   2.512   5.711  0.8357 -2.2257  2.3373
 3387SOL    MW413322   1.811   2.469   5.701 -0.4023 -1.0706  0.3084
 3388SOL     OW13323   5.409   0.563   0.517  0.0816 -0.3029  0.2381
 3388SOL    HW213324   5.328   0.611   0.532 -1.2404 -2.2537 -0.3118
 3388SOL    HW313325   5.433   0.529   0.604 -1.1012 -1.7709  0.0387
 3388SOL    MW413326   5.402   0.565   0.531 -0.8397  0.4365 -0.8849
 3389SOL     OW13327   3.805   4.688   0.685  0.2094  0.3485  0.6893
 3389SOL    HW213328   3.756   4.609   0.660  1.3531  0.2625 -1.5551
 3389SOL    HW313329   3.753   4.760   0.649  1.1724  0.3196 -0.8220
 3389SOL    MW413330   3.791   4.687   0.677 -0.6289  0.4871  0.0144
 3390SOL     OW13331   1.213   3.241   2.655 -0.3307  0.0283 -0.0054
 3390SOL    HW213332   1.150   3.282   2.713 -1.2122  0.3558 -1.1648
 3390SOL    HW313333   1.284   3.305   2.647 -0.1611 -0.0516  0.7353
 3390SOL    MW413334   1.214   3.255   2.662 -0.0542 -0.9473 -0.3292
 3391SOL     OW13335   4.962   1.091   0.858  0.7506 -0.1116 -0.1372
 3391SOL    HW213336   5.047   1.074   0.818  1.1238 -0.8603  0.9212
 3391SOL    HW313337   4.982   1.110   0.950 -0.2055 -0.1848  0.0957
 3391SOL    MW413338   4.976   1.091   0.865  0.4891 -0.1739  0.1461
 3392SOL     OW13339   0.010   6.377   4.421  0.2598 -0.5614  0.1152
 3392SOL    HW213340   0.037   6.463   4.389  0.0622 -0.4493  0.2485
 3392SOL    HW313341   0.020   6.383   4.516 -1.1331 -0.1967  0.2581
 3392SOL    MW413342   0.015   6.389   4.429 -0.3034  0.7966 -0.1229
 3393SOL     OW13343   1.883   6.197   3.938  0.0720 -0.3532  0.2912
 3393SOL    HW213344   1.826   6.238   3.873  2.2354 -0.7320 -2.0028
 3393SOL    HW313345   1.941   6.140   3.887  1.9133 -0.6704  2.5432
 3393SOL    MW413346   1.883   6.195   3.923  0.4515 -0.2411  0.3962
 3394SOL     OW13347   5.786   3.821   4.158  0.3294  0.1332  0.6937
 3394SOL    HW213348   5.713   3.761   4.140 -0.1874  1.1263 -0.7433
 3394SOL    HW313349   5.863   3.776   4.123 -0.3351  1.0307 -2.2442
 3394SOL    MW413350   5.786   3.807   4.151 -0.3655 -0.0611 -0.3310
 3395SOL     OW13351   4.599   3.422   1.561  0.3642 -0.1258  0.2548
 3395SOL    HW213352   4.553   3.406   1.478 -0.8333  2.0736  0.4289
 3395SOL    HW313353   4.536   3.398   1.629  0.4847  0.2574  0.5056
 3395SOL    MW413354   4.585   3.416   1.559 -0.7829  0.3284  0.2423
 3396SOL     OW13355   1.069   6.316   0.044 -0.3515  0.7317  0.6345
 3396SOL    HW213356   1.045   6.391   0.098 -2.2560  0.0815  0.7815
 3396SOL    HW313357   0.988   6.294  -0.003  0.1609 -1.1974  0.5824
 3396SOL    MW413358   1.055   6.323   0.045  0.0455  0.2715  0.2010
 3397SOL     OW13359   2.549   0.908   0.836 -0.7943 -0.0403 -0.0384
 3397SOL    HW213360   2.455   0.906   0.816 -0.8435 -1.4964  0.1865
 3397SOL    HW313361   2.553   0.909   0.932 -0.5626  1.0785 -0.0459
 3397SOL    MW413362   2.537   0.908   0.846 -0.1596  0.2703 -0.0786
 3398SOL     OW13363   1.628   5.709   5.558 -0.0358 -1.0928 -0.4495
 3398SOL    HW213364   1.570   5.649   5.510 -1.1077 -1.1203  0.8381
 3398SOL    HW313365   1.582   5.727   5.640  0.5554  1.0052 -0.5219
 3398SOL    MW413366   1.615   5.703   5.562  0.1767  0.5379 -0.2343
 3399SOL     OW13367   3.010   2.000   1.255 -0.0271 -0.1762 -0.2721
 3399SOL    HW213368   3.056   2.003   1.171  3.8683  0.1893  1.6131
 3399SOL    HW313369   3.013   1.909   1.281 -0.9839 -0.2440 -0.3661
 3399SOL    MW413370   3.017   1.989   1.247  0.1945  0.0589  0.3419
 3400SOL     OW13371   2.621   3.184   4.303 -0.0816 -0.1766 -0.3587
 3400SOL    HW213372   2.649   3.272   4.330 -0.0597 -0.9542  2.5555
 3400SOL    HW313373   2.703   3.135   4.296 -0.1858 -0.3413 -0.4013
 3400SOL    MW413374   2.636   3.189   4.306 -0.0537  1.0285  0.5257
 3401SOL     OW13375   4.684   5.642   3.964  0.5336 -0.1131  0.1506
 3401SOL    HW213376   4.603   5.599   3.936 -1.3312  2.1566  1.6096
 3401SOL    HW313377   4.723   5.676   3.884  0.5061 -1.9060 -0.6594
 3401SOL    MW413378   4.678   5.641   3.950  0.1658 -0.7740 -0.6142
 3402SOL     OW13379   2.719   1.480   5.966 -0.5199 -0.2990 -0.3351
 3402SOL    HW213380   2.677   1.436   6.040  0.2833  0.3979  0.5664
 3402SOL    HW313381   2.661   1.554   5.946  0.7229  1.3099  1.6206
 3402SOL    MW413382   2.706   1.484   5.973 -0.5536  0.3026 -0.0318
 3403SOL     OW13383   2.870   4.567   5.032  0.0126 -0.1243  0.6627
 3403SOL    HW213384   2.849   4.643   5.086 -0.6997 -1.8095  2.9130
 3403SOL    HW313385   2.789   4.548   4.984  0.9349  1.9882 -1.9989
 3403SOL    MW413386   2.857   4.574   5.032  0.2457 -0.5620 -0.5070
 3404SOL     OW13387   0.723   0.156   2.595 -0.1738 -0.6392 -0.9154
 3404SOL    HW213388   0.662   0.231   2.596 -1.2490 -1.3892 -3.2182
 3404SOL    HW313389   0.666   0.080   2.606  0.8454 -1.2011  0.7715
 3404SOL    MW413390   0.707   0.156   2.596 -0.0610  0.1835 -0.5017
 3405SOL     OW13391   1.233   2.787   5.891 -0.0039 -0.1765  0.3760
 3405SOL    HW213392   1.288   2.715   5.922  0.0353 -0.1040  0.4732
 3405SOL    HW313393   1.143   2.756   5.903  0.0132 -0.4993 -0.2457
 3405SOL    MW413394   1.229   2.774   5.896  0.5601 -0.1070 -0.1940
 3406SOL     OW13395   3.520  -0.009   0.852  0.0844 -0.1925 -0.9650
 3406SOL    HW213396   3.456  -0.019   0.782 -1.3510 -0.5877  0.3462
 3406SOL    HW313397   3.492   0.069   0.900  0.3662 -0.5586 -0.1744
 3406SOL    MW413398   3.508   0.000   0.849  0.0837 -0.9434  0.0896
 3407SOL     OW13399   3.432   5.466   6.203  0.1293 -0.2357  0.2146
 3407SOL    HW213400   3.359   5.527   6.192  0.1958 -0.1706  0.1245
 3407SOL    HW313401   3.487   5.506   6.270  0.3026 -0.0698 -0.0235
 3407SOL    MW413402   3.429   5.479   6.210  1.0769  0.0432 -0.3486
 3408SOL     OW13403   1.187   1.712   6.064 -0.6042  0.4651 -0.3738
 3408SOL    HW213404   1.144   1.650   6.124 -1.5520  0.5344 -0.9638
 3408SOL    HW313405   1.160   1.683   5.977 -0.3124  1.1610 -0.6986
 3408SOL    MW413406   1.177   1.700   6.061  0.1400  0.0446  0.0085
 3409SOL     OW13407   0.228   2.038   5.251  0.1302 -0.4515  0.0728
 3409SOL    HW213408   0.164   2.100   5.216  0.4500 -0.2246 -0.1226
 3409SOL    HW313409   0.219   2.045   5.346 -0.0951 -0.3778  0.0449
 3409SOL    MW413410   0.219   2.047   5.259  0.5225 -0.1814  0.6515
 3410SOL     OW13411   2.100   1.443   4.801 -0.0322 -0.2802 -0.8923
 3410SOL    HW213412   2.025   1.486   4.761 -0.0737 -1.2624 -1.9109
 3410SOL    HW313413   2.063   1.390   4.871 -0.0184  1.0079  0.1279
 3410SOL    MW413414   2.085   1.442   4.805 -0.2838  0.5788  0.4292
 3411SOL     OW13415   3.533   6.231   2.821 -0.1747  0.2896  0.2093
 3411SOL    HW213416   3.449   6.248   2.863  0.4607  1.5147  1.0323
 3411SOL    HW313417   3.598   6.264   2.883  0.9601 -1.2459 -0.1056
 3411SOL    MW413418   3.531   6.238   2.834  0.5265 -0.3014 -0.1264
 3412SOL     OW13419   0.283   5.717   5.953 -0.1400  0.4577 -0.6532
 3412SOL    HW213420   0.240   5.664   5.885  0.1826 -2.0668  0.9738
 3412SOL    HW313421   0.211   5.758   6.001 -0.6180 -0.9299 -0.1249
 3412SOL    MW413422   0.267   5.715   5.950 -0.3749 -0.5596 -0.4783
 3413SOL     OW13423   1.572   2.656   0.274 -0.5980 -0.2859 -0.0636
 3413SOL    HW213424   1.601   2.726   0.332  0.1482 -1.3446  0.9009
 3413SOL    HW313425   1.507   2.697   0.217  0.1598  1.2879  0.1493
 3413SOL    MW413426   1.568   2.671   0.274 -0.6492  0.3800  0.0002
 3414SOL     OW13427   4.331   3.424   5.951 -0.4581 -0.0236  0.1288
 3414SOL    HW213428   4.339   3.342   6.000 -3.2442 -0.9904 -0.8962
 3414SOL    HW313429   4.350   3.492   6.017  1.0223 -1.4081  1.2157
 3414SOL    MW413430   4.335   3.422   5.966  0.1865 -0.3984 -0.2840
 3415SOL     OW13431   4.756   1.286   0.506  0.2361  0.7079 -0.5092
 3415SOL    HW213432   4.824   1.311   0.569 -1.1954  0.0641  1.3833
 3415SOL    HW313433   4.780   1.197   0.480 -0.2851  0.1584  0.7991
 3415SOL    MW413434   4.768   1.278   0.511 -0.4380 -0.0523  0.2783
 3416SOL     OW13435   1.510   4.585   0.959 -0.6059  0.3699 -0.1517
 3416SOL    HW213436   1.474   4.611   1.044 -1.7420 -1.2309 -0.0987
 3416SOL    HW313437   1.584   4.529   0.980  2.0001  3.4450 -0.2668
 3416SOL    MW413438   1.515   4.581   0.973 -0.0586 -0.0475  0.6730
 3417SOL     OW13439   3.899   2.217   2.206  0.3442 -0.0293  0.0647
 3417SOL    HW213440   3.846   2.165   2.267  2.4146 -0.4755  1.5925
 3417SOL    HW313441   3.949   2.152   2.157  1.5438  0.4161  0.6554
 3417SOL    MW413442   3.898   2.202   2.208  0.2942 -0.3795  0.2221
 3418SOL     OW13443   3.899   1.280   4.844 -0.2216  0.7693  0.7007
 3418SOL    HW213444   3.925   1.268   4.935  0.7592  1.2579  0.4979
 3418SOL    HW313445   3.832   1.213   4.829 -0.2611  0.5679  1.7248
 3418SOL    MW413446   3.894   1.269   4.854 -0.1431  0.2089 -0.2559
 3419SOL     OW13447   1.432   4.216   0.637 -0.3791 -0.0886 -1.2434
 3419SOL    HW213448   1.488   4.256   0.570  0.2550  0.9398 -0.1580
 3419SOL    HW313449   1.408   4.289   0.694 -1.5776 -0.7970 -0.8127
 3419SOL    MW413450   1.436   4.231   0.636  0.0355 -0.1282 -0.7559
 3420SOL     OW13451   4.886   4.109   5.771 -0.4913  0.6118  0.0240
 3420SOL    HW213452   4.800   4.080   5.803 -0.1040  0.5329  1.0372
 3420SOL    HW313453   4.943   4.103   5.848  0.6227 -0.1529 -0.8299
 3420SOL    MW413454   4.882   4.104   5.786 -0.3411  0.6354 -0.0454
 3421SOL     OW13455   5.615   4.490   6.308  0.0041 -0.1927  0.3014
 3421SOL    HW213456   5.692   4.458   6.356  0.4833  3.4101  2.3784
 3421SOL    HW313457   5.541   4.463   6.362  0.2689  0.5960  1.0962
 3421SOL    MW413458   5.615   4.482   6.322  0.1376  0.3241  0.5221
 3422SOL     OW13459   5.182   4.986   3.355 -0.3428 -0.6321  0.8686
 3422SOL    HW213460   5.129   4.927   3.409 -1.9757 -1.1204 -1.1321
 3422SOL    HW313461   5.270   4.948   3.357 -0.7069 -1.4679  1.9742
 3422SOL    MW413462   5.187   4.973   3.362  0.0272  0.6392 -0.0063
 3423SOL     OW13463   1.269   3.074   3.658  0.1361  0.4194 -0.0552
 3423SOL    HW213464   1.269   3.099   3.565  0.3677  0.5463 -0.0225
 3423SOL    HW313465   1.177   3.077   3.684  0.2507  2.7228  0.3294
 3423SOL    MW413466   1.257   3.078   3.649  0.3474 -0.5025  0.4229
 3424SOL     OW13467   3.567   3.732   1.197  0.0118  0.3417 -0.1595
 3424SOL    HW213468   3.506   3.739   1.271 -1.8056  0.0991 -1.5584
 3424SOL    HW313469   3.613   3.650   1.212 -2.1260 -1.0098 -0.4853
 3424SOL    MW413470   3.565   3.722   1.209 -0.0687  0.7681 -0.3632
 3425SOL     OW13471   5.992   0.271   2.351  0.3702  0.4774 -0.3787
 3425SOL    HW213472   5.949   0.317   2.423 -2.5452  0.2847 -1.8218
 3425SOL    HW313473   5.971   0.179   2.366 -0.8813  0.4989 -1.7745
 3425SOL    MW413474   5.984   0.265   2.363 -0.3337 -0.5417  0.4259
 3426SOL     OW13475   0.071   0.440   2.271 -0.2869  0.2905 -0.4535
 3426SOL    HW213476   0.135   0.389   2.223 -0.5855 -0.6218  0.1059
 3426SOL    HW313477   0.001   0.378   2.293 -2.0356  1.5190 -2.2012
 3426SOL    MW413478   0.070   0.425   2.268 -0.2244 -0.1750 -0.0027
 3427SOL     OW13479   5.982   3.514   2.700 -0.6163 -0.0219  0.0135
 3427SOL    HW213480   5.905   3.520   2.644  0.3853  0.1397 -1.4027
 3427SOL    HW313481   6.056   3.516   2.639  0.4845 -1.5768  1.2059
 3427SOL    MW413482   5.982   3.515   2.684  0.1614 -0.0768  0.4006
 3428SOL     OW13483   1.735   4.907   5.524  0.3858  0.2255 -0.1241
 3428SOL    HW213484   1.749   4.859   5.606 -1.1519  0.8176  0.5148
 3428SOL    HW313485   1.687   4.845   5.469 -2.0987  1.1272  0.9041
 3428SOL    MW413486   1.731   4.892   5.528  0.6528  0.4347 -0.6690
 3429SOL     OW13487   2.224   3.260   3.757 -0.3715 -0.6998  0.4768
 3429SOL    HW213488   2.197   3.352   3.757  1.2208 -0.1667  2.5594
 3429SOL    HW313489   2.157   3.216   3.810  0.1312 -0.2775  1.4904
 3429SOL    MW413490   2.212   3.266   3.764  0.1427 -0.2282 -0.1146
 3430SOL     OW13491   1.753   3.165   6.193 -0.3344  0.1894  0.0845
 3430SOL    HW213492   1.696   3.234   6.159 -0.5745  0.2050  0.5097
 3430SOL    HW313493   1.834   3.211   6.217  0.1316  0.0544 -1.1848
 3430SOL    MW413494   1.756   3.180   6.192 -0.1314 -0.6082 -0.3053
 3431SOL     OW13495   3.350   1.260   0.903  0.0510  0.4378  0.1974
 3431SOL    HW213496   3.393   1.224   0.980 -1.3377 -1.1485  0.2683
 3431SOL    HW313497   3.268   1.297   0.936 -2.2011 -3.2008 -0.8224
 3431SOL    MW413498   3.345   1.260   0.917  0.3776  0.3060  0.2201
 3432SOL     OW13499   4.339   2.364   0.918  0.5948 -0.3422  0.5484
 3432SOL    HW213500   4.418   2.408   0.887  0.8465 -1.7278 -0.8959
 3432SOL    HW313501   4.368   2.310   0.992  0.8446 -0.2758  0.4975
 3432SOL    MW413502   4.353   2.362   0.924 -0.0424  0.3347 -0.4173
 3433SOL     OW13503   4.621   0.643   3.318 -0.5343 -0.1371 -0.6045
 3433SOL    HW213504   4.590   0.564   3.274  2.0466 -1.0597 -0.9743
 3433SOL    HW313505   4.571   0.714   3.280 -0.5871 -1.2619 -2.7558
 3433SOL    MW413506   4.611   0.642   3.307  0.1803  0.0710 -0.1116
 3434SOL     OW13507   2.425   1.494   4.608  0.6385 -0.1441  0.7870
 3434SOL    HW213508   2.502   1.541   4.574  0.1391  1.0892  1.3052
 3434SOL    HW313509   2.399   1.544   4.685 -2.4341  1.2122 -0.9623
 3434SOL    MW413510   2.432   1.507   4.614  0.5809  0.1869  0.3193
 3435SOL     OW13511   0.444   3.655   6.169  0.2442 -0.7023  0.1239
 3435SOL    HW213512   0.388   3.608   6.107 -0.8332  0.6454  0.0443
 3435SOL    HW313513   0.533   3.638   6.138 -0.2294 -0.8544 -1.2253
 3435SOL    MW413514   0.449   3.646   6.157  0.6035 -0.2040  0.0742
 3436SOL     OW13515   5.475   3.296   6.062  0.1224  0.0720  0.3381
 3436SOL    HW213516   5.413   3.350   6.013 -1.5818  0.1495  2.4535
 3436SOL    HW313517   5.519   3.358   6.120  0.6618 -0.3252  0.3651
 3436SOL    MW413518   5.473   3.312   6.063 -0.7050  0.5957 -0.0709
 3437SOL     OW13519   5.467   1.583   6.193 -0.1576 -0.6589  0.2062
 3437SOL    HW213520   5.377   1.612   6.204  0.8380  2.2115  1.8703
 3437SOL    HW313521   5.488   1.606   6.102  0.1111  3.0075  1.0051
 3437SOL    MW413522   5.458   1.590   6.182 -0.3452  0.1747 -0.2432
 3438SOL     OW13523   4.718   4.435   3.804 -0.5647  0.0742 -0.1806
 3438SOL    HW213524   4.656   4.444   3.731 -1.0841 -0.9878  0.1147
 3438SOL    HW313525   4.724   4.341   3.819 -0.5220  0.2768  1.1888
 3438SOL    MW413526   4.710   4.424   3.796  0.1717  0.3448  0.8465
 3439SOL     OW13527   6.328   1.736   6.027 -0.3204 -0.1584 -0.1233
 3439SOL    HW213528   6.357   1.788   6.102 -0.0089 -0.4082 -0.0686
 3439SOL    HW313529   6.408   1.698   5.992 -0.5609 -0.7279 -0.0656
 3439SOL    MW413530   6.342   1.738   6.032 -0.3616  0.1796  0.1126
 3440SOL     OW13531   5.758   1.850   5.548  0.1755  0.1326  0.4524
 3440SOL    HW213532   5.782   1.859   5.640  0.2359  0.0115  0.4486
 3440SOL    HW313533   5.669   1.813   5.550  0.5253 -0.7443  0.4597
 3440SOL    MW413534   5.749   1.846   5.560  0.5681  0.5536  0.3392
 3441SOL     OW13535   0.060   2.849   2.432 -0.1169 -0.1908  0.2980
 3441SOL    HW213536  -0.010   2.788   2.411  0.5521 -0.8542 -0.0710
 3441SOL    HW313537   0.131   2.794   2.466 -0.4089  0.6361  2.4095
 3441SOL    MW413538   0.060   2.834   2.434 -0.5524 -0.7202 -0.1671
 3442SOL     OW13539   0.954   0.634   2.651  0.2733 -0.6715  0.5412
 3442SOL    HW213540   1.028   0.694   2.645  0.0570 -0.2837  1.4938
 3442SOL    HW313541   0.927   0.620   2.560  0.2685  0.7616  0.3010
 3442SOL    MW413542   0.960   0.640   2.638  0.3178  0.1250 -0.1346
 3443SOL     OW13543   0.827   3.417   3.844  0.3985 -0.0339 -0.7701
 3443SOL    HW213544   0.870   3.363   3.910  0.2965  2.1208  1.2062
 3443SOL    HW313545   0.793   3.492   3.893  1.0403  2.1288 -3.3846
 3443SOL    MW413546   0.828   3.420   3.859  0.2859 -0.1622  0.3066
 3444SOL     OW13547   3.674   5.791   1.031 -0.3864 -0.7604  0.4374
 3444SOL    HW213548   3.612   5.718   1.031 -0.7310 -0.6588 -3.2823
 3444SOL    HW313549   3.620   5.869   1.018  0.2284 -0.2387  0.9566
 3444SOL    MW413550   3.659   5.792   1.029 -0.1679 -0.3814  0.4426
 3445SOL     OW13551   5.250   4.209   5.208  0.9175  0.1568 -0.2976
 3445SOL    HW213552   5.333   4.161   5.204  0.0913 -1.2623 -1.1520
 3445SOL    HW313553   5.250   4.263   5.130  0.8882 -0.0930 -0.4708
 3445SOL    MW413554   5.261   4.210   5.197  0.0768  0.2149  0.0555
 3446SOL     OW13555   4.882   0.113   1.586  1.4261 -0.2190  0.0423
 3446SOL    HW213556   4.817   0.180   1.567 -0.1132 -1.7747 -0.3763
 3446SOL    HW313557   4.956   0.134   1.529  0.0503 -0.1963 -1.8024
 3446SOL    MW413558   4.883   0.124   1.576 -0.2383  0.2206 -0.4141
 3447SOL     OW13559   3.378   0.644   4.790  0.0263  0.0956 -0.5308
 3447SOL    HW213560   3.447   0.697   4.750  1.8378 -0.1344  2.0680
 3447SOL    HW313561   3.405   0.553   4.776  1.0988  0.0073  1.6943
 3447SOL    MW413562   3.390   0.639   4.783  0.0763  0.1177 -0.5551
 3448SOL     OW13563   0.263   2.661   2.462  0.1924 -0.3143 -0.2610
 3448SOL    HW213564   0.255   2.642   2.368  1.0312 -1.0810 -0.2000
 3448SOL    HW313565   0.349   2.626   2.485 -0.5074 -1.2376  1.0584
 3448SOL    MW413566   0.274   2.654   2.453 -0.2212 -0.7148  0.3064
 3449SOL     OW13567   1.625   3.586   3.913  0.6826  0.3570  0.3170
 3449SOL    HW213568   1.598   3.534   3.989 -3.0442 -2.2880 -2.4769
 3449SOL    HW313569   1.693   3.533   3.871 -0.9737 -0.9246 -0.8831
 3449SOL    MW413570   1.630   3.572   3.918 -0.9147  0.0959  0.0427
 3450SOL     OW13571   0.026   0.617   4.854  0.0244  0.0079  0.0639
 3450SOL    HW213572  -0.013   0.557   4.791  1.2889  0.4824 -1.2361
 3450SOL    HW313573   0.095   0.662   4.805  1.1168  0.3514  1.8091
 3450SOL    MW413574   0.030   0.615   4.839  0.8492 -0.5238  0.3364
 3451SOL     OW13575   5.606   4.025   5.575  0.0203  0.0603 -0.0042
 3451SOL    HW213576   5.638   4.056   5.489  1.1542 -1.3607 -0.1276
 3451SOL    HW313577   5.562   4.101   5.612 -0.1187  0.8420 -1.6713
 3451SOL    MW413578   5.605   4.039   5.568 -0.6878 -0.7210  0.1764
 3452SOL     OW13579   5.921   4.162   2.941  0.1795  0.1988  0.3153
 3452SOL    HW213580   5.970   4.207   2.872 -0.0205 -0.2783 -0.1475
 3452SOL    HW313581   5.989   4.121   2.994  0.3082 -0.0887 -0.0642
 3452SOL    MW413582   5.937   4.162   2.939 -0.1912 -0.6227 -0.0878
 3453SOL     OW13583   3.679   2.732   5.446 -0.3910 -0.2982  0.5807
 3453SOL    HW213584   3.740   2.799   5.416 -1.4747  0.7331  0.6078
 3453SOL    HW313585   3.729   2.681   5.510  0.7097 -0.0527 -0.0612
 3453SOL    MW413586   3.694   2.734   5.451  0.5662 -0.5675 -0.0894
 3454SOL     OW13587   3.370   5.161   3.530 -0.0778  0.6198 -0.2386
 3454SOL    HW213588   3.407   5.078   3.562  2.9255  1.7843 -0.3305
 3454SOL    HW313589   3.319   5.194   3.604  1.8091  0.4122  1.2428
 3454SOL    MW413590   3.368   5.154   3.544  0.2192 -0.4927 -0.1074
 3455SOL     OW13591   2.870   2.055   4.083 -0.0551  0.1615  0.1754
 3455SOL    HW213592   2.837   2.099   4.005  2.1601 -0.1565 -1.0036
 3455SOL    HW313593   2.823   1.972   4.086 -0.0774  0.1306 -0.8902
 3455SOL    MW413594   2.859   2.050   4.073 -0.2926 -0.3450 -0.2636
 3456SOL     OW13595   2.832   4.114   5.527  1.0448  0.1566  0.3615
 3456SOL    HW213596   2.877   4.041   5.571 -0.3019 -1.9762 -1.6030
 3456SOL    HW313597   2.757   4.132   5.583  0.5245 -1.0620  0.0765
 3456SOL    MW413598   2.828   4.106   5.541 -0.4782  0.0500 -0.5517
 3457SOL     OW13599   1.884   1.164   1.428 -0.0033 -0.3583  0.0971
 3457SOL    HW213600   1.837   1.084   1.452 -0.8949 -0.1244 -0.8294
 3457SOL    HW313601   1.919   1.147   1.341 -1.2410  0.6695 -0.6415
 3457SOL    MW413602   1.882   1.151   1.420 -0.0008  0.2098 -0.4175
 3458SOL     OW13603   3.981   4.939   0.005  0.0328 -0.1654 -0.2613
 3458SOL    HW213604   3.897   4.917  -0.035 -0.6288 -0.9395  1.4677
 3458SOL    HW313605   4.000   4.866   0.064  1.0194  0.8456  0.7344
 3458SOL    MW413606   3.972   4.927   0.008  0.5142  0.3849  0.1030
 3459SOL     OW13607   1.477   5.999   3.286 -0.4423 -0.5692 -0.0714
 3459SOL    HW213608   1.447   5.939   3.218  0.0912  0.2237 -1.0341
 3459SOL    HW313609   1.440   6.084   3.260  1.0005  0.0375 -0.2209
 3459SOL    MW413610   1.468   6.002   3.274  0.2937 -0.1496 -0.1591
 3460SOL     OW13611   3.646   2.591   2.098 -0.4406  0.4660  0.3997
 3460SOL    HW213612   3.619   2.499   2.094  2.5074 -0.4995 -0.3893
 3460SOL    HW313613   3.645   2.619   2.006 -1.1233  1.1833  0.6195
 3460SOL    MW413614   3.643   2.582   2.085  0.0251 -0.2643 -0.4160
 3461SOL     OW13615   2.324   5.883   2.226 -0.0349  0.2004 -0.2279
 3461SOL    HW213616   2.254   5.927   2.273 -0.7305 -0.1842 -0.8896
 3461SOL    HW313617   2.368   5.830   2.293 -0.9887 -0.3099  0.0041
 3461SOL    MW413618   2.321   5.882   2.241  0.5247 -0.0053 -0.0464
 3462SOL     OW13619   4.908   0.900   5.958 -0.2807  0.2523  0.3353
 3462SOL    HW213620   4.972   0.953   6.005 -1.2081  1.4840  0.2357
 3462SOL    HW313621   4.825   0.947   5.967 -1.6173 -2.1764  1.9856
 3462SOL    MW413622   4.905   0.913   5.966  0.0196 -0.3520  0.4954
 3463SOL     OW13623   4.248   5.299   1.718 -0.3693  0.1501  0.4315
 3463SOL    HW213624   4.232   5.332   1.630  0.4081 -0.8755 -0.1077
 3463SOL    HW313625   4.164   5.259   1.744  0.5285 -3.5732 -1.6735
 3463SOL    MW413626   4.235   5.298   1.710  0.0410  0.5541 -0.3741
 3464SOL     OW13627   2.194   5.839   0.612 -0.1236  1.3301  0.3320
 3464SOL    HW213628   2.105   5.822   0.579  0.9711 -0.0641 -2.2231
 3464SOL    HW313629   2.209   5.931   0.592 -0.2466  1.0226 -1.3351
 3464SOL    MW413630   2.184   5.849   0.605 -0.0894  0.4719 -0.3724
 3465SOL     OW13631   5.035   3.168   6.078 -0.4422  0.0211 -0.3975
 3465SOL    HW213632   5.083   3.238   6.121  0.1571 -1.8955  2.3064
 3465SOL    HW313633   5.024   3.101   6.146 -4.2875 -0.9581 -1.7297
 3465SOL    MW413634   5.040   3.168   6.093  0.5456  0.1373  0.3040
 3466SOL     OW13635   3.206   2.064   5.403 -0.7502 -0.0607  0.4756
 3466SOL    HW213636   3.222   2.153   5.436  0.2027 -0.5885  1.4948
 3466SOL    HW313637   3.119   2.070   5.362 -1.2364  1.0603  1.5740
 3466SOL    MW413638   3.196   2.077   5.402 -0.2350  0.0201 -0.5429
 3467SOL     OW13639   3.988   3.447   0.456 -0.3674  0.4710 -0.2102
 3467SOL    HW213640   3.951   3.421   0.541  0.0237 -0.1052 -0.2106
 3467SOL    HW313641   4.002   3.364   0.410  0.3052  0.7211 -0.4666
 3467SOL    MW413642   3.985   3.433   0.461  0.1746  0.2316 -0.1021
 3468SOL     OW13643   1.440   1.620   5.786  0.4523  0.0514  0.2238
 3468SOL    HW213644   1.439   1.617   5.690 -0.8406 -1.1481  0.2465
 3468SOL    HW313645   1.385   1.547   5.813 -0.6572  1.4328  1.8804
 3468SOL    MW413646   1.433   1.610   5.777 -0.2252  0.0737  0.6554
 3469SOL     OW13647   3.053   0.217   0.417  0.0367 -0.0293 -0.6452
 3469SOL    HW213648   2.974   0.200   0.365 -0.5202  1.1484 -0.2341
 3469SOL    HW313649   3.019   0.231   0.506  0.6729  0.8349 -0.5323
 3469SOL    MW413650   3.038   0.217   0.422 -0.0247  0.4896  0.0625
 3470SOL     OW13651   5.489   2.958   3.167  0.2585  0.5311 -0.4426
 3470SOL    HW213652   5.490   2.927   3.076  0.6096 -1.4672  0.1884
 3470SOL    HW313653   5.463   2.882   3.218 -0.1060  1.6641  1.1405
 3470SOL    MW413654   5.486   2.944   3.162  0.2831 -0.5170 -0.7752
 3471SOL     OW13655   0.395   3.397   1.854  0.0068  0.4890  0.3287
 3471SOL    HW213656   0.307   3.417   1.886  0.4268  1.6609  0.8038
 3471SOL    HW313657   0.380   3.334   1.783 -1.3318  1.6235 -0.4582
 3471SOL    MW413658   0.381   3.391   1.849 -0.6383 -0.6845  0.0296
 3472SOL     OW13659   3.817   3.699   2.768 -0.1277  0.6434  0.8529
 3472SOL    HW213660   3.747   3.764   2.771 -0.3956  0.3568  0.8056
 3472SOL    HW313661   3.878   3.727   2.836 -1.3113 -0.2649  2.3429
 3472SOL    MW413662   3.816   3.711   2.777 -0.0992  0.2242  0.6088
 3473SOL     OW13663   1.259   0.827   5.886 -0.3762 -0.2193 -0.0883
 3473SOL    HW213664   1.250   0.901   5.946 -2.3832 -2.1761  2.2627
 3473SOL    HW313665   1.353   0.806   5.888  0.0586  1.6193 -0.0209
 3473SOL    MW413666   1.271   0.834   5.894  0.2562 -0.0982  0.0489
 3474SOL     OW13667   3.403   3.596   0.520  0.1432 -0.4143 -0.1857
 3474SOL    HW213668   3.315   3.607   0.485 -0.9082  0.1639  2.3775
 3474SOL    HW313669   3.456   3.660   0.473 -1.1915  0.4244 -0.5895
 3474SOL    MW413670   3.399   3.606   0.509  0.1100 -0.8837  0.0749
 3475SOL     OW13671   0.517   6.335   6.236 -0.0544  0.1910 -0.3380
 3475SOL    HW213672   0.543   6.252   6.275  1.9566  1.0122  0.1937
 3475SOL    HW313673   0.581   6.350   6.167  0.7515  2.1123  0.7342
 3475SOL    MW413674   0.529   6.326   6.232  0.1070  0.2581 -0.2757
 3476SOL     OW13675   0.319   0.710   3.727  0.0003  0.0935 -0.5668
 3476SOL    HW213676   0.401   0.692   3.681  0.1257 -0.8148 -0.0134
 3476SOL    HW313677   0.263   0.634   3.707 -0.7534  0.7505 -1.0240
 3476SOL    MW413678   0.322   0.697   3.718 -0.2634  0.4050 -0.3227
 3477SOL     OW13679   5.696   3.913   4.390  0.7209 -0.0593 -0.3917
 3477SOL    HW213680   5.739   3.864   4.320  2.0221 -2.3215  1.8143
 3477SOL    HW313681   5.768   3.949   4.442 -0.1827  0.7681  0.3167
 3477SOL    MW413682   5.711   3.911   4.388 -0.9093 -1.0245  0.6046
 3478SOL     OW13683   3.180   4.247   1.091  0.4042  0.0827 -0.8303
 3478SOL    HW213684   3.226   4.202   1.162  0.6416 -0.6991 -1.4571
 3478SOL    HW313685   3.197   4.193   1.014 -1.9233 -0.5083 -1.0255
 3478SOL    MW413686   3.188   4.234   1.090  0.4928 -0.1094 -0.5247
 3479SOL     OW13687   0.576   1.512   4.997  0.3387 -0.9870 -0.3594
 3479SOL    HW213688   0.586   1.592   5.048 -1.0025 -1.1460  0.1844
 3479SOL    HW313689   0.621   1.530   4.915  3.0328 -0.8974  1.0139
 3479SOL    MW413690   0.584   1.525   4.993  0.6543  0.5727  0.3224
 3480SOL     OW13691   3.846   0.894   1.188  0.1678  0.2505 -0.0959
 3480SOL    HW213692   3.795   0.840   1.129  0.0295  0.9633 -0.6472
 3480SOL    HW313693   3.884   0.833   1.251 -0.3360 -0.4237 -0.4411
 3480SOL    MW413694   3.845   0.879   1.189  0.6670 -0.5419  0.1350
 3481SOL     OW13695   2.550   4.865   2.464  0.3774  0.5219 -0.0376
 3481SOL    HW213696   2.483   4.872   2.396  0.4971  0.4389 -0.1657
 3481SOL    HW313697   2.540   4.776   2.498 -0.0546  0.7471  0.4470
 3481SOL    MW413698   2.540   4.854   2.460 -0.5133  0.4718 -0.0178
 3482SOL     OW13699   1.599   2.976   4.703  0.3115  0.2212 -0.0688
 3482SOL    HW213700   1.580   3.056   4.752 -1.8104  0.8202 -1.7072
 3482SOL    HW313701   1.673   2.998   4.647  0.9200  0.4234  0.8017
 3482SOL    MW413702   1.606   2.989   4.702 -0.9247  0.9602 -1.0250
 3483SOL     OW13703   1.416   4.125   2.059 -0.1850  0.5648  0.0427
 3483SOL    HW213704   1.424   4.215   2.028 -0.1551  0.5448 -0.0085
 3483SOL    HW313705   1.456   4.126   2.146 -1.1480  0.8315  0.4859
 3483SOL    MW413706   1.422   4.137   2.067 -0.7812  0.3220 -0.0443
 3484SOL     OW13707   2.573   5.793   2.375  0.2248 -0.3815 -0.4141
 3484SOL    HW213708   2.534   5.713   2.409 -0.6469 -0.6900 -2.0538
 3484SOL    HW313709   2.603   5.770   2.288  0.3292  0.9704 -0.7580
 3484SOL    MW413710   2.572   5.779   2.368 -0.0627  0.2230 -0.4614
 3485SOL     OW13711   6.145   0.145   0.090 -0.2469  0.5714 -0.2145
 3485SOL    HW213712   6.229   0.117   0.126  0.1073  0.5486 -1.0547
 3485SOL    HW313713   6.085   0.139   0.165  0.3638  0.0257  0.2510
 3485SOL    MW413714   6.148   0.141   0.105  0.1227 -0.2332 -0.0329
 3486SOL     OW13715   3.493   4.106   0.004  0.2812  0.2027 -0.8049
 3486SOL    HW213716   3.546   4.114   0.083 -2.3891  0.5430  1.1058
 3486SOL    HW313717   3.470   4.196  -0.019 -1.6001 -0.0076  0.0477
 3486SOL    MW413718   3.497   4.119   0.011  0.2449 -0.7310  0.4550
 3487SOL     OW13719   6.344   5.502   4.135 -0.3167 -0.0182  0.8296
 3487SOL    HW213720   6.397   5.512   4.214 -1.1208  1.2063  1.2460
 3487SOL    HW313721   6.380   5.425   4.092  1.9944  0.9220  0.9288
 3487SOL    MW413722   6.356   5.493   4.140  0.5976 -0.0653 -0.0135
 3488SOL     OW13723   4.154   1.446   3.493 -0.7024  0.0663 -0.3544
 3488SOL    HW213724   4.093   1.495   3.438 -2.1855  0.1413  1.2486
 3488SOL    HW313725   4.124   1.464   3.582  0.3467 -1.6598  0.3864
 3488SOL    MW413726   4.142   1.455   3.498  0.0374  0.3197  0.1284
 3489SOL     OW13727   5.184   0.900   1.023  0.3400  0.5831 -0.4081
 3489SOL    HW213728   5.126   0.827   1.003 -0.1484  0.9771 -0.4511
 3489SOL    HW313729   5.258   0.861   1.069  1.4396 -0.3388 -2.7838
 3489SOL    MW413730   5.187   0.886   1.026  0.1039 -0.4529  0.3463
 3490SOL     OW13731   2.986   3.827   0.020  0.0329 -0.5907  0.2661
 3490SOL    HW213732   2.894   3.816   0.045 -0.7430 -0.2417 -2.2004
 3490SOL    HW313733   2.984   3.889  -0.053  1.9723 -2.2383 -1.3182
 3490SOL    MW413734   2.974   3.833   0.014  0.1167  0.6531  0.3564
 3491SOL     OW13735   3.437   0.283   1.439  0.6719 -0.5533 -1.0322
 3491SOL    HW213736   3.460   0.349   1.374  1.2337 -1.2130 -1.5174
 3491SOL    HW313737   3.342   0.289   1.446  0.7358  0.4573 -0.8997
 3491SOL    MW413738   3.428   0.292   1.431 -0.4895 -0.8167  0.0447
 3492SOL     OW13739   3.543   3.219   2.258 -0.8534 -0.0152 -0.2492
 3492SOL    HW213740   3.511   3.309   2.269 -1.8444  0.0919 -3.3066
 3492SOL    HW313741   3.621   3.228   2.203 -0.8961 -1.0217 -0.4850
 3492SOL    MW413742   3.549   3.232   2.252  0.0204 -0.0511 -0.1408
 3493SOL     OW13743   5.822   6.074   4.322  0.2908  0.0153  0.1996
 3493SOL    HW213744   5.870   6.009   4.374 -0.2152 -1.4092 -1.0233
 3493SOL    HW313745   5.735   6.036   4.311  0.0312  0.8232 -0.7075
 3493SOL    MW413746   5.816   6.060   4.328  0.0653 -0.4279  0.2274
 3494SOL     OW13747   3.663   2.691   3.884  0.2757 -0.0152 -0.3881
 3494SOL    HW213748   3.716   2.628   3.837 -0.0053 -1.2750  0.9137
 3494SOL    HW313749   3.715   2.715   3.961 -0.9418 -1.2509  0.8952
 3494SOL    MW413750   3.677   2.686   3.888  0.0753 -0.4043  0.3119
 3495SOL     OW13751   4.327   1.731   4.339  0.1525  0.4850  0.0357
 3495SOL    HW213752   4.322   1.691   4.426  2.1985 -1.4382 -0.6105
 3495SOL    HW313753   4.400   1.792   4.346 -0.9836  1.8571  0.1739
 3495SOL    MW413754   4.336   1.734   4.352  0.4686  0.2424  0.3712
 3496SOL     OW13755   3.616   0.227   3.688 -0.6016 -0.4524 -0.7232
 3496SOL    HW213756   3.596   0.311   3.649 -1.0368 -1.0227 -1.7654
 3496SOL    HW313757   3.705   0.238   3.724 -0.7949  0.5431 -0.5228
 3496SOL    MW413758   3.625   0.239   3.688  0.8661  0.3334  0.1587
 3497SOL     OW13759   5.928   2.093   2.342  0.1566  0.3841 -0.5155
 3497SOL    HW213760   6.017   2.074   2.372 -0.1683 -2.1680 -0.9071
 3497SOL    HW313761   5.885   2.134   2.417  0.9514 -0.7457  0.5992
 3497SOL    MW413762   5.934   2.096   2.356 -0.1685 -0.4599  0.2174
 3498SOL     OW13763   3.363   0.198   2.136  0.5539 -0.7014  0.1819
 3498SOL    HW213764   3.411   0.127   2.179  0.7521 -1.4988 -1.2763
 3498SOL    HW313765   3.428   0.242   2.082  0.0129 -0.7206 -0.5014
 3498SOL    MW413766   3.378   0.194   2.134  0.1537 -0.3869  0.0260
 3499SOL     OW13767   5.465   4.401   0.675 -0.1960 -0.0272  0.9895
 3499SOL    HW213768   5.391   4.426   0.621  0.6632  1.6424  0.5206
 3499SOL    HW313769   5.435   4.323   0.722 -2.9840  1.7455  2.3950
 3499SOL    MW413770   5.451   4.394   0.674 -0.6754 -0.0034  0.6523
 3500SOL     OW13771   6.415   0.264   0.823 -0.2033  0.2954 -0.0257
 3500SOL    HW213772   6.337   0.319   0.813 -0.2168  0.2937  0.0691
 3500SOL    HW313773   6.413   0.206   0.747 -0.3386  0.2398  0.0202
 3500SOL    MW413774   6.404   0.264   0.812  0.3073  0.0512  0.3482
 3501SOL     OW13775   0.104   0.446   2.557  0.0286 -0.3578 -0.5573
 3501SOL    HW213776   0.127   0.532   2.592  0.1219 -0.1202 -1.1898
 3501SOL    HW313777   0.076   0.463   2.467 -0.5158 -0.9179 -0.5011
 3501SOL    MW413778   0.104   0.460   2.550 -0.9344  0.5880 -0.1301
 3502SOL     OW13779   3.092   5.000   2.762  0.5034  0.0313 -0.3360
 3502SOL    HW213780   3.029   4.930   2.782  0.9681 -0.5405 -0.8270
 3502SOL    HW313781   3.141   4.967   2.687  0.3843  1.1168 -0.9089
 3502SOL    MW413782   3.090   4.986   2.755 -0.0388 -0.1075 -0.0267
 3503SOL     OW13783   4.721   0.607   3.922  0.3333 -0.0890  0.4858
 3503SOL    HW213784   4.722   0.697   3.889 -0.8718 -0.4770 -0.6725
 3503SOL    HW313785   4.785   0.561   3.869 -0.7001 -0.4222 -0.5054
 3503SOL    MW413786   4.730   0.613   3.911  0.0551  0.4539  0.3686
 3504SOL     OW13787   3.978   3.076   4.259  0.1414 -0.1421 -0.3038
 3504SOL    HW213788   3.935   3.081   4.174 -1.1985 -1.5886  0.2563
 3504SOL    HW313789   3.911   3.045   4.319  0.5477  2.5192  1.7001
 3504SOL    MW413790   3.964   3.072   4.255 -0.2523  0.3508  0.3930
 3505SOL     OW13791   4.159   2.780   5.471 -0.0912  0.0665 -0.2772
 3505SOL    HW213792   4.081   2.814   5.429 -1.0630  0.5204  1.7581
 3505SOL    HW313793   4.174   2.695   5.429 -0.7244  0.6768 -1.7841
 3505SOL    MW413794   4.151   2.773   5.460  0.4625  0.0384 -0.0265
 3506SOL     OW13795   2.005   1.604   1.629  0.1226  0.2525  0.2666
 3506SOL    HW213796   1.915   1.613   1.663  0.3336  0.7483  0.7218
 3506SOL    HW313797   2.055   1.669   1.678  0.7703 -0.1430  0.1443
 3506SOL    MW413798   2.000   1.614   1.640 -0.1853  0.6749  0.5204
 3507SOL     OW13799   1.400   2.442   0.892  0.2772  0.1292  0.5431
 3507SOL    HW213800   1.447   2.398   0.963  1.4303  0.4144 -0.0215
 3507SOL    HW313801   1.416   2.535   0.906 -0.2266  0.2391  0.4125
 3507SOL    MW413802   1.408   2.449   0.903  0.1986 -0.0086 -0.6181
 3508SOL     OW13803   5.642   0.641   4.885 -0.1616  0.2375 -0.4020
 3508SOL    HW213804   5.636   0.547   4.901 -0.6000  0.7257  2.8257
 3508SOL    HW313805   5.557   0.676   4.910  1.1333  1.8767  2.0561
 3508SOL    MW413806   5.630   0.633   4.890  0.5299  0.4013 -0.3035
 3509SOL     OW13807   5.478   0.604   2.899  0.2203 -0.4592  0.3368
 3509SOL    HW213808   5.538   0.567   2.834  2.2228  2.8714  0.0553
 3509SOL    HW313809   5.526   0.601   2.982 -0.3346 -0.2487  0.6756
 3509SOL    MW413810   5.492   0.599   2.901  0.2015  0.4586  0.3369
 3510SOL     OW13811   2.223   0.331   3.231 -0.2052 -0.3317  0.2965
 3510SOL    HW213812   2.299   0.278   3.205 -0.2355 -0.3971  0.3416
 3510SOL    HW313813   2.176   0.348   3.150 -1.1372 -1.8092  0.4814
 3510SOL    MW413814   2.227   0.326   3.217 -0.2148 -0.0809 -0.0696
 3511SOL     OW13815   4.565   2.840   5.231  0.1892  0.3146 -0.0823
 3511SOL    HW213816   4.656   2.864   5.210 -0.3764  2.0460 -0.6994
 3511SOL    HW313817   4.560   2.846   5.326  0.1493  2.5752 -0.1746
 3511SOL    MW413818   4.577   2.844   5.240  0.3281 -0.2201 -0.1606
 3512SOL     OW13819   3.519   4.878   4.805 -0.7644  0.0715  0.1554
 3512SOL    HW213820   3.468   4.828   4.740 -1.3412  2.1398 -1.0765
 3512SOL    HW313821   3.592   4.915   4.755  0.0098 -0.0360  1.1744
 3512SOL    MW413822   3.522   4.876   4.790  0.3585 -0.5775 -0.1157
 3513SOL     OW13823   1.439   5.390   0.395  0.3729  0.3434 -0.9986
 3513SOL    HW213824   1.411   5.437   0.474 -1.0674 -2.2805  0.2126
 3513SOL    HW313825   1.474   5.458   0.338 -0.5160  2.6829  1.0224
 3513SOL    MW413826   1.440   5.405   0.398 -0.0458  0.1625 -0.4117
 3514SOL     OW13827   0.410   2.570   1.117 -0.6310 -0.0804  0.0722
 3514SOL    HW213828   0.426   2.574   1.211  3.3817 -2.1746 -0.3129
 3514SOL    HW313829   0.457   2.645   1.081 -1.1539  0.0426 -0.3816
 3514SOL    MW413830   0.418   2.580   1.125 -0.0385  0.7228  0.0540
 3515SOL     OW13831   2.087   1.756   0.422 -0.3035 -0.4833 -0.0152
 3515SOL    HW213832   2.032   1.697   0.473 -1.2250 -0.6544 -1.1505
 3515SOL    HW313833   2.143   1.800   0.486 -0.7056 -1.4289  1.0082
 3515SOL    MW413834   2.087   1.754   0.437  0.0875 -0.2192 -0.0851
 3516SOL     OW13835   2.865   3.155   1.141  0.3288 -0.1234 -0.0658
 3516SOL    HW213836   2.948   3.202   1.138  0.5122 -0.3256  1.1455
 3516SOL    HW313837   2.806   3.215   1.188  0.0887 -0.4078  0.0003
 3516SOL    MW413838   2.868   3.169   1.147  0.1222 -0.4671 -0.8537
 3517SOL     OW13839   1.382   4.442   6.413  0.0248  0.1370 -0.3750
 3517SOL    HW213840   1.300   4.464   6.369 -1.6789 -1.5622  1.7217
 3517SOL    HW313841   1.365   4.458   6.506  1.8368 -0.9202  0.1925
 3517SOL    MW413842   1.369   4.447   6.420 -0.0891  0.2686  0.4337
 3518SOL     OW13843   2.863   1.640   0.426 -0.5946 -0.1454  0.2687
 3518SOL    HW213844   2.802   1.642   0.352 -0.7914 -3.6858  0.1803
 3518SOL    HW313845   2.808   1.654   0.503 -1.2796 -1.6084  0.0687
 3518SOL    MW413846   2.848   1.642   0.426 -0.3160 -0.2966 -0.2192
 3519SOL     OW13847   1.008   3.793   4.571 -0.3295  0.5014  0.4164
 3519SOL    HW213848   1.037   3.705   4.548  0.3847  0.9111 -0.3060
 3519SOL    HW313849   1.087   3.847   4.565 -0.1782  0.7890  3.2465
 3519SOL    MW413850   1.022   3.789   4.567  0.2449  0.7039  0.1874
 3520SOL     OW13851   1.480   0.706   4.807  0.5406  0.1718  0.5237
 3520SOL    HW213852   1.411   0.741   4.863  0.6201  2.3210 -0.6393
 3520SOL    HW313853   1.449   0.619   4.782 -3.0182  1.9025 -1.8956
 3520SOL    MW413854   1.467   0.699   4.811 -0.4500 -0.6711  0.1098
 3521SOL     OW13855   1.455   1.183   5.957  0.7995  0.4655 -0.3390
 3521SOL    HW213856   1.398   1.119   6.002 -1.3450  1.5371 -1.4062
 3521SOL    HW313857   1.514   1.214   6.026 -1.4464  1.0108  1.4756
 3521SOL    MW413858   1.455   1.178   5.972  0.4754  1.2104  0.1717
 3522SOL     OW13859   0.126   5.264   5.477 -0.2683 -0.4243  0.1365
 3522SOL    HW213860   0.136   5.358   5.491 -0.2470 -0.0724 -1.9417
 3522SOL    HW313861   0.085   5.232   5.557 -2.8149  1.8307 -0.1203
 3522SOL    MW413862   0.122   5.272   5.489  0.3009 -0.1960  0.0132
 3523SOL     OW13863   1.802   4.715   5.778  0.0082 -0.7354  0.2379
 3523SOL    HW213864   1.830   4.653   5.845 -0.2553 -2.1101 -0.8786
 3523SOL    HW313865   1.729   4.763   5.818  0.2878 -1.0726  1.1608
 3523SOL    MW413866   1.796   4.713   5.792 -0.0200 -0.0319  0.1423
 3524SOL     OW13867   4.274   5.983   4.522  0.0439 -0.0063  0.1683
 3524SOL    HW213868   4.272   6.054   4.458  0.3579  1.0425  1.2813
 3524SOL    HW313869   4.248   6.024   4.604 -0.3745 -1.3291  0.7200
 3524SOL    MW413870   4.271   5.998   4.524  0.3009  0.5109 -0.6061
 3525SOL     OW13871   1.428   4.145   5.705  0.3336  0.2273 -0.4648
 3525SOL    HW213872   1.494   4.107   5.762 -1.1674 -3.2968 -0.8316
 3525SOL    HW313873   1.467   4.141   5.617 -0.0859 -1.3453 -0.6088
 3525SOL    MW413874   1.442   4.140   5.701 -0.3470 -0.1063  0.2740
 3526SOL     OW13875   2.092   4.778   2.256  0.0738 -0.0582  0.0818
 3526SOL    HW213876   2.089   4.802   2.164  1.2427 -1.5247 -0.3791
 3526SOL    HW313877   2.016   4.821   2.295 -1.1231 -0.4004 -1.7897
 3526SOL    MW413878   2.082   4.787   2.249  0.1802 -0.7945 -0.0666
 3527SOL     OW13879   1.861   2.710   4.752 -0.5316 -0.0128  0.1068
 3527SOL    HW213880   1.804   2.642   4.717 -0.8216 -0.9318  2.1995
 3527SOL    HW313881   1.810   2.750   4.823  0.7520  0.3350  0.8654
 3527SOL    MW413882   1.847   2.706   4.757 -0.2062  0.4952 -0.2437
 3528SOL     OW13883   4.845   3.450   5.877  0.2100 -0.3940 -0.0794
 3528SOL    HW213884   4.827   3.359   5.900 -0.8188  0.1411  1.4450
 3528SOL    HW313885   4.758   3.489   5.867  0.6365  0.4897 -0.4341
 3528SOL    MW413886   4.831   3.443   5.879 -0.1188  0.4472  0.1273
 3529SOL     OW13887   3.690   4.000   1.122 -0.1578 -0.2084 -0.1848
 3529SOL    HW213888   3.623   4.063   1.099 -1.1257 -1.0225  0.3383
 3529SOL    HW313889   3.642   3.921   1.149  0.9271 -0.1899  2.0969
 3529SOL    MW413890   3.675   3.998   1.123 -0.5572  0.2209 -0.0083
 3530SOL     OW13891   4.918   6.007   5.391  0.1634  0.1062 -0.3453
 3530SOL    HW213892   5.003   5.963   5.396 -0.3071 -0.7338  0.6108
 3530SOL    HW313893   4.870   5.957   5.325 -0.5528 -1.2063  1.1017
 3530SOL    MW413894   4.923   5.994   5.383 -0.0551 -1.0299  0.2433
 3531SOL     OW13895   6.170   1.511   5.006  0.2683 -0.1157  0.2474
 3531SOL    HW213896   6.104   1.442   4.998 -0.0485 -0.0064  1.6280
 3531SOL    HW313897   6.246   1.467   5.045 -0.2738  0.4715  2.0557
 3531SOL    MW413898   6.171   1.496   5.010  0.2923  0.1536 -0.5213
 3532SOL     OW13899   1.442   2.691   0.970  0.0164 -0.3508 -0.6587
 3532SOL    HW213900   1.471   2.731   0.889  1.7283 -1.4613 -0.6443
 3532SOL    HW313901   1.352   2.721   0.981  0.7438  2.2711 -1.3526
 3532SOL    MW413902   1.434   2.700   0.961  0.3757  0.6068  0.0142
 3533SOL     OW13903   4.785   5.329   0.525  0.3491 -0.3113 -0.1168
 3533SOL    HW213904   4.696   5.305   0.497  0.6378 -1.9102  0.2941
 3533SOL    HW313905   4.834   5.336   0.443 -0.3995  1.8517 -0.4650
 3533SOL    MW413906   4.780   5.327   0.510  0.2310  0.0032  0.3277
 3534SOL     OW13907   2.509   5.384   3.576  0.0200 -0.2054  0.1222
 3534SOL    HW213908   2.444   5.333   3.529  0.2607 -1.4900  1.1329
 3534SOL    HW313909   2.583   5.324   3.588  0.4933  0.5114  0.9637
 3534SOL    MW413910   2.510   5.370   3.572  0.3211 -1.1732 -0.2650
 3535SOL     OW13911   2.814   2.326   2.830 -0.0822 -0.2261  0.0375
 3535SOL    HW213912   2.798   2.361   2.742  0.1786 -1.0054 -0.3379
 3535SOL    HW313913   2.803   2.231   2.820  2.1669 -0.5732  0.3139
 3535SOL    MW413914   2.811   2.318   2.817 -0.3915 -0.0098 -0.1742
 3536SOL     OW13915   4.995   4.764   6.342 -0.0158 -0.0678  0.5855
 3536SOL    HW213916   5.075   4.803   6.376 -0.0895  1.8353 -1.2288
 3536SOL    HW313917   5.021   4.722   6.260 -0.4284 -1.7588  1.2720
 3536SOL    MW413918   5.009   4.763   6.335  0.6152 -0.5219 -0.1830
 3537SOL     OW13919   1.389   5.294   1.803  0.0686  0.4993  0.2509
 3537SOL    HW213920   1.302   5.269   1.771  0.4445 -1.3569  0.5733
 3537SOL    HW313921   1.385   5.280   1.897  1.1908 -1.2746  0.0831
 3537SOL    MW413922   1.377   5.289   1.811  0.1336 -0.2567  0.5682
 3538SOL     OW13923   3.940   1.565   2.577 -0.5043  0.2484 -0.4501
 3538SOL    HW213924   3.976   1.488   2.533 -1.7307  0.1806 -1.3734
 3538SOL    HW313925   4.015   1.605   2.620  0.3386 -0.8863 -0.8226
 3538SOL    MW413926   3.954   1.560   2.577 -0.4225 -0.0553 -0.1920
 3539SOL     OW13927   6.352   5.547   4.780  0.1291 -0.0319 -0.6025
 3539SOL    HW213928   6.286   5.617   4.783  0.7019  0.5245 -0.8632
 3539SOL    HW313929   6.302   5.469   4.756 -0.1757  0.7178 -2.6116
 3539SOL    MW413930   6.336   5.546   4.777 -0.0751  0.4951  0.0629
 3540SOL     OW13931   2.081   1.744   3.658 -0.0409 -0.4739 -0.3479
 3540SOL    HW213932   2.050   1.826   3.619  2.3811 -0.2411 -2.0030
 3540SOL    HW313933   2.104   1.689   3.584 -0.3340 -2.1568  0.7606
 3540SOL    MW413934   2.080   1.748   3.643 -0.3388 -0.1963 -0.2835
 3541SOL     OW13935   4.044   4.808   2.380  0.5295 -0.3220 -0.2071
 3541SOL    HW213936   3.991   4.869   2.432 -0.0075 -1.0002  0.0491
 3541SOL    HW313937   4.135   4.832   2.400  0.3262 -0.2867  0.7047
 3541SOL    MW413938   4.049   4.819   2.389  0.2436 -0.0684  0.9561
 3542SOL     OW13939   0.974   1.643   1.383  0.4112  0.2567 -0.2662
 3542SOL    HW213940   1.019   1.713   1.430  1.3974  0.5963 -1.6499
 3542SOL    HW313941   1.044   1.594   1.339 -0.3982 -0.5877 -0.6679
 3542SOL    MW413942   0.989   1.646   1.383 -0.0744 -0.3779 -0.5116
 3543SOL     OW13943   4.294   4.454   4.229 -0.1439  0.1411  0.8469
 3543SOL    HW213944   4.296   4.514   4.155  0.1803 -0.0450  0.7022
 3543SOL    HW313945   4.252   4.504   4.299  0.6793  0.7571  0.9119
 3543SOL    MW413946   4.289   4.469   4.229  0.8240  0.4135  0.0203
 3544SOL     OW13947   3.471   1.751   5.557  0.1300  0.1702  0.6642
 3544SOL    HW213948   3.544   1.798   5.598  0.1399 -0.7827  1.7864
 3544SOL    HW313949   3.462   1.792   5.471  0.5282  1.8099  1.3577
 3544SOL    MW413950   3.479   1.762   5.551  0.3171 -0.5405 -0.4733
 3545SOL     OW13951   1.483   5.837   4.978  0.2141  0.2733 -0.8344
 3545SOL    HW213952   1.493   5.788   4.897  0.2798 -0.0578 -0.6276
 3545SOL    HW313953   1.559   5.811   5.031  0.2737  0.6298 -0.7435
 3545SOL    MW413954   1.495   5.827   4.975 -0.6156  0.1900 -0.0338
 3546SOL     OW13955   3.323   6.248   4.851 -0.1765  0.1623 -0.6146
 3546SOL    HW213956   3.376   6.168   4.847  0.7186  0.7735 -1.4932
 3546SOL    HW313957   3.273   6.239   4.932  0.9978 -0.6106  0.0643
 3546SOL    MW413958   3.324   6.236   4.861  0.5926 -0.2113 -0.2622
 3547SOL     OW13959   3.309   0.537   2.230  0.1950  0.1145  0.0950
 3547SOL    HW213960   3.248   0.533   2.303 -0.4417 -0.0191 -0.4328
 3547SOL    HW313961   3.278   0.610   2.176  0.3062 -0.1543 -0.3416
 3547SOL    MW413962   3.297   0.546   2.232  0.1823  0.3882 -0.1812
 3548SOL     OW13963   1.068   1.359   2.078  0.6532  0.0059 -0.0006
 3548SOL    HW213964   1.080   1.303   2.002 -1.4218  0.0601 -0.4280
 3548SOL    HW313965   1.147   1.413   2.081  1.2222 -0.6928 -1.5054
 3548SOL    MW413966   1.080   1.359   2.068  0.3451 -0.2511 -0.4211
 3549SOL     OW13967   2.839   2.719   5.191  0.5850  0.0551  0.0909
 3549SOL    HW213968   2.886   2.739   5.110  0.7241  1.4774  0.5031
 3549SOL    HW313969   2.766   2.782   5.192  0.6627  0.1387  1.1354
 3549SOL    MW413970   2.835   2.730   5.180 -0.7391 -0.2000 -0.5044
 3550SOL     OW13971   2.101   5.480   5.164 -0.0836 -0.4348 -0.0931
 3550SOL    HW213972   2.185   5.476   5.211  0.1296  0.8969 -0.3025
 3550SOL    HW313973   2.113   5.424   5.088  0.7546  0.0064 -0.3026
 3550SOL    MW413974   2.114   5.472   5.160  0.0391 -0.3490 -0.1687
 3551SOL     OW13975   5.946   0.963   1.253 -0.0465 -0.1238  0.0727
 3551SOL    HW213976   5.901   1.025   1.195  1.1361  0.4818 -0.2234
 3551SOL    HW313977   5.974   0.892   1.196  1.0751  0.4485 -0.1031
 3551SOL    MW413978   5.944   0.962   1.238  0.0079  0.0164 -0.5153
 3552SOL     OW13979   4.065   1.389   1.913 -0.7583  0.0144 -0.0499
 3552SOL    HW213980   4.097   1.475   1.887 -0.6862 -0.0415 -0.1492
 3552SOL    HW313981   4.133   1.328   1.883 -0.1252  0.0385  1.2722
 3552SOL    MW413982   4.078   1.392   1.905 -0.5924  0.0206 -0.2287
 3553SOL     OW13983   3.808   1.562   0.404  0.6823 -0.2428  0.0489
 3553SOL    HW213984   3.881   1.622   0.386 -1.7492  2.3520 -2.2424
 3553SOL    HW313985   3.749   1.573   0.329 -2.5777 -1.3368  2.2079
 3553SOL    MW413986   3.810   1.572   0.392  0.6343  1.0936 -0.7124
 3554SOL     OW13987   3.811   2.956   0.515 -0.6603 -0.1469 -0.1896
 3554SOL    HW213988   3.792   2.873   0.473 -2.3269  1.3073 -2.5831
 3554SOL    HW313989   3.738   3.013   0.490  1.0017  2.3836  0.3032
 3554SOL    MW413990   3.799   2.953   0.506 -0.0350  0.2631 -0.0782
 3555SOL     OW13991   3.913   0.333   0.576  0.1203  0.6523 -0.6135
 3555SOL    HW213992   3.947   0.398   0.638  1.9472  0.7606 -1.6627
 3555SOL    HW313993   3.906   0.252   0.626 -1.1685  1.3706  0.4337
 3555SOL    MW413994   3.916   0.331   0.590  1.2847 -0.0651 -0.1518
 3556SOL     OW13995   5.721   4.024   5.294 -0.3893 -0.4791 -0.1738
 3556SOL    HW213996   5.635   4.043   5.257  0.1922  0.1050 -1.2585
 3556SOL    HW313997   5.717   3.932   5.319 -2.1911  0.1313  2.2199
 3556SOL    MW413998   5.709   4.015   5.293 -0.1684  0.1069  0.5348
 3557SOL     OW13999   2.338   0.197   2.220 -0.3880  0.2530  0.0838
 3557SOL    HW214000   2.311   0.198   2.128 -1.0204 -0.0692  0.2597
 3557SOL    HW314001   2.256   0.200   2.269 -0.0917 -0.3927  0.6343
 3557SOL    MW414002   2.324   0.197   2.214  0.2945 -0.1271  0.4371
 3558SOL     OW14003   5.245   5.585   1.781 -0.1680 -0.2408 -0.2858
 3558SOL    HW214004   5.167   5.537   1.753 -1.1978 -0.0361  2.0329
 3558SOL    HW314005   5.215   5.675   1.793  0.0238 -0.4404  2.0216
 3558SOL    MW414006   5.231   5.591   1.779  0.0555 -0.9593  0.4496
 3559SOL     OW14007   5.278   3.355   5.486 -0.1165 -0.0452 -0.2776
 3559SOL    HW214008   5.221   3.417   5.532 -1.6422 -1.8331  0.3869
 3559SOL    HW314009   5.360   3.356   5.535  0.2948  2.1461 -0.8942
 3559SOL    MW414010   5.281   3.363   5.498 -0.1042 -0.1405 -0.4828
 3560SOL     OW14011   4.336   2.429   0.569 -0.3804 -0.0834  0.2461
 3560SOL    HW214012   4.403   2.428   0.638  1.0327  1.1080 -1.0227
 3560SOL    HW314013   4.339   2.341   0.532 -1.0205 -0.6777  1.5549
 3560SOL    MW414014   4.345   2.418   0.573 -0.0301  0.5085  0.3598
 3561SOL     OW14015   5.551   2.390   6.182  0.5347  0.0496 -0.9630
 3561SOL    HW214016   5.586   2.450   6.248 -0.1010  2.8557 -2.9879
 3561SOL    HW314017   5.629   2.347   6.145  1.0094 -0.4204  0.5245
 3561SOL    MW414018   5.566   2.393   6.186  0.0799  0.2991 -0.1260
 3562SOL     OW14019   6.248   0.377   4.473 -0.3189  0.4055  0.3878
 3562SOL    HW214020   6.215   0.287   4.477  1.3237 -0.2406  0.2169
 3562SOL    HW314021   6.170   0.430   4.458 -1.0352 -1.2930 -2.7913
 3562SOL    MW414022   6.233   0.372   4.471  0.0318  0.2773  0.4086
 3563SOL     OW14023   0.994   2.670   4.563  0.7140  0.0680  0.5333
 3563SOL    HW214024   0.987   2.618   4.644  0.1879  0.6907  0.8971
 3563SOL    HW314025   1.023   2.756   4.593  0.9296  0.1814  0.0061
 3563SOL    MW414026   0.997   2.674   4.578 -0.7019 -0.5117 -0.4909
 3564SOL     OW14027   4.659   2.182   0.106 -0.0141  0.0562  0.1968
 3564SOL    HW214028   4.584   2.167   0.048  1.0283 -1.9436 -0.7646
 3564SOL    HW314029   4.720   2.232   0.053 -0.2304  0.7630  0.6087
 3564SOL    MW414030   4.657   2.186   0.091 -0.6006  0.0440 -0.0311
 3565SOL     OW14031   3.836   0.595   2.876  0.4521  0.3705  0.0493
 3565SOL    HW214032   3.899   0.664   2.854  0.5492  0.1761 -0.2825
 3565SOL    HW314033   3.847   0.529   2.808  1.0677 -0.4599  0.9157
 3565SOL    MW414034   3.846   0.596   2.864 -0.0087 -0.4221 -0.2266
 3566SOL     OW14035   5.026   5.184   0.080 -0.1328 -0.8004  0.2962
 3566SOL    HW214036   4.969   5.115   0.113 -0.7418  0.0192  1.0018
 3566SOL    HW314037   5.024   5.251   0.148  0.2051  0.0457 -0.5069
 3566SOL    MW414038   5.018   5.184   0.093  0.0022 -0.2347 -0.1615
 3567SOL     OW14039   4.289   0.084   4.964  0.0281  0.5812  0.5747
 3567SOL    HW214040   4.370   0.054   4.923  0.7892  3.7092 -0.4541
 3567SOL    HW314041   4.220   0.039   4.914  1.0758  0.5137 -0.8900
 3567SOL    MW414042   4.290   0.074   4.952 -0.0305  0.2313 -0.0863
 3568SOL     OW14043   6.054   2.619   3.387  0.1887  0.2425 -0.2379
 3568SOL    HW214044   6.106   2.562   3.444  2.0332  2.3875  0.3893
 3568SOL    HW314045   6.038   2.697   3.441  1.1623  1.9463 -2.2767
 3568SOL    MW414046   6.059   2.622   3.402  0.0765  0.5525  0.5492
 3569SOL     OW14047   5.937   3.720   0.669 -0.2618 -0.1299 -0.4675
 3569SOL    HW214048   5.891   3.646   0.709 -0.5015  0.3421  0.1402
 3569SOL    HW314049   5.869   3.784   0.651  0.0777  0.3508 -0.0684
 3569SOL    MW414050   5.922   3.719   0.672  0.0688  0.8522  0.2988
 3570SOL     OW14051   4.974   3.882   4.517 -0.0487  0.7237  0.0758
 3570SOL    HW214052   5.069   3.891   4.528  0.4312 -0.9604 -2.0687
 3570SOL    HW314053   4.946   3.836   4.596  1.3531 -0.9415 -0.3312
 3570SOL    MW414054   4.983   3.877   4.529  0.2766  0.9175 -0.2492
 3571SOL     OW14055   2.417   4.393   0.143  0.2868 -0.2143  0.3166
 3571SOL    HW214056   2.480   4.435   0.202  1.6855 -4.0832  1.9371
 3571SOL    HW314057   2.345   4.456   0.136  1.3948  1.7260  3.7768
 3571SOL    MW414058   2.416   4.407   0.150 -0.2477  0.3557 -0.4849
 3572SOL     OW14059   6.300   0.485   5.261 -0.5166 -0.0062  0.3106
 3572SOL    HW214060   6.260   0.415   5.210 -2.2845  0.3526  1.1478
 3572SOL    HW314061   6.236   0.556   5.259  0.4050  0.8702  1.0886
 3572SOL    MW414062   6.286   0.485   5.254  0.4223 -0.1614 -1.1116
 3573SOL     OW14063   3.261   1.965   0.773  0.1949  0.2468 -0.0783
 3573SOL    HW214064   3.297   2.053   0.789  2.6754 -0.1277 -2.7241
 3573SOL    HW314065   3.225   1.970   0.684 -0.9211 -1.0901  0.2644
 3573SOL    MW414066   3.261   1.977   0.763 -0.1039  1.1868 -0.2387
 3574SOL     OW14067   2.017   4.889   5.820 -0.5826  0.1626  0.3338
 3574SOL    HW214068   1.942   4.832   5.804 -0.2008 -0.2164 -0.1478
 3574SOL    HW314069   2.023   4.943   5.741  1.0432 -1.4046 -0.6963
 3574SOL    MW414070   2.008   4.888   5.807  0.2554  0.3176  0.1706
 3575SOL     OW14071   4.652   6.359   5.152  0.1610 -0.3742 -0.2411
 3575SOL    HW214072   4.593   6.367   5.227 -0.3714  1.8147 -0.8359
 3575SOL    HW314073   4.630   6.274   5.113 -0.9467 -0.6453  0.9019
 3575SOL    MW414074   4.642   6.349   5.157 -0.2307 -0.3231 -0.5234
 3576SOL     OW14075   2.298   1.821   3.837  0.0611  0.2013  0.2404
 3576SOL    HW214076   2.219   1.813   3.783  0.0206  2.3165 -0.1128
 3576SOL    HW314077   2.351   1.745   3.815 -1.8789 -1.2843  0.4935
 3576SOL    MW414078   2.294   1.810   3.827  0.5070 -0.4884  0.1994
 3577SOL     OW14079   5.123   5.005   4.479 -0.3902 -0.1645  0.6181
 3577SOL    HW214080   5.137   5.083   4.425  3.7039 -1.1836 -0.1293
 3577SOL    HW314081   5.094   5.039   4.564  1.5775  2.2385  0.4302
 3577SOL    MW414082   5.121   5.020   4.483  0.0663  0.4899 -0.1542
 3578SOL     OW14083   3.772   0.755   0.703  0.2897  0.2779  0.0943
 3578SOL    HW214084   3.832   0.683   0.721  1.0352  0.8278 -0.1349
 3578SOL    HW314085   3.685   0.716   0.706  0.7763 -1.3527 -3.1336
 3578SOL    MW414086   3.768   0.741   0.706 -0.3706 -0.0153  0.6943
 3579SOL     OW14087   5.930   0.365   5.346 -0.1248  0.3287 -0.1414
 3579SOL    HW214088   5.872   0.289   5.334  0.0593  0.0136  0.8475
 3579SOL    HW314089   6.007   0.330   5.391 -0.0622  1.1018  0.3794
 3579SOL    MW414090   5.932   0.350   5.351  0.1203  0.3207 -0.2750
 3580SOL     OW14091   0.708   2.682   0.141  0.4263  0.0640 -0.2474
 3580SOL    HW214092   0.676   2.597   0.171  1.3270  0.5190  2.1976
 3580SOL    HW314093   0.768   2.661   0.069  1.3822 -1.4776  0.9515
 3580SOL    MW414094   0.712   2.668   0.135 -0.3198 -0.3003  0.4386
 3581SOL     OW14095   5.207   5.893   4.780  0.0968  0.0697  0.2458
 3581SOL    HW214096   5.290   5.911   4.735  0.7359  0.6250  1.5822
 3581SOL    HW314097   5.193   5.799   4.767 -0.0704  0.3312 -1.6008
 3581SOL    MW414098   5.216   5.883   4.773  0.3687  0.2815  0.0906
 3582SOL     OW14099   0.040   3.840   2.240  0.1493 -0.0608  0.0843
 3582SOL    HW214100   0.076   3.884   2.163  0.4919 -2.0120 -0.9595
 3582SOL    HW314101  -0.055   3.847   2.230  0.1960  0.1564 -0.2440
 3582SOL    MW414102   0.033   3.846   2.228  0.3225  0.6903  0.2518
 3583SOL     OW14103   4.429   4.118   1.439  0.2881 -0.2881  0.3188
 3583SOL    HW214104   4.467   4.103   1.526 -0.4765 -1.3207  0.4867
 3583SOL    HW314105   4.357   4.179   1.454 -0.1632 -0.8591  0.4927
 3583SOL    MW414106   4.425   4.124   1.452 -0.0581  0.2922 -0.0789
 3584SOL     OW14107   0.500   4.045   1.632  0.0228 -0.0229  0.4623
 3584SOL    HW214108   0.494   4.136   1.658  0.8452  0.7531 -1.8301
 3584SOL    HW314109   0.549   4.002   1.702 -2.2267  0.7289  2.6758
 3584SOL    MW414110   0.505   4.051   1.644 -0.3604 -0.7026  0.0972
 3585SOL     OW14111   1.972   1.774   5.428 -0.0916  0.4106 -0.6355
 3585SOL    HW214112   1.959   1.799   5.520 -0.6904 -3.2568  0.4384
 3585SOL    HW314113   1.885   1.749   5.398  0.5028 -0.8758 -1.3477
 3585SOL    MW414114   1.959   1.774   5.436  0.4369 -0.0063 -0.0165
 3586SOL     OW14115   3.190   2.221   5.998 -0.8906  0.0817  0.1187
 3586SOL    HW214116   3.197   2.270   5.916  1.0467 -1.6349 -0.8468
 3586SOL    HW314117   3.097   2.223   6.020 -1.2456  1.7928 -1.3426
 3586SOL    MW414118   3.179   2.228   5.990  0.4068 -0.2567 -0.1764
 3587SOL     OW14119   4.462   5.430   4.169 -0.0438  0.3853 -0.0121
 3587SOL    HW214120   4.473   5.463   4.080 -1.1056  1.3642  0.1823
 3587SOL    HW314121   4.472   5.508   4.225 -0.8298  0.0694  0.6005
 3587SOL    MW414122   4.465   5.445   4.165 -0.0024  0.0843 -0.3866
 3588SOL     OW14123   2.791   0.908   5.579 -0.1370  0.3058 -0.4399
 3588SOL    HW214124   2.716   0.947   5.534  1.2842  1.0186 -2.3027
 3588SOL    HW314125   2.860   0.973   5.572  0.9101 -0.6421  0.5959
 3588SOL    MW414126   2.790   0.922   5.572 -0.0769  0.2670  0.0668
 3589SOL     OW14127   1.308   1.037   1.770 -0.4849 -0.1224 -0.5978
 3589SOL    HW214128   1.390   1.036   1.820  0.1700 -0.4527 -1.6396
 3589SOL    HW314129   1.255   0.968   1.811 -1.1243  1.4580  1.4282
 3589SOL    MW414130   1.312   1.028   1.782 -0.1032  0.1954  0.1999
 3590SOL     OW14131   1.208   3.975   5.037  0.0241 -0.2043 -0.0561
 3590SOL    HW214132   1.200   3.884   5.010  1.8388 -0.1552 -0.9385
 3590SOL    HW314133   1.300   3.997   5.019  0.1112  1.2595  1.8540
 3590SOL    MW414134   1.219   3.966   5.031 -0.1369 -0.0909 -0.0669
 3591SOL     OW14135   4.314   2.274   0.179 -0.1474 -0.4632 -0.1330
 3591SOL    HW214136   4.381   2.246   0.241 -0.3786 -0.7961 -0.0260
 3591SOL    HW314137   4.345   2.241   0.095  0.6805  0.8698 -0.3829
 3591SOL    MW414138   4.327   2.266   0.176  0.4795 -0.6666  0.3575
 3592SOL     OW14139   3.738   1.696   1.740 -0.1925 -0.2641  0.1526
 3592SOL    HW214140   3.730   1.602   1.724 -1.4765 -0.5329  2.0417
 3592SOL    HW314141   3.802   1.703   1.811 -1.2821  0.1429  1.1144
 3592SOL    MW414142   3.745   1.684   1.747  0.3942 -0.1873 -0.5930
 3593SOL     OW14143   0.638   2.673   5.579 -0.0857  0.0752  0.1453
 3593SOL    HW214144   0.577   2.629   5.637  0.4150 -0.1237  0.5286
 3593SOL    HW314145   0.637   2.764   5.608  2.6405 -0.5572  2.7474
 3593SOL    MW414146   0.630   2.679   5.590 -0.2034  0.4357 -0.9403
 3594SOL     OW14147   4.472   1.231   0.599 -0.7082  0.1151 -0.9538
 3594SOL    HW214148   4.422   1.189   0.529 -0.4415 -0.9807 -0.5088
 3594SOL    HW314149   4.562   1.234   0.566 -0.4245 -1.1535 -0.3612
 3594SOL    MW414150   4.477   1.226   0.586  0.0953  0.4088  0.1176
 3595SOL     OW14151   2.486   3.844   5.039 -0.2549 -0.5351  0.0541
 3595SOL    HW214152   2.504   3.828   4.946  2.1219 -1.3446  0.5800
 3595SOL    HW314153   2.550   3.912   5.064 -0.0927 -1.1385  1.3399
 3595SOL    MW414154   2.497   3.851   5.030  0.0278 -0.1602  0.1384
 3596SOL     OW14155   0.445   5.325   3.797  0.4895 -0.4587  0.0657
 3596SOL    HW214156   0.517   5.327   3.735  1.1636  0.9413  0.8538
 3596SOL    HW314157   0.376   5.275   3.752  0.5202  1.4616 -2.2925
 3596SOL    MW414158   0.445   5.318   3.783  0.2830 -0.8563 -0.1823
 3597SOL     OW14159   4.235   1.533   2.512 -0.5394 -0.2263 -0.3764
 3597SOL    HW214160   4.205   1.594   2.444  0.4016 -0.4819 -1.0449
 3597SOL    HW314161   4.187   1.452   2.494 -0.0105 -0.4104 -0.9809
 3597SOL    MW414162   4.224   1.530   2.501 -0.4076 -0.4792 -0.5530
 3598SOL     OW14163   3.373   2.180   0.265  0.0993  0.2561 -0.8973
 3598SOL    HW214164   3.347   2.245   0.330 -0.2848 -1.1027  0.3609
 3598SOL    HW314165   3.319   2.199   0.189  0.2250  1.5911 -0.6763
 3598SOL    MW414166   3.363   2.191   0.263  0.3088  0.1232 -0.3829
 3599SOL     OW14167   5.812   3.055   6.215  0.1518 -0.0312  0.4922
 3599SOL    HW214168   5.887   2.999   6.194 -1.2919 -1.6720 -0.5886
 3599SOL    HW314169   5.850   3.132   6.256  2.5311 -0.3061 -1.0106
 3599SOL    MW414170   5.827   3.058   6.218 -0.1536 -0.4213 -0.0517
 3600SOL     OW14171   0.427   0.714   3.989 -0.2555  0.4055 -0.2725
 3600SOL    HW214172   0.505   0.767   3.972 -0.8812  1.1795 -0.8094
 3600SOL    HW314173   0.401   0.682   3.902 -0.4323  0.0067 -0.0726
 3600SOL    MW414174   0.433   0.717   3.975 -0.4410 -0.3945 -0.5237
 3601SOL     OW14175   2.674   1.137   2.069 -0.2712  0.4186  0.2366
 3601SOL    HW214176   2.633   1.052   2.055  1.7708 -0.6981  0.6499
 3601SOL    HW314177   2.706   1.163   1.982 -1.6633  1.2268 -0.0608
 3601SOL    MW414178   2.673   1.129   2.056 -0.0354 -0.0370 -0.3772
 3602SOL     OW14179   1.642   6.278   4.659  0.5082 -0.2401 -0.1725
 3602SOL    HW214180   1.610   6.228   4.733  1.3033  0.4136  0.6365
 3602SOL    HW314181   1.564   6.318   4.621  0.1568 -0.1418  0.6457
 3602SOL    MW414182   1.628   6.277   4.663 -0.3818 -0.2998 -0.5198
 3603SOL     OW14183   1.182   1.553   0.468 -0.6551 -0.1350  0.3962
 3603SOL    HW214184   1.190   1.587   0.557  0.6294  2.0682 -0.4795
 3603SOL    HW314185   1.259   1.498   0.456 -0.0881  0.6907  0.2068
 3603SOL    MW414186   1.193   1.550   0.478  0.6663  0.3250  0.5189
 3604SOL     OW14187   3.924   2.774   4.473  0.3360  0.2899 -0.4113
 3604SOL    HW214188   3.941   2.745   4.383  0.8714 -2.2179  0.4259
 3604SOL    HW314189   3.969   2.710   4.528 -2.1817  0.1999  1.7156
 3604SOL    MW414190   3.932   2.762   4.468  0.7976 -0.4016  0.1092
 3605SOL     OW14191   0.656   5.434   5.987 -0.4993  0.1507 -0.2803
 3605SOL    HW214192   0.561   5.433   5.986 -0.5036 -0.9230 -1.8414
 3605SOL    HW314193   0.679   5.526   6.003 -1.7684  0.2856  0.9176
 3605SOL    MW414194   0.647   5.446   5.989  0.4691 -0.4765  0.1303
 3606SOL     OW14195   4.837   4.662   0.947  0.0798  0.7948 -0.0091
 3606SOL    HW214196   4.788   4.601   1.003  0.4020  0.2949 -0.2579
 3606SOL    HW314197   4.806   4.643   0.859  2.0996 -0.9511 -0.4357
 3606SOL    MW414198   4.827   4.651   0.943 -0.2798  0.7177 -0.1648
 3607SOL     OW14199   4.169   5.304   2.817 -0.3570 -0.3614 -0.3931
 3607SOL    HW214200   4.191   5.333   2.906 -0.4336  0.5656 -0.6654
 3607SOL    HW314201   4.073   5.305   2.815 -0.3678  1.3523 -1.0033
 3607SOL    MW414202   4.159   5.308   2.829  0.1118 -0.3884 -0.0586
 3608SOL     OW14203   4.654   1.017   4.537 -0.7252  0.0132  0.0971
 3608SOL    HW214204   4.589   0.962   4.581 -1.3075  1.9170  1.8065
 3608SOL    HW314205   4.604   1.065   4.471 -0.6435 -0.0217  0.0104
 3608SOL    MW414206   4.639   1.016   4.534  0.2137  0.2022 -0.3474
 3609SOL     OW14207   1.061   1.858   1.521  0.4783  0.3319 -0.2565
 3609SOL    HW214208   1.005   1.876   1.597  3.4704  1.2123  1.9440
 3609SOL    HW314209   1.056   1.937   1.468  0.3439  0.7787  0.4027
 3609SOL    MW414210   1.053   1.870   1.524  1.1080  0.4482 -0.1301
 3610SOL     OW14211   2.369   0.549   0.747  0.3355  0.1586  0.0956
 3610SOL    HW214212   2.457   0.563   0.782 -0.2089  3.2576  0.5893
 3610SOL    HW314213   2.372   0.586   0.659 -0.2090 -0.7657 -0.3260
 3610SOL    MW414214   2.381   0.556   0.740 -0.1368 -0.5119  0.1355
 3611SOL     OW14215   4.912   4.383   4.146  0.3254  0.0596 -0.4146
 3611SOL    HW214216   4.938   4.466   4.186 -2.0246  0.1014  1.2601
 3611SOL    HW314217   4.894   4.326   4.221 -2.3834 -0.5002 -1.3807
 3611SOL    MW414218   4.913   4.387   4.161 -0.1419  0.6040 -0.1368
 3612SOL     OW14219   5.028   5.903   4.032 -0.5084 -0.1942  0.0822
 3612SOL    HW214220   5.002   5.841   3.964 -0.5740 -0.7663  0.6109
 3612SOL    HW314221   4.960   5.893   4.100  0.7265 -1.2912  1.2256
 3612SOL    MW414222   5.015   5.893   4.032 -0.1858 -0.0252 -0.8140
 3613SOL     OW14223   2.464   2.727   2.640  0.6689  0.7256  0.3140
 3613SOL    HW214224   2.453   2.820   2.657 -0.9000  0.9128 -1.3798
 3613SOL    HW314225   2.511   2.723   2.557 -0.1299  0.0528 -0.1248
 3613SOL    MW414226   2.469   2.739   2.631  0.2523  0.6293 -0.7521
 3614SOL     OW14227   6.360   6.314   2.003 -0.0055 -0.2702 -0.6087
 3614SOL    HW214228   6.265   6.297   2.006 -0.4464  1.4921 -2.3500
 3614SOL    HW314229   6.386   6.282   1.916  0.9833 -0.5864 -0.2014
 3614SOL    MW414230   6.351   6.308   1.992  0.2091 -0.9934 -0.5006
 3615SOL     OW14231   3.173   4.025   2.268 -0.5857 -0.3615 -0.4477
 3615SOL    HW214232   3.265   4.042   2.248 -0.0663 -1.6308  0.6998
 3615SOL    HW314233   3.133   4.008   2.182  0.6340 -1.4857 -0.8248
 3615SOL    MW414234   3.179   4.025   2.254 -0.2021 -0.2307 -0.0504
 3616SOL     OW14235   6.330   1.328   0.293 -0.1278  0.3612 -0.4576
 3616SOL    HW214236   6.273   1.404   0.307  0.3293  0.4577  1.0466
 3616SOL    HW314237   6.279   1.271   0.235 -1.1972  1.0340 -0.2183
 3616SOL    MW414238   6.316   1.331   0.287 -0.2559 -0.0481  0.2958
 3617SOL     OW14239   0.580   5.635   1.408  0.1929  0.1601 -0.0035
 3617SOL    HW214240   0.602   5.714   1.358 -0.7399 -0.2515 -1.1215
 3617SOL    HW314241   0.613   5.563   1.354 -0.4221 -0.2712  0.1867
 3617SOL    MW414242   0.587   5.636   1.394  0.1085 -0.1887 -0.3334
 3618SOL     OW14243   4.475   0.623   3.547 -0.0064 -0.0356 -0.3293
 3618SOL    HW214244   4.392   0.611   3.502 -0.7013  0.2299  0.8417
 3618SOL    HW314245   4.541   0.618   3.478 -1.1018  1.7373 -1.5784
 3618SOL    MW414246   4.473   0.620   3.532  0.3745 -0.2212  0.0972
 3619SOL     OW14247   4.387   0.553   1.082 -0.0912  0.1116 -0.3685
 3619SOL    HW214248   4.410   0.526   0.993  1.3305  1.2540 -0.3702
 3619SOL    HW314249   4.466   0.594   1.117 -0.7077 -0.0558  1.3340
 3619SOL    MW414250   4.400   0.555   1.075 -0.1049  0.0136  0.1121
 3620SOL     OW14251   6.033   0.797   4.955 -0.1297 -0.3714  0.1735
 3620SOL    HW214252   6.124   0.766   4.963  0.1613  0.4658  0.2081
 3620SOL    HW314253   5.997   0.746   4.882  1.4567  1.7091 -2.2434
 3620SOL    MW414254   6.040   0.786   4.946  0.2622 -0.0223 -0.3990
 3621SOL     OW14255   2.856   5.112   6.384 -0.1782  0.0661 -0.0434
 3621SOL    HW214256   2.764   5.128   6.404 -0.2713 -2.2104  1.7669
 3621SOL    HW314257   2.855   5.038   6.323  0.4611  0.4756 -0.5715
 3621SOL    MW414258   2.844   5.104   6.379 -0.5405 -0.3832  0.6242
 3622SOL     OW14259   1.396   6.090   0.064  0.7754 -0.3050  0.1460
 3622SOL    HW214260   1.420   6.000   0.085  2.1901 -0.3003 -1.2827
 3622SOL    HW314261   1.335   6.116   0.133  0.7062 -2.1940  0.8317
 3622SOL    MW414262   1.391   6.082   0.076  0.2318  0.3079 -0.3880
 3623SOL     OW14263   4.443   2.854   2.678 -0.2051  0.0285  0.1955
 3623SOL    HW214264   4.469   2.788   2.614 -1.4228  0.3659 -0.6791
 3623SOL    HW314265   4.348   2.846   2.685 -0.2312  0.8081  1.0704
 3623SOL    MW414266   4.434   2.845   2.671  0.0562  0.6435  0.2384
 3624SOL     OW14267   2.018   1.359   3.616  0.3669 -0.3527  0.3679
 3624SOL    HW214268   1.937   1.360   3.667  0.1715  0.1368  0.0567
 3624SOL    HW314269   1.993   1.395   3.531  0.6212 -1.4381 -0.1821
 3624SOL    MW414270   2.004   1.364   3.612  0.4893  0.5526 -0.1318
 3625SOL     OW14271   6.348   2.723   5.558 -0.3040  0.6417  0.5250
 3625SOL    HW214272   6.311   2.718   5.646  0.3222  0.4145  0.7821
 3625SOL    HW314273   6.418   2.659   5.559 -0.0037  0.9618 -0.0035
 3625SOL    MW414274   6.352   2.714   5.570 -0.3029  0.7312  0.2583
 3626SOL     OW14275   3.418   3.483   2.828 -0.3022 -0.6134 -0.0750
 3626SOL    HW214276   3.514   3.484   2.824 -0.2658 -0.7303  0.6043
 3626SOL    HW314277   3.390   3.521   2.745  0.3572  0.4506  0.1686
 3626SOL    MW414278   3.427   3.488   2.817  0.4172  0.4538 -0.3737
 3627SOL     OW14279   1.810   3.318   2.829  0.8484 -0.8418 -0.1748
 3627SOL    HW214280   1.742   3.266   2.787  1.6473 -1.9023 -0.2010
 3627SOL    HW314281   1.812   3.285   2.919  0.1035  0.4457  0.3405
 3627SOL    MW414282   1.801   3.307   2.836  0.8534  0.1098 -0.3383
 3628SOL     OW14283   4.106   1.952   5.609  0.0930 -0.4416 -0.1554
 3628SOL    HW214284   4.023   1.970   5.565 -0.6685 -0.6952  1.1064
 3628SOL    HW314285   4.080   1.913   5.692  1.3896  1.6643  1.3319
 3628SOL    MW414286   4.091   1.949   5.614 -0.0033 -0.2552  0.3806
 3629SOL     OW14287   6.027   3.128   4.185  0.3273 -0.1490  0.3524
 3629SOL    HW214288   5.940   3.108   4.219  0.0513 -0.2799 -0.4160
 3629SOL    HW314289   6.079   3.151   4.262 -0.3520 -0.2037  0.8264
 3629SOL    MW414290   6.023   3.129   4.200  0.0730  0.5755 -0.0364
 3630SOL     OW14291   2.891   5.576   5.663 -0.0418  0.7878  0.2230
 3630SOL    HW214292   2.847   5.570   5.747  0.3982 -2.2753  0.3340
 3630SOL    HW314293   2.820   5.581   5.599 -0.4596 -0.1055  0.6101
 3630SOL    MW414294   2.876   5.576   5.665  0.5880  0.0327 -0.8164
 3631SOL     OW14295   2.194   3.226   4.547 -0.2167  0.1918 -0.9721
 3631SOL    HW214296   2.191   3.197   4.638  0.4963 -1.4203 -1.4161
 3631SOL    HW314297   2.269   3.180   4.510 -1.0963 -0.0044 -2.6172
 3631SOL    MW414298   2.203   3.216   4.554 -0.0203  0.3107  0.3902
 3632SOL     OW14299   1.999   0.436   0.596 -0.7195  0.3756 -0.3628
 3632SOL    HW214300   2.048   0.456   0.676 -1.0252 -0.6252  0.0841
 3632SOL    HW314301   2.065   0.434   0.527 -0.3996  0.8628 -0.0778
 3632SOL    MW414302   2.014   0.438   0.598  0.1730  0.1156  0.4391
 3633SOL     OW14303   0.563   4.461   3.958  0.1499 -0.7564 -0.4102
 3633SOL    HW214304   0.527   4.405   3.890 -0.4581  0.4577 -1.1070
 3633SOL    HW314305   0.657   4.465   3.939  0.1253 -1.1825 -0.6153
 3633SOL    MW414306   0.571   4.454   3.947  0.6467 -0.0018  0.1144
 3634SOL     OW14307   6.400   4.220   2.397 -0.4637 -0.2209 -0.0690
 3634SOL    HW214308   6.415   4.304   2.439 -0.1128 -0.4683  0.2997
 3634SOL    HW314309   6.306   4.219   2.378 -0.7262 -0.3097  1.1492
 3634SOL    MW414310   6.389   4.231   2.400  0.1602  0.6970  0.0530
 3635SOL     OW14311   0.612   0.739   1.779 -0.4302  0.8318  0.2126
 3635SOL    HW214312   0.707   0.746   1.771 -0.4761  3.7403  0.9739
 3635SOL    HW314313   0.580   0.822   1.744 -2.7823 -0.3474 -0.6338
 3635SOL    MW414314   0.620   0.751   1.773 -0.6219  0.3060 -0.0331
 3636SOL     OW14315   0.106   2.844   3.951 -0.2059  0.5231 -0.2270
 3636SOL    HW214316   0.079   2.933   3.930 -3.5690 -0.1066  0.7886
 3636SOL    HW314317   0.078   2.832   4.042 -3.1521 -2.5587 -1.3268
 3636SOL    MW414318   0.099   2.854   3.960  0.8331  0.3231 -0.4305
 3637SOL     OW14319   5.547   3.190   2.617 -0.1986  0.1148 -0.2596
 3637SOL    HW214320   5.536   3.283   2.637 -1.3649  0.4941 -2.3499
 3637SOL    HW314321   5.459   3.153   2.630  0.5127 -1.0341  1.8148
 3637SOL    MW414322   5.534   3.197   2.622 -0.1193 -0.0530  0.3793
 3638SOL     OW14323   3.578   0.573   1.533  0.2742  0.3125  0.1112
 3638SOL    HW214324   3.659   0.552   1.486  0.3106 -1.4146  0.8685
 3638SOL    HW314325   3.605   0.581   1.624 -0.1446  1.5433  0.1485
 3638SOL    MW414326   3.592   0.571   1.539 -0.2390  0.1524  0.6374
 3639SOL     OW14327   1.650   0.302   4.897  0.4322 -0.0222  0.3882
 3639SOL    HW214328   1.677   0.369   4.835 -1.9191  1.7392  1.1135
 3639SOL    HW314329   1.572   0.263   4.857 -0.2305  0.1031  1.5159
 3639SOL    MW414330   1.643   0.305   4.883  0.1299  0.0280  0.2469
 3640SOL     OW14331   5.007   0.475   1.644  0.2946  0.3848  0.2976
 3640SOL    HW214332   5.010   0.569   1.660 -1.3355  0.1641  2.3775
 3640SOL    HW314333   5.041   0.436   1.725 -3.2664 -0.7931  1.3906
 3640SOL    MW414334   5.012   0.482   1.657  0.3714 -0.1216  0.6804
 3641SOL     OW14335   0.137   1.608   5.958  1.0265 -0.1655 -0.0565
 3641SOL    HW214336   0.149   1.549   6.032  2.2340  1.4993  1.1767
 3641SOL    HW314337   0.213   1.593   5.902  0.8785 -0.3843 -0.2007
 3641SOL    MW414338   0.148   1.599   5.960  0.3409 -0.3639 -0.6050
 3642SOL     OW14339   5.791   1.061   3.048 -0.6394 -0.3937 -0.5285
 3642SOL    HW214340   5.771   1.007   2.972 -1.7770 -0.9735  0.1565
 3642SOL    HW314341   5.716   1.120   3.055 -0.0439  0.3771 -0.4663
 3642SOL    MW414342   5.778   1.062   3.039 -0.0373  0.2771 -0.1684
 3643SOL     OW14343   4.913   1.823   5.390  0.0722  0.6200  0.4382
 3643SOL    HW214344   4.945   1.861   5.309  0.2544  0.9480  0.6611
 3643SOL    HW314345   4.985   1.835   5.453  1.1975 -2.3020 -0.0905
 3643SOL    MW414346   4.927   1.829   5.388 -0.5975 -0.0639 -0.3428
 3644SOL     OW14347   5.258   3.563   5.026  0.3683 -0.3019 -0.7541
 3644SOL    HW214348   5.227   3.592   4.940  1.0759  0.9428 -0.6294
 3644SOL    HW314349   5.236   3.636   5.084  2.8335  0.3641 -0.5410
 3644SOL    MW414350   5.251   3.577   5.022  0.0388 -0.3355 -0.3854
 3645SOL     OW14351   5.609   0.978   3.635 -0.8575 -0.2833 -0.6048
 3645SOL    HW214352   5.535   1.017   3.681  0.6461 -0.1540  1.8890
 3645SOL    HW314353   5.666   1.052   3.614  0.6556 -0.7056  1.6185
 3645SOL    MW414354   5.607   0.993   3.639  0.0213  0.4710 -0.3833
 3646SOL     OW14355   4.005   3.403   4.286  0.4912  0.0896  0.3721
 3646SOL    HW214356   3.979   3.494   4.300  0.3722 -0.0908  1.3865
 3646SOL    HW314357   3.972   3.357   4.363  1.0411 -0.7145  0.1335
 3646SOL    MW414358   3.997   3.409   4.298 -0.7818 -0.2670  0.2299
 3647SOL     OW14359   5.888   0.478   1.681 -0.3562  0.8637  0.3460
 3647SOL    HW214360   5.817   0.541   1.670 -1.7145  0.0399  3.2182
 3647SOL    HW314361   5.881   0.451   1.773  1.0140 -2.4335 -0.3907
 3647SOL    MW414362   5.878   0.483   1.692 -0.0403  0.5093  0.4524
 3648SOL     OW14363   2.890   6.235   5.100  0.0025  0.0719  0.4255
 3648SOL    HW214364   2.827   6.180   5.053  0.4039 -1.2306  1.3443
 3648SOL    HW314365   2.844   6.318   5.112 -0.4526  0.1202 -1.4038
 3648SOL    MW414366   2.875   6.238   5.096  0.2287  0.2580  1.2965
 3649SOL     OW14367   3.247   0.846   0.787  0.2518  0.3314  0.2384
 3649SOL    HW214368   3.340   0.870   0.791  0.3008  0.1695  0.0867
 3649SOL    HW314369   3.247   0.758   0.748  0.0990 -0.0545  1.0820
 3649SOL    MW414370   3.260   0.837   0.783 -0.1480  0.6386 -0.0888
 3650SOL     OW14371   5.220   2.258   2.467  0.1113 -0.0854  0.5248
 3650SOL    HW214372   5.150   2.311   2.505  1.3914  1.1059  1.3235
 3650SOL    HW314373   5.219   2.177   2.518 -0.2700  0.1820  0.9535
 3650SOL    MW414374   5.211   2.255   2.479 -0.6094 -0.1024 -0.2204
 3651SOL     OW14375   0.935   0.636   2.374  0.0933 -0.4438  0.0215
 3651SOL    HW214376   0.857   0.664   2.326  0.5743  0.3294 -0.3245
 3651SOL    HW314377   1.005   0.693   2.342  0.4353  0.0694  1.6156
 3651SOL    MW414378   0.934   0.647   2.363  0.1857  0.2012 -0.3077
 3652SOL     OW14379   3.251   3.148   6.280 -0.0903 -0.3390 -0.4477
 3652SOL    HW214380   3.195   3.204   6.336  0.8207 -0.0228  0.1693
 3652SOL    HW314381   3.194   3.076   6.255 -0.9710  0.2975 -0.3462
 3652SOL    MW414382   3.236   3.146   6.284 -0.4075 -0.1026 -0.0626
 3653SOL     OW14383   5.058   6.069   4.941  0.2492  0.0653  0.2490
 3653SOL    HW214384   5.115   6.015   4.887 -0.2815  0.5890 -0.8485
 3653SOL    HW314385   5.101   6.070   5.027  1.3104 -0.4375 -0.2571
 3653SOL    MW414386   5.071   6.062   4.945 -0.4242 -0.2453 -0.3783
 3654SOL     OW14387   4.861   2.807   5.931 -0.1074 -0.6323 -0.6743
 3654SOL    HW214388   4.885   2.798   6.023  0.9606 -0.8696 -0.9649
 3654SOL    HW314389   4.779   2.759   5.922  0.3372 -1.5143 -0.0755
 3654SOL    MW414390   4.853   2.800   5.942  0.4252 -0.3694  0.1805
 3655SOL     OW14391   0.842   6.372   4.404  0.0021 -0.4483 -0.9996
 3655SOL    HW214392   0.841   6.313   4.480  0.1410  1.9452  0.9739
 3655SOL    HW314393   0.763   6.348   4.355 -2.2594  0.3466  1.9502
 3655SOL    MW414394   0.831   6.361   4.408  0.0515  0.2069 -0.2424
 3656SOL     OW14395   2.741   1.509   5.522  0.1733  0.2118 -0.8059
 3656SOL    HW214396   2.718   1.591   5.566 -1.3889  0.3942 -1.8830
 3656SOL    HW314397   2.773   1.452   5.592 -3.1405  0.1426  0.8346
 3656SOL    MW414398   2.742   1.512   5.537 -0.2343 -0.1263 -0.2175
 3657SOL     OW14399   4.562   2.372   6.099 -0.0534 -0.3546 -0.0678
 3657SOL    HW214400   4.515   2.418   6.168 -0.3992 -0.3279 -0.3184
 3657SOL    HW314401   4.495   2.320   6.055 -0.3212  1.4067 -1.8699
 3657SOL    MW414402   4.547   2.371   6.102  0.5291 -0.4055  0.3204
 3658SOL     OW14403   2.941   5.428   3.666 -0.4280  0.3561 -0.0883
 3658SOL    HW214404   2.934   5.482   3.587  0.6251 -1.0695 -1.2025
 3658SOL    HW314405   3.035   5.416   3.679 -0.4991  1.7139  2.2382
 3658SOL    MW414406   2.952   5.434   3.657  0.3499 -0.1906  0.4350
 3659SOL     OW14407   1.677   6.065   3.132  0.2647 -0.2634 -0.5322
 3659SOL    HW214408   1.610   6.035   3.193 -1.6524  1.5211 -1.6269
 3659SOL    HW314409   1.628   6.110   3.063  2.6368  1.6390 -1.1136
 3659SOL    MW414410   1.661   6.067   3.131  0.5983  0.6248 -0.3039
 3660SOL     OW14411   5.404   4.398   3.229  0.7370  0.0778  0.0186
 3660SOL    HW214412   5.479   4.346   3.259  0.3760 -0.4512  0.0134
 3660SOL    HW314413   5.362   4.345   3.162  0.2560  0.2913  0.1414
 3660SOL    MW414414   5.408   4.385   3.224  0.4439 -0.0717  0.3381
 3661SOL     OW14415   4.414   2.150   3.228  0.7961 -0.0449  0.3355
 3661SOL    HW214416   4.479   2.216   3.251  2.5451 -1.8329  0.7649
 3661SOL    HW314417   4.404   2.097   3.307 -1.3053  0.2372  0.3097
 3661SOL    MW414418   4.421   2.151   3.241  0.3670  0.4162 -0.4319
 3662SOL     OW14419   5.291   3.120   4.351 -0.0788 -0.2416  0.6975
 3662SOL    HW214420   5.244   3.107   4.268  0.5032  0.9169  0.1533
 3662SOL    HW314421   5.382   3.137   4.324 -0.0919  1.2825  1.4670
 3662SOL    MW414422   5.297   3.121   4.336 -0.0716  0.4497  0.2503
 3663SOL     OW14423   2.858   5.868   5.162 -0.0933  0.3807  0.2788
 3663SOL    HW214424   2.827   5.951   5.126  0.1640  0.2771 -0.1929
 3663SOL    HW314425   2.916   5.833   5.094 -1.0846 -0.7301 -0.0142
 3663SOL    MW414426   2.862   5.875   5.148  0.0626 -0.0335  0.3037
 3664SOL     OW14427   1.248   4.963   4.462  0.4803  0.2278  0.5277
 3664SOL    HW214428   1.157   4.934   4.468  0.7571 -0.5568  1.0988
 3664SOL    HW314429   1.264   4.973   4.368  0.0997 -0.6210  0.3614
 3664SOL    MW414430   1.238   4.960   4.450 -0.2403 -0.6222  0.5381
 3665SOL     OW14431   4.487   0.040   5.626 -0.2740  0.0663  0.3526
 3665SOL    HW214432   4.578   0.011   5.625 -0.5868 -1.2270 -2.5180
 3665SOL    HW314433   4.490   0.128   5.587 -0.1209  0.6814  1.7229
 3665SOL    MW414434   4.499   0.048   5.620  0.2806 -0.2955  0.1664
 3666SOL     OW14435   1.419   3.299   3.769  0.1511  0.2827 -0.2034
 3666SOL    HW214436   1.376   3.337   3.845 -0.1568  0.0655 -0.2693
 3666SOL    HW314437   1.393   3.207   3.770 -0.3554  0.4128 -0.9259
 3666SOL    MW414438   1.410   3.292   3.779  0.3399 -0.2251 -0.1192
 3667SOL     OW14439   4.972   4.117   2.006 -0.1771 -0.1102 -0.5440
 3667SOL    HW214440   4.973   4.028   1.971 -0.3697  0.5256 -2.2799
 3667SOL    HW314441   4.888   4.124   2.051 -0.9801 -0.2925 -1.9369
 3667SOL    MW414442   4.961   4.106   2.007  0.0280  0.1503  0.2665
 3668SOL     OW14443   2.852   4.088   1.842 -0.1991 -0.0145 -0.0008
 3668SOL    HW214444   2.814   4.026   1.781 -0.1118 -0.2187  0.1530
 3668SOL    HW314445   2.785   4.156   1.852 -0.0194  0.2738 -0.6988
 3668SOL    MW414446   2.838   4.089   1.835 -0.0946 -0.3327  0.4212
 3669SOL     OW14447   2.337   1.549   0.841  0.0758  0.2384  0.0828
 3669SOL    HW214448   2.247   1.569   0.865  0.5352  1.6627  0.7460
 3669SOL    HW314449   2.332   1.467   0.792 -1.5758  0.3564  0.0217
 3669SOL    MW414450   2.325   1.541   0.838  0.2769 -0.4617 -0.6810
 3670SOL     OW14451   4.070   3.609   3.522 -0.2422  0.2758  0.0390
 3670SOL    HW214452   4.054   3.516   3.540 -0.9948  0.1878 -1.0224
 3670SOL    HW314453   4.120   3.609   3.441  1.0001  0.7625  0.7754
 3670SOL    MW414454   4.075   3.597   3.514 -0.1943  0.3965  0.2608
 3671SOL     OW14455   0.779   5.625   0.763 -0.2250 -0.0766 -0.2977
 3671SOL    HW214456   0.685   5.630   0.743  0.1236  0.3896 -1.9242
 3671SOL    HW314457   0.810   5.715   0.759 -0.2683  0.2828  3.5803
 3671SOL    MW414458   0.770   5.637   0.760 -0.4683 -0.2272 -0.4501
 3672SOL     OW14459   0.066   6.212   0.123  0.3147  0.7820 -0.0013
 3672SOL    HW214460   0.106   6.151   0.185 -0.3484  0.3885  0.0629
 3672SOL    HW314461   0.087   6.176   0.037  0.2009  0.6352  0.0305
 3672SOL    MW414462   0.074   6.199   0.120  0.4461  1.1232 -0.3509
 3673SOL     OW14463   5.182   4.051   2.613 -0.0426  0.1059  0.2850
 3673SOL    HW214464   5.122   4.004   2.671 -0.4786  0.2225 -0.0698
 3673SOL    HW314465   5.269   4.023   2.641 -0.2842 -0.6304  0.3155
 3673SOL    MW414466   5.186   4.041   2.625 -0.3554  0.0019  0.0580
 3674SOL     OW14467   2.322   0.486   1.059  0.2127 -0.1448  0.3175
 3674SOL    HW214468   2.358   0.450   0.978  1.6835  0.3818  0.6963
 3674SOL    HW314469   2.389   0.469   1.124 -0.6325  0.0934  1.2758
 3674SOL    MW414470   2.336   0.479   1.057 -0.1004  0.2645 -0.1495
 3675SOL     OW14471   2.602   4.572   0.265 -0.4274 -0.1055 -0.0616
 3675SOL    HW214472   2.670   4.514   0.300  1.5358  1.0653 -1.6509
 3675SOL    HW314473   2.546   4.593   0.340  1.9318  0.1338  1.7580
 3675SOL    MW414474   2.604   4.567   0.280  0.5806  0.3474  0.2064
 3676SOL     OW14475   1.615   2.918   5.666  0.2135  0.3867  0.2811
 3676SOL    HW214476   1.704   2.891   5.690  0.1762  1.1094  1.3285
 3676SOL    HW314477   1.600   2.879   5.580  0.7881 -1.4401  0.9745
 3676SOL    MW414478   1.625   2.910   5.658 -0.0463 -0.2916 -0.4375
 3677SOL     OW14479   1.554   4.412   5.261 -0.1696  0.4904  0.2173
 3677SOL    HW214480   1.514   4.496   5.236  0.4441  0.4760 -0.9101
 3677SOL    HW314481   1.631   4.436   5.312  1.0383  0.7331 -1.6166
 3677SOL    MW414482   1.559   4.426   5.264  0.1714  0.2630  0.0669
 3678SOL     OW14483   5.790   1.311   2.483 -0.0721 -0.0369 -0.0015
 3678SOL    HW214484   5.765   1.219   2.474  0.0856  0.0621 -1.7407
 3678SOL    HW314485   5.833   1.333   2.400  0.1722  1.5262  0.5011
 3678SOL    MW414486   5.793   1.302   2.471 -0.5757 -0.1586  0.0039
 3679SOL     OW14487   3.577   2.413   3.960 -0.2595 -0.2952 -0.5134
 3679SOL    HW214488   3.636   2.434   3.888 -0.2125 -1.9425 -1.0065
 3679SOL    HW314489   3.546   2.324   3.940 -0.8312 -0.4946  1.1039
 3679SOL    MW414490   3.581   2.404   3.948 -0.2268  0.2107  0.5615
 3680SOL     OW14491   5.443   1.650   0.035 -0.1844  0.1538  0.4062
 3680SOL    HW214492   5.450   1.639  -0.060  0.4468  2.5393  0.1168
 3680SOL    HW314493   5.348   1.647   0.052 -0.2746 -0.8253 -0.2129
 3680SOL    MW414494   5.431   1.648   0.024 -0.2957  0.6679 -0.0970
 3681SOL     OW14495   3.486   4.061   5.762  0.2338  0.7753 -0.2528
 3681SOL    HW214496   3.550   4.128   5.737  1.4728 -0.8364 -1.6999
 3681SOL    HW314497   3.535   3.999   5.815 -0.7163  0.6381  0.4985
 3681SOL    MW414498   3.501   4.062   5.766 -0.1862 -0.5469  0.7353
 3682SOL     OW14499   3.844   6.196   6.223 -0.1769 -0.3085  0.1390
 3682SOL    HW214500   3.856   6.105   6.195 -0.2532 -0.9235  2.0097
 3682SOL    HW314501   3.806   6.239   6.146 -1.2677 -2.1192 -0.3951
 3682SOL    MW414502   3.841   6.190   6.209 -0.1394 -0.4378 -0.6921
 3683SOL     OW14503   4.010   3.082   0.981  0.2617 -0.3703  0.0988
 3683SOL    HW214504   4.063   3.049   1.053 -1.1499  0.3902  1.5660
 3683SOL    HW314505   3.922   3.046   0.997  0.3647 -1.9600 -2.4974
 3683SOL    MW414506   4.005   3.073   0.993  0.4266 -0.2826  0.0578
 3684SOL     OW14507   2.864   0.084   2.895  0.0388 -0.6043 -0.3587
 3684SOL    HW214508   2.958   0.096   2.885 -0.0834  1.1246  0.1384
 3684SOL    HW314509   2.831   0.073   2.806  0.3832  2.0137 -0.8886
 3684SOL    MW414510   2.872   0.084   2.882 -0.4811  0.2528 -0.9942
 3685SOL     OW14511   4.516   1.778   0.986 -0.2284  0.6083 -0.3406
 3685SOL    HW214512   4.518   1.731   1.069  1.0369 -0.5216 -0.9946
 3685SOL    HW314513   4.571   1.855   1.001  0.0115  0.3998 -0.1437
 3685SOL    MW414514   4.523   1.782   0.999  0.0300  0.5252  0.1595
 3686SOL     OW14515   0.544   0.934   2.802  0.3681 -0.1344 -0.2784
 3686SOL    HW214516   0.553   1.002   2.735  1.4941 -1.4124 -1.4906
 3686SOL    HW314517   0.632   0.899   2.813  0.1059 -0.3151  1.5342
 3686SOL    MW414518   0.557   0.938   2.794  0.1386  0.1706 -0.2106
 3687SOL     OW14519   2.878   2.122   4.621  0.6209  0.2024 -0.1090
 3687SOL    HW214520   2.869   2.136   4.527 -1.1711  1.3722  0.1963
 3687SOL    HW314521   2.946   2.184   4.647  1.1620 -0.1606 -0.6192
 3687SOL    MW414522   2.886   2.132   4.612  0.0176 -0.5688 -0.0616
 3688SOL     OW14523   5.795   4.028   5.014  0.8367  0.3666 -0.1762
 3688SOL    HW214524   5.858   3.956   5.017 -0.5148 -0.8743 -0.5602
 3688SOL    HW314525   5.773   4.045   5.105 -0.6025 -1.3689 -0.1433
 3688SOL    MW414526   5.800   4.021   5.026 -0.6119  0.2467 -0.1497
 3689SOL     OW14527   6.099   4.364   1.966  0.0019  0.0242 -0.1781
 3689SOL    HW214528   6.127   4.289   1.914 -0.9649  0.2957 -1.1185
 3689SOL    HW314529   6.181   4.406   1.994  0.5389 -0.8145 -0.4653
 3689SOL    MW414530   6.114   4.360   1.963 -0.4349 -0.4468  0.5072
 3690SOL     OW14531   4.357   3.176   3.927 -0.1307  0.4366 -0.2735
 3690SOL    HW214532   4.338   3.209   4.015 -1.7653  0.2640 -0.5422
 3690SOL    HW314533   4.421   3.238   3.892 -1.7872  2.3345 -0.1103
 3690SOL    MW414534   4.363   3.189   3.934  0.0716 -0.1589 -0.2714
 3691SOL     OW14535   2.943   4.024   6.253 -0.0499 -0.1540  0.5793
 3691SOL    HW214536   2.904   4.001   6.169 -0.7386  0.8635  0.5984
 3691SOL    HW314537   3.036   4.039   6.234 -0.4267  1.2635 -0.2540
 3691SOL    MW414538   2.950   4.023   6.240 -0.1537 -0.1498  0.3784
 3692SOL     OW14539   4.113   0.887   6.168 -0.4419  0.0939  0.1989
 3692SOL    HW214540   4.079   0.916   6.083  1.2582  0.8089 -0.2826
 3692SOL    HW314541   4.063   0.808   6.188 -1.1511  0.1286 -1.2842
 3692SOL    MW414542   4.102   0.880   6.159  0.8502  0.5885 -0.0896
 3693SOL     OW14543   1.246   0.669   0.279  0.0735 -0.1252  0.3386
 3693SOL    HW214544   1.179   0.605   0.253 -0.1485  0.1951  0.1023
 3693SOL    HW314545   1.328   0.621   0.277  0.0322 -0.1641 -0.7656
 3693SOL    MW414546   1.248   0.654   0.275 -0.2258 -0.2599 -0.4416
 3694SOL     OW14547   2.169   4.756   1.516 -0.4853  0.1714 -0.0050
 3694SOL    HW214548   2.125   4.841   1.519  0.3248  0.5994  0.0478
 3694SOL    HW314549   2.105   4.695   1.553 -1.8434  0.3933 -1.8217
 3694SOL    MW414550   2.154   4.759   1.521  0.0670  0.7392 -0.0743
 3695SOL     OW14551   2.911   4.914   1.568  0.0915  0.1372 -0.0166
 3695SOL    HW214552   2.959   4.989   1.605 -0.8358  0.2885  0.9227
 3695SOL    HW314553   2.819   4.935   1.583 -0.1895 -1.1630  0.2050
 3695SOL    MW414554   2.905   4.927   1.575 -0.2877  0.1678 -0.6495
 3696SOL     OW14555   3.165   4.653   5.221 -0.0658  1.0765 -0.8792
 3696SOL    HW214556   3.259   4.659   5.234  0.1250 -0.8215 -1.0873
 3696SOL    HW314557   3.154   4.651   5.126 -0.3697  1.9179 -0.8637
 3696SOL    MW414558   3.176   4.653   5.210  0.2853  0.3343  0.5510
 3697SOL     OW14559   1.452   1.073   4.401  0.0376  0.0983 -0.3773
 3697SOL    HW214560   1.427   1.000   4.458  0.8112 -0.7664 -1.1125
 3697SOL    HW314561   1.545   1.060   4.384  0.4330  1.8265  0.2694
 3697SOL    MW414562   1.461   1.062   4.406  0.6187  0.1367 -0.1097
 3698SOL     OW14563   0.803   1.998   2.931  0.0474  0.1982  0.1303
 3698SOL    HW214564   0.884   2.005   2.981 -0.5777  0.9142  1.0875
 3698SOL    HW314565   0.757   1.923   2.968  0.3051 -0.2476 -0.4554
 3698SOL    MW414566   0.807   1.989   2.943 -0.3360  0.6099 -0.0956
 3699SOL     OW14567   0.396   3.955   2.981  0.4974 -0.4449  0.0327
 3699SOL    HW214568   0.337   3.901   2.928  1.2953 -0.4484 -0.8819
 3699SOL    HW314569   0.413   4.032   2.927 -0.8489  0.8859  1.4477
 3699SOL    MW414570   0.391   3.958   2.967 -0.0442 -0.5230  0.5112
 3700SOL     OW14571   4.891   4.050   3.611  0.5355 -0.5829 -0.3473
 3700SOL    HW214572   4.903   3.968   3.564  1.6256 -0.3298 -0.5264
 3700SOL    HW314573   4.908   4.118   3.545  1.2114 -0.2199  0.1932
 3700SOL    MW414574   4.895   4.048   3.596  0.4964  0.1717 -0.2134
 3701SOL     OW14575   3.328   3.379   3.140 -0.1698 -0.6127  0.5971
 3701SOL    HW214576   3.362   3.374   3.229  0.0465 -0.2418  0.5384
 3701SOL    HW314577   3.387   3.440   3.095  1.4365 -2.9093 -0.5867
 3701SOL    MW414578   3.341   3.387   3.146 -0.4125  0.6864 -0.1160
 3702SOL     OW14579   6.163   1.302   5.620 -0.0465 -0.3606  0.1320
 3702SOL    HW214580   6.081   1.252   5.622  1.0301 -2.2053  1.1391
 3702SOL    HW314581   6.152   1.363   5.547 -2.3564 -0.4552  0.3250
 3702SOL    MW414582   6.151   1.303   5.611 -0.7384 -0.0158 -0.1774
 3703SOL     OW14583   0.117   4.487   1.187 -0.4907  0.0964 -0.5128
 3703SOL    HW214584   0.189   4.550   1.194 -0.0519 -0.4596  0.1837
 3703SOL    HW314585   0.152   4.407   1.228  0.2194 -1.7268 -4.2576
 3703SOL    MW414586   0.131   4.485   1.194  0.5644 -0.5581  0.3229
 3704SOL     OW14587   3.540   6.055   4.866  0.3499  0.6313 -0.3675
 3704SOL    HW214588   3.541   6.023   4.775 -0.7079 -0.5290  0.0188
 3704SOL    HW314589   3.619   6.110   4.872  1.0848 -0.2311 -1.6451
 3704SOL    MW414590   3.551   6.058   4.854 -0.0120  0.4981 -0.2097
 3705SOL     OW14591   3.649   5.649   5.279 -0.2420  0.5613 -0.0638
 3705SOL    HW214592   3.558   5.618   5.276 -0.7599  2.0610 -0.9326
 3705SOL    HW314593   3.651   5.722   5.218  1.8067 -0.0271 -0.7572
 3705SOL    MW414594   3.637   5.654   5.271 -0.6509  0.5334 -0.1433
 3706SOL     OW14595   4.178   3.531   2.297  0.2779  0.7172  0.3265
 3706SOL    HW214596   4.084   3.512   2.301  0.5169 -1.2346 -1.4488
 3706SOL    HW314597   4.183   3.618   2.258 -0.8087  0.6724  0.0440
 3706SOL    MW414598   4.166   3.540   2.292  0.4997  0.6415  0.1836
 3707SOL     OW14599   2.837   3.391   6.119 -0.0291  0.3371 -0.1235
 3707SOL    HW214600   2.912   3.447   6.100  0.6304 -0.4550  0.0859
 3707SOL    HW314601   2.810   3.358   6.034  1.3716 -1.2536  0.0113
 3707SOL    MW414602   2.843   3.394   6.105  0.0803  0.1399  0.0450
 3708SOL     OW14603   4.629   5.801   6.259  0.1534 -0.2681  0.2183
 3708SOL    HW214604   4.535   5.793   6.245  0.1420 -1.5919  0.9602
 3708SOL    HW314605   4.637   5.867   6.328 -0.0697  1.6865 -1.5131
 3708SOL    MW414606   4.618   5.809   6.266  0.2124 -0.0067 -0.3176
 3709SOL     OW14607   4.999   2.614   4.173  0.0632 -0.0188 -0.4331
 3709SOL    HW214608   4.922   2.666   4.197  0.1940 -0.2207  0.4695
 3709SOL    HW314609   5.022   2.643   4.085 -0.4375  0.7694 -0.3079
 3709SOL    MW414610   4.992   2.624   4.165 -0.0420  0.0681  0.2615
 3710SOL     OW14611   5.101   1.033   1.575  0.0162  0.2811  0.4010
 3710SOL    HW214612   5.182   0.981   1.573  0.7261  1.3443  0.6138
 3710SOL    HW314613   5.033   0.970   1.597  0.9153 -0.4898  1.0698
 3710SOL    MW414614   5.103   1.018   1.577 -0.2065 -0.3328 -0.3534
 3711SOL     OW14615   0.301   6.369   0.184 -0.0410 -0.0425 -0.1064
 3711SOL    HW214616   0.266   6.399   0.268  1.9096  0.6759  0.4956
 3711SOL    HW314617   0.231   6.314   0.148 -2.0576  1.8396  0.6864
 3711SOL    MW414618   0.287   6.366   0.190  0.2096  0.4746  0.3022
 3712SOL     OW14619   4.450   2.640   1.816 -0.1081  0.4894 -0.1360
 3712SOL    HW214620   4.449   2.594   1.900 -2.4045 -1.6057 -1.1805
 3712SOL    HW314621   4.524   2.601   1.769  0.5312  0.9194  0.4830
 3712SOL    MW414622   4.460   2.629   1.821 -0.0944 -0.3380 -0.3806
 3713SOL     OW14623   2.990   5.887   3.155 -0.7071  0.4094 -0.3109
 3713SOL    HW214624   3.005   5.801   3.194  0.1543  1.2169  1.2789
 3713SOL    HW314625   3.054   5.892   3.084 -0.0209  0.1296  0.2721
 3713SOL    MW414626   3.001   5.876   3.151 -0.7898 -0.4763  0.0451
 3714SOL     OW14627   0.718   2.818   6.150 -0.1836 -0.3097 -0.0701
 3714SOL    HW214628   0.806   2.794   6.120 -0.7653 -2.5177 -0.2102
 3714SOL    HW314629   0.678   2.735   6.175 -1.8376  0.7863  1.1211
 3714SOL    MW414630   0.724   2.804   6.149  0.5394  0.6192  0.0983
 3715SOL     OW14631   2.217   5.523   2.244 -0.2441 -0.3412  0.9910
 3715SOL    HW214632   2.260   5.471   2.176 -2.0620 -1.2029  0.4321
 3715SOL    HW314633   2.283   5.531   2.313  1.5758  0.3657 -0.7301
 3715SOL    MW414634   2.231   5.517   2.244 -0.0844  0.0523 -0.6502
 3716SOL     OW14635   1.004   0.178   2.060 -0.2080  0.0347  0.1323
 3716SOL    HW214636   0.986   0.101   2.006  0.4065 -0.6960  0.9389
 3716SOL    HW314637   0.965   0.158   2.145  2.1843 -0.5808  1.1914
 3716SOL    MW414638   0.997   0.165   2.064 -0.2294  0.3959  0.4202
 3717SOL     OW14639   5.987   4.603   1.755  0.2091  0.3370  0.1834
 3717SOL    HW214640   5.916   4.633   1.699 -0.9122 -0.9456  0.8812
 3717SOL    HW314641   6.000   4.511   1.732  1.9515  0.6461 -0.2281
 3717SOL    MW414642   5.980   4.595   1.745 -0.2708  0.1721 -0.4483
 3718SOL     OW14643   0.750   1.351   0.132  0.4251  0.5433  0.3604
 3718SOL    HW214644   0.809   1.363   0.058  1.5525  1.1004  1.3098
 3718SOL    HW314645   0.804   1.313   0.201 -0.3277  1.0248  1.2469
 3718SOL    MW414646   0.765   1.348   0.132  0.1906 -0.1265 -0.2516
 3719SOL     OW14647   3.197   5.477   4.685 -0.1127 -0.1592 -0.0059
 3719SOL    HW214648   3.215   5.458   4.778  1.4941  0.1206 -0.2325
 3719SOL    HW314649   3.268   5.433   4.638 -0.1000  0.8955 -0.9992
 3719SOL    MW414650   3.209   5.468   4.691 -0.3518  0.1459  0.6138
 3720SOL     OW14651   3.932   1.689   5.504 -0.1169 -0.4938 -0.4980
 3720SOL    HW214652   3.904   1.669   5.593  1.1795  0.3230  0.1253
 3720SOL    HW314653   3.892   1.773   5.484 -1.0563 -1.0412 -1.0195
 3720SOL    MW414654   3.923   1.697   5.513  0.3032  0.6274  0.0273
 3721SOL     OW14655   0.731   4.878   0.445  0.4873  0.1179  0.0076
 3721SOL    HW214656   0.676   4.955   0.426  1.1010  0.2805 -1.1847
 3721SOL    HW314657   0.820   4.913   0.452  0.8149 -0.5115 -0.8529
 3721SOL    MW414658   0.735   4.893   0.443  0.3810 -0.1557  0.5797
 3722SOL     OW14659   3.088   2.958   6.140 -1.0638 -0.0076 -0.1940
 3722SOL    HW214660   3.036   3.015   6.083  0.2214  2.3287  0.8479
 3722SOL    HW314661   3.024   2.918   6.199 -1.9111  1.3258 -0.1678
 3722SOL    MW414662   3.073   2.960   6.140  0.1912 -0.2484  0.1106
 3723SOL     OW14663   3.248   1.543   5.225 -0.0172 -0.3980 -0.5625
 3723SOL    HW214664   3.214   1.624   5.264  2.9778  0.4945  0.5020
 3723SOL    HW314665   3.202   1.473   5.272 -0.6472  0.6726  0.4878
 3723SOL    MW414666   3.237   1.544   5.236 -0.1722  0.2404  0.3111
 3724SOL     OW14667   5.695   0.886   2.858 -0.0005  0.3554 -0.1694
 3724SOL    HW214668   5.655   0.880   2.771 -1.0018 -1.1992  0.3636
 3724SOL    HW314669   5.623   0.871   2.919  0.7673  1.0339  0.9455
 3724SOL    MW414670   5.680   0.884   2.855 -0.6771 -0.2801  0.5020
 3725SOL     OW14671   1.221   0.633   4.230  0.1718 -0.2799 -0.0798
 3725SOL    HW214672   1.205   0.724   4.204  1.8237  0.7837  2.2833
 3725SOL    HW314673   1.133   0.593   4.232 -0.7328  1.6107  0.0228
 3725SOL    MW414674   1.207   0.640   4.227 -0.4978 -0.5773  0.4193
 3726SOL     OW14675   5.670   1.780   3.160 -0.2209  0.4328  0.2062
 3726SOL    HW214676   5.623   1.844   3.108 -2.3600 -0.9488  0.2916
 3726SOL    HW314677   5.696   1.827   3.239 -0.9113  1.4132 -0.1373
 3726SOL    MW414678   5.667   1.794   3.164 -0.5380  0.2384 -0.0429
 3727SOL     OW14679   1.175   0.766   3.182  0.0463 -0.9118  0.0957
 3727SOL    HW214680   1.252   0.718   3.151  1.9737  0.5593  2.2542
 3727SOL    HW314681   1.179   0.758   3.277  1.0086  4.0454  0.7062
 3727SOL    MW414682   1.185   0.758   3.190 -0.0213 -0.0012 -0.1035
 3728SOL     OW14683   4.911   0.541   4.156  0.3339  0.1491 -0.2458
 3728SOL    HW214684   4.961   0.478   4.104 -1.6778  0.1166 -2.2876
 3728SOL    HW314685   4.868   0.597   4.091 -0.7725  1.3494  1.4387
 3728SOL    MW414686   4.912   0.540   4.140 -0.0228  0.1261 -0.2395
 3729SOL     OW14687   4.808   2.144   3.636 -0.3171  0.0070 -0.3937
 3729SOL    HW214688   4.858   2.076   3.590 -1.2700  0.4535 -2.1668
 3729SOL    HW314689   4.815   2.120   3.728  1.2169 -1.2358 -0.7871
 3729SOL    MW414690   4.816   2.132   3.642  0.3044  0.0212 -0.0119
 3730SOL     OW14691   2.105   4.474   4.402 -0.0790 -0.6028 -0.0199
 3730SOL    HW214692   2.137   4.430   4.324  1.6011 -0.6971  0.6825
 3730SOL    HW314693   2.031   4.420   4.431 -0.5445 -0.7197 -1.3637
 3730SOL    MW414694   2.100   4.461   4.396  0.4142  0.6096 -0.2123
 3731SOL     OW14695   1.126   4.389   0.451  0.4093  0.1414 -0.2155
 3731SOL    HW214696   1.148   4.302   0.482  0.8699  0.8608  1.6080
 3731SOL    HW314697   1.142   4.446   0.526 -1.6094  1.5741 -0.7742
 3731SOL    MW414698   1.131   4.385   0.465 -0.1811  0.1992  0.2205
 3732SOL     OW14699   6.073   5.450   2.781 -0.4668  0.3239 -0.1549
 3732SOL    HW214700   6.067   5.513   2.709 -1.2294 -0.1289 -0.4938
 3732SOL    HW314701   6.105   5.501   2.855 -0.6037  1.0000 -0.5584
 3732SOL    MW414702   6.076   5.465   2.781  0.8868 -0.3925 -0.0995
 3733SOL     OW14703   4.418   1.802   0.647  0.2098  0.6338  0.6096
 3733SOL    HW214704   4.459   1.716   0.660 -1.0141 -0.4326 -1.9455
 3733SOL    HW314705   4.327   1.782   0.627 -0.3799  2.6407  1.0998
 3733SOL    MW414706   4.412   1.788   0.646  0.1896 -0.4286  0.0694
 3734SOL     OW14707   0.720   2.750   4.632 -0.0343  0.1835  0.5263
 3734SOL    HW214708   0.666   2.674   4.610  1.0279 -0.7696  1.0920
 3734SOL    HW314709   0.805   2.732   4.590 -0.1025  1.6047 -0.2807
 3734SOL    MW414710   0.724   2.738   4.624  0.2541 -0.4626  0.4490
 3735SOL     OW14711   5.777   0.822   0.495 -0.0636 -0.1626 -0.3379
 3735SOL    HW214712   5.694   0.842   0.539  0.1181 -0.7216  0.2834
 3735SOL    HW314713   5.775   0.873   0.414 -1.3626 -0.7815 -0.7102
 3735SOL    MW414714   5.766   0.831   0.490 -0.4803  0.1443 -0.4348
 3736SOL     OW14715   2.492   1.549   5.054 -0.8303  0.4696  0.4520
 3736SOL    HW214716   2.581   1.540   5.020 -0.0965  1.5989  1.9241
 3736SOL    HW314717   2.475   1.467   5.100 -0.8673 -0.0722 -0.5275
 3736SOL    MW414718   2.502   1.537   5.056 -0.4143 -0.5290  0.0159
 3737SOL     OW14719   2.053   1.469   2.343 -0.3577  0.4732 -1.0624
 3737SOL    HW214720   2.074   1.410   2.416 -0.8156  2.4181  0.7609
 3737SOL    HW314721   2.048   1.412   2.267 -0.3972 -1.7722  0.5048
 3737SOL    MW414722   2.055   1.454   2.343 -0.7807  0.2071  0.0302
 3738SOL     OW14723   1.985   2.706   4.193  0.6529  0.2475  0.5859
 3738SOL    HW214724   2.080   2.697   4.202  0.9468  0.9536 -1.3487
 3738SOL    HW314725   1.971   2.799   4.177 -0.3208  0.0917  0.4825
 3738SOL    MW414726   1.995   2.717   4.192  0.3321 -0.0125 -0.7636
 3739SOL     OW14727   1.586   2.719   6.297  0.3677  0.2361  0.4798
 3739SOL    HW214728   1.502   2.677   6.317  0.9307 -1.1841 -0.0441
 3739SOL    HW314729   1.643   2.647   6.271  1.4703  1.3068 -0.1242
 3739SOL    MW414730   1.583   2.704   6.296 -0.5082 -0.0894 -0.0340
 3740SOL     OW14731   2.345   2.261   5.272 -1.0244  0.0037 -0.5144
 3740SOL    HW214732   2.435   2.252   5.239 -2.0015 -1.1578 -3.0989
 3740SOL    HW314733   2.332   2.356   5.280  0.9813  0.1981  1.8105
 3740SOL    MW414734   2.355   2.272   5.269 -0.0772  0.1776 -0.1033
 3741SOL     OW14735   4.540   4.252   1.207 -0.2129  0.2245 -0.0110
 3741SOL    HW214736   4.484   4.233   1.282 -0.2791  2.1559  0.4859
 3741SOL    HW314737   4.514   4.187   1.141 -1.5671 -0.2312  0.9236
 3741SOL    MW414738   4.529   4.241   1.208 -0.3517  0.3314  0.6723
 3742SOL     OW14739   3.260   6.119   3.771  0.4957  0.1257  0.3946
 3742SOL    HW214740   3.245   6.048   3.709  1.2358  2.7312 -3.1619
 3742SOL    HW314741   3.354   6.114   3.791  0.6103  0.2471 -0.0999
 3742SOL    MW414742   3.271   6.109   3.765  0.0173 -0.2424  0.0892
 3743SOL     OW14743   6.261   3.081   2.025  0.0871  0.2437  0.1177
 3743SOL    HW214744   6.208   3.149   1.984 -1.6440 -1.5320 -0.7254
 3743SOL    HW314745   6.243   3.090   2.119 -0.3900  0.7369 -0.0150
 3743SOL    MW414746   6.252   3.091   2.032  0.1800 -0.3154  0.3733
 3744SOL     OW14747   5.792   1.508   4.823 -0.5858 -0.7831 -0.1185
 3744SOL    HW214748   5.839   1.449   4.881 -1.4141 -0.2324  1.1581
 3744SOL    HW314749   5.785   1.590   4.872 -0.9307 -0.1538 -1.1730
 3744SOL    MW414750   5.798   1.511   4.837 -0.1618  0.0229  0.5294
 3745SOL     OW14751   0.126   3.271   2.913 -0.1870  0.1957  0.0096
 3745SOL    HW214752   0.091   3.346   2.961 -0.8144  0.3482 -0.6558
 3745SOL    HW314753   0.049   3.226   2.878  0.2270 -0.1263 -0.5204
 3745SOL    MW414754   0.111   3.275   2.914 -0.2063 -0.1830 -0.4936
 3746SOL     OW14755   4.209   2.907   3.419  0.2462 -0.2819 -0.2026
 3746SOL    HW214756   4.230   2.816   3.440 -0.7409 -0.6190 -0.6159
 3746SOL    HW314757   4.147   2.934   3.486  0.1279 -0.0760 -0.3939
 3746SOL    MW414758   4.204   2.899   3.431 -0.0013  0.1007 -0.5525
 3747SOL     OW14759   3.493   2.857   4.986 -0.6190 -0.2243  0.3009
 3747SOL    HW214760   3.478   2.765   5.008  1.9807 -0.1514  3.1407
 3747SOL    HW314761   3.425   2.905   5.033  0.4331 -0.5660  2.3020
 3747SOL    MW414762   3.482   2.852   4.995  0.0339  0.4984  0.0740
 3748SOL     OW14763   0.431   3.223   3.994 -0.1367 -0.3943 -0.0088
 3748SOL    HW214764   0.487   3.227   3.916  1.0468  0.7919  0.8478
 3748SOL    HW314765   0.422   3.130   4.013  0.6197 -0.6455 -0.8306
 3748SOL    MW414766   0.437   3.211   3.986  0.3748 -0.2537  0.0546
 3749SOL     OW14767   2.965   3.132   2.583  0.0505  0.2091 -0.0496
 3749SOL    HW214768   2.976   3.112   2.676 -0.9561  0.9981  0.2582
 3749SOL    HW314769   3.053   3.156   2.553  0.6242 -1.2517  0.3771
 3749SOL    MW414770   2.978   3.133   2.592  0.1683 -0.2332 -0.5169
 3750SOL     OW14771   1.270   4.831   0.063 -0.1641 -0.0507  0.8842
 3750SOL    HW214772   1.253   4.908   0.116  0.3344  0.5159  0.2326
 3750SOL    HW314773   1.205   4.767   0.091 -1.0373  0.8495  0.9295
 3750SOL    MW414774   1.259   4.832   0.074  0.1654  0.6510 -0.3913
 3751SOL     OW14775   5.642   0.765   5.714  0.6131  0.0541 -0.0688
 3751SOL    HW214776   5.652   0.674   5.687  0.4134 -0.1750  0.5978
 3751SOL    HW314777   5.612   0.811   5.635  3.1505  0.0557 -1.1065
 3751SOL    MW414778   5.639   0.759   5.700  0.1812  0.0668  0.6379
 3752SOL     OW14779   1.348   3.930   3.752 -0.0175 -0.5702 -0.1704
 3752SOL    HW214780   1.323   3.980   3.829 -0.8102 -1.4720  0.1711
 3752SOL    HW314781   1.360   3.996   3.683  1.4053  0.3241  0.8676
 3752SOL    MW414782   1.346   3.946   3.753 -0.2504  0.1435  0.0403
 3753SOL     OW14783   4.546   0.564   0.012 -0.6033  0.0367  0.0645
 3753SOL    HW214784   4.454   0.591   0.021  0.0893  2.0900  2.0584
 3753SOL    HW314785   4.582   0.623  -0.055 -0.6461 -0.5823 -0.5162
 3753SOL    MW414786   4.539   0.576   0.004  0.2590  0.0673  0.1276
 3754SOL     OW14787   4.170   0.601   3.683 -0.3679  0.3329  0.0646
 3754SOL    HW214788   4.178   0.507   3.692  0.2206  0.4230  0.5352
 3754SOL    HW314789   4.235   0.637   3.743  0.1903  1.0220 -0.9124
 3754SOL    MW414790   4.180   0.594   3.692 -0.5020  0.3143  0.6293
 3755SOL     OW14791   0.109   4.973   0.561  0.2837  0.3858 -0.6472
 3755SOL    HW214792   0.106   4.878   0.557 -3.0187  0.0175  3.2352
 3755SOL    HW314793   0.188   4.993   0.612 -0.6228 -0.6581  1.2759
 3755SOL    MW414794   0.119   4.963   0.567 -0.1003 -0.1768 -0.4358
 3756SOL     OW14795   4.553   4.366   0.037  0.3755  0.0024  0.4605
 3756SOL    HW214796   4.561   4.425  -0.038 -0.3383  0.1463  0.4992
 3756SOL    HW314797   4.460   4.364   0.057  0.5817  0.1723  1.5131
 3756SOL    MW414798   4.542   4.374   0.030  0.3709 -0.0515  0.0768
 3757SOL     OW14799   5.736   5.739   4.351 -0.3428 -0.4866  0.2275
 3757SOL    HW214800   5.667   5.677   4.372 -1.1971  0.7940  1.3707
 3757SOL    HW314801   5.693   5.825   4.353  1.2482  0.3369  0.8465
 3757SOL    MW414802   5.721   5.742   4.354 -0.0139 -0.3292 -0.8162
 3758SOL     OW14803   3.108   2.316   0.737  0.9898  0.7022  0.4230
 3758SOL    HW214804   3.032   2.258   0.745  1.1770  0.4040  0.0773
 3758SOL    HW314805   3.071   2.403   0.723  0.7139  0.5603  0.2823
 3758SOL    MW414806   3.093   2.320   0.736  0.4521  0.0847  0.3004
 3759SOL     OW14807   4.323   5.771   3.830  0.2670 -0.2221  0.6874
 3759SOL    HW214808   4.258   5.842   3.828  0.1540 -0.3300  0.5744
 3759SOL    HW314809   4.275   5.696   3.864  0.4764 -0.1544  1.1352
 3759SOL    MW414810   4.308   5.771   3.834  0.6895 -0.7231  0.3814
 3760SOL     OW14811   4.474   4.442   1.546  0.0640 -0.3563  0.1927
 3760SOL    HW214812   4.541   4.416   1.609 -0.0029  0.0990  0.4561
 3760SOL    HW314813   4.508   4.523   1.507 -0.4825  0.0697  0.5786
 3760SOL    MW414814   4.487   4.450   1.549 -0.2483 -0.3330 -0.1767
 3761SOL     OW14815   5.934   3.340   5.330 -0.3951  0.0943  0.1738
 3761SOL    HW214816   5.906   3.413   5.275 -1.5104  0.8727  1.6992
 3761SOL    HW314817   6.022   3.319   5.299  0.4896  2.9474  0.5035
 3761SOL    MW414818   5.942   3.347   5.319 -0.2778  0.5213  0.1127
 3762SOL     OW14819   1.832   6.031   5.501  0.5553 -0.2812  0.2429
 3762SOL    HW214820   1.892   6.105   5.510  0.3801 -0.0115 -0.6782
 3762SOL    HW314821   1.852   5.995   5.415 -0.8533  0.0609 -0.2594
 3762SOL    MW414822   1.843   6.036   5.491  0.0904  0.2001  0.3807
 3763SOL     OW14823   3.435   5.608   2.126  0.2778 -0.4103  0.3253
 3763SOL    HW214824   3.505   5.617   2.191 -0.7486 -1.2433  1.6121
 3763SOL    HW314825   3.467   5.654   2.049  1.0496  1.7956  1.8406
 3763SOL    MW414826   3.448   5.615   2.125 -0.2964  0.0546  0.2799
 3764SOL     OW14827   4.199   2.549   1.360 -0.3308 -0.2137 -0.4681
 3764SOL    HW214828   4.287   2.585   1.371 -0.2522 -0.3084 -0.7842
 3764SOL    HW314829   4.167   2.536   1.449  0.3789 -1.1609 -0.3271
 3764SOL    MW414830   4.206   2.552   1.373  0.2940 -0.1770  0.8077
 3765SOL     OW14831   1.846   2.207   3.466  0.3945  0.2255 -0.1360
 3765SOL    HW214832   1.768   2.195   3.520 -0.3028  0.0221 -1.1628
 3765SOL    HW314833   1.813   2.236   3.382  1.3850 -0.4653 -0.7908
 3765SOL    MW414834   1.832   2.209   3.462 -0.0099 -0.0219 -0.1884
 3766SOL     OW14835   5.489   5.093   6.107 -0.2420 -0.8830  0.3646
 3766SOL    HW214836   5.485   5.079   6.202  0.0181 -1.6755  0.2651
 3766SOL    HW314837   5.583   5.092   6.087 -0.1479  1.4175  0.3841
 3766SOL    MW414838   5.501   5.091   6.117  0.5899  1.0359  0.0017
 3767SOL     OW14839   5.042   1.412   2.769  0.8459  0.1166  0.4257
 3767SOL    HW214840   5.025   1.397   2.862 -0.4034  0.7127  0.3199
 3767SOL    HW314841   5.011   1.502   2.754 -0.0216 -0.3692 -0.7932
 3767SOL    MW414842   5.036   1.422   2.779  0.6804 -0.2131  0.3240
 3768SOL     OW14843   2.103   3.166   2.022 -0.0629  0.0996  0.1837
 3768SOL    HW214844   2.072   3.108   2.092 -1.1364  0.5837  0.1394
 3768SOL    HW314845   2.036   3.234   2.017 -0.1299 -0.0478 -1.4704
 3768SOL    MW414846   2.090   3.167   2.031  0.2606  0.3556 -0.0388
 3769SOL     OW14847   2.905   2.144   2.127  0.2098  0.1758  0.0579
 3769SOL    HW214848   2.845   2.078   2.090  2.1471 -1.1961 -0.8102
 3769SOL    HW314849   2.869   2.228   2.098 -1.9933 -0.4792  0.6634
 3769SOL    MW414850   2.892   2.146   2.118  0.2350  0.0266  0.1112
 3770SOL     OW14851   5.253   3.327   2.364 -0.5220  0.1239  0.1896
 3770SOL    HW214852   5.240   3.369   2.279  0.8884  0.2839  0.0266
 3770SOL    HW314853   5.266   3.400   2.425  1.2160 -0.0014  0.0301
 3770SOL    MW414854   5.253   3.343   2.361 -0.7293  0.0393  0.5736
 3771SOL     OW14855   0.408   6.197   2.478  0.0833  0.1916 -0.1307
 3771SOL    HW214856   0.424   6.170   2.568 -2.1812  0.1222  0.3218
 3771SOL    HW314857   0.418   6.292   2.480  2.6526 -0.0006 -0.4765
 3771SOL    MW414858   0.411   6.206   2.490 -0.4599  0.2778 -0.3053
 3772SOL     OW14859   4.460   2.199   0.432  0.1662 -0.4090 -0.3347
 3772SOL    HW214860   4.546   2.159   0.428 -0.9457 -2.9355 -1.7168
 3772SOL    HW314861   4.418   2.159   0.508 -0.3190 -0.4341 -0.6089
 3772SOL    MW414862   4.465   2.188   0.442 -0.3522  0.4815 -0.8123
 3773SOL     OW14863   0.052   0.950   1.525  0.0941 -0.5236 -0.1412
 3773SOL    HW214864   0.063   1.038   1.563 -1.6966 -0.7561  1.0784
 3773SOL    HW314865   0.100   0.953   1.443  0.4915  1.4493  0.1123
 3773SOL    MW414866   0.059   0.962   1.519  0.4630  0.1118 -0.1090
 3774SOL     OW14867   3.678   0.999   5.769 -0.3986  0.3174  0.5138
 3774SOL    HW214868   3.703   1.073   5.824  0.5989 -1.4307  2.5718
 3774SOL    HW314869   3.732   0.926   5.801 -0.3142 -1.0096 -2.3248
 3774SOL    MW414870   3.688   0.999   5.781 -0.1807 -0.0056 -0.3270
 3775SOL     OW14871   3.227   5.919   4.897  0.3647  0.2497 -0.2474
 3775SOL    HW214872   3.269   5.851   4.844  0.3399  1.0065 -1.2601
 3775SOL    HW314873   3.152   5.875   4.936  0.5854 -0.4178 -0.5478
 3775SOL    MW414874   3.223   5.904   4.895  0.2832 -0.0625 -0.3635
 3776SOL     OW14875   6.044   2.104   3.659 -0.1214 -0.0403 -0.9060
 3776SOL    HW214876   5.973   2.169   3.659 -0.5262 -0.4237  0.6252
 3776SOL    HW314877   6.101   2.129   3.587 -1.4017  0.7521 -1.6731
 3776SOL    MW414878   6.042   2.116   3.650 -0.0029  0.5744  0.3000
 3777SOL     OW14879   3.881   0.537   3.987 -0.1673 -0.4854 -0.1722
 3777SOL    HW214880   3.956   0.556   4.043  0.4295  0.6412 -1.2959
 3777SOL    HW314881   3.831   0.472   4.035  1.3785 -1.0508  0.7493
 3777SOL    MW414882   3.884   0.531   4.000 -0.0887  0.0446  0.5157
 3778SOL     OW14883   0.179   2.992   1.173 -0.1976 -0.0471  0.2782
 3778SOL    HW214884   0.179   3.077   1.219  1.7293  1.1204 -1.6622
 3778SOL    HW314885   0.131   3.009   1.092 -2.5127 -1.7494  1.1999
 3778SOL    MW414886   0.173   3.006   1.168  0.2511  0.0153 -0.0659
 3779SOL     OW14887   2.379   1.736   0.114 -0.3910 -0.0146 -0.5198
 3779SOL    HW214888   2.379   1.823   0.074 -0.7692  0.3725  0.3019
 3779SOL    HW314889   2.396   1.676   0.041  0.5058  0.7853 -0.9966
 3779SOL    MW414890   2.382   1.739   0.099 -0.5200  0.0098  0.1402
 3780SOL     OW14891   3.121   1.632   4.034  0.6880  0.3389 -0.3600
 3780SOL    HW214892   3.090   1.564   3.975 -1.4537 -0.5580  1.6627
 3780SOL    HW314893   3.154   1.701   3.976  0.1788 -1.1479 -2.5246
 3780SOL    MW414894   3.122   1.632   4.018  0.5912  0.2886 -0.1767
 3781SOL     OW14895   2.060   0.935   5.136  0.5244  0.1107 -0.2499
 3781SOL    HW214896   2.012   0.852   5.127  0.0903  0.4080 -0.7782
 3781SOL    HW314897   2.151   0.912   5.117  0.2904 -0.1136 -1.1941
 3781SOL    MW414898   2.066   0.921   5.132 -0.4902 -0.1193  0.2090
 3782SOL     OW14899   0.863   5.202   0.917  0.0742  0.0066 -0.4535
 3782SOL    HW214900   0.947   5.237   0.945 -0.0536  0.6715 -0.8852
 3782SOL    HW314901   0.877   5.171   0.828 -0.0622 -0.1547 -0.4206
 3782SOL    MW414902   0.876   5.203   0.909  0.1335 -0.3076 -0.2462
 3783SOL     OW14903   0.170   5.848   4.343  0.1258  0.7827 -0.1127
 3783SOL    HW214904   0.195   5.758   4.365  1.4019  0.6019 -2.0963
 3783SOL    HW314905   0.083   5.858   4.382  0.0743 -1.1983  0.4091
 3783SOL    MW414906   0.162   5.837   4.351 -0.2405  0.0034 -0.3769
 3784SOL     OW14907   4.487   5.687   0.443  0.5881 -0.3741 -0.2525
 3784SOL    HW214908   4.499   5.593   0.431  2.2931 -0.0208 -1.8641
 3784SOL    HW314909   4.400   5.705   0.408 -0.2003 -1.4714  1.0553
 3784SOL    MW414910   4.477   5.677   0.437 -0.3306 -0.5900 -0.3883
 3785SOL     OW14911   2.570   0.596   5.596 -0.4818  0.7741 -0.1838
 3785SOL    HW214912   2.574   0.652   5.519 -0.7787  1.0941  0.0311
 3785SOL    HW314913   2.485   0.554   5.592 -0.8217  1.3740  0.3614
 3785SOL    MW414914   2.560   0.598   5.586 -0.6852 -1.0210 -0.4620
 3786SOL     OW14915   6.222   3.118   0.128 -0.2922  0.1314 -0.4840
 3786SOL    HW214916   6.264   3.120   0.042 -0.0604  1.9575 -0.3771
 3786SOL    HW314917   6.143   3.066   0.115  0.6225 -1.0885 -1.3543
 3786SOL    MW414918   6.217   3.112   0.114  0.6258 -0.0311 -0.0264
 3787SOL     OW14919   2.601   4.489   4.888  0.3920 -0.5980 -0.1868
 3787SOL    HW214920   2.650   4.415   4.852  1.7458  0.1992 -0.0185
 3787SOL    HW314921   2.570   4.459   4.973 -3.3239 -2.7290 -2.0119
 3787SOL    MW414922   2.603   4.475   4.894  0.0086 -0.0531 -0.3363
 3788SOL     OW14923   1.716   5.372   2.715 -0.8707 -0.4736 -0.1115
 3788SOL    HW214924   1.626   5.360   2.687 -0.3492 -0.8128 -1.7726
 3788SOL    HW314925   1.766   5.375   2.634  0.2713  3.0881  0.5778
 3788SOL    MW414926   1.711   5.371   2.701  0.1425  0.5869 -0.3747
 3789SOL     OW14927   5.455   4.220   2.551 -0.5571 -0.7704  0.3087
 3789SOL    HW214928   5.393   4.175   2.494 -1.7257 -1.3587  1.9581
 3789SOL    HW314929   5.408   4.298   2.581  0.7841  0.6426 -1.0750
 3789SOL    MW414930   5.441   4.225   2.547 -0.7506 -0.2293  0.1313
 3790SOL     OW14931   0.710   4.528   2.709  0.9835  0.2127 -0.3840
 3790SOL    HW214932   0.733   4.541   2.616  2.3050  0.6995 -0.0156
 3790SOL    HW314933   0.709   4.617   2.745 -0.2230  0.0816 -0.0752
 3790SOL    MW414934   0.713   4.542   2.701 -0.2289 -0.4761 -0.4587
 3791SOL     OW14935   5.202   2.564   0.982 -0.0122 -0.5121  0.2914
 3791SOL    HW214936   5.266   2.500   0.952 -0.4652 -1.2044  0.7742
 3791SOL    HW314937   5.245   2.649   0.971  0.0066 -0.7485 -1.8793
 3791SOL    MW414938   5.216   2.567   0.976  0.5377  0.1650 -0.0233
 3792SOL     OW14939   3.601   4.201   2.915  0.1812  0.1009 -0.8355
 3792SOL    HW214940   3.597   4.273   2.852 -1.4209  0.2117 -0.6490
 3792SOL    HW314941   3.520   4.152   2.900 -1.3514  1.3107  2.4949
 3792SOL    MW414942   3.590   4.204   2.905 -0.5504  0.5786  0.8233
 3793SOL     OW14943   4.734   5.400   0.951 -0.1813 -0.1138  0.1121
 3793SOL    HW214944   4.648   5.359   0.959  1.1500 -3.4752 -1.3607
 3793SOL    HW314945   4.731   5.448   0.869 -0.9332  0.6285  0.5622
 3793SOL    MW414946   4.722   5.401   0.942  0.0757 -0.2577  0.3349
 3794SOL     OW14947   3.956   6.192   1.972 -0.2073 -0.2599  0.3811
 3794SOL    HW214948   4.013   6.266   1.997 -0.2580  0.0987 -0.5465
 3794SOL    HW314949   3.898   6.181   2.047 -0.6305  1.0718  0.2678
 3794SOL    MW414950   3.956   6.200   1.985  0.0646 -0.4547  0.5002
 3795SOL     OW14951   3.811   3.161   4.746 -0.5874 -0.4472  0.2277
 3795SOL    HW214952   3.798   3.081   4.797 -0.0211 -1.7071 -1.4909
 3795SOL    HW314953   3.724   3.186   4.717 -0.7252 -0.6822  0.4377
 3795SOL    MW414954   3.798   3.153   4.749 -0.9503  0.6142 -0.7014
 3796SOL     OW14955   3.015   0.736   2.772  0.5631 -0.2016  0.6741
 3796SOL    HW214956   3.021   0.822   2.813 -1.7265  0.2684  0.1811
 3796SOL    HW314957   2.931   0.700   2.802  0.5649 -1.4263 -0.6222
 3796SOL    MW414958   3.004   0.742   2.781  0.0925 -0.5222  0.2476
 3797SOL     OW14959   3.818   5.346   6.274 -0.3184  0.4383  0.4645
 3797SOL    HW214960   3.865   5.389   6.346  0.5861 -0.0725  0.1967
 3797SOL    HW314961   3.880   5.282   6.241 -1.7296 -1.3095  1.0472
 3797SOL    MW414962   3.832   5.343   6.279  0.6928  0.4359 -0.0755
 3798SOL     OW14963   4.071   2.486   1.613  0.0170  0.0362 -0.1238
 3798SOL    HW214964   3.984   2.523   1.603  0.8296  2.3597  0.6866
 3798SOL    HW314965   4.063   2.426   1.687 -0.7885  0.6541  0.3112
 3798SOL    MW414966   4.059   2.483   1.622  0.2268 -0.1414  0.0460
 3799SOL     OW14967   0.654   4.171   5.171  0.2569 -0.2520  0.0313
 3799SOL    HW214968   0.738   4.156   5.129  0.3010 -0.2986  0.1372
 3799SOL    HW314969   0.623   4.254   5.133 -0.2212 -0.8546 -0.9225
 3799SOL    MW414970   0.661   4.180   5.161 -0.4495 -0.0885 -0.0935
 3800SOL     OW14971   0.957   3.632   0.178 -0.4248 -0.1497  0.3772
 3800SOL    HW214972   0.892   3.679   0.127 -1.7031 -1.2070  0.9916
 3800SOL    HW314973   0.952   3.670   0.265  0.1410  0.0930  0.3122
 3800SOL    MW414974   0.948   3.643   0.183  0.0314 -0.3129 -0.1460
 3801SOL     OW14975   4.865   4.210   2.406  0.1211  0.2617 -0.2643
 3801SOL    HW214976   4.925   4.137   2.388 -0.9974 -1.7356  3.0687
 3801SOL    HW314977   4.921   4.278   2.443  0.5547 -1.7442  3.2493
 3801SOL    MW414978   4.880   4.209   2.409 -0.4131 -0.2737  0.2767
 3802SOL     OW14979   4.265   6.071   2.288  0.2354  0.2408  0.2256
 3802SOL    HW214980   4.319   6.121   2.227 -1.0446 -0.4964 -1.5835
 3802SOL    HW314981   4.300   5.982   2.284  0.8465  0.4030  1.4568
 3802SOL    MW414982   4.277   6.066   2.279  0.1268 -0.4360 -0.3361
 3803SOL     OW14983   3.448   0.193   1.703  0.4549  0.1317  0.1325
 3803SOL    HW214984   3.354   0.186   1.724  0.6706 -0.5282  0.9420
 3803SOL    HW314985   3.451   0.254   1.630 -0.6244  0.0721  0.0099
 3803SOL    MW414986   3.436   0.200   1.696  0.0706 -0.2995 -0.0980
 3804SOL     OW14987   0.524   6.176   4.495  0.0288 -0.5505 -0.4490
 3804SOL    HW214988   0.519   6.269   4.521  0.9868 -0.7234  0.4625
 3804SOL    HW314989   0.564   6.178   4.408 -1.9335 -0.0189 -1.3828
 3804SOL    MW414990   0.529   6.189   4.487  0.6176  0.0359 -0.2088
 3805SOL     OW14991   6.318   1.405   5.814 -0.0088  0.2370  0.5722
 3805SOL    HW214992   6.400   1.407   5.766  0.1815 -2.3065  0.6829
 3805SOL    HW314993   6.252   1.378   5.749 -0.1906 -0.7254  1.1369
 3805SOL    MW414994   6.320   1.402   5.799  0.5796 -0.0664  0.0329
 3806SOL     OW14995   2.592   1.812   3.632 -0.1901  0.7805 -0.4482
 3806SOL    HW214996   2.508   1.852   3.609  0.1078  1.3113 -0.6296
 3806SOL    HW314997   2.574   1.718   3.631 -0.4161  0.8038 -2.0141
 3806SOL    MW414998   2.578   1.805   3.628  1.0314 -0.5408 -0.2288
 3807SOL     OW14999   0.118   3.035   3.560 -0.9067 -0.4239  0.6061
 3807SOL    HW215000   0.187   3.071   3.617 -0.0532 -0.6199 -0.2830
 3807SOL    HW315001   0.124   3.085   3.479  0.7940 -2.9224 -0.9492
 3807SOL    MW415002   0.128   3.046   3.557 -0.1947  0.4954 -0.0041
 3808SOL     OW15003   1.312   3.446   0.636  0.0047  0.0817  0.4996
 3808SOL    HW215004   1.231   3.444   0.586  0.3028  1.3836 -0.0735
 3808SOL    HW315005   1.351   3.359   0.623 -0.9644 -0.3217  0.2359
 3808SOL    MW415006   1.307   3.434   0.628  0.6249 -0.6993 -0.2335
 3809SOL     OW15007   3.708   6.232   0.738  0.5880  0.6876  0.1951
 3809SOL    HW215008   3.657   6.151   0.745  0.8973  0.4493 -0.2786
 3809SOL    HW315009   3.661   6.295   0.793  1.2809 -0.2806  1.9680
 3809SOL    MW415010   3.695   6.230   0.746  0.2775 -0.1291 -0.5273
 3810SOL     OW15011   4.842   0.819   3.241  0.6061 -0.0955  0.4683
 3810SOL    HW215012   4.798   0.903   3.255  0.6689  0.0682 -0.2930
 3810SOL    HW315013   4.777   0.754   3.267 -0.3914  0.1160 -1.3475
 3810SOL    MW415014   4.827   0.822   3.247  0.2224  0.1992 -0.0406
 3811SOL     OW15015   6.200   0.575   3.764  0.0999  0.5832 -0.1372
 3811SOL    HW215016   6.236   0.663   3.748  1.5859  0.1398  0.5821
 3811SOL    HW315017   6.256   0.517   3.713 -1.1863  0.0665 -1.0157
 3811SOL    MW415018   6.212   0.579   3.755  0.9534  0.2925  0.1713
 3812SOL     OW15019   4.847   3.052   2.865  0.6159 -0.6229  0.0795
 3812SOL    HW215020   4.774   3.070   2.805 -0.3557 -0.1635  1.3658
 3812SOL    HW315021   4.805   3.040   2.950  1.9330 -1.7134  0.5997
 3812SOL    MW415022   4.831   3.053   2.868  0.0410 -0.2495 -0.1224
 3813SOL     OW15023   2.389   6.147   3.973  0.0528  0.5213 -0.0014
 3813SOL    HW215024   2.328   6.075   3.953  0.7780  0.1623 -0.9794
 3813SOL    HW315025   2.372   6.212   3.906  1.4736 -0.0482 -0.9584
 3813SOL    MW415026   2.379   6.146   3.961 -0.2675  0.1442  0.7736
 3814SOL     OW15027   2.757   0.960   3.892  0.4047 -0.5493 -0.3843
 3814SOL    HW215028   2.691   0.936   3.956 -0.9025  1.1183 -1.0324
 3814SOL    HW315029   2.791   1.045   3.923  0.3393 -0.1221 -1.4380
 3814SOL    MW415030   2.753   0.968   3.904  0.5684 -0.0325 -0.3258
 3815SOL     OW15031   0.171   2.082   2.427 -0.3395  0.0250 -0.6174
 3815SOL    HW215032   0.088   2.088   2.380 -0.7476  1.5415  0.2436
 3815SOL    HW315033   0.220   2.160   2.399 -0.0602  0.2458  0.4564
 3815SOL    MW415034   0.167   2.093   2.417  0.3741 -0.3562  0.2886
 3816SOL     OW15035   5.497   4.607   0.847  0.1026 -0.1422  0.4655
 3816SOL    HW215036   5.467   4.691   0.811  1.3480  0.6779  1.2747
 3816SOL    HW315037   5.484   4.544   0.776 -3.2539  0.1502  0.6409
 3816SOL    MW415038   5.491   4.610   0.833 -0.5723 -0.1702  0.0280
 3817SOL     OW15039   4.833   5.010   0.201  0.2750 -0.0461 -1.0481
 3817SOL    HW215040   4.772   5.046   0.136  0.3243 -2.2786 -2.4383
 3817SOL    HW315041   4.824   4.915   0.191  0.4257 -0.4896  2.1355
 3817SOL    MW415042   4.824   5.002   0.191  0.9562 -0.0543  0.3814
 3818SOL     OW15043   5.566   1.775   2.353 -0.1173  0.0146 -0.0725
 3818SOL    HW215044   5.550   1.709   2.285 -1.4783  1.4077 -1.2060
 3818SOL    HW315045   5.612   1.728   2.422  0.0532 -1.8132 -1.3467
 3818SOL    MW415046   5.570   1.760   2.353  0.0980  0.0345  0.2354
 3819SOL     OW15047   4.013   4.401   1.100  0.2091  0.1724  0.4288
 3819SOL    HW215048   3.931   4.354   1.113  0.2872  0.5237  2.6541
 3819SOL    HW315049   4.042   4.376   1.012 -2.5897  0.5798 -0.7137
 3819SOL    MW415050   4.006   4.392   1.090 -0.2480 -0.2655  0.4696
 3820SOL     OW15051   1.071   6.024   0.546 -0.1973  0.2230  0.4876
 3820SOL    HW215052   1.142   6.076   0.584  0.1001 -1.0716  1.8219
 3820SOL    HW315053   1.040   5.970   0.619 -2.5014  0.6724 -0.0858
 3820SOL    MW415054   1.077   6.024   0.561 -0.2702  0.0865 -0.2995
 3821SOL     OW15055   0.689   1.161   5.952 -0.1210  0.0987 -0.7068
 3821SOL    HW215056   0.673   1.080   6.001  0.8376  0.2646 -0.0983
 3821SOL    HW315057   0.763   1.202   5.997 -0.7540  1.4451 -0.8526
 3821SOL    MW415058   0.697   1.155   5.965 -0.1648  0.2602 -0.3912
 3822SOL     OW15059   2.113   4.153   2.635 -0.0360 -0.2557 -0.0249
 3822SOL    HW215060   2.085   4.176   2.546 -0.2797  1.3145  0.4314
 3822SOL    HW315061   2.139   4.061   2.628  0.2146 -0.1010 -1.7870
 3822SOL    MW415062   2.113   4.144   2.622  0.4900  0.4393  0.0107
 3823SOL     OW15063   4.511   4.492   4.938 -0.8598 -0.5343  0.3748
 3823SOL    HW215064   4.571   4.439   4.990 -0.1150  0.0117  0.0931
 3823SOL    HW315065   4.523   4.462   4.848 -0.0065  0.4813  0.1333
 3823SOL    MW415066   4.520   4.481   4.933 -0.0465 -0.1710 -0.1655
 3824SOL     OW15067   5.096   4.685   1.051  0.2449 -0.2749  0.1627
 3824SOL    HW215068   5.006   4.677   1.019  0.3800  1.2763 -0.7206
 3824SOL    HW315069   5.087   4.700   1.145 -0.2369 -3.2615  0.6967
 3824SOL    MW415070   5.083   4.686   1.059 -0.6968  0.1672  0.9548
 3825SOL     OW15071   0.019   1.285   4.435  0.0965  0.4208  0.0860
 3825SOL    HW215072  -0.006   1.203   4.391 -3.2205  1.3499  0.0003
 3825SOL    HW315073   0.038   1.345   4.363  2.1699 -0.0734  0.1480
 3825SOL    MW415074   0.018   1.282   4.420 -1.0052 -0.0445  0.2150
 3826SOL     OW15075   0.409   4.535   1.713 -0.0040 -0.0841 -0.3744
 3826SOL    HW215076   0.314   4.542   1.721 -0.0141  0.4282 -0.8668
 3826SOL    HW315077   0.442   4.616   1.751  0.3061 -0.7926  0.9062
 3826SOL    MW415078   0.401   4.547   1.719  0.6145  0.5285 -0.2450
 3827SOL     OW15079   1.324   3.454   2.302  0.1453 -0.0893  0.1232
 3827SOL    HW215080   1.393   3.394   2.329  0.3676  0.9161  1.9591
 3827SOL    HW315081   1.369   3.518   2.246  0.6962  0.4055  1.0913
 3827SOL    MW415082   1.339   3.455   2.298  0.3649  0.2868  0.2755
 3828SOL     OW15083   2.948   3.808   0.493 -0.0360 -0.1530  0.5299
 3828SOL    HW215084   2.907   3.809   0.580 -1.1522 -0.6436  0.0323
 3828SOL    HW315085   3.039   3.786   0.510 -0.6365 -2.1821  1.4479
 3828SOL    MW415086   2.955   3.805   0.507 -0.0946 -0.7034 -0.1506
 3829SOL     OW15087   3.416   2.013   1.680 -0.0030 -0.6267 -0.2650
 3829SOL    HW215088   3.445   1.938   1.732  0.5540 -1.1569 -1.3125
 3829SOL    HW315089   3.491   2.072   1.679 -0.0838 -0.5235 -0.3040
 3829SOL    MW415090   3.430   2.011   1.687 -0.0536  0.1090  0.0199
 3830SOL     OW15091   2.092   5.224   3.568 -0.6068 -0.1166 -0.4311
 3830SOL    HW215092   2.176   5.205   3.528  0.0137  0.0046  0.7662
 3830SOL    HW315093   2.062   5.303   3.524 -0.8373 -1.0104 -1.9272
 3830SOL    MW415094   2.099   5.232   3.557  0.0905  0.2136 -0.2752
 3831SOL     OW15095   5.354   2.300   0.088  0.6655  0.3066  0.3844
 3831SOL    HW215096   5.282   2.272   0.145  1.3761 -0.4720  0.9109
 3831SOL    HW315097   5.381   2.220   0.043  2.9194  0.0130  2.1199
 3831SOL    MW415098   5.348   2.286   0.089  1.0481 -0.2308  0.1193
 3832SOL     OW15099   6.321   3.809   4.479  0.2270 -0.1235  0.0017
 3832SOL    HW215100   6.230   3.828   4.502  0.3749  1.1820 -0.4082
 3832SOL    HW315101   6.346   3.737   4.538 -0.7267  0.2331  0.8772
 3832SOL    MW415102   6.312   3.802   4.490 -0.5104 -0.1598 -0.0652
 3833SOL     OW15103   6.382   3.429   3.997 -0.1751 -0.2255 -0.2655
 3833SOL    HW215104   6.444   3.359   4.019 -0.9578 -1.3137 -1.4222
 3833SOL    HW315105   6.337   3.447   4.079 -0.9261 -2.0762 -0.2204
 3833SOL    MW415106   6.384   3.422   4.011 -0.5260  0.3449 -0.2221
 3834SOL     OW15107   6.133   6.365   0.762  0.1593 -0.0024  0.0571
 3834SOL    HW215108   6.149   6.366   0.857 -2.4502  3.0064  0.6488
 3834SOL    HW315109   6.048   6.322   0.753  0.4334 -0.3504 -0.9273
 3834SOL    MW415110   6.124   6.360   0.774 -0.0259  0.1605  0.0070
 3835SOL     OW15111   1.389   1.219   4.157  0.5562 -0.1983  0.6429
 3835SOL    HW215112   1.396   1.135   4.111  3.5964  0.5854 -0.5539
 3835SOL    HW315113   1.420   1.200   4.246 -0.3621 -0.6362  0.8852
 3835SOL    MW415114   1.394   1.205   4.163  0.2182 -0.6895  0.1240
 3836SOL     OW15115   5.052   1.476   1.637  0.1391 -0.1438 -0.1197
 3836SOL    HW215116   4.983   1.540   1.617  1.1789  0.9028 -0.4353
 3836SOL    HW315117   5.101   1.515   1.709 -0.0252 -1.2322  0.6116
 3836SOL    MW415118   5.049   1.490   1.644 -0.3265  0.2832 -0.2239
 3837SOL     OW15119   4.849   5.127   3.744 -0.0573 -0.0889  0.1879
 3837SOL    HW215120   4.839   5.033   3.731  0.5141 -0.1219 -0.0584
 3837SOL    HW315121   4.837   5.164   3.656 -4.0060  0.4497  0.7740
 3837SOL    MW415122   4.846   5.119   3.731 -0.0104  0.6485  0.5700
 3838SOL     OW15123   1.316   6.167   0.609  0.0870 -0.1306  0.7614
 3838SOL    HW215124   1.311   6.198   0.699  0.6303  0.9080  0.4564
 3838SOL    HW315125   1.389   6.104   0.609 -2.5470 -3.4848  1.9125
 3838SOL    MW415126   1.325   6.162   0.621  0.8970  0.4887  0.4916
 3839SOL     OW15127   3.246   2.431   3.391  0.4381 -0.3781 -0.4246
 3839SOL    HW215128   3.317   2.418   3.454  0.5279 -0.2689 -0.5046
 3839SOL    HW315129   3.251   2.523   3.367  0.6032 -0.4892 -0.8290
 3839SOL    MW415130   3.256   2.441   3.396  0.4259  0.0341 -0.4645
 3840SOL     OW15131   3.581   2.755   1.876  0.2011  0.4960  0.1047
 3840SOL    HW215132   3.566   2.770   1.783  0.0623  0.0113  0.0448
 3840SOL    HW315133   3.521   2.815   1.920  0.7538  1.2193 -0.1059
 3840SOL    MW415134   3.571   2.765   1.870  0.3822  0.5624 -0.4897
 3841SOL     OW15135   2.296   4.535   6.295 -0.6843  0.3557 -0.1472
 3841SOL    HW215136   2.281   4.591   6.371 -2.4064 -1.4450  0.9227
 3841SOL    HW315137   2.386   4.505   6.304 -0.9060  0.0625  1.2843
 3841SOL    MW415138   2.306   4.538   6.306 -0.1143 -0.0750  0.6299
 3842SOL     OW15139   0.356   1.792   5.126 -0.4156  0.0987  0.4682
 3842SOL    HW215140   0.314   1.715   5.163  0.2098  0.1392  1.2780
 3842SOL    HW315141   0.308   1.866   5.162 -1.5599  0.1041 -0.9622
 3842SOL    MW415142   0.344   1.792   5.136 -0.1883  0.0612 -0.2279
 3843SOL     OW15143   6.035   1.486   3.284  0.1121 -0.3914 -0.4289
 3843SOL    HW215144   6.096   1.531   3.342  1.5331 -1.0512 -1.3669
 3843SOL    HW315145   6.089   1.456   3.211 -1.2734 -1.3132 -1.1112
 3843SOL    MW415146   6.050   1.488   3.282 -0.0951  0.1821  0.4664
 3844SOL     OW15147   3.808   2.475   4.800 -0.3456  0.3182 -0.5294
 3844SOL    HW215148   3.722   2.451   4.764 -1.6150 -0.6243  2.7607
 3844SOL    HW315149   3.848   2.391   4.824 -0.4314  0.9052  1.8779
 3844SOL    MW415150   3.802   2.461   4.798 -0.0016 -0.0469  0.3274
 3845SOL     OW15151   1.845   2.904   0.725  0.6315 -0.5972  0.7632
 3845SOL    HW215152   1.859   2.845   0.799  0.0258 -1.3245  0.3228
 3845SOL    HW315153   1.803   2.849   0.658 -1.3985  0.6559  0.8934
 3845SOL    MW415154   1.841   2.889   0.726 -0.1558 -0.3812 -0.0734
 3846SOL     OW15155   3.032   4.893   5.378 -0.7380 -0.3455  0.3686
 3846SOL    HW215156   3.077   4.872   5.460  0.3063 -1.1643 -0.3829
 3846SOL    HW315157   3.077   4.839   5.312 -0.7833  1.1528 -0.9330
 3846SOL    MW415158   3.044   4.883   5.380  0.1873  0.0231 -0.4758
 3847SOL     OW15159   0.627   2.811   0.800  0.6431 -0.0562 -0.0395
 3847SOL    HW215160   0.535   2.807   0.771  0.4090 -0.9886  0.7828
 3847SOL    HW315161   0.670   2.741   0.750  1.0527  0.7422 -0.8440
 3847SOL    MW415162   0.620   2.801   0.789  0.4905  0.0328  0.3523
 3848SOL     OW15163   5.767   1.757   4.645 -0.2788  0.4460  0.3160
 3848SOL    HW215164   5.700   1.690   4.661 -0.7412  1.1010  1.2115
 3848SOL    HW315165   5.779   1.799   4.730  1.2431  0.3791  0.1460
 3848SOL    MW415166   5.759   1.754   4.658 -0.0564  0.2668 -0.2083
 3849SOL     OW15167   2.234   4.886   5.022  0.5379  0.2130 -0.4553
 3849SOL    HW215168   2.206   4.807   4.976 -0.9853  0.9289 -0.8254
 3849SOL    HW315169   2.293   4.855   5.091 -0.2755 -1.2841 -0.4002
 3849SOL    MW415170   2.238   4.872   5.025  0.3708  0.2908  0.0858
 3850SOL     OW15171   0.394   1.983   0.015  0.1059 -0.0321  0.9567
 3850SOL    HW215172   0.361   2.040   0.084  0.0600  0.4719  0.5221
 3850SOL    HW315173   0.328   1.914   0.007  0.8644 -1.0000  2.5011
 3850SOL    MW415174   0.381   1.981   0.023 -0.2751  0.3147 -0.2387
 3851SOL     OW15175   4.714   2.978   0.959  0.7179  0.2871 -0.3346
 3851SOL    HW215176   4.663   3.009   0.884  0.8671  1.3992  0.0094
 3851SOL    HW315177   4.686   3.034   1.032 -0.7153 -1.8616  0.8946
 3851SOL    MW415178   4.703   2.990   0.959  0.4357 -0.0405 -0.6111
 3852SOL     OW15179   5.393   3.840   2.660 -0.1621  0.1275 -0.2704
 3852SOL    HW215180   5.437   3.837   2.575  1.5830  2.8956  0.4235
 3852SOL    HW315181   5.462   3.820   2.723 -1.3465 -1.4954  0.6043
 3852SOL    MW415182   5.408   3.837   2.657 -0.1718  0.5802 -0.7405
 3853SOL     OW15183   0.381   6.421   5.450  0.2241  0.2646 -0.2546
 3853SOL    HW215184   0.288   6.420   5.429  0.1265 -2.7127 -0.1340
 3853SOL    HW315185   0.387   6.477   5.528 -1.2773  1.3318 -0.8515
 3853SOL    MW415186   0.369   6.428   5.458 -0.0211 -0.5833  0.1828
 3854SOL     OW15187   1.301   1.397   5.850 -0.4543 -0.3912  0.2026
 3854SOL    HW215188   1.314   1.369   5.760 -2.3957  0.1009 -0.2717
 3854SOL    HW315189   1.337   1.325   5.903  0.2127 -0.9276 -0.9457
 3854SOL    MW415190   1.308   1.384   5.845 -0.0994  0.3355  0.2968
 3855SOL     OW15191   3.764   3.502   3.941  0.0230  0.5877 -0.1817
 3855SOL    HW215192   3.816   3.425   3.967  0.0365  0.5121 -0.4321
 3855SOL    HW315193   3.679   3.465   3.918 -0.5741  0.8373  1.4530
 3855SOL    MW415194   3.760   3.487   3.942 -0.0775 -0.4189 -0.3921
 3856SOL     OW15195   1.147   0.507   6.320 -0.2187 -0.1154  0.5013
 3856SOL    HW215196   1.193   0.556   6.252  0.1115  1.5322  1.8296
 3856SOL    HW315197   1.166   0.415   6.301  1.7687  0.4151 -0.2790
 3856SOL    MW415198   1.155   0.501   6.309  0.4124  0.1808  0.2217
 3857SOL     OW15199   1.003   4.652   4.600  0.2289  0.2578 -0.5612
 3857SOL    HW215200   0.955   4.606   4.531 -1.3407 -0.7563  1.1231
 3857SOL    HW315201   1.036   4.583   4.656 -0.8615  1.1050  1.1945
 3857SOL    MW415202   1.001   4.637   4.598  0.2981 -0.1274  0.6845
 3858SOL     OW15203   4.638   0.108   0.538 -0.4091  0.2029  0.5172
 3858SOL    HW215204   4.657   0.194   0.576  1.6414  0.5371 -1.0708
 3858SOL    HW315205   4.591   0.128   0.457  0.4338 -0.1109 -0.0650
 3858SOL    MW415206   4.634   0.122   0.532  0.4498 -0.3211  0.1007
 3859SOL     OW15207   4.519   5.878   4.509  0.1339 -0.2585 -0.0228
 3859SOL    HW215208   4.429   5.903   4.531 -0.1674 -0.5053 -0.9262
 3859SOL    HW315209   4.551   5.831   4.586  0.0792  1.2696  0.9712
 3859SOL    MW415210   4.511   5.875   4.522  0.5953  0.0742 -0.8257
 3860SOL     OW15211   6.200   1.798   4.197  0.0453  0.4878  0.2928
 3860SOL    HW215212   6.276   1.797   4.255  0.1824  1.6770  0.1755
 3860SOL    HW315213   6.155   1.716   4.214  1.8962 -0.7300 -0.3628
 3860SOL    MW415214   6.204   1.787   4.207  0.3947  0.0330  0.4712
 3861SOL     OW15215   4.733   3.246   3.300 -0.3306 -0.3030  0.0580
 3861SOL    HW215216   4.800   3.220   3.364  1.7312 -0.5066 -2.0236
 3861SOL    HW315217   4.724   3.169   3.243  0.4165  0.9203 -1.8347
 3861SOL    MW415218   4.741   3.232   3.301  0.1188  0.1873 -0.0541
 3862SOL     OW15219   5.135   3.344   0.014  0.0615  0.3365  0.9537
 3862SOL    HW215220   5.166   3.330  -0.076  0.2409  0.4410  0.9995
 3862SOL    HW315221   5.205   3.394   0.056 -0.9020  2.1186  0.5414
 3862SOL    MW415222   5.148   3.349   0.007  0.1190 -0.1436 -0.4350
 3863SOL     OW15223   3.311   5.998   1.213  0.0702 -0.0898  0.7473
 3863SOL    HW215224   3.287   5.912   1.180  0.1223  0.0099  0.4433
 3863SOL    HW315225   3.290   5.995   1.306  1.7000 -1.0359  1.1201
 3863SOL    MW415226   3.305   5.986   1.221 -0.2715 -0.5558  0.0140
 3864SOL     OW15227   6.219   4.691   0.511 -0.1574 -0.0351 -0.2058
 3864SOL    HW215228   6.244   4.708   0.602  1.6413 -0.3364 -0.6037
 3864SOL    HW315229   6.137   4.643   0.517  0.5567 -1.1412  1.3233
 3864SOL    MW415230   6.212   4.687   0.524  0.5373  1.4014 -0.2950
 3865SOL     OW15231   6.261   2.379   1.028  0.1056  0.4162  0.2465
 3865SOL    HW215232   6.356   2.391   1.027  0.2177 -0.3077  0.8397
 3865SOL    HW315233   6.240   2.345   0.941  0.1228  2.3055 -0.5383
 3865SOL    MW415234   6.271   2.376   1.016  0.1077  0.3531  0.4276
 3866SOL     OW15235   2.993   4.401   4.728 -0.3701 -0.0685  0.9707
 3866SOL    HW215236   3.067   4.340   4.723 -0.6531 -0.5595  2.3859
 3866SOL    HW315237   3.020   4.475   4.673  0.7848 -0.6381  0.7320
 3866SOL    MW415238   3.007   4.403   4.720 -0.0922  0.1480  0.0683
 3867SOL     OW15239   2.912   3.794   2.860 -0.6420 -0.6062  0.0583
 3867SOL    HW215240   2.968   3.718   2.845  2.3245  1.8305 -3.1526
 3867SOL    HW315241   2.839   3.783   2.799 -0.3605 -1.0422 -0.2041
 3867SOL    MW415242   2.910   3.783   2.850 -0.0746 -0.3369  0.0127
 3868SOL     OW15243   6.098   3.078   2.541  0.2831  1.1738 -0.3205
 3868SOL    HW215244   6.017   3.028   2.549  0.5708  0.9247  1.2303
 3868SOL    HW315245   6.105   3.096   2.447 -0.5856 -0.4157 -0.7206
 3868SOL    MW415246   6.088   3.074   2.529  0.3108 -0.5370 -0.3714
 3869SOL     OW15247   3.126   3.875   4.155 -0.0613 -0.0713  0.0675
 3869SOL    HW215248   3.053   3.813   4.150 -0.5489  0.5080 -0.1977
 3869SOL    HW315249   3.117   3.929   4.077  0.7498 -0.0886 -0.0422
 3869SOL    MW415250   3.115   3.874   4.144 -0.1212  0.0022  0.7227
 3870SOL     OW15251   1.137   0.286   0.909  0.4301 -0.1509  0.4197
 3870SOL    HW215252   1.051   0.272   0.949  0.9433  0.3275  1.7626
 3870SOL    HW315253   1.167   0.198   0.885 -0.5225 -0.2965 -0.2898
 3870SOL    MW415254   1.130   0.273   0.911  0.3845 -0.0398 -0.2420
 3871SOL     OW15255   2.615   3.878   5.414 -0.0921 -0.0037  0.3806
 3871SOL    HW215256   2.700   3.901   5.376  0.2403 -0.5692  0.7684
 3871SOL    HW315257   2.580   3.960   5.447  0.9046  0.0260  1.4208
 3871SOL    MW415258   2.622   3.892   5.413  0.3891  0.1235  0.1823
 3872SOL     OW15259   1.033   2.292   4.292  0.1523  0.2489  0.0201
 3872SOL    HW215260   1.040   2.387   4.300  0.3494  0.1719  0.8381
 3872SOL    HW315261   1.089   2.270   4.218  0.8504  0.6812  0.4047
 3872SOL    MW415262   1.041   2.301   4.283 -0.5271  0.9991  0.1520
 3873SOL     OW15263   2.239   5.375   3.184  0.0331  0.0807  0.2489
 3873SOL    HW215264   2.319   5.427   3.173  0.4395 -0.8116 -1.1709
 3873SOL    HW315265   2.180   5.408   3.116  0.7759 -2.1540 -1.5956
 3873SOL    MW415266   2.241   5.387   3.174  0.5638  0.4594 -0.5259
 3874SOL     OW15267   4.830   0.991   2.263  0.4844  0.1101 -0.0492
 3874SOL    HW215268   4.782   0.958   2.339 -0.2242 -1.5686 -1.1640
 3874SOL    HW315269   4.918   0.954   2.272  0.4484  0.0469  0.0405
 3874SOL    MW415270   4.835   0.982   2.274 -0.2676 -1.4467  0.2122
 3875SOL     OW15271   2.395   0.865   1.585 -0.5031  0.3475 -0.8728
 3875SOL    HW215272   2.457   0.877   1.656  0.4423 -0.2782 -1.5787
 3875SOL    HW315273   2.330   0.804   1.620 -1.0096  1.3453  0.0186
 3875SOL    MW415274   2.394   0.859   1.599  0.1294  0.5125  0.5442
 3876SOL     OW15275   0.033   1.559   0.681 -0.1305 -0.0757  0.6385
 3876SOL    HW215276   0.002   1.573   0.771 -0.4189 -0.4125  0.5909
 3876SOL    HW315277   0.019   1.466   0.665  0.3291 -0.1035  0.3952
 3876SOL    MW415278   0.027   1.549   0.691  0.0011  0.7823 -0.4070
 3877SOL     OW15279   3.426   0.663   5.268  0.3663 -0.6516 -0.3415
 3877SOL    HW215280   3.493   0.730   5.252 -0.0500  0.0464  0.7291
 3877SOL    HW315281   3.458   0.586   5.221  0.0349  0.7431 -3.0244
 3877SOL    MW415282   3.439   0.662   5.260  0.2866  0.2626 -0.1274
 3878SOL     OW15283   4.224   2.141   3.976 -0.8632  0.5805 -0.1444
 3878SOL    HW215284   4.302   2.087   3.983 -0.3972  1.1049 -1.1089
 3878SOL    HW315285   4.223   2.171   3.885 -2.4275  0.2239 -0.2807
 3878SOL    MW415286   4.234   2.138   3.965 -0.3527 -0.8151  0.0951
 3879SOL     OW15287   0.677   2.072   4.159 -0.3971 -0.2324  0.1994
 3879SOL    HW215288   0.656   2.165   4.160  0.9185  0.0862  0.7071
 3879SOL    HW315289   0.711   2.056   4.071 -1.4715 -0.4539 -0.1887
 3879SOL    MW415290   0.679   2.082   4.148 -0.1326 -0.2115  0.1779
 3880SOL     OW15291   4.623   2.933   4.073  0.4431 -0.0385  0.3049
 3880SOL    HW215292   4.617   3.021   4.110 -0.3230 -0.2060  0.6045
 3880SOL    HW315293   4.535   2.895   4.087  0.1147 -0.0957 -1.7132
 3880SOL    MW415294   4.610   2.939   4.080  0.3378  0.4665 -0.8925
 3881SOL     OW15295   5.834   5.581   3.842  0.0877 -0.0928  0.0349
 3881SOL    HW215296   5.840   5.571   3.747  1.2980 -0.8104  0.1661
 3881SOL    HW315297   5.910   5.534   3.875  1.1374  2.3080  1.2401
 3881SOL    MW415298   5.845   5.573   3.833  0.0935 -0.5930  0.2779
 3882SOL     OW15299   2.253   4.414   5.449 -0.2840  0.0354 -0.3790
 3882SOL    HW215300   2.287   4.325   5.442  1.1966  0.5720 -0.2922
 3882SOL    HW315301   2.189   4.410   5.521 -2.2094 -1.5049 -2.0469
 3882SOL    MW415302   2.249   4.401   5.458 -0.0970 -0.2179  1.0098
 3883SOL     OW15303   1.973   4.101   0.505 -0.0247 -0.2699 -0.6854
 3883SOL    HW215304   1.913   4.029   0.484 -0.2555 -0.2081 -0.2367
 3883SOL    HW315305   1.924   4.158   0.564  0.4802 -0.2322 -0.2927
 3883SOL    MW415306   1.959   4.099   0.510 -0.2106 -0.3333  0.1108
 3884SOL     OW15307   4.345   5.702   1.745  0.1289 -0.4811 -0.6562
 3884SOL    HW215308   4.316   5.792   1.728  2.6086  0.6450  0.6275
 3884SOL    HW315309   4.315   5.684   1.834  1.2578 -0.1910 -0.2069
 3884SOL    MW415310   4.337   5.711   1.754  0.3348  0.0619  0.1768
 3885SOL     OW15311   6.303   1.253   0.987 -0.4078 -0.3405 -0.3108
 3885SOL    HW215312   6.330   1.340   1.018  0.9101 -1.8868  3.4613
 3885SOL    HW315313   6.226   1.232   1.040 -0.3944 -1.6851 -0.8001
 3885SOL    MW415314   6.296   1.262   0.998  0.1584  0.2274 -0.2642
 3886SOL     OW15315   3.832   2.887   1.959 -0.1203  0.5166 -0.4755
 3886SOL    HW215316   3.750   2.845   1.935 -0.1762 -0.4843  1.3343
 3886SOL    HW315317   3.895   2.816   1.966 -0.0530  0.7461  1.9819
 3886SOL    MW415318   3.829   2.872   1.956  0.1715  0.1886 -0.0980
 3887SOL     OW15319   4.003   3.005   4.610 -0.3574 -0.4680 -0.3559
 3887SOL    HW215320   3.925   3.038   4.654  0.9541 -0.1865  1.9133
 3887SOL    HW315321   3.974   2.925   4.565 -2.2573  0.5038 -0.9467
 3887SOL    MW415322   3.989   2.998   4.610 -0.3150 -0.4131 -0.3245
 3888SOL     OW15323   3.418   5.544   0.176 -0.3055  0.4773  0.4772
 3888SOL    HW215324   3.333   5.506   0.152 -0.6613  0.8748  1.1017
 3888SOL    HW315325   3.398   5.604   0.247  0.4478  0.8824  0.3476
 3888SOL    MW415326   3.404   5.547   0.182  0.0632  0.1664 -0.8739
 3889SOL     OW15327   6.130   2.018   4.622  0.2889 -0.1226  0.1986
 3889SOL    HW215328   6.171   2.049   4.703 -2.2349  1.0836  1.1375
 3889SOL    HW315329   6.126   1.923   4.631  3.1423 -0.3450 -0.1579
 3889SOL    MW415330   6.135   2.010   4.634 -0.6978  0.0479  0.2662
 3890SOL     OW15331   0.973   4.186   1.458  0.2223  0.0516 -0.2669
 3890SOL    HW215332   1.022   4.196   1.540 -0.1184  0.7352 -0.1434
 3890SOL    HW315333   0.955   4.276   1.430 -2.4611 -0.1601  0.5786
 3890SOL    MW415334   0.977   4.199   1.465  0.3680 -0.1548 -0.2070
 3891SOL     OW15335   0.866   0.344   0.683 -0.2427  0.2723  0.2594
 3891SOL    HW215336   0.921   0.290   0.626 -0.7186  0.8035 -0.7272
 3891SOL    HW315337   0.899   0.433   0.670 -1.3596  0.6142 -0.4191
 3891SOL    MW415338   0.878   0.348   0.674 -0.5094 -0.1405  0.1199
 3892SOL     OW15339   4.190   6.368   0.245  0.2182  0.1244  0.1195
 3892SOL    HW215340   4.258   6.395   0.183 -0.6189  0.5739 -0.6260
 3892SOL    HW315341   4.129   6.316   0.193 -0.9074  1.1393  0.3655
 3892SOL    MW415342   4.191   6.365   0.230 -0.4680  0.5904  0.6550
 3893SOL     OW15343   5.283   1.390   3.421 -0.5787  0.3160 -0.0099
 3893SOL    HW215344   5.256   1.324   3.485  0.6367 -0.2958 -0.0914
 3893SOL    HW315345   5.362   1.429   3.459  0.1566 -0.0459 -1.1136
 3893SOL    MW415346   5.290   1.387   3.435  0.2874 -0.4035  0.1499
 3894SOL     OW15347   5.061   4.324   3.188 -0.2783 -0.2529 -0.0881
 3894SOL    HW215348   5.004   4.343   3.113  1.7710  1.5595 -1.3137
 3894SOL    HW315349   5.071   4.408   3.233  0.3160 -0.8342  0.9043
 3894SOL    MW415350   5.055   4.338   3.184 -0.0994 -0.4947  0.2823
 3895SOL     OW15351   5.178   2.952   3.117  0.1882 -0.4275 -0.4978
 3895SOL    HW215352   5.255   2.896   3.124 -0.6772 -1.5120  0.9660
 3895SOL    HW315353   5.155   2.974   3.207 -1.5901 -0.7257 -0.8290
 3895SOL    MW415354   5.185   2.947   3.130  0.0008  0.4139  0.1910
 3896SOL     OW15355   3.118   4.794   4.744  0.1309  0.3502  0.4273
 3896SOL    HW215356   3.200   4.760   4.710 -1.0659 -2.0602 -0.2860
 3896SOL    HW315357   3.108   4.750   4.829 -0.6770  0.1411  0.2332
 3896SOL    MW415358   3.127   4.784   4.751 -0.1476  1.1989 -0.3054
 3897SOL     OW15359   0.440   3.270   0.720  0.1193 -0.0789 -0.6805
 3897SOL    HW215360   0.476   3.324   0.649  0.9489  0.7651  0.3467
 3897SOL    HW315361   0.510   3.209   0.741  0.0024 -0.1072 -0.3696
 3897SOL    MW415362   0.454   3.269   0.713  0.0041  0.4552 -0.0742
 3898SOL     OW15363   0.254   2.842   1.594 -0.0179 -0.2576  0.0480
 3898SOL    HW215364   0.232   2.827   1.502  0.7035  2.3169 -0.6196
 3898SOL    HW315365   0.342   2.804   1.603  0.2763  0.2353 -0.5936
 3898SOL    MW415366   0.263   2.835   1.583 -0.0951 -0.1113  0.2514
 3899SOL     OW15367   1.002   3.301   3.406  0.4377  0.5393  0.2177
 3899SOL    HW215368   0.939   3.248   3.454 -0.1959  1.0063 -0.0893
 3899SOL    HW315369   1.069   3.238   3.377  0.2331  0.0807  0.7366
 3899SOL    MW415370   1.003   3.286   3.408 -0.2728 -0.1735 -0.1050
 3900SOL     OW15371   4.759   1.710   5.704  0.1516 -0.3439 -0.1415
 3900SOL    HW215372   4.702   1.747   5.636  1.0619 -0.0650 -0.7770
 3900SOL    HW315373   4.702   1.652   5.755 -1.2550  1.6946  0.7128
 3900SOL    MW415374   4.744   1.707   5.702 -0.5099 -0.3384 -0.0537
 3901SOL     OW15375   1.640   4.442   3.076  0.3304  0.5276 -0.5308
 3901SOL    HW215376   1.717   4.464   3.023  1.3028  0.1625  0.6903
 3901SOL    HW315377   1.569   4.435   3.012  1.5590 -0.4231 -1.8717
 3901SOL    MW415378   1.641   4.444   3.060  0.0421 -0.9255 -0.3981
 3902SOL     OW15379   0.691   2.575   4.926  0.1431  0.4716 -0.5659
 3902SOL    HW215380   0.615   2.518   4.941 -0.1716  0.9390 -0.3346
 3902SOL    HW315381   0.704   2.620   5.010 -0.0950  1.3003 -0.9615
 3902SOL    MW415382   0.682   2.574   4.939  0.3379 -0.0729  0.3816
 3903SOL     OW15383   5.289   5.757   0.862  0.0524 -0.4058 -0.6074
 3903SOL    HW215384   5.205   5.772   0.819 -1.2138 -2.8539  0.7829
 3903SOL    HW315385   5.272   5.777   0.954  0.9793 -0.9067 -0.3165
 3903SOL    MW415386   5.275   5.761   0.868 -0.3784 -0.5349 -0.1971
 3904SOL     OW15387   6.420   0.935   6.365 -0.6330 -0.1000  0.0002
 3904SOL    HW215388   6.502   0.946   6.317 -0.3534 -0.0154  0.5010
 3904SOL    HW315389   6.418   0.842   6.387 -0.5865 -0.0654  0.1476
 3904SOL    MW415390   6.431   0.924   6.361 -0.0891  0.1437  0.2862
 3905SOL     OW15391   0.901   1.720   4.030  0.0815  0.4418  0.3391
 3905SOL    HW215392   0.867   1.802   3.995 -0.7734 -0.4108 -0.9242
 3905SOL    HW315393   0.898   1.731   4.125 -1.8058  1.1827  0.2269
 3905SOL    MW415394   0.896   1.732   4.038 -0.0020  0.3128 -0.2078
 3906SOL     OW15395   0.968   4.160   0.003 -0.2123  0.5236 -0.0405
 3906SOL    HW215396   1.051   4.181   0.046 -1.6664  4.1182  1.3848
 3906SOL    HW315397   0.934   4.084   0.051  0.7518  1.0563  1.5593
 3906SOL    MW415398   0.975   4.153   0.015  0.3884 -1.1372 -1.0945
 3907SOL     OW15399   1.928   4.563   6.000  0.4330 -0.2771  0.2757
 3907SOL    HW215400   1.935   4.639   6.057 -1.2237 -0.5486  0.9132
 3907SOL    HW315401   2.012   4.518   6.008  0.4409  0.0008  2.0820
 3907SOL    MW415402   1.940   4.567   6.009 -0.2076 -0.1148 -0.5362
 3908SOL     OW15403   4.881   3.777   4.752 -0.0231  0.5204 -0.0543
 3908SOL    HW215404   4.967   3.744   4.781  0.6287  1.1652 -1.1636
 3908SOL    HW315405   4.825   3.699   4.753  1.1410 -0.4092 -1.3197
 3908SOL    MW415406   4.885   3.762   4.756 -0.9460 -0.3259  0.0311
 3909SOL     OW15407   5.574   5.362   1.060  0.0116 -0.2400  0.1871
 3909SOL    HW215408   5.496   5.414   1.037 -1.4333 -2.4815 -0.2548
 3909SOL    HW315409   5.549   5.315   1.139  2.4424  1.9731  2.5079
 3909SOL    MW415410   5.560   5.363   1.067  0.3654 -0.3001 -0.2113
 3910SOL     OW15411   4.641   1.177   2.363  0.2017 -0.3088 -0.0678
 3910SOL    HW215412   4.681   1.265   2.362 -0.0470 -0.1952 -0.4943
 3910SOL    HW315413   4.709   1.120   2.326 -0.5242  0.1294 -2.2792
 3910SOL    MW415414   4.656   1.181   2.358 -0.3434 -0.4250  0.8083
 3911SOL     OW15415   2.063   4.131   3.770  0.4948  0.4146  0.3137
 3911SOL    HW215416   2.101   4.197   3.828  1.2995 -0.2591  0.5898
 3911SOL    HW315417   2.000   4.178   3.717 -0.0305  1.1180  1.5210
 3911SOL    MW415418   2.060   4.146   3.771  0.0127  0.3586  0.2566
 3912SOL     OW15419   3.890   3.821   5.060  0.5543 -0.1673 -0.0964
 3912SOL    HW215420   3.854   3.837   5.148 -0.8398  1.8910 -0.9546
 3912SOL    HW315421   3.868   3.730   5.042 -0.8387 -0.0895  0.9646
 3912SOL    MW415422   3.882   3.811   5.070 -0.3234 -0.2250  0.4444
 3913SOL     OW15423   4.755   1.095   2.720  0.0758  0.0523  0.2672
 3913SOL    HW215424   4.662   1.101   2.741  0.0566  1.1163 -0.0855
 3913SOL    HW315425   4.778   1.181   2.684  1.1712 -0.2241  0.2563
 3913SOL    MW415426   4.746   1.107   2.718 -0.2795 -0.0566 -0.1852
 3914SOL     OW15427   0.243   4.003   3.215  0.5165 -0.1111 -0.4418
 3914SOL    HW215428   0.300   3.970   3.144  1.1166  1.4639 -0.7233
 3914SOL    HW315429   0.165   4.036   3.170  0.0745 -0.7975 -0.1913
 3914SOL    MW415430   0.240   4.003   3.199  0.1873  0.4781  0.1533
 3915SOL     OW15431   1.066   3.458   3.717 -0.2177 -0.1232 -0.1184
 3915SOL    HW215432   0.989   3.468   3.773 -0.3723  1.6042 -0.5800
 3915SOL    HW315433   1.138   3.441   3.777 -0.5628  0.6332  0.5195
 3915SOL    MW415434   1.065   3.457   3.732  0.2327 -0.2918 -0.3321
 3916SOL     OW15435   1.890   6.188   6.193  0.0522 -0.1948 -0.3462
 3916SOL    HW215436   1.958   6.170   6.128  0.2538 -2.2837  0.3549
 3916SOL    HW315437   1.884   6.283   6.196  3.1350  0.0985 -0.2424
 3916SOL    MW415438   1.898   6.198   6.185 -0.2315  0.2863  0.9830
 3917SOL     OW15439   3.776   4.616   2.014 -0.5659 -0.3152  0.0467
 3917SOL    HW215440   3.767   4.711   2.001 -3.1504 -0.7402 -2.3797
 3917SOL    HW315441   3.737   4.600   2.100 -1.0327  0.7370  0.0513
 3917SOL    MW415442   3.769   4.627   2.023 -0.2304 -0.3273 -0.0036
 3918SOL     OW15443   2.480   3.446   5.653 -0.5052  0.0066 -0.3008
 3918SOL    HW215444   2.402   3.410   5.610 -0.6566 -1.9848  1.4488
 3918SOL    HW315445   2.448   3.518   5.706 -1.2205 -0.8404  0.4554
 3918SOL    MW415446   2.466   3.450   5.654 -0.1146 -0.1629 -0.5079
 3919SOL     OW15447   0.075   2.558   1.464  0.1883  0.4272  0.4529
 3919SOL    HW215448   0.128   2.622   1.416 -1.0661  0.7317 -0.5624
 3919SOL    HW315449   0.136   2.519   1.526  1.9921 -0.2819 -1.6466
 3919SOL    MW415450   0.090   2.561   1.466 -0.7228 -0.1901 -0.1891
 3920SOL     OW15451   2.602   3.345   5.905 -0.4147  0.0007 -0.1391
 3920SOL    HW215452   2.636   3.421   5.858  1.3219 -0.8104 -0.3025
 3920SOL    HW315453   2.556   3.294   5.839  1.1424 -0.6213 -0.8101
 3920SOL    MW415454   2.601   3.348   5.890 -0.1533 -0.1370  0.1101
 3921SOL     OW15455   1.190   6.156   0.234  0.0630 -0.0198 -0.3415
 3921SOL    HW215456   1.216   6.229   0.291  0.6637 -0.7144  0.2866
 3921SOL    HW315457   1.133   6.197   0.169 -1.3436  0.6668  1.2343
 3921SOL    MW415458   1.186   6.171   0.233 -0.3338 -0.8498  0.5779
 3922SOL     OW15459   0.875   4.638   1.861  0.0035 -0.4767  0.1755
 3922SOL    HW215460   0.895   4.625   1.954 -0.1681 -1.3510  0.0926
 3922SOL    HW315461   0.957   4.618   1.816  0.0956 -0.0223  0.1350
 3922SOL    MW415462   0.889   4.634   1.867 -0.7573  0.0871  0.1005
 3923SOL     OW15463   4.431   2.873   1.258 -0.1124  0.6403  0.2624
 3923SOL    HW215464   4.497   2.941   1.270  0.6528  0.2418 -1.3813
 3923SOL    HW315465   4.441   2.815   1.333  3.8312 -1.3133 -1.4913
 3923SOL    MW415466   4.441   2.874   1.269 -0.0305 -0.3484 -0.7782
 3924SOL     OW15467   2.081   4.699   0.575  0.2293 -0.9575  0.1722
 3924SOL    HW215468   2.009   4.698   0.511 -0.1236 -0.9354  0.5671
 3924SOL    HW315469   2.038   4.710   0.659  0.7538 -0.1491  0.3443
 3924SOL    MW415470   2.066   4.700   0.577  0.9051  0.2740  0.5646
 3925SOL     OW15471   0.178   4.710   3.548  0.0571 -0.1740 -0.4772
 3925SOL    HW215472   0.196   4.671   3.634  0.6528 -2.3425 -1.5157
 3925SOL    HW315473   0.265   4.730   3.513 -0.2039  1.2261 -0.4000
 3925SOL    MW415474   0.192   4.708   3.555 -0.3276 -0.2493  0.6805
 3926SOL     OW15475   4.851   3.514   3.257  0.4449  0.0800 -0.8859
 3926SOL    HW215476   4.786   3.447   3.236 -0.2143  0.8170 -1.2291
 3926SOL    HW315477   4.873   3.497   3.349  0.8678 -1.0871 -1.1946
 3926SOL    MW415478   4.845   3.503   3.266  0.2594  0.2338 -0.4444
 3927SOL     OW15479   3.916   0.373   2.686 -0.0916 -0.4072  0.2517
 3927SOL    HW215480   3.842   0.317   2.665  0.3683 -1.4487  1.3139
 3927SOL    HW315481   3.954   0.334   2.765  1.0050  0.6658  0.2786
 3927SOL    MW415482   3.911   0.361   2.694  0.4731  0.2091  0.0140
 3928SOL     OW15483   2.127   1.942   4.821  0.3641 -0.1893  0.2556
 3928SOL    HW215484   2.101   2.001   4.749 -0.3109 -0.8043 -0.0162
 3928SOL    HW315485   2.221   1.929   4.808  0.3165 -0.0151 -0.3112
 3928SOL    MW415486   2.136   1.948   4.810  0.4042 -0.4881  0.3111
 3929SOL     OW15487   6.414   2.460   0.097 -0.5079  0.3206  0.0892
 3929SOL    HW215488   6.368   2.493   0.174  0.1695 -0.1587  0.7158
 3929SOL    HW315489   6.381   2.371   0.086  1.0888 -0.4616  1.2624
 3929SOL    MW415490   6.403   2.453   0.106  0.4390  0.5778  0.1232
 3930SOL     OW15491   3.997   6.299   5.272 -0.5988  0.4576 -0.3341
 3930SOL    HW215492   3.924   6.338   5.321 -2.2751 -0.3773 -2.0354
 3930SOL    HW315493   3.980   6.205   5.276 -0.1648  0.3086 -1.5596
 3930SOL    MW415494   3.985   6.292   5.279  0.3735  0.0569 -0.1583
 3931SOL     OW15495   0.308   3.584   4.789 -0.0877  0.3001 -0.1671
 3931SOL    HW215496   0.379   3.536   4.747  0.1398  1.0380 -0.6456
 3931SOL    HW315497   0.252   3.612   4.717 -1.2182 -0.7990  0.2486
 3931SOL    MW415498   0.310   3.582   4.774 -0.3007 -0.6310 -0.0757
 3932SOL     OW15499   6.088   4.175   0.663 -0.6687  0.2454 -0.0953
 3932SOL    HW215500   6.056   4.246   0.607 -0.1519  1.5653  1.2134
 3932SOL    HW315501   6.090   4.212   0.751 -0.2276 -1.3554  0.6200
 3932SOL    MW415502   6.084   4.189   0.667 -0.0319 -0.0509 -0.4574
 3933SOL     OW15503   3.777   0.604   5.369  0.4331  0.7915 -0.0501
 3933SOL    HW215504   3.827   0.575   5.445  1.2560  4.1813  0.8494
 3933SOL    HW315505   3.842   0.645   5.311  0.1474 -3.0338 -3.5741
 3933SOL    MW415506   3.792   0.605   5.371 -0.3090 -0.3446  0.0824
 3934SOL     OW15507   2.032   0.310   1.927 -0.0049 -0.4726 -0.5301
 3934SOL    HW215508   1.994   0.301   2.014  0.7726 -1.2461 -0.2570
 3934SOL    HW315509   2.114   0.261   1.931  0.2142 -0.2256 -1.5935
 3934SOL    MW415510   2.037   0.302   1.939 -0.6328 -0.4996  0.1821
 3935SOL     OW15511   1.161   4.779   3.061  0.0844  0.1777  0.1152
 3935SOL    HW215512   1.173   4.792   3.155 -0.4508  0.0766  0.2001
 3935SOL    HW315513   1.240   4.815   3.022  0.4768 -0.1117  0.6304
 3935SOL    MW415514   1.173   4.785   3.068 -0.3974  0.6571  0.5670
 3936SOL     OW15515   4.038   2.083   4.519 -0.1470 -0.6132 -0.4250
 3936SOL    HW215516   4.029   2.151   4.453  1.0423  0.9677  0.9364
 3936SOL    HW315517   4.024   2.129   4.602  2.9085 -1.4417  0.7026
 3936SOL    MW415518   4.035   2.098   4.522 -0.0327 -0.2636 -0.2626
 3937SOL     OW15519   5.659   4.838   5.913  0.1669  0.2570  0.1914
 3937SOL    HW215520   5.613   4.829   5.829  0.5309  0.3120 -0.0171
 3937SOL    HW315521   5.613   4.779   5.972  1.2089 -1.4272 -0.5923
 3937SOL    MW415522   5.647   4.829   5.909 -0.4818 -0.6739  0.2785
 3938SOL     OW15523   2.705   2.440   4.248 -0.6188  0.2805 -0.2573
 3938SOL    HW215524   2.747   2.362   4.283  0.4301  0.7636 -0.4211
 3938SOL    HW315525   2.776   2.494   4.214 -1.2857  1.4802  0.1729
 3938SOL    MW415526   2.720   2.437   4.248 -0.5187 -0.2842  0.0375
 3939SOL     OW15527   5.611   5.754   3.901 -0.0933 -0.0375  0.9123
 3939SOL    HW215528   5.576   5.677   3.855  0.6024  0.6521 -0.8432
 3939SOL    HW315529   5.705   5.735   3.909 -0.3956 -0.8450  3.5388
 3939SOL    MW415530   5.619   5.741   3.896  0.5732  0.0038 -0.5548
 3940SOL     OW15531   1.442   0.565   5.416 -0.3375 -0.2934 -0.4520
 3940SOL    HW215532   1.373   0.566   5.350 -1.6558  0.9176  0.8630
 3940SOL    HW315533   1.505   0.630   5.386 -1.0147  0.3783 -0.4336
 3940SOL    MW415534   1.441   0.573   5.403 -0.1375  0.2494 -0.0070
 3941SOL     OW15535   3.840   2.842   5.884  0.4793 -0.3320  0.3644
 3941SOL    HW215536   3.894   2.786   5.828 -1.0739 -0.0448 -1.5165
 3941SOL    HW315537   3.890   2.923   5.891  0.3406 -0.0655 -1.3456
 3941SOL    MW415538   3.854   2.845   5.878 -0.2167  0.0093  0.0232
 3942SOL     OW15539   3.828   1.955   5.262 -0.2912 -0.6376 -0.3372
 3942SOL    HW215540   3.924   1.960   5.267 -0.2640 -1.6334  2.7883
 3942SOL    HW315541   3.810   1.869   5.226  0.1586 -2.0235  2.4795
 3942SOL    MW415542   3.838   1.944   5.258  0.2230 -0.6930 -0.6148
 3943SOL     OW15543   1.845   0.895   2.162  0.3570 -0.6574 -0.1900
 3943SOL    HW215544   1.891   0.883   2.245 -0.1312 -0.6155  0.0896
 3943SOL    HW315545   1.866   0.985   2.136 -2.2171  0.5894  1.6198
 3943SOL    MW415546   1.854   0.905   2.169  0.2989  0.1086 -1.3407
 3944SOL     OW15547   2.228   1.236   3.309 -0.2932  0.5220  0.0869
 3944SOL    HW215548   2.182   1.193   3.381 -2.5569  0.5154 -1.2791
 3944SOL    HW315549   2.302   1.179   3.290 -0.2233  0.0204  1.7360
 3944SOL    MW415550   2.232   1.223   3.316  0.5033 -0.0507  0.2874
 3945SOL     OW15551   2.616   1.837   6.269 -0.5531  0.2202  0.2880
 3945SOL    HW215552   2.679   1.844   6.341 -0.4158 -0.2017  0.2089
 3945SOL    HW315553   2.534   1.866   6.307 -0.3448  0.6231  0.4376
 3945SOL    MW415554   2.614   1.842   6.284  0.4563 -0.2866 -0.4005
 3946SOL     OW15555   0.671   4.824   1.536 -0.0595  0.0897 -0.2992
 3946SOL    HW215556   0.740   4.781   1.587 -0.7945 -0.9047 -0.1195
 3946SOL    HW315557   0.616   4.867   1.601  0.3951  0.9205 -0.4459
 3946SOL    MW415558   0.673   4.824   1.551  0.3017  0.4510 -0.3553
 3947SOL     OW15559   2.457   4.830   5.545  0.5918  0.2417 -0.1022
 3947SOL    HW215560   2.458   4.883   5.625  1.3609  0.0158  0.0449
 3947SOL    HW315561   2.457   4.740   5.576 -0.0293  0.1487 -0.3587
 3947SOL    MW415562   2.457   4.825   5.559  0.3039 -0.1387  0.1070
 3948SOL     OW15563   3.777   3.551   1.242 -0.2525  0.2854  0.0210
 3948SOL    HW215564   3.848   3.569   1.181 -0.1753  1.1552  0.3611
 3948SOL    HW315565   3.819   3.545   1.328 -0.3898 -0.7227  0.0338
 3948SOL    MW415566   3.792   3.553   1.245 -0.9419  0.1173 -0.0547
 3949SOL     OW15567   3.061   6.047   3.945 -0.6822 -0.2940 -0.3502
 3949SOL    HW215568   3.003   6.086   3.879  0.0090  0.7790 -0.3509
 3949SOL    HW315569   3.149   6.062   3.910 -0.3605 -1.0860  0.0946
 3949SOL    MW415570   3.065   6.054   3.932 -0.2958  0.4961  0.1745
 3950SOL     OW15571   3.267   2.606   5.860  0.3855 -0.4429 -0.0293
 3950SOL    HW215572   3.275   2.639   5.949  0.2829  0.6437 -0.4113
 3950SOL    HW315573   3.341   2.643   5.813  1.6623 -2.6831  0.0607
 3950SOL    MW415574   3.278   2.615   5.866 -0.5283  0.1650 -0.2456
 3951SOL     OW15575   4.588   6.412   0.235  0.2516  0.4014  0.3781
 3951SOL    HW215576   4.555   6.324   0.256 -1.9550  0.9449 -0.5272
 3951SOL    HW315577   4.678   6.411   0.267  0.3201 -2.1910  0.3876
 3951SOL    MW415578   4.595   6.400   0.242  0.0096  0.5772 -0.5366
 3952SOL     OW15579   1.198   5.577   1.195  0.5580 -0.0812  0.1393
 3952SOL    HW215580   1.179   5.562   1.287 -2.7331 -0.9634 -0.5577
 3952SOL    HW315581   1.144   5.652   1.171  2.0332  0.7041 -0.9350
 3952SOL    MW415582   1.189   5.585   1.204  0.3926  0.2992  0.1336
 3953SOL     OW15583   3.625   5.085   1.514 -0.0274  0.5494 -0.9473
 3953SOL    HW215584   3.691   5.045   1.570 -2.3219  1.0638  2.4145
 3953SOL    HW315585   3.578   5.012   1.476 -0.0628  0.1055 -0.0818
 3953SOL    MW415586   3.628   5.070   1.517  0.0146 -0.7156 -0.6422
 3954SOL     OW15587   4.073   0.069   4.329 -0.0667 -0.3082  0.7633
 3954SOL    HW215588   4.138   0.053   4.397 -0.3583 -0.4196  1.0201
 3954SOL    HW315589   4.120   0.116   4.261  0.2336 -0.2159  1.0322
 3954SOL    MW415590   4.088   0.073   4.329  0.3887  0.3092 -0.0773
 3955SOL     OW15591   5.883   3.250   4.421  0.1483  0.4430 -0.0846
 3955SOL    HW215592   5.812   3.299   4.462 -0.5589  0.8885 -1.7279
 3955SOL    HW315593   5.916   3.309   4.353  0.4790 -0.6849 -0.9370
 3955SOL    MW415594   5.878   3.264   4.417  0.1354 -0.6733 -0.6828
 3956SOL     OW15595   3.645   2.397   1.817  0.1184  0.1867 -0.4291
 3956SOL    HW215596   3.635   2.336   1.890  0.0493 -0.4984 -1.0060
 3956SOL    HW315597   3.561   2.444   1.814  0.2783  0.5402  0.1993
 3956SOL    MW415598   3.632   2.395   1.827 -0.0832 -0.8383 -0.4113
 3957SOL     OW15599   4.644   6.034   2.361 -0.1048  0.0708  0.2247
 3957SOL    HW215600   4.617   6.065   2.274 -0.1627 -0.8004 -0.0848
 3957SOL    HW315601   4.573   5.977   2.389  0.1225 -0.0087  0.6473
 3957SOL    MW415602   4.631   6.030   2.353  0.0101 -0.2321  0.0931
 3958SOL     OW15603   4.253   5.928   0.351  0.3205 -0.0929  0.2316
 3958SOL    HW215604   4.183   5.870   0.382  1.1103 -1.4108 -0.3595
 3958SOL    HW315605   4.208   6.000   0.308 -0.6960 -0.2306  1.0244
 3958SOL    MW415606   4.238   5.930   0.350  0.2054  0.2916  0.0804
 3959SOL     OW15607   6.130   0.625   2.680  0.0190  0.2363  0.0687
 3959SOL    HW215608   6.062   0.692   2.677  2.1667  2.5818  0.4288
 3959SOL    HW315609   6.148   0.613   2.773 -1.9102 -2.7304  0.2209
 3959SOL    MW415610   6.123   0.632   2.692 -0.1573 -0.3867 -0.1174
 3960SOL     OW15611   6.210   4.696   3.953  0.3302 -0.6260  0.4249
 3960SOL    HW215612   6.261   4.735   3.883  0.4103  0.1930  0.9292
 3960SOL    HW315613   6.255   4.721   4.034  0.0943 -1.3295  0.7923
 3960SOL    MW415614   6.222   4.704   3.955 -0.0579 -0.0213 -0.7381
 3961SOL     OW15615   0.078   1.241   1.267  0.1609 -0.2502 -0.2965
 3961SOL    HW215616   0.028   1.265   1.188  1.1067  1.2889 -0.4702
 3961SOL    HW315617   0.106   1.151   1.251  0.3621  0.0459 -1.7385
 3961SOL    MW415618   0.075   1.232   1.254  0.5335 -0.4690  1.0296
 3962SOL     OW15619   0.935   1.229   6.064  0.0170 -0.3452 -0.1737
 3962SOL    HW215620   0.976   1.308   6.097 -0.6849 -0.1410  0.2410
 3962SOL    HW315621   0.983   1.157   6.106 -0.3125 -0.1021  0.6384
 3962SOL    MW415622   0.946   1.230   6.074 -0.4193  0.0481  0.1489
 3963SOL     OW15623   5.439   1.481   3.799  0.6498 -0.1618  0.7126
 3963SOL    HW215624   5.459   1.547   3.866  1.0196 -0.3056  0.7445
 3963SOL    HW315625   5.430   1.531   3.718 -1.5946  0.2537  1.1535
 3963SOL    MW415626   5.440   1.496   3.797  0.2091 -0.4303 -0.3364
 3964SOL     OW15627   0.123   3.068   5.884 -0.3836 -0.2761 -0.2509
 3964SOL    HW215628   0.177   3.046   5.960 -1.9178 -1.2140  0.6035
 3964SOL    HW315629   0.181   3.121   5.829  0.3351  1.7322  2.2353
 3964SOL    MW415630   0.138   3.072   5.887 -0.4947  0.1594 -0.3207
 3965SOL     OW15631   5.063   0.598   2.756 -0.3474 -0.1758 -0.0012
 3965SOL    HW215632   4.986   0.552   2.789 -0.2178 -0.0181  0.5222
 3965SOL    HW315633   5.129   0.529   2.745 -0.3216 -0.1958  0.2788
 3965SOL    MW415634   5.062   0.583   2.759  0.2208  0.1726  0.1993
 3966SOL     OW15635   6.252   0.167   0.437  0.5092 -0.0824  0.5722
 3966SOL    HW215636   6.293   0.246   0.401  0.2856  1.2412  2.9453
 3966SOL    HW315637   6.164   0.166   0.399  1.3711 -0.7188 -1.5053
 3966SOL    MW415638   6.245   0.178   0.427 -0.1072  0.3182  0.1766
 3967SOL     OW15639   0.063   3.970   5.072 -0.3384 -0.4604 -0.0368
 3967SOL    HW215640   0.064   3.991   4.979  1.3737 -0.3814 -0.0250
 3967SOL    HW315641   0.116   3.890   5.079 -3.3217 -2.5535  0.4468
 3967SOL    MW415642   0.070   3.962   5.061  0.0718  0.8480 -0.7030
 3968SOL     OW15643   4.795   1.297   5.252 -0.4073 -0.0278 -0.6047
 3968SOL    HW215644   4.789   1.307   5.157 -0.2895 -2.4763 -0.9535
 3968SOL    HW315645   4.887   1.275   5.268 -0.6046 -0.4683 -0.0405
 3968SOL    MW415646   4.807   1.295   5.242 -0.8016  0.3837 -0.1630
 3969SOL     OW15647   6.349   4.260   4.433  0.2821  0.3248  0.2870
 3969SOL    HW215648   6.263   4.295   4.457  0.5505  0.8688  0.5003
 3969SOL    HW315649   6.351   4.263   4.338  0.7124  2.0061  0.3022
 3969SOL    MW415650   6.338   4.265   4.424 -0.4075  0.2510 -0.5952
 3970SOL     OW15651   5.756   3.607   2.541 -0.7436  0.0042 -0.1239
 3970SOL    HW215652   5.813   3.646   2.475 -1.2452 -0.3511 -0.7872
 3970SOL    HW315653   5.685   3.567   2.490 -1.5460  0.3724  0.6727
 3970SOL    MW415654   5.754   3.607   2.526 -0.3347  0.1486 -0.3235
 3971SOL     OW15655   1.366   5.727   5.314  0.2122 -0.3345 -0.3075
 3971SOL    HW215656   1.297   5.788   5.337 -0.5160 -1.4853  0.6967
 3971SOL    HW315657   1.332   5.677   5.240  0.4403 -0.1587 -0.5370
 3971SOL    MW415658   1.353   5.728   5.307  0.2429 -0.0767 -0.0834
 3972SOL     OW15659   5.181   1.153   3.574  0.0441 -0.1193  0.0071
 3972SOL    HW215660   5.241   1.151   3.649  0.0594  1.7333  0.0945
 3972SOL    HW315661   5.094   1.159   3.612 -0.0181 -0.2287 -0.1179
 3972SOL    MW415662   5.178   1.154   3.589 -0.1192  0.0817  0.2708
 3973SOL     OW15663   1.567   6.303   0.135  0.2141 -0.0984  0.4503
 3973SOL    HW215664   1.658   6.281   0.114 -0.2168 -1.9594  0.2902
 3973SOL    HW315665   1.518   6.226   0.106 -1.4936  1.1216 -0.0345
 3973SOL    MW415666   1.573   6.290   0.128 -0.5378  0.0710  0.0823
 3974SOL     OW15667   4.257   2.347   5.617 -0.0749  0.1371 -0.9404
 3974SOL    HW215668   4.288   2.258   5.629 -2.7725 -0.9151 -1.1266
 3974SOL    HW315669   4.161   2.340   5.620 -0.6998  2.1870 -5.7908
 3974SOL    MW415670   4.248   2.335   5.619 -0.2920  0.3112 -0.1213
 3975SOL     OW15671   4.120   4.065   3.408  0.0398  0.7780  0.3705
 3975SOL    HW215672   4.153   4.033   3.492 -1.7840  0.8440  1.1601
 3975SOL    HW315673   4.172   4.019   3.342  1.5640  0.7817  1.5139
 3975SOL    MW415674   4.131   4.055   3.410 -0.1568  0.2761 -0.4532
 3976SOL     OW15675   3.916   6.370   3.917 -0.1112 -0.3121 -0.3878
 3976SOL    HW215676   3.941   6.432   3.848  0.2062 -1.3770 -1.2637
 3976SOL    HW315677   3.998   6.326   3.939  0.2378  1.3208  2.1118
 3976SOL    MW415678   3.930   6.373   3.911 -0.3297 -0.2405 -0.1442
 3977SOL     OW15679   4.712   4.271   4.900 -0.3390  0.2143 -0.1357
 3977SOL    HW215680   4.661   4.270   4.819 -1.2536  0.2403  0.4314
 3977SOL    HW315681   4.766   4.192   4.895 -1.8489 -0.8656  0.1379
 3977SOL    MW415682   4.713   4.261   4.889  0.0377  0.2842  0.3854
 3978SOL     OW15683   3.758   0.026   0.419 -0.1059  0.2268  0.3146
 3978SOL    HW215684   3.827   0.022   0.485 -0.1864 -1.1774  0.3560
 3978SOL    HW315685   3.796  -0.015   0.341 -0.7443 -0.2202  0.2210
 3978SOL    MW415686   3.772   0.020   0.417 -0.0041 -0.7497  0.1301
 3979SOL     OW15687   5.408   5.384   4.072 -0.0585  0.6053 -0.1807
 3979SOL    HW215688   5.497   5.352   4.058 -0.5544 -0.6072 -0.7235
 3979SOL    HW315689   5.369   5.385   3.984 -0.8948  0.1253  0.1736
 3979SOL    MW415690   5.415   5.380   4.058  0.2241 -0.0527  0.2082
 3980SOL     OW15691   1.310   3.323   4.234 -0.2897 -0.2289 -0.1436
 3980SOL    HW215692   1.315   3.373   4.316 -1.4469  1.8829 -1.2937
 3980SOL    HW315693   1.266   3.242   4.259  0.3091 -0.0947  1.5118
 3980SOL    MW415694   1.305   3.319   4.248  0.5033 -0.2117  0.3112
 3981SOL     OW15695   4.545   0.326   6.101 -0.3302 -0.8840 -0.8676
 3981SOL    HW215696   4.535   0.293   6.191 -2.1370  1.8427  0.0781
 3981SOL    HW315697   4.615   0.391   6.108  0.3493 -1.5010 -1.7529
 3981SOL    MW415698   4.553   0.330   6.114  0.5859 -0.6467  0.0244
 3982SOL     OW15699   3.588   0.915   3.980 -0.0417 -0.3723 -0.2605
 3982SOL    HW215700   3.660   0.862   4.015  0.9060  0.5725 -0.7205
 3982SOL    HW315701   3.614   1.006   3.997 -0.7791  0.0142 -1.0788
 3982SOL    MW415702   3.601   0.920   3.987  0.4268  0.1206  0.1844
 3983SOL     OW15703   1.593   3.636   3.525  0.3831 -0.4692  0.3275
 3983SOL    HW215704   1.600   3.701   3.595 -0.2693 -2.5153  2.3888
 3983SOL    HW315705   1.511   3.659   3.480  0.5435  0.5542  0.5221
 3983SOL    MW415706   1.583   3.648   3.528 -0.5858  0.7375  0.1617
 3984SOL     OW15707   0.273   2.459   5.453  0.0091 -0.0329  0.0578
 3984SOL    HW215708   0.238   2.504   5.376  0.2695 -0.2230 -0.1726
 3984SOL    HW315709   0.237   2.508   5.527 -0.4716 -0.0188 -0.1785
 3984SOL    MW415710   0.263   2.471   5.453  0.0126 -0.1292 -0.0927
 3985SOL     OW15711   6.186   2.053   3.349 -0.6038  0.5321 -0.3970
 3985SOL    HW215712   6.122   2.124   3.343  0.2210  1.1937 -1.9456
 3985SOL    HW315713   6.254   2.087   3.407 -0.3070  0.9439 -0.9785
 3985SOL    MW415714   6.187   2.067   3.356 -0.5684  0.0535  0.2544
 3986SOL     OW15715   4.701   2.185   4.118  0.1384  0.3459 -0.1839
 3986SOL    HW215716   4.707   2.272   4.156 -0.4295  0.4528 -0.3280
 3986SOL    HW315717   4.765   2.184   4.047  1.0362  0.2256  0.6160
 3986SOL    MW415718   4.710   2.196   4.114 -0.1124 -0.3339  0.6424
 3987SOL     OW15719   4.299   3.652   4.580  0.5004 -0.2521  0.4775
 3987SOL    HW215720   4.221   3.688   4.622 -0.2052 -1.2306  0.0415
 3987SOL    HW315721   4.278   3.560   4.564  0.9349 -0.0461 -1.5528
 3987SOL    MW415722   4.286   3.645   4.583 -0.4937 -0.6282 -0.7724
 3988SOL     OW15723   4.002   2.079   0.070  0.2664  0.3816  0.0645
 3988SOL    HW215724   3.945   2.152   0.047 -0.4308 -0.0636  0.3562
 3988SOL    HW315725   3.946   2.002   0.066  0.6545  0.0266  1.0977
 3988SOL    MW415726   3.987   2.079   0.067 -0.0604 -0.3834 -0.2427
 3989SOL     OW15727   1.956   0.496   4.948  0.2312  0.6702 -0.2464
 3989SOL    HW215728   1.895   0.491   4.875  2.2820 -1.6002 -1.9651
 3989SOL    HW315729   2.032   0.444   4.920  1.6828  0.7961  2.9779
 3989SOL    MW415730   1.958   0.489   4.935 -0.3331 -0.3972 -0.5049
 3990SOL     OW15731   4.975   2.346   2.593  0.6459 -0.2574  0.4820
 3990SOL    HW215732   4.924   2.267   2.578 -2.7882  1.7627  0.5006
 3990SOL    HW315733   5.023   2.328   2.674  1.7845 -3.0437 -0.6866
 3990SOL    MW415734   4.975   2.333   2.602  0.6728 -0.4723 -0.1363
 3991SOL     OW15735   1.445   1.281   0.044  0.1537  0.0083 -0.2905
 3991SOL    HW215736   1.489   1.258  -0.038 -0.0340 -0.7421 -0.1873
 3991SOL    HW315737   1.475   1.215   0.107  0.4185  0.6628  0.2966
 3991SOL    MW415738   1.455   1.269   0.042  0.4757 -0.5124  0.1726
 3992SOL     OW15739   1.587   4.533   6.223 -0.3431  0.0098 -0.6287
 3992SOL    HW215740   1.534   4.507   6.298 -1.1879 -0.6031 -1.3976
 3992SOL    HW315741   1.626   4.452   6.192  1.3576  0.5111  0.1271
 3992SOL    MW415742   1.585   4.519   6.229 -0.1367 -0.3195 -0.5492
 3993SOL     OW15743   5.060   5.934   3.585 -0.2483  0.1754  0.0736
 3993SOL    HW215744   5.041   5.906   3.496  0.4507  1.7545 -0.6180
 3993SOL    HW315745   4.978   5.970   3.618 -0.2555  0.4782 -0.2831
 3993SOL    MW415746   5.047   5.935   3.578 -0.3370 -0.2806 -0.2382
 3994SOL     OW15747   0.747   2.865   2.483  0.1977 -0.1327  0.0857
 3994SOL    HW215748   0.809   2.892   2.415  0.4703 -0.1763  0.3144
 3994SOL    HW315749   0.799   2.862   2.563  0.2691 -1.7124  0.0051
 3994SOL    MW415750   0.762   2.868   2.485  0.3346  0.1284  0.3991
 3995SOL     OW15751   0.658   3.394   3.497  0.1261 -0.4176 -0.7814
 3995SOL    HW215752   0.667   3.309   3.454 -1.2368 -1.0560  0.1066
 3995SOL    HW315753   0.606   3.375   3.575  0.4640  1.1120 -0.1572
 3995SOL    MW415754   0.652   3.380   3.502  0.5817  0.4296  0.0435
 3996SOL     OW15755   1.999   1.101   1.179  0.4531  0.2163  0.5090
 3996SOL    HW215756   1.932   1.036   1.161 -1.3901  2.4380 -1.3489
 3996SOL    HW315757   2.077   1.067   1.135 -0.4299 -0.7983 -0.3491
 3996SOL    MW415758   2.001   1.088   1.171 -0.4668  0.1549 -0.2835
 3997SOL     OW15759   6.162   5.077   3.770  0.2748 -0.3242 -0.3413
 3997SOL    HW215760   6.150   5.064   3.864  1.1735  1.3300  0.0358
 3997SOL    HW315761   6.078   5.112   3.740  0.3614  0.2347  0.0645
 3997SOL    MW415762   6.149   5.080   3.779 -0.3624  0.0886  0.1593
 3998SOL     OW15763   2.797   5.291   6.006  0.5703  0.0599  0.5485
 3998SOL    HW215764   2.869   5.290   6.070  1.6657  2.1018 -0.5576
 3998SOL    HW315765   2.814   5.215   5.950  1.6446  0.2736  0.5637
 3998SOL    MW415766   2.809   5.281   6.007  0.3149 -0.3681 -0.3164
 3999SOL     OW15767   5.455   3.628   2.012 -0.0067  0.0134  0.3799
 3999SOL    HW215768   5.534   3.682   2.012  0.5712 -0.7239 -1.6730
 3999SOL    HW315769   5.383   3.690   1.999  0.3517  0.5584  0.9683
 3999SOL    MW415770   5.456   3.643   2.010  0.4752 -0.0711 -0.5291
 4000SOL     OW15771   0.542   6.243   0.306  0.5133 -0.5851  0.2014
 4000SOL    HW215772   0.529   6.149   0.296 -0.8780 -0.7655  2.7716
 4000SOL    HW315773   0.486   6.283   0.240 -1.5069 -1.5938  1.2160
 4000SOL    MW415774   0.533   6.236   0.296 -0.0396  0.0184 -0.2438
 4001SOL     OW15775   4.880   3.852   6.110  0.0770  0.5542  0.2797
 4001SOL    HW215776   4.920   3.831   6.026 -0.1366  0.8720  0.0968
 4001SOL    HW315777   4.852   3.943   6.101 -0.5953  0.3681  0.4364
 4001SOL    MW415778   4.882   3.862   6.098  0.1389  0.0399  0.3615
 4002SOL     OW15779   5.416   2.419   2.424 -0.2046 -0.5197  0.4917
 4002SOL    HW215780   5.353   2.348   2.438 -1.4097  0.3310 -0.3493
 4002SOL    HW315781   5.485   2.379   2.371  0.5095 -1.7281  2.2652
 4002SOL    MW415782   5.416   2.404   2.419 -0.5426  0.2444 -0.1318
 4003SOL     OW15783   5.719   3.170   5.461  0.4682  0.4798  0.2058
 4003SOL    HW215784   5.777   3.219   5.402  2.0331 -1.2049  0.2499
 4003SOL    HW315785   5.767   3.167   5.544 -0.6757  0.8551  0.9114
 4003SOL    MW415786   5.733   3.176   5.465  0.3486 -0.7455  0.4048
 4004SOL     OW15787   1.453   0.242   1.536 -0.2974 -0.1779  0.0788
 4004SOL    HW215788   1.454   0.275   1.446 -0.1291 -1.0434 -0.2483
 4004SOL    HW315789   1.395   0.302   1.584  0.1209  0.6678 -0.4554
 4004SOL    MW415790   1.446   0.255   1.531  0.2845 -0.2213  0.9170
 4005SOL     OW15791   5.356   6.110   3.109 -0.0044  0.0491 -0.1249
 4005SOL    HW215792   5.393   6.022   3.108  1.0072  0.4105  1.3432
 4005SOL    HW315793   5.261   6.096   3.105  0.1724 -1.0210 -1.2018
 4005SOL    MW415794   5.348   6.097   3.109  0.2637  0.4393  0.6499
 4006SOL     OW15795   5.854   6.377   4.923 -0.0823 -0.1480 -0.0266
 4006SOL    HW215796   5.873   6.437   4.850 -0.9756  0.8700  0.5536
 4006SOL    HW315797   5.787   6.422   4.974 -0.2380 -1.3311  0.8417
 4006SOL    MW415798   5.848   6.391   4.920 -0.2234 -0.1954 -0.4603
 4007SOL     OW15799   5.110   4.470   1.426 -0.1303 -0.2408  0.5329
 4007SOL    HW215800   5.021   4.465   1.393  0.3363 -1.1351 -0.6386
 4007SOL    HW315801   5.106   4.426   1.511 -1.0174  0.7031  1.0013
 4007SOL    MW415802   5.098   4.464   1.433  0.6175 -0.0362 -0.1395
 4008SOL     OW15803   0.595   0.244   0.630 -0.5101 -0.5631  0.5936
 4008SOL    HW215804   0.589   0.167   0.574  0.6551  1.4661 -2.6053
 4008SOL    HW315805   0.689   0.264   0.631 -0.8294  0.9847  1.0916
 4008SOL    MW415806   0.607   0.236   0.623 -0.3892 -0.6168 -0.5793
 4009SOL     OW15807   5.221   3.897   0.607  0.3569 -0.0415 -0.1003
 4009SOL    HW215808   5.175   3.863   0.684  2.4266 -0.7132  0.9318
 4009SOL    HW315809   5.263   3.978   0.637  0.8793 -0.1065 -0.6228
 4009SOL    MW415810   5.221   3.903   0.621  0.4106  0.1693  0.4986
 4010SOL     OW15811   2.406   6.136   0.087 -0.0284  0.3937 -0.1213
 4010SOL    HW215812   2.439   6.066   0.144 -0.0298  0.4373 -0.0663
 4010SOL    HW315813   2.439   6.114  -0.000  0.6566  0.7608  0.0378
 4010SOL    MW415814   2.415   6.124   0.083  0.1732  0.0256 -0.0168
 4011SOL     OW15815   2.965   3.122   3.258  0.2573 -0.1131  0.8125
 4011SOL    HW215816   2.950   3.194   3.319 -3.2095 -0.0433  0.1000
 4011SOL    HW315817   3.035   3.152   3.201  1.2451  1.2128  2.6241
 4011SOL    MW415818   2.972   3.135   3.259 -0.3410 -0.0143  0.9809
 4012SOL     OW15819   1.776   0.509   2.404  0.8531  0.3502  0.7098
 4012SOL    HW215820   1.862   0.479   2.432  0.5558 -1.0407  0.2153
 4012SOL    HW315821   1.787   0.530   2.311  1.3423  3.0104  1.2869
 4012SOL    MW415822   1.788   0.508   2.396  0.4461 -0.0114  0.1945
 4013SOL     OW15823   3.120   2.066   4.202  0.3012  0.7138 -0.0653
 4013SOL    HW215824   3.137   2.014   4.280 -1.5268  0.4723  0.2216
 4013SOL    HW315825   3.028   2.049   4.182  0.6695  0.9506 -2.1508
 4013SOL    MW415826   3.110   2.057   4.210 -0.1898  0.3345  0.6530
 4014SOL     OW15827   6.228   2.911   4.233  0.0332 -0.0696 -0.5686
 4014SOL    HW215828   6.154   2.967   4.209  1.0793  1.7639  0.2076
 4014SOL    HW315829   6.206   2.880   4.322  0.4962  1.0859 -0.0307
 4014SOL    MW415830   6.215   2.914   4.242 -0.1423  0.2596  0.1871
 4015SOL     OW15831   2.569   6.155   4.184  0.1721  0.6558 -0.2132
 4015SOL    HW215832   2.527   6.163   4.099 -0.5747 -1.1755 -0.0375
 4015SOL    HW315833   2.565   6.062   4.206  2.7110  0.6556  0.6384
 4015SOL    MW415834   2.563   6.144   4.176 -0.3798 -0.4838  0.3772
 4016SOL     OW15835   2.175   2.181   5.074  0.5593  0.2430 -0.5128
 4016SOL    HW215836   2.210   2.216   4.992  0.8639  1.7762  0.2396
 4016SOL    HW315837   2.236   2.212   5.141  0.6923 -1.5326  0.2536
 4016SOL    MW415838   2.188   2.189   5.072  1.0414  0.1130 -0.4085
 4017SOL     OW15839   2.589   0.679   4.872  0.2962  0.0375 -0.0440
 4017SOL    HW215840   2.543   0.621   4.812  1.5923 -0.7588 -0.3289
 4017SOL    HW315841   2.590   0.764   4.828 -0.6442 -0.0032 -0.1500
 4017SOL    MW415842   2.583   0.682   4.858 -0.2975  0.5595 -0.0468
 4018SOL     OW15843   3.474   3.449   6.067  0.2859 -0.2667 -0.0504
 4018SOL    HW215844   3.519   3.438   6.150  0.6286 -1.8606 -0.4169
 4018SOL    HW315845   3.390   3.404   6.078  0.2408 -0.3030 -0.4890
 4018SOL    MW415846   3.469   3.442   6.079 -0.6385 -0.6564  0.6186
 4019SOL     OW15847   2.076   0.118   0.694 -0.4892 -0.0527 -0.1964
 4019SOL    HW215848   2.124   0.035   0.692  2.0217  1.2975 -0.6716
 4019SOL    HW315849   2.139   0.181   0.729 -2.0751  1.7965 -0.5191
 4019SOL    MW415850   2.091   0.115   0.698 -0.0473  0.1923 -0.0655
 4020SOL     OW15851   5.840   0.290   0.025  0.1602 -0.3686  0.3483
 4020SOL    HW215852   5.768   0.341  -0.012  0.4239  0.7891  1.3743
 4020SOL    HW315853   5.880   0.247  -0.051 -0.8616 -0.0752 -0.3802
 4020SOL    MW415854   5.836   0.291   0.010  0.0825 -0.8322  0.4115
 4021SOL     OW15855   0.857   4.892   3.572 -0.2697 -0.7534  0.0672
 4021SOL    HW215856   0.947   4.923   3.559  0.4970 -2.6927  0.4217
 4021SOL    HW315857   0.817   4.958   3.628  0.7938  0.3596 -0.4258
 4021SOL    MW415858   0.864   4.905   3.578 -0.0907  0.2764  0.4735
 4022SOL     OW15859   4.108   3.278   3.861 -0.1857 -0.0584  0.1204
 4022SOL    HW215860   4.121   3.373   3.867  0.3386 -0.1470  0.4321
 4022SOL    HW315861   4.190   3.241   3.893 -1.3901 -0.6355  2.8156
 4022SOL    MW415862   4.120   3.286   3.866  0.5136 -0.3051 -0.6715
 4023SOL     OW15863   4.375   5.284   5.490 -0.1215 -0.3576  0.6458
 4023SOL    HW215864   4.435   5.292   5.564  1.6649  0.9939 -0.8582
 4023SOL    HW315865   4.431   5.284   5.413 -1.9420 -1.3015 -0.7660
 4023SOL    MW415866   4.390   5.285   5.490 -0.0927 -0.1338  0.1056
 4024SOL     OW15867   5.174   5.205   2.847 -0.1120 -0.5547  0.0140
 4024SOL    HW215868   5.182   5.187   2.754  0.6679  1.3498 -0.3223
 4024SOL    HW315869   5.240   5.150   2.888  1.5097  0.6708 -0.8688
 4024SOL    MW415870   5.184   5.195   2.840 -0.0117 -0.2390  0.1577
 4025SOL     OW15871   3.067   5.990   4.695  0.1770 -0.1284  0.2132
 4025SOL    HW215872   3.117   5.975   4.775  0.7573  0.8337  0.0508
 4025SOL    HW315873   3.094   6.078   4.666 -0.0105 -0.4581 -1.0378
 4025SOL    MW415874   3.077   6.000   4.702 -0.8305 -0.0954  0.0268
 4026SOL     OW15875   2.546   2.255   3.394  0.0761 -0.3729  0.1969
 4026SOL    HW215876   2.634   2.291   3.402 -0.1343  0.7986 -2.0676
 4026SOL    HW315877   2.501   2.284   3.474  1.1370  0.8200  0.3873
 4026SOL    MW415878   2.552   2.264   3.406  0.3099  0.0549  0.5422
 4027SOL     OW15879   6.075   1.726   1.763 -0.0531 -0.4171  0.2462
 4027SOL    HW215880   6.135   1.723   1.838  0.5308  1.7714 -0.0741
 4027SOL    HW315881   5.999   1.675   1.792  1.4048 -2.2376  1.1214
 4027SOL    MW415882   6.073   1.719   1.777 -0.0001 -0.1939 -0.4846
 4028SOL     OW15883   3.758   3.691   4.132  0.0645  0.0372  0.2927
 4028SOL    HW215884   3.709   3.762   4.090 -1.9586 -0.3367  1.8140
 4028SOL    HW315885   3.780   3.631   4.061 -1.7684  0.2346 -0.4930
 4028SOL    MW415886   3.754   3.693   4.117 -0.3660 -0.0218 -0.4961
 4029SOL     OW15887   2.983   1.478   4.541  0.3176  0.3030 -0.5708
 4029SOL    HW215888   2.979   1.492   4.446 -0.0934 -2.0767 -0.9753
 4029SOL    HW315889   2.998   1.384   4.550 -1.4996  0.1572  1.7587
 4029SOL    MW415890   2.985   1.467   4.530 -0.5144 -0.4451 -0.2722
 4030SOL     OW15891   2.435   6.062   6.235  0.1628 -0.1357  0.6271
 4030SOL    HW215892   2.387   5.983   6.209  0.9055  0.2485 -2.1910
 4030SOL    HW315893   2.527   6.039   6.222  0.3934  1.1439 -0.2051
 4030SOL    MW415894   2.441   6.048   6.230  0.4536  0.1302 -0.7602
 4031SOL     OW15895   5.563   1.122   4.991  0.2775 -0.0427 -0.2148
 4031SOL    HW215896   5.478   1.111   5.034 -0.5663 -0.8919 -1.9940
 4031SOL    HW315897   5.626   1.086   5.053 -0.9900 -2.0395  0.0094
 4031SOL    MW415898   5.560   1.116   5.005  0.0536  0.5753  0.1714
 4032SOL     OW15899   5.176   0.426   1.415  0.6393 -0.0631 -0.0851
 4032SOL    HW215900   5.226   0.506   1.399  1.3465 -0.5600 -0.4013
 4032SOL    HW315901   5.129   0.443   1.497  0.9584  0.5845 -0.0298
 4032SOL    MW415902   5.176   0.439   1.424 -0.2740 -0.2714 -0.0722
 4033SOL     OW15903   5.770   2.810   1.941  0.1557  0.5012 -0.3365
 4033SOL    HW215904   5.862   2.788   1.926  0.2875  0.1626  0.8700
 4033SOL    HW315905   5.746   2.864   1.865  0.9396 -0.5369 -1.3592
 4033SOL    MW415906   5.779   2.814   1.929 -0.0513  0.0070  0.4131
 4034SOL     OW15907   2.668   4.285   1.829  0.5882  0.2051  0.3322
 4034SOL    HW215908   2.610   4.327   1.765 -2.0324 -2.4748  0.7225
 4034SOL    HW315909   2.652   4.332   1.911 -0.5644 -0.0650  0.2750
 4034SOL    MW415910   2.658   4.297   1.831 -0.0223 -0.0864 -0.5826
 4035SOL     OW15911   1.939   1.250   4.940  0.7158 -0.0294 -0.4039
 4035SOL    HW215912   1.946   1.164   4.900 -1.4193 -0.6267  0.3482
 4035SOL    HW315913   1.944   1.233   5.034  0.0991  0.6288 -0.2407
 4035SOL    MW415914   1.940   1.237   4.947  0.3263 -0.7863  0.1863
 4036SOL     OW15915   0.239   2.947   3.045  0.1998  0.1052 -0.4064
 4036SOL    HW215916   0.194   2.939   2.960 -0.0977  1.0935 -0.3474
 4036SOL    HW315917   0.169   2.933   3.109  0.2839  0.0972 -0.3176
 4036SOL    MW415918   0.224   2.944   3.042 -0.6138 -0.5524 -0.5351
 4037SOL     OW15919   1.076   0.349   5.102 -0.2404  0.3859  0.5108
 4037SOL    HW215920   1.041   0.436   5.123  4.0458  2.5308 -0.1830
 4037SOL    HW315921   1.087   0.307   5.187 -0.9428  1.1118  0.9794
 4037SOL    MW415922   1.073   0.355   5.116  0.2406  0.1228 -0.1565
 4038SOL     OW15923   5.047   6.224   4.241  0.3156 -0.2326 -0.3431
 4038SOL    HW215924   5.131   6.214   4.197  0.1259  0.5749 -0.9090
 4038SOL    HW315925   4.982   6.212   4.172  0.0323  1.9069 -0.5270
 4038SOL    MW415926   5.049   6.221   4.226 -0.0947  0.2077  0.1520
 4039SOL     OW15927   2.486   0.143   6.251  0.8061 -0.2401 -0.0658
 4039SOL    HW215928   2.522   0.213   6.196  0.9757  0.8963  1.4228
 4039SOL    HW315929   2.502   0.173   6.340 -1.9302 -0.6868  0.6609
 4039SOL    MW415930   2.493   0.156   6.255 -0.5354  0.2749  0.5744
 4040SOL     OW15931   3.333   5.257   1.035  0.6398  0.6759  0.2911
 4040SOL    HW215932   3.280   5.178   1.028 -0.2935  1.2433  0.7985
 4040SOL    HW315933   3.321   5.301   0.951  1.8921 -0.1404 -0.3530
 4040SOL    MW415934   3.324   5.252   1.023 -0.1214  0.5188 -0.6086
 4041SOL     OW15935   1.042   5.363   0.602  0.7663 -0.5860 -0.2174
 4041SOL    HW215936   0.958   5.408   0.596  0.4259 -0.7492  2.2864
 4041SOL    HW315937   1.095   5.419   0.658  2.1504 -0.8047 -1.2502
 4041SOL    MW415938   1.038   5.376   0.608 -0.4664 -0.0932  0.0369
 4042SOL     OW15939   5.026   1.450   0.358 -0.7722  0.1488  0.0449
 4042SOL    HW215940   5.028   1.356   0.340 -1.5786  0.3834 -1.4208
 4042SOL    HW315941   5.025   1.456   0.453  0.7381 -1.2794  0.1991
 4042SOL    MW415942   5.026   1.438   0.368  0.2604  0.7048 -0.0413
 4043SOL     OW15943   0.609   6.039   5.762 -1.0094  0.1726  0.6628
 4043SOL    HW215944   0.609   6.135   5.769  0.1934  0.3290 -0.8905
 4043SOL    HW315945   0.517   6.015   5.776 -1.3793  1.5698  0.8654
 4043SOL    MW415946   0.597   6.049   5.765  0.1866  0.1499 -0.7460
 4044SOL     OW15947   2.528   1.579   2.864 -0.0493 -0.2935 -0.4558
 4044SOL    HW215948   2.484   1.505   2.906  0.3662 -0.1911  0.1759
 4044SOL    HW315949   2.483   1.656   2.899 -2.4053 -0.2459 -3.2473
 4044SOL    MW415950   2.516   1.579   2.874 -0.2312  0.2618 -0.0123
 4045SOL     OW15951   4.826   5.271   1.762 -0.5489  0.1766 -0.3442
 4045SOL    HW215952   4.764   5.276   1.689  0.6087 -2.0508 -1.5947
 4045SOL    HW315953   4.795   5.198   1.815 -0.0404  0.2470  0.0569
 4045SOL    MW415954   4.814   5.262   1.759 -0.4974 -0.4901  0.2536
 4046SOL     OW15955   0.518   2.121   2.101  0.1207  0.4123  0.3517
 4046SOL    HW215956   0.483   2.137   2.013 -2.3648  0.3314  1.2510
 4046SOL    HW315957   0.450   2.072   2.146  0.1789  2.5956  3.1193
 4046SOL    MW415958   0.505   2.117   2.095  0.0584  0.2244  0.0668
 4047SOL     OW15959   5.515   3.756   5.632 -0.2533  0.2111  0.0133
 4047SOL    HW215960   5.523   3.851   5.629 -0.2916  0.3843  3.0260
 4047SOL    HW315961   5.605   3.724   5.637  0.1547 -0.3568 -5.0555
 4047SOL    MW415962   5.527   3.764   5.632  0.2283 -0.3096 -0.8707
 4048SOL     OW15963   0.305   0.919   2.484  0.8034 -0.0882  0.1936
 4048SOL    HW215964   0.395   0.889   2.471  0.5484 -0.0791 -2.0873
 4048SOL    HW315965   0.282   0.962   2.401 -1.9915 -1.9033 -0.1224
 4048SOL    MW415966   0.314   0.921   2.471 -0.0510 -0.9303  0.7027
 4049SOL     OW15967   6.369   5.026   5.059 -0.2227  0.3838  0.0911
 4049SOL    HW215968   6.423   5.083   5.113 -0.8441  0.7848  0.3044
 4049SOL    HW315969   6.293   5.079   5.036 -0.6350 -0.2334 -0.0220
 4049SOL    MW415970   6.366   5.040   5.063 -0.3277 -0.1548 -0.3062
 4050SOL     OW15971   3.681   4.574   1.518 -0.0756  0.0639  0.1174
 4050SOL    HW215972   3.640   4.524   1.447 -0.3429 -0.4797  0.6541
 4050SOL    HW315973   3.744   4.630   1.473 -0.1872 -0.3250 -0.5467
 4050SOL    MW415974   3.684   4.575   1.503  0.4269 -0.0131  0.7928
 4051SOL     OW15975   3.387   1.120   4.867 -0.5726 -0.8098 -0.3491
 4051SOL    HW215976   3.347   1.117   4.954 -0.5020  0.9679 -0.2177
 4051SOL    HW315977   3.410   1.212   4.854  1.8848 -1.4544 -1.1609
 4051SOL    MW415978   3.385   1.132   4.877 -0.4981 -0.3657 -0.5928
 4052SOL     OW15979   4.917   6.317   4.934  0.0407 -0.1254  0.2995
 4052SOL    HW215980   4.844   6.283   4.882  2.1369 -2.0560 -1.6012
 4052SOL    HW315981   4.989   6.255   4.918  2.9150  3.0091 -0.0581
 4052SOL    MW415982   4.917   6.304   4.925  0.2317  0.4540  0.0513
 4053SOL     OW15983   1.629   6.039   1.664 -0.2524 -0.1058 -0.5839
 4053SOL    HW215984   1.612   5.952   1.700 -1.4571 -0.0349 -0.9311
 4053SOL    HW315985   1.561   6.050   1.597  1.4598  0.0419 -2.4087
 4053SOL    MW415986   1.618   6.029   1.660 -0.2110  0.0097  0.2138
 4054SOL     OW15987   2.784   6.067   4.920 -0.4590 -0.0194  0.3635
 4054SOL    HW215988   2.842   6.119   4.864 -1.2708  0.8374  0.2711
 4054SOL    HW315989   2.714   6.039   4.861 -0.2829 -0.8153  0.5284
 4054SOL    MW415990   2.782   6.070   4.904  0.3530 -0.6449  0.2186
 4055SOL     OW15991   3.851   2.870   2.566 -0.4882 -0.2671  0.1655
 4055SOL    HW215992   3.866   2.825   2.483 -1.7669  0.5625 -0.5395
 4055SOL    HW315993   3.868   2.803   2.632  5.2640  0.1853 -0.3917
 4055SOL    MW415994   3.855   2.855   2.564 -0.6299 -0.4736  0.0425
 4056SOL     OW15995   2.207   0.210   4.166  0.8340  0.6465  0.1755
 4056SOL    HW215996   2.210   0.132   4.112 -1.5632 -0.4736  1.5113
 4056SOL    HW315997   2.123   0.251   4.145  1.9118  2.8110 -0.3163
 4056SOL    MW415998   2.196   0.205   4.156 -0.5922 -0.1416  0.2806
 4057SOL     OW15999   5.181   4.983   0.449  0.1063  0.1748 -0.0267
 4057SOL    HW216000   5.158   4.896   0.415  1.5463 -0.7705  1.2994
 4057SOL    HW316001   5.102   5.035   0.434 -1.1938 -1.6338  0.1133
 4057SOL    MW416002   5.167   4.978   0.442  0.3828 -0.4528  0.2291
 4058SOL     OW16003   6.335   0.064   5.225 -0.1418  0.0578 -0.6652
 4058SOL    HW216004   6.357   0.110   5.306 -0.0315  0.8621 -1.1423
 4058SOL    HW316005   6.266   0.002   5.251 -0.3785  0.5752 -0.0288
 4058SOL    MW416006   6.329   0.062   5.239 -0.5082 -0.4586 -0.4471
 4059SOL     OW16007   2.847   1.579   3.704 -0.5695  0.1189  0.2598
 4059SOL    HW216008   2.849   1.670   3.735  2.1976 -0.1942  1.3167
 4059SOL    HW316009   2.897   1.531   3.770 -2.9010 -2.4436  0.3414
 4059SOL    MW416010   2.853   1.585   3.717 -0.3257  0.3626  0.0496
 4060SOL     OW16011   0.948   2.152   3.624  0.5899 -0.5181 -0.2708
 4060SOL    HW216012   0.865   2.146   3.578 -0.8495 -1.3837  2.2556
 4060SOL    HW316013   0.969   2.062   3.650  1.9854 -0.2303 -0.2842
 4060SOL    MW416014   0.940   2.140   3.621  1.1760 -0.6232  0.6697
 4061SOL     OW16015   0.701   4.793   2.402  0.3978  0.3754  0.3007
 4061SOL    HW216016   0.755   4.872   2.407  0.5035  0.2857  0.6011
 4061SOL    HW316017   0.628   4.810   2.462  0.7648 -0.0134  0.8772
 4061SOL    MW416018   0.698   4.806   2.411 -0.3980 -0.1536 -0.3206
 4062SOL     OW16019   4.031   4.257   0.610  0.3652 -0.1227  0.4279
 4062SOL    HW216020   4.054   4.177   0.562  0.8850  0.1329  0.2453
 4062SOL    HW316021   4.003   4.318   0.542 -1.6117 -0.6609  0.7028
 4062SOL    MW416022   4.030   4.254   0.594 -0.6581  0.0133 -0.2050
 4063SOL     OW16023   0.689   5.210   0.577  0.4448  0.4134  0.1572
 4063SOL    HW216024   0.731   5.135   0.620 -1.2465 -0.6782  0.0164
 4063SOL    HW316025   0.605   5.219   0.622  0.5325  2.1426  0.0389
 4063SOL    MW416026   0.683   5.201   0.589  0.5382  0.4508  0.4002
 4064SOL     OW16027   1.486   2.642   5.938 -0.3032 -0.0141  0.1648
 4064SOL    HW216028   1.537   2.567   5.969 -0.7304 -0.4096 -0.0845
 4064SOL    HW316029   1.533   2.719   5.973  1.2808 -0.2893 -1.2441
 4064SOL    MW416030   1.499   2.643   5.947  0.1371  0.4216  0.4142
 4065SOL     OW16031   5.929   0.359   3.531 -0.1015  0.3517 -0.3502
 4065SOL    HW216032   5.984   0.299   3.581 -1.2556 -0.6583 -0.2430
 4065SOL    HW316033   5.979   0.440   3.527  0.2433  0.3158  2.0291
 4065SOL    MW416034   5.943   0.362   3.537  0.3094  0.4763  0.1305
 4066SOL     OW16035   6.070   0.409   4.842 -0.7480  0.3426 -0.1534
 4066SOL    HW216036   6.016   0.481   4.809 -1.5538 -0.5816 -0.9323
 4066SOL    HW316037   6.158   0.427   4.809 -0.9873  0.8601 -0.5132
 4066SOL    MW416038   6.074   0.421   4.833  0.7589 -0.4863  0.1071
 4067SOL     OW16039   0.467   5.820   0.507  0.1992  0.2859  0.0405
 4067SOL    HW216040   0.487   5.754   0.572  0.2935 -0.1213 -0.3987
 4067SOL    HW316041   0.432   5.894   0.558  1.4416  0.4596  0.6651
 4067SOL    MW416042   0.465   5.821   0.522  0.3965  0.2357  0.1910
 4068SOL     OW16043   6.138   4.997   3.456 -0.0641 -0.1033 -0.2082
 4068SOL    HW216044   6.091   5.075   3.425 -0.8538  0.3423  1.8901
 4068SOL    HW316045   6.205   5.032   3.514  1.4271 -0.8801 -1.4011
 4068SOL    MW416046   6.141   5.012   3.460  0.8409 -0.1255  0.0734
 4069SOL     OW16047   4.012   1.500   3.748 -0.7793  0.1732 -0.0820
 4069SOL    HW216048   4.039   1.587   3.778 -2.5222  1.0069 -0.7856
 4069SOL    HW316049   3.993   1.451   3.828 -1.6588  1.0990  0.3026
 4069SOL    MW416050   4.013   1.505   3.762 -0.4431 -0.3874 -0.6391
 4070SOL     OW16051   5.090   5.809   2.956  0.3217  0.0467 -0.2291
 4070SOL    HW216052   5.003   5.769   2.961  1.8339 -3.5530  0.8853
 4070SOL    HW316053   5.107   5.817   2.862 -1.1486  0.7242 -0.4631
 4070SOL    MW416054   5.080   5.805   2.944 -0.6482  0.4045 -0.3588
 4071SOL     OW16055   1.957   3.458   0.211  0.3041  0.4376  0.5406
 4071SOL    HW216056   2.019   3.427   0.277 -0.3650  2.4904  2.2402
 4071SOL    HW316057   2.011   3.505   0.148  0.8534 -0.7961  0.0668
 4071SOL    MW416058   1.972   3.460   0.212 -0.6601  0.2637 -0.2878
 4072SOL     OW16059   0.032   4.892   0.045  0.4707 -0.0620 -0.6974
 4072SOL    HW216060   0.052   4.984   0.030 -0.3785  0.5800  1.7254
 4072SOL    HW316061   0.075   4.871   0.128 -0.6241 -1.4079 -0.4289
 4072SOL    MW416062   0.041   4.901   0.054  0.4750  0.6241 -0.5138
 4073SOL     OW16063   0.374   0.137   3.650  0.6363  0.3104  0.6173
 4073SOL    HW216064   0.383   0.084   3.570  0.1400  0.4637  0.4589
 4073SOL    HW316065   0.280   0.139   3.667  0.8293 -0.8649  1.9869
 4073SOL    MW416066   0.363   0.130   3.641 -0.0243  0.4676  0.7442
 4074SOL     OW16067   3.823   4.766   1.365  0.3216 -0.2844  0.5170
 4074SOL    HW216068   3.812   4.848   1.317  1.5293  0.5274  1.5441
 4074SOL    HW316069   3.860   4.793   1.449 -0.7102 -1.7583  1.4748
 4074SOL    MW416070   3.827   4.781   1.370  0.7606 -1.0604 -0.5906
 4075SOL     OW16071   4.344   4.110   2.513  0.0049 -0.0757 -0.3044
 4075SOL    HW216072   4.257   4.096   2.552  1.1207  0.9204  2.8835
 4075SOL    HW316073   4.371   4.024   2.484 -1.0682 -0.8876  0.9680
 4075SOL    MW416074   4.336   4.097   2.514  0.0788 -0.1992 -0.0227
 4076SOL     OW16075   4.293   4.161   2.051  0.4986  0.3596  0.3087
 4076SOL    HW216076   4.269   4.207   2.131  1.1598  0.3975  0.4898
 4076SOL    HW316077   4.347   4.224   2.003 -0.5243  0.6285 -0.5317
 4076SOL    MW416078   4.297   4.176   2.055  0.0623 -0.3786 -0.7719
 4077SOL     OW16079   1.981   2.265   4.211 -0.1918 -0.0544 -0.1192
 4077SOL    HW216080   1.974   2.212   4.132  0.6935 -1.4329  0.6924
 4077SOL    HW316081   1.922   2.224   4.274  0.3723  0.0093  0.4687
 4077SOL    MW416082   1.972   2.253   4.209 -0.6311  0.2696  0.1646
 4078SOL     OW16083   2.185   4.319   3.955  0.0206  0.4785 -0.5222
 4078SOL    HW216084   2.114   4.297   4.015  1.4158 -1.5833  0.4850
 4078SOL    HW316085   2.177   4.414   3.942 -1.5261  0.6681  1.3390
 4078SOL    MW416086   2.175   4.329   3.961  0.2551 -0.1935  0.7897
 4079SOL     OW16087   3.397   2.566   5.375  0.2466  0.3095 -0.8536
 4079SOL    HW216088   3.469   2.626   5.396  0.3477 -0.4384  1.2573
 4079SOL    HW316089   3.318   2.615   5.396  0.3056 -0.0062  0.1878
 4079SOL    MW416090   3.396   2.580   5.381 -0.4920 -0.3580  0.0075
 4080SOL     OW16091   6.083   2.269   5.012  0.0535 -0.0836 -0.3926
 4080SOL    HW216092   6.146   2.222   4.956 -0.8883 -2.0622  0.1022
 4080SOL    HW316093   6.101   2.361   4.996  1.4420 -0.5864 -2.1161
 4080SOL    MW416094   6.093   2.275   5.002 -0.5144  0.1096 -0.0417
 4081SOL     OW16095   0.865   0.053   3.752 -0.1599 -0.9580  0.3605
 4081SOL    HW216096   0.778   0.012   3.752 -1.3037  1.3078  1.2040
 4081SOL    HW316097   0.881   0.073   3.844  0.2516  0.6047 -0.0285
 4081SOL    MW416098   0.855   0.050   3.764  0.4225  0.0254 -0.1430
 4082SOL     OW16099   1.188   2.893   4.028  0.2720 -0.5406  0.3627
 4082SOL    HW216100   1.196   2.876   3.935  0.4776 -1.2860  0.5095
 4082SOL    HW316101   1.248   2.830   4.069  0.5865  0.1326  0.9652
 4082SOL    MW416102   1.197   2.882   4.021  0.0823  0.1320 -0.0531
 4083SOL     OW16103   4.464   4.882   3.319 -0.3785  0.1289  0.1961
 4083SOL    HW216104   4.455   4.973   3.346 -2.6128 -0.1151  0.4222
 4083SOL    HW316105   4.399   4.870   3.250 -0.1274 -1.3029  0.1676
 4083SOL    MW416106   4.454   4.892   3.314  0.2538  0.3550 -0.2269
 4084SOL     OW16107   4.132   2.439   3.426 -0.1815 -0.0024  0.3355
 4084SOL    HW216108   4.044   2.447   3.390 -0.4848 -0.3916  0.9800
 4084SOL    HW316109   4.139   2.347   3.453 -0.3504  0.5053  2.2324
 4084SOL    MW416110   4.121   2.428   3.425 -0.8398 -0.3012 -0.2734
 4085SOL     OW16111   6.289   1.108   1.659  0.5187 -0.2365 -0.1206
 4085SOL    HW216112   6.282   1.124   1.753 -1.4225 -0.4115 -0.1804
 4085SOL    HW316113   6.324   1.189   1.623 -1.6994  1.0735  0.4509
 4085SOL    MW416114   6.293   1.121   1.667  0.3976  0.1693  0.6578
 4086SOL     OW16115   0.441   1.211   0.098 -0.7898 -0.0168 -0.3507
 4086SOL    HW216116   0.504   1.173   0.037  1.4473  2.1814  0.4283
 4086SOL    HW316117   0.472   1.301   0.113 -2.1431  0.0738  2.7482
 4086SOL    MW416118   0.453   1.218   0.092 -0.6546  0.1168 -0.5207
 4087SOL     OW16119   4.926   3.693   1.367  0.0091 -0.0642 -0.8603
 4087SOL    HW216120   5.014   3.655   1.372  0.6085  1.4012  0.8202
 4087SOL    HW316121   4.937   3.770   1.311 -1.0707 -1.8257 -3.7370
 4087SOL    MW416122   4.939   3.698   1.360 -0.9057  0.5129  0.0977
 4088SOL     OW16123   4.846   5.831   4.281  0.5533 -0.4583  0.0549
 4088SOL    HW216124   4.777   5.894   4.261  1.4149  0.1841 -0.9941
 4088SOL    HW316125   4.892   5.869   4.356 -0.1883 -0.8821  0.7503
 4088SOL    MW416126   4.843   5.844   4.288 -0.1649 -0.8218  0.0472
 4089SOL     OW16127   4.940   3.925   0.107 -0.0807  0.4071 -0.2121
 4089SOL    HW216128   4.880   3.851   0.094  0.9059 -0.7869  1.6277
 4089SOL    HW316129   4.883   3.999   0.129 -0.9360 -0.6246  1.2103
 4089SOL    MW416130   4.925   3.925   0.108 -0.1663 -0.3894 -0.5525
 4090SOL     OW16131   1.310   1.435   2.200  0.4548  0.0814  0.5230
 4090SOL    HW216132   1.372   1.396   2.138 -0.1918 -1.4957  0.8071
 4090SOL    HW316133   1.328   1.529   2.197  1.2856 -0.0983 -1.0938
 4090SOL    MW416134   1.321   1.442   2.192  0.0031 -0.0531 -0.0749
 4091SOL     OW16135   0.524   0.341   1.888  0.1078 -0.1439 -0.0401
 4091SOL    HW216136   0.435   0.338   1.854 -1.0460 -0.5720  2.7126
 4091SOL    HW316137   0.550   0.249   1.897  0.5629 -0.0344 -0.1947
 4091SOL    MW416138   0.516   0.328   1.885 -0.3186  0.1962 -0.1107
 4092SOL     OW16139   4.144   1.800   5.032  0.2574  0.0447  0.1489
 4092SOL    HW216140   4.130   1.854   5.111  1.8358  0.0922  0.4187
 4092SOL    HW316141   4.114   1.856   4.960 -0.2287  0.4027  0.6175
 4092SOL    MW416142   4.138   1.815   5.033  0.1774  1.1494 -0.0584
 4093SOL     OW16143   6.146   5.598   4.387  0.4306  0.5644  0.1650
 4093SOL    HW216144   6.152   5.502   4.385  1.2113  0.6165 -1.0200
 4093SOL    HW316145   6.097   5.621   4.308  0.2034  1.1438  0.4687
 4093SOL    MW416146   6.140   5.588   4.377 -0.2108 -0.1984 -0.1637
 4094SOL     OW16147   0.642   1.949   0.173 -0.2047 -0.6614  0.3636
 4094SOL    HW216148   0.557   1.944   0.129 -2.1826 -0.4522  3.7748
 4094SOL    HW316149   0.656   1.860   0.207  2.4706 -1.4837 -2.4614
 4094SOL    MW416150   0.633   1.936   0.172 -0.5558 -0.1907  0.8863
 4095SOL     OW16151   0.938   5.304   4.397  0.4747 -0.5727  0.5707
 4095SOL    HW216152   0.951   5.266   4.310  2.0348 -0.0939  0.5577
 4095SOL    HW316153   0.877   5.245   4.441  2.0602 -2.5731  0.2152
 4095SOL    MW416154   0.932   5.291   4.391  0.0054  0.2091 -0.4239
 4096SOL     OW16155   3.598   4.194   4.428 -0.0191  0.1978 -0.1075
 4096SOL    HW216156   3.629   4.234   4.509  0.8303 -2.1822  0.8457
 4096SOL    HW316157   3.507   4.170   4.447  0.4511 -1.1954  0.5522
 4096SOL    MW416158   3.590   4.196   4.441  0.1432  0.7178 -0.2333
 4097SOL     OW16159   6.153   4.707   0.029 -0.4837 -0.0849  0.1084
 4097SOL    HW216160   6.219   4.715   0.097 -0.0307  0.0914 -0.3401
 4097SOL    HW316161   6.071   4.731   0.071 -0.2306 -0.1190  0.6245
 4097SOL    MW416162   6.151   4.711   0.043  0.4712  0.0095 -0.1063
 4098SOL     OW16163   2.569   5.293   1.162  0.1567 -0.1351 -1.1449
 4098SOL    HW216164   2.540   5.377   1.127 -0.4446  0.5090  0.7567
 4098SOL    HW316165   2.628   5.257   1.095  1.8894  2.6380 -1.2500
 4098SOL    MW416166   2.573   5.299   1.149 -0.0735  1.0143  0.3793
 4099SOL     OW16167   4.093   3.936   2.506  0.1400  0.4008  0.6413
 4099SOL    HW216168   4.053   3.849   2.505  3.4765 -1.3592 -2.3862
 4099SOL    HW316169   4.161   3.930   2.573  1.0840  0.2478 -0.3101
 4099SOL    MW416170   4.097   3.923   2.515  0.0756 -0.3415 -0.3727
 4100SOL     OW16171   3.617   2.186   0.078 -0.1997  0.3862  0.0675
 4100SOL    HW216172   3.568   2.208  -0.001  1.0820  4.9202  0.2733
 4100SOL    HW316173   3.550   2.165   0.143 -1.5342  0.8463 -1.1140
 4100SOL    MW416174   3.602   2.186   0.076 -0.0470 -0.0543 -0.5486
 4101SOL     OW16175   1.545   2.589   5.670 -0.2226  0.3954 -0.1821
 4101SOL    HW216176   1.541   2.612   5.763  0.3426  0.1024 -0.0810
 4101SOL    HW316177   1.638   2.574   5.653 -0.2846  0.7543 -0.8718
 4101SOL    MW416178   1.556   2.590   5.680 -0.0740  0.3398 -0.1784
 4102SOL     OW16179   3.614   0.582   1.971  1.0329  0.0877  0.0347
 4102SOL    HW216180   3.688   0.525   1.950  0.9262 -0.1751  0.3676
 4102SOL    HW316181   3.621   0.597   2.065  0.2414 -0.5519  0.2118
 4102SOL    MW416182   3.625   0.576   1.981 -0.5661  0.4077 -0.1253
 4103SOL     OW16183   1.518   0.348   6.142  0.6587  0.1439 -0.2714
 4103SOL    HW216184   1.578   0.274   6.150  0.2576 -0.0340  1.6462
 4103SOL    HW316185   1.542   0.406   6.215 -1.7810 -0.1717  0.8813
 4103SOL    MW416186   1.529   0.346   6.153  0.2386  0.4272 -0.7236
 4104SOL     OW16187   4.907   5.396   4.555  0.2712  0.2787 -0.1500
 4104SOL    HW216188   4.998   5.394   4.527 -0.2077 -1.5147 -1.8495
 4104SOL    HW316189   4.871   5.474   4.512  1.3083  1.9356  1.8435
 4104SOL    MW416190   4.914   5.406   4.546  0.3538  0.2237 -0.5695
 4105SOL     OW16191   2.410   0.829   4.523 -0.9080 -0.2492 -0.6307
 4105SOL    HW216192   2.336   0.889   4.535 -1.6852 -1.6588  2.9462
 4105SOL    HW316193   2.370   0.742   4.521  0.5353 -1.0894  1.9238
 4105SOL    MW416194   2.395   0.826   4.524  0.0028 -0.3668  0.9246
 4106SOL     OW16195   2.988   0.268   3.694  0.1035 -0.4457  0.3535
 4106SOL    HW216196   2.904   0.310   3.709  0.2511 -0.4000  1.1139
 4106SOL    HW316197   3.052   0.327   3.734  0.3050 -1.4173  1.5338
 4106SOL    MW416198   2.985   0.281   3.702 -0.0107 -0.3593  0.6056
 4107SOL     OW16199   5.394   0.717   2.077 -0.4018 -0.0730  0.2722
 4107SOL    HW216200   5.428   0.757   2.156  1.5907 -1.8265  0.3904
 4107SOL    HW316201   5.412   0.780   2.008 -0.9449  0.8939  0.9972
 4107SOL    MW416202   5.401   0.730   2.078  0.0973 -0.5947  0.2115
 4108SOL     OW16203   4.024   6.112   0.301 -0.1802  0.2213  0.4928
 4108SOL    HW216204   4.054   6.179   0.363  0.2639  0.1419  0.3695
 4108SOL    HW316205   3.945   6.076   0.340 -2.6091  3.3054 -1.0793
 4108SOL    MW416206   4.017   6.116   0.314  0.1022 -0.3756  0.2576
 4109SOL     OW16207   1.888   4.601   3.450 -0.0343 -0.1139 -0.1487
 4109SOL    HW216208   1.892   4.551   3.531 -2.3016 -0.2596 -0.0468
 4109SOL    HW316209   1.977   4.601   3.417  0.4444 -2.3804  0.9458
 4109SOL    MW416210   1.900   4.595   3.456  0.1576 -0.0502  0.5479
 4110SOL     OW16211   4.509   4.767   4.891 -0.2597  0.5566 -0.2075
 4110SOL    HW216212   4.481   4.815   4.968 -0.5316  0.4408 -0.2308
 4110SOL    HW316213   4.504   4.675   4.918  2.4087  0.5652  0.5776
 4110SOL    MW416214   4.505   4.761   4.905  0.4025  0.3802  0.5790
 4111SOL     OW16215   4.687   0.605   5.300  0.0624 -0.1810 -0.2167
 4111SOL    HW216216   4.696   0.673   5.233  0.5067 -0.8625 -0.8507
 4111SOL    HW316217   4.699   0.652   5.383  0.1210  0.5584 -0.6339
 4111SOL    MW416218   4.689   0.620   5.302 -0.5260  0.3881 -0.4118
 4112SOL     OW16219   0.816   0.865   2.772 -0.2596  0.2305 -0.2858
 4112SOL    HW216220   0.843   0.787   2.725  0.3269  0.8704 -1.0464
 4112SOL    HW316221   0.858   0.858   2.858  0.2234 -0.0326 -0.5404
 4112SOL    MW416222   0.825   0.854   2.777 -0.2817  0.2176  0.1165
 4113SOL     OW16223   1.395   1.111   0.344  0.3834  0.5707 -0.3235
 4113SOL    HW216224   1.378   1.204   0.357 -1.9707  0.1565  0.0502
 4113SOL    HW316225   1.490   1.105   0.334  0.7220  2.8526  0.8373
 4113SOL    MW416226   1.405   1.122   0.344  0.0917  0.0364  0.0601
 4114SOL     OW16227   4.863   0.167   3.806 -0.6147  0.0809  0.5812
 4114SOL    HW216228   4.880   0.120   3.724 -0.4224 -0.8420  1.1453
 4114SOL    HW316229   4.922   0.127   3.869 -0.4082  1.1173  1.0755
 4114SOL    MW416230   4.873   0.156   3.803  0.9450  0.2267 -0.5250
 4115SOL     OW16231   3.203   2.709   5.518 -0.0881 -0.4706  0.1929
 4115SOL    HW216232   3.143   2.665   5.578  0.1489 -2.0186 -0.6426
 4115SOL    HW316233   3.264   2.756   5.575 -0.6459 -0.8232  1.1104
 4115SOL    MW416234   3.203   2.709   5.533  0.6256  0.6515 -0.4039
 4116SOL     OW16235   6.411   1.122   5.521  0.1404 -0.0443  0.0213
 4116SOL    HW216236   6.397   1.031   5.493  2.0406 -0.2239 -0.4676
 4116SOL    HW316237   6.486   1.118   5.579  0.6864  1.3093 -0.5475
 4116SOL    MW416238   6.419   1.109   5.525  0.4694  0.0018 -0.1509
 4117SOL     OW16239   1.862   5.243   5.608  0.1564 -0.1089  0.8947
 4117SOL    HW216240   1.872   5.302   5.533 -0.1551 -0.1977  0.7807
 4117SOL    HW316241   1.868   5.300   5.684  0.8792 -0.0751  0.8141
 4117SOL    MW416242   1.864   5.259   5.608  0.5791 -0.2344 -0.7480
 4118SOL     OW16243   5.279   0.639   2.431  0.0041 -0.2833  0.0963
 4118SOL    HW216244   5.190   0.644   2.396 -0.7920 -0.9837  1.8667
 4118SOL    HW316245   5.326   0.710   2.388 -0.8883 -1.0152 -2.2550
 4118SOL    MW416246   5.273   0.649   2.421 -0.1830 -0.8061  0.2683
 4119SOL     OW16247   6.173   5.232   2.411  0.6247  0.2612  0.3424
 4119SOL    HW216248   6.203   5.292   2.479  0.8218  1.4255 -0.7329
 4119SOL    HW316249   6.185   5.145   2.449  3.0391  0.7668  0.8931
 4119SOL    MW416250   6.178   5.228   2.425 -0.3399  0.0251  0.4885
 4120SOL     OW16251   5.827   5.310   3.212  0.0527 -0.1530  0.2342
 4120SOL    HW216252   5.837   5.401   3.184  1.6103 -0.3865 -0.0556
 4120SOL    HW316253   5.737   5.305   3.245  0.6979  2.1459  2.6501
 4120SOL    MW416254   5.816   5.321   3.213  0.0498 -0.0802  0.3147
 4121SOL     OW16255   0.004   5.464   5.208 -0.0615  0.3569 -0.8441
 4121SOL    HW216256   0.037   5.497   5.292  1.8917 -0.7819 -1.1078
 4121SOL    HW316257  -0.076   5.513   5.193  0.8108  2.3125  0.5158
 4121SOL    MW416258  -0.002   5.475   5.217 -0.2764  0.0302 -0.0517
 4122SOL     OW16259   3.385   2.429   1.714  0.1028  0.5166  0.4923
 4122SOL    HW216260   3.433   2.376   1.651  0.7073  1.8578 -0.2367
 4122SOL    HW316261   3.367   2.511   1.668  0.7114  1.6138  2.0971
 4122SOL    MW416262   3.389   2.433   1.700 -0.3376 -0.0916 -0.2655
 4123SOL     OW16263   4.282   1.732   1.292 -0.5583 -0.2376  0.1995
 4123SOL    HW216264   4.218   1.703   1.357 -0.6099  2.4102  1.4418
 4123SOL    HW316265   4.255   1.821   1.270  2.1037  0.5953  0.0001
 4123SOL    MW416266   4.270   1.740   1.297 -0.1407  0.6238  0.0488
 4124SOL     OW16267   2.643   5.408   1.866  0.2233  0.6686 -0.8375
 4124SOL    HW216268   2.669   5.367   1.784  1.6069  1.6262 -0.9099
 4124SOL    HW316269   2.636   5.502   1.846 -0.7941  0.7606 -0.1770
 4124SOL    MW416270   2.645   5.415   1.852 -0.4292  0.7498 -0.1325
 4125SOL     OW16271   5.310   1.998   0.383 -0.1172  0.0825 -0.1455
 4125SOL    HW216272   5.255   1.933   0.427  1.3931 -0.9840  0.2312
 4125SOL    HW316273   5.358   1.948   0.318 -0.6376  1.2588 -1.4817
 4125SOL    MW416274   5.309   1.983   0.380  0.0258 -0.0696 -0.8377
 4126SOL     OW16275   1.863   2.778   3.823  0.1047  0.0167 -0.2628
 4126SOL    HW216276   1.827   2.855   3.779  1.4116  1.2652  0.7613
 4126SOL    HW316277   1.950   2.805   3.852 -0.0693 -1.2693  1.6415
 4126SOL    MW416278   1.870   2.791   3.821 -0.1575  0.6998 -0.7563
 4127SOL     OW16279   5.986   5.716   1.563  0.5136 -0.2044  0.0017
 4127SOL    HW216280   6.041   5.759   1.497  0.6954 -0.7623 -0.2214
 4127SOL    HW316281   5.987   5.775   1.637  1.5341 -0.2583  0.0460
 4127SOL    MW416282   5.993   5.729   1.564 -0.3215  0.1356 -0.0987
 4128SOL     OW16283   3.529   0.311   1.946 -0.0903  0.1013 -0.4067
 4128SOL    HW216284   3.517   0.279   1.856  1.1476 -0.6025 -0.3497
 4128SOL    HW316285   3.541   0.405   1.937 -0.3010  0.0811 -0.9464
 4128SOL    MW416286   3.529   0.319   1.933 -0.4730 -0.2792  0.1137
 4129SOL     OW16287   0.103   0.003   5.057  0.1354  0.2273  0.1836
 4129SOL    HW216288   0.174   0.065   5.072  1.0637 -0.9280  0.6741
 4129SOL    HW316289   0.029   0.040   5.105  0.6446  0.9958  0.3964
 4129SOL    MW416290   0.102   0.016   5.065  0.4466  0.2135  0.0942
 4130SOL     OW16291   5.194   0.430   0.932 -0.0236  0.3120  0.0658
 4130SOL    HW216292   5.153   0.380   0.862 -0.2573  0.6069 -0.0096
 4130SOL    HW316293   5.222   0.364   0.996  0.4117  0.0176 -0.4142
 4130SOL    MW416294   5.192   0.415   0.931  0.2343 -0.4872  0.3341
 4131SOL     OW16295   1.131   0.812   2.299 -0.6817  0.7189 -0.5392
 4131SOL    HW216296   1.133   0.900   2.260 -1.1301  0.4266 -1.2436
 4131SOL    HW316297   1.222   0.783   2.295 -0.2735  1.6786  0.9750
 4131SOL    MW416298   1.143   0.820   2.293 -0.2040  0.0594 -0.2078
 4132SOL     OW16299   1.267   5.777   0.418  0.1522 -0.0514  0.3305
 4132SOL    HW216300   1.308   5.781   0.505 -2.4726 -0.5811  1.6872
 4132SOL    HW316301   1.215   5.697   0.420 -1.7509  1.0769 -0.8468
 4132SOL    MW416302   1.266   5.767   0.430  0.6699  0.0566 -0.8736
 4133SOL     OW16303   5.864   2.583   0.463 -0.1351  0.3351  0.0714
 4133SOL    HW216304   5.814   2.653   0.421  2.9942  1.6742 -1.6864
 4133SOL    HW316305   5.894   2.527   0.392  0.8797 -0.4199  1.0453
 4133SOL    MW416306   5.861   2.585   0.448 -0.5554 -0.2483  0.9597
 4134SOL     OW16307   3.141   4.700   3.007 -0.3018 -0.6164 -0.1896
 4134SOL    HW216308   3.051   4.711   2.973  0.2008 -1.5222 -1.9932
 4134SOL    HW316309   3.170   4.617   2.967  1.3131 -0.3611  0.4182
 4134SOL    MW416310   3.133   4.690   2.997 -0.0649  0.5178 -0.0943
 4135SOL     OW16311   0.053   5.012   4.406 -0.1503  0.0652 -0.4374
 4135SOL    HW216312  -0.012   5.027   4.474 -1.0807  1.1983 -1.5124
 4135SOL    HW316313   0.122   5.076   4.423  0.5682 -0.9363  0.5284
 4135SOL    MW416314   0.054   5.023   4.417  0.1103  0.8693  0.4567
 4136SOL     OW16315   6.376   5.544   1.371 -0.1147 -0.2368 -0.3542
 4136SOL    HW216316   6.284   5.531   1.395 -0.2115 -0.2012 -0.7075
 4136SOL    HW316317   6.387   5.493   1.291 -0.3175  1.2962 -1.3932
 4136SOL    MW416318   6.365   5.535   1.364 -0.0308  0.4526 -0.2835
 4137SOL     OW16319   4.466   5.581   0.794  0.3863  0.0948  0.0946
 4137SOL    HW216320   4.475   5.659   0.849  2.4597  0.0435 -0.0963
 4137SOL    HW316321   4.412   5.521   0.846  0.5991  0.8178  1.1766
 4137SOL    MW416322   4.460   5.583   0.808 -0.0161  0.3514 -0.2392
 4138SOL     OW16323   2.686   4.655   4.257 -0.5401  0.2206  0.1475
 4138SOL    HW216324   2.721   4.572   4.292 -1.9187 -1.3687 -1.9849
 4138SOL    HW316325   2.625   4.685   4.325  1.1034  0.3635  1.6447
 4138SOL    MW416326   2.683   4.648   4.271 -0.1037  0.3627 -0.0151
 4139SOL     OW16327   3.605   4.111   0.253 -0.5201  0.1166 -0.5022
 4139SOL    HW216328   3.548   4.106   0.329 -0.7669 -0.6358 -0.7238
 4139SOL    HW316329   3.651   4.194   0.262  0.4318 -0.5512  1.1510
 4139SOL    MW416330   3.604   4.121   0.264  0.3718 -0.1681  0.0245
 4140SOL     OW16331   3.628   5.771   0.700 -0.7027 -0.1035 -0.2779
 4140SOL    HW216332   3.713   5.807   0.676 -1.3402  1.7080  0.0005
 4140SOL    HW316333   3.644   5.677   0.711  1.6660  0.4245  1.5863
 4140SOL    MW416334   3.641   5.763   0.698 -0.0620  0.5084  0.1397
 4141SOL     OW16335   5.441   0.221   4.179 -0.6533  0.0702 -0.4247
 4141SOL    HW216336   5.481   0.215   4.092 -0.7275  1.1450 -0.5364
 4141SOL    HW316337   5.347   0.218   4.163 -0.7272  2.1562 -0.5630
 4141SOL    MW416338   5.434   0.220   4.166  0.8100  0.0254  0.0282
 4142SOL     OW16339   4.064   3.794   4.675  0.1060 -0.2042 -0.1718
 4142SOL    HW216340   4.052   3.867   4.613  0.8044  0.6053  0.6151
 4142SOL    HW316341   3.992   3.735   4.656 -0.0834  0.3493 -1.3089
 4142SOL    MW416342   4.053   3.796   4.664 -0.3515 -0.3784 -0.2782
 4143SOL     OW16343   1.041   4.378   4.664 -0.1993 -0.2392  0.2276
 4143SOL    HW216344   1.010   4.351   4.578 -1.4830  1.4513  0.1096
 4143SOL    HW316345   1.102   4.309   4.690 -1.1994 -1.7502 -1.2089
 4143SOL    MW416346   1.045   4.365   4.656  0.2316  0.2380 -0.3715
 4144SOL     OW16347   5.030   5.142   3.181 -0.8024  0.6869  0.0920
 4144SOL    HW216348   5.064   5.232   3.183 -2.6619  1.4315 -0.4875
 4144SOL    HW316349   5.100   5.090   3.221  1.6049  1.9324 -2.1984
 4144SOL    MW416350   5.044   5.147   3.187 -0.0574  0.0737 -0.1039
 4145SOL     OW16351   3.493   0.450   6.305  0.2038  0.3247 -0.2592
 4145SOL    HW216352   3.411   0.400   6.303 -0.9325  2.0034  1.2002
 4145SOL    HW316353   3.541   0.420   6.228 -0.8555 -2.1963 -0.0330
 4145SOL    MW416354   3.489   0.440   6.294  0.0421 -0.3263 -0.5638
 4146SOL     OW16355   5.942   1.382   3.520  0.1106 -0.0043  0.2745
 4146SOL    HW216356   5.950   1.429   3.437  0.6704  0.5758  0.6407
 4146SOL    HW316357   5.938   1.451   3.586 -1.1612 -0.4453  0.6756
 4146SOL    MW416358   5.943   1.397   3.517 -0.4759 -0.5606 -0.2884
 4147SOL     OW16359   4.957   1.222   1.715  0.9010 -0.1309  0.0547
 4147SOL    HW216360   5.011   1.159   1.667 -0.1007 -0.3884 -0.7492
 4147SOL    HW316361   5.004   1.306   1.706  1.3234 -0.4087 -0.3670
 4147SOL    MW416362   4.971   1.225   1.707 -0.1109  0.2157 -0.0831
 4148SOL     OW16363   3.009   1.946   3.487 -0.1194  0.2303 -0.2255
 4148SOL    HW216364   3.044   2.027   3.450  2.8663  0.9410  3.4871
 4148SOL    HW316365   3.084   1.887   3.490 -1.1942 -1.1452  0.9868
 4148SOL    MW416366   3.024   1.949   3.482 -0.1046  0.1260 -0.0999
 4149SOL     OW16367   1.017   4.188   5.715 -0.2006 -0.1134 -0.0317
 4149SOL    HW216368   1.075   4.113   5.729 -0.8396 -0.2948  2.0000
 4149SOL    HW316369   1.071   4.252   5.668  2.3419  0.4353  3.3091
 4149SOL    MW416370   1.032   4.187   5.711 -0.3124  0.0681 -0.4413
 4150SOL     OW16371   1.446   1.726   3.508 -0.5704 -0.1198 -0.2091
 4150SOL    HW216372   1.420   1.667   3.580  0.0947  1.1240  1.1086
 4150SOL    HW316373   1.503   1.672   3.453  0.7729 -0.5117  1.4722
 4150SOL    MW416374   1.450   1.711   3.511  0.0698  0.4266 -0.1383
 4151SOL     OW16375   1.173   0.935   0.360 -0.5093 -0.1671 -0.2627
 4151SOL    HW216376   1.241   1.000   0.340  1.7892 -0.9902  3.6395
 4151SOL    HW316377   1.198   0.858   0.310  0.0725  0.2719 -0.6580
 4151SOL    MW416378   1.186   0.933   0.351  0.1700 -0.0213  0.1180
 4152SOL     OW16379   0.822   6.030   0.328  0.2559 -0.0136 -0.8663
 4152SOL    HW216380   0.815   6.081   0.409  0.8420 -0.4951 -0.5049
 4152SOL    HW316381   0.805   6.093   0.258 -0.6157  0.3389 -0.3559
 4152SOL    MW416382   0.819   6.045   0.330  0.2688 -0.1404  0.1120
 4153SOL     OW16383   2.810  -0.015   6.026  0.3585 -0.1819 -0.6201
 4153SOL    HW216384   2.814  -0.087   6.089  1.6128 -0.4957 -1.0186
 4153SOL    HW316385   2.843   0.061   6.074  0.5660 -0.2468 -0.6567
 4153SOL    MW416386   2.815  -0.014   6.040  0.8107  0.0331  0.4264
 4154SOL     OW16387   5.355   0.622   4.108  0.5197 -0.5291  0.6143
 4154SOL    HW216388   5.406   0.609   4.028  2.1078 -2.3579  1.8250
 4154SOL    HW316389   5.338   0.716   4.110  2.7270 -0.0157 -0.5553
 4154SOL    MW416390   5.360   0.633   4.097  0.8152 -0.0288 -0.0397
 4155SOL     OW16391   2.486   3.671   5.275 -0.4503  0.6294  1.0310
 4155SOL    HW216392   2.481   3.695   5.182 -1.1716  1.8121  1.3544
 4155SOL    HW316393   2.517   3.750   5.319 -1.2871  0.4716  1.9364
 4155SOL    MW416394   2.489   3.684   5.268 -0.2633  0.4039 -0.0904
 4156SOL     OW16395   4.495   1.268   3.719 -0.1802 -0.3304  0.5738
 4156SOL    HW216396   4.475   1.255   3.626  1.6017 -2.4561  0.3990
 4156SOL    HW316397   4.416   1.243   3.765 -1.3867  1.5604 -0.3305
 4156SOL    MW416398   4.482   1.263   3.713  0.0780  0.3744 -0.2972
 4157SOL     OW16399   2.388   1.498   1.769 -0.9202  0.1195 -0.0702
 4157SOL    HW216400   2.411   1.564   1.705 -0.4174  2.5071  2.3958
 4157SOL    HW316401   2.296   1.477   1.750 -0.0657 -1.3653 -3.1845
 4157SOL    MW416402   2.379   1.504   1.758 -0.1257  0.2351 -0.4858
 4158SOL     OW16403   0.059   4.039   4.530 -0.1369  0.6061 -0.1079
 4158SOL    HW216404  -0.010   3.974   4.525 -1.6947  2.1252  0.5185
 4158SOL    HW316405   0.017   4.121   4.505  1.7109  1.4330 -0.7477
 4158SOL    MW416406   0.045   4.042   4.526 -0.4776  0.4487 -0.2337
 4159SOL     OW16407   6.363   0.784   2.442 -0.5857 -0.1415  0.0856
 4159SOL    HW216408   6.432   0.753   2.501  2.2034  0.4155 -2.5827
 4159SOL    HW316409   6.408   0.795   2.358 -3.4814  2.4681 -1.2968
 4159SOL    MW416410   6.378   0.781   2.439  0.0774  0.0633  0.4566
 4160SOL     OW16411   0.420   6.294   4.963 -0.0014 -0.3795 -0.3323
 4160SOL    HW216412   0.504   6.248   4.965  0.8698  0.9654  3.9263
 4160SOL    HW316413   0.366   6.249   5.027 -1.7162  0.2852 -1.2343
 4160SOL    MW416414   0.424   6.282   4.972 -0.2498  0.0137  0.7261
 4161SOL     OW16415   6.402   3.543   5.528 -0.3623  0.1644 -0.3248
 4161SOL    HW216416   6.480   3.565   5.477 -1.0642  1.3874 -0.9131
 4161SOL    HW316417   6.350   3.488   5.469 -0.9519  1.1842 -0.7847
 4161SOL    MW416418   6.406   3.538   5.514 -0.1621 -0.3378 -0.3911
 4162SOL     OW16419   3.802   1.969   6.217 -0.1149  0.1999 -0.4769
 4162SOL    HW216420   3.721   1.964   6.166 -1.6217 -2.1572  1.8276
 4162SOL    HW316421   3.855   1.897   6.185  0.7058  1.1835 -1.3670
 4162SOL    MW416422   3.798   1.958   6.206 -0.0659  0.3146  0.3514
 4163SOL     OW16423   5.577   1.570   0.745 -0.2306 -0.3028 -0.1237
 4163SOL    HW216424   5.583   1.525   0.829 -3.5594  0.3971  0.6549
 4163SOL    HW316425   5.630   1.517   0.685  1.5569 -1.2945  2.2002
 4163SOL    MW416426   5.584   1.557   0.748 -0.4839  0.1624 -0.2081
 4164SOL     OW16427   0.295   2.409   5.922 -0.0505 -0.1037  0.1727
 4164SOL    HW216428   0.285   2.468   5.997  0.2777  0.2604 -0.0658
 4164SOL    HW316429   0.364   2.348   5.949 -0.8923 -0.8485  0.7071
 4164SOL    MW416430   0.303   2.409   5.936  0.1786 -0.2430  0.2695
 4165SOL     OW16431   0.899   5.983   4.773 -0.2771 -0.3333  0.5647
 4165SOL    HW216432   0.973   5.927   4.750 -1.6221 -1.0423 -2.5003
 4165SOL    HW316433   0.828   5.922   4.793 -0.5195  0.3365  1.8568
 4165SOL    MW416434   0.900   5.967   4.773  0.4692  0.5235 -0.3769
 4166SOL     OW16435   2.862   0.300   1.866  0.8211 -0.1315  0.7953
 4166SOL    HW216436   2.815   0.219   1.847  0.3461  0.8746 -2.9793
 4166SOL    HW316437   2.793   0.363   1.887  0.9237  0.0296  0.6539
 4166SOL    MW416438   2.847   0.297   1.867 -0.3123 -0.1987  0.1315
 4167SOL     OW16439   4.159   2.843   2.653  0.5226  0.2119  0.0806
 4167SOL    HW216440   4.146   2.937   2.664 -1.8472  0.0587 -0.7401
 4167SOL    HW316441   4.153   2.828   2.559 -3.0264 -1.1019  0.3579
 4167SOL    MW416442   4.156   2.853   2.642  0.0248 -0.1584  0.1076
 4168SOL     OW16443   3.018   2.963   4.391  0.1620  0.1222  0.4727
 4168SOL    HW216444   3.013   2.872   4.418 -1.5539  0.1275  0.2363
 4168SOL    HW316445   3.001   3.013   4.471 -2.0288  0.1664  0.0334
 4168SOL    MW416446   3.015   2.958   4.405 -0.5121  0.2453  0.6029
 4169SOL     OW16447   0.540   4.233   2.032  0.1146 -0.2249  0.1504
 4169SOL    HW216448   0.530   4.256   1.940  0.5016  4.2263  0.9727
 4169SOL    HW316449   0.452   4.209   2.061 -0.2156 -0.5951 -1.1115
 4169SOL    MW416450   0.527   4.233   2.024 -0.1004  0.0307  0.6307
 4170SOL     OW16451   5.064   4.220   4.776 -0.2259  0.3891 -0.3872
 4170SOL    HW216452   5.129   4.232   4.706 -1.3666 -0.3786 -1.6299
 4170SOL    HW316453   5.107   4.163   4.839  1.3192  2.1501  0.2567
 4170SOL    MW416454   5.078   4.214   4.775 -0.4651  0.6630  0.5401
 4171SOL     OW16455   3.612   5.654   2.351 -0.3533  0.6713  0.2597
 4171SOL    HW216456   3.538   5.685   2.404 -0.9230  1.3136 -0.8777
 4171SOL    HW316457   3.684   5.711   2.377 -0.9693  1.8871 -0.5721
 4171SOL    MW416458   3.612   5.666   2.362  0.1299  0.2776 -0.7638
 4172SOL     OW16459   5.097   6.354   4.671  0.5191  0.4399 -0.3680
 4172SOL    HW216460   5.037   6.411   4.719  1.5295  0.6921  0.6441
 4172SOL    HW316461   5.090   6.382   4.580  1.6649  2.8436  0.2071
 4172SOL    MW416462   5.089   6.365   4.665  0.1103 -0.0701  0.1211
 4173SOL     OW16463   1.545   1.987   2.525  1.2928  0.1803  0.0241
 4173SOL    HW216464   1.518   1.995   2.434  0.1623  0.9139  0.4074
 4173SOL    HW316465   1.622   2.044   2.532  0.1150  1.8572  0.0020
 4173SOL    MW416466   1.552   1.996   2.514 -0.0117  0.2508  0.1351
 4174SOL     OW16467   6.110   2.145   1.187  0.2681  0.2161  0.2108
 4174SOL    HW216468   6.117   2.233   1.150  2.5403  0.2551  0.6043
 4174SOL    HW316469   6.130   2.087   1.113  2.2149  0.1954  0.7183
 4174SOL    MW416470   6.113   2.149   1.172 -0.1751  0.2441  0.5290
 4175SOL     OW16471   3.926   5.498   0.043  0.0626 -0.4031 -0.3842
 4175SOL    HW216472   3.908   5.572  -0.015 -2.7874 -1.4570 -0.9978
 4175SOL    HW316473   3.880   5.520   0.124 -1.6122 -1.8352 -0.8929
 4175SOL    MW416474   3.918   5.511   0.046 -0.9281 -0.2424 -0.0895
 4176SOL     OW16475   6.396   5.229   0.888 -0.6089  0.1181 -0.0183
 4176SOL    HW216476   6.339   5.200   0.817 -0.8525  0.8685 -0.1324
 4176SOL    HW316477   6.446   5.302   0.851  0.5311 -0.5961  0.0326
 4176SOL    MW416478   6.395   5.235   0.873  0.1386 -0.0577  0.4646
 4177SOL     OW16479   1.495   1.910   4.369 -0.1309 -0.4025  0.5926
 4177SOL    HW216480   1.416   1.930   4.419 -0.3755  1.0049 -0.2923
 4177SOL    HW316481   1.537   1.995   4.356  1.3183 -1.0815  0.6874
 4177SOL    MW416482   1.490   1.924   4.374 -0.0629  0.3691 -0.6453
 4178SOL     OW16483   1.614   3.976   0.028 -0.2179 -0.6290  0.8087
 4178SOL    HW216484   1.706   3.965   0.006 -0.3093 -0.2300  0.2237
 4178SOL    HW316485   1.569   3.905  -0.018 -0.1416 -1.1703  1.5518
 4178SOL    MW416486   1.620   3.965   0.019 -0.4431  0.2561 -0.1113
 4179SOL     OW16487   1.423   2.371   3.417 -0.7272 -0.6716  0.5699
 4179SOL    HW216488   1.439   2.290   3.368 -0.6004  0.4873 -1.4023
 4179SOL    HW316489   1.499   2.379   3.475  0.7452 -0.5368 -1.2806
 4179SOL    MW416490   1.435   2.361   3.418 -0.7256  0.1826  0.3859
 4180SOL     OW16491   6.336   5.569   2.219  0.2993 -0.3585 -0.5552
 4180SOL    HW216492   6.314   5.626   2.146 -0.4971  1.6694  1.1628
 4180SOL    HW316493   6.273   5.498   2.215 -0.5353  0.3974 -1.1459
 4180SOL    MW416494   6.325   5.567   2.209 -0.4289 -0.0831 -0.3082
 4181SOL     OW16495   6.173   1.981   0.605 -0.2862  0.8989  0.0024
 4181SOL    HW216496   6.096   1.949   0.652 -1.0160  0.7638 -1.2654
 4181SOL    HW316497   6.246   1.934   0.644 -0.9926  0.0372  0.3099
 4181SOL    MW416498   6.172   1.971   0.617  0.2167 -0.2693  0.6362
 4182SOL     OW16499   4.684   4.306   5.568 -0.4488 -0.2512  0.1914
 4182SOL    HW216500   4.687   4.350   5.483 -1.0267 -1.7165 -0.6227
 4182SOL    HW316501   4.598   4.329   5.604 -1.3283 -1.7766 -0.8534
 4182SOL    MW416502   4.673   4.315   5.561  0.2317  0.0892 -0.3368
 4183SOL     OW16503   5.255   3.976   5.599 -0.4077  0.0922 -0.3040
 4183SOL    HW216504   5.295   3.936   5.522  1.1900 -0.4153  0.7161
 4183SOL    HW316505   5.291   4.065   5.602  2.1660 -0.8878  1.5336
 4183SOL    MW416506   5.265   3.982   5.590  0.8573 -0.0562  0.1474
 4184SOL     OW16507   5.501   3.679   0.027  0.2982 -0.1833  0.0845
 4184SOL    HW216508   5.448   3.745  -0.016 -0.2132 -1.1118 -0.7409
 4184SOL    HW316509   5.444   3.602   0.033  1.0739 -0.7467  0.4762
 4184SOL    MW416510   5.487   3.678   0.022 -0.0336 -0.2490 -0.2726
 4185SOL     OW16511   6.123   1.159   2.079 -0.6201 -0.0215  0.0946
 4185SOL    HW216512   6.060   1.090   2.102  0.5066 -1.5891 -1.3284
 4185SOL    HW316513   6.164   1.182   2.162 -1.0871 -0.9814  0.6131
 4185SOL    MW416514   6.120   1.153   2.093 -0.3724  0.2523  0.0784
 4186SOL     OW16515   4.839   4.397   2.697 -0.2596 -0.3988 -0.0367
 4186SOL    HW216516   4.922   4.377   2.653  1.8221 -0.5203  3.5310
 4186SOL    HW316517   4.823   4.489   2.676  1.5143  0.0067  0.2078
 4186SOL    MW416518   4.848   4.407   2.688  0.4263 -0.1644 -0.4634
 4187SOL     OW16519   2.642   0.260   4.712  0.2809 -0.3049 -0.4814
 4187SOL    HW216520   2.664   0.185   4.767  0.2091 -1.6636 -2.2123
 4187SOL    HW316521   2.638   0.225   4.623 -0.3780  1.6356 -1.2903
 4187SOL    MW416522   2.645   0.246   4.707 -0.7287 -0.5318 -0.3991
 4188SOL     OW16523   0.800   4.184   3.762  0.3718  0.4054  0.0396
 4188SOL    HW216524   0.798   4.270   3.804 -1.3828  0.4707 -0.1041
 4188SOL    HW316525   0.727   4.186   3.700 -0.5786 -1.6548  0.9944
 4188SOL    MW416526   0.790   4.196   3.759  0.2286 -0.6125  0.3440
 4189SOL     OW16527   0.247   0.937   4.893 -0.0828  0.2463  0.3050
 4189SOL    HW216528   0.178   1.002   4.879  1.3429  1.8021  0.1142
 4189SOL    HW316529   0.258   0.896   4.807 -0.2752  0.5121  0.1506
 4189SOL    MW416530   0.240   0.940   4.880 -0.5947 -0.0477  0.2294
 4190SOL     OW16531   6.104   2.695   3.142  0.4061  0.1176  1.0332
 4190SOL    HW216532   6.045   2.769   3.156  2.0550  1.1998  2.7124
 4190SOL    HW316533   6.103   2.648   3.226 -0.5345 -1.7522  0.0261
 4190SOL    MW416534   6.096   2.699   3.155 -0.0500  0.3384  0.0586
 4191SOL     OW16535   2.106   1.384   1.775 -0.2111 -0.3018  0.4796
 4191SOL    HW216536   2.066   1.453   1.722 -1.8746 -0.9420  0.8480
 4191SOL    HW316537   2.034   1.324   1.796  0.1966  0.2362  4.0054
 4191SOL    MW416538   2.091   1.385   1.771  0.6586  0.9209 -0.0576
 4192SOL     OW16539   0.133   0.949   1.251  0.4516 -0.5100 -0.0581
 4192SOL    HW216540   0.223   0.942   1.220  0.0239 -1.2234 -1.1917
 4192SOL    HW316541   0.082   0.897   1.190 -0.6886 -0.4568  0.8091
 4192SOL    MW416542   0.138   0.941   1.239  0.2157  0.3469  0.3810
 4193SOL     OW16543   0.852   2.699   4.180  0.1941 -0.1435  0.2629
 4193SOL    HW216544   0.777   2.657   4.222  0.0192 -0.5029 -0.3965
 4193SOL    HW316545   0.865   2.650   4.099  0.2762  0.7818 -0.2945
 4193SOL    MW416546   0.844   2.687   4.175  0.1717 -0.0186  0.3478
 4194SOL     OW16547   4.356   0.976   4.046  0.1695  0.3723  0.4936
 4194SOL    HW216548   4.302   0.990   4.124  0.5175  0.3049  0.7502
 4194SOL    HW316549   4.361   0.881   4.037 -2.2656  0.3007 -1.3007
 4194SOL    MW416550   4.349   0.965   4.055  0.4476  0.3248  0.0461
 4195SOL     OW16551   4.544   1.548   4.199  0.1289  0.0929  0.1165
 4195SOL    HW216552   4.465   1.595   4.225 -0.5795 -1.5353  1.0506
 4195SOL    HW316553   4.598   1.614   4.155 -2.0317  1.1051 -1.1750
 4195SOL    MW416554   4.541   1.563   4.197  0.1028  0.0946 -0.0210
 4196SOL     OW16555   3.791   1.672   0.161 -0.3000 -0.0811 -0.5882
 4196SOL    HW216556   3.771   1.625   0.080  0.7440 -0.5316 -0.5957
 4196SOL    HW316557   3.776   1.764   0.139 -2.0192 -0.3396 -0.6742
 4196SOL    MW416558   3.786   1.678   0.147  0.0053  0.7191  0.4881
 4197SOL     OW16559   2.169   0.610   4.146  0.8445 -0.2863  0.2458
 4197SOL    HW216560   2.161   0.702   4.122  1.3486 -0.5659 -1.1017
 4197SOL    HW316561   2.263   0.596   4.159  0.7693 -0.6109  0.4837
 4197SOL    MW416562   2.180   0.620   4.145  0.3000  0.2463 -0.7582
 4198SOL     OW16563   1.586   5.170   5.507 -0.4238  0.2326  0.0634
 4198SOL    HW216564   1.625   5.219   5.580 -0.7343 -1.5515  1.5074
 4198SOL    HW316565   1.632   5.086   5.508 -1.5687 -0.4182 -0.7530
 4198SOL    MW416566   1.597   5.165   5.517  0.3508  0.1751 -0.2745
 4199SOL     OW16567   5.515   0.626   5.261  0.7186  0.1425 -0.4093
 4199SOL    HW216568   5.577   0.641   5.332  0.1325  0.0703  0.1229
 4199SOL    HW316569   5.504   0.712   5.220  0.9342  0.2151 -0.3144
 4199SOL    MW416570   5.521   0.639   5.265  0.0237 -0.0487  0.9100
 4200SOL     OW16571   6.140   5.502   3.070  0.2338 -0.0293 -0.3881
 4200SOL    HW216572   6.184   5.418   3.083  1.4347  0.2389 -2.2427
 4200SOL    HW316573   6.212   5.565   3.064 -0.5620  0.8591 -0.7172
 4200SOL    MW416574   6.155   5.499   3.071 -0.4152  0.0595  0.2098
 4201SOL     OW16575   1.379   1.318   5.595 -0.0850  0.1805  0.6237
 4201SOL    HW216576   1.307   1.263   5.564  0.4684 -0.5929  0.6879
 4201SOL    HW316577   1.417   1.355   5.515 -0.0564 -0.0453  0.5320
 4201SOL    MW416578   1.375   1.316   5.580 -0.7198 -0.3740 -0.6613
 4202SOL     OW16579   6.121   1.415   3.954 -0.4127 -0.7616 -0.5303
 4202SOL    HW216580   6.025   1.417   3.955 -0.4657 -2.1009 -0.7527
 4202SOL    HW316581   6.143   1.322   3.959  0.8970 -0.4332  0.1938
 4202SOL    MW416582   6.111   1.403   3.955  0.1744 -0.3824  0.5915
 4203SOL     OW16583   6.265   5.792   0.048  0.7941  0.2239  0.4921
 4203SOL    HW216584   6.188   5.749   0.085  0.9470 -0.8958 -0.4298
 4203SOL    HW316585   6.321   5.810   0.124 -0.0499  0.4009  1.0881
 4203SOL    MW416586   6.262   5.788   0.063 -0.1403 -0.0928  0.1294
 4204SOL     OW16587   6.028   0.170   4.006  0.3021 -0.0163  0.1300
 4204SOL    HW216588   6.073   0.098   4.050  0.7319  0.4405  0.4427
 4204SOL    HW316589   6.090   0.243   4.008 -0.6417  0.7858  1.0415
 4204SOL    MW416590   6.042   0.170   4.012 -0.4458 -0.0584  0.3421
 4205SOL     OW16591   1.421   0.655   3.012  0.4616  0.1576  0.7341
 4205SOL    HW216592   1.468   0.735   3.036  1.4689 -0.3022  0.3471
 4205SOL    HW316593   1.422   0.655   2.916 -0.3819  0.1601  0.7178
 4205SOL    MW416594   1.427   0.666   3.002 -0.1637 -0.1491 -0.3818
 4206SOL     OW16595   2.874   0.771   1.066 -0.1831 -0.1285  0.0848
 4206SOL    HW216596   2.930   0.803   0.996 -1.4420  0.4375 -0.6903
 4206SOL    HW316597   2.869   0.677   1.051  1.5581 -0.3909  0.9237
 4206SOL    MW416598   2.880   0.763   1.055 -0.1019  0.2119 -0.2844
 4207SOL     OW16599   5.185   2.084   0.738 -0.1538 -0.4709  0.4030
 4207SOL    HW216600   5.229   2.136   0.671  1.3978 -0.9858  0.9863
 4207SOL    HW316601   5.104   2.054   0.695 -1.0967  2.2923  0.0327
 4207SOL    MW416602   5.180   2.087   0.724 -0.2589 -0.0077 -0.0078
 4208SOL     OW16603   4.368   5.451   3.415  0.3141  0.5122 -0.4480
 4208SOL    HW216604   4.309   5.417   3.483 -0.0112  1.0757 -0.4425
 4208SOL    HW316605   4.439   5.493   3.464 -0.4506  1.8449 -0.4267
 4208SOL    MW416606   4.369   5.452   3.431  0.1331  0.2300  0.6565
 4209SOL     OW16607   3.216   4.243   4.695 -0.2024  0.6894 -0.1190
 4209SOL    HW216608   3.286   4.286   4.647 -1.5362  4.4933  1.0158
 4209SOL    HW316609   3.261   4.185   4.756  1.6276 -1.3931 -3.1298
 4209SOL    MW416610   3.231   4.241   4.697 -0.0611 -0.0021 -0.0300
 4210SOL     OW16611   5.827   5.370   5.505  0.6563 -0.2384  0.4127
 4210SOL    HW216612   5.865   5.400   5.422  0.7376 -0.3421  0.4129
 4210SOL    HW316613   5.736   5.349   5.483  0.8526 -0.9064  0.1955
 4210SOL    MW416614   5.820   5.371   5.491 -0.0595  0.0860  0.1903
 4211SOL     OW16615   0.921   1.644   2.265  0.0182  0.4674  0.3317
 4211SOL    HW216616   0.936   1.685   2.350  0.5192  0.9166  0.0369
 4211SOL    HW316617   1.008   1.617   2.235 -0.0259  1.0835 -0.4049
 4211SOL    MW416618   0.934   1.646   2.272 -0.0844 -0.3776 -0.4427
 4212SOL     OW16619   0.224   4.902   2.336 -0.0084 -0.3441  0.0998
 4212SOL    HW216620   0.273   4.905   2.254  0.1029 -1.0379  0.1306
 4212SOL    HW316621   0.154   4.966   2.325 -0.1204 -0.5808 -0.6157
 4212SOL    MW416622   0.222   4.911   2.324  0.3417 -0.1009 -0.2630
 4213SOL     OW16623   1.831   0.389   5.178 -0.6248  0.3869  0.4763
 4213SOL    HW216624   1.911   0.337   5.174 -0.1161  1.1815 -0.0926
 4213SOL    HW316625   1.828   0.433   5.093 -2.3422 -0.6096 -0.0242
 4213SOL    MW416626   1.841   0.388   5.166  0.1856 -0.3051 -0.4771
 4214SOL     OW16627   3.041  -0.006   3.584 -0.0697  0.6392 -0.3024
 4214SOL    HW216628   3.060   0.087   3.598  0.0417  0.4161  1.2054
 4214SOL    HW316629   2.945  -0.010   3.582 -0.1013  1.0657 -2.7375
 4214SOL    MW416630   3.031   0.006   3.585 -0.1509  0.3914  0.8897
 4215SOL     OW16631   2.761   1.362   3.279  0.0676 -0.5761  0.0637
 4215SOL    HW216632   2.691   1.339   3.339 -0.0594 -0.4507 -0.0369
 4215SOL    HW316633   2.821   1.415   3.332  0.6667 -1.6169  0.4638
 4215SOL    MW416634   2.760   1.366   3.294 -0.3559 -0.1069  0.1522
 4216SOL     OW16635   0.894   0.694   1.730 -0.1069 -0.3441 -0.4223
 4216SOL    HW216636   0.888   0.691   1.635  0.8241 -1.7535 -0.4645
 4216SOL    HW316637   0.857   0.611   1.760 -1.1420  0.4216  0.5110
 4216SOL    MW416638   0.889   0.683   1.722  0.5445 -0.1818  0.2325
 4217SOL     OW16639   3.765   2.715   0.367 -0.7746  0.7247 -0.4365
 4217SOL    HW216640   3.809   2.779   0.311  0.7133 -1.0617 -1.4247
 4217SOL    HW316641   3.678   2.706   0.327 -1.6760  3.2734  0.7214
 4217SOL    MW416642   3.759   2.722   0.354  0.3147 -0.4812  0.9906
 4218SOL     OW16643   0.269   2.240   1.522  0.4420 -0.8073 -0.1348
 4218SOL    HW216644   0.358   2.273   1.520  0.6405 -1.3469 -0.2809
 4218SOL    HW316645   0.270   2.163   1.466 -0.6980  0.5970 -2.2296
 4218SOL    MW416646   0.281   2.234   1.514 -0.4006 -0.3866  0.4236
 4219SOL     OW16647   3.241   1.159   2.577 -0.1876  0.1351 -0.3129
 4219SOL    HW216648   3.331   1.138   2.553  0.0537 -0.0415  0.6969
 4219SOL    HW316649   3.239   1.151   2.673 -1.2147  0.3694 -0.3013
 4219SOL    MW416650   3.253   1.155   2.587 -0.1245 -0.2528 -0.1642
 4220SOL     OW16651   5.822   4.364   2.062  0.2632  0.0816  0.3457
 4220SOL    HW216652   5.757   4.389   1.996  1.0893  0.5983 -0.2855
 4220SOL    HW316653   5.906   4.368   2.017  0.9808  1.5378  1.6827
 4220SOL    MW416654   5.824   4.368   2.048 -0.2848 -0.7276 -0.0090
 4221SOL     OW16655   2.806   5.611   4.870 -0.3232 -0.3952 -0.0689
 4221SOL    HW216656   2.837   5.586   4.783 -0.2806 -1.7588  0.3012
 4221SOL    HW316657   2.744   5.681   4.855 -0.0080 -0.3365 -1.1637
 4221SOL    MW416658   2.802   5.617   4.857  0.4171 -0.3351 -0.3899
 4222SOL     OW16659   3.765   4.061   6.344  0.4635 -0.1758 -0.1008
 4222SOL    HW216660   3.680   4.020   6.332  1.2621 -1.5123 -1.6445
 4222SOL    HW316661   3.828   3.989   6.341  1.6784  0.7900  0.8355
 4222SOL    MW416662   3.762   4.046   6.342 -0.0924 -0.2006 -0.1436
 4223SOL     OW16663   3.768   0.766   4.143 -0.4472  0.3298  0.1228
 4223SOL    HW216664   3.749   0.780   4.236 -1.1967  1.4965 -0.1794
 4223SOL    HW316665   3.858   0.795   4.132 -1.1830  2.8195  0.0083
 4223SOL    MW416666   3.777   0.772   4.154  0.2569 -0.3060 -0.0176
 4224SOL     OW16667   4.856   3.267   6.402 -0.0424  0.3231 -0.3783
 4224SOL    HW216668   4.899   3.330   6.459 -2.7958  1.7946  0.2664
 4224SOL    HW316669   4.862   3.305   6.315  0.6567  0.1028 -0.4286
 4224SOL    MW416670   4.862   3.280   6.398  0.5496  0.2774  0.2316
 4225SOL     OW16671   2.572   2.661   0.930 -0.0627 -0.3434  0.4048
 4225SOL    HW216672   2.523   2.730   0.976  0.0740 -0.1666  0.2891
 4225SOL    HW316673   2.526   2.580   0.951 -0.6710 -0.1280 -0.0645
 4225SOL    MW416674   2.560   2.660   0.939  0.3797 -0.1441 -0.3483
 4226SOL     OW16675   5.287   4.358   6.043 -0.1041 -0.1946  0.2034
 4226SOL    HW216676   5.270   4.335   6.134 -0.6521 -3.2226 -0.5656
 4226SOL    HW316677   5.382   4.360   6.036 -0.0544 -0.8894  0.6371
 4226SOL    MW416678   5.297   4.355   6.054 -0.1284 -0.3519 -0.3701
 4227SOL     OW16679   3.422   0.604   4.280 -0.6712 -0.6339  0.6082
 4227SOL    HW216680   3.353   0.555   4.324 -0.1598 -0.8310  1.2093
 4227SOL    HW316681   3.495   0.602   4.341  0.5229 -2.0248 -0.8123
 4227SOL    MW416682   3.422   0.598   4.294 -0.0919  0.2477 -0.0182
 4228SOL     OW16683   4.321   4.629   5.538  0.4735 -0.1327  0.3019
 4228SOL    HW216684   4.227   4.621   5.554  0.4662 -0.5471  0.0585
 4228SOL    HW316685   4.334   4.594   5.450  0.6576  1.2309 -0.2466
 4228SOL    MW416686   4.310   4.624   5.529  0.0684  0.1241 -0.1406
 4229SOL     OW16687   1.569   1.727   5.118  0.1894 -0.6962  0.0029
 4229SOL    HW216688   1.584   1.633   5.122 -0.4372 -0.8049 -0.0340
 4229SOL    HW316689   1.475   1.737   5.134  0.6870  0.1314  3.1098
 4229SOL    MW416690   1.559   1.716   5.120 -0.3444 -0.5378  0.6698
 4230SOL     OW16691   2.146   1.254   4.583 -0.5107  0.4033 -0.7267
 4230SOL    HW216692   2.178   1.317   4.518  0.3841  1.6317  0.8438
 4230SOL    HW316693   2.105   1.308   4.650 -1.4208 -0.8447 -0.2427
 4230SOL    MW416694   2.145   1.270   4.583 -0.5532  0.2950  0.1927
 4231SOL     OW16695   1.700   1.622   2.692 -0.0397  0.4348  0.1621
 4231SOL    HW216696   1.761   1.554   2.663 -0.2229  0.4628 -0.2985
 4231SOL    HW316697   1.662   1.656   2.612 -0.2038  0.8496  0.4112
 4231SOL    MW416698   1.703   1.617   2.678  0.0532  0.0241 -0.5300
 4232SOL     OW16699   1.594   5.545   2.382  0.0675 -0.4199 -0.1027
 4232SOL    HW216700   1.678   5.539   2.336  1.1940  2.5767  1.2925
 4232SOL    HW316701   1.532   5.576   2.315 -0.0011 -2.5268 -1.1073
 4232SOL    MW416702   1.597   5.548   2.367  0.0072 -0.0573  0.0254
 4233SOL     OW16703   1.671   3.836   3.712  0.0838 -0.3533 -0.1997
 4233SOL    HW216704   1.623   3.916   3.690 -1.2236 -1.4702 -1.6279
 4233SOL    HW316705   1.762   3.855   3.686  0.3292  1.4869  1.7613
 4233SOL    MW416706   1.677   3.849   3.706  0.3889 -0.0065  0.4658
 4234SOL     OW16707   6.338   0.293   6.369  0.0750  0.0961  0.0733
 4234SOL    HW216708   6.273   0.272   6.435  0.0130 -1.6962 -0.5048
 4234SOL    HW316709   6.422   0.267   6.408  0.0958 -0.4724 -0.3382
 4234SOL    MW416710   6.341   0.287   6.383 -0.3607 -0.4343 -0.2234
 4235SOL     OW16711   0.316   3.572   0.744  0.2926  0.2227 -0.3109
 4235SOL    HW216712   0.305   3.664   0.767 -1.2629 -0.0114 -0.0063
 4235SOL    HW316713   0.372   3.536   0.813  1.0293  0.9656 -0.5168
 4235SOL    MW416714   0.322   3.579   0.757  0.3285  0.5357  0.3699
 4236SOL     OW16715   3.942   5.765   3.508  0.1807 -0.2053 -0.1088
 4236SOL    HW216716   4.014   5.786   3.448  0.6854  1.1069  0.9254
 4236SOL    HW316717   3.863   5.786   3.458  0.5201 -0.8552 -0.9492
 4236SOL    MW416718   3.941   5.770   3.493  0.5035  0.1956 -0.0584
 4237SOL     OW16719   2.976   1.874   6.183  0.0351 -0.0772  0.0908
 4237SOL    HW216720   2.917   1.802   6.205  1.4038 -1.3038 -0.1532
 4237SOL    HW316721   3.060   1.833   6.166  0.6791  1.5127 -0.8076
 4237SOL    MW416722   2.979   1.859   6.184 -0.4134  0.5827  0.3521
 4238SOL     OW16723   5.002   2.845   4.912 -0.2799  0.6334  0.0177
 4238SOL    HW216724   4.968   2.774   4.966 -1.2207  0.2467 -1.0601
 4238SOL    HW316725   5.077   2.807   4.866  0.8415  1.1039  1.3695
 4238SOL    MW416726   5.008   2.831   4.913  0.2441 -0.8762 -0.1718
 4239SOL     OW16727   3.555   1.849   2.892  0.4597 -0.1579 -0.4007
 4239SOL    HW216728   3.611   1.925   2.905  0.3066 -0.2635  1.0686
 4239SOL    HW316729   3.599   1.798   2.824  2.5468 -0.5801  1.1752
 4239SOL    MW416730   3.568   1.852   2.885 -0.7130  0.0755  0.1351
 4240SOL     OW16731   3.682   2.004   4.665 -0.3251 -0.8063  0.1391
 4240SOL    HW216732   3.743   2.007   4.739 -1.8628  2.1028  1.4471
 4240SOL    HW316733   3.738   2.002   4.588  1.5573  2.2089  1.2598
 4240SOL    MW416734   3.697   2.004   4.665 -1.1459 -0.0406  0.6485
 4241SOL     OW16735   6.312   1.305   6.077 -0.9230 -0.8362 -0.0538
 4241SOL    HW216736   6.299   1.339   5.988 -1.0630 -0.9269 -0.0679
 4241SOL    HW316737   6.251   1.356   6.131 -0.8675 -0.8102 -0.0153
 4241SOL    MW416738   6.303   1.316   6.072 -0.3790  0.3195 -0.1454
 4242SOL     OW16739   0.437   1.810   2.705 -0.1935 -0.3548  0.4856
 4242SOL    HW216740   0.389   1.868   2.764 -1.4279  0.5120 -1.2759
 4242SOL    HW316741   0.384   1.809   2.625  2.0656 -0.4140 -1.0916
 4242SOL    MW416742   0.424   1.817   2.702 -0.6252  0.2046  0.8513
 4243SOL     OW16743   2.345   4.385   4.823 -0.1879 -0.0430  0.7913
 4243SOL    HW216744   2.414   4.451   4.823 -1.2785  1.3029 -2.6929
 4243SOL    HW316745   2.392   4.302   4.815  1.0838  0.7155  0.0348
 4243SOL    MW416746   2.360   4.382   4.822  0.2894 -0.4363  0.0803
 4244SOL     OW16747   6.205   1.077   6.154 -0.0065 -0.0060 -0.2464
 4244SOL    HW216748   6.272   1.026   6.199  0.4024  2.4189  2.2377
 4244SOL    HW316749   6.251   1.153   6.120 -0.8768 -0.2783 -2.1309
 4244SOL    MW416750   6.220   1.081   6.156 -0.7390  0.8098 -0.2830
 4245SOL     OW16751   0.345   2.808   3.837  0.2713  0.5093 -0.2040
 4245SOL    HW216752   0.258   2.815   3.876  0.5339  1.0375  0.2906
 4245SOL    HW316753   0.382   2.728   3.873  0.6665  1.1975  0.9666
 4245SOL    MW416754   0.339   2.798   3.847 -0.0268  0.7854  0.1178
 4246SOL     OW16755   4.945   4.548   5.526  0.6681 -0.0371  0.6489
 4246SOL    HW216756   4.950   4.566   5.432 -0.4837 -1.3444  0.3100
 4246SOL    HW316757   4.901   4.626   5.562 -0.2593 -0.1711 -0.1314
 4246SOL    MW416758   4.940   4.561   5.518 -0.4748  0.7071 -0.1578
 4247SOL     OW16759   1.065   5.277   5.316  0.6890  0.0488  0.1067
 4247SOL    HW216760   1.118   5.260   5.237  1.5245  0.7853  0.4986
 4247SOL    HW316761   1.129   5.281   5.387  0.1388  1.2305  0.5556
 4247SOL    MW416762   1.080   5.275   5.315 -0.6458  0.6405  0.1392
 4248SOL     OW16763   3.608   4.374   3.129  0.6112 -0.8844 -0.8660
 4248SOL    HW216764   3.686   4.351   3.180 -0.5745 -1.6172  0.6988
 4248SOL    HW316765   3.588   4.294   3.080 -0.2656 -1.3840  0.2605
 4248SOL    MW416766   3.616   4.360   3.129 -0.6409 -0.6695  0.2294
 4249SOL     OW16767   4.714   2.733   1.076  0.1484  0.1535 -0.3808
 4249SOL    HW216768   4.734   2.672   1.005 -1.6044  0.0656 -0.8532
 4249SOL    HW316769   4.716   2.819   1.036  1.1380  0.3009 -0.0508
 4249SOL    MW416770   4.717   2.736   1.062 -0.1697 -0.2620  0.0205
 4250SOL     OW16771   0.205   6.026   1.021 -0.0946 -0.4576 -0.8562
 4250SOL    HW216772   0.292   6.054   1.050 -0.9972  0.9226  0.6582
 4250SOL    HW316773   0.187   6.081   0.945 -0.2142  0.3101 -0.2902
 4250SOL    MW416774   0.214   6.037   1.015  0.4147 -0.5139 -0.0307
 4251SOL     OW16775   3.622   5.795   1.929  0.1635  0.1698  0.0920
 4251SOL    HW216776   3.642   5.863   1.993 -1.6089  0.8893 -0.0528
 4251SOL    HW316777   3.563   5.837   1.867 -0.3945 -1.3045 -0.4200
 4251SOL    MW416778   3.617   5.810   1.930 -0.3026  0.5127  0.6370
 4252SOL     OW16779   2.549   1.693   6.013  0.4826  0.1548 -0.5173
 4252SOL    HW216780   2.569   1.774   5.966 -1.4324  0.4441 -0.9406
 4252SOL    HW316781   2.607   1.694   6.089  2.3900  0.5573 -1.8978
 4252SOL    MW416782   2.559   1.704   6.017  0.0749 -0.0637 -0.5273
 4253SOL     OW16783   4.632   2.390   0.300  0.3584  0.0364  0.1758
 4253SOL    HW216784   4.653   2.312   0.248 -2.1932  0.3964 -1.5578
 4253SOL    HW316785   4.570   2.358   0.366  0.3904  0.3434  0.3535
 4253SOL    MW416786   4.627   2.375   0.302  0.3223  0.4565  0.5135
 4254SOL     OW16787   3.395   4.795   3.369  0.4214  0.3160 -0.4036
 4254SOL    HW216788   3.344   4.814   3.448  0.8090 -0.6074  0.0902
 4254SOL    HW316789   3.482   4.829   3.389  0.4059  0.4744 -0.6107
 4254SOL    MW416790   3.400   4.802   3.382  0.1985 -0.1694 -0.2444
 4255SOL     OW16791   3.298   3.100   2.218  0.4004  0.2208  0.2331
 4255SOL    HW216792   3.306   3.013   2.180  0.6485  0.0303  0.7234
 4255SOL    HW316793   3.388   3.126   2.240  0.1646 -0.0869  1.6196
 4255SOL    MW416794   3.311   3.092   2.216  0.0912  0.2005  0.1859
 4256SOL     OW16795   6.020   6.156   4.970  0.5509  0.4361  0.2463
 4256SOL    HW216796   5.956   6.206   4.918  0.4716  0.8300  0.7175
 4256SOL    HW316797   6.007   6.065   4.942  0.6742  0.6638 -0.6003
 4256SOL    MW416798   6.010   6.151   4.959 -0.1586 -0.2870  0.7072
 4257SOL     OW16799   1.956   1.522   2.967  0.5685 -0.9791 -0.4249
 4257SOL    HW216800   2.017   1.565   2.908  1.3945  1.1985  1.8778
 4257SOL    HW316801   2.009   1.458   3.015  0.7008 -0.2370  0.4317
 4257SOL    MW416802   1.971   1.519   2.966 -0.8436  0.3351  0.2782
 4258SOL     OW16803   2.880   4.115   4.943 -0.2320  0.1405  0.6182
 4258SOL    HW216804   2.831   4.159   4.873 -0.6689 -0.5521  0.4740
 4258SOL    HW316805   2.911   4.186   4.999 -2.6165  0.5722  1.5220
 4258SOL    MW416806   2.877   4.130   4.941 -0.3392  0.0923 -0.5526
 4259SOL     OW16807   4.533   3.655   3.927  0.1171  0.3222  0.1975
 4259SOL    HW216808   4.503   3.719   3.992 -0.7934 -0.3913  0.4965
 4259SOL    HW316809   4.505   3.692   3.843  0.0616  0.5727  0.3259
 4259SOL    MW416810   4.525   3.669   3.924  0.0419  1.3908 -0.4633
 4260SOL     OW16811   6.291   5.000   0.293 -0.4090 -0.2879  0.0954
 4260SOL    HW216812   6.221   5.057   0.258 -0.8003 -0.8298 -0.0197
 4260SOL    HW316813   6.356   5.061   0.327 -0.0240  0.2800 -1.5446
 4260SOL    MW416814   6.290   5.016   0.293  1.0055  0.4446  0.1786
 4261SOL     OW16815   5.705   3.559   0.980 -0.0510 -0.1514  0.2721
 4261SOL    HW216816   5.613   3.534   0.970 -1.3903  2.0798  4.4346
 4261SOL    HW316817   5.743   3.489   1.032 -0.2473  0.2645  0.9938
 4261SOL    MW416818   5.698   3.546   0.986 -0.0251  0.2839  0.0179
 4262SOL     OW16819   4.501   5.234   2.002  0.3723 -0.1219  0.1708
 4262SOL    HW216820   4.499   5.300   1.933  0.7162 -0.4572 -0.1658
 4262SOL    HW316821   4.435   5.263   2.066 -2.5463 -1.5607 -1.9322
 4262SOL    MW416822   4.492   5.246   2.001  0.1768 -0.0916 -0.2478
 4263SOL     OW16823   6.008   0.482   0.656 -0.2795  0.1481  0.6386
 4263SOL    HW216824   5.981   0.406   0.605 -3.3185  0.5298  1.4705
 4263SOL    HW316825   6.072   0.526   0.601 -0.8024 -1.3322 -1.2625
 4263SOL    MW416826   6.013   0.478   0.642  0.0870  0.1222  0.6734
 4264SOL     OW16827   4.838   0.050   6.200  0.0929  0.8755 -0.7607
 4264SOL    HW216828   4.902  -0.019   6.217  0.1016  1.3665  1.5208
 4264SOL    HW316829   4.755   0.012   6.230  0.1295  1.8577  0.6866
 4264SOL    MW416830   4.836   0.036   6.206  0.8531 -0.4056  0.0445
 4265SOL     OW16831   3.206   3.346   4.652  0.5144 -0.0437 -0.0897
 4265SOL    HW216832   3.157   3.417   4.611  0.1101 -0.0191  0.4295
 4265SOL    HW316833   3.261   3.390   4.717  0.4938 -0.1780  0.0177
 4265SOL    MW416834   3.207   3.361   4.655 -0.3070 -0.0767 -0.0126
 4266SOL     OW16835   5.747   1.979   5.268  0.1495  0.2471  0.1544
 4266SOL    HW216836   5.826   1.933   5.297 -0.9668  0.6322  4.4103
 4266SOL    HW316837   5.780   2.061   5.232  1.7810  1.2681  3.5825
 4266SOL    MW416838   5.762   1.984   5.267  0.1132 -0.0426  0.2346
 4267SOL     OW16839   1.988   3.407   4.575 -0.5054 -0.0200 -0.3188
 4267SOL    HW216840   2.067   3.361   4.549 -0.9033  0.2307 -2.0442
 4267SOL    HW316841   2.004   3.498   4.550 -0.5249  0.4557  1.2440
 4267SOL    MW416842   2.000   3.413   4.568 -0.4901  0.5189  0.1039
 4268SOL     OW16843   3.342   2.772   0.345 -0.1137  0.3604 -0.4287
 4268SOL    HW216844   3.415   2.832   0.330 -1.1148  2.0501  1.0941
 4268SOL    HW316845   3.361   2.697   0.289  2.0720  1.3415 -1.1078
 4268SOL    MW416846   3.354   2.770   0.335  0.4216  0.2953 -0.0022
 4269SOL     OW16847   2.843   4.260   6.347  0.1250 -0.2546 -0.3264
 4269SOL    HW216848   2.870   4.171   6.325  0.4996  0.2335 -1.9472
 4269SOL    HW316849   2.872   4.313   6.273 -0.8183  1.0894  0.2267
 4269SOL    MW416850   2.850   4.255   6.334 -0.1481  0.2716  0.2250
 4270SOL     OW16851   0.814   3.311   0.433  0.1190 -0.5677  0.1190
 4270SOL    HW216852   0.885   3.349   0.485  0.2187 -0.0902 -0.3618
 4270SOL    HW316853   0.736   3.361   0.459  0.3844  0.5061 -1.0705
 4270SOL    MW416854   0.813   3.323   0.443  0.0346 -0.3321  0.2047
 4271SOL     OW16855   0.100   3.052   0.905  0.0195 -0.2451 -0.0898
 4271SOL    HW216856   0.046   3.131   0.904 -0.1161 -0.3333 -1.0860
 4271SOL    HW316857   0.057   2.993   0.843  1.5613 -0.1057 -1.3434
 4271SOL    MW416858   0.087   3.055   0.897 -0.4199 -0.0919  0.1400
 4272SOL     OW16859   0.502   1.264   3.104  0.3076  0.6251  0.2071
 4272SOL    HW216860   0.448   1.343   3.098 -0.9073 -0.2250 -0.5224
 4272SOL    HW316861   0.480   1.226   3.189  1.3454  1.3568  0.8284
 4272SOL    MW416862   0.492   1.269   3.115  0.2431  0.3346  0.1654
 4273SOL     OW16863   1.613   3.368   3.557 -0.4511  0.1573 -0.2719
 4273SOL    HW216864   1.592   3.459   3.535  0.1464 -0.1493 -2.4072
 4273SOL    HW316865   1.543   3.340   3.615 -0.6675  1.9656  0.3881
 4273SOL    MW416866   1.601   3.376   3.562 -0.0012 -0.4378  0.1267
 4274SOL     OW16867   5.030   3.890   0.411  0.1408  0.2263  0.2276
 4274SOL    HW216868   5.108   3.888   0.466  0.8760  0.9130 -0.7732
 4274SOL    HW316869   5.016   3.798   0.386  0.4868  0.0695  0.5965
 4274SOL    MW416870   5.038   3.877   0.415  0.1754 -0.1673 -0.1870
 4275SOL     OW16871   0.388   5.624   4.719  1.1864  0.0892 -0.0055
 4275SOL    HW216872   0.418   5.543   4.679  1.4407 -0.1541  0.6682
 4275SOL    HW316873   0.296   5.631   4.694  1.0824 -0.5669  0.1995
 4275SOL    MW416874   0.380   5.614   4.710  0.3048  0.0660  0.2091
 4276SOL     OW16875   1.286   4.522   0.227  0.1035 -0.1972 -0.0536
 4276SOL    HW216876   1.267   4.446   0.282  0.4138  0.4772  1.0188
 4276SOL    HW316877   1.206   4.536   0.177  0.6912 -2.4315 -1.7856
 4276SOL    MW416878   1.273   4.514   0.228  0.3436 -0.1261 -0.1210
 4277SOL     OW16879   2.621   5.250   2.204  0.0642 -0.1808 -0.0455
 4277SOL    HW216880   2.707   5.253   2.162  1.0900 -0.7790  1.9060
 4277SOL    HW316881   2.579   5.331   2.177  0.7211 -0.4406 -2.0330
 4277SOL    MW416882   2.627   5.261   2.195 -0.4043 -0.4190  0.2409
 4278SOL     OW16883   3.389   1.223   5.798  0.1417  0.2504 -0.2164
 4278SOL    HW216884   3.401   1.276   5.877 -0.2978 -1.2305  0.8877
 4278SOL    HW316885   3.407   1.133   5.826  1.5442 -0.1437 -2.1904
 4278SOL    MW416886   3.393   1.218   5.812  0.1891  0.9738  0.1059
 4279SOL     OW16887   3.306   6.344   2.022  0.1712  0.0294  0.0311
 4279SOL    HW216888   3.313   6.361   2.116 -1.3096 -0.3946  0.2430
 4279SOL    HW316889   3.214   6.362   2.001  0.5879  0.5580 -1.4359
 4279SOL    MW416890   3.295   6.349   2.032  0.3142 -0.5190  0.5378
 4280SOL     OW16891   6.286   5.020   2.588  0.2038  0.0147 -0.0445
 4280SOL    HW216892   6.361   5.080   2.595 -0.4800  0.7882  0.7495
 4280SOL    HW316893   6.321   4.936   2.617  0.5995  0.5222  0.9965
 4280SOL    MW416894   6.301   5.017   2.593  0.4737  0.7112 -1.0050
 4281SOL     OW16895   5.689   5.959   5.492  0.3391 -0.2729 -0.0630
 4281SOL    HW216896   5.660   5.893   5.429  1.5535 -0.3356 -0.5839
 4281SOL    HW316897   5.784   5.959   5.484  0.3584  2.9014 -1.5239
 4281SOL    MW416898   5.698   5.951   5.482  0.2320  0.8290  0.1064
 4282SOL     OW16899   5.892   4.630   2.904 -0.2538 -0.1513 -0.0690
 4282SOL    HW216900   5.985   4.648   2.887  0.0246 -1.6988 -0.3098
 4282SOL    HW316901   5.851   4.717   2.904  1.1305  0.5353 -0.2973
 4282SOL    MW416902   5.899   4.644   2.901  0.0066 -0.1355 -0.1965
 4283SOL     OW16903   3.545   3.587   4.313  0.2819 -0.2641 -0.1092
 4283SOL    HW216904   3.620   3.612   4.259  0.0922 -1.5113 -1.0147
 4283SOL    HW316905   3.471   3.590   4.252  0.1287 -2.1110 -0.0854
 4283SOL    MW416906   3.545   3.591   4.298  0.3536  0.2631 -0.2826
 4284SOL     OW16907   5.304   4.639   0.184  0.0902  0.1156  0.1698
 4284SOL    HW216908   5.384   4.688   0.201  0.0556  0.6308 -1.0247
 4284SOL    HW316909   5.319   4.597   0.099 -0.5762 -0.4983  0.3386
 4284SOL    MW416910   5.316   4.640   0.175  0.1464 -0.5324  0.1195
 4285SOL     OW16911   2.622   0.719   2.454 -0.7398 -0.4520  0.4113
 4285SOL    HW216912   2.645   0.795   2.508 -1.3132  0.6405 -0.8371
 4285SOL    HW316913   2.555   0.673   2.505 -1.5946  0.8020  0.4680
 4285SOL    MW416914   2.617   0.723   2.468  0.1623  0.1624  0.3367
 4286SOL     OW16915   1.739   1.768   4.280  0.7828 -0.1647 -0.2560
 4286SOL    HW216916   1.657   1.782   4.326  0.7031  1.5971 -0.8802
 4286SOL    HW316917   1.807   1.786   4.345  0.7043 -1.5904  0.2508
 4286SOL    MW416918   1.737   1.772   4.294 -0.9646  0.2460 -0.3979
 4287SOL     OW16919   1.927   6.416   4.164 -0.3617 -0.4693 -0.3373
 4287SOL    HW216920   1.996   6.362   4.202  0.2242  0.4418 -0.0620
 4287SOL    HW316921   1.949   6.420   4.071  0.0329 -0.0889 -0.2328
 4287SOL    MW416922   1.939   6.409   4.157 -0.0771  0.0477  0.3310
 4288SOL     OW16923   0.659   3.598   1.531 -0.1492 -0.1206  0.5300
 4288SOL    HW216924   0.720   3.666   1.503  0.9560 -1.0193  0.7200
 4288SOL    HW316925   0.600   3.642   1.592 -0.8157  1.1818 -0.9894
 4288SOL    MW416926   0.659   3.613   1.535 -0.0203 -0.2955  0.0134
 4289SOL     OW16927   5.001   2.177   6.226 -0.0801  0.5897 -0.2759
 4289SOL    HW216928   5.084   2.218   6.203 -0.4346  1.9077  0.6753
 4289SOL    HW316929   4.939   2.212   6.161 -0.4554  1.9039  0.7482
 4289SOL    MW416930   5.003   2.187   6.214 -0.1723 -0.4280 -0.5185
 4290SOL     OW16931   5.321   5.741   3.378  0.5370  0.2198  0.1917
 4290SOL    HW216932   5.326   5.687   3.299  1.7587  1.0510 -0.3161
 4290SOL    HW316933   5.390   5.706   3.435 -0.9794 -1.0403  1.3603
 4290SOL    MW416934   5.331   5.729   3.375  0.3513  0.1460 -0.0779
 4291SOL     OW16935   6.091   3.096   2.265 -0.5794  0.2404  0.5331
 4291SOL    HW216936   6.021   3.050   2.218  0.1686  0.2836 -0.6947
 4291SOL    HW316937   6.053   3.180   2.288 -1.6208 -0.5456  1.8410
 4291SOL    MW416938   6.077   3.101   2.262 -0.6433  0.6205  0.1641
 4292SOL     OW16939   3.452   4.454   4.028  0.3099  0.5457  0.7579
 4292SOL    HW216940   3.400   4.534   4.021  1.1011  0.9258 -1.2852
 4292SOL    HW316941   3.474   4.431   3.938  1.5102 -1.0486  1.4067
 4292SOL    MW416942   3.448   4.462   4.015 -0.5110  0.7131 -0.3465
 4293SOL     OW16943   1.418   3.555   3.051 -0.6839  0.8468  0.4993
 4293SOL    HW216944   1.429   3.502   3.129 -2.0372  1.5843  1.2356
 4293SOL    HW316945   1.485   3.623   3.058  0.1328  0.0787  0.2689
 4293SOL    MW416946   1.428   3.557   3.062 -0.7906  0.3106  0.5402
 4294SOL     OW16947   0.107   1.279   2.825 -0.2458 -0.2526  0.4250
 4294SOL    HW216948   0.130   1.190   2.798 -0.8397  0.4910 -2.8864
 4294SOL    HW316949   0.143   1.335   2.757 -1.7480  1.8960  1.2937
 4294SOL    MW416950   0.115   1.274   2.813 -0.0101  0.2793  0.2991
 4295SOL     OW16951   1.031   6.101   5.939 -0.0575  0.2515 -0.4008
 4295SOL    HW216952   1.046   6.123   5.847  1.2513 -1.0077 -0.5214
 4295SOL    HW316953   1.115   6.069   5.971 -1.0609 -1.6398  0.5558
 4295SOL    MW416954   1.044   6.099   5.931  0.4524 -0.8561  0.1207
 4296SOL     OW16955   1.154   4.617   0.977  0.0771 -0.2513 -0.5994
 4296SOL    HW216956   1.073   4.669   0.969  0.3936  0.5770  1.2122
 4296SOL    HW316957   1.136   4.555   1.047  1.0365  0.0076 -0.1050
 4296SOL    MW416958   1.141   4.616   0.985 -0.2567 -0.0701 -0.0789
 4297SOL     OW16959   3.225   0.468   6.114 -0.8255 -0.1265 -0.1865
 4297SOL    HW216960   3.218   0.376   6.141  1.0765  0.0947  1.3181
 4297SOL    HW316961   3.160   0.478   6.045 -2.3176 -2.1445  0.8072
 4297SOL    MW416962   3.215   0.457   6.109 -0.1761  0.3781 -0.4285
 4298SOL     OW16963   1.656   1.213   4.943 -0.5306 -0.4298 -0.1972
 4298SOL    HW216964   1.648   1.168   4.859 -0.6570  1.9780 -1.5720
 4298SOL    HW316965   1.748   1.236   4.950 -0.5471 -0.4941  0.2630
 4298SOL    MW416966   1.667   1.210   4.932  0.1441  1.3636  0.6176
 4299SOL     OW16967   3.203   0.350   2.773 -0.2625 -0.0692 -0.0252
 4299SOL    HW216968   3.298   0.338   2.772 -0.1074  1.0282 -0.2168
 4299SOL    HW316969   3.169   0.275   2.821  0.5298 -1.5153 -1.6214
 4299SOL    MW416970   3.211   0.339   2.779 -0.0926  0.0127 -0.1242
 4300SOL     OW16971   5.283   2.267   5.202 -0.1003 -0.0008  0.0201
 4300SOL    HW216972   5.223   2.318   5.147  0.9315  0.3152 -0.8446
 4300SOL    HW316973   5.307   2.326   5.274  1.8106  1.1445 -1.4659
 4300SOL    MW416974   5.278   2.281   5.204 -0.2579 -0.3411 -0.2467
 4301SOL     OW16975   3.700   5.694   5.796 -0.0965 -0.0324 -0.6851
 4301SOL    HW216976   3.671   5.652   5.876 -2.3755  1.6392 -0.5351
 4301SOL    HW316977   3.664   5.639   5.726 -0.6538  0.0992 -0.5115
 4301SOL    MW416978   3.691   5.682   5.797 -0.1861 -0.7055  0.1963
 4302SOL     OW16979   2.774   1.859   0.046  0.3438  0.0185 -0.1389
 4302SOL    HW216980   2.829   1.931   0.075  0.4306 -0.1830  0.2000
 4302SOL    HW316981   2.743   1.818   0.127 -0.4734  0.2588 -0.3167
 4302SOL    MW416982   2.777   1.863   0.061  0.2786  0.4737  0.1404
 4303SOL     OW16983   0.356   3.271   3.277 -0.1361 -0.0328  0.6313
 4303SOL    HW216984   0.414   3.276   3.200 -2.5422 -1.1441 -1.4009
 4303SOL    HW316985   0.379   3.188   3.319  0.6672  0.2046  0.6815
 4303SOL    MW416986   0.367   3.261   3.272  0.2943  0.3123 -0.4537
 4304SOL     OW16987   5.757   4.340   1.723 -0.4429 -0.3701 -0.6336
 4304SOL    HW216988   5.767   4.369   1.632 -2.3068  0.5993 -0.5557
 4304SOL    HW316989   5.680   4.283   1.722 -1.0413  0.3917  0.4936
 4304SOL    MW416990   5.748   4.336   1.711  0.0647  0.1300 -0.1562
 4305SOL     OW16991   0.760   4.605   3.660  0.2287 -0.5320 -0.0352
 4305SOL    HW216992   0.740   4.583   3.569 -1.8789 -1.0068  0.5026
 4305SOL    HW316993   0.795   4.694   3.656 -1.1496 -0.0015 -1.2046
 4305SOL    MW416994   0.762   4.613   3.648  0.3633  0.4081  0.0600
 4306SOL     OW16995   0.014   1.688   2.657 -0.1630  0.6343 -0.0330
 4306SOL    HW216996  -0.080   1.674   2.646 -0.2229 -0.5621  1.5467
 4306SOL    HW316997   0.020   1.750   2.730  0.2385 -1.3496  1.7145
 4306SOL    MW416998   0.002   1.694   2.665 -0.2210 -0.4843  0.2936
 4307SOL     OW16999   0.876   4.114   4.986 -0.1960 -0.1960  0.1001
 4307SOL    HW217000   0.849   4.046   4.924 -1.8027 -1.2137  1.7793
 4307SOL    HW317001   0.875   4.195   4.936 -0.1702 -1.1410 -1.4900
 4307SOL    MW417002   0.872   4.115   4.971  0.3606 -0.7768  0.0439
 4308SOL     OW17003   5.743   2.080   3.062  0.3909 -0.3049 -0.4299
 4308SOL    HW217004   5.734   2.012   2.995 -0.3747  1.0961 -1.8107
 4308SOL    HW317005   5.756   2.161   3.012 -1.1906  0.9402  1.0737
 4308SOL    MW417006   5.744   2.082   3.046 -0.0989  0.8279 -0.4428
 4309SOL     OW17007   4.304   0.221   1.204 -0.3132  0.6654  0.6949
 4309SOL    HW217008   4.297   0.140   1.255  0.5916 -1.9063 -2.8016
 4309SOL    HW317009   4.213   0.245   1.185 -0.6853 -1.5682 -0.8512
 4309SOL    MW417010   4.291   0.213   1.208  0.0227 -0.1953 -0.3344
 4310SOL     OW17011   1.457   5.797   1.801  0.3973 -0.1236  0.1519
 4310SOL    HW217012   1.388   5.859   1.824 -1.0715 -1.4836 -0.3906
 4310SOL    HW317013   1.487   5.762   1.885  0.3741  0.4078  0.3841
 4310SOL    MW417014   1.452   5.800   1.815 -0.5909 -0.0385 -0.5395
 4311SOL     OW17015   1.614   4.464   5.793 -0.0555 -0.3934  0.4246
 4311SOL    HW217016   1.690   4.522   5.788  0.1280 -0.7057 -0.5687
 4311SOL    HW317017   1.646   4.380   5.760 -1.3444  0.0047 -2.0804
 4311SOL    MW417018   1.629   4.460   5.788 -0.1739  0.2227 -1.1496
 4312SOL     OW17019   1.185   3.089   3.373 -0.3816 -1.3864 -0.1399
 4312SOL    HW217020   1.278   3.114   3.377 -0.6463 -0.4738  2.4902
 4312SOL    HW317021   1.186   2.995   3.353  1.1408 -1.4808  0.2489
 4312SOL    MW417022   1.198   3.080   3.371 -0.4244  0.2858  0.2701
 4313SOL     OW17023   3.397   0.232   4.332 -0.5463  0.2387  0.1941
 4313SOL    HW217024   3.348   0.262   4.256 -0.1240  1.2366  0.3015
 4313SOL    HW317025   3.387   0.137   4.332  0.1767  0.1341 -1.6024
 4313SOL    MW417026   3.389   0.224   4.322  0.0927  0.1860 -0.3381
 4314SOL     OW17027   5.515   3.271   5.620 -0.1283 -0.3684 -0.3319
 4314SOL    HW217028   5.539   3.332   5.689 -0.3503 -0.9615  0.2886
 4314SOL    HW317029   5.596   3.255   5.572  0.5253 -1.5203  1.0737
 4314SOL    MW417030   5.528   3.277   5.622  0.2588  0.2275 -0.3280
 4315SOL     OW17031   3.955   4.354   1.510 -0.4960 -0.2304 -0.4150
 4315SOL    HW217032   3.923   4.356   1.600 -0.2554  0.1735 -0.3369
 4315SOL    HW317033   4.000   4.438   1.498 -2.6770  0.8501 -1.7032
 4315SOL    MW417034   3.956   4.365   1.520 -0.3238 -0.7309  0.2196
 4316SOL     OW17035   5.698   2.925   4.957  0.1324  0.6839  0.0007
 4316SOL    HW217036   5.701   2.894   5.047 -0.9527  0.2726 -0.0883
 4316SOL    HW317037   5.758   2.867   4.909  0.6409  0.8482  0.4331
 4316SOL    MW417038   5.707   2.913   4.962 -0.5423 -0.2188  0.0536
 4317SOL     OW17039   0.844   5.153   4.935 -0.6667 -0.3243  0.5594
 4317SOL    HW217040   0.919   5.102   4.967  0.9606 -0.0584 -2.4578
 4317SOL    HW317041   0.872   5.244   4.941 -0.8544 -0.2020 -0.2502
 4317SOL    MW417042   0.858   5.158   4.940 -0.6527  0.8741  0.3630
 4318SOL     OW17043   6.216   3.508   0.922  0.3658  0.2588 -0.2950
 4318SOL    HW217044   6.174   3.521   0.836  0.3131 -1.6912 -0.6223
 4318SOL    HW317045   6.309   3.523   0.905  0.4591 -0.8684 -0.9171
 4318SOL    MW417046   6.222   3.512   0.908 -0.5581  0.4363  0.0350
 4319SOL     OW17047   4.728   1.436   2.363 -0.1796 -0.2191  0.0815
 4319SOL    HW217048   4.742   1.425   2.269 -0.5723 -1.1563  0.1175
 4319SOL    HW317049   4.650   1.491   2.368 -0.5199 -0.6638 -0.1591
 4319SOL    MW417050   4.719   1.442   2.351 -0.5199  0.0464  0.0892
 4320SOL     OW17051   0.092   4.519   0.128  0.0664 -0.4569 -0.2068
 4320SOL    HW217052   0.144   4.460   0.182  1.9352  1.3538  0.0716
 4320SOL    HW317053   0.029   4.558   0.188  0.5272 -0.2619  0.1507
 4320SOL    MW417054   0.090   4.516   0.143 -0.4283 -0.4113  1.1009
 4321SOL     OW17055   2.472   2.210   2.003  0.3771 -0.3646  0.0530
 4321SOL    HW217056   2.524   2.208   1.923  1.7404 -0.6520  0.9063
 4321SOL    HW317057   2.407   2.141   1.992  0.3453 -0.1901 -0.9251
 4321SOL    MW417058   2.470   2.201   1.991 -0.2685 -0.3826  0.2585
 4322SOL     OW17059   6.145   4.465   4.190 -0.0650 -0.4730  0.1807
 4322SOL    HW217060   6.228   4.509   4.208  1.0295 -2.9409  1.7948
 4322SOL    HW317061   6.108   4.449   4.277 -0.2966 -2.8035 -0.2888
 4322SOL    MW417062   6.151   4.468   4.204  0.3129  0.1524  0.0602
 4323SOL     OW17063   1.886   6.363   4.753  0.1090  0.2982 -0.3676
 4323SOL    HW217064   1.800   6.354   4.712 -0.0822  3.2427 -0.7804
 4323SOL    HW317065   1.867   6.385   4.844  0.4995 -1.3289  0.1423
 4323SOL    MW417066   1.872   6.364   4.760 -0.2308  0.9915  0.3103
 4324SOL     OW17067   2.049   6.044   3.760  0.4312  0.0752  0.1166
 4324SOL    HW217068   2.104   5.985   3.812  0.0980  1.0043  1.5719
 4324SOL    HW317069   2.096   6.052   3.677  0.9091 -1.5625  0.1850
 4324SOL    MW417070   2.063   6.037   3.756  0.4351 -0.2008 -0.3018
 4325SOL     OW17071   6.269   2.242   2.146 -0.2700  0.2244  0.2150
 4325SOL    HW217072   6.363   2.254   2.146 -0.3893  1.2843  0.6478
 4325SOL    HW317073   6.252   2.183   2.072  0.6185  0.9170 -0.5716
 4325SOL    MW417074   6.279   2.236   2.136  0.7651 -0.9699 -0.2133
 4326SOL     OW17075   3.600   2.217   4.851 -0.2157 -0.1546 -0.5202
 4326SOL    HW217076   3.642   2.152   4.793 -1.2048 -1.4872  0.1958
 4326SOL    HW317077   3.544   2.165   4.908 -1.3462  1.4034 -0.1592
 4326SOL    MW417078   3.598   2.201   4.851  0.6269  0.7024 -0.5851
 4327SOL     OW17079   2.181   0.457   0.381 -0.0219  0.2049  0.2396
 4327SOL    HW217080   2.262   0.506   0.394 -0.4203  1.3388 -1.2578
 4327SOL    HW317081   2.210   0.373   0.346  0.6600 -0.6342  2.6513
 4327SOL    MW417082   2.196   0.453   0.378  0.1129  0.6212 -0.0188
 4328SOL     OW17083   1.238   5.335   5.522 -0.6968  0.0861  0.1829
 4328SOL    HW217084   1.237   5.345   5.617 -4.0428  1.5524  0.1326
 4328SOL    HW317085   1.318   5.380   5.494 -0.4124  0.9174  2.2035
 4328SOL    MW417086   1.248   5.342   5.531  0.0039 -0.9827  0.2615
 4329SOL     OW17087   4.931   2.032   1.105 -0.5924 -0.0454  0.1268
 4329SOL    HW217088   4.952   2.014   1.196  0.6806 -0.6781 -0.2678
 4329SOL    HW317089   4.968   1.958   1.057  0.9215  1.4628 -1.1491
 4329SOL    MW417090   4.938   2.020   1.111 -0.2100 -0.6506 -0.3040
 4330SOL     OW17091   5.639   4.982   2.606  0.3822  0.1382  0.2980
 4330SOL    HW217092   5.717   5.034   2.627 -0.0587  0.3763  1.4159
 4330SOL    HW317093   5.672   4.894   2.591  0.8803  0.2549  0.6934
 4330SOL    MW417094   5.654   4.978   2.607  0.5544 -0.4329  0.1013
 4331SOL     OW17095   0.882   0.566   5.094 -0.3832 -0.0847 -0.3175
 4331SOL    HW217096   0.850   0.539   5.180  0.0810 -1.0981 -0.4551
 4331SOL    HW317097   0.927   0.649   5.110 -3.2757  1.6002 -0.1626
 4331SOL    MW417098   0.884   0.574   5.107 -0.1285  0.6636  0.1081
 4332SOL     OW17099   1.585   5.113   4.317 -0.0222  0.1581  0.1428
 4332SOL    HW217100   1.494   5.087   4.306 -0.8454  1.3310  3.1986
 4332SOL    HW317101   1.602   5.172   4.243 -1.4384 -0.7244 -0.9320
 4332SOL    MW417102   1.576   5.117   4.305 -0.2043 -0.1993 -0.0217
 4333SOL     OW17103   1.877   4.127   4.596  0.3158 -0.2498 -0.3905
 4333SOL    HW217104   1.879   4.042   4.551  1.4711 -0.0006 -0.8627
 4333SOL    HW317105   1.917   4.109   4.682 -1.4344 -0.6207  0.3796
 4333SOL    MW417106   1.883   4.113   4.601 -0.3756 -0.6131  0.8224
 4334SOL     OW17107   3.392   4.386   2.479 -0.4873  0.1263  0.0306
 4334SOL    HW217108   3.363   4.394   2.388 -0.4202 -2.2402 -0.2697
 4334SOL    HW317109   3.320   4.422   2.530 -2.3441 -2.0255 -0.8709
 4334SOL    MW417110   3.379   4.392   2.473 -0.4814  0.1598 -0.2425
 4335SOL     OW17111   6.305   4.649   5.140 -0.5214 -0.1193 -0.0891
 4335SOL    HW217112   6.348   4.694   5.068 -0.6913  0.9171  0.4390
 4335SOL    HW317113   6.377   4.624   5.199 -0.4313 -0.5056 -0.3603
 4335SOL    MW417114   6.320   4.652   5.138 -0.2327  0.0853  0.2422
 4336SOL     OW17115   5.409   0.806   4.885  0.0838  0.0571  0.0674
 4336SOL    HW217116   5.445   0.816   4.797 -1.0165 -0.0464 -0.4044
 4336SOL    HW317117   5.337   0.744   4.876  0.3016 -0.3820  1.1430
 4336SOL    MW417118   5.404   0.799   4.873  0.0565 -0.2596  0.5378
 4337SOL     OW17119   1.200   5.869   5.029  0.1642  0.2848 -0.0197
 4337SOL    HW217120   1.191   5.958   4.995 -1.0583 -0.0242 -0.5658
 4337SOL    HW317121   1.287   5.841   5.001  0.6116  1.3319  0.2573
 4337SOL    MW417122   1.210   5.877   5.021 -0.3729  0.3075  0.1946
 4338SOL     OW17123   3.845   4.028   3.446  0.7118 -0.4621  0.4092
 4338SOL    HW217124   3.823   4.093   3.513 -0.1287 -1.4720  1.1560
 4338SOL    HW317125   3.933   4.051   3.418 -0.1068  1.9192 -0.4720
 4338SOL    MW417126   3.854   4.039   3.451  0.0112 -0.6530  0.0219
 4339SOL     OW17127   3.653   2.561   5.864  0.3652 -0.0933 -0.2717
 4339SOL    HW217128   3.616   2.474   5.880 -0.8980  0.5988  0.6835
 4339SOL    HW317129   3.693   2.586   5.948 -0.2206  0.6850 -0.2167
 4339SOL    MW417130   3.653   2.553   5.877  1.2007 -0.3405 -0.3867
 4340SOL     OW17131   4.327   5.733   0.126  0.2550  0.2196 -0.1522
 4340SOL    HW217132   4.331   5.730   0.030  0.6193 -0.2553 -0.1295
 4340SOL    HW317133   4.274   5.810   0.146  2.1128  1.7232 -0.6947
 4340SOL    MW417134   4.320   5.743   0.116 -0.5131  0.5226 -0.1622
 4341SOL     OW17135   1.243   5.487   4.841  0.3218  0.2096 -0.1981
 4341SOL    HW217136   1.280   5.489   4.930  3.3801 -2.5123 -1.1719
 4341SOL    HW317137   1.272   5.569   4.801 -0.7863  1.3064  1.1349
 4341SOL    MW417138   1.252   5.498   4.848  0.1718  0.2564  0.0819
 4342SOL     OW17139   5.497   5.106   2.033  0.3666 -0.3203  0.2757
 4342SOL    HW217140   5.487   5.199   2.011  1.2776  0.1797  1.8291
 4342SOL    HW317141   5.589   5.087   2.013 -0.7245 -2.2428 -4.5441
 4342SOL    MW417142   5.508   5.116   2.027 -0.4582 -0.2953 -0.3121
 4343SOL     OW17143   1.644   1.062   0.267  0.1279 -0.3122  0.8216
 4343SOL    HW217144   1.706   1.019   0.326  0.0196 -0.1649  1.0454
 4343SOL    HW317145   1.696   1.085   0.190  0.5386  0.4964  1.3219
 4343SOL    MW417146   1.659   1.059   0.265  0.7095 -0.0239  0.2581
 4344SOL     OW17147   0.847   6.311   6.324 -0.1492 -0.0960 -0.3475
 4344SOL    HW217148   0.818   6.400   6.308 -0.8963 -0.4012 -0.7169
 4344SOL    HW317149   0.810   6.288   6.409  1.1018  0.3777  0.3532
 4344SOL    MW417150   0.839   6.320   6.333  0.4588 -0.2747 -0.3688
 4345SOL     OW17151   3.796   1.246   6.405  0.1811 -0.2833  0.0565
 4345SOL    HW217152   3.704   1.246   6.431  0.2040 -0.5129  0.1425
 4345SOL    HW317153   3.800   1.188   6.329 -0.0694  1.2191 -1.1566
 4345SOL    MW417154   3.784   1.238   6.398  0.1128  0.1443 -0.4139
 4346SOL     OW17155   1.324   5.084   5.509 -0.0445  0.5751 -0.0189
 4346SOL    HW217156   1.280   5.169   5.513  0.6700  0.9443  0.2115
 4346SOL    HW317157   1.417   5.106   5.512  0.1523 -0.1958 -0.4195
 4346SOL    MW417158   1.331   5.098   5.510 -0.1821 -0.5242  0.0851
 4347SOL     OW17159   4.326   4.722   0.320  0.0198  0.3807  0.2032
 4347SOL    HW217160   4.331   4.817   0.334  0.7134  0.2331  1.0461
 4347SOL    HW317161   4.387   4.685   0.384 -3.3612 -0.9160  2.9648
 4347SOL    MW417162   4.335   4.730   0.330  0.3041 -0.0459 -0.3872
 4348SOL     OW17163   2.961   0.836   0.212 -0.0134 -0.6071  0.1062
 4348SOL    HW217164   2.999   0.750   0.195  0.8157  0.1139 -2.0059
 4348SOL    HW317165   2.981   0.854   0.304  0.0182 -2.5421  0.5073
 4348SOL    MW417166   2.969   0.827   0.222  0.5705  0.0494  0.4478
 4349SOL     OW17167   5.104   5.252   5.508  0.6760  0.1011  0.1677
 4349SOL    HW217168   5.099   5.344   5.485  1.5208 -0.0035 -0.4680
 4349SOL    HW317169   5.150   5.251   5.592 -1.1582  0.3823  1.2237
 4349SOL    MW417170   5.109   5.264   5.516 -0.5410 -0.1685 -0.1531
 4350SOL     OW17171   1.305   2.741   4.988  0.2072  0.0017 -0.2459
 4350SOL    HW217172   1.224   2.744   5.039  1.2319  1.1924  1.4110
 4350SOL    HW317173   1.374   2.753   5.053  1.5640  2.5536 -2.0010
 4350SOL    MW417174   1.303   2.743   5.003  0.0156  0.6829  0.1409
 4351SOL     OW17175   4.058   3.620   5.409  0.7947  0.3700  0.1401
 4351SOL    HW217176   4.111   3.699   5.416  0.2640  0.8409 -0.9352
 4351SOL    HW317177   4.107   3.554   5.459  0.7864  1.5801  1.8179
 4351SOL    MW417178   4.072   3.622   5.416 -0.1152 -0.7840  0.3986
 4352SOL     OW17179   5.395   2.737   3.302 -0.0684  0.0862  0.0600
 4352SOL    HW217180   5.393   2.699   3.390 -0.0162  1.2295  0.5793
 4352SOL    HW317181   5.303   2.740   3.276 -0.0045 -1.2502 -0.3910
 4352SOL    MW417182   5.383   2.733   3.310 -0.3697 -0.0724 -0.6988
 4353SOL     OW17183   3.829   4.352   2.634 -0.4075  0.0149  0.1531
 4353SOL    HW217184   3.897   4.407   2.672 -0.8050 -0.5193  1.6903
 4353SOL    HW317185   3.747   4.386   2.669 -0.7496 -0.7900  0.1602
 4353SOL    MW417186   3.828   4.364   2.643  0.1536  0.3191 -0.3519
 4354SOL     OW17187   4.743   4.179   2.157 -0.4051  0.4787  0.0555
 4354SOL    HW217188   4.775   4.184   2.247 -1.6691 -1.1478  0.6312
 4354SOL    HW317189   4.720   4.270   2.135  2.6343  1.4304  0.2556
 4354SOL    MW417190   4.744   4.192   2.166  0.2762 -0.1119 -0.3061
 4355SOL     OW17191   4.132   3.917   4.928 -0.1234 -0.5501  0.5691
 4355SOL    HW217192   4.114   3.879   4.842 -1.5613 -0.4143  0.7858
 4355SOL    HW317193   4.051   3.904   4.977 -0.6262  2.5084  0.7526
 4355SOL    MW417194   4.119   3.910   4.923 -0.4997 -0.3504  0.3154
 4356SOL     OW17195   2.049   6.077   5.988  0.3472  0.0013 -0.1486
 4356SOL    HW217196   1.985   6.096   5.920 -1.9649  0.0871  1.9115
 4356SOL    HW317197   2.047   5.981   5.996  1.7147 -0.1417 -1.1295
 4356SOL    MW417198   2.040   6.067   5.980  0.9974  0.0045 -0.1568
 4357SOL     OW17199   3.983   0.794   3.415  0.2511  0.0140  0.2719
 4357SOL    HW217200   3.924   0.864   3.387 -1.5292 -1.3941  0.4007
 4357SOL    HW317201   4.038   0.836   3.482 -0.3645  1.4426 -0.0798
 4357SOL    MW417202   3.983   0.809   3.420 -0.5722 -0.4876 -0.0165
 4358SOL     OW17203   3.472   4.101   2.224 -0.3066  0.7220  0.1335
 4358SOL    HW217204   3.477   4.155   2.145 -0.4830  0.0430 -0.3459
 4358SOL    HW317205   3.564   4.087   2.249 -0.2666  1.9224  0.7439
 4358SOL    MW417206   3.485   4.106   2.217 -0.2899  0.0198 -0.7202
 4359SOL     OW17207   5.720   5.974   1.021 -0.6643  0.5254  0.2790
 4359SOL    HW217208   5.640   5.962   1.071 -0.9668  1.9460  0.1528
 4359SOL    HW317209   5.705   5.926   0.939 -1.4581  0.9601  0.1695
 4359SOL    MW417210   5.708   5.966   1.017 -0.4582  0.5385  0.1001
 4360SOL     OW17211   1.666   2.904   1.320 -0.3204 -0.4773 -0.0847
 4360SOL    HW217212   1.598   2.851   1.279  0.2542  0.0902 -1.8666
 4360SOL    HW317213   1.720   2.934   1.247  1.1459  0.0645  1.1747
 4360SOL    MW417214   1.664   2.901   1.305 -0.0203 -0.2089 -0.4367
 4361SOL     OW17215   3.703   0.945   1.987 -0.0570 -0.2333  0.4932
 4361SOL    HW217216   3.761   1.021   1.996 -0.7497  0.3474  0.1095
 4361SOL    HW317217   3.686   0.939   1.893  0.4421 -1.2109  0.4499
 4361SOL    MW417218   3.709   0.954   1.976  0.0359  0.3399 -0.6198
 4362SOL     OW17219   4.898   6.421   2.692 -0.2287  0.5646  0.1358
 4362SOL    HW217220   4.834   6.486   2.666 -0.0105  0.7569  0.0770
 4362SOL    HW317221   4.898   6.357   2.620  0.0022  0.8258 -0.1010
 4362SOL    MW417222   4.890   6.421   2.679 -0.1060  0.1041  0.0607
 4363SOL     OW17223   4.998   5.385   3.637  0.2284  0.2169 -0.2928
 4363SOL    HW217224   4.971   5.448   3.570  0.7734  1.1048  0.2955
 4363SOL    HW317225   5.048   5.319   3.590 -2.1856 -1.0404 -1.2821
 4363SOL    MW417226   5.001   5.385   3.622 -0.9948  0.0451 -0.2587
 4364SOL     OW17227   2.646   5.856   1.455  0.5060 -0.5749 -0.3787
 4364SOL    HW217228   2.607   5.774   1.425 -0.5611  0.4860 -2.0547
 4364SOL    HW317229   2.667   5.903   1.375  1.6666  0.5519  0.5427
 4364SOL    MW417230   2.644   5.851   1.441  0.9452 -0.3515 -0.5311
 4365SOL     OW17231   1.783   0.775   4.825  0.1925 -0.0865 -0.5369
 4365SOL    HW217232   1.692   0.780   4.796  0.3687  0.3445 -1.0291
 4365SOL    HW317233   1.835   0.782   4.745  0.6969  1.4893 -0.1017
 4365SOL    MW417234   1.778   0.776   4.811 -0.2830  0.6392  0.0428
 4366SOL     OW17235   0.633   3.651   2.271  0.4504  0.1229 -0.2786
 4366SOL    HW217236   0.558   3.594   2.258  0.3361 -0.1649  1.4613
 4366SOL    HW317237   0.596   3.739   2.283  0.3865  0.0005  0.4565
 4366SOL    MW417238   0.618   3.655   2.271 -0.3410  0.1142 -0.2989
 4367SOL     OW17239   2.228   3.707   2.873  0.6284  0.1953  0.3953
 4367SOL    HW217240   2.201   3.758   2.797  0.2672  1.2954  1.2330
 4367SOL    HW317241   2.154   3.648   2.890 -1.6049  3.3506  2.8251
 4367SOL    MW417242   2.215   3.706   2.865  0.1304  0.3053  0.5843
 4368SOL     OW17243   5.682   0.061   3.572  0.1352  0.2172 -0.2378
 4368SOL    HW217244   5.776   0.055   3.590  0.0286  0.0622  0.3099
 4368SOL    HW317245   5.668   0.152   3.548  0.1951  0.6051  1.1335
 4368SOL    MW417246   5.693   0.072   3.571 -0.1532 -0.0644  0.2407
 4369SOL     OW17247   1.487   3.531   5.019  0.6509 -0.0254  0.2554
 4369SOL    HW217248   1.524   3.522   4.931 -3.0506  1.2877 -1.6713
 4369SOL    HW317249   1.486   3.626   5.034  0.6762 -0.2090  1.4502
 4369SOL    MW417250   1.492   3.542   5.009 -0.3608  0.5773  0.2101
 4370SOL     OW17251   0.072   1.435   3.053  0.1017  0.0042  0.3280
 4370SOL    HW217252   0.155   1.470   3.085 -0.0695 -0.1296  0.9379
 4370SOL    HW317253   0.093   1.395   2.969  1.1095 -1.9479  1.4320
 4370SOL    MW417254   0.085   1.434   3.046 -0.0369 -0.6584 -0.0555
 4371SOL     OW17255   3.446   4.846   3.925 -0.4663  0.2028 -0.0264
 4371SOL    HW217256   3.529   4.842   3.879 -0.4684 -0.1161 -0.0106
 4371SOL    HW317257   3.466   4.887   4.009 -0.6121  1.5250 -0.6148
 4371SOL    MW417258   3.459   4.851   3.930  0.1776  0.0557 -0.0396
 4372SOL     OW17259   5.836   5.467   1.093  0.4360 -0.2033  0.2328
 4372SOL    HW217260   5.761   5.414   1.118  0.6000 -0.1492  0.8705
 4372SOL    HW317261   5.884   5.415   1.028  1.4942 -1.5809  2.0270
 4372SOL    MW417262   5.833   5.453   1.088  0.3354  0.4670  1.0507
 4373SOL     OW17263   1.054   4.593   3.388 -0.5974  0.1997 -0.1563
 4373SOL    HW217264   1.087   4.508   3.360 -0.7849  0.3203 -0.7754
 4373SOL    HW317265   1.089   4.606   3.476  2.8621  1.2660 -1.4984
 4373SOL    MW417266   1.063   4.584   3.396  0.4640  0.1330 -0.3365
 4374SOL     OW17267   5.454   5.707   5.673 -0.3272 -0.3741  0.0287
 4374SOL    HW217268   5.524   5.727   5.735 -0.4415 -1.0759  0.3880
 4374SOL    HW317269   5.451   5.611   5.669 -0.5103 -0.3419 -0.8431
 4374SOL    MW417270   5.463   5.697   5.681 -0.2119 -0.0726  0.0868
 4375SOL     OW17271   0.923   2.083   5.152  0.7050  0.0536 -0.1490
 4375SOL    HW217272   0.979   2.139   5.098 -0.1573  0.9122 -0.1879
 4375SOL    HW317273   0.885   2.143   5.216 -0.7251 -0.3556 -0.5770
 4375SOL    MW417274   0.925   2.098   5.153  0.1093  0.2968  0.2934
 4376SOL     OW17275   4.254   4.283   2.302  0.5159 -0.2609 -0.4175
 4376SOL    HW217276   4.247   4.378   2.319  2.1662  0.3753 -2.8776
 4376SOL    HW317277   4.287   4.247   2.384  1.5786  1.5778  0.0197
 4376SOL    MW417278   4.257   4.291   2.315 -0.0653  0.4428 -0.5424
 4377SOL     OW17279   0.332   5.182   6.271 -0.5513 -0.0137  0.4726
 4377SOL    HW217280   0.259   5.232   6.235 -0.8459 -1.3101 -0.8260
 4377SOL    HW317281   0.406   5.204   6.215  0.0110  1.0555  1.5933
 4377SOL    MW417282   0.332   5.191   6.259  0.8248 -0.4029 -0.2561
 4378SOL     OW17283   5.740   3.314   5.092  0.2066  0.4240 -0.3716
 4378SOL    HW217284   5.723   3.296   4.999  1.2884  0.7031 -0.6300
 4378SOL    HW317285   5.653   3.328   5.129 -0.5154 -2.3964 -0.7643
 4378SOL    MW417286   5.726   3.313   5.084  0.3588  0.3396 -0.1045
 4379SOL     OW17287   1.720   5.486   3.610 -0.0141  0.2361  0.0566
 4379SOL    HW217288   1.693   5.490   3.702  0.2778 -1.4204  0.2417
 4379SOL    HW317289   1.779   5.411   3.606  0.7123  0.8514 -1.3137
 4379SOL    MW417290   1.724   5.476   3.622  0.0193 -0.4143  0.1473
 4380SOL     OW17291   3.596   2.860   0.014 -0.1373 -0.5312 -0.5554
 4380SOL    HW217292   3.687   2.836   0.030 -0.0918  0.0949  0.1992
 4380SOL    HW317293   3.553   2.777  -0.010  0.8853 -0.6223 -2.2516
 4380SOL    MW417294   3.602   2.846   0.013  0.0549 -0.1799 -0.1068
 4381SOL     OW17295   2.909   4.373   1.686 -0.0096 -0.8046 -0.4082
 4381SOL    HW217296   2.939   4.464   1.690 -1.7728 -0.2367  0.7041
 4381SOL    HW317297   2.858   4.361   1.766 -1.8167 -2.0388 -1.6876
 4381SOL    MW417298   2.906   4.384   1.697 -0.0978 -0.5485  0.3053
 4382SOL     OW17299   5.875   3.470   2.958 -0.3355  0.5039 -0.1047
 4382SOL    HW217300   5.936   3.460   3.032 -0.3179  0.6701 -0.0956
 4382SOL    HW317301   5.932   3.480   2.881 -0.3550  0.2217 -0.1540
 4382SOL    MW417302   5.891   3.470   2.958 -0.5402 -0.3977  0.1422
 4383SOL     OW17303   2.240   3.948   5.139  0.5254 -0.1677 -0.2433
 4383SOL    HW217304   2.257   3.927   5.231  1.1856  0.2093 -0.2690
 4383SOL    HW317305   2.326   3.942   5.097  0.0309 -1.5809 -1.1035
 4383SOL    MW417306   2.254   3.944   5.146 -0.6984  0.1000  0.4764
 4384SOL     OW17307   0.138   0.803   2.882 -0.2975 -0.2652 -0.3562
 4384SOL    HW217308   0.055   0.822   2.926  0.5762 -0.9095  1.6638
 4384SOL    HW317309   0.197   0.872   2.911  0.7793 -1.6724  0.9544
 4384SOL    MW417310   0.134   0.815   2.892 -0.0834 -0.2497 -0.4596
 4385SOL     OW17311   4.320   4.279   4.903  0.0389  0.0641  0.2613
 4385SOL    HW217312   4.283   4.282   4.815  2.2946  0.1987 -0.7375
 4385SOL    HW317313   4.375   4.357   4.909 -0.8821  0.6475  2.2199
 4385SOL    MW417314   4.322   4.290   4.892  0.3205  0.4640  0.2588
 4386SOL     OW17315   5.318   4.973   4.045  0.2061 -0.4012  0.8999
 4386SOL    HW217316   5.320   5.052   4.100  2.1880  1.2677 -1.3472
 4386SOL    HW317317   5.384   4.915   4.083  1.7156  0.8277  0.2667
 4386SOL    MW417318   5.327   4.976   4.057  0.5370 -0.5188  0.4311
 4387SOL     OW17319   4.414   1.839   6.035 -0.2596  0.4117  0.4210
 4387SOL    HW217320   4.334   1.892   6.036 -0.9618 -0.6307  0.3118
 4387SOL    HW317321   4.445   1.839   6.125 -1.3173 -0.5571  0.7988
 4387SOL    MW417322   4.408   1.846   6.047 -0.2445  0.2139 -0.3805
 4388SOL     OW17323   2.892   4.387   5.363 -0.7742  0.5337  0.5413
 4388SOL    HW217324   2.967   4.372   5.306 -0.7544 -1.4294  1.0243
 4388SOL    HW317325   2.866   4.300   5.392 -1.3829  1.3786  2.7527
 4388SOL    MW417326   2.899   4.374   5.359  0.1114  0.0046  0.1533
 4389SOL     OW17327   3.309   1.876   1.292  0.0413  0.5353 -0.8046
 4389SOL    HW217328   3.293   1.956   1.242 -0.9097  1.0690  0.2875
 4389SOL    HW317329   3.298   1.805   1.228 -2.2753  1.1309 -1.1695
 4389SOL    MW417330   3.305   1.877   1.277  0.2045  0.2061  0.4533
 4390SOL     OW17331   4.506   5.804   4.797 -0.0209  0.0072  0.5705
 4390SOL    HW217332   4.577   5.775   4.854  1.1411  0.3157 -0.6647
 4390SOL    HW317333   4.433   5.746   4.818  0.6984 -0.5403  1.6321
 4390SOL    MW417334   4.506   5.792   4.807  0.2549  0.1595  0.3998
 4391SOL     OW17335   0.219   0.449   1.361  0.0403 -0.0855 -0.5893
 4391SOL    HW217336   0.235   0.463   1.268 -0.9424  0.7663 -0.6474
 4391SOL    HW317337   0.134   0.405   1.364  1.3876 -2.8446 -0.2136
 4391SOL    MW417338   0.210   0.445   1.349 -0.1013 -0.5707 -0.2925
 4392SOL     OW17339   2.389   2.452   2.537  0.7196 -0.3106  0.1635
 4392SOL    HW217340   2.409   2.446   2.630  2.7031  0.6117 -0.1439
 4392SOL    HW317341   2.297   2.428   2.530 -0.0841  1.6743  2.6240
 4392SOL    MW417342   2.380   2.448   2.548 -0.6281  0.1047  0.5536
 4393SOL     OW17343   5.412   2.387   0.883 -0.7208 -0.0801  0.0656
 4393SOL    HW217344   5.405   2.418   0.793  0.2012  2.3749  0.7593
 4393SOL    HW317345   5.499   2.415   0.911 -0.5346 -1.8221  1.3893
 4393SOL    MW417346   5.423   2.394   0.875  1.0669 -0.1888  0.2691
 4394SOL     OW17347   4.827   1.843   6.347 -0.2385 -0.4059  0.6064
 4394SOL    HW217348   4.916   1.873   6.328 -0.1951 -0.2496  1.0520
 4394SOL    HW317349   4.810   1.871   6.437 -1.9718  2.5832 -0.5227
 4394SOL    MW417350   4.836   1.850   6.356  0.7075 -0.2362  0.0092
 4395SOL     OW17351   2.479   1.102   4.983  0.1603  0.7972 -0.0996
 4395SOL    HW217352   2.424   1.101   4.904  0.3957  1.4913 -0.2771
 4395SOL    HW317353   2.568   1.117   4.950  0.2708  1.0020  0.2957
 4395SOL    MW417354   2.483   1.104   4.968  0.1286  0.7918  0.1021
 4396SOL     OW17355   4.289   2.391   4.974 -0.0979  0.4420  0.0903
 4396SOL    HW217356   4.203   2.391   5.016  0.1872  2.7988  0.8483
 4396SOL    HW317357   4.269   2.386   4.880 -0.8999 -1.5922  0.3323
 4396SOL    MW417358   4.275   2.391   4.967  0.4315 -0.4761 -0.3750
 4397SOL     OW17359   3.670   6.008   0.185 -0.0012 -0.1440  0.2526
 4397SOL    HW217360   3.644   6.092   0.222 -1.3270 -0.3185 -0.2400
 4397SOL    HW317361   3.653   6.016   0.091 -1.2605 -1.3329  0.3511
 4397SOL    MW417362   3.665   6.020   0.178  0.2405  0.1002  0.3977
 4398SOL     OW17363   4.381   3.507   1.094  0.5613 -0.2303  0.2778
 4398SOL    HW217364   4.336   3.580   1.135  0.9902  0.5211 -0.5371
 4398SOL    HW317365   4.315   3.438   1.088  0.0107  0.2555  0.6387
 4398SOL    MW417366   4.367   3.508   1.098 -0.3248 -0.2341  0.5693
 4399SOL     OW17367   5.552   5.091   3.173 -0.5576  0.0254  0.0631
 4399SOL    HW217368   5.555   5.166   3.233 -0.5824 -0.8083  1.1347
 4399SOL    HW317369   5.495   5.028   3.217 -0.7909 -0.5038 -0.9755
 4399SOL    MW417370   5.545   5.092   3.187  0.0159  0.1683  0.1176
 4400SOL     OW17371   2.976   3.748   2.080 -1.2550  0.2848 -0.2352
 4400SOL    HW217372   2.904   3.797   2.120 -1.4508 -0.7284  0.7056
 4400SOL    HW317373   2.984   3.669   2.135 -0.6125 -0.4759 -1.3939
 4400SOL    MW417374   2.967   3.744   2.093  0.4651 -0.2557 -0.2620
 4401SOL     OW17375   2.506   1.160   3.920 -0.1145 -0.3566 -0.2471
 4401SOL    HW217376   2.526   1.226   3.987 -0.2201  0.5867 -1.1172
 4401SOL    HW317377   2.476   1.084   3.969 -0.9223  0.5784  0.7558
 4401SOL    MW417378   2.505   1.159   3.935  0.2728  0.3310  0.2798
 4402SOL     OW17379   5.074   5.268   0.487 -0.3552 -0.6848 -0.1425
 4402SOL    HW217380   4.985   5.245   0.514 -0.5054  1.4993  1.5048
 4402SOL    HW317381   5.127   5.251   0.564  0.0287  1.3141  0.0730
 4402SOL    MW417382   5.069   5.262   0.501  0.0265  0.0516 -0.3798
 4403SOL     OW17383   0.999   5.588   3.213 -0.0052  0.1821  0.0545
 4403SOL    HW217384   1.048   5.654   3.262  0.7638 -1.3555  1.4482
 4403SOL    HW317385   1.044   5.583   3.128  0.2076  1.1078  0.1036
 4403SOL    MW417386   1.011   5.596   3.208  0.3880 -0.2564  0.2570
 4404SOL     OW17387   3.657   2.237   3.408 -0.1165 -0.3066  0.2796
 4404SOL    HW217388   3.598   2.267   3.339 -1.4519 -0.5240  1.2943
 4404SOL    HW317389   3.631   2.147   3.426 -0.6862  0.1404  1.9400
 4404SOL    MW417390   3.646   2.229   3.402 -0.3617  0.0914  0.3565
 4405SOL     OW17391   3.043   3.283   6.412 -0.4149  0.3317  0.2555
 4405SOL    HW217392   2.957   3.252   6.384  0.2706 -0.2114 -1.4249
 4405SOL    HW317393   3.046   3.375   6.387 -0.1336  0.0726 -0.7158
 4405SOL    MW417394   3.032   3.291   6.405  0.0440  0.0784  0.4307
 4406SOL     OW17395   4.018   1.173   3.491 -0.1389 -0.7251 -0.0653
 4406SOL    HW217396   4.072   1.245   3.526  1.6326 -1.6399 -0.7728
 4406SOL    HW317397   4.065   1.094   3.517  0.0982 -1.5018 -2.5746
 4406SOL    MW417398   4.032   1.172   3.499  0.5346 -0.4937  0.1458
 4407SOL     OW17399   3.016   5.277   4.177  0.1502  0.0142 -0.5602
 4407SOL    HW217400   3.042   5.345   4.239  0.0389 -1.0726  0.7307
 4407SOL    HW317401   2.992   5.202   4.232  0.2185 -1.0553 -1.9264
 4407SOL    MW417402   3.016   5.276   4.192 -0.6184  0.2693  0.1680
 4408SOL     OW17403   3.153   5.363   3.324 -0.4090  0.0707  0.1217
 4408SOL    HW217404   3.215   5.379   3.395 -0.5445 -1.6771  0.6884
 4408SOL    HW317405   3.182   5.420   3.253  1.7647 -0.5641  0.4202
 4408SOL    MW417406   3.165   5.372   3.324 -0.7075  0.3121 -0.1081
 4409SOL     OW17407   3.118   0.235   2.309  0.0972 -1.1149 -0.1236
 4409SOL    HW217408   3.112   0.310   2.369 -0.8324 -0.1768 -1.3297
 4409SOL    HW317409   3.204   0.244   2.267 -0.5721  0.1477 -1.3071
 4409SOL    MW417410   3.128   0.246   2.311 -0.3264 -0.0751 -0.0534
 4410SOL     OW17411   0.131   1.390   5.665 -0.1789  0.3271 -0.0183
 4410SOL    HW217412   0.111   1.409   5.573  1.5455 -1.8112 -0.9373
 4410SOL    HW317413   0.203   1.449   5.687  0.7526 -0.5034 -0.7344
 4410SOL    MW417414   0.138   1.400   5.656  0.6441 -0.6940 -0.3622
 4411SOL     OW17415   2.638   0.874   4.683 -0.3983 -0.2763 -0.5800
 4411SOL    HW217416   2.708   0.839   4.629 -0.9271 -3.0849  0.4104
 4411SOL    HW317417   2.559   0.865   4.629 -0.6007 -1.0495 -0.1653
 4411SOL    MW417418   2.637   0.868   4.669  0.2108 -1.0334  0.6898
 4412SOL     OW17419   3.191   6.381   2.320 -0.4955  0.0568 -0.1498
 4412SOL    HW217420   3.177   6.476   2.322  1.0847  0.3819 -1.7016
 4412SOL    HW317421   3.123   6.345   2.377 -0.4758  2.1853  1.3105
 4412SOL    MW417422   3.180   6.389   2.328 -0.3562  0.6169 -0.0259
 4413SOL     OW17423   2.952   2.044   5.258  0.2351 -0.1096 -0.0060
 4413SOL    HW217424   2.925   1.953   5.242  0.7801 -0.3951  0.6804
 4413SOL    HW317425   2.951   2.084   5.171 -0.7250 -0.5661 -0.2210
 4413SOL    MW417426   2.948   2.037   5.244  0.5674 -0.1597 -0.2670
 4414SOL     OW17427   2.521   2.413   1.621  0.2280 -0.2920  0.3856
 4414SOL    HW217428   2.448   2.452   1.668  0.7863  1.8285 -0.4128
 4414SOL    HW317429   2.586   2.482   1.615  0.2749 -0.4361 -3.3042
 4414SOL    MW417430   2.520   2.427   1.626 -0.0782 -0.2046 -0.2478
 4415SOL     OW17431   6.406   5.887   1.099 -0.0348  0.1489 -0.1682
 4415SOL    HW217432   6.406   5.800   1.058  2.6305  0.2279 -0.4659
 4415SOL    HW317433   6.490   5.925   1.074 -0.7970  2.5040  0.6633
 4415SOL    MW417434   6.417   5.880   1.090  0.5871  0.1802  0.2279
 4416SOL     OW17435   1.518   0.639   2.463 -0.2475  0.0142 -0.5938
 4416SOL    HW217436   1.590   0.577   2.455  1.5732  1.8593  0.4372
 4416SOL    HW317437   1.469   0.611   2.540  0.0620 -0.5969 -0.6197
 4416SOL    MW417438   1.521   0.627   2.472  0.1187  0.4982 -0.2206
 4417SOL     OW17439   0.179   2.140   4.380  0.1152  0.0472 -0.5638
 4417SOL    HW217440   0.186   2.066   4.441  0.9252  0.0960 -0.5808
 4417SOL    HW317441   0.108   2.194   4.415 -0.1015 -0.4464 -0.2295
 4417SOL    MW417442   0.171   2.137   4.393  0.0879 -0.5130  0.1135
 4418SOL     OW17443   1.507   0.555   3.430  0.0753 -0.5054 -0.2045
 4418SOL    HW217444   1.595   0.538   3.465  0.1186 -0.2489 -0.1894
 4418SOL    HW317445   1.449   0.516   3.495  0.2047 -3.6784 -1.7778
 4418SOL    MW417446   1.511   0.548   3.443  0.3282 -0.0265  0.4715
 4419SOL     OW17447   4.972   2.831   0.109  0.4563 -0.2038 -0.0422
 4419SOL    HW217448   4.954   2.825   0.203 -1.8693  1.0373 -0.3520
 4419SOL    HW317449   5.030   2.906   0.100 -0.2675  0.4034  0.3009
 4419SOL    MW417450   4.977   2.840   0.120  0.0962  0.5241 -0.1064
 4420SOL     OW17451   4.019   3.164   0.375  0.1962  0.0937  0.3481
 4420SOL    HW217452   3.969   3.099   0.425 -1.2149 -0.0832 -1.1929
 4420SOL    HW317453   4.108   3.156   0.408 -0.3426 -1.1877  1.6253
 4420SOL    MW417454   4.024   3.154   0.386  0.4531 -0.3144  0.5628
 4421SOL     OW17455   3.903   5.544   5.274 -0.3176  0.3367  0.9672
 4421SOL    HW217456   3.820   5.591   5.274 -1.9190 -2.2255 -0.4572
 4421SOL    HW317457   3.885   5.463   5.323  1.4120 -0.1805  0.8360
 4421SOL    MW417458   3.890   5.539   5.281  0.1367  0.2249  0.0555
 4422SOL     OW17459   1.237   2.993   1.749 -0.2666  0.2683 -0.4673
 4422SOL    HW217460   1.242   2.913   1.697 -0.0206 -0.4953  0.7234
 4422SOL    HW317461   1.314   3.044   1.721  0.1958 -0.3983 -0.4164
 4422SOL    MW417462   1.248   2.989   1.738 -0.6319  0.5037 -0.2910
 4423SOL     OW17463   2.405   4.095   2.773 -0.4925 -0.8377  0.0718
 4423SOL    HW217464   2.483   4.133   2.813 -0.0656 -1.2230 -0.3737
 4423SOL    HW317465   2.364   4.167   2.727 -1.0685 -0.3519  1.2950
 4423SOL    MW417466   2.410   4.109   2.772 -0.0283 -0.4935  0.6161
 4424SOL     OW17467   2.703   0.521   2.271  0.1420  0.2679  0.1521
 4424SOL    HW217468   2.701   0.571   2.353  0.4139  0.6822 -0.0883
 4424SOL    HW317469   2.655   0.441   2.291 -2.3484  1.5830 -0.0862
 4424SOL    MW417470   2.696   0.517   2.285  0.9120  0.3681  0.0637
 4425SOL     OW17471   4.003   1.778   0.431 -0.1530 -0.4748 -0.5526
 4425SOL    HW217472   3.991   1.866   0.397 -0.3228 -0.3053 -0.0638
 4425SOL    HW317473   4.006   1.789   0.526  1.0600 -0.8496 -0.5346
 4425SOL    MW417474   4.002   1.791   0.439 -0.4378  0.6831  0.5365
 4426SOL     OW17475   0.582   5.872   1.268 -0.0045 -0.2392 -0.1395
 4426SOL    HW217476   0.666   5.866   1.222  0.0874 -0.1673  0.0198
 4426SOL    HW317477   0.592   5.947   1.327 -0.4664  0.2901 -0.7184
 4426SOL    MW417478   0.594   5.881   1.270  0.2721  0.1112 -0.9470
 4427SOL     OW17479   0.858   4.084   4.371 -0.6627  0.0100  0.2412
 4427SOL    HW217480   0.927   4.117   4.429  0.6051  1.3133 -1.8550
 4427SOL    HW317481   0.776   4.110   4.414  0.1886  0.0889  1.8843
 4427SOL    MW417482   0.856   4.092   4.384  0.9302 -0.1251  0.2403
 4428SOL     OW17483   6.126   6.089   1.856 -0.3167  0.0812  0.2931
 4428SOL    HW217484   6.180   6.142   1.798  0.3502  0.1996  1.0012
 4428SOL    HW317485   6.185   6.062   1.926 -1.1831  0.2549  1.1195
 4428SOL    MW417486   6.141   6.092   1.858  0.2876  0.2077 -0.0364
 4429SOL     OW17487   0.986   4.937   4.574 -0.7016 -0.0589  0.2867
 4429SOL    HW217488   0.954   4.905   4.489 -1.0917 -0.1499  0.4667
 4429SOL    HW317489   1.010   4.858   4.622  0.4483  0.0377 -0.0959
 4429SOL    MW417490   0.985   4.922   4.569 -0.1493  0.3307 -0.0101
 4430SOL     OW17491   2.141   6.089   3.513 -0.3885  0.0775 -0.2836
 4430SOL    HW217492   2.227   6.086   3.553 -0.8781  0.0752  0.8069
 4430SOL    HW317493   2.110   5.999   3.515 -0.3717  0.0525 -0.8082
 4430SOL    MW417494   2.148   6.077   3.518 -0.6666  0.4252  0.4055
 4431SOL     OW17495   1.705   2.781   4.421  0.0363 -0.7236 -0.4834
 4431SOL    HW217496   1.626   2.765   4.473 -0.1844  1.5346 -0.0171
 4431SOL    HW317497   1.742   2.694   4.408 -1.9892 -1.7676  0.1192
 4431SOL    MW417498   1.699   2.768   4.426  0.5338 -0.3608 -0.1347
 4432SOL     OW17499   2.619   2.610   3.439  0.1751  0.4488 -0.0651
 4432SOL    HW217500   2.674   2.646   3.369 -0.2564  0.1923 -0.5478
 4432SOL    HW317501   2.657   2.525   3.458  0.4593  0.6372  0.2065
 4432SOL    MW417502   2.631   2.604   3.432 -0.0585 -0.2062 -0.2397
 4433SOL     OW17503   0.350   0.337   3.151 -0.3485 -0.1365  0.5370
 4433SOL    HW217504   0.412   0.289   3.095  0.4614 -0.3623  1.5867
 4433SOL    HW317505   0.275   0.355   3.094  0.7771  0.3816 -0.8682
 4433SOL    MW417506   0.349   0.333   3.136 -0.1802 -1.1775 -0.8324
 4434SOL     OW17507   0.901   0.452   5.370  0.5272 -0.6196  0.4247
 4434SOL    HW217508   0.981   0.427   5.416 -0.4650 -2.1406  1.4349
 4434SOL    HW317509   0.840   0.379   5.387 -0.6752 -0.0851 -1.3155
 4434SOL    MW417510   0.903   0.439   5.378 -0.7569  0.0131 -0.2599
 4435SOL     OW17511   4.920   1.433   4.590 -0.1555 -0.0743  0.1003
 4435SOL    HW217512   4.871   1.457   4.512  0.1095 -3.7478 -1.3864
 4435SOL    HW317513   5.011   1.456   4.569 -0.4952  2.5149  1.0373
 4435SOL    MW417514   4.926   1.439   4.577  0.3246  1.0243  0.5491
 4436SOL     OW17515   4.960   5.725   0.361 -0.4471  0.6616  0.0583
 4436SOL    HW217516   5.008   5.806   0.341  1.3455 -0.5989 -1.0139
 4436SOL    HW317517   5.027   5.657   0.361 -1.9761 -0.9038  0.5398
 4436SOL    MW417518   4.975   5.727   0.358  0.5057 -0.6186  0.7974
 4437SOL     OW17519   4.875   2.807   3.209  0.0807  0.6682  0.2343
 4437SOL    HW217520   4.840   2.839   3.292  0.2474 -1.7369  1.3357
 4437SOL    HW317521   4.965   2.780   3.230 -0.5076 -1.8693 -0.1115
 4437SOL    MW417522   4.882   2.807   3.223 -0.1662 -0.6295 -0.4396
 4438SOL     OW17523   2.738   5.360   0.602 -0.5791  0.1188 -0.3071
 4438SOL    HW217524   2.715   5.448   0.631 -0.2288  0.4082 -0.8957
 4438SOL    HW317525   2.721   5.304   0.678 -4.1553  0.1218 -0.9369
 4438SOL    MW417526   2.733   5.364   0.616  0.2352  0.2398  0.0992
 4439SOL     OW17527   0.801   3.938   1.145 -0.0790 -0.7030  0.5516
 4439SOL    HW217528   0.841   3.886   1.215  0.6089  0.6907  1.2379
 4439SOL    HW317529   0.709   3.945   1.170  0.4079  0.9527  2.1571
 4439SOL    MW417530   0.794   3.932   1.158 -0.2331 -0.4534 -0.0638
 4440SOL     OW17531   0.262   4.473   2.342 -0.0039  0.2892  0.2396
 4440SOL    HW217532   0.204   4.429   2.279 -1.4318  0.1803  1.5470
 4440SOL    HW317533   0.207   4.542   2.380  0.8577  0.4333  1.2643
 4440SOL    MW417534   0.247   4.476   2.339  0.1222 -0.5597 -0.1182
 4441SOL     OW17535   4.950   2.597   6.381 -0.0640 -0.5047  0.3305
 4441SOL    HW217536   5.042   2.570   6.380 -0.0402 -0.4250 -0.7414
 4441SOL    HW317537   4.947   2.672   6.440  0.4627 -0.8195  0.7675
 4441SOL    MW417538   4.962   2.603   6.389  0.4195  0.4100  0.2679
 4442SOL     OW17539   0.884   4.595   5.038  0.7102 -0.6426 -0.6181
 4442SOL    HW217540   0.868   4.516   4.988  1.2129 -0.8308 -0.4901
 4442SOL    HW317541   0.902   4.564   5.127  0.0073 -0.3249 -0.3603
 4442SOL    MW417542   0.885   4.581   5.043  0.3793 -0.3958 -0.2488
 4443SOL     OW17543   4.584   3.904   5.136  0.3053 -0.2269 -0.8778
 4443SOL    HW217544   4.646   3.972   5.162  0.0394 -0.6855  1.1074
 4443SOL    HW317545   4.510   3.952   5.098  0.3588  0.5597 -0.0210
 4443SOL    MW417546   4.583   3.919   5.135 -0.7838 -0.8456  0.1932
 4444SOL     OW17547   3.031   3.553   1.038  0.4588 -0.0930 -0.1236
 4444SOL    HW217548   3.068   3.602   0.965 -3.4847  2.5654 -0.6595
 4444SOL    HW317549   3.065   3.596   1.116 -0.6614  1.7345 -0.5834
 4444SOL    MW417550   3.040   3.565   1.039 -0.4153 -0.2470  0.2121
 4445SOL     OW17551   4.348   2.228   1.159 -0.0660 -0.0013  0.0153
 4445SOL    HW217552   4.353   2.307   1.213 -1.2698  0.2553 -0.2196
 4445SOL    HW317553   4.399   2.163   1.206  0.4565  0.7557  0.5074
 4445SOL    MW417554   4.355   2.230   1.172 -0.0331 -0.2032 -0.0833
 4446SOL     OW17555   5.945   5.418   4.102 -0.1358  0.0830  0.4821
 4446SOL    HW217556   5.989   5.369   4.171 -2.0493  0.1696  1.8750
 4446SOL    HW317557   5.940   5.508   4.136 -2.0496 -0.0891  0.8013
 4446SOL    MW417558   5.950   5.424   4.116 -0.1777  0.3151  0.0279
 4447SOL     OW17559   1.162   0.785   0.824 -0.3868 -0.0044  0.1815
 4447SOL    HW217560   1.161   0.880   0.823  2.6095  0.1318  1.0837
 4447SOL    HW317561   1.173   0.760   0.732 -0.6643  0.5406 -0.0009
 4447SOL    MW417562   1.163   0.794   0.811 -0.3452  0.5847  0.4703
 4448SOL     OW17563   3.323   4.131   4.420  0.1259  0.5133 -0.0731
 4448SOL    HW217564   3.235   4.137   4.456 -0.0927 -0.8514 -0.3219
 4448SOL    HW317565   3.318   4.177   4.336 -0.7017 -0.6086 -0.6677
 4448SOL    MW417566   3.311   4.138   4.414  0.0978  0.3954 -0.5859
 4449SOL     OW17567   3.839   0.248   5.054  0.5243 -0.0635  0.2810
 4449SOL    HW217568   3.881   0.322   5.096 -0.9772  1.6242 -1.0167
 4449SOL    HW317569   3.765   0.226   5.111 -0.9875  1.6512 -0.9202
 4449SOL    MW417570   3.835   0.255   5.067 -0.2250 -0.4848  0.7867
 4450SOL     OW17571   2.892   2.232   1.749 -0.3919 -0.0129  0.0400
 4450SOL    HW217572   2.925   2.307   1.799 -3.3851  0.2764  1.8852
 4450SOL    HW317573   2.894   2.261   1.658 -0.4307  1.8962  0.6070
 4450SOL    MW417574   2.896   2.246   1.743 -0.2981  0.4451  0.8368
 4451SOL     OW17575   5.353   5.017   5.856  0.8352  0.4482  0.2813
 4451SOL    HW217576   5.313   5.097   5.821  1.8792  0.4752 -0.9030
 4451SOL    HW317577   5.389   5.044   5.940 -1.4018  0.4712  1.2937
 4451SOL    MW417578   5.353   5.031   5.862 -0.5960  0.5344  0.3677
 4452SOL     OW17579   5.143   4.617   6.103  0.0938  0.1262  0.4151
 4452SOL    HW217580   5.210   4.551   6.084 -0.2718 -0.6903  1.8246
 4452SOL    HW317581   5.166   4.691   6.048  1.0590 -0.8321 -0.5252
 4452SOL    MW417582   5.155   4.618   6.093  0.2071  0.2784  0.5205
 4453SOL     OW17583   4.116   5.954   3.803 -0.0135 -0.5401  0.0970
 4453SOL    HW217584   4.131   6.048   3.802  0.1491 -0.5673 -0.5592
 4453SOL    HW317585   4.031   5.943   3.846 -1.4491  0.1289 -2.3380
 4453SOL    MW417586   4.107   5.965   3.808 -0.4389  0.6049  0.8673
 4454SOL     OW17587   5.956   5.309  -0.001  0.5258 -0.0628  0.1015
 4454SOL    HW217588   6.014   5.328  -0.075  0.8782  1.3747  0.7170
 4454SOL    HW317589   5.869   5.306  -0.039  0.9260 -1.8370 -0.7692
 4454SOL    MW417590   5.952   5.311  -0.016 -0.5886  0.3015  0.4808
 4455SOL     OW17591   1.397   2.657   3.959  0.3723 -0.7804  0.0173
 4455SOL    HW217592   1.373   2.630   4.047 -1.9930  0.6199 -0.1071
 4455SOL    HW317593   1.486   2.689   3.967  0.0848 -0.3556  1.9907
 4455SOL    MW417594   1.405   2.658   3.971  0.0423 -0.1947 -0.2705
 4456SOL     OW17595   6.355   2.674   3.020  0.1909  0.1521 -0.1961
 4456SOL    HW217596   6.391   2.588   3.042  1.5416  0.3776 -1.4240
 4456SOL    HW317597   6.263   2.669   3.049  0.0188 -1.9573 -0.9233
 4456SOL    MW417598   6.347   2.662   3.027 -0.0873 -0.0762 -0.2085
 4457SOL     OW17599   4.581   2.803   0.076 -0.3935  0.1549  0.6923
 4457SOL    HW217600   4.572   2.833   0.166 -1.2650  1.3660  0.2232
 4457SOL    HW317601   4.650   2.858   0.039  1.1537 -1.4440  1.0419
 4457SOL    MW417602   4.589   2.814   0.083  0.0131 -0.3898 -0.2003
 4458SOL     OW17603   5.055   0.653   5.178 -0.5478  0.2301  0.4670
 4458SOL    HW217604   5.006   0.730   5.206 -0.3428 -0.0306  1.6045
 4458SOL    HW317605   5.113   0.633   5.252  0.4301 -0.1669 -0.3856
 4458SOL    MW417606   5.056   0.660   5.192 -0.0502 -0.9717 -0.3155
 4459SOL     OW17607   6.029   1.814   3.373 -0.5550 -0.1354 -0.0158
 4459SOL    HW217608   6.079   1.896   3.380 -0.4283 -0.1956 -0.2262
 4459SOL    HW317609   6.034   1.790   3.281  0.0789 -0.7992  0.1763
 4459SOL    MW417610   6.036   1.822   3.362  0.2594  0.3943  0.2052
 4460SOL     OW17611   0.890   0.139   1.441  0.8717 -0.3002  0.4760
 4460SOL    HW217612   0.968   0.084   1.440  0.6409 -0.6262  0.0092
 4460SOL    HW317613   0.819   0.080   1.465  0.7011 -0.0962  0.4779
 4460SOL    MW417614   0.891   0.124   1.444 -0.3510  0.4073 -0.2983
 4461SOL     OW17615   5.921   6.249   6.263  0.3731 -0.1655 -0.0356
 4461SOL    HW217616   5.993   6.259   6.202  0.4647 -1.3956 -0.1620
 4461SOL    HW317617   5.962   6.252   6.349  0.4117  0.2822 -0.0653
 4461SOL    MW417618   5.936   6.251   6.266  0.0496 -0.0566  0.0113
 4462SOL     OW17619   2.341   1.155   1.899  0.2750 -0.1031  0.3371
 4462SOL    HW217620   2.279   1.189   1.963  0.1948  1.0401 -0.3267
 4462SOL    HW317621   2.288   1.135   1.821  0.8295  1.9479 -0.6416
 4462SOL    MW417622   2.326   1.157   1.897 -0.1062  0.2563 -0.0944
 4463SOL     OW17623   5.848   3.347   1.118 -0.3819 -0.0665 -0.7169
 4463SOL    HW217624   5.831   3.295   1.196  1.5975 -2.6918 -1.8635
 4463SOL    HW317625   5.883   3.284   1.054  1.1091  2.4889 -2.6407
 4463SOL    MW417626   5.850   3.332   1.120 -0.5251 -0.1112  0.0263
 4464SOL     OW17627   1.523   0.617   0.314  0.7678 -0.1968 -0.3114
 4464SOL    HW217628   1.581   0.648   0.245  0.3940 -2.1256 -1.5625
 4464SOL    HW317629   1.560   0.532   0.340  0.1649 -0.0940  0.9618
 4464SOL    MW417630   1.536   0.610   0.309 -0.3198  0.6018  0.2775
 4465SOL     OW17631   3.084   2.326   4.290 -0.5049  0.2459  0.3258
 4465SOL    HW217632   3.051   2.360   4.206  0.2229 -0.2670 -0.1754
 4465SOL    HW317633   3.088   2.232   4.277  0.0037  0.2036  0.8038
 4465SOL    MW417634   3.080   2.318   4.277 -0.5889 -0.0947 -0.1016
 4466SOL     OW17635   2.866   2.477   3.040  0.2474  0.1000 -0.0312
 4466SOL    HW217636   2.879   2.416   3.112  2.1343  0.8478  0.3137
 4466SOL    HW317637   2.830   2.423   2.969  0.6870 -1.1481  0.6639
 4466SOL    MW417638   2.863   2.462   3.040 -0.0691 -0.0982 -0.8268
 4467SOL     OW17639   6.292   0.767   4.985 -0.0139 -0.2279  0.4995
 4467SOL    HW217640   6.352   0.810   5.046  0.1988  0.6354 -0.2798
 4467SOL    HW317641   6.348   0.707   4.935 -0.5721 -2.7616  2.6701
 4467SOL    MW417642   6.308   0.765   4.986 -0.2454 -0.4378  0.3914
 4468SOL     OW17643   6.391   0.538   5.536  0.3318  0.2720  0.3390
 4468SOL    HW217644   6.340   0.511   5.460  0.4559  0.1099  0.3120
 4468SOL    HW317645   6.326   0.568   5.600  0.1394 -0.6516  0.6002
 4468SOL    MW417646   6.376   0.538   5.535 -0.1492 -0.4632  0.1359
 4469SOL     OW17647   6.198   4.985   3.042  0.0272 -0.4310  0.3316
 4469SOL    HW217648   6.158   4.978   2.955  3.6538 -1.7567 -1.3947
 4469SOL    HW317649   6.159   4.912   3.092 -1.7428  0.0641 -0.2309
 4469SOL    MW417650   6.187   4.974   3.037  0.2995  0.6363 -0.5988
 4470SOL     OW17651   0.286   2.050   5.807 -0.2905  0.3468  0.3384
 4470SOL    HW217652   0.251   2.000   5.881  1.0829  0.4022  1.0713
 4470SOL    HW317653   0.380   2.057   5.825 -0.2715  2.3661 -0.2145
 4470SOL    MW417654   0.294   2.045   5.819  0.1711 -0.0753  0.4474
 4471SOL     OW17655   3.420   1.579   1.561  0.1404 -0.6639 -0.2495
 4471SOL    HW217656   3.369   1.657   1.581  0.0030 -0.6908 -0.4945
 4471SOL    HW317657   3.370   1.507   1.601 -0.6186 -0.8314 -1.4648
 4471SOL    MW417658   3.407   1.580   1.569  0.1572 -0.1524 -0.0174
 4472SOL     OW17659   0.068   4.458   6.104  0.1626  0.4562  0.4012
 4472SOL    HW217660  -0.026   4.478   6.107  0.2905  2.1423 -2.4864
 4472SOL    HW317661   0.106   4.507   6.176 -0.8433  2.6161 -0.4404
 4472SOL    MW417662   0.060   4.467   6.114 -0.3746  0.1240 -0.2421
 4473SOL     OW17663   4.755   3.501   4.802  0.1504  0.9207  0.2015
 4473SOL    HW217664   4.659   3.497   4.806 -0.1612  3.5224 -1.9465
 4473SOL    HW317665   4.782   3.410   4.788 -2.0832  0.2354 -0.0419
 4473SOL    MW417666   4.746   3.488   4.801 -0.1981  0.3210  0.3934
 4474SOL     OW17667   3.845   5.830   4.287 -0.1517  0.4395  0.7389
 4474SOL    HW217668   3.924   5.809   4.337 -0.0703  1.8836  1.2647
 4474SOL    HW317669   3.879   5.867   4.205 -0.2854 -0.1621  0.4106
 4474SOL    MW417670   3.860   5.832   4.283  0.4363 -0.3210  0.4169
 4475SOL     OW17671   1.273   4.985   1.149 -0.0151  0.1301  0.7579
 4475SOL    HW217672   1.235   5.057   1.201  0.4307 -0.6744  2.2655
 4475SOL    HW317673   1.198   4.942   1.109 -0.5775 -0.3509  2.2580
 4475SOL    MW417674   1.258   4.989   1.151  0.3308  0.3350 -0.2359
 4476SOL     OW17675   2.996   1.902   2.254 -0.1217  0.7364 -0.1032
 4476SOL    HW217676   3.089   1.923   2.252  0.3657 -1.1180  1.2795
 4476SOL    HW317677   2.953   1.982   2.222  1.8956  1.7423 -0.4427
 4476SOL    MW417678   3.002   1.915   2.250  0.1215 -0.3505  0.6072
 4477SOL     OW17679   1.254   4.689   5.771 -0.2827 -0.0364 -0.4135
 4477SOL    HW217680   1.183   4.706   5.709 -0.5436  2.1964  0.4295
 4477SOL    HW317681   1.214   4.633   5.838 -0.2065 -1.8023 -1.7445
 4477SOL    MW417682   1.239   4.684   5.772  0.4796 -0.2995  0.0787
 4478SOL     OW17683   4.767   5.856   5.222  0.7219  0.4082 -0.6195
 4478SOL    HW217684   4.843   5.824   5.175  1.6870  1.3171  0.2785
 4478SOL    HW317685   4.728   5.778   5.262  2.5033  0.1822  0.7929
 4478SOL    MW417686   4.772   5.841   5.221 -0.5720 -0.1114 -0.3129
 4479SOL     OW17687   0.898   6.403   0.377  0.2229 -0.3789  0.5695
 4479SOL    HW217688   0.939   6.483   0.410  0.3720 -0.2292  0.0330
 4479SOL    HW317689   0.893   6.345   0.453 -3.0845  1.3749  1.9300
 4479SOL    MW417690   0.902   6.406   0.391  0.1719 -0.2906  0.4662
 4480SOL     OW17691   0.725   0.488   3.979  1.2481 -0.2184  0.0770
 4480SOL    HW217692   0.801   0.438   3.951  1.4693  0.2096 -0.0917
 4480SOL    HW317693   0.709   0.460   4.069  1.3325 -0.6371 -0.0391
 4480SOL    MW417694   0.733   0.478   3.987  0.1204 -0.5059 -0.0846
 4481SOL     OW17695   1.122   4.032   6.256  0.5636  0.2543 -0.4857
 4481SOL    HW217696   1.074   4.087   6.317 -0.9415 -1.2342 -0.2481
 4481SOL    HW317697   1.204   4.079   6.239  0.2209  1.5497  1.2645
 4481SOL    MW417698   1.127   4.045   6.262 -1.0714 -0.3136  0.2396
 4482SOL     OW17699   3.142   1.492   6.080  0.1771 -0.2470  0.6686
 4482SOL    HW217700   3.129   1.526   5.991 -0.8482 -1.6512  0.2381
 4482SOL    HW317701   3.064   1.520   6.128 -0.1375 -1.0043  0.6134
 4482SOL    MW417702   3.130   1.500   6.075  0.6096  0.2378  0.8940
 4483SOL     OW17703   2.597   3.876   5.720  0.6032 -0.2059  0.8222
 4483SOL    HW217704   2.662   3.831   5.775  2.0808  1.0462  0.1768
 4483SOL    HW317705   2.623   3.855   5.631 -0.2727 -0.1950  0.5590
 4483SOL    MW417706   2.609   3.867   5.716 -0.0685 -0.1587  0.0855
 4484SOL     OW17707   1.794   1.338   3.781  0.0958 -0.1518 -0.2956
 4484SOL    HW217708   1.834   1.253   3.797  1.9076  0.4709 -1.2062
 4484SOL    HW317709   1.751   1.329   3.696  0.9364  0.0452 -0.7489
 4484SOL    MW417710   1.794   1.326   3.772  0.4910 -0.2075 -0.5054
 4485SOL     OW17711   6.130   1.831   5.388 -0.1643 -0.2083  0.0512
 4485SOL    HW217712   6.202   1.784   5.345 -2.2074 -2.6609 -0.8938
 4485SOL    HW317713   6.118   1.910   5.334  1.2564 -0.1616 -0.2449
 4485SOL    MW417714   6.138   1.835   5.375 -0.0665  0.1015 -0.0956
 4486SOL     OW17715   6.299   4.062   1.509  0.1107 -0.3440 -0.2654
 4486SOL    HW217716   6.320   3.972   1.481  1.1313  0.1797 -1.2948
 4486SOL    HW317717   6.209   4.076   1.480 -0.5369 -1.4681  1.0929
 4486SOL    MW417718   6.290   4.052   1.501  0.2645  0.1506 -0.0318
 4487SOL     OW17719   3.527   1.490   0.292  1.0613 -0.3840 -0.7081
 4487SOL    HW217720   3.537   1.511   0.200 -0.2152  0.4802 -0.6874
 4487SOL    HW317721   3.460   1.552   0.323  1.8847 -0.2631  0.9282
 4487SOL    MW417722   3.519   1.501   0.284 -0.2726 -0.3980 -0.2584
 4488SOL     OW17723   1.820   5.709   6.255 -0.3630 -0.5793 -0.7595
 4488SOL    HW217724   1.845   5.704   6.347 -3.2055 -0.2896  0.1399
 4488SOL    HW317725   1.739   5.658   6.249 -1.6045  1.4250 -2.5252
 4488SOL    MW417726   1.813   5.702   6.266  0.1049  0.8392  0.1895
 4489SOL     OW17727   4.060   4.318   3.705 -0.1428  0.3428  0.1570
 4489SOL    HW217728   4.085   4.379   3.774 -1.6185  0.7437  0.3746
 4489SOL    HW317729   4.134   4.317   3.645  0.6385  0.9585  1.0879
 4489SOL    MW417730   4.073   4.326   3.706  0.3361 -0.3496 -0.1913
 4490SOL     OW17731   1.843   2.555   1.271 -0.1178 -0.1457  0.6153
 4490SOL    HW217732   1.754   2.532   1.244 -0.9953  3.0771  0.4013
 4490SOL    HW317733   1.899   2.508   1.210 -1.8109  0.4472 -1.5365
 4490SOL    MW417734   1.839   2.546   1.260  0.7702  0.3609 -0.1002
 4491SOL     OW17735   4.123   1.285   4.152  0.5177  1.1997  0.1787
 4491SOL    HW217736   4.084   1.333   4.225 -0.4728  0.7852 -0.0609
 4491SOL    HW317737   4.215   1.312   4.151 -0.0628  3.2733 -0.1277
 4491SOL    MW417738   4.130   1.295   4.162 -0.4634  0.2486  0.3865
 4492SOL     OW17739   4.648   4.497   4.146  0.5664  0.0567 -0.3989
 4492SOL    HW217740   4.736   4.471   4.120  0.8955  0.7753 -0.0341
 4492SOL    HW317741   4.648   4.490   4.241  0.4209  0.6506 -0.3549
 4492SOL    MW417742   4.660   4.492   4.155 -0.0324 -0.2436 -0.1683
 4493SOL     OW17743   1.515   2.780   5.136  0.8918 -0.5498 -0.4743
 4493SOL    HW217744   1.577   2.810   5.070  1.7630  1.1679  1.0273
 4493SOL    HW317745   1.538   2.688   5.150  1.8082 -0.4777 -1.3489
 4493SOL    MW417746   1.526   2.772   5.130  0.5298 -0.3407  0.5166
 4494SOL     OW17747   3.741   5.570   3.355  0.0574 -0.0196  0.4835
 4494SOL    HW217748   3.790   5.488   3.364  0.4118 -0.0722 -1.5544
 4494SOL    HW317749   3.652   5.543   3.332  0.3601  0.1390 -0.9778
 4494SOL    MW417750   3.735   5.556   3.353  0.1980 -0.0087  0.1675
 4495SOL     OW17751   5.208  -0.005   1.152 -0.7441 -0.3586  0.6061
 4495SOL    HW217752   5.281  -0.066   1.163 -1.3366 -1.0527  0.7921
 4495SOL    HW317753   5.250   0.080   1.138  0.1029 -0.8326  0.1499
 4495SOL    MW417754   5.223  -0.002   1.152 -0.2102 -0.5096 -0.4113
 4496SOL     OW17755   0.725   4.763   2.864 -0.1508 -0.1676  0.2001
 4496SOL    HW217756   0.813   4.800   2.873  0.1188 -0.1922 -1.8708
 4496SOL    HW317757   0.688   4.768   2.952  1.5442  0.7886  0.9103
 4496SOL    MW417758   0.732   4.769   2.877 -0.1845  0.3223  0.3342
 4497SOL     OW17759   3.035   5.382   2.952 -0.6395 -0.9272  0.4021
 4497SOL    HW217760   3.056   5.366   2.860 -0.3642 -1.6263  0.5834
 4497SOL    HW317761   3.112   5.425   2.988  0.4782 -3.2837  1.0114
 4497SOL    MW417762   3.048   5.385   2.944 -0.5489  0.3180 -0.0283
 4498SOL     OW17763   5.705   0.271   2.251 -0.2349  0.1703  0.2071
 4498SOL    HW217764   5.797   0.270   2.279 -0.3559 -0.8375  0.6269
 4498SOL    HW317765   5.658   0.227   2.322 -1.2673  1.9578  0.6805
 4498SOL    MW417766   5.711   0.265   2.264 -0.0136  0.8448  0.4620
 4499SOL     OW17767   1.261   2.939   5.332 -0.3139  0.1150  0.2685
 4499SOL    HW217768   1.306   2.973   5.409 -1.8987  1.1302  0.8009
 4499SOL    HW317769   1.168   2.953   5.351 -0.7429  0.4582 -1.8560
 4499SOL    MW417770   1.255   2.946   5.345  0.3415  0.2844  0.5092
 4500SOL     OW17771   5.353   4.845   4.438  0.0123  0.2605  0.6646
 4500SOL    HW217772   5.288   4.911   4.462  0.5420  1.0278  0.0304
 4500SOL    HW317773   5.304   4.763   4.436 -0.9273  0.8114  0.2794
 4500SOL    MW417774   5.338   4.843   4.441 -0.1237  0.1877 -0.0207
 4501SOL     OW17775   5.049   6.119   0.571 -0.4169  0.1593  0.5670
 4501SOL    HW217776   5.028   6.138   0.662 -1.1721  1.4856  0.1433
 4501SOL    HW317777   4.965   6.096   0.531 -0.3376  1.0278 -0.1174
 4501SOL    MW417778   5.036   6.118   0.577  0.3147  0.7700 -0.1964
 4502SOL     OW17779   4.932   1.789   1.840  0.1114 -0.0849  0.2767
 4502SOL    HW217780   5.016   1.807   1.797  0.9810  2.9081  2.7983
 4502SOL    HW317781   4.877   1.864   1.818 -1.6205 -1.5293 -0.5324
 4502SOL    MW417782   4.936   1.801   1.832 -0.3441  0.5014  0.2056
 4503SOL     OW17783   2.508   6.311   1.890 -1.1139  0.6638 -0.2967
 4503SOL    HW217784   2.532   6.218   1.891  0.7291  1.1037 -0.0395
 4503SOL    HW317785   2.422   6.313   1.848  0.1854 -0.8847 -3.3478
 4503SOL    MW417786   2.500   6.299   1.884  0.3475 -0.0482 -0.2964
 4504SOL     OW17787   6.282   3.752   0.363  0.0556  0.2628 -0.1951
 4504SOL    HW217788   6.250   3.775   0.276  0.0904  0.7993 -0.0742
 4504SOL    HW317789   6.232   3.809   0.422  0.6282  0.5059  0.0668
 4504SOL    MW417790   6.271   3.763   0.359 -0.2435 -1.0605  0.1735
 4505SOL     OW17791   3.984   4.805   0.925 -0.0397 -0.3105 -0.5566
 4505SOL    HW217792   3.931   4.800   0.846 -0.1229  1.3738 -0.6482
 4505SOL    HW317793   3.942   4.744   0.986  0.8884 -2.7951 -2.2287
 4505SOL    MW417794   3.972   4.796   0.922 -0.3273 -0.1168 -0.2193
 4506SOL     OW17795   6.204   5.982   0.961 -0.3863 -0.0981  0.3292
 4506SOL    HW217796   6.253   6.030   0.894 -0.4810  1.2196  1.1516
 4506SOL    HW317797   6.271   5.939   1.014 -0.0945  1.3452  1.1906
 4506SOL    MW417798   6.219   5.983   0.959 -0.1111  0.1146  0.0245
 4507SOL     OW17799   5.837   1.892   5.805 -0.1036  0.0458  0.0581
 4507SOL    HW217800   5.788   1.957   5.855 -1.0014 -0.5600 -0.0170
 4507SOL    HW317801   5.922   1.887   5.848 -0.3338  0.6424  0.5845
 4507SOL    MW417802   5.842   1.900   5.817 -0.6128  0.0659  0.4442
 4508SOL     OW17803   4.344   4.221   0.859  0.0122  0.3431 -0.0702
 4508SOL    HW217804   4.414   4.191   0.917 -1.9005 -2.9229  0.7865
 4508SOL    HW317805   4.384   4.223   0.772  1.5229 -0.0906  0.5838
 4508SOL    MW417806   4.359   4.217   0.855 -0.1888 -0.7859 -0.3125
 4509SOL     OW17807   2.257   6.392   2.982 -0.9455 -0.0950 -0.5237
 4509SOL    HW217808   2.229   6.336   2.909  0.1179 -0.6857 -0.5030
 4509SOL    HW317809   2.312   6.335   3.036  0.0912  0.9602 -0.4445
 4509SOL    MW417810   2.260   6.377   2.980 -0.3247  0.3493  0.4499
 4510SOL     OW17811   4.821   4.028   5.257 -0.2451 -0.0019  0.4084
 4510SOL    HW217812   4.832   4.019   5.352 -0.3263  0.5469  0.4756
 4510SOL    HW317813   4.889   3.971   5.219 -0.2642 -0.2819  0.7950
 4510SOL    MW417814   4.832   4.019   5.264 -0.4933  0.2321 -0.5778
 4511SOL     OW17815   5.132   3.741   2.292  0.3982  0.6068 -0.1806
 4511SOL    HW217816   5.214   3.702   2.323 -0.1790 -0.8655 -0.3891
 4511SOL    HW317817   5.119   3.702   2.205 -2.8539 -3.0305  1.6327
 4511SOL    MW417818   5.141   3.731   2.285  0.1303 -0.2275 -0.5554
 4512SOL     OW17819   5.960   3.613   6.183  0.0457 -0.1108  0.2657
 4512SOL    HW217820   5.991   3.549   6.119 -1.5035  0.4478 -1.1224
 4512SOL    HW317821   5.972   3.697   6.140 -1.5219  0.2372  0.4519
 4512SOL    MW417822   5.966   3.615   6.169  0.5306  0.0983  0.0726
 4513SOL     OW17823   5.506   6.236   3.812 -0.3520  0.2560  0.1814
 4513SOL    HW217824   5.535   6.319   3.776  0.9408 -0.3321 -0.2131
 4513SOL    HW317825   5.489   6.254   3.905 -0.4178  1.0244  0.0237
 4513SOL    MW417826   5.508   6.249   3.820 -0.5295  0.1601 -0.0212
 4514SOL     OW17827   1.477   3.869   2.648 -0.3628 -0.5537 -0.5882
 4514SOL    HW217828   1.560   3.901   2.685 -0.3395  1.4146 -2.1651
 4514SOL    HW317829   1.503   3.821   2.569 -0.7258  1.9030 -2.3124
 4514SOL    MW417830   1.492   3.867   2.643 -0.5361  0.7086 -0.5997
 4515SOL     OW17831   2.692   3.583   4.669 -0.1124  0.1194 -0.1378
 4515SOL    HW217832   2.655   3.664   4.705  1.1015  0.7721 -0.3302
 4515SOL    HW317833   2.786   3.598   4.668  0.1226 -1.2663 -0.2791
 4515SOL    MW417834   2.699   3.596   4.674  0.0898  0.1551  0.3073
 4516SOL     OW17835   3.905   3.115   2.681 -0.1165  0.0842  0.4055
 4516SOL    HW217836   3.898   3.029   2.640  1.0482 -0.5031  1.3460
 4516SOL    HW317837   3.846   3.111   2.756  0.9314 -0.4117  1.2303
 4516SOL    MW417838   3.897   3.103   2.686  0.0499  0.1108 -0.6556
 4517SOL     OW17839   0.480   1.837   5.496  0.3070 -0.0236 -0.6287
 4517SOL    HW217840   0.486   1.745   5.469  0.0807 -0.5987  1.1332
 4517SOL    HW317841   0.550   1.848   5.560  1.5471  1.5944 -2.1292
 4517SOL    MW417842   0.490   1.826   5.501 -0.0080  0.1732 -0.1726
 4518SOL     OW17843   3.740   4.209   5.737  0.4080  0.2273  0.0718
 4518SOL    HW217844   3.716   4.292   5.779 -1.0247  0.0506 -0.3243
 4518SOL    HW317845   3.771   4.154   5.809 -0.1873  0.5726  0.6076
 4518SOL    MW417846   3.741   4.213   5.752  0.3519  0.4010  0.3002
 4519SOL     OW17847   1.612   4.838   4.343 -0.0100 -0.4495  0.6291
 4519SOL    HW217848   1.535   4.803   4.387 -0.2420 -1.3776 -0.4945
 4519SOL    HW317849   1.600   4.933   4.347 -0.7970 -0.5598  1.1787
 4519SOL    MW417850   1.600   4.846   4.350 -0.8383 -0.1866  0.3955
 4520SOL     OW17851   5.084   2.369   2.861  0.1109 -0.2794  0.3286
 4520SOL    HW217852   5.123   2.439   2.913 -0.5148  0.9900 -0.8443
 4520SOL    HW317853   5.034   2.316   2.923  0.9950  0.0135  1.3075
 4520SOL    MW417854   5.083   2.371   2.876  0.0336 -0.0808 -0.5250
 4521SOL     OW17855   5.497   1.747   5.676  0.2013 -0.0849  0.0243
 4521SOL    HW217856   5.488   1.836   5.711 -2.2217 -0.0961 -0.4364
 4521SOL    HW317857   5.520   1.694   5.753 -0.4426  0.6207  0.7236
 4521SOL    MW417858   5.499   1.752   5.691  0.3641  0.4568  0.1760
 4522SOL     OW17859   0.147   3.380   4.875  0.0302  0.0499  0.1465
 4522SOL    HW217860   0.115   3.354   4.788 -0.1087 -1.2695  0.5757
 4522SOL    HW317861   0.220   3.439   4.856  0.1335 -0.3879 -0.8783
 4522SOL    MW417862   0.153   3.385   4.861 -0.5457 -0.4498  0.0607
 4523SOL     OW17863   2.016   2.451   3.311  0.0163 -0.1877 -0.6401
 4523SOL    HW217864   1.999   2.530   3.259  1.1283 -0.4352 -1.4289
 4523SOL    HW317865   1.934   2.401   3.306 -0.7474  0.9744 -0.0013
 4523SOL    MW417866   2.003   2.455   3.303 -0.1194 -0.1863 -0.0949
 4524SOL     OW17867   2.366   3.197   3.507 -0.0483  0.2499 -0.0304
 4524SOL    HW217868   2.309   3.221   3.580 -1.5082  3.5921 -2.0409
 4524SOL    HW317869   2.306   3.158   3.442  1.1695 -2.4226  0.3257
 4524SOL    MW417870   2.350   3.195   3.508  0.2187 -0.1840  0.6765
 4525SOL     OW17871   5.016   2.773   0.627  0.0915 -0.0739 -0.2930
 4525SOL    HW217872   4.929   2.765   0.590  0.5602 -0.6850 -1.3053
 4525SOL    HW317873   5.029   2.867   0.640 -1.4389 -0.0717  1.7163
 4525SOL    MW417874   5.007   2.784   0.624  0.0600  0.0471 -0.6379
 4526SOL     OW17875   1.603   4.224   6.327  0.1028 -0.2522 -0.3476
 4526SOL    HW217876   1.581   4.150   6.383  1.4937 -0.2763  0.1843
 4526SOL    HW317877   1.587   4.301   6.381  0.9862 -0.2594 -0.0640
 4526SOL    MW417878   1.598   4.225   6.341 -0.0308  0.0380 -0.0083
 4527SOL     OW17879   5.870   5.533   4.494 -0.0608 -0.3040  0.2935
 4527SOL    HW217880   5.807   5.604   4.487  1.4413  1.0284 -0.2583
 4527SOL    HW317881   5.943   5.559   4.437  1.1851 -1.5747  1.2235
 4527SOL    MW417882   5.872   5.546   4.485  0.1227 -0.0625  0.3531
 4528SOL     OW17883   0.645   6.306   1.134  0.3444 -0.8392  0.0379
 4528SOL    HW217884   0.621   6.399   1.135 -0.0879 -0.9376 -0.7074
 4528SOL    HW317885   0.723   6.301   1.189 -0.7568 -0.3441  1.7324
 4528SOL    MW417886   0.652   6.318   1.142 -0.2030 -0.1636  0.5584
 4529SOL     OW17887   3.264   1.005   5.604 -0.5850 -0.0542  0.2419
 4529SOL    HW217888   3.174   1.034   5.620  0.3589  2.4073  1.5860
 4529SOL    HW317889   3.301   0.991   5.691  0.6508  0.0751 -0.2390
 4529SOL    MW417890   3.257   1.007   5.617 -0.1481 -0.5094  0.0769
 4530SOL     OW17891   4.438   0.936   0.069  0.2360  0.5351  0.0207
 4530SOL    HW217892   4.463   0.855   0.114 -0.3476  1.0069  1.2158
 4530SOL    HW317893   4.520   0.966   0.028  0.3989 -0.7935 -0.6910
 4530SOL    MW417894   4.452   0.929   0.070  0.3513  0.2960 -0.0911
 4531SOL     OW17895   2.507   0.285   1.722 -0.0429  0.0143  0.3873
 4531SOL    HW217896   2.455   0.255   1.647 -1.1283  1.7065  0.3983
 4531SOL    HW317897   2.549   0.206   1.755 -0.8548 -1.0516 -0.9976
 4531SOL    MW417898   2.506   0.270   1.716  0.1126 -0.2696 -0.3215
 4532SOL     OW17899   5.064   5.551   4.206  0.3462 -0.3665  0.5613
 4532SOL    HW217900   5.000   5.522   4.140  2.1856 -0.5856 -1.2044
 4532SOL    HW317901   5.018   5.620   4.254 -1.3650 -0.7899 -0.3565
 4532SOL    MW417902   5.049   5.556   4.204 -0.4701  0.8244 -0.2799
 4533SOL     OW17903   2.846   3.874   5.230 -0.1073 -0.3963  0.4372
 4533SOL    HW217904   2.824   3.842   5.142  0.9048  0.5648 -0.1872
 4533SOL    HW317905   2.829   3.968   5.227 -1.2240 -0.5255  1.6693
 4533SOL    MW417906   2.841   3.882   5.218 -0.0086 -0.5966 -0.1843
 4534SOL     OW17907   2.750   2.604   1.644 -0.4816 -0.4316  0.3147
 4534SOL    HW217908   2.778   2.512   1.648  2.2052  0.3171  0.8490
 4534SOL    HW317909   2.774   2.640   1.730  0.8138  1.3190 -0.7077
 4534SOL    MW417910   2.757   2.597   1.656  0.0430  0.6873  0.3591
 4535SOL     OW17911   0.732   4.614   5.949 -0.5682  0.3279  0.3540
 4535SOL    HW217912   0.764   4.612   6.039 -0.2389  1.8402  0.2996
 4535SOL    HW317913   0.811   4.610   5.895 -0.4536  2.9737  0.2072
 4535SOL    MW417914   0.747   4.613   5.953  0.2127 -0.1971 -0.2396
 4536SOL     OW17915   5.319   2.800   6.387 -0.3165 -0.5656 -0.2709
 4536SOL    HW217916   5.409   2.810   6.356 -0.1250 -1.7621 -0.1684
 4536SOL    HW317917   5.323   2.821   6.480 -0.4423  0.8111 -0.5649
 4536SOL    MW417918   5.332   2.804   6.395  0.6610 -0.3892 -0.4531
 4537SOL     OW17919   6.177   2.363   4.648  0.1352  0.0024 -0.6955
 4537SOL    HW217920   6.138   2.436   4.599  1.3082  0.3583 -1.1499
 4537SOL    HW317921   6.113   2.292   4.641  0.2504  0.0270 -2.7956
 4537SOL    MW417922   6.163   2.363   4.640  0.0606 -0.3218 -0.7797
 4538SOL     OW17923   4.614   3.845   2.713 -0.5935  0.4857  0.4399
 4538SOL    HW217924   4.652   3.919   2.664 -0.1165 -0.4990 -0.7424
 4538SOL    HW317925   4.685   3.815   2.770  0.5858 -1.3773 -1.7962
 4538SOL    MW417926   4.629   3.851   2.714  0.0474 -0.1113 -0.5905
 4539SOL     OW17927   6.278   1.145   3.271 -0.1383  0.2547  0.4204
 4539SOL    HW217928   6.309   1.235   3.279  2.1654 -0.3767 -0.4091
 4539SOL    HW317929   6.203   1.151   3.211  1.7921  1.3614 -2.0930
 4539SOL    MW417930   6.272   1.158   3.264  0.2204 -0.0364  0.2634
 4540SOL     OW17931   0.496   2.529   1.382  0.2365  0.1156 -0.0523
 4540SOL    HW217932   0.501   2.464   1.452  2.5474 -1.3348 -1.4247
 4540SOL    HW317933   0.525   2.611   1.424  0.7681 -0.5286  0.8940
 4540SOL    MW417934   0.500   2.532   1.397 -0.6637  0.4740  0.5254
 4541SOL     OW17935   2.412   1.552   2.422 -0.2456  0.3208  0.1250
 4541SOL    HW217936   2.380   1.467   2.451 -1.5544  0.5566 -0.5298
 4541SOL    HW317937   2.353   1.615   2.465 -3.3572  0.6662 -3.9646
 4541SOL    MW417938   2.400   1.549   2.431 -0.5013  0.4571 -0.0630
 4542SOL     OW17939   1.097   5.249   3.692  0.0505 -0.1154  0.2534
 4542SOL    HW217940   1.158   5.184   3.657 -0.1017 -0.3081  0.3467
 4542SOL    HW317941   1.134   5.333   3.666  0.2819 -0.2380  0.1884
 4542SOL    MW417942   1.110   5.251   3.684  0.1507 -0.0417  0.3761
 4543SOL     OW17943   5.922   1.330   4.999 -0.2521 -0.3580 -0.5410
 4543SOL    HW217944   5.931   1.352   5.092 -0.3125 -1.9894 -0.1103
 4543SOL    HW317945   5.965   1.245   4.991 -1.4764 -0.9074 -1.7096
 4543SOL    MW417946   5.929   1.322   5.010  0.2267  0.5027 -0.1298
 4544SOL     OW17947   6.207   5.694   5.547 -0.1879 -0.1442 -0.0056
 4544SOL    HW217948   6.170   5.678   5.634 -0.9335 -1.2293 -0.4964
 4544SOL    HW317949   6.131   5.699   5.489  0.3464 -2.5659 -1.0590
 4544SOL    MW417950   6.192   5.692   5.551 -0.1926  0.6339 -0.3613
 4545SOL     OW17951   2.445   1.348   0.115 -0.0569  0.1110 -0.1568
 4545SOL    HW217952   2.394   1.326   0.192  0.8063 -0.9809  0.1335
 4545SOL    HW317953   2.523   1.392   0.149 -0.4370  1.1368 -0.5468
 4545SOL    MW417954   2.449   1.351   0.129  0.1640  0.4766  0.7779
 4546SOL     OW17955   0.386   2.438   3.033  0.6585  0.1718  0.0701
 4546SOL    HW217956   0.393   2.532   3.047 -1.6792  0.4342 -0.1361
 4546SOL    HW317957   0.418   2.425   2.943  0.8771  0.7689  0.0548
 4546SOL    MW417958   0.391   2.448   3.023 -0.0345  0.4179  0.1594
 4547SOL     OW17959   2.384   0.426   2.935  0.0912 -0.1051 -0.3285
 4547SOL    HW217960   2.417   0.380   2.857  0.5438  0.1292 -0.2799
 4547SOL    HW317961   2.292   0.401   2.940  0.2643 -0.7799 -0.4614
 4547SOL    MW417962   2.376   0.417   2.925  0.1259  0.3925 -0.3773
 4548SOL     OW17963   3.346   0.732   5.524  0.1010  0.3805  0.3363
 4548SOL    HW217964   3.379   0.709   5.438  1.1226  0.9978  0.5488
 4548SOL    HW317965   3.307   0.819   5.513 -0.4126  0.1559  0.3464
 4548SOL    MW417966   3.345   0.740   5.511 -0.0567 -1.0196 -0.1836
 4549SOL     OW17967   5.707   4.253   2.394 -0.0350  0.0051  0.6533
 4549SOL    HW217968   5.637   4.232   2.456 -0.6702  0.8612  0.2392
 4549SOL    HW317969   5.668   4.237   2.308  0.7191 -0.8030  0.4492
 4549SOL    MW417970   5.693   4.248   2.391 -0.2786 -0.6328  0.4272
 4550SOL     OW17971   0.571   2.102   5.803  0.2786 -0.2380 -0.5672
 4550SOL    HW217972   0.558   2.174   5.741  0.3085 -0.4947 -0.8727
 4550SOL    HW317973   0.573   2.145   5.889  1.9426  0.3365 -0.8537
 4550SOL    MW417974   0.570   2.117   5.806  0.1728 -0.2043 -0.8061
 4551SOL     OW17975   3.117   3.275   0.260  0.0522  0.8946  0.3898
 4551SOL    HW217976   3.067   3.266   0.179 -0.0812  1.5299  0.3932
 4551SOL    HW317977   3.056   3.251   0.330 -0.5972  2.6668  0.4731
 4551SOL    MW417978   3.103   3.271   0.259 -0.1474  0.0599  0.5933
 4552SOL     OW17979   5.560   4.819   3.022  0.5131 -0.3548  0.1835
 4552SOL    HW217980   5.570   4.758   3.096  1.2720  1.5447  1.7214
 4552SOL    HW317981   5.650   4.844   3.000  0.2474 -0.3303 -0.9349
 4552SOL    MW417982   5.573   4.814   3.029 -0.0707 -0.7022 -0.3783
 4553SOL     OW17983   3.291   2.430   2.730 -0.6451  0.4819 -0.4618
 4553SOL    HW217984   3.227   2.384   2.784  0.7818 -0.9036  0.1200
 4553SOL    HW317985   3.333   2.491   2.790  1.3525 -1.4687  0.2577
 4553SOL    MW417986   3.288   2.432   2.745 -0.0737  0.0469  0.2114
 4554SOL     OW17987   0.483   4.824   1.744 -0.1313  0.1752 -0.2931
 4554SOL    HW217988   0.401   4.868   1.765 -0.4452  0.5761 -2.1084
 4554SOL    HW317989   0.535   4.829   1.824 -1.3851  1.0435  0.5002
 4554SOL    MW417990   0.479   4.831   1.757  0.8538 -0.0795  0.2332
 4555SOL     OW17991   5.165   4.019   4.975 -0.6446  0.7790  0.2565
 4555SOL    HW217992   5.240   4.021   4.916 -0.6366  0.4170  0.2473
 4555SOL    HW317993   5.199   4.048   5.059 -0.4910  0.6136  0.2525
 4555SOL    MW417994   5.179   4.023   4.979 -0.1523  0.4959 -1.0674
 4556SOL     OW17995   1.665   2.410   5.932 -0.0309 -0.1854  0.4821
 4556SOL    HW217996   1.619   2.327   5.935  0.4067 -0.5298 -1.1636
 4556SOL    HW317997   1.743   2.397   5.986 -0.4540 -0.5035  1.0243
 4556SOL    MW417998   1.670   2.397   5.940  0.5485 -0.3817 -0.1289
 4557SOL     OW17999   3.746   2.343   1.417  0.3119 -0.1479 -0.2780
 4557SOL    HW218000   3.680   2.288   1.461 -0.9084  0.9647 -0.6446
 4557SOL    HW318001   3.715   2.433   1.431  1.1207  0.3418 -1.4954
 4557SOL    MW418002   3.733   2.348   1.425 -0.4019  0.6323  0.2704
 4558SOL     OW18003   2.880   4.092   2.900 -0.3079 -0.1582 -0.0634
 4558SOL    HW218004   2.877   4.079   2.994  1.3146 -0.6886 -0.0575
 4558SOL    HW318005   2.896   4.005   2.864  4.2986  0.5792 -0.4269
 4558SOL    MW418006   2.882   4.079   2.907  0.1819  0.1208 -0.0239
 4559SOL     OW18007   2.001   4.656   0.130  0.6357 -0.3248  0.0363
 4559SOL    HW218008   1.964   4.652   0.218 -1.7705 -1.0537 -0.9152
 4559SOL    HW318009   1.988   4.747   0.103 -0.0223 -0.4527 -0.0969
 4559SOL    MW418010   1.995   4.667   0.138 -0.3077 -0.6784 -0.0419
 4560SOL     OW18011   1.193   3.717   4.965 -0.1556  0.4080 -0.3512
 4560SOL    HW218012   1.265   3.688   4.909 -0.0252  1.3535 -0.6767
 4560SOL    HW318013   1.117   3.671   4.930 -0.1708  1.3444 -1.6393
 4560SOL    MW418014   1.193   3.707   4.953  0.2084 -0.3470  0.1573
 4561SOL     OW18015   2.987   1.129   2.419 -0.1429  0.0816 -0.0390
 4561SOL    HW218016   3.073   1.092   2.436  0.7613  1.4630 -1.3460
 4561SOL    HW318017   2.945   1.066   2.361 -0.0341 -0.6223  0.6397
 4561SOL    MW418018   2.993   1.116   2.413 -0.1042 -0.2654 -0.3655
 4562SOL     OW18019   5.330   5.592   4.221  0.1704 -0.1391 -0.3738
 4562SOL    HW218020   5.347   5.529   4.152 -0.4834 -0.1181 -0.5596
 4562SOL    HW318021   5.235   5.589   4.234  0.1202  0.8592 -0.4383
 4562SOL    MW418022   5.319   5.584   4.214  0.0058 -0.8529 -0.3593
 4563SOL     OW18023   6.383   0.335   4.248  0.2965  0.0784  0.8612
 4563SOL    HW218024   6.333   0.353   4.327  0.5857 -2.8382  1.8623
 4563SOL    HW318025   6.443   0.409   4.239  0.2352  0.5080  3.3760
 4563SOL    MW418026   6.385   0.347   4.257 -0.2654  0.2418  0.2556
 4564SOL     OW18027   5.517   2.336   1.780 -0.7085 -0.9526 -0.1390
 4564SOL    HW218028   5.512   2.424   1.819  1.1803 -0.1294 -1.6317
 4564SOL    HW318029   5.558   2.282   1.848  0.4547 -0.0653 -0.1056
 4564SOL    MW418030   5.522   2.341   1.794 -0.5035  0.4295 -0.5192
 4565SOL     OW18031   0.023   2.764   1.760  0.3862  0.0999  0.2458
 4565SOL    HW218032   0.099   2.813   1.728  1.0805 -0.8286  0.3966
 4565SOL    HW318033   0.008   2.697   1.693 -0.9514  0.8823 -0.2802
 4565SOL    MW418034   0.031   2.761   1.747 -0.1020 -0.8956  0.1117
 4566SOL     OW18035   1.962   2.498   3.991  0.1274  0.6959 -0.2533
 4566SOL    HW218036   1.951   2.587   4.024  1.0555  0.4042  0.8823
 4566SOL    HW318037   1.905   2.444   4.046  1.2695  0.2819  0.5491
 4566SOL    MW418038   1.953   2.502   4.002 -0.1252 -0.0785  0.0413
 4567SOL     OW18039   3.293   2.498   1.989  0.1909  0.2076 -0.1570
 4567SOL    HW218040   3.312   2.455   1.906 -3.8617 -1.9488 -0.1764
 4567SOL    HW318041   3.265   2.427   2.047 -1.0038  2.1174  1.7387
 4567SOL    MW418042   3.292   2.483   1.986 -0.0464 -0.0521  0.6438
 4568SOL     OW18043  -0.005   6.044   5.117  0.0472 -0.2909  0.3298
 4568SOL    HW218044   0.006   6.053   5.212  0.6867 -2.6679  0.5689
 4568SOL    HW318045   0.047   5.966   5.095  2.0047  1.6337 -2.4211
 4568SOL    MW418046   0.003   6.035   5.126  0.3816 -0.0056 -0.1312
 4569SOL     OW18047   1.078   4.343   3.606 -0.3164  0.8511 -0.2371
 4569SOL    HW218048   1.141   4.293   3.657 -0.1723  1.3450  0.0798
 4569SOL    HW318049   1.030   4.277   3.555 -0.7628  0.3103  0.8674
 4569SOL    MW418050   1.080   4.328   3.606 -0.1861 -0.2486 -0.4305
 4570SOL     OW18051   4.541   5.153   5.248  0.5222  0.3950  0.0527
 4570SOL    HW218052   4.592   5.228   5.279 -0.8917  2.0591 -1.4321
 4570SOL    HW318053   4.598   5.112   5.182  0.9835  0.6486  0.2854
 4570SOL    MW418054   4.555   5.158   5.243 -0.3447  1.1576 -0.3452
 4571SOL     OW18055   6.240   2.402   5.932 -0.3633 -0.6802  0.1684
 4571SOL    HW218056   6.225   2.428   5.841  0.3785 -0.6075  0.0588
 4571SOL    HW318057   6.237   2.307   5.931 -1.1613 -0.6621  0.2195
 4571SOL    MW418058   6.238   2.393   5.920 -0.1361 -0.0547 -0.0046
 4572SOL     OW18059   5.997   0.835   1.491  0.3232  0.2370 -0.0372
 4572SOL    HW218060   5.945   0.861   1.415  0.2102 -0.6618 -0.2754
 4572SOL    HW318061   6.087   0.830   1.459  0.2609 -0.2449 -0.1413
 4572SOL    MW418062   6.002   0.838   1.477  0.2266  0.1664 -0.5039
 4573SOL     OW18063   0.991   3.429   5.449 -0.4912 -0.1436  0.5158
 4573SOL    HW218064   1.055   3.405   5.516 -0.1418 -0.2634  0.1459
 4573SOL    HW318065   0.918   3.468   5.498  0.8971  2.3128  0.7970
 4573SOL    MW418066   0.990   3.431   5.464 -0.3902 -0.4062  0.6811
 4574SOL     OW18067   4.344   4.552   3.280  0.1208  0.1449  0.7654
 4574SOL    HW218068   4.339   4.613   3.207  0.1124  0.1110  0.7375
 4574SOL    HW318069   4.306   4.471   3.246  1.0596 -0.1855  0.4860
 4574SOL    MW418070   4.338   4.549   3.266  0.1396 -0.4474  0.3813
 4575SOL     OW18071   2.970   3.336   3.433 -0.5356  0.2754  0.0787
 4575SOL    HW218072   3.014   3.290   3.504 -1.1359  0.3073  0.4776
 4575SOL    HW318073   2.910   3.396   3.477 -0.4818  0.7203 -0.4504
 4575SOL    MW418074   2.968   3.338   3.448  0.7811  0.0398 -0.0414
 4576SOL     OW18075   0.083   3.371   5.720  0.4641  0.3684 -0.6904
 4576SOL    HW218076   0.056   3.427   5.647  0.4459  0.2923 -0.7424
 4576SOL    HW318077   0.051   3.416   5.798 -0.4978 -0.0991 -0.7927
 4576SOL    MW418078   0.075   3.384   5.721  0.4899 -0.1076 -0.1376
 4577SOL     OW18079   2.003   0.175   0.422 -0.0697  0.3681  0.2300
 4577SOL    HW218080   2.031   0.160   0.513 -2.3293 -0.1911  0.9078
 4577SOL    HW318081   2.004   0.088   0.382  2.0957  0.7697 -0.7082
 4577SOL    MW418082   2.007   0.161   0.429 -0.0804  0.6252 -0.3336
 4578SOL     OW18083   5.669   5.405   5.878  0.0514  0.0640  0.5600
 4578SOL    HW218084   5.666   5.405   5.974 -2.5386 -0.0393  0.5405
 4578SOL    HW318085   5.750   5.358   5.858 -0.0144 -1.1456  2.7128
 4578SOL    MW418086   5.679   5.399   5.888 -0.1831 -0.6441 -0.1905
 4579SOL     OW18087   1.108   3.473   1.498 -0.8003 -0.5024  0.1931
 4579SOL    HW218088   1.192   3.427   1.497 -1.1848 -1.2242 -1.4686
 4579SOL    HW318089   1.043   3.405   1.485 -1.7149 -0.0041  1.8982
 4579SOL    MW418090   1.111   3.458   1.496  0.3041 -0.1828  0.3467
 4580SOL     OW18091   1.039   3.888   5.295 -0.5513 -0.0881  0.4434
 4580SOL    HW218092   1.031   3.927   5.208  0.0031 -0.2994  0.2902
 4580SOL    HW318093   1.071   3.799   5.278 -0.3011 -0.0829  0.8697
 4580SOL    MW418094   1.042   3.881   5.281  0.0750 -0.0214 -0.5174
 4581SOL     OW18095   2.368   4.522   3.683  0.2665 -0.2248  0.2823
 4581SOL    HW218096   2.400   4.534   3.594  1.5571 -1.7748  0.4781
 4581SOL    HW318097   2.321   4.439   3.681 -1.1915  0.5455  0.7086
 4581SOL    MW418098   2.366   4.513   3.671 -0.1530  0.3302 -0.1133
 4582SOL     OW18099   0.235   0.702   4.669  0.0046 -0.4119  0.5138
 4582SOL    HW218100   0.207   0.645   4.597  0.3643  0.3290 -0.2327
 4582SOL    HW318101   0.298   0.762   4.629  0.6651 -0.3706  1.5874
 4582SOL    MW418102   0.239   0.703   4.654  0.0021  0.0369  0.3015
 4583SOL     OW18103   6.090   3.742   3.042  0.6764 -0.0324  0.0580
 4583SOL    HW218104   6.147   3.666   3.035 -1.6944 -2.0348  1.0878
 4583SOL    HW318105   6.064   3.762   2.952  1.8474  0.0543 -0.2810
 4583SOL    MW418106   6.094   3.735   3.029 -0.0214 -0.4112  0.0034
 4584SOL     OW18107   3.416   3.793   4.464 -0.0118 -0.1294 -0.0688
 4584SOL    HW218108   3.457   3.715   4.425  2.0625 -0.3603  2.2535
 4584SOL    HW318109   3.472   3.865   4.436 -0.1603  0.0774  0.1674
 4584SOL    MW418110   3.429   3.792   4.456 -0.0776  0.6858 -0.2538
 4585SOL     OW18111   3.974   6.280   2.982  0.7386 -0.4840  0.2127
 4585SOL    HW218112   4.011   6.317   3.062  0.1034 -1.1321  0.8143
 4585SOL    HW318113   3.880   6.286   2.994  0.6203  0.3369 -0.9250
 4585SOL    MW418114   3.967   6.286   2.994 -0.8038  0.4003 -0.4955
 4586SOL     OW18115   6.347   4.718   3.483 -0.1473 -0.6102  0.3323
 4586SOL    HW218116   6.429   4.703   3.529  0.1560 -0.2090 -0.0787
 4586SOL    HW318117   6.307   4.631   3.476  1.2632 -1.1683 -1.4027
 4586SOL    MW418118   6.352   4.705   3.488  0.1977 -0.2743 -0.1334
 4587SOL     OW18119   0.420   4.967   0.456  0.3646  0.6148  0.6040
 4587SOL    HW218120   0.456   4.898   0.400 -0.6185  1.6242 -1.3599
 4587SOL    HW318121   0.436   4.936   0.545  3.4345 -0.3246 -0.1506
 4587SOL    MW418122   0.427   4.954   0.460 -0.0919 -0.4570  0.3708
 4588SOL     OW18123   0.492   4.603   4.890  0.1385  0.0528  0.0329
 4588SOL    HW218124   0.421   4.651   4.931  0.1832  0.3371 -0.2157
 4588SOL    HW318125   0.554   4.671   4.862  0.7718 -0.2194  0.7330
 4588SOL    MW418126   0.491   4.619   4.892 -0.4693 -0.7398 -0.7055
 4589SOL     OW18127   4.848   4.532   0.688 -0.5241  0.0155 -0.2291
 4589SOL    HW218128   4.942   4.553   0.685 -0.4142  0.2819  2.3854
 4589SOL    HW318129   4.813   4.566   0.606  1.6168  0.1408 -1.1627
 4589SOL    MW418130   4.856   4.539   0.677 -0.6716 -0.8711 -0.5772
 4590SOL     OW18131   5.906   2.270   1.385 -0.3823  0.2341  0.4983
 4590SOL    HW218132   5.825   2.277   1.435 -1.2862 -0.8833 -0.7215
 4590SOL    HW318133   5.922   2.176   1.379 -0.2470  0.3319 -1.1770
 4590SOL    MW418134   5.897   2.258   1.391  0.3734  0.7057 -0.0940
 4591SOL     OW18135   5.511   4.235   2.852  0.2554 -0.4052 -0.1223
 4591SOL    HW218136   5.473   4.226   2.764  1.9281  0.7822 -1.0061
 4591SOL    HW318137   5.435   4.241   2.910 -0.9015  0.1194 -1.6263
 4591SOL    MW418138   5.496   4.234   2.848  0.1921  0.1802 -0.3659
 4592SOL     OW18139   3.127   4.562   4.945 -0.3027  0.3310 -0.0235
 4592SOL    HW218140   3.038   4.550   4.977  0.6624  1.2312  3.3877
 4592SOL    HW318141   3.163   4.474   4.936 -1.1400  0.0133 -0.3172
 4592SOL    MW418142   3.120   4.549   4.948 -0.2816 -0.2742 -0.2624
 4593SOL     OW18143   3.833   2.484   2.272  0.6620 -0.6624  0.0355
 4593SOL    HW218144   3.861   2.401   2.232 -0.8318 -0.5223 -1.3499
 4593SOL    HW318145   3.770   2.521   2.211 -0.0757  0.6283  1.5165
 4593SOL    MW418146   3.828   2.478   2.259  0.2943 -0.5565 -0.5100
 4594SOL     OW18147   1.063   6.414   5.764  0.1684  0.4278 -0.5043
 4594SOL    HW218148   1.095   6.503   5.777  1.0513  0.1235 -0.5324
 4594SOL    HW318149   1.106   6.385   5.683  0.6994 -0.3774  0.0525
 4594SOL    MW418150   1.073   6.422   5.755 -0.6747 -0.0833 -0.0440
 4595SOL     OW18151   1.938   2.127   5.349  0.5083 -0.1659  0.5562
 4595SOL    HW218152   1.935   2.130   5.444 -0.3381 -0.9605  0.5711
 4595SOL    HW318153   2.031   2.129   5.328  0.7754 -1.5506  1.4746
 4595SOL    MW418154   1.950   2.127   5.359  0.1144 -0.3825  0.0661
 4596SOL     OW18155   5.806   4.898   2.914 -0.5283  0.0240 -0.2177
 4596SOL    HW218156   5.761   4.965   2.863 -0.7544  1.0891  1.3215
 4596SOL    HW318157   5.824   4.940   2.999  3.5908 -0.2247 -0.7765
 4596SOL    MW418158   5.802   4.912   2.919  0.5290  0.2847  0.4445
 4597SOL     OW18159   6.164   1.841   2.455  0.2865  0.0910  0.3171
 4597SOL    HW218160   6.242   1.896   2.445  1.0786 -1.2831 -1.6536
 4597SOL    HW318161   6.174   1.802   2.542  0.3155  2.0609  1.2515
 4597SOL    MW418162   6.176   1.843   2.465 -0.0268 -0.2589  0.2757
 4598SOL     OW18163   3.855   5.668   2.696 -0.1018  0.3824  0.1167
 4598SOL    HW218164   3.923   5.653   2.762 -0.4496 -0.2880  0.3370
 4598SOL    HW318165   3.851   5.585   2.648  0.8368  1.1862 -1.3993
 4598SOL    MW418166   3.864   5.655   2.698 -0.2881  0.8498 -0.5174
 4599SOL     OW18167   1.812   0.874   4.142 -0.1138 -0.2977  0.6186
 4599SOL    HW218168   1.817   0.814   4.217 -0.7848 -0.4580  0.5415
 4599SOL    HW318169   1.720   0.873   4.116  0.2717 -1.0268 -0.8394
 4599SOL    MW418170   1.801   0.866   4.149 -0.1278  0.3587  0.0730
 4600SOL     OW18171   2.065   4.300   5.890  0.0557  0.0013 -0.1118
 4600SOL    HW218172   2.126   4.226   5.888  0.1840  0.1055 -0.0897
 4600SOL    HW318173   2.058   4.322   5.983  0.4451  0.3669 -0.1644
 4600SOL    MW418174   2.072   4.293   5.902  0.0288  0.0607  0.0563
 4601SOL     OW18175   6.349   4.929   2.294  0.0592 -0.1806 -0.1571
 4601SOL    HW218176   6.313   4.957   2.378 -0.2436 -2.2305  0.4667
 4601SOL    HW318177   6.341   5.005   2.237 -0.5411  0.9884  1.4129
 4601SOL    MW418178   6.343   4.943   2.297  0.2542 -0.0708 -0.7618
 4602SOL     OW18179   1.870   4.375   4.480  0.2945 -0.4201 -0.1268
 4602SOL    HW218180   1.883   4.296   4.533 -0.6532 -2.1931 -2.3173
 4602SOL    HW318181   1.806   4.427   4.529  1.6023 -0.5293  1.7960
 4602SOL    MW418182   1.863   4.371   4.493 -0.0313 -0.3519 -0.1046
 4603SOL     OW18183   4.721   1.685   3.147 -0.0437 -0.5043  0.0962
 4603SOL    HW218184   4.779   1.621   3.189 -0.8974 -0.9562  0.6133
 4603SOL    HW318185   4.635   1.669   3.187 -0.2302  1.1296  0.4097
 4603SOL    MW418186   4.717   1.674   3.158 -0.1528 -0.1246 -0.2526
 4604SOL     OW18187   5.761   5.161   4.705 -0.1436 -0.0275 -0.2872
 4604SOL    HW218188   5.742   5.093   4.769 -0.1274  0.8600  0.7069
 4604SOL    HW318189   5.700   5.232   4.726  0.3774  0.5840 -0.7575
 4604SOL    MW418190   5.751   5.162   4.716 -0.3732 -0.1420  0.6110
 4605SOL     OW18191   0.866   3.944   5.567 -0.2872  0.2902 -0.1754
 4605SOL    HW218192   0.904   4.029   5.591 -0.6624  0.6637 -0.8856
 4605SOL    HW318193   0.896   3.929   5.477  1.7176 -1.4383  0.6825
 4605SOL    MW418194   0.875   3.953   5.559 -0.0812 -0.1002 -0.1501
 4606SOL     OW18195   1.889   5.682   5.504 -0.1842 -0.1897  0.2377
 4606SOL    HW218196   1.795   5.687   5.520 -0.4415 -0.4522 -1.1190
 4606SOL    HW318197   1.902   5.594   5.468  0.7249 -0.4921  1.2461
 4606SOL    MW418198   1.878   5.671   5.501  0.1341  0.1483  0.5058
 4607SOL     OW18199   2.137   1.384   5.225  0.3629 -0.4860  0.2617
 4607SOL    HW218200   2.139   1.418   5.315  0.4457  1.5705 -0.4723
 4607SOL    HW318201   2.067   1.320   5.225 -1.4765  1.4123  1.1767
 4607SOL    MW418202   2.128   1.380   5.237 -0.1195  0.4352 -0.3637
 4608SOL     OW18203   4.592   3.088   3.633 -0.1893 -0.0472 -0.0967
 4608SOL    HW218204   4.544   3.009   3.657  0.4334 -0.4724 -0.2168
 4608SOL    HW318205   4.526   3.147   3.597 -1.2792  0.8193  3.0069
 4608SOL    MW418206   4.577   3.086   3.632  0.1216  0.5242 -0.4020
 4609SOL     OW18207   2.158   4.180   4.436 -0.1000 -0.1257 -0.0177
 4609SOL    HW218208   2.116   4.234   4.502  2.4382  0.4286  1.2923
 4609SOL    HW318209   2.246   4.217   4.426  1.1927 -2.9288 -0.3132
 4609SOL    MW418210   2.164   4.192   4.443 -0.1609  0.4690  0.0170
 4610SOL     OW18211   5.220   2.622   4.353 -0.5673  0.2299  0.5956
 4610SOL    HW218212   5.128   2.629   4.324 -0.8422 -1.5605  0.9345
 4610SOL    HW318213   5.267   2.682   4.295 -1.8517  0.6061 -0.1101
 4610SOL    MW418214   5.214   2.631   4.341 -0.0416 -0.2112 -0.4161
 4611SOL     OW18215   1.259   3.205   3.097 -0.0180  0.0848 -0.0465
 4611SOL    HW218216   1.332   3.176   3.151  1.9228  0.2238 -2.4489
 4611SOL    HW318217   1.216   3.124   3.069  0.1566 -0.0648  0.1168
 4611SOL    MW418218   1.263   3.191   3.101 -0.2580 -0.5458  0.1816
 4612SOL     OW18219   2.310   3.831   2.406 -0.2820 -0.0875  0.4631
 4612SOL    HW218220   2.317   3.755   2.348 -2.0105 -1.0037  1.3736
 4612SOL    HW318221   2.321   3.907   2.348  1.5669 -0.9941 -0.4432
 4612SOL    MW418222   2.312   3.831   2.391 -0.3445 -0.0700  0.6810
 4613SOL     OW18223   2.673   3.793   0.352  0.0624  0.4749 -0.6027
 4613SOL    HW218224   2.682   3.775   0.258 -0.1623 -0.6370 -0.4303
 4613SOL    HW318225   2.760   3.821   0.379  0.3742 -0.1168 -0.9646
 4613SOL    MW418226   2.686   3.794   0.343 -0.2721 -0.2185  0.4516
 4614SOL     OW18227   4.763   4.671   2.376  0.1361 -0.1226  0.0393
 4614SOL    HW218228   4.851   4.636   2.363 -0.3582 -1.0458 -0.9424
 4614SOL    HW318229   4.741   4.711   2.291 -0.3538  0.1840  0.3078
 4614SOL    MW418230   4.771   4.672   2.363  0.2327 -0.2296 -0.5058
 4615SOL     OW18231   0.885   5.753   2.204  0.8571  0.1643  0.0002
 4615SOL    HW218232   0.793   5.778   2.202  0.4255 -1.0607  1.9595
 4615SOL    HW318233   0.884   5.658   2.219  2.4433 -0.0477 -0.9573
 4615SOL    MW418234   0.873   5.744   2.206  0.2743  0.4773 -0.9096
 4616SOL     OW18235   1.235   0.062   4.899 -0.1294  0.3100 -0.3848
 4616SOL    HW218236   1.270   0.075   4.987 -0.6200  0.9525 -0.2767
 4616SOL    HW318237   1.260  -0.028   4.877 -0.3853 -0.0216  0.5870
 4616SOL    MW418238   1.243   0.051   4.908  0.5285 -0.8269  0.1954
 4617SOL     OW18239   1.461   1.145   3.098 -0.9173 -0.0442 -0.1400
 4617SOL    HW218240   1.432   1.168   3.187 -0.1381 -1.4757  0.5259
 4617SOL    HW318241   1.404   1.196   3.040  0.2588  3.0366  1.1673
 4617SOL    MW418242   1.450   1.155   3.102  0.7353  0.2224  0.3198
 4618SOL     OW18243   0.398   5.591   4.319 -0.3172 -0.3454  0.0119
 4618SOL    HW218244   0.443   5.672   4.296 -0.6042 -0.4178 -0.8571
 4618SOL    HW318245   0.439   5.563   4.401  1.3255 -0.4830 -0.8113
 4618SOL    MW418246   0.409   5.598   4.327  0.2316 -0.1012 -0.1560
 4619SOL     OW18247   1.389   4.446   2.939 -0.2563 -0.1344  0.1512
 4619SOL    HW218248   1.386   4.367   2.885 -0.2150 -1.9873  2.6905
 4619SOL    HW318249   1.300   4.455   2.974  0.1288 -0.0084  1.1316
 4619SOL    MW418250   1.377   4.437   2.937  0.6119  0.2967  0.1159
 4620SOL     OW18251   5.151   0.789   4.502 -0.4838 -1.1165  0.0696
 4620SOL    HW218252   5.097   0.803   4.424  0.0636  1.5183  0.0971
 4620SOL    HW318253   5.221   0.853   4.495  0.2874 -1.6715  2.1168
 4620SOL    MW418254   5.153   0.799   4.491  0.4849 -0.2844 -0.2958
 4621SOL     OW18255   3.263   1.978   5.870 -0.0748 -0.2718 -0.4529
 4621SOL    HW218256   3.244   2.062   5.912  0.9562 -0.8947  1.3394
 4621SOL    HW318257   3.204   1.976   5.794 -1.7005  1.1015  0.6913
 4621SOL    MW418258   3.253   1.989   5.865  0.4089 -0.1487  0.1242
 4622SOL     OW18259   5.215   6.048   2.174  0.4443  0.0153  0.4831
 4622SOL    HW218260   5.298   6.040   2.127  0.1475 -0.6379  0.0710
 4622SOL    HW318261   5.191   6.140   2.165  0.3377 -0.1224 -0.7385
 4622SOL    MW418262   5.223   6.059   2.167  0.0434  0.4688 -0.0512
 4623SOL     OW18263   4.598   0.162   3.850  0.7883 -0.1665 -0.2376
 4623SOL    HW218264   4.581   0.254   3.833 -0.3398 -0.2837  0.2009
 4623SOL    HW318265   4.690   0.150   3.826  0.8493  0.9829 -0.6352
 4623SOL    MW418266   4.608   0.172   3.845 -0.3967  0.2349  0.2949
 4624SOL     OW18267   6.142   4.831   1.416  0.2013 -0.3148 -0.6269
 4624SOL    HW218268   6.113   4.883   1.341 -0.6179 -0.9893 -0.8003
 4624SOL    HW318269   6.211   4.883   1.457  0.2812  0.3076 -1.5318
 4624SOL    MW418270   6.147   4.845   1.412 -0.3038  0.1242 -0.1803
 4625SOL     OW18271   5.312   3.579   3.552 -0.7931  0.4640 -0.7215
 4625SOL    HW218272   5.403   3.606   3.564  0.1761 -2.4242 -0.9328
 4625SOL    HW318273   5.277   3.641   3.489  0.6806  2.2649  0.1228
 4625SOL    MW418274   5.319   3.591   3.545  0.1661  0.4980 -0.4803
 4626SOL     OW18275   6.253   3.142   5.907  0.1271 -0.1025 -0.5300
 4626SOL    HW218276   6.256   3.133   6.002  2.0797 -1.8170 -0.6741
 4626SOL    HW318277   6.343   3.123   5.879 -0.0997  1.5560 -2.6510
 4626SOL    MW418278   6.265   3.138   5.916 -0.1522 -0.4663  0.0106
 4627SOL     OW18279   0.913   1.919   1.751 -0.3091  0.1626 -0.1973
 4627SOL    HW218280   0.878   2.008   1.756 -0.1327  0.4243 -2.5908
 4627SOL    HW318281   0.975   1.913   1.824 -1.1741  1.6028  0.6790
 4627SOL    MW418282   0.917   1.930   1.761 -0.5320  0.1674  0.3689
 4628SOL     OW18283   5.809   4.106   0.091  0.1845  0.8090  0.5935
 4628SOL    HW218284   5.731   4.064   0.126  1.1548 -1.0736  0.6207
 4628SOL    HW318285   5.802   4.096  -0.004  2.1399 -2.9941  0.6446
 4628SOL    MW418286   5.798   4.099   0.083  0.2807  0.1639 -0.8374
 4629SOL     OW18287   6.213   1.499   5.416  0.5213  0.4683 -0.4172
 4629SOL    HW218288   6.156   1.500   5.340  0.0081  1.2434 -0.0367
 4629SOL    HW318289   6.175   1.564   5.476 -0.1207 -1.3507  1.2576
 4629SOL    MW418290   6.200   1.508   5.414  0.3055 -0.2729 -0.2737
 4630SOL     OW18291   0.136   5.815   2.041 -0.0269 -0.5385  0.1398
 4630SOL    HW218292   0.095   5.876   2.103 -0.2121  0.4932 -0.9617
 4630SOL    HW318293   0.152   5.736   2.093 -1.9276 -0.4126  1.0295
 4630SOL    MW418294   0.132   5.813   2.056  0.3909 -0.0529 -0.6555
 4631SOL     OW18295   2.493   5.737   4.064 -0.6647 -0.3349 -0.2004
 4631SOL    HW218296   2.559   5.740   3.995 -0.9765 -0.9344 -0.5314
 4631SOL    HW318297   2.413   5.709   4.019 -0.7467 -1.2615  0.5021
 4631SOL    MW418298   2.491   5.734   4.049 -0.4304  0.0767 -0.4573
 4632SOL     OW18299   3.153   2.274   0.094 -0.1842 -0.1079 -0.3034
 4632SOL    HW218300   3.166   2.295   0.001  0.1229 -1.5639 -0.6072
 4632SOL    HW318301   3.088   2.203   0.093  0.1108 -0.3954  0.5740
 4632SOL    MW418302   3.146   2.267   0.082  0.0889  0.1303 -0.2977
 4633SOL     OW18303   1.871   5.842   2.260  0.3719  0.0759  0.0639
 4633SOL    HW218304   1.909   5.830   2.174  0.3299  0.2419  0.0217
 4633SOL    HW318305   1.776   5.843   2.244  0.3735  0.4115  0.0733
 4633SOL    MW418306   1.863   5.840   2.247  0.1339  0.1884  0.2282
 4634SOL     OW18307   4.903   0.451   3.786  0.1121 -0.0551  0.8003
 4634SOL    HW218308   4.876   0.359   3.793  1.1610 -0.4692 -0.2033
 4634SOL    HW318309   4.997   0.447   3.769 -0.0952  1.1398 -0.8641
 4634SOL    MW418310   4.912   0.438   3.785 -0.3347  0.1738 -0.4403
 4635SOL     OW18311   2.872   1.078   2.796 -0.0641 -0.3354 -0.5240
 4635SOL    HW218312   2.910   1.163   2.777 -0.7169 -0.1513 -1.0611
 4635SOL    HW318313   2.843   1.085   2.887  0.7728 -0.3305 -0.2530
 4635SOL    MW418314   2.873   1.090   2.806  0.1533 -0.9919  0.0397
 4636SOL     OW18315   5.842   1.276   4.170 -0.2013  0.3525  0.3200
 4636SOL    HW218316   5.778   1.236   4.228  1.2105 -0.4143  1.4192
 4636SOL    HW318317   5.927   1.245   4.202  0.7930  2.0409 -0.5042
 4636SOL    MW418318   5.845   1.267   4.182 -0.3491  0.1276  0.6143
 4637SOL     OW18319   2.807   3.279   3.905 -0.4620  0.5008  0.1131
 4637SOL    HW218320   2.729   3.238   3.942 -0.5319  0.4693 -0.0691
 4637SOL    HW318321   2.801   3.262   3.811  0.4254 -0.6650  0.2288
 4637SOL    MW418322   2.796   3.271   3.897  0.2054  0.2803 -0.4764
 4638SOL     OW18323   2.749   6.300   2.146 -0.2205  0.0473 -0.5781
 4638SOL    HW218324   2.782   6.390   2.155  1.4256 -0.3275 -2.1543
 4638SOL    HW318325   2.654   6.308   2.155 -0.1634  2.0310 -1.1885
 4638SOL    MW418326   2.741   6.313   2.149 -0.5837 -0.3107 -0.6450
 4639SOL     OW18327   0.541   2.317   4.918  0.3570 -0.1305 -0.0467
 4639SOL    HW218328   0.504   2.309   4.831 -2.7976 -3.8182  1.3373
 4639SOL    HW318329   0.592   2.238   4.930  1.0947  0.5132  1.3159
 4639SOL    MW418330   0.543   2.306   4.908 -0.6608  0.9970  0.3565
 4640SOL     OW18331   4.659   0.054   4.591  0.3469 -0.1701  0.3869
 4640SOL    HW218332   4.639   0.115   4.520  1.2254 -0.5504 -0.2034
 4640SOL    HW318333   4.682  -0.028   4.546 -1.6706 -1.2419  1.1706
 4640SOL    MW418334   4.659   0.051   4.575  0.2495 -0.3929  0.0596
 4641SOL     OW18335   0.880   5.822   3.820 -0.5299  0.2604  0.1195
 4641SOL    HW218336   0.819   5.749   3.808 -0.3312  0.0719  0.2275
 4641SOL    HW318337   0.918   5.836   3.734 -1.4123  1.0043 -0.1581
 4641SOL    MW418338   0.877   5.814   3.807  0.2641  0.0612  0.1124
 4642SOL     OW18339   0.480   2.261   6.060 -1.0073  0.5837  0.0668
 4642SOL    HW218340   0.539   2.328   6.093 -1.3092  0.2358  1.3822
 4642SOL    HW318341   0.449   2.215   6.139 -2.8270  0.5976 -0.5865
 4642SOL    MW418342   0.484   2.264   6.075 -0.0484  0.2153  0.2096
 4643SOL     OW18343   1.243   3.804   1.729 -0.0741  0.3882 -0.0376
 4643SOL    HW218344   1.248   3.828   1.821 -1.2630  0.1394  0.1138
 4643SOL    HW318345   1.318   3.847   1.688 -0.6368  2.1569  0.6882
 4643SOL    MW418346   1.254   3.813   1.735 -0.3256  0.2698 -0.6947
 4644SOL     OW18347   2.476   2.710   3.037 -0.0100  0.2083 -0.0836
 4644SOL    HW218348   2.446   2.678   3.122  1.3581  1.3846  0.8785
 4644SOL    HW318349   2.415   2.781   3.016 -0.7833 -0.5404 -0.4638
 4644SOL    MW418350   2.464   2.715   3.045  0.0354 -0.0704  0.0382
 4645SOL     OW18351   2.412   5.593   2.460  0.1635 -0.1999  0.5104
 4645SOL    HW218352   2.402   5.506   2.499  0.6881  0.3825  2.0408
 4645SOL    HW318353   2.370   5.652   2.523  0.9670  0.7832  0.1499
 4645SOL    MW418354   2.405   5.589   2.474  0.0212 -0.0495 -0.2460
 4646SOL     OW18355   2.888   3.408   4.864 -0.1074  0.1207 -0.3840
 4646SOL    HW218356   2.879   3.427   4.771 -0.9913 -0.3153 -0.3968
 4646SOL    HW318357   2.852   3.320   4.874 -1.7133  0.8522  0.6580
 4646SOL    MW418358   2.882   3.399   4.853  0.3429  0.1854  0.4753
 4647SOL     OW18359   6.301   6.026   2.618  0.1794 -0.2289  0.0761
 4647SOL    HW218360   6.349   5.944   2.629 -0.8279 -0.9226 -0.4242
 4647SOL    HW318361   6.368   6.094   2.615  0.9246 -0.7306  3.0097
 4647SOL    MW418362   6.316   6.024   2.619 -0.3261 -0.3150  0.4061
 4648SOL     OW18363   3.615   4.978   2.518  0.0506 -0.2022  0.7453
 4648SOL    HW218364   3.556   4.931   2.577 -1.7502  0.1755 -0.6677
 4648SOL    HW318365   3.624   5.064   2.558 -2.6332  0.6907 -0.3112
 4648SOL    MW418366   3.608   4.983   2.532 -0.1312 -0.1668  0.0651
 4649SOL     OW18367   3.898   3.343   4.537 -0.0060 -0.1564  0.3916
 4649SOL    HW218368   3.805   3.336   4.515  0.1989 -2.6949  0.0616
 4649SOL    HW318369   3.921   3.257   4.574  1.9033  0.8535  1.7399
 4649SOL    MW418370   3.889   3.331   4.539 -0.3852 -0.1499 -0.2343
 4650SOL     OW18371   5.233   0.546   5.771 -0.3503  0.4282 -0.6484
 4650SOL    HW218372   5.280   0.517   5.693 -0.1986 -0.7686 -0.1335
 4650SOL    HW318373   5.142   0.522   5.755 -0.1983 -0.5427 -0.1512
 4650SOL    MW418374   5.227   0.539   5.759 -0.0766 -0.1097 -0.4551
 4651SOL     OW18375   2.411   3.444   0.234 -0.7432 -0.3028 -0.3626
 4651SOL    HW218376   2.496   3.426   0.274 -0.4385  0.0323 -0.8419
 4651SOL    HW318377   2.419   3.413   0.144 -1.6893 -1.7897  0.0207
 4651SOL    MW418378   2.423   3.438   0.228  0.0466  0.0414  0.5568
 4652SOL     OW18379   3.090   0.587   2.401  0.0386 -0.4753  0.1055
 4652SOL    HW218380   3.059   0.532   2.474 -1.1142  0.8391  0.6637
 4652SOL    HW318381   3.027   0.659   2.398  2.0870  1.4326  0.1358
 4652SOL    MW418382   3.078   0.589   2.410 -0.6771  0.3441  0.3223
 4653SOL     OW18383   3.306   5.058   1.300  0.5578  0.1338 -0.0910
 4653SOL    HW218384   3.249   5.125   1.337  1.7157  0.6432  0.8810
 4653SOL    HW318385   3.383   5.107   1.269  0.3150 -0.4766 -1.7469
 4653SOL    MW418386   3.309   5.073   1.301  0.2841  0.1116  0.1842
 4654SOL     OW18387   3.876   2.237   3.033  0.7493 -0.2661 -0.7131
 4654SOL    HW218388   3.923   2.255   3.115  0.1549 -2.0969  0.0754
 4654SOL    HW318389   3.911   2.301   2.971 -0.0271  2.3719  1.3862
 4654SOL    MW418390   3.887   2.248   3.036 -0.4305 -0.2351  0.4265
 4655SOL     OW18391   5.109   2.665   3.253 -0.2750 -0.1315  0.1419
 4655SOL    HW218392   5.040   2.612   3.293 -0.9176 -0.1858 -0.9867
 4655SOL    HW318393   5.126   2.622   3.169  1.5020 -0.4134  0.6201
 4655SOL    MW418394   5.102   2.652   3.247  0.0817 -0.3840  0.0957
 4656SOL     OW18395   6.205   5.234   3.149 -0.3277 -0.2858 -0.2467
 4656SOL    HW218396   6.141   5.228   3.220  0.9132 -0.0624  0.9327
 4656SOL    HW318397   6.216   5.144   3.119  0.7238 -0.7173  1.3361
 4656SOL    MW418398   6.198   5.221   3.154 -0.2207  0.1365  0.2988
 4657SOL     OW18399   1.480   3.997   0.808 -0.2080 -0.2760  0.5275
 4657SOL    HW218400   1.496   4.049   0.887  0.0490  0.5367 -0.0585
 4657SOL    HW318401   1.472   4.060   0.738 -1.9142 -0.9100  0.1060
 4657SOL    MW418402   1.481   4.012   0.809 -0.3352 -0.3847  0.1041
 4658SOL     OW18403   2.407   1.887   4.806  0.0867  0.1488 -0.4483
 4658SOL    HW218404   2.410   1.934   4.889  2.1064  0.0795 -0.4360
 4658SOL    HW318405   2.388   1.796   4.830  0.3747  0.1832 -0.0892
 4658SOL    MW418406   2.405   1.881   4.820 -0.5212 -0.2445 -0.3833
 4659SOL     OW18407   1.555   0.635   1.261  0.9495 -0.7285  0.1855
 4659SOL    HW218408   1.639   0.617   1.220  0.9583 -0.2308 -0.0188
 4659SOL    HW318409   1.499   0.668   1.191  1.1717  0.7736  0.6752
 4659SOL    MW418410   1.559   0.637   1.247  0.3945 -0.7234  0.0541
 4660SOL     OW18411   1.982   3.656   4.445  0.6317 -0.4545  0.3110
 4660SOL    HW218412   1.967   3.627   4.355 -0.5445  0.8207  0.0533
 4660SOL    HW318413   1.957   3.749   4.444 -3.4218 -1.2854  2.8098
 4660SOL    MW418414   1.977   3.665   4.433 -0.1717 -0.5120 -0.4859
 4661SOL     OW18415   3.805   4.261   2.093  0.4799  0.0097 -0.0673
 4661SOL    HW218416   3.773   4.215   2.171  0.7933  0.5098  0.3638
 4661SOL    HW318417   3.842   4.342   2.127  0.2949  0.3948 -0.7824
 4661SOL    MW418418   3.806   4.265   2.108  0.6035  0.0647  0.3716
 4662SOL     OW18419   5.830   2.564   1.651 -0.2304  0.0446  0.1228
 4662SOL    HW218420   5.821   2.541   1.744 -0.9023  0.1013  0.0758
 4662SOL    HW318421   5.804   2.656   1.646 -0.5747 -0.0672 -0.1832
 4662SOL    MW418422   5.826   2.573   1.663 -0.0929  0.3775  0.0961
 4663SOL     OW18423   3.349   1.726   0.396 -0.3369 -0.2127  0.1560
 4663SOL    HW218424   3.428   1.719   0.451  0.8383 -1.6589 -1.6076
 4663SOL    HW318425   3.376   1.781   0.323 -1.7698  1.3476  0.7171
 4663SOL    MW418426   3.363   1.732   0.394  0.2064 -0.3775 -0.3639
 4664SOL     OW18427   1.600   4.583   3.323 -0.1419  0.2213  0.1638
 4664SOL    HW218428   1.592   4.558   3.231 -0.1958  3.7619 -0.9455
 4664SOL    HW318429   1.690   4.562   3.346 -0.8762 -3.4557  0.4019
 4664SOL    MW418430   1.611   4.577   3.314 -0.1294  0.3016 -0.5488
 4665SOL     OW18431   1.154   5.558   4.154 -0.6697  0.1862  0.7356
 4665SOL    HW218432   1.234   5.532   4.108 -0.5627 -1.3319  1.6994
 4665SOL    HW318433   1.184   5.621   4.220 -0.5132  0.7688  0.1215
 4665SOL    MW418434   1.169   5.563   4.156  0.2467 -0.3030  0.1884
 4666SOL     OW18435   6.018   2.393   6.286  0.0634  0.6999  0.5604
 4666SOL    HW218436   5.996   2.424   6.198 -0.4835 -0.1946  0.3592
 4666SOL    HW318437   5.939   2.410   6.338 -0.4779 -0.8475  0.2964
 4666SOL    MW418438   6.004   2.399   6.281 -0.3505 -0.2110  0.2771
 4667SOL     OW18439   0.529   0.553   1.560 -0.1708  0.5985  0.2025
 4667SOL    HW218440   0.589   0.560   1.634 -0.1575  1.1990  0.1417
 4667SOL    HW318441   0.444   0.582   1.595 -0.4696 -0.3957  0.3299
 4667SOL    MW418442   0.526   0.557   1.574 -0.5863  0.5613  0.1720
 4668SOL     OW18443   4.735   0.361   1.603 -0.0937  0.0003 -0.2908
 4668SOL    HW218444   4.704   0.390   1.517  0.9082 -0.9387 -0.9909
 4668SOL    HW318445   4.814   0.413   1.619 -0.2499  0.1369  0.0468
 4668SOL    MW418446   4.741   0.372   1.594  0.0444 -0.2562 -0.5912
 4669SOL     OW18447   1.450   3.418   1.160 -0.2309  0.5544 -0.5341
 4669SOL    HW218448   1.529   3.470   1.146  1.2932 -1.2239  0.9670
 4669SOL    HW318449   1.446   3.359   1.085  2.3136 -2.1488  1.2163
 4669SOL    MW418450   1.460   3.417   1.148  0.4164  0.0484 -0.2417
 4670SOL     OW18451   3.029   0.297   4.492 -0.1684 -0.4239  0.1834
 4670SOL    HW218452   3.006   0.277   4.401  1.3621  0.4593 -0.4537
 4670SOL    HW318453   3.109   0.349   4.485  0.1709 -0.6137  2.0648
 4670SOL    MW418454   3.037   0.301   4.479 -0.0418  0.2854  0.6420
 4671SOL     OW18455   5.974   1.328   0.794 -0.2233  0.2316  0.2952
 4671SOL    HW218456   5.897   1.335   0.850  0.3810 -1.9991  1.5009
 4671SOL    HW318457   6.048   1.342   0.853  0.3686  0.1697 -0.4191
 4671SOL    MW418458   5.973   1.331   0.809 -0.0310 -0.1580  0.2591
 4672SOL     OW18459   3.453   1.415   4.820 -0.6301  0.0920 -0.3323
 4672SOL    HW218460   3.514   1.479   4.783  0.8367 -0.0111  1.7639
 4672SOL    HW318461   3.374   1.466   4.839 -0.0572  0.9292 -0.1466
 4672SOL    MW418462   3.450   1.430   4.818 -0.2225  0.2473 -0.7069
 4673SOL     OW18463   1.187   0.344   4.838 -0.5212 -0.2460  0.0071
 4673SOL    HW218464   1.136   0.360   4.918  0.5803 -0.9642  0.8937
 4673SOL    HW318465   1.219   0.254   4.849 -0.3739 -0.3598 -1.2680
 4673SOL    MW418466   1.185   0.334   4.850 -0.7174  0.4189 -0.1872
 4674SOL     OW18467   2.755   6.336   4.462  0.5198  0.4914 -0.9184
 4674SOL    HW218468   2.766   6.315   4.369  1.1730 -2.5047 -0.2749
 4674SOL    HW318469   2.716   6.257   4.499 -1.6114  2.3351  1.0665
 4674SOL    MW418470   2.751   6.323   4.454 -0.4961  0.7822 -0.0143
 4675SOL     OW18471   2.905   1.881   4.393 -0.1512  0.3023 -0.6497
 4675SOL    HW218472   2.961   1.886   4.470  1.5737  1.5870 -1.9178
 4675SOL    HW318473   2.816   1.885   4.429  0.4904 -1.5561  1.3950
 4675SOL    MW418474   2.900   1.882   4.408  0.5229 -0.0088 -0.0402
 4676SOL     OW18475   1.103   1.071   4.960  0.1371 -0.0243  0.5312
 4676SOL    HW218476   1.160   0.999   4.933  0.7733  0.6228  0.0907
 4676SOL    HW318477   1.034   1.073   4.894  0.7261  0.4479 -0.0881
 4676SOL    MW418478   1.102   1.062   4.948  0.4973  0.6201  0.3027
 4677SOL     OW18479   2.168   4.648   3.408  0.5865 -0.0860  0.3493
 4677SOL    HW218480   2.209   4.692   3.482  0.6692  2.1020 -0.9291
 4677SOL    HW318481   2.215   4.681   3.332 -1.9745  0.7055 -0.9916
 4677SOL    MW418482   2.180   4.658   3.408  0.4660  0.2753 -0.2404
 4678SOL     OW18483   3.671   5.585   4.334 -0.0401 -0.4007 -0.0383
 4678SOL    HW218484   3.644   5.632   4.413 -1.0383 -0.4400 -0.3338
 4678SOL    HW318485   3.748   5.632   4.302 -2.0255  2.2254 -1.3488
 4678SOL    MW418486   3.677   5.597   4.340  0.4275  0.8914 -0.1896
 4679SOL     OW18487   6.211   5.573   5.108 -0.4170 -0.5797 -0.4628
 4679SOL    HW218488   6.167   5.552   5.026 -0.5777 -1.0035 -0.2744
 4679SOL    HW318489   6.214   5.668   5.111  0.3372 -0.5612 -1.3567
 4679SOL    MW418490   6.206   5.583   5.098 -0.3382  0.2366  0.9492
 4680SOL     OW18491   4.550   5.028   4.773 -0.0318 -0.2345  0.4436
 4680SOL    HW218492   4.570   5.010   4.682  0.3611  0.3796  0.4026
 4680SOL    HW318493   4.520   4.944   4.808  0.9304 -0.7610  0.0507
 4680SOL    MW418494   4.548   5.014   4.766  0.4053  0.3001 -0.2020
 4681SOL     OW18495   3.489   2.538   0.283 -0.1142 -0.2469 -0.2653
 4681SOL    HW218496   3.473   2.469   0.347  1.0664  1.2301  1.7408
 4681SOL    HW318497   3.542   2.497   0.216  0.8700 -1.2380  1.0724
 4681SOL    MW418498   3.494   2.524   0.283  0.6632  0.1389  0.5797
 4682SOL     OW18499   0.937   2.536   4.790  0.3956 -0.5783 -0.1764
 4682SOL    HW218500   0.848   2.557   4.816  0.6487  0.2504  0.0524
 4682SOL    HW318501   0.991   2.564   4.864  1.1014  1.5326 -1.4191
 4682SOL    MW418502   0.933   2.542   4.803 -0.0771  0.4485  0.1801
 4683SOL     OW18503   5.015   1.985   0.149  0.2676 -0.1600  0.1748
 4683SOL    HW218504   4.922   1.962   0.150  0.1720  0.2077 -0.1141
 4683SOL    HW318505   5.056   1.920   0.207  0.0395 -1.1843 -0.7687
 4683SOL    MW418506   5.008   1.973   0.157  0.5890  0.0422 -0.3076
 4684SOL     OW18507   3.541   2.073   6.147 -1.1286 -0.0319 -0.2673
 4684SOL    HW218508   3.544   2.122   6.065  0.2208 -0.1941 -0.3367
 4684SOL    HW318509   3.517   2.138   6.213 -0.3494  0.5270 -0.5111
 4684SOL    MW418510   3.538   2.088   6.145  0.7469 -0.2566  0.5684
 4685SOL     OW18511   5.275   4.734   2.145 -0.3026  0.5395 -0.4086
 4685SOL    HW218512   5.334   4.800   2.182 -0.4349 -0.1131  1.0699
 4685SOL    HW318513   5.331   4.677   2.094  0.2285  0.4119  0.2954
 4685SOL    MW418514   5.290   4.735   2.143 -0.4439 -0.1048 -0.1369
 4686SOL     OW18515   2.977   0.607   5.322  0.0710  0.3670  0.1566
 4686SOL    HW218516   2.918   0.677   5.293  0.8434  0.2914 -1.6658
 4686SOL    HW318517   2.921   0.529   5.325 -0.2977  0.6237  0.0937
 4686SOL    MW418518   2.962   0.606   5.319 -0.2191 -0.4079 -0.0094
 4687SOL     OW18519   6.334   4.585   1.612  0.1504 -0.1301  0.3111
 4687SOL    HW218520   6.290   4.657   1.658 -0.4635 -0.7035  0.6379
 4687SOL    HW318521   6.374   4.626   1.536 -1.1653  0.3730 -0.1310
 4687SOL    MW418522   6.333   4.600   1.608 -0.1378  0.1890  0.3181
 4688SOL     OW18523   1.953   4.940   1.499 -0.0681 -0.2709 -0.1982
 4688SOL    HW218524   1.904   4.881   1.441 -1.7881  1.3558 -0.5002
 4688SOL    HW318525   1.901   4.943   1.579 -0.2083  1.0453 -0.3089
 4688SOL    MW418526   1.939   4.933   1.502 -0.8003 -0.0850  0.0180
 4689SOL     OW18527   4.761   4.372   6.231 -0.0545 -0.6166  0.1285
 4689SOL    HW218528   4.844   4.390   6.186  0.1725 -2.2693 -0.1672
 4689SOL    HW318529   4.779   4.392   6.323  0.0356  0.9731 -0.1942
 4689SOL    MW418530   4.775   4.377   6.237  0.2058  0.2722 -0.7345
 4690SOL     OW18531   1.540   0.324   5.859 -0.4428 -0.5297  0.4938
 4690SOL    HW218532   1.499   0.394   5.808  0.6071 -1.4247 -1.7448
 4690SOL    HW318533   1.514   0.341   5.949 -0.9466  2.2031 -0.0839
 4690SOL    MW418534   1.531   0.336   5.864  0.0731 -0.2328 -0.4792
 4691SOL     OW18535   1.617   3.538   4.769 -0.0077 -0.2919  0.0953
 4691SOL    HW218536   1.612   3.490   4.686 -1.7103  2.0520 -1.2849
 4691SOL    HW318537   1.680   3.608   4.751  0.4610 -0.4206  1.1893
 4691SOL    MW418538   1.625   3.541   4.755 -0.6100  0.3338 -0.7903
 4692SOL     OW18539   1.494   0.604   0.821 -0.1920  0.0820  0.1161
 4692SOL    HW218540   1.432   0.533   0.803  1.3990 -1.7654  1.4489
 4692SOL    HW318541   1.540   0.618   0.738 -1.9349  1.1170 -0.7433
 4692SOL    MW418542   1.492   0.596   0.808  0.2808  0.0648  0.2061
 4693SOL     OW18543   1.557   2.298   5.424 -0.0103  0.2185 -0.3015
 4693SOL    HW218544   1.482   2.325   5.371  0.6492  0.4705 -1.1290
 4693SOL    HW318545   1.531   2.317   5.514 -0.4562  1.4656 -0.6762
 4693SOL    MW418546   1.543   2.304   5.429 -0.8201 -0.1347 -0.0618
 4694SOL     OW18547   4.327   1.571   2.816 -0.4001 -0.4905  0.0584
 4694SOL    HW218548   4.295   1.491   2.859  0.2839 -0.9520 -0.2680
 4694SOL    HW318549   4.333   1.548   2.723  0.0713 -0.1483  0.0006
 4694SOL    MW418550   4.324   1.557   2.809 -0.1862  0.3566 -0.3591
 4695SOL     OW18551   1.117   4.834   0.729  0.1059 -0.6129 -0.4026
 4695SOL    HW218552   1.203   4.857   0.694 -0.0996 -0.2944 -0.7059
 4695SOL    HW318553   1.108   4.740   0.710  1.2154 -1.1261  1.4271
 4695SOL    MW418554   1.127   4.824   0.722  1.1286 -0.6618  0.1914
 4696SOL     OW18555   2.192   1.441   4.066 -0.2138 -0.4383 -0.4738
 4696SOL    HW218556   2.186   1.345   4.066  0.4094 -0.5165 -2.1911
 4696SOL    HW318557   2.156   1.467   3.981 -0.9717  0.9189  0.2197
 4696SOL    MW418558   2.186   1.432   4.055  0.2444 -0.0553  0.4149
 4697SOL     OW18559   4.157   5.980   0.034  0.1877 -0.1038  0.5102
 4697SOL    HW218560   4.144   5.939  -0.052  0.1085  0.6650  0.1481
 4697SOL    HW318561   4.155   6.074   0.016 -2.8828  0.1798  1.7549
 4697SOL    MW418562   4.155   5.987   0.020  0.6823  0.6536 -0.5187
 4698SOL     OW18563   5.089   4.747   0.339 -0.0798 -0.0062 -0.3061
 4698SOL    HW218564   5.162   4.700   0.299 -0.2426 -0.5138 -0.0223
 4698SOL    HW318565   5.018   4.739   0.275 -0.4524 -1.1306  0.2189
 4698SOL    MW418566   5.089   4.739   0.325  0.1532 -0.6458  0.3588
 4699SOL     OW18567   2.303   2.338   0.524  0.0343  0.3373 -0.1249
 4699SOL    HW218568   2.223   2.340   0.472  0.0113  0.1646 -0.0972
 4699SOL    HW318569   2.273   2.317   0.613  0.2200 -0.9672 -0.3442
 4699SOL    MW418570   2.289   2.335   0.529 -0.1934 -0.2623  0.6086
 4700SOL     OW18571   4.445   2.168   2.021  0.4015  1.0163  0.6941
 4700SOL    HW218572   4.433   2.253   2.063 -2.0009  0.6176  0.9638
 4700SOL    HW318573   4.434   2.105   2.092 -2.0688  0.3868 -0.1617
 4700SOL    MW418574   4.442   2.171   2.036 -0.0201 -0.8310 -0.4562
 4701SOL     OW18575   1.456   2.883   3.768 -0.0877  0.3487  0.1175
 4701SOL    HW218576   1.461   2.906   3.861  0.4677 -0.4699  0.2964
 4701SOL    HW318577   1.399   2.950   3.730  1.7020  2.1949  0.5451
 4701SOL    MW418578   1.449   2.895   3.775  0.5121 -0.6573 -0.0802
 4702SOL     OW18579   0.095   0.681   3.137 -0.0424  0.4237  0.0910
 4702SOL    HW218580   0.109   0.766   3.180  0.1570  0.8661 -0.8238
 4702SOL    HW318581   0.138   0.690   3.052 -0.2047 -0.5279 -0.0975
 4702SOL    MW418582   0.102   0.693   3.132 -0.6870  0.0863 -0.5818
 4703SOL     OW18583   2.886   5.109   5.824  0.1686 -0.3773 -0.3471
 4703SOL    HW218584   2.946   5.179   5.801  0.3638 -0.6085 -0.5526
 4703SOL    HW318585   2.836   5.093   5.744 -0.3561  0.0012 -0.0983
 4703SOL    MW418586   2.887   5.116   5.810  0.0958  0.2986  0.2654
 4704SOL     OW18587   0.019   6.306   3.167  0.4825 -0.4543 -0.3604
 4704SOL    HW218588   0.047   6.283   3.256 -1.7312  1.0075  0.8085
 4704SOL    HW318589  -0.073   6.281   3.164  0.1433  0.8427 -1.7657
 4704SOL    MW418590   0.011   6.300   3.179 -0.2755  0.0894  0.0673
 4705SOL     OW18591   2.790   2.188   4.341 -0.2390  0.3991  0.0407
 4705SOL    HW218592   2.706   2.143   4.334 -0.4644  0.8672 -0.3200
 4705SOL    HW318593   2.843   2.152   4.270  0.1805 -0.5381  0.8059
 4705SOL    MW418594   2.786   2.178   4.331  0.2833 -0.0626 -0.3124
 4706SOL     OW18595   4.443   6.219   0.850  0.3304 -0.4541 -0.2739
 4706SOL    HW218596   4.358   6.232   0.893 -0.2058 -1.4625 -0.9761
 4706SOL    HW318597   4.461   6.301   0.805  0.5758  0.3802  1.2990
 4706SOL    MW418598   4.434   6.231   0.850  0.1377 -0.0378 -0.1363
 4707SOL     OW18599   2.228   3.667   3.236  0.3649 -0.8054  0.8391
 4707SOL    HW218600   2.263   3.720   3.307 -2.2312  1.6127  0.5304
 4707SOL    HW318601   2.298   3.607   3.212  3.4981  2.3374  1.4217
 4707SOL    MW418602   2.242   3.666   3.242  0.0718  0.4549 -0.1890
 4708SOL     OW18603   6.024   3.442   5.970 -0.0563  0.0550 -0.1063
 4708SOL    HW218604   6.046   3.361   6.017  0.0433  0.0169 -0.2191
 4708SOL    HW318605   6.081   3.442   5.893 -1.0872 -0.4887 -0.8871
 4708SOL    MW418606   6.034   3.431   5.966 -0.1335 -0.7912  0.2410
 4709SOL     OW18607   6.225   3.859   4.857 -0.1126  0.2324 -1.0159
 4709SOL    HW218608   6.294   3.793   4.851 -0.3057 -0.0105 -0.6474
 4709SOL    HW318609   6.222   3.882   4.950 -0.4651  0.3050 -1.0413
 4709SOL    MW418610   6.234   3.854   4.869 -0.2785  0.3942  0.3161
 4710SOL     OW18611   1.302   0.257   0.433 -0.0187 -0.2119  0.1079
 4710SOL    HW218612   1.365   0.244   0.504 -0.7356 -1.3045  0.5657
 4710SOL    HW318613   1.354   0.295   0.362  0.6777  1.0758  1.2526
 4710SOL    MW418614   1.317   0.260   0.433 -0.6429  0.8463  0.2055
 4711SOL     OW18615   4.632   5.965   2.901  0.5716 -0.6029 -0.5082
 4711SOL    HW218616   4.651   5.951   2.993  2.3422 -1.2430 -0.9340
 4711SOL    HW318617   4.642   6.059   2.888 -0.3077 -0.4198  0.0628
 4711SOL    MW418618   4.636   5.975   2.911 -0.1933  0.5958  0.0379
 4712SOL     OW18619   0.444   5.282   0.079 -0.1330  0.4633  0.3524
 4712SOL    HW218620   0.427   5.262  -0.013 -0.0942  0.4633  0.3452
 4712SOL    HW318621   0.422   5.375   0.087 -2.1985 -0.0151  0.8381
 4712SOL    MW418622   0.439   5.292   0.068 -0.2603 -0.7384  0.5735
 4713SOL     OW18623   1.202   1.493   1.360 -0.0860 -0.2037  0.2899
 4713SOL    HW218624   1.259   1.567   1.340 -0.1719 -0.4063 -0.7464
 4713SOL    HW318625   1.211   1.434   1.285 -0.4800 -0.9595  0.8261
 4713SOL    MW418626   1.211   1.495   1.348  0.0905  0.0349 -0.2424
 4714SOL     OW18627   3.976   1.438   4.381 -0.6115  0.4791 -0.1148
 4714SOL    HW218628   3.986   1.361   4.438 -0.2989 -0.2322 -1.1042
 4714SOL    HW318629   3.993   1.512   4.439  1.4338 -0.2918  0.3712
 4714SOL    MW418630   3.979   1.437   4.396  0.1469  0.1887  0.3054
 4715SOL     OW18631   2.574   2.180   0.083 -0.7819  0.6325 -0.1992
 4715SOL    HW218632   2.647   2.159   0.025 -1.4962 -0.9653 -0.5834
 4715SOL    HW318633   2.564   2.275   0.077 -0.4321  0.5791 -2.2203
 4715SOL    MW418634   2.582   2.190   0.074 -0.0523  0.5615  0.5724
 4716SOL     OW18635   4.518   2.016   3.986 -0.6076  0.2741  1.1846
 4716SOL    HW218636   4.525   2.053   3.898 -0.5904  0.1703  1.1410
 4716SOL    HW318637   4.587   2.058   4.036 -0.5359  0.2423  1.1143
 4716SOL    MW418638   4.528   2.026   3.981  0.2486 -0.1624  0.2914
 4717SOL     OW18639   4.252   0.448   2.420 -0.2871 -0.1094 -0.4961
 4717SOL    HW218640   4.216   0.524   2.465  0.3289  0.1363 -0.4112
 4717SOL    HW318641   4.347   0.457   2.430 -0.1930 -0.6466 -0.8776
 4717SOL    MW418642   4.260   0.459   2.428  0.3407  0.9012 -0.6808
 4718SOL     OW18643   5.505   2.013   5.701  0.8106 -0.1219 -0.2649
 4718SOL    HW218644   5.469   2.091   5.744  1.6346 -0.3427  0.8719
 4718SOL    HW318645   5.536   2.045   5.616  1.4572  0.8913  0.3210
 4718SOL    MW418646   5.504   2.027   5.695  0.2229 -0.1525 -0.0142
 4719SOL     OW18647   4.436   0.936   2.116 -0.3025  0.2695  0.1723
 4719SOL    HW218648   4.463   1.024   2.090  0.4355 -0.3547 -1.2860
 4719SOL    HW318649   4.488   0.878   2.060 -0.2566 -1.1160  1.5980
 4719SOL    MW418650   4.446   0.940   2.105 -0.1671  0.2342 -0.1873
 4720SOL     OW18651   1.575   0.284   5.566 -0.3090  0.0961 -0.0643
 4720SOL    HW218652   1.546   0.373   5.585 -0.8818 -0.6395  3.0123
 4720SOL    HW318653   1.671   0.288   5.569 -0.3392  0.1897  2.7478
 4720SOL    MW418654   1.584   0.296   5.569 -0.5321  0.0653  0.3771
 4721SOL     OW18655   3.571   4.717   5.649  0.3818  0.3378 -0.4177
 4721SOL    HW218656   3.661   4.712   5.679  0.0355 -1.9497  0.4493
 4721SOL    HW318657   3.565   4.653   5.578 -0.0249  2.2086 -2.1900
 4721SOL    MW418658   3.582   4.708   5.644  0.9883  0.6337  0.3051
 4722SOL     OW18659   0.572   3.028   4.901  0.9160  0.1442 -1.1712
 4722SOL    HW218660   0.645   2.969   4.915  0.4267 -0.3583 -0.6752
 4722SOL    HW318661   0.508   2.975   4.853 -0.4537 -0.4931  1.1727
 4722SOL    MW418662   0.573   3.013   4.896  0.9781 -0.9110 -0.4394
 4723SOL     OW18663   6.324   2.848   6.125 -0.2001  0.2872 -0.7455
 4723SOL    HW218664   6.312   2.760   6.160 -1.3208  0.6586 -0.1470
 4723SOL    HW318665   6.236   2.880   6.109  0.1631  1.5447 -0.3481
 4723SOL    MW418666   6.311   2.841   6.127 -0.3084 -0.3396 -0.5107
 4724SOL     OW18667   2.843   1.185   4.042 -0.4595 -0.0113  0.2890
 4724SOL    HW218668   2.897   1.124   4.093 -0.6999  0.0842  0.6646
 4724SOL    HW318669   2.906   1.233   3.988 -0.2989 -0.8495 -0.2903
 4724SOL    MW418670   2.859   1.183   4.041 -0.0872  0.5425 -0.1156
 4725SOL     OW18671   0.250   0.579   1.649 -0.2649  0.2811  0.2020
 4725SOL    HW218672   0.258   0.494   1.693  1.8034 -1.5635 -3.2870
 4725SOL    HW318673   0.201   0.561   1.570  0.4804  2.2744 -0.7879
 4725SOL    MW418674   0.245   0.565   1.645  0.1644 -0.0994 -0.2923
 4726SOL     OW18675   4.513   0.835   0.947  0.2466 -0.1738 -0.4863
 4726SOL    HW218676   4.529   0.894   1.020  1.6913 -0.8616 -0.2124
 4726SOL    HW318677   4.431   0.866   0.909  0.7812  1.8016 -0.1639
 4726SOL    MW418678   4.504   0.847   0.951  0.2879 -0.4519 -0.2022
 4727SOL     OW18679   0.954   4.213   2.181 -0.6250  0.6033  0.2933
 4727SOL    HW218680   0.876   4.264   2.161 -1.1774  0.0049  0.9104
 4727SOL    HW318681   0.922   4.125   2.202  0.0869  0.6726  1.8199
 4727SOL    MW418682   0.940   4.208   2.181  0.2950  0.1107  0.5465
 4728SOL     OW18683   3.968   2.631   4.209  0.5025 -0.3294 -0.2016
 4728SOL    HW218684   3.917   2.555   4.235 -1.5483  1.8281  2.8057
 4728SOL    HW318685   3.903   2.696   4.182  1.7943  1.6158  1.0743
 4728SOL    MW418686   3.953   2.630   4.209  0.2152 -0.0406 -0.0980
 4729SOL     OW18687   0.480   3.827   2.678  0.5497  0.4005  0.5601
 4729SOL    HW218688   0.564   3.783   2.684  0.6763  0.6805  0.9193
 4729SOL    HW318689   0.415   3.759   2.699  0.6024 -0.0782 -0.7586
 4729SOL    MW418690   0.482   3.813   2.682 -0.6078  0.1706  1.0265
 4730SOL     OW18691   4.337   1.687   2.147 -0.1031  0.1615  0.1584
 4730SOL    HW218692   4.247   1.689   2.182 -0.5089  0.0511 -0.8583
 4730SOL    HW318693   4.389   1.651   2.219 -0.6562  1.3888  1.2118
 4730SOL    MW418694   4.332   1.683   2.161 -0.1968 -0.3216  0.0745
 4731SOL     OW18695   3.753   3.493   0.283  0.0346 -0.0461 -0.2874
 4731SOL    HW218696   3.835   3.467   0.324  0.0493 -2.1368 -1.5099
 4731SOL    HW318697   3.779   3.532   0.200 -0.1682  0.3165 -0.1812
 4731SOL    MW418698   3.767   3.495   0.278  0.2770 -0.1525 -0.0501
 4732SOL     OW18699   0.128   1.884   0.274 -0.0388  0.6341  0.1115
 4732SOL    HW218700   0.157   1.849   0.190 -1.1926 -2.5070  0.9032
 4732SOL    HW318701   0.209   1.895   0.325  0.6057  2.0113 -1.1380
 4732SOL    MW418702   0.142   1.881   0.270 -0.4718  0.0102  0.0191
 4733SOL     OW18703   4.705   5.873   5.801  0.0036 -0.5334  0.3872
 4733SOL    HW218704   4.623   5.914   5.826 -0.4859 -0.9864 -0.4362
 4733SOL    HW318705   4.758   5.875   5.881 -0.8532 -0.3754  0.9636
 4733SOL    MW418706   4.701   5.879   5.815 -0.5412  0.2655  0.4518
 4734SOL     OW18707   5.671   4.876   3.563  0.5979  0.2936 -0.2065
 4734SOL    HW218708   5.767   4.884   3.570  0.9310 -2.3785 -0.8440
 4734SOL    HW318709   5.643   4.846   3.650  0.5427 -0.3842 -0.4536
 4734SOL    MW418710   5.680   4.873   3.576 -0.0635 -0.3239 -0.5041
 4735SOL     OW18711   2.985   0.552   4.141 -0.1931  0.5483  0.1474
 4735SOL    HW218712   2.908   0.502   4.171 -0.5362  2.0642  2.0273
 4735SOL    HW318713   3.010   0.605   4.217  2.9606 -0.1247 -0.2838
 4735SOL    MW418714   2.978   0.553   4.155  0.4800 -0.2718  0.0555
 4736SOL     OW18715   1.152   3.574   4.181  0.6077 -0.1873  0.5643
 4736SOL    HW218716   1.231   3.627   4.170 -0.0425  0.6441 -0.2950
 4736SOL    HW318717   1.080   3.636   4.172 -0.1578 -0.9961  0.9580
 4736SOL    MW418718   1.153   3.589   4.178 -0.7163 -0.1424 -0.3824
 4737SOL     OW18719   5.340   2.037   6.227 -0.5573  0.1194  0.1180
 4737SOL    HW218720   5.307   2.122   6.199 -0.2276 -0.5548 -2.5174
 4737SOL    HW318721   5.261   1.989   6.254 -0.6539  1.4828  2.4977
 4737SOL    MW418722   5.325   2.042   6.227  0.3235  0.3535 -0.0811
 4738SOL     OW18723   3.031   5.414   2.410 -0.6001  0.4180  0.0780
 4738SOL    HW218724   3.033   5.389   2.318 -0.0094 -1.9228  0.6527
 4738SOL    HW318725   3.123   5.433   2.432 -0.8631  1.8937 -0.0091
 4738SOL    MW418726   3.044   5.413   2.401  0.4453 -0.4735 -0.0899
 4739SOL     OW18727   6.145   6.324   5.348  0.4209 -0.8098  0.1093
 4739SOL    HW218728   6.078   6.359   5.406  1.8383 -0.5847  1.6804
 4739SOL    HW318729   6.156   6.233   5.375 -0.0529 -1.1833 -0.9182
 4739SOL    MW418730   6.138   6.317   5.359 -0.6370  0.4284 -0.3814
 4740SOL     OW18731   4.435   1.266   2.613  0.3463 -0.1138  0.1285
 4740SOL    HW218732   4.389   1.189   2.580  0.8662 -0.6593  0.6505
 4740SOL    HW318733   4.422   1.263   2.707  0.4197  0.4089  0.1583
 4740SOL    MW418734   4.427   1.256   2.621 -0.4964  0.3813  0.1635
 4741SOL     OW18735   3.900   4.865   6.062  0.6240  0.5769 -0.1704
 4741SOL    HW218736   3.947   4.865   5.978 -1.9598 -1.2033 -1.7685
 4741SOL    HW318737   3.921   4.780   6.100 -1.5462 -0.4514 -1.1427
 4741SOL    MW418738   3.909   4.854   6.056 -0.2535 -0.0671 -0.3432
 4742SOL     OW18739   4.816   4.058   0.993 -0.1924 -0.6681  0.7074
 4742SOL    HW218740   4.896   4.108   0.974  0.1340 -1.3808  0.1159
 4742SOL    HW318741   4.809   3.996   0.920 -2.1299  0.3774 -0.0498
 4742SOL    MW418742   4.826   4.056   0.981  0.5506 -0.3646 -0.2292
 4743SOL     OW18743   4.877   4.291   5.199  0.1909 -0.4800  0.4093
 4743SOL    HW218744   4.866   4.311   5.106 -0.6309 -2.5991 -0.0125
 4743SOL    HW318745   4.867   4.196   5.205 -0.8884 -0.3079  2.8090
 4743SOL    MW418746   4.874   4.281   5.188  0.2227 -0.1803  0.5246
 4744SOL     OW18747   5.231   3.052   4.975  0.0659 -0.1762 -0.3158
 4744SOL    HW218748   5.156   2.992   4.974 -1.4962  1.6600  0.3485
 4744SOL    HW318749   5.240   3.081   4.885  0.2725 -0.7127 -0.4749
 4744SOL    MW418750   5.222   3.048   4.963  0.0913 -0.2351 -0.8237
 4745SOL     OW18751   5.269   3.627   3.224  0.0495  0.1660  0.3831
 4745SOL    HW218752   5.323   3.603   3.150 -1.1566  1.8978 -1.1453
 4745SOL    HW318753   5.222   3.547   3.247 -0.4676 -0.1085 -1.5348
 4745SOL    MW418754   5.270   3.613   3.218  0.6744 -0.0922 -0.3320
 4746SOL     OW18755   2.763   5.932   0.342 -0.5687  0.0203 -0.2069
 4746SOL    HW218756   2.819   5.886   0.279 -1.2119  1.2896 -1.7958
 4746SOL    HW318757   2.674   5.902   0.320 -0.7941  0.4472  0.1294
 4746SOL    MW418758   2.759   5.922   0.330  0.2450 -0.2838  0.0777
 4747SOL     OW18759   1.268   4.406   1.609  0.4426  0.4156 -0.2772
 4747SOL    HW218760   1.195   4.456   1.647  0.4845  0.1212  0.1890
 4747SOL    HW318761   1.292   4.456   1.531 -0.0697  0.6726 -0.2782
 4747SOL    MW418762   1.261   4.419   1.604 -0.3360 -0.0845 -0.2905
 4748SOL     OW18763   2.695   3.725   3.675 -0.0221 -0.0040  0.1146
 4748SOL    HW218764   2.602   3.717   3.699  0.0799  1.8226  1.3149
 4748SOL    HW318765   2.708   3.657   3.609 -2.0201 -0.8154  0.4668
 4748SOL    MW418766   2.684   3.715   3.669 -0.0537  0.4123 -0.0534
 4749SOL     OW18767   2.432   1.692   1.549  0.0751 -0.1408 -0.4429
 4749SOL    HW218768   2.368   1.658   1.487  0.6025  0.4700 -1.3516
 4749SOL    HW318769   2.501   1.730   1.494  0.1388  1.2027  0.5129
 4749SOL    MW418770   2.433   1.692   1.534  0.4549 -0.1538 -0.2990
 4750SOL     OW18771   1.063   4.278   0.889  0.6140 -0.4583  0.1597
 4750SOL    HW218772   0.979   4.251   0.925  1.2306 -2.2449  0.3288
 4750SOL    HW318773   1.100   4.198   0.851  1.5382  0.6219 -1.3388
 4750SOL    MW418774   1.057   4.264   0.889  0.0740  0.2974  0.8098
 4751SOL     OW18775   3.336   3.518   3.501 -0.3048  0.0252  0.0445
 4751SOL    HW218776   3.384   3.589   3.457 -0.9651  0.4371 -0.0266
 4751SOL    HW318777   3.320   3.551   3.589 -0.7114  0.0149 -0.0235
 4751SOL    MW418778   3.341   3.532   3.507 -0.0425 -0.1196  0.1280
 4752SOL     OW18779   3.994   2.669   1.917  0.5113  0.5321  0.0953
 4752SOL    HW218780   3.956   2.634   1.836  0.9688  1.0718 -0.3685
 4752SOL    HW318781   4.045   2.597   1.952  2.7194  1.1003 -1.6695
 4752SOL    MW418782   3.996   2.655   1.911  0.2029  0.3757  0.4154
 4753SOL     OW18783   5.736   4.622   4.285  0.1874 -0.0367  0.1297
 4753SOL    HW218784   5.734   4.527   4.287  2.0294 -0.1233  2.0675
 4753SOL    HW318785   5.813   4.643   4.232 -1.2170  0.4845 -1.8165
 4753SOL    MW418786   5.746   4.612   4.278 -0.2623 -0.0403 -0.5296
 4754SOL     OW18787   2.067   0.884   4.049 -0.0418 -0.0831 -0.5523
 4754SOL    HW218788   1.974   0.892   4.066  0.3998  0.7699  1.7843
 4754SOL    HW318789   2.087   0.957   3.990 -0.4821  1.2009  0.8214
 4754SOL    MW418790   2.058   0.895   4.043 -0.0088 -0.0695 -0.7269
 4755SOL     OW18791   1.450   2.761   4.584  0.0425  0.4932 -0.0309
 4755SOL    HW218792   1.358   2.783   4.569  0.0419  0.7333  0.3323
 4755SOL    HW318793   1.488   2.840   4.621  0.4737  0.4991 -0.4714
 4755SOL    MW418794   1.443   2.774   4.587  0.3864 -0.0274 -0.0818
 4756SOL     OW18795   4.996   3.846   5.128  0.1617 -0.4657  0.3976
 4756SOL    HW218796   5.040   3.898   5.061 -0.7875 -0.6029 -0.3490
 4756SOL    HW318797   4.921   3.807   5.084 -0.2425 -0.9151  1.4328
 4756SOL    MW418798   4.992   3.848   5.114  0.5681  0.5881  0.1973
 4757SOL     OW18799   5.534   5.439   1.689  0.6084  0.1350  0.0407
 4757SOL    HW218800   5.607   5.385   1.718  1.5279  0.8662 -0.8377
 4757SOL    HW318801   5.484   5.457   1.768  1.2219 -0.5936  0.6111
 4757SOL    MW418802   5.537   5.434   1.703 -0.1475  0.0851  0.2712
 4758SOL     OW18803   1.503   0.794   1.478 -0.0046 -0.1108 -0.1658
 4758SOL    HW218804   1.512   0.739   1.400  0.6973 -0.6122  0.2584
 4758SOL    HW318805   1.464   0.737   1.544  1.0360 -0.2257  0.3795
 4758SOL    MW418806   1.499   0.779   1.477 -0.1814 -0.7736  0.0030
 4759SOL     OW18807   6.125   0.737   4.249  0.1321  0.6581 -0.3842
 4759SOL    HW218808   6.188   0.753   4.319 -0.3023  1.2316 -0.1196
 4759SOL    HW318809   6.176   0.692   4.181  0.9283  1.4889 -0.3540
 4759SOL    MW418810   6.140   0.733   4.250  0.3649 -0.2675  0.5423
 4760SOL     OW18811   4.734   3.237   1.972  0.6289 -0.5544  0.0025
 4760SOL    HW218812   4.789   3.311   1.999 -0.9998  1.0130 -0.7443
 4760SOL    HW318813   4.649   3.254   2.013  0.0322 -1.6534 -0.7255
 4760SOL    MW418814   4.730   3.249   1.981  1.4728  0.6660 -0.5522
 4761SOL     OW18815   4.623   0.706   5.773  0.2821 -0.3236  0.7641
 4761SOL    HW218816   4.529   0.718   5.785 -0.1129  0.5682 -2.2559
 4761SOL    HW318817   4.634   0.612   5.760 -0.6697 -0.1940 -1.4269
 4761SOL    MW418818   4.612   0.695   5.773 -0.9025 -0.0490 -0.4588
 4762SOL     OW18819   2.497   2.892   6.147  0.1942 -0.4462  0.2580
 4762SOL    HW218820   2.536   2.971   6.109 -2.6590  0.9687  0.0232
 4762SOL    HW318821   2.524   2.894   6.239  0.0624  0.9062  0.2884
 4762SOL    MW418822   2.506   2.902   6.154  0.4529 -0.2376  0.2709
 4763SOL     OW18823   1.876   5.653   5.102 -0.3530 -0.2507 -0.0240
 4763SOL    HW218824   1.808   5.587   5.110  0.1983 -0.8219 -0.0279
 4763SOL    HW318825   1.953   5.614   5.143 -0.2287  0.6928  0.6812
 4763SOL    MW418826   1.877   5.639   5.109  0.0926 -0.7408 -0.6231
 4764SOL     OW18827   4.616   3.850   3.413  0.5344  0.1787  0.0045
 4764SOL    HW218828   4.610   3.854   3.317 -0.5099 -2.1037 -0.0808
 4764SOL    HW318829   4.616   3.942   3.440  1.2924  0.9098 -2.1830
 4764SOL    MW418830   4.615   3.863   3.404  0.9596  0.2183 -0.1600
 4765SOL     OW18831   2.522   4.514   5.333  0.0256  0.0008  0.2539
 4765SOL    HW218832   2.445   4.461   5.354 -0.6364  1.3027  1.2174
 4765SOL    HW318833   2.574   4.514   5.414  1.0610 -0.8484 -0.3776
 4765SOL    MW418834   2.519   4.507   5.347 -0.0757  0.3550 -0.2533
 4766SOL     OW18835   5.760   6.188   3.087 -0.1554 -0.5205 -0.3024
 4766SOL    HW218836   5.715   6.118   3.134 -0.8198 -0.3792 -0.7117
 4766SOL    HW318837   5.844   6.198   3.133 -0.1014 -1.4911 -0.1682
 4766SOL    MW418838   5.765   6.180   3.099  0.8672  0.8224  0.5154
 4767SOL     OW18839   0.514   2.471   2.469  0.6466  0.1897 -0.0935
 4767SOL    HW218840   0.523   2.553   2.419 -1.4210  1.2423  1.1384
 4767SOL    HW318841   0.537   2.403   2.406  0.8393  1.6139 -1.6536
 4767SOL    MW418842   0.518   2.473   2.454  0.1208 -0.3053  0.4513
 4768SOL     OW18843   5.989   4.077   4.473 -0.2426 -0.1405  0.0306
 4768SOL    HW218844   6.017   4.077   4.382  0.0527 -1.5933  0.1058
 4768SOL    HW318845   5.932   4.153   4.481 -1.7863 -1.0461 -1.8229
 4768SOL    MW418846   5.985   4.087   4.462  0.3339  0.4417 -0.5251
 4769SOL     OW18847   0.203   4.192   6.356 -0.0682  0.2711 -0.0917
 4769SOL    HW218848   0.272   4.258   6.356  1.0919 -0.7584  2.8669
 4769SOL    HW318849   0.124   4.241   6.379 -0.0875  1.2188 -1.9967
 4769SOL    MW418850   0.202   4.207   6.359 -0.6080 -0.5441 -0.8210
 4770SOL     OW18851   3.504   3.870   4.058  0.4768  0.2805 -0.0244
 4770SOL    HW218852   3.462   3.787   4.084 -1.6546  1.5394  0.8282
 4770SOL    HW318853   3.431   3.926   4.031  1.9585  1.6020 -1.4581
 4770SOL    MW418854   3.489   3.866   4.058 -0.3071 -0.3575 -0.3308
 4771SOL     OW18855   1.722   4.875   0.995  0.2830 -0.0251 -0.1617
 4771SOL    HW218856   1.754   4.915   1.076  0.3402 -0.9049  0.2701
 4771SOL    HW318857   1.652   4.933   0.966 -0.1146  0.0232  0.8294
 4771SOL    MW418858   1.717   4.888   1.002  0.0530 -0.7728 -0.1341
 4772SOL     OW18859   2.994   3.921   1.426 -0.0688 -0.0289 -0.4894
 4772SOL    HW218860   3.048   3.912   1.505  0.6565 -0.2400 -0.9881
 4772SOL    HW318861   2.956   4.008   1.432  0.7566  0.3396 -0.3678
 4772SOL    MW418862   2.996   3.931   1.437  0.0700 -0.0459 -0.4497
 4773SOL     OW18863   5.769   1.869   1.878  0.3316  0.1424 -0.6325
 4773SOL    HW218864   5.833   1.931   1.843 -0.5955  2.4808  1.5778
 4773SOL    HW318865   5.776   1.877   1.973 -2.0705 -0.7661 -0.3100
 4773SOL    MW418866   5.778   1.878   1.886 -0.0326  0.7715 -0.1656
 4774SOL     OW18867   3.911   0.795   2.361  0.0676  0.1121 -0.1790
 4774SOL    HW218868   3.880   0.768   2.275 -2.0465 -1.2088  0.9334
 4774SOL    HW318869   3.930   0.714   2.407  0.4289  0.7668  0.8639
 4774SOL    MW418870   3.910   0.781   2.356  0.2582 -0.3680  0.1987
 4775SOL     OW18871   1.019   2.251   1.111 -0.1585  0.2267  0.5801
 4775SOL    HW218872   0.931   2.246   1.073  0.2984 -0.7559 -0.4284
 4775SOL    HW318873   1.059   2.326   1.067  0.7921 -1.6354 -1.9765
 4775SOL    MW418874   1.012   2.260   1.100 -0.0312 -0.0139  0.9124
 4776SOL     OW18875   0.293   6.400   1.907  0.2403 -0.8903  0.1758
 4776SOL    HW218876   0.229   6.455   1.861 -1.2426 -1.5693  1.3205
 4776SOL    HW318877   0.274   6.413   2.000  1.5908 -1.3496  0.5386
 4776SOL    MW418878   0.282   6.409   1.913  0.2046  0.5622 -0.1079
 4777SOL     OW18879   0.662   3.935   3.068  0.1496  0.2313  0.0680
 4777SOL    HW218880   0.662   4.006   3.132 -3.3191 -0.2536  0.8036
 4777SOL    HW318881   0.579   3.946   3.020 -0.4826 -3.1907  0.1353
 4777SOL    MW418882   0.651   3.946   3.070  0.1867  0.1613 -0.2678
 4778SOL     OW18883   4.499   2.904   4.630  0.2023  0.1331 -0.3119
 4778SOL    HW218884   4.419   2.898   4.579  0.5800  0.6540 -0.9734
 4778SOL    HW318885   4.537   2.816   4.627 -1.1039 -0.5258  1.2861
 4778SOL    MW418886   4.494   2.892   4.623 -0.6842  0.0541 -0.5393
 4779SOL     OW18887   1.377   5.175   2.876 -0.1316  0.9895  0.1726
 4779SOL    HW218888   1.320   5.101   2.898  0.6907  0.7231  1.5141
 4779SOL    HW318889   1.347   5.246   2.931 -1.5064  1.9922 -1.7590
 4779SOL    MW418890   1.366   5.174   2.886 -0.6074 -0.1223 -0.0062
 4780SOL     OW18891   2.944   5.062   1.199  0.0245  0.0478 -0.0470
 4780SOL    HW218892   2.954   5.107   1.282  0.8640  0.8519 -0.5685
 4780SOL    HW318893   2.853   5.033   1.198 -0.2224  0.7687  0.7822
 4780SOL    MW418894   2.933   5.064   1.210  0.1777 -0.0087  0.3752
 4781SOL     OW18895   5.836   1.875   4.884  0.3237 -0.2761  0.3016
 4781SOL    HW218896   5.760   1.882   4.941 -0.7485  1.7280 -1.2318
 4781SOL    HW318897   5.905   1.838   4.939 -0.5100  1.9333  3.0115
 4781SOL    MW418898   5.835   1.871   4.899 -0.0469  0.2513 -0.3025
 4782SOL     OW18899   5.678   4.484   2.784 -0.2261 -0.1154 -0.1221
 4782SOL    HW218900   5.659   4.406   2.836 -0.1485 -1.6280 -2.2218
 4782SOL    HW318901   5.754   4.524   2.827 -0.0231 -1.4245  0.7883
 4782SOL    MW418902   5.686   4.479   2.796 -0.0879  0.1350  0.0429
 4783SOL     OW18903   1.612   5.814   5.249  0.0246  0.5624 -0.7319
 4783SOL    HW218904   1.533   5.776   5.287 -0.5076  0.8034 -1.5656
 4783SOL    HW318905   1.680   5.801   5.315 -0.6551  0.1257 -0.1123
 4783SOL    MW418906   1.611   5.808   5.262  0.3769  0.0646  0.4338
 4784SOL     OW18907   3.799   2.628   3.112 -0.0671  0.8351 -0.5475
 4784SOL    HW218908   3.779   2.610   3.020  1.7340 -0.7888 -0.6725
 4784SOL    HW318909   3.894   2.620   3.118 -0.0357  2.0628  1.2377
 4784SOL    MW418910   3.809   2.625   3.101  0.5674  0.5780  0.1266
 4785SOL     OW18911   6.143   5.201   5.026 -0.1787 -0.1097  0.4050
 4785SOL    HW218912   6.147   5.252   5.107 -1.7159 -0.9297  1.0266
 4785SOL    HW318913   6.077   5.134   5.042 -0.1656 -0.6072 -1.3624
 4785SOL    MW418914   6.135   5.199   5.039  0.7973 -0.1713 -0.1518
 4786SOL     OW18915   4.225   5.478   6.319  0.2462 -0.2336 -0.0719
 4786SOL    HW218916   4.142   5.485   6.272  0.4269  1.8884 -0.1732
 4786SOL    HW318917   4.206   5.419   6.392 -1.0846 -0.5355 -0.6363
 4786SOL    MW418918   4.211   5.471   6.322  0.0745  0.1104  0.1243
 4787SOL     OW18919   0.877   3.612   2.156  0.1717 -0.0537  0.0037
 4787SOL    HW218920   0.866   3.520   2.132 -0.6398  0.0948 -0.2296
 4787SOL    HW318921   0.794   3.636   2.198  0.3427  0.5981 -0.0153
 4787SOL    MW418922   0.865   3.603   2.159 -0.0473 -0.0693 -0.4418
 4788SOL     OW18923   0.173   5.577   2.174 -0.4256 -0.4185  0.2520
 4788SOL    HW218924   0.081   5.562   2.192 -0.3886 -1.4832 -0.3456
 4788SOL    HW318925   0.186   5.543   2.085  0.8489 -1.6969  0.8815
 4788SOL    MW418926   0.163   5.570   2.165 -0.6187  0.1395  0.3603
 4789SOL     OW18927   3.051   4.635   0.187  0.8021 -0.7446  0.1764
 4789SOL    HW218928   3.029   4.542   0.184 -0.1266 -0.5155 -1.9769
 4789SOL    HW318929   2.970   4.679   0.213  0.5851 -0.3963 -1.0408
 4789SOL    MW418930   3.038   4.629   0.190 -0.0550 -0.1951 -0.6340
 4790SOL     OW18931   3.145   5.935   3.555  0.5265 -0.1140 -0.2848
 4790SOL    HW218932   3.140   5.853   3.605 -0.5095  1.1024  1.6815
 4790SOL    HW318933   3.054   5.960   3.539  0.7341 -1.1978 -4.2243
 4790SOL    MW418934   3.132   5.927   3.559  0.0108  0.2431  0.1186
 4791SOL     OW18935   4.909   1.423   6.145  0.7011 -0.2485 -0.0691
 4791SOL    HW218936   4.917   1.496   6.206 -1.1417  1.5043 -1.7471
 4791SOL    HW318937   4.854   1.458   6.074 -0.5509 -3.3801 -0.7879
 4791SOL    MW418938   4.903   1.437   6.144 -1.3880 -0.1350 -0.3215
 4792SOL     OW18939   1.970   4.090   4.850 -0.9652  0.6566 -0.4328
 4792SOL    HW218940   1.997   3.998   4.852 -1.5134  0.4896 -0.6165
 4792SOL    HW318941   1.958   4.113   4.942 -1.0147  0.4864 -0.3963
 4792SOL    MW418942   1.972   4.081   4.863 -0.0605  0.2353  0.8746
 4793SOL     OW18943   4.957   0.411   2.342  0.0951 -0.1211  0.6415
 4793SOL    HW218944   5.048   0.386   2.323  0.2840  1.1588 -0.2645
 4793SOL    HW318945   4.912   0.328   2.355  1.0336 -0.8819 -0.6689
 4793SOL    MW418946   4.963   0.397   2.341  0.0384 -0.7762  0.0363
 4794SOL     OW18947   3.288   2.981   0.912  0.1150  0.3540 -0.1050
 4794SOL    HW218948   3.320   2.891   0.923 -0.4492  0.1825  0.1977
 4794SOL    HW318949   3.342   3.033   0.971 -0.3407  0.0196  0.6393
 4794SOL    MW418950   3.299   2.976   0.922 -0.3217  0.2663 -0.5979
 4795SOL     OW18951   6.334   4.847   3.735  0.5299 -0.9268  0.2778
 4795SOL    HW218952   6.319   4.808   3.649  0.4108 -0.9325  0.3010
 4795SOL    HW318953   6.276   4.923   3.737  0.5016 -0.9514  0.3702
 4795SOL    MW418954   6.324   4.852   3.724 -0.3664  0.3481 -0.4440
 4796SOL     OW18955   3.782   4.195   0.711 -0.2900 -0.0160  0.2328
 4796SOL    HW218956   3.806   4.168   0.800  0.1068  0.0163  0.1363
 4796SOL    HW318957   3.865   4.219   0.670 -0.5704  0.8417  0.1443
 4796SOL    MW418958   3.796   4.194   0.717 -0.0109 -0.5029 -0.0281
 4797SOL     OW18959   2.970   6.284   0.539 -0.0270 -0.2486  0.3233
 4797SOL    HW218960   2.919   6.208   0.565  1.5155 -1.0945  1.0175
 4797SOL    HW318961   2.942   6.353   0.599 -2.1434  0.0719 -0.9390
 4797SOL    MW418962   2.960   6.283   0.550 -0.0544  0.6491  0.5165
 4798SOL     OW18963   4.827   3.226   3.724 -0.2389  0.1758  0.5614
 4798SOL    HW218964   4.748   3.186   3.689 -0.2782  0.2072  0.6123
 4798SOL    HW318965   4.830   3.196   3.815 -0.3482  0.4047  0.6423
 4798SOL    MW418966   4.817   3.217   3.731  0.0079  0.4952  0.1992
 4799SOL     OW18967   2.596   4.073   6.182 -0.4490 -0.5750  0.3973
 4799SOL    HW218968   2.581   4.006   6.249 -1.9080  0.1193  0.7969
 4799SOL    HW318969   2.603   4.155   6.230  1.9339 -0.4586 -0.0404
 4799SOL    MW418970   2.595   4.075   6.197  0.0396 -0.0466  0.4990
 4800SOL     OW18971   1.391   1.871   2.736  0.3040 -0.1599 -0.0162
 4800SOL    HW218972   1.439   1.906   2.661  0.6687  0.1478  0.3544
 4800SOL    HW318973   1.307   1.844   2.701 -0.7718  2.8443 -0.0002
 4800SOL    MW418974   1.386   1.872   2.722 -0.5381 -0.3314 -0.8335
 4801SOL     OW18975   2.575   1.549   3.558  0.2031  0.4347 -0.2077
 4801SOL    HW218976   2.552   1.502   3.638  1.7180  0.0997  0.0669
 4801SOL    HW318977   2.670   1.538   3.550  0.0621  0.1967 -2.2050
 4801SOL    MW418978   2.585   1.541   3.567 -0.2855 -0.2153  0.3971
 4802SOL     OW18979   4.440   1.385   3.138 -0.0357 -0.1078  0.0759
 4802SOL    HW218980   4.521   1.378   3.088  0.6249  1.0744  0.9427
 4802SOL    HW318981   4.442   1.473   3.175 -0.9977 -0.5848  1.3330
 4802SOL    MW418982   4.451   1.395   3.136 -0.3949 -0.6552  0.6498
 4803SOL     OW18983   3.427   3.273   3.423  0.1960 -0.3028 -0.7970
 4803SOL    HW218984   3.376   3.198   3.451  0.3154 -0.3401 -0.6789
 4803SOL    HW318985   3.385   3.348   3.464  0.6941 -0.4119 -0.0657
 4803SOL    MW418986   3.415   3.273   3.432  0.1388  0.1435 -0.3554
 4804SOL     OW18987   3.671   4.601   2.987 -0.1181 -0.1820  0.2835
 4804SOL    HW218988   3.679   4.670   3.053 -3.5818  0.0192  0.7196
 4804SOL    HW318989   3.662   4.520   3.038 -0.4271 -0.3499 -0.0329
 4804SOL    MW418990   3.671   4.599   3.003 -0.2519 -0.2703 -0.3530
 4805SOL     OW18991   1.805   0.622   2.148 -0.7434 -0.6990 -0.2246
 4805SOL    HW218992   1.812   0.718   2.152  0.0708 -0.7705  2.3270
 4805SOL    HW318993   1.872   0.595   2.086  0.3327  0.3360  0.4376
 4805SOL    MW418994   1.815   0.631   2.141 -0.7459  0.1315  0.5733
 4806SOL     OW18995   6.369   2.262   4.454  0.6511 -0.5965  0.1313
 4806SOL    HW218996   6.321   2.194   4.407  1.7923  0.2331 -2.4634
 4806SOL    HW318997   6.310   2.290   4.524 -1.7077 -1.1327 -1.5281
 4806SOL    MW418998   6.355   2.257   4.457  0.4061 -0.4980  0.2023
 4807SOL     OW18999   3.886   4.135   0.978 -0.2562  0.0476 -0.2032
 4807SOL    HW219000   3.831   4.103   1.049  0.5733 -2.2925 -0.5247
 4807SOL    HW319001   3.975   4.131   1.014  0.0389  0.3112 -0.8904
 4807SOL    MW419002   3.891   4.130   0.992  0.6758 -0.4224 -0.3541
 4808SOL     OW19003   6.322   0.358   2.890  0.3602  0.5854 -0.1199
 4808SOL    HW219004   6.334   0.340   2.797 -1.5655  2.4749 -0.8077
 4808SOL    HW319005   6.408   0.343   2.929  0.3369 -4.5152 -1.3398
 4808SOL    MW419006   6.335   0.353   2.883 -0.2837  0.5311  0.3145
 4809SOL     OW19007   6.029   6.293   0.072  0.0147  0.0494  0.5200
 4809SOL    HW219008   6.062   6.383   0.063 -0.4038  0.1974  0.4511
 4809SOL    HW319009   6.094   6.250   0.128  0.5888  0.1984 -0.0121
 4809SOL    MW419010   6.042   6.299   0.078  0.7844 -0.0868 -0.4922
 4810SOL     OW19011   3.413   1.131   1.819  0.2046  0.3506 -0.2473
 4810SOL    HW219012   3.486   1.152   1.760  0.0470 -1.0012 -0.9470
 4810SOL    HW319013   3.371   1.055   1.780 -1.4252  0.9199  0.3116
 4810SOL    MW419014   3.417   1.124   1.806  0.9310  0.2242 -0.2682
 4811SOL     OW19015   2.576   3.004   2.761  0.4896 -0.1987  0.0908
 4811SOL    HW219016   2.613   2.993   2.674  0.2271 -0.9794  0.0666
 4811SOL    HW319017   2.635   2.956   2.819  1.3733  1.3650  0.5456
 4811SOL    MW419018   2.588   2.996   2.757 -0.5357 -0.2511  0.4076
 4812SOL     OW19019   4.824   5.395   3.186  0.0698  0.1029 -0.1026
 4812SOL    HW219020   4.732   5.395   3.160  0.3838  1.4973 -1.3364
 4812SOL    HW319021   4.871   5.364   3.108  0.7712  1.1157 -0.0961
 4812SOL    MW419022   4.818   5.391   3.172 -0.0826 -0.5127 -0.0355
 4813SOL     OW19023   0.356   6.133   1.509  0.0858 -0.5016  0.4023
 4813SOL    HW219024   0.273   6.086   1.519 -0.3105  0.0950 -0.0004
 4813SOL    HW319025   0.339   6.197   1.439  0.5564  0.3509  1.0411
 4813SOL    MW419026   0.343   6.136   1.501  0.1919  0.3540 -0.2528
 4814SOL     OW19027   4.459   2.853   3.721  0.0683  0.5187  0.0953
 4814SOL    HW219028   4.410   2.805   3.654  0.9877  1.2659 -1.1726
 4814SOL    HW319029   4.400   2.856   3.797 -0.7453 -0.9328 -0.4341
 4814SOL    MW419030   4.445   2.847   3.722  0.5689  0.5601 -0.2812
 4815SOL     OW19031   5.755   0.415   4.415  0.0661  0.1193 -0.0509
 4815SOL    HW219032   5.669   0.392   4.379  0.2145 -1.0117  0.2770
 4815SOL    HW319033   5.817   0.387   4.348  0.1977  0.8325 -0.2380
 4815SOL    MW419034   5.752   0.408   4.402 -0.6105 -0.0650 -0.1826
 4816SOL     OW19035   4.406   3.403   3.369  0.6624  0.0076 -0.7989
 4816SOL    HW219036   4.335   3.369   3.314 -0.6499  1.3689 -0.0147
 4816SOL    HW319037   4.394   3.498   3.367  2.3949  0.2608 -0.5180
 4816SOL    MW419038   4.395   3.411   3.362 -0.0106  0.3548 -0.3469
 4817SOL     OW19039   1.566   2.757   1.695  0.1615  0.7749 -0.2237
 4817SOL    HW219040   1.629   2.723   1.632  0.0091 -0.6377  0.3289
 4817SOL    HW319041   1.601   2.842   1.722  0.9649  0.7431 -1.1268
 4817SOL    MW419042   1.579   2.764   1.690  0.1125  0.1883 -0.2407
 4818SOL     OW19043   3.703   4.938   5.546 -0.4138  0.2578 -0.3531
 4818SOL    HW219044   3.632   4.876   5.561  0.9189 -1.4190 -0.6890
 4818SOL    HW319045   3.709   4.987   5.628  0.6631 -2.3880  1.2933
 4818SOL    MW419046   3.695   4.936   5.559  0.1005 -0.1853  0.3161
 4819SOL     OW19047   3.411   3.914   1.049 -0.1973  0.6119  0.5377
 4819SOL    HW219048   3.469   3.852   1.094 -0.6223 -0.8127 -0.7904
 4819SOL    HW319049   3.346   3.859   1.005 -1.8502  2.0998  0.9670
 4819SOL    MW419050   3.410   3.898   1.049  0.0301  0.1334 -0.2658
 4820SOL     OW19051   6.188   1.426   3.040  0.3429  0.5000  0.1695
 4820SOL    HW219052   6.151   1.453   2.957  1.5444  1.1705 -0.1730
 4820SOL    HW319053   6.156   1.336   3.053 -1.4592  1.0699 -0.0216
 4820SOL    MW419054   6.179   1.417   3.031  0.0601 -0.1514 -0.1782
 4821SOL     OW19055   2.642   1.642   4.535 -0.5806 -0.2718  0.6080
 4821SOL    HW219056   2.625   1.666   4.444 -2.3722 -0.2333  0.9296
 4821SOL    HW319057   2.670   1.724   4.576 -2.0223  0.2383  0.6074
 4821SOL    MW419058   2.644   1.656   4.528  0.5905  0.0643  0.3257
 4822SOL     OW19059   4.841   3.497   4.442  0.3704 -0.3417  0.0824
 4822SOL    HW219060   4.923   3.487   4.490  0.8422  0.3678 -0.5629
 4822SOL    HW319061   4.862   3.473   4.352 -0.1751 -0.3351 -0.0526
 4822SOL    MW419062   4.855   3.493   4.437 -0.1431  0.2199 -0.0571
 4823SOL     OW19063   5.374   4.453   1.309  0.3560  0.4337 -0.1906
 4823SOL    HW219064   5.368   4.499   1.225 -0.5435 -0.2966 -0.5355
 4823SOL    HW319065   5.291   4.472   1.353  0.9370  1.0561  0.6842
 4823SOL    MW419066   5.362   4.462   1.304  0.0779 -0.1156  0.2244
 4824SOL     OW19067   5.451   3.362   5.249 -0.0792 -0.7067 -0.2673
 4824SOL    HW219068   5.494   3.447   5.245 -0.0503 -0.7390 -0.6995
 4824SOL    HW319069   5.386   3.370   5.319 -0.6849 -0.0468 -0.8865
 4824SOL    MW419070   5.448   3.374   5.258  0.5167 -0.1082 -0.0091
 4825SOL     OW19071   0.764   3.085   5.510 -0.4838 -0.0740  0.0477
 4825SOL    HW219072   0.709   3.016   5.548  1.8251 -2.2275 -0.2490
 4825SOL    HW319073   0.746   3.080   5.416 -0.2167 -0.4176  0.0098
 4825SOL    MW419074   0.754   3.075   5.502 -0.3506  0.9478  0.0874
 4826SOL     OW19075   5.652   5.846  -0.002  0.0389 -0.0260 -0.2359
 4826SOL    HW219076   5.710   5.905  -0.051 -0.6197  2.7235  2.0098
 4826SOL    HW319077   5.711   5.778   0.032  0.8065 -0.9078 -3.0181
 4826SOL    MW419078   5.668   5.845  -0.004 -0.8460  0.1629 -0.4231
 4827SOL     OW19079   4.449   4.557   5.247  0.2528 -0.3690 -0.3225
 4827SOL    HW219080   4.538   4.526   5.261  0.8824  1.2641 -0.4649
 4827SOL    HW319081   4.433   4.544   5.154  0.8075  0.4246 -0.5393
 4827SOL    MW419082   4.459   4.551   5.237 -0.6031  0.2720  0.1352
 4828SOL     OW19083   0.060   5.390   5.938 -0.9532 -0.2091 -0.4857
 4828SOL    HW219084   0.010   5.462   5.977 -1.5055 -0.2423 -1.1238
 4828SOL    HW319085   0.149   5.403   5.970 -0.7167  1.6190 -1.7221
 4828SOL    MW419086   0.065   5.402   5.947 -0.6245  0.5213  0.4495
 4829SOL     OW19087   4.269   4.354   0.054 -0.3094 -0.5943  0.3828
 4829SOL    HW219088   4.255   4.448   0.064  1.5434 -0.1111 -0.9872
 4829SOL    HW319089   4.260   4.319   0.142 -2.5242  0.5904  0.7235
 4829SOL    MW419090   4.266   4.362   0.067 -0.0632  0.5129 -0.2885
 4830SOL     OW19091   1.500   1.824   2.011  0.0899 -0.1804  0.4142
 4830SOL    HW219092   1.528   1.904   1.967  1.5630  0.0773  1.7491
 4830SOL    HW319093   1.573   1.763   2.001 -1.1671 -1.5615 -0.9498
 4830SOL    MW419094   1.513   1.826   2.004  0.2632 -0.3226 -0.4193
 4831SOL     OW19095   3.658   4.705   4.447  0.2517  0.5566  0.4868
 4831SOL    HW219096   3.738   4.752   4.424 -0.0156  1.9215  2.1478
 4831SOL    HW319097   3.688   4.621   4.480  0.7161 -0.8054 -2.9562
 4831SOL    MW419098   3.672   4.700   4.448  0.2748 -0.3180  0.2427
 4832SOL     OW19099   1.875   2.010   2.782  0.0736  0.5622  0.0046
 4832SOL    HW219100   1.797   1.959   2.806 -1.2015  1.5491 -1.7766
 4832SOL    HW319101   1.929   1.949   2.732  0.1207  0.0744  0.6352
 4832SOL    MW419102   1.871   1.995   2.778 -0.4240 -0.3366  0.0364
 4833SOL     OW19103   0.827   4.561   2.456  0.5432 -0.4791  0.5574
 4833SOL    HW219104   0.796   4.647   2.428  0.3581 -1.2426 -1.8891
 4833SOL    HW319105   0.922   4.569   2.458  0.5282 -0.2092  0.2945
 4833SOL    MW419106   0.835   4.574   2.452  0.2620  0.2924 -0.2519
 4834SOL     OW19107   6.362   2.986   5.205  0.6355 -0.2326  0.8024
 4834SOL    HW219108   6.399   3.060   5.158 -2.0179  0.7341  0.0463
 4834SOL    HW319109   6.346   2.919   5.138 -1.0960  0.2941  0.6356
 4834SOL    MW419110   6.364   2.987   5.190  0.1778  0.6913  0.0698
 4835SOL     OW19111   1.858   0.240   2.773 -0.5336 -0.8188 -0.0299
 4835SOL    HW219112   1.786   0.219   2.833  0.2595  1.4900  1.8967
 4835SOL    HW319113   1.840   0.329   2.744  2.0953  0.3271  1.5082
 4835SOL    MW419114   1.846   0.249   2.777 -0.7001 -0.2179  0.1832
 4836SOL     OW19115   3.383   1.468   0.717 -0.1380  0.4485  0.6480
 4836SOL    HW219116   3.372   1.389   0.770 -2.6095  1.3140  1.5571
 4836SOL    HW319117   3.438   1.440   0.643 -0.3667 -1.9258  1.3109
 4836SOL    MW419118   3.389   1.454   0.714  0.0862  0.0086  0.0951
 4837SOL     OW19119   2.761   0.529   5.841 -0.3081 -0.2553 -0.5032
 4837SOL    HW219120   2.717   0.471   5.903 -0.3776 -1.3088 -1.5128
 4837SOL    HW319121   2.693   0.553   5.778 -0.2440  0.8322 -0.1813
 4837SOL    MW419122   2.746   0.524   5.841  0.1435 -0.7952  0.1052
 4838SOL     OW19123   1.775   0.771   3.076  0.4341 -0.3422  0.5500
 4838SOL    HW219124   1.859   0.818   3.072  1.0867 -1.0393  3.6310
 4838SOL    HW319125   1.797   0.685   3.111 -1.2364 -1.6786 -1.4607
 4838SOL    MW419126   1.789   0.766   3.080 -0.3150  0.3673 -0.8712
 4839SOL     OW19127   2.507   3.370   2.596  0.2139  0.8323  0.1519
 4839SOL    HW219128   2.602   3.374   2.606  0.2081 -0.4761  0.9385
 4839SOL    HW319129   2.477   3.318   2.670 -1.0417  0.5396 -0.5378
 4839SOL    MW419130   2.516   3.364   2.607 -1.1176  0.4826  0.1806
 4840SOL     OW19131   6.381   1.515   4.311 -0.0030  0.2066 -0.1925
 4840SOL    HW219132   6.397   1.604   4.344  0.6361  0.5461 -1.3439
 4840SOL    HW319133   6.289   1.517   4.283 -0.9151 -0.4240  2.4584
 4840SOL    MW419134   6.371   1.527   4.312 -0.2558 -0.0720 -0.0059
 4841SOL     OW19135   4.845   0.290   5.554  0.3019  0.2542  0.5401
 4841SOL    HW219136   4.818   0.208   5.595  0.3671  0.0907  0.2602
 4841SOL    HW319137   4.922   0.266   5.502 -0.6104  0.1524 -0.8130
 4841SOL    MW419138   4.851   0.276   5.553 -0.0468  0.0792  0.1601
 4842SOL     OW19139   2.866   1.602   2.651 -0.1958 -0.1528 -0.2697
 4842SOL    HW219140   2.821   1.551   2.582 -1.0367 -0.7050  0.6566
 4842SOL    HW319141   2.871   1.542   2.725 -0.6420  0.9222  0.6489
 4842SOL    MW419142   2.861   1.587   2.651  0.5571  0.5108  0.0950
 4843SOL     OW19143   0.770   0.952   1.317 -0.3511  0.1208 -0.6182
 4843SOL    HW219144   0.808   0.952   1.405 -0.2174 -0.8346 -0.6650
 4843SOL    HW319145   0.713   0.875   1.315  1.4333 -1.2593 -2.0859
 4843SOL    MW419146   0.768   0.942   1.328  0.0988 -0.1045 -0.1473
 4844SOL     OW19147   4.408   0.843   6.137  0.1491 -0.4964 -0.1623
 4844SOL    HW219148   4.410   0.815   6.046 -1.0179  1.5558 -0.8839
 4844SOL    HW319149   4.327   0.808   6.172  0.4015 -0.9440 -0.0166
 4844SOL    MW419150   4.398   0.835   6.130  0.1061 -0.0326  0.1093
 4845SOL     OW19151   2.702   4.155   1.202  0.2770 -0.0050  0.4683
 4845SOL    HW219152   2.771   4.156   1.136 -0.3020  0.2229 -0.1497
 4845SOL    HW319153   2.747   4.171   1.285  0.7230  2.4944 -0.1740
 4845SOL    MW419154   2.717   4.157   1.204 -0.0461 -0.1508  0.2836
 4846SOL     OW19155   2.593   3.149   4.013  0.0801 -0.4132 -0.1096
 4846SOL    HW219156   2.546   3.081   3.964  0.2373 -0.2027 -0.5661
 4846SOL    HW319157   2.577   3.129   4.105  0.6197 -1.4213 -0.2222
 4846SOL    MW419158   2.585   3.137   4.018  0.1416 -0.6235 -0.0413
 4847SOL     OW19159   4.258   0.020   4.505 -0.0229  0.3490  0.0584
 4847SOL    HW219160   4.215  -0.017   4.582  2.2492 -1.1641  0.7316
 4847SOL    HW319161   4.288   0.107   4.534  0.7680 -0.1839  0.9308
 4847SOL    MW419162   4.256   0.027   4.519 -0.0830  0.0203  0.3025
 4848SOL     OW19163   1.149   3.477   1.218  0.0921 -0.2402  0.3425
 4848SOL    HW219164   1.244   3.465   1.213  0.0737 -0.1979 -0.1984
 4848SOL    HW319165   1.129   3.470   1.311  0.3690 -2.2820  0.3056
 4848SOL    MW419166   1.159   3.474   1.230  0.0958  0.1581  0.0821
 4849SOL     OW19167   2.884   0.739   6.044 -0.2284  0.3116  0.6041
 4849SOL    HW219168   2.952   0.806   6.050 -0.2965  0.4388 -0.0389
 4849SOL    HW319169   2.915   0.679   5.976 -0.5814  0.1596  0.5735
 4849SOL    MW419170   2.897   0.740   6.036 -0.5997  0.2228  0.7729
 4850SOL     OW19171   0.643   3.088   0.696 -0.2392  0.6528 -0.2698
 4850SOL    HW219172   0.615   3.013   0.748 -0.9322  1.9632  1.3154
 4850SOL    HW319173   0.617   3.065   0.606 -0.5167 -0.9451  0.1870
 4850SOL    MW419174   0.636   3.075   0.691  0.0637 -0.4815  0.1507
 4851SOL     OW19175   3.964   2.958   3.262  0.0330 -0.3266  0.0756
 4851SOL    HW219176   3.894   2.899   3.289 -0.1990  0.6054  1.6126
 4851SOL    HW319177   4.040   2.931   3.313 -0.0547  0.6201  0.7380
 4851SOL    MW419178   3.965   2.947   3.272  0.1285  0.7921 -0.1612
 4852SOL     OW19179   1.154   0.530   1.086  0.0755 -0.4864  0.6111
 4852SOL    HW219180   1.161   0.442   1.050  0.1816 -0.4892  0.6401
 4852SOL    HW319181   1.071   0.564   1.051 -0.6804 -1.1208  1.7002
 4852SOL    MW419182   1.144   0.523   1.077 -0.3379  0.1884  0.2826
 4853SOL     OW19183   6.042   2.974   5.795 -0.4061 -0.7281 -0.0447
 4853SOL    HW219184   6.117   3.031   5.814  1.7398 -2.9000 -1.3455
 4853SOL    HW319185   6.008   3.006   5.712 -0.6508 -0.0217  0.3174
 4853SOL    MW419186   6.048   2.986   5.787  0.1267 -0.0795  0.3563
 4854SOL     OW19187   1.308   4.874   2.412  0.0256  0.0422 -0.1718
 4854SOL    HW219188   1.381   4.817   2.437 -0.5257 -1.5744 -2.0027
 4854SOL    HW319189   1.313   4.948   2.473  1.8160 -1.1188  1.1822
 4854SOL    MW419190   1.318   4.876   2.424  0.3510  0.6069  0.0660
 4855SOL     OW19191   2.793   6.359   1.267 -0.1036  0.6913  0.0898
 4855SOL    HW219192   2.846   6.280   1.273 -0.0245  0.5898 -1.5351
 4855SOL    HW319193   2.856   6.429   1.250 -0.2181  1.0557  1.0853
 4855SOL    MW419194   2.809   6.358   1.266 -0.7951 -0.4890  1.0211
 4856SOL     OW19195   2.591   4.635   2.950  0.1054 -0.2348 -0.3806
 4856SOL    HW219196   2.655   4.677   3.009  0.4715  1.0566 -1.6185
 4856SOL    HW319197   2.638   4.561   2.913  1.1831  1.0331 -1.7185
 4856SOL    MW419198   2.606   4.631   2.953  1.3784  0.3044  0.2529
 4857SOL     OW19199   4.085   3.539   3.931 -0.4126  0.2932  0.1461
 4857SOL    HW219200   4.140   3.545   4.009 -0.4623 -0.6533  0.2662
 4857SOL    HW319201   4.113   3.611   3.876  0.5792  0.1498  0.4452
 4857SOL    MW419202   4.096   3.549   3.934 -0.2565 -0.5216 -0.1872
 4858SOL     OW19203   4.593   1.374   5.654 -0.1443  0.0811  0.1515
 4858SOL    HW219204   4.583   1.400   5.563 -0.0138  0.3878  0.2238
 4858SOL    HW319205   4.533   1.430   5.703 -0.6118 -0.4478  0.1981
 4858SOL    MW419206   4.584   1.385   5.649  0.2518 -0.2063  0.0808
 4859SOL     OW19207   5.259   0.638   5.366 -0.5532 -0.2960  0.4498
 4859SOL    HW219208   5.347   0.636   5.329 -0.8283 -1.0309 -0.2171
 4859SOL    HW319209   5.255   0.720   5.415 -0.0456  0.5507 -0.8580
 4859SOL    MW419210   5.270   0.648   5.368  0.4316  0.2365 -0.2170
 4860SOL     OW19211   3.155   4.778   1.952 -0.6209  0.4088 -0.2156
 4860SOL    HW219212   3.173   4.872   1.951 -1.1828  0.5370  0.9706
 4860SOL    HW319213   3.168   4.751   1.861 -0.7625  1.6849 -0.6372
 4860SOL    MW419214   3.159   4.787   1.940  0.5131  0.0128  0.0041
 4861SOL     OW19215   4.146   2.421   2.031  1.1535 -0.3480  0.0027
 4861SOL    HW219216   4.114   2.386   2.114  0.0586  0.1983 -0.1773
 4861SOL    HW319217   4.119   2.357   1.965 -0.4329  0.5382 -0.2650
 4861SOL    MW419218   4.138   2.408   2.033 -0.0679  0.3243  0.9205
 4862SOL     OW19219   0.631   3.224   1.538  0.2525  0.3698  0.0831
 4862SOL    HW219220   0.705   3.203   1.595  0.8782 -2.8693 -1.7323
 4862SOL    HW319221   0.669   3.276   1.467  0.2031  1.1100  0.5869
 4862SOL    MW419222   0.646   3.228   1.536 -0.2595 -0.3433  0.2704
 4863SOL     OW19223   5.685   1.885   2.870  0.7185 -0.4347  0.1810
 4863SOL    HW219224   5.630   1.934   2.809  0.0347  0.3905  1.4375
 4863SOL    HW319225   5.635   1.805   2.888 -0.1781  0.3933  1.4564
 4863SOL    MW419226   5.672   1.881   2.864 -0.0372  0.6812 -0.2111
 4864SOL     OW19227   3.658   3.142   6.007  1.2875  0.3044  0.0851
 4864SOL    HW219228   3.604   3.168   5.933  0.7305  0.5544  0.5670
 4864SOL    HW319229   3.596   3.132   6.079  1.8506  0.2943  0.5768
 4864SOL    MW419230   3.643   3.144   6.007 -0.3409  0.5263  0.1814
 4865SOL     OW19231   4.845   0.421   2.792  0.8410  0.2303 -0.6060
 4865SOL    HW219232   4.825   0.407   2.884  0.1293  0.6558 -0.6919
 4865SOL    HW319233   4.802   0.349   2.746 -0.9555  1.3893 -0.8343
 4865SOL    MW419234   4.837   0.409   2.798  0.2384 -0.1501  0.1435
 4866SOL     OW19235   5.248   0.091   2.398  0.0221  0.3844 -0.1776
 4866SOL    HW219236   5.160   0.058   2.382  0.3046 -0.4041 -0.1582
 4866SOL    HW319237   5.241   0.139   2.481 -0.0748 -0.9831  0.6339
 4866SOL    MW419238   5.235   0.093   2.407  0.0518 -0.1339  0.1508
 4867SOL     OW19239   0.270   4.843   4.531  0.1684  0.3589  0.4080
 4867SOL    HW219240   0.181   4.863   4.501  0.0475  0.4762  0.8413
 4867SOL    HW319241   0.276   4.883   4.618  0.9089  1.0455  0.0560
 4867SOL    MW419242   0.259   4.851   4.539 -0.2524  0.6455  0.3983
 4868SOL     OW19243   3.839   6.176   2.228 -0.1982 -0.2910 -0.1008
 4868SOL    HW219244   3.767   6.113   2.225 -1.6636  1.0769  2.7304
 4868SOL    HW319245   3.907   6.131   2.279 -1.2940  0.3097  2.0383
 4868SOL    MW419246   3.839   6.162   2.235  0.0139  0.2085  0.5016
 4869SOL     OW19247   0.775   4.757   0.194 -0.6434  0.1489  0.8717
 4869SOL    HW219248   0.762   4.833   0.137 -0.0903  1.2775  2.1911
 4869SOL    HW319249   0.770   4.792   0.283  0.1297 -1.2727  1.5184
 4869SOL    MW419250   0.773   4.772   0.198  0.0299  0.3643  0.5661
 4870SOL     OW19251   2.202   0.064   6.343 -0.4149 -0.7234 -0.0405
 4870SOL    HW219252   2.132   0.102   6.290 -0.3549  0.8681  0.9608
 4870SOL    HW319253   2.283   0.093   6.302 -0.3671  0.6043  0.9166
 4870SOL    MW419254   2.203   0.073   6.331 -0.0733 -0.2191 -0.0697
 4871SOL     OW19255   3.300   4.024   4.894 -0.0494  0.8403 -1.0706
 4871SOL    HW219256   3.295   3.988   4.982 -3.7551  0.9661 -1.0560
 4871SOL    HW319257   3.331   3.952   4.839  1.9133  0.6533  0.2103
 4871SOL    MW419258   3.303   4.010   4.898  0.3050  0.3786 -0.1606
 4872SOL     OW19259   0.663   4.897   5.862 -0.1769  0.6759  0.5798
 4872SOL    HW219260   0.705   4.811   5.870 -1.0879  0.2168  0.5469
 4872SOL    HW319261   0.672   4.919   5.770 -0.5952  0.2672  0.4359
 4872SOL    MW419262   0.669   4.888   5.851  0.2255 -0.6276 -0.4895
 4873SOL     OW19263   3.984   0.555   0.748 -0.6913 -0.5630 -0.4507
 4873SOL    HW219264   4.056   0.587   0.693 -0.4893 -1.2350 -0.5852
 4873SOL    HW319265   4.019   0.559   0.837 -1.2827  1.2600 -0.2516
 4873SOL    MW419266   3.998   0.560   0.753  0.7893  0.3929 -0.8639
 4874SOL     OW19267   5.501   0.591   3.871 -0.1745 -0.0398  0.2523
 4874SOL    HW219268   5.446   0.599   3.793  0.5194 -1.0859 -0.3767
 4874SOL    HW319269   5.537   0.678   3.885 -0.2665  0.1438 -0.6357
 4874SOL    MW419270   5.498   0.603   3.863  0.1182 -0.4409  0.0239
 4875SOL     OW19271   1.298   3.683   5.658  0.2034 -0.1994  0.3565
 4875SOL    HW219272   1.216   3.641   5.683  0.5894 -0.8997  0.4797
 4875SOL    HW319273   1.323   3.640   5.577  0.4248  0.0444  0.2952
 4875SOL    MW419274   1.290   3.671   5.651  0.5565  0.3270  0.0359
 4876SOL     OW19275   0.966   5.397   4.961 -0.0521  0.3489  0.0672
 4876SOL    HW219276   1.048   5.408   4.914  0.0441 -0.0140  0.1491
 4876SOL    HW319277   0.901   5.442   4.906  0.3157  1.2610  0.3700
 4876SOL    MW419278   0.968   5.405   4.947 -0.0319  0.1357 -0.4449
 4877SOL     OW19279   0.631   0.719   5.190  0.0949  0.1123 -0.1560
 4877SOL    HW219280   0.664   0.805   5.167 -1.4037  0.9862  0.7676
 4877SOL    HW319281   0.664   0.661   5.122  3.5455  0.8314  0.7256
 4877SOL    MW419282   0.640   0.722   5.178  0.6521  0.1309 -0.0961
 4878SOL     OW19283   1.761   4.668   2.099  0.4186  0.5448  0.0347
 4878SOL    HW219284   1.819   4.637   2.029  0.4058 -0.4589  0.4401
 4878SOL    HW319285   1.679   4.688   2.055  0.3926 -0.1333 -0.2501
 4878SOL    MW419286   1.758   4.666   2.084 -0.3118  0.3798 -0.3339
 4879SOL     OW19287   4.290   0.591  -0.003  0.6377 -0.1698  0.0799
 4879SOL    HW219288   4.228   0.662   0.014  0.5001 -0.5904  1.4304
 4879SOL    HW319289   4.291   0.583  -0.098  0.4400  1.4476 -0.0995
 4879SOL    MW419290   4.282   0.599  -0.013  0.3406  0.5941  0.0184
 4880SOL     OW19291   5.930   5.748   6.074  0.2192  0.3164  0.5207
 4880SOL    HW219292   5.878   5.796   6.139  0.1828  0.4350  0.4063
 4880SOL    HW319293   5.899   5.658   6.080 -1.5985  0.7659 -1.0819
 4880SOL    MW419294   5.919   5.743   6.084  0.1549  0.5495  0.2976
 4881SOL     OW19295   3.569   0.408   5.775  0.1905  0.0645  0.3170
 4881SOL    HW219296   3.503   0.342   5.751  1.9099 -1.7392  0.3086
 4881SOL    HW319297   3.538   0.443   5.858 -1.1080 -0.2469 -0.0074
 4881SOL    MW419298   3.556   0.404   5.782  0.6881  0.9425 -0.2131
 4882SOL     OW19299   1.100   4.140   4.517  0.1894 -0.2767  0.5279
 4882SOL    HW219300   1.128   4.100   4.599 -0.4648 -0.0671  0.8624
 4882SOL    HW319301   1.169   4.119   4.455  0.2718 -1.1902  0.9159
 4882SOL    MW419302   1.113   4.132   4.519 -0.0205 -0.2449  0.2420
 4883SOL     OW19303   5.892   2.783   2.194  0.0805  0.4583  0.7223
 4883SOL    HW219304   5.875   2.867   2.238 -1.0545  0.9656 -0.5897
 4883SOL    HW319305   5.840   2.788   2.114 -1.0312 -2.0164  1.1858
 4883SOL    MW419306   5.883   2.795   2.189  0.2336  0.0139 -0.2455
 4884SOL     OW19307   3.161   1.695   2.816  0.0085  0.0695 -0.4403
 4884SOL    HW219308   3.121   1.623   2.865 -1.1933  0.7632 -0.3642
 4884SOL    HW319309   3.101   1.711   2.743  0.6796  0.4622 -0.9133
 4884SOL    MW419310   3.148   1.688   2.813 -0.0168  0.4748  0.7623
 4885SOL     OW19311   3.007   0.420   3.197  0.3732  0.1197  0.7011
 4885SOL    HW219312   3.049   0.334   3.195  0.0510 -0.0894  1.8504
 4885SOL    HW319313   3.045   0.467   3.124  0.5629 -1.0008  0.0514
 4885SOL    MW419314   3.018   0.415   3.187 -0.1954  0.5129 -0.6682
 4886SOL     OW19315   4.672   1.262   1.777 -0.1596 -0.1299  0.5440
 4886SOL    HW219316   4.767   1.254   1.785 -0.3173 -2.9240  0.6019
 4886SOL    HW319317   4.651   1.217   1.695 -1.5762 -1.1413  1.4183
 4886SOL    MW419318   4.682   1.255   1.767  0.2012 -0.8126  0.2980
 4887SOL     OW19319   3.169   3.518   0.374  0.8120 -0.1465  0.5363
 4887SOL    HW219320   3.175   3.596   0.318 -0.1460 -0.4435 -0.0032
 4887SOL    HW319321   3.175   3.444   0.314  0.5431 -0.4792  0.9079
 4887SOL    MW419322   3.171   3.519   0.359  0.6240 -0.0139  0.0488
 4888SOL     OW19323   2.997   5.651   2.663 -0.0060 -0.6368 -0.5225
 4888SOL    HW219324   2.912   5.682   2.695  0.4646  0.4587 -0.2805
 4888SOL    HW319325   3.003   5.685   2.574  0.5594  0.0659 -0.2225
 4888SOL    MW419326   2.986   5.660   2.655 -0.4059 -0.1429 -0.1734
 4889SOL     OW19327   1.295   2.958   4.442 -0.0916  0.9366 -0.2559
 4889SOL    HW219328   1.361   2.954   4.373  0.9033  1.9985  0.5780
 4889SOL    HW319329   1.212   2.965   4.396  0.0587 -2.6818 -1.4018
 4889SOL    MW419330   1.293   2.958   4.427  0.2022  0.0345 -0.0377
 4890SOL     OW19331   5.389   0.796   6.389 -0.4989 -0.0054 -0.1030
 4890SOL    HW219332   5.364   0.888   6.379 -0.1566  0.1185  0.1748
 4890SOL    HW319333   5.350   0.752   6.312 -1.1331  0.2702  0.0524
 4890SOL    MW419334   5.380   0.802   6.377  0.0811 -0.1538  0.4971
 4891SOL     OW19335   5.165   1.820   4.153 -0.1370  0.0646 -0.2123
 4891SOL    HW219336   5.188   1.806   4.245  0.4045  1.2403 -0.1434
 4891SOL    HW319337   5.226   1.888   4.124 -1.1283  0.6010 -1.0885
 4891SOL    MW419338   5.176   1.827   4.161  0.1892  0.0127  0.4592
 4892SOL     OW19339   4.696   5.035   0.447 -0.3029  0.7466 -0.3483
 4892SOL    HW219340   4.752   5.020   0.371 -0.5123 -0.7882 -0.2353
 4892SOL    HW319341   4.610   5.002   0.420 -0.1433 -0.7839  0.8646
 4892SOL    MW419342   4.692   5.029   0.434  0.1065  0.4714  0.3718
 4893SOL     OW19343   4.369   1.202   0.891 -0.6259 -0.7297 -0.6192
 4893SOL    HW219344   4.396   1.210   0.799 -0.5367 -0.1188 -0.5466
 4893SOL    HW319345   4.311   1.277   0.905 -1.6302 -1.5159 -0.5122
 4893SOL    MW419346   4.365   1.213   0.881  0.7537 -0.8991  0.3143
 4894SOL     OW19347   2.813   5.564   2.282  0.3544  0.1592 -0.8634
 4894SOL    HW219348   2.900   5.601   2.295  0.2126  0.8404 -1.8198
 4894SOL    HW319349   2.829   5.480   2.239  0.6401 -0.7017  0.8168
 4894SOL    MW419350   2.827   5.558   2.278  0.4007 -0.8898  0.1919
 4895SOL     OW19351   0.130   4.978   3.475  1.0957  0.6091  0.4907
 4895SOL    HW219352   0.134   4.887   3.504 -0.2684  0.7589  1.2464
 4895SOL    HW319353   0.132   4.973   3.379  0.0113 -0.3090  0.4991
 4895SOL    MW419354   0.131   4.966   3.466 -0.1116 -0.7320 -0.1179
 4896SOL     OW19355   5.379   1.459   5.757  0.1670 -0.0605 -0.3041
 4896SOL    HW219356   5.290   1.425   5.747 -0.4203  1.5948 -1.2481
 4896SOL    HW319357   5.432   1.383   5.777 -1.3959 -1.1643 -0.1530
 4896SOL    MW419358   5.374   1.445   5.758  0.1326 -0.0370 -0.8997
 4897SOL     OW19359   3.571   5.223   3.355  0.2208 -0.0373 -0.2262
 4897SOL    HW219360   3.604   5.136   3.332  0.0727 -0.2577  0.3745
 4897SOL    HW319361   3.488   5.206   3.399  0.2733  0.4000  0.0481
 4897SOL    MW419362   3.564   5.209   3.357  0.3253  0.7925  0.2051
 4898SOL     OW19363   2.758   2.466   3.780 -0.0468  0.0208  0.2655
 4898SOL    HW219364   2.742   2.452   3.687 -0.5257 -0.9712  0.4871
 4898SOL    HW319365   2.671   2.458   3.821  0.0737  0.9687  0.7445
 4898SOL    MW419366   2.744   2.463   3.774 -0.3278 -0.2362  0.5095
 4899SOL     OW19367   0.813   4.030   1.712  0.5579  0.2574 -0.3990
 4899SOL    HW219368   0.868   3.952   1.715 -1.1985 -1.0187  1.3030
 4899SOL    HW319369   0.871   4.103   1.735  1.7555 -0.8679  0.2317
 4899SOL    MW419370   0.828   4.029   1.715 -0.3107  0.3423  0.0123
 4900SOL     OW19371   4.242   5.961   3.527  0.4627 -0.4714  0.6755
 4900SOL    HW219372   4.230   5.944   3.621  2.1450  2.2702  1.4966
 4900SOL    HW319373   4.222   6.054   3.516  0.4011 -0.6966 -1.7078
 4900SOL    MW419374   4.238   5.971   3.538  0.2067  0.3069  0.4387
 4901SOL     OW19375   3.248   4.756   4.116 -0.3242  0.3386 -0.4827
 4901SOL    HW219376   3.340   4.783   4.121  0.3274 -1.9733  1.5221
 4901SOL    HW319377   3.245   4.695   4.043  0.6647 -2.4333  1.6238
 4901SOL    MW419378   3.260   4.752   4.107 -0.0138  0.2638  0.0023
 4902SOL     OW19379   5.011   1.408   4.097  0.0364  0.6114 -0.3840
 4902SOL    HW219380   4.929   1.411   4.048 -0.4099 -1.0690  0.2005
 4902SOL    HW319381   5.062   1.481   4.062 -0.0197 -0.7542 -3.7370
 4902SOL    MW419382   5.007   1.418   4.086 -0.5483  0.3036  0.2302
 4903SOL     OW19383   3.919   1.498   4.687  0.1729 -0.1621 -0.2218
 4903SOL    HW219384   3.904   1.428   4.750 -0.3533 -0.9662 -1.2164
 4903SOL    HW319385   3.835   1.545   4.683  0.8574  1.3044  1.3209
 4903SOL    MW419386   3.906   1.495   4.695  0.4556  0.3787  0.0797
 4904SOL     OW19387   0.983   4.604   4.188 -0.2885  0.1470  0.8092
 4904SOL    HW219388   0.901   4.645   4.161 -0.2422  0.8111  1.6182
 4904SOL    HW319389   1.038   4.606   4.110 -1.5110 -1.6088 -0.1602
 4904SOL    MW419390   0.980   4.610   4.174  0.7889  0.0189  0.0900
 4905SOL     OW19391   0.569   1.085   5.583 -0.3154  0.1299 -0.0225
 4905SOL    HW219392   0.573   0.998   5.621 -1.8635  0.8069  1.9130
 4905SOL    HW319393   0.608   1.076   5.497  0.9085 -2.1269  0.6932
 4905SOL    MW419394   0.574   1.073   5.577 -0.3811 -0.7320 -0.2108
 4906SOL     OW19395   1.750   2.526   6.219 -0.4069 -0.1491 -0.5131
 4906SOL    HW219396   1.792   2.512   6.304  0.8808  0.8695 -0.9512
 4906SOL    HW319397   1.741   2.438   6.182  1.6826 -0.3854 -0.5478
 4906SOL    MW419398   1.754   2.512   6.226 -0.6369 -0.0518  0.5408
 4907SOL     OW19399   4.364   1.657   1.600  0.4011 -0.4303 -0.0556
 4907SOL    HW219400   4.374   1.741   1.646 -1.5086  1.4765 -2.7768
 4907SOL    HW319401   4.452   1.620   1.599  1.1040  0.9321  2.2336
 4907SOL    MW419402   4.377   1.663   1.606 -0.2937  0.3581 -0.9222
 4908SOL     OW19403   5.855   2.402   5.648  0.2203  0.7049  0.3516
 4908SOL    HW219404   5.814   2.476   5.603  0.2793  0.4938 -0.0546
 4908SOL    HW319405   5.946   2.429   5.661  0.1939  0.7821  0.3730
 4908SOL    MW419406   5.862   2.415   5.643 -0.4514  0.5860  0.4444
 4909SOL     OW19407   1.566   1.011   3.639  0.0658 -0.3978 -0.0075
 4909SOL    HW219408   1.622   0.980   3.711 -1.0360  0.6428  1.3673
 4909SOL    HW319409   1.540   0.931   3.592  0.5226 -1.1490  0.9819
 4909SOL    MW419410   1.570   0.996   3.642  0.0186 -0.1145 -0.3599
 4910SOL     OW19411   3.121   3.891   0.873  0.3754 -0.1762 -0.4140
 4910SOL    HW219412   3.107   3.904   0.967  0.5149  0.8700 -0.5222
 4910SOL    HW319413   3.174   3.967   0.847  1.2810 -1.0351 -1.1265
 4910SOL    MW419414   3.126   3.903   0.882 -0.7060 -0.2553 -0.0489
 4911SOL     OW19415   5.120   2.531   0.244 -0.1179 -0.2933  0.2463
 4911SOL    HW219416   5.189   2.529   0.178  0.2679  0.2229  0.6328
 4911SOL    HW319417   5.114   2.441   0.275  1.5838 -0.0169  1.4466
 4911SOL    MW419418   5.128   2.519   0.239  0.2254  0.0887 -0.0285
 4912SOL     OW19419   0.725   6.075   3.566 -0.0457 -0.3916  0.1585
 4912SOL    HW219420   0.767   6.138   3.507  0.0391 -1.0338 -0.4855
 4912SOL    HW319421   0.632   6.079   3.542  0.1110 -1.2752 -0.6207
 4912SOL    MW419422   0.718   6.084   3.555  0.2788 -0.0920  0.4385
 4913SOL     OW19423   6.370   5.385   3.798  0.7628  0.4295  0.2562
 4913SOL    HW219424   6.377   5.357   3.707  2.5828  1.8203 -0.0876
 4913SOL    HW319425   6.276   5.389   3.815  0.4054 -2.2035 -0.7508
 4913SOL    MW419426   6.358   5.382   3.788 -0.1872  0.1044 -0.1564
 4914SOL     OW19427   2.283   5.861   6.083  0.5846  0.4278 -0.3758
 4914SOL    HW219428   2.346   5.871   6.012 -0.6559  0.7549 -1.4492
 4914SOL    HW319429   2.202   5.833   6.041  0.0998 -0.3885  1.0251
 4914SOL    MW419430   2.281   5.859   6.068  0.4154  0.2563  0.0849
 4915SOL     OW19431   5.976   6.353   3.277  0.3556  1.0394  0.1305
 4915SOL    HW219432   5.957   6.404   3.198 -0.4211  2.1214  0.9773
 4915SOL    HW319433   5.891   6.343   3.320  0.4692 -1.0796 -0.0329
 4915SOL    MW419434   5.962   6.359   3.272 -0.0294 -0.0279 -0.2248
 4916SOL     OW19435   0.481   0.390   3.854 -0.5616  0.0853  0.3765
 4916SOL    HW219436   0.515   0.302   3.872 -1.5158 -0.1777  0.9638
 4916SOL    HW319437   0.522   0.446   3.919 -1.2957 -0.2462  1.1383
 4916SOL    MW419438   0.491   0.386   3.865  0.1763 -0.4020 -0.0925
 4917SOL     OW19439   2.733   0.941   2.608  0.3216  0.5413 -0.0443
 4917SOL    HW219440   2.779   0.977   2.684  0.3161  1.6502 -0.5457
 4917SOL    HW319441   2.716   1.017   2.552  0.2155 -0.2356 -1.1015
 4917SOL    MW419442   2.737   0.956   2.611 -0.3243 -0.2499  0.7488
 4918SOL     OW19443   5.715   4.667   3.814 -0.3436  0.3155  0.6832
 4918SOL    HW219444   5.787   4.730   3.822 -1.3050  1.3104  2.0463
 4918SOL    HW319445   5.756   4.581   3.826  1.0002  0.6346 -1.2043
 4918SOL    MW419446   5.730   4.664   3.817  0.1441  0.4482  0.2430
 4919SOL     OW19447   0.674   4.435   3.109  0.0879  0.1380 -1.1852
 4919SOL    HW219448   0.581   4.414   3.093 -0.2019  0.6236 -0.2196
 4919SOL    HW319449   0.674   4.528   3.131  0.9049  0.3055 -1.8390
 4919SOL    MW419450   0.661   4.444   3.110  0.2626 -0.0059 -0.0494
 4920SOL     OW19451   3.845   1.692   1.262 -0.2388  0.4568  0.3253
 4920SOL    HW219452   3.761   1.715   1.221 -1.5668 -2.0925  1.3755
 4920SOL    HW319453   3.852   1.597   1.250  1.3849  0.2693  2.2789
 4920SOL    MW419454   3.835   1.683   1.255  0.1821 -0.1485 -0.0929
 4921SOL     OW19455   4.247   2.887   4.549  0.4361 -0.0394  0.1721
 4921SOL    HW219456   4.207   2.826   4.487  0.7056  0.9091 -0.9710
 4921SOL    HW319457   4.174   2.917   4.603  0.0264 -0.1710 -0.2984
 4921SOL    MW419458   4.232   2.883   4.548  0.5271 -0.0491 -0.1736
 4922SOL     OW19459   5.154   1.806   0.501  0.5374  0.3311 -0.0331
 4922SOL    HW219460   5.129   1.738   0.438 -2.2449  0.7143  0.5082
 4922SOL    HW319461   5.228   1.769   0.549 -2.2042 -3.4153  1.7880
 4922SOL    MW419462   5.160   1.792   0.499  0.4068  0.2742 -0.2063
 4923SOL     OW19463   3.639   5.062   0.907 -0.2240  0.0674  0.0556
 4923SOL    HW219464   3.674   5.015   0.831  0.0489 -0.9408  0.7753
 4923SOL    HW319465   3.550   5.028   0.917  0.1898 -0.7801  0.9537
 4923SOL    MW419466   3.632   5.051   0.898 -0.1809  0.6885 -0.6234
 4924SOL     OW19467   3.216   2.945   3.926 -0.4459  0.0468  0.0362
 4924SOL    HW219468   3.176   2.891   3.994 -1.4271 -0.3823 -0.8510
 4924SOL    HW319469   3.220   2.888   3.849 -2.3760  1.4430 -1.2206
 4924SOL    MW419470   3.211   2.931   3.925  0.4117 -0.2483  0.7754
 4925SOL     OW19471   4.603   1.177   4.016 -0.1441 -0.4474 -0.2071
 4925SOL    HW219472   4.634   1.109   4.076 -1.7014  0.0739  1.2432
 4925SOL    HW319473   4.536   1.133   3.964 -0.2574 -0.3414 -0.1488
 4925SOL    MW419474   4.598   1.162   4.017  0.2060  1.0524  0.0275
 4926SOL     OW19475   0.387   0.853   6.407 -0.0794 -0.4736 -0.3149
 4926SOL    HW219476   0.475   0.826   6.381  0.7331  1.2302  0.5258
 4926SOL    HW319477   0.382   0.831   6.500 -1.2598 -2.2404 -0.7383
 4926SOL    MW419478   0.398   0.847   6.416 -0.2354 -0.0451 -0.1982
 4927SOL     OW19479   3.254   4.364   0.199  0.2188 -0.3781  0.4370
 4927SOL    HW219480   3.161   4.372   0.176 -0.3060 -0.0339  2.4971
 4927SOL    HW319481   3.264   4.272   0.225  0.2181 -0.1619  1.1971
 4927SOL    MW419482   3.243   4.353   0.199  0.5523 -0.5803 -0.1542
 4928SOL     OW19483   2.277   3.740   6.374 -0.3250  0.2420 -0.0507
 4928SOL    HW219484   2.223   3.804   6.327 -1.7573 -1.2057 -0.4925
 4928SOL    HW319485   2.240   3.737   6.462  0.0279  0.3436  0.1020
 4928SOL    MW419486   2.265   3.748   6.379 -0.6250  0.0394  0.1545
 4929SOL     OW19487   2.567   0.628   3.761  0.1732  0.3170  0.1822
 4929SOL    HW219488   2.653   0.587   3.768  0.1243  0.3148  0.8477
 4929SOL    HW319489   2.529   0.592   3.681  0.9543  0.6324 -0.3513
 4929SOL    MW419490   2.574   0.618   3.751 -0.1231  0.1226 -0.4544
 4930SOL     OW19491   4.512   2.880   1.938  0.1316  0.1977 -0.7536
 4930SOL    HW219492   4.507   2.799   1.888 -0.7720  1.0878 -2.1725
 4930SOL    HW319493   4.467   2.860   2.021 -0.5746 -0.5866 -1.3102
 4930SOL    MW419494   4.506   2.867   1.943  0.3267 -0.5293  0.3147
 4931SOL     OW19495   5.917   0.792   2.681  0.0383 -0.3941  0.4694
 4931SOL    HW219496   5.967   0.873   2.692 -0.7681  0.0729  0.8412
 4931SOL    HW319497   5.833   0.811   2.724  0.2394 -1.8031  1.5564
 4931SOL    MW419498   5.912   0.805   2.688  0.2817 -0.6135 -0.0111
 4932SOL     OW19499   3.641   3.298   5.434 -0.1092  0.2688 -0.3515
 4932SOL    HW219500   3.704   3.356   5.390 -0.7502 -0.1581 -1.9256
 4932SOL    HW319501   3.605   3.351   5.505 -0.7059  1.8570 -1.7604
 4932SOL    MW419502   3.645   3.313   5.437 -0.2204 -0.3104  0.2242
 4933SOL     OW19503   2.039   0.729   6.332  0.1267  0.2776  0.0213
 4933SOL    HW219504   2.084   0.696   6.254  0.2733 -1.0858  0.6577
 4933SOL    HW319505   1.954   0.686   6.331 -0.6175  1.7000 -0.3670
 4933SOL    MW419506   2.034   0.719   6.321  0.3856  0.1857  0.0018
 4934SOL     OW19507   1.146   1.199   0.057  0.0998  0.1626 -0.4382
 4934SOL    HW219508   1.113   1.241  -0.022  1.1593 -0.0856 -1.0440
 4934SOL    HW319509   1.236   1.231   0.065 -0.1429  0.5679  0.9579
 4934SOL    MW419510   1.154   1.209   0.047  0.2780  0.6728  0.0463
 4935SOL     OW19511   1.127   3.625   5.283  0.5812  0.3438  0.4782
 4935SOL    HW219512   1.094   3.558   5.342  1.3258  0.4385  1.0215
 4935SOL    HW319513   1.131   3.582   5.198  1.3182 -0.4005  0.8725
 4935SOL    MW419514   1.123   3.611   5.280 -0.0605 -0.4843  0.2341
 4936SOL     OW19515   5.501   5.152   2.435  0.1837  0.2204 -0.3579
 4936SOL    HW219516   5.447   5.088   2.388 -0.5986 -0.1630  1.0316
 4936SOL    HW319517   5.562   5.100   2.487 -0.0608  0.6058  0.3278
 4936SOL    MW419518   5.502   5.137   2.435  0.3356  0.1231 -0.2182
 4937SOL     OW19519   4.179   3.221   2.273  0.1490  0.2213 -0.1186
 4937SOL    HW219520   4.211   3.310   2.263  0.2922 -0.0891 -3.1664
 4937SOL    HW319521   4.193   3.201   2.366  0.4949  3.1784  0.5483
 4937SOL    MW419522   4.185   3.230   2.284  0.1474 -0.3524 -0.3616
 4938SOL     OW19523   4.177   2.427   5.970 -0.0838  0.0523 -0.3605
 4938SOL    HW219524   4.125   2.404   5.893  0.1687  0.3457 -0.6168
 4938SOL    HW319525   4.112   2.450   6.037 -0.3007 -0.2062 -0.4824
 4938SOL    MW419526   4.161   2.427   5.969 -0.6099  0.3925 -0.4563
 4939SOL     OW19527   5.450   5.577   3.684 -0.2364  0.0399 -0.2597
 4939SOL    HW219528   5.398   5.655   3.701 -0.3779 -0.1026 -0.0281
 4939SOL    HW319529   5.399   5.505   3.721 -0.8086 -0.3595 -1.7540
 4939SOL    MW419530   5.437   5.578   3.691 -0.3405  0.3003 -0.6363
 4940SOL     OW19531   2.888   3.709   1.538 -0.1708 -0.4146  0.6579
 4940SOL    HW219532   2.941   3.635   1.507 -0.8427 -0.0641 -1.4650
 4940SOL    HW319533   2.927   3.785   1.495 -0.0270  0.3758  2.1438
 4940SOL    MW419534   2.900   3.709   1.528  0.1720 -0.2306 -0.4178
 4941SOL     OW19535   2.496   4.076   4.199  0.2025 -0.5511  0.1783
 4941SOL    HW219536   2.534   3.990   4.183  0.6105 -0.3519  0.0599
 4941SOL    HW319537   2.403   4.065   4.181  0.1418 -1.1283  0.8056
 4941SOL    MW419538   2.489   4.063   4.194  1.0174 -0.1847 -0.0752
 4942SOL     OW19539   0.584   2.530   4.553 -0.5876 -0.7044 -0.6116
 4942SOL    HW219540   0.655   2.466   4.555  0.2217  0.1429  2.0067
 4942SOL    HW319541   0.516   2.493   4.609 -1.5111 -0.6948 -1.6857
 4942SOL    MW419542   0.584   2.517   4.561  0.6219  0.1334  0.0752
 4943SOL     OW19543   2.689   1.952   1.121  0.2305  0.0168  0.5556
 4943SOL    HW219544   2.701   1.864   1.157  0.5875  0.1790  0.8413
 4943SOL    HW319545   2.716   2.011   1.191  1.8176  0.3301 -0.2624
 4943SOL    MW419546   2.695   1.948   1.135  0.5274 -0.4268 -0.6922
 4944SOL     OW19547   0.932   5.846   5.669 -0.0485  0.2394  0.2032
 4944SOL    HW219548   1.018   5.814   5.641  1.9413  2.9002  2.6734
 4944SOL    HW319549   0.930   5.831   5.763 -1.8278  1.2665  0.3768
 4944SOL    MW419550   0.943   5.840   5.678  0.3367 -0.3361 -0.0432
 4945SOL     OW19551   4.468   2.610   2.533 -0.0833 -0.1561 -0.4851
 4945SOL    HW219552   4.395   2.548   2.534 -0.2663  0.0240  1.4532
 4945SOL    HW319553   4.546   2.554   2.538 -0.0161 -0.3561 -2.7033
 4945SOL    MW419554   4.469   2.594   2.534 -0.0017 -0.5709  0.2968
 4946SOL     OW19555   1.948   2.081   2.098 -0.1330 -0.5163 -1.0081
 4946SOL    HW219556   1.870   2.093   2.153  0.3110 -0.1833 -0.4372
 4946SOL    HW319557   1.926   2.124   2.015  0.1477  1.3685 -0.1749
 4946SOL    MW419558   1.935   2.088   2.095  0.4367 -0.4788 -0.4430
 4947SOL     OW19559   5.253   5.049   1.164 -0.3268 -0.5757 -0.0268
 4947SOL    HW219560   5.180   5.088   1.212 -1.8487 -0.5442 -2.2170
 4947SOL    HW319561   5.248   5.088   1.077  2.0399 -0.9564 -0.4099
 4947SOL    MW419562   5.243   5.060   1.159  0.0878  0.3622  0.0692
 4948SOL     OW19563   6.071   2.428   2.257  0.3367  0.4332 -0.1211
 4948SOL    HW219564   6.128   2.504   2.252 -1.5159  1.8634 -0.5889
 4948SOL    HW319565   6.121   2.358   2.215  0.6403  2.3738 -3.3370
 4948SOL    MW419566   6.085   2.429   2.251  0.0938  0.1848  0.4328
 4949SOL     OW19567   1.429   6.112   6.234  0.2631  0.3012 -0.4931
 4949SOL    HW219568   1.408   6.101   6.327 -0.1133  1.8612 -0.3536
 4949SOL    HW319569   1.427   6.207   6.221  0.8529  0.1310 -1.9785
 4949SOL    MW419570   1.426   6.123   6.245  0.1048  0.1119  0.8059
 4950SOL     OW19571   4.744   5.170   3.997 -0.0850 -0.0979 -0.6605
 4950SOL    HW219572   4.771   5.169   3.905 -0.5517 -1.3703 -0.8122
 4950SOL    HW319573   4.654   5.138   3.996 -0.1660  0.0722  0.2261
 4950SOL    MW419574   4.736   5.165   3.985 -0.3394  0.5366 -0.1154
 4951SOL     OW19575   6.202   0.074   4.435  0.0615  0.1216 -0.0308
 4951SOL    HW219576   6.286   0.028   4.445  0.3970  0.9558  1.1286
 4951SOL    HW319577   6.146   0.036   4.502 -0.3143 -0.0224 -0.4205
 4951SOL    MW419578   6.206   0.063   4.445  0.4245 -0.2505 -0.5144
 4952SOL     OW19579   0.490   5.314   4.277  0.0838  0.5793 -0.2218
 4952SOL    HW219580   0.549   5.286   4.207  0.0783  1.3243 -0.5373
 4952SOL    HW319581   0.425   5.369   4.233 -0.8964 -0.2889  0.1134
 4952SOL    MW419582   0.489   5.318   4.262  0.2113  0.2263  0.1402
 4953SOL     OW19583   5.791   5.560   5.015  0.1860 -0.1849  0.1455
 4953SOL    HW219584   5.727   5.586   4.949 -0.8316 -1.5936  0.5139
 4953SOL    HW319585   5.875   5.565   4.971 -0.2075  1.2099 -0.5126
 4953SOL    MW419586   5.793   5.564   5.001  0.4875 -0.3671  0.0937
 4954SOL     OW19587   5.752   1.378   2.893  0.5041 -0.5527 -0.0658
 4954SOL    HW219588   5.823   1.335   2.845  0.4724 -1.5480  0.7463
 4954SOL    HW319589   5.795   1.448   2.942  0.4567  0.8816 -1.9466
 4954SOL    MW419590   5.767   1.381   2.893  0.1895 -0.3028 -0.5938
 4955SOL     OW19591   2.305   1.971   1.932 -0.4736  0.0062 -0.2598
 4955SOL    HW219592   2.362   1.939   1.862 -2.2743  0.6547 -2.1362
 4955SOL    HW319593   2.299   1.898   1.993  1.7783 -0.3112 -0.3274
 4955SOL    MW419594   2.312   1.957   1.931 -0.2732 -0.6444 -0.0706
 4956SOL     OW19595   5.088   4.319   1.690  0.2724 -0.1812  0.0901
 4956SOL    HW219596   5.093   4.224   1.698 -0.6883 -0.2489  0.0030
 4956SOL    HW319597   5.016   4.344   1.747 -0.4139  0.3393 -0.9690
 4956SOL    MW419598   5.079   4.310   1.699  0.0208 -0.4105  0.0339
 4957SOL     OW19599   1.014   4.679   1.373  0.3859  0.3946 -0.0770
 4957SOL    HW219600   1.041   4.589   1.354  1.3514  0.8062 -0.7587
 4957SOL    HW319601   0.993   4.715   1.287 -0.0006  0.8189  0.1950
 4957SOL    MW419602   1.015   4.672   1.359  0.2312 -0.2099  0.3852
 4958SOL     OW19603   0.864   6.210   4.631  0.5764  0.3112  0.1297
 4958SOL    HW219604   0.955   6.238   4.641  0.9619 -0.6640 -0.4940
 4958SOL    HW319605   0.858   6.130   4.683  0.0665  0.3827  0.1858
 4958SOL    MW419606   0.875   6.203   4.639  0.0432  0.4915  0.4084
 4959SOL     OW19607   4.270   4.590   5.893 -0.0704 -0.4173 -0.2504
 4959SOL    HW219608   4.282   4.582   5.988  0.1058  0.4418 -0.1847
 4959SOL    HW319609   4.338   4.652   5.867 -2.0767  1.8596 -0.4364
 4959SOL    MW419610   4.281   4.597   5.902  0.0898  0.6704 -0.1184
 4960SOL     OW19611   4.174   4.943   5.657 -0.0144 -0.3216  0.2658
 4960SOL    HW219612   4.101   4.937   5.595  1.5206 -1.8144 -1.5438
 4960SOL    HW319613   4.156   5.022   5.708 -0.8170  1.7652 -2.9310
 4960SOL    MW419614   4.162   4.953   5.655 -0.2700  0.4715  0.3104
 4961SOL     OW19615   5.650   5.772   4.876  0.1780 -0.4601  1.0005
 4961SOL    HW219616   5.705   5.793   4.801 -0.8799 -1.9577 -0.2441
 4961SOL    HW319617   5.691   5.817   4.949  0.9581  1.4655 -0.5476
 4961SOL    MW419618   5.662   5.781   4.876  0.4841 -0.0881 -0.4560
 4962SOL     OW19619   2.980   2.116   4.984 -0.2315  0.3191 -0.2752
 4962SOL    HW219620   2.969   2.054   4.911  1.3609 -0.6696  0.2750
 4962SOL    HW319621   2.928   2.192   4.958 -2.6804 -1.3699 -0.7685
 4962SOL    MW419622   2.972   2.118   4.971  0.4629 -0.7398 -0.2419
 4963SOL     OW19623   1.344   4.937   5.770 -0.8485  0.0844 -0.0280
 4963SOL    HW219624   1.304   4.985   5.697 -0.4584 -0.7985 -0.8358
 4963SOL    HW319625   1.299   4.853   5.771  0.1344 -0.4587 -0.1736
 4963SOL    MW419626   1.333   4.932   5.760 -0.1558  0.1281  0.0123
 4964SOL     OW19627   4.353   0.701   5.191  0.2546 -0.0604 -0.1674
 4964SOL    HW219628   4.347   0.636   5.121  0.2376  0.0426 -0.2613
 4964SOL    HW319629   4.322   0.655   5.269  1.2577 -0.4997 -0.0083
 4964SOL    MW419630   4.348   0.686   5.192  0.2663 -0.4146 -0.4253
 4965SOL     OW19631   3.801   2.038   2.639  0.1545 -0.4018 -0.8095
 4965SOL    HW219632   3.865   2.006   2.702  2.0733  0.4083 -2.2639
 4965SOL    HW319633   3.721   2.050   2.690  1.2533 -1.0246  1.1579
 4965SOL    MW419634   3.799   2.035   2.654 -0.0919  0.1749  0.3048
 4966SOL     OW19635   5.249   4.889   3.673  0.2630 -0.1727 -0.0602
 4966SOL    HW219636   5.178   4.937   3.716  0.3855  0.1534 -0.2145
 4966SOL    HW319637   5.256   4.806   3.721 -0.1603 -0.1656  0.0109
 4966SOL    MW419638   5.241   4.884   3.685 -0.4550  0.0758 -0.2985
 4967SOL     OW19639   5.482   3.122   5.095 -0.0352 -0.2380 -0.2825
 4967SOL    HW219640   5.449   3.199   5.139  1.2514 -0.2617  0.7814
 4967SOL    HW319641   5.407   3.089   5.045 -0.3347  2.3012 -1.6912
 4967SOL    MW419642   5.468   3.128   5.094 -0.0998  0.2319 -0.0098
 4968SOL     OW19643   5.392   4.141   3.577  0.0894  0.4541 -0.3866
 4968SOL    HW219644   5.322   4.094   3.622  0.1853  0.3441 -0.3503
 4968SOL    HW319645   5.351   4.221   3.545  0.0720  0.6383  0.0860
 4968SOL    MW419646   5.378   4.145   3.579 -0.1488 -0.3445 -0.0200
 4969SOL     OW19647   6.111   5.327   4.312 -0.2111 -0.0502  0.1343
 4969SOL    HW219648   6.086   5.265   4.381 -0.0572 -0.5495 -0.2590
 4969SOL    HW319649   6.191   5.290   4.275  0.4113  0.8687  0.5218
 4969SOL    MW419650   6.119   5.314   4.317  0.4448  0.7988 -0.2348
 4970SOL     OW19651   5.008   0.833   5.709  0.3598 -0.0010 -0.8037
 4970SOL    HW219652   5.103   0.823   5.716  0.4147 -1.1069 -2.5293
 4970SOL    HW319653   4.977   0.838   5.799  2.1927  2.1399 -0.2022
 4970SOL    MW419654   5.016   0.833   5.722  0.1216 -0.0943 -0.4924
 4971SOL     OW19655   1.327   0.058   5.172 -0.2999  0.2102  0.5328
 4971SOL    HW219656   1.241   0.080   5.208 -1.0050  1.5651 -1.7676
 4971SOL    HW319657   1.380   0.137   5.185 -0.7175  0.9182 -1.6626
 4971SOL    MW419658   1.323   0.071   5.179  0.2997  0.1406 -0.8780
 4972SOL     OW19659   3.383   4.831   0.695  0.1039  0.4568  0.0798
 4972SOL    HW219660   3.348   4.877   0.619  2.4217  0.5685 -1.0124
 4972SOL    HW319661   3.409   4.745   0.661 -0.3347 -0.1024  1.1304
 4972SOL    MW419662   3.382   4.826   0.680 -0.2103 -0.2779 -0.7332
 4973SOL     OW19663   1.352   2.626   4.247 -0.6498  0.0052  0.6130
 4973SOL    HW219664   1.391   2.547   4.285  0.9372  0.7704  0.6823
 4973SOL    HW319665   1.262   2.626   4.277 -0.3668 -1.2018  1.5255
 4973SOL    MW419666   1.346   2.615   4.256  0.0029 -0.2574 -0.5659
 4974SOL     OW19667   5.950   5.611   2.215  0.5901  0.2008 -0.0557
 4974SOL    HW219668   5.864   5.578   2.189  0.4484  1.0348 -0.6877
 4974SOL    HW319669   6.009   5.537   2.202  0.0947 -0.1439 -0.3593
 4974SOL    MW419670   5.947   5.597   2.210 -0.5566 -0.7110 -0.6353
 4975SOL     OW19671   3.094   6.113   0.922 -0.1108  0.2245  0.2722
 4975SOL    HW219672   3.122   6.157   0.842  2.7707 -1.0793  0.4530
 4975SOL    HW319673   3.122   6.170   0.993 -0.2256  0.1035  0.4178
 4975SOL    MW419674   3.101   6.126   0.921 -0.1533 -0.1525 -0.6798
 4976SOL     OW19675   2.115   3.864   3.792 -0.6622 -0.4356 -0.6485
 4976SOL    HW219676   2.093   3.957   3.789  1.0153  0.0034 -0.5253
 4976SOL    HW319677   2.104   3.840   3.884 -1.2787 -0.4026 -0.7139
 4976SOL    MW419678   2.111   3.873   3.803  0.6373 -0.0467 -0.0210
 4977SOL     OW19679   2.579   3.028   0.418 -0.0468  0.3672  0.5826
 4977SOL    HW219680   2.650   3.075   0.375  0.0159  0.5006  0.8289
 4977SOL    HW319681   2.612   3.008   0.506  0.1640 -0.7047  0.2728
 4977SOL    MW419682   2.592   3.032   0.424 -0.2014  0.4644 -0.1820
 4978SOL     OW19683   3.050   3.931   3.834  0.1036  0.3228 -0.8515
 4978SOL    HW219684   2.973   3.939   3.891 -1.3975  0.0647 -2.7199
 4978SOL    HW319685   3.102   4.009   3.854 -0.1414  0.0464  1.1093
 4978SOL    MW419686   3.047   3.942   3.844  0.4202  0.1102  0.0188
 4979SOL     OW19687   3.603   3.985   1.832 -0.1650  0.4297  0.2663
 4979SOL    HW219688   3.558   4.039   1.897  0.9847  0.1205  1.3525
 4979SOL    HW319689   3.630   3.907   1.879  0.8381  0.2673 -0.5392
 4979SOL    MW419690   3.600   3.982   1.847  0.3756 -0.0818 -0.8916
 4980SOL     OW19691   1.310   0.679   4.501  0.1160  0.2326  0.3071
 4980SOL    HW219692   1.294   0.660   4.409 -0.8465  0.6055  0.3941
 4980SOL    HW319693   1.261   0.759   4.519  1.5421  1.0414  0.7644
 4980SOL    MW419694   1.302   0.687   4.492  0.5124 -0.1798  0.1473
 4981SOL     OW19695   1.701   1.687   2.967 -0.0005  0.0379  0.8702
 4981SOL    HW219696   1.699   1.692   2.872 -0.1776 -1.7114  0.7537
 4981SOL    HW319697   1.778   1.634   2.987 -1.1344 -1.4159  1.5675
 4981SOL    MW419698   1.710   1.680   2.957  0.3909 -0.8634 -0.4317
 4982SOL     OW19699   3.003   2.011   3.771  0.4804  0.3539  0.0973
 4982SOL    HW219700   3.014   1.994   3.678  0.4824  0.2627  0.1135
 4982SOL    HW319701   2.927   1.958   3.796  0.3366  0.5618  0.0978
 4982SOL    MW419702   2.994   2.002   3.762  0.6655 -0.1247 -0.4903
 4983SOL     OW19703   0.083   4.664   2.426  0.0965 -0.0979 -0.2708
 4983SOL    HW219704   0.106   4.751   2.394  1.4825 -0.1790  0.4570
 4983SOL    HW319705  -0.006   4.650   2.393 -0.2727  1.7089 -0.1500
 4983SOL    MW419706   0.074   4.674   2.417 -0.5009 -0.7134  0.0346
 4984SOL     OW19707   4.309   3.344   2.786 -0.3113 -0.0387  0.3830
 4984SOL    HW219708   4.289   3.414   2.724 -2.0343  0.3645  1.3546
 4984SOL    HW319709   4.404   3.332   2.778 -0.2724  1.0722 -1.1844
 4984SOL    MW419710   4.319   3.352   2.777 -0.2107  0.0081  0.1958
 4985SOL     OW19711   3.693   5.790   0.377 -0.2203 -0.1679  0.4642
 4985SOL    HW219712   3.682   5.861   0.314  1.3411 -0.7307 -0.4991
 4985SOL    HW319713   3.757   5.823   0.440 -0.2076 -0.3671  0.5579
 4985SOL    MW419714   3.700   5.804   0.377 -0.0353  0.2925 -0.0091
 4986SOL     OW19715   6.245   5.771   4.026 -0.6802 -0.4144  0.0128
 4986SOL    HW219716   6.248   5.745   3.934  0.0018  0.3483 -0.1932
 4986SOL    HW319717   6.264   5.692   4.075  1.5002 -0.3249 -0.5928
 4986SOL    MW419718   6.248   5.757   4.020 -0.1575 -0.1540 -0.1718
 4987SOL     OW19719   3.821   2.992   2.207 -0.6785 -0.3258  0.0418
 4987SOL    HW219720   3.859   2.922   2.260  3.1354  0.9150 -0.6915
 4987SOL    HW319721   3.826   2.959   2.117 -3.8049 -1.0443  0.0453
 4987SOL    MW419722   3.827   2.979   2.202 -0.0852 -0.1217  0.0215
 4988SOL     OW19723   5.448   5.270   5.060  0.0917  0.6649 -0.1352
 4988SOL    HW219724   5.429   5.177   5.052  3.7302 -0.1832 -0.9353
 4988SOL    HW319725   5.367   5.314   5.035 -1.7202 -2.2461  0.2042
 4988SOL    MW419726   5.435   5.264   5.056  0.2296 -0.4515 -0.5632
 4989SOL     OW19727   2.285   2.778   4.095 -0.0538 -0.1119 -0.9060
 4989SOL    HW219728   2.366   2.763   4.047 -0.6973 -0.4320 -1.9050
 4989SOL    HW319729   2.308   2.760   4.186  0.5748 -1.9058 -1.3881
 4989SOL    MW419730   2.299   2.774   4.101  0.8603 -0.4177 -0.4643
 4990SOL     OW19731   1.453   5.023   3.314  0.5839  0.2636  0.2187
 4990SOL    HW219732   1.517   5.094   3.312  0.0409  0.7649  0.5142
 4990SOL    HW319733   1.371   5.063   3.285  0.0004  0.0506  1.5159
 4990SOL    MW419734   1.451   5.037   3.309 -0.0215  0.1450 -0.1002
 4991SOL     OW19735   3.256   0.192   4.811 -0.3143 -0.0483  0.5070
 4991SOL    HW219736   3.296   0.123   4.758  1.9146  1.0169  0.6855
 4991SOL    HW319737   3.167   0.200   4.777  0.5218 -0.5297 -1.9585
 4991SOL    MW419738   3.250   0.184   4.800  0.3610  0.2118 -0.2537
 4992SOL     OW19739   4.539   3.851   4.801  0.0634 -0.0070 -0.3814
 4992SOL    HW219740   4.512   3.765   4.833  0.9183 -0.1626 -0.0500
 4992SOL    HW319741   4.507   3.912   4.866 -0.8029 -0.0415 -0.7665
 4992SOL    MW419742   4.532   3.848   4.814 -0.1188 -0.2643  0.1859
 4993SOL     OW19743   4.540   6.388   4.297  0.3434  0.2347  0.0958
 4993SOL    HW219744   4.478   6.434   4.353  2.5788  1.3750  1.8069
 4993SOL    HW319745   4.608   6.357   4.357  2.1290  0.2315 -1.7965
 4993SOL    MW419746   4.541   6.390   4.313  0.8633 -0.2898  0.2447
 4994SOL     OW19747   5.402   1.109   3.785 -0.7798  0.4327  0.0289
 4994SOL    HW219748   5.352   1.029   3.801  0.5369 -0.8574 -1.8356
 4994SOL    HW319749   5.347   1.179   3.818 -1.9953 -1.2243  1.7296
 4994SOL    MW419750   5.388   1.108   3.792 -0.3350  0.1636 -0.3047
 4995SOL     OW19751   4.544   2.553   1.209  0.2488 -0.1282 -0.4869
 4995SOL    HW219752   4.565   2.645   1.192  2.8930 -0.8093 -1.3986
 4995SOL    HW319753   4.594   2.531   1.287 -2.6690 -0.1400  1.5632
 4995SOL    MW419754   4.553   2.562   1.217 -0.5122  0.0361 -0.2725
 4996SOL     OW19755   6.316   3.221   0.948 -0.3075  0.0553 -0.1455
 4996SOL    HW219756   6.288   3.216   1.039  1.3733 -0.8630  0.3667
 4996SOL    HW319757   6.287   3.307   0.918  0.7971  1.1779  1.8549
 4996SOL    MW419758   6.309   3.231   0.956  0.0695 -0.2977 -0.1286
 4997SOL     OW19759   3.008   1.173   4.506 -0.4716 -0.3888 -0.0006
 4997SOL    HW219760   2.992   1.151   4.598  0.0244 -0.8923 -0.0303
 4997SOL    HW319761   2.942   1.123   4.458 -1.3159  0.5648  0.1270
 4997SOL    MW419762   2.997   1.163   4.512 -0.3250  0.5246 -0.7231
 4998SOL     OW19763   5.265   5.093   0.179 -0.3391 -0.0310  0.1028
 4998SOL    HW219764   5.245   5.025   0.243 -0.1108 -0.0493  0.1520
 4998SOL    HW319765   5.179   5.127   0.154 -0.4505 -0.2989  0.1192
 4998SOL    MW419766   5.251   5.089   0.184 -0.3156  0.3485 -0.0198
 4999SOL     OW19767   1.733   4.801   2.825  0.5801  0.2095  0.1052
 4999SOL    HW219768   1.693   4.825   2.909 -0.8081  2.6568 -1.1632
 4999SOL    HW319769   1.756   4.884   2.784  0.9303 -0.8978 -2.1012
 4999SOL    MW419770   1.731   4.815   2.831 -0.2222 -0.0594  0.3511
 5000SOL     OW19771   2.541   3.917   6.403  0.1482 -0.6475 -0.0522
 5000SOL    HW219772   2.503   3.984   6.459  0.3258 -1.6757  1.3385
 5000SOL    HW319773   2.477   3.846   6.403  1.5950 -2.0501  1.6352
 5000SOL    MW419774   2.527   3.916   6.410 -0.1929  0.1485 -0.0361
 5001SOL     OW19775   4.193   6.301   0.973 -0.8208 -0.4020 -0.0073
 5001SOL    HW219776   4.225   6.314   1.062 -0.6793  0.6874 -0.1970
 5001SOL    HW319777   4.144   6.382   0.954 -4.0334 -2.0832  0.4080
 5001SOL    MW419778   4.191   6.314   0.982  0.1882  0.0151 -0.2246
 5002SOL     OW19779   3.109   4.747   2.296  0.3474 -0.0625 -0.0377
 5002SOL    HW219780   3.202   4.755   2.276  0.6544  2.6627  1.9023
 5002SOL    HW319781   3.095   4.653   2.305  3.1794 -0.5289  0.6540
 5002SOL    MW419782   3.120   4.736   2.295  0.1767  0.3459 -0.3818
 5003SOL     OW19783   2.813   1.134   0.532  0.8236  0.0686 -0.2942
 5003SOL    HW219784   2.860   1.080   0.468  0.3806 -0.5682 -0.1050
 5003SOL    HW319785   2.828   1.224   0.505  1.4042 -0.1659 -0.7521
 5003SOL    MW419786   2.821   1.139   0.520  0.7385  0.0598  0.5580
 5004SOL     OW19787   4.856   4.147   4.594 -0.0787  0.1122  0.5081
 5004SOL    HW219788   4.919   4.177   4.659  2.9759  1.7050 -2.7956
 5004SOL    HW319789   4.900   4.073   4.551 -0.7342  0.7304 -1.3464
 5004SOL    MW419790   4.870   4.141   4.597 -0.3392  0.1969 -0.4038
 5005SOL     OW19791   0.596   2.026   2.534 -0.5575 -0.1219  0.3050
 5005SOL    HW219792   0.501   2.038   2.546 -0.5966  1.9634 -1.4236
 5005SOL    HW319793   0.603   1.948   2.478 -1.1028 -1.3737  1.9168
 5005SOL    MW419794   0.584   2.018   2.528 -0.3654  0.7527 -0.1892
 5006SOL     OW19795   5.886   3.129   4.825 -0.5470  0.3089 -0.4495
 5006SOL    HW219796   5.807   3.084   4.854 -0.0358 -1.6044 -1.7756
 5006SOL    HW319797   5.951   3.107   4.891 -0.2721 -1.1062 -1.1456
 5006SOL    MW419798   5.884   3.120   4.837  0.2994 -0.1428  0.7719
 5007SOL     OW19799   5.555   4.202   2.144  0.6098 -0.5455  0.5429
 5007SOL    HW219800   5.518   4.289   2.135  0.5937 -0.5405  0.6599
 5007SOL    HW319801   5.514   4.151   2.073  1.8551 -0.0461 -0.5638
 5007SOL    MW419802   5.544   4.207   2.133 -0.3785 -0.3800 -0.6617
 5008SOL     OW19803   2.618   1.909   5.856 -0.4292 -0.2072 -0.2562
 5008SOL    HW219804   2.536   1.945   5.821 -0.0791  0.3777 -0.4966
 5008SOL    HW319805   2.637   1.964   5.932 -0.8589 -1.0772  0.5019
 5008SOL    MW419806   2.609   1.921   5.861  0.1310  0.8200 -0.5231
 5009SOL     OW19807   2.772   1.545   5.024 -0.3510  0.3318 -0.4730
 5009SOL    HW219808   2.829   1.530   4.948  2.2622  0.8330  1.2513
 5009SOL    HW319809   2.805   1.484   5.090 -0.3033  2.1926  1.3149
 5009SOL    MW419810   2.784   1.535   5.023 -0.0691 -0.5024  0.3105
 5010SOL     OW19811   0.799   2.311   5.275  0.4792  0.4717  0.1022
 5010SOL    HW219812   0.704   2.294   5.279  0.1295  1.2119 -2.9811
 5010SOL    HW319813   0.805   2.406   5.263  1.6255  0.3950 -0.0080
 5010SOL    MW419814   0.787   2.321   5.274 -0.2310  0.9004  0.0123
 5011SOL     OW19815   6.178   1.871   6.287  0.1098 -0.0246 -0.4468
 5011SOL    HW219816   6.177   1.836   6.375  0.2633 -1.0054 -0.8275
 5011SOL    HW319817   6.120   1.947   6.290  0.5865  0.3046  0.6370
 5011SOL    MW419818   6.170   1.877   6.299  0.1457  0.3693 -0.4222
 5012SOL     OW19819   3.897   0.719   5.103  0.1932  0.3571  0.0951
 5012SOL    HW219820   3.802   0.717   5.106  0.2218 -0.6799  2.3590
 5012SOL    HW319821   3.919   0.811   5.092 -1.0503  0.5740 -0.7245
 5012SOL    MW419822   3.888   0.731   5.102 -0.3101 -0.5852 -0.2182
 5013SOL     OW19823   4.918   0.403   1.226 -0.1834  0.3486  0.1775
 5013SOL    HW219824   5.007   0.435   1.240 -0.4809  0.9241  0.7974
 5013SOL    HW319825   4.929   0.310   1.207  0.5568  0.4337  0.1349
 5013SOL    MW419826   4.931   0.395   1.225 -0.7658 -0.0577 -0.1171
 5014SOL     OW19827   1.937   4.769   6.210  0.0393  0.2629  0.8709
 5014SOL    HW219828   1.896   4.851   6.183 -1.4259  0.4335  3.2892
 5014SOL    HW319829   1.902   4.753   6.298  2.7378 -1.3069  1.7666
 5014SOL    MW419830   1.927   4.778   6.218 -0.1611  0.0141 -0.2004
 5015SOL     OW19831   2.748   5.603   5.167  0.2608 -0.5275  0.1015
 5015SOL    HW219832   2.773   5.584   5.077  0.2330  0.3682 -0.1040
 5015SOL    HW319833   2.770   5.695   5.179 -0.0998 -0.5351  0.8915
 5015SOL    MW419834   2.755   5.612   5.157 -0.0228  0.3289  0.5163
 5016SOL     OW19835   5.618   3.335   0.515  0.2178 -0.4343 -0.4472
 5016SOL    HW219836   5.661   3.402   0.568 -0.2536  1.4273 -2.2798
 5016SOL    HW319837   5.689   3.276   0.490  0.5159 -1.1240  1.8120
 5016SOL    MW419838   5.633   3.336   0.518  0.3277  0.0993 -0.7560
 5017SOL     OW19839   2.195   5.716   2.049 -0.3206 -0.1233 -0.1935
 5017SOL    HW219840   2.250   5.772   2.104 -1.9649 -0.2508  1.6984
 5017SOL    HW319841   2.185   5.636   2.101  1.3269 -1.9561 -2.4799
 5017SOL    MW419842   2.201   5.713   2.063 -0.0625  0.1122 -0.1541
 5018SOL     OW19843   5.194   1.671   6.203  0.1110 -0.1612  0.4990
 5018SOL    HW219844   5.181   1.666   6.109 -0.4478 -0.2989  0.5812
 5018SOL    HW319845   5.130   1.736   6.233  0.1383 -0.2713  0.8060
 5018SOL    MW419846   5.184   1.679   6.195 -0.0992 -0.1711  0.3933
 5019SOL     OW19847   3.566   3.636   5.310 -0.1777  1.1004  0.1747
 5019SOL    HW219848   3.621   3.713   5.294  2.1925 -0.2646  1.2148
 5019SOL    HW319849   3.619   3.580   5.366 -1.2165 -1.9327 -1.6268
 5019SOL    MW419850   3.581   3.639   5.315 -0.2981 -0.0281  0.7689
 5020SOL     OW19851   1.137   2.170   5.865 -0.0220 -0.1546  0.1782
 5020SOL    HW219852   1.047   2.199   5.850 -0.3521 -1.8531 -1.5184
 5020SOL    HW319853   1.130   2.076   5.881  1.4695 -0.4084 -0.4503
 5020SOL    MW419854   1.124   2.162   5.865  0.1986  0.6560  0.8968
 5021SOL     OW19855   0.889   1.634   5.423 -0.2575 -0.4893  0.3822
 5021SOL    HW219856   0.817   1.587   5.465  1.1472 -2.8391  0.4103
 5021SOL    HW319857   0.965   1.613   5.477  0.6121  1.2254 -0.1069
 5021SOL    MW419858   0.890   1.625   5.435 -1.0272  0.0231  0.6039
 5022SOL     OW19859   5.415   4.596   5.776  0.2720 -0.0844 -0.5851
 5022SOL    HW219860   5.440   4.623   5.864  0.4135  0.8209 -0.8979
 5022SOL    HW319861   5.324   4.622   5.767  0.4018  0.2770 -0.8822
 5022SOL    MW419862   5.407   4.603   5.786  0.1709 -0.4119 -0.4165
 5023SOL     OW19863   2.456   2.184   4.061 -0.1936 -0.1569  0.4554
 5023SOL    HW219864   2.403   2.163   3.984 -0.2007  0.3927  0.3048
 5023SOL    HW319865   2.538   2.218   4.025  0.1350 -0.6897  0.6892
 5023SOL    MW419866   2.460   2.186   4.046 -0.2824  0.1224  0.0853
 5024SOL     OW19867   5.444   0.170   3.021 -0.3175 -0.3946 -0.0073
 5024SOL    HW219868   5.518   0.115   3.045 -1.1581 -2.3814 -1.6430
 5024SOL    HW319869   5.376   0.148   3.084  0.0900  0.5808  0.7935
 5024SOL    MW419870   5.445   0.160   3.032  0.0789  0.4742  0.0076
 5025SOL     OW19871   3.836   5.321   1.139  0.7459  0.2064  0.1082
 5025SOL    HW219872   3.764   5.346   1.082  0.2028  1.3483  1.2461
 5025SOL    HW319873   3.915   5.350   1.093  0.5108 -0.8837 -1.0544
 5025SOL    MW419874   3.837   5.328   1.125  0.0637 -0.0259  0.1986
 5026SOL     OW19875   5.586   2.388   3.466  0.4210  0.2331  0.9414
 5026SOL    HW219876   5.500   2.364   3.432 -0.1844  0.6111  2.1899
 5026SOL    HW319877   5.638   2.307   3.457 -0.0810 -0.0334  0.3127
 5026SOL    MW419878   5.582   2.374   3.460  0.1327  0.7156  0.1452
 5027SOL     OW19879   1.450   3.271   5.357  0.1454 -0.2440  0.1299
 5027SOL    HW219880   1.515   3.230   5.414  1.3605  0.7361 -0.4792
 5027SOL    HW319881   1.495   3.281   5.273 -1.3560 -0.9931 -0.8095
 5027SOL    MW419882   1.465   3.267   5.354  0.4128 -0.5037  0.0221
 5028SOL     OW19883   3.536   2.252   2.684  0.5302 -0.9508  0.0540
 5028SOL    HW219884   3.467   2.299   2.730 -0.5880 -1.5273 -0.9691
 5028SOL    HW319885   3.589   2.320   2.644  1.0643 -0.4724  1.5012
 5028SOL    MW419886   3.534   2.267   2.685  0.3590  0.4752 -0.4461
 5029SOL     OW19887   6.037   1.249   0.130 -0.2247 -0.0196 -0.7898
 5029SOL    HW219888   6.060   1.197   0.207  1.6297  1.3728 -0.3204
 5029SOL    HW319889   5.963   1.303   0.158  1.0426  1.1820  0.4206
 5029SOL    MW419890   6.031   1.249   0.144 -0.6090 -0.1467 -0.3655
 5030SOL     OW19891   6.282   3.392   1.643 -0.0959 -0.3790 -0.4828
 5030SOL    HW219892   6.224   3.457   1.684 -0.0961 -0.5125 -0.2684
 5030SOL    HW319893   6.227   3.313   1.634 -0.3653 -0.0949 -1.5431
 5030SOL    MW419894   6.267   3.390   1.647 -0.0065 -0.3300 -0.5364
 5031SOL     OW19895   3.806   1.503   5.327 -0.6974  0.5548 -0.5079
 5031SOL    HW219896   3.716   1.498   5.360 -0.2381  1.1569  0.9044
 5031SOL    HW319897   3.847   1.571   5.380  1.4156 -1.6251  0.8632
 5031SOL    MW419898   3.799   1.511   5.338 -0.0297  0.1866 -0.0235
 5032SOL     OW19899   3.217   4.401   1.723  0.3916 -0.4788 -0.7173
 5032SOL    HW219900   3.221   4.451   1.641  1.9034 -1.9197 -1.5789
 5032SOL    HW319901   3.175   4.319   1.699 -1.9675  0.2266  0.6659
 5032SOL    MW419902   3.212   4.397   1.709  0.2477  0.7993 -0.5567
 5033SOL     OW19903   2.701   0.146   3.851  0.5343 -0.8238  0.7342
 5033SOL    HW219904   2.749   0.190   3.922  0.7656  1.0039 -0.4931
 5033SOL    HW319905   2.667   0.217   3.797 -0.5449 -2.1591 -0.4172
 5033SOL    MW419906   2.703   0.161   3.854  0.2530  0.5784 -0.4536
 5034SOL     OW19907   6.178   6.081   4.592 -0.2586 -0.4564  0.4297
 5034SOL    HW219908   6.137   6.156   4.637  0.8548  0.0300  0.6774
 5034SOL    HW319909   6.239   6.046   4.656 -0.3682 -1.2412  0.1101
 5034SOL    MW419910   6.181   6.087   4.606  0.1630  0.7144  0.0121
 5035SOL     OW19911   2.499   4.552   1.132 -0.1051 -0.3723  0.6326
 5035SOL    HW219912   2.449   4.607   1.193  0.9848  0.0791  1.1395
 5035SOL    HW319913   2.578   4.529   1.180  0.9002  0.2112 -0.6915
 5035SOL    MW419914   2.503   4.556   1.146 -0.1156 -0.5576  0.8458
 5036SOL     OW19915   0.482   1.771   6.179  0.3629 -0.2054  0.3311
 5036SOL    HW219916   0.544   1.837   6.211 -0.7220  0.2449  1.6056
 5036SOL    HW319917   0.407   1.822   6.147 -0.0558 -0.7857  0.3646
 5036SOL    MW419918   0.480   1.787   6.179 -0.0554  0.2510  0.3423
 5037SOL     OW19919   6.140   4.183   1.739  0.0890  0.7131 -0.0023
 5037SOL    HW219920   6.066   4.122   1.736 -0.3793  1.2547  0.4341
 5037SOL    HW319921   6.212   4.134   1.699 -0.3463 -0.0326  0.0992
 5037SOL    MW419922   6.140   4.168   1.733  0.7582  0.1838 -0.0902
 5038SOL     OW19923   0.452   1.081   4.120 -0.0035 -0.0611  0.0662
 5038SOL    HW219924   0.451   1.039   4.206 -0.0575  1.3806  0.7882
 5038SOL    HW319925   0.541   1.112   4.109 -0.6839  2.4280  0.9736
 5038SOL    MW419926   0.463   1.079   4.130  0.0541  0.3301  0.9326
 5039SOL     OW19927   4.738   5.571   4.312 -0.3444 -0.4743  0.3908
 5039SOL    HW219928   4.756   5.520   4.233 -1.3220 -2.2576  1.2686
 5039SOL    HW319929   4.772   5.658   4.292 -2.3941 -0.2342 -2.8253
 5039SOL    MW419930   4.745   5.576   4.299  0.7691 -0.1513 -0.4262
 5040SOL     OW19931   1.472   2.873   0.740  0.1252  0.0344  0.0672
 5040SOL    HW219932   1.543   2.916   0.788 -0.8586  3.0505 -0.9826
 5040SOL    HW319933   1.415   2.944   0.712 -0.7581 -1.7829 -3.3315
 5040SOL    MW419934   1.474   2.888   0.743 -0.9891  0.7725 -0.1481
 5041SOL     OW19935   4.569   0.438   3.759 -0.8528 -0.2690  0.4496
 5041SOL    HW219936   4.609   0.490   3.828 -1.6699 -1.2170  1.6666
 5041SOL    HW319937   4.539   0.503   3.695  0.9461  0.5601  0.3809
 5041SOL    MW419938   4.571   0.454   3.759  0.3837  1.1052 -0.0704
 5042SOL     OW19939   0.647   3.223   2.281 -0.4766  0.3615 -0.1077
 5042SOL    HW219940   0.585   3.256   2.346  0.7774  1.8909  0.3661
 5042SOL    HW319941   0.688   3.302   2.245  0.2831 -0.5549 -1.3331
 5042SOL    MW419942   0.644   3.238   2.285 -0.1458 -0.1947  0.3671
 5043SOL     OW19943   0.949   2.320   2.649  0.3112  0.3496  0.0998
 5043SOL    HW219944   0.886   2.385   2.616 -0.1561  0.9018  1.9814
 5043SOL    HW319945   0.898   2.239   2.657  0.3987  0.2419 -0.3739
 5043SOL    MW419946   0.934   2.318   2.645  1.0872 -0.1758 -0.7004
 5044SOL     OW19947   4.920   1.278   2.565 -0.1350  0.0921  0.3440
 5044SOL    HW219948   4.970   1.312   2.639 -2.1977  1.1216  1.3531
 5044SOL    HW319949   4.983   1.270   2.494  1.4668  1.1429  1.5962
 5044SOL    MW419950   4.935   1.281   2.565  0.1363  0.5090  0.0703
 5045SOL     OW19951   2.060   1.172   0.191 -0.2458 -0.8124  0.0306
 5045SOL    HW219952   2.054   1.169   0.286  0.8051  1.5790  0.2396
 5045SOL    HW319953   2.088   1.083   0.166 -0.8472 -1.5727  1.8848
 5045SOL    MW419954   2.063   1.160   0.200 -0.6845  0.0188 -0.0794
 5046SOL     OW19955   5.833   0.132   5.242  0.3890  0.4227 -0.7274
 5046SOL    HW219956   5.820   0.079   5.321  0.5244 -0.6616 -1.4125
 5046SOL    HW319957   5.905   0.089   5.196 -0.5835  0.2280 -2.1164
 5046SOL    MW419958   5.841   0.119   5.246 -0.6669 -0.0741  0.4830
 5047SOL     OW19959   5.876   1.410   5.750  0.6496 -0.3316  0.3714
 5047SOL    HW219960   5.825   1.484   5.782  1.1782 -0.5503  1.8004
 5047SOL    HW319961   5.873   1.346   5.822  1.2363 -1.1848 -0.3389
 5047SOL    MW419962   5.869   1.411   5.764  0.2348 -0.0856  0.0446
 5048SOL     OW19963   3.447   3.187   2.917  0.0109  0.0463  0.4411
 5048SOL    HW219964   3.426   3.278   2.899 -2.5341 -0.3544  1.0051
 5048SOL    HW319965   3.500   3.190   2.997 -1.1113  0.9660  1.1670
 5048SOL    MW419966   3.451   3.199   2.925  0.5341  0.2361  0.3767
 5049SOL     OW19967   2.958   5.343   6.260  0.0525  0.5652 -0.4978
 5049SOL    HW219968   3.046   5.325   6.229  1.0629  0.9346  1.9309
 5049SOL    HW319969   2.924   5.257   6.286 -0.3413  0.4177 -1.4685
 5049SOL    MW419970   2.965   5.329   6.259  0.2267  0.0381  0.6242
 5050SOL     OW19971   2.388   0.608   2.583 -0.9195  0.1553  0.1354
 5050SOL    HW219972   2.323   0.602   2.513 -1.4769 -1.1191  0.7221
 5050SOL    HW319973   2.388   0.521   2.623  0.6918  0.3126  0.5760
 5050SOL    MW419974   2.380   0.595   2.579  0.1892  0.6451 -0.1910
 5051SOL     OW19975   0.379   3.260   4.471 -0.1057  0.0602  0.5817
 5051SOL    HW219976   0.310   3.200   4.500 -0.4073  0.1756  0.1247
 5051SOL    HW319977   0.455   3.237   4.524 -0.1017 -0.9920  0.1499
 5051SOL    MW419978   0.380   3.249   4.482 -0.5448 -0.1105 -0.2586
 5052SOL     OW19979   1.129   1.393   5.305  0.4350 -0.0205  0.4766
 5052SOL    HW219980   1.047   1.375   5.259  0.7286  0.3361 -0.2110
 5052SOL    HW319981   1.104   1.451   5.377 -0.0236 -0.5377  0.7395
 5052SOL    MW419982   1.115   1.399   5.309 -0.1147  0.0059  0.0313
 5053SOL     OW19983   1.561   5.330   5.745 -0.3816  0.3960  0.1896
 5053SOL    HW219984   1.469   5.321   5.770  0.0032 -1.8260  1.0130
 5053SOL    HW319985   1.581   5.423   5.760 -2.2859  0.7614  0.6863
 5053SOL    MW419986   1.552   5.341   5.751  0.3582  0.3198 -0.0117
 5054SOL     OW19987   3.745   0.738   5.887  0.3185  0.3164  0.4152
 5054SOL    HW219988   3.671   0.724   5.828 -0.9821  1.0124  1.8047
 5054SOL    HW319989   3.752   0.657   5.938  0.5742  0.2134  0.2156
 5054SOL    MW419990   3.736   0.726   5.886 -0.2102  0.3853 -0.0745
 5055SOL     OW19991   0.263   3.873   1.578  0.4587  0.4364 -0.1829
 5055SOL    HW219992   0.354   3.888   1.550  0.0910  0.5487 -1.3527
 5055SOL    HW319993   0.267   3.881   1.674  1.8466 -0.4585 -0.1267
 5055SOL    MW419994   0.276   3.876   1.587  0.1667  0.0154 -0.3014
 5056SOL     OW19995   2.752   4.481   6.205  0.8326 -0.0368  0.4715
 5056SOL    HW219996   2.669   4.514   6.239  0.2211 -0.9188 -0.1355
 5056SOL    HW319997   2.760   4.522   6.119 -0.1036 -1.6911 -0.4379
 5056SOL    MW419998   2.742   4.491   6.198 -0.0579  0.0054 -0.0341
 5057SOL     OW19999   3.244   5.064   1.920  0.3333  0.3089 -0.0780
 5057SOL    HW220000   3.225   5.137   1.861  0.5909  0.9198  0.5762
 5057SOL    HW320001   3.324   5.025   1.885  0.4030  0.5782 -0.2241
 5057SOL    MW420002   3.252   5.069   1.908 -0.1217 -0.2897  0.0393
 5058SOL     OW20003   6.062   2.061   3.989  0.2904 -0.2806 -0.7047
 5058SOL    HW220004   6.107   2.013   3.919 -0.2870 -0.9793 -0.6010
 5058SOL    HW320005   6.026   1.993   4.046 -1.6923  0.2377 -1.2832
 5058SOL    MW420006   6.063   2.046   3.987  0.4625 -0.0265 -0.0138
 5059SOL     OW20007   5.403   1.993   2.383  0.2693  0.2932 -0.2274
 5059SOL    HW220008   5.460   1.916   2.375  1.2682  0.8431  1.1366
 5059SOL    HW320009   5.333   1.978   2.320 -0.5874 -2.6172  1.2539
 5059SOL    MW420010   5.402   1.981   2.374 -0.2438  0.1400  0.2576
 5060SOL     OW20011   0.599   0.018   2.215 -0.0734  0.3817 -0.0932
 5060SOL    HW220012   0.608  -0.076   2.199 -1.2397  0.1351  0.5242
 5060SOL    HW320013   0.685   0.046   2.246  0.0902 -0.6463  0.4275
 5060SOL    MW420014   0.611   0.009   2.217 -0.7176  0.0778 -0.1614
 5061SOL     OW20015   1.873   3.301   3.113  0.1925 -0.2129 -0.3873
 5061SOL    HW220016   1.947   3.339   3.160 -0.5447  0.6078  0.1358
 5061SOL    HW320017   1.825   3.251   3.178 -0.5290  0.4791 -0.3677
 5061SOL    MW420018   1.877   3.299   3.128  0.3945  0.4130 -0.3185
 5062SOL     OW20019   2.135   2.619   2.761  0.3150  0.1134  0.3201
 5062SOL    HW220020   2.230   2.605   2.762  0.3230 -0.0182 -0.7964
 5062SOL    HW320021   2.100   2.548   2.814  0.8348  0.0788  0.6265
 5062SOL    MW420022   2.143   2.608   2.768 -0.0897 -0.4747 -0.3645
 5063SOL     OW20023   1.327   2.321   6.347  0.6494  0.0928 -0.2889
 5063SOL    HW220024   1.275   2.281   6.417 -0.3475 -0.2721 -1.2174
 5063SOL    HW320025   1.418   2.305   6.372  0.3299  0.5088  1.2390
 5063SOL    MW420026   1.332   2.314   6.360 -0.3240 -0.1294  0.5407
 5064SOL     OW20027   5.811   6.109   5.760  0.3684 -0.7540  0.5496
 5064SOL    HW220028   5.902   6.135   5.767  0.0317  0.1681  2.0536
 5064SOL    HW320029   5.814   6.014   5.747  1.5771 -0.3443 -3.1730
 5064SOL    MW420030   5.823   6.100   5.759 -0.5479  0.1804  0.1311
 5065SOL     OW20031   3.257   4.734   1.702  0.0405 -0.9647 -0.6827
 5065SOL    HW220032   3.251   4.823   1.667  1.4863 -1.0321 -1.1688
 5065SOL    HW320033   3.308   4.687   1.637  1.7305 -1.4233  0.8864
 5065SOL    MW420034   3.263   4.740   1.689  0.1693  0.7630 -0.2095
 5066SOL     OW20035   5.146   2.829   3.625 -0.1555 -0.2389  0.0187
 5066SOL    HW220036   5.067   2.786   3.593  0.8288 -1.0755 -1.3824
 5066SOL    HW320037   5.115   2.886   3.695 -1.7721 -1.7768  0.6286
 5066SOL    MW420038   5.131   2.831   3.630  0.1432 -0.8961  0.1229
 5067SOL     OW20039   1.121   4.476   3.027 -0.2691 -0.3565  1.0075
 5067SOL    HW220040   1.129   4.570   3.045 -2.7330  0.3817 -1.1175
 5067SOL    HW320041   1.076   4.441   3.103 -0.8327  0.5514  1.1112
 5067SOL    MW420042   1.116   4.484   3.039  0.2459 -0.1081  0.2259
 5068SOL     OW20043   2.839   3.651   3.101 -0.0588  0.1394  0.2113
 5068SOL    HW220044   2.912   3.590   3.102  0.4240  0.6179  2.8737
 5068SOL    HW320045   2.852   3.703   3.022  0.8741 -1.5646 -0.8261
 5068SOL    MW420046   2.850   3.650   3.091  0.2426 -0.5373 -0.8036
 5069SOL     OW20047   0.768   4.627   3.361 -0.6706  0.3398  0.3192
 5069SOL    HW220048   0.862   4.608   3.370 -0.8937 -0.1941  1.7282
 5069SOL    HW320049   0.762   4.722   3.368 -0.2605  0.3519  0.5376
 5069SOL    MW420050   0.780   4.637   3.363 -0.3336  0.0839  0.2567
 5070SOL     OW20051   0.824   4.295   3.309 -0.2277 -0.1052  0.5910
 5070SOL    HW220052   0.785   4.338   3.233 -1.5024 -1.3932  0.4661
 5070SOL    HW320053   0.773   4.327   3.383 -1.6961 -1.8563  0.4189
 5070SOL    MW420054   0.812   4.305   3.308 -0.6023  0.6041 -0.0151
 5071SOL     OW20055   2.034   5.424   1.782 -1.1144 -0.6351 -0.2024
 5071SOL    HW220056   2.129   5.431   1.775 -1.1229 -1.0938 -0.8710
 5071SOL    HW320057   2.016   5.330   1.781 -1.4829 -0.6013  1.4360
 5071SOL    MW420058   2.044   5.413   1.781  0.2710 -0.1686 -0.3512
 5072SOL     OW20059   5.409   5.110   4.747 -0.1712  0.1532  0.2915
 5072SOL    HW220060   5.457   5.060   4.681 -1.1923  0.4695 -0.7310
 5072SOL    HW320061   5.458   5.192   4.754 -0.1695  0.2017 -0.2296
 5072SOL    MW420062   5.422   5.114   4.739  0.1603  0.0746 -0.2590
 5073SOL     OW20063   0.276   2.785   0.208  0.0488  0.2660 -0.3797
 5073SOL    HW220064   0.207   2.852   0.200  2.0190  2.4832  0.0239
 5073SOL    HW320065   0.323   2.790   0.124 -0.7753 -1.9072 -1.0385
 5073SOL    MW420066   0.273   2.795   0.196 -0.3656 -0.0788 -0.4022
 5074SOL     OW20067   6.426   1.662   0.411 -0.1726 -0.1518  0.3404
 5074SOL    HW220068   6.486   1.612   0.466 -0.0629  1.0627  1.3706
 5074SOL    HW320069   6.477   1.740   0.386  0.0453 -0.9884 -2.1185
 5074SOL    MW420070   6.441   1.666   0.415  0.6375  0.7494  0.1932
 5075SOL     OW20071   5.255   1.458   4.778  0.2496  0.5509  0.0642
 5075SOL    HW220072   5.253   1.553   4.792  0.3071  0.3696  1.4281
 5075SOL    HW320073   5.347   1.435   4.785  0.3667  0.5090 -1.2949
 5075SOL    MW420074   5.267   1.468   4.781  0.0016  0.1258  0.3432
 5076SOL     OW20075   3.372   4.746   2.203 -0.0527 -0.1044  0.1648
 5076SOL    HW220076   3.464   4.724   2.185 -0.2586 -1.6215  0.8201
 5076SOL    HW320077   3.323   4.705   2.131 -0.1575  1.7935 -0.9107
 5076SOL    MW420078   3.378   4.738   2.191  0.4975 -0.0942 -0.8686
 5077SOL     OW20079   2.741   1.915   0.857 -0.4498 -0.8379  0.2679
 5077SOL    HW220080   2.806   1.846   0.868 -1.5892 -2.0977 -0.6503
 5077SOL    HW320081   2.714   1.938   0.946  1.1737 -0.3268  0.6665
 5077SOL    MW420082   2.746   1.909   0.870  1.3063 -0.3255  0.5776
 5078SOL     OW20083   4.804   5.200   4.720 -0.0636  0.0452 -0.7065
 5078SOL    HW220084   4.830   5.268   4.658 -1.6290  0.4708 -0.9215
 5078SOL    HW320085   4.782   5.125   4.666 -2.5911  0.7912 -0.8155
 5078SOL    MW420086   4.805   5.199   4.705  0.7898  0.6189  0.3636
 5079SOL     OW20087   4.053   4.126   3.899  0.4261 -0.0329  0.0851
 5079SOL    HW220088   4.035   4.204   3.845  0.6729  0.7944  1.1588
 5079SOL    HW320089   4.124   4.153   3.957  1.9835 -1.7495 -0.9217
 5079SOL    MW420090   4.060   4.140   3.899  0.0141  0.9672  0.0610
 5080SOL     OW20091   6.123   2.429   5.668 -0.2680 -0.1763 -0.0761
 5080SOL    HW220092   6.167   2.388   5.593 -0.8987  0.6931 -0.9588
 5080SOL    HW320093   6.120   2.522   5.645 -0.3293  0.1285  1.1251
 5080SOL    MW420094   6.128   2.436   5.655 -0.5698 -0.3551 -0.5400
 5081SOL     OW20095   3.865   4.159   1.335 -0.1366  0.1040  0.2627
 5081SOL    HW220096   3.942   4.131   1.285  0.1380  1.7958 -0.3210
 5081SOL    HW320097   3.895   4.235   1.385 -1.2531  0.3463  0.5868
 5081SOL    MW420098   3.879   4.165   1.335 -0.3696  0.5561 -0.7232
 5082SOL     OW20099   4.908   4.042   3.893  0.0488 -0.1714 -0.4848
 5082SOL    HW220100   4.992   4.087   3.902 -0.4423  0.9061 -1.0567
 5082SOL    HW320101   4.901   4.020   3.800 -0.1583 -0.5505 -0.3847
 5082SOL    MW420102   4.918   4.045   3.882  0.1959 -0.1755  0.0474
 5083SOL     OW20103   2.076   6.214   5.305 -0.0723  0.3326  0.1442
 5083SOL    HW220104   2.081   6.125   5.268 -1.3821 -0.2617  1.2822
 5083SOL    HW320105   2.004   6.255   5.259  1.5397  1.4168 -1.5117
 5083SOL    MW420106   2.067   6.207   5.294  0.3399  0.2584 -0.3429
 5084SOL     OW20107   2.777   1.294   5.689 -0.6590 -0.3596 -0.2690
 5084SOL    HW220108   2.803   1.291   5.781 -1.7938 -0.9119  0.0417
 5084SOL    HW320109   2.840   1.236   5.645  0.3989  0.5389  0.0024
 5084SOL    MW420110   2.789   1.286   5.695 -0.8769 -0.3507 -0.2579
 5085SOL     OW20111   6.150   3.149   1.647  0.2981 -0.3064 -0.0570
 5085SOL    HW220112   6.095   3.180   1.719  1.1097  2.0659 -0.3768
 5085SOL    HW320113   6.180   3.063   1.676 -3.7915 -1.9919 -0.0442
 5085SOL    MW420114   6.146   3.142   1.660  0.2470  0.0737 -0.0767
 5086SOL     OW20115   5.674   1.812   0.658 -0.2253 -0.6544  0.1537
 5086SOL    HW220116   5.636   1.738   0.704 -0.7123 -0.8123 -0.5007
 5086SOL    HW320117   5.618   1.886   0.680  0.0130 -0.5627  0.4622
 5086SOL    MW420118   5.662   1.812   0.667 -0.2025  0.0674 -0.1346
 5087SOL     OW20119   4.115   5.620   1.602 -0.2260  0.5049  0.0936
 5087SOL    HW220120   4.103   5.704   1.557  0.5109 -0.4397 -1.9897
 5087SOL    HW320121   4.192   5.634   1.657  2.9452  0.0378 -3.7105
 5087SOL    MW420122   4.124   5.633   1.603 -0.1932 -0.5840 -0.0599
 5088SOL     OW20123   5.085   2.604   5.650  0.5451  0.1804 -0.0025
 5088SOL    HW220124   5.127   2.644   5.574 -2.5790  0.7288 -1.6245
 5088SOL    HW320125   5.091   2.671   5.719 -1.4255  2.1255 -1.5702
 5088SOL    MW420126   5.091   2.618   5.650  0.6088  0.0738  0.7618
 5089SOL     OW20127   5.372   2.396   4.308 -0.3165  0.5750  0.2737
 5089SOL    HW220128   5.445   2.447   4.342 -0.6073  1.0485  0.2000
 5089SOL    HW320129   5.296   2.452   4.321 -0.9714 -0.6507  2.0520
 5089SOL    MW420130   5.372   2.410   4.314  0.5781  0.1845  0.5897
 5090SOL     OW20131   4.961   1.955   0.614 -0.5955 -0.3783 -0.3541
 5090SOL    HW220132   5.039   1.911   0.579 -0.9503 -1.3012 -0.0376
 5090SOL    HW320133   4.889   1.896   0.591 -1.1031  0.0823  0.0340
 5090SOL    MW420134   4.962   1.941   0.606  0.4013  0.1670 -0.8633
 5091SOL     OW20135   0.252   5.415   1.926  0.1140  0.4505 -0.6045
 5091SOL    HW220136   0.344   5.438   1.911  0.6840 -0.9347  0.5276
 5091SOL    HW320137   0.212   5.422   1.840  1.2930  1.0180 -1.1400
 5091SOL    MW420138   0.259   5.419   1.913 -0.5053 -0.2183 -0.0317
 5092SOL     OW20139   5.658   4.054   3.000 -0.2239  0.2049 -0.1889
 5092SOL    HW220140   5.749   4.083   2.992  0.2071 -0.5732  1.4450
 5092SOL    HW320141   5.608   4.120   2.953  1.0173  1.7302  0.5357
 5092SOL    MW420142   5.664   4.066   2.993  0.3852 -0.3135  0.9788
 5093SOL     OW20143   1.202   2.472   1.553 -0.0256 -0.1055  0.5231
 5093SOL    HW220144   1.107   2.455   1.556  0.0515 -0.7872 -0.4684
 5093SOL    HW320145   1.224   2.465   1.460  1.4002 -2.2271  0.9759
 5093SOL    MW420146   1.192   2.469   1.541  0.1400  0.1966  0.0604
 5094SOL     OW20147   3.002   6.179   2.096 -0.5162 -0.5751 -0.0825
 5094SOL    HW220148   2.912   6.200   2.123  0.1149  0.0903  1.6884
 5094SOL    HW320149   2.993   6.101   2.041 -2.5338  1.7614 -3.4223
 5094SOL    MW420150   2.989   6.171   2.093  0.4442 -0.4219  0.3050
 5095SOL     OW20151   3.933   3.339   2.941 -0.1417  0.2101 -0.4888
 5095SOL    HW220152   4.009   3.363   2.994 -0.1065  0.2659 -0.5644
 5095SOL    HW320153   3.882   3.281   2.997  0.1146 -0.0769 -0.5510
 5095SOL    MW420154   3.936   3.334   2.956 -0.4094 -0.3322 -0.1198
 5096SOL     OW20155   2.778   3.382   5.302 -0.2333 -0.5651  0.0968
 5096SOL    HW220156   2.760   3.429   5.221 -0.4336 -1.0829 -0.1618
 5096SOL    HW320157   2.867   3.409   5.326 -1.0196  1.4318  0.9782
 5096SOL    MW420158   2.787   3.392   5.295 -0.1256  0.0084 -0.3477
 5097SOL     OW20159   3.052   0.422   0.774 -0.4327  0.4015  0.3144
 5097SOL    HW220160   3.002   0.449   0.697 -0.0641  2.2365  0.6635
 5097SOL    HW320161   3.026   0.331   0.790 -2.0090  0.6315 -0.7882
 5097SOL    MW420162   3.042   0.413   0.766 -0.2739  0.9390 -0.3175
 5098SOL     OW20163   1.289   3.137   5.550  0.1684  0.4169 -0.0179
 5098SOL    HW220164   1.357   3.112   5.612  1.2534 -1.4481 -1.8096
 5098SOL    HW320165   1.336   3.186   5.482 -0.6485  0.8149 -0.3127
 5098SOL    MW420166   1.304   3.140   5.549  0.3297  0.1441  0.0738
 5099SOL     OW20167   3.124   2.606   3.048  0.2595  0.1256  0.3092
 5099SOL    HW220168   3.048   2.552   3.070  0.0882  0.2488  0.0242
 5099SOL    HW320169   3.145   2.652   3.130 -1.2356  1.6360 -0.1053
 5099SOL    MW420170   3.117   2.605   3.062 -0.5462 -0.0578 -0.6949
 5100SOL     OW20171   3.230   1.624   4.519 -0.4730 -0.1117 -0.3182
 5100SOL    HW220172   3.280   1.545   4.541  0.6227  0.5316 -0.3806
 5100SOL    HW320173   3.139   1.600   4.531 -0.2345 -1.7742 -1.5729
 5100SOL    MW420174   3.225   1.611   4.524  0.4581 -1.0867  0.1095
 5101SOL     OW20175   4.105   3.066   4.865 -0.2566  0.1402 -0.0104
 5101SOL    HW220176   4.055   3.044   4.787 -1.5964 -0.9204  1.1051
 5101SOL    HW320177   4.117   3.161   4.859 -1.8894  0.3399 -0.6110
 5101SOL    MW420178   4.100   3.076   4.854 -0.1009  0.2069 -0.3022
 5102SOL     OW20179   1.062   2.692   2.735  0.0172 -0.2515  0.3331
 5102SOL    HW220180   1.128   2.627   2.760 -0.4834 -0.9290 -0.0647
 5102SOL    HW320181   1.110   2.775   2.734  1.0838 -0.8378 -0.7632
 5102SOL    MW420182   1.077   2.694   2.738 -0.2820  0.2265 -0.3527
 5103SOL     OW20183   4.933   1.722   0.264  0.2682  0.0428  0.1088
 5103SOL    HW220184   4.950   1.631   0.291 -0.8844 -0.2669 -0.1598
 5103SOL    HW320185   4.867   1.753   0.326 -1.1559 -0.1164 -1.2762
 5103SOL    MW420186   4.926   1.714   0.276  0.0310 -0.2937  0.3768
 5104SOL     OW20187   5.207   2.942   1.938 -0.0137 -0.2920 -0.0932
 5104SOL    HW220188   5.133   2.912   1.990  0.2157  1.7352  1.5417
 5104SOL    HW320189   5.283   2.930   1.995  0.4052  0.9419 -0.3673
 5104SOL    MW420190   5.207   2.937   1.953  0.3679  0.1860  0.1514
 5105SOL     OW20191   2.336   2.788   0.138  0.8965 -0.0714  0.3323
 5105SOL    HW220192   2.295   2.706   0.164  0.2511  0.3456  0.6822
 5105SOL    HW320193   2.327   2.844   0.216  2.0381  0.0668  0.3729
 5105SOL    MW420194   2.329   2.785   0.152  0.2436  0.3109  0.0627
 5106SOL     OW20195   3.083   6.415   0.228 -0.0805  0.1647  0.3978
 5106SOL    HW220196   3.002   6.377   0.262  0.7013 -0.3316  1.7597
 5106SOL    HW320197   3.104   6.486   0.289  0.5006  0.3217  0.0256
 5106SOL    MW420198   3.075   6.420   0.240 -0.0554  0.6707  0.3256
 5107SOL     OW20199   3.426   5.925   2.247 -0.4516 -0.5240  0.0705
 5107SOL    HW220200   3.421   6.015   2.277  0.4310 -0.3776 -0.1886
 5107SOL    HW320201   3.387   5.925   2.160 -0.4340 -0.3874  0.0635
 5107SOL    MW420202   3.420   5.937   2.240 -0.3350 -0.0907 -0.9693
 5108SOL     OW20203   5.385   4.101   1.946 -0.2066 -0.6953 -0.2105
 5108SOL    HW220204   5.303   4.150   1.948 -0.4093 -1.0370 -0.0762
 5108SOL    HW320205   5.358   4.011   1.931  0.1345 -0.8289 -0.0216
 5108SOL    MW420206   5.370   4.096   1.944  0.4357 -0.2565  0.3530
 5109SOL     OW20207   5.135   0.456   4.029 -0.3437  0.0490  0.0146
 5109SOL    HW220208   5.164   0.516   4.098 -2.9976  0.4600  0.8711
 5109SOL    HW320209   5.105   0.514   3.959  0.6849 -0.3646 -0.8033
 5109SOL    MW420210   5.135   0.472   4.029 -0.3407 -0.2369  0.2079
 5110SOL     OW20211   1.459   5.171   0.060 -0.5994  0.3411 -0.5325
 5110SOL    HW220212   1.528   5.180   0.125 -1.3766  0.9085  0.2350
 5110SOL    HW320213   1.487   5.098   0.004 -0.4136 -0.8232  1.0378
 5110SOL    MW420214   1.471   5.163   0.061  0.3293  0.0209  0.2896
 5111SOL     OW20215   1.070   3.044   4.214 -0.5963 -0.4470 -0.1287
 5111SOL    HW220216   1.111   2.984   4.152 -1.4246  1.2562 -2.4686
 5111SOL    HW320217   0.987   3.003   4.236 -1.2320 -0.1433 -1.8450
 5111SOL    MW420218   1.065   3.031   4.209  0.2968 -0.8939 -0.4547
 5112SOL     OW20219   2.438   5.417   0.434 -0.0334  0.4808  0.2893
 5112SOL    HW220220   2.363   5.415   0.493  1.2540 -0.4222  2.0312
 5112SOL    HW320221   2.493   5.487   0.468 -0.1078  1.2014 -1.0240
 5112SOL    MW420222   2.436   5.426   0.447 -0.4785 -0.6001  0.1698
 5113SOL     OW20223   0.983   0.809   5.942 -0.6902 -0.4080 -0.2448
 5113SOL    HW220224   0.957   0.717   5.941 -1.1701 -0.2965 -2.1946
 5113SOL    HW320225   1.072   0.810   5.907  0.3564 -0.3340  2.2085
 5113SOL    MW420226   0.991   0.797   5.937  0.2423 -0.1780  0.3762
 5114SOL     OW20227   3.664   1.968   3.742 -0.4019 -0.3215  1.0739
 5114SOL    HW220228   3.701   1.910   3.808 -1.0077 -0.9913  0.8453
 5114SOL    HW320229   3.727   1.966   3.670 -1.0787 -1.8617  0.4738
 5114SOL    MW420230   3.677   1.960   3.741  0.1351  0.2477  0.0061
 5115SOL     OW20231   1.026   1.389   5.795 -0.3445 -0.6041 -0.7620
 5115SOL    HW220232   1.121   1.386   5.807 -0.3789 -1.0219 -0.5797
 5115SOL    HW320233   0.994   1.311   5.840 -1.1862  1.6774  3.0588
 5115SOL    MW420234   1.034   1.378   5.802 -0.0541  0.2789  0.3975
 5116SOL     OW20235   5.372   4.091   4.785 -0.2510 -0.4751 -0.3402
 5116SOL    HW220236   5.362   4.143   4.705 -1.1799 -1.7405 -1.0686
 5116SOL    HW320237   5.427   4.146   4.841 -0.8582  1.1266 -1.2237
 5116SOL    MW420238   5.378   4.105   4.782 -0.0417 -1.0098 -0.1499
 5117SOL     OW20239   5.275   0.283   5.249  0.1574  0.3650  0.4045
 5117SOL    HW220240   5.369   0.294   5.233  0.5654  0.9640  2.7421
 5117SOL    HW320241   5.233   0.310   5.168  2.0245 -1.0860 -1.1333
 5117SOL    MW420242   5.282   0.288   5.236  0.5032  0.6318  0.0590
 5118SOL     OW20243   1.393   5.997   1.515  0.6296  0.7415 -0.3016
 5118SOL    HW220244   1.380   6.043   1.432 -1.7948 -0.4965 -0.7108
 5118SOL    HW320245   1.419   5.908   1.490 -3.8592 -0.8804 -0.1411
 5118SOL    MW420246   1.395   5.991   1.501  0.0073 -0.6553 -0.2482
 5119SOL     OW20247   4.686   1.287   3.426  0.3717 -0.5678 -0.1353
 5119SOL    HW220248   4.651   1.376   3.429  0.6312 -0.4151 -1.1294
 5119SOL    HW320249   4.779   1.296   3.444  0.2033 -0.7803  0.8853
 5119SOL    MW420250   4.693   1.300   3.429  0.0791  0.4283  0.0924
 5120SOL     OW20251   3.198   5.233   3.960 -0.0306  0.7927 -0.6944
 5120SOL    HW220252   3.131   5.262   4.021 -0.9434 -1.5917 -0.4629
 5120SOL    HW320253   3.280   5.243   4.008 -0.4597  1.3753 -0.0638
 5120SOL    MW420254   3.200   5.238   3.974  0.1253 -0.0929 -0.5976
 5121SOL     OW20255   3.018   3.438   3.123  0.4626  0.4447  0.9612
 5121SOL    HW220256   3.112   3.430   3.106  0.8334  2.1178  2.0182
 5121SOL    HW320257   3.011   3.449   3.217 -0.9229 -0.7771  1.0435
 5121SOL    MW420258   3.030   3.438   3.133 -0.2591 -0.6850  0.4165
 5122SOL     OW20259   4.167   3.787   2.951 -0.3970  0.1270 -0.1221
 5122SOL    HW220260   4.079   3.764   2.982 -1.1274  1.3777 -1.1553
 5122SOL    HW320261   4.215   3.704   2.954 -1.6464 -0.6247  0.3196
 5122SOL    MW420262   4.162   3.773   2.956  0.1746  0.4382 -0.0512
 5123SOL     OW20263   1.026   1.534   5.012  0.1523 -0.5173  0.0034
 5123SOL    HW220264   0.966   1.607   5.022  1.4063  0.3598  1.4903
 5123SOL    HW320265   0.974   1.457   5.037 -1.0935 -0.1578 -1.3113
 5123SOL    MW420266   1.011   1.533   5.017  0.1735  1.2676  0.3843
 5124SOL     OW20267   4.785   1.577   4.828 -0.5625 -0.1314  0.4643
 5124SOL    HW220268   4.846   1.636   4.874 -0.3409 -0.2093  0.2751
 5124SOL    HW320269   4.822   1.569   4.740  0.3749 -1.9216  0.9756
 5124SOL    MW420270   4.798   1.584   4.822  0.3082 -0.7714  0.0377
 5125SOL     OW20271   5.971   5.722   5.376  0.0061  0.3151  0.1072
 5125SOL    HW220272   5.947   5.644   5.326 -0.3984  0.7074 -0.3168
 5125SOL    HW320273   5.908   5.724   5.448 -0.3964  0.6041 -0.2482
 5125SOL    MW420274   5.960   5.712   5.379  0.1213  0.4573 -0.4341
 5126SOL     OW20275   5.247   3.363   1.090 -0.3848  0.3435 -0.3554
 5126SOL    HW220276   5.204   3.286   1.126  1.2027  0.2487  1.5006
 5126SOL    HW320277   5.193   3.388   1.015 -0.9835 -2.5373 -1.0097
 5126SOL    MW420278   5.235   3.356   1.085 -0.1183  0.3962  0.4822
 5127SOL     OW20279   1.786   6.149   4.426  0.1676 -0.2047 -0.3272
 5127SOL    HW220280   1.752   6.213   4.364 -1.2771 -1.5852 -1.0296
 5127SOL    HW320281   1.739   6.167   4.507  0.3412  0.1224 -0.2986
 5127SOL    MW420282   1.775   6.160   4.428 -0.2476  0.0747  0.9571
 5128SOL     OW20283   5.740   3.063   1.820 -0.1995 -0.3831 -0.2106
 5128SOL    HW220284   5.656   3.095   1.853  0.9012  1.2517  1.2408
 5128SOL    HW320285   5.738   3.083   1.727 -0.5256  1.8849  0.2217
 5128SOL    MW420286   5.728   3.070   1.812  0.3907 -0.2054  0.0343
 5129SOL     OW20287   3.441   5.437   4.534  0.8674 -0.4629  0.1284
 5129SOL    HW220288   3.491   5.518   4.551  0.4334  0.0419 -0.8978
 5129SOL    HW320289   3.396   5.454   4.451  1.6327 -2.1813 -0.6782
 5129SOL    MW420290   3.442   5.450   4.526 -0.1952  0.4218 -0.5210
 5130SOL     OW20291   3.232   4.439   3.644 -0.4473 -0.5361  0.0821
 5130SOL    HW220292   3.153   4.491   3.631  1.1442  2.1296  0.4244
 5130SOL    HW320293   3.285   4.490   3.704  2.7657 -0.7637 -2.2906
 5130SOL    MW420294   3.229   4.452   3.650  0.3746  0.0953 -0.0101
 5131SOL     OW20295   0.390   2.329   4.660 -0.1034 -0.1452 -0.4219
 5131SOL    HW220296   0.431   2.308   4.576  0.4438  0.5829 -0.3460
 5131SOL    HW320297   0.302   2.358   4.638  0.0165 -0.0215 -0.7424
 5131SOL    MW420298   0.384   2.330   4.646  0.1456 -0.5553 -0.1253
 5132SOL     OW20299   5.306   1.408   5.085 -0.4149  0.1218  0.1993
 5132SOL    HW220300   5.362   1.400   5.007  1.2573  0.0130  1.3442
 5132SOL    HW320301   5.239   1.341   5.073 -1.0219  0.9898 -1.7501
 5132SOL    MW420302   5.305   1.398   5.073 -0.4781 -0.0357 -0.2361
 5133SOL     OW20303   4.204   4.343   3.462  0.0436  0.0340 -0.3001
 5133SOL    HW220304   4.175   4.267   3.411 -1.1243  0.2872 -0.0397
 5133SOL    HW320305   4.295   4.323   3.485 -1.0521 -2.7511  2.3348
 5133SOL    MW420306   4.212   4.330   3.459 -0.9517  0.2377  0.7300
 5134SOL     OW20307   2.776   5.145   2.817  0.6230 -0.0505  0.0367
 5134SOL    HW220308   2.868   5.160   2.836  0.9522 -0.7830 -0.9115
 5134SOL    HW320309   2.776   5.079   2.747 -0.6036  0.2461 -0.2666
 5134SOL    MW420310   2.788   5.138   2.811 -0.5147  0.1656  0.5971
 5135SOL     OW20311   3.821   6.301   0.201  0.7198  0.3271 -0.4212
 5135SOL    HW220312   3.806   6.264   0.114  1.2911 -0.0874 -0.3493
 5135SOL    HW320313   3.877   6.237   0.245  0.0797  0.3080  0.4068
 5135SOL    MW420314   3.826   6.288   0.195  0.2700  0.4967  0.1763
 5136SOL     OW20315   0.931   1.010   5.181  0.0301  0.0976  0.4168
 5136SOL    HW220316   0.959   0.920   5.197  2.7036  1.0761  1.8331
 5136SOL    HW320317   0.976   1.034   5.099 -1.0247  0.0470 -0.1944
 5136SOL    MW420318   0.941   1.002   5.172  0.5859 -0.1515 -0.3956
 5137SOL     OW20319   0.502   0.156   4.892 -0.6723  0.5498  0.3946
 5137SOL    HW220320   0.585   0.114   4.870 -0.4365  0.4236  1.4885
 5137SOL    HW320321   0.438   0.113   4.835  0.0609  0.9385 -0.7598
 5137SOL    MW420322   0.504   0.145   4.882  0.0059 -0.1300  0.1639
 5138SOL     OW20323   5.519   2.813   3.964  0.4773  0.5616 -0.1359
 5138SOL    HW220324   5.475   2.887   3.925  2.3353  2.6894  1.5037
 5138SOL    HW320325   5.611   2.825   3.941  0.9769 -0.5762  1.1294
 5138SOL    MW420326   5.525   2.824   3.956 -0.0383 -0.3175 -0.2573
 5139SOL     OW20327   5.589   6.082   5.971 -0.0600 -0.1385 -0.0778
 5139SOL    HW220328   5.519   6.119   5.918 -0.7522 -2.4647 -0.9418
 5139SOL    HW320329   5.665   6.080   5.913  0.3732  1.1003  0.4113
 5139SOL    MW420330   5.590   6.086   5.957 -0.8149  0.0902  0.1704
 5140SOL     OW20331   1.995   5.619   3.782  0.2451 -0.0726  0.8878
 5140SOL    HW220332   2.077   5.614   3.832 -1.1272 -2.3904  3.1378
 5140SOL    HW320333   1.964   5.529   3.777 -1.5982  0.5791 -0.9849
 5140SOL    MW420334   2.002   5.607   3.788  0.0874 -0.1863  0.8863
 5141SOL     OW20335   2.461   1.468   3.307 -0.0684 -0.5606 -0.5398
 5141SOL    HW220336   2.522   1.526   3.353  1.2414 -1.8325 -0.5678
 5141SOL    HW320337   2.376   1.486   3.346  0.7694 -0.6190  1.4640
 5141SOL    MW420338   2.458   1.478   3.318 -0.0623  0.3149 -0.0398
 5142SOL     OW20339   4.383   4.397   2.838 -0.1604 -0.2525  0.1566
 5142SOL    HW220340   4.443   4.374   2.767 -1.3048 -0.6981 -0.7229
 5142SOL    HW320341   4.433   4.453   2.896  0.8637  0.0181 -0.9509
 5142SOL    MW420342   4.397   4.401   2.836 -0.0794 -0.2293  0.4086
 5143SOL     OW20343   4.391   6.153   4.127 -0.0861 -0.0372 -0.6067
 5143SOL    HW220344   4.442   6.233   4.113  1.2643 -0.7494  0.1429
 5143SOL    HW320345   4.336   6.172   4.202 -1.0486  0.7698 -1.4817
 5143SOL    MW420346   4.390   6.166   4.135  0.5405  0.0122 -0.4143
 5144SOL     OW20347   5.179   0.187   4.082 -0.4371  0.2978  0.4873
 5144SOL    HW220348   5.191   0.276   4.048  2.5275 -0.1880  0.0108
 5144SOL    HW320349   5.163   0.133   4.005  0.4027  0.0649  0.4637
 5144SOL    MW420350   5.178   0.192   4.067  0.0576  0.3385 -0.6211
 5145SOL     OW20351   3.782   6.268   1.512 -0.1966 -0.3218  0.1591
 5145SOL    HW220352   3.753   6.245   1.600 -0.3899 -1.6536 -0.2246
 5145SOL    HW320353   3.816   6.186   1.476  2.2387  0.7280 -0.1322
 5145SOL    MW420354   3.783   6.254   1.519 -0.0213 -0.1495 -0.0565
 5146SOL     OW20355   2.678   2.703   0.677  0.5449  0.0003 -0.3957
 5146SOL    HW220356   2.598   2.686   0.627  1.2244 -3.3945 -0.5758
 5146SOL    HW320357   2.653   2.690   0.768  0.2608  2.1026 -0.1142
 5146SOL    MW420358   2.664   2.699   0.683  0.0487  0.2629 -0.4213
 5147SOL     OW20359   1.312   6.315   0.844 -0.0725 -0.9255 -0.4634
 5147SOL    HW220360   1.295   6.258   0.919 -0.1446 -0.0180  0.2193
 5147SOL    HW320361   1.373   6.381   0.877 -0.1640 -0.4726 -1.1788
 5147SOL    MW420362   1.318   6.316   0.858  0.7735  0.2100 -0.3138
 5148SOL     OW20363   0.025   3.326   1.858  0.1417 -0.5367 -0.2451
 5148SOL    HW220364  -0.017   3.245   1.889  0.6376 -1.2750 -1.4107
 5148SOL    HW320365  -0.021   3.346   1.776 -0.4528  0.7896  0.3813
 5148SOL    MW420366   0.013   3.318   1.851 -0.6555  0.0832  0.2431
 5149SOL     OW20367   1.107   2.478   6.086 -0.2594  0.1998 -0.0647
 5149SOL    HW220368   1.146   2.466   5.999  0.0677 -0.8465  0.2052
 5149SOL    HW320369   1.123   2.570   6.107 -0.4590  0.4944 -1.1654
 5149SOL    MW420370   1.114   2.488   6.077 -0.5680 -0.1309 -0.6200
 5150SOL     OW20371   1.233   4.753   0.395 -0.3607 -0.6669  0.9369
 5150SOL    HW220372   1.156   4.808   0.386  1.1718  1.4830  0.0298
 5150SOL    HW320373   1.219   4.682   0.332 -1.0530  0.4014 -0.1591
 5150SOL    MW420374   1.221   4.751   0.385 -0.9153 -0.3488  0.3929
 5151SOL     OW20375   5.827   3.973   2.416  0.7521  0.4495 -0.0559
 5151SOL    HW220376   5.779   4.055   2.417  1.7397  1.1594 -2.5963
 5151SOL    HW320377   5.832   3.946   2.507 -1.4347  2.0965  0.6144
 5151SOL    MW420378   5.822   3.980   2.428 -0.2009 -0.5257 -0.5128
 5152SOL     OW20379   2.437   1.603   1.098  0.1956  0.8837 -0.6287
 5152SOL    HW220380   2.520   1.648   1.111  0.8822 -0.0232 -1.6637
 5152SOL    HW320381   2.426   1.599   1.002 -1.2153  1.2858 -0.5170
 5152SOL    MW420382   2.446   1.608   1.087 -0.1710 -0.0178 -0.0329
 5153SOL     OW20383   3.894   3.277   4.062  0.4270 -0.3118  0.6464
 5153SOL    HW220384   3.945   3.309   4.137 -0.7186  0.7960  0.9898
 5153SOL    HW320385   3.960   3.250   3.999  1.4294 -0.3668  1.6743
 5153SOL    MW420386   3.909   3.278   4.064 -0.1631 -0.3295 -0.3046
 5154SOL     OW20387   5.110   1.211   5.249  0.2381 -0.0976  0.5304
 5154SOL    HW220388   5.152   1.156   5.183 -0.7509 -1.1082  0.7107
 5154SOL    HW320389   5.091   1.152   5.322  0.5640  0.8239  1.3875
 5154SOL    MW420390   5.113   1.196   5.250 -0.5113 -0.3017  0.2734
 5155SOL     OW20391   1.166   3.729   3.560 -0.5149 -0.0452  0.8490
 5155SOL    HW220392   1.167   3.790   3.634 -2.4419  1.2250 -0.0818
 5155SOL    HW320393   1.239   3.756   3.505 -1.3607  1.4986  0.4364
 5155SOL    MW420394   1.175   3.741   3.562  0.2443 -0.1070 -0.3344
 5156SOL     OW20395   5.107   0.154   1.416 -0.6303 -0.0847 -0.8859
 5156SOL    HW220396   5.184   0.098   1.408  0.8026  1.9859 -2.9422
 5156SOL    HW320397   5.142   0.243   1.419 -2.9096  0.8680 -0.4648
 5156SOL    MW420398   5.121   0.158   1.415 -0.2156  0.0700  0.2264
 5157SOL     OW20399   1.453   3.321   1.939  0.3142 -0.1055 -0.6996
 5157SOL    HW220400   1.513   3.382   1.982 -0.0489 -1.0864  1.3193
 5157SOL    HW320401   1.366   3.359   1.954  0.2013 -0.3104 -0.8387
 5157SOL    MW420402   1.450   3.334   1.947 -0.0473  0.5130 -0.3457
 5158SOL     OW20403   6.117   5.105   4.058 -0.7154  0.5342  0.2380
 5158SOL    HW220404   6.029   5.075   4.080  0.5997 -3.3470  0.9902
 5158SOL    HW320405   6.163   5.109   4.142 -0.0031  1.9353 -0.1962
 5158SOL    MW420406   6.111   5.101   4.072 -0.2683  0.2980  0.1992
 5159SOL     OW20407   4.914   2.779   1.798 -0.3249 -1.0933  0.4653
 5159SOL    HW220408   4.879   2.865   1.822 -0.8165 -1.7158  2.0809
 5159SOL    HW320409   4.851   2.744   1.736  0.1418 -0.1036 -0.6097
 5159SOL    MW420410   4.901   2.786   1.793 -0.1743  0.0613  0.0661
 5160SOL     OW20411   0.023   1.107   3.080 -0.3273  0.0347  0.3753
 5160SOL    HW220412  -0.045   1.129   3.144 -0.0187 -0.4947  0.8966
 5160SOL    HW320413   0.043   1.190   3.037 -1.3414  0.1940  0.1687
 5160SOL    MW420414   0.016   1.121   3.083 -0.3224  0.1961  0.4997
 5161SOL     OW20415   0.120   5.990   3.441 -0.3105  0.1272  0.4567
 5161SOL    HW220416   0.164   5.909   3.416 -1.1391 -0.2534  0.2064
 5161SOL    HW320417   0.104   5.980   3.535 -1.8336 -0.7345  0.1564
 5161SOL    MW420418   0.123   5.978   3.450  0.3609 -0.2883  0.1678
 5162SOL     OW20419   2.847   0.503   0.980  0.6403 -0.4855 -0.1223
 5162SOL    HW220420   2.923   0.467   0.934  1.6615  0.1056  1.0456
 5162SOL    HW320421   2.799   0.426   1.011  0.4920 -0.8659 -1.2387
 5162SOL    MW420422   2.850   0.488   0.978  0.5510 -0.2161  0.1295
 5163SOL     OW20423   0.273   4.200   2.102 -0.4195 -0.2684  0.4622
 5163SOL    HW220424   0.298   4.177   2.191  1.2154 -1.4324 -0.2640
 5163SOL    HW320425   0.221   4.125   2.072 -1.2928  0.2891  0.5304
 5163SOL    MW420426   0.269   4.187   2.110  0.2196 -0.0695 -0.3285
 5164SOL     OW20427   5.581   1.406   5.543 -0.4470  0.0493  0.5080
 5164SOL    HW220428   5.562   1.430   5.452 -1.2844 -1.4651  0.2436
 5164SOL    HW320429   5.521   1.460   5.594 -0.8134  0.0710  0.0680
 5164SOL    MW420430   5.570   1.416   5.537 -1.0262  0.3619  0.4058
 5165SOL     OW20431   2.237   6.251   5.874 -0.0025 -0.1634 -0.3174
 5165SOL    HW220432   2.325   6.234   5.909  0.2600 -1.8340 -1.6126
 5165SOL    HW320433   2.182   6.185   5.917 -0.6422  0.8859  0.4960
 5165SOL    MW420434   2.241   6.240   5.884 -0.2001 -0.0397 -0.8796
 5166SOL     OW20435   3.440   0.506   1.231 -0.1767  0.2336 -0.0208
 5166SOL    HW220436   3.400   0.581   1.187 -0.0760 -0.3910 -1.2456
 5166SOL    HW320437   3.519   0.487   1.180 -1.2715 -1.9571 -1.0633
 5166SOL    MW420438   3.445   0.513   1.218 -0.0756  0.3402 -0.1552
 5167SOL     OW20439   0.816   6.080   6.165  0.1123  0.2573 -0.6825
 5167SOL    HW220440   0.893   6.028   6.188 -0.2798  0.6507  1.8379
 5167SOL    HW320441   0.835   6.167   6.199 -1.1506  0.5520 -0.6656
 5167SOL    MW420442   0.829   6.085   6.172  0.1496  0.2821  0.1644
 5168SOL     OW20443   5.871   4.316   3.224  0.1793  0.0855  0.1447
 5168SOL    HW220444   5.936   4.270   3.277  0.4882  0.0951 -0.2208
 5168SOL    HW320445   5.878   4.276   3.137 -0.3195  0.0699  0.1083
 5168SOL    MW420446   5.880   4.304   3.220  0.7393  0.6098  0.3739
 5169SOL     OW20447   1.178   2.917   2.349  0.1769 -0.4596 -0.4338
 5169SOL    HW220448   1.233   2.927   2.271  0.1011  0.9344 -0.3384
 5169SOL    HW320449   1.101   2.868   2.317 -0.4015  1.0718 -1.5561
 5169SOL    MW420450   1.175   2.912   2.334 -0.2130  0.3891  0.1489
 5170SOL     OW20451   1.695   2.862   4.933  0.5172 -0.1252  0.2540
 5170SOL    HW220452   1.724   2.933   4.990 -1.8457  0.7874  0.4227
 5170SOL    HW320453   1.670   2.905   4.852  0.9573 -1.0396 -0.3841
 5170SOL    MW420454   1.695   2.877   4.930  0.1014 -0.3127  0.0356
 5171SOL     OW20455   0.770   1.841   2.147  0.1968  0.1519 -0.2167
 5171SOL    HW220456   0.836   1.799   2.202  0.3512  1.1075  0.3460
 5171SOL    HW320457   0.743   1.773   2.085  2.0259 -0.1197 -0.7535
 5171SOL    MW420458   0.775   1.827   2.146  0.3834  0.3004  0.1005
 5172SOL     OW20459   2.159   0.938   4.403 -0.1137  0.4165 -0.0559
 5172SOL    HW220460   2.078   0.938   4.455  0.0988  0.6000  0.2866
 5172SOL    HW320461   2.147   0.868   4.340 -0.0160 -0.4064  0.8208
 5172SOL    MW420462   2.146   0.929   4.402  0.2563  1.0706 -0.6960
 5173SOL     OW20463   2.162   2.530   4.532 -0.4531  0.2439 -0.3810
 5173SOL    HW220464   2.097   2.467   4.565 -0.6427  0.7755  0.2886
 5173SOL    HW320465   2.171   2.508   4.439 -0.1577 -1.0902 -0.0697
 5173SOL    MW420466   2.155   2.518   4.524 -0.6796  0.5207  0.1154
 5174SOL     OW20467   5.999   3.652   0.037 -0.1888 -0.2681 -0.0507
 5174SOL    HW220468   6.044   3.571   0.061  0.7987  0.0441 -0.7947
 5174SOL    HW320469   5.984   3.644  -0.057 -0.7306  0.1127 -0.0034
 5174SOL    MW420470   6.003   3.640   0.028  0.2668  0.2832  0.0850
 5175SOL     OW20471   0.145   2.453   1.696 -0.7441 -0.2334 -0.3401
 5175SOL    HW220472   0.171   2.361   1.704 -1.2368 -0.4512 -1.2274
 5175SOL    HW320473   0.050   2.451   1.692 -0.8639  0.4481  1.1888
 5175SOL    MW420474   0.136   2.441   1.697 -0.0367 -0.1589 -0.1085
 5176SOL     OW20475   5.708   0.719   4.321 -0.8139 -0.2834  0.0507
 5176SOL    HW220476   5.689   0.631   4.352  0.4655 -0.9530 -0.9565
 5176SOL    HW320477   5.771   0.753   4.385  1.5547 -1.5332 -1.4879
 5176SOL    MW420478   5.714   0.712   4.334 -0.0058  0.2262  0.2825
 5177SOL     OW20479   4.769   4.957   2.205 -0.2041 -0.2069  0.0875
 5177SOL    HW220480   4.744   4.989   2.292  1.6034  0.9587  0.2579
 5177SOL    HW320481   4.862   4.934   2.215 -0.1380 -0.6301 -1.3731
 5177SOL    MW420482   4.778   4.958   2.218  0.0085 -0.3087  0.2571
 5178SOL     OW20483   3.158   2.573   0.948 -0.5672 -0.1219  0.1622
 5178SOL    HW220484   3.107   2.631   1.004  0.4261  0.5007  0.4459
 5178SOL    HW320485   3.146   2.609   0.860 -0.9114 -0.2018  0.1747
 5178SOL    MW420486   3.150   2.586   0.944  0.0387 -0.1986 -0.4651
 5179SOL     OW20487   3.859   4.643   5.740  0.6333  0.3574 -0.2792
 5179SOL    HW220488   3.898   4.625   5.654 -0.3433  0.1629 -0.7076
 5179SOL    HW320489   3.931   4.675   5.793  1.1015  1.3439 -1.4425
 5179SOL    MW420490   3.873   4.645   5.735 -0.0144 -0.7415 -0.3794
 5180SOL     OW20491   0.202   6.000   0.244  0.4688 -0.3022 -0.1656
 5180SOL    HW220492   0.207   6.033   0.334  0.8240 -0.5079 -0.1068
 5180SOL    HW320493   0.293   5.982   0.220  0.2534 -1.7737  0.0121
 5180SOL    MW420494   0.215   6.002   0.253 -0.1133 -0.3965  0.1869
 5181SOL     OW20495   0.076   1.517   3.658  0.1449 -0.3349  0.0508
 5181SOL    HW220496   0.106   1.440   3.706  0.1613  0.2318  0.9767
 5181SOL    HW320497  -0.019   1.515   3.665  0.0927 -0.6820 -0.6032
 5181SOL    MW420498   0.068   1.507   3.665 -0.2806 -0.2139  0.1525
 5182SOL     OW20499   1.088   0.063   5.305 -0.2405  0.3748  0.1628
 5182SOL    HW220500   1.119   0.033   5.391  0.4013 -1.2965 -0.5987
 5182SOL    HW320501   0.993   0.067   5.314 -0.3974 -2.1525  0.3103
 5182SOL    MW420502   1.080   0.059   5.317 -0.0856  0.2579 -0.4214
 5183SOL     OW20503   1.491   4.276   4.221 -0.1954 -0.0786 -0.1022
 5183SOL    HW220504   1.426   4.344   4.205  0.5048  0.7861  0.6597
 5183SOL    HW320505   1.475   4.211   4.152 -0.5855  1.0584 -1.1124
 5183SOL    MW420506   1.481   4.276   4.210 -0.3218  0.0620  0.0059
 5184SOL     OW20507   2.761   4.484   4.482  0.3201  0.0426  0.1305
 5184SOL    HW220508   2.854   4.496   4.504  0.4835  0.3471 -0.6692
 5184SOL    HW320509   2.715   4.546   4.538  0.5158 -0.6708  1.1062
 5184SOL    MW420510   2.767   4.494   4.493  0.8611  0.2181 -0.2029
 5185SOL     OW20511   2.001   2.374   1.134 -0.5959  0.2720  0.0196
 5185SOL    HW220512   2.058   2.425   1.077 -0.5065 -0.3078 -0.4232
 5185SOL    HW320513   2.059   2.335   1.199 -0.4512 -0.4139 -0.5012
 5185SOL    MW420514   2.016   2.375   1.135 -0.6409 -0.3289  0.0324
 5186SOL     OW20515   0.712   2.020   4.608  0.3232  0.5013 -0.2091
 5186SOL    HW220516   0.789   2.015   4.664  0.1940  1.5992  0.0908
 5186SOL    HW320517   0.746   2.030   4.519  0.5257 -0.0263 -0.1911
 5186SOL    MW420518   0.726   2.021   4.604  0.2435  0.0997 -0.1534
 5187SOL     OW20519   3.976   5.107   1.372 -0.5354  0.0213 -0.4419
 5187SOL    HW220520   3.994   5.086   1.280  2.5499 -1.2812  0.3324
 5187SOL    HW320521   4.049   5.161   1.400 -1.0618 -0.1453  1.4302
 5187SOL    MW420522   3.988   5.111   1.363  0.3281  0.0455  0.3245
 5188SOL     OW20523   5.653   1.279   1.306 -0.3781  0.1499 -0.2881
 5188SOL    HW220524   5.692   1.248   1.387  0.3051  0.9130 -0.3186
 5188SOL    HW320525   5.594   1.349   1.333 -0.2790  0.2896 -0.4377
 5188SOL    MW420526   5.650   1.284   1.320  0.3715  0.4297 -0.4436
 5189SOL     OW20527   5.789   4.068   1.480  0.6528  0.3555 -0.1569
 5189SOL    HW220528   5.749   4.019   1.408 -0.9749 -0.3814  1.1849
 5189SOL    HW320529   5.763   4.159   1.464  0.0076  0.1489 -0.3329
 5189SOL    MW420530   5.780   4.073   1.468  0.4542 -0.0535 -0.0688
 5190SOL     OW20531   0.639   4.636   2.169 -0.0174  0.0394  0.0768
 5190SOL    HW220532   0.658   4.703   2.104 -0.5096  1.1719  1.0629
 5190SOL    HW320533   0.637   4.683   2.253  0.1479 -1.2903  0.8670
 5190SOL    MW420534   0.642   4.651   2.172  0.3858 -0.0826 -0.0965
 5191SOL     OW20535   2.923   3.474   2.852  0.1196  0.3516  0.4453
 5191SOL    HW220536   2.834   3.490   2.886  0.2728  2.1958  0.0935
 5191SOL    HW320537   2.966   3.424   2.922 -0.8827  0.3565  1.0917
 5191SOL    MW420538   2.917   3.470   2.866 -0.0137 -0.6711  0.3937
 5192SOL     OW20539   4.092   6.413   2.065 -0.5793  0.0490 -0.4952
 5192SOL    HW220540   4.048   6.430   2.148 -2.0688 -0.2853 -1.1915
 5192SOL    HW320541   4.077   6.492   2.013 -0.8380 -0.2805 -0.9331
 5192SOL    MW420542   4.084   6.426   2.069  0.0167 -0.3325 -0.4314
 5193SOL     OW20543   2.036   5.146   2.104 -0.1563 -0.3041 -0.0685
 5193SOL    HW220544   1.993   5.230   2.091 -0.9005 -0.7131 -0.3531
 5193SOL    HW320545   2.130   5.165   2.102 -0.3250  0.5281 -0.0060
 5193SOL    MW420546   2.043   5.159   2.102 -1.2245 -0.8357  0.6885
 5194SOL     OW20547   0.702   1.410   5.607 -0.5823 -0.0285  0.4233
 5194SOL    HW220548   0.767   1.347   5.576 -0.2428  0.8392 -0.7152
 5194SOL    HW320549   0.641   1.358   5.660  0.2091 -1.1242  0.2972
 5194SOL    MW420550   0.703   1.395   5.610 -0.7043  0.3473 -0.1709
 5195SOL     OW20551   2.021   3.869   0.833 -0.5644  0.3750  0.2926
 5195SOL    HW220552   2.017   3.807   0.906 -0.3012 -0.2585 -0.2243
 5195SOL    HW320553   2.005   3.816   0.755  1.6583  0.5629 -0.3636
 5195SOL    MW420554   2.018   3.854   0.832  0.4911 -0.5316  0.0489
 5196SOL     OW20555   0.380   3.541   4.193 -0.0337 -0.4123  0.0542
 5196SOL    HW220556   0.470   3.554   4.223 -0.1101 -0.0559  0.1282
 5196SOL    HW320557   0.344   3.629   4.185 -0.7664 -0.5937  1.1972
 5196SOL    MW420558   0.387   3.554   4.196  0.4284 -0.0239 -0.0855
 5197SOL     OW20559   1.722   0.366   0.682  0.0982  0.1846 -0.4475
 5197SOL    HW220560   1.730   0.347   0.776  0.2165 -0.8174 -0.6589
 5197SOL    HW320561   1.808   0.348   0.646  1.3108  4.2920 -0.1666
 5197SOL    MW420562   1.734   0.361   0.690 -0.0048  0.3635  0.3911
 5198SOL     OW20563   0.788   6.254   0.172 -0.4057  0.1026  0.0284
 5198SOL    HW220564   0.835   6.305   0.239  1.4376 -2.1512  0.5693
 5198SOL    HW320565   0.699   6.247   0.206 -0.0982  0.9527  1.0974
 5198SOL    MW420566   0.783   6.260   0.185  0.2748  0.3598 -0.0283
 5199SOL     OW20567   1.060   2.496   5.499  0.0166 -0.0458 -0.9999
 5199SOL    HW220568   1.090   2.407   5.515  0.5818  0.4396  0.9033
 5199SOL    HW320569   1.140   2.548   5.499 -0.4915  0.8154  0.7471
 5199SOL    MW420570   1.075   2.491   5.501  0.1019  0.1111  0.4830
 5200SOL     OW20571   2.052   5.098   6.323 -0.5085  0.3766 -0.1272
 5200SOL    HW220572   1.968   5.079   6.282 -0.2069 -0.4814 -0.3485
 5200SOL    HW320573   2.039   5.184   6.364 -0.9394  1.0811 -1.6595
 5200SOL    MW420574   2.039   5.107   6.323 -1.2337  0.2704 -0.0171
 5201SOL     OW20575   0.910   1.342   4.072  0.1065  0.2563 -0.1762
 5201SOL    HW220576   0.996   1.311   4.100  0.3486  1.4255  0.4400
 5201SOL    HW320577   0.927   1.387   3.989  0.2206  1.0501  0.2625
 5201SOL    MW420578   0.924   1.344   4.065  0.2890 -0.1327 -0.0675
 5202SOL     OW20579   6.189   2.263   0.775  0.0613  0.0245  0.5894
 5202SOL    HW220580   6.111   2.219   0.807 -0.2271  0.8900  1.1377
 5202SOL    HW320581   6.245   2.193   0.742 -1.1545 -0.5655 -0.3051
 5202SOL    MW420582   6.186   2.248   0.775  0.7831 -0.3391 -0.4189
 5203SOL     OW20583   3.294   0.440   5.502 -0.9828 -0.0896  0.1589
 5203SOL    HW220584   3.285   0.531   5.529 -0.3090 -0.3604  1.3561
 5203SOL    HW320585   3.249   0.390   5.570 -0.6964 -0.6880 -0.0859
 5203SOL    MW420586   3.287   0.445   5.515 -0.5348 -0.5139 -0.4040
 5204SOL     OW20587   4.089   4.391   2.784 -0.1353  0.7588  0.2212
 5204SOL    HW220588   4.184   4.394   2.797 -0.4051  1.8060  2.3276
 5204SOL    HW320589   4.068   4.473   2.740 -0.0838  0.4801 -0.3416
 5204SOL    MW420590   4.099   4.402   2.780  0.1350  0.5003 -0.0937
 5205SOL     OW20591   0.797   1.345   2.252  0.3441  0.4036  0.6179
 5205SOL    HW220592   0.729   1.323   2.189 -1.2292  1.2306  1.9458
 5205SOL    HW320593   0.874   1.296   2.223 -0.2538  0.8790 -2.0128
 5205SOL    MW420594   0.798   1.336   2.240 -0.1631 -0.1047 -0.4650
 5206SOL     OW20595   6.324   6.023   5.886  0.4217 -0.2069  0.7363
 5206SOL    HW220596   6.272   5.957   5.931  2.3503 -1.9146  0.5896
 5206SOL    HW320597   6.370   5.975   5.817  0.2270  1.7119 -0.8222
 5206SOL    MW420598   6.323   6.008   5.883 -0.3818  0.1080 -0.1173
 5207SOL     OW20599   0.725   1.102   4.105 -0.4494  0.0369  0.2429
 5207SOL    HW220600   0.738   1.053   4.185 -2.0059  1.8628  1.7068
 5207SOL    HW320601   0.805   1.155   4.096  0.1402 -0.8679  0.0286
 5207SOL    MW420602   0.738   1.103   4.114  0.5532  0.2727  0.5380
 5208SOL     OW20603   2.632   5.723   2.107 -0.3872  0.3109  0.2370
 5208SOL    HW220604   2.631   5.722   2.011 -1.5202  2.9856  0.1289
 5208SOL    HW320605   2.715   5.683   2.130 -0.4666 -1.2448 -1.7913
 5208SOL    MW420606   2.643   5.718   2.097  0.2746  0.4178 -0.2996
 5209SOL     OW20607   0.906   5.929   0.775  0.3411 -0.0731  0.4498
 5209SOL    HW220608   0.985   5.895   0.817  0.2529  2.0086  2.4862
 5209SOL    HW320609   0.851   5.958   0.847 -1.2707  0.7019 -1.0256
 5209SOL    MW420610   0.909   5.928   0.790  0.2984 -0.5271 -0.3009
 5210SOL     OW20611   1.926   1.778   4.043 -0.3574  0.7033  0.0991
 5210SOL    HW220612   1.852   1.774   4.103  0.7993  0.6082  1.5763
 5210SOL    HW320613   2.003   1.785   4.100  0.8408 -0.0271 -1.3457
 5210SOL    MW420614   1.926   1.778   4.058  0.3351  0.1197  0.7055
 5211SOL     OW20615   3.305   0.543   1.592  0.0255 -0.2678  0.4957
 5211SOL    HW220616   3.320   0.565   1.684  1.4790 -0.5902  0.3638
 5211SOL    HW320617   3.391   0.518   1.560 -0.5845 -0.7684 -0.7967
 5211SOL    MW420618   3.318   0.542   1.600  0.1925 -0.1873 -0.0902
 5212SOL     OW20619   5.999   2.712   5.662 -0.0855  0.8566  0.5154
 5212SOL    HW220620   6.024   2.797   5.697 -0.0641  0.7235  0.8283
 5212SOL    HW320621   5.922   2.686   5.713 -0.1594  0.7371  0.3470
 5212SOL    MW420622   5.992   2.720   5.673 -0.0500  0.2029  0.2356
 5213SOL     OW20623   3.887   3.527   5.021 -0.0921 -0.5784 -0.3610
 5213SOL    HW220624   3.836   3.449   5.039  0.3013 -0.4231  1.6726
 5213SOL    HW320625   3.978   3.502   5.039  0.2083 -0.0004 -0.9718
 5213SOL    MW420626   3.892   3.513   5.025 -0.3518 -0.0778  0.8340
 5214SOL     OW20627   3.336   3.612   4.132 -0.1763  0.4240 -0.4111
 5214SOL    HW220628   3.260   3.671   4.129 -0.7057 -0.2320 -0.0659
 5214SOL    HW320629   3.299   3.526   4.148  0.6866  0.1584  0.2073
 5214SOL    MW420630   3.321   3.609   4.134  0.2587 -0.0756 -0.9125
 5215SOL     OW20631   3.456   1.808   1.873  0.2926 -0.4153  0.3914
 5215SOL    HW220632   3.506   1.734   1.837  0.9020  0.4744 -0.6735
 5215SOL    HW320633   3.514   1.846   1.939  0.8500  0.3258 -0.5044
 5215SOL    MW420634   3.471   1.803   1.877 -0.1486  0.3094 -0.1244
 5216SOL     OW20635   5.818   4.383   0.058 -0.0436 -0.1524 -0.1059
 5216SOL    HW220636   5.802   4.289   0.058 -0.1196 -0.1420  0.9572
 5216SOL    HW320637   5.913   4.391   0.054 -0.0154 -0.2747  0.3803
 5216SOL    MW420638   5.828   4.372   0.057 -0.1991  0.2315 -0.7732
 5217SOL     OW20639   1.895   0.215   2.146  0.0912 -0.2355 -0.5286
 5217SOL    HW220640   1.893   0.127   2.110 -0.6195  0.0009 -1.0858
 5217SOL    HW320641   1.803   0.241   2.153  0.2421  0.0350  0.7068
 5217SOL    MW420642   1.883   0.207   2.142 -0.1128 -0.3818 -0.4090
 5218SOL     OW20643   1.754   2.716   2.215 -0.3233  0.0227  0.3831
 5218SOL    HW220644   1.802   2.637   2.239 -0.3527 -0.2663 -0.4917
 5218SOL    HW320645   1.704   2.692   2.137 -3.1090 -0.1346  2.0651
 5218SOL    MW420646   1.754   2.703   2.208 -0.2498  0.0446 -0.4019
 5219SOL     OW20647   2.304   4.331   2.638  0.1718  0.5282 -0.2005
 5219SOL    HW220648   2.297   4.397   2.706  1.6264 -0.7701  1.3055
 5219SOL    HW320649   2.221   4.284   2.641  0.7420 -0.4387  1.7442
 5219SOL    MW420650   2.292   4.333   2.647  0.4383 -0.1492 -0.0303
 5220SOL     OW20651   2.989   0.744   1.564 -0.2242 -0.6978  0.0758
 5220SOL    HW220652   3.007   0.662   1.610  3.8598  0.7337  1.5321
 5220SOL    HW320653   2.985   0.810   1.633 -0.4706  0.7253 -1.2416
 5220SOL    MW420654   2.991   0.742   1.579 -0.2679 -0.0935  0.3194
 5221SOL     OW20655   5.355   2.595   5.055 -0.7619  0.8821 -0.0959
 5221SOL    HW220656   5.435   2.544   5.069 -2.1368 -1.6436 -0.8506
 5221SOL    HW320657   5.377   2.657   4.986  0.1642 -0.8768 -1.4705
 5221SOL    MW420658   5.368   2.597   5.048  1.2808  0.1693  0.0581
 5222SOL     OW20659   0.921   0.664   4.197 -0.2219  0.9138  0.6816
 5222SOL    HW220660   0.948   0.630   4.112 -2.7592  0.1686  0.1017
 5222SOL    HW320661   0.912   0.758   4.184  0.6605  0.9858  0.5218
 5222SOL    MW420662   0.924   0.672   4.184  0.1829 -0.0798  0.8038
 5223SOL     OW20663   0.998   5.086   5.638  0.2520 -0.3313  0.3076
 5223SOL    HW220664   0.911   5.084   5.597  1.0733  0.7546 -1.5778
 5223SOL    HW320665   0.979   5.102   5.731 -1.5474  2.1671 -0.3738
 5223SOL    MW420666   0.984   5.088   5.645 -1.0430 -0.6345  0.0093
 5224SOL     OW20667   0.634   1.982   6.280  0.3409  0.3630 -0.0383
 5224SOL    HW220668   0.663   2.039   6.209 -0.3015 -0.5867 -1.1075
 5224SOL    HW320669   0.564   2.032   6.323  2.9425  2.4270  2.2134
 5224SOL    MW420670   0.628   1.996   6.277  0.1125  0.1132 -0.3985
 5225SOL     OW20671   5.893   1.836   4.109  0.2000 -0.1801  0.1822
 5225SOL    HW220672   5.880   1.746   4.077 -0.2874 -0.5402  1.3391
 5225SOL    HW320673   5.900   1.826   4.204  2.1634  0.7978  0.1726
 5225SOL    MW420674   5.892   1.823   4.117 -0.5864  0.0446 -0.5692
 5226SOL     OW20675   3.348   1.715   0.874 -1.0189  0.5518 -0.5564
 5226SOL    HW220676   3.325   1.783   0.811  1.2206  0.9440 -1.0439
 5226SOL    HW320677   3.358   1.636   0.822 -2.1242  0.1632 -0.2096
 5226SOL    MW420678   3.346   1.714   0.859 -0.0686 -0.2745  0.2037
 5227SOL     OW20679   4.045   5.041   1.097  0.9760  0.0638 -0.0457
 5227SOL    HW220680   3.995   4.965   1.068 -1.0004  0.4155  2.1517
 5227SOL    HW320681   4.135   5.009   1.103  0.1095 -2.4459  1.5887
 5227SOL    MW420682   4.050   5.026   1.094  0.9145  0.1997  0.2397
 5228SOL     OW20683   5.451   5.428   5.676  0.2114 -0.0961 -0.9484
 5228SOL    HW220684   5.490   5.421   5.589  0.1396 -1.2297 -0.9071
 5228SOL    HW320685   5.526   5.424   5.736  0.2701  0.7894 -0.9521
 5228SOL    MW420686   5.466   5.427   5.672  0.3021 -0.1103  0.6064
 5229SOL     OW20687   5.147   3.409   6.167 -0.0603  0.6025 -0.2353
 5229SOL    HW220688   5.187   3.437   6.084 -0.5665  1.7289 -0.1257
 5229SOL    HW320689   5.059   3.447   6.164 -0.1877  0.3929  0.6846
 5229SOL    MW420690   5.141   3.418   6.155 -0.1022  0.0619  0.2425
 5230SOL     OW20691   0.638   3.754   5.061  0.2331  0.0165  0.3037
 5230SOL    HW220692   0.589   3.826   5.021  0.9129 -0.3759 -1.3266
 5230SOL    HW320693   0.637   3.773   5.155  0.2157  2.0254 -0.0618
 5230SOL    MW420694   0.631   3.766   5.068 -0.5171  0.3919  0.1276
 5231SOL     OW20695   2.759   3.731   4.327  0.4054 -0.0199 -0.0805
 5231SOL    HW220696   2.726   3.799   4.386 -0.2876 -0.1063 -0.3602
 5231SOL    HW320697   2.701   3.656   4.342  0.0091  0.0587 -1.0838
 5231SOL    MW420698   2.747   3.730   4.337 -0.3595 -0.6068 -0.8123
 5232SOL     OW20699   1.440   0.125   3.487 -0.6264  0.1132  0.2120
 5232SOL    HW220700   1.405   0.037   3.472 -0.0277 -0.1442  0.2902
 5232SOL    HW320701   1.366   0.175   3.521 -1.4136  0.0925 -1.3990
 5232SOL    MW420702   1.426   0.120   3.489  0.6062 -0.2412  0.7164
 5233SOL     OW20703   3.197   3.602   1.292  0.0270 -0.1663 -0.3260
 5233SOL    HW220704   3.253   3.665   1.338  0.4339  1.0878 -2.4065
 5233SOL    HW320705   3.259   3.540   1.252 -0.1703  0.2010 -1.2050
 5233SOL    MW420706   3.213   3.602   1.293  0.0993  0.0745 -1.0227
 5234SOL     OW20707   0.706   2.374   3.905  0.1771  0.2619 -0.0182
 5234SOL    HW220708   0.707   2.381   4.001  0.1624  0.7206 -0.0458
 5234SOL    HW320709   0.793   2.341   3.882  0.0135 -0.3165  0.1824
 5234SOL    MW420710   0.717   2.371   3.915 -0.4350 -0.6450 -0.3255
 5235SOL     OW20711   6.144   1.956   0.998 -0.3190 -0.3517 -0.0955
 5235SOL    HW220712   6.073   1.986   0.940 -2.1803 -1.8007  1.2755
 5235SOL    HW320713   6.123   1.864   1.013  0.7453 -0.2943  1.9630
 5235SOL    MW420714   6.132   1.948   0.992  0.6229  0.6390 -0.1114
 5236SOL     OW20715   4.228   3.689   1.229  0.1079  0.3791 -0.3264
 5236SOL    HW220716   4.282   3.762   1.259 -0.5380  0.4394  0.7604
 5236SOL    HW320717   4.239   3.622   1.297 -1.5811  0.6025  0.2029
 5236SOL    MW420718   4.237   3.689   1.242 -0.3394 -0.3787  0.2537
 5237SOL     OW20719   0.129   2.572   5.222  0.3762  0.3668 -0.5702
 5237SOL    HW220720   0.113   2.661   5.253 -2.3975  0.0627 -0.8780
 5237SOL    HW320721   0.113   2.577   5.128 -0.0755 -0.4862 -0.5471
 5237SOL    MW420722   0.125   2.584   5.214  0.5080  0.7029 -0.6468
 5238SOL     OW20723   1.052   4.803   5.612  0.1926  0.3524  0.4137
 5238SOL    HW220724   1.037   4.785   5.519 -0.2169 -1.4240  0.7790
 5238SOL    HW320725   1.066   4.897   5.616 -2.1153  0.8714 -1.1766
 5238SOL    MW420726   1.052   4.813   5.600  0.6375 -0.0581  0.3414
 5239SOL     OW20727   5.615   3.499   1.572 -0.5819  0.2271 -0.3222
 5239SOL    HW220728   5.545   3.446   1.534 -1.8671  0.9477  0.9358
 5239SOL    HW320729   5.696   3.452   1.550 -1.3639 -0.1716 -2.5386
 5239SOL    MW420730   5.617   3.486   1.564 -0.0533 -0.4429 -0.4122
 5240SOL     OW20731   2.814   3.741   4.993  0.3268 -0.6578  0.5556
 5240SOL    HW220732   2.742   3.679   5.007 -0.2004  0.0153  0.8965
 5240SOL    HW320733   2.863   3.705   4.920 -1.8048  0.1487 -1.3793
 5240SOL    MW420734   2.811   3.728   4.985 -0.5561 -0.0994 -0.0962
 5241SOL     OW20735   4.491   1.127   5.677 -0.1618  0.2186  0.2887
 5241SOL    HW220736   4.541   1.071   5.617 -1.8120 -0.2470 -0.7058
 5241SOL    HW320737   4.521   1.216   5.657  1.9259 -0.1644  1.3535
 5241SOL    MW420738   4.502   1.132   5.667 -0.1923  0.1763  0.4373
 5242SOL     OW20739   2.928   1.728   0.916 -0.2859  0.0897 -0.0613
 5242SOL    HW220740   2.986   1.788   0.962  1.0097 -1.6780  0.7091
 5242SOL    HW320741   2.973   1.709   0.833  1.0117 -2.2928  1.0804
 5242SOL    MW420742   2.941   1.733   0.911  0.0437 -0.9080 -0.4272
 5243SOL     OW20743   2.828   2.715   3.249 -0.1227 -0.0561  0.1654
 5243SOL    HW220744   2.803   2.806   3.231  2.2889  0.2842 -1.9434
 5243SOL    HW320745   2.812   2.669   3.166  0.6845 -1.0733  0.5530
 5243SOL    MW420746   2.822   2.721   3.236  0.3492 -0.4554  0.7290
 5244SOL     OW20747   1.812   4.872   1.754  0.3554 -0.5452 -0.4346
 5244SOL    HW220748   1.832   4.896   1.844 -0.0564 -2.8386  0.3489
 5244SOL    HW320749   1.856   4.788   1.742 -2.6646 -2.1815 -1.0604
 5244SOL    MW420750   1.820   4.864   1.764  0.2656 -0.7774 -0.1115
 5245SOL     OW20751   0.519   5.498   1.921 -0.0845  0.5594 -0.2060
 5245SOL    HW220752   0.577   5.440   1.970 -0.5073  1.0572  0.9411
 5245SOL    HW320753   0.558   5.504   1.834  1.1802  0.3032  0.3153
 5245SOL    MW420754   0.532   5.491   1.916 -0.0459  0.7896 -0.6731
 5246SOL     OW20755   0.830   4.443   3.898  0.1637  0.0191  0.3798
 5246SOL    HW220756   0.914   4.415   3.934 -0.0981 -2.3750 -0.6371
 5246SOL    HW320757   0.852   4.483   3.814  0.3473  0.2364  0.5302
 5246SOL    MW420758   0.844   4.444   3.892 -0.3248  0.0420  0.2234
 5247SOL     OW20759   6.095   4.291   5.586 -0.2377 -0.5768  0.0532
 5247SOL    HW220760   6.163   4.341   5.539  0.1104 -0.2977  0.8368
 5247SOL    HW320761   6.143   4.243   5.653 -0.9802  1.0122  1.7979
 5247SOL    MW420762   6.110   4.292   5.588  0.5789  0.2239 -0.1641
 5248SOL     OW20763   4.394   6.173   0.521  0.0586 -0.4728 -0.3981
 5248SOL    HW220764   4.409   6.155   0.428  0.4866  0.6417 -0.5671
 5248SOL    HW320765   4.479   6.202   0.553  0.4466 -2.7965  0.8617
 5248SOL    MW420766   4.407   6.174   0.513 -0.0610 -0.9555 -0.1147
 5249SOL     OW20767   2.036   0.176   5.060 -0.3168  0.0138  0.1553
 5249SOL    HW220768   2.115   0.152   5.108 -0.7174  0.8779  1.3018
 5249SOL    HW320769   2.068   0.213   4.978  0.3990 -1.1035 -0.0902
 5249SOL    MW420770   2.050   0.178   5.055  0.2057 -0.2645 -0.8865
 5250SOL     OW20771   0.035   1.584   1.935 -0.2742  0.1965 -0.0187
 5250SOL    HW220772   0.072   1.613   1.851  0.1348 -1.1437 -0.3240
 5250SOL    HW320773   0.070   1.496   1.948 -1.1756 -0.0333  1.0489
 5250SOL    MW420774   0.044   1.576   1.925 -0.3301 -0.0334  0.2355
 5251SOL     OW20775   2.019   0.924   3.087  0.2224  0.6814 -0.2492
 5251SOL    HW220776   2.046   0.862   3.019 -3.0316 -0.5694 -0.5814
 5251SOL    HW320777   1.987   1.000   3.039  1.3433  1.3619  0.0553
 5251SOL    MW420778   2.018   0.926   3.072 -0.3402 -0.2363 -0.1047
 5252SOL     OW20779   3.707   3.068   2.854 -0.1730 -0.0099 -0.4215
 5252SOL    HW220780   3.638   3.132   2.873  0.2485  0.0851  0.9304
 5252SOL    HW320781   3.667   2.983   2.875  1.1854  0.2491  4.2892
 5252SOL    MW420782   3.692   3.065   2.859  0.7150  0.0886  0.8866
 5253SOL     OW20783   5.808   4.299   4.536 -0.1710  0.5239  0.2226
 5253SOL    HW220784   5.718   4.330   4.532 -0.9236 -1.6285 -1.0758
 5253SOL    HW320785   5.824   4.284   4.629 -0.2709  3.1180  0.7513
 5253SOL    MW420786   5.798   4.301   4.548 -0.2023 -0.0311  0.3814
 5254SOL     OW20787   6.296   3.000   1.413  0.2202 -0.2944 -0.1387
 5254SOL    HW220788   6.290   2.905   1.424 -0.1699 -0.1067  1.5789
 5254SOL    HW320789   6.370   3.025   1.468 -0.2546  0.4927  0.1461
 5254SOL    MW420790   6.305   2.990   1.422 -0.0771 -0.0547  0.4903
 5255SOL     OW20791   4.586   6.238   2.901 -0.4353 -0.5329 -0.1704
 5255SOL    HW220792   4.503   6.240   2.855 -0.4820 -1.9825 -0.2202
 5255SOL    HW320793   4.597   6.326   2.936 -0.7077  0.4368 -2.3811
 5255SOL    MW420794   4.577   6.250   2.900 -0.2556  0.0796  0.3579
 5256SOL     OW20795   0.454   1.318   1.273 -0.0012  0.4776 -0.0432
 5256SOL    HW220796   0.417   1.407   1.281  0.3188  0.6276 -0.2174
 5256SOL    HW320797   0.538   1.331   1.229 -0.3556 -0.0106 -0.8763
 5256SOL    MW420798   0.460   1.332   1.269 -0.3866 -0.2348  0.6549
 5257SOL     OW20799   5.782   5.316   1.768  0.0360  0.0378 -0.1049
 5257SOL    HW220800   5.847   5.384   1.782 -0.4460  0.3225  0.8033
 5257SOL    HW320801   5.803   5.248   1.832  1.0690 -1.1210 -1.5884
 5257SOL    MW420802   5.793   5.316   1.778  0.3597 -0.3946 -0.0806
 5258SOL     OW20803   1.544   6.004   0.555  0.2815  0.2234  0.0280
 5258SOL    HW220804   1.525   5.912   0.572  2.0966 -0.3919 -0.9840
 5258SOL    HW320805   1.596   6.032   0.631  0.5327  0.1427 -0.1147
 5258SOL    MW420806   1.548   5.996   0.567  0.7857  0.2827  0.3596
 5259SOL     OW20807   4.592   2.880   4.898 -0.2616 -0.6117  0.5859
 5259SOL    HW220808   4.561   2.895   4.808  0.5041  0.0110  0.4194
 5259SOL    HW320809   4.612   2.787   4.901 -1.9982 -1.0170  0.6607
 5259SOL    MW420810   4.591   2.870   4.886  0.4079 -0.4484  0.4262
 5260SOL     OW20811   5.523   4.797   0.258  0.1341  0.3532  0.9532
 5260SOL    HW220812   5.593   4.733   0.249 -0.8141 -0.5680  0.0145
 5260SOL    HW320813   5.513   4.808   0.353  0.3829 -0.8036  1.1239
 5260SOL    MW420814   5.531   4.790   0.270  0.1136 -0.2066 -0.4675
 5261SOL     OW20815   4.966   0.549   6.321  0.0960  0.0171  0.4799
 5261SOL    HW220816   5.033   0.583   6.381 -1.1295  0.7319  1.5073
 5261SOL    HW320817   4.936   0.468   6.362 -0.7277  0.4947  0.8652
 5261SOL    MW420818   4.971   0.543   6.334 -0.0086 -0.6156  0.2456
 5262SOL     OW20819   2.735   2.348   1.213 -0.2267  0.1479 -0.4889
 5262SOL    HW220820   2.809   2.407   1.229  1.7774 -2.4072  0.5355
 5262SOL    HW320821   2.660   2.391   1.253  1.6410  0.9201  2.4862
 5262SOL    MW420822   2.735   2.361   1.220  0.4966 -0.0770 -0.3452
 5263SOL     OW20823   5.893   0.082   3.053  0.0905  0.2034  0.4778
 5263SOL    HW220824   5.917   0.172   3.032  0.5098  0.4603  1.9356
 5263SOL    HW320825   5.819   0.062   2.995  0.8147  1.0249 -0.7723
 5263SOL    MW420826   5.886   0.091   3.042  0.2900 -0.1151  0.0922
 5264SOL     OW20827   2.571   1.075   0.389  0.3804 -0.0912  0.4093
 5264SOL    HW220828   2.656   1.102   0.422  0.5976  1.5723 -1.3293
 5264SOL    HW320829   2.588   1.052   0.297 -1.0733  0.4329 -0.0074
 5264SOL    MW420830   2.584   1.075   0.381  0.1149  0.3527 -0.1706
 5265SOL     OW20831   5.557   5.356   4.807  0.0485 -0.0929  0.0865
 5265SOL    HW220832   5.538   5.349   4.900 -1.1020  1.4343  0.0021
 5265SOL    HW320833   5.536   5.446   4.784  0.5692 -0.3537 -1.5997
 5265SOL    MW420834   5.552   5.367   4.816  0.4265  0.2884  0.1216
 5266SOL     OW20835   1.847   0.360   0.293 -0.3943 -0.8117  0.5489
 5266SOL    HW220836   1.783   0.378   0.362 -0.9496  0.0794 -0.1715
 5266SOL    HW320837   1.913   0.305   0.335  1.4989  2.9493  3.0346
 5266SOL    MW420838   1.847   0.355   0.307  0.1861  0.3343  0.4024
 5267SOL     OW20839   4.792   0.470   4.423 -0.0910  0.2190  0.2506
 5267SOL    HW220840   4.838   0.479   4.340  0.2729  2.9986  0.6664
 5267SOL    HW320841   4.843   0.406   4.472  0.7417 -0.0960 -0.9884
 5267SOL    MW420842   4.805   0.463   4.419  0.3001  0.4057 -0.0023
 5268SOL     OW20843   3.172   0.144   1.025  0.0417 -0.3911 -0.8136
 5268SOL    HW220844   3.180   0.051   1.049  2.3255 -0.4765 -1.7035
 5268SOL    HW320845   3.111   0.144   0.952  0.3303 -1.2558 -1.0721
 5268SOL    MW420846   3.165   0.132   1.019  0.2534  0.0978 -0.0568
 5269SOL     OW20847   2.507   2.810   5.103  0.4941  0.5969  0.6537
 5269SOL    HW220848   2.459   2.890   5.126 -1.1367 -0.8127  2.4907
 5269SOL    HW320849   2.469   2.783   5.020  0.0277  0.9632  0.7395
 5269SOL    MW420850   2.496   2.817   5.095 -0.5072  1.0197  0.2722
 5270SOL     OW20851   0.135   2.903   6.330  0.0753 -0.1111  0.5279
 5270SOL    HW220852   0.193   2.931   6.260  1.3291 -0.6708  1.3098
 5270SOL    HW320853   0.070   2.847   6.287  0.8337 -0.4603 -0.1800
 5270SOL    MW420854   0.134   2.899   6.315  0.6609 -0.3806  0.4141
 5271SOL     OW20855   6.337   1.748   5.244 -0.1246  0.2940 -0.2705
 5271SOL    HW220856   6.334   1.827   5.189 -0.1733  0.8480  0.5118
 5271SOL    HW320857   6.392   1.773   5.318 -0.7412 -0.1688  0.3532
 5271SOL    MW420858   6.344   1.762   5.246 -0.2569 -0.6000  0.5048
 5272SOL     OW20859   0.982   3.830   3.090  0.0484 -0.3722  0.0041
 5272SOL    HW220860   0.901   3.816   3.138 -0.1498 -0.6312 -0.4066
 5272SOL    HW320861   0.956   3.879   3.012  0.3501 -0.0623  0.0969
 5272SOL    MW420862   0.968   3.835   3.086 -0.0216 -0.0286  0.0632
 5273SOL     OW20863   4.810   6.084   5.641  0.3690  0.7200 -0.3547
 5273SOL    HW220864   4.832   6.076   5.548 -0.9384 -0.8096 -0.5788
 5273SOL    HW320865   4.836   6.000   5.679  0.3239  1.1025  0.5492
 5273SOL    MW420866   4.817   6.072   5.633  0.5898 -0.1164 -0.1856
 5274SOL     OW20867   2.409   5.539   5.060  0.2527 -0.5650  0.4809
 5274SOL    HW220868   2.336   5.501   5.012  0.9399 -0.0968 -0.9731
 5274SOL    HW320869   2.385   5.529   5.152 -1.8437 -0.0190  0.0245
 5274SOL    MW420870   2.396   5.533   5.066 -0.5511 -0.0829  0.5870
 5275SOL     OW20871   0.978   3.602   5.952 -0.0158  0.0349 -0.3738
 5275SOL    HW220872   1.002   3.675   6.009 -0.6361 -1.2484  1.6369
 5275SOL    HW320873   0.973   3.641   5.864  0.4479  2.2124  0.4946
 5275SOL    MW420874   0.980   3.617   5.948  0.3459 -0.0617  0.8356
 5276SOL     OW20875   5.338   0.685   1.370  0.3265 -0.0600  0.5560
 5276SOL    HW220876   5.355   0.754   1.433  0.1386  0.0666  0.4681
 5276SOL    HW320877   5.383   0.713   1.290 -2.4137  1.5957 -0.5397
 5276SOL    MW420878   5.346   0.698   1.368  0.1769 -0.3074  0.0397
 5277SOL     OW20879   5.247   0.235   0.432  0.2205 -0.1257  0.3828
 5277SOL    HW220880   5.191   0.290   0.378 -1.3148 -0.7984  1.2037
 5277SOL    HW320881   5.215   0.146   0.416 -0.0293 -0.3778  2.0521
 5277SOL    MW420882   5.235   0.230   0.423  0.2988  0.3076  0.3096
 5278SOL     OW20883   2.221   6.351   2.686 -0.4171  0.5882  0.0636
 5278SOL    HW220884   2.274   6.273   2.668 -2.1225 -0.3310 -1.3176
 5278SOL    HW320885   2.200   6.387   2.600 -0.5929  1.9431  0.6452
 5278SOL    MW420886   2.225   6.345   2.672  0.0575  0.7737  0.2215
 5279SOL     OW20887   4.754   6.293   1.523  0.4660 -0.0104 -0.1902
 5279SOL    HW220888   4.817   6.231   1.485 -0.3331 -1.3185  0.5724
 5279SOL    HW320889   4.802   6.376   1.525  1.8120 -0.7380 -0.5773
 5279SOL    MW420890   4.769   6.296   1.518 -0.1867 -0.0726 -0.4511
 5280SOL     OW20891   0.095   4.577   5.315  0.4071  0.3235 -0.4444
 5280SOL    HW220892   0.037   4.511   5.352  2.1253 -1.9540 -1.5201
 5280SOL    HW320893   0.147   4.529   5.250  2.6579  2.4571 -0.3732
 5280SOL    MW420894   0.094   4.562   5.311 -0.0638 -0.2826  0.3754
 5281SOL     OW20895   2.939   4.381   2.528 -0.0728  0.3526  0.3525
 5281SOL    HW220896   2.848   4.401   2.506  0.3958  0.5735 -1.6487
 5281SOL    HW320897   2.946   4.286   2.519  0.1901  0.4684 -0.9913
 5281SOL    MW420898   2.928   4.371   2.524  0.1690  0.4148  0.3091
 5282SOL     OW20899   2.924   3.877   3.336 -0.2484  0.5314 -0.4285
 5282SOL    HW220900   2.846   3.849   3.385 -0.7905 -0.8904 -2.0231
 5282SOL    HW320901   2.920   3.828   3.254  2.0909  0.7932 -0.7621
 5282SOL    MW420902   2.913   3.867   3.332 -0.5423 -0.0699  0.2305
 5283SOL     OW20903   4.933   4.844   4.356 -0.1958 -0.2149  0.6446
 5283SOL    HW220904   4.922   4.882   4.269 -1.0767 -1.3711  0.2199
 5283SOL    HW320905   5.023   4.867   4.381  0.3832 -0.6020 -0.9524
 5283SOL    MW420906   4.944   4.852   4.347  0.0338  0.4323  0.1323
 5284SOL     OW20907   5.938   6.200   5.223 -0.2516  0.0168  0.3759
 5284SOL    HW220908   5.980   6.176   5.140  0.4629  1.9735  0.1066
 5284SOL    HW320909   6.001   6.260   5.265 -0.9755 -0.2749  1.9471
 5284SOL    MW420910   5.952   6.205   5.218  0.7861 -0.1243 -0.0197
 5285SOL     OW20911   6.331   4.213   6.014 -0.1698 -0.2908  0.0915
 5285SOL    HW220912   6.334   4.296   6.060 -3.8248 -1.0010  1.9688
 5285SOL    HW320913   6.375   4.151   6.073  0.9449 -0.0691 -0.4784
 5285SOL    MW420914   6.337   4.216   6.028 -0.6318 -0.0002 -0.3971
 5286SOL     OW20915   4.673   3.916   1.842  0.4109 -0.3240  0.3400
 5286SOL    HW220916   4.668   3.820   1.844  1.6036 -0.3932  0.5479
 5286SOL    HW320917   4.635   3.943   1.926 -3.6785 -0.3559 -1.2656
 5286SOL    MW420918   4.667   3.907   1.853 -0.2561  0.3366 -0.0342
 5287SOL     OW20919   0.866   2.066   4.370 -0.0730 -0.0273  0.0396
 5287SOL    HW220920   0.791   2.072   4.311 -0.4585 -0.5407  0.4582
 5287SOL    HW320921   0.928   2.131   4.338  0.4373 -1.4010 -1.9296
 5287SOL    MW420922   0.864   2.075   4.358  0.0422 -0.1843  0.3232
 5288SOL     OW20923   2.533   6.153   0.455 -0.1448 -0.0886 -0.0931
 5288SOL    HW220924   2.568   6.102   0.382  0.2880 -0.7326  0.5562
 5288SOL    HW320925   2.449   6.111   0.475  0.1088 -0.4068  0.2989
 5288SOL    MW420926   2.526   6.140   0.448  0.2398 -0.2890  0.2596
 5289SOL     OW20927   0.509   2.901   1.734  0.4813 -0.2132  0.2409
 5289SOL    HW220928   0.459   2.981   1.752  1.0066 -0.2327  1.9881
 5289SOL    HW320929   0.601   2.928   1.743  0.6943 -0.7949 -0.1573
 5289SOL    MW420930   0.515   2.915   1.738 -0.1721 -0.1477  0.7895
 5290SOL     OW20931   1.404   4.439   2.346 -0.0205 -0.9144 -0.2396
 5290SOL    HW220932   1.479   4.423   2.290 -1.0748 -2.8664 -1.1967
 5290SOL    HW320933   1.436   4.421   2.435  0.8983 -0.6434 -0.5085
 5290SOL    MW420934   1.418   4.435   2.351  0.2016 -0.1785 -0.3260
 5291SOL     OW20935   5.660   0.475   2.709  0.7163  0.0136  0.3629
 5291SOL    HW220936   5.608   0.463   2.630 -1.0164  0.6510  1.3398
 5291SOL    HW320937   5.678   0.386   2.740 -2.2572 -0.3180  1.4724
 5291SOL    MW420938   5.656   0.462   2.703 -0.2007 -0.1339  0.6402
 5292SOL     OW20939   1.988   2.665   6.154 -0.0446 -0.0350  0.5196
 5292SOL    HW220940   1.914   2.611   6.180 -0.6199 -0.5341 -1.9177
 5292SOL    HW320941   1.950   2.750   6.132  0.0696 -0.2423 -0.5751
 5292SOL    MW420942   1.973   2.669   6.154  0.5456  0.4792  0.2999
 5293SOL     OW20943   0.035   3.628   1.863 -0.2766 -0.3452 -0.1871
 5293SOL    HW220944  -0.054   3.655   1.885 -0.3906 -0.9803  0.1600
 5293SOL    HW320945   0.043   3.540   1.900  0.7148 -0.0392  0.3647
 5293SOL    MW420946   0.024   3.620   1.871  0.2250  0.0950 -0.0365
 5294SOL     OW20947   0.218   5.969   2.468 -0.5330  0.8121  0.2226
 5294SOL    HW220948   0.244   6.060   2.451  1.2029 -0.0073 -1.9840
 5294SOL    HW320949   0.293   5.930   2.512  0.1059 -0.3130 -1.7285
 5294SOL    MW420950   0.231   5.976   2.472 -0.0985  0.8691  0.9910
 5295SOL     OW20951   1.314   0.439   0.700  0.2795  0.2307  0.1282
 5295SOL    HW220952   1.364   0.359   0.684  2.3043  1.2525  0.9863
 5295SOL    HW320953   1.243   0.412   0.759 -0.5671 -1.3581 -1.5302
 5295SOL    MW420954   1.311   0.425   0.706  0.6374 -0.3675  0.1531
 5296SOL     OW20955   4.886   2.094   2.655 -0.0980 -0.5368 -0.7133
 5296SOL    HW220956   4.833   2.028   2.610 -0.6700 -2.2173  2.1796
 5296SOL    HW320957   4.975   2.058   2.656 -0.2279 -0.8602  0.0583
 5296SOL    MW420958   4.891   2.080   2.649 -0.2094  0.0215  0.2094
 5297SOL     OW20959   4.995   6.210   0.201 -0.3493  0.8730  0.2023
 5297SOL    HW220960   5.004   6.167   0.117  1.5465  0.2688  0.6753
 5297SOL    HW320961   5.038   6.152   0.263 -1.3128  1.5191  1.5388
 5297SOL    MW420962   5.002   6.197   0.198  0.0476  0.1467 -0.0140
 5298SOL     OW20963   0.429   4.729   3.441 -0.3872  0.6948  0.1604
 5298SOL    HW220964   0.387   4.705   3.358 -2.9852  0.3223  1.4811
 5298SOL    HW320965   0.470   4.648   3.470 -0.0720  0.6426 -0.4127
 5298SOL    MW420966   0.429   4.715   3.434 -0.0188  0.1724 -0.2054
 5299SOL     OW20967   2.505   3.331   1.985 -0.0830  0.1986  0.7141
 5299SOL    HW220968   2.533   3.253   1.938  0.1803  1.1638 -0.8132
 5299SOL    HW320969   2.587   3.374   2.011 -0.1910  0.7311  0.1986
 5299SOL    MW420970   2.519   3.326   1.982  0.2771  0.1181 -0.0229
 5300SOL     OW20971   5.790   1.437   1.602  0.6712  0.0614 -0.0337
 5300SOL    HW220972   5.824   1.484   1.679  2.1343  1.1022 -1.2617
 5300SOL    HW320973   5.853   1.366   1.589 -0.6967 -1.3943  0.8948
 5300SOL    MW420974   5.803   1.434   1.611  0.1160 -0.1099  0.0644
 5301SOL     OW20975   1.591   1.111   1.104  0.5816  0.5134  0.3736
 5301SOL    HW220976   1.648   1.037   1.126  0.0918  0.1078  0.2917
 5301SOL    HW320977   1.503   1.074   1.103  0.3169  1.1310  0.4682
 5301SOL    MW420978   1.587   1.097   1.107 -0.1766 -0.5732  0.1563
 5302SOL     OW20979   3.844   3.817   2.168 -0.1896 -0.5554  0.4646
 5302SOL    HW220980   3.802   3.775   2.243 -0.0562  0.3143  1.0460
 5302SOL    HW320981   3.935   3.790   2.173  0.1061  0.5282  1.3984
 5302SOL    MW420982   3.850   3.808   2.178  0.0399 -0.0233  0.8157
 5303SOL     OW20983   2.823   2.312   4.905  0.3454  0.1395  0.3629
 5303SOL    HW220984   2.798   2.388   4.852  1.1780  0.9214  1.0431
 5303SOL    HW320985   2.742   2.287   4.950 -0.1822 -0.0585 -0.6850
 5303SOL    MW420986   2.809   2.319   4.904  1.2417  0.0804  0.3709
 5304SOL     OW20987   0.700   4.350   0.855  0.5195 -0.4088 -0.5580
 5304SOL    HW220988   0.628   4.375   0.914  2.2671  2.8544  0.4408
 5304SOL    HW320989   0.657   4.299   0.786 -2.6292  0.7222  0.3579
 5304SOL    MW420990   0.685   4.347   0.854 -0.1318  0.0895  0.4235
 5305SOL     OW20991   2.197   3.363   1.179 -0.0063  0.2248  0.1166
 5305SOL    HW220992   2.203   3.391   1.087  0.5092 -1.8363 -0.5181
 5305SOL    HW320993   2.103   3.353   1.195 -0.0615 -0.1715 -0.4396
 5305SOL    MW420994   2.186   3.365   1.169 -0.2299  0.1059  1.0227
 5306SOL     OW20995   4.611   4.895   5.352  0.1018  0.0541  0.8816
 5306SOL    HW220996   4.524   4.882   5.389 -0.5475  0.1063 -0.5572
 5306SOL    HW320997   4.610   4.984   5.317 -0.3452 -0.9093 -1.7797
 5306SOL    MW420998   4.600   4.905   5.352  0.1298  0.4802 -0.1647
 5307SOL     OW20999   5.118   2.986   2.846 -0.1307 -0.1763 -0.2281
 5307SOL    HW221000   5.118   2.959   2.937  0.8223 -0.1387 -0.2069
 5307SOL    HW321001   5.030   3.021   2.831 -0.0100  0.6593  0.9263
 5307SOL    MW421002   5.106   2.987   2.856  0.4036 -0.1512  0.0307
 5308SOL     OW21003   4.606   1.668   2.671  0.5151 -0.6337  0.2734
 5308SOL    HW221004   4.635   1.577   2.675 -0.1050 -0.7958  1.3003
 5308SOL    HW321005   4.634   1.705   2.754  2.5107  0.6805 -0.8926
 5308SOL    MW421006   4.614   1.661   2.682  0.0405  0.2874 -0.0423
 5309SOL     OW21007   3.082   3.083   4.646  0.1290  0.0466 -0.6664
 5309SOL    HW221008   3.116   3.172   4.634  2.0575 -0.5559 -0.1375
 5309SOL    HW321009   3.070   3.075   4.741  0.2455 -0.3453 -0.6838
 5309SOL    MW421010   3.085   3.094   4.657  0.1708 -0.3513  0.8961
 5310SOL     OW21011   4.853   3.506   2.865  0.0885  0.0115  0.4017
 5310SOL    HW221012   4.821   3.591   2.895  0.0347 -0.3047  1.2678
 5310SOL    HW321013   4.896   3.468   2.942  0.8441 -0.3968 -0.2038
 5310SOL    MW421014   4.855   3.512   2.879  0.0211 -0.6711  0.4090
 5311SOL     OW21015   2.071   5.567   3.035 -0.0832  0.0292 -0.4986
 5311SOL    HW221016   1.986   5.551   2.992  0.7622  1.7792 -3.0642
 5311SOL    HW321017   2.049   5.621   3.111 -1.5294 -2.2344  0.8066
 5311SOL    MW421018   2.057   5.572   3.039 -0.1514 -0.0400 -0.2762
 5312SOL     OW21019   5.221   4.012   0.132 -0.6154  0.0744 -0.2088
 5312SOL    HW221020   5.135   3.972   0.144 -0.4929  0.3060  1.7647
 5312SOL    HW321021   5.260   4.012   0.219  1.7959 -0.8963 -1.1922
 5312SOL    MW421022   5.215   4.006   0.145 -0.9073 -0.3224 -0.1040
 5313SOL     OW21023   3.356   5.012   2.876  0.2145 -0.1898 -0.5661
 5313SOL    HW221024   3.386   4.980   2.961  0.4960  1.4905  0.0124
 5313SOL    HW321025   3.266   4.981   2.869  0.1795 -0.3364  0.3637
 5313SOL    MW421026   3.348   5.004   2.886 -0.2100 -0.0933 -0.2160
 5314SOL     OW21027   5.051   3.427   4.625 -0.0558  0.1006  0.1377
 5314SOL    HW221028   4.980   3.366   4.645 -1.3238  1.2865 -0.5669
 5314SOL    HW321029   5.094   3.389   4.548  0.2112 -0.7055  0.6627
 5314SOL    MW421030   5.047   3.414   4.617 -0.6057 -0.0756 -0.1855
 5315SOL     OW21031   5.009   3.880   5.658  0.1736 -0.0965  0.3733
 5315SOL    HW221032   4.942   3.945   5.678  0.1467 -0.0567  0.1598
 5315SOL    HW321033   5.090   3.931   5.652  0.2934 -0.2063  1.0581
 5315SOL    MW421034   5.011   3.896   5.660 -0.3597  0.2054  0.2763
 5316SOL     OW21035   3.250   4.820   3.595 -0.1780  0.6968 -0.9004
 5316SOL    HW221036   3.256   4.885   3.665  2.2430 -0.4324  0.0505
 5316SOL    HW321037   3.156   4.812   3.578 -0.6905  2.7505  0.5247
 5316SOL    MW421038   3.239   4.828   3.602 -0.1455 -0.0413 -0.4712
 5317SOL     OW21039   0.829   3.231   4.759  0.1428  0.4939  0.6276
 5317SOL    HW221040   0.819   3.293   4.832  0.0682  1.9677 -0.5784
 5317SOL    HW321041   0.820   3.145   4.799  1.1427  1.2143  2.5381
 5317SOL    MW421042   0.827   3.228   4.774 -0.2216  0.3523 -0.3179
 5318SOL     OW21043   1.645   4.830   3.945 -0.6830  0.4749 -0.3285
 5318SOL    HW221044   1.668   4.844   3.853 -0.9300 -0.7367 -0.5998
 5318SOL    HW321045   1.721   4.860   3.994 -1.0874  2.4173 -0.8340
 5318SOL    MW421046   1.658   4.836   3.939 -0.0130  0.0591 -0.5201
 5319SOL     OW21047   3.681   3.598   4.808  0.1079 -0.5787 -0.4992
 5319SOL    HW221048   3.691   3.587   4.902 -1.8165  1.2209 -0.0045
 5319SOL    HW321049   3.631   3.522   4.780  1.1914 -1.4208 -0.2112
 5319SOL    MW421050   3.676   3.587   4.816 -0.6279  0.2452  0.1030
 5320SOL     OW21051   4.764   3.511   0.714  0.5967  0.2231  0.0732
 5320SOL    HW221052   4.710   3.549   0.645  0.9752 -1.8835 -1.4908
 5320SOL    HW321053   4.702   3.462   0.768  0.7996 -2.1521 -1.6927
 5320SOL    MW421054   4.749   3.509   0.712  0.0566  0.2479 -0.1910
 5321SOL     OW21055   5.411   4.143   0.430  0.4996  0.0836  0.1682
 5321SOL    HW221056   5.374   4.144   0.519  0.4707 -0.2565  0.1627
 5321SOL    HW321057   5.466   4.221   0.426  0.4715  0.1208  0.4728
 5321SOL    MW421058   5.413   4.153   0.441  0.0405  0.2735 -0.1613
 5322SOL     OW21059   2.569   4.891   0.009 -0.3877 -1.0345 -0.2293
 5322SOL    HW221060   2.496   4.894   0.070 -0.6436  1.2382 -0.5769
 5322SOL    HW321061   2.645   4.871   0.064 -0.8433 -0.5200  0.6019
 5322SOL    MW421062   2.570   4.888   0.024 -0.5486  0.4498 -0.3563
 5323SOL     OW21063   0.550   4.304   5.664 -0.6036 -0.1598  0.2868
 5323SOL    HW221064   0.502   4.384   5.641 -1.1974 -0.4127  0.6204
 5323SOL    HW321065   0.629   4.307   5.610 -0.4519  0.8208  0.5400
 5323SOL    MW421066   0.554   4.315   5.654 -0.8892 -0.1474  0.2296
 5324SOL     OW21067   3.754   0.154   3.086  0.0089  0.1798  0.3969
 5324SOL    HW221068   3.699   0.141   3.009  1.0678 -1.0387 -0.1963
 5324SOL    HW321069   3.757   0.249   3.097  0.5038  0.4381 -1.5811
 5324SOL    MW421070   3.747   0.165   3.077 -0.0817  0.4446 -0.6443
 5325SOL     OW21071   3.625   1.593   2.340 -0.0009 -0.5881  0.2093
 5325SOL    HW221072   3.546   1.598   2.286 -1.1225  0.0934  1.8598
 5325SOL    HW321073   3.616   1.511   2.389  0.4732 -0.6438  0.2125
 5325SOL    MW421074   3.614   1.583   2.339 -0.0924  0.3783  0.3314
 5326SOL     OW21075   5.777   4.018   3.947  0.1329  0.0890 -0.1440
 5326SOL    HW221076   5.698   4.054   3.908  0.4528  0.5004 -0.4266
 5326SOL    HW321077   5.746   3.955   4.012 -0.4584  1.2312  0.7164
 5326SOL    MW421078   5.763   4.014   3.950 -0.0230 -0.0318  0.2171
 5327SOL     OW21079   0.128   4.682   0.499  0.1563 -0.1344  0.1187
 5327SOL    HW221080   0.157   4.719   0.416  2.4866 -2.0842 -0.0587
 5327SOL    HW321081   0.206   4.639   0.534 -1.4874 -1.8434  1.9357
 5327SOL    MW421082   0.142   4.682   0.493  0.0356  0.2097 -0.1864
 5328SOL     OW21083   3.190   0.992   1.530 -0.1598 -0.0333  0.3115
 5328SOL    HW221084   3.105   1.018   1.493 -0.2462 -0.2683  0.3375
 5328SOL    HW321085   3.222   0.925   1.469  0.1173  0.2253  0.1738
 5328SOL    MW421086   3.183   0.987   1.517 -0.2596 -0.3013  0.1966
 5329SOL     OW21087   3.435   4.833   2.676 -0.1298  0.2896  0.2708
 5329SOL    HW221088   3.348   4.831   2.636  0.1153  1.6962 -0.4125
 5329SOL    HW321089   3.419   4.866   2.765 -0.1709  2.0119 -0.3400
 5329SOL    MW421090   3.421   4.837   2.682  0.1008  0.3394  0.5634
 5330SOL     OW21091   5.724   4.561   2.425 -0.8306  0.0733 -0.1117
 5330SOL    HW221092   5.754   4.471   2.434 -1.5782 -0.1331  0.3952
 5330SOL    HW321093   5.767   4.593   2.346 -0.0802 -0.5272  0.0457
 5330SOL    MW421094   5.734   4.554   2.416 -0.7401 -0.1469  0.6601
 5331SOL     OW21095   0.612   2.912   0.426  0.2740  0.0466 -0.1368
 5331SOL    HW221096   0.610   2.991   0.372  0.7919  0.3918  0.3360
 5331SOL    HW321097   0.700   2.876   0.413  0.4247  0.1631  0.5025
 5331SOL    MW421098   0.623   2.917   0.417  0.0939  0.2873 -0.4722
 5332SOL     OW21099   3.467   1.110   6.134  0.8820  0.0455  0.3939
 5332SOL    HW221100   3.433   1.195   6.105 -0.1581 -0.2335  0.7476
 5332SOL    HW321101   3.471   1.117   6.229 -0.8707 -0.8693  0.5723
 5332SOL    MW421102   3.463   1.122   6.142  0.0942  0.1287 -0.1768
 5333SOL     OW21103   5.836   3.404   4.739  0.3767  0.2021 -0.2623
 5333SOL    HW221104   5.762   3.399   4.678  1.3971  0.1160 -1.5362
 5333SOL    HW321105   5.852   3.313   4.764  0.3421  0.1725 -0.3468
 5333SOL    MW421106   5.828   3.391   4.734 -0.1699  0.7360 -0.0412
 5334SOL     OW21107   6.237   3.845   3.365  0.0125  0.0779  0.2869
 5334SOL    HW221108   6.257   3.853   3.459 -2.0648  2.0209  0.6279
 5334SOL    HW321109   6.253   3.932   3.329  1.2715 -0.7622 -1.3270
 5334SOL    MW421110   6.242   3.857   3.373  0.4652 -0.2101  0.1134
 5335SOL     OW21111   1.298   2.033   4.538 -0.2479 -0.5890 -0.3936
 5335SOL    HW221112   1.271   2.123   4.520 -0.9775 -0.6931  0.1243
 5335SOL    HW321113   1.236   2.002   4.604  0.6654 -1.1092  0.2450
 5335SOL    MW421114   1.286   2.041   4.544 -0.0476 -0.1573 -0.3977
 5336SOL     OW21115   2.155   3.859   2.649  0.1548  0.4651  0.2040
 5336SOL    HW221116   2.202   3.826   2.573  2.1802  0.5433  1.3422
 5336SOL    HW321117   2.064   3.869   2.620  1.1963  2.2959 -2.7226
 5336SOL    MW421118   2.149   3.856   2.635 -0.1463  0.3105 -0.3771
 5337SOL     OW21119   6.279   1.833   3.911  0.3812 -0.2937 -0.1791
 5337SOL    HW221120   6.351   1.778   3.881 -0.2945 -0.6350 -1.2550
 5337SOL    HW321121   6.265   1.807   4.002  1.3952 -0.4429 -0.0538
 5337SOL    MW421122   6.287   1.823   3.919  0.0538  0.6643  0.0110
 5338SOL     OW21123   4.550   3.106   5.233 -0.6929 -0.1007 -0.6877
 5338SOL    HW221124   4.563   3.014   5.214 -1.1679 -0.6355  1.3418
 5338SOL    HW321125   4.590   3.118   5.320 -1.5969  1.3381 -0.4368
 5338SOL    MW421126   4.557   3.096   5.242 -0.4824 -0.0495 -0.5409
 5339SOL     OW21127   6.347   0.043   3.978 -0.2475  0.3031  0.0863
 5339SOL    HW221128   6.290   0.013   4.049  1.0316 -0.6703  0.7276
 5339SOL    HW321129   6.362  -0.034   3.924  1.8118  0.0913  0.8764
 5339SOL    MW421130   6.341   0.029   3.980 -0.2161 -0.0574  0.0400
 5340SOL     OW21131   2.444   2.454   4.113 -0.1961 -0.0701 -0.2370
 5340SOL    HW221132   2.413   2.370   4.080 -2.1994  1.1210 -1.5966
 5340SOL    HW321133   2.526   2.433   4.159  1.2792 -2.3135 -3.4755
 5340SOL    MW421134   2.451   2.440   4.115 -0.5707 -0.4783  0.1791
 5341SOL     OW21135   5.713   0.951   0.958  0.1153 -0.4209 -0.3411
 5341SOL    HW221136   5.709   0.865   0.915 -1.0128 -0.2773 -0.5516
 5341SOL    HW321137   5.779   1.000   0.909  2.0107 -1.6940  0.8004
 5341SOL    MW421138   5.721   0.946   0.946  0.1032 -0.0369 -0.3727
 5342SOL     OW21139   5.479   2.357   4.748  0.0777 -0.0640  0.0569
 5342SOL    HW221140   5.523   2.427   4.797 -1.0197 -0.5775  1.8867
 5342SOL    HW321141   5.387   2.385   4.744 -0.2466 -1.0613  0.2032
 5342SOL    MW421142   5.472   2.370   4.754 -0.0890 -0.4927 -0.8221
 5343SOL     OW21143   2.208   5.996   4.953  0.2967 -0.1692  0.4917
 5343SOL    HW221144   2.300   5.994   4.977  0.1741  1.7394  1.2728
 5343SOL    HW321145   2.184   6.088   4.956 -2.2682 -0.7827  2.8723
 5343SOL    MW421146   2.217   6.008   4.957  0.3602  0.1328 -0.1234
 5344SOL     OW21147   2.663   3.486   3.245 -0.3097 -0.0655 -0.3218
 5344SOL    HW221148   2.572   3.510   3.228  0.1942  0.6093 -2.3387
 5344SOL    HW321149   2.714   3.548   3.192  1.3183 -0.6879  0.4546
 5344SOL    MW421150   2.658   3.498   3.236 -0.6769 -0.0089  0.6177
 5345SOL     OW21151   4.869   2.092   3.907 -0.1059 -0.1771  0.1676
 5345SOL    HW221152   4.961   2.112   3.890  0.1060 -1.1298  0.1248
 5345SOL    HW321153   4.868   1.998   3.926 -1.0894 -0.2058  0.0429
 5345SOL    MW421154   4.881   2.082   3.907 -0.7609  0.0587  0.3139
 5346SOL     OW21155   5.516   1.080   1.131  0.3648 -0.3163 -0.2386
 5346SOL    HW221156   5.571   1.086   1.210 -1.0880  0.7908  0.7363
 5346SOL    HW321157   5.576   1.051   1.063  2.3728  1.5973  0.5865
 5346SOL    MW421158   5.531   1.077   1.133 -0.2415 -0.2996 -0.1122
 5347SOL     OW21159   0.695   4.519   4.446  0.4385 -0.2792  0.4806
 5347SOL    HW221160   0.690   4.614   4.454  3.5501 -0.1535  2.2637
 5347SOL    HW321161   0.666   4.486   4.531  2.0400 -0.7318  0.8801
 5347SOL    MW421162   0.690   4.527   4.458 -0.3922 -0.2617  0.1848
 5348SOL     OW21163   6.033   0.945   3.448  0.3372  0.4488  0.1040
 5348SOL    HW221164   6.004   0.896   3.524 -1.6009  0.4536 -0.5684
 5348SOL    HW321165   6.081   1.019   3.484 -0.3575  0.3323  1.3258
 5348SOL    MW421166   6.035   0.948   3.463  0.2128 -0.5391 -0.2814
 5349SOL     OW21167   3.997   2.868   3.889 -0.0854  0.0385 -0.2543
 5349SOL    HW221168   3.943   2.908   3.957  2.0138  0.3234  1.3598
 5349SOL    HW321169   4.087   2.879   3.920  0.9036 -0.9475 -2.5058
 5349SOL    MW421170   4.002   2.875   3.902 -0.2983 -1.1879  0.3967
 5350SOL     OW21171   2.137   3.253   5.227  0.1623  1.3026  0.6176
 5350SOL    HW221172   2.137   3.162   5.257  0.3816  0.9023 -0.5558
 5350SOL    HW321173   2.228   3.281   5.234  0.1679  1.2949  0.5742
 5350SOL    MW421174   2.149   3.245   5.232  0.3939 -0.4488 -0.6915
 5351SOL     OW21175   1.738   2.629   2.501 -0.0889 -0.9406  0.4697
 5351SOL    HW221176   1.695   2.551   2.466  0.3435 -0.2472 -1.7380
 5351SOL    HW321177   1.712   2.699   2.441  2.0730 -0.0104  0.5534
 5351SOL    MW421178   1.729   2.628   2.488 -0.1869  0.0810 -0.0152
 5352SOL     OW21179   0.800   3.815   4.384 -0.2862  0.1980 -0.2551
 5352SOL    HW221180   0.803   3.910   4.372 -0.6288  0.4033  1.1380
 5352SOL    HW321181   0.878   3.795   4.436  0.0912 -0.3736 -1.0243
 5352SOL    MW421182   0.811   3.825   4.389  0.5696 -0.1687 -0.2916
 5353SOL     OW21183   3.576   1.869   0.908  0.4891 -0.2221 -0.4152
 5353SOL    HW221184   3.530   1.951   0.927  1.9984  0.4508  0.4952
 5353SOL    HW321185   3.506   1.806   0.892 -0.7374  0.9183  0.2390
 5353SOL    MW421186   3.560   1.871   0.908 -0.4035  0.0664 -0.1580
 5354SOL     OW21187   2.223   0.321   4.418 -0.1227 -0.2547  0.7198
 5354SOL    HW221188   2.157   0.388   4.397 -2.0287 -1.3367  2.8490
 5354SOL    HW321189   2.217   0.259   4.345  0.2540  0.8275 -0.2741
 5354SOL    MW421190   2.213   0.322   4.405  0.3287  0.6204  0.0197
 5355SOL     OW21191   0.160   3.835   5.743 -0.8807  0.0434 -0.1377
 5355SOL    HW221192   0.125   3.873   5.824 -1.3153 -1.4208  0.3921
 5355SOL    HW321193   0.086   3.835   5.683 -1.3745 -1.4433  0.4144
 5355SOL    MW421194   0.146   3.840   5.746 -0.4006  0.2666 -0.1658
 5356SOL     OW21195   4.607   4.829   0.075 -0.6025 -0.1273  0.0418
 5356SOL    HW221196   4.641   4.883   0.004  0.0974 -2.0926 -1.2102
 5356SOL    HW321197   4.520   4.802   0.046 -0.8083  0.0393  0.4941
 5356SOL    MW421198   4.600   4.832   0.062  0.0184 -0.1205 -0.4135
 5357SOL     OW21199   6.192   6.077   5.514  0.2620 -0.6855  0.4009
 5357SOL    HW221200   6.113   6.031   5.484  0.1588 -0.0630 -0.3017
 5357SOL    HW321201   6.165   6.119   5.596  0.0667 -1.0459  0.5246
 5357SOL    MW421202   6.178   6.076   5.521  0.2800  0.4294  0.1873
 5358SOL     OW21203   0.760   5.483   4.760 -0.5253  0.4244  0.1718
 5358SOL    HW221204   0.744   5.577   4.759  1.0397  0.7306 -1.4961
 5358SOL    HW321205   0.705   5.448   4.690 -1.4211 -0.0007  1.0579
 5358SOL    MW421206   0.751   5.490   4.750 -0.3510 -0.0446  0.3799
 5359SOL     OW21207   5.981   0.017   2.434  0.3706  0.0112 -0.4794
 5359SOL    HW221208   5.945   0.018   2.523  0.8791 -0.2593 -0.2636
 5359SOL    HW321209   5.949  -0.064   2.396  1.2895 -0.5800 -0.0468
 5359SOL    MW421210   5.972   0.006   2.441  0.5244  0.1875 -0.6346
 5360SOL     OW21211   6.242   5.625   2.477  0.1967 -0.1459  0.3736
 5360SOL    HW221212   6.301   5.681   2.527  0.8009 -1.1807  0.8561
 5360SOL    HW321213   6.274   5.631   2.387  1.2885 -0.9605  0.6802
 5360SOL    MW421214   6.254   5.633   2.472  0.8183  0.1771 -0.5729
 5361SOL     OW21215   0.028   2.093   0.910  0.4383 -0.2035  0.0271
 5361SOL    HW221216  -0.011   2.094   0.997  2.3481  3.0206  1.0111
 5361SOL    HW321217   0.049   2.185   0.892 -0.1331 -0.6701 -4.0183
 5361SOL    MW421218   0.026   2.105   0.919  0.0874 -0.0438  0.3738
 5362SOL     OW21219   1.852   2.574   3.103  0.0016  0.0311  0.5126
 5362SOL    HW221220   1.766   2.534   3.097  0.2080 -0.8868  2.7225
 5362SOL    HW321221   1.900   2.539   3.028 -1.6839  1.0404 -1.1110
 5362SOL    MW421222   1.847   2.564   3.092  0.2862 -0.2686 -0.2967
 5363SOL     OW21223   0.410   4.678   4.098  0.4695 -0.0212  0.0024
 5363SOL    HW221224   0.451   4.607   4.050 -1.0673 -1.4815  0.7541
 5363SOL    HW321225   0.421   4.655   4.190 -0.3630  0.5334  0.2549
 5363SOL    MW421226   0.417   4.666   4.104  0.8727  0.4445 -0.3248
 5364SOL     OW21227   0.134   4.651   4.056  0.0833 -0.1707  0.5424
 5364SOL    HW221228   0.227   4.670   4.065  0.4113 -0.9266 -0.9301
 5364SOL    HW321229   0.125   4.615   3.967 -1.6218 -0.0263  0.6192
 5364SOL    MW421230   0.145   4.649   4.045 -0.6587  0.7484 -0.2167
 5365SOL     OW21231   2.074   3.165   0.425  0.1954 -0.1376 -0.1138
 5365SOL    HW221232   2.067   3.259   0.441 -0.9174 -0.4746  1.6770
 5365SOL    HW321233   2.017   3.149   0.350  1.3439  0.7615 -1.2137
 5365SOL    MW421234   2.065   3.175   0.417  0.0791  0.4944  0.5316
 5366SOL     OW21235   5.309   5.304   6.138 -0.1830 -0.1061 -0.1483
 5366SOL    HW221236   5.219   5.281   6.160  0.4952 -0.3200  2.7904
 5366SOL    HW321237   5.353   5.220   6.124  0.1745 -0.1596  1.2268
 5366SOL    MW421238   5.303   5.290   6.139 -0.3991  0.4368 -0.9525
 5367SOL     OW21239   5.473   0.890   3.033 -0.1049 -0.5389 -0.2168
 5367SOL    HW221240   5.427   0.818   2.989  0.1123  0.0186 -1.3898
 5367SOL    HW321241   5.415   0.914   3.105 -0.6208 -1.2720 -0.3698
 5367SOL    MW421242   5.459   0.883   3.037  0.3114  0.1432  0.0754
 5368SOL     OW21243   1.600   3.762   3.113  0.2731  0.1253  0.0001
 5368SOL    HW221244   1.574   3.833   3.053  1.8655  0.4415 -0.3605
 5368SOL    HW321245   1.681   3.727   3.075 -0.7251 -2.2642 -0.1198
 5368SOL    MW421246   1.607   3.767   3.100  0.3200  0.4852 -0.0208
 5369SOL     OW21247   6.128   6.186   5.777  0.4573  0.6139  0.0075
 5369SOL    HW221248   6.147   6.276   5.751  0.7846 -0.2084 -2.9713
 5369SOL    HW321249   6.211   6.153   5.811  0.8448  0.9344 -0.5974
 5369SOL    MW421250   6.141   6.194   5.778  0.0312 -0.1542 -0.2687
 5370SOL     OW21251   0.775   3.268   5.726  0.2117  0.1002  0.0001
 5370SOL    HW221252   0.791   3.200   5.661 -0.3780 -0.0059 -0.0363
 5370SOL    HW321253   0.859   3.279   5.771  0.2463 -0.8181  0.1643
 5370SOL    MW421254   0.788   3.261   5.723  0.3432  0.4297 -0.0166
 5371SOL     OW21255   3.161   5.877   0.182 -0.4555 -0.2472 -0.3875
 5371SOL    HW221256   3.161   5.877   0.277 -0.6124 -3.8618 -0.2534
 5371SOL    HW321257   3.078   5.836   0.157  0.5430 -1.4303 -1.9775
 5371SOL    MW421258   3.150   5.872   0.191  0.4813  0.7056 -0.1379
 5372SOL     OW21259   6.084   2.510   0.651  0.3154 -0.0506  0.0207
 5372SOL    HW221260   6.010   2.490   0.594 -1.2282  1.6228  1.3177
 5372SOL    HW321261   6.102   2.428   0.697 -1.8433 -0.0965  0.8711
 5372SOL    MW421262   6.077   2.496   0.650 -0.1848  1.0808  0.6529
 5373SOL     OW21263   1.571   3.206   2.684  0.3288 -0.2741  0.1533
 5373SOL    HW221264   1.484   3.232   2.713  0.0016 -0.4185 -0.6667
 5373SOL    HW321265   1.572   3.111   2.695 -0.0179 -0.4058 -0.8478
 5373SOL    MW421266   1.560   3.197   2.690  0.5459 -0.1188  1.3531
 5374SOL     OW21267   4.770   1.954   3.244 -0.2295  0.4169  0.5639
 5374SOL    HW221268   4.708   1.978   3.312  0.9218  1.0863  1.4159
 5374SOL    HW321269   4.737   1.871   3.209 -2.2922  1.3768  0.0760
 5374SOL    MW421270   4.758   1.946   3.248 -0.0785 -0.0363  0.3421
 5375SOL     OW21271   0.461   3.794   0.916 -0.3913  0.5962 -0.5613
 5375SOL    HW221272   0.526   3.801   0.987 -1.3869 -1.5511  0.6615
 5375SOL    HW321273   0.381   3.830   0.953 -1.3821 -2.0771  0.1592
 5375SOL    MW421274   0.459   3.799   0.930  0.3195  0.0158 -0.0360
 5376SOL     OW21275   4.647   2.608   5.966  0.0658  0.4125 -0.2631
 5376SOL    HW221276   4.641   2.528   6.017  0.0065  0.9338  0.5673
 5376SOL    HW321277   4.559   2.618   5.928 -0.5139  1.0431  1.1476
 5376SOL    MW421278   4.634   2.599   5.968  0.0337 -0.3438 -0.2779
 5377SOL     OW21279   0.322   3.438   3.504 -0.1246 -1.1520 -0.1159
 5377SOL    HW221280   0.306   3.363   3.561  1.1224 -1.2823  0.0998
 5377SOL    HW321281   0.361   3.399   3.425  1.7364 -0.6740  0.4992
 5377SOL    MW421282   0.325   3.423   3.501 -0.2955  0.0922  0.0739
 5378SOL     OW21283   2.997   0.978   4.191  0.1253 -0.4033  0.0165
 5378SOL    HW221284   3.072   0.997   4.135  0.6697 -1.3298  0.4106
 5378SOL    HW321285   3.012   0.888   4.223 -0.0144  0.1865  1.8796
 5378SOL    MW421286   3.009   0.968   4.188  0.1607 -0.1183  0.3435
 5379SOL     OW21287   0.004   4.823   5.441 -0.0873  0.2060  0.1746
 5379SOL    HW221288   0.076   4.880   5.467 -0.7250  0.9541  0.3261
 5379SOL    HW321289   0.045   4.756   5.385  1.1171 -0.7341  2.0812
 5379SOL    MW421290   0.019   4.822   5.437 -0.4734 -0.4718  0.4262
 5380SOL     OW21291   2.913   2.152   0.853 -0.0335  0.3242 -0.2678
 5380SOL    HW221292   2.843   2.212   0.878 -0.4439 -0.2997  0.1109
 5380SOL    HW321293   2.885   2.116   0.769 -0.6321 -0.6365  0.3369
 5380SOL    MW421294   2.900   2.155   0.845 -0.1889  0.3681 -0.4501
 5381SOL     OW21295   5.905   5.980   0.755  0.5576 -0.4480 -0.3759
 5381SOL    HW221296   5.938   5.897   0.787 -1.7339 -1.6749 -0.9551
 5381SOL    HW321297   5.850   5.956   0.680  1.2375  1.7772 -1.6947
 5381SOL    MW421298   5.902   5.966   0.749 -0.2456 -0.1225  0.4552
 5382SOL     OW21299   6.411   4.747   4.464 -0.1769 -0.5127 -0.0758
 5382SOL    HW221300   6.409   4.690   4.388 -0.9587 -0.6681  0.0515
 5382SOL    HW321301   6.426   4.834   4.429 -3.2322 -0.1367 -0.7224
 5382SOL    MW421302   6.412   4.751   4.450 -0.7890  0.3391 -0.3111
 5383SOL     OW21303   2.145   0.639   6.050 -0.0051 -0.0642  0.3252
 5383SOL    HW221304   2.233   0.656   6.083  0.5294  0.5955 -1.3572
 5383SOL    HW321305   2.139   0.543   6.046  1.5219 -0.1539 -1.6662
 5383SOL    MW421306   2.156   0.628   6.054 -0.5341  0.1169  0.5237
 5384SOL     OW21307   4.011   5.783   0.401  0.2448 -0.2944 -0.2158
 5384SOL    HW221308   4.039   5.691   0.402  0.5578 -0.2114 -1.0619
 5384SOL    HW321309   3.959   5.791   0.321  0.1000  0.2359 -0.0682
 5384SOL    MW421310   4.008   5.772   0.391 -0.3512  0.0002 -0.1786
 5385SOL     OW21311   5.353   3.710   5.863  0.4036 -0.3559  0.1311
 5385SOL    HW221312   5.261   3.717   5.840  0.3487  1.6784  0.7438
 5385SOL    HW321313   5.399   3.712   5.779  0.0110  2.5591 -0.1188
 5385SOL    MW421314   5.347   3.711   5.849 -0.5448 -0.3991 -0.2638
 5386SOL     OW21315   6.111   2.074   1.952  0.3493  0.2401  0.0335
 5386SOL    HW221316   6.130   1.992   1.997 -1.8376 -1.3722 -1.7568
 5386SOL    HW321317   6.041   2.052   1.890  0.5634  3.1791 -1.4247
 5386SOL    MW421318   6.104   2.060   1.949  0.5725  0.2249  0.4363
 5387SOL     OW21319   0.474   2.520   5.733 -0.2313  0.7428 -0.1510
 5387SOL    HW221320   0.422   2.496   5.810  0.1971  1.4040  0.3517
 5387SOL    HW321321   0.501   2.436   5.695  1.5682  0.3881  1.7907
 5387SOL    MW421322   0.470   2.505   5.738 -0.1386 -0.0114  0.7621
 5388SOL     OW21323   0.874   5.108   3.019  0.1089 -0.4914  0.3465
 5388SOL    HW221324   0.818   5.149   2.953 -1.6439 -1.5417  1.1075
 5388SOL    HW321325   0.900   5.025   2.979 -0.1809 -0.7025  0.5865
 5388SOL    MW421326   0.870   5.102   3.005  0.6317  0.2008 -0.1530
 5389SOL     OW21327   6.254   6.380   2.314 -0.9121  0.6435 -0.3144
 5389SOL    HW221328   6.182   6.417   2.365 -1.4955 -2.3348  1.2451
 5389SOL    HW321329   6.332   6.393   2.368 -0.6125  1.9611 -1.0297
 5389SOL    MW421330   6.254   6.386   2.328  0.1843  0.3071 -0.0869
 5390SOL     OW21331   0.784   2.077   2.030  0.5135  0.0513  0.6564
 5390SOL    HW221332   0.814   2.004   2.084  1.7334  1.5086  2.0664
 5390SOL    HW321333   0.692   2.088   2.053 -0.0178 -1.7377 -0.4502
 5390SOL    MW421334   0.776   2.069   2.040 -0.4976 -0.1061  0.1719
 5391SOL     OW21335   2.395   0.321   6.058 -0.1269 -0.0783 -0.0298
 5391SOL    HW221336   2.334   0.251   6.034  0.0160 -0.2675  0.1648
 5391SOL    HW321337   2.348   0.371   6.126  1.1342 -2.0646  2.4577
 5391SOL    MW421338   2.381   0.319   6.064  0.5084 -0.4275 -0.3566
 5392SOL     OW21339   3.759   1.713   5.146  0.3184  0.1752  0.7007
 5392SOL    HW221340   3.782   1.628   5.184  1.0153  1.4199  3.2417
 5392SOL    HW321341   3.667   1.702   5.120  0.2905 -1.2602  1.2662
 5392SOL    MW421342   3.750   1.700   5.148  0.4877 -0.4455  0.0241
 5393SOL     OW21343   1.359   1.928   5.751 -0.7931 -0.1740 -0.1485
 5393SOL    HW221344   1.366   1.919   5.846  2.1336 -0.6877 -0.3061
 5393SOL    HW321345   1.413   2.005   5.730 -1.0109 -0.3462 -1.4212
 5393SOL    MW421346   1.367   1.937   5.761 -0.2023 -0.1565  0.5957
 5394SOL     OW21347   2.114   1.623   4.246  0.0339 -1.1161 -0.0013
 5394SOL    HW221348   2.148   1.574   4.321 -0.7894 -1.5968  0.0642
 5394SOL    HW321349   2.121   1.563   4.173  1.8783 -0.2764 -0.5762
 5394SOL    MW421350   2.120   1.609   4.247  0.2953 -0.1673 -0.2190
 5395SOL     OW21351   2.105   4.492   5.688  0.0367  0.2667  0.5212
 5395SOL    HW221352   2.082   4.573   5.733 -1.1157  0.4396 -0.3483
 5395SOL    HW321353   2.101   4.424   5.756 -0.6995  0.6723  0.8872
 5395SOL    MW421354   2.102   4.493   5.703  0.1484  0.1133 -0.3779
 5396SOL     OW21355   1.217   2.103   3.713 -0.3938  0.2790 -0.2115
 5396SOL    HW221356   1.184   2.191   3.696 -2.4195 -0.4888 -0.5738
 5396SOL    HW321357   1.236   2.067   3.627 -2.1783 -0.5423 -0.3023
 5396SOL    MW421358   1.215   2.110   3.700 -0.3422  0.4198  0.2125
 5397SOL     OW21359   3.539   5.196   4.631  0.6763 -0.3595  0.4544
 5397SOL    HW221360   3.492   5.278   4.611  1.6872  0.4658  1.3559
 5397SOL    HW321361   3.551   5.198   4.726  1.1387 -1.3262  0.4225
 5397SOL    MW421362   3.534   5.207   4.641 -0.0575  0.0614 -0.2637
 5398SOL     OW21363   4.014   2.259   1.762  0.5452  0.2650 -0.4581
 5398SOL    HW221364   3.987   2.237   1.673 -0.3397  1.5164 -0.5266
 5398SOL    HW321365   4.098   2.215   1.774  0.1446 -0.8461 -1.5038
 5398SOL    MW421366   4.021   2.250   1.752  0.2088 -0.7331 -0.9042
 5399SOL     OW21367   2.021   0.151   4.603  0.0297  0.0749 -0.1215
 5399SOL    HW221368   1.960   0.086   4.638 -2.8851  2.8431  0.4199
 5399SOL    HW321369   2.005   0.151   4.509 -0.2914  0.2864 -0.0687
 5399SOL    MW421370   2.011   0.142   4.595  0.2758 -0.0978  0.4119
 5400SOL     OW21371   3.480   4.998   1.792 -0.4063  0.0297 -0.4631
 5400SOL    HW221372   3.439   5.005   1.706 -3.2975  0.3920  0.8422
 5400SOL    HW321373   3.540   5.072   1.796 -0.7753  0.4367 -1.8817
 5400SOL    MW421374   3.483   5.009   1.781  0.2327 -0.2704  0.0154
 5401SOL     OW21375   2.053   6.085   4.129  0.6006 -0.4726 -0.4000
 5401SOL    HW221376   1.982   6.135   4.090  0.8445  0.0168 -0.2321
 5401SOL    HW321377   2.079   6.136   4.206 -1.8365 -2.8536  2.2260
 5401SOL    MW421378   2.047   6.098   4.134 -1.2470 -0.7418  0.4286
 5402SOL     OW21379   3.753   5.084   0.436  0.2887 -0.2954 -0.2265
 5402SOL    HW221380   3.772   5.154   0.374  0.8773  0.5781  0.8985
 5402SOL    HW321381   3.790   5.005   0.396  0.1513  0.1434 -1.2312
 5402SOL    MW421382   3.761   5.082   0.423  0.3856  0.1817  0.4088
 5403SOL     OW21383   5.370   2.726   2.470  0.3434 -0.4416 -0.2572
 5403SOL    HW221384   5.450   2.779   2.460 -0.3709  0.9119  0.8167
 5403SOL    HW321385   5.386   2.648   2.417  2.6119 -0.4854  0.3883
 5403SOL    MW421386   5.383   2.723   2.462 -0.2705  0.1181  0.3805
 5404SOL     OW21387   5.837   4.005   3.321 -0.0182  0.2284 -0.5514
 5404SOL    HW221388   5.752   3.964   3.304  0.5664 -0.3691 -2.2914
 5404SOL    HW321389   5.899   3.932   3.320  0.5635  0.6982  0.3628
 5404SOL    MW421390   5.834   3.990   3.318  0.1019 -0.2156  0.2313
 5405SOL     OW21391   5.057   0.286   0.686  0.2575  0.0957  0.2783
 5405SOL    HW221392   5.097   0.252   0.606  2.7149 -0.8920  1.7920
 5405SOL    HW321393   4.987   0.343   0.656  0.7381 -0.6608 -2.5451
 5405SOL    MW421394   5.053   0.289   0.671  0.2795 -0.1524 -0.2520
 5406SOL     OW21395   6.429   2.856   4.895  0.1887 -0.0409 -0.3688
 5406SOL    HW221396   6.441   2.762   4.882 -0.3270 -0.2461  0.5904
 5406SOL    HW321397   6.514   2.887   4.926  0.0110 -0.4224  0.5293
 5406SOL    MW421398   6.442   2.848   4.897 -0.5437  0.4715  0.3977
 5407SOL     OW21399   1.161   1.541   4.328  0.0470 -0.6588  0.1665
 5407SOL    HW221400   1.115   1.603   4.271 -0.2071 -1.0423 -0.0552
 5407SOL    HW321401   1.145   1.572   4.416 -0.8274 -0.9006  0.1077
 5407SOL    MW421402   1.153   1.553   4.332 -0.6862  0.0567 -0.0024
 5408SOL     OW21403   3.402   2.784   2.768 -0.4908  0.0958  0.1328
 5408SOL    HW221404   3.395   2.875   2.739 -1.0016  0.1738  0.4791
 5408SOL    HW321405   3.314   2.748   2.754 -0.1989 -0.4536 -0.3517
 5408SOL    MW421406   3.389   2.791   2.762  0.6674 -0.2970  0.0813
 5409SOL     OW21407   3.589   3.240   0.034 -0.3566 -0.2058 -0.0058
 5409SOL    HW221408   3.503   3.246   0.074 -0.2858  1.0505 -0.0048
 5409SOL    HW321409   3.578   3.179  -0.039 -0.7858 -1.5292  1.1348
 5409SOL    MW421410   3.576   3.233   0.030  0.2573  0.3905 -1.0951
 5410SOL     OW21411   3.917   5.721   3.074  0.5592 -0.5303  0.5891
 5410SOL    HW221412   3.828   5.753   3.064 -0.1702 -1.8772  2.2112
 5410SOL    HW321413   3.968   5.798   3.098 -0.1401  0.2608 -0.3618
 5410SOL    MW421414   3.912   5.735   3.076 -0.2647  0.1071 -0.1737
 5411SOL     OW21415   1.670   5.317   4.146 -0.2472 -0.5738  0.3811
 5411SOL    HW221416   1.753   5.361   4.165 -1.2229  0.4541  2.6516
 5411SOL    HW321417   1.637   5.362   4.068  0.6605 -0.0020  0.3098
 5411SOL    MW421418   1.677   5.329   4.138 -0.3229 -0.2428 -0.4244
 5412SOL     OW21419   3.641   5.831   2.654  0.8049  0.2048 -0.6818
 5412SOL    HW221420   3.666   5.876   2.573  1.6306 -0.3120 -0.7255
 5412SOL    HW321421   3.714   5.773   2.673  0.1063 -0.5440 -0.1949
 5412SOL    MW421422   3.654   5.829   2.646  0.6201 -0.1371  0.0942
 5413SOL     OW21423   5.350   1.820   4.559  0.1698 -0.1929  0.3387
 5413SOL    HW221424   5.405   1.898   4.554  0.8800 -0.7707 -1.6867
 5413SOL    HW321425   5.270   1.843   4.514 -0.3088 -0.1216  1.2015
 5413SOL    MW421426   5.347   1.833   4.552 -0.2835 -0.3226 -0.2609
 5414SOL     OW21427   2.687   5.045   5.616 -0.4379 -0.5148  0.0164
 5414SOL    HW221428   2.675   5.123   5.563  1.0848  0.0358  0.4191
 5414SOL    HW321429   2.602   5.029   5.657 -0.9271  0.5591 -0.5711
 5414SOL    MW421430   2.674   5.053   5.615 -0.7716 -0.2063  0.9791
 5415SOL     OW21431   4.696   6.132   6.321  0.1982 -0.0830  0.1237
 5415SOL    HW221432   4.657   6.219   6.327 -1.0197 -0.6350  0.7074
 5415SOL    HW321433   4.744   6.133   6.238  1.8694  1.7562  1.0349
 5415SOL    MW421434   4.697   6.144   6.310  0.3660  0.4998  0.4208
 5416SOL     OW21435   3.497   1.047   2.549 -0.7766 -0.2403  0.1570
 5416SOL    HW221436   3.585   1.082   2.560 -0.5064 -1.2967  1.7217
 5416SOL    HW321437   3.499   1.000   2.465  0.4182 -0.9690  0.5752
 5416SOL    MW421438   3.509   1.045   2.539  0.3022  0.4333  0.0171
 5417SOL     OW21439   4.472   3.239   4.920  0.4487 -0.3134 -0.0427
 5417SOL    HW221440   4.447   3.161   4.968  0.3145  0.3272  0.9528
 5417SOL    HW321441   4.508   3.298   4.986 -1.1599  1.1982 -0.4479
 5417SOL    MW421442   4.473   3.237   4.935 -0.1202  0.2737  0.0122
 5418SOL     OW21443   4.632   4.786   2.846 -0.1322 -0.3389 -0.6953
 5418SOL    HW221444   4.675   4.734   2.778  1.1066  0.0341 -0.2186
 5418SOL    HW321445   4.670   4.873   2.837 -0.9877  0.0726 -0.4130
 5418SOL    MW421446   4.642   4.790   2.836 -0.0584  0.3592 -0.0948
 5419SOL     OW21447   1.543   2.067   5.263  0.4534  0.2372  0.3450
 5419SOL    HW221448   1.562   2.141   5.321  3.2951 -0.3300  0.2747
 5419SOL    HW321449   1.622   2.057   5.210 -1.2047 -0.6526 -2.1537
 5419SOL    MW421450   1.556   2.076   5.264 -0.4417 -0.4489  0.3914
 5420SOL     OW21451   5.098   5.541   5.505 -0.0406  0.0726  0.1425
 5420SOL    HW221452   5.014   5.578   5.533 -0.3360 -0.8096  0.4734
 5420SOL    HW321453   5.159   5.614   5.507 -0.9279  0.8592 -0.6674
 5420SOL    MW421454   5.095   5.555   5.509 -0.7376 -0.8591  0.4864
 5421SOL     OW21455   5.757   4.214   0.734  0.9982  0.0658  0.1364
 5421SOL    HW221456   5.703   4.291   0.752 -1.1257 -1.1902 -0.4485
 5421SOL    HW321457   5.773   4.217   0.640 -0.9250 -1.2540 -0.2829
 5421SOL    MW421458   5.752   4.225   0.724  0.5798  0.6018  0.0714
 5422SOL     OW21459   6.134   2.750   0.810 -0.3573 -0.2051  0.2323
 5422SOL    HW221460   6.124   2.668   0.763  0.9640 -1.1103  1.4373
 5422SOL    HW321461   6.082   2.739   0.890  0.6319 -0.2880  0.8806
 5422SOL    MW421462   6.126   2.738   0.815  0.4770 -1.0015  0.1477
 5423SOL     OW21463   3.134   5.036   0.991 -0.0708  0.2100 -0.0031
 5423SOL    HW221464   3.077   5.063   1.063 -0.4890  0.1779 -0.3175
 5423SOL    HW321465   3.089   5.067   0.912 -1.1240 -2.2852 -0.4702
 5423SOL    MW421466   3.121   5.044   0.990  0.3702 -0.0918  0.0045
 5424SOL     OW21467   3.498   1.769   2.543  0.1158 -0.3928  0.4396
 5424SOL    HW221468   3.418   1.719   2.557 -0.3369  0.6122  1.5927
 5424SOL    HW321469   3.544   1.721   2.474 -0.1119 -2.6129  1.7132
 5424SOL    MW421470   3.494   1.756   2.536  0.4916 -0.0075  0.5007
 5425SOL     OW21471   4.322   2.096   5.685 -0.4802 -0.3184 -0.1330
 5425SOL    HW221472   4.391   2.033   5.662 -0.2317 -0.1501  0.1466
 5425SOL    HW321473   4.241   2.055   5.655 -0.0876  0.2881 -2.1760
 5425SOL    MW421474   4.320   2.082   5.678  0.1369 -0.4594 -0.3051
 5426SOL     OW21475   3.483   3.826   5.516 -0.2869  0.3148 -1.0060
 5426SOL    HW221476   3.520   3.750   5.471  0.2732  0.5903 -1.0204
 5426SOL    HW321477   3.514   3.817   5.606 -0.4789  0.3611 -0.9360
 5426SOL    MW421478   3.492   3.814   5.522 -0.1045 -0.1448 -0.2418
 5427SOL     OW21479   4.953   1.375   0.706 -0.9019 -0.3937 -0.0490
 5427SOL    HW221480   4.926   1.427   0.782 -0.1994  0.9544 -0.6946
 5427SOL    HW321481   4.959   1.286   0.740  1.3029  0.4093  2.0610
 5427SOL    MW421482   4.951   1.370   0.721  0.0134  0.1959  0.6046
 5428SOL     OW21483   6.382   0.844   1.093  0.7662 -0.3620  0.0986
 5428SOL    HW221484   6.368   0.891   1.011  0.7949 -0.3816  0.0826
 5428SOL    HW321485   6.398   0.753   1.066 -1.0105 -0.7406  0.2081
 5428SOL    MW421486   6.382   0.838   1.079 -0.0168  0.5124 -0.4776
 5429SOL     OW21487   3.824   5.159   4.301  0.5799  0.6628  0.0499
 5429SOL    HW221488   3.915   5.146   4.329 -0.2153 -0.8971  2.1514
 5429SOL    HW321489   3.787   5.216   4.369 -0.6252 -0.7273  0.5979
 5429SOL    MW421490   3.831   5.165   4.314 -0.1273  0.2366  0.6386
 5430SOL     OW21491   4.069   4.629   1.523 -0.4934 -0.0868 -0.6177
 5430SOL    HW221492   4.124   4.586   1.588 -1.3949  0.7205  0.7385
 5430SOL    HW321493   4.131   4.668   1.461  0.3691 -1.3569 -0.5875
 5430SOL    MW421494   4.085   4.629   1.524 -0.1524 -0.7419 -0.1159
 5431SOL     OW21495   1.887   2.076   1.332  0.0152 -0.1624 -0.1627
 5431SOL    HW221496   1.830   2.047   1.403  0.0276  0.9798  0.3247
 5431SOL    HW321497   1.836   2.060   1.252  0.0187 -1.4916  0.0755
 5431SOL    MW421498   1.873   2.070   1.331 -0.2590  0.4534  0.6432
 5432SOL     OW21499   1.143   4.646   5.000 -0.9129  0.2944 -0.6874
 5432SOL    HW221500   1.050   4.650   5.023 -0.8792  3.5051 -0.6994
 5432SOL    HW321501   1.189   4.665   5.082 -0.1910 -1.6264 -0.6011
 5432SOL    MW421502   1.137   4.649   5.014  0.3671  0.0922 -0.0003
 5433SOL     OW21503   2.429   3.188   1.412  0.0421  0.5297  0.0574
 5433SOL    HW221504   2.350   3.139   1.388  0.1127  0.2568  0.3778
 5433SOL    HW321505   2.478   3.196   1.330  1.1762 -1.9873  0.3841
 5433SOL    MW421506   2.425   3.183   1.398  0.2130 -1.1036 -0.1565
 5434SOL     OW21507   3.447   6.190   2.330  0.6868  0.3509  0.2037
 5434SOL    HW221508   3.480   6.164   2.416  0.4425 -1.1169 -0.1211
 5434SOL    HW321509   3.372   6.246   2.349 -0.6924 -1.6609  1.0038
 5434SOL    MW421510   3.441   6.194   2.343  0.0500  0.2580  0.2235
 5435SOL     OW21511   4.502   4.527   3.522 -0.5454  0.3769 -0.2887
 5435SOL    HW221512   4.461   4.531   3.436 -0.9383  0.3643 -0.1069
 5435SOL    HW321513   4.549   4.610   3.531  1.0189 -0.3651 -1.2515
 5435SOL    MW421514   4.503   4.538   3.512  0.8268 -1.0936  0.3642
 5436SOL     OW21515   0.847   4.303   2.943 -0.0799  0.1830  0.7921
 5436SOL    HW221516   0.787   4.361   2.991 -0.5855  0.1253  0.2370
 5436SOL    HW321517   0.791   4.235   2.906  0.3447  0.0652  0.3587
 5436SOL    MW421518   0.832   4.302   2.945  0.4625  1.1020  0.1273
 5437SOL     OW21519   5.255   5.753   5.840  0.4287 -0.6260 -0.6899
 5437SOL    HW221520   5.325   5.745   5.776  0.5906 -0.9622 -0.4705
 5437SOL    HW321521   5.300   5.760   5.925  0.2948  1.5679 -0.7426
 5437SOL    MW421522   5.270   5.753   5.843 -0.4826  0.6124  0.1021
 5438SOL     OW21523   2.169   4.626   4.920 -0.7144 -0.9801  0.5156
 5438SOL    HW221524   2.177   4.602   4.828  0.3359 -1.0917  0.6278
 5438SOL    HW321525   2.078   4.605   4.943 -1.0537 -0.7206 -0.5495
 5438SOL    MW421526   2.158   4.620   4.911  0.3393 -0.5926  0.0632
 5439SOL     OW21527   1.931   2.831   0.349  0.0076  0.2822  0.8146
 5439SOL    HW221528   1.856   2.823   0.408  0.2440  1.8261  1.3824
 5439SOL    HW321529   1.901   2.794   0.266 -1.3715  0.8405  1.0423
 5439SOL    MW421530   1.917   2.825   0.346  0.1678 -0.0776 -0.5797
 5440SOL     OW21531   1.551   1.784   1.546  0.1409  0.4388 -0.0162
 5440SOL    HW221532   1.611   1.724   1.592 -0.3477 -0.9042 -1.0621
 5440SOL    HW321533   1.475   1.791   1.604  0.2235  0.0802  0.1377
 5440SOL    MW421534   1.549   1.777   1.560 -0.0932 -0.2405 -0.3875
 5441SOL     OW21535   0.937   5.958   2.673 -0.0050 -0.0070 -0.2243
 5441SOL    HW221536   0.941   5.942   2.579  0.4746 -2.2306  0.1167
 5441SOL    HW321537   0.899   5.878   2.710  0.6360  0.4470  1.5512
 5441SOL    MW421538   0.933   5.946   2.666 -0.1240  0.7327  0.0041
 5442SOL     OW21539   3.133   4.930   5.102 -0.1545  0.3549 -0.1839
 5442SOL    HW221540   3.045   4.898   5.122  0.6002 -0.8468  1.4405
 5442SOL    HW321541   3.119   5.007   5.047 -2.2182  0.2612  0.1441
 5442SOL    MW421542   3.120   4.936   5.098  0.0608 -0.2687  0.3606
 5443SOL     OW21543   4.683   1.370   2.673 -0.2671 -0.6010 -0.2120
 5443SOL    HW221544   4.597   1.350   2.636 -0.5868 -0.6128  0.5289
 5443SOL    HW321545   4.743   1.362   2.599 -1.1183  1.1815 -1.1666
 5443SOL    MW421546   4.679   1.367   2.658  0.1910  0.5523 -0.2553
 5444SOL     OW21547   0.814   2.676   2.856  0.2836  0.5435 -0.1886
 5444SOL    HW221548   0.890   2.712   2.809  0.4503 -0.6912 -0.9132
 5444SOL    HW321549   0.848   2.597   2.897  0.0121  1.3544  1.6637
 5444SOL    MW421550   0.829   2.670   2.855 -0.2790 -0.5753  0.1680
 5445SOL     OW21551   2.614   0.810   0.465 -0.3489 -0.3239 -0.0495
 5445SOL    HW221552   2.616   0.904   0.481 -0.6496 -0.4939  1.0490
 5445SOL    HW321553   2.684   0.774   0.520 -0.4866 -0.7825 -0.1624
 5445SOL    MW421554   2.624   0.817   0.474 -0.2212 -0.1592  0.1559
 5446SOL     OW21555   3.507   5.261   1.268 -0.0262 -0.5330 -0.1923
 5446SOL    HW221556   3.471   5.250   1.180 -0.6512 -0.5836  0.0654
 5446SOL    HW321557   3.492   5.353   1.289 -1.2551 -0.8525  0.4425
 5446SOL    MW421558   3.500   5.271   1.259 -0.1995  0.4650  0.2195
 5447SOL     OW21559   4.830   2.178   1.551  0.5325 -0.0993  0.5642
 5447SOL    HW221560   4.757   2.225   1.511 -0.1348 -1.5101  0.0304
 5447SOL    HW321561   4.894   2.245   1.573 -0.9524  1.1973  1.1131
 5447SOL    MW421562   4.829   2.193   1.549  1.0564 -0.2709 -0.3592
 5448SOL     OW21563   0.526   2.245   0.668 -0.2724  0.2302 -0.0583
 5448SOL    HW221564   0.487   2.299   0.737 -1.3713  0.0832 -0.5338
 5448SOL    HW321565   0.518   2.299   0.589  0.7590  0.3030 -0.1220
 5448SOL    MW421566   0.519   2.259   0.667  0.5290  0.4385 -0.1875
 5449SOL     OW21567   1.546   5.583   4.258 -0.1547  0.2145 -0.0635
 5449SOL    HW221568   1.625   5.601   4.308  0.8515 -1.2493 -1.0254
 5449SOL    HW321569   1.500   5.517   4.310 -0.1563  0.2258 -0.0505
 5449SOL    MW421570   1.550   5.576   4.272  0.0207 -0.0943  0.4509
 5450SOL     OW21571   5.861   2.171   5.810 -0.8361 -0.0563 -0.7097
 5450SOL    HW221572   5.876   2.111   5.737  0.3666 -0.1508 -0.4145
 5450SOL    HW321573   5.851   2.257   5.769  2.5956  0.3901 -0.9559
 5450SOL    MW421574   5.862   2.174   5.795 -0.4773 -0.0331  0.9378
 5451SOL     OW21575   5.100   3.396   0.830  0.1861 -0.0995 -0.4276
 5451SOL    HW221576   5.053   3.329   0.779 -1.6072  0.8921 -0.1720
 5451SOL    HW321577   5.110   3.470   0.771 -0.0239  0.2869  0.0111
 5451SOL    MW421578   5.095   3.397   0.816  0.0865  0.0084 -0.1465
 5452SOL     OW21579   3.978   2.722   4.787 -0.6486  0.1153 -0.7643
 5452SOL    HW221580   3.944   2.635   4.808 -1.1609  0.2023 -1.2499
 5452SOL    HW321581   4.030   2.745   4.865 -1.2428 -0.2392 -0.2487
 5452SOL    MW421582   3.981   2.713   4.800 -0.1952 -0.6346  0.4395
 5453SOL     OW21583  -0.002   5.777   5.268  0.4843  0.0910  0.1609
 5453SOL    HW221584   0.079   5.827   5.283  0.3409 -0.0865  1.6600
 5453SOL    HW321585   0.003   5.705   5.330 -0.8446  0.0973  0.2925
 5453SOL    MW421586   0.010   5.774   5.278 -0.0301 -0.2831  0.0409
 5454SOL     OW21587   0.697   4.995   1.331  0.1934 -0.2989  0.3634
 5454SOL    HW221588   0.618   5.046   1.350 -0.2639 -0.5445 -0.7754
 5454SOL    HW321589   0.705   4.934   1.404 -0.5088 -0.0740  0.6308
 5454SOL    MW421590   0.688   4.994   1.343  0.0513  0.3777 -0.2163
 5455SOL     OW21591   5.488   5.498   6.183  0.2749 -0.8897 -0.1988
 5455SOL    HW221592   5.468   5.570   6.124 -1.6883 -0.5694  0.7651
 5455SOL    HW321593   5.434   5.425   6.151 -0.7745 -0.7265  1.1259
 5455SOL    MW421594   5.478   5.498   6.171  0.1967 -0.4560  0.5175
 5456SOL     OW21595   0.572   4.881   5.176 -0.0271  0.3824 -0.1136
 5456SOL    HW221596   0.565   4.789   5.200 -1.2675  0.0099 -1.7280
 5456SOL    HW321597   0.652   4.887   5.124 -0.2670  0.1045 -0.5098
 5456SOL    MW421598   0.582   4.870   5.172  0.2825  0.7233  0.7700
 5457SOL     OW21599   1.816   5.299   2.434 -0.1589 -0.6489 -0.3150
 5457SOL    HW221600   1.893   5.241   2.439 -0.3480 -0.8476  0.5408
 5457SOL    HW321601   1.842   5.367   2.372 -0.2393 -2.0811 -2.0021
 5457SOL    MW421602   1.830   5.300   2.427 -0.0247 -0.4191  0.6314
 5458SOL     OW21603   0.736  -0.015   4.770 -0.5108 -0.1957 -0.5760
 5458SOL    HW221604   0.780  -0.090   4.731 -2.3771 -1.5442 -0.2238
 5458SOL    HW321605   0.796   0.014   4.840  1.0707 -0.1548 -1.8998
 5458SOL    MW421606   0.750  -0.021   4.774  0.0508 -0.1814  0.5233
 5459SOL     OW21607   1.465   6.336   5.893 -0.3520  0.4937  0.1516
 5459SOL    HW221608   1.433   6.366   5.808  0.8989 -1.3787 -1.0639
 5459SOL    HW321609   1.530   6.401   5.919 -0.4453  0.8741 -0.5534
 5459SOL    MW421610   1.470   6.348   5.885 -0.2786 -0.6137  0.2591
 5460SOL     OW21611   2.188   5.263   4.316 -0.2539  0.1198 -0.0634
 5460SOL    HW221612   2.258   5.240   4.376 -0.5330  0.0289  0.2300
 5460SOL    HW321613   2.221   5.239   4.229 -0.7887 -2.0417  0.2781
 5460SOL    MW421614   2.201   5.257   4.312  0.5113 -0.4238 -0.0626
 5461SOL     OW21615   1.732   3.881   3.984  0.4840 -0.1676 -0.5955
 5461SOL    HW221616   1.717   3.970   3.953  0.0937 -0.2099 -0.5263
 5461SOL    HW321617   1.720   3.826   3.907  1.1391 -0.1272 -0.7340
 5461SOL    MW421618   1.729   3.885   3.970 -0.3082 -0.3017  0.4640
 5462SOL     OW21619   5.736   3.919   0.617  0.0234 -0.3446  0.6313
 5462SOL    HW221620   5.741   3.886   0.527  0.0294 -1.1405  0.9090
 5462SOL    HW321621   5.797   3.992   0.618  0.8317 -0.9841  0.2465
 5462SOL    MW421622   5.745   3.924   0.605  0.3963  0.4335 -0.1414
 5463SOL     OW21623   4.325   4.759   3.576  0.1742  0.5032  0.4530
 5463SOL    HW221624   4.332   4.669   3.546 -1.3399  0.0041  1.5083
 5463SOL    HW321625   4.359   4.811   3.503 -1.0848 -0.7936 -1.1320
 5463SOL    MW421626   4.330   4.754   3.562 -0.2169  0.0803 -0.2436
 5464SOL     OW21627   2.482   2.397   5.662 -0.0253 -0.1018 -0.4807
 5464SOL    HW221628   2.454   2.408   5.753 -0.3421 -1.1470 -0.4393
 5464SOL    HW321629   2.563   2.447   5.655 -0.5936  0.9176  0.0741
 5464SOL    MW421630   2.489   2.405   5.673  0.5715 -0.1683 -0.4291
 5465SOL     OW21631   5.094   4.568   3.283 -0.3364 -0.1346  0.0874
 5465SOL    HW221632   5.095   4.627   3.359 -2.3471  1.3670 -0.9458
 5465SOL    HW321633   5.119   4.625   3.210  0.4464 -1.2830 -0.5618
 5465SOL    MW421634   5.098   4.584   3.284  0.1796  0.2527  0.4116
 5466SOL     OW21635   1.407   4.358   4.686  0.6077 -0.0955  0.9278
 5466SOL    HW221636   1.374   4.396   4.768 -0.0963  1.4921 -0.0426
 5466SOL    HW321637   1.470   4.292   4.714 -1.3326 -1.2780  2.8028
 5466SOL    MW421638   1.411   4.355   4.701  0.0703  0.2281  0.3412
 5467SOL     OW21639   3.853   4.834   0.369 -0.1043 -0.0468  0.0381
 5467SOL    HW221640   3.796   4.766   0.405 -1.1537  0.7467 -0.1057
 5467SOL    HW321641   3.941   4.796   0.375 -0.8321 -2.3845 -2.1439
 5467SOL    MW421642   3.857   4.820   0.374 -0.2648 -0.1203 -0.5225
 5468SOL     OW21643   3.335   3.532   4.828  0.4573 -0.1041  0.0790
 5468SOL    HW221644   3.254   3.533   4.877 -0.0163 -1.9015 -0.6050
 5468SOL    HW321645   3.352   3.625   4.809 -0.0060  0.5333  2.4470
 5468SOL    MW421646   3.327   3.545   4.832  0.2222 -0.2447  0.0726
 5469SOL     OW21647   4.737   2.138   5.625  0.7235  0.2844 -0.8812
 5469SOL    HW221648   4.688   2.111   5.703  1.4637 -1.0513 -0.8533
 5469SOL    HW321649   4.694   2.094   5.552 -0.6923  2.4468 -1.4328
 5469SOL    MW421650   4.725   2.129   5.626 -0.0664  0.2580  0.4347
 5470SOL     OW21651   5.114   2.674   3.892  0.0276 -0.0241 -0.4465
 5470SOL    HW221652   5.096   2.732   3.818 -0.7399 -0.4449 -0.5973
 5470SOL    HW321653   5.204   2.647   3.879  0.5696  1.5002 -0.1219
 5470SOL    MW421654   5.123   2.678   3.880 -0.0104  0.5617  0.9102
 5471SOL     OW21655   5.893   0.005   1.163  0.3513 -0.3162  0.4523
 5471SOL    HW221656   5.872  -0.036   1.079  2.1105  0.0154 -0.1916
 5471SOL    HW321657   5.866  -0.060   1.229 -1.1381 -0.5409 -0.3464
 5471SOL    MW421658   5.887  -0.009   1.161 -0.6493 -0.2971 -0.5979
 5472SOL     OW21659   6.173   2.080   4.359  0.9171 -0.6750 -0.8902
 5472SOL    HW221660   6.138   2.013   4.300 -0.1549 -0.8144 -0.1342
 5472SOL    HW321661   6.134   2.060   4.444  1.5599  0.1762 -0.3726
 5472SOL    MW421662   6.163   2.069   4.362  0.1910  0.4614 -0.1546
 5473SOL     OW21663   3.131   3.832   4.444  0.2358 -0.0880  0.1010
 5473SOL    HW221664   3.222   3.857   4.464  0.5623 -0.5922 -0.6992
 5473SOL    HW321665   3.127   3.834   4.349  0.1457 -2.5636 -0.0158
 5473SOL    MW421666   3.143   3.836   4.434 -0.2780 -0.1750 -0.1150
 5474SOL     OW21667   2.102   4.807   1.958 -0.0621  0.0677 -0.3162
 5474SOL    HW221668   2.169   4.758   1.911  0.5822  0.0649  0.5630
 5474SOL    HW321669   2.092   4.888   1.908  0.9139  0.2531 -0.2398
 5474SOL    MW421670   2.110   4.812   1.946  0.3419 -0.3971 -0.0650
 5475SOL     OW21671   4.438   2.692   2.898  0.0306  0.1507 -0.4194
 5475SOL    HW221672   4.373   2.627   2.870 -1.8927  0.5508  2.6734
 5475SOL    HW321673   4.452   2.747   2.821 -2.8242 -0.3564 -1.4091
 5475SOL    MW421674   4.432   2.691   2.884  0.6861  0.3634  0.0199
 5476SOL     OW21675   2.161   5.965   5.248 -0.0745  0.1309  0.3441
 5476SOL    HW221676   2.072   5.930   5.256 -0.3361  0.4346 -1.0073
 5476SOL    HW321677   2.187   5.946   5.158  1.1412  0.2687  0.6487
 5476SOL    MW421678   2.152   5.958   5.237  0.4797 -0.3191 -0.2527
 5477SOL     OW21679   5.694   6.211   5.373 -0.4165  0.2055  0.2366
 5477SOL    HW221680   5.689   6.119   5.401 -0.3727 -0.1974 -1.0295
 5477SOL    HW321681   5.769   6.214   5.315 -2.0537  0.4065 -1.9780
 5477SOL    MW421682   5.703   6.199   5.369  0.6021  0.3817 -0.5009
 5478SOL     OW21683   5.736   1.956   0.023  0.1470 -0.1200  0.3268
 5478SOL    HW221684   5.700   2.045   0.020 -0.5632 -0.4321 -1.3031
 5478SOL    HW321685   5.815   1.965   0.076 -0.1127  1.4114  0.5202
 5478SOL    MW421686   5.742   1.969   0.030 -0.0748  0.3354 -0.1963
 5479SOL     OW21687   5.167   1.673   5.919 -0.2699 -0.0829  0.5274
 5479SOL    HW221688   5.091   1.730   5.916 -1.2469 -1.3660 -0.7659
 5479SOL    HW321689   5.242   1.732   5.928 -1.2870  1.3348 -0.0551
 5479SOL    MW421690   5.167   1.688   5.920 -0.2715  0.4190  0.5580
 5480SOL     OW21691   1.703   5.783   0.747 -0.1459 -0.0095  0.3729
 5480SOL    HW221692   1.736   5.713   0.803  0.9359 -1.9237 -2.4498
 5480SOL    HW321693   1.611   5.760   0.733  0.3499 -1.2599 -1.0092
 5480SOL    MW421694   1.695   5.770   0.753 -0.1059 -0.0958  0.1159
 5481SOL     OW21695   5.108   3.407   1.864  0.5807  0.9868 -0.3161
 5481SOL    HW221696   5.016   3.415   1.838  0.6790  3.6849 -0.1795
 5481SOL    HW321697   5.136   3.323   1.828 -1.6258  0.5903 -1.3092
 5481SOL    MW421698   5.099   3.397   1.856  0.4288  0.0655  0.4083
 5482SOL     OW21699   3.228   0.918   6.322 -0.0443 -0.0448 -0.0882
 5482SOL    HW221700   3.250   0.940   6.412 -0.2775  0.3578 -0.1297
 5482SOL    HW321701   3.215   0.823   6.324  0.7374 -0.1542  0.1328
 5482SOL    MW421702   3.229   0.908   6.334  0.1940  0.1472 -0.7470
 5483SOL     OW21703   0.853   2.179   1.783 -0.4658 -0.2156 -0.4233
 5483SOL    HW221704   0.831   2.272   1.786  0.6065  0.0456 -0.1823
 5483SOL    HW321705   0.838   2.148   1.872  1.5062  0.3134  0.1390
 5483SOL    MW421706   0.848   2.188   1.795  0.1183 -0.6923  0.5410
 5484SOL     OW21707   5.216   1.724   1.727 -0.4119 -0.0404 -0.0512
 5484SOL    HW221708   5.290   1.785   1.728 -0.6944  0.3036  0.9909
 5484SOL    HW321709   5.196   1.712   1.634  0.8237  0.0117 -0.3447
 5484SOL    MW421710   5.223   1.730   1.715  0.0812 -0.2184  0.5160
 5485SOL     OW21711   5.526   4.183   1.711  0.2876  0.5001  0.3322
 5485SOL    HW221712   5.473   4.244   1.660  0.6752  0.5990  0.0446
 5485SOL    HW321713   5.481   4.177   1.796 -0.6745 -0.1040 -0.2050
 5485SOL    MW421714   5.513   4.190   1.716 -0.4007  0.5277  0.1837
 5486SOL     OW21715   1.884   2.985   4.130 -0.3991 -0.6146 -0.3928
 5486SOL    HW221716   1.907   3.017   4.043 -0.9450  2.3284  0.4123
 5486SOL    HW321717   1.940   3.035   4.189 -2.1802 -0.2378  1.0643
 5486SOL    MW421718   1.894   2.996   4.126  0.2769  0.0449  0.4938
 5487SOL     OW21719   0.866   1.743   4.920  0.3256  0.4359  0.3415
 5487SOL    HW221720   0.805   1.745   4.995  1.4169 -0.4480  1.2801
 5487SOL    HW321721   0.876   1.835   4.896  1.2223  0.9250  2.3756
 5487SOL    MW421722   0.859   1.756   4.927 -0.4164  0.5755 -0.4245
 5488SOL     OW21723   4.072   4.795   0.591 -0.3039 -0.4368  0.1080
 5488SOL    HW221724   3.992   4.745   0.605 -1.0372  0.7224  0.2210
 5488SOL    HW321725   4.135   4.759   0.654 -1.0450 -0.6948  0.7129
 5488SOL    MW421726   4.070   4.784   0.601 -0.0929 -0.4690  0.1340
 5489SOL     OW21727   0.629   3.078   3.008  0.8251  0.1238  0.2498
 5489SOL    HW221728   0.536   3.099   3.001  0.6651 -0.4912  0.4736
 5489SOL    HW321729   0.639   2.994   2.962  0.6474 -1.4986  2.9497
 5489SOL    MW421730   0.618   3.070   3.001  0.6060  0.4669 -0.0126
 5490SOL     OW21731   3.535   0.045   2.331  0.1354 -0.2533 -0.3964
 5490SOL    HW221732   3.539  -0.051   2.328 -0.9184 -0.2860 -1.5712
 5490SOL    HW321733   3.510   0.065   2.421  2.1830 -0.9656  0.4063
 5490SOL    MW421734   3.532   0.035   2.343  0.8312 -0.2693  0.3822
 5491SOL     OW21735   1.410   5.883   0.905 -0.4186  0.1556 -0.5543
 5491SOL    HW221736   1.422   5.835   0.987 -0.7260 -0.5764 -0.9349
 5491SOL    HW321737   1.490   5.936   0.897  0.6760 -1.4709 -0.9045
 5491SOL    MW421738   1.422   5.884   0.915  0.2303 -0.5339  0.7981
 5492SOL     OW21739   4.053   2.688   1.136 -0.0133  0.8105  0.0738
 5492SOL    HW221740   4.102   2.640   1.203  1.7142  1.7094 -0.5008
 5492SOL    HW321741   4.087   2.656   1.053 -0.2667  1.5793 -0.3339
 5492SOL    MW421742   4.064   2.677   1.134 -0.0059  0.3666  0.1712
 5493SOL     OW21743   1.394   3.578   4.416 -0.0905  0.0359  0.1769
 5493SOL    HW221744   1.488   3.595   4.411  0.0774  0.5423  3.1297
 5493SOL    HW321745   1.353   3.663   4.402 -0.1463 -0.1750 -1.0545
 5493SOL    MW421746   1.401   3.591   4.414 -0.3745 -0.0010  0.5921
 5494SOL     OW21747   5.890   0.900   4.485 -0.0801 -0.5429  0.3787
 5494SOL    HW221748   5.956   0.882   4.552  0.9531  0.4131 -0.3316
 5494SOL    HW321749   5.834   0.967   4.524 -1.4958 -2.2865  1.4914
 5494SOL    MW421750   5.891   0.907   4.499  0.3798 -0.3005  0.4014
 5495SOL     OW21751   6.132   4.766   4.813 -0.1552 -0.4064  0.3097
 5495SOL    HW221752   6.050   4.733   4.850 -0.7168  0.6475  0.0578
 5495SOL    HW321753   6.162   4.696   4.755 -1.2523 -0.5356 -0.1269
 5495SOL    MW421754   6.125   4.752   4.810 -0.0844  0.4004 -0.6215
 5496SOL     OW21755   3.829   0.769   0.417 -0.1425  0.1180  0.4360
 5496SOL    HW221756   3.800   0.785   0.507  0.4695 -0.6611  0.7833
 5496SOL    HW321757   3.761   0.713   0.380 -0.3718  0.4006  0.4211
 5496SOL    MW421758   3.816   0.764   0.424  0.0731  0.0153  1.0749
 5497SOL     OW21759   2.793   3.596   2.439 -0.2193  0.0762  0.2749
 5497SOL    HW221760   2.714   3.598   2.385 -0.1490 -1.5992  0.0478
 5497SOL    HW321761   2.790   3.510   2.483  1.8028 -0.3384 -0.2724
 5497SOL    MW421762   2.782   3.585   2.438  0.2594  0.3739  0.0306
 5498SOL     OW21763   1.109   4.360   3.993  0.6173 -0.2740  0.2704
 5498SOL    HW221764   1.171   4.411   4.045  1.1430 -1.6690  1.0841
 5498SOL    HW321765   1.080   4.291   4.053  0.5343 -1.3879 -1.0086
 5498SOL    MW421766   1.114   4.358   4.008 -0.3715 -0.4049  0.0593
 5499SOL     OW21767   5.266   1.719   5.348 -0.2014  0.3135 -1.0561
 5499SOL    HW221768   5.227   1.706   5.435 -0.6668 -1.6408 -1.5242
 5499SOL    HW321769   5.286   1.813   5.346  0.5233  0.3001  1.4456
 5499SOL    MW421770   5.263   1.730   5.359  0.3093 -0.5799  0.5391
 5500SOL     OW21771   1.610   3.022   0.925 -0.4896  0.0308 -0.0789
 5500SOL    HW221772   1.636   3.106   0.886 -0.4248 -0.2956 -0.7525
 5500SOL    HW321773   1.554   3.047   0.999 -1.2769  0.6535 -0.8596
 5500SOL    MW421774   1.606   3.037   0.930  0.3394 -0.3440  0.6611
 5501SOL     OW21775   1.778   1.442   0.345 -0.2146 -0.0672 -0.4761
 5501SOL    HW221776   1.838   1.513   0.320 -0.2893 -0.1380 -0.8713
 5501SOL    HW321777   1.741   1.413   0.262 -1.8011  0.8509 -0.1291
 5501SOL    MW421778   1.781   1.448   0.330 -0.0698  0.6587 -0.2140
 5502SOL     OW21779   3.875   4.039   3.094 -0.4012  0.3597 -0.3165
 5502SOL    HW221780   3.837   4.027   3.007 -0.0468  0.6520 -0.5147
 5502SOL    HW321781   3.905   3.951   3.120 -1.6213  0.0323  0.0467
 5502SOL    MW421782   3.874   4.026   3.086  0.1961 -0.1953 -0.0938
 5503SOL     OW21783   2.894   0.183   5.680  0.4224 -0.0023 -0.0435
 5503SOL    HW221784   2.807   0.223   5.682 -0.3928 -1.5119 -1.8695
 5503SOL    HW321785   2.885   0.104   5.734  0.8357  0.1544  0.2535
 5503SOL    MW421786   2.881   0.178   5.687 -0.7699  0.5423  0.2372
 5504SOL     OW21787   5.406   5.973   5.467  0.1403 -0.8607  0.6541
 5504SOL    HW221788   5.432   5.975   5.560 -2.3714  0.2564  1.4151
 5504SOL    HW321789   5.415   6.064   5.438  1.2696 -1.2728 -0.3463
 5504SOL    MW421790   5.411   5.985   5.476  0.1610 -0.1804  0.7335
 5505SOL     OW21791   4.438   4.781   5.773 -0.0379 -0.4990  0.4969
 5505SOL    HW221792   4.383   4.775   5.694  1.7938  0.4919 -0.9329
 5505SOL    HW321793   4.431   4.872   5.800 -0.5947 -0.8203  1.4739
 5505SOL    MW421794   4.429   4.792   5.766 -0.3533  0.2056  0.7089
 5506SOL     OW21795   2.131   2.346   2.440 -0.1235  0.2485 -0.3502
 5506SOL    HW221796   2.066   2.404   2.400  1.1090  1.0514 -1.2314
 5506SOL    HW321797   2.133   2.269   2.383 -0.4543  0.1121 -0.1842
 5506SOL    MW421798   2.123   2.343   2.427  0.2997 -0.1364  0.1989
 5507SOL     OW21799   1.716   5.333   4.844 -0.2334 -0.1864  0.4623
 5507SOL    HW221800   1.698   5.244   4.815 -1.3130  0.0992  0.2153
 5507SOL    HW321801   1.664   5.388   4.786  0.7947  0.6429  0.2964
 5507SOL    MW421802   1.707   5.329   4.833 -0.1993  0.2304  0.1336
 5508SOL     OW21803   5.987   4.221   5.973 -0.2610 -0.4639 -0.4307
 5508SOL    HW221804   6.018   4.226   6.064  1.1960 -1.7929 -0.8061
 5508SOL    HW321805   5.980   4.313   5.945  2.5154 -0.0252  0.0160
 5508SOL    MW421806   5.990   4.234   5.981  0.4114 -0.2157  0.2481
 5509SOL     OW21807   0.933   4.884   1.706  0.2472  0.2253  0.2939
 5509SOL    HW221808   0.952   4.806   1.758  1.2981 -0.0589 -0.4819
 5509SOL    HW321809   0.954   4.957   1.764  0.8579 -0.0847  0.4760
 5509SOL    MW421810   0.938   4.883   1.720  0.4000  0.2183 -0.3874
 5510SOL     OW21811   5.520   4.772   6.322  0.2899  0.0394  0.2492
 5510SOL    HW221812   5.547   4.680   6.319  1.0300  0.2324  0.7846
 5510SOL    HW321813   5.600   4.821   6.302  0.7682  0.6751  3.2751
 5510SOL    MW421814   5.534   4.766   6.319  0.1860  0.0048 -0.1784
 5511SOL     OW21815   0.697   1.468   3.060  0.8506  0.1607  0.2008
 5511SOL    HW221816   0.732   1.450   3.147 -0.3058 -0.9184  0.4718
 5511SOL    HW321817   0.615   1.418   3.056  1.0771 -0.1385 -1.6505
 5511SOL    MW421818   0.690   1.459   3.071 -0.8552  0.1397  0.6423
 5512SOL     OW21819   1.847   0.733   1.816 -0.3198 -0.2583 -0.0691
 5512SOL    HW221820   1.864   0.703   1.727 -2.3536 -0.8334 -0.3158
 5512SOL    HW321821   1.922   0.702   1.867  1.2064  0.6675 -1.6661
 5512SOL    MW421822   1.859   0.725   1.811  1.0834 -0.6154  0.1376
 5513SOL     OW21823   6.212   5.305   5.294 -0.5141 -0.1061 -0.1484
 5513SOL    HW221824   6.213   5.213   5.322  0.1249  0.1913  0.8566
 5513SOL    HW321825   6.304   5.327   5.280 -0.7133  0.2000 -1.0546
 5513SOL    MW421826   6.224   5.295   5.296  0.2996 -0.4154 -0.3706
 5514SOL     OW21827   3.123   4.652   6.196 -0.5447 -0.3014 -0.0352
 5514SOL    HW221828   3.114   4.557   6.188  0.4224 -0.4198  0.1745
 5514SOL    HW321829   3.080   4.674   6.278 -0.8209 -0.5456 -0.1118
 5514SOL    MW421830   3.116   4.642   6.206  0.7884 -0.0197  0.3211
 5515SOL     OW21831   5.187   4.246   6.276 -0.6432  0.3259  0.5060
 5515SOL    HW221832   5.211   4.156   6.254  1.7572  0.6639  1.4004
 5515SOL    HW321833   5.125   4.237   6.349 -0.1176 -0.6258  0.8654
 5515SOL    MW421834   5.182   4.233   6.283  0.5814 -0.2082 -0.1039
 5516SOL     OW21835   3.397   0.230   0.923  0.3469 -0.7172 -0.1033
 5516SOL    HW221836   3.324   0.197   0.975  0.1854  2.6688  2.0864
 5516SOL    HW321837   3.360   0.246   0.837 -1.1192 -0.5150  0.5408
 5516SOL    MW421838   3.383   0.228   0.919 -0.4012 -0.1796  0.1086
 5517SOL     OW21839   0.217   6.047   2.203  0.4723 -0.7540 -0.0621
 5517SOL    HW221840   0.233   6.000   2.285  1.9663  0.4587  0.4016
 5517SOL    HW321841   0.295   6.031   2.150 -0.2202 -1.0354 -1.0303
 5517SOL    MW421842   0.229   6.039   2.207  1.3436  0.0677 -0.1504
 5518SOL     OW21843   1.097   4.938   1.503  0.1878  0.1219 -0.5907
 5518SOL    HW221844   1.113   4.850   1.468 -1.1732  0.4026 -2.0731
 5518SOL    HW321845   1.042   4.924   1.580  2.1150 -0.4346  0.7593
 5518SOL    MW421846   1.092   4.925   1.508 -0.4413 -0.3149  0.0592
 5519SOL     OW21847   4.295   0.922   0.817 -0.7841 -0.1099 -0.3116
 5519SOL    HW221848   4.290   1.011   0.780 -1.5830 -0.5244 -1.2611
 5519SOL    HW321849   4.222   0.918   0.879  0.1299  0.3530  0.8256
 5519SOL    MW421850   4.285   0.933   0.820  0.5112 -0.3493  0.4157
 5520SOL     OW21851   4.972   4.624   5.187 -0.1366  0.4238 -0.1242
 5520SOL    HW221852   5.056   4.636   5.144 -0.3028  1.1119 -0.2670
 5520SOL    HW321853   4.928   4.555   5.136 -0.0285  0.7053 -0.5983
 5520SOL    MW421854   4.977   4.616   5.174 -0.1977 -0.2004  0.3694
 5521SOL     OW21855   3.217   5.585   1.852 -0.0241  0.6107 -0.0425
 5521SOL    HW221856   3.204   5.669   1.808  1.6907  0.9483  0.0115
 5521SOL    HW321857   3.287   5.543   1.802 -1.3120 -1.1151 -0.4864
 5521SOL    MW421858   3.225   5.591   1.839  0.7958 -0.5971  0.1792
 5522SOL     OW21859   6.026   1.616   5.596  0.2980 -0.0387  0.3082
 5522SOL    HW221860   5.985   1.630   5.510  0.3292  0.3013  0.3464
 5522SOL    HW321861   5.972   1.550   5.638 -0.1783  0.3685  0.3379
 5522SOL    MW421862   6.013   1.609   5.590  0.5565 -0.0143 -0.3235
 5523SOL     OW21863   0.999   1.949   0.174  0.3903  0.0503  0.2380
 5523SOL    HW221864   1.008   2.014   0.243  0.2246  1.0063 -0.6087
 5523SOL    HW321865   0.910   1.915   0.184 -0.1521  1.2088 -0.3299
 5523SOL    MW421866   0.988   1.953   0.184  0.5461 -0.1066 -0.8132
 5524SOL     OW21867   2.251   2.995   5.306 -0.7145 -0.2519 -0.5450
 5524SOL    HW221868   2.245   2.948   5.389  2.1527  0.2937  0.0685
 5524SOL    HW321869   2.263   2.927   5.240  0.8566 -0.5557  0.0181
 5524SOL    MW421870   2.252   2.980   5.308  0.1887  0.1163  0.4807
 5525SOL     OW21871   1.656   3.537   2.673  0.2983 -0.3728 -1.0970
 5525SOL    HW221872   1.748   3.559   2.663 -0.0315  1.0582 -1.1607
 5525SOL    HW321873   1.655   3.460   2.730  1.4701  0.2670 -0.1852
 5525SOL    MW421874   1.668   3.530   2.679  1.0530  0.4344 -0.2386
 5526SOL     OW21875   6.313   2.931   2.640 -0.4739  0.1423  0.7761
 5526SOL    HW221876   6.355   2.917   2.555  0.1421  1.3997  0.8495
 5526SOL    HW321877   6.226   2.966   2.618 -1.3594 -1.9777  0.6377
 5526SOL    MW421878   6.307   2.934   2.626 -0.2506  0.3383 -0.1879
 5527SOL     OW21879   3.981   2.485   6.194 -0.0954  0.3325  0.2052
 5527SOL    HW221880   3.926   2.415   6.229 -0.8926  1.2677  0.8855
 5527SOL    HW321881   3.919   2.549   6.159  0.6509  0.1218 -1.6038
 5527SOL    MW421882   3.965   2.484   6.194 -0.3145 -0.1990  0.2326
 5528SOL     OW21883   3.113   2.290   4.608 -0.2662  0.5803  0.3933
 5528SOL    HW221884   3.112   2.235   4.530 -1.3401  0.6621  0.3345
 5528SOL    HW321885   3.142   2.375   4.577  2.1230 -0.0869  0.6107
 5528SOL    MW421886   3.116   2.294   4.594 -0.3090  0.2665  0.5913
 5529SOL     OW21887   2.638   0.136   4.465 -0.1933  0.6134  0.0845
 5529SOL    HW221888   2.681   0.051   4.454 -0.2958  0.8703 -3.5380
 5529SOL    HW321889   2.547   0.116   4.485  0.2269 -0.0361  1.4491
 5529SOL    MW421890   2.632   0.122   4.466  0.0593 -0.1985  0.9196
 5530SOL     OW21891   1.477   1.638   0.284  0.1146  0.2696 -0.1766
 5530SOL    HW221892   1.394   1.685   0.274 -0.0143  0.4515  1.4539
 5530SOL    HW321893   1.510   1.666   0.369  2.3077  0.8904 -1.1506
 5530SOL    MW421894   1.470   1.648   0.294 -0.3786 -0.2709 -0.1972
 5531SOL     OW21895   3.120   2.719   0.708  0.2211  0.0897 -0.1858
 5531SOL    HW221896   3.080   2.777   0.773  0.0567  0.7161 -0.8349
 5531SOL    HW321897   3.046   2.690   0.654  0.3488 -0.4723 -0.0616
 5531SOL    MW421898   3.105   2.723   0.710  0.7191  0.5808  0.0347
 5532SOL     OW21899   3.145   4.499   5.450 -0.2149 -0.1880 -0.4338
 5532SOL    HW221900   3.167   4.556   5.377 -1.8411  0.1662 -0.6799
 5532SOL    HW321901   3.050   4.494   5.449 -0.2980 -0.0906  1.7182
 5532SOL    MW421902   3.136   4.506   5.440 -0.3671 -0.1954 -0.1338
 5533SOL     OW21903   5.885   1.786   2.708 -0.4094  0.3981  0.2808
 5533SOL    HW221904   5.836   1.728   2.649 -0.5844 -0.4139  1.1919
 5533SOL    HW321905   5.823   1.809   2.776  0.2192  0.0356  0.9992
 5533SOL    MW421906   5.871   1.781   2.709 -0.4160 -0.1207  0.1141
 5534SOL     OW21907   2.716   5.990   6.202 -0.3592  0.1809  0.2959
 5534SOL    HW221908   2.741   5.979   6.294 -0.8512  0.4908  0.4768
 5534SOL    HW321909   2.794   6.026   6.160  0.7876 -2.4895 -0.0136
 5534SOL    MW421910   2.730   5.993   6.209  0.1152 -0.1829  0.3788
 5535SOL     OW21911   4.253   5.407   3.065 -0.2480 -0.7465 -0.3118
 5535SOL    HW221912   4.211   5.441   3.144 -2.1243  0.2429 -1.6647
 5535SOL    HW321913   4.317   5.343   3.097  0.7757  1.3598  2.1277
 5535SOL    MW421914   4.256   5.403   3.079 -0.6602  0.1179  0.3108
 5536SOL     OW21915   1.428   2.641   3.090 -0.1957 -0.2664  0.5591
 5536SOL    HW221916   1.494   2.579   3.059  0.6254  0.8688 -0.0193
 5536SOL    HW321917   1.422   2.623   3.184  1.2349 -0.1319  0.7004
 5536SOL    MW421918   1.436   2.630   3.099  0.4475 -0.0880 -0.5957
 5537SOL     OW21919   0.245   1.490   5.182 -0.3570  0.2881 -0.4311
 5537SOL    HW221920   0.159   1.483   5.140 -0.5022 -0.1132 -0.0752
 5537SOL    HW321921   0.304   1.442   5.123 -0.5759 -0.3471 -0.1368
 5537SOL    MW421922   0.241   1.483   5.168 -0.3914 -0.0672 -0.1240
 5538SOL     OW21923   1.210   5.453   1.493  0.3470  0.5534  0.2411
 5538SOL    HW221924   1.280   5.389   1.496 -0.1599  0.0203  1.2956
 5538SOL    HW321925   1.242   5.526   1.546 -0.7279 -0.6226  2.6802
 5538SOL    MW421926   1.223   5.455   1.500  0.5662 -0.4143  0.1959
 5539SOL     OW21927   5.429   0.442   2.133  0.0634  0.2767  0.1885
 5539SOL    HW221928   5.395   0.531   2.122  0.4065  0.5744  1.3132
 5539SOL    HW321929   5.523   0.450   2.119  0.1223  0.1369  0.4824
 5539SOL    MW421930   5.437   0.455   2.130  0.3318  0.4663 -0.6186
 5540SOL     OW21931   5.374   6.044   6.146  0.0869  0.2506  0.2468
 5540SOL    HW221932   5.435   6.055   6.218  0.3933  0.3021 -0.0178
 5540SOL    HW321933   5.427   6.055   6.067 -0.1672 -0.2053  0.0069
 5540SOL    MW421934   5.389   6.047   6.145 -0.5025 -0.4015 -0.3738
 5541SOL     OW21935   6.074   4.216   0.955 -0.1204  0.2458 -0.1795
 5541SOL    HW221936   5.991   4.181   0.986 -0.4901  0.1069 -1.2736
 5541SOL    HW321937   6.134   4.205   1.029 -0.8449 -0.4672  0.3235
 5541SOL    MW421938   6.071   4.210   0.969  0.2491  0.3001  1.0162
 5542SOL     OW21939   0.094   2.598   4.946 -0.2954  0.5335  0.0134
 5542SOL    HW221940   0.172   2.547   4.923  0.4548  1.5010  0.3332
 5542SOL    HW321941   0.021   2.540   4.927  0.5776 -1.8990  3.2307
 5542SOL    MW421942   0.095   2.584   4.940  0.1898 -0.0169  0.1093
 5543SOL     OW21943   4.384   0.029   2.965 -0.4758 -0.0850  0.2725
 5543SOL    HW221944   4.310   0.072   2.921 -1.7513 -1.5879  0.8354
 5543SOL    HW321945   4.370  -0.064   2.949  0.2856 -0.5200  1.9378
 5543SOL    MW421946   4.372   0.023   2.957  0.7967 -0.2768 -0.0076
 5544SOL     OW21947   4.728   5.707   4.934  0.4417  0.3952  0.4254
 5544SOL    HW221948   4.791   5.640   4.910  1.3691  0.7758  1.6917
 5544SOL    HW321949   4.779   5.788   4.941  0.0558  0.5339  2.4137
 5544SOL    MW421950   4.743   5.709   4.932 -0.2710  0.4550  0.0701
 5545SOL     OW21951   3.217   3.436   2.417 -0.1146  0.3666  0.0564
 5545SOL    HW221952   3.247   3.480   2.497  0.8657 -0.9712  0.4665
 5545SOL    HW321953   3.215   3.343   2.440 -1.3829  0.0986 -1.0147
 5545SOL    MW421954   3.221   3.429   2.430  0.2814  0.4411  0.4902
 5546SOL     OW21955   1.911   5.736   2.002 -0.1650 -0.3089 -0.2856
 5546SOL    HW221956   1.866   5.761   1.922 -0.8539 -1.3745 -0.2589
 5546SOL    HW321957   2.003   5.729   1.978 -0.3369 -0.3785 -0.9305
 5546SOL    MW421958   1.917   5.738   1.988  0.0938 -1.1106  0.0765
 5547SOL     OW21959   3.577   2.024   0.431 -0.0801  0.0542 -0.2959
 5547SOL    HW221960   3.512   2.063   0.372 -0.8511  0.0263  0.5200
 5547SOL    HW321961   3.658   2.071   0.412 -0.8327  1.5985  0.1883
 5547SOL    MW421962   3.579   2.035   0.420 -0.1006 -0.0261 -0.1698
 5548SOL     OW21963   4.983   1.086   1.131 -0.7648  0.6272  0.0386
 5548SOL    HW221964   5.054   1.024   1.114 -0.1550  1.4220 -0.3422
 5548SOL    HW321965   4.903   1.033   1.122 -0.3156  0.1693 -1.5209
 5548SOL    MW421966   4.982   1.071   1.128 -0.1084 -0.4868 -0.2526
 5549SOL     OW21967   0.624   6.276   4.243 -0.6897  0.4135  0.8445
 5549SOL    HW221968   0.558   6.341   4.219 -1.1783 -0.5740 -0.6468
 5549SOL    HW321969   0.669   6.256   4.161  0.5716  0.0903  1.6024
 5549SOL    MW421970   0.621   6.282   4.229 -0.1972 -0.5444  0.0270
 5550SOL     OW21971   2.168   4.218   0.316 -0.0823 -0.5151 -0.4355
 5550SOL    HW221972   2.103   4.176   0.373  0.1329  0.2329  0.3991
 5550SOL    HW321973   2.240   4.240   0.375  1.1587 -1.7429 -1.4243
 5550SOL    MW421974   2.169   4.215   0.332 -0.0330 -0.0959  0.0847
 5551SOL     OW21975   0.098   2.862   2.806 -0.0940 -0.2769 -0.1560
 5551SOL    HW221976   0.036   2.901   2.745 -1.1083 -1.3735  0.1400
 5551SOL    HW321977   0.087   2.767   2.795 -0.4357 -0.5181  1.8083
 5551SOL    MW421978   0.088   2.854   2.797 -0.0321  0.2693  0.2973
 5552SOL     OW21979   2.333   6.298   5.205 -0.6264  0.2353 -0.0220
 5552SOL    HW221980   2.247   6.278   5.242 -0.4534  0.3542  0.4621
 5552SOL    HW321981   2.342   6.393   5.214  0.1809  0.0672  1.3931
 5552SOL    MW421982   2.323   6.308   5.211  0.2540 -0.1984  0.2204
 5553SOL     OW21983   1.655   2.638   2.864 -0.6207  0.0369  0.4587
 5553SOL    HW221984   1.570   2.644   2.821  0.2209 -0.4602 -1.3629
 5553SOL    HW321985   1.710   2.703   2.820  0.5998 -1.2845 -0.0737
 5553SOL    MW421986   1.651   2.647   2.853 -0.4570  0.0182 -0.0768
 5554SOL     OW21987   1.216   1.795   0.294  0.5498 -0.3118 -0.3557
 5554SOL    HW221988   1.128   1.822   0.268  0.0783 -2.3629 -1.1037
 5554SOL    HW321989   1.201   1.725   0.359  1.5851 -1.2406 -1.0809
 5554SOL    MW421990   1.202   1.789   0.299  0.0565  0.0622 -0.1838
 5555SOL     OW21991   4.207   1.495   5.525 -0.2051  0.3824  0.5133
 5555SOL    HW221992   4.112   1.485   5.527 -0.3328  1.4582  0.5248
 5555SOL    HW321993   4.237   1.430   5.461 -0.9975  0.4225  0.0953
 5555SOL    MW421994   4.199   1.485   5.517  0.3060  0.7699 -0.1579
 5556SOL     OW21995   2.573   2.611   6.358  0.0290 -0.3929 -0.1457
 5556SOL    HW221996   2.542   2.610   6.268 -1.3961 -1.5547  0.3118
 5556SOL    HW321997   2.561   2.701   6.387  1.5660  0.2536 -1.4398
 5556SOL    MW421998   2.567   2.622   6.350  0.6510  0.1713  0.5814
 5557SOL     OW21999   1.539   5.269   6.164  0.1223 -0.0034 -0.1321
 5557SOL    HW222000   1.573   5.219   6.090 -0.6390  1.4725 -1.5647
 5557SOL    HW322001   1.459   5.223   6.190 -0.8334  0.6494 -1.7427
 5557SOL    MW422002   1.533   5.256   6.158 -0.1618  0.7222 -0.1463
 5558SOL     OW22003   4.177   5.758   5.038 -0.6932 -0.3137  0.5267
 5558SOL    HW222004   4.213   5.723   4.956  1.3137  0.3744  1.0574
 5558SOL    HW322005   4.096   5.802   5.012 -0.0143  0.0460 -1.1238
 5558SOL    MW422006   4.171   5.759   5.023  0.5113 -0.4025 -0.3102
 5559SOL     OW22007   2.923   4.614   2.005  0.2996  0.0001 -0.2522
 5559SOL    HW222008   2.963   4.589   2.088 -0.6743  0.7722  0.4640
 5559SOL    HW322009   2.996   4.651   1.954  1.3362 -2.3036 -0.5671
 5559SOL    MW422010   2.938   4.615   2.009 -0.3030  0.6639  0.5134
 5560SOL     OW22011   5.815   1.827   6.226  0.2205  0.6542  0.2454
 5560SOL    HW222012   5.749   1.868   6.170  0.1844  0.0665 -0.1582
 5560SOL    HW322013   5.795   1.858   6.314  0.2991  1.6233 -0.0689
 5560SOL    MW422014   5.804   1.837   6.230  0.2089  0.0815 -0.6376
 5561SOL     OW22015   3.281   0.403   0.418 -0.2464  0.3674 -0.9224
 5561SOL    HW222016   3.356   0.391   0.359  0.3141 -0.8590  0.0117
 5561SOL    HW322017   3.212   0.350   0.379 -1.0126  2.2564 -2.3266
 5561SOL    MW422018   3.282   0.395   0.405 -0.7591  0.4218  0.2085
 5562SOL     OW22019   2.131   5.537   4.617 -0.6581 -0.0287  0.3634
 5562SOL    HW222020   2.104   5.539   4.525 -2.7966 -1.1425  0.8981
 5562SOL    HW322021   2.190   5.462   4.623  1.3836  1.4226 -0.4971
 5562SOL    MW422022   2.135   5.527   4.606 -0.1803 -0.2838  0.2958
 5563SOL     OW22023   6.165   0.545   2.399 -0.0798 -0.2373  0.1436
 5563SOL    HW222024   6.174   0.634   2.433  2.0110 -0.4586  0.2875
 5563SOL    HW322025   6.081   0.545   2.352 -0.4229  1.6039  0.7001
 5563SOL    MW422026   6.155   0.556   2.397  0.1183  0.4128  0.1632
 5564SOL     OW22027   4.183   0.345   5.801  0.6921  0.6207 -0.1188
 5564SOL    HW222028   4.240   0.271   5.822 -0.6498 -0.1156  1.1540
 5564SOL    HW322029   4.102   0.327   5.849  0.1412  2.6673 -0.1819
 5564SOL    MW422030   4.180   0.333   5.810 -0.2276  0.2047  0.3219
 5565SOL     OW22031   0.432   5.874   6.211 -0.6602  0.4331 -0.5930
 5565SOL    HW222032   0.490   5.897   6.138  0.5729  0.1758  0.2945
 5565SOL    HW322033   0.344   5.874   6.172 -0.0022  0.0399 -2.1340
 5565SOL    MW422034   0.428   5.877   6.196  0.0621  0.2257  0.4401
 5566SOL     OW22035   2.486   1.992   0.716  0.3422 -0.8189  0.3530
 5566SOL    HW222036   2.564   1.961   0.761 -0.9379 -2.0405  1.8703
 5566SOL    HW322037   2.454   2.064   0.770  1.2912  0.8447 -1.1889
 5566SOL    MW422038   2.492   1.998   0.729 -0.1875  0.6241  0.2534
 5567SOL     OW22039   3.902   2.135   1.009 -0.1876  0.2894  0.0212
 5567SOL    HW222040   3.968   2.183   0.957 -0.1134 -0.1369 -0.2850
 5567SOL    HW322041   3.940   2.048   1.022  0.3828  0.7793  1.9366
 5567SOL    MW422042   3.916   2.130   1.004  0.2483  0.3167  0.8455
 5568SOL     OW22043   3.902   6.222   5.786 -0.5061  0.4325 -0.1817
 5568SOL    HW222044   3.900   6.303   5.735  1.7810  1.0314  0.5382
 5568SOL    HW322045   3.902   6.152   5.720  1.4816  1.1609 -1.0418
 5568SOL    MW422046   3.902   6.223   5.770 -0.0288  0.0665  0.5925
 5569SOL     OW22047   6.163   0.719   5.302  0.4055  0.0772 -0.3236
 5569SOL    HW222048   6.190   0.766   5.224 -0.1180  1.1035  0.0982
 5569SOL    HW322049   6.221   0.750   5.371 -0.4170  0.6748  0.1151
 5569SOL    MW422050   6.174   0.729   5.301  0.0030  0.7596  0.9693
 5570SOL     OW22051   2.578   1.976   0.458  0.2439 -0.3518  0.0769
 5570SOL    HW222052   2.544   1.970   0.547  2.1099 -1.4265  0.7891
 5570SOL    HW322053   2.545   2.059   0.424 -1.3036 -0.3856  1.3967
 5570SOL    MW422054   2.569   1.986   0.465 -0.0208  0.0744  0.2436
 5571SOL     OW22055   3.805   2.013   4.907 -0.5242  0.0609  0.5024
 5571SOL    HW222056   3.839   1.924   4.896  1.5943  1.0721 -2.3111
 5571SOL    HW322057   3.835   2.040   4.993  2.0889 -0.7197 -0.0903
 5571SOL    MW422058   3.813   2.005   4.917 -0.3466  1.1162 -0.0260
 5572SOL     OW22059   2.166   1.157   3.995  0.7217  0.3952 -0.4432
 5572SOL    HW222060   2.220   1.150   3.917  0.7777  1.6807 -0.5470
 5572SOL    HW322061   2.076   1.155   3.962  0.7402  2.2223 -0.7199
 5572SOL    MW422062   2.161   1.156   3.981  0.0675 -0.2680 -0.0541
 5573SOL     OW22063   2.868   4.767   1.322  0.6664 -0.0286 -0.2091
 5573SOL    HW222064   2.942   4.799   1.271  0.7765 -0.2714 -0.2033
 5573SOL    HW322065   2.876   4.811   1.407  0.5311  0.3106 -0.3752
 5573SOL    MW422066   2.879   4.777   1.327  0.0524  0.2628 -0.6127
 5574SOL     OW22067   0.330   5.587   1.554  0.4466  0.6833 -0.5851
 5574SOL    HW222068   0.425   5.572   1.551  0.6333  1.7020 -0.1856
 5574SOL    HW322069   0.292   5.503   1.529  1.4517  0.1847 -0.5023
 5574SOL    MW422070   0.338   5.574   1.550  0.3410 -0.0438 -0.2676
 5575SOL     OW22071   6.349   2.413   3.223  0.2186 -0.1577 -0.3021
 5575SOL    HW222072   6.343   2.326   3.184  0.8620 -0.4383  0.2024
 5575SOL    HW322073   6.430   2.411   3.275 -0.6528  0.1584  1.1222
 5575SOL    MW422074   6.359   2.402   3.225  0.9548  0.0303 -0.2326
 5576SOL     OW22075   4.996   3.195   4.432 -0.3097 -0.3620  0.0268
 5576SOL    HW222076   5.038   3.126   4.482  0.5486  0.8051  0.9703
 5576SOL    HW322077   4.907   3.163   4.417 -1.2338 -0.0500  3.9077
 5576SOL    MW422078   4.989   3.182   4.437  0.5184 -0.6384  0.4044
 5577SOL     OW22079   1.069   0.613   3.958  0.1901 -0.4435 -0.2188
 5577SOL    HW222080   1.015   0.617   3.879 -1.0926  0.5758  0.6614
 5577SOL    HW322081   1.076   0.520   3.978  0.2575 -0.6980 -1.3349
 5577SOL    MW422082   1.063   0.602   3.950  0.6430  0.0733  0.0160
 5578SOL     OW22083   1.184   3.354   0.866  0.2677 -0.0553 -0.1937
 5578SOL    HW222084   1.148   3.435   0.902 -2.2609 -1.1219 -0.1666
 5578SOL    HW322085   1.230   3.381   0.787 -0.2669  1.4381 -0.0129
 5578SOL    MW422086   1.186   3.368   0.861  0.4487  0.4319  0.6880
 5579SOL     OW22087   4.946   3.697   3.704 -0.0368  0.0755  0.5021
 5579SOL    HW222088   4.907   3.676   3.789 -1.6332  1.4363  0.1563
 5579SOL    HW322089   5.040   3.699   3.721 -0.1658 -1.6963  1.7479
 5579SOL    MW422090   4.953   3.695   3.718 -0.4834 -0.2344  0.0204
 5580SOL     OW22091   2.005   2.562   5.901 -0.1610  0.0160  1.1749
 5580SOL    HW222092   2.065   2.491   5.922 -0.6997 -0.4507  1.1507
 5580SOL    HW322093   1.996   2.611   5.983 -0.2815 -0.3182  1.3638
 5580SOL    MW422094   2.012   2.559   5.914 -0.5185 -0.0346 -0.0858
 5581SOL     OW22095   4.874   5.299   6.305 -0.2574 -0.5224  0.0424
 5581SOL    HW222096   4.848   5.389   6.289  0.5773 -0.2778 -0.0125
 5581SOL    HW322097   4.935   5.304   6.379  1.1744 -0.8008 -1.0636
 5581SOL    MW422098   4.879   5.311   6.313 -0.1957 -0.0464  0.1623
 5582SOL     OW22099   4.080   5.352   0.383 -0.0385  0.6176  0.3135
 5582SOL    HW222100   4.155   5.299   0.410  0.7673  1.1271 -0.8450
 5582SOL    HW322101   4.011   5.289   0.362  0.5062  0.0892  0.1141
 5582SOL    MW422102   4.081   5.337   0.384  0.6791  0.0127 -0.2449
 5583SOL     OW22103   1.883   3.975  -0.006 -0.0063  0.5659 -0.1502
 5583SOL    HW222104   1.851   4.044  -0.064 -0.1961 -0.1464 -0.9104
 5583SOL    HW322105   1.969   4.005   0.022  1.3591 -0.3263 -3.0318
 5583SOL    MW422106   1.890   3.988  -0.010 -0.4101  0.4421 -0.4630
 5584SOL     OW22107   5.875   4.966   4.081  0.5586 -0.0488 -0.3644
 5584SOL    HW222108   5.801   5.010   4.040 -0.7042 -1.2454  0.5789
 5584SOL    HW322109   5.918   4.919   4.010  0.1414  0.2628 -0.8269
 5584SOL    MW422110   5.871   4.966   4.066  0.3864 -0.1354  0.4285
 5585SOL     OW22111   0.892   0.291   6.103 -0.3622 -0.2599  0.2515
 5585SOL    HW222112   0.974   0.316   6.146 -0.1663  0.7969 -0.6980
 5585SOL    HW322113   0.824   0.332   6.157 -0.0618  2.1541 -1.0709
 5585SOL    MW422114   0.894   0.300   6.116 -0.1660  0.2637 -0.4132
 5586SOL     OW22115   5.682   0.336   4.943 -0.2267 -0.2368  0.5677
 5586SOL    HW222116   5.706   0.337   4.851 -1.2931  1.4450  0.2688
 5586SOL    HW322117   5.764   0.356   4.989 -0.1903  1.5349 -0.1950
 5586SOL    MW422118   5.696   0.339   4.937  0.2862  0.4692 -0.8138
 5587SOL     OW22119   4.759   2.740   0.535 -0.2356 -0.1607 -0.1941
 5587SOL    HW222120   4.690   2.728   0.600  1.1309  0.2668  1.3945
 5587SOL    HW322121   4.780   2.651   0.505  0.6906 -0.6360  1.7009
 5587SOL    MW422122   4.753   2.727   0.539 -0.0378  0.1678  0.7343
 5588SOL     OW22123   4.971   1.989   1.373  0.0590  0.0392  0.6016
 5588SOL    HW222124   5.054   2.034   1.393  0.3806 -0.7048  1.0052
 5588SOL    HW322125   4.907   2.033   1.428  0.3068  0.2326  0.7407
 5588SOL    MW422126   4.974   2.001   1.383  0.4096  0.4391 -0.6975
 5589SOL     OW22127   3.922   2.893   5.378  0.5063 -0.0073  0.2427
 5589SOL    HW222128   3.906   2.920   5.287 -0.6645 -3.3226 -0.6865
 5589SOL    HW322129   3.878   2.959   5.431  0.5989  1.6161 -1.5961
 5589SOL    MW422130   3.914   2.905   5.373  0.4774  0.0429 -0.0741
 5590SOL     OW22131   4.040   4.624   5.525  0.2192 -0.2052  0.2230
 5590SOL    HW222132   4.020   4.569   5.450 -3.5417 -0.9778  1.5920
 5590SOL    HW322133   4.017   4.713   5.497 -1.2662 -0.5041  0.4226
 5590SOL    MW422134   4.034   4.629   5.512 -0.7991 -0.4651  0.7357
 5591SOL     OW22135   5.962   4.964   6.066 -0.0560 -0.3714 -0.6234
 5591SOL    HW222136   5.978   4.988   5.975  0.6649 -0.2510 -0.4722
 5591SOL    HW322137   6.037   4.909   6.090 -0.1133 -0.2039 -0.0370
 5591SOL    MW422138   5.974   4.960   6.057  0.4053  0.5934  0.4416
 5592SOL     OW22139   3.669   1.132   4.256  0.0429 -0.2420 -0.7251
 5592SOL    HW222140   3.681   1.193   4.329 -0.2300 -1.9486  0.8090
 5592SOL    HW322141   3.751   1.083   4.251  0.1167 -0.0574 -1.6918
 5592SOL    MW422142   3.682   1.133   4.265 -0.3271 -0.0666 -0.2366
 5593SOL     OW22143   4.837   5.847   2.705  0.1984 -0.2802  0.1061
 5593SOL    HW222144   4.781   5.880   2.776  1.1955  0.1274  0.7219
 5593SOL    HW322145   4.848   5.922   2.647 -0.7422 -0.6573 -0.5758
 5593SOL    MW422146   4.831   5.861   2.707  0.2975  0.7959 -0.2533
 5594SOL     OW22147   3.540   1.523   5.399 -0.5276 -0.0857  0.2677
 5594SOL    HW222148   3.538   1.452   5.463 -1.4774 -0.6282 -0.3284
 5594SOL    HW322149   3.493   1.594   5.441 -1.7421 -0.6687 -0.0469
 5594SOL    MW422150   3.533   1.523   5.413 -0.1513  0.4111 -0.4642
 5595SOL     OW22151   5.825   4.659   4.574  0.3149  0.2755 -0.5611
 5595SOL    HW222152   5.754   4.665   4.637  0.3913 -2.1093 -0.1820
 5595SOL    HW322153   5.782   4.643   4.490  0.2704  2.5155 -1.0430
 5595SOL    MW422154   5.810   4.658   4.571  0.1851  0.0280  0.2214
 5596SOL     OW22155   2.211   0.655   2.140 -0.4596 -0.1882 -0.7457
 5596SOL    HW222156   2.298   0.614   2.140 -0.4104 -0.0928 -0.3463
 5596SOL    HW322157   2.226   0.743   2.107 -0.4231 -0.2075 -0.7804
 5596SOL    MW422158   2.225   0.661   2.136  0.1888 -1.3155 -0.2931
 5597SOL     OW22159   6.302   4.417   2.822  0.1548  0.0764 -0.2352
 5597SOL    HW222160   6.226   4.376   2.780  0.3417 -1.4083  0.8284
 5597SOL    HW322161   6.370   4.415   2.754 -0.0266 -0.8303 -0.4049
 5597SOL    MW422162   6.301   4.411   2.807 -0.4252  0.2256 -0.6500
 5598SOL     OW22163   5.369   0.073   1.943 -0.2586  0.1794 -0.3047
 5598SOL    HW222164   5.307   0.125   1.994 -0.6280 -0.7537  0.2109
 5598SOL    HW322165   5.454   0.117   1.956 -0.8372  1.7330 -1.3728
 5598SOL    MW422166   5.372   0.086   1.951 -0.4089  0.8742  0.2803
 5599SOL     OW22167   4.717   0.183   2.641  0.2522 -0.1542  0.2025
 5599SOL    HW222168   4.716   0.195   2.546 -0.4632  0.6890  0.3032
 5599SOL    HW322169   4.639   0.131   2.659 -0.7986  1.4395  0.5098
 5599SOL    MW422170   4.706   0.178   2.631  0.5590  0.2805  0.4215
 5600SOL     OW22171   0.457   0.459   0.478 -0.4525  0.3595  0.1526
 5600SOL    HW222172   0.508   0.381   0.500 -0.3290  0.4754  0.2826
 5600SOL    HW322173   0.431   0.495   0.563  3.1499  2.9161  0.3936
 5600SOL    MW422174   0.460   0.453   0.492 -0.0651 -0.2419  0.2784
 5601SOL     OW22175   0.890   2.299   5.842 -0.2988 -0.3737  0.3755
 5601SOL    HW222176   0.871   2.269   5.753  0.4860  1.4047 -0.4477
 5601SOL    HW322177   0.864   2.391   5.843 -0.2193 -0.3275  1.9849
 5601SOL    MW422178   0.884   2.307   5.831 -0.2419  0.1035 -0.3927
 5602SOL     OW22179   0.012   1.745   3.331  0.3915 -0.1435 -0.0056
 5602SOL    HW222180   0.091   1.700   3.362  0.3142  1.1246  2.1932
 5602SOL    HW322181  -0.058   1.712   3.387 -0.5026 -0.4710 -1.2551
 5602SOL    MW422182   0.013   1.734   3.342  0.2772  0.0303 -0.1928
 5603SOL     OW22183   4.966   3.995   2.977  0.1954  0.0355 -0.3788
 5603SOL    HW222184   4.906   3.987   3.051 -2.3284 -0.1549 -2.3104
 5603SOL    HW322185   5.052   4.010   3.017 -1.0169 -0.1876  2.5448
 5603SOL    MW422186   4.969   3.996   2.992 -0.0709  0.8101 -0.8418
 5604SOL     OW22187   4.883   1.368   5.618 -0.9082 -0.0613  0.1836
 5604SOL    HW222188   4.792   1.349   5.640 -1.0000  1.9400  1.8425
 5604SOL    HW322189   4.878   1.424   5.540 -1.1694  0.7572  0.7799
 5604SOL    MW422190   4.870   1.373   5.610  0.1521 -0.5961  0.1472
 5605SOL     OW22191   3.531   0.861   1.506  0.4599 -0.4822  0.3803
 5605SOL    HW222192   3.464   0.873   1.573 -0.5595 -0.3166 -0.6546
 5605SOL    HW322193   3.544   0.766   1.501 -1.6048 -0.7348 -1.2215
 5605SOL    MW422194   3.524   0.850   1.514 -0.0955 -0.4226  0.0584
 5606SOL     OW22195   0.005   5.746   0.688 -0.1789 -0.7710 -0.3715
 5606SOL    HW222196  -0.060   5.680   0.712 -0.5119 -0.9657 -1.7081
 5606SOL    HW322197   0.074   5.736   0.754 -0.1232 -2.6176 -0.6473
 5606SOL    MW422198   0.006   5.736   0.700  0.1567  0.2885  0.4224
 5607SOL     OW22199   3.414   0.256   3.223 -0.1077  0.4470 -0.4297
 5607SOL    HW222200   3.403   0.337   3.172  0.2307 -0.3913 -1.9123
 5607SOL    HW322201   3.488   0.274   3.281  2.1870  0.2322 -3.0227
 5607SOL    MW422202   3.423   0.269   3.224 -0.4933  0.0722 -0.9142
 5608SOL     OW22203   4.069   2.288   0.552 -0.0167 -0.2993 -0.2646
 5608SOL    HW222204   3.994   2.281   0.611  0.7306  0.0531  0.7665
 5608SOL    HW322205   4.145   2.270   0.608  0.6428 -1.2167 -1.4031
 5608SOL    MW422206   4.069   2.285   0.567  0.3103  0.1916 -0.1384
 5609SOL     OW22207   3.450   0.444   0.169  0.3257  0.0574  0.3252
 5609SOL    HW222208   3.537   0.484   0.173  0.6767 -0.8066  2.1095
 5609SOL    HW322209   3.427   0.447   0.076  2.0864  0.6495 -0.1379
 5609SOL    MW422210   3.459   0.450   0.157 -0.2133  0.9260 -0.0732
 5610SOL     OW22211   2.418   1.197   5.998  0.8257 -0.0439  0.5143
 5610SOL    HW222212   2.392   1.258   6.067 -0.1622  0.4364 -0.2483
 5610SOL    HW322213   2.336   1.158   5.969  1.3779 -1.2552  0.5257
 5610SOL    MW422214   2.404   1.200   6.003  0.1734  0.0838 -0.1902
 5611SOL     OW22215   1.628   0.009   1.580 -0.1508  0.7535  0.2369
 5611SOL    HW222216   1.631  -0.045   1.501 -2.6890  0.5431  0.1810
 5611SOL    HW322217   1.587   0.090   1.551  0.8647  1.5327  0.9363
 5611SOL    MW422218   1.623   0.012   1.566 -0.0618  0.1469  0.5549
 5612SOL     OW22219   5.104   5.729   2.127 -0.2117 -0.6241 -0.4956
 5612SOL    HW222220   5.083   5.712   2.219  1.6925  0.5166  0.1900
 5612SOL    HW322221   5.051   5.805   2.104 -0.7669 -0.9706 -0.3885
 5612SOL    MW422222   5.094   5.737   2.137 -0.7617 -0.5457  0.1582
 5613SOL     OW22223   0.221   4.371   5.155  0.2519  0.0403  0.8131
 5613SOL    HW222224   0.204   4.358   5.061 -0.3339  1.5883  0.6785
 5613SOL    HW322225   0.163   4.309   5.199 -0.8394  0.5878  0.1792
 5613SOL    MW422226   0.211   4.361   5.148 -0.6270 -0.1544 -0.0188
 5614SOL     OW22227   2.239   6.406   1.788 -0.0862  0.5141 -0.1091
 5614SOL    HW222228   2.268   6.407   1.696  0.4873  0.3926  0.0706
 5614SOL    HW322229   2.167   6.343   1.789  0.5327 -0.2169 -0.2959
 5614SOL    MW422230   2.233   6.398   1.776  0.2414  0.2199 -0.0154
 5615SOL     OW22231   5.673   6.161   4.936  0.0569 -0.3448 -0.3376
 5615SOL    HW222232   5.702   6.252   4.926 -2.1882  0.5532  0.6975
 5615SOL    HW322233   5.666   6.129   4.846  3.6085 -0.5213 -0.6794
 5615SOL    MW422234   5.675   6.169   4.923  0.4479  0.5626  0.3076
 5616SOL     OW22235   5.972   4.820   3.867 -0.2113  0.1847 -0.5567
 5616SOL    HW222236   5.991   4.863   3.784  1.7407 -0.3782 -0.4405
 5616SOL    HW322237   6.056   4.785   3.896 -1.0886 -0.6973  1.0590
 5616SOL    MW422238   5.986   4.821   3.860  0.1604  0.2739 -0.1395
 5617SOL     OW22239   6.061   4.052   1.375 -0.0032 -0.1568 -0.3063
 5617SOL    HW222240   6.048   3.967   1.332 -0.7092 -0.8846  1.2630
 5617SOL    HW322241   5.986   4.060   1.434 -0.2736  1.8694 -0.8762
 5617SOL    MW422242   6.049   4.042   1.377  0.1216 -0.7580 -0.4616
 5618SOL     OW22243   3.188   5.825   1.713 -0.4198  0.4890  0.2549
 5618SOL    HW222244   3.149   5.889   1.772  0.0914 -0.5323  1.7543
 5618SOL    HW322245   3.282   5.839   1.722 -0.3277  0.0194  0.0374
 5618SOL    MW422246   3.195   5.835   1.722  0.4383  0.8219  0.0213
 5619SOL     OW22247   4.404   2.521   2.083 -0.1314 -0.1456 -0.0691
 5619SOL    HW222248   4.400   2.590   2.149 -1.1878 -1.7446  1.6319
 5619SOL    HW322249   4.315   2.485   2.081  0.3050 -1.2392 -1.1517
 5619SOL    MW422250   4.392   2.525   2.091 -0.7953  1.3938  0.5407
 5620SOL     OW22251   3.684   0.575   0.151  0.3666  0.2408  0.2307
 5620SOL    HW222252   3.758   0.519   0.126  0.2129 -0.8736  2.0877
 5620SOL    HW322253   3.664   0.624   0.071  1.6494 -1.0637 -0.9740
 5620SOL    MW422254   3.691   0.574   0.137  0.0240  0.2071  0.4516
 5621SOL     OW22255   1.466   4.275   1.271  0.3831  0.7363 -0.2578
 5621SOL    HW222256   1.460   4.370   1.275  0.4905  0.7145  0.7025
 5621SOL    HW322257   1.393   4.244   1.325  1.2355  0.3044  0.6677
 5621SOL    MW422258   1.455   4.283   1.279  0.1067 -0.2540  0.4185
 5622SOL     OW22259   4.039   4.027   4.512 -0.2634  0.0301 -0.2800
 5622SOL    HW222260   4.005   4.022   4.422 -0.1578  3.6957 -0.6840
 5622SOL    HW322261   4.134   4.025   4.500 -0.2540 -0.5564 -0.1237
 5622SOL    MW422262   4.047   4.026   4.498  0.3648 -0.7194  0.0095
 5623SOL     OW22263   5.829   3.941   5.708  0.1931  0.2542 -0.3962
 5623SOL    HW222264   5.768   3.992   5.655  0.2100  0.0156 -0.6473
 5623SOL    HW322265   5.809   3.849   5.687  0.0467  0.1497  0.1793
 5623SOL    MW422266   5.819   3.935   5.698  0.1858  0.0894  0.3165
 5624SOL     OW22267   4.935   0.523   5.684  0.5220  0.3247  0.2944
 5624SOL    HW222268   4.896   0.449   5.638 -1.3784  1.1420  0.4836
 5624SOL    HW322269   4.911   0.599   5.632  1.4819  0.9205  0.7017
 5624SOL    MW422270   4.927   0.523   5.671 -0.4422  1.1336 -0.5064
 5625SOL     OW22271   6.070   3.093   0.882  0.1831  0.0695 -0.1962
 5625SOL    HW222272   6.034   3.071   0.968  1.7907 -1.8097  0.0799
 5625SOL    HW322273   6.155   3.133   0.901  1.0579 -1.3708 -0.8628
 5625SOL    MW422274   6.076   3.095   0.896 -0.0784  0.1625  0.2179
 5626SOL     OW22275   3.516   4.843   1.433  0.2652  0.2436 -0.2867
 5626SOL    HW222276   3.532   4.775   1.499 -1.0661  0.7352  0.5828
 5626SOL    HW322277   3.511   4.795   1.350 -0.1121 -0.6523  0.2420
 5626SOL    MW422278   3.518   4.827   1.431  0.8454 -0.2785  0.0850
 5627SOL     OW22279   5.136   2.994   6.261 -0.1956  0.4717 -0.1476
 5627SOL    HW222280   5.220   3.014   6.220  0.8636 -2.6014  0.2859
 5627SOL    HW322281   5.157   2.986   6.354 -1.3826  1.4477  0.2356
 5627SOL    MW422282   5.150   2.996   6.268  0.8683  0.2800 -0.4645
 5628SOL     OW22283   1.615   4.088   3.620 -0.8151 -0.4240 -0.4167
 5628SOL    HW222284   1.553   4.139   3.567 -0.4186  1.9740  1.2502
 5628SOL    HW322285   1.697   4.092   3.571 -0.1623  2.7084  0.6877
 5628SOL    MW422286   1.618   4.095   3.606 -0.1283  0.0175  0.0380
 5629SOL     OW22287   3.296   1.579   2.550  0.0244 -0.0631 -0.0397
 5629SOL    HW222288   3.229   1.546   2.610  1.9206  0.2277  2.4478
 5629SOL    HW322289   3.295   1.519   2.476 -0.6349 -2.1328  1.5698
 5629SOL    MW422290   3.287   1.567   2.548  0.6070 -0.2860  0.1307
 5630SOL     OW22291   4.194   3.158   5.192  0.0889 -0.0406  0.1046
 5630SOL    HW222292   4.174   3.143   5.284 -1.0378  0.0222 -0.1155
 5630SOL    HW322293   4.260   3.092   5.171 -1.2929 -1.5890  0.3874
 5630SOL    MW422294   4.200   3.147   5.201 -0.6231  0.0292  0.2740
 5631SOL     OW22295   3.014   1.718   1.315 -0.2557 -0.3892 -0.2247
 5631SOL    HW222296   2.999   1.661   1.391  0.8627  0.0893  0.3893
 5631SOL    HW322297   3.091   1.680   1.272  0.0960  0.2634 -0.1847
 5631SOL    MW422298   3.022   1.705   1.319 -0.2957  0.0652 -0.0198
 5632SOL     OW22299   3.601   1.719   1.142 -0.2463 -0.5505 -0.1952
 5632SOL    HW222300   3.516   1.677   1.157 -0.2327 -1.4780 -2.3944
 5632SOL    HW322301   3.585   1.780   1.070  0.5892  0.5413  0.5174
 5632SOL    MW422302   3.587   1.721   1.135  0.2094 -0.8147  0.1371
 5633SOL     OW22303   3.390   1.365   6.048 -0.1730  0.2940  0.0098
 5633SOL    HW222304   3.303   1.394   6.074  0.2073  0.1659  1.5038
 5633SOL    HW322305   3.443   1.445   6.046  0.1187  0.1350  0.9900
 5633SOL    MW422306   3.386   1.379   6.051  0.2369  0.6590 -0.6873
 5634SOL     OW22307   0.844   4.198   1.070  0.4386  0.1255  0.2940
 5634SOL    HW222308   0.825   4.109   1.098 -1.2812  0.7139  1.1043
 5634SOL    HW322309   0.783   4.216   0.999  0.0131  1.0247  0.8700
 5634SOL    MW422310   0.834   4.189   1.064  0.0805 -0.0061  0.3838
 5635SOL     OW22311   4.448   1.365   4.595 -0.1359  0.3778  0.4470
 5635SOL    HW222312   4.495   1.333   4.672  1.4281  2.7075  0.5776
 5635SOL    HW322313   4.517   1.381   4.530 -1.5049 -2.6365 -1.9924
 5635SOL    MW422314   4.463   1.363   4.596  0.6842  0.0082 -0.0426
 5636SOL     OW22315   0.122   1.435   2.554  0.2774 -0.6227 -0.0133
 5636SOL    HW222316   0.217   1.444   2.548  0.1311  1.5384  0.0461
 5636SOL    HW322317   0.094   1.515   2.598 -1.7040 -0.5466 -1.3107
 5636SOL    MW422318   0.131   1.447   2.559  0.2621  0.2865 -0.2135
 5637SOL     OW22319   4.405   0.318   2.695 -0.2409 -0.3783  0.1743
 5637SOL    HW222320   4.390   0.268   2.614  0.7536 -0.7989  0.2335
 5637SOL    HW322321   4.487   0.365   2.678  0.6423 -1.4324  1.3883
 5637SOL    MW422322   4.414   0.318   2.682  0.7428  0.5636 -0.4147
 5638SOL     OW22323   3.557   2.901   5.945 -0.4200  0.4605 -0.6713
 5638SOL    HW222324   3.632   2.843   5.934 -0.7538  0.1224 -1.1607
 5638SOL    HW322325   3.596   2.984   5.975  0.2029  0.4441 -1.3922
 5638SOL    MW422326   3.572   2.905   5.948 -0.4186 -0.1130 -0.0429
 5639SOL     OW22327   5.141   5.365   2.218  0.6739  0.3678  0.2235
 5639SOL    HW222328   5.065   5.404   2.174  0.8169  0.7764  0.3330
 5639SOL    HW322329   5.126   5.382   2.311  1.4515  1.4741  0.1689
 5639SOL    MW422330   5.129   5.372   2.225  0.6059  0.5198  0.4299
 5640SOL     OW22331   3.666   1.419   0.975 -0.4024 -0.0157 -0.1826
 5640SOL    HW222332   3.595   1.424   1.038  0.1045  0.6065  0.3568
 5640SOL    HW322333   3.683   1.325   0.965  0.5335 -0.1151  1.8160
 5640SOL    MW422334   3.659   1.407   0.982  0.0477 -0.4244  0.1722
 5641SOL     OW22335   4.701   4.419   3.143  0.5517  0.0726  0.4339
 5641SOL    HW222336   4.738   4.384   3.061  0.4763 -1.4061  0.9875
 5641SOL    HW322337   4.657   4.343   3.183 -1.2976  1.2860  0.8087
 5641SOL    MW422338   4.700   4.404   3.137 -0.4262 -0.0738 -0.3474
 5642SOL     OW22339   1.104   4.564   0.702  0.5166  0.1018 -0.4434
 5642SOL    HW222340   1.148   4.570   0.787  0.9975 -1.3675 -0.5605
 5642SOL    HW322341   1.012   4.554   0.724  0.4818  0.9893 -0.1401
 5642SOL    MW422342   1.098   4.563   0.716  0.2631 -0.2975 -0.0996
 5643SOL     OW22343   3.430   2.817   4.727  0.1037  0.3270 -0.0232
 5643SOL    HW222344   3.452   2.840   4.817  2.6705 -1.1015 -0.1799
 5643SOL    HW322345   3.514   2.793   4.688 -1.3189 -1.8945 -1.9496
 5643SOL    MW422346   3.444   2.817   4.734  0.0215  0.2816 -0.2309
 5644SOL     OW22347   2.972   2.068   0.083  0.0206  0.1836 -0.0024
 5644SOL    HW222348   2.976   2.059   0.179  0.5991 -0.6959 -0.0911
 5644SOL    HW322349   3.035   2.004   0.051 -0.8378 -0.2022 -1.0042
 5644SOL    MW422350   2.980   2.058   0.092  0.3986  0.5666 -0.1377
 5645SOL     OW22351   6.360   1.831   4.658 -0.5411 -0.3070 -0.3101
 5645SOL    HW222352   6.362   1.908   4.714  0.1397 -0.1697 -0.5139
 5645SOL    HW322353   6.339   1.758   4.717  0.0547 -0.1475  0.1074
 5645SOL    MW422354   6.358   1.831   4.673 -0.1854  0.6520 -0.3288
 5646SOL     OW22355   1.739   3.592   1.951  0.4282 -0.4952 -0.1109
 5646SOL    HW222356   1.701   3.620   2.034 -2.0359  1.1678 -1.6764
 5646SOL    HW322357   1.809   3.655   1.934 -0.7009  0.7263 -0.4105
 5646SOL    MW422358   1.743   3.604   1.959 -0.2981 -0.5485 -0.5354
 5647SOL     OW22359   0.804   1.544   6.145  0.3981  0.3412  0.1259
 5647SOL    HW222360   0.832   1.567   6.057  0.1675  1.6393  0.3661
 5647SOL    HW322361   0.812   1.626   6.194 -2.1459  0.3473  0.6330
 5647SOL    MW422362   0.809   1.558   6.140  0.2849  0.2418 -0.3892
 5648SOL     OW22363   1.476   5.355   3.564  0.2159  0.0593 -0.3862
 5648SOL    HW222364   1.564   5.390   3.571  0.4889 -0.6839  0.1141
 5648SOL    HW322365   1.465   5.333   3.472  0.3364  0.6775 -0.5522
 5648SOL    MW422366   1.486   5.357   3.553 -0.0557  0.1044  0.1148
 5649SOL     OW22367   3.965   0.544   4.505 -0.0148 -0.3314  0.2298
 5649SOL    HW222368   4.036   0.572   4.562 -0.7367  0.1475  0.9182
 5649SOL    HW322369   3.953   0.451   4.524 -0.7765 -0.0068  1.4792
 5649SOL    MW422370   3.972   0.536   4.515 -0.6263  0.7239  0.5867
 5650SOL     OW22371   0.653   3.045   3.778  0.0148  0.0039 -0.7073
 5650SOL    HW222372   0.708   3.103   3.725  0.5292 -1.1230 -1.4268
 5650SOL    HW322373   0.708   2.969   3.796  1.3354  1.8196  4.7139
 5650SOL    MW422374   0.667   3.043   3.773 -0.6986 -0.0196  0.0645
 5651SOL     OW22375   4.378   4.571   4.539  0.1703 -0.5677 -0.3966
 5651SOL    HW222376   4.382   4.661   4.507  1.0667  0.1577  1.5745
 5651SOL    HW322377   4.445   4.525   4.488  0.1595  0.0200 -0.9605
 5651SOL    MW422378   4.387   4.577   4.528  0.2693 -0.4591  0.3503
 5652SOL     OW22379   0.517   1.283   5.760 -0.8817 -0.0464 -0.1073
 5652SOL    HW222380   0.567   1.253   5.836 -0.2607  3.1500  0.9123
 5652SOL    HW322381   0.518   1.210   5.699  0.8425 -1.8078  1.8932
 5652SOL    MW422382   0.524   1.270   5.762  0.4398 -0.6658  0.0606
 5653SOL     OW22383   0.630   5.549   1.667  0.3596 -0.5148  0.5231
 5653SOL    HW222384   0.718   5.563   1.701  1.2949 -0.0451 -1.9313
 5653SOL    HW322385   0.629   5.595   1.583 -1.6407 -2.0526 -0.3672
 5653SOL    MW422386   0.641   5.557   1.661  0.0604  0.4608 -0.5437
 5654SOL     OW22387   0.807   3.256   4.351  0.4012 -0.0160 -0.7949
 5654SOL    HW222388   0.725   3.257   4.301  0.1176  0.0854 -0.3342
 5654SOL    HW322389   0.843   3.168   4.335  0.0356 -0.1789 -0.7286
 5654SOL    MW422390   0.801   3.244   4.342 -0.6610 -0.0917 -0.3384
 5655SOL     OW22391   5.187   3.156   1.769  0.4333  0.8280  0.4507
 5655SOL    HW222392   5.193   3.090   1.838  0.2994  0.8670  0.5010
 5655SOL    HW322393   5.277   3.180   1.749  0.6685 -1.2324 -1.3549
 5655SOL    MW422394   5.199   3.150   1.775 -0.0638 -0.3772 -0.2461
 5656SOL     OW22395   0.695   6.368   6.025 -0.8308 -0.6360  0.2725
 5656SOL    HW222396   0.658   6.331   5.944 -0.6484  1.1902 -0.7013
 5656SOL    HW322397   0.789   6.372   6.008 -0.9594  1.4782 -0.2424
 5656SOL    MW422398   0.703   6.363   6.012  0.1665  0.1071  0.3930
 5657SOL     OW22399   1.224   6.370   5.514 -0.0073  0.0229 -0.2529
 5657SOL    HW222400   1.303   6.401   5.556  0.1065  1.6903 -1.6009
 5657SOL    HW322401   1.228   6.274   5.522  0.7444  0.1920  2.0733
 5657SOL    MW422402   1.235   6.361   5.521 -0.7608 -0.1438 -0.5871
 5658SOL     OW22403   4.629   4.785   3.550 -0.2586 -0.4252 -0.0386
 5658SOL    HW222404   4.656   4.825   3.468 -1.0314 -0.1042 -0.1386
 5658SOL    HW322405   4.566   4.846   3.588 -1.1250 -1.3171  0.0139
 5658SOL    MW422406   4.624   4.798   3.545 -0.1434 -0.7206  0.3228
 5659SOL     OW22407   2.236   3.100   2.654  0.8792  0.2281  0.0264
 5659SOL    HW222408   2.249   3.074   2.563  1.2753 -0.1911  0.2007
 5659SOL    HW322409   2.231   3.017   2.702  4.0989  0.4115  0.8691
 5659SOL    MW422410   2.237   3.086   2.648  0.4847  0.4507 -0.3740
 5660SOL     OW22411   1.146   1.257   3.838 -0.0496  0.1226 -0.8569
 5660SOL    HW222412   1.102   1.297   3.763 -0.5079  1.2962  0.0191
 5660SOL    HW322413   1.230   1.301   3.843 -0.8798  1.6691  0.6130
 5660SOL    MW422414   1.151   1.268   3.829  0.8069  0.1097  0.1230
 5661SOL     OW22415   3.598   3.263   5.760  0.0398  0.2506 -0.0857
 5661SOL    HW222416   3.599   3.359   5.754  0.3490  0.3190  0.8034
 5661SOL    HW322417   3.506   3.241   5.772 -0.0193  0.4483 -0.1630
 5661SOL    MW422418   3.586   3.273   5.761 -0.1953 -0.1845 -0.1914
 5662SOL     OW22419   4.099   4.019   0.478  0.1385  0.2019  0.1682
 5662SOL    HW222420   4.173   3.999   0.535 -1.0081 -0.8514  1.3433
 5662SOL    HW322421   4.030   3.960   0.506 -0.4563 -0.4776 -2.4147
 5662SOL    MW422422   4.100   4.009   0.489 -0.0764 -0.0739 -0.4913
 5663SOL     OW22423   0.083   5.234   3.960 -0.2085 -0.1810  0.3687
 5663SOL    HW222424   0.019   5.281   3.906  0.3942  1.0566  0.7078
 5663SOL    HW322425   0.096   5.151   3.914 -0.6221  0.3460 -0.7363
 5663SOL    MW422426   0.076   5.229   3.947  0.3713 -0.3933 -0.1029
 5664SOL     OW22427   6.031   2.422   0.303 -0.7251  0.2886  0.1878
 5664SOL    HW222428   6.053   2.330   0.322 -1.6389 -0.0401 -0.2927
 5664SOL    HW322429   6.115   2.467   0.307 -0.4354 -0.3091  1.8125
 5664SOL    MW422430   6.045   2.416   0.306  0.2956 -0.8557  0.3559
 5665SOL     OW22431   5.469   4.029   5.172  0.1540  0.0462  0.4621
 5665SOL    HW222432   5.509   3.971   5.107  0.8711 -0.0707  0.9953
 5665SOL    HW322433   5.446   3.971   5.245 -1.9519 -0.0692 -0.2223
 5665SOL    MW422434   5.471   4.014   5.173 -0.0311 -0.3812  0.0329
 5666SOL     OW22435   1.156   5.713   5.555  0.0495 -0.3941 -0.4808
 5666SOL    HW222436   1.145   5.740   5.464  2.2486 -2.3401 -1.4197
 5666SOL    HW322437   1.102   5.635   5.564  1.6997 -1.6270 -0.8929
 5666SOL    MW422438   1.147   5.707   5.544 -0.5211  0.5853 -0.3713
 5667SOL     OW22439   2.560   4.788   3.737 -0.7699  0.6956  0.0354
 5667SOL    HW222440   2.602   4.864   3.776  0.9214  0.2923 -0.8810
 5667SOL    HW322441   2.569   4.719   3.802  1.1454  0.2952 -0.5716
 5667SOL    MW422442   2.567   4.789   3.751 -0.1770 -0.1299 -0.3733
 5668SOL     OW22443   2.021   0.116   3.050  0.2315 -0.0252  0.0119
 5668SOL    HW222444   1.949   0.082   2.997  0.4561  1.0249 -0.9900
 5668SOL    HW322445   2.096   0.060   3.028 -0.0771 -0.6289  0.4733
 5668SOL    MW422446   2.022   0.104   3.040 -0.1270 -0.2370  0.3410
 5669SOL     OW22447   3.689   2.296   1.118 -0.3541  0.3600 -0.1706
 5669SOL    HW222448   3.766   2.239   1.111 -0.4987  0.1096  0.2486
 5669SOL    HW322449   3.677   2.308   1.212 -1.7633 -0.8900 -0.1624
 5669SOL    MW422450   3.698   2.290   1.130  0.2238  0.4387  0.0183
 5670SOL     OW22451   6.004   4.357   0.455 -0.1971 -0.1908  0.3888
 5670SOL    HW222452   5.982   4.434   0.508  0.3538 -0.8748  1.6390
 5670SOL    HW322453   5.922   4.306   0.453  0.2953 -1.1496  2.3279
 5670SOL    MW422454   5.990   4.361   0.461 -0.2259 -0.2367  0.4100
 5671SOL     OW22455   6.145   1.692   2.699 -0.0731 -0.1440  0.0405
 5671SOL    HW222456   6.057   1.713   2.731 -0.1941  0.2864 -0.5644
 5671SOL    HW322457   6.158   1.601   2.725 -0.0320  0.2664  1.6114
 5671SOL    MW422458   6.135   1.683   2.707 -0.2343 -0.8150  0.5556
 5672SOL     OW22459   0.808   5.702   2.684 -0.0112 -0.1047 -0.2424
 5672SOL    HW222460   0.822   5.688   2.778  1.0796  2.0925 -0.0153
 5672SOL    HW322461   0.860   5.633   2.642  0.6453 -0.2520  0.7674
 5672SOL    MW422462   0.817   5.691   2.691  0.0719 -0.0848  0.7823
 5673SOL     OW22463   2.797   5.080   5.266  0.2624 -0.2856  0.0772
 5673SOL    HW222464   2.814   5.147   5.332 -0.0202  0.4044 -0.5272
 5673SOL    HW322465   2.806   5.127   5.182 -0.4042 -0.8856 -0.3451
 5673SOL    MW422466   2.800   5.095   5.264  0.3958  0.1285  0.0078
 5674SOL     OW22467   2.869   6.257   0.287 -0.4036 -0.1129  0.6378
 5674SOL    HW222468   2.785   6.299   0.268  0.9291  2.1375 -0.7755
 5674SOL    HW322469   2.882   6.271   0.380 -1.8077 -0.9665  0.9880
 5674SOL    MW422470   2.860   6.265   0.297  0.7406  0.9230  0.1500
 5675SOL     OW22471   2.961   4.323   5.713  0.0509  0.1071  0.5785
 5675SOL    HW222472   2.978   4.300   5.622 -1.0373  1.8449 -0.1126
 5675SOL    HW322473   2.867   4.310   5.724 -0.3159  2.4118  0.6357
 5675SOL    MW422474   2.951   4.318   5.703  0.4603  0.3565  0.3512
 5676SOL     OW22475   2.087   3.295   0.909  0.3735  0.4562  0.0861
 5676SOL    HW222476   2.106   3.227   0.973 -3.0305  0.9433  1.8645
 5676SOL    HW322477   2.058   3.248   0.831  0.7966 -0.1296  0.2805
 5676SOL    MW422478   2.085   3.280   0.907  0.2603 -0.2641  0.3521
 5677SOL     OW22479   1.645   4.491   4.580 -0.5700  0.4813 -0.4815
 5677SOL    HW222480   1.579   4.430   4.610  0.4305 -0.5573 -0.3422
 5677SOL    HW322481   1.635   4.568   4.636  0.0100 -0.6692  1.2708
 5677SOL    MW422482   1.635   4.493   4.591  0.1011 -0.3720 -0.1374
 5678SOL     OW22483   4.423   6.034   4.902 -1.1005  0.2766 -0.0963
 5678SOL    HW222484   4.459   5.955   4.862 -0.7097 -0.3402  1.3821
 5678SOL    HW322485   4.433   6.020   4.996 -2.8234  1.2489  0.2823
 5678SOL    MW422486   4.429   6.022   4.909 -0.0472 -0.1841 -0.1024
 5679SOL     OW22487   1.416   4.540   3.744 -0.1526  0.2698 -0.0641
 5679SOL    HW222488   1.394   4.450   3.764  0.6729 -0.1359 -0.9172
 5679SOL    HW322489   1.484   4.564   3.808  0.4623 -0.1014 -0.5695
 5679SOL    MW422490   1.422   4.532   3.755  0.4712  0.3745 -0.1426
 5680SOL     OW22491   0.494   4.665   0.788  0.5222  0.3582 -0.7262
 5680SOL    HW222492   0.400   4.646   0.779  0.5795 -0.6089  0.5003
 5680SOL    HW322493   0.522   4.612   0.863  1.5540  2.3127  0.3613
 5680SOL    MW422494   0.485   4.656   0.797 -0.9462 -0.1177  0.0841
 5681SOL     OW22495   0.393   1.899   1.091  0.0553  0.7389  0.3276
 5681SOL    HW222496   0.322   1.839   1.067  0.3700  0.3232  0.4281
 5681SOL    HW322497   0.460   1.843   1.130  0.6246  1.0668 -0.1578
 5681SOL    MW422498   0.392   1.884   1.093 -0.3922 -0.2998 -0.3055
 5682SOL     OW22499   0.413   1.475   1.997  0.3226 -0.2179 -0.0402
 5682SOL    HW222500   0.361   1.514   2.067  0.9266  0.0828  0.2562
 5682SOL    HW322501   0.390   1.525   1.919  1.1201  0.8053  0.3420
 5682SOL    MW422502   0.403   1.487   1.996  0.0061 -0.2603  0.4150
 5683SOL     OW22503   5.292   0.892   3.891  0.5932  0.1702  0.0490
 5683SOL    HW222504   5.282   0.942   3.972  1.6509  1.5524 -0.6391
 5683SOL    HW322505   5.381   0.856   3.894  0.9669  0.9786 -0.8854
 5683SOL    MW422506   5.302   0.894   3.902  0.6241 -0.3143 -0.0957
 5684SOL     OW22507   5.433   2.211   1.247 -0.2435 -0.2468 -0.2785
 5684SOL    HW222508   5.417   2.238   1.157  1.5951 -2.2138 -1.2964
 5684SOL    HW322509   5.452   2.293   1.294  0.3523  0.6849 -2.0653
 5684SOL    MW422510   5.434   2.226   1.242  0.4007  0.0341  0.0314
 5685SOL     OW22511   0.562   2.288   5.605 -0.1007 -0.2704  0.2341
 5685SOL    HW222512   0.656   2.275   5.593 -0.2629 -1.3807  0.1085
 5685SOL    HW322513   0.526   2.286   5.517  0.0193  2.6464  0.0288
 5685SOL    MW422514   0.570   2.286   5.592  0.7424 -0.7311  0.1936
 5686SOL     OW22515   2.796   0.086   5.091 -0.2662 -0.4543  0.6423
 5686SOL    HW222516   2.750   0.056   5.012  0.1561 -0.3996  0.3722
 5686SOL    HW322517   2.849   0.159   5.060  0.3357 -0.7970  0.8660
 5686SOL    MW422518   2.797   0.092   5.076  0.3065  0.1316 -0.0172
 5687SOL     OW22519   1.647   2.021   5.545 -0.5576 -0.4184 -0.2365
 5687SOL    HW222520   1.716   2.082   5.572 -0.1417 -1.5844  1.4201
 5687SOL    HW322521   1.575   2.078   5.515  0.9196  0.8203 -1.6343
 5687SOL    MW422522   1.646   2.037   5.544 -0.5167  0.4370  0.3104
 5688SOL     OW22523   0.606   4.345   4.213  0.3395 -0.4692 -0.0374
 5688SOL    HW222524   0.596   4.400   4.135 -1.2009  0.1528  0.5583
 5688SOL    HW322525   0.643   4.403   4.280  1.7717 -1.0319 -0.2922
 5688SOL    MW422526   0.610   4.360   4.211 -0.8523  0.5081  0.5328
 5689SOL     OW22527   0.597   1.251   2.065 -0.1856  0.0072  0.1926
 5689SOL    HW222528   0.574   1.181   2.004 -0.3161 -0.5143  0.8436
 5689SOL    HW322529   0.541   1.324   2.038  0.2927  0.0304 -0.7922
 5689SOL    MW422530   0.587   1.252   2.053 -0.6011  0.1958 -0.2940
 5690SOL     OW22531   2.067   3.597   1.443 -0.4908 -0.0584 -0.2774
 5690SOL    HW222532   2.146   3.570   1.395 -0.8618 -0.1248 -0.8647
 5690SOL    HW322533   2.080   3.565   1.532  0.9493  1.4569  0.1113
 5690SOL    MW422534   2.079   3.589   1.448  0.1518  0.4982 -0.2118
 5691SOL     OW22535   0.011   2.037   3.871 -0.0627  0.1216  0.2600
 5691SOL    HW222536  -0.039   1.963   3.905  1.7305 -0.7274  1.1959
 5691SOL    HW322537   0.082   2.049   3.935  1.0722  1.0871 -1.1167
 5691SOL    MW422538   0.014   2.029   3.884 -0.1165  0.1555  0.3387
 5692SOL     OW22539   1.565   4.667   1.563  0.6446  0.0157 -0.7298
 5692SOL    HW222540   1.624   4.708   1.501  1.6629 -0.4056 -0.0732
 5692SOL    HW322541   1.611   4.588   1.591 -1.0859 -1.4028 -1.6742
 5692SOL    MW422542   1.579   4.662   1.559  0.0593 -0.0108  0.2274
 5693SOL     OW22543   5.376   2.933   2.178 -0.2102 -0.3974  0.5644
 5693SOL    HW222544   5.314   2.964   2.244 -0.2584 -1.3940  1.0087
 5693SOL    HW322545   5.379   2.838   2.191  0.0570 -0.5690 -0.6307
 5693SOL    MW422546   5.368   2.925   2.188  0.2064  0.1169  0.1796
 5694SOL     OW22547   1.813   6.262   5.193 -0.5071 -0.2465  0.1879
 5694SOL    HW222548   1.810   6.305   5.108  1.7702  0.4350  0.3939
 5694SOL    HW322549   1.765   6.180   5.180  0.5520 -0.5868 -2.0049
 5694SOL    MW422550   1.806   6.257   5.180  0.2145 -0.5026  0.1747
 5695SOL     OW22551   2.599   5.233   3.019  0.5117  0.2293  0.4126
 5695SOL    HW222552   2.648   5.195   2.946 -0.7038  0.7865 -0.7285
 5695SOL    HW322553   2.582   5.323   2.993 -2.5488 -0.3604 -0.0660
 5695SOL    MW422554   2.603   5.240   3.006 -0.4913  0.3906 -0.2141
 5696SOL     OW22555   0.471   1.431   4.297 -0.7064  0.3193  0.2586
 5696SOL    HW222556   0.391   1.377   4.294  0.6957 -2.1413  2.6846
 5696SOL    HW322557   0.452   1.497   4.363 -1.4695  1.1233 -0.7419
 5696SOL    MW422558   0.458   1.432   4.305  0.0705 -0.4621 -0.0483
 5697SOL     OW22559   4.055   1.199   3.204 -0.3837  0.1993 -0.5579
 5697SOL    HW222560   4.031   1.195   3.296  3.5709  0.7410  0.6819
 5697SOL    HW322561   3.984   1.249   3.163 -2.1759  0.1222  2.1612
 5697SOL    MW422562   4.042   1.205   3.211  0.6777  0.0898  0.5311
 5698SOL     OW22563   0.900   1.302   5.161 -0.1837  0.1798 -0.2313
 5698SOL    HW222564   0.923   1.212   5.183 -0.8505 -0.1368 -0.7867
 5698SOL    HW322565   0.823   1.321   5.215 -0.2034  0.3247 -0.3090
 5698SOL    MW422566   0.893   1.293   5.171  0.5863 -0.1121 -0.0357
 5699SOL     OW22567   4.448   0.836   2.364 -0.7191 -0.0792  0.0184
 5699SOL    HW222568   4.532   0.871   2.394 -0.5820  0.2386 -0.7167
 5699SOL    HW322569   4.437   0.872   2.276 -1.8986  0.3369  0.3275
 5699SOL    MW422570   4.458   0.845   2.356 -0.7693  0.5957 -0.2290
 5700SOL     OW22571   1.783   2.075   5.122  0.3621  0.5708 -0.3221
 5700SOL    HW222572   1.816   1.998   5.076  2.1931  0.9304  0.3277
 5700SOL    HW322573   1.843   2.087   5.196 -1.2280  1.2925  0.9143
 5700SOL    MW422574   1.795   2.066   5.126  0.6064 -0.7759 -0.9669
 5701SOL     OW22575   3.976   5.788   1.406 -0.3212  0.0123  0.2904
 5701SOL    HW222576   3.936   5.875   1.402  0.0558  0.2260  0.9516
 5701SOL    HW322577   3.913   5.731   1.362 -1.9632  0.1460  2.2564
 5701SOL    MW422578   3.962   5.792   1.400 -0.0875 -0.4639 -0.3659
 5702SOL     OW22579   1.072   4.635   0.105 -0.1376 -0.0814  0.1354
 5702SOL    HW222580   1.065   4.600   0.017  0.4907 -2.7048  1.0242
 5702SOL    HW322581   0.985   4.671   0.124 -0.9045 -1.3520 -0.8369
 5702SOL    MW422582   1.059   4.635   0.096 -1.2691  0.0823  0.4437
 5703SOL     OW22583   5.123   2.019   4.849  0.2376  0.8383  0.3229
 5703SOL    HW222584   5.152   2.018   4.758 -1.0685 -4.2102 -0.3298
 5703SOL    HW322585   5.198   1.988   4.899  0.3712  1.8673  0.8011
 5703SOL    MW422586   5.136   2.015   4.843 -0.4887  0.1543 -0.1243
 5704SOL     OW22587   0.967   2.976   0.022 -0.3877 -0.8039  0.4821
 5704SOL    HW222588   0.903   3.008  -0.041  1.4079  0.9311 -0.5660
 5704SOL    HW322589   0.951   3.028   0.101  0.5001  0.5390 -0.1933
 5704SOL    MW422590   0.957   2.987   0.024  0.2694  0.0314  0.7615
 5705SOL     OW22591   0.105   5.332   4.987  0.2015 -0.3849  0.2521
 5705SOL    HW222592   0.198   5.358   4.986  0.4614 -1.2966 -0.6004
 5705SOL    HW322593   0.069   5.378   5.062  0.7743  1.9584 -0.8073
 5705SOL    MW422594   0.113   5.342   4.997 -0.0468 -0.0308  0.8768
 5706SOL     OW22595   3.958   3.696   4.355 -0.1175  0.2168 -0.0424
 5706SOL    HW222596   3.904   3.688   4.433 -1.6173 -0.6861 -1.1160
 5706SOL    HW322597   3.898   3.725   4.287  0.3823 -2.1379 -1.6072
 5706SOL    MW422598   3.943   3.699   4.356  0.2601 -0.1311  0.0641
 5707SOL     OW22599   2.095   2.408   0.361  0.1105  0.2103  0.2666
 5707SOL    HW222600   2.140   2.464   0.298  2.1429 -0.2058  1.2598
 5707SOL    HW322601   2.071   2.330   0.311  2.6403 -0.5803  0.1502
 5707SOL    MW422602   2.097   2.405   0.347  0.2138  0.0268  0.4284
 5708SOL     OW22603   0.453   4.558   5.671  0.3343 -0.1311  0.3591
 5708SOL    HW222604   0.395   4.591   5.602 -1.1439 -0.3986  1.4290
 5708SOL    HW322605   0.537   4.598   5.652 -0.1586  0.2377 -1.2801
 5708SOL    MW422606   0.456   4.567   5.659  0.3605  0.0594 -0.2029
 5709SOL     OW22607   0.849   5.384   6.329 -0.4698 -0.5105 -0.1443
 5709SOL    HW222608   0.853   5.465   6.380  0.7152 -1.3338  1.1307
 5709SOL    HW322609   0.904   5.401   6.253 -2.1186  0.6744 -1.1275
 5709SOL    MW422610   0.857   5.397   6.326 -0.3841 -0.3967 -0.4356
 5710SOL     OW22611   0.235   0.937   3.201 -0.3044 -0.3568  0.0080
 5710SOL    HW222612   0.296   0.900   3.136  1.1704  2.1190 -0.1381
 5710SOL    HW322613   0.188   1.006   3.153 -0.9071 -0.0868  0.9714
 5710SOL    MW422614   0.237   0.941   3.186 -0.3222 -0.4161 -0.4908
 5711SOL     OW22615   6.355   6.327   3.636 -0.5520  0.1439 -0.3157
 5711SOL    HW222616   6.288   6.362   3.578 -2.0971  1.9697  2.3558
 5711SOL    HW322617   6.315   6.249   3.676 -0.6046  0.4800  0.3041
 5711SOL    MW422618   6.341   6.321   3.634 -0.0558 -0.2493  0.1757
 5712SOL     OW22619   4.311   5.074   2.771  0.2525  0.5530 -0.0329
 5712SOL    HW222620   4.385   5.098   2.826 -0.1853  0.2615  0.6953
 5712SOL    HW322621   4.253   5.150   2.774 -0.1118  0.2556  0.5009
 5712SOL    MW422622   4.313   5.087   2.778 -0.4475 -0.3523 -0.3361
 5713SOL     OW22623   0.130   0.729   2.613 -0.3480  0.2293  0.0577
 5713SOL    HW222624   0.156   0.736   2.705  0.3694 -3.2531  0.2950
 5713SOL    HW322625   0.203   0.768   2.565  0.4715 -0.1318  0.9589
 5713SOL    MW422626   0.143   0.735   2.619 -0.7393  0.2271  0.5883
 5714SOL     OW22627   0.338   3.212   5.759 -0.4257  0.7809  0.1985
 5714SOL    HW222628   0.348   3.180   5.669  0.4951  1.9419 -0.1459
 5714SOL    HW322629   0.289   3.294   5.750  1.8725  2.2632  0.4256
 5714SOL    MW422630   0.333   3.219   5.746  0.5288 -0.0589 -0.7080
 5715SOL     OW22631   3.623   4.259   1.643  0.2078 -0.3435 -0.1010
 5715SOL    HW222632   3.700   4.256   1.700 -0.2092  0.4319  0.5230
 5715SOL    HW322633   3.558   4.308   1.693 -0.4930 -0.4675 -0.8679
 5715SOL    MW422634   3.625   4.265   1.657 -0.0435 -0.0427 -0.8415
 5716SOL     OW22635   4.108   1.105   1.302  0.1303  0.7449  0.1286
 5716SOL    HW222636   4.170   1.036   1.322 -0.3305  1.0591  2.9694
 5716SOL    HW322637   4.024   1.073   1.335 -0.6079  1.6180 -0.8185
 5716SOL    MW422638   4.105   1.092   1.309  0.6563  0.1880 -0.0991
 5717SOL     OW22639   0.060   3.095   1.587 -0.2125 -0.4249 -0.5252
 5717SOL    HW222640   0.031   3.082   1.677 -0.4409 -0.0984 -0.5527
 5717SOL    HW322641   0.140   3.042   1.580 -0.6375 -1.0983 -0.3653
 5717SOL    MW422642   0.067   3.086   1.598  0.2888  0.0733  0.7259
 5718SOL     OW22643   2.587   4.332   2.847  0.7017 -0.5877 -0.0123
 5718SOL    HW222644   2.662   4.304   2.899  0.5809 -0.1255  0.4149
 5718SOL    HW322645   2.626   4.362   2.764  1.0710  0.2861  0.4561
 5718SOL    MW422646   2.602   4.332   2.843  0.1544  0.1849 -0.2217
 5719SOL     OW22647   5.722   4.770   0.916  0.0949  0.3541  0.0918
 5719SOL    HW222648   5.653   4.706   0.902 -0.4446  0.9677 -0.1216
 5719SOL    HW322649   5.716   4.829   0.841  0.8883  0.3843  0.0440
 5719SOL    MW422650   5.712   4.770   0.905 -0.2488 -0.2273  0.0749
 5720SOL     OW22651   0.473   0.653   4.858  0.4922  0.4282 -0.1560
 5720SOL    HW222652   0.399   0.687   4.807 -1.5480 -0.3213  2.1310
 5720SOL    HW322653   0.537   0.725   4.859 -0.8625  1.6830 -0.9176
 5720SOL    MW422654   0.472   0.667   4.851 -0.4561  0.4336 -0.2275
 5721SOL     OW22655   0.585   1.546   2.360 -0.3295 -0.1901  0.7482
 5721SOL    HW222656   0.599   1.641   2.361 -1.0784 -0.0486 -0.0881
 5721SOL    HW322657   0.672   1.509   2.346 -0.2787  0.4876 -1.0534
 5721SOL    MW422658   0.598   1.554   2.358 -0.2302 -0.1288 -0.0669
 5722SOL     OW22659   6.383   2.105   1.191 -0.3809  0.2826 -0.0454
 5722SOL    HW222660   6.440   2.168   1.234 -0.3767 -0.5027  1.1279
 5722SOL    HW322661   6.295   2.141   1.202 -0.3488  0.2458  0.3242
 5722SOL    MW422662   6.379   2.118   1.198  0.4653  0.1789 -0.8903
 5723SOL     OW22663   2.126   0.312   4.814 -0.0296 -0.5028  0.0093
 5723SOL    HW222664   2.220   0.291   4.813 -0.0032 -0.3842 -0.1469
 5723SOL    HW322665   2.089   0.259   4.744 -0.2128 -1.1399  0.5847
 5723SOL    MW422666   2.134   0.303   4.805  0.1827  0.4306  0.3255
 5724SOL     OW22667   1.554   1.717   0.569  0.1010 -0.1936  0.1613
 5724SOL    HW222668   1.581   1.626   0.587 -0.9314 -0.5064  0.2252
 5724SOL    HW322669   1.469   1.725   0.613  0.5138  1.0403  0.7820
 5724SOL    MW422670   1.546   1.706   0.577  0.4370 -0.6031 -0.1938
 5725SOL     OW22671   1.891   3.904   2.510 -0.7591  0.3179  0.1851
 5725SOL    HW222672   1.891   3.851   2.431 -1.8160 -0.6376  0.7904
 5725SOL    HW322673   1.862   3.991   2.481 -1.0203  0.0067 -0.4997
 5725SOL    MW422674   1.887   3.908   2.496 -0.3962  0.4210  0.2439
 5726SOL     OW22675   3.958   1.294   5.498  0.0378  0.2062  0.0994
 5726SOL    HW222676   3.914   1.343   5.428 -4.1325 -3.0338  0.0745
 5726SOL    HW322677   4.008   1.226   5.451  1.5750  1.1697  0.2664
 5726SOL    MW422678   3.959   1.291   5.482 -0.7487 -0.0331  0.1568
 5727SOL     OW22679   3.618   0.750   2.899 -0.4852 -0.2604 -0.4204
 5727SOL    HW222680   3.683   0.683   2.876 -2.1195 -2.6569  1.4191
 5727SOL    HW322681   3.568   0.763   2.819  0.1965 -0.8554 -0.9647
 5727SOL    MW422682   3.620   0.743   2.886  0.0755  0.1334  0.0770
 5728SOL     OW22683   4.846   0.532   5.027 -0.1294  0.0078  0.0344
 5728SOL    HW222684   4.904   0.583   5.084 -0.3303  0.4289 -0.1344
 5728SOL    HW322685   4.876   0.442   5.036  2.1326  0.4640 -1.8567
 5728SOL    MW422686   4.858   0.527   5.035  0.0971 -0.2903 -0.3843
 5729SOL     OW22687   4.196   1.998   1.274 -0.2640 -0.5950  0.5990
 5729SOL    HW222688   4.198   2.087   1.238  1.3123 -0.6045  0.5933
 5729SOL    HW322689   4.103   1.976   1.278 -0.5958  0.0839 -1.7712
 5729SOL    MW422690   4.184   2.007   1.270 -0.2017 -0.0008 -0.3192
 5730SOL     OW22691   1.171   3.535   4.588 -0.0989 -0.6990  0.3363
 5730SOL    HW222692   1.245   3.558   4.532 -0.0329  1.2037  1.1467
 5730SOL    HW322693   1.117   3.477   4.534  0.7496 -0.1692 -1.1258
 5730SOL    MW422694   1.174   3.530   4.574 -0.3970 -0.6313  0.1219
 5731SOL     OW22695   2.554   3.142   5.517 -0.0722 -0.5328 -0.4003
 5731SOL    HW222696   2.514   3.117   5.600  3.3017  0.8406  1.8761
 5731SOL    HW322697   2.595   3.227   5.534  5.0465 -2.3387 -1.6632
 5731SOL    MW422698   2.554   3.150   5.530  0.0153 -0.1349 -0.0645
 5732SOL     OW22699   0.516   5.843   3.645 -0.2761  0.0056  0.9722
 5732SOL    HW222700   0.585   5.786   3.678  1.8677  1.5131 -0.6235
 5732SOL    HW322701   0.508   5.912   3.712  1.9829  1.4529 -0.1260
 5732SOL    MW422702   0.524   5.845   3.658  0.3930  0.0993  0.4373
 5733SOL     OW22703   2.385   2.632   3.286  0.0374 -0.1136 -0.1924
 5733SOL    HW222704   2.457   2.614   3.346  1.6818 -1.6628 -2.4618
 5733SOL    HW322705   2.350   2.546   3.264 -0.8474  0.4564 -1.0937
 5733SOL    MW422706   2.390   2.619   3.291 -0.5045  0.3472 -0.0637
 5734SOL     OW22707   6.387   1.274   0.562 -0.2697  0.5753 -0.4249
 5734SOL    HW222708   6.374   1.276   0.467 -2.7890  2.9617 -0.1929
 5734SOL    HW322709   6.307   1.234   0.596  0.0196  0.9493  0.7310
 5734SOL    MW422710   6.375   1.269   0.554  0.2071 -0.2015 -0.3801
 5735SOL     OW22711   4.546   2.333   4.634  0.1384  0.0583  0.5434
 5735SOL    HW222712   4.464   2.320   4.587  0.6714  1.3159 -0.8214
 5735SOL    HW322713   4.534   2.286   4.717 -1.5118 -0.7261 -0.0919
 5735SOL    MW422714   4.534   2.325   4.639  0.2850  0.0414  0.0143
 5736SOL     OW22715   4.005   1.268   5.100  0.3345 -0.6648 -0.1354
 5736SOL    HW222716   3.992   1.173   5.101  0.1445 -0.6519 -0.7750
 5736SOL    HW322717   3.931   1.303   5.150 -0.4175 -0.7810 -1.1106
 5736SOL    MW422718   3.993   1.260   5.106  0.2758 -0.0959  0.3434
 5737SOL     OW22719   1.501   2.443   1.286 -0.1150  0.1017 -0.1460
 5737SOL    HW222720   1.517   2.387   1.362  0.1577 -0.2175 -0.4329
 5737SOL    HW322721   1.531   2.391   1.211  1.4130  1.1355 -0.3020
 5737SOL    MW422722   1.507   2.428   1.286  0.1733 -0.1271 -0.2979
 5738SOL     OW22723   3.418   5.347   2.012 -0.9879  0.5385  0.6781
 5738SOL    HW222724   3.424   5.433   2.052 -0.2886  0.8265 -0.0155
 5738SOL    HW322725   3.475   5.292   2.066  1.6972  1.4033 -1.0542
 5738SOL    MW422726   3.427   5.351   2.024 -0.3668  0.1783  0.2489
 5739SOL     OW22727   0.276   3.964   4.361  0.8140 -0.1714 -0.1610
 5739SOL    HW222728   0.332   3.906   4.413 -0.2137 -1.1721 -0.1076
 5739SOL    HW322729   0.207   3.992   4.422  0.3783 -0.2365 -0.6152
 5739SOL    MW422730   0.274   3.960   4.376  0.2595 -0.3637 -0.1380
 5740SOL     OW22731   1.517   5.885   3.527  0.5178 -0.0322 -0.3027
 5740SOL    HW222732   1.569   5.810   3.497 -2.8543 -2.0758 -1.5885
 5740SOL    HW322733   1.481   5.922   3.447 -0.4176  0.9724  0.5566
 5740SOL    MW422734   1.519   5.880   3.512 -0.5397 -0.3962 -0.0756
 5741SOL     OW22735   0.364   0.567   2.872  0.0148 -0.0765  0.0725
 5741SOL    HW222736   0.426   0.605   2.811  0.8414  0.4900  1.2211
 5741SOL    HW322737   0.386   0.608   2.956 -0.9954 -0.9265  0.7674
 5741SOL    MW422738   0.375   0.578   2.875  0.1322 -0.2495  0.1928
 5742SOL     OW22739   1.089   3.814   2.219 -0.3207  0.5667  0.5303
 5742SOL    HW222740   1.025   3.744   2.205  0.1123  0.0927  0.8744
 5742SOL    HW322741   1.112   3.807   2.311  1.5857 -0.4749  0.0361
 5742SOL    MW422742   1.084   3.804   2.229  0.7590  0.1123 -0.6270
 5743SOL     OW22743   2.024   6.136   4.617  0.1086  0.3308 -0.1769
 5743SOL    HW222744   1.941   6.119   4.572 -0.6260 -0.1887  1.2972
 5743SOL    HW322745   2.002   6.203   4.683  1.0572  0.8018 -0.3274
 5743SOL    MW422746   2.010   6.143   4.620  0.2793  0.0783  0.0475
 5744SOL     OW22747   4.095   5.208   5.868  0.5571 -0.5791  0.3615
 5744SOL    HW222748   4.008   5.236   5.841  1.9127 -0.4697 -4.8822
 5744SOL    HW322749   4.145   5.289   5.880  0.7942 -0.6584 -0.0776
 5744SOL    MW422750   4.090   5.222   5.866  0.1088  0.2444 -0.7136
 5745SOL     OW22751   0.334   3.990   4.788  0.1174 -0.4055  0.5684
 5745SOL    HW222752   0.383   3.989   4.870 -0.8910  1.1030  1.2302
 5745SOL    HW322753   0.245   3.964   4.813 -0.1384 -0.1818 -0.0901
 5745SOL    MW422754   0.329   3.986   4.802 -0.3841 -0.0453 -0.3715
 5746SOL     OW22755   1.437   1.420   4.378  0.9331 -0.0854 -0.4069
 5746SOL    HW222756   1.495   1.416   4.302  1.5593  1.6972 -0.0721
 5746SOL    HW322757   1.361   1.470   4.349  0.4806 -0.6879 -0.2761
 5746SOL    MW422758   1.435   1.426   4.364 -0.3368 -0.2805 -0.1709
 5747SOL     OW22759   3.805   1.102   1.401 -0.0666  0.1585 -0.0281
 5747SOL    HW222760   3.779   1.052   1.323 -0.7086  0.4353  0.0008
 5747SOL    HW322761   3.722   1.128   1.441  0.2214  2.0240 -0.5361
 5747SOL    MW422762   3.791   1.099   1.396 -0.3438 -0.2747 -0.0270
 5748SOL     OW22763   6.056   4.854   5.451  0.4187  0.4118  0.5527
 5748SOL    HW222764   6.058   4.835   5.357  0.2763  0.6706  0.4956
 5748SOL    HW322765   5.964   4.842   5.476  0.3724  0.7806  0.5652
 5748SOL    MW422766   6.044   4.850   5.442 -0.3039 -0.1476 -0.5608
 5749SOL     OW22767   1.146   1.884   4.745 -0.6080  0.1692 -0.8318
 5749SOL    HW222768   1.222   1.856   4.796  0.5752  0.5722 -2.3240
 5749SOL    HW322769   1.122   1.806   4.694  0.2213  0.6737 -2.0278
 5749SOL    MW422770   1.153   1.870   4.745  0.1280  0.2099  0.2313
 5750SOL     OW22771   0.589   2.399   0.422 -0.5656 -0.5356 -0.2505
 5750SOL    HW222772   0.540   2.481   0.421  1.8563  1.0153  0.2841
 5750SOL    HW322773   0.681   2.426   0.431  0.4349 -3.2647 -1.3409
 5750SOL    MW422774   0.595   2.413   0.423  1.0976 -0.3230 -0.0980
 5751SOL     OW22775   0.745   2.173   0.045 -0.1626 -0.2289  0.1893
 5751SOL    HW222776   0.713   2.101   0.100  0.5418 -1.1979 -0.6296
 5751SOL    HW322777   0.835   2.147   0.023  0.1363  0.9622 -0.0385
 5751SOL    MW422778   0.753   2.160   0.049 -0.0358 -0.4046 -0.0654
 5752SOL     OW22779   2.876   0.270   1.563 -0.2607 -0.2119  0.0001
 5752SOL    HW222780   2.916   0.258   1.649 -0.4981 -0.7158  0.0480
 5752SOL    HW322781   2.799   0.213   1.565 -0.9219  0.6537 -0.1298
 5752SOL    MW422782   2.871   0.261   1.575  0.0199  0.2593  0.5343
 5753SOL     OW22783   2.832   0.303   4.061  0.1441  0.0625  0.5054
 5753SOL    HW222784   2.755   0.320   4.116 -0.0535 -2.0097  0.9598
 5753SOL    HW322785   2.859   0.214   4.086  1.7385  0.1555 -0.7833
 5753SOL    MW422786   2.825   0.294   4.072  0.6059  0.3095  0.4368
 5754SOL     OW22787   0.445   3.844   4.554 -0.2573  0.1378 -0.4460
 5754SOL    HW222788   0.408   3.879   4.635 -0.8885 -0.2726 -0.5504
 5754SOL    HW322789   0.527   3.803   4.582 -0.4145  0.0991 -0.0312
 5754SOL    MW422790   0.451   3.843   4.569 -0.2340 -0.2607  0.2971
 5755SOL     OW22791   1.798   1.259   0.553  0.8955 -0.5198 -0.2842
 5755SOL    HW222792   1.791   1.166   0.531 -1.0957 -0.4118 -0.3642
 5755SOL    HW322793   1.807   1.303   0.469  3.5907 -0.6875 -0.1608
 5755SOL    MW422794   1.798   1.252   0.539  0.3768  0.4101 -0.1620
 5756SOL     OW22795   3.924   4.775   4.373  0.5183 -0.2267 -0.6253
 5756SOL    HW222796   3.952   4.836   4.442 -0.9261  0.5031 -0.6507
 5756SOL    HW322797   3.971   4.694   4.393  2.4400  0.8402 -0.5527
 5756SOL    MW422798   3.934   4.772   4.385 -0.0049 -0.4455 -0.4005
 5757SOL     OW22799   6.420   1.077   3.865 -0.0638  0.1149  0.5420
 5757SOL    HW222800   6.495   1.028   3.898 -0.2317 -0.0947  0.6171
 5757SOL    HW322801   6.445   1.169   3.875 -0.6474  0.1053  2.5557
 5757SOL    MW422802   6.433   1.083   3.871 -0.7740  0.8890 -0.0450
 5758SOL     OW22803   4.047   5.481   4.319 -0.0717 -0.1623 -0.1272
 5758SOL    HW222804   4.105   5.410   4.292 -0.2486 -0.4013  0.1011
 5758SOL    HW322805   4.046   5.475   4.415 -1.2441 -0.8057 -0.1568
 5758SOL    MW422806   4.054   5.471   4.328 -0.0688 -0.5937 -0.3551
 5759SOL     OW22807   1.184   4.438   5.365  0.0247  0.0062  0.3760
 5759SOL    HW222808   1.207   4.380   5.439  1.6989 -1.9502 -1.5473
 5759SOL    HW322809   1.151   4.379   5.298 -1.4361  1.7433 -0.5287
 5759SOL    MW422810   1.183   4.422   5.366 -0.0929  0.0363  0.0073
 5760SOL     OW22811   3.702   4.930   4.619 -0.2658 -0.0913 -0.0241
 5760SOL    HW222812   3.658   5.003   4.576 -1.0283 -0.2707  0.4203
 5760SOL    HW322813   3.679   4.854   4.566 -1.8706 -0.4401  1.0901
 5760SOL    MW422814   3.693   4.929   4.607  0.6882  0.5248 -0.1616
 5761SOL     OW22815   6.271   0.129   4.796  0.1561  0.1109  0.7448
 5761SOL    HW222816   6.218   0.077   4.857  0.7898  0.1380  1.3460
 5761SOL    HW322817   6.327   0.064   4.753  0.6490  0.2268  1.1860
 5761SOL    MW422818   6.272   0.113   4.799  0.1352 -0.2204  0.4044
 5762SOL     OW22819   2.231   4.751   5.810  0.0413  0.8064  0.2101
 5762SOL    HW222820   2.241   4.745   5.905 -0.7535  0.7576  0.3016
 5762SOL    HW322821   2.150   4.801   5.798 -1.4964 -1.6290 -0.3856
 5762SOL    MW422822   2.221   4.757   5.821 -0.1733  0.3109  0.3258
 5763SOL     OW22823   2.152   3.177   4.818  0.4596  0.1228 -0.5672
 5763SOL    HW222824   2.112   3.122   4.885  0.7270  1.1330  0.4554
 5763SOL    HW322825   2.241   3.191   4.848  0.3911  1.1225 -0.7856
 5763SOL    MW422826   2.158   3.172   4.831 -0.3369 -0.5100 -0.8307
 5764SOL     OW22827   3.092   3.286   1.140  0.6423 -0.1258 -0.3866
 5764SOL    HW222828   3.067   3.369   1.180  0.7719 -0.1809 -0.1911
 5764SOL    HW322829   3.111   3.308   1.048 -1.5877 -0.3348 -0.9504
 5764SOL    MW422830   3.091   3.300   1.133  0.5920  0.4884  0.0831
 5765SOL     OW22831   3.581   6.411   3.579 -0.3160  0.2101  0.2271
 5765SOL    HW222832   3.579   6.502   3.607 -1.4506  0.8433 -1.7811
 5765SOL    HW322833   3.489   6.384   3.576 -0.0376 -0.7839  0.0670
 5765SOL    MW422834   3.569   6.419   3.583  0.5406  0.0239  0.3843
 5766SOL     OW22835   4.697   2.097   4.577  0.0153  0.2561 -0.6519
 5766SOL    HW222836   4.641   2.173   4.594  0.7058  0.7407 -0.5150
 5766SOL    HW322837   4.639   2.022   4.589 -0.3688  0.7114  0.4734
 5766SOL    MW422838   4.682   2.097   4.581  0.0151 -0.0683  0.3171
 5767SOL     OW22839   1.680   5.301   5.301 -0.1115  0.3169 -0.0880
 5767SOL    HW222840   1.717   5.233   5.245  0.1614  0.0615  0.4038
 5767SOL    HW322841   1.646   5.255   5.377 -0.3978  0.6743  0.0041
 5767SOL    MW422842   1.680   5.286   5.303 -0.2045 -0.2151  0.3067
 5768SOL     OW22843   5.198   3.566   1.327 -0.0225  0.8675 -0.0173
 5768SOL    HW222844   5.191   3.503   1.256  1.8678 -0.3436  0.7996
 5768SOL    HW322845   5.290   3.592   1.326  0.1497  0.4870  2.2405
 5768SOL    MW422846   5.209   3.561   1.317 -0.2620 -0.4822 -0.1870
 5769SOL     OW22847   0.241   5.689   3.666  0.3900 -0.3162 -0.0159
 5769SOL    HW222848   0.232   5.653   3.754 -1.2116  1.2744  0.5300
 5769SOL    HW322849   0.332   5.720   3.662  0.0267  1.1898  1.7673
 5769SOL    MW422850   0.252   5.689   3.677  0.1228 -0.0038 -0.2372
 5770SOL     OW22851   1.393   5.495   2.984  0.2492  0.0176  0.3465
 5770SOL    HW222852   1.301   5.517   2.971  0.6225  1.5030  0.0910
 5770SOL    HW322853   1.440   5.549   2.920  1.1904 -2.0458 -0.8009
 5770SOL    MW422854   1.387   5.505   2.974  0.0071 -0.6611  0.5320
 5771SOL     OW22855   3.682   0.100   1.408  0.2807 -0.3102  0.2652
 5771SOL    HW222856   3.590   0.119   1.422  0.3210 -0.2655  0.4820
 5771SOL    HW322857   3.699   0.022   1.461  0.9069  1.0147  2.1346
 5771SOL    MW422858   3.672   0.092   1.417 -0.0881  0.1064 -0.5549
 5772SOL     OW22859   1.118   4.634   1.736 -0.4233  0.0107 -0.1260
 5772SOL    HW222860   1.162   4.719   1.726  0.5323 -0.6435 -1.8331
 5772SOL    HW322861   1.155   4.597   1.816  2.5684 -0.6902 -1.7045
 5772SOL    MW422862   1.128   4.641   1.745 -0.3538 -0.4899  0.3700
 5773SOL     OW22863   3.241   3.176   2.487 -0.4471 -0.7375  0.2038
 5773SOL    HW222864   3.287   3.139   2.562  0.6809 -0.7120 -0.4520
 5773SOL    HW322865   3.278   3.131   2.411 -0.4474  0.3196 -0.4552
 5773SOL    MW422866   3.252   3.165   2.487  0.1265  0.3790 -0.0893
 5774SOL     OW22867   2.427   0.598   0.449  0.0739 -0.3838  0.0603
 5774SOL    HW222868   2.465   0.685   0.438 -0.8832 -0.1406 -1.6717
 5774SOL    HW322869   2.496   0.538   0.419 -0.8122  0.0666 -3.2778
 5774SOL    MW422870   2.442   0.601   0.444 -0.6976 -0.4666  0.6797
 5775SOL     OW22871   5.482   1.466   4.400 -0.3191 -0.2987  0.7479
 5775SOL    HW222872   5.387   1.465   4.407 -0.4073 -3.0715  0.1800
 5775SOL    HW322873   5.511   1.393   4.454  1.4404 -0.0436  0.2082
 5775SOL    MW422874   5.473   1.456   4.408 -0.1847 -0.6546  0.3652
 5776SOL     OW22875   6.305   1.679   3.066  0.4406  0.1316 -0.8258
 5776SOL    HW222876   6.362   1.689   3.142 -0.0124 -0.2612 -0.4268
 5776SOL    HW322877   6.289   1.584   3.061 -0.5270  0.2831 -0.6697
 5776SOL    MW422878   6.311   1.668   3.075  0.0543 -0.2932  0.1296
 5777SOL     OW22879   5.184   4.294   2.071 -0.4520  0.0535 -0.1752
 5777SOL    HW222880   5.123   4.220   2.069 -0.1471 -0.2092  0.1975
 5777SOL    HW322881   5.202   4.308   2.164 -0.7758  0.8218 -0.2201
 5777SOL    MW422882   5.179   4.286   2.083 -0.0229 -0.3631 -0.3125
 5778SOL     OW22883   2.695   5.639   5.453  0.0985 -0.0326 -0.1643
 5778SOL    HW222884   2.710   5.733   5.443 -1.9205  0.2457 -1.0553
 5778SOL    HW322885   2.704   5.603   5.365  0.7624 -0.6877  0.1547
 5778SOL    MW422886   2.698   5.647   5.440 -0.6657 -0.3838 -0.2173
 5779SOL     OW22887   1.523   4.776   0.194  0.1825  0.4231  0.1917
 5779SOL    HW222888   1.535   4.760   0.100 -0.1247 -1.7257  0.4660
 5779SOL    HW322889   1.430   4.798   0.203 -0.6231 -2.4980  0.2552
 5779SOL    MW422890   1.512   4.777   0.183  0.5827  0.6102 -0.2918
 5780SOL     OW22891   3.660   2.107   2.891 -0.4234 -0.0352  0.2337
 5780SOL    HW222892   3.748   2.132   2.919  0.3275 -1.2907 -0.8802
 5780SOL    HW322893   3.639   2.166   2.819 -0.3226  0.0199  0.2499
 5780SOL    MW422894   3.669   2.118   2.885  0.1158  0.3545  0.3746
 5781SOL     OW22895   0.659   0.801   3.141  0.0342  0.2496 -0.1167
 5781SOL    HW222896   0.686   0.783   3.231 -0.0642  1.3571  0.1452
 5781SOL    HW322897   0.669   0.896   3.132 -3.3108  0.6906 -0.1405
 5781SOL    MW422898   0.664   0.811   3.152 -0.2237 -0.1221 -0.6304
 5782SOL     OW22899   0.485   2.181   5.234 -0.0258  0.2732  0.5009
 5782SOL    HW222900   0.396   2.146   5.232  0.6068 -1.4187 -1.3430
 5782SOL    HW322901   0.496   2.224   5.149  1.2834 -0.6006  0.1946
 5782SOL    MW422902   0.475   2.182   5.222 -0.3127 -0.3870  0.2851
 5783SOL     OW22903   2.686   2.084   5.080 -0.4277  0.3407  0.4897
 5783SOL    HW222904   2.594   2.061   5.066 -0.4841  1.7048 -1.7515
 5783SOL    HW322905   2.731   2.051   5.003  0.9164  0.0857  1.3621
 5783SOL    MW422906   2.679   2.077   5.068 -0.1238  0.3307  0.1501
 5784SOL     OW22907   5.977   5.705   0.777 -0.0111  0.2306 -0.2106
 5784SOL    HW222908   5.889   5.675   0.798  0.0775 -0.4739 -0.8069
 5784SOL    HW322909   6.024   5.700   0.861 -0.2656 -0.3684 -0.0937
 5784SOL    MW422910   5.972   5.700   0.791  0.1449  0.1570  0.0218
 5785SOL     OW22911   0.421   0.161   5.715  0.5306  0.1147 -0.5435
 5785SOL    HW222912   0.497   0.169   5.772  0.6817  0.1542 -0.7497
 5785SOL    HW322913   0.388   0.250   5.707  0.7928  0.1797 -0.9039
 5785SOL    MW422914   0.426   0.174   5.722 -1.1842 -0.3563 -0.3441
 5786SOL     OW22915   0.846   2.485   0.429  0.7284 -0.1530  0.4367
 5786SOL    HW222916   0.871   2.489   0.521  1.0283  1.1531  0.3190
 5786SOL    HW322917   0.843   2.577   0.401 -0.4674 -0.4615 -0.5558
 5786SOL    MW422918   0.849   2.498   0.437 -0.6135  0.5339  0.7431
 5787SOL     OW22919   1.006   5.533   5.764 -0.3031 -0.3239 -0.1015
 5787SOL    HW222920   0.946   5.603   5.741 -0.8337 -0.1468  1.7056
 5787SOL    HW322921   0.949   5.459   5.786  0.2456 -1.4353 -2.1566
 5787SOL    MW422922   0.991   5.532   5.764  0.6265  0.5895 -0.0451
 5788SOL     OW22923   6.065   5.649   1.053  0.6970 -0.1146 -0.0926
 5788SOL    HW222924   5.991   5.603   1.093  1.6006 -0.9737  0.6228
 5788SOL    HW322925   6.140   5.591   1.066  1.4495  0.5892 -1.1038
 5788SOL    MW422926   6.065   5.635   1.060 -0.2107 -0.4136 -0.2589
 5789SOL     OW22927   0.251   0.265   5.385  0.7197 -0.4939  0.1137
 5789SOL    HW222928   0.260   0.360   5.389  0.3030 -0.4381 -0.1888
 5789SOL    HW322929   0.269   0.242   5.294 -0.2154 -0.5827 -0.0612
 5789SOL    MW422930   0.255   0.274   5.373  0.3802  0.0176 -0.2986
 5790SOL     OW22931   2.301   2.527   1.764  0.6484  0.1189 -0.0221
 5790SOL    HW222932   2.367   2.573   1.815  0.8747 -0.0343 -0.1751
 5790SOL    HW322933   2.269   2.458   1.823  2.0898 -1.1158 -0.6392
 5790SOL    MW422934   2.305   2.524   1.779  0.1434 -0.3906  0.0610
 5791SOL     OW22935   1.175   3.884   0.607 -0.9304 -0.4328 -0.0609
 5791SOL    HW222936   1.244   3.842   0.555 -0.1123  0.5318  0.2196
 5791SOL    HW322937   1.173   3.975   0.575 -1.8802 -0.3785  0.1305
 5791SOL    MW422938   1.184   3.891   0.596  0.3129 -0.0065  0.1405
 5792SOL     OW22939   1.294   2.313   3.040 -0.4309  0.7094 -0.5226
 5792SOL    HW222940   1.285   2.221   3.016  1.4948  0.7312 -1.5170
 5792SOL    HW322941   1.234   2.325   3.114 -1.2857 -1.1343 -0.8759
 5792SOL    MW422942   1.285   2.302   3.047  0.7113  0.1469 -0.0224
 5793SOL     OW22943   0.688   3.988   6.013  0.0005 -0.6616  0.1457
 5793SOL    HW222944   0.621   4.026   5.956  0.2588 -0.5180 -0.0644
 5793SOL    HW322945   0.640   3.963   6.092 -0.0938  0.4816  0.4630
 5793SOL    MW422946   0.672   3.990   6.016 -0.2325 -0.3392 -0.0794
 5794SOL     OW22947   1.402   0.648   1.666  0.5813  0.1197  0.1672
 5794SOL    HW222948   1.332   0.700   1.705 -0.1864  0.3494 -1.4807
 5794SOL    HW322949   1.362   0.562   1.650  0.7309  0.1994 -0.6304
 5794SOL    MW422950   1.387   0.643   1.669 -0.5806 -0.3628  0.1678
 5795SOL     OW22951   5.418   0.462   0.055  0.3854 -0.4814  0.5614
 5795SOL    HW222952   5.388   0.371   0.064  0.5413 -0.5312  0.5669
 5795SOL    HW322953   5.479   0.474   0.127 -1.0182  0.1876  1.6857
 5795SOL    MW422954   5.422   0.451   0.065 -0.6115 -0.4394  0.0891
 5796SOL     OW22955   1.889   3.073   5.405 -0.4345 -0.6603 -0.2843
 5796SOL    HW222956   1.947   3.115   5.469  0.1257 -1.5743 -0.1805
 5796SOL    HW322957   1.911   2.980   5.409 -2.5815 -1.1868  0.4470
 5796SOL    MW422958   1.900   3.066   5.414 -0.3152  0.2599 -0.5770
 5797SOL     OW22959   3.452   4.396  -0.001 -0.4554 -0.0226 -0.4378
 5797SOL    HW222960   3.383   4.402   0.065  1.0255 -0.2828  1.2098
 5797SOL    HW322961   3.427   4.461  -0.067 -1.3636  1.1625  0.9980
 5797SOL    MW422962   3.440   4.406  -0.001 -0.1480 -0.2315 -0.3575
 5798SOL     OW22963   3.081   4.557   5.804  0.3895  0.6799  0.8604
 5798SOL    HW222964   3.013   4.499   5.772  2.3858 -1.0010 -0.6014
 5798SOL    HW322965   3.073   4.636   5.750  0.5110 -0.1238 -0.3790
 5798SOL    MW422966   3.071   4.560   5.792 -0.4905  0.2189  0.1432
 5799SOL     OW22967   1.513   5.703   1.390  0.2291  0.2634  0.1016
 5799SOL    HW222968   1.587   5.643   1.387  0.0629 -0.0419  1.3882
 5799SOL    HW322969   1.450   5.659   1.448  0.7587  2.3684  2.4501
 5799SOL    MW422970   1.514   5.689   1.397  0.4575  0.0013  0.5801
 5800SOL     OW22971   3.808   4.869   3.133 -0.3272 -0.1021  0.3294
 5800SOL    HW222972   3.830   4.958   3.160  1.6180 -0.4971  0.2224
 5800SOL    HW322973   3.884   4.817   3.160 -0.6950 -1.4294 -1.0745
 5800SOL    MW422974   3.821   4.874   3.140 -0.0406  0.5440  0.5622
 5801SOL     OW22975   2.688   5.234   0.856 -0.2720 -0.3374 -0.5067
 5801SOL    HW222976   2.690   5.140   0.875  0.4446 -0.1886  0.2056
 5801SOL    HW322977   2.758   5.271   0.909  1.8189  0.1375 -3.3605
 5801SOL    MW422978   2.698   5.226   0.865  0.4123  0.4515  0.1307
 5802SOL     OW22979   4.966   1.594   4.306 -0.4555 -0.0813  0.1867
 5802SOL    HW222980   4.997   1.519   4.255  1.4890  0.6189  0.2384
 5802SOL    HW322981   4.891   1.627   4.258 -0.8604 -1.5736 -0.2604
 5802SOL    MW422982   4.960   1.588   4.293 -0.5699 -0.3889 -0.0340
 5803SOL     OW22983   5.508   1.150   5.615 -0.4638 -0.5060 -0.0260
 5803SOL    HW222984   5.543   1.235   5.586  1.6530 -1.1312  0.4830
 5803SOL    HW322985   5.414   1.157   5.602 -0.4429  2.1667  0.5587
 5803SOL    MW422986   5.500   1.162   5.610 -0.1130  0.3434  0.7982
 5804SOL     OW22987   4.484   2.532   5.623 -0.2817  0.2613  0.2175
 5804SOL    HW222988   4.573   2.496   5.627 -0.9941 -1.5145  0.6541
 5804SOL    HW322989   4.427   2.456   5.618 -1.8429  1.3486  0.7219
 5804SOL    MW422990   4.488   2.517   5.623  0.1584  0.1075 -0.0903
 5805SOL     OW22991   1.745   4.370   5.003 -0.3548 -0.1528 -0.2373
 5805SOL    HW222992   1.806   4.432   5.043  0.9445  0.1871 -2.5570
 5805SOL    HW322993   1.661   4.417   5.001 -0.1700  0.2487  0.9571
 5805SOL    MW422994   1.742   4.384   5.008 -0.0452 -0.1670 -0.0893
 5806SOL     OW22995   1.543   2.488   5.085  0.0902  0.0475 -0.1675
 5806SOL    HW222996   1.636   2.475   5.064  0.2302 -0.5219  0.7758
 5806SOL    HW322997   1.502   2.504   5.000  1.1898  1.2609 -0.5073
 5806SOL    MW422998   1.550   2.488   5.071  0.7687  0.2859  0.0302
 5807SOL     OW22999   3.188   3.302   5.624 -0.0255 -0.2557 -0.5863
 5807SOL    HW223000   3.113   3.319   5.680 -0.4586 -0.3664 -1.1252
 5807SOL    HW323001   3.155   3.315   5.535  0.6752  0.0233 -0.8151
 5807SOL    MW423002   3.174   3.306   5.619 -0.4130 -0.0663  0.0541
 5808SOL     OW23003   3.486   1.725   3.972 -0.6859 -0.3410 -0.4296
 5808SOL    HW223004   3.450   1.767   4.049 -2.5612  0.7565 -1.8216
 5808SOL    HW323005   3.563   1.777   3.949 -1.0176  0.2532 -0.1863
 5808SOL    MW423006   3.492   1.737   3.979 -0.4053  0.1387  0.1692
 5809SOL     OW23007   4.340   1.627   4.607  0.1571 -0.1091 -0.0408
 5809SOL    HW223008   4.361   1.534   4.595 -0.8270 -0.1693 -1.5064
 5809SOL    HW323009   4.423   1.672   4.593  0.5775 -0.7446  0.3623
 5809SOL    MW423010   4.353   1.621   4.604 -0.7610  0.0434  0.0923
 5810SOL     OW23011   3.159   0.091   2.883 -0.6965  0.3880 -0.6752
 5810SOL    HW223012   3.215   0.024   2.842 -0.6853  0.2722 -0.4738
 5810SOL    HW323013   3.181   0.087   2.976 -0.8306  0.5443 -0.6358
 5810SOL    MW423014   3.169   0.081   2.890 -0.5019 -0.6468  0.8517
 5811SOL     OW23015   4.648   3.693   4.501 -0.0760  0.6354  0.5019
 5811SOL    HW223016   4.728   3.650   4.470 -0.1822  0.6920  0.1440
 5811SOL    HW323017   4.610   3.631   4.563 -1.1581 -0.5984 -1.3072
 5811SOL    MW423018   4.654   3.679   4.505  0.3046  0.2256 -0.6638
 5812SOL     OW23019   4.934   3.613   0.419 -0.4385 -0.0970  0.5609
 5812SOL    HW223020   4.894   3.607   0.332  2.4302 -0.0429 -0.9041
 5812SOL    HW323021   4.866   3.583   0.479 -2.9500  0.9635 -1.5456
 5812SOL    MW423022   4.920   3.608   0.415 -0.3066 -0.5657  0.1653
 5813SOL     OW23023   4.439   4.352   3.888 -0.3465  0.0689  0.9987
 5813SOL    HW223024   4.531   4.324   3.889 -0.6346 -1.0781 -0.3976
 5813SOL    HW323025   4.442   4.445   3.910  1.2392  0.2499  0.2102
 5813SOL    MW423026   4.452   4.360   3.891  0.7785  0.4546  0.4300
 5814SOL     OW23027   0.403   3.273   4.972  0.2894  0.6173  0.2749
 5814SOL    HW223028   0.446   3.188   4.958  0.1661  0.3060  1.6258
 5814SOL    HW323029   0.320   3.266   4.924 -0.9417 -1.0723  2.4383
 5814SOL    MW423030   0.398   3.261   4.964  0.3787 -0.2317 -0.2445
 5815SOL     OW23031   0.052   4.398   1.760 -0.1835  0.5944  0.1232
 5815SOL    HW223032   0.121   4.436   1.814  1.5758 -0.1477 -1.4766
 5815SOL    HW323033   0.005   4.473   1.724  1.8504  1.3038 -1.2654
 5815SOL    MW423034   0.055   4.413   1.762  0.3909  0.7393  0.0755
 5816SOL     OW23035   4.770   1.798   1.342 -0.2392  0.6340  0.1482
 5816SOL    HW223036   4.799   1.739   1.412  0.6012 -0.5644 -1.1594
 5816SOL    HW323037   4.842   1.862   1.334 -0.0499  0.4015 -0.0243
 5816SOL    MW423038   4.784   1.799   1.350 -0.6294  0.4944 -0.1303
 5817SOL     OW23039   5.738   5.905   5.090 -0.7994  0.2720 -0.1035
 5817SOL    HW223040   5.683   5.868   5.160 -1.2065  0.1488 -0.4818
 5817SOL    HW323041   5.692   5.984   5.063 -1.8452 -0.8319 -1.7380
 5817SOL    MW423042   5.724   5.910   5.096 -0.0609  0.1074  0.1134
 5818SOL     OW23043   5.237   1.513   2.255  0.3572 -0.4687  0.6724
 5818SOL    HW223044   5.182   1.591   2.253  0.2076 -0.5839  0.4111
 5818SOL    HW323045   5.227   1.473   2.169 -1.4875 -2.1287  1.5850
 5818SOL    MW423046   5.229   1.518   2.243  0.6538 -0.5496  0.2537
 5819SOL     OW23047   0.596   3.658   5.792 -0.4997  0.1818  0.2938
 5819SOL    HW223048   0.593   3.737   5.738 -0.5364  0.1618  0.2663
 5819SOL    HW323049   0.645   3.595   5.739 -0.4265  0.2027  0.3368
 5819SOL    MW423050   0.602   3.660   5.778  0.0246 -0.2703 -0.1023
 5820SOL     OW23051   6.274   5.454   0.134  0.3643 -0.2334 -0.2748
 5820SOL    HW223052   6.369   5.448   0.126  0.1817 -1.1957 -2.5043
 5820SOL    HW323053   6.242   5.444   0.044 -1.8472  0.0415  0.4330
 5820SOL    MW423054   6.282   5.452   0.121 -0.4162 -0.1448  0.4381
 5821SOL     OW23055   1.214   1.822   5.503 -0.0883 -0.1207 -0.2331
 5821SOL    HW223056   1.255   1.889   5.558 -0.9028 -0.1622  0.4494
 5821SOL    HW323057   1.185   1.870   5.425 -0.4926  0.3036  0.1653
 5821SOL    MW423058   1.215   1.838   5.500  0.8846 -0.5452  0.2008
 5822SOL     OW23059   0.970   5.503   2.351 -0.3760  0.4513 -0.3662
 5822SOL    HW223060   0.964   5.499   2.447 -1.4812  0.8081 -0.4037
 5822SOL    HW323061   0.969   5.412   2.323  2.0671  0.2284  0.0339
 5822SOL    MW423062   0.969   5.491   2.360 -0.3817 -0.2955 -0.0292
 5823SOL     OW23063   1.106   3.870   3.949 -0.4288 -0.3712  0.1151
 5823SOL    HW223064   1.038   3.829   4.003  1.1171 -1.7950  1.0640
 5823SOL    HW323065   1.188   3.848   3.992  0.6979  0.9415 -1.2350
 5823SOL    MW423066   1.108   3.862   3.962 -0.3288  0.3102 -0.4201
 5824SOL     OW23067   2.589   0.972   1.764 -0.4228 -0.3576 -0.4664
 5824SOL    HW223068   2.552   1.058   1.784  2.4032  1.4391 -2.2351
 5824SOL    HW323069   2.666   0.990   1.710  0.6705 -3.9960 -0.4491
 5824SOL    MW423070   2.594   0.985   1.760 -0.0579 -0.5431  0.0231
 5825SOL     OW23071   1.293   4.461   4.172  0.2437 -0.0238 -0.3399
 5825SOL    HW223072   1.254   4.425   4.252  0.2645  0.0782 -0.2841
 5825SOL    HW323073   1.322   4.548   4.197 -1.6674  0.8667 -0.9864
 5825SOL    MW423074   1.291   4.468   4.186 -0.1885  0.2396 -0.0190
 5826SOL     OW23075   1.166   5.111   0.573  0.6377  0.1959  0.4396
 5826SOL    HW223076   1.115   5.187   0.598  0.2045  0.2723 -0.6234
 5826SOL    HW323077   1.250   5.147   0.542  0.1497  0.3221 -0.7920
 5826SOL    MW423078   1.171   5.126   0.572  0.4286  0.0509 -0.4567
 5827SOL     OW23079   1.577   5.504   4.685  0.4301 -0.3566 -0.2215
 5827SOL    HW223080   1.540   5.473   4.603 -2.1979 -2.0684  1.4593
 5827SOL    HW323081   1.521   5.578   4.710  1.4252  0.3795 -0.0993
 5827SOL    MW423082   1.565   5.510   4.677  0.1460  0.4098  0.4461
 5828SOL     OW23083   5.140   2.972   4.533  0.0352  0.4359 -0.1354
 5828SOL    HW223084   5.202   2.987   4.461 -0.2609  2.4688 -0.0268
 5828SOL    HW323085   5.075   2.912   4.495  0.5979  0.4184 -1.1253
 5828SOL    MW423086   5.140   2.966   4.518  0.0199 -0.7022  0.0303
 5829SOL     OW23087   1.745   1.915   0.183 -0.6195  0.8758 -0.0071
 5829SOL    HW223088   1.777   1.945   0.097 -0.8554 -0.3431 -0.5327
 5829SOL    HW323089   1.653   1.894   0.168 -0.2922 -0.8041  0.1421
 5829SOL    MW423090   1.737   1.916   0.170  0.4213  0.0819  0.5388
 5830SOL     OW23091   6.074   4.036   2.153  0.1607 -0.4221 -0.0301
 5830SOL    HW223092   6.090   4.120   2.197  0.6323 -0.2486 -0.5240
 5830SOL    HW323093   5.987   4.047   2.114  0.4743  0.0688 -0.6051
 5830SOL    MW423094   6.064   4.049   2.154 -0.8228  0.2948  0.0232
 5831SOL     OW23095   1.887   1.142   2.996 -0.1227  0.4707  0.3214
 5831SOL    HW223096   1.909   1.128   2.904 -1.2616  0.5551  0.0222
 5831SOL    HW323097   1.823   1.213   2.994  0.6075  1.1830  1.2743
 5831SOL    MW423098   1.881   1.150   2.983 -0.4884  0.2368  0.2822
 5832SOL     OW23099   3.758   1.099   0.518 -0.3953  0.1425  0.7906
 5832SOL    HW223100   3.797   1.077   0.603  1.2559  1.1268  0.3313
 5832SOL    HW323101   3.726   1.189   0.529  0.5649  0.5778  0.1500
 5832SOL    MW423102   3.759   1.108   0.531 -0.2657  0.1046 -0.2855
 5833SOL     OW23103   6.299   4.388   3.939  0.1433 -0.0789 -0.4209
 5833SOL    HW223104   6.259   4.458   3.990  0.3119  0.1659 -0.6170
 5833SOL    HW323105   6.310   4.315   4.001 -0.0444  0.0651 -0.2196
 5833SOL    MW423106   6.295   4.387   3.954  0.1013 -0.4423  0.1609
 5834SOL     OW23107   4.598   3.307   6.220 -0.0111 -0.5342 -0.8513
 5834SOL    HW223108   4.515   3.263   6.197 -0.8714  1.1112 -1.0183
 5834SOL    HW323109   4.662   3.270   6.159 -0.9622 -0.6712 -1.8027
 5834SOL    MW423110   4.595   3.296   6.209 -0.4563 -0.2850  0.2087
 5835SOL     OW23111   4.524   4.396   4.385  0.3123 -0.2776 -0.4082
 5835SOL    HW223112   4.578   4.323   4.354 -1.5946 -1.4524 -1.1214
 5835SOL    HW323113   4.465   4.415   4.312 -2.3102 -1.1457  1.3332
 5835SOL    MW423114   4.524   4.389   4.371  0.1182  0.0468  0.2322
 5836SOL     OW23115   1.534   5.507   1.672 -0.1337  0.0027  0.4485
 5836SOL    HW223116   1.578   5.471   1.595 -0.8092  0.5566 -0.2122
 5836SOL    HW323117   1.471   5.439   1.697 -0.7276  0.3034 -0.2049
 5836SOL    MW423118   1.531   5.493   1.665  0.4930  0.4321 -0.0014
 5837SOL     OW23119   1.305   2.594   6.363  0.5769  0.1368 -0.1345
 5837SOL    HW223120   1.233   2.603   6.302  1.4724 -1.6635 -1.5532
 5837SOL    HW323121   1.319   2.499   6.370  0.1153  0.1755  3.4084
 5837SOL    MW423122   1.298   2.583   6.356 -0.4476 -0.4461  0.7310
 5838SOL     OW23123   3.322   1.344   0.040 -0.1580  0.2495  0.6580
 5838SOL    HW223124   3.262   1.413   0.010  0.0062  0.4752  0.8449
 5838SOL    HW323125   3.289   1.318   0.126  1.6733  2.4660  2.1695
 5838SOL    MW423126   3.310   1.350   0.047  0.3804  0.2278 -0.5501
 5839SOL     OW23127   1.742   1.161   2.433  0.0259 -0.6159  0.4781
 5839SOL    HW223128   1.691   1.084   2.459 -2.8230  1.6852  2.2489
 5839SOL    HW323129   1.801   1.177   2.506  0.2409 -0.7405  0.3373
 5839SOL    MW423130   1.743   1.153   2.446  0.0129  0.5319 -0.0616
 5840SOL     OW23131   0.889   5.191   2.574  0.6821 -0.4348  0.0107
 5840SOL    HW223132   0.953   5.216   2.507 -0.0002  2.1204  0.2164
 5840SOL    HW323133   0.933   5.211   2.657  0.5303 -1.0644  0.2495
 5840SOL    MW423134   0.904   5.197   2.576 -0.0306 -0.3490  0.1562
 5841SOL     OW23135   0.631   1.115   6.341 -0.1575 -0.2276 -0.0452
 5841SOL    HW223136   0.601   1.077   6.258  0.6787  0.5128 -0.6902
 5841SOL    HW323137   0.680   1.193   6.316  0.8921 -0.4942  1.0917
 5841SOL    MW423138   0.633   1.120   6.326 -0.1391  0.2487 -0.0060
 5842SOL     OW23139   5.454   4.902   3.368  0.0443  0.0730 -0.1882
 5842SOL    HW223140   5.461   4.813   3.335 -1.3914 -0.5805  1.1446
 5842SOL    HW323141   5.526   4.910   3.431 -0.5196 -0.5818  0.5634
 5842SOL    MW423142   5.465   4.892   3.372  0.4482  0.3452  0.3424
 5843SOL     OW23143   4.198   4.621   0.081  0.6920 -0.5904 -0.4290
 5843SOL    HW223144   4.121   4.593   0.131  0.7483 -0.0309 -0.0167
 5843SOL    HW323145   4.251   4.669   0.145  0.2974  1.0053 -1.2458
 5843SOL    MW423146   4.194   4.623   0.096  0.1487 -0.0640  0.3378
 5844SOL     OW23147   1.018   3.459   2.378 -0.5331  0.1499  0.3434
 5844SOL    HW223148   1.112   3.453   2.362 -0.8119 -0.2891 -1.3894
 5844SOL    HW323149   0.988   3.525   2.316 -1.2454  0.9870  1.5541
 5844SOL    MW423150   1.027   3.467   2.367 -0.0135 -0.4179  0.2413
 5845SOL     OW23151   1.294   5.844   4.277  0.3328 -0.0169  0.0405
 5845SOL    HW223152   1.286   5.774   4.341 -0.7952  0.9146  0.9608
 5845SOL    HW323153   1.386   5.841   4.248  0.8423 -0.5027  1.6344
 5845SOL    MW423154   1.305   5.834   4.281  0.4126 -0.4403 -0.0492
 5846SOL     OW23155   4.862  -0.007   0.282  0.5799  0.5256 -0.0169
 5846SOL    HW223156   4.892  -0.092   0.251  0.1958  0.1785  0.5506
 5846SOL    HW323157   4.893  -0.001   0.373 -1.0744  0.1312  0.6031
 5846SOL    MW423158   4.870  -0.017   0.290 -0.2239 -0.1300 -0.0040
 5847SOL     OW23159   2.149   4.023   3.505 -0.2665  0.2233 -0.1002
 5847SOL    HW223160   2.228   4.064   3.541  1.4486 -1.1540 -2.0439
 5847SOL    HW323161   2.137   4.066   3.420 -1.5136  0.2514  0.0750
 5847SOL    MW423162   2.158   4.034   3.498 -0.2253 -0.1551 -0.2689
 5848SOL     OW23163   1.498   4.186   5.403  0.2059 -0.0558  0.5912
 5848SOL    HW223164   1.416   4.149   5.371  0.6463 -0.6499  0.1356
 5848SOL    HW323165   1.511   4.265   5.350  0.6141 -0.6969 -0.2747
 5848SOL    MW423166   1.489   4.192   5.392  0.1705 -0.3605  0.8926
 5849SOL     OW23167   5.756  -0.002   6.155  0.3933  0.0937  0.1612
 5849SOL    HW223168   5.803  -0.058   6.218 -0.2083 -0.4997  0.0852
 5849SOL    HW323169   5.665  -0.007   6.182  0.3089  0.9227  0.0565
 5849SOL    MW423170   5.751  -0.010   6.167 -0.1355 -0.0226 -0.0563
 5850SOL     OW23171   4.270   3.605   2.626 -0.3166  0.4983 -0.2591
 5850SOL    HW223172   4.309   3.690   2.643 -0.8142  0.8393 -0.8003
 5850SOL    HW323173   4.182   3.624   2.595 -0.7666 -0.2525  0.5190
 5850SOL    MW423174   4.263   3.619   2.624  0.1558 -0.1018  0.2503
 5851SOL     OW23175   5.926   0.046   5.927 -0.0617  0.1246 -0.4334
 5851SOL    HW223176   5.879   0.094   5.859  0.2689 -0.0745 -0.8055
 5851SOL    HW323177   5.863   0.039   5.999 -0.7682 -0.5481 -1.1054
 5851SOL    MW423178   5.911   0.052   5.928  0.7472  0.1198  0.3254
 5852SOL     OW23179   0.207   4.853   0.274 -0.0605  0.1646 -0.1349
 5852SOL    HW223180   0.256   4.886   0.349  0.6882 -0.5630 -0.2823
 5852SOL    HW323181   0.243   4.901   0.199 -0.2384  0.3109 -0.1259
 5852SOL    MW423182   0.218   4.864   0.274  0.9486 -0.1501  0.1562
 5853SOL     OW23183   2.228   4.993   2.493  0.3743  0.1248  0.0991
 5853SOL    HW223184   2.310   5.039   2.514  0.7118  0.3996 -1.5896
 5853SOL    HW323185   2.256   4.920   2.437 -0.5804  0.9053 -1.4830
 5853SOL    MW423186   2.243   4.990   2.488  0.5930  0.4020  0.0324
 5854SOL     OW23187   3.001   0.639   1.295  0.1314  0.1348  1.2083
 5854SOL    HW223188   2.983   0.707   1.231  0.3388 -0.0208  0.9833
 5854SOL    HW323189   3.044   0.685   1.367  0.8291  0.1482  0.7918
 5854SOL    MW423190   3.005   0.654   1.296  0.5672 -0.4347  0.1043
 5855SOL     OW23191   2.509   2.252   3.691 -0.1158  0.0417 -0.2790
 5855SOL    HW223192   2.506   2.328   3.749  1.8591  0.2292 -0.3450
 5855SOL    HW323193   2.441   2.193   3.724  0.8477  0.1969  2.1639
 5855SOL    MW423194   2.500   2.254   3.703 -0.6568  0.2280  0.2433
 5856SOL     OW23195   0.820   2.942   4.289 -0.4448  0.3939 -0.1631
 5856SOL    HW223196   0.816   2.870   4.227 -0.4986 -0.1826  0.4970
 5856SOL    HW323197   0.741   2.933   4.342  0.1695  0.1591  0.7495
 5856SOL    MW423198   0.809   2.931   4.288  0.5406 -0.3965  0.1309
 5857SOL     OW23199   5.956   3.279   0.708 -0.0063  0.1458 -0.3744
 5857SOL    HW223200   5.981   3.211   0.771  0.1565  0.0843 -0.5081
 5857SOL    HW323201   6.038   3.322   0.685  0.2441 -1.2082 -2.1677
 5857SOL    MW423202   5.970   3.275   0.713 -0.0012  0.5086  0.0942
 5858SOL     OW23203   0.657   4.828   1.972  0.0431  0.0532 -0.5275
 5858SOL    HW223204   0.704   4.909   1.991  1.1295 -0.9531  1.4313
 5858SOL    HW323205   0.711   4.784   1.906  0.4255  0.1216 -0.2648
 5858SOL    MW423206   0.670   4.833   1.966 -0.3721  0.0116 -0.8766
 5859SOL     OW23207   2.685   2.838   0.241 -0.0555 -0.4960 -0.4917
 5859SOL    HW223208   2.642   2.885   0.312  1.3928 -0.0231  0.1201
 5859SOL    HW323209   2.686   2.901   0.169 -1.8059 -1.0850 -1.0838
 5859SOL    MW423210   2.680   2.853   0.241 -0.5666  0.0949  0.3338
 5860SOL     OW23211   1.817   2.950   6.045  0.4496  0.6854  0.0084
 5860SOL    HW223212   1.823   3.034   6.090 -0.5423  1.5969 -1.4663
 5860SOL    HW323213   1.840   2.969   5.954  0.5033 -0.7000 -0.2957
 5860SOL    MW423214   1.821   2.964   6.039  0.1117 -0.6144 -0.0357
 5861SOL     OW23215   0.443   0.713   3.391  0.2901 -0.2823  0.1122
 5861SOL    HW223216   0.510   0.780   3.406  0.7297 -1.1769  2.5988
 5861SOL    HW323217   0.362   0.752   3.422 -0.1859  0.3723 -1.8254
 5861SOL    MW423218   0.441   0.727   3.397  0.0050 -0.1229  0.7131
 5862SOL     OW23219   1.521   2.234   1.071 -0.2138  0.4069  0.3795
 5862SOL    HW223220   1.592   2.170   1.078 -0.4130  0.1836  0.3732
 5862SOL    HW323221   1.442   2.181   1.066 -0.3998  0.6619  0.6131
 5862SOL    MW423222   1.520   2.218   1.071  0.7876  0.3505 -0.5344
 5863SOL     OW23223   1.736   5.708   3.454 -0.9301  0.3448  0.2176
 5863SOL    HW223224   1.738   5.676   3.364 -2.3416 -0.4517  0.4439
 5863SOL    HW323225   1.742   5.629   3.508 -0.6306  0.7713  0.8329
 5863SOL    MW423226   1.737   5.693   3.449  0.1333  0.4737 -0.4515
 5864SOL     OW23227   2.132   1.099   3.531  0.1824 -0.2227  0.0912
 5864SOL    HW223228   2.075   1.041   3.481  0.7956 -0.5566 -0.2329
 5864SOL    HW323229   2.080   1.178   3.545 -0.7257 -0.9052  0.6849
 5864SOL    MW423230   2.118   1.102   3.526 -0.5109 -0.2281 -0.4738
 5865SOL     OW23231   0.399   2.726   3.106  0.3529 -0.1033 -0.4426
 5865SOL    HW223232   0.419   2.734   3.199  0.7609  1.3692 -0.6249
 5865SOL    HW323233   0.334   2.794   3.089  1.5992  0.8899 -1.5566
 5865SOL    MW423234   0.393   2.736   3.116 -0.0883 -0.5251 -0.2862
 5866SOL     OW23235   5.717   1.200   1.792 -0.2032  0.2724 -0.0064
 5866SOL    HW223236   5.641   1.250   1.821 -0.7638 -0.0738 -0.8433
 5866SOL    HW323237   5.791   1.239   1.839 -1.0011  0.0251  1.5010
 5866SOL    MW423238   5.717   1.212   1.802  0.3019 -0.0138 -0.7516
 5867SOL     OW23239   1.089   4.728   3.948 -0.1702  0.1579  0.4289
 5867SOL    HW223240   1.101   4.695   3.858  0.1549  1.4238 -0.0181
 5867SOL    HW323241   1.176   4.760   3.973 -0.4125  0.4391  0.9208
 5867SOL    MW423242   1.102   4.728   3.939 -0.3270 -0.0934  0.3640
 5868SOL     OW23243   0.582   1.596   3.717 -0.4182  0.0779 -0.0032
 5868SOL    HW223244   0.531   1.526   3.758  0.1571 -1.1478 -1.2812
 5868SOL    HW323245   0.670   1.587   3.754 -0.0981 -0.5302 -0.8724
 5868SOL    MW423246   0.587   1.585   3.727 -0.7106  0.2912 -0.3286
 5869SOL     OW23247   1.127   1.759   2.616  0.0170 -0.2748  0.4522
 5869SOL    HW223248   1.087   1.713   2.690  0.4679 -0.4296  0.6031
 5869SOL    HW323249   1.055   1.809   2.578 -0.4684 -1.0561  0.3203
 5869SOL    MW423250   1.112   1.759   2.621 -0.4410 -0.2197 -0.1394
 5870SOL     OW23251   2.024   5.372   6.378 -0.6229  0.0802 -0.2787
 5870SOL    HW223252   1.929   5.369   6.389 -0.9734  1.2255 -2.3615
 5870SOL    HW323253   2.036   5.396   6.286  1.6943 -0.0145 -0.0500
 5870SOL    MW423254   2.013   5.375   6.367 -0.1223 -0.2375 -0.6342
 5871SOL     OW23255   4.652   0.216   4.109  0.1966 -0.3146  0.1359
 5871SOL    HW223256   4.740   0.182   4.125 -0.1280 -1.4705 -0.4471
 5871SOL    HW323257   4.641   0.210   4.014  0.4700  2.3505 -0.1314
 5871SOL    MW423258   4.662   0.211   4.099 -0.1387  0.3567 -0.8962
 5872SOL     OW23259   0.042   4.236   0.903 -0.1961  0.3311 -0.2776
 5872SOL    HW223260   0.024   4.183   0.981 -0.9573  1.1212  0.1056
 5872SOL    HW323261  -0.013   4.198   0.835 -0.1512  0.1512 -0.2156
 5872SOL    MW423262   0.032   4.224   0.904  0.7779 -0.1797  0.0505
 5873SOL     OW23263   3.930   0.107   4.769 -0.3706  0.1244 -0.4160
 5873SOL    HW223264   3.902   0.092   4.860 -0.5570  1.4634 -0.2269
 5873SOL    HW323265   3.857   0.075   4.716  0.9084 -3.3670 -0.2730
 5873SOL    MW423266   3.916   0.101   4.774  0.4435  0.3972  0.6646
 5874SOL     OW23267   0.916   2.603   5.272 -0.1792 -0.2471  0.5028
 5874SOL    HW223268   0.849   2.670   5.287 -0.2137 -0.2459  0.3395
 5874SOL    HW323269   0.947   2.581   5.360 -0.1298  0.0207  0.5551
 5874SOL    MW423270   0.911   2.609   5.286 -0.1553 -0.3637  0.2708
 5875SOL     OW23271   0.372   3.445   0.336 -0.5128  0.3886 -0.3704
 5875SOL    HW223272   0.454   3.456   0.288  0.1642 -1.8463  0.1357
 5875SOL    HW323273   0.304   3.472   0.275  0.5683  2.1999 -0.8382
 5875SOL    MW423274   0.374   3.450   0.322  0.7605  0.4776  0.4143
 5876SOL     OW23275   1.933   2.552   0.599 -0.1006  0.5775  0.2539
 5876SOL    HW223276   1.993   2.538   0.526  0.8745  0.7773  0.9906
 5876SOL    HW323277   1.984   2.604   0.662 -0.5637 -0.4261  1.5090
 5876SOL    MW423278   1.948   2.557   0.598  0.4057  0.4258 -0.2803
 5877SOL     OW23279   1.728   0.923   6.385  0.8525  0.3283  0.1575
 5877SOL    HW223280   1.758   0.936   6.295 -0.7261  1.1797 -0.2831
 5877SOL    HW323281   1.761   0.999   6.433 -0.8421  1.5094 -0.4297
 5877SOL    MW423282   1.736   0.935   6.380 -0.0126  0.3429  0.2988
 5878SOL     OW23283   4.758   2.959   3.424  0.0483  0.1273 -0.3425
 5878SOL    HW223284   4.823   3.023   3.452  0.3235 -1.0224  1.8802
 5878SOL    HW323285   4.674   2.997   3.449 -0.1559  1.2720 -2.5299
 5878SOL    MW423286   4.755   2.972   3.431 -0.3018 -0.1512  0.7143
 5879SOL     OW23287   6.288   0.353   2.607 -0.6726  0.3128 -0.1306
 5879SOL    HW223288   6.377   0.386   2.593 -0.4091 -1.1266 -2.5093
 5879SOL    HW323289   6.232   0.423   2.573 -0.3575  0.5464 -0.1775
 5879SOL    MW423290   6.293   0.367   2.601 -0.0200 -0.1303  0.0977
 5880SOL     OW23291   5.493   3.048   4.685  0.1177  0.1090 -0.1875
 5880SOL    HW223292   5.405   3.085   4.693  1.4286  3.3160  0.8205
 5880SOL    HW323293   5.545   3.096   4.748  3.1167 -0.1116 -2.2976
 5880SOL    MW423294   5.488   3.059   4.694  0.3035  0.1818 -0.3115
 5881SOL     OW23295   1.794   1.741   3.240  0.4944 -0.2194  0.1170
 5881SOL    HW223296   1.872   1.793   3.255  0.5905 -0.6560  1.3066
 5881SOL    HW323297   1.774   1.752   3.147  1.1229  1.0549  0.1133
 5881SOL    MW423298   1.801   1.749   3.230 -0.3610  0.1700  0.1871
 5882SOL     OW23299   2.323   3.945   3.012 -0.0032  0.0539 -0.0408
 5882SOL    HW223300   2.295   3.859   2.982  4.7808 -1.2509 -1.7451
 5882SOL    HW323301   2.344   3.994   2.932  1.1391  1.2547  0.9230
 5882SOL    MW423302   2.322   3.940   2.997 -0.2648  0.1398  0.6619
 5883SOL     OW23303   0.344   4.626   1.213 -0.4403  0.2633 -0.7581
 5883SOL    HW223304   0.380   4.714   1.202 -0.8299  0.7052  1.1813
 5883SOL    HW323305   0.391   4.591   1.289 -1.8478 -0.3353 -0.1379
 5883SOL    MW423306   0.355   4.633   1.222  0.1648  0.6027  0.1072
 5884SOL     OW23307  -0.000   4.458   5.676 -0.5581  0.1708  0.1878
 5884SOL    HW223308   0.040   4.376   5.705 -0.4670 -0.3332 -1.2765
 5884SOL    HW323309   0.042   4.525   5.729  0.6440 -0.5588  0.2003
 5884SOL    MW423310   0.011   4.456   5.687  0.3923  0.1963 -0.5542
 5885SOL     OW23311   6.048   0.971   5.963 -0.6393 -0.2183  0.0964
 5885SOL    HW223312   6.118   1.000   6.021 -0.3113 -1.1199  0.1576
 5885SOL    HW323313   5.976   1.033   5.980 -0.8572 -0.9448  2.1006
 5885SOL    MW423314   6.048   0.983   5.973 -0.3215 -0.6877  0.4982
 5886SOL     OW23315   4.132   3.670   0.295 -0.1922 -0.2834  0.0118
 5886SOL    HW223316   4.202   3.669   0.361 -0.7655 -0.2963  0.6340
 5886SOL    HW323317   4.072   3.602   0.324 -0.9878  0.4311  0.0743
 5886SOL    MW423318   4.134   3.661   0.308 -0.5507 -0.0877 -0.3863
 5887SOL     OW23319   1.522   3.781   6.278 -0.0192  0.4749  0.5947
 5887SOL    HW223320   1.428   3.781   6.263 -0.1464  1.0984  1.2815
 5887SOL    HW323321   1.540   3.696   6.317 -0.1246 -0.0451 -0.4591
 5887SOL    MW423322   1.512   3.770   6.281 -0.3149  0.1677  0.0838
 5888SOL     OW23323   0.638   5.838   2.496 -0.1283 -0.0698  0.2044
 5888SOL    HW223324   0.629   5.784   2.417 -0.0303 -0.1735  0.2640
 5888SOL    HW323325   0.704   5.793   2.549 -0.1314  0.0453  0.3076
 5888SOL    MW423326   0.646   5.825   2.492  0.7734 -0.1586 -0.1015
 5889SOL     OW23327   2.982   1.134   5.535 -0.2507 -0.3686  0.8616
 5889SOL    HW223328   3.001   1.092   5.452 -0.1467  1.8628 -0.3202
 5889SOL    HW323329   3.054   1.196   5.548 -0.7087 -0.0792  2.1977
 5889SOL    MW423330   2.994   1.137   5.526 -0.1423 -0.1315  0.1020
 5890SOL     OW23331   2.704   4.632   1.799 -0.2645 -0.4527 -0.2864
 5890SOL    HW223332   2.739   4.639   1.888 -1.2145  0.5575  0.0197
 5890SOL    HW323333   2.781   4.615   1.744  0.3772 -0.7073  0.6673
 5890SOL    MW423334   2.719   4.630   1.803 -0.3676  0.3533 -0.4245
 5891SOL     OW23335   6.117   2.128   5.994  0.5918 -0.1080  0.1617
 5891SOL    HW223336   6.025   2.127   5.966  0.4410 -1.4558  0.6233
 5891SOL    HW323337   6.158   2.061   5.941  0.9119 -0.7566  1.2066
 5891SOL    MW423338   6.110   2.119   5.983  0.1717  0.0604 -0.0193
 5892SOL     OW23339   6.252   0.496   0.252 -0.0317 -0.2590 -0.6833
 5892SOL    HW223340   6.180   0.506   0.189 -1.4386 -0.0880  0.8692
 5892SOL    HW323341   6.217   0.531   0.334  1.4893 -1.1020  0.3821
 5892SOL    MW423342   6.238   0.502   0.255 -0.0648  0.0624  0.5283
 5893SOL     OW23343   0.658   3.410   2.594  0.4633 -0.1876 -0.1114
 5893SOL    HW223344   0.736   3.354   2.594  0.5783 -0.0612  1.0686
 5893SOL    HW323345   0.693   3.498   2.580  0.5427 -0.1321  0.4074
 5893SOL    MW423346   0.673   3.414   2.592 -0.5864  0.1352 -0.1968
 5894SOL     OW23347   0.378   3.466   1.373 -0.4327 -0.0731 -0.4225
 5894SOL    HW223348   0.331   3.499   1.450 -0.0608 -1.5741  0.5053
 5894SOL    HW323349   0.470   3.485   1.392 -0.5116  1.6270 -1.5979
 5894SOL    MW423350   0.384   3.473   1.386 -0.8433 -0.4293  0.0950
 5895SOL     OW23351   2.312   1.152   1.337 -0.5693 -0.5128  0.1409
 5895SOL    HW223352   2.323   1.057   1.340  0.6130 -0.4024  0.1280
 5895SOL    HW323353   2.246   1.172   1.404 -1.2077 -1.3832 -0.2263
 5895SOL    MW423354   2.305   1.142   1.346 -0.2352  0.6680 -0.3001
 5896SOL     OW23355   3.945   2.380   5.472  0.4263 -0.1489 -0.2932
 5896SOL    HW223356   4.010   2.440   5.436  0.4863 -0.0729 -0.0613
 5896SOL    HW323357   3.878   2.438   5.509  0.5384 -0.2233  0.0287
 5896SOL    MW423358   3.945   2.396   5.472 -0.3644 -0.2214 -0.3504
 5897SOL     OW23359   0.583   3.247   5.897  0.2880  0.1688 -0.8497
 5897SOL    HW223360   0.505   3.240   5.843  0.2881  0.2845 -0.8653
 5897SOL    HW323361   0.656   3.237   5.835  0.2882  0.3113 -0.8711
 5897SOL    MW423362   0.583   3.245   5.882 -0.1797  0.3144 -0.0018
 5898SOL     OW23363   0.763   3.060   6.292  0.0414 -0.8870  0.2029
 5898SOL    HW223364   0.764   2.984   6.234  1.6230 -1.6396  1.1383
 5898SOL    HW323365   0.731   3.132   6.237 -2.7769 -2.4420 -0.3514
 5898SOL    MW423366   0.759   3.059   6.277 -0.1379 -0.7092 -0.9374
 5899SOL     OW23367   3.063   5.823   6.009  0.7173 -0.0322 -0.2274
 5899SOL    HW223368   3.000   5.752   6.007 -0.9630  1.4050 -2.7592
 5899SOL    HW323369   3.119   5.809   5.933  1.0508  0.7722 -0.1466
 5899SOL    MW423370   3.062   5.812   5.999  0.0120 -0.4031  0.4637
 5900SOL     OW23371   5.753   6.178   2.799 -0.2147  0.0972  0.1915
 5900SOL    HW223372   5.781   6.184   2.890 -1.2497 -0.0978  0.5362
 5900SOL    HW323373   5.670   6.226   2.796 -0.2969 -0.0816 -0.5967
 5900SOL    MW423374   5.746   6.185   2.810  0.0607 -0.4829  0.3526
 5901SOL     OW23375   4.621   1.497   0.345 -0.1898 -0.5797  0.7056
 5901SOL    HW223376   4.536   1.474   0.306  0.6678 -2.5961 -0.1359
 5901SOL    HW323377   4.656   1.413   0.378  0.5619  0.5420  2.9779
 5901SOL    MW423378   4.614   1.483   0.344  0.0176  0.1929 -0.1733
 5902SOL     OW23379   2.598   4.157   4.564  0.1659  0.1851  0.5579
 5902SOL    HW223380   2.544   4.223   4.520  0.8728  2.2510  2.6108
 5902SOL    HW323381   2.555   4.143   4.648  0.1611 -1.8861  0.2660
 5902SOL    MW423382   2.585   4.164   4.569  0.0250  0.1637  0.3572
 5903SOL     OW23383   4.772   4.591   4.623  0.3459  0.2854  0.4211
 5903SOL    HW223384   4.781   4.626   4.712 -0.8168  1.2173  0.1979
 5903SOL    HW323385   4.862   4.573   4.596  0.6884 -0.5477  1.9787
 5903SOL    MW423386   4.785   4.593   4.631 -0.7391  0.1958  0.2580
 5904SOL     OW23387   5.327   2.320   3.277 -0.3438 -0.7692  0.0695
 5904SOL    HW223388   5.371   2.235   3.269 -0.2332 -0.5538 -2.2644
 5904SOL    HW323389   5.359   2.371   3.203 -2.4256  0.3759 -0.1227
 5904SOL    MW423390   5.337   2.315   3.266 -0.0771  0.5283  0.1784
 5905SOL     OW23391   1.887   0.540   5.429  0.2414 -0.0323  0.4735
 5905SOL    HW223392   1.964   0.587   5.396  0.4320  0.4998  1.6432
 5905SOL    HW323393   1.866   0.477   5.359  0.5560  1.1266 -0.6974
 5905SOL    MW423394   1.894   0.538   5.415  0.0261 -0.1190  0.1424
 5906SOL     OW23395   1.679   6.010   6.186 -0.0689 -0.4827 -0.4664
 5906SOL    HW223396   1.605   6.069   6.168 -1.1594 -1.4535  0.6783
 5906SOL    HW323397   1.753   6.069   6.202 -0.7697  0.5335 -0.8260
 5906SOL    MW423398   1.679   6.026   6.186  0.9718  0.7164 -0.2226
 5907SOL     OW23399   1.048   6.201   5.281 -0.3761  0.6473  0.4261
 5907SOL    HW223400   1.039   6.290   5.247 -1.6016  1.0163  1.6201
 5907SOL    HW323401   1.013   6.206   5.370 -1.0240 -1.1640  0.3122
 5907SOL    MW423402   1.043   6.213   5.288 -0.5304 -0.2228  0.3439
 5908SOL     OW23403   3.936   0.357   2.294 -0.4468 -0.4885 -0.1693
 5908SOL    HW223404   3.991   0.319   2.363 -1.7592  0.7822  1.6976
 5908SOL    HW323405   3.883   0.284   2.263  0.6132 -1.2198 -0.3223
 5908SOL    MW423406   3.936   0.343   2.299 -0.2795  0.3359 -0.0156
 5909SOL     OW23407   0.039   6.082   4.522 -0.6891  0.2077 -0.4289
 5909SOL    HW223408  -0.054   6.105   4.526 -0.1600  2.3786  1.1867
 5909SOL    HW323409   0.078   6.146   4.463  0.3815  2.0565  2.0872
 5909SOL    MW423410   0.032   6.093   4.515 -0.0440  0.4163 -0.4976
 5910SOL     OW23411   2.337   2.618   2.316  0.2607  0.2850  0.1958
 5910SOL    HW223412   2.379   2.565   2.384 -0.4930  0.3537  0.7301
 5910SOL    HW323413   2.251   2.638   2.352  0.7006  2.3064  0.2495
 5910SOL    MW423414   2.331   2.614   2.330  0.0680  0.1555  0.2028
 5911SOL     OW23415   4.076   2.978   0.711 -0.3577 -0.2366 -0.6544
 5911SOL    HW223416   3.995   2.932   0.689 -1.6822  1.5084  0.2933
 5911SOL    HW323417   4.060   3.013   0.799  1.1122  0.8360 -0.7799
 5911SOL    MW423418   4.063   2.977   0.720  0.3238  0.0074 -0.0013
 5912SOL     OW23419   4.813   4.615   3.297  0.9207 -0.0501 -0.2417
 5912SOL    HW223420   4.763   4.549   3.249  1.6357 -2.0785  1.6102
 5912SOL    HW323421   4.903   4.584   3.293  0.8157 -1.4231  3.8163
 5912SOL    MW423422   4.818   4.602   3.290 -0.2450  0.2357 -0.2016
 5913SOL     OW23423   3.440   4.578   0.625 -0.4092  0.4827  0.7679
 5913SOL    HW223424   3.382   4.534   0.562  0.5067  1.1046 -0.5695
 5913SOL    HW323425   3.511   4.515   0.640 -0.4546  0.4655  0.9070
 5913SOL    MW423426   3.442   4.564   0.618 -0.9869  0.4396  0.5391
 5914SOL     OW23427   3.457   4.970   4.439 -0.1387 -0.9408 -0.3679
 5914SOL    HW223428   3.440   4.895   4.496 -1.8289 -0.6148 -0.3967
 5914SOL    HW323429   3.479   5.042   4.498  1.0430 -1.3264 -0.3171
 5914SOL    MW423430   3.457   4.970   4.454 -0.0622 -0.4395 -0.6505
 5915SOL     OW23431   2.919   1.366   0.413  0.4870 -0.2349  0.1914
 5915SOL    HW223432   3.013   1.356   0.396  0.0373  0.2108 -3.2175
 5915SOL    HW323433   2.902   1.459   0.405 -0.6848 -0.5916 -2.6648
 5915SOL    MW423434   2.929   1.377   0.410 -0.2234  0.2378 -0.2342
 5916SOL     OW23435   6.047   2.626   4.269 -0.0819  0.1265  0.3486
 5916SOL    HW223436   6.125   2.584   4.232 -0.9644  0.1835 -1.7028
 5916SOL    HW323437   6.037   2.585   4.355  1.5821 -0.6558  0.2224
 5916SOL    MW423438   6.056   2.615   4.275  0.4324  0.7521 -0.4602
 5917SOL     OW23439   5.562   1.972   4.269  0.1563 -0.1741  0.0476
 5917SOL    HW223440   5.571   1.884   4.233 -1.6914 -0.6722  0.7077
 5917SOL    HW323441   5.581   1.963   4.362 -0.1753  0.0821  0.1446
 5917SOL    MW423442   5.566   1.959   4.276 -0.3684 -0.1732  0.1074
 5918SOL     OW23443   5.374   4.627   1.084 -0.1825 -0.4960  0.3033
 5918SOL    HW223444   5.424   4.629   1.002  0.8673 -2.5751  0.8507
 5918SOL    HW323445   5.283   4.639   1.056  0.2957  0.2553 -1.0086
 5918SOL    MW423446   5.368   4.629   1.069 -0.6890 -0.2143 -0.4236
 5919SOL     OW23447   2.288   1.599   0.339 -0.0796  0.4962 -0.1419
 5919SOL    HW223448   2.295   1.612   0.245 -1.1018  1.0389 -0.1652
 5919SOL    HW323449   2.217   1.658   0.366 -1.8623 -1.7818  0.5002
 5919SOL    MW423450   2.279   1.609   0.330  0.0966 -0.3336 -0.0359
 5920SOL     OW23451   2.443   4.619   4.140 -0.0628 -0.2507  0.1428
 5920SOL    HW223452   2.532   4.615   4.175 -0.1842 -0.1230  0.4710
 5920SOL    HW323453   2.454   4.612   4.045  0.3508  0.4626  0.1308
 5920SOL    MW423454   2.456   4.618   4.132  0.9530 -0.4220  0.1562
 5921SOL     OW23455   1.463   2.266   0.542  0.0006 -0.6727  0.0525
 5921SOL    HW223456   1.464   2.200   0.473  0.4401 -1.2704  0.6245
 5921SOL    HW323457   1.532   2.240   0.602  0.6551  0.6919 -0.0627
 5921SOL    MW423458   1.472   2.254   0.541  0.2924 -0.0313  0.0323
 5922SOL     OW23459   4.943   3.331   0.578 -0.1454 -0.5074  0.6225
 5922SOL    HW223460   5.013   3.397   0.575 -1.5623  1.0962 -2.5900
 5922SOL    HW323461   4.880   3.367   0.641 -0.4132  0.7395 -0.3095
 5922SOL    MW423462   4.944   3.345   0.586 -0.0937 -0.2063 -0.2845
 5923SOL     OW23463   4.612   0.246   1.828 -0.3823  0.4132 -0.0738
 5923SOL    HW223464   4.650   0.292   1.753  0.4954  0.5422  0.4337
 5923SOL    HW323465   4.685   0.199   1.867 -0.7192  0.7557  0.9983
 5923SOL    MW423466   4.626   0.246   1.823  0.1472  0.4319 -0.7649
 5924SOL     OW23467   2.964   1.534   1.528 -0.5064 -0.1240  0.1431
 5924SOL    HW223468   2.938   1.535   1.620  0.3956 -1.3185  0.4305
 5924SOL    HW323469   2.898   1.480   1.485  0.7180 -2.0946  0.6486
 5924SOL    MW423470   2.952   1.527   1.535  0.4491  0.0295 -0.5479
 5925SOL     OW23471   4.829   5.286   6.025 -0.1248  0.4653 -0.3272
 5925SOL    HW223472   4.764   5.352   6.001 -1.2490  0.2252  1.7705
 5925SOL    HW323473   4.839   5.296   6.120  0.3701 -1.7268 -0.0841
 5925SOL    MW423474   4.822   5.296   6.034  0.1680  0.4009 -0.1474
 5926SOL     OW23475   5.727   1.203   6.203  0.2655 -0.2758 -0.2116
 5926SOL    HW223476   5.811   1.197   6.247  0.7093  0.2851 -0.9721
 5926SOL    HW323477   5.675   1.132   6.241  0.9616 -0.4117  0.5017
 5926SOL    MW423478   5.731   1.193   6.213 -0.2196 -0.4350 -0.0656
 5927SOL     OW23479   0.503   0.081   2.813  0.3305  0.6011 -0.8138
 5927SOL    HW223480   0.589   0.048   2.841  0.6995  0.1356 -2.3909
 5927SOL    HW323481   0.444   0.056   2.884  1.1318 -0.9388 -0.6341
 5927SOL    MW423482   0.507   0.073   2.826  0.4797  0.2765 -0.2092
 5928SOL     OW23483   1.954   4.292   3.217  0.4985  0.0768  0.1746
 5928SOL    HW223484   1.924   4.350   3.148  1.1918 -0.3611 -0.5123
 5928SOL    HW323485   1.890   4.220   3.218 -0.6886  1.0973  1.4167
 5928SOL    MW423486   1.941   4.290   3.208 -0.0101  0.0950  0.3851
 5929SOL     OW23487   1.836   2.104   4.443 -0.2896 -0.4896 -0.3668
 5929SOL    HW223488   1.885   2.022   4.440 -1.2962 -1.1463  0.5099
 5929SOL    HW323489   1.829   2.124   4.536 -2.0369 -0.6559 -0.4277
 5929SOL    MW423490   1.842   2.096   4.455  0.3650  0.1916  0.0746
 5930SOL     OW23491   4.457   2.999   3.364  0.0148 -1.1849 -0.1241
 5930SOL    HW223492   4.369   2.971   3.390 -0.6954  1.4295  0.5867
 5930SOL    HW323493   4.448   3.020   3.271 -0.7439  0.9959  0.3753
 5930SOL    MW423494   4.444   2.998   3.355 -0.0091 -0.2597  0.2556
 5931SOL     OW23495   2.609   3.906   3.066 -0.1698 -0.9880  0.1010
 5931SOL    HW223496   2.631   3.857   2.987 -0.9332 -1.9780  0.4915
 5931SOL    HW323497   2.516   3.928   3.055 -0.2147 -0.9166  0.6120
 5931SOL    MW423498   2.600   3.903   3.054  0.1125  0.0710  0.0947
 5932SOL     OW23499   4.388   5.440   5.203 -0.9381  0.0205  0.2614
 5932SOL    HW223500   4.324   5.433   5.132 -1.8819  0.2606  1.0647
 5932SOL    HW323501   4.361   5.518   5.252 -0.1582 -0.0030  0.7506
 5932SOL    MW423502   4.376   5.449   5.200 -0.2161 -0.2133 -0.0847
 5933SOL     OW23503   5.115   5.295   1.874 -0.7787 -0.2609  0.3746
 5933SOL    HW223504   5.068   5.261   1.798 -0.1405  1.0449 -0.6454
 5933SOL    HW323505   5.050   5.346   1.923 -0.6420  0.8863 -0.6041
 5933SOL    MW423506   5.100   5.297   1.871 -0.1812  0.3092  0.1159
 5934SOL     OW23507   5.394   5.003   5.001  0.2412 -0.0708 -0.7952
 5934SOL    HW223508   5.414   5.026   4.910  0.4240 -0.2523 -0.8026
 5934SOL    HW323509   5.299   5.011   5.008  0.0487 -1.4514 -1.3995
 5934SOL    MW423510   5.384   5.007   4.990  0.3893  0.2592 -0.8173
 5935SOL     OW23511   4.736   3.962   5.557 -0.5479  0.0269  0.8104
 5935SOL    HW223512   4.730   4.050   5.596 -1.9575 -0.5054  1.8798
 5935SOL    HW323513   4.650   3.947   5.517  0.5344  0.1521 -1.7583
 5935SOL    MW423514   4.724   3.972   5.557 -0.2468 -0.1909 -0.1120
 5936SOL     OW23515   2.052   0.526   2.776 -0.3317  0.1239  0.4387
 5936SOL    HW223516   1.957   0.536   2.782 -0.6081 -2.3987  2.2531
 5936SOL    HW323517   2.068   0.495   2.687 -1.0193  1.7422 -0.2835
 5936SOL    MW423518   2.041   0.523   2.765 -0.4007 -0.5165  0.3498
 5937SOL     OW23519   3.656   0.464   1.089 -0.1965  0.5732 -0.9588
 5937SOL    HW223520   3.714   0.462   1.165 -0.5966  0.1424 -0.6624
 5937SOL    HW323521   3.667   0.378   1.048 -0.8422  0.3791 -0.7345
 5937SOL    MW423522   3.665   0.452   1.094 -0.1794  0.1920 -0.1848
 5938SOL     OW23523   4.911   3.947   1.229  0.0652  0.1040 -0.1570
 5938SOL    HW223524   4.880   3.974   1.143  0.2759  0.6485 -0.0693
 5938SOL    HW323525   5.005   3.965   1.227 -0.1127  1.1839  0.5715
 5938SOL    MW423526   4.920   3.953   1.217 -0.7856  0.3099 -0.4803
 5939SOL     OW23527   1.983   3.168   3.891 -0.2406  0.7033 -0.0991
 5939SOL    HW223528   1.939   3.205   3.815 -1.0432  1.1186  0.5649
 5939SOL    HW323529   1.964   3.228   3.963 -0.1318 -0.0813  0.6071
 5939SOL    MW423530   1.975   3.180   3.891  0.0275  0.0201  0.0886
 5940SOL     OW23531   3.641   1.573   4.702 -0.1965 -0.5225  0.6820
 5940SOL    HW223532   3.618   1.622   4.624  0.0641 -0.0617  0.8909
 5940SOL    HW323533   3.673   1.639   4.764  2.0737 -1.1517  0.2739
 5940SOL    MW423534   3.643   1.588   4.700  0.3241  0.2388  0.3063
 5941SOL     OW23535   5.039   0.987   2.571  0.1576  0.3579  0.3014
 5941SOL    HW223536   5.122   0.989   2.618 -0.6006  0.6824  1.6762
 5941SOL    HW323537   5.004   1.075   2.580 -0.3585  0.2098 -0.2073
 5941SOL    MW423538   5.045   0.999   2.579  1.0059  0.7937  0.2343
 5942SOL     OW23539   0.238   4.294   2.645  0.3055  0.6434 -0.5355
 5942SOL    HW223540   0.260   4.206   2.674 -1.2926  0.7078  1.0668
 5942SOL    HW323541   0.314   4.347   2.669  1.1281 -0.2063 -1.1852
 5942SOL    MW423542   0.251   4.289   2.652  0.0517  0.4714 -0.6711
 5943SOL     OW23543   1.860   3.368   3.715  0.4737  0.1995 -0.2244
 5943SOL    HW223544   1.890   3.441   3.660 -1.4889  1.1260 -0.1511
 5943SOL    HW323545   1.775   3.344   3.679  0.8939 -1.8305  0.0144
 5943SOL    MW423546   1.853   3.375   3.703  0.8196  0.0384  0.3968
 5944SOL     OW23547   2.901   4.178   0.996  0.1106 -0.4927 -0.5017
 5944SOL    HW223548   2.992   4.152   1.006 -0.4763 -2.5377 -0.1152
 5944SOL    HW323549   2.865   4.118   0.930 -1.5245 -1.3008  1.0344
 5944SOL    MW423550   2.908   4.167   0.988 -0.6398 -0.0154  0.3565
 5945SOL     OW23551   5.315   6.400   2.865 -0.2158  0.2302 -0.7055
 5945SOL    HW223552   5.380   6.470   2.863 -0.6037  0.5841 -2.6741
 5945SOL    HW323553   5.352   6.332   2.808 -1.1264  0.0463 -1.0991
 5945SOL    MW423554   5.329   6.400   2.857 -0.0721 -0.0810 -0.3321
 5946SOL     OW23555   0.209   2.456   4.044 -0.4728 -0.0607  0.0151
 5946SOL    HW223556   0.166   2.428   3.964 -0.4703 -0.5452  0.1807
 5946SOL    HW323557   0.276   2.390   4.060 -0.8568 -0.2877  0.7282
 5946SOL    MW423558   0.213   2.444   4.036 -0.0225 -0.1469  0.2068
 5947SOL     OW23559   2.497   5.897   4.299 -0.2664 -0.3301  0.0546
 5947SOL    HW223560   2.405   5.899   4.326  0.3085 -1.7566  2.4283
 5947SOL    HW323561   2.498   5.844   4.220 -1.5398  0.2231 -0.3549
 5947SOL    MW423562   2.485   5.890   4.292  0.1097 -0.0315 -0.1675
 5948SOL     OW23563   5.588   4.365   6.038 -0.4804  0.6076 -0.7595
 5948SOL    HW223564   5.674   4.374   5.997  0.1078  0.4017  0.3874
 5948SOL    HW323565   5.606   4.367   6.132 -1.6869  0.1410 -0.4991
 5948SOL    MW423566   5.602   4.366   6.045 -0.5887 -0.4216  0.0257
 5949SOL     OW23567   3.064   3.704   5.235  0.0203 -0.2056  0.5147
 5949SOL    HW223568   2.999   3.775   5.231  1.8628  1.5593  0.0974
 5949SOL    HW323569   3.084   3.685   5.143 -1.9691 -2.8530  0.5222
 5949SOL    MW423570   3.058   3.711   5.222  0.8302 -0.3003 -0.5614
 5950SOL     OW23571   5.062   3.828   6.315 -0.5356  0.2230 -0.2024
 5950SOL    HW223572   4.987   3.814   6.258 -0.6540 -3.3971  0.6050
 5950SOL    HW323573   5.024   3.848   6.401 -0.4865  0.5882 -0.2626
 5950SOL    MW423574   5.047   3.829   6.319 -0.3620 -0.2655  0.7309
 5951SOL     OW23575   0.576   5.407   3.192 -0.3107 -0.2028  0.2664
 5951SOL    HW223576   0.499   5.388   3.245 -0.6695 -0.4299 -0.3374
 5951SOL    HW323577   0.614   5.321   3.173 -2.1408 -0.4558 -2.7858
 5951SOL    MW423578   0.571   5.393   3.197  0.0432 -0.2193  0.0402
 5952SOL     OW23579   4.029   6.268   4.191  0.3138  0.1137  0.1775
 5952SOL    HW223580   4.037   6.354   4.231 -0.0899 -0.0780  0.6926
 5952SOL    HW323581   3.934   6.251   4.191  0.3996 -0.3772  0.1952
 5952SOL    MW423582   4.017   6.277   4.196  0.4816  0.7049 -0.0562
 5953SOL     OW23583   3.425   4.106   2.495  0.3473 -0.3004  0.0225
 5953SOL    HW223584   3.434   4.199   2.516 -2.7878  0.4070 -1.2750
 5953SOL    HW323585   3.443   4.100   2.401  0.0888 -0.9129  0.0028
 5953SOL    MW423586   3.429   4.117   2.485 -0.6584  0.4401  0.3504
 5954SOL     OW23587   1.043   0.602   5.641  0.2411 -0.1100 -0.5771
 5954SOL    HW223588   1.106   0.672   5.625 -0.5351  1.1724  1.5465
 5954SOL    HW323589   0.958   0.640   5.618 -0.3905  0.3308  2.1396
 5954SOL    MW423590   1.040   0.616   5.636 -0.1384 -0.7537 -0.1547
 5955SOL     OW23591   1.268   4.416   4.938  0.0791 -0.7934 -0.0540
 5955SOL    HW223592   1.240   4.354   5.006  0.3184 -1.0109 -0.1514
 5955SOL    HW323593   1.209   4.491   4.948  0.5772 -0.5095  0.8711
 5955SOL    MW423594   1.257   4.418   4.949  0.0665 -0.3620 -0.2891
 5956SOL     OW23595   1.871   4.424   2.486  0.0924 -0.0530 -0.3324
 5956SOL    HW223596   1.848   4.496   2.544  0.1820  0.0242 -0.3932
 5956SOL    HW323597   1.807   4.355   2.506 -0.3623  0.2545 -0.6845
 5956SOL    MW423598   1.860   4.424   2.496 -0.6938  0.1818  0.3214
 5957SOL     OW23599   0.261   0.236   2.702 -0.3382  0.6001  0.4190
 5957SOL    HW223600   0.259   0.272   2.791 -0.0298  1.2009  0.1920
 5957SOL    HW323601   0.229   0.308   2.647  0.4129  0.5819 -0.0601
 5957SOL    MW423602   0.256   0.250   2.707  0.2224  0.3552 -0.5776
 5958SOL     OW23603   2.697   4.288   3.879 -0.1361 -0.0479 -0.2594
 5958SOL    HW223604   2.781   4.262   3.841  0.5949  0.2388  1.1131
 5958SOL    HW323605   2.685   4.230   3.954 -1.4472 -0.4467 -0.7474
 5958SOL    MW423606   2.706   4.277   3.884  0.4412 -0.2951  0.4397
 5959SOL     OW23607   5.643   3.372   5.847 -0.2948 -0.4792  0.1460
 5959SOL    HW223608   5.675   3.460   5.870  1.0674 -0.3580 -1.9742
 5959SOL    HW323609   5.588   3.347   5.921  0.1038  1.7372  1.2826
 5959SOL    MW423610   5.640   3.380   5.860 -0.5850  0.1060 -0.9741
 5960SOL     OW23611   0.245   0.543   5.415  0.2341  0.4781 -0.5081
 5960SOL    HW223612   0.257   0.606   5.344 -1.8401  2.3582  0.6581
 5960SOL    HW323613   0.155   0.559   5.445 -0.2400 -2.8046  0.1384
 5960SOL    MW423614   0.235   0.554   5.409  0.0779  1.1034 -0.2675
 5961SOL     OW23615   6.047   3.825   1.185 -0.0541  0.5034  0.1172
 5961SOL    HW223616   6.043   3.731   1.199  1.4528  0.7492  3.1485
 5961SOL    HW323617   6.136   3.841   1.152 -0.1749  0.8798 -0.0341
 5961SOL    MW423618   6.058   3.815   1.183  0.1072 -1.2146  0.1443
 5962SOL     OW23619   5.101   3.097   1.118 -0.1018 -0.2584 -0.0741
 5962SOL    HW223620   5.032   3.072   1.179 -1.3697  1.1363 -0.8794
 5962SOL    HW323621   5.061   3.090   1.031  0.9401  0.0530 -0.6050
 5962SOL    MW423622   5.087   3.093   1.114 -0.1348  0.2964  0.4085
 5963SOL     OW23623   4.970   3.902   2.716 -0.2798 -0.5535 -0.2794
 5963SOL    HW223624   4.905   3.957   2.672  1.0678  1.3964  0.0105
 5963SOL    HW323625   4.967   3.931   2.808  0.5039 -0.9363 -0.1291
 5963SOL    MW423626   4.961   3.913   2.722 -0.0470 -0.7259  0.0283
 5964SOL     OW23627   1.428   0.920   0.594  0.4137 -0.4236  0.2827
 5964SOL    HW223628   1.358   0.855   0.603  1.3066 -1.6034 -0.8274
 5964SOL    HW323629   1.405   0.970   0.516  0.2829 -0.1172  0.5157
 5964SOL    MW423630   1.416   0.918   0.585  0.2181 -0.1546  0.0795
 5965SOL     OW23631   3.198   3.724   0.156  0.0026  0.5168 -0.0635
 5965SOL    HW223632   3.234   3.687   0.076  1.7115 -1.9357  1.6752
 5965SOL    HW323633   3.112   3.757   0.131  0.0274 -1.1048 -2.6839
 5965SOL    MW423634   3.191   3.723   0.142  0.3159 -0.0092  0.6438
 5966SOL     OW23635   1.513   4.529   4.997  0.3148  0.1105 -0.4351
 5966SOL    HW223636   1.420   4.506   5.002  0.4308 -0.5416 -1.0998
 5966SOL    HW323637   1.520   4.587   4.921  0.4939 -0.0615 -0.5511
 5966SOL    MW423638   1.502   4.534   4.988  0.2208 -0.5446  0.1280
 5967SOL     OW23639   4.356   3.616   5.071 -0.3111  0.0664  0.5851
 5967SOL    HW223640   4.385   3.538   5.119  0.8360  0.3346  0.3669
 5967SOL    HW323641   4.266   3.596   5.045  0.3409 -1.7335 -0.5453
 5967SOL    MW423642   4.348   3.603   5.074  0.2721 -0.3227  0.1793
 5968SOL     OW23643   3.350   6.387   4.345  0.6994  0.3743 -0.4954
 5968SOL    HW223644   3.342   6.423   4.434  1.0088  3.7270 -1.6859
 5968SOL    HW323645   3.282   6.320   4.341 -1.1337  1.9351  1.5027
 5968SOL    MW423646   3.340   6.383   4.357  0.5952  0.3902 -0.4788
 5969SOL     OW23647   3.481   5.310   0.311  0.2796  0.0398  0.7576
 5969SOL    HW223648   3.556   5.270   0.268  1.5572  1.6264  1.3907
 5969SOL    HW323649   3.464   5.389   0.260 -0.9551 -0.2683  0.6563
 5969SOL    MW423650   3.489   5.315   0.298  0.4625 -0.8859  0.0142
 5970SOL     OW23651   1.900   3.877   1.754  0.1758  0.2095  0.2813
 5970SOL    HW223652   1.934   3.966   1.759 -0.0061  0.4378 -1.8348
 5970SOL    HW323653   1.967   3.824   1.798  0.3513  1.3525  1.4333
 5970SOL    MW423654   1.913   3.882   1.760 -0.0055 -0.5312  0.1676
 5971SOL     OW23655   5.972   0.317   2.959  0.8105 -0.5679 -0.3619
 5971SOL    HW223656   5.996   0.294   2.870 -0.1514 -0.2948 -0.7106
 5971SOL    HW323657   5.919   0.397   2.949  4.0852  1.9800  0.7666
 5971SOL    MW423658   5.968   0.325   2.946  0.5217 -0.1225  0.3613
 5972SOL     OW23659   1.053   5.633   6.304  0.3942 -0.5291  0.5316
 5972SOL    HW223660   1.123   5.627   6.369  1.2578  0.2143 -0.3098
 5972SOL    HW323661   1.098   5.629   6.220  0.3783  6.1064 -0.3399
 5972SOL    MW423662   1.068   5.631   6.302 -0.5693  0.2134 -0.0703
 5973SOL     OW23663   1.328   6.181   3.648  0.7226 -0.2245 -0.2607
 5973SOL    HW223664   1.355   6.228   3.569 -0.0313 -0.9583 -0.9743
 5973SOL    HW323665   1.245   6.221   3.673  1.0134  0.0799  0.2344
 5973SOL    MW423666   1.321   6.193   3.640 -0.2291  0.7554 -0.1652
 5974SOL     OW23667   0.814   0.335   4.935  0.2920  0.1213  0.3715
 5974SOL    HW223668   0.839   0.409   4.991  1.3788  0.9526 -1.1418
 5974SOL    HW323669   0.854   0.355   4.850 -0.9345 -1.3189 -0.5848
 5974SOL    MW423670   0.823   0.348   4.931 -0.0301  0.1914 -0.4715
 5975SOL     OW23671   3.960   2.980   2.965  0.3452 -0.1579  0.0314
 5975SOL    HW223672   3.878   3.022   2.940 -0.0650 -0.7495  0.3396
 5975SOL    HW323673   3.955   2.973   3.061  0.9795  0.2462  0.1007
 5975SOL    MW423674   3.948   2.985   2.975 -0.4958  0.3588 -0.2755
 5976SOL     OW23675   6.316   0.804   2.976  0.3547 -0.2707  0.3038
 5976SOL    HW223676   6.308   0.831   3.068 -3.1256  0.6201 -0.1242
 5976SOL    HW323677   6.257   0.729   2.968  0.6454 -0.3717 -1.2124
 5976SOL    MW423678   6.307   0.797   2.987 -0.4205  0.6060  0.0810
 5977SOL     OW23679   4.243   5.403   4.957  0.3558 -0.4850  0.5907
 5977SOL    HW223680   4.266   5.331   5.016 -2.4025 -2.2794 -0.3234
 5977SOL    HW323681   4.149   5.414   4.969  0.6073  2.6985  0.3039
 5977SOL    MW423682   4.234   5.395   4.966 -0.6894 -0.1793 -0.1301
 5978SOL     OW23683   5.556   0.670   5.986 -0.2582 -0.2356 -0.5584
 5978SOL    HW223684   5.565   0.704   5.897 -0.4114  0.1075 -0.4470
 5978SOL    HW323685   5.466   0.638   5.989 -0.6948  0.9630 -0.1307
 5978SOL    MW423686   5.545   0.670   5.974 -0.1995 -0.5370  0.4422
 5979SOL     OW23687   1.690   1.356   3.518  0.3928 -0.1535 -0.1284
 5979SOL    HW223688   1.610   1.319   3.553  0.8538 -1.8020 -0.7286
 5979SOL    HW323689   1.721   1.292   3.454  0.4412  1.9659 -2.4070
 5979SOL    MW423690   1.684   1.343   3.514  0.3628 -0.3180 -0.4362
 5980SOL     OW23691   3.529   2.465   0.847  0.2453 -0.9152  0.1997
 5980SOL    HW223692   3.597   2.431   0.905 -0.3271 -2.0753  0.2251
 5980SOL    HW323693   3.474   2.389   0.828 -0.4139 -0.2339 -0.6947
 5980SOL    MW423694   3.531   2.450   0.852 -0.2426  0.3203  0.5501
 5981SOL     OW23695   1.981   4.292   1.887  0.2052  0.6496  0.6036
 5981SOL    HW223696   1.986   4.388   1.888 -1.5622  0.7936 -0.1444
 5981SOL    HW323697   1.903   4.271   1.938 -0.1530 -0.2954 -0.2879
 5981SOL    MW423698   1.971   4.302   1.894  0.3117  0.1521  0.2394
 5982SOL     OW23699   1.484   5.946   4.663 -0.5628 -0.9138  0.2348
 5982SOL    HW223700   1.570   5.949   4.622 -1.0209 -0.8520 -0.7662
 5982SOL    HW323701   1.438   6.023   4.629 -1.4534 -1.6539 -0.3029
 5982SOL    MW423702   1.489   5.956   4.653  0.1686  0.5142 -0.0327
 5983SOL     OW23703   0.682  -0.012   1.558  0.1479  0.8531 -0.0016
 5983SOL    HW223704   0.676  -0.076   1.628 -0.8098 -0.2804 -1.0749
 5983SOL    HW323705   0.592  -0.001   1.528  0.7649 -0.7354 -2.7979
 5983SOL    MW423706   0.669  -0.019   1.563  0.5052  0.2961  0.0307
 5984SOL     OW23707   2.281   4.582   4.598  0.2504 -0.0468  0.3563
 5984SOL    HW223708   2.195   4.559   4.562  0.5281  1.4368 -1.4019
 5984SOL    HW323709   2.271   4.673   4.626  1.2595  0.1695  0.0354
 5984SOL    MW423710   2.268   4.591   4.597 -0.8586  0.5442  0.2775
 5985SOL     OW23711   2.570   0.994   3.404  0.0468 -0.1488 -0.5052
 5985SOL    HW223712   2.570   0.954   3.491  2.5587 -0.7265 -0.7028
 5985SOL    HW323713   2.577   1.088   3.421 -2.6667  0.0546 -0.0996
 5985SOL    MW423714   2.571   1.001   3.418 -0.0599  0.3998  0.8600
 5986SOL     OW23715   3.750   4.679   4.067  0.1638 -0.0022 -0.3622
 5986SOL    HW223716   3.760   4.765   4.107  1.6557 -0.1790 -0.3104
 5986SOL    HW323717   3.835   4.636   4.079 -0.5014 -1.4270 -0.5197
 5986SOL    MW423718   3.763   4.685   4.074 -0.3751 -0.0428  0.0321
 5987SOL     OW23719   0.206   5.004   5.538 -0.1685 -0.1096 -0.1184
 5987SOL    HW223720   0.174   5.077   5.485 -1.1950 -1.6092 -1.6806
 5987SOL    HW323721   0.266   5.044   5.601  1.3307  1.7832 -2.5684
 5987SOL    MW423722   0.210   5.019   5.539 -0.0633  0.7132  0.1551
 5988SOL     OW23723   5.203   5.618   4.756  0.2341 -0.8822 -0.0841
 5988SOL    HW223724   5.182   5.551   4.690  0.4820 -0.7449 -0.3069
 5988SOL    HW323725   5.210   5.569   4.838 -0.5383 -0.9848 -0.0773
 5988SOL    MW423726   5.201   5.603   4.758  0.2157  0.0801 -0.0000
 5989SOL     OW23727   6.132   3.167   5.246 -0.0347  0.2901  0.4822
 5989SOL    HW223728   6.191   3.095   5.223 -0.5523  0.5101 -1.7881
 5989SOL    HW323729   6.045   3.136   5.219 -0.7384  0.6618  2.1606
 5989SOL    MW423730   6.128   3.153   5.239  0.2091 -0.3264  0.0114
 5990SOL     OW23731   4.883   0.109   1.221 -0.6365  0.2172 -0.0151
 5990SOL    HW223732   4.950   0.090   1.287  1.4672  1.3648 -1.6906
 5990SOL    HW323733   4.910   0.058   1.145 -0.0707  2.6409 -1.5695
 5990SOL    MW423734   4.896   0.100   1.220 -0.2468  0.2473  0.1046
 5991SOL     OW23735   1.689   4.226   2.661  0.5748 -0.1057  0.4481
 5991SOL    HW223736   1.759   4.233   2.726  0.1140  1.0151  0.8396
 5991SOL    HW323737   1.612   4.198   2.711  0.6108 -0.8528  0.1007
 5991SOL    MW423738   1.688   4.223   2.677 -0.4270  0.1261 -0.0970
 5992SOL     OW23739   1.867   4.667   0.379 -0.0618 -0.3333 -0.9526
 5992SOL    HW223740   1.798   4.601   0.379 -0.7399  0.3369  0.4856
 5992SOL    HW323741   1.821   4.751   0.376  0.5863  0.1630  1.0517
 5992SOL    MW423742   1.852   4.670   0.379 -0.0914  0.3707  0.3771
 5993SOL     OW23743   0.168   1.887   3.606  0.3479 -0.7952  0.7598
 5993SOL    HW223744   0.162   1.975   3.569 -1.6663 -0.8988  0.7643
 5993SOL    HW323745   0.212   1.836   3.538  1.3695  0.1337  0.6826
 5993SOL    MW423746   0.173   1.892   3.592 -0.0883  0.0825  0.1551
 5994SOL     OW23747   4.116   5.370   1.465 -0.8000 -0.1603 -0.1579
 5994SOL    HW223748   4.167   5.373   1.383 -0.0257 -0.1347  0.3164
 5994SOL    HW323749   4.141   5.450   1.511  1.0409 -1.5242  1.4190
 5994SOL    MW423750   4.126   5.381   1.460  0.3938 -0.6977  0.5115
 5995SOL     OW23751   5.999   4.927   0.391 -0.0019 -0.1412 -0.4043
 5995SOL    HW223752   6.068   4.973   0.343  2.4687 -1.2289  1.8593
 5995SOL    HW323753   6.045   4.861   0.442 -2.8503 -1.4618  0.6503
 5995SOL    MW423754   6.014   4.925   0.391 -0.4591  0.3485  0.1222
 5996SOL     OW23755   3.372   0.828   4.117  0.1206  0.0113 -0.4606
 5996SOL    HW223756   3.401   0.750   4.166 -1.0246  0.3137  0.7698
 5996SOL    HW323757   3.452   0.862   4.077  1.2528  0.0346  1.6537
 5996SOL    MW423758   3.386   0.822   4.118  0.2656  0.0673  0.5312
 5997SOL     OW23759   2.625   6.388   6.390 -0.3201  0.4838 -0.3555
 5997SOL    HW223760   2.700   6.362   6.336  0.0776  1.2908 -0.1981
 5997SOL    HW323761   2.579   6.454   6.338  0.0162  1.2010  0.2406
 5997SOL    MW423762   2.629   6.393   6.376 -0.4351 -0.0475 -0.0499
 5998SOL     OW23763   4.928   2.459   1.583  0.3683  0.8311  0.7568
 5998SOL    HW223764   5.023   2.469   1.595  0.6845 -0.1362 -0.6938
 5998SOL    HW323765   4.914   2.475   1.490 -0.9212  0.9829  0.9582
 5998SOL    MW423766   4.939   2.463   1.572 -0.5259  0.3966  0.0883
 5999SOL     OW23767   4.426   2.715   2.268 -0.4361  0.5594  0.0028
 5999SOL    HW223768   4.460   2.804   2.269 -0.6763  0.6920 -1.1305
 5999SOL    HW323769   4.458   2.675   2.348  0.8354  1.2374 -0.1502
 5999SOL    MW423770   4.435   2.721   2.278  0.3232 -0.0352 -0.2099
 6000SOL     OW23771   0.008   0.846   0.605  0.6219 -0.4090  0.0391
 6000SOL    HW223772   0.058   0.882   0.532 -0.0930 -0.8908 -0.7057
 6000SOL    HW323773   0.014   0.913   0.673  0.1772  0.6575 -0.9395
 6000SOL    MW423774   0.016   0.860   0.604 -0.2979 -0.0767  0.2085
 6001SOL     OW23775   6.072   1.054   3.828 -0.1493  0.1124 -0.5100
 6001SOL    HW223776   5.981   1.069   3.853 -0.6149 -0.1157 -1.9787
 6001SOL    HW323777   6.123   1.090   3.901 -1.3171  3.4705 -1.1375
 6001SOL    MW423778   6.067   1.061   3.841  0.0327 -1.0793 -0.0717
 6002SOL     OW23779   5.025  -0.004   4.418 -0.0179  0.0257  0.3055
 6002SOL    HW223780   5.050  -0.071   4.355 -0.0998 -1.0448  1.3685
 6002SOL    HW323781   5.099   0.056   4.422  1.0636 -1.3291  1.0733
 6002SOL    MW423782   5.038  -0.005   4.410  0.5251  0.1556  0.2410
 6003SOL     OW23783   4.746   0.951   1.085 -0.2024  0.1847 -0.4466
 6003SOL    HW223784   4.696   0.869   1.091 -0.8007  0.6715  2.3706
 6003SOL    HW323785   4.680   1.020   1.082  0.3174  0.6756 -0.9502
 6003SOL    MW423786   4.730   0.949   1.085  0.0918  0.5719  0.4458
 6004SOL     OW23787   0.228   4.501   0.881  0.0597 -0.1221 -0.4217
 6004SOL    HW223788   0.160   4.445   0.917  0.9370 -0.8416  0.1457
 6004SOL    HW323789   0.199   4.590   0.901  0.0628 -0.4774  1.2283
 6004SOL    MW423790   0.215   4.506   0.888  0.1221 -0.1038  0.3157
 6005SOL     OW23791   1.147   4.988   3.526  0.1968  0.7336 -0.2179
 6005SOL    HW223792   1.166   4.933   3.450  1.7830  0.7076  0.1770
 6005SOL    HW323793   1.191   4.945   3.599 -3.1191 -0.4736  1.2431
 6005SOL    MW423794   1.155   4.975   3.526  0.7804  0.0545 -0.1432
 6006SOL     OW23795   4.462   1.816   5.703 -0.2717 -0.2797  0.1496
 6006SOL    HW223796   4.419   1.742   5.746 -0.5193 -0.0076  0.3733
 6006SOL    HW323797   4.459   1.795   5.610 -0.6290 -0.4007  0.1874
 6006SOL    MW423798   4.456   1.803   5.697 -0.0693  0.1394 -0.2631
 6007SOL     OW23799   4.485   2.254   5.371  0.1164  0.3141 -0.2491
 6007SOL    HW223800   4.526   2.169   5.388 -0.7729 -0.4037 -1.5005
 6007SOL    HW323801   4.537   2.291   5.299  0.1497  0.5845 -0.0877
 6007SOL    MW423802   4.497   2.248   5.363  0.6863 -0.5282  0.5820
 6008SOL     OW23803   1.424   3.129   1.111  0.1209  0.2540 -0.2262
 6008SOL    HW223804   1.368   3.111   1.035 -0.2293  0.2241  0.0332
 6008SOL    HW323805   1.374   3.095   1.186  0.3690  0.4684  0.0401
 6008SOL    MW423806   1.410   3.122   1.111 -0.4621  0.3517 -0.7338
 6009SOL     OW23807   0.130   5.866   4.674  0.0925 -0.0389 -0.4169
 6009SOL    HW223808   0.128   5.780   4.633 -1.0073  0.2009 -0.9323
 6009SOL    HW323809   0.099   5.925   4.605  0.1519  0.6645  0.1505
 6009SOL    MW423810   0.125   5.863   4.660 -0.1056 -0.5738  0.0347
 6010SOL     OW23811   0.659   2.810   3.327  0.0693 -0.0662  0.1255
 6010SOL    HW223812   0.599   2.746   3.367  1.5283 -1.4370  0.2414
 6010SOL    HW323813   0.717   2.757   3.271  0.6603  1.3069 -0.6114
 6010SOL    MW423814   0.659   2.795   3.325  0.2446 -0.5461  0.3391
 6011SOL     OW23815   4.577   4.889   1.681  0.3216 -0.1058  0.0636
 6011SOL    HW223816   4.506   4.924   1.735  1.1444  0.2585  0.9589
 6011SOL    HW323817   4.580   4.946   1.604 -0.6402 -0.4096 -0.2077
 6011SOL    MW423818   4.568   4.901   1.678 -0.6023  1.1305  0.0215
 6012SOL     OW23819   1.180   3.435   5.088 -0.0016  0.7657  0.0175
 6012SOL    HW223820   1.186   3.339   5.092 -0.6321  0.7050 -0.3964
 6012SOL    HW323821   1.271   3.464   5.079  0.1692  0.1882 -0.1690
 6012SOL    MW423822   1.193   3.426   5.087 -0.4153  0.3150 -0.0109
 6013SOL     OW23823   3.898   0.258   4.482  0.1736 -0.2761  0.5953
 6013SOL    HW223824   3.948   0.252   4.401  0.1862 -0.1000  0.5887
 6013SOL    HW323825   3.817   0.303   4.457  0.3733  0.1895  0.7667
 6013SOL    MW423826   3.894   0.263   4.468  0.0754 -0.1311  0.0869
 6014SOL     OW23827   6.401   4.973   1.606 -0.4676 -0.0950  0.3160
 6014SOL    HW223828   6.461   4.899   1.606 -0.3897 -0.0318  0.6717
 6014SOL    HW323829   6.426   5.025   1.529  0.2416  0.1823  0.7301
 6014SOL    MW423830   6.412   4.970   1.596  0.1494  0.3469  0.3060
 6015SOL     OW23831   0.558   5.789   2.982  0.0169  0.7698 -0.0329
 6015SOL    HW223832   0.509   5.871   2.976  1.8816  2.1270  1.7396
 6015SOL    HW323833   0.496   5.727   3.020 -1.2013  1.5590 -0.6543
 6015SOL    MW423834   0.544   5.792   2.986 -0.0991  0.5318  0.3618
 6016SOL     OW23835   0.147   3.989   2.023 -0.0928  0.1828  0.1121
 6016SOL    HW223836   0.217   3.931   1.993 -0.3440 -0.3202  0.4825
 6016SOL    HW323837   0.108   4.024   1.943 -0.9371 -1.3573 -0.1949
 6016SOL    MW423838   0.151   3.986   2.009 -0.4969 -0.0895  0.3276
 6017SOL     OW23839   0.216   3.031   4.531  0.2667  0.1039  0.5832
 6017SOL    HW223840   0.236   2.960   4.471  2.0721 -1.0275  2.3853
 6017SOL    HW323841   0.143   2.999   4.584 -1.2518  1.0571 -0.8404
 6017SOL    MW423842   0.209   3.018   4.530 -0.0972 -0.4513 -0.0358
 6018SOL     OW23843   0.358   5.452   0.582  0.2736  0.5029  0.2828
 6018SOL    HW223844   0.354   5.386   0.513 -1.7927  1.3541 -0.4879
 6018SOL    HW323845   0.343   5.535   0.536  1.1722  1.3553  1.4589
 6018SOL    MW423846   0.356   5.455   0.567  0.2564  0.2519  0.6244
 6019SOL     OW23847   6.000   2.806   3.578  0.3323  0.1487 -0.0091
 6019SOL    HW223848   5.933   2.869   3.604  0.6800  0.2569  0.6568
 6019SOL    HW323849   6.076   2.828   3.632  0.8095 -0.1578 -0.5413
 6019SOL    MW423850   6.002   2.817   3.589 -0.3798  0.2838 -0.1415
 6020SOL     OW23851   4.086   1.738   3.869 -0.1171  0.0677 -0.4380
 6020SOL    HW223852   4.119   1.794   3.798 -1.7445  0.6461 -0.7915
 6020SOL    HW323853   4.150   1.748   3.939  0.0806  1.7347 -0.8103
 6020SOL    MW423854   4.099   1.747   3.869  0.0595 -0.1360 -0.5476
 6021SOL     OW23855   2.483   2.193   2.472  0.2047 -0.6261  0.3544
 6021SOL    HW223856   2.520   2.228   2.391  1.0642 -1.8566  0.2000
 6021SOL    HW323857   2.441   2.269   2.513 -1.1382 -0.1794 -1.7135
 6021SOL    MW423858   2.482   2.208   2.467 -0.5026  0.0583  0.5319
 6022SOL     OW23859   5.296   5.835   5.071  0.2793  0.5110  0.1576
 6022SOL    HW223860   5.351   5.888   5.014  0.5269  1.1777  1.0079
 6022SOL    HW323861   5.295   5.882   5.154  0.1590 -0.5964  0.7971
 6022SOL    MW423862   5.303   5.848   5.074  0.3678  0.1136  0.0961
 6023SOL     OW23863   3.670   4.439   0.660 -0.7931 -0.1472  0.3383
 6023SOL    HW223864   3.670   4.400   0.572  1.5878  1.6747 -0.5677
 6023SOL    HW323865   3.714   4.374   0.715  0.6822  0.0585 -0.5534
 6023SOL    MW423866   3.676   4.425   0.656 -0.2358  0.5431 -0.0865
 6024SOL     OW23867   0.517   0.478   4.407  0.6273 -0.4035  0.2478
 6024SOL    HW223868   0.540   0.422   4.333  2.5396 -1.3539  1.4680
 6024SOL    HW323869   0.453   0.427   4.457  0.6417 -0.5249  0.1431
 6024SOL    MW423870   0.512   0.464   4.404  0.3244  0.3424  1.0490
 6025SOL     OW23871   4.534   6.275   1.129  0.1653  0.1161 -0.1075
 6025SOL    HW223872   4.506   6.270   1.038 -0.9766  0.8083  0.1857
 6025SOL    HW323873   4.456   6.302   1.177  1.0264  0.8361  0.9417
 6025SOL    MW423874   4.520   6.278   1.123 -0.7513 -0.1036  0.1361
 6026SOL     OW23875   6.333   6.261   1.716 -0.1941 -0.0367  0.3972
 6026SOL    HW223876   6.345   6.224   1.628  2.4069 -1.7126  1.3166
 6026SOL    HW323877   6.316   6.354   1.701 -0.9417 -0.4775 -1.8952
 6026SOL    MW423878   6.333   6.268   1.702 -0.8234  0.0338 -0.4514
 6027SOL     OW23879   3.042   3.908   1.138  0.7517 -0.3195  0.0774
 6027SOL    HW223880   2.958   3.862   1.135  1.9446 -2.7002  0.2544
 6027SOL    HW323881   3.053   3.932   1.230  0.0157  0.5573 -0.0523
 6027SOL    MW423882   3.032   3.905   1.149  0.3015 -0.0338 -0.2949
 6028SOL     OW23883   1.110   1.439   6.122  0.2680  0.3539 -0.3785
 6028SOL    HW223884   1.195   1.461   6.159 -1.1563  2.1184  2.1162
 6028SOL    HW323885   1.121   1.451   6.027  2.8909 -0.0224 -0.1897
 6028SOL    MW423886   1.123   1.443   6.114  0.0221  0.1403 -0.3672
 6029SOL     OW23887   3.212   0.434   3.799  0.1220 -0.2126  0.0307
 6029SOL    HW223888   3.265   0.502   3.841  0.7593 -0.7984  0.1866
 6029SOL    HW323889   3.264   0.355   3.807 -1.4602 -1.1822  1.6853
 6029SOL    MW423890   3.226   0.433   3.806  0.1182  0.3014 -0.5475
 6030SOL     OW23891   4.666   4.813   3.963  0.0686  0.3469  0.2966
 6030SOL    HW223892   4.737   4.753   3.940  0.5486  1.0755 -0.1832
 6030SOL    HW323893   4.665   4.814   4.058  2.1229  1.9046  0.3929
 6030SOL    MW423894   4.675   4.806   3.972 -0.9323 -0.1646  0.3106
 6031SOL     OW23895   0.622   0.730   4.532 -0.1673 -0.4534 -0.1774
 6031SOL    HW223896   0.711   0.703   4.554 -0.5835  0.0457  2.4943
 6031SOL    HW323897   0.582   0.651   4.494  1.1022 -0.9747 -0.4910
 6031SOL    MW423898   0.629   0.716   4.530  0.4877 -0.2433  0.7265
 6032SOL     OW23899   4.343   4.132   5.536 -0.1589 -0.1233 -0.2615
 6032SOL    HW223900   4.385   4.055   5.498  0.5907  1.0924 -2.0564
 6032SOL    HW323901   4.281   4.097   5.600  1.2306 -2.1254  0.0823
 6032SOL    MW423902   4.341   4.117   5.540  1.0673  0.3618  0.1353
 6033SOL     OW23903   6.214   2.306   3.814 -0.0755  0.1513  0.1326
 6033SOL    HW223904   6.243   2.286   3.903 -0.2567  1.3095  0.4651
 6033SOL    HW323905   6.153   2.235   3.792 -1.7466  0.9801  1.7832
 6033SOL    MW423906   6.209   2.294   3.823 -0.3468  0.9125 -0.4797
 6034SOL     OW23907   0.311   0.196   5.110  0.1158  0.8686  0.6482
 6034SOL    HW223908   0.241   0.253   5.078 -1.2988 -1.1424 -0.0308
 6034SOL    HW323909   0.379   0.201   5.043 -0.5468  0.7818 -0.0360
 6034SOL    MW423910   0.311   0.204   5.097 -0.0706 -0.3153  0.2529
 6035SOL     OW23911   4.225   6.314   5.751  0.2940  0.0036  0.3524
 6035SOL    HW223912   4.255   6.399   5.784  3.0031 -1.0916  0.9506
 6035SOL    HW323913   4.188   6.271   5.828 -1.1816  0.6047  0.0261
 6035SOL    MW423914   4.224   6.320   5.766 -0.1315  0.2429 -0.4349
 6036SOL     OW23915   0.133   2.420   3.396 -0.2180  0.5098  0.2211
 6036SOL    HW223916   0.224   2.445   3.380 -0.2951 -0.2273 -1.6071
 6036SOL    HW323917   0.116   2.450   3.485  1.3364  2.0231  0.0720
 6036SOL    MW423918   0.143   2.427   3.406  0.7837  0.1031  0.3140
 6037SOL     OW23919   0.408   3.197   0.090  0.0559 -0.2176  0.2128
 6037SOL    HW223920   0.414   3.289   0.066 -1.8091  0.4299  1.9785
 6037SOL    HW323921   0.465   3.188   0.167 -0.2631 -0.3883  0.4303
 6037SOL    MW423922   0.416   3.208   0.097  0.6696 -0.6474  0.3441
 6038SOL     OW23923   0.105   3.714   5.315 -0.3598  0.6596 -0.3648
 6038SOL    HW223924   0.041   3.704   5.244  1.0591 -0.8581 -1.5206
 6038SOL    HW323925   0.064   3.775   5.376 -1.0898  3.2707 -3.1675
 6038SOL    MW423926   0.091   3.721   5.313 -0.0549 -0.1879 -0.7299
 6039SOL     OW23927   4.665   5.511   6.301  0.1387  0.0643 -0.2339
 6039SOL    HW223928   4.624   5.597   6.315  1.5233  0.4487  1.9451
 6039SOL    HW323929   4.598   5.460   6.256 -0.4123  2.5279 -2.5077
 6039SOL    MW423930   4.650   5.516   6.297 -0.6839 -0.4249  0.6183
 6040SOL     OW23931   5.384   0.573   1.721  0.1627  0.2447  0.2949
 6040SOL    HW223932   5.343   0.637   1.662  0.1323  0.9641  1.0702
 6040SOL    HW323933   5.427   0.511   1.663 -2.3417 -0.7775 -0.5719
 6040SOL    MW423934   5.384   0.574   1.706 -0.1925 -0.2824 -0.0619
 6041SOL     OW23935   0.792   3.451   1.730  0.2155 -0.1347 -0.6829
 6041SOL    HW223936   0.747   3.493   1.656 -3.3379 -1.8916  0.2441
 6041SOL    HW323937   0.773   3.508   1.804  2.7130  0.9630 -0.8004
 6041SOL    MW423938   0.783   3.464   1.730 -0.1849  0.5068 -0.0991
 6042SOL     OW23939   1.846   4.988   1.999  0.5072  0.3153  0.6411
 6042SOL    HW223940   1.905   5.040   2.053 -0.4460  1.6812  0.4187
 6042SOL    HW323941   1.759   5.022   2.018 -0.1055 -0.8868  0.1206
 6042SOL    MW423942   1.842   5.000   2.008  1.0982 -0.1557 -0.1506
 6043SOL     OW23943   3.217   2.712   3.290 -0.2453 -0.0790 -0.5662
 6043SOL    HW223944   3.303   2.743   3.260 -0.7288 -0.6413 -2.6961
 6043SOL    HW323945   3.189   2.777   3.353  1.0229  1.0177 -1.0830
 6043SOL    MW423946   3.225   2.724   3.294  0.4031  0.5399 -0.4236
 6044SOL     OW23947   0.839   4.597   0.822 -0.1283 -0.5262  0.0425
 6044SOL    HW223948   0.806   4.508   0.833  0.2849 -0.6687  0.1672
 6044SOL    HW323949   0.824   4.617   0.729 -0.9767 -0.4114  0.2021
 6044SOL    MW423950   0.833   4.588   0.811  0.1986  0.1631  0.2316
 6045SOL     OW23951   5.208   3.557   1.595  0.7386  0.0545 -0.2182
 6045SOL    HW223952   5.187   3.542   1.503 -2.1588  0.8715  0.1865
 6045SOL    HW323953   5.262   3.636   1.595  1.9091 -0.7226 -1.2702
 6045SOL    MW423954   5.212   3.565   1.583 -0.1202 -0.1903 -0.4982
 6046SOL     OW23955   3.484   4.681   1.929  0.5907  0.1349 -0.3038
 6046SOL    HW223956   3.444   4.739   1.864  1.5846  0.7472 -0.3921
 6046SOL    HW323957   3.568   4.722   1.949  0.0426  0.3496  1.8717
 6046SOL    MW423958   3.490   4.694   1.923 -0.3669  0.0282 -0.0433
 6047SOL     OW23959   1.538   1.075   5.463 -0.4432 -0.9721 -0.3597
 6047SOL    HW223960   1.445   1.069   5.443 -0.4396  0.0846 -0.7834
 6047SOL    HW323961   1.570   1.147   5.408  0.1425  0.2296  1.4583
 6047SOL    MW423962   1.530   1.084   5.453  0.2984  0.1113  0.2607
 6048SOL     OW23963   2.438   6.319   6.114  0.1437  0.2357 -0.0517
 6048SOL    HW223964   2.474   6.386   6.171  0.4119  0.4998 -0.5215
 6048SOL    HW323965   2.428   6.242   6.170  0.9841  0.3003  0.2027
 6048SOL    MW423966   2.441   6.318   6.129 -0.5029 -0.1244  0.4772
 6049SOL     OW23967   0.192   6.205   2.772  0.0181 -0.3373  0.0339
 6049SOL    HW223968   0.184   6.143   2.844  0.6908 -1.3949 -0.7735
 6049SOL    HW323969   0.256   6.165   2.712  0.8614  1.3663 -0.2773
 6049SOL    MW423970   0.200   6.192   2.774  0.8132 -0.0620 -1.1523
 6050SOL     OW23971   0.333   5.193   1.130  0.1043 -0.0554  0.2790
 6050SOL    HW223972   0.387   5.180   1.208 -0.4607 -0.6409  0.5911
 6050SOL    HW323973   0.381   5.255   1.077  0.8001 -0.1223  0.8166
 6050SOL    MW423974   0.346   5.199   1.134  0.8804  0.2443  0.1044
 6051SOL     OW23975   2.905   2.355   5.827  0.2737  0.1250  0.3396
 6051SOL    HW223976   3.000   2.355   5.814  0.2514 -0.4778  0.1412
 6051SOL    HW323977   2.880   2.263   5.816 -0.4772  0.4408 -0.7287
 6051SOL    MW423978   2.915   2.343   5.824  0.6000 -0.5112 -0.2346
 6052SOL     OW23979   5.429   5.225   1.250  0.7235  0.5167 -0.5425
 6052SOL    HW223980   5.385   5.301   1.290  0.5820  0.3462 -0.3744
 6052SOL    HW323981   5.357   5.168   1.221  0.8227 -0.2879  0.7361
 6052SOL    MW423982   5.413   5.228   1.252 -0.3586 -0.2987  0.0818
 6053SOL     OW23983   0.541   2.730   2.635 -0.4731 -0.2643  0.0629
 6053SOL    HW223984   0.543   2.773   2.721  2.9202 -0.2438  0.1329
 6053SOL    HW323985   0.598   2.785   2.580  0.0016 -1.9810 -1.2652
 6053SOL    MW423986   0.549   2.743   2.639  0.3962 -0.4554  0.3498
 6054SOL     OW23987   5.104   1.062   2.002 -0.4463 -0.1372  0.4619
 6054SOL    HW223988   5.113   0.968   2.023  1.4753 -0.8532 -2.8167
 6054SOL    HW323989   5.058   1.064   1.918  0.1685  1.8152  0.1213
 6054SOL    MW423990   5.099   1.050   1.994 -0.2812  0.5110 -0.0467
 6055SOL     OW23991   3.034   1.422   3.830 -0.0098  0.3529  0.0827
 6055SOL    HW223992   2.999   1.361   3.765  0.4851  0.4229 -0.2489
 6055SOL    HW323993   3.110   1.462   3.788  1.8322 -1.3814  1.5650
 6055SOL    MW423994   3.039   1.419   3.816  0.1405  0.1135 -1.1161
 6056SOL     OW23995   1.216   4.216   0.094 -0.2419 -0.1288  0.1058
 6056SOL    HW223996   1.272   4.178   0.161 -1.0444 -0.4200  0.6229
 6056SOL    HW323997   1.277   4.251   0.028  0.5223 -1.4766  0.0692
 6056SOL    MW423998   1.231   4.216   0.094 -0.9754  0.3184  0.2234
 6057SOL     OW23999   0.391   5.379   5.702 -0.3377  0.5561 -0.3164
 6057SOL    HW224000   0.432   5.299   5.668  0.2167  0.1528  1.2260
 6057SOL    HW324001   0.449   5.450   5.672  0.7633  0.1086  0.6739
 6057SOL    MW424002   0.404   5.378   5.694  1.0089 -0.0022  0.1882
 6058SOL     OW24003   2.548   0.882   4.060  0.1511 -0.2683 -0.0617
 6058SOL    HW224004   2.588   0.878   4.147  1.6235 -0.4881 -0.7382
 6058SOL    HW324005   2.515   0.793   4.045  0.9127 -0.5324 -0.1968
 6058SOL    MW424006   2.549   0.870   4.070 -0.2358 -0.0292 -0.4007
 6059SOL     OW24007   5.132   4.345   0.860 -0.3271  0.1294  0.3253
 6059SOL    HW224008   5.157   4.335   0.952  0.2265  0.1106  0.1745
 6059SOL    HW324009   5.083   4.265   0.840 -0.6981  0.2645  0.6842
 6059SOL    MW424010   5.129   4.333   0.869 -0.5837  0.3318  0.2342
 6060SOL     OW24011   5.166   0.155   6.263 -0.3537  0.0479 -0.1951
 6060SOL    HW224012   5.134   0.178   6.350  0.4758 -0.1653  0.1831
 6060SOL    HW324013   5.148   0.061   6.255 -0.4853  0.0801 -0.2806
 6060SOL    MW424014   5.159   0.146   6.274  0.5396 -0.1049  0.3402
 6061SOL     OW24015   4.110   5.944   5.833 -0.1456  0.1017 -0.2408
 6061SOL    HW224016   4.196   5.903   5.827  0.3993  1.2315 -0.4307
 6061SOL    HW324017   4.085   5.961   5.742 -0.5613 -0.1735 -0.1846
 6061SOL    MW424018   4.118   5.941   5.820 -0.5125  0.0223 -0.5039
 6062SOL     OW24019   4.461   5.230   3.742  0.2168 -0.4026  0.2797
 6062SOL    HW224020   4.479   5.141   3.772  2.1933  0.1343  0.8138
 6062SOL    HW324021   4.536   5.253   3.688 -0.9935  0.4299 -1.1425
 6062SOL    MW424022   4.473   5.221   3.739 -0.4485  0.6212  0.2482
 6063SOL     OW24023   3.938   3.240   3.302  0.4949 -0.1051 -0.6925
 6063SOL    HW224024   3.958   3.252   3.395  1.0382 -0.5180 -0.7523
 6063SOL    HW324025   3.939   3.145   3.289 -1.2837 -0.1444 -0.7552
 6063SOL    MW424026   3.941   3.229   3.312  0.6128  0.3721  0.2081
 6064SOL     OW24027   5.302   5.899   1.495 -0.3810  0.3299 -0.4709
 6064SOL    HW224028   5.236   5.918   1.562 -0.2036 -0.1347 -0.1576
 6064SOL    HW324029   5.339   5.815   1.522  1.2457  1.1873  0.1080
 6064SOL    MW424030   5.298   5.890   1.508  0.6630 -0.2269  0.4760
 6065SOL     OW24031   2.744   5.239   4.539 -0.1670  0.4476  0.4829
 6065SOL    HW224032   2.675   5.270   4.480 -0.7793 -1.5908  0.0252
 6065SOL    HW324033   2.697   5.190   4.607  0.6845  1.0191  1.5159
 6065SOL    MW424034   2.729   5.236   4.540 -1.5112 -0.3850 -0.6341
 6066SOL     OW24035   6.106   0.336   2.095 -0.0994  0.2345 -0.3571
 6066SOL    HW224036   6.137   0.426   2.082 -1.0989  0.2782 -2.9988
 6066SOL    HW324037   6.084   0.332   2.189  0.6046  2.5207 -0.0323
 6066SOL    MW424038   6.107   0.347   2.106 -0.1854  0.0117  0.5715
 6067SOL     OW24039   1.395   4.192   3.468  0.1894 -0.2703 -0.2991
 6067SOL    HW224040   1.305   4.161   3.456  0.3865 -0.2594 -2.1147
 6067SOL    HW324041   1.389   4.287   3.466  0.1132 -0.2469  0.7599
 6067SOL    MW424042   1.382   4.200   3.466 -0.4988  0.1420  0.0635
 6068SOL     OW24043   6.092   0.191   2.730 -0.2136  0.5044  0.1340
 6068SOL    HW224044   6.148   0.160   2.801  0.8444  0.7967 -0.5562
 6068SOL    HW324045   6.150   0.240   2.672 -1.2008  0.9013 -0.5576
 6068SOL    MW424046   6.107   0.193   2.732  0.2314  0.4583 -0.1305
 6069SOL     OW24047   1.398   4.085   0.256  0.4656 -0.4815 -0.3141
 6069SOL    HW224048   1.493   4.085   0.265  0.3564 -0.1812  1.0734
 6069SOL    HW324049   1.372   3.995   0.272  0.6065 -0.9057 -2.2236
 6069SOL    MW424050   1.407   4.073   0.259 -0.3211  0.3947 -0.1829
 6070SOL     OW24051   2.160   1.641   2.785 -0.5828  0.2534  0.1126
 6070SOL    HW224052   2.190   1.552   2.768 -2.2665 -0.0000 -1.9698
 6070SOL    HW324053   2.225   1.677   2.845  2.7634 -0.9049 -2.4562
 6070SOL    MW424054   2.173   1.634   2.790 -0.0691  0.6635 -0.2370
 6071SOL     OW24055   2.873   4.352   2.985  0.0437  0.0998 -0.1829
 6071SOL    HW224056   2.876   4.265   2.945 -0.8913 -0.6973  1.3954
 6071SOL    HW324057   2.853   4.411   2.913 -1.5840 -1.2772 -0.9120
 6071SOL    MW424058   2.871   4.348   2.970 -0.1910 -0.6053  0.1974
 6072SOL     OW24059   0.630   5.359   2.145  0.3294 -0.2578  0.2143
 6072SOL    HW224060   0.613   5.270   2.179  1.7498 -0.7435 -0.2938
 6072SOL    HW324061   0.724   5.360   2.127  0.2188  1.1676 -0.3577
 6072SOL    MW424062   0.640   5.347   2.147 -0.5787 -0.3128  0.4369
 6073SOL     OW24063   0.200   0.301   2.068  0.5000  0.3566  0.0367
 6073SOL    HW224064   0.267   0.241   2.101  0.7862  0.5665 -0.1620
 6073SOL    HW324065   0.127   0.244   2.043  0.8753  0.0628 -0.4131
 6073SOL    MW424066   0.199   0.286   2.069  0.2402 -0.3676  0.1724
 6074SOL     OW24067   5.278   3.643   6.252 -0.9708 -0.5462  0.2215
 6074SOL    HW224068   5.206   3.701   6.275 -0.9088 -0.5585  0.4483
 6074SOL    HW324069   5.239   3.556   6.247 -1.2321 -0.3796 -0.9278
 6074SOL    MW424070   5.263   3.639   6.254  0.0407 -0.4190  0.1197
 6075SOL     OW24071   5.760   4.842   6.210  0.2859 -0.1729 -0.4620
 6075SOL    HW224072   5.795   4.909   6.269  0.6457  0.1756 -1.0594
 6075SOL    HW324073   5.773   4.878   6.123 -4.6310  1.6431 -0.7763
 6075SOL    MW424074   5.766   4.856   6.206 -0.6463  0.4527  0.6915
 6076SOL     OW24075   2.063   3.725   6.048  0.5041  0.8680  0.3795
 6076SOL    HW224076   2.045   3.790   6.116 -4.4003  1.3226 -0.9656
 6076SOL    HW324077   2.043   3.641   6.090  1.0177  0.8109  0.5056
 6076SOL    MW424078   2.058   3.722   6.063  0.4762 -0.1899  0.2204
 6077SOL     OW24079   5.993   5.504   1.730 -0.1526 -0.1313 -0.6800
 6077SOL    HW224080   5.989   5.554   1.811  0.1301 -0.6433 -0.3430
 6077SOL    HW324081   5.992   5.570   1.661 -1.4269  0.2711 -0.3038
 6077SOL    MW424082   5.992   5.519   1.732  0.0893 -0.6388  0.0091
 6078SOL     OW24083   5.683   1.763   3.657  0.0510  0.2118  0.6394
 6078SOL    HW224084   5.699   1.821   3.732 -0.1452  0.4270  0.5172
 6078SOL    HW324085   5.722   1.809   3.583 -0.1876  0.2352  0.5259
 6078SOL    MW424086   5.690   1.777   3.657 -0.3722  0.2146  0.1006
 6079SOL     OW24087   6.086   3.858   4.605  0.0513 -0.2850  0.3563
 6079SOL    HW224088   6.095   3.938   4.553  4.0798 -1.1182 -0.6121
 6079SOL    HW324089   6.124   3.881   4.690 -1.2377 -0.4838  1.0018
 6079SOL    MW424090   6.093   3.872   4.609 -0.1778  0.5235 -0.1275
 6080SOL     OW24091   4.470   5.800   0.958 -0.0049  0.2621  0.4678
 6080SOL    HW224092   4.505   5.852   0.885 -0.1471  0.1354  0.3061
 6080SOL    HW324093   4.390   5.847   0.984  1.3781  1.7762  2.2661
 6080SOL    MW424094   4.464   5.813   0.952 -0.1286 -0.0058  0.0616
 6081SOL     OW24095   5.456   4.736   5.391 -0.0579 -0.1269 -0.1452
 6081SOL    HW224096   5.376   4.767   5.433  0.5000  0.4285  0.5251
 6081SOL    HW324097   5.501   4.686   5.460 -0.0023 -0.7690 -0.6318
 6081SOL    MW424098   5.452   4.733   5.406 -0.0452  0.0051  0.1532
 6082SOL     OW24099   1.554   3.732   5.737 -0.3185  0.1525 -0.8634
 6082SOL    HW224100   1.544   3.820   5.776  0.3910 -0.0078 -0.2891
 6082SOL    HW324101   1.466   3.708   5.708 -0.6659  0.7315 -0.3097
 6082SOL    MW424102   1.541   3.741   5.739  0.0350 -0.2284 -0.1713
 6083SOL     OW24103   3.753   1.880   3.326  0.4767 -0.7231  0.6171
 6083SOL    HW224104   3.675   1.849   3.279 -1.4303  3.1870  0.7290
 6083SOL    HW324105   3.807   1.920   3.258  0.4565 -0.0474  0.9837
 6083SOL    MW424106   3.750   1.881   3.311  0.1172 -0.2015  0.3129
 6084SOL     OW24107   2.467   5.579   1.051 -0.3910  0.0942 -0.1524
 6084SOL    HW224108   2.551   5.601   1.011 -0.8474  0.6673 -0.8186
 6084SOL    HW324109   2.420   5.532   0.982 -0.3168 -0.9263  0.4833
 6084SOL    MW424110   2.472   5.576   1.036 -0.2977 -0.0227  0.9885
 6085SOL     OW24111   5.962   2.367   2.711  0.3923  0.6669  0.3333
 6085SOL    HW224112   5.913   2.331   2.786 -1.4775  0.8833 -0.7172
 6085SOL    HW324113   5.948   2.462   2.717  0.4359  0.7042 -0.1556
 6085SOL    MW424114   5.954   2.375   2.722 -0.1286 -0.0545  0.4939
 6086SOL     OW24115   3.077   2.132   1.538  0.4706  0.3873  0.3073
 6086SOL    HW224116   3.054   2.048   1.577 -0.1164 -0.3692 -1.5495
 6086SOL    HW324117   3.092   2.112   1.445 -1.3992  2.6030 -0.5629
 6086SOL    MW424118   3.076   2.118   1.531  0.1579  0.0067  0.1134
 6087SOL     OW24119   3.189   5.820   0.487 -0.4297 -0.2260  0.3439
 6087SOL    HW224120   3.127   5.825   0.560 -0.0490 -0.2218  0.6694
 6087SOL    HW324121   3.248   5.895   0.501 -1.7298  1.1642 -1.2439
 6087SOL    MW424122   3.189   5.831   0.499  0.0343 -0.6764  0.2173
 6088SOL     OW24123   0.898   2.716   5.572 -0.1126  0.5769  0.4341
 6088SOL    HW224124   0.936   2.631   5.593 -1.7659 -0.2278  0.2762
 6088SOL    HW324125   0.805   2.707   5.591 -0.6270  1.8020 -1.2527
 6088SOL    MW424126   0.891   2.704   5.577  0.0874  0.1105  0.0346
 6089SOL     OW24127   2.393   1.956   4.256  0.0503  0.2411 -0.0857
 6089SOL    HW224128   2.315   1.929   4.208 -1.1571  1.4942  1.0688
 6089SOL    HW324129   2.425   2.032   4.208 -1.8346  2.2280  1.5810
 6089SOL    MW424130   2.387   1.963   4.243 -0.7274  0.1550 -0.6617
 6090SOL     OW24131   3.027   5.975   5.718  0.1873  0.4085  0.2286
 6090SOL    HW224132   2.979   6.015   5.790  0.0394  1.8828 -0.6481
 6090SOL    HW324133   3.088   6.043   5.689 -0.7731  0.4152 -1.9704
 6090SOL    MW424134   3.029   5.989   5.724 -0.3209  0.4490  0.7933
 6091SOL     OW24135   5.052   4.181   1.379  0.1561 -0.1819 -0.2128
 6091SOL    HW224136   4.957   4.187   1.364  0.3271  0.2536 -1.1728
 6091SOL    HW324137   5.083   4.271   1.369  0.9060 -0.5729 -1.6324
 6091SOL    MW424138   5.043   4.194   1.376 -0.5262  0.3036  0.4383
 6092SOL     OW24139   1.531   3.873   1.394 -0.1857 -0.0549  0.2927
 6092SOL    HW224140   1.554   3.781   1.385 -1.5457 -0.3131 -0.8957
 6092SOL    HW324141   1.448   3.882   1.347 -0.2259  1.7218  0.6237
 6092SOL    MW424142   1.523   3.862   1.387 -0.6032 -0.2433 -0.0317
 6093SOL     OW24143   6.406   4.806   4.913  0.2112  0.2226 -0.1404
 6093SOL    HW224144   6.324   4.785   4.869  0.5454 -0.2282 -0.5677
 6093SOL    HW324145   6.393   4.893   4.949 -0.9553 -0.3870  1.0052
 6093SOL    MW424146   6.394   4.815   4.912  0.2725 -1.1966  0.5276
 6094SOL     OW24147   6.419   2.809   0.469  0.2437  0.5853 -0.5852
 6094SOL    HW224148   6.359   2.852   0.408 -0.7952  1.3584  0.9334
 6094SOL    HW324149   6.494   2.868   0.475  0.0203  0.8695 -0.5568
 6094SOL    MW424150   6.421   2.822   0.462 -0.3319 -0.2832 -0.0331
 6095SOL     OW24151   2.107   0.485   3.693 -0.1169  0.6764 -0.0737
 6095SOL    HW224152   2.149   0.567   3.667  2.5956 -0.2687  0.9200
 6095SOL    HW324153   2.111   0.430   3.615  1.8470  0.1615  0.3187
 6095SOL    MW424154   2.113   0.489   3.679  0.2160 -0.1349  0.4609
 6096SOL     OW24155   3.007   1.656   5.597 -0.2975 -0.1716 -0.0702
 6096SOL    HW224156   2.915   1.667   5.571  0.0567  2.4286 -0.4069
 6096SOL    HW324157   3.038   1.744   5.615  1.6544 -1.1728  1.8778
 6096SOL    MW424158   2.999   1.669   5.596  0.4409 -0.1039 -0.3826
 6097SOL     OW24159   1.147   1.074   2.207 -0.5271  0.1315 -0.5082
 6097SOL    HW224160   1.189   1.086   2.292 -0.0264  0.2872 -0.7750
 6097SOL    HW324161   1.111   1.160   2.185 -1.1871 -0.0525 -0.1808
 6097SOL    MW424162   1.148   1.087   2.215 -0.0274  0.4037  0.6597
 6098SOL     OW24163   0.298   1.522   0.473 -0.0746 -0.4578 -0.3377
 6098SOL    HW224164   0.263   1.489   0.390 -1.9545 -1.1696  0.6738
 6098SOL    HW324165   0.296   1.446   0.531  1.4794 -0.0342  0.2987
 6098SOL    MW424166   0.293   1.508   0.470  0.0644  0.0936 -0.5154
 6099SOL     OW24167   2.273   5.357   4.046  0.0829 -0.4481  0.4562
 6099SOL    HW224168   2.353   5.408   4.041  0.0931 -0.5033 -0.0495
 6099SOL    HW324169   2.288   5.283   3.986 -0.7058  0.0527 -0.3774
 6099SOL    MW424170   2.286   5.354   4.037 -0.0111 -0.1533  0.3019
 6100SOL     OW24171   3.520   3.556   1.512  0.0787  0.4425  0.0282
 6100SOL    HW224172   3.614   3.574   1.517  0.1573 -0.2707  2.0362
 6100SOL    HW324173   3.491   3.560   1.603 -1.1703 -2.7518 -0.1112
 6100SOL    MW424174   3.529   3.559   1.524  0.6104 -0.8096  0.1163
 6101SOL     OW24175   2.464   1.658   0.572  0.0838 -0.0344  0.1652
 6101SOL    HW224176   2.401   1.655   0.500 -0.2370  0.1988  0.4326
 6101SOL    HW324177   2.410   1.656   0.651  0.3365  1.3808  0.4036
 6101SOL    MW424178   2.448   1.657   0.573  0.4365 -0.3139  0.2059
 6102SOL     OW24179   3.713   0.181   2.156 -0.4292 -0.1149 -0.5593
 6102SOL    HW224180   3.640   0.131   2.193 -0.6036 -0.2390 -1.0704
 6102SOL    HW324181   3.676   0.227   2.081 -0.4892  1.5175  0.4143
 6102SOL    MW424182   3.699   0.180   2.151  0.5155 -0.1386  0.0531
 6103SOL     OW24183   4.289   2.666   4.870 -0.2374 -0.0119 -0.6133
 6103SOL    HW224184   4.323   2.596   4.925 -0.3763 -0.1956 -0.7619
 6103SOL    HW324185   4.226   2.624   4.812 -1.0200  0.3962 -0.0665
 6103SOL    MW424186   4.285   2.651   4.869  0.0762  0.1149  0.4859
 6104SOL     OW24187   0.182   3.336   5.374  0.0797 -0.1246  0.2384
 6104SOL    HW224188   0.244   3.408   5.383  0.4062 -0.2057 -1.1824
 6104SOL    HW324189   0.207   3.274   5.443  2.7576 -0.9891 -1.3755
 6104SOL    MW424190   0.193   3.337   5.384 -0.1218 -0.0358 -0.1385
 6105SOL     OW24191   3.509   4.724   4.196 -0.5118  0.1993 -0.8197
 6105SOL    HW224192   3.581   4.696   4.138 -0.0464 -0.5312  0.0848
 6105SOL    HW324193   3.547   4.722   4.284 -1.3513  0.8225 -0.4356
 6105SOL    MW424194   3.524   4.720   4.200  0.0536 -0.4596  0.0378
 6106SOL     OW24195   3.430   5.665   0.474 -0.2156  0.0845 -0.1626
 6106SOL    HW224196   3.505   5.724   0.464  0.0663 -0.4688 -1.4857
 6106SOL    HW324197   3.354   5.724   0.476  0.0225  0.4997 -1.9378
 6106SOL    MW424198   3.430   5.681   0.473 -0.1174 -0.1474  0.7203
 6107SOL     OW24199   6.112   1.714   4.534  0.1642 -0.3167 -0.4331
 6107SOL    HW224200   6.029   1.686   4.573  0.1549  0.6791  0.3163
 6107SOL    HW324201   6.173   1.643   4.553 -0.0468 -0.2130  0.7299
 6107SOL    MW424202   6.109   1.701   4.542  0.7592  0.8617 -0.1657
 6108SOL     OW24203   0.585   6.095   6.368  0.0918  0.0364  0.4071
 6108SOL    HW224204   0.655   6.103   6.303 -0.6487  2.5347 -0.2197
 6108SOL    HW324205   0.519   6.042   6.324  0.8947 -0.9519  0.3668
 6108SOL    MW424206   0.585   6.089   6.353 -0.5538  0.3677  0.2475
 6109SOL     OW24207   3.012   2.101   0.370  0.1027  0.2782  0.0560
 6109SOL    HW224208   2.941   2.110   0.432  0.1025  0.2979  0.0527
 6109SOL    HW324209   3.075   2.169   0.394  1.2410 -1.2209  1.5775
 6109SOL    MW424210   3.011   2.111   0.381 -0.8593  0.0989  0.1534
 6110SOL     OW24211   0.852   4.493   5.679 -0.8633 -0.1191  0.3165
 6110SOL    HW224212   0.843   4.430   5.607 -0.6002  0.9989 -0.7333
 6110SOL    HW324213   0.874   4.439   5.755  0.1963 -1.2275 -0.7254
 6110SOL    MW424214   0.854   4.477   5.679 -0.4420  0.0911 -0.4855
 6111SOL     OW24215   4.228   4.342   4.634 -0.5226 -0.2520  0.1821
 6111SOL    HW224216   4.299   4.405   4.638 -0.5246 -0.0761 -1.8214
 6111SOL    HW324217   4.256   4.278   4.569 -0.8820 -1.9023  1.5668
 6111SOL    MW424218   4.241   4.342   4.626  0.4948 -0.5512 -0.1517
 6112SOL     OW24219   2.759   2.122   3.604  0.4471 -0.1379 -0.0608
 6112SOL    HW224220   2.672   2.144   3.639  0.4546  0.2465 -0.2746
 6112SOL    HW324221   2.745   2.044   3.551  0.5138 -0.9937  1.1511
 6112SOL    MW424222   2.746   2.115   3.602  0.0953 -0.2134  0.1593
 6113SOL     OW24223   1.517   1.833   0.026  0.7647 -0.4274  0.1352
 6113SOL    HW224224   1.452   1.879  -0.027  0.8064  1.2599  1.4607
 6113SOL    HW324225   1.496   1.740   0.014  0.1839 -0.0730 -2.0263
 6113SOL    MW424226   1.506   1.827   0.017  0.3084  0.2463 -0.3306
 6114SOL     OW24227   2.812   1.459   6.400 -0.4021  0.5568  0.1843
 6114SOL    HW224228   2.799   1.364   6.390 -0.2123  0.6174 -0.7108
 6114SOL    HW324229   2.753   1.484   6.471 -0.0030 -0.3391  0.8437
 6114SOL    MW424230   2.802   1.450   6.408 -0.0896 -0.0826 -0.5410
 6115SOL     OW24231   1.852   0.488   3.195  0.1491 -0.3238  0.7178
 6115SOL    HW224232   1.913   0.472   3.123 -0.1214 -0.0178  0.4117
 6115SOL    HW324233   1.770   0.449   3.166  0.1996 -0.7382  1.1291
 6115SOL    MW424234   1.849   0.481   3.182  0.1043 -0.2447  0.7670
 6116SOL     OW24235   2.632   0.870   2.021 -0.1545 -0.3837 -0.0806
 6116SOL    HW224236   2.717   0.831   2.042 -0.4605 -0.5201  0.9576
 6116SOL    HW324237   2.635   0.884   1.926 -0.6219 -4.4634 -0.8779
 6116SOL    MW424238   2.644   0.866   2.011 -0.1017  0.2823 -0.7771
 6117SOL     OW24239   0.059   5.215   2.620 -0.2994 -0.3635  0.1119
 6117SOL    HW224240   0.111   5.249   2.548 -0.2582 -0.1674  0.2315
 6117SOL    HW324241  -0.014   5.277   2.628 -1.3720 -1.4278 -1.0083
 6117SOL    MW424242   0.056   5.228   2.612  0.3835 -0.3435 -0.4046
 6118SOL     OW24243   6.339   5.948   4.791 -0.0810 -0.2023  0.1677
 6118SOL    HW224244   6.420   5.911   4.755 -0.3004  0.2115 -0.7816
 6118SOL    HW324245   6.368   6.024   4.842 -0.0162  1.7617 -2.5608
 6118SOL    MW424246   6.354   5.953   4.793 -0.3506 -0.0849  0.0911
 6119SOL     OW24247   3.036   2.659   4.540  0.4785  0.7158  0.0033
 6119SOL    HW224248   3.026   2.692   4.630  0.1489 -1.3631  0.7781
 6119SOL    HW324249   3.120   2.613   4.541 -0.0411 -0.2579 -0.4322
 6119SOL    MW424250   3.046   2.658   4.552 -0.2509  0.0811  0.6491
 6120SOL     OW24251   4.884   2.720   3.545 -0.4530 -0.6020 -0.6462
 6120SOL    HW224252   4.846   2.641   3.582 -0.8677  0.2524  0.8475
 6120SOL    HW324253   4.812   2.784   3.546  0.2171  0.1678 -0.5871
 6120SOL    MW424254   4.869   2.718   3.550 -0.2408 -0.4353  0.4325
 6121SOL     OW24255   3.153   6.353   3.325  0.8361  0.1066 -0.2502
 6121SOL    HW224256   3.091   6.305   3.270  1.3042 -0.2024 -0.5189
 6121SOL    HW324257   3.101   6.386   3.398  0.5376 -0.9527  0.0254
 6121SOL    MW424258   3.138   6.351   3.327 -0.3625  0.1495  0.3282
 6122SOL     OW24259   4.941   0.573   3.489  0.0259 -0.2350  0.8887
 6122SOL    HW224260   5.022   0.587   3.440  0.3962 -1.0890  1.2399
 6122SOL    HW324261   4.967   0.519   3.563 -0.9236 -0.7772  0.8350
 6122SOL    MW424262   4.955   0.568   3.492 -0.4392  0.9672 -0.2136
 6123SOL     OW24263   1.870   6.147   5.809 -0.1033 -0.3839  0.3628
 6123SOL    HW224264   1.902   6.159   5.719 -0.7467 -0.8905  0.0597
 6123SOL    HW324265   1.779   6.119   5.798 -0.7018  1.1367  1.2120
 6123SOL    MW424266   1.862   6.145   5.795 -0.0637 -0.4442 -0.5914
 6124SOL     OW24267   1.792   2.106   2.550  0.1234 -0.1769  0.3932
 6124SOL    HW224268   1.812   2.092   2.642 -0.1060  2.0236  0.8226
 6124SOL    HW324269   1.874   2.088   2.504  0.9642  1.1264  1.3162
 6124SOL    MW424270   1.805   2.102   2.556 -0.3507 -0.6656  0.3523
 6125SOL     OW24271   5.853   4.999   3.201 -0.6282  0.0984  0.6662
 6125SOL    HW224272   5.877   5.075   3.149 -0.8705 -1.3796 -1.7449
 6125SOL    HW324273   5.759   5.009   3.217 -1.4169 -1.1581 -2.4557
 6125SOL    MW424274   5.844   5.010   3.196  0.4452  0.0371  0.1705
 6126SOL     OW24275   2.616   1.745   0.274 -0.0802 -0.0719  0.4116
 6126SOL    HW224276   2.533   1.731   0.229  0.5432 -2.6614 -0.1494
 6126SOL    HW324277   2.599   1.814   0.337 -2.2103  0.5481 -0.7512
 6126SOL    MW424278   2.603   1.752   0.276  0.2756 -0.1716 -0.2524
 6127SOL     OW24279   5.435   1.109   2.876  0.4072 -0.1603 -0.0494
 6127SOL    HW224280   5.447   1.026   2.921  1.3275 -0.7932 -1.3961
 6127SOL    HW324281   5.498   1.168   2.917  1.2536 -0.7371 -0.4851
 6127SOL    MW424282   5.445   1.106   2.887  0.0876  0.1224 -0.6245
 6128SOL     OW24283   4.988   2.778   6.171  0.1472 -0.1141 -0.1501
 6128SOL    HW224284   4.977   2.715   6.243  0.8772  1.6268  1.5807
 6128SOL    HW324285   5.021   2.857   6.213  2.6218  0.3810 -2.6856
 6128SOL    MW424286   4.991   2.780   6.186 -0.1395 -0.1971  0.9276
 6129SOL     OW24287   0.757   0.579   2.125  0.1877  0.6023  0.5385
 6129SOL    HW224288   0.673   0.587   2.079 -0.5707 -1.2411  1.4894
 6129SOL    HW324289   0.821   0.614   2.063 -0.9848 -0.2235 -1.2559
 6129SOL    MW424290   0.754   0.585   2.111 -0.1942  0.5096  0.3886
 6130SOL     OW24291   3.568   4.433   1.327 -0.5934  0.0587  0.7263
 6130SOL    HW224292   3.577   4.348   1.370  0.2251  0.3038  1.0610
 6130SOL    HW324293   3.502   4.419   1.259 -0.1824 -0.9513  0.5154
 6130SOL    MW424294   3.561   4.420   1.323  0.1754  0.1039  0.4144
 6131SOL     OW24295   3.108   3.610   3.361  0.1815 -0.1231  0.0936
 6131SOL    HW224296   3.179   3.570   3.411  1.1464  0.5458 -0.7060
 6131SOL    HW324297   3.060   3.663   3.425  2.0276  1.5758  0.1782
 6131SOL    MW424298   3.111   3.612   3.376 -0.3338 -0.0217  0.5937
 6132SOL     OW24299   0.611   3.687   3.177  0.1794  0.5156 -0.2079
 6132SOL    HW224300   0.632   3.774   3.145 -0.9922  0.0651 -2.4067
 6132SOL    HW324301   0.690   3.635   3.161  0.3378  0.8097 -0.3773
 6132SOL    MW424302   0.624   3.692   3.171  0.0768  0.0455  0.1510
 6133SOL     OW24303   3.441   0.437   4.059 -0.0756 -0.0117 -0.0016
 6133SOL    HW224304   3.442   0.506   4.126  1.2534 -1.0484  1.1039
 6133SOL    HW324305   3.493   0.472   3.987  3.5687 -0.9898  1.8908
 6133SOL    MW424306   3.448   0.451   4.059  0.5046 -0.1289  0.5173
 6134SOL     OW24307   2.512   5.982   1.680  0.0663 -0.0791 -0.0440
 6134SOL    HW224308   2.562   5.933   1.614  0.5632  0.1665  0.1470
 6134SOL    HW324309   2.442   5.922   1.707  0.4532 -0.5465 -0.0799
 6134SOL    MW424310   2.509   5.967   1.675 -0.5580 -0.2203 -0.6156
 6135SOL     OW24311   6.265   2.089   4.865 -0.5344 -0.1986 -0.0263
 6135SOL    HW224312   6.336   2.152   4.863 -0.7647  0.0495 -1.2399
 6135SOL    HW324313   6.276   2.043   4.948  0.5396  0.3928  0.1784
 6135SOL    MW424314   6.276   2.091   4.876 -0.6396  0.1986  0.1459
 6136SOL     OW24315   0.147   2.429   4.635 -0.6784 -0.3451  0.6148
 6136SOL    HW224316   0.177   2.520   4.641 -2.2177  0.1823  0.9698
 6136SOL    HW324317   0.072   2.433   4.575  0.8342 -1.8695 -1.5214
 6136SOL    MW424318   0.141   2.442   4.628 -0.4069 -0.4322 -0.2658
 6137SOL     OW24319   5.139   0.797   0.266  0.4597  0.6432 -0.6261
 6137SOL    HW224320   5.063   0.810   0.323  0.0600  1.9005 -1.4035
 6137SOL    HW324321   5.213   0.828   0.318  0.1475  1.4154 -0.6272
 6137SOL    MW424322   5.139   0.803   0.280  0.5512 -0.2036  0.7429
 6138SOL     OW24323   2.792   1.401   0.742  0.3836 -0.0158 -0.2818
 6138SOL    HW224324   2.771   1.492   0.760  1.8509  0.1062  0.9818
 6138SOL    HW324325   2.716   1.352   0.775 -0.1183  0.6827 -0.3693
 6138SOL    MW424326   2.779   1.406   0.749  0.3084 -0.2846 -0.1587
 6139SOL     OW24327   1.776   0.520   4.751  0.2178  0.1955 -0.5123
 6139SOL    HW224328   1.767   0.602   4.800 -1.5549 -0.3721  0.2207
 6139SOL    HW324329   1.714   0.529   4.678  1.0367  0.0410 -1.2456
 6139SOL    MW424330   1.766   0.532   4.748 -0.4506 -0.0596 -0.2064
 6140SOL     OW24331   2.089   5.417   1.431  0.6919 -0.4164  0.0181
 6140SOL    HW224332   2.081   5.440   1.338 -0.4579  0.6583  0.3493
 6140SOL    HW324333   2.038   5.485   1.476 -1.7981 -2.8473  1.1626
 6140SOL    MW424334   2.081   5.429   1.424 -0.4506 -0.6621 -0.1212
 6141SOL     OW24335   1.418   1.045   2.169 -0.1903 -0.0125 -0.1341
 6141SOL    HW224336   1.438   1.032   2.261  0.2592 -1.5662 -0.4223
 6141SOL    HW324337   1.323   1.051   2.165 -0.2641 -0.8009  0.3332
 6141SOL    MW424338   1.408   1.044   2.180 -0.4825  0.0888 -0.1168
 6142SOL     OW24339   3.695   1.101   0.943  0.3431  0.1242 -0.4197
 6142SOL    HW224340   3.763   1.079   0.879  1.6499  2.8535 -0.1136
 6142SOL    HW324341   3.736   1.083   1.028  0.4294  1.0708 -0.2530
 6142SOL    MW424342   3.710   1.096   0.945 -0.0742 -0.1574 -0.0167
 6143SOL     OW24343   6.403   5.820   0.280  0.1674 -0.1332 -0.2324
 6143SOL    HW224344   6.475   5.877   0.253 -0.8910  0.7279 -1.3059
 6143SOL    HW324345   6.354   5.872   0.344 -0.7748  0.1757 -1.1808
 6143SOL    MW424346   6.406   5.834   0.285  0.1473 -0.4576 -0.5680
 6144SOL     OW24347   3.842   5.959   2.851  0.1007  0.6001 -0.0562
 6144SOL    HW224348   3.787   5.940   2.775  0.0562 -0.8244  0.3060
 6144SOL    HW324349   3.787   6.012   2.908  0.1148  1.6356 -0.9756
 6144SOL    MW424350   3.827   5.964   2.848  0.3808 -0.1945  0.1872
 6145SOL     OW24351   5.274   5.939   0.593  0.0065 -0.2592  0.0694
 6145SOL    HW224352   5.355   5.990   0.603  0.7176 -1.1970 -0.7781
 6145SOL    HW324353   5.204   6.005   0.595  0.7285  0.5189  1.3807
 6145SOL    MW424354   5.275   5.954   0.595 -0.3976 -0.1553 -0.2040
 6146SOL     OW24355   2.395   3.348   5.228  0.0931 -0.1815 -0.5494
 6146SOL    HW224356   2.346   3.398   5.163 -0.9934  1.6791  1.5638
 6146SOL    HW324357   2.484   3.382   5.223 -0.4672  1.4873  0.3389
 6146SOL    MW424358   2.400   3.359   5.219  0.5944 -0.6992  0.5551
 6147SOL     OW24359   3.500   2.501   1.366  0.1513  0.1847  0.1000
 6147SOL    HW224360   3.438   2.430   1.350 -1.3417  1.2318  0.9494
 6147SOL    HW324361   3.470   2.572   1.310 -0.5665  1.3069  1.8066
 6147SOL    MW424362   3.488   2.501   1.357 -0.2420  0.0356  0.5143
 6148SOL     OW24363   0.677   5.641   3.768  0.1383  0.2020  0.2872
 6148SOL    HW224364   0.667   5.572   3.702  1.3990 -0.0087  0.3003
 6148SOL    HW324365   0.618   5.615   3.839  0.5524 -0.8306  0.2645
 6148SOL    MW424366   0.668   5.629   3.769  0.0260  0.4798 -0.3758
 6149SOL     OW24367   2.304   0.993   5.743 -0.8865 -1.1116  0.5803
 6149SOL    HW224368   2.348   1.077   5.755 -0.1028 -1.0115 -2.3182
 6149SOL    HW324369   2.366   0.928   5.775  0.9754 -0.8776 -2.2219
 6149SOL    MW424370   2.318   0.996   5.749 -0.0134 -0.4165  0.2597
 6150SOL     OW24371   6.145   2.159   0.383 -0.2045 -0.2271  0.2162
 6150SOL    HW224372   6.135   2.102   0.459  0.5926 -0.6083  0.0488
 6150SOL    HW324373   6.202   2.110   0.323  1.7050  1.2879  0.6557
 6150SOL    MW424374   6.151   2.145   0.385  0.2482 -0.0184 -0.4381
 6151SOL     OW24375   6.165   5.857   6.032 -0.5080  0.3169  0.0890
 6151SOL    HW224376   6.189   5.907   6.110  0.0169  0.4874 -0.1798
 6151SOL    HW324377   6.085   5.811   6.057  0.0348 -0.1802  0.9686
 6151SOL    MW424378   6.158   5.857   6.046 -0.3686 -0.2126  0.1089
 6152SOL     OW24379   2.963   1.924   1.705 -0.5466 -0.8980 -0.6596
 6152SOL    HW224380   3.008   1.849   1.667  1.3510  1.0412 -2.5287
 6152SOL    HW324381   3.031   1.972   1.753 -1.5711 -0.0639  0.0120
 6152SOL    MW424382   2.978   1.921   1.706 -0.0443 -0.3479  0.0083
 6153SOL     OW24383   6.102   4.232   3.377  0.5181 -0.3843 -0.0117
 6153SOL    HW224384   6.184   4.194   3.346  1.7038  1.5393  0.5641
 6153SOL    HW324385   6.090   4.196   3.465  1.2769  0.0322  0.2745
 6153SOL    MW424386   6.111   4.222   3.385 -0.0126 -0.3443 -0.3710
 6154SOL     OW24387   3.144   0.204   6.073 -0.0889 -0.2213 -0.0827
 6154SOL    HW224388   3.124   0.127   6.019  0.2490 -0.8846  0.7149
 6154SOL    HW324389   3.062   0.222   6.119  0.3730 -1.4123  1.3029
 6154SOL    MW424390   3.130   0.196   6.071 -0.2818  0.7531  0.0589
 6155SOL     OW24391   2.742   3.261   1.550 -0.1468  0.3540 -0.0100
 6155SOL    HW224392   2.703   3.306   1.475 -0.9013  0.5094  0.4679
 6155SOL    HW324393   2.688   3.183   1.563  1.2523 -0.8098 -0.9347
 6155SOL    MW424394   2.730   3.257   1.542  0.0399 -0.5717 -0.4390
 6156SOL     OW24395   6.347   3.320   0.509  0.6942  0.5559  0.3211
 6156SOL    HW224396   6.378   3.390   0.452 -0.8049  1.5946  0.7147
 6156SOL    HW324397   6.419   3.304   0.570  1.3181  1.2809 -0.2159
 6156SOL    MW424398   6.360   3.327   0.510 -0.0914  0.0393 -0.7135
 6157SOL     OW24399   4.927   4.165   0.436  0.1352  0.2525  0.2624
 6157SOL    HW224400   4.957   4.074   0.433  0.1325  0.2802 -1.7464
 6157SOL    HW324401   4.832   4.158   0.426  0.2058  0.4967 -0.6350
 6157SOL    MW424402   4.918   4.152   0.434  0.0451  0.0072 -0.3334
 6158SOL     OW24403   2.142   2.938   5.834  0.4088 -0.3584  0.3458
 6158SOL    HW224404   2.163   3.031   5.840  0.7406 -0.4921  2.0763
 6158SOL    HW324405   2.164   2.903   5.921  0.5869 -2.1127 -0.3455
 6158SOL    MW424406   2.148   2.945   5.847 -0.1362  0.3610  0.1199
 6159SOL     OW24407   0.260   0.337   1.775  0.0415  0.5854  0.2145
 6159SOL    HW224408   0.221   0.268   1.722  1.4830 -0.7427  0.7975
 6159SOL    HW324409   0.209   0.336   1.856  0.5546 -0.3762  0.5385
 6159SOL    MW424410   0.248   0.328   1.779  0.5388 -0.3547 -0.1314
 6160SOL     OW24411   4.785   6.074   0.440  0.2129  0.0669  0.0979
 6160SOL    HW224412   4.786   6.059   0.345  0.6968 -1.1916  0.2805
 6160SOL    HW324413   4.735   6.001   0.475 -1.2256  1.3000  0.7270
 6160SOL    MW424414   4.779   6.062   0.432 -0.0637 -0.0046 -0.1691
 6161SOL     OW24415   4.686   4.950   5.989 -0.1743  0.4613 -0.1051
 6161SOL    HW224416   4.709   4.884   5.924 -1.0723 -1.7012  1.6506
 6161SOL    HW324417   4.765   4.960   6.043 -0.5526 -0.5091  0.6622
 6161SOL    MW424418   4.699   4.943   5.988  0.1701  0.2174  0.0025
 6162SOL     OW24419   6.148   4.439   5.001  0.0595  0.0458 -0.0747
 6162SOL    HW224420   6.067   4.476   4.967  1.0997  2.2353 -0.3567
 6162SOL    HW324421   6.178   4.503   5.066  1.6320 -0.6272 -0.0883
 6162SOL    MW424422   6.141   4.452   5.005  0.0183  0.2375  0.0955
 6163SOL     OW24423   2.031   1.921   4.359 -0.4819 -0.2438  0.1240
 6163SOL    HW224424   2.050   1.828   4.353  0.7937  0.0953 -2.1085
 6163SOL    HW324425   2.116   1.962   4.378 -0.6937  0.5959 -0.6838
 6163SOL    MW424426   2.045   1.914   4.361 -0.1352  0.0073  0.1632
 6164SOL     OW24427   5.579   1.352   3.518 -0.3103  0.4057  0.1479
 6164SOL    HW224428   5.645   1.393   3.463 -2.1994  0.8630 -1.9244
 6164SOL    HW324429   5.537   1.287   3.461 -1.6156  0.1081  1.3940
 6164SOL    MW424430   5.582   1.349   3.503 -0.6804 -0.4711  0.1016
 6165SOL     OW24431   5.900   0.101   0.834  0.2838  0.0470 -0.5891
 6165SOL    HW224432   5.984   0.063   0.809  0.1404 -0.2260 -0.6601
 6165SOL    HW324433   5.916   0.138   0.921  0.0188 -1.5411  0.1622
 6165SOL    MW424434   5.913   0.101   0.842 -0.4033  0.2248  0.3344
 6166SOL     OW24435   3.629   0.496   3.602 -0.0708  0.6312  0.6036
 6166SOL    HW224436   3.543   0.526   3.573 -0.1253 -0.3878 -0.3610
 6166SOL    HW324437   3.689   0.526   3.534 -0.0629 -0.9781 -0.1354
 6166SOL    MW424438   3.626   0.504   3.589  0.8297  0.3214 -0.3161
 6167SOL     OW24439   0.580   2.822   2.906 -0.1628 -0.3337  0.6684
 6167SOL    HW224440   0.654   2.762   2.898  0.7259  0.9113 -1.4550
 6167SOL    HW324441   0.527   2.786   2.977  0.6067 -3.2926 -0.1002
 6167SOL    MW424442   0.583   2.809   2.914 -0.0688 -0.2979 -0.5908
 6168SOL     OW24443   3.041   6.222   2.899 -0.1835 -0.3537  0.1594
 6168SOL    HW224444   2.955   6.264   2.898 -0.0191 -0.0210 -0.3378
 6168SOL    HW324445   3.029   6.143   2.845 -0.2289 -0.4107  0.2528
 6168SOL    MW424446   3.028   6.217   2.891 -0.3352 -0.0228  0.3573
 6169SOL     OW24447   6.108   5.266   0.514  0.1618 -0.2945 -0.3676
 6169SOL    HW224448   6.028   5.317   0.525  0.3816  0.1293 -0.6729
 6169SOL    HW324449   6.172   5.329   0.480  0.6057 -0.6422 -0.1916
 6169SOL    MW424450   6.106   5.281   0.511  0.1962  0.0559 -0.4236
 6170SOL     OW24451   4.316   4.851   2.399 -0.0866 -0.5374 -0.0726
 6170SOL    HW224452   4.383   4.845   2.466 -0.9552  0.4969  0.9421
 6170SOL    HW324453   4.364   4.851   2.316  1.0494 -1.2038  0.5649
 6170SOL    MW424454   4.331   4.850   2.397  0.0552  0.5007 -0.0976
 6171SOL     OW24455   1.442   5.374   2.559 -0.1710  0.4971 -0.4443
 6171SOL    HW224456   1.391   5.304   2.519 -1.0007  1.0814 -0.4237
 6171SOL    HW324457   1.509   5.396   2.494  1.0530 -1.3024  0.1225
 6171SOL    MW424458   1.444   5.367   2.546 -0.1344 -0.8231 -0.3185
 6172SOL     OW24459   0.098   3.546   3.087 -0.3089 -0.0806 -0.3084
 6172SOL    HW224460   0.193   3.541   3.077 -0.1979 -1.4783  1.0713
 6172SOL    HW324461   0.085   3.586   3.173 -0.9989  0.7977 -0.8041
 6172SOL    MW424462   0.108   3.551   3.097 -0.2804 -0.5097 -0.0509
 6173SOL     OW24463   0.290   4.301   1.329  0.5340  0.2392  0.5077
 6173SOL    HW224464   0.384   4.297   1.348  0.7495 -1.9137 -0.7198
 6173SOL    HW324465   0.254   4.223   1.371 -0.1973 -0.5220 -1.4204
 6173SOL    MW424466   0.298   4.291   1.337  0.0388  0.0220  0.2051
 6174SOL     OW24467   4.543   5.607   1.561 -0.4199 -0.1204  0.3525
 6174SOL    HW224468   4.617   5.667   1.568  0.5820 -1.1208 -1.0371
 6174SOL    HW324469   4.481   5.637   1.628 -0.0583  2.5475 -0.3995
 6174SOL    MW424470   4.545   5.619   1.571  0.6855  0.7711 -0.0207
 6175SOL     OW24471   4.582   4.050   4.621  0.1712 -0.0220  0.2728
 6175SOL    HW224472   4.677   4.059   4.617  0.5346 -2.9493 -0.5103
 6175SOL    HW324473   4.566   3.989   4.693 -0.7435 -2.0562 -1.5071
 6175SOL    MW424474   4.592   4.043   4.630 -0.4682  0.3249  0.0899
 6176SOL     OW24475   5.446   4.472   2.325 -0.0657 -0.3344 -0.3472
 6176SOL    HW224476   5.487   4.536   2.382 -0.4532  0.2521 -0.7131
 6176SOL    HW324477   5.456   4.508   2.237  1.6122 -1.7916 -0.8279
 6176SOL    MW424478   5.453   4.485   2.321  0.7306  0.3428 -0.3980
 6177SOL     OW24479   2.082   3.434   1.686 -0.6787 -0.3341 -0.1496
 6177SOL    HW224480   2.160   3.388   1.717 -0.1979  0.9766  0.6442
 6177SOL    HW324481   2.020   3.364   1.663  0.4425 -1.3789 -0.0786
 6177SOL    MW424482   2.084   3.418   1.687 -0.0799  0.3071 -0.6352
 6178SOL     OW24483   6.332   0.753   4.459  0.4960  0.0898 -0.4206
 6178SOL    HW224484   6.322   0.848   4.462  1.8231  0.2353 -0.0699
 6178SOL    HW324485   6.425   0.738   4.477  0.2251 -1.2917 -0.0688
 6178SOL    MW424486   6.343   0.764   4.462  0.0216  0.1066 -0.5013
 6179SOL     OW24487   4.779   2.336   2.293  0.3681  0.0042 -0.2935
 6179SOL    HW224488   4.745   2.355   2.206 -1.7543  0.2644  0.5470
 6179SOL    HW324489   4.840   2.264   2.279 -0.8368 -0.7730 -1.8610
 6179SOL    MW424490   4.783   2.329   2.280  0.2088  0.8812  0.3013
 6180SOL     OW24491   2.544   4.322   6.353 -0.0743  0.0506  0.0599
 6180SOL    HW224492   2.506   4.333   6.440  0.2232 -0.6701  0.2840
 6180SOL    HW324493   2.638   4.313   6.368 -0.2049 -2.2087 -0.1157
 6180SOL    MW424494   2.551   4.322   6.367 -0.7154  0.2769 -0.0515
 6181SOL     OW24495   4.962   0.605   4.784 -0.5880  0.2261 -0.0898
 6181SOL    HW224496   4.942   0.693   4.750  3.1037  1.6076  0.8157
 6181SOL    HW324497   4.903   0.594   4.858 -0.6383  2.3444  0.2657
 6181SOL    MW424498   4.952   0.615   4.789 -0.4434 -0.4647 -0.6751
 6182SOL     OW24499   0.769   5.507   3.354 -0.2844 -0.1515  0.5747
 6182SOL    HW224500   0.720   5.457   3.289  0.4648 -0.2456  0.0778
 6182SOL    HW324501   0.856   5.518   3.316 -0.3422  1.2666  0.8190
 6182SOL    MW424502   0.774   5.502   3.341  0.0910 -0.2265  0.3415
 6183SOL     OW24503   2.426   4.166   1.430  0.5241 -0.3735 -0.0707
 6183SOL    HW224504   2.503   4.122   1.394  1.3412 -1.4033  2.6867
 6183SOL    HW324505   2.443   4.259   1.414  0.2039 -0.7770 -3.3142
 6183SOL    MW424506   2.439   4.173   1.423  0.4373 -0.4815  0.6368
 6184SOL     OW24507   5.331   2.119   4.362 -0.1563 -0.2584  0.0729
 6184SOL    HW224508   5.398   2.059   4.327  0.3804 -0.6322  1.6559
 6184SOL    HW324509   5.341   2.199   4.310  1.5293 -0.3181  0.2509
 6184SOL    MW424510   5.342   2.122   4.351 -0.1393 -0.4529 -0.4560
 6185SOL     OW24511   3.506   5.382   3.122 -0.0103 -0.0437 -0.7465
 6185SOL    HW224512   3.527   5.329   3.199 -0.1002  0.4764 -0.3535
 6185SOL    HW324513   3.420   5.419   3.142 -0.7293 -1.0945 -1.7596
 6185SOL    MW424514   3.498   5.380   3.135  0.3272 -0.1464 -0.6456
 6186SOL     OW24515   5.970   3.782   3.282 -0.2673 -0.2530 -0.1993
 6186SOL    HW224516   5.994   3.751   3.195 -0.3761 -2.3572  0.4615
 6186SOL    HW324517   6.052   3.812   3.320  0.0402 -0.6750 -0.5187
 6186SOL    MW424518   5.984   3.782   3.276  0.3850  0.1071 -0.3522
 6187SOL     OW24519   5.223   1.146   5.634  0.4318  0.7531  0.1758
 6187SOL    HW224520   5.237   1.181   5.722 -0.3429 -0.4112  0.7941
 6187SOL    HW324521   5.209   1.223   5.579 -0.5503  1.4560  1.3507
 6187SOL    MW424522   5.223   1.161   5.638 -0.4222  0.4921  0.4579
 6188SOL     OW24523   2.949   1.842   4.881  0.0238 -0.0990  0.2782
 6188SOL    HW224524   2.858   1.870   4.872 -0.0046 -0.1557  0.3798
 6188SOL    HW324525   2.946   1.747   4.871  0.1335 -0.0589 -0.1708
 6188SOL    MW424526   2.937   1.833   4.879  0.3988 -0.0618 -0.1779
 6189SOL     OW24527   1.975   3.931   5.873  0.6362 -0.1492 -0.2164
 6189SOL    HW224528   1.929   4.002   5.918 -0.1554 -1.0807  0.4785
 6189SOL    HW324529   1.963   3.855   5.930 -0.4188 -1.3742 -1.9693
 6189SOL    MW424530   1.967   3.931   5.886  0.3088 -0.5388  0.5606
 6190SOL     OW24531   0.684   2.455   2.100  0.8423 -0.2964  0.8632
 6190SOL    HW224532   0.769   2.440   2.057  0.6384 -1.2535  0.7805
 6190SOL    HW324533   0.700   2.530   2.157  1.7936 -0.5534  0.9583
 6190SOL    MW424534   0.698   2.463   2.102  0.2985 -0.1853 -0.0059
 6191SOL     OW24535   4.174   3.694   5.742 -0.0402 -0.0601  0.6622
 6191SOL    HW224536   4.144   3.642   5.816 -1.8164 -0.3033 -0.1558
 6191SOL    HW324537   4.120   3.773   5.744  0.3169  0.2161 -0.0007
 6191SOL    MW424538   4.163   3.697   5.752  0.1351 -0.1751  0.7050
 6192SOL     OW24539   2.214   3.202   6.110 -0.5081  0.5106  0.1564
 6192SOL    HW224540   2.128   3.235   6.136 -0.1513  1.7216 -0.1131
 6192SOL    HW324541   2.215   3.111   6.138 -1.5312  0.7439  1.0079
 6192SOL    MW424542   2.203   3.195   6.117 -0.2789 -0.1043 -0.3148
 6193SOL     OW24543   1.380   2.356   2.587  0.4657 -0.2298  0.1848
 6193SOL    HW224544   1.385   2.400   2.503 -1.0201  1.5145  0.9331
 6193SOL    HW324545   1.323   2.281   2.572  0.5635 -0.1741 -0.4653
 6193SOL    MW424546   1.373   2.352   2.574  0.3918 -0.5053 -0.1083
 6194SOL     OW24547   6.330   2.417   5.261  0.2236 -0.5309  0.5702
 6194SOL    HW224548   6.329   2.363   5.341  1.5038 -1.2550  0.1355
 6194SOL    HW324549   6.401   2.480   5.277  0.2718 -0.4749  0.1337
 6194SOL    MW424550   6.340   2.418   5.274  0.4537 -0.1087 -0.2034
 6195SOL     OW24551   0.003   5.618   0.977 -0.1153 -0.2784  0.2373
 6195SOL    HW224552  -0.031   5.564   0.905 -0.7190  1.2759 -0.6955
 6195SOL    HW324553   0.026   5.555   1.045 -0.8718 -1.7005 -0.7630
 6195SOL    MW424554   0.002   5.602   0.977 -0.3154  0.3691 -0.3133
 6196SOL     OW24555   2.040   3.203   5.598  0.0692  0.5824 -0.2400
 6196SOL    HW224556   2.032   3.185   5.692  0.8435  1.0339 -0.0819
 6196SOL    HW324557   2.134   3.213   5.583 -0.0685  0.7668 -1.0220
 6196SOL    MW424558   2.051   3.202   5.609  0.0142  0.0082 -0.2620
 6197SOL     OW24559   0.454   4.415   2.809  0.2083  0.6512  0.3360
 6197SOL    HW224560   0.442   4.440   2.901  1.4119  2.1962  0.1143
 6197SOL    HW324561   0.540   4.451   2.786  0.9474 -1.6487 -0.7695
 6197SOL    MW424562   0.464   4.423   2.818  0.3073  0.2375 -0.7903
 6198SOL     OW24563   6.350   2.115   3.592 -0.7915  0.0196  0.1907
 6198SOL    HW224564   6.434   2.134   3.552 -1.2155 -1.3687 -1.4894
 6198SOL    HW324565   6.371   2.085   3.680  0.5943 -1.5081 -0.6205
 6198SOL    MW424566   6.364   2.114   3.598  0.5131 -0.0205 -0.4265
 6199SOL     OW24567   6.067   3.267   2.776  0.1755  0.1371  0.1956
 6199SOL    HW224568   6.142   3.233   2.728  0.9687 -0.2523  1.6690
 6199SOL    HW324569   6.069   3.361   2.759 -0.9837 -0.2307 -2.4416
 6199SOL    MW424570   6.077   3.275   2.768 -0.2232 -0.2909  0.3722
 6200SOL     OW24571   3.532   6.055   3.816  0.1864  0.2431  0.0794
 6200SOL    HW224572   3.507   6.019   3.901 -2.1147  0.9035 -0.2554
 6200SOL    HW324573   3.618   6.094   3.831  0.4062 -0.7914  1.7585
 6200SOL    MW424574   3.540   6.055   3.829  0.0100 -0.0507 -0.1583
 6201SOL     OW24575   1.629   3.105   1.532 -0.0386 -0.7426 -0.9698
 6201SOL    HW224576   1.548   3.139   1.571 -0.3455  1.3386 -3.1520
 6201SOL    HW324577   1.599   3.040   1.468  0.2771 -1.9893  0.0824
 6201SOL    MW424578   1.614   3.101   1.529 -0.3416  0.0072 -0.3481
 6202SOL     OW24579   1.165  -0.012   6.246 -0.4091  0.4278  0.6159
 6202SOL    HW224580   1.151  -0.067   6.323  0.8322  0.0016  0.5617
 6202SOL    HW324581   1.096  -0.036   6.185  0.9685 -2.2243 -0.0272
 6202SOL    MW424582   1.154  -0.022   6.248  0.7372  0.5248 -0.2929
 6203SOL     OW24583   1.074   1.597   1.804  0.2953  0.6234 -0.1682
 6203SOL    HW224584   1.147   1.602   1.866 -0.3770 -0.7248  0.7913
 6203SOL    HW324585   1.102   1.532   1.739 -1.1944 -2.3879  1.9670
 6203SOL    MW424586   1.087   1.589   1.804 -0.4634  0.0654 -0.1903
 6204SOL     OW24587   2.746   5.900   2.576  0.1462 -0.1732 -0.3529
 6204SOL    HW224588   2.745   5.994   2.558 -1.2546  0.5514  2.8043
 6204SOL    HW324589   2.678   5.863   2.518  0.3077  0.8296 -1.2043
 6204SOL    MW424590   2.737   5.907   2.566 -0.0032 -0.0187 -0.2526
 6205SOL     OW24591   3.000   2.574   3.470  0.6760  0.0869 -0.3188
 6205SOL    HW224592   3.069   2.526   3.424  1.6937  0.2091  1.0139
 6205SOL    HW324593   2.960   2.629   3.403  2.1702  0.3343 -1.0455
 6205SOL    MW424594   3.003   2.575   3.455 -0.0635 -0.1505  0.6072
 6206SOL     OW24595   6.177   3.919   3.654 -0.0808  0.5339 -0.3389
 6206SOL    HW224596   6.116   3.886   3.720 -1.3873  0.5252 -1.5099
 6206SOL    HW324597   6.239   3.973   3.704 -1.2509  0.8471  0.8311
 6206SOL    MW424598   6.177   3.921   3.670  0.4149  0.6757  0.0435
 6207SOL     OW24599   5.525   1.619   5.924 -0.8376 -0.2732 -0.1510
 6207SOL    HW224600   5.613   1.600   5.890 -0.4650 -1.2469  1.2558
 6207SOL    HW324601   5.470   1.551   5.885 -0.9269  0.1839 -0.8335
 6207SOL    MW424602   5.529   1.607   5.914  0.1103 -0.7462 -0.3604
 6208SOL     OW24603   0.127   4.980   4.770  0.2350  0.6978 -0.4883
 6208SOL    HW224604   0.057   4.918   4.790  0.1474  1.1608  0.7379
 6208SOL    HW324605   0.081   5.061   4.749  0.3727  0.6823 -0.8420
 6208SOL    MW424606   0.112   4.983   4.770 -0.5057  0.2609  0.2179
 6209SOL     OW24607   3.078   2.302   2.501 -0.0217 -0.3925 -0.2257
 6209SOL    HW224608   3.172   2.312   2.483  0.1815 -0.9606  0.4596
 6209SOL    HW324609   3.072   2.218   2.548 -0.4341  1.1683  2.7578
 6209SOL    MW424610   3.090   2.292   2.505  0.4574  0.0983  0.1249
 6210SOL     OW24611   1.233   2.994   4.880  0.1708  0.3235 -0.3625
 6210SOL    HW224612   1.313   3.047   4.870  0.6760  0.1999  2.3866
 6210SOL    HW324613   1.265   2.906   4.900 -0.6856 -0.2072 -1.2319
 6210SOL    MW424614   1.248   2.989   4.881 -0.4771 -0.0820 -0.0118
 6211SOL     OW24615   0.755   0.978   0.685 -0.1254 -0.2315 -0.3292
 6211SOL    HW224616   0.761   0.894   0.730 -1.2520  0.2354  0.7451
 6211SOL    HW324617   0.813   0.969   0.609  1.8799 -1.0273  1.2280
 6211SOL    MW424618   0.763   0.965   0.681  0.7708  0.6839 -0.2573
 6212SOL     OW24619   4.498   2.551   0.095  0.0209 -0.0499 -0.4131
 6212SOL    HW224620   4.541   2.634   0.076  0.4542 -0.4698 -1.3622
 6212SOL    HW324621   4.549   2.514   0.167 -0.5056  0.7362  0.3845
 6212SOL    MW424622   4.511   2.557   0.102 -0.1625 -0.3956 -0.1571
 6213SOL     OW24623   4.200   3.824   4.372  0.5639 -0.1397 -0.3182
 6213SOL    HW224624   4.260   3.771   4.424  0.3031  1.1338  1.3709
 6213SOL    HW324625   4.125   3.767   4.356  1.1601 -0.9324 -0.3419
 6213SOL    MW424626   4.198   3.810   4.376 -0.2269 -0.8355 -0.1806
 6214SOL     OW24627   3.921   1.342   3.970 -0.1853  0.0342 -0.0421
 6214SOL    HW224628   3.927   1.268   3.909  1.4972  1.0729 -1.2113
 6214SOL    HW324629   3.989   1.324   4.036  0.7849  0.9006 -0.7805
 6214SOL    MW424630   3.931   1.330   3.971 -0.2916 -0.1364 -0.3648
 6215SOL     OW24631   5.206   1.458   0.627  0.2316 -0.3566  0.3165
 6215SOL    HW224632   5.116   1.452   0.661 -0.2724 -0.3274 -0.9349
 6215SOL    HW324633   5.236   1.545   0.653 -1.5715  1.2805 -2.4760
 6215SOL    MW424634   5.198   1.468   0.635 -0.6594  0.5661 -0.0048
 6216SOL     OW24635   3.733   2.603   0.636  0.0951 -0.1108 -0.1439
 6216SOL    HW224636   3.746   2.653   0.555 -0.1448 -0.5248 -0.4422
 6216SOL    HW324637   3.755   2.513   0.612  0.0923 -0.2216  0.2728
 6216SOL    MW424638   3.737   2.598   0.622  0.2272  0.5110 -0.1504
 6217SOL     OW24639   4.706   2.753   1.592 -0.5892 -0.3899 -0.2894
 6217SOL    HW224640   4.763   2.726   1.519  0.8208  0.8763  0.2778
 6217SOL    HW324641   4.698   2.848   1.581  1.1375  0.1145  2.1696
 6217SOL    MW424642   4.713   2.762   1.581  0.5234  0.1989  0.2733
 6218SOL     OW24643   0.741   4.054   1.438  0.0986  0.5812 -0.6169
 6218SOL    HW224644   0.709   4.043   1.528 -1.6456  0.8476 -1.1562
 6218SOL    HW324645   0.823   4.103   1.447  1.2490 -1.5085  0.9613
 6218SOL    MW424646   0.748   4.059   1.451  0.1166 -0.0650  0.1366
 6219SOL     OW24647   5.153   3.457   3.975  0.7640 -0.2903  0.3173
 6219SOL    HW224648   5.195   3.482   4.057 -1.2165 -1.6447  1.8432
 6219SOL    HW324649   5.168   3.531   3.916  2.7609  0.4493  1.6698
 6219SOL    MW424650   5.161   3.470   3.978 -0.1665  0.0036 -0.2431
 6220SOL     OW24651   3.331   4.580   4.356  0.0918  0.4519 -0.5569
 6220SOL    HW224652   3.382   4.591   4.276 -0.2216  1.2314 -0.6620
 6220SOL    HW324653   3.255   4.529   4.330  0.5435 -0.2593 -0.5115
 6220SOL    MW424654   3.328   4.575   4.342  0.1059 -0.0753 -0.4096
 6221SOL     OW24655   1.716   5.137   3.833  0.1507 -0.1153  0.3047
 6221SOL    HW224656   1.775   5.130   3.758  0.6497 -0.6542  0.7444
 6221SOL    HW324657   1.742   5.218   3.876 -1.8597  1.6709 -1.5447
 6221SOL    MW424658   1.727   5.147   3.829 -1.0521  0.1911 -0.8043
 6222SOL     OW24659   2.791   2.391   0.933  0.4349  0.2880 -0.0235
 6222SOL    HW224660   2.765   2.352   1.017  0.4597  0.3595  0.0175
 6222SOL    HW324661   2.736   2.470   0.926 -1.3984 -1.0211 -1.2468
 6222SOL    MW424662   2.780   2.396   0.943 -0.1460  0.2258  0.5988
 6223SOL     OW24663   5.078   4.322   2.575 -0.6486 -0.1292 -0.7416
 6223SOL    HW224664   5.110   4.239   2.612  0.6179  0.2725 -0.8716
 6223SOL    HW324665   5.140   4.387   2.607 -1.7621  0.8144 -0.4693
 6223SOL    MW424666   5.091   4.319   2.584 -0.4086 -0.0246  0.0466
 6224SOL     OW24667   2.946   5.140   1.972  0.7211 -0.3569  0.0054
 6224SOL    HW224668   3.036   5.169   1.983  0.9122 -0.6646 -0.6783
 6224SOL    HW324669   2.937   5.065   2.032 -0.2120  1.8873  2.9043
 6224SOL    MW424670   2.956   5.134   1.981 -0.1028  0.1152  0.0652
 6225SOL     OW24671   3.052   4.981   0.559  0.3270 -0.1553 -0.7926
 6225SOL    HW224672   3.025   4.890   0.573  0.0622 -0.4360 -2.8041
 6225SOL    HW324673   2.987   5.016   0.498  0.3700  1.4468  0.0009
 6225SOL    MW424674   3.040   4.974   0.553 -0.0108  0.2562 -0.0576
 6226SOL     OW24675   4.835   5.946   6.061  0.1883  0.3007 -0.0534
 6226SOL    HW224676   4.775   5.901   6.121 -2.0209 -0.2538 -2.4818
 6226SOL    HW324677   4.920   5.941   6.104 -1.0941 -0.7852  2.6004
 6226SOL    MW424678   4.838   5.939   6.075 -0.0223  0.0262  0.3437
 6227SOL     OW24679   4.852   3.976   3.217  1.2331  0.0246  0.0958
 6227SOL    HW224680   4.866   4.052   3.273  1.5837 -0.3087  0.4646
 6227SOL    HW324681   4.926   3.918   3.235 -0.2325 -1.5083  1.6624
 6227SOL    MW424682   4.863   3.978   3.227 -0.5040 -0.0649 -0.1400
 6228SOL     OW24683   2.847   3.817   0.737 -0.0036 -0.1371  0.1696
 6228SOL    HW224684   2.806   3.759   0.801 -1.1585 -0.6875 -1.0114
 6228SOL    HW324685   2.931   3.840   0.776 -0.7092 -0.3479  1.9228
 6228SOL    MW424686   2.852   3.812   0.751  0.0502  0.3143 -1.2377
 6229SOL     OW24687   5.978   1.406   2.285 -0.1293  0.7654  0.6639
 6229SOL    HW224688   6.016   1.490   2.261 -0.2609  0.5419 -0.3684
 6229SOL    HW324689   6.047   1.360   2.332  0.5983  0.7007 -0.4467
 6229SOL    MW424690   5.992   1.411   2.288 -0.6276  0.0776 -0.1314
 6230SOL     OW24691   4.393   1.321   4.148 -0.6274  0.2939 -0.1652
 6230SOL    HW224692   4.438   1.261   4.089 -0.1497 -1.5609  1.9542
 6230SOL    HW324693   4.442   1.403   4.143  1.0303 -0.6851 -0.3016
 6230SOL    MW424694   4.405   1.324   4.139 -0.0424 -0.3661  0.3524
 6231SOL     OW24695   0.308   3.167   2.665  0.6397  0.3129  0.2410
 6231SOL    HW224696   0.299   3.073   2.678  1.8695  0.2557  0.8477
 6231SOL    HW324697   0.295   3.205   2.751  2.5739  0.4674  0.5179
 6231SOL    MW424698   0.305   3.159   2.678 -0.5249  0.3950 -0.8753
 6232SOL     OW24699   0.246   1.959   1.952  0.4493 -0.0050  0.1363
 6232SOL    HW224700   0.226   2.049   1.927 -0.5083 -0.3232 -0.2802
 6232SOL    HW324701   0.305   1.927   1.883  1.0892  0.4062  0.4803
 6232SOL    MW424702   0.251   1.967   1.940 -0.2263 -0.2894 -0.0782
 6233SOL     OW24703   3.389   5.130  -0.002 -0.0068 -0.3380 -0.2501
 6233SOL    HW224704   3.316   5.174  -0.046  0.5434  0.2150 -0.6300
 6233SOL    HW324705   3.357   5.115   0.087 -0.7143 -0.4275 -0.5105
 6233SOL    MW424706   3.375   5.134   0.004 -0.4671 -0.5107 -0.1939
 6234SOL     OW24707   0.816   1.046   2.096  0.0739 -0.3788  0.4939
 6234SOL    HW224708   0.780   0.985   2.160 -0.2982 -0.5542  0.1240
 6234SOL    HW324709   0.747   1.112   2.085  0.4553  0.0927  0.8618
 6234SOL    MW424710   0.802   1.047   2.103 -0.2856  0.5622 -0.2726
 6235SOL     OW24711   4.746   1.911   6.066  0.4098 -0.6235  0.2619
 6235SOL    HW224712   4.672   1.866   6.024 -0.3767  1.1060 -0.2856
 6235SOL    HW324713   4.735   1.891   6.159 -1.5318  0.5855  0.3622
 6235SOL    MW424714   4.735   1.902   6.073 -0.2664  0.2144  0.0238
 6236SOL     OW24715   2.979   4.398   1.254 -0.0726 -0.3806  0.4568
 6236SOL    HW224716   3.036   4.384   1.330  0.2760  0.3386  0.3319
 6236SOL    HW324717   3.013   4.338   1.187  1.0189  0.5755  0.1323
 6236SOL    MW424718   2.991   4.388   1.255  0.4394  0.5378 -0.4415
 6237SOL     OW24719   4.235   4.782   4.844 -0.2878  1.0210 -0.9596
 6237SOL    HW224720   4.228   4.876   4.825  1.0816  1.8690  2.0306
 6237SOL    HW324721   4.329   4.764   4.836 -0.4575  0.0551 -0.8512
 6237SOL    MW424722   4.247   4.792   4.841 -0.0727  0.0814 -0.3037
 6238SOL     OW24723   2.244   0.724   5.601  0.3203 -0.1609  0.5832
 6238SOL    HW224724   2.265   0.803   5.551  0.2503 -1.0207 -0.8861
 6238SOL    HW324725   2.158   0.741   5.639 -0.3088 -0.0091 -0.8346
 6238SOL    MW424726   2.235   0.737   5.599 -0.0464  0.0709  0.7575
 6239SOL     OW24727   5.560   3.743   0.308 -0.0181 -0.0221 -0.2998
 6239SOL    HW224728   5.560   3.723   0.214  1.5935  1.7137 -0.7393
 6239SOL    HW324729   5.652   3.764   0.327 -0.8103  2.8454  0.8845
 6239SOL    MW424730   5.572   3.743   0.298  0.0515 -0.5099 -0.3475
 6240SOL     OW24731   3.705   0.188   2.682  0.7233 -0.1600 -0.3521
 6240SOL    HW224732   3.754   0.131   2.742 -0.5215 -0.5994  0.2821
 6240SOL    HW324733   3.626   0.139   2.661  0.1424  0.8831 -0.6685
 6240SOL    MW424734   3.701   0.174   2.687 -0.5771 -0.0530 -0.1418
 6241SOL     OW24735   0.131   1.436   4.830  0.1322  0.4439 -0.0098
 6241SOL    HW224736   0.208   1.412   4.882 -0.2498 -0.2418  0.2469
 6241SOL    HW324737   0.157   1.418   4.739  0.2062  0.0293  0.0933
 6241SOL    MW424738   0.145   1.431   4.825  0.0275 -0.7668  0.0309
 6242SOL     OW24739   1.882   4.488   2.956  0.0846  0.4609 -0.2996
 6242SOL    HW224740   1.947   4.550   2.922 -1.3162  1.6499 -0.8655
 6242SOL    HW324741   1.900   4.406   2.909  1.4599  0.6203 -0.1012
 6242SOL    MW424742   1.893   4.485   2.946 -0.3056 -0.1602  0.2134
 6243SOL     OW24743   6.248   5.403   1.721  0.2826  0.1441  0.3397
 6243SOL    HW224744   6.167   5.451   1.708  0.7283  1.3261  1.6238
 6243SOL    HW324745   6.252   5.341   1.649  0.4336  3.0731 -2.3765
 6243SOL    MW424746   6.238   5.401   1.710  0.3865  0.2171 -0.1374
 6244SOL     OW24747   2.428   1.168   1.079 -0.1818 -0.2619  0.3398
 6244SOL    HW224748   2.489   1.095   1.086 -0.1512 -0.3991 -1.0807
 6244SOL    HW324749   2.397   1.183   1.169  1.5020 -0.5572  0.9987
 6244SOL    MW424750   2.432   1.161   1.092  0.1401  0.6365  0.8606
 6245SOL     OW24751   2.529   4.161   3.688 -0.0057 -0.0286  0.0142
 6245SOL    HW224752   2.582   4.212   3.749  1.7675  0.0883 -1.5297
 6245SOL    HW324753   2.451   4.214   3.673  1.3263  1.7830 -0.7641
 6245SOL    MW424754   2.526   4.174   3.694 -0.1549 -0.0761  0.1283
 6246SOL     OW24755   2.065   4.958   0.127 -0.4288 -0.4108 -0.4525
 6246SOL    HW224756   2.045   5.011   0.050  2.2269  0.9341 -0.3338
 6246SOL    HW324757   2.038   5.012   0.201 -3.2736 -1.8290 -0.2976
 6246SOL    MW424758   2.059   4.972   0.127 -0.0798  0.5118 -0.5011
 6247SOL     OW24759   2.545   6.271   5.021  0.1259 -0.0247  0.3142
 6247SOL    HW224760   2.538   6.175   5.018 -0.6899  0.0141  0.7462
 6247SOL    HW324761   2.476   6.298   5.081 -0.1002  0.8916 -0.3439
 6247SOL    MW424762   2.535   6.262   5.029 -0.3805  0.8536  0.2036
 6248SOL     OW24763   0.735   2.216   1.072 -0.0938  0.1788 -0.0456
 6248SOL    HW224764   0.717   2.241   1.162  2.2455 -2.2999  1.2519
 6248SOL    HW324765   0.661   2.161   1.046 -0.9791  1.2437  0.1719
 6248SOL    MW424766   0.723   2.212   1.080  0.2617 -0.4995 -0.5882
 6249SOL     OW24767   0.701   0.604   2.942 -0.4238  0.4882 -0.6193
 6249SOL    HW224768   0.700   0.673   3.008 -0.4373  0.0211 -0.1276
 6249SOL    HW324769   0.641   0.636   2.874 -3.0438 -0.4469  1.0850
 6249SOL    MW424770   0.693   0.618   2.941  0.3676  0.4791 -1.0107
 6250SOL     OW24771   4.300   2.067   3.503 -0.2203 -0.1368  0.2744
 6250SOL    HW224772   4.305   2.123   3.580  0.9478  0.7040 -0.3802
 6250SOL    HW324773   4.223   2.099   3.455 -1.4194 -1.1772  1.4445
 6250SOL    MW424774   4.291   2.079   3.507  0.0346  0.4082  0.0106
 6251SOL     OW24775   0.383   5.598   3.093  0.5888 -0.2984  0.2427
 6251SOL    HW224776   0.436   5.518   3.099 -0.7081 -1.1565  0.9633
 6251SOL    HW324777   0.293   5.566   3.090  0.0288  1.1522  0.7067
 6251SOL    MW424778   0.378   5.583   3.094 -0.0942 -0.1877  0.5668
 6252SOL     OW24779   2.975   3.908   5.696  0.1345  0.3360 -0.5819
 6252SOL    HW224780   3.066   3.929   5.676  0.4904 -1.3055 -0.8872
 6252SOL    HW324781   2.973   3.896   5.791 -0.3146  2.6556 -0.2502
 6252SOL    MW424782   2.987   3.909   5.706 -0.0754  0.4755 -0.7676
 6253SOL     OW24783   5.661   2.541   4.862 -0.2463  0.1432 -0.6868
 6253SOL    HW224784   5.755   2.558   4.854 -0.5378  1.4528 -1.5938
 6253SOL    HW324785   5.620   2.628   4.857 -1.5480 -0.4580 -0.9626
 6253SOL    MW424786   5.668   2.555   4.860  0.3643  0.0036  0.0570
 6254SOL     OW24787   6.006   2.561   1.418 -0.3573 -0.3250  0.1316
 6254SOL    HW224788   5.972   2.480   1.379 -0.5821 -1.1765  1.9686
 6254SOL    HW324789   5.960   2.568   1.502  0.2333  1.3126  0.3583
 6254SOL    MW424790   5.995   2.551   1.424  0.0414  0.0942 -0.5035
 6255SOL     OW24791   3.448   2.097   2.202 -0.0687  0.2936 -0.2492
 6255SOL    HW224792   3.356   2.122   2.191  0.2849  1.5197 -0.4946
 6255SOL    HW324793   3.453   2.064   2.292 -0.9511 -0.7703 -0.5603
 6255SOL    MW424794   3.437   2.096   2.213 -0.4887  0.4126 -0.5066
 6256SOL     OW24795   4.246   0.110   3.221 -0.0139  0.0469 -0.0728
 6256SOL    HW224796   4.154   0.083   3.218 -0.6885  2.1321 -0.4241
 6256SOL    HW324797   4.286   0.071   3.143 -0.4864 -1.1884  0.2856
 6256SOL    MW424798   4.239   0.102   3.210 -0.4990  0.5414  0.0055
 6257SOL     OW24799   4.444   3.353   0.489 -0.7462 -0.6152  0.4001
 6257SOL    HW224800   4.451   3.379   0.398  0.4842 -1.1238  0.3311
 6257SOL    HW324801   4.384   3.279   0.489 -0.4992 -0.8189 -0.0476
 6257SOL    MW424802   4.437   3.347   0.477 -0.1735  0.1754 -0.0696
 6258SOL     OW24803   4.373   1.832   2.607 -0.2291 -0.0067 -0.2753
 6258SOL    HW224804   4.414   1.896   2.549 -0.1544  0.5380  0.3773
 6258SOL    HW324805   4.446   1.781   2.642 -0.0149  1.2796  1.2707
 6258SOL    MW424806   4.388   1.833   2.604  0.4148  0.4658 -0.0624
 6259SOL     OW24807   0.586   2.776   1.068  0.2688 -0.4508  0.0227
 6259SOL    HW224808   0.637   2.791   0.989  0.1854  0.0872  0.0677
 6259SOL    HW324809   0.522   2.847   1.069  0.6271 -0.1295  0.8676
 6259SOL    MW424810   0.584   2.787   1.057 -0.2713  0.4992  0.4077
 6260SOL     OW24811   1.421   6.392   4.538  0.3279  0.0080  0.0257
 6260SOL    HW224812   1.358   6.459   4.512  1.0792  0.9885  0.6492
 6260SOL    HW324813   1.372   6.310   4.532 -0.0682  0.3691 -2.5500
 6260SOL    MW424814   1.406   6.390   4.534  0.8309  0.2234 -0.6801
 6261SOL     OW24815   6.097   4.256   6.222 -1.0728  0.0370 -0.1273
 6261SOL    HW224816   6.152   4.311   6.166  1.6304 -1.4847  0.8953
 6261SOL    HW324817   6.072   4.313   6.295  0.2772  0.3940  0.0691
 6261SOL    MW424818   6.101   4.271   6.224  0.0930 -0.1436  0.2461
 6262SOL     OW24819   3.829   0.506   6.002  0.1001  0.3499 -0.6077
 6262SOL    HW224820   3.753   0.455   6.029 -0.0502  1.2199  0.6997
 6262SOL    HW324821   3.900   0.442   5.996  0.0889  0.0279  1.7074
 6262SOL    MW424822   3.828   0.491   6.005 -0.3607 -0.3496 -0.4795
 6263SOL     OW24823   1.113   5.917   0.084 -0.0846  0.0512 -0.4888
 6263SOL    HW224824   1.109   5.821   0.088  1.7882 -0.0378 -0.2521
 6263SOL    HW324825   1.081   5.937  -0.004 -0.6941 -0.7553 -0.4746
 6263SOL    MW424826   1.108   5.907   0.073 -0.0892  0.0569  0.0519
 6264SOL     OW24827   6.013   0.085   0.344  0.7434  0.3474  0.0864
 6264SOL    HW224828   5.988  -0.007   0.353  0.8264  0.3874  0.7736
 6264SOL    HW324829   5.972   0.129   0.419 -0.1197  1.0534 -0.7609
 6264SOL    MW424830   6.004   0.079   0.355 -0.4855  0.0211  0.5384
 6265SOL     OW24831   2.757   5.665   2.797 -0.0639  0.7691  0.2870
 6265SOL    HW224832   2.726   5.754   2.780 -1.8709  0.3045  0.8715
 6265SOL    HW324833   2.732   5.616   2.720  1.0178  0.7639 -0.0759
 6265SOL    MW424834   2.750   5.670   2.785 -0.4864 -0.8554  0.3814
 6266SOL     OW24835   0.143   1.361   2.249  0.1272 -0.6540  0.2147
 6266SOL    HW224836   0.111   1.377   2.337 -0.2693  0.0468 -0.0426
 6266SOL    HW324837   0.189   1.442   2.225 -0.3638 -0.5684 -0.4706
 6266SOL    MW424838   0.145   1.374   2.257  0.2736 -0.1882  0.6366
 6267SOL     OW24839   0.589   2.241   2.347  0.1592  0.5203  0.0639
 6267SOL    HW224840   0.600   2.162   2.399 -0.6425  0.2410 -0.1797
 6267SOL    HW324841   0.571   2.209   2.258 -2.5076  0.8865  0.3910
 6267SOL    MW424842   0.588   2.226   2.342 -0.2507  0.1823 -0.3830
 6268SOL     OW24843   0.514   0.688   5.969 -0.6303 -0.4078 -0.0124
 6268SOL    HW224844   0.445   0.672   6.034  0.0980  1.2004  1.2280
 6268SOL    HW324845   0.526   0.603   5.926 -1.2600 -1.5043  1.8387
 6268SOL    MW424846   0.506   0.675   5.972  0.6313  0.8467 -0.3135
 6269SOL     OW24847   3.264   6.201   5.362 -0.8535 -0.2863  0.1371
 6269SOL    HW224848   3.215   6.208   5.281 -1.8767 -3.0150  0.4244
 6269SOL    HW324849   3.206   6.154   5.422  1.8911 -3.6237  0.5283
 6269SOL    MW424850   3.250   6.195   5.360 -0.5252 -0.4305 -0.0899
 6270SOL     OW24851   6.254   5.042   4.558 -0.6640  0.0693  0.5076
 6270SOL    HW224852   6.179   5.032   4.617 -1.4549 -1.0196 -0.6334
 6270SOL    HW324853   6.216   5.042   4.470  0.7839 -2.3303 -0.2042
 6270SOL    MW424854   6.239   5.041   4.554 -0.1044 -0.0514 -0.3588
 6271SOL     OW24855   3.606   0.874   5.236  0.0938  0.3034  0.1660
 6271SOL    HW224856   3.628   0.919   5.155 -0.5038  1.8466  0.8386
 6271SOL    HW324857   3.562   0.939   5.290  0.8945 -0.5428  1.9406
 6271SOL    MW424858   3.603   0.888   5.233 -0.0466 -0.1833  0.2577
 6272SOL     OW24859   0.874   1.163   5.535 -0.3773  0.1754  0.4372
 6272SOL    HW224860   0.858   1.095   5.600  0.2267 -0.0569  0.3492
 6272SOL    HW324861   0.820   1.137   5.460  0.9347 -1.0192 -0.1395
 6272SOL    MW424862   0.865   1.151   5.533 -0.3082 -0.1942  0.4051
 6273SOL     OW24863   2.247   4.860   4.647  0.4859  0.0473 -0.5930
 6273SOL    HW224864   2.278   4.887   4.560  1.2654 -1.4739 -0.8178
 6273SOL    HW324865   2.165   4.907   4.658 -0.5533 -1.0490 -2.9354
 6273SOL    MW424866   2.240   4.870   4.637  0.7644 -0.1971 -0.3202
 6274SOL     OW24867   5.267   4.655   5.171  0.0776  0.0486  0.1514
 6274SOL    HW224868   5.301   4.680   5.086  0.8169 -1.0330  0.1105
 6274SOL    HW324869   5.341   4.663   5.231  0.7747 -3.0832 -0.0802
 6274SOL    MW424870   5.281   4.659   5.168 -0.9395 -0.2221  0.2293
 6275SOL     OW24871   5.555   0.104   0.939  0.5572  0.2200 -0.2898
 6275SOL    HW224872   5.599   0.026   0.970  2.1179  1.5242  0.9646
 6275SOL    HW324873   5.617   0.147   0.881  0.1322  1.0358 -0.1675
 6275SOL    MW424874   5.569   0.100   0.936  0.6593  0.5687 -0.1432
 6276SOL     OW24875   1.047   1.319   0.591  0.7748 -0.4475  0.4035
 6276SOL    HW224876   1.065   1.406   0.554 -0.3878 -0.9499 -1.4592
 6276SOL    HW324877   0.962   1.329   0.633  0.6297 -0.6925  0.1662
 6276SOL    MW424878   1.038   1.332   0.592 -0.9490 -0.1563  0.0117
 6277SOL     OW24879   2.746   2.392   0.454 -0.0781 -0.0371  0.1772
 6277SOL    HW224880   2.666   2.349   0.422  0.5062 -2.5413  1.7902
 6277SOL    HW324881   2.750   2.474   0.406 -2.1080 -1.1113 -2.0166
 6277SOL    MW424882   2.736   2.397   0.444 -0.2017 -0.3377  0.0487
 6278SOL     OW24883   5.790   1.258   5.414 -0.3643 -0.2308  0.3808
 6278SOL    HW224884   5.725   1.319   5.449  1.7417  2.7548 -0.5215
 6278SOL    HW324885   5.820   1.209   5.490 -2.4239 -0.5012  1.0754
 6278SOL    MW424886   5.786   1.260   5.428  1.0303  0.9329 -0.5207
 6279SOL     OW24887   1.243   0.030   0.298  0.1821  0.4891  0.5429
 6279SOL    HW224888   1.263   0.113   0.342 -0.2008 -0.0976  1.8474
 6279SOL    HW324889   1.159   0.045   0.255 -0.9201  0.1711  2.4806
 6279SOL    MW424890   1.235   0.043   0.298  0.4134  0.2603  0.4442
 6280SOL     OW24891   0.951   2.766   5.980 -0.4423  0.2623  0.6398
 6280SOL    HW224892   0.899   2.709   5.923 -0.7952  0.4121  0.8111
 6280SOL    HW324893   0.933   2.855   5.948  1.0368  0.2290 -0.4108
 6280SOL    MW424894   0.942   2.770   5.968 -0.1764  0.1050 -0.4049
 6281SOL     OW24895   2.355   2.350   4.519  0.0368 -0.5107 -0.9418
 6281SOL    HW224896   2.285   2.413   4.537  0.1828 -0.0577 -1.8548
 6281SOL    HW324897   2.339   2.323   4.428  1.7150  0.5259 -1.6057
 6281SOL    MW424898   2.343   2.355   4.509  0.8855  0.1455  0.2952
 6282SOL     OW24899   4.238   5.038   6.393 -0.1263  0.1781 -0.3666
 6282SOL    HW224900   4.300   4.965   6.384  1.5945  1.4578  0.5816
 6282SOL    HW324901   4.153   4.995   6.396  0.8094 -1.8065  0.1422
 6282SOL    MW424902   4.235   5.022   6.392  0.5486  0.0735 -1.0546
 6283SOL     OW24903   3.619   5.249   2.184 -0.1151 -0.5829  0.0123
 6283SOL    HW224904   3.702   5.287   2.156 -0.3666 -0.3797 -0.4629
 6283SOL    HW324905   3.642   5.162   2.215  0.6580  0.3227  2.2200
 6283SOL    MW424906   3.633   5.243   2.185 -0.7173  0.2092  0.0799
 6284SOL     OW24907   5.995   2.667   2.753 -0.0880 -0.0625  0.1230
 6284SOL    HW224908   6.081   2.624   2.747  0.3309  0.8403 -0.6806
 6284SOL    HW324909   5.992   2.726   2.677 -1.1557  0.4019  0.4968
 6284SOL    MW424910   6.006   2.669   2.742  0.2329 -0.2388  0.5475
 6285SOL     OW24911   1.391   0.700   2.217 -0.1863 -0.4586  0.2362
 6285SOL    HW224912   1.457   0.675   2.153 -0.1570 -0.0567  0.1084
 6285SOL    HW324913   1.429   0.675   2.301 -0.4759 -1.5299  0.0613
 6285SOL    MW424914   1.404   0.693   2.220 -0.4275  0.5261 -0.2589
 6286SOL     OW24915   4.082   1.681   1.509  0.1074 -0.2492  0.2736
 6286SOL    HW224916   4.027   1.739   1.455 -1.0349 -1.4531  0.1008
 6286SOL    HW324917   4.139   1.741   1.557 -0.4632  0.9801 -0.5129
 6286SOL    MW424918   4.082   1.697   1.508 -0.5690  0.6901 -0.6338
 6287SOL     OW24919   5.885   5.301   5.768 -0.3914 -0.1374 -0.6337
 6287SOL    HW224920   5.915   5.210   5.773 -0.7359 -0.2068  0.2279
 6287SOL    HW324921   5.878   5.318   5.674  0.4396 -0.7454 -0.8206
 6287SOL    MW424922   5.888   5.291   5.756 -0.2080  0.4602 -0.0734
 6288SOL     OW24923   4.584   3.418   4.524 -0.0210  0.4340  0.1740
 6288SOL    HW224924   4.672   3.438   4.491 -0.6098  1.6806 -0.7408
 6288SOL    HW324925   4.583   3.323   4.535  0.8189  0.1754 -1.6744
 6288SOL    MW424926   4.595   3.408   4.521 -0.1925  0.7467  0.1426
 6289SOL     OW24927   4.005   6.409   3.253 -0.2824  0.4778  0.4811
 6289SOL    HW224928   4.030   6.427   3.344 -0.3639 -1.4964  0.9395
 6289SOL    HW324929   3.912   6.431   3.249 -0.2895  0.5295  0.8883
 6289SOL    MW424930   3.996   6.414   3.265  0.2386  0.0438  0.2189
 6290SOL     OW24931   4.542   0.564   2.381 -0.5534  0.0333  0.6131
 6290SOL    HW224932   4.575   0.547   2.470  0.1528 -1.1444  0.1438
 6290SOL    HW324933   4.504   0.652   2.387 -1.0021 -0.2261  2.2104
 6290SOL    MW424934   4.541   0.573   2.394  0.1476  0.4950  0.3432
 6291SOL     OW24935   1.257   0.864   2.886  0.0268 -0.7271 -0.6563
 6291SOL    HW224936   1.175   0.890   2.928 -0.3936 -0.7288 -1.4677
 6291SOL    HW324937   1.303   0.814   2.953  0.6444  1.6265  0.7994
 6291SOL    MW424938   1.253   0.861   2.900 -0.0423  0.1165  0.2640
 6292SOL     OW24939   4.172   3.952   1.503 -0.3118  0.3576 -0.3666
 6292SOL    HW224940   4.082   3.928   1.482 -0.6412  2.0702 -1.1048
 6292SOL    HW324941   4.166   4.040   1.540  0.8720 -0.3284  1.6250
 6292SOL    MW424942   4.160   3.960   1.505  0.1220  0.2517  0.2736
 6293SOL     OW24943   0.451   5.214   0.726  0.1799 -0.1707 -0.4558
 6293SOL    HW224944   0.410   5.128   0.720  0.6349 -0.2996 -3.7009
 6293SOL    HW324945   0.388   5.274   0.685  0.5036  0.7874  0.4053
 6293SOL    MW424946   0.438   5.211   0.720 -0.1138 -0.0309  0.3090
 6294SOL     OW24947   5.720   2.356   4.018  0.1987  0.1066 -0.3367
 6294SOL    HW224948   5.772   2.293   4.069 -0.7718 -0.6958 -0.3005
 6294SOL    HW324949   5.746   2.441   4.052 -0.2656 -0.3883  1.3801
 6294SOL    MW424950   5.730   2.359   4.030 -0.6208  0.5004 -0.0618
 6295SOL     OW24951   1.106   5.950   2.144 -0.6405  0.3935 -0.5908
 6295SOL    HW224952   1.036   5.894   2.178 -0.0597 -0.2521 -0.4363
 6295SOL    HW324953   1.063   6.034   2.126 -1.6696 -0.2897 -1.4442
 6295SOL    MW424954   1.091   5.954   2.146  0.2455  0.3541  0.2855
 6296SOL     OW24955   1.811   1.110   5.907  0.0444 -0.2209 -0.3732
 6296SOL    HW224956   1.765   1.153   5.835  0.8089  0.1881 -0.6347
 6296SOL    HW324957   1.904   1.127   5.890  0.2878 -0.8515  0.2457
 6296SOL    MW424958   1.817   1.118   5.896 -0.0398 -0.7132  0.7664
 6297SOL     OW24959   5.518   4.584   4.071  0.6767  0.2273 -0.2443
 6297SOL    HW224960   5.555   4.590   4.159 -1.4629  1.7830  0.6303
 6297SOL    HW324961   5.572   4.641   4.017  1.4250 -0.0001  0.2508
 6297SOL    MW424962   5.530   4.592   4.076  0.0112  0.3255 -0.2278
 6298SOL     OW24963   0.849   3.799   1.401  0.7256 -0.3216 -0.0584
 6298SOL    HW224964   0.938   3.799   1.437  0.7342  1.4941 -0.0203
 6298SOL    HW324965   0.811   3.882   1.429 -0.4758 -0.3943 -1.3574
 6298SOL    MW424966   0.856   3.810   1.409 -0.1646  0.3533  0.7567
 6299SOL     OW24967   0.290   1.832   4.293  0.0301 -0.4386 -0.0426
 6299SOL    HW224968   0.381   1.813   4.272  0.3154 -2.4348  2.5498
 6299SOL    HW324969   0.292   1.861   4.384 -2.0134 -1.7151  0.4722
 6299SOL    MW424970   0.302   1.834   4.302  0.1956  0.4957 -0.1307
 6300SOL     OW24971   3.361   5.855   5.156  0.1017 -0.3961  0.0926
 6300SOL    HW224972   3.344   5.890   5.068  0.4974  0.3944  0.3232
 6300SOL    HW324973   3.281   5.872   5.205 -0.9947 -2.8492 -0.7032
 6300SOL    MW424974   3.348   5.862   5.151  0.4076  0.3770 -0.3676
 6301SOL     OW24975   3.802   0.755   4.407  0.0454  0.5643  0.0251
 6301SOL    HW224976   3.861   0.681   4.420  1.4794  1.6729  0.0340
 6301SOL    HW324977   3.728   0.738   4.466  0.5549 -0.6370  0.3299
 6301SOL    MW424978   3.800   0.743   4.417  0.0971  0.1209  0.7269
 6302SOL     OW24979   5.260   0.126   4.490 -0.5137  0.1936 -0.0764
 6302SOL    HW224980   5.342   0.079   4.473 -1.5033 -1.8985  0.6804
 6302SOL    HW324981   5.269   0.159   4.579 -0.2888  0.4566 -0.1933
 6302SOL    MW424982   5.272   0.124   4.499  0.2236  0.2868 -0.1109
 6303SOL     OW24983   4.640   0.163   5.030  0.1820 -0.1847 -0.0669
 6303SOL    HW224984   4.653   0.077   5.071 -0.2805 -1.3388 -2.1952
 6303SOL    HW324985   4.643   0.225   5.103 -0.3255 -2.0763  1.6641
 6303SOL    MW424986   4.642   0.160   5.045 -0.0027  0.3298  0.0680
 6304SOL     OW24987   6.141   0.234   5.924 -0.8927  0.7067  0.3198
 6304SOL    HW224988   6.058   0.191   5.945 -0.8843  0.5943  0.1259
 6304SOL    HW324989   6.201   0.203   5.992 -1.0625  0.9515  0.5811
 6304SOL    MW424990   6.138   0.224   5.936  0.3302  0.0351 -0.6808
 6305SOL     OW24991   4.605   3.459   3.584 -0.4984 -0.7575  0.3984
 6305SOL    HW224992   4.557   3.438   3.504  0.5656 -0.0537 -0.4693
 6305SOL    HW324993   4.696   3.469   3.555 -0.2013  0.2242  1.5597
 6305SOL    MW424994   4.611   3.458   3.569 -0.8294  0.0761 -0.0651
 6306SOL     OW24995   5.708   0.767   3.473  0.2943 -0.4140 -0.7716
 6306SOL    HW224996   5.677   0.843   3.522  0.0598 -1.5733  0.9662
 6306SOL    HW324997   5.787   0.739   3.520  0.5806 -1.0204 -1.5995
 6306SOL    MW424998   5.715   0.774   3.486  0.1987 -0.3412 -0.0393
 6307SOL     OW24999   2.319   2.206   4.822  0.2095 -0.4891 -0.1531
 6307SOL    HW225000   2.387   2.145   4.794 -1.0363 -1.2876 -1.6087
 6307SOL    HW325001   2.252   2.200   4.754 -1.7474 -0.4339  1.6693
 6307SOL    MW425002   2.319   2.197   4.809 -0.5202 -0.1980 -0.0831
 6308SOL     OW25003   3.142   0.782   5.803  0.4838 -0.2128  0.3250
 6308SOL    HW225004   3.234   0.780   5.780  0.7688 -0.2571  1.4351
 6308SOL    HW325005   3.096   0.783   5.718  1.4664 -1.0459 -0.2385
 6308SOL    MW425006   3.148   0.782   5.789  0.0822 -0.2423 -0.3054
 6309SOL     OW25007   1.738   4.836   4.628 -0.0392  0.0351 -0.4231
 6309SOL    HW225008   1.824   4.794   4.632 -0.0802  0.0035  0.1936
 6309SOL    HW325009   1.717   4.837   4.535  0.2274 -0.7652 -0.5023
 6309SOL    MW425010   1.747   4.831   4.616  0.4533  0.3031 -0.0438
 6310SOL     OW25011   4.341   4.385   0.562 -0.3758 -0.1387 -0.2928
 6310SOL    HW225012   4.360   4.478   0.550 -1.0439  0.0865  0.3322
 6310SOL    HW325013   4.249   4.382   0.588 -0.2974 -0.9594 -0.0740
 6310SOL    MW425014   4.331   4.397   0.564  0.4854 -0.3637  0.2847
 6311SOL     OW25015   0.148   0.152   4.277  0.7454  0.5953  0.0327
 6311SOL    HW225016   0.188   0.136   4.192  0.9824  0.6693  0.1300
 6311SOL    HW325017   0.086   0.224   4.261  0.1835  0.0511 -0.2541
 6311SOL    MW425018   0.145   0.160   4.264 -0.1058 -0.3968 -0.7788
 6312SOL     OW25019   0.326   4.783   5.764 -0.1149  0.5662 -0.3892
 6312SOL    HW225020   0.395   4.717   5.767  0.6232  1.3098 -0.7545
 6312SOL    HW325021   0.290   4.776   5.676  0.4399  1.1188 -0.6666
 6312SOL    MW425022   0.330   4.773   5.753  0.2903 -0.0917 -0.2700
 6313SOL     OW25023   0.639   5.837   2.197 -0.0128 -0.1845  0.3229
 6313SOL    HW225024   0.590   5.919   2.190 -1.8092 -1.0916  1.6803
 6313SOL    HW325025   0.596   5.778   2.136  0.0305 -0.6792  0.7637
 6313SOL    MW425026   0.627   5.840   2.188  0.2699 -0.8092 -0.4483
 6314SOL     OW25027   4.495   3.823   5.719  0.0856 -0.5292  0.4891
 6314SOL    HW225028   4.588   3.827   5.693 -0.1929 -0.8954 -0.6447
 6314SOL    HW325029   4.454   3.771   5.650 -1.3129  1.2409 -0.0737
 6314SOL    MW425030   4.502   3.817   5.706 -0.3544 -0.1005  0.7443
 6315SOL     OW25031   4.181   4.835   4.146  0.1601  0.0231  0.7810
 6315SOL    HW225032   4.146   4.913   4.190  0.7673  0.8397 -0.1278
 6315SOL    HW325033   4.115   4.767   4.161 -0.4344  0.7390  1.5035
 6315SOL    MW425034   4.168   4.837   4.154 -0.0867 -0.3272  0.2822
 6316SOL     OW25035   1.175   4.520   1.982  0.2434  0.0799 -0.2287
 6316SOL    HW225036   1.227   4.549   2.057  0.4264  1.4126 -0.8416
 6316SOL    HW325037   1.182   4.425   1.983  0.6441  0.0993  1.1521
 6316SOL    MW425038   1.183   4.512   1.992  0.1994 -0.2028 -0.2293
 6317SOL     OW25039   4.193   4.216   1.578 -0.5130  0.2300  0.3475
 6317SOL    HW225040   4.118   4.259   1.537 -0.5761 -0.3083 -0.1191
 6317SOL    HW325041   4.169   4.210   1.670  0.2663  2.8328  0.8151
 6317SOL    MW425042   4.180   4.221   1.585 -0.9960  0.4508  0.9553
 6318SOL     OW25043   3.489   1.376   3.377 -0.1500  0.3524 -0.6106
 6318SOL    HW225044   3.436   1.329   3.442 -0.5936 -0.8428 -1.7690
 6318SOL    HW325045   3.538   1.441   3.428  0.9172 -1.7112  1.2091
 6318SOL    MW425046   3.489   1.378   3.393 -0.0575  0.4059  0.0120
 6319SOL     OW25047   1.110   6.105   4.149 -0.3271 -0.2023  0.3438
 6319SOL    HW225048   1.088   6.011   4.147 -0.0186 -0.2701 -0.3949
 6319SOL    HW325049   1.194   6.110   4.104  0.5176  0.2203  1.9070
 6319SOL    MW425050   1.118   6.093   4.142 -0.2026 -0.5131 -0.0490
 6320SOL     OW25051   1.551   6.059   3.767  0.3818 -0.6323 -0.3871
 6320SOL    HW225052   1.462   6.083   3.740  0.8243  1.1431 -0.3774
 6320SOL    HW325053   1.576   5.989   3.707 -1.0811 -1.3008 -0.2667
 6320SOL    MW425054   1.543   6.053   3.755 -0.0591  0.3795 -0.8838
 6321SOL     OW25055   5.119   4.595   0.727  0.2168  0.4179  0.2303
 6321SOL    HW225056   5.107   4.535   0.801 -0.6365  1.5787  1.0772
 6321SOL    HW325057   5.110   4.683   0.766 -0.1352  1.0546 -1.2312
 6321SOL    MW425058   5.116   4.599   0.742 -0.0524  0.5557  0.7024
 6322SOL     OW25059   2.979   4.650   1.700  0.0657  0.1837 -0.6079
 6322SOL    HW225060   2.979   4.732   1.650 -1.0765  0.4330 -0.2151
 6322SOL    HW325061   3.072   4.629   1.710  0.3847  1.4911 -0.6230
 6322SOL    MW425062   2.991   4.658   1.695 -0.8400 -0.0216  0.0594
 6323SOL     OW25063   6.277   3.512   4.556 -0.0622  0.1956 -0.1848
 6323SOL    HW225064   6.190   3.526   4.594 -0.2824 -1.2019 -0.1116
 6323SOL    HW325065   6.265   3.524   4.462 -0.3833 -0.2260 -0.1976
 6323SOL    MW425066   6.264   3.516   4.549 -0.1460  0.6025 -0.4462
 6324SOL     OW25067   2.360   2.851   2.009 -0.4007 -0.1258  0.2574
 6324SOL    HW225068   2.270   2.839   2.038  0.5203 -2.1977  2.6465
 6324SOL    HW325069   2.407   2.879   2.088  1.3458 -0.7475 -0.5150
 6324SOL    MW425070   2.355   2.853   2.023  0.0085  0.1861 -0.0351
 6325SOL     OW25071   0.220   5.125   5.161 -0.1092  0.1114 -0.0928
 6325SOL    HW225072   0.278   5.173   5.221 -1.7320  1.1690  0.6912
 6325SOL    HW325073   0.209   5.183   5.086  0.3192 -0.3642 -0.5371
 6325SOL    MW425074   0.226   5.139   5.159  0.0405  0.0167 -0.1376
 6326SOL     OW25075   6.220   3.936   5.128  0.3158  0.3283  0.6366
 6326SOL    HW225076   6.170   4.017   5.135 -0.2272  0.2497 -1.6682
 6326SOL    HW325077   6.311   3.964   5.125  0.1711  0.7968  0.6237
 6326SOL    MW425078   6.226   3.950   5.129  0.7813 -0.2504 -0.2585
 6327SOL     OW25079   3.946   1.078   0.116 -0.1095 -0.5879 -0.1264
 6327SOL    HW225080   3.890   1.137   0.065 -0.3523 -1.8359 -1.3578
 6327SOL    HW325081   4.030   1.080   0.069  0.2122 -0.4134  0.4474
 6327SOL    MW425082   3.950   1.086   0.103 -0.5033 -0.0005 -0.2075
 6328SOL     OW25083   5.974   5.351   4.723  0.7156  0.2067  0.0099
 6328SOL    HW225084   5.901   5.288   4.728  0.9716 -0.1474 -0.5733
 6328SOL    HW325085   5.948   5.411   4.653  1.2344 -0.2542 -0.5847
 6328SOL    MW425086   5.961   5.350   4.714 -0.3773  0.1823  0.0346
 6329SOL     OW25087   3.547   4.775   1.154 -0.2589 -0.1589 -0.3790
 6329SOL    HW225088   3.584   4.711   1.093 -0.5630 -0.6874 -0.0193
 6329SOL    HW325089   3.487   4.828   1.100 -0.2048 -0.3452 -0.6243
 6329SOL    MW425090   3.544   4.774   1.139  0.5460 -0.3549  0.1850
 6330SOL     OW25091   5.912   5.201   3.734 -0.1958 -0.6681  0.2392
 6330SOL    HW225092   5.858   5.138   3.781 -0.3254 -1.1630 -0.5616
 6330SOL    HW325093   5.857   5.232   3.663 -0.9732  2.0830  1.8938
 6330SOL    MW425094   5.898   5.197   3.731  0.1666 -0.6078 -0.5356
 6331SOL     OW25095   3.562   2.932   0.719  0.3747 -0.0133 -0.0896
 6331SOL    HW225096   3.486   2.952   0.665  0.1162  1.1993  0.7014
 6331SOL    HW325097   3.631   2.989   0.685  0.1978  0.7852  0.8744
 6331SOL    MW425098   3.561   2.942   0.707  0.2617  0.0352 -0.4662
 6332SOL     OW25099   0.735   3.649   3.963  1.4121 -0.1471  0.2255
 6332SOL    HW225100   0.659   3.659   4.021  1.2253 -0.6471  0.0711
 6332SOL    HW325101   0.712   3.700   3.885  0.0953 -2.3590 -0.9168
 6332SOL    MW425102   0.722   3.657   3.960  0.0853 -0.1495 -0.0523
 6333SOL     OW25103   0.684   3.622   6.050  0.0032  0.1618  0.0229
 6333SOL    HW225104   0.644   3.646   5.966  0.6038  1.7837  0.1601
 6333SOL    HW325105   0.778   3.628   6.034  0.1368  1.7537  1.0973
 6333SOL    MW425106   0.691   3.626   6.037 -0.0711 -0.1819 -0.5032
 6334SOL     OW25107   2.901   0.742   2.031  0.4450  0.0639 -0.1758
 6334SOL    HW225108   2.921   0.664   2.084 -0.4472  0.7792  1.2501
 6334SOL    HW325109   2.931   0.718   1.943 -0.2618 -2.0859  0.1052
 6334SOL    MW425110   2.908   0.728   2.027 -0.2058 -0.6188  0.1584
 6335SOL     OW25111   1.898   1.900   5.980 -0.4033 -0.5737  0.2530
 6335SOL    HW225112   1.871   1.858   5.898 -1.4199  0.5243 -0.0099
 6335SOL    HW325113   1.817   1.904   6.031 -1.2964  4.0423 -1.0703
 6335SOL    MW425114   1.883   1.895   5.976  0.1442 -0.4684 -0.3781
 6336SOL     OW25115   4.740   4.890   1.076  0.3319 -0.3619 -0.5250
 6336SOL    HW225116   4.783   4.818   1.030  1.2595  0.1520 -0.4965
 6336SOL    HW325117   4.775   4.886   1.165  0.4999  0.1959 -0.5579
 6336SOL    MW425118   4.751   4.880   1.082  0.3923  0.1155 -0.7603
 6337SOL     OW25119   5.258   4.574   4.520  0.1115  0.4400  0.1074
 6337SOL    HW225120   5.165   4.556   4.529 -0.7197  3.6791 -0.5885
 6337SOL    HW325121   5.287   4.514   4.451 -1.8701  0.4825 -0.8324
 6337SOL    MW425122   5.250   4.564   4.512  0.0407 -0.2261  0.3316
 6338SOL     OW25123   4.458   0.643   4.417 -0.5225  0.5598  0.3008
 6338SOL    HW225124   4.502   0.613   4.497 -0.3526 -1.9620 -0.6347
 6338SOL    HW325125   4.530   0.671   4.359 -0.3965 -0.2647  0.0429
 6338SOL    MW425126   4.473   0.642   4.420  0.0846  0.1300 -0.2617
 6339SOL     OW25127   3.013   2.942   0.872 -0.7328 -0.3648  1.1675
 6339SOL    HW225128   3.098   2.983   0.889  0.6534 -0.8637 -3.3512
 6339SOL    HW325129   2.954   3.016   0.854  0.7486  0.0946 -2.8485
 6339SOL    MW425130   3.016   2.957   0.872  0.4508  0.4461  0.8146
 6340SOL     OW25131   4.298   5.685   5.706  0.4923 -0.8213 -0.2147
 6340SOL    HW225132   4.328   5.737   5.632 -0.4431 -0.7841 -0.5860
 6340SOL    HW325133   4.371   5.685   5.767  1.3678 -1.0541 -1.2423
 6340SOL    MW425134   4.311   5.692   5.704 -0.3020 -0.5525 -0.3750
 6341SOL     OW25135   1.658   4.088   4.950  0.0471 -0.1897  0.1756
 6341SOL    HW225136   1.703   4.161   4.993 -2.2468 -0.0209  2.5506
 6341SOL    HW325137   1.679   4.012   5.004 -0.4412 -0.5911 -0.1929
 6341SOL    MW425138   1.666   4.088   4.963 -0.6894 -0.4178 -0.0953
 6342SOL     OW25139   0.388   4.398   6.367  0.1029 -0.0217 -0.0406
 6342SOL    HW225140   0.387   4.454   6.289 -1.3198 -1.2885 -0.9846
 6342SOL    HW325141   0.384   4.459   6.440 -2.1692  1.1682 -1.0487
 6342SOL    MW425142   0.387   4.413   6.366 -0.2299 -0.1799 -0.0290
 6343SOL     OW25143   4.004   3.614   1.082  0.5670  0.7133  0.0830
 6343SOL    HW225144   4.041   3.568   1.006  0.8174  3.1791 -1.3817
 6343SOL    HW325145   4.080   3.637   1.135  0.4739 -0.1789  0.6223
 6343SOL    MW425146   4.019   3.611   1.079  0.0310  0.4707 -0.4541
 6344SOL     OW25147   1.828   3.325   1.567 -0.0559  0.0547  0.0284
 6344SOL    HW225148   1.756   3.268   1.540 -1.7607  2.1142  0.0299
 6344SOL    HW325149   1.863   3.359   1.484  0.7721 -0.7224  0.0431
 6344SOL    MW425150   1.823   3.322   1.552 -0.6803 -0.5494 -0.0251
 6345SOL     OW25151   0.568   4.076   4.438 -0.1186 -0.2177  0.2755
 6345SOL    HW225152   0.558   4.073   4.343  0.3743 -0.1688  0.2171
 6345SOL    HW325153   0.527   3.996   4.470 -1.7585  0.5432  0.1679
 6345SOL    MW425154   0.561   4.065   4.430 -0.2979 -0.2121 -0.0949
 6346SOL     OW25155   2.090   1.359   0.664  0.4044 -0.0184  0.1955
 6346SOL    HW225156   2.046   1.302   0.727 -0.4380  0.7400  0.3097
 6346SOL    HW325157   2.183   1.341   0.676  0.1647 -1.2221  0.3641
 6346SOL    MW425158   2.097   1.349   0.674  0.0861 -0.2123 -0.2187
 6347SOL     OW25159   5.093   4.373   3.933  0.6683  0.1992 -0.4515
 6347SOL    HW225160   5.029   4.361   4.004  3.3151  2.3718  2.6084
 6347SOL    HW325161   5.145   4.293   3.934  0.6707  0.2004  0.1193
 6347SOL    MW425162   5.092   4.361   3.943 -0.1527 -0.6533 -0.4428
 6348SOL     OW25163   0.436   0.917   4.647  0.2285 -0.1833 -0.3935
 6348SOL    HW225164   0.518   0.873   4.626 -0.1438 -0.3286 -1.6356
 6348SOL    HW325165   0.463   1.004   4.678  0.8874 -0.6501  0.3808
 6348SOL    MW425166   0.451   0.923   4.648  0.4862 -0.4101  0.5735
 6349SOL     OW25167   3.331   4.114   1.262 -0.4004  0.0894  0.6377
 6349SOL    HW225168   3.346   4.053   1.190 -1.7243  2.1102 -1.4875
 6349SOL    HW325169   3.419   4.135   1.294  0.2886 -0.0858 -1.0736
 6349SOL    MW425170   3.345   4.109   1.257  0.1564 -0.1441 -0.2856
 6350SOL     OW25171   1.459   5.484   5.415 -0.1843 -0.1050 -0.4350
 6350SOL    HW225172   1.430   5.566   5.374 -0.3279 -0.4885 -1.1108
 6350SOL    HW325173   1.517   5.444   5.350  0.3208 -0.2847  0.1139
 6350SOL    MW425174   1.463   5.490   5.401 -0.4241  0.4697 -0.1077
 6351SOL     OW25175   5.724   2.641   3.054  0.0158  0.2810  0.2236
 6351SOL    HW225176   5.790   2.706   3.028 -0.5111  0.5053 -0.6250
 6351SOL    HW325177   5.759   2.601   3.133  1.2757  0.2441 -0.3193
 6351SOL    MW425178   5.737   2.644   3.061  0.0209 -0.8693 -0.0803
 6352SOL     OW25179   3.754   3.761   3.812  0.6586  0.5905  0.1296
 6352SOL    HW225180   3.768   3.671   3.840 -1.2812  0.4830  0.9685
 6352SOL    HW325181   3.802   3.769   3.729 -0.6551 -1.8048 -0.9670
 6352SOL    MW425182   3.762   3.750   3.805  0.4142 -0.3600 -0.4836
 6353SOL     OW25183   3.948   2.061   3.915  0.2300 -0.3228  0.0715
 6353SOL    HW225184   4.038   2.074   3.945  0.6585 -1.8759 -0.4140
 6353SOL    HW325185   3.938   1.966   3.910 -1.8171 -0.2249  1.1914
 6353SOL    MW425186   3.959   2.050   3.918  0.2764  0.1618  0.1133
 6354SOL     OW25187   0.086   2.255   4.898  0.1734  0.2970  0.3803
 6354SOL    HW225188   0.080   2.329   4.838  2.0488 -0.5470 -0.9597
 6354SOL    HW325189   0.161   2.204   4.866 -0.6694 -1.8560  1.6015
 6354SOL    MW425190   0.095   2.258   4.886 -0.3620 -0.4339 -0.2072
 6355SOL     OW25191   5.396   3.707   0.513 -0.3488  0.3445  0.1679
 6355SOL    HW225192   5.362   3.795   0.527  1.0743  0.5251  3.3149
 6355SOL    HW325193   5.464   3.717   0.447  2.0393  2.3332  2.7297
 6355SOL    MW425194   5.400   3.720   0.506 -0.9012  0.1956 -0.0862
 6356SOL     OW25195   0.907   3.784   1.752 -0.0051 -0.8832  0.2272
 6356SOL    HW225196   0.970   3.714   1.740 -0.8771 -1.7431  0.5197
 6356SOL    HW325197   0.836   3.744   1.803 -1.0558 -0.1168 -0.5920
 6356SOL    MW425198   0.906   3.770   1.757 -0.5380 -0.3158  0.0702
 6357SOL     OW25199   5.717   2.995   0.072 -0.4056  0.1137  0.1079
 6357SOL    HW225200   5.788   3.034   0.021 -0.9785  1.3693  0.2392
 6357SOL    HW325201   5.665   2.946   0.009 -1.8633  2.6975 -0.8636
 6357SOL    MW425202   5.720   2.994   0.057  0.2357  0.4465 -0.3105
 6358SOL     OW25203   6.023   5.235   3.389 -0.6363  0.5179 -0.0726
 6358SOL    HW225204   5.941   5.258   3.346  0.6382  1.2975 -2.2261
 6358SOL    HW325205   6.068   5.319   3.401  0.5290 -0.0521 -0.3839
 6358SOL    MW425206   6.018   5.249   3.385 -0.0211 -0.6371  0.1383
 6359SOL     OW25207   5.146   1.031   0.496  0.4929 -0.8826 -0.5007
 6359SOL    HW225208   5.188   1.020   0.581  0.2949 -0.6318 -0.3697
 6359SOL    HW325209   5.052   1.018   0.514  0.3469  0.0781 -0.5096
 6359SOL    MW425210   5.139   1.028   0.509 -0.2110 -0.1390 -0.3715
 6360SOL     OW25211   1.921   0.256   3.558  0.1057  0.6597 -0.1266
 6360SOL    HW225212   1.953   0.235   3.470  2.4448  1.7309  0.3976
 6360SOL    HW325213   1.856   0.188   3.577  0.2413 -0.1392 -2.3024
 6360SOL    MW425214   1.917   0.244   3.549  0.1641 -0.8388 -0.1653
 6361SOL     OW25215   0.286   3.531   5.960 -0.0585 -0.0500 -0.3424
 6361SOL    HW225216   0.195   3.551   5.980  0.0162  0.3144 -0.3523
 6361SOL    HW325217   0.294   3.545   5.865  0.3812  1.4956 -0.1159
 6361SOL    MW425218   0.275   3.536   5.950  0.2627  0.7269  0.5041
 6362SOL     OW25219   1.011   3.138   0.252 -0.5948 -0.0994  0.1730
 6362SOL    HW225220   1.100   3.144   0.216 -0.3913 -0.5268  0.6018
 6362SOL    HW325221   1.024   3.131   0.346 -1.1546  2.1536  0.4867
 6362SOL    MW425222   1.025   3.138   0.259  0.1582 -0.5561 -0.0586
 6363SOL     OW25223   6.303   0.452   1.854 -0.5406  0.0630  1.0481
 6363SOL    HW225224   6.253   0.493   1.784  0.4053 -1.3289 -0.5156
 6363SOL    HW325225   6.284   0.505   1.932 -2.9237  0.6618  0.1186
 6363SOL    MW425226   6.294   0.465   1.855 -1.1370 -0.6091  0.1534
 6364SOL     OW25227   4.495   4.317   6.173  0.1776  0.4273 -0.3698
 6364SOL    HW225228   4.488   4.317   6.077 -0.8581  2.4956 -0.3504
 6364SOL    HW325229   4.588   4.333   6.190  0.8347 -2.3514 -0.9560
 6364SOL    MW425230   4.507   4.319   6.162  0.0173 -0.1661  0.3091
 6365SOL     OW25231   4.787   3.445   1.310 -0.6339 -0.1046 -0.0596
 6365SOL    HW225232   4.824   3.533   1.320 -1.0339  0.1428 -0.6491
 6365SOL    HW325233   4.812   3.419   1.221 -2.1253  0.2125 -0.6049
 6365SOL    MW425234   4.795   3.454   1.300  0.2533 -0.3656 -0.0905
 6366SOL     OW25235   1.893   6.098   1.585  0.3201 -0.0851  0.0581
 6366SOL    HW225236   1.910   6.181   1.628 -0.3281 -0.4629  1.0757
 6366SOL    HW325237   1.802   6.076   1.609 -0.2255 -0.1015 -1.8466
 6366SOL    MW425238   1.883   6.106   1.594  0.1191  0.1235 -0.1232
 6367SOL     OW25239   1.039   5.048   0.101  0.2591 -0.2352  0.4742
 6367SOL    HW225240   1.057   5.126   0.050  2.3659 -0.7141  0.3867
 6367SOL    HW325241   0.958   5.067   0.148 -0.3976  1.1484 -1.1640
 6367SOL    MW425242   1.031   5.061   0.101  0.2282 -0.2077  0.8906
 6368SOL     OW25243   6.316   2.022   0.203 -1.0212 -0.7658 -0.2617
 6368SOL    HW225244   6.276   1.937   0.185 -3.0989 -0.6799  3.1694
 6368SOL    HW325245   6.401   2.001   0.241  0.0279 -1.1020 -2.6244
 6368SOL    MW425246   6.322   2.008   0.205  0.2249  0.7661 -0.0026
 6369SOL     OW25247   4.304   5.179   5.095 -0.2081 -0.1115 -0.1945
 6369SOL    HW225248   4.394   5.190   5.125 -0.5593  0.2783  0.7512
 6369SOL    HW325249   4.254   5.162   5.175 -1.3382  1.9451 -0.4149
 6369SOL    MW425250   4.309   5.178   5.109 -0.1212  0.0229 -0.0473
 6370SOL     OW25251   0.378   2.825   5.599  0.5894  0.2637 -0.0024
 6370SOL    HW225252   0.423   2.847   5.680  2.2325 -0.6412 -0.6231
 6370SOL    HW325253   0.321   2.752   5.622  0.2253  0.7168  0.5601
 6370SOL    MW425254   0.376   2.819   5.613  0.0542 -0.2405  0.0309
 6371SOL     OW25255   0.491   3.889   2.355  0.5264  0.1875 -0.7048
 6371SOL    HW225256   0.421   3.951   2.336  1.0503  0.6290 -1.2612
 6371SOL    HW325257   0.493   3.884   2.450  1.8381  2.6765 -0.5144
 6371SOL    MW425258   0.482   3.897   2.365  0.1853  0.2702  0.8356
 6372SOL     OW25259   0.748   3.356   1.333 -0.2181  0.0776  0.2931
 6372SOL    HW225260   0.767   3.439   1.290  2.0807 -0.2039  0.6295
 6372SOL    HW325261   0.724   3.296   1.262  1.9505  0.0444 -0.4820
 6372SOL    MW425262   0.747   3.359   1.318  0.5595 -0.5236 -0.5433
 6373SOL     OW25263   4.581   2.220   1.765  0.3297  0.4100  0.2992
 6373SOL    HW225264   4.539   2.202   1.850  1.0061  0.2724  0.6089
 6373SOL    HW325265   4.657   2.162   1.763 -0.4218 -0.5861 -0.9936
 6373SOL    MW425266   4.585   2.210   1.776 -0.5115  0.1418  0.4554
 6374SOL     OW25267   4.374   0.088   1.817 -0.3757  0.0665  0.3228
 6374SOL    HW225268   4.450   0.143   1.837 -0.1678 -0.0346 -0.1761
 6374SOL    HW325269   4.299   0.142   1.839 -0.1696  0.5076 -0.0493
 6374SOL    MW425270   4.374   0.102   1.822 -0.7536  0.1211 -0.1724
 6375SOL     OW25271   0.940   2.613   1.278  0.0558  0.5862 -0.1369
 6375SOL    HW225272   1.031   2.642   1.285  0.4909 -0.9218  1.2243
 6375SOL    HW325273   0.922   2.571   1.362 -1.7781  0.4970 -0.5393
 6375SOL    MW425274   0.950   2.611   1.290  0.1395 -1.0435 -0.0577
 6376SOL     OW25275   2.801   5.945   5.459 -0.6111  0.1841 -0.0660
 6376SOL    HW225276   2.855   6.008   5.410  0.0733 -0.5090 -0.2265
 6376SOL    HW325277   2.836   5.949   5.548 -1.7409  1.3155  0.3577
 6376SOL    MW425278   2.813   5.954   5.464  0.2982  0.0679 -0.3730
 6377SOL     OW25279   1.261   0.064   3.880 -0.4012 -0.4215 -0.0675
 6377SOL    HW225280   1.200  -0.005   3.854  0.1494  0.1525 -3.3496
 6377SOL    HW325281   1.341   0.018   3.903 -0.5692 -0.9634 -0.5549
 6377SOL    MW425282   1.263   0.049   3.879  0.3175 -0.4983 -0.0203
 6378SOL     OW25283   0.466   1.076   4.961  0.1547 -0.1827 -0.4159
 6378SOL    HW225284   0.495   1.106   4.875  4.3952 -4.3851 -0.8836
 6378SOL    HW325285   0.391   1.020   4.944  0.8903 -0.8834 -1.4677
 6378SOL    MW425286   0.460   1.073   4.948 -0.2200  0.0668  0.3458
 6379SOL     OW25287   0.391   2.953   2.382 -0.1854  0.7636 -0.1637
 6379SOL    HW225288   0.340   2.929   2.459  0.9233  0.0758  0.3711
 6379SOL    HW325289   0.466   3.001   2.416  0.7563 -0.2607 -0.7017
 6379SOL    MW425290   0.394   2.956   2.396 -0.1144  0.6073 -0.7470
 6380SOL     OW25291   6.376   5.188   4.233  0.1797 -0.3039 -0.0352
 6380SOL    HW225292   6.417   5.120   4.286  2.6442  1.1295  0.0524
 6380SOL    HW325293   6.411   5.175   4.145  1.1513  1.1555  0.1050
 6380SOL    MW425294   6.386   5.178   4.228 -0.2710  0.0728 -0.3608
 6381SOL     OW25295   4.736   4.597   0.444 -0.6919  0.6602  0.3304
 6381SOL    HW225296   4.692   4.532   0.388  0.4494 -0.7756  1.0266
 6381SOL    HW325297   4.816   4.620   0.397  0.5536 -0.9695  1.5244
 6381SOL    MW425298   4.740   4.591   0.431  0.3064 -0.0277 -0.2567
 6382SOL     OW25299   6.119   6.140   3.665  0.2262 -0.7924  0.3747
 6382SOL    HW225300   6.059   6.124   3.738  1.4544 -1.7728  1.2305
 6382SOL    HW325301   6.099   6.071   3.601  0.1878 -0.9043  0.5063
 6382SOL    MW425302   6.109   6.129   3.666  0.5601  0.3671  0.5482
 6383SOL     OW25303   2.684   0.082   1.800  0.8237 -1.0724  0.1264
 6383SOL    HW225304   2.726   0.059   1.717 -0.0554  0.2815 -0.7514
 6383SOL    HW325305   2.633   0.005   1.824  2.1155 -1.9605  0.1211
 6383SOL    MW425306   2.683   0.069   1.792 -0.5386 -0.4768 -0.2828
 6384SOL     OW25307   3.995   3.891   6.060 -0.0438  0.0545  0.3956
 6384SOL    HW225308   4.022   3.983   6.062 -1.8245  0.6743 -1.2058
 6384SOL    HW325309   4.010   3.860   6.149  0.2934  2.0044  1.0696
 6384SOL    MW425310   4.000   3.899   6.072 -0.1087  0.2628 -0.4431
 6385SOL     OW25311   3.545   0.611   0.758  0.2029 -0.0799  0.0234
 6385SOL    HW225312   3.548   0.549   0.685  1.1927 -0.6848  0.5515
 6385SOL    HW325313   3.479   0.576   0.817  0.6421 -0.5478  0.2412
 6385SOL    MW425314   3.537   0.599   0.756  0.6424 -0.0843  0.3785
 6386SOL     OW25315   0.896   0.053   4.030  0.2445  0.4024 -0.5543
 6386SOL    HW225316   0.855   0.080   4.112 -2.2584 -1.1258 -1.1913
 6386SOL    HW325317   0.899  -0.042   4.034  2.6349  0.3822 -1.1582
 6386SOL    MW425318   0.891   0.044   4.041  0.7642 -0.2593 -0.2578
 6387SOL     OW25319   1.304   0.775   6.408  0.0682  0.2976  0.0929
 6387SOL    HW225320   1.344   0.715   6.471 -1.9132 -0.6684  0.5114
 6387SOL    HW325321   1.217   0.792   6.443 -0.1603  1.7858 -1.1088
 6387SOL    MW425322   1.298   0.769   6.421 -0.3032  0.1140  0.5494
 6388SOL     OW25323   0.760   3.726   2.629 -0.2393 -0.1505 -0.2810
 6388SOL    HW225324   0.840   3.673   2.626 -1.3438 -1.8574 -2.8239
 6388SOL    HW325325   0.761   3.775   2.547 -2.1499 -0.8306 -0.7633
 6388SOL    MW425326   0.771   3.725   2.617 -0.0015  0.5044  0.5305
 6389SOL     OW25327   4.114   5.969   2.891  0.2364  0.0678 -0.2882
 6389SOL    HW225328   4.027   6.005   2.871  0.1814 -0.2490 -0.6423
 6389SOL    HW325329   4.111   5.952   2.985  0.0071  0.3066 -0.2487
 6389SOL    MW425330   4.102   5.972   2.901  0.6717 -0.1896  0.4041
 6390SOL     OW25331   1.974   1.493   6.159 -0.6419 -0.0855  0.3594
 6390SOL    HW225332   1.978   1.551   6.083 -2.1873 -0.6422 -0.1926
 6390SOL    HW325333   1.938   1.548   6.229 -0.8873 -0.0302  0.1925
 6390SOL    MW425334   1.970   1.508   6.159  0.2150 -0.0150  0.5100
 6391SOL     OW25335   1.275   3.879   2.002 -0.0284  0.1561  0.2641
 6391SOL    HW225336   1.191   3.893   2.046 -0.0941 -2.3341  1.0999
 6391SOL    HW325337   1.335   3.941   2.044 -0.6429 -0.5178  2.2810
 6391SOL    MW425338   1.272   3.889   2.013 -0.0349  0.5732 -0.2006
 6392SOL     OW25339   3.386   5.295   2.870 -0.0208 -0.1555  0.4180
 6392SOL    HW225340   3.417   5.335   2.951 -1.2464  1.6120  0.0662
 6392SOL    HW325341   3.371   5.203   2.892  0.1955  0.1786  2.0290
 6392SOL    MW425342   3.388   5.288   2.883  0.1754  0.6956 -0.1983
 6393SOL     OW25343   4.883   1.033   3.517  0.6123 -0.2518 -0.1751
 6393SOL    HW225344   4.888   0.947   3.558  0.0600 -1.5684 -2.6623
 6393SOL    HW325345   4.937   1.026   3.439 -0.3089  1.2980 -1.0111
 6393SOL    MW425346   4.891   1.021   3.512  0.0347  0.0924  0.2383
 6394SOL     OW25347   2.188   6.017   0.264 -0.0747  0.2563  0.0865
 6394SOL    HW225348   2.208   5.927   0.236  0.8543  0.2001  0.8921
 6394SOL    HW325349   2.093   6.018   0.275 -0.0306 -0.8259  0.7000
 6394SOL    MW425350   2.178   6.005   0.262 -0.0596  0.0165 -0.1713
 6395SOL     OW25351   1.662   0.574   5.675 -0.6065 -0.1785 -0.3227
 6395SOL    HW225352   1.597   0.614   5.733 -0.6304  1.3686 -1.3696
 6395SOL    HW325353   1.658   0.626   5.595  0.3508 -1.4594 -1.2411
 6395SOL    MW425354   1.652   0.586   5.672  0.2567 -0.1013 -0.6390
 6396SOL     OW25355   5.703   4.577   0.491 -0.0943  0.2796 -0.2520
 6396SOL    HW225356   5.697   4.573   0.395 -1.4193 -0.6640 -0.1732
 6396SOL    HW325357   5.642   4.646   0.515 -2.4508 -1.7254  0.0158
 6396SOL    MW425358   5.694   4.585   0.481  0.4130  0.0788  0.0428
 6397SOL     OW25359   2.944   2.967   5.698  0.0035  0.3678  0.4298
 6397SOL    HW225360   2.874   2.954   5.634  0.9136  0.5980 -0.6414
 6397SOL    HW325361   2.983   2.880   5.708  1.3968  0.7503 -1.1910
 6397SOL    MW425362   2.940   2.954   5.691 -0.0094 -0.5524  0.0040
 6398SOL     OW25363   0.805   3.869   3.487  0.7791  0.1836 -0.2333
 6398SOL    HW225364   0.857   3.911   3.418  0.8657  1.6179  0.6779
 6398SOL    HW325365   0.855   3.882   3.567  0.1361 -0.4767  0.2937
 6398SOL    MW425366   0.818   3.876   3.488 -0.8181  0.3024  0.8342
 6399SOL     OW25367   4.081   0.119   0.854 -0.2153  0.5097 -0.1786
 6399SOL    HW225368   4.066   0.173   0.932 -1.0736 -1.4230  1.0829
 6399SOL    HW325369   4.167   0.146   0.822 -0.6085  2.5987  0.3588
 6399SOL    MW425370   4.090   0.130   0.860 -0.1742 -0.0147 -0.0236
 6400SOL     OW25371   0.330   0.077   2.196 -0.7791  0.0590  0.3490
 6400SOL    HW225372   0.420   0.043   2.205  0.0295  2.4754  2.9033
 6400SOL    HW325373   0.274   0.000   2.210  0.8971 -1.1411  0.8221
 6400SOL    MW425374   0.335   0.062   2.199  0.1953  0.1799  0.0662
 6401SOL     OW25375   3.557   1.333   5.592  0.5794 -0.0209  0.1723
 6401SOL    HW225376   3.477   1.297   5.630  1.0643 -0.3073  0.9305
 6401SOL    HW325377   3.612   1.256   5.575  1.2545  0.2759  0.9591
 6401SOL    MW425378   3.554   1.318   5.594  0.4014 -0.5299  0.4378
 6402SOL     OW25379   4.190   4.769   1.310 -0.5855 -0.3313  0.4799
 6402SOL    HW225380   4.120   4.738   1.252  0.7225  0.8540 -1.8521
 6402SOL    HW325381   4.262   4.707   1.296 -0.1774  0.0956  0.6455
 6402SOL    MW425382   4.190   4.756   1.301 -0.3167 -0.1433 -0.3893
 6403SOL     OW25383   2.181   4.606   5.255  0.1119  0.6200 -0.5462
 6403SOL    HW225384   2.207   4.553   5.330 -0.6746  1.7431  0.5545
 6403SOL    HW325385   2.246   4.676   5.253  1.5322 -0.6532 -2.3827
 6403SOL    MW425386   2.193   4.608   5.265 -0.0456 -0.2028  0.5093
 6404SOL     OW25387   4.981   2.533   2.191 -0.8126  0.0569  0.0431
 6404SOL    HW225388   5.002   2.608   2.247 -1.5455 -0.0341  0.4555
 6404SOL    HW325389   4.944   2.468   2.250  1.1321 -1.2322 -0.0604
 6404SOL    MW425390   4.979   2.535   2.206 -0.4414 -0.0358 -0.5152
 6405SOL     OW25391   5.620   3.236   3.831  0.0987  0.3261 -0.0648
 6405SOL    HW225392   5.559   3.164   3.812 -1.0120  1.0376  0.6690
 6405SOL    HW325393   5.661   3.256   3.747  0.1699 -0.9270 -0.3477
 6405SOL    MW425394   5.617   3.229   3.817  0.0117 -0.5706 -0.2555
 6406SOL     OW25395   6.400   1.401   3.317 -0.2536 -0.0591  0.1833
 6406SOL    HW225396   6.423   1.420   3.226 -0.7207 -0.3074  0.0133
 6406SOL    HW325397   6.336   1.469   3.340 -1.4315 -1.0060 -0.2177
 6406SOL    MW425398   6.394   1.413   3.308 -0.2506 -0.4588  0.3107
 6407SOL     OW25399   1.352   5.493   0.651  0.6330  0.3757 -0.3382
 6407SOL    HW225400   1.280   5.488   0.713  0.2851  0.1443 -0.7592
 6407SOL    HW325401   1.419   5.434   0.686 -0.8108 -2.3063 -1.8130
 6407SOL    MW425402   1.352   5.485   0.664  0.0042  0.2920  0.8529
 6408SOL     OW25403   2.064   4.866   3.936 -0.0263  0.2125  0.3047
 6408SOL    HW225404   2.001   4.921   3.982  2.0805  2.0596  1.1610
 6408SOL    HW325405   2.127   4.838   4.003 -0.6226 -2.7937 -0.2329
 6408SOL    MW425406   2.064   4.869   3.951 -0.2983 -0.3902  0.1928
 6409SOL     OW25407   1.436   5.663   3.259  0.0224 -0.1773 -0.0831
 6409SOL    HW225408   1.404   5.661   3.169 -1.0154  0.0508  0.2633
 6409SOL    HW325409   1.428   5.573   3.290  0.8742 -0.3603 -0.3754
 6409SOL    MW425410   1.430   5.651   3.251  0.0375  0.2637  0.3638
 6410SOL     OW25411   2.979   4.180   2.095 -0.0088 -0.3493  0.1094
 6410SOL    HW225412   2.915   4.149   2.160  0.0522 -0.9284 -0.1013
 6410SOL    HW325413   2.952   4.137   2.014 -0.6134  1.0474 -0.4597
 6410SOL    MW425414   2.967   4.170   2.093  0.2957 -0.3639  0.2985
 6411SOL     OW25415   4.942   3.098   0.892 -0.4178 -0.0563  0.3788
 6411SOL    HW225416   4.945   3.084   0.798  1.2804 -0.0103  0.3869
 6411SOL    HW325417   4.872   3.041   0.923 -1.5553  0.5281 -0.9804
 6411SOL    MW425418   4.933   3.089   0.884 -0.1431  0.1925 -0.8104
 6412SOL     OW25419   4.215   3.624   3.279 -0.0082  0.4044  0.6180
 6412SOL    HW225420   4.205   3.714   3.249 -0.6174  0.0820 -0.1674
 6412SOL    HW325421   4.230   3.573   3.199  1.4973 -0.0502  1.1432
 6412SOL    MW425422   4.216   3.629   3.265  0.6691 -0.1628 -0.4047
 6413SOL     OW25423   4.088   1.507   6.097  0.5246  0.1208 -0.7628
 6413SOL    HW225424   4.183   1.519   6.087  0.4875  1.3065  0.0612
 6413SOL    HW325425   4.079   1.434   6.157  0.8998 -0.2694 -1.1713
 6413SOL    MW425426   4.100   1.499   6.103 -0.3758  0.0244  0.1690
 6414SOL     OW25427   1.143   2.707   3.766 -0.4353  0.4235  0.1350
 6414SOL    HW225428   1.144   2.664   3.681  1.0402  1.8696 -0.6276
 6414SOL    HW325429   1.232   2.697   3.799 -0.6668  0.9618  0.9352
 6414SOL    MW425430   1.155   2.700   3.759  0.2159  0.6605  0.4717
 6415SOL     OW25431   5.657   0.345   3.524  0.0580  0.0532  0.0151
 6415SOL    HW225432   5.612   0.422   3.489 -0.8761  0.5272  2.1152
 6415SOL    HW325433   5.748   0.373   3.531  0.0472  0.3485 -0.8643
 6415SOL    MW425434   5.663   0.359   3.520  0.2153  0.4000 -0.4448
 6416SOL     OW25435   2.355   3.601   4.413  0.2534  0.1459 -0.3514
 6416SOL    HW225436   2.333   3.693   4.397 -2.5081 -0.1827  0.9449
 6416SOL    HW325437   2.303   3.553   4.349 -0.4268 -0.5865  0.7175
 6416SOL    MW425438   2.345   3.607   4.403 -0.5624  0.7640  0.2433
 6417SOL     OW25439   6.146   1.916   1.331  0.5429 -0.6143  0.4398
 6417SOL    HW225440   6.144   1.843   1.269 -0.0368 -0.2704  0.0391
 6417SOL    HW325441   6.131   1.994   1.277  0.6449 -0.2516  0.9299
 6417SOL    MW425442   6.144   1.917   1.316 -0.1712  0.4058  0.1658
 6418SOL     OW25443   5.837   1.575   3.041  0.8674  0.0268  0.1523
 6418SOL    HW225444   5.911   1.612   3.090  0.6655  0.8055 -0.1160
 6418SOL    HW325445   5.768   1.640   3.050  0.0380 -0.9160  0.8124
 6418SOL    MW425446   5.838   1.589   3.049 -0.4602 -0.1801 -0.7096
 6419SOL     OW25447   4.040   2.057   0.348  0.0258  0.0278 -0.2367
 6419SOL    HW225448   4.052   2.134   0.404 -0.2299  0.5118 -0.8361
 6419SOL    HW325449   4.055   2.090   0.260 -1.6929 -0.2251 -0.6651
 6419SOL    MW425450   4.043   2.072   0.344  0.1661  0.1118  0.0259
 6420SOL     OW25451   0.088   4.109   2.980 -0.5921  0.3019 -0.5054
 6420SOL    HW225452   0.144   4.072   2.911 -0.0410 -0.3829  0.2953
 6420SOL    HW325453   0.006   4.060   2.973 -0.7594  0.6380 -1.0407
 6420SOL    MW425454   0.085   4.097   2.970  0.1888 -0.7006  1.4291
 6421SOL     OW25455   1.706   2.409   4.092 -0.2596  0.3600  0.0005
 6421SOL    HW225456   1.684   2.499   4.071  2.6509  1.7817  2.3366
 6421SOL    HW325457   1.653   2.356   4.032 -0.9914  3.6053 -2.4610
 6421SOL    MW425458   1.696   2.414   4.081  0.3751  0.3310  0.2147
 6422SOL     OW25459   3.021   0.365   2.559  0.1310 -0.8188  0.3459
 6422SOL    HW225460   2.967   0.286   2.562  0.0375 -0.7719 -0.0372
 6422SOL    HW325461   3.067   0.366   2.643 -2.0021  0.2412  1.5706
 6422SOL    MW425462   3.020   0.355   2.570 -0.5244  0.1073 -0.3338
 6423SOL     OW25463   4.749   3.029   3.118 -0.8332 -0.0729  0.0128
 6423SOL    HW225464   4.795   2.951   3.148 -0.3641  0.2456  0.1288
 6423SOL    HW325465   4.658   3.000   3.107 -0.8542 -0.4031  0.9523
 6423SOL    MW425466   4.743   3.015   3.121 -0.2611 -0.0359 -0.9290
 6424SOL     OW25467   3.043   0.970   6.077 -0.0942 -0.3264  0.4821
 6424SOL    HW225468   3.101   0.991   6.150  1.0517 -1.3132 -0.1237
 6424SOL    HW325469   3.021   1.055   6.039  2.7406  0.0258 -0.6114
 6424SOL    MW425470   3.048   0.984   6.082 -0.9057  0.1301  0.2291
 6425SOL     OW25471   4.703   1.951   4.905  0.4087 -0.1239  0.4633
 6425SOL    HW225472   4.643   1.877   4.908  0.1563 -0.0128 -0.9702
 6425SOL    HW325473   4.756   1.943   4.984 -1.4451 -0.2509  1.7536
 6425SOL    MW425474   4.702   1.941   4.916  0.7078 -0.7635 -0.4590
 6426SOL     OW25475   1.423   3.093   2.174 -0.4999 -0.5237 -0.2967
 6426SOL    HW225476   1.429   3.049   2.259  1.0315 -1.1841 -0.7191
 6426SOL    HW325477   1.408   3.185   2.196 -2.1086 -0.9763  0.6334
 6426SOL    MW425478   1.422   3.099   2.188  0.8960 -0.2653 -0.3577
 6427SOL     OW25479   2.518   1.333   1.415 -0.0426 -0.4220 -0.1607
 6427SOL    HW225480   2.459   1.408   1.404 -0.0155  0.5427  4.2972
 6427SOL    HW325481   2.461   1.256   1.405 -1.1128  0.3505 -0.2166
 6427SOL    MW425482   2.503   1.333   1.412 -0.1237 -0.2349  0.0595
 6428SOL     OW25483   5.403   3.857   5.373  0.0428  0.5032 -0.3635
 6428SOL    HW225484   5.325   3.810   5.344 -0.1989  1.3031 -1.0430
 6428SOL    HW325485   5.454   3.792   5.420 -1.3007  0.0923  0.5881
 6428SOL    MW425486   5.399   3.842   5.376 -0.0756 -0.0836  0.0174
 6429SOL     OW25487   0.753   1.421   4.317 -0.8036  0.4507  0.7707
 6429SOL    HW225488   0.790   1.397   4.232 -2.3183 -0.8446  0.4177
 6429SOL    HW325489   0.659   1.402   4.309 -1.4437  2.7200  1.9117
 6429SOL    MW425490   0.745   1.415   4.305  0.0654  0.1397 -0.3556
 6430SOL     OW25491   5.187   1.358   5.471 -0.4092  0.5747  0.0710
 6430SOL    HW225492   5.114   1.419   5.485  1.2587  2.6200  0.4699
 6430SOL    HW325493   5.183   1.337   5.378 -0.2380  2.4677 -0.4174
 6430SOL    MW425494   5.177   1.363   5.461  0.0931 -0.3968 -0.3718
 6431SOL     OW25495   6.030   1.133   4.310 -0.1223  0.4529  0.2260
 6431SOL    HW225496   6.024   1.169   4.398 -1.4765  3.1346 -0.8562
 6431SOL    HW325497   5.964   1.063   4.309 -0.6811  0.9414  1.1183
 6431SOL    MW425498   6.020   1.128   4.321 -0.0267 -0.1318 -0.1651
 6432SOL     OW25499   3.304   2.981   1.763  0.1229 -0.0297 -0.2841
 6432SOL    HW225500   3.329   2.965   1.855 -2.5085 -1.7841  0.2421
 6432SOL    HW325501   3.272   3.071   1.762 -1.3883 -0.5061  0.9792
 6432SOL    MW425502   3.303   2.990   1.775 -0.7413 -0.0193 -0.1642
 6433SOL     OW25503   3.968   4.896   5.482  0.8139  0.2494  0.2103
 6433SOL    HW225504   3.874   4.900   5.495  0.4547 -3.7131  0.1633
 6433SOL    HW325505   3.980   4.909   5.388  0.1194 -0.6162 -0.0127
 6433SOL    MW425506   3.957   4.898   5.471 -0.5106  0.5712  0.0128
 6434SOL     OW25507   0.085   5.181   5.750  0.2513  0.0288  0.0339
 6434SOL    HW225508   0.164   5.135   5.781  0.4317 -0.3633 -0.9830
 6434SOL    HW325509   0.076   5.255   5.811  1.7310  0.4130 -0.1620
 6434SOL    MW425510   0.095   5.185   5.762  0.1510 -0.3271  0.3460
 6435SOL     OW25511   1.258   0.843   4.937 -0.5308  0.1859 -0.5675
 6435SOL    HW225512   1.314   0.864   5.012 -1.1521  0.0207 -0.0459
 6435SOL    HW325513   1.249   0.748   4.940 -0.5941  0.1830 -0.8325
 6435SOL    MW425514   1.264   0.833   4.948 -0.5111  0.3917 -0.1425
 6436SOL     OW25515   2.621   6.380   0.234  0.1246 -0.4048 -0.3052
 6436SOL    HW225516   2.588   6.369   0.144 -3.8540  0.8101  0.7879
 6436SOL    HW325517   2.561   6.328   0.288  1.3637  0.2545  1.8244
 6436SOL    MW425518   2.609   6.371   0.229  0.3913  0.0912  0.6187
 6437SOL     OW25519   0.902   2.582   6.389 -0.1973 -0.3454  0.2571
 6437SOL    HW225520   0.955   2.640   6.333 -1.3623  1.6112  1.0833
 6437SOL    HW325521   0.904   2.497   6.344  0.4959  0.6480 -1.7199
 6437SOL    MW425522   0.910   2.578   6.376  0.2805  0.0004  0.9643
 6438SOL     OW25523   0.333   4.681   3.189 -0.1639  0.0763  0.0290
 6438SOL    HW225524   0.347   4.594   3.150 -1.7474  0.3526 -1.2784
 6438SOL    HW325525   0.243   4.678   3.223 -0.0922  1.0661  0.3332
 6438SOL    MW425526   0.323   4.669   3.188  0.2632  0.6375  0.2522
 6439SOL     OW25527   3.486   2.081   5.766 -0.1713  0.1658 -0.1800
 6439SOL    HW225528   3.546   2.009   5.748 -0.9204 -1.2500  2.3857
 6439SOL    HW325529   3.408   2.038   5.800 -0.7026  2.1760  1.3057
 6439SOL    MW425530   3.484   2.065   5.768 -0.5379  0.1853 -0.3889
 6440SOL     OW25531   1.908   2.718   0.908 -0.1564  0.4862 -0.5756
 6440SOL    HW225532   1.848   2.643   0.916  0.4830 -0.1148 -1.2983
 6440SOL    HW325533   1.995   2.681   0.925  0.2570  0.8870 -1.7183
 6440SOL    MW425534   1.911   2.703   0.911  0.1885  0.7280 -0.1659
 6441SOL     OW25535   0.094   5.435   1.172 -0.5814  0.3326 -0.3938
 6441SOL    HW225536   0.173   5.480   1.201 -0.5969  0.0888  0.0293
 6441SOL    HW325537   0.122   5.344   1.159 -0.6718  0.3530 -0.7425
 6441SOL    MW425538   0.108   5.429   1.174 -0.3481 -0.3754  0.3965
 6442SOL     OW25539   4.909   1.163   4.599  0.4771 -0.2233 -0.1865
 6442SOL    HW225540   4.902   1.258   4.593  0.7461 -0.1744  0.2543
 6442SOL    HW325541   4.830   1.131   4.554  0.1085  0.2148  0.1328
 6442SOL    MW425542   4.897   1.171   4.592  0.4484 -0.0591 -0.2226
 6443SOL     OW25543   4.515   0.271   2.962 -0.1466  0.1057 -0.4635
 6443SOL    HW225544   4.496   0.179   2.980  1.1299 -0.1545 -0.3114
 6443SOL    HW325545   4.483   0.285   2.873 -0.0643 -0.5811 -0.6119
 6443SOL    MW425546   4.509   0.260   2.952 -0.5022 -0.2075  0.2022
 6444SOL     OW25547   0.345   4.267   3.349 -0.0303 -0.2359 -0.0710
 6444SOL    HW225548   0.257   4.295   3.322 -0.2924  0.7611  1.6638
 6444SOL    HW325549   0.346   4.173   3.331 -0.6229  0.1215 -2.2113
 6444SOL    MW425550   0.333   4.258   3.343  0.0453 -0.5217  0.3297
 6445SOL     OW25551   0.769   0.473   1.224 -0.3535 -0.2703  0.2739
 6445SOL    HW225552   0.827   0.414   1.174 -0.9859 -0.6249 -0.0580
 6445SOL    HW325553   0.702   0.415   1.260  0.1205 -0.0297  1.6085
 6445SOL    MW425554   0.768   0.457   1.222  0.2041  0.2172  0.1978
 6446SOL     OW25555   2.749   3.496   6.403 -0.1627 -0.2913 -0.1441
 6446SOL    HW225556   2.797   3.464   6.326 -1.2395 -1.9509 -0.1712
 6446SOL    HW325557   2.657   3.481   6.383 -0.4840 -0.5387  1.3523
 6446SOL    MW425558   2.744   3.490   6.390  0.3464  0.6290  0.3288
 6447SOL     OW25559   5.173   4.796   5.483  0.1890  0.0154 -0.0751
 6447SOL    HW225560   5.176   4.874   5.428  0.4405 -0.5538 -0.8962
 6447SOL    HW325561   5.129   4.730   5.429  0.0265 -0.4302  0.5830
 6447SOL    MW425562   5.168   4.797   5.469 -0.3062 -0.9175  0.5041
 6448SOL     OW25563   5.782   2.234   6.102  0.1800 -0.0646  0.5434
 6448SOL    HW225564   5.838   2.285   6.043  0.0366  0.3838  0.7898
 6448SOL    HW325565   5.843   2.184   6.156  0.3072 -2.2084 -1.4521
 6448SOL    MW425566   5.797   2.234   6.101  0.3489  0.5555  0.0775
 6449SOL     OW25567   3.507   2.979   0.260 -0.1498 -0.2213 -0.0748
 6449SOL    HW225568   3.550   2.948   0.180 -1.0581  0.3426 -0.8023
 6449SOL    HW325569   3.446   3.046   0.230  0.1246  0.6363  1.1990
 6449SOL    MW425570   3.505   2.984   0.245 -0.0300 -0.5872 -0.0562
 6450SOL     OW25571   4.481   0.131   3.395  0.2964 -0.0724  0.5962
 6450SOL    HW225572   4.438   0.097   3.316 -0.0260 -0.1617  0.8091
 6450SOL    HW325573   4.575   0.128   3.374  0.1927  0.4276  0.0059
 6450SOL    MW425574   4.488   0.126   3.382  0.0875  0.7099  0.3566
 6451SOL     OW25575   0.344   0.475   0.200 -0.1335  0.0623 -0.4016
 6451SOL    HW225576   0.312   0.565   0.190 -0.4746 -0.1129 -0.8816
 6451SOL    HW325577   0.398   0.479   0.279 -0.9311  0.4770  0.1501
 6451SOL    MW425578   0.347   0.487   0.209 -0.6526  0.3255 -0.4238
 6452SOL     OW25579   3.538   4.197   0.976 -0.8308  0.2564 -0.0401
 6452SOL    HW225580   3.488   4.277   0.995 -0.1218  0.8435 -0.5542
 6452SOL    HW325581   3.532   4.187   0.881 -0.8438 -0.2592  0.0107
 6452SOL    MW425582   3.531   4.206   0.966 -0.2020 -0.2338  0.0806
 6453SOL     OW25583   1.106   3.770   1.503  0.0241 -0.0471 -0.2749
 6453SOL    HW225584   1.124   3.676   1.506 -2.9753 -0.7111  2.2372
 6453SOL    HW325585   1.146   3.805   1.583  0.1857  0.6532 -0.6492
 6453SOL    MW425586   1.114   3.762   1.514 -0.3416  0.3001 -0.1523
 6454SOL     OW25587   1.367   4.156   6.212  0.1206  0.1657  0.1505
 6454SOL    HW225588   1.456   4.180   6.237 -0.0782  0.2106  0.8409
 6454SOL    HW325589   1.361   4.179   6.119  0.5962  0.8394  0.2807
 6454SOL    MW425590   1.378   4.162   6.203 -0.1427 -0.0172 -0.6139
 6455SOL     OW25591   5.649   0.260   5.465  0.1099  0.0465 -0.5583
 6455SOL    HW225592   5.652   0.308   5.381  1.7042  0.4677 -0.3029
 6455SOL    HW325593   5.627   0.170   5.440 -0.8818  0.4592 -1.2657
 6455SOL    MW425594   5.647   0.255   5.450 -0.1010  0.6719  0.2495
 6456SOL     OW25595   0.389   6.389   3.447  0.3023  0.0724  0.0075
 6456SOL    HW225596   0.443   6.315   3.476 -0.3438  0.8367  3.5197
 6456SOL    HW325597   0.299   6.358   3.456  0.0495  0.8362  0.1373
 6456SOL    MW425598   0.384   6.375   3.452  0.2975 -0.0139  0.1327
 6457SOL     OW25599   4.306   3.368   4.495 -0.1049  0.2074  0.6841
 6457SOL    HW225600   4.296   3.296   4.433 -2.3128  1.7375 -0.9258
 6457SOL    HW325601   4.400   3.386   4.497  0.5377 -2.7820  1.3255
 6457SOL    MW425602   4.317   3.361   4.487  0.0178 -0.4292 -0.4805
 6458SOL     OW25603   5.065   2.515   6.042  0.0289 -0.9884  0.3815
 6458SOL    HW225604   4.996   2.564   6.087  0.0162  0.7017 -1.3586
 6458SOL    HW325605   5.140   2.576   6.041  0.4135 -1.4582 -0.7718
 6458SOL    MW425606   5.066   2.530   6.048  0.6952  0.1474 -0.2555
 6459SOL     OW25607   1.370   2.745   2.782 -0.0075  0.4060  0.0639
 6459SOL    HW225608   1.362   2.722   2.689  0.0296 -1.2733  0.4324
 6459SOL    HW325609   1.324   2.674   2.827 -1.6103  2.1189  1.2796
 6459SOL    MW425610   1.363   2.732   2.775  0.6640 -0.1203  0.1971
 6460SOL     OW25611   1.260   4.874   6.218 -0.2064  0.1110 -0.0726
 6460SOL    HW225612   1.276   4.968   6.226  1.1307 -0.1566  0.6386
 6460SOL    HW325613   1.276   4.839   6.306 -0.5381 -0.7986 -0.3658
 6460SOL    MW425614   1.264   4.881   6.231  0.3445 -0.0570  0.1645
 6461SOL     OW25615   3.152   4.847   5.990 -0.0909 -0.2670 -0.1045
 6461SOL    HW225616   3.214   4.820   5.922 -0.6502  0.3866 -0.8879
 6461SOL    HW325617   3.149   4.773   6.050  0.5089 -0.8085 -0.7220
 6461SOL    MW425618   3.160   4.834   5.989  0.1381  0.1059 -0.4512
 6462SOL     OW25619   4.745   4.202   4.338 -0.0876  0.2452  0.3739
 6462SOL    HW225620   4.715   4.113   4.320 -0.5484  0.2749  0.9668
 6462SOL    HW325621   4.793   4.194   4.420 -1.3122  0.7814  1.1561
 6462SOL    MW425622   4.747   4.189   4.346 -0.2807 -0.2292 -0.0543
 6463SOL     OW25623   3.581   3.057   3.311  0.7036  0.6996  0.3058
 6463SOL    HW225624   3.615   3.012   3.388 -1.4571 -1.5831  0.0613
 6463SOL    HW325625   3.539   3.135   3.345  0.4916  0.1324  1.3785
 6463SOL    MW425626   3.580   3.061   3.325  1.1110 -0.6093  0.1732
 6464SOL     OW25627   2.869   1.004   3.453 -0.0182  0.1936  0.0187
 6464SOL    HW225628   2.879   0.953   3.534 -1.9606  0.2038  0.3146
 6464SOL    HW325629   2.777   0.993   3.429 -0.0983  2.2331 -0.8147
 6464SOL    MW425630   2.858   0.996   3.461 -0.1970  0.1123  0.7870
 6465SOL     OW25631   0.873   3.449   0.778 -0.3068 -0.0856 -0.4832
 6465SOL    HW225632   0.787   3.490   0.783  0.8108  2.3649  3.6392
 6465SOL    HW325633   0.924   3.494   0.845  2.8667 -4.4692  0.4349
 6465SOL    MW425634   0.868   3.460   0.788 -0.7383  0.4383 -0.2595
 6466SOL     OW25635   1.549   4.397   1.684 -0.0544 -0.5567 -0.6584
 6466SOL    HW225636   1.468   4.369   1.642  0.2110 -1.2399 -0.7337
 6466SOL    HW325637   1.616   4.341   1.645  0.1879 -1.2720  0.7535
 6466SOL    MW425638   1.547   4.386   1.673  0.2937  0.0980  0.2857
 6467SOL     OW25639   1.656   5.769   2.549 -0.2363  0.4574 -0.3145
 6467SOL    HW225640   1.635   5.705   2.481 -0.1017 -1.9265  1.7379
 6467SOL    HW325641   1.749   5.758   2.565 -0.5614 -0.2495  1.3328
 6467SOL    MW425642   1.665   5.759   2.542  0.1687  1.2933 -0.0832
 6468SOL     OW25643   5.496   4.661   6.041  0.2379  0.0196 -0.1341
 6468SOL    HW225644   5.503   4.713   6.122 -1.0449  0.1265 -0.0632
 6468SOL    HW325645   5.540   4.579   6.062  0.0480  0.1011  0.6327
 6468SOL    MW425646   5.503   4.657   6.055  0.7120  0.6269  0.1651
 6469SOL     OW25647   3.293   5.014   1.596  0.3635 -0.7804 -0.4753
 6469SOL    HW225648   3.297   5.027   1.502 -1.5909 -0.1352 -0.5111
 6469SOL    HW325649   3.236   5.084   1.628  2.4447  0.1638  1.4589
 6469SOL    MW425650   3.286   5.025   1.588 -0.1580 -0.2508  0.1179
 6470SOL     OW25651   4.593   2.042   5.851 -0.2718 -0.1091 -0.2886
 6470SOL    HW225652   4.526   2.070   5.914  0.2076 -1.7448  1.0437
 6470SOL    HW325653   4.568   1.952   5.828 -0.3276  0.3986 -2.3473
 6470SOL    MW425654   4.581   2.034   5.857 -0.1099 -0.2407  0.1005
 6471SOL     OW25655   6.257   0.846   3.825 -0.4614  0.5580  0.2927
 6471SOL    HW225656   6.310   0.912   3.868  0.0840  0.7021 -0.5820
 6471SOL    HW325657   6.172   0.889   3.812  0.0962  1.3451 -0.8853
 6471SOL    MW425658   6.252   0.860   3.829 -0.0158  0.3093 -0.0936
 6472SOL     OW25659   2.049   2.056   2.483  0.2450  0.3438  0.6563
 6472SOL    HW225660   2.061   1.970   2.522  1.9536  0.0485 -0.4073
 6472SOL    HW325661   2.072   2.118   2.552  1.0268 -0.1104  0.8051
 6472SOL    MW425662   2.053   2.053   2.497  0.1556 -0.2643  0.0773
 6473SOL     OW25663   0.968   2.942   1.096 -0.1127 -0.0508 -0.0170
 6473SOL    HW225664   1.002   3.016   1.146  2.0662 -2.3158  2.1975
 6473SOL    HW325665   0.894   2.910   1.148  0.3754 -0.7031  0.3072
 6473SOL    MW425666   0.963   2.948   1.110 -0.3857 -0.2422  0.2614
 6474SOL     OW25667   2.821   4.446   0.929  0.6047 -0.4636 -0.1051
 6474SOL    HW225668   2.749   4.389   0.903 -1.2287  1.1282  1.1600
 6474SOL    HW325669   2.866   4.398   0.998 -0.8588 -0.4811  0.8838
 6474SOL    MW425670   2.817   4.432   0.935  0.2502  0.4369  0.7680
 6475SOL     OW25671   2.909   1.206   5.974 -0.3212 -0.0697  0.6771
 6475SOL    HW225672   2.939   1.294   5.999  0.5270 -0.3259  0.5781
 6475SOL    HW325673   2.821   1.200   6.011 -0.1582  0.5984  1.1952
 6475SOL    MW425674   2.901   1.217   5.982  0.6544  0.4943  0.8968
 6476SOL     OW25675   4.034   1.230   5.764 -0.3454 -0.1912  0.9663
 6476SOL    HW225676   4.106   1.168   5.778 -0.7939 -0.7475  0.8857
 6476SOL    HW325677   4.015   1.224   5.670 -0.2511  0.2303  0.9194
 6476SOL    MW425678   4.041   1.221   5.753  0.8970 -0.0004  0.4024
 6477SOL     OW25679   3.971   1.989   3.190 -0.3220  0.1205 -0.2197
 6477SOL    HW225680   4.006   1.902   3.170 -0.8114 -0.3769  0.9432
 6477SOL    HW325681   3.958   2.030   3.105  2.5129  0.1266 -0.7660
 6477SOL    MW425682   3.974   1.983   3.176  0.5041  0.0479  0.1121
 6478SOL     OW25683   1.102   5.348   1.032  0.1703 -0.2974 -0.1517
 6478SOL    HW225684   1.135   5.416   1.091 -0.0940 -1.0679  0.9303
 6478SOL    HW325685   1.178   5.292   1.015  0.3522  0.1676 -0.9213
 6478SOL    MW425686   1.116   5.350   1.038 -0.3557  0.2438 -0.1690
 6479SOL     OW25687   1.381   4.861   2.923  0.0958  0.6054  0.3235
 6479SOL    HW225688   1.455   4.844   2.980 -1.2572 -1.0155  1.7188
 6479SOL    HW325689   1.380   4.788   2.861 -0.4892  0.4492  0.5083
 6479SOL    MW425690   1.390   4.849   2.922 -0.3024 -0.2906  0.2622
 6480SOL     OW25691   1.688   1.617   2.263  0.3781 -0.0297  0.4272
 6480SOL    HW225692   1.698   1.523   2.249  1.4202  0.4442 -2.7786
 6480SOL    HW325693   1.765   1.642   2.313  0.4834 -0.7565  0.6372
 6480SOL    MW425694   1.699   1.608   2.268  0.0831 -0.5455 -0.1418
 6481SOL     OW25695   2.563   0.079   5.873 -0.6552  0.4003  0.0921
 6481SOL    HW225696   2.646   0.069   5.920 -0.7986  1.0360  0.4894
 6481SOL    HW325697   2.583   0.141   5.803 -0.6779  0.1736 -0.1181
 6481SOL    MW425698   2.576   0.086   5.870 -0.4752  0.1868  0.2313
 6482SOL     OW25699   1.938   4.482   4.802 -0.4265  0.5379 -0.1716
 6482SOL    HW225700   1.868   4.436   4.848  0.1603  1.2959  1.5365
 6482SOL    HW325701   1.996   4.412   4.771 -0.2084  0.0505  1.2827
 6482SOL    MW425702   1.937   4.467   4.804 -0.3748  0.8090 -0.4572
 6483SOL     OW25703   3.198   1.059   3.731  0.3646  0.3313 -0.0460
 6483SOL    HW225704   3.235   1.058   3.819  0.1122  2.8920  0.1479
 6483SOL    HW325705   3.159   0.972   3.721  0.9656 -0.2519  2.1060
 6483SOL    MW425706   3.198   1.047   3.741 -0.0899  0.2916  0.1236
 6484SOL     OW25707   2.483   0.240   0.465  0.5163 -0.6509 -0.1547
 6484SOL    HW225708   2.576   0.232   0.488  0.3225 -1.1277  0.4943
 6484SOL    HW325709   2.477   0.200   0.379  0.6796 -1.8966  0.3915
 6484SOL    MW425710   2.495   0.234   0.457 -0.1829  0.6143  0.6636
 6485SOL     OW25711   6.202   5.975   6.278 -0.0463  0.7504  0.0119
 6485SOL    HW225712   6.216   6.070   6.278 -2.2980  1.1361 -0.7820
 6485SOL    HW325713   6.234   5.947   6.364 -1.6123  2.6289  1.2868
 6485SOL    MW425714   6.208   5.984   6.289 -0.0340  0.5364  0.2125
 6486SOL     OW25715   1.597   2.001   2.869 -0.4123 -0.1839 -0.0879
 6486SOL    HW225716   1.586   2.084   2.822  0.3634 -1.3983 -2.5584
 6486SOL    HW325717   1.536   1.941   2.827  0.2400 -1.3135  0.5258
 6486SOL    MW425718   1.588   2.004   2.858 -0.2381 -0.2643  0.0390
 6487SOL     OW25719   2.766   3.322   0.571  0.5546 -0.0835 -0.3071
 6487SOL    HW225720   2.673   3.318   0.548  0.3709  0.1876  0.3643
 6487SOL    HW325721   2.802   3.388   0.513  0.4143 -0.4558 -0.8342
 6487SOL    MW425722   2.758   3.330   0.560  0.6368  0.4676  0.0278
 6488SOL     OW25723   0.899   6.112   3.797 -0.0766  0.0965 -0.0487
 6488SOL    HW225724   0.840   6.122   3.722  0.2144  1.0567 -0.1622
 6488SOL    HW325725   0.907   6.017   3.808  0.9847 -0.1119 -2.1159
 6488SOL    MW425726   0.892   6.101   3.789  0.4514  0.5035  0.6380
 6489SOL     OW25727   0.294   4.546   4.555  0.7277  0.5036  0.1574
 6489SOL    HW225728   0.385   4.528   4.580  0.5938  1.9715  1.9478
 6489SOL    HW325729   0.294   4.640   4.535  0.4002 -0.1805 -3.9100
 6489SOL    MW425730   0.306   4.556   4.556 -0.5139  0.3546 -0.5716
 6490SOL     OW25731   2.347   4.930   0.198  0.0303  0.2705  0.5615
 6490SOL    HW225732   2.263   4.959   0.163 -0.0924  0.5128  1.0481
 6490SOL    HW325733   2.377   5.003   0.252  0.5940  0.2216  0.3239
 6490SOL    MW425734   2.340   4.944   0.200  0.2788 -0.2506 -0.7062
 6491SOL     OW25735   5.127   4.638   1.715 -0.1514 -0.1764  0.1161
 6491SOL    HW225736   5.160   4.725   1.733  1.0482 -0.4260 -0.7666
 6491SOL    HW325737   5.053   4.652   1.655  0.3653  0.2158 -0.4392
 6491SOL    MW425738   5.121   4.651   1.709  0.3394  0.5582  0.3488
 6492SOL     OW25739   1.925   5.169   1.732  0.1883  0.2364  0.0619
 6492SOL    HW225740   1.839   5.210   1.730 -0.6523 -1.5096 -0.4858
 6492SOL    HW325741   1.915   5.091   1.786  2.2801  1.7340  2.9026
 6492SOL    MW425742   1.913   5.164   1.739  0.2743  0.4561  0.4798
 6493SOL     OW25743   0.390   2.239   4.060 -0.1964 -0.1625  0.0439
 6493SOL    HW225744   0.413   2.266   4.149  0.5280 -0.2067 -0.1212
 6493SOL    HW325745   0.316   2.179   4.072 -1.4268  1.3731  0.4551
 6493SOL    MW425746   0.383   2.235   4.074 -0.1247 -0.4034  0.1578
 6494SOL     OW25747   5.075   1.843   4.460  0.0528  0.1104  0.3760
 6494SOL    HW225748   5.013   1.862   4.530 -1.7077  1.1880 -1.3744
 6494SOL    HW325749   5.058   1.752   4.436  0.3180 -0.1069  1.0003
 6494SOL    MW425750   5.065   1.833   4.466  0.2227 -0.2123  0.1743
 6495SOL     OW25751   6.384   5.645   3.030 -0.0300 -0.5615  0.0085
 6495SOL    HW225752   6.423   5.676   2.948 -1.5140 -2.0277 -1.3470
 6495SOL    HW325753   6.378   5.722   3.085 -0.1172  0.7429 -1.7431
 6495SOL    MW425754   6.388   5.659   3.026 -0.1421 -0.2064  0.4114
 6496SOL     OW25755   1.876   1.263   1.829 -0.4168 -0.3377  0.2235
 6496SOL    HW225756   1.809   1.285   1.764 -0.8206 -0.0519  0.7334
 6496SOL    HW325757   1.890   1.169   1.816 -0.0163 -0.1621 -0.7145
 6496SOL    MW425758   1.869   1.253   1.818 -0.1107  0.3673  0.6767
 6497SOL     OW25759   2.102   4.381   6.172  0.2337 -0.0578 -0.0888
 6497SOL    HW225760   2.061   4.325   6.238  1.2785  0.1549  0.7617
 6497SOL    HW325761   2.179   4.417   6.215  2.1523 -1.5313 -2.0165
 6497SOL    MW425762   2.107   4.378   6.186  0.1970 -0.5541  0.4415
 6498SOL     OW25763   2.565   4.617   6.386 -0.0378  0.4561  0.1616
 6498SOL    HW225764   2.545   4.578   6.471  1.5973  1.1616  0.9208
 6498SOL    HW325765   2.560   4.711   6.402 -1.8310  0.6131 -1.1039
 6498SOL    MW425766   2.562   4.624   6.400 -0.3198  0.7610  0.3937
 6499SOL     OW25767   0.874   1.033   4.792  0.2908 -0.2900  0.3368
 6499SOL    HW225768   0.847   1.120   4.761  1.0448 -0.3684 -0.5783
 6499SOL    HW325769   0.899   0.986   4.713  2.4216 -0.4422  1.0291
 6499SOL    MW425770   0.873   1.039   4.778  0.3940 -0.3297  0.3797
 6500SOL     OW25771   0.161   1.120   0.186  0.3351 -0.3383 -0.2928
 6500SOL    HW225772   0.162   1.208   0.224  0.2839 -0.4012 -0.1470
 6500SOL    HW325773   0.226   1.123   0.117 -0.3128  0.0885 -0.8977
 6500SOL    MW425774   0.170   1.132   0.182 -0.1052  0.7366  0.1141
 6501SOL     OW25775   0.741   5.230   0.094  0.2649 -0.0309 -0.5971
 6501SOL    HW225776   0.782   5.268   0.016  1.2209 -0.9435 -0.5550
 6501SOL    HW325777   0.652   5.266   0.094  0.1583 -0.2274 -2.2604
 6501SOL    MW425778   0.734   5.240   0.084  0.0301 -0.1292 -0.0520
 6502SOL     OW25779   6.330   3.799   1.480 -0.1627  0.1092 -0.0565
 6502SOL    HW225780   6.349   3.742   1.405  1.2666 -0.9663  1.0585
 6502SOL    HW325781   6.238   3.782   1.500 -0.0720 -0.9844 -0.4703
 6502SOL    MW425782   6.321   3.789   1.473 -0.6298 -0.1140  0.1285
 6503SOL     OW25783   1.152   5.223   1.703  0.6823 -0.0799  0.5292
 6503SOL    HW225784   1.085   5.251   1.640  1.7925  1.5761  0.0220
 6503SOL    HW325785   1.101   5.189   1.777 -0.8210  2.4098  0.7633
 6503SOL    MW425786   1.136   5.222   1.705  0.2030  0.0252  0.3757
 6504SOL     OW25787   4.137   4.256   5.121 -0.0391 -0.3500 -0.1540
 6504SOL    HW225788   4.203   4.283   5.057  1.5839  0.0604  1.6081
 6504SOL    HW325789   4.183   4.198   5.181 -1.0205  0.6136  1.6374
 6504SOL    MW425790   4.152   4.252   5.121 -0.1208  0.3838  0.1705
 6505SOL     OW25791   0.124   1.705   1.700 -0.4639 -0.4428 -0.3678
 6505SOL    HW225792   0.144   1.799   1.704 -0.9641 -0.3687  0.5948
 6505SOL    HW325793   0.097   1.690   1.609 -0.3148  0.3284 -0.5445
 6505SOL    MW425794   0.123   1.716   1.688 -0.0843  0.0026 -0.3228
 6506SOL     OW25795   1.102   5.791   0.913  0.9389  0.3627  0.1293
 6506SOL    HW225796   1.087   5.792   1.008  2.3100 -1.3209  0.4197
 6506SOL    HW325797   1.192   5.823   0.903  0.8078  0.5103 -0.6024
 6506SOL    MW425798   1.112   5.795   0.924  0.3362 -0.2154  0.0998
 6507SOL     OW25799   4.147   3.828   2.239  0.5476  0.5856 -0.2222
 6507SOL    HW225800   4.237   3.841   2.269 -0.6387  2.6735  2.9477
 6507SOL    HW325801   4.095   3.884   2.296 -2.6196  0.9642 -3.1992
 6507SOL    MW425802   4.152   3.837   2.250 -0.4391  0.3857  0.3186
 6508SOL     OW25803   1.805   4.181   2.065 -0.2429  0.1765  0.2314
 6508SOL    HW225804   1.737   4.147   2.006  0.0168  3.6956 -2.4182
 6508SOL    HW325805   1.758   4.242   2.123  0.1654 -0.0320  0.7939
 6508SOL    MW425806   1.790   4.185   2.065 -0.4447  0.1617 -0.3200
 6509SOL     OW25807   4.135   4.049   5.696 -0.1067 -0.1014  0.2769
 6509SOL    HW225808   4.094   4.114   5.639 -1.1841  0.4520  1.6323
 6509SOL    HW325809   4.061   4.008   5.742  0.6955 -0.9810  0.8035
 6509SOL    MW425810   4.119   4.052   5.695 -0.0423 -0.0228 -0.5776
 6510SOL     OW25811   6.104   0.786   4.632 -0.1300  0.1298  0.4685
 6510SOL    HW225812   6.164   0.846   4.674  0.7071  1.3230 -2.2050
 6510SOL    HW325813   6.160   0.720   4.591 -0.9413 -1.4431  1.7722
 6510SOL    MW425814   6.119   0.785   4.632  0.1590 -0.2938  0.4352
 6511SOL     OW25815   2.665   1.089   6.026 -0.2012  0.2542  0.2997
 6511SOL    HW225816   2.570   1.104   6.026 -0.3785 -0.6942  1.2907
 6511SOL    HW325817   2.680   1.026   5.955  0.1711  2.7831 -2.0189
 6511SOL    MW425818   2.654   1.082   6.017  0.3738 -0.7195  0.1560
 6512SOL     OW25819   5.691   3.865   1.296 -0.0534  0.1465 -0.0147
 6512SOL    HW225820   5.745   3.858   1.218 -1.1458  2.1854 -1.0319
 6512SOL    HW325821   5.617   3.806   1.279 -0.2024  0.4566 -0.4412
 6512SOL    MW425822   5.688   3.856   1.284 -0.5356  0.5771 -0.0454
 6513SOL     OW25823   4.638   1.579   3.463 -0.3479 -0.4350  0.2608
 6513SOL    HW225824   4.666   1.665   3.432  1.4186 -1.2750 -0.5932
 6513SOL    HW325825   4.686   1.566   3.544 -0.3767 -0.7488  0.2271
 6513SOL    MW425826   4.648   1.589   3.469  0.0209 -0.1138  0.1723
 6514SOL     OW25827   2.349   5.414   1.517 -0.5295 -0.6491  0.1206
 6514SOL    HW225828   2.355   5.424   1.612  0.7892  0.4818 -0.0446
 6514SOL    HW325829   2.255   5.400   1.500 -1.0465  0.8973  1.4499
 6514SOL    MW425830   2.337   5.414   1.527 -0.3296 -0.2685 -0.3397
 6515SOL     OW25831   0.317   4.940   1.427  0.6304 -0.1133 -0.1320
 6515SOL    HW225832   0.340   5.009   1.490  1.0707 -0.4653  0.1016
 6515SOL    HW325833   0.282   4.869   1.482 -0.5724  0.2158 -0.4389
 6515SOL    MW425834   0.315   4.940   1.443 -0.1927  0.6947 -0.1126
 6516SOL     OW25835   4.751   4.401   3.470  0.7433 -0.3724  0.0397
 6516SOL    HW225836   4.659   4.419   3.489  1.1250  1.1963  0.5339
 6516SOL    HW325837   4.779   4.475   3.415  2.0738 -0.0409  1.1148
 6516SOL    MW425838   4.742   4.413   3.465  0.1067  0.0394  0.2280
 6517SOL     OW25839   3.550   3.046   4.158 -0.2385  0.2005 -0.4004
 6517SOL    HW225840   3.499   3.104   4.215  1.3730  1.0739  0.1988
 6517SOL    HW325841   3.503   2.962   4.162 -2.0710  1.1544 -0.5196
 6517SOL    MW425842   3.537   3.042   4.166  0.7616 -0.2346  0.3194
 6518SOL     OW25843   1.282   0.566   4.991 -0.3258 -0.1474  0.2509
 6518SOL    HW225844   1.367   0.527   5.013 -0.8534 -1.1854  0.4668
 6518SOL    HW325845   1.251   0.514   4.917 -1.3744 -0.6167  1.0100
 6518SOL    MW425846   1.289   0.554   4.984  0.0180  0.6425 -0.7502
 6519SOL     OW25847   3.666   4.262   4.718  0.0433  0.4062  0.2270
 6519SOL    HW225848   3.722   4.185   4.728 -0.1595  0.2300  0.0393
 6519SOL    HW325849   3.726   4.333   4.697  0.1746  0.1630 -0.2558
 6519SOL    MW425850   3.681   4.261   4.717  0.2058 -0.0784 -0.0541
 6520SOL     OW25851   5.891   4.777   5.777 -0.2098 -0.0648  0.1561
 6520SOL    HW225852   5.818   4.792   5.838 -0.2163 -2.5959  0.8805
 6520SOL    HW325853   5.851   4.780   5.690 -1.0579 -0.6615  0.5069
 6520SOL    MW425854   5.876   4.779   5.774 -0.2097  0.0969  0.0019
 6521SOL     OW25855   5.123   5.036   4.738  0.8373 -0.6619 -0.1614
 6521SOL    HW225856   5.216   5.055   4.722  0.2023  1.2215 -2.0785
 6521SOL    HW325857   5.097   5.100   4.804  0.4078  0.4243 -1.3330
 6521SOL    MW425858   5.132   5.047   4.745 -0.2548 -0.3052  0.2447
 6522SOL     OW25859   3.456   1.392   1.925  0.0643  0.1204  0.0109
 6522SOL    HW225860   3.395   1.413   1.854 -1.5607 -0.3582  1.2014
 6522SOL    HW325861   3.458   1.296   1.927  2.2357  0.0825 -1.0947
 6522SOL    MW425862   3.448   1.382   1.916  0.2323 -0.2339  0.1589
 6523SOL     OW25863   4.461   3.135   1.999 -0.2556 -0.0704  0.6584
 6523SOL    HW225864   4.382   3.175   1.963 -1.0045  0.2593  2.5740
 6523SOL    HW325865   4.468   3.052   1.952  0.2786  1.3662 -2.0379
 6523SOL    MW425866   4.451   3.129   1.988  0.0096  0.8764 -1.1983
 6524SOL     OW25867   2.608   1.324   2.657 -0.1734 -0.0895  0.1642
 6524SOL    HW225868   2.591   1.232   2.679  2.3854 -0.4607  0.8606
 6524SOL    HW325869   2.685   1.321   2.600  0.0311  1.6518  0.3087
 6524SOL    MW425870   2.616   1.311   2.652 -0.1725  0.6074 -0.4793
 6525SOL     OW25871   6.106   1.591   0.696  0.2627 -0.8329 -0.5487
 6525SOL    HW225872   6.185   1.573   0.748 -0.8875 -0.5743  1.3759
 6525SOL    HW325873   6.138   1.598   0.606  2.5485 -0.0185  0.2489
 6525SOL    MW425874   6.121   1.590   0.691 -0.3069 -0.4696  0.1673
 6526SOL     OW25875   4.252   0.993   3.183  0.4143 -0.0448  0.1793
 6526SOL    HW225876   4.297   0.978   3.266  2.0788  0.6233 -0.5660
 6526SOL    HW325877   4.186   1.060   3.203  1.2346  0.5811  0.8206
 6526SOL    MW425878   4.249   1.000   3.197 -0.0188  0.2026 -0.4202
 6527SOL     OW25879   5.532   6.248   1.413  0.5512 -0.3764  0.8100
 6527SOL    HW225880   5.541   6.159   1.448  0.9191 -0.2246  1.1108
 6527SOL    HW325881   5.600   6.298   1.458  2.2493 -0.5560 -1.3922
 6527SOL    MW425882   5.542   6.243   1.424 -0.1899  0.6352  0.7183
 6528SOL     OW25883   5.573   5.974   3.692 -0.1137  0.1340  0.2607
 6528SOL    HW225884   5.571   5.899   3.752 -0.0151  0.4620  0.6851
 6528SOL    HW325885   5.559   6.050   3.749  1.7220  0.6112  0.1472
 6528SOL    MW425886   5.571   5.974   3.708  0.1445 -0.8829 -0.2988
 6529SOL     OW25887   4.619   4.115   3.522 -0.3290  0.4161 -0.3799
 6529SOL    HW225888   4.691   4.092   3.580  1.6398  2.3715 -1.8563
 6529SOL    HW325889   4.546   4.136   3.580 -0.1537 -2.6153  1.1421
 6529SOL    MW425890   4.619   4.115   3.537  0.1595  0.5419  0.2337
 6530SOL     OW25891   1.652   3.495   2.263 -0.5542 -0.3007  0.2133
 6530SOL    HW225892   1.633   3.408   2.297  0.3353  0.1936  2.0957
 6530SOL    HW325893   1.747   3.506   2.274 -0.4838  0.5368 -0.9489
 6530SOL    MW425894   1.662   3.485   2.269 -0.1804 -0.2846  0.1039
 6531SOL     OW25895   1.718   2.954   6.406  0.0194 -0.5329 -0.0043
 6531SOL    HW225896   1.720   3.009   6.328 -1.6199 -0.1203  0.2066
 6531SOL    HW325897   1.649   2.890   6.388 -0.3571 -0.4541  1.0727
 6531SOL    MW425898   1.709   2.953   6.394 -0.7919  0.3239 -0.5505
 6532SOL     OW25899   4.565   0.765   1.932 -0.2081  0.7181 -0.1574
 6532SOL    HW225900   4.505   0.761   1.857  1.7084 -1.4606 -1.7199
 6532SOL    HW325901   4.582   0.674   1.954  0.8544  1.2983  1.6784
 6532SOL    MW425902   4.559   0.753   1.925  0.0529 -0.2754 -0.9546
 6533SOL     OW25903   6.414   3.476   2.416  0.4172 -0.0116 -0.1882
 6533SOL    HW225904   6.488   3.536   2.406  0.5633  0.0679  1.1693
 6533SOL    HW325905   6.449   3.404   2.469 -0.5654  0.2098  0.7999
 6533SOL    MW425906   6.428   3.474   2.422  0.0157 -0.2617 -0.2344
 6534SOL     OW25907   5.884   3.073   2.084 -0.0094  0.0669  0.0389
 6534SOL    HW225908   5.815   3.077   2.150  1.3456  1.1190  1.4592
 6534SOL    HW325909   5.838   3.052   2.002 -2.0783  1.3983  0.7936
 6534SOL    MW425910   5.869   3.071   2.082 -0.1014  0.3338  0.4928
 6535SOL     OW25911   3.152   0.909   2.967  0.6932  0.1043  0.1861
 6535SOL    HW225912   3.127   0.866   3.048 -1.7304 -2.0755 -1.5555
 6535SOL    HW325913   3.248   0.908   2.967  0.7349 -2.2251  1.8174
 6535SOL    MW425914   3.162   0.903   2.977 -0.2363 -0.0528  0.5682
 6536SOL     OW25915   4.324   3.482   1.415 -0.0128 -0.1892 -0.0586
 6536SOL    HW225916   4.314   3.538   1.492 -0.2094 -0.9949  0.5200
 6536SOL    HW325917   4.291   3.396   1.443  1.0031 -0.8051 -0.6681
 6536SOL    MW425918   4.318   3.478   1.429 -0.3234  0.2949 -0.1272
 6537SOL     OW25919   2.968   3.630   4.191 -0.1630 -0.0375  0.4681
 6537SOL    HW225920   2.964   3.540   4.223  0.5684 -0.2078  0.1131
 6537SOL    HW325921   2.895   3.675   4.233 -1.0327 -0.9983  0.0202
 6537SOL    MW425922   2.958   3.624   4.201 -0.3808  0.0644 -0.0427
 6538SOL     OW25923   4.968   0.343   4.616  0.4268 -0.1679  0.2176
 6538SOL    HW225924   4.961   0.411   4.683  1.9958  0.0261  0.2275
 6538SOL    HW325925   4.971   0.261   4.666 -1.0134 -0.2507  0.2247
 6538SOL    MW425926   4.967   0.341   4.632  1.1263  0.5603  0.5327
 6539SOL     OW25927   5.680   5.091   3.937 -0.0515 -0.1969  0.0753
 6539SOL    HW225928   5.666   5.172   3.985 -1.3393 -1.1660  1.4430
 6539SOL    HW325929   5.595   5.071   3.897  0.5429 -0.3220 -1.1723
 6539SOL    MW425930   5.667   5.099   3.938  0.4508  0.6272  0.8273
 6540SOL     OW25931   5.963   1.842   0.738 -0.3162  0.2233  0.4058
 6540SOL    HW225932   5.875   1.804   0.736  0.3527 -1.3948  0.3103
 6540SOL    HW325933   6.022   1.767   0.738  1.0861  1.2756  0.2344
 6540SOL    MW425934   5.959   1.827   0.738  0.1010  0.7093  0.4992
 6541SOL     OW25935   2.342   3.802   3.461  0.0891  0.0734 -0.3167
 6541SOL    HW225936   2.410   3.849   3.412 -0.1884 -0.3142 -1.0954
 6541SOL    HW325937   2.283   3.871   3.492  2.8269  0.8866  3.7608
 6541SOL    MW425938   2.343   3.818   3.458 -0.3928  0.4020 -0.4067
 6542SOL     OW25939   2.477   5.977   5.038  0.2734  0.5120 -0.2540
 6542SOL    HW225940   2.494   5.896   4.989 -0.8346  1.0772 -1.6459
 6542SOL    HW325941   2.494   5.954   5.129 -0.5989 -1.4736 -0.5361
 6542SOL    MW425942   2.482   5.963   5.044 -0.2926  0.2525  0.2215
 6543SOL     OW25943   1.050   0.950   0.041 -0.5089  0.3435 -0.1064
 6543SOL    HW225944   0.963   0.928   0.075 -0.7276  0.1083 -0.8181
 6543SOL    HW325945   1.067   1.038   0.075 -0.3974 -0.1691  1.2399
 6543SOL    MW425946   1.041   0.959   0.050 -0.3320 -0.0751 -0.0388
 6544SOL     OW25947   4.734   6.252   4.465 -0.5108 -0.3792 -0.0331
 6544SOL    HW225948   4.721   6.189   4.394 -0.6911 -0.9448  0.4954
 6544SOL    HW325949   4.815   6.223   4.508  0.4278  0.8421 -0.9181
 6544SOL    MW425950   4.743   6.240   4.462 -0.9738  0.5015  0.2190
 6545SOL     OW25951   5.066   1.177   0.005  0.2548  0.1765 -0.0598
 6545SOL    HW225952   5.095   1.257  -0.039 -0.4557  1.3793  1.5347
 6545SOL    HW325953   4.994   1.145  -0.049  0.5206  0.6308 -0.7036
 6545SOL    MW425954   5.060   1.184  -0.008 -0.3706  0.2465  0.1199
 6546SOL     OW25955   4.854   2.510   0.409  0.0221 -0.0191  0.4326
 6546SOL    HW225956   4.910   2.521   0.332 -2.2825  1.1880 -1.1840
 6546SOL    HW325957   4.777   2.465   0.377 -0.2175 -1.1838  2.4933
 6546SOL    MW425958   4.851   2.506   0.395 -0.0214 -0.1662 -0.1620
 6547SOL     OW25959   5.755   3.781   1.584  0.0440  0.1780  0.5018
 6547SOL    HW225960   5.715   3.695   1.596 -1.4995  0.7218 -0.4506
 6547SOL    HW325961   5.745   3.799   1.490 -0.7827  1.9005  0.8792
 6547SOL    MW425962   5.749   3.772   1.573 -0.6468 -0.0948 -0.5526
 6548SOL     OW25963   5.249   2.062   1.466  0.2549  0.0873 -0.3902
 6548SOL    HW225964   5.285   1.977   1.442  0.6567 -0.0830  0.7435
 6548SOL    HW325965   5.285   2.123   1.401 -0.0733 -0.6055 -1.2371
 6548SOL    MW425966   5.259   2.059   1.454 -0.1964  0.1274  0.4939
 6549SOL     OW25967   1.926   3.809   1.494  0.2017  0.6950 -0.4341
 6549SOL    HW225968   1.926   3.831   1.587 -0.1520  0.0310 -0.2700
 6549SOL    HW325969   1.984   3.733   1.487 -0.7004  0.0013 -0.5600
 6549SOL    MW425970   1.933   3.801   1.505 -0.2582 -0.1149  0.4170
 6550SOL     OW25971   1.064   3.160   2.435  0.8879 -0.3412 -0.2307
 6550SOL    HW225972   1.123   3.200   2.499 -0.1458 -1.1178  1.2806
 6550SOL    HW325973   1.107   3.079   2.410  1.3130 -0.0203 -0.5412
 6550SOL    MW425974   1.077   3.154   2.440  0.1652 -0.0906  0.4017
 6551SOL     OW25975   1.444   5.520   1.099 -0.6071 -0.5225  0.1638
 6551SOL    HW225976   1.354   5.523   1.132 -1.8631  0.6584 -2.9686
 6551SOL    HW325977   1.478   5.607   1.115 -1.2626  0.0923 -1.5704
 6551SOL    MW425978   1.436   5.532   1.105 -0.3282 -0.1100  0.1342
 6552SOL     OW25979   4.114   4.127   2.986  0.1020  0.0313 -0.2100
 6552SOL    HW225980   4.089   4.170   2.904  0.3433 -1.0030 -0.8468
 6552SOL    HW325981   4.031   4.097   3.022 -0.0472  0.8452  0.1399
 6552SOL    MW425982   4.100   4.128   2.980 -0.0527 -0.0967  0.3066
 6553SOL     OW25983   5.459   0.202   2.652  0.4274 -0.0703  0.3306
 6553SOL    HW225984   5.536   0.204   2.595  1.7480  1.1181  2.0426
 6553SOL    HW325985   5.418   0.288   2.640  0.2835 -0.0974  0.6267
 6553SOL    MW425986   5.463   0.214   2.643  0.8040  0.1644 -0.6322
 6554SOL     OW25987   3.337   4.671   0.340 -0.3485  0.1220  0.2575
 6554SOL    HW225988   3.296   4.734   0.399 -0.4363 -0.9928  1.4229
 6554SOL    HW325989   3.265   4.636   0.288 -0.1463  1.8150 -1.2655
 6554SOL    MW425990   3.322   4.675   0.341  0.5330 -0.2529  0.0927
 6555SOL     OW25991   5.823   4.802   1.180  0.1934  0.1137  0.1175
 6555SOL    HW225992   5.774   4.862   1.237 -0.8882  1.3208 -1.9546
 6555SOL    HW325993   5.780   4.810   1.095  2.7803 -0.3272 -1.3262
 6555SOL    MW425994   5.811   4.811   1.176 -0.2193  0.2153 -0.1651
 6556SOL     OW25995   1.760   1.484   5.338 -0.5651 -0.1721  0.3452
 6556SOL    HW225996   1.671   1.452   5.329  0.5039 -3.1480 -1.0268
 6556SOL    HW325997   1.798   1.427   5.406  0.9528 -0.7364 -0.9241
 6556SOL    MW425998   1.753   1.472   5.346  0.5970 -0.1529  0.5942
 6557SOL     OW25999   2.222   2.577   6.295 -0.9774 -0.0714 -0.9191
 6557SOL    HW226000   2.308   2.585   6.253 -0.4664  0.6697  0.2239
 6557SOL    HW326001   2.163   2.627   6.238 -0.4747  0.1595 -1.2399
 6557SOL    MW426002   2.226   2.585   6.282 -0.5463  0.0171 -0.0946
 6558SOL     OW26003   4.113   6.162   5.995  0.4549 -0.0216 -0.1111
 6558SOL    HW226004   4.018   6.176   5.996  0.3371 -0.7922  0.8830
 6558SOL    HW326005   4.125   6.083   5.942  0.4371 -0.5417  0.6472
 6558SOL    MW426006   4.102   6.153   5.988 -0.2443 -0.0920 -0.3344
 6559SOL     OW26007   1.798   5.364   1.070  0.3750 -0.2181  0.3397
 6559SOL    HW226008   1.720   5.316   1.099 -0.0830 -0.0218 -0.5265
 6559SOL    HW326009   1.823   5.322   0.988  0.8511  0.0845  0.3269
 6559SOL    MW426010   1.791   5.352   1.063 -0.4944 -0.6642  0.3522
 6560SOL     OW26011   2.656   0.228   3.578  0.6636  0.1306 -0.1615
 6560SOL    HW226012   2.686   0.268   3.496  1.5295  0.7828  0.4508
 6560SOL    HW326013   2.568   0.198   3.559  0.9187  0.1102 -1.3885
 6560SOL    MW426014   2.649   0.229   3.564  0.2142  0.5706 -0.5197
 6561SOL     OW26015   6.029   0.559   4.438  0.5210  0.0123 -0.3195
 6561SOL    HW226016   5.940   0.535   4.413  0.9204 -0.3600 -1.4189
 6561SOL    HW326017   6.060   0.613   4.365  1.7328 -1.1444 -0.6813
 6561SOL    MW426018   6.021   0.563   4.425 -0.1485  0.1337  0.2245
 6562SOL     OW26019   5.401   1.128   0.308  0.2783 -0.6823 -0.4857
 6562SOL    HW226020   5.491   1.149   0.333  0.8347 -4.2192  1.0824
 6562SOL    HW326021   5.404   1.117   0.213  1.5223 -0.7652 -0.4495
 6562SOL    MW426022   5.413   1.129   0.299  0.1884  0.0311 -0.2670
 6563SOL     OW26023   5.420   3.133   3.529 -0.2595 -0.4250 -0.1108
 6563SOL    HW226024   5.362   3.207   3.544  0.2486 -0.3098  1.4421
 6563SOL    HW326025   5.508   3.171   3.530 -0.0781 -0.7747 -1.2493
 6563SOL    MW426026   5.424   3.148   3.531  0.5441 -0.1236 -0.1021
 6564SOL     OW26027   4.174   3.119   2.717 -0.3096  0.9001 -0.4415
 6564SOL    HW226028   4.214   3.200   2.749  0.5127  0.4614 -0.3285
 6564SOL    HW326029   4.081   3.128   2.739  0.2280  0.4994  2.3839
 6564SOL    MW426030   4.167   3.131   2.724 -0.4235  0.2539  0.3056
 6565SOL     OW26031   4.863   4.621   1.575  0.0291 -0.0190 -0.1150
 6565SOL    HW226032   4.846   4.708   1.612  0.8521 -0.4301  1.3030
 6565SOL    HW326033   4.805   4.563   1.623 -0.8850 -0.2273 -1.4061
 6565SOL    MW426034   4.853   4.625   1.586 -0.1147  0.3037  0.3981
 6566SOL     OW26035   1.602   0.698   0.578  0.2329 -0.3117 -0.1748
 6566SOL    HW226036   1.547   0.776   0.578 -1.5556 -1.4841  1.3646
 6566SOL    HW326037   1.582   0.655   0.495  2.1277  1.3657 -1.6002
 6566SOL    MW426038   1.592   0.703   0.567 -0.0232  0.5140 -0.3485
 6567SOL     OW26039   0.003   0.549   0.644  0.2594 -0.2033 -0.0880
 6567SOL    HW226040   0.002   0.638   0.609 -0.2273 -0.8267 -1.7568
 6567SOL    HW326041   0.092   0.539   0.680  0.3525  0.9060  0.0319
 6567SOL    MW426042   0.015   0.559   0.644 -0.0183 -0.8718 -0.3897
 6568SOL     OW26043   1.640   4.309   0.467  0.0928 -0.0885 -0.3077
 6568SOL    HW226044   1.613   4.400   0.470  0.0732 -0.1209  1.1236
 6568SOL    HW326045   1.726   4.307   0.510 -0.4398 -0.9057  0.7707
 6568SOL    MW426046   1.648   4.321   0.473 -0.0862 -0.2165  0.3029
 6569SOL     OW26047   2.218   1.005   2.777 -0.8869  0.5254  0.5270
 6569SOL    HW226048   2.214   0.913   2.804 -1.3566  0.8659  1.6580
 6569SOL    HW326049   2.312   1.022   2.764 -0.8527 -0.2921 -0.3660
 6569SOL    MW426050   2.230   0.995   2.779 -0.4675 -0.2491  0.6590
 6570SOL     OW26051   4.402   4.657   1.882  0.5844 -0.2589 -0.3472
 6570SOL    HW226052   4.498   4.654   1.885  0.6058  0.5823 -0.1241
 6570SOL    HW326053   4.380   4.625   1.795  1.0878  0.0282 -0.5817
 6570SOL    MW426054   4.412   4.652   1.871 -0.1745 -0.0699  0.1162
 6571SOL     OW26055   2.216   1.436   5.891 -0.1723  0.2235 -0.4957
 6571SOL    HW226056   2.268   1.425   5.811  1.2413 -1.8566  0.6225
 6571SOL    HW326057   2.253   1.515   5.931  0.4794  0.1450 -0.9139
 6571SOL    MW426058   2.228   1.445   5.885  0.2024 -0.3927 -0.4881
 6572SOL     OW26059   0.797   0.386   2.337  0.1428  0.2887  0.6632
 6572SOL    HW226060   0.772   0.416   2.249 -0.9228  0.8362  1.1254
 6572SOL    HW326061   0.871   0.441   2.361 -0.5472  1.2330  0.7047
 6572SOL    MW426062   0.803   0.398   2.329 -0.0344  0.1235 -0.4507
 6573SOL     OW26063   0.835   0.419   4.660 -0.2779  0.2078 -0.6368
 6573SOL    HW226064   0.746   0.436   4.688  0.1239 -0.3836  1.1722
 6573SOL    HW326065   0.855   0.488   4.597 -1.3821  1.4586  0.3392
 6573SOL    MW426066   0.826   0.430   4.655  0.6101 -0.0989  0.3352
 6574SOL     OW26067   2.288   0.027   5.636 -0.3140  0.3594  0.0137
 6574SOL    HW226068   2.350   0.033   5.709 -0.8207  1.6308  0.3665
 6574SOL    HW326069   2.207  -0.004   5.675  0.1402 -1.5882 -0.4983
 6574SOL    MW426070   2.286   0.024   5.651  0.1343 -0.4321  0.6267
 6575SOL     OW26071   0.195   1.432   1.480  0.0692 -0.1382 -0.0366
 6575SOL    HW226072   0.182   1.342   1.510 -0.5609  0.1311  0.5203
 6575SOL    HW326073   0.107   1.471   1.483  0.2835  0.4040 -0.5833
 6575SOL    MW426074   0.181   1.425   1.484 -0.1998  0.1838 -0.3195
 6576SOL     OW26075   4.325   3.555   2.990  0.7693  0.4121  0.2510
 6576SOL    HW226076   4.397   3.540   3.052  0.9902  0.1411 -0.0700
 6576SOL    HW326077   4.327   3.480   2.932  0.0657  0.2835  0.3850
 6576SOL    MW426078   4.335   3.543   2.991  0.0336  0.1969  0.1042
 6577SOL     OW26079   5.711   4.088   6.254 -0.0365 -0.4804  0.6681
 6577SOL    HW226080   5.758   4.029   6.195 -1.6449 -0.3561 -0.8006
 6577SOL    HW326081   5.642   4.035   6.292 -1.4192  0.3642 -0.5678
 6577SOL    MW426082   5.708   4.073   6.251 -0.6868  0.2029  0.6442
 6578SOL     OW26083   4.369   0.273   4.514  0.3693  0.0668 -0.1589
 6578SOL    HW226084   4.392   0.281   4.606  0.8877  0.7848 -0.3454
 6578SOL    HW326085   4.449   0.296   4.467 -0.0459  0.2522 -0.7911
 6578SOL    MW426086   4.382   0.277   4.520 -0.2770 -0.2190 -0.3900
 6579SOL     OW26087   1.509   1.004   2.826  0.1205 -0.2556 -0.2645
 6579SOL    HW226088   1.533   1.097   2.827 -1.6660  0.2515  0.1755
 6579SOL    HW326089   1.425   1.001   2.872  0.8660 -2.3348  1.1123
 6579SOL    MW426090   1.501   1.016   2.832  0.3653 -0.6753  0.0041
 6580SOL     OW26091   1.123   6.308   4.651 -0.3847  0.9641  0.5138
 6580SOL    HW226092   1.204   6.288   4.698 -0.5616  0.1658  0.4909
 6580SOL    HW326093   1.148   6.304   4.559 -1.2584 -3.6557  0.1999
 6580SOL    MW426094   1.137   6.305   4.645 -0.0269  0.0046 -0.0053
 6581SOL     OW26095   1.634   1.894   4.882 -0.4456 -0.3823 -0.2595
 6581SOL    HW226096   1.607   1.843   4.958  0.4018  0.9251  0.9860
 6581SOL    HW326097   1.618   1.837   4.807 -0.0683 -2.2317  1.0053
 6581SOL    MW426098   1.628   1.880   4.882 -0.0132 -0.3272 -0.2295
 6582SOL     OW26099   6.174   1.799   0.108  0.2778 -0.6718  0.2961
 6582SOL    HW226100   6.157   1.705   0.095  0.1308 -0.5032 -0.7806
 6582SOL    HW326101   6.093   1.832   0.147  0.6353 -1.1386  1.4797
 6582SOL    MW426102   6.161   1.791   0.111 -0.6224  0.3118 -0.2691
 6583SOL     OW26103   3.795   4.020   2.823 -0.1513  0.2077  0.4384
 6583SOL    HW226104   3.728   4.087   2.840 -0.9542 -0.2900 -0.6174
 6583SOL    HW326105   3.846   4.055   2.750  0.9129  0.6863  1.3872
 6583SOL    MW426106   3.793   4.034   2.816 -0.2401  0.9577 -0.2179
 6584SOL     OW26107   3.471   1.490   3.836  0.1047  0.5844 -0.2648
 6584SOL    HW226108   3.560   1.465   3.811 -0.2632 -1.1325  0.0095
 6584SOL    HW326109   3.478   1.581   3.864  1.9721  0.1497  0.7854
 6584SOL    MW426110   3.484   1.499   3.836  1.3383  0.1828 -0.1164
 6585SOL     OW26111   6.143   4.238   2.336  0.3620  0.0625 -0.0341
 6585SOL    HW226112   6.093   4.183   2.397  1.0071  1.4019  1.7989
 6585SOL    HW326113   6.094   4.320   2.331 -0.2325 -0.3659 -2.1994
 6585SOL    MW426114   6.130   4.242   2.344  0.3932  0.0563 -0.8184
 6586SOL     OW26115   5.048   3.994   2.370 -0.1188  0.3356  0.5472
 6586SOL    HW226116   5.075   3.914   2.325 -0.4529  0.6833 -0.2946
 6586SOL    HW326117   5.107   4.000   2.445  0.8090  0.0115 -0.1295
 6586SOL    MW426118   5.060   3.984   2.374 -0.0926  0.2001 -0.4347
 6587SOL     OW26119   1.989   5.339   4.736  0.4799  0.0761  0.0356
 6587SOL    HW226120   2.028   5.425   4.718 -0.3814  0.7647  1.2938
 6587SOL    HW326121   1.905   5.359   4.777  1.0004 -1.3489  1.9228
 6587SOL    MW426122   1.983   5.353   4.739 -0.2415  0.6046 -0.2368
 6588SOL     OW26123   3.925   3.345   0.730 -1.3655 -0.3855  0.0029
 6588SOL    HW226124   3.968   3.266   0.761  0.2109  0.3597 -0.2027
 6588SOL    HW326125   3.984   3.416   0.753 -2.6064  0.7212 -0.0796
 6588SOL    MW426126   3.938   3.344   0.737  0.0969  0.0634  0.4990
 6589SOL     OW26127   3.284   2.976   5.144 -0.1677 -0.6079 -0.5895
 6589SOL    HW226128   3.331   3.043   5.193 -2.0545  0.5195 -0.2281
 6589SOL    HW326129   3.245   2.920   5.211 -0.0312 -1.0267 -0.8593
 6589SOL    MW426130   3.285   2.978   5.159 -0.3958  0.4624 -0.2929
 6590SOL     OW26131   5.859   2.366   5.318  0.4120  0.2703  0.4413
 6590SOL    HW226132   5.796   2.338   5.251  1.0898 -0.4916  0.1173
 6590SOL    HW326133   5.808   2.424   5.375 -0.7374 -0.7539  0.4975
 6590SOL    MW426134   5.844   2.370   5.317 -0.3512 -0.0017 -0.0949
 6591SOL     OW26135   0.176   4.764   1.614  0.0187  0.0796 -0.0482
 6591SOL    HW226136   0.193   4.749   1.707  0.1983 -0.3428 -0.1495
 6591SOL    HW326137   0.173   4.677   1.575 -1.0853  0.2029 -0.2639
 6591SOL    MW426138   0.178   4.751   1.621  0.0297  0.5826  0.2722
 6592SOL     OW26139   4.726   3.846   0.787 -0.4111  0.0660 -0.2955
 6592SOL    HW226140   4.732   3.845   0.692  1.2742 -0.0478 -0.2225
 6592SOL    HW326141   4.636   3.820   0.806 -0.5983 -0.5125 -1.8338
 6592SOL    MW426142   4.715   3.843   0.777  0.1387 -0.2864 -0.1880
 6593SOL     OW26143   1.379   4.391   6.009 -0.4464  0.3844 -0.5174
 6593SOL    HW226144   1.446   4.443   6.054 -0.6354 -1.2373  1.8061
 6593SOL    HW326145   1.426   4.350   5.936  0.4657  1.2889 -0.4606
 6593SOL    MW426146   1.394   4.392   6.006 -0.1057  0.4143  0.1237
 6594SOL     OW26147   0.107   5.554   5.447  0.4126  1.0477 -0.3405
 6594SOL    HW226148   0.112   5.569   5.542  1.3175 -2.5480  0.3461
 6594SOL    HW326149   0.198   5.564   5.417  0.7468 -0.9919 -0.1396
 6594SOL    MW426150   0.120   5.557   5.456 -0.6029 -0.1425 -0.0883
 6595SOL     OW26151   1.065   5.782   4.653  0.1463 -0.7616  0.0177
 6595SOL    HW226152   1.096   5.855   4.600 -1.9599  0.3622  0.2128
 6595SOL    HW326153   0.981   5.758   4.614  0.4938 -2.6933  0.3496
 6595SOL    MW426154   1.058   5.789   4.641  0.0457 -0.3445  0.0159
 6596SOL     OW26155   5.356   6.282   5.486  0.8789 -0.2299 -0.4613
 6596SOL    HW226156   5.364   6.293   5.392  0.9611  0.0516 -0.4215
 6596SOL    HW326157   5.263   6.291   5.504  0.9866  0.8459 -0.3765
 6596SOL    MW426158   5.345   6.285   5.476 -0.2702  0.5076 -0.8944
 6597SOL     OW26159   3.442   0.794   2.693  0.0004 -0.2055  0.5579
 6597SOL    HW226160   3.473   0.880   2.665 -1.3278  0.5621  1.3630
 6597SOL    HW326161   3.349   0.793   2.672 -0.6114 -0.3792  2.9574
 6597SOL    MW426162   3.434   0.805   2.686 -0.4580  0.4506  0.9405
 6598SOL     OW26163   3.274   0.781   4.495  0.3865 -0.1307 -0.0197
 6598SOL    HW226164   3.351   0.826   4.459 -0.0136  0.8210  0.2671
 6598SOL    HW326165   3.310   0.708   4.545  1.2210  1.1619  1.3368
 6598SOL    MW426166   3.289   0.778   4.497  0.4034 -0.5278  0.5330
 6599SOL     OW26167   4.274   1.328   5.057 -0.4274  0.0935  0.3279
 6599SOL    HW226168   4.278   1.421   5.035 -0.8121  0.6181  2.2836
 6599SOL    HW326169   4.181   1.311   5.074 -0.6132 -1.0858 -1.6176
 6599SOL    MW426170   4.262   1.338   5.056  0.1496  0.3301 -0.1918
 6600SOL     OW26171   0.976   4.832   6.127 -0.2856  0.5770 -0.0948
 6600SOL    HW226172   0.941   4.751   6.165  1.0061 -0.0842 -0.2873
 6600SOL    HW326173   1.059   4.845   6.171 -0.8273  2.2520  0.5025
 6600SOL    MW426174   0.982   4.823   6.138  0.5519  0.6426 -0.8256
 6601SOL     OW26175   5.398   4.853   0.764 -0.0355  0.7861 -0.3458
 6601SOL    HW226176   5.305   4.853   0.786 -0.7871  0.5824 -3.1600
 6601SOL    HW326177   5.428   4.941   0.788 -0.7942  0.6850  1.0625
 6601SOL    MW426178   5.390   4.865   0.770 -0.4312 -0.2156 -0.3895
 6602SOL     OW26179   3.639   1.304   4.492 -0.2071 -0.0890 -0.0302
 6602SOL    HW226180   3.690   1.383   4.471  0.1713 -0.3357 -0.0556
 6602SOL    HW326181   3.554   1.337   4.521  0.6022  0.4202  1.8843
 6602SOL    MW426182   3.635   1.319   4.493 -0.1789  1.2730  0.2159
 6603SOL     OW26183   3.662   4.601   0.952  0.3888  0.2192 -0.2697
 6603SOL    HW226184   3.721   4.613   0.878  0.0192  2.4505 -0.2761
 6603SOL    HW326185   3.702   4.530   1.003  1.3046 -0.5185 -1.9198
 6603SOL    MW426186   3.675   4.593   0.949 -0.4555  0.2833 -0.3321
 6604SOL     OW26187   5.895   4.509   5.630 -0.6515 -0.2412  0.1796
 6604SOL    HW226188   5.959   4.578   5.649 -1.4549  0.7755 -0.7264
 6604SOL    HW326189   5.948   4.431   5.617  0.3849  0.4996 -0.1675
 6604SOL    MW426190   5.911   4.508   5.631  0.1312  0.5009  0.1173
 6605SOL     OW26191   3.702   4.014   4.159  0.5435 -0.1600  0.1578
 6605SOL    HW226192   3.693   4.106   4.184  2.1994  0.1823 -0.3704
 6605SOL    HW326193   3.614   3.987   4.133  0.1507  1.4642 -0.2781
 6605SOL    MW426194   3.690   4.022   4.159 -0.7089  0.0676 -0.0699
 6606SOL     OW26195   4.799   4.670   2.646 -0.2583 -0.2083 -0.9308
 6606SOL    HW226196   4.869   4.734   2.639 -0.4504  0.2313  0.8083
 6606SOL    HW326197   4.753   4.676   2.562  1.8457 -0.6510 -2.1907
 6606SOL    MW426198   4.802   4.679   2.634 -0.0077  0.4076  0.4501
 6607SOL     OW26199   4.451   2.433   3.717 -0.1529  0.9539  0.0309
 6607SOL    HW226200   4.369   2.480   3.729 -0.4295  0.2993  0.8010
 6607SOL    HW326201   4.482   2.461   3.631 -1.4369  0.8279 -0.5038
 6607SOL    MW426202   4.444   2.443   3.707 -0.4964  0.2362  0.2458
 6608SOL     OW26203   3.405   0.948   5.834 -0.1101 -0.1498  0.7883
 6608SOL    HW226204   3.492   0.937   5.796 -1.2252 -1.6184 -1.5849
 6608SOL    HW326205   3.404   0.890   5.910  0.6711 -0.8856  0.2545
 6608SOL    MW426206   3.416   0.939   5.839 -0.5382 -0.0428 -0.0105
 6609SOL     OW26207   1.670   2.818   0.523 -0.3461  0.3294  0.1519
 6609SOL    HW226208   1.621   2.766   0.586 -0.4919  1.9785  1.4595
 6609SOL    HW326209   1.625   2.903   0.521 -0.5414  0.2441 -2.4297
 6609SOL    MW426210   1.658   2.823   0.531 -0.3432  0.3889  0.6270
 6610SOL     OW26211   6.403   5.115   2.089  0.0621 -0.1809  0.4594
 6610SOL    HW226212   6.339   5.182   2.064  0.6274  0.0358 -0.4792
 6610SOL    HW326213   6.477   5.164   2.123  0.4556 -0.3211 -0.1783
 6610SOL    MW426214   6.404   5.130   2.090  0.2230  0.1064 -0.4861
 6611SOL     OW26215   3.745   1.191   5.196  0.1363  0.7035  0.4969
 6611SOL    HW226216   3.681   1.261   5.181  1.2883  1.8398  0.7829
 6611SOL    HW326217   3.727   1.161   5.285 -0.4425  0.5158  0.3271
 6611SOL    MW426218   3.734   1.196   5.205 -0.3600 -0.2177 -0.3710
 6612SOL     OW26219   3.216   3.226   1.752  0.0090  0.1617 -0.5648
 6612SOL    HW226220   3.121   3.225   1.749 -0.0804  2.1703  0.3090
 6612SOL    HW326221   3.243   3.275   1.675  0.2660  0.7579 -0.1048
 6612SOL    MW426222   3.207   3.232   1.742 -0.4582 -0.4870  0.1519
 6613SOL     OW26223   2.895   3.030   3.676 -0.1173 -0.3388  0.6020
 6613SOL    HW226224   2.825   3.096   3.669  0.4666  0.2216 -0.2135
 6613SOL    HW326225   2.863   2.968   3.742 -0.9671  0.4115  0.9244
 6613SOL    MW426226   2.881   3.031   3.684 -0.0255  0.0204 -0.2041
 6614SOL     OW26227   4.488   3.705   3.657  0.1894 -0.5275 -0.8628
 6614SOL    HW226228   4.524   3.623   3.623  0.9780 -0.7704  0.4699
 6614SOL    HW326229   4.511   3.771   3.591 -0.6849 -1.4066 -2.0680
 6614SOL    MW426230   4.496   3.703   3.644  0.7931 -0.3119 -0.1159
 6615SOL     OW26231   0.653   6.288   3.852  0.5191 -0.2484  0.0069
 6615SOL    HW226232   0.693   6.246   3.928 -2.1989  0.4664  2.0011
 6615SOL    HW326233   0.601   6.218   3.811 -2.4623  0.4500  2.2109
 6615SOL    MW426234   0.651   6.273   3.857  0.2981  0.2643  0.1552
 6616SOL     OW26235   4.505   4.761   0.793  0.1581  0.6199 -0.6509
 6616SOL    HW226236   4.533   4.776   0.884  0.0440 -1.8320 -0.1450
 6616SOL    HW326237   4.412   4.740   0.800  0.3936 -0.7057 -1.1541
 6616SOL    MW426238   4.497   4.760   0.806 -0.2745 -0.2490 -0.0186
 6617SOL     OW26239   3.255   3.886   0.501  0.1712  0.0459  0.1108
 6617SOL    HW226240   3.244   3.954   0.434  1.4540  0.1220 -0.0465
 6617SOL    HW326241   3.341   3.903   0.538  0.4077 -1.3343  0.2491
 6617SOL    MW426242   3.265   3.897   0.497 -0.2722  0.4872 -0.2915
 6618SOL     OW26243   3.646   2.290   2.088 -0.2633  0.5010  1.0017
 6618SOL    HW226244   3.733   2.255   2.106  0.3814  0.5228 -1.6886
 6618SOL    HW326245   3.589   2.243   2.149  1.3072 -1.2782  1.2044
 6618SOL    MW426246   3.650   2.279   2.098 -0.3142 -0.5589 -0.6016
 6619SOL     OW26247   2.132   1.884   5.245 -0.0723  0.4086 -0.3008
 6619SOL    HW226248   2.079   1.886   5.166 -0.6878 -0.5462  0.0689
 6619SOL    HW326249   2.075   1.844   5.311 -0.0534  2.3837  1.0015
 6619SOL    MW426250   2.118   1.879   5.244  0.0278  0.4554  0.1141
 6620SOL     OW26251   6.277   4.594   2.336 -0.8019  0.2581  0.1977
 6620SOL    HW226252   6.192   4.557   2.357 -1.4530  1.2309 -0.6387
 6620SOL    HW326253   6.290   4.573   2.243 -0.8501  1.4716 -0.0908
 6620SOL    MW426254   6.268   4.586   2.326  0.0893 -0.5856 -0.0143
 6621SOL     OW26255   5.177   2.578   2.990 -0.4006 -0.1131 -0.4219
 6621SOL    HW226256   5.265   2.555   3.021 -0.9460 -2.1344 -0.2154
 6621SOL    HW326257   5.192   2.628   2.911  0.9831 -1.8923 -1.3687
 6621SOL    MW426258   5.190   2.581   2.984  0.6335 -0.2879  0.1092
 6622SOL     OW26259   1.924   1.312   5.503  0.2912  0.5413 -0.3521
 6622SOL    HW226260   1.958   1.237   5.551 -0.8191 -0.1656 -0.6251
 6622SOL    HW326261   1.975   1.386   5.534 -0.4880  0.1550  2.0538
 6622SOL    MW426262   1.935   1.312   5.513 -0.1165 -0.2052  0.3045
 6623SOL     OW26263   1.052   3.226   1.209  0.4226 -0.9526  0.5155
 6623SOL    HW226264   1.108   3.304   1.202 -1.1215  0.2756  1.1527
 6623SOL    HW326265   1.011   3.219   1.123  2.8473 -2.9973 -0.6228
 6623SOL    MW426266   1.054   3.236   1.197 -0.1648 -0.1074 -0.2879
 6624SOL     OW26267   0.493   3.842   0.416 -0.2925 -0.0618 -0.1181
 6624SOL    HW226268   0.454   3.930   0.414 -0.2935 -0.0509  0.2755
 6624SOL    HW326269   0.422   3.786   0.449 -0.4263 -0.2799 -0.7805
 6624SOL    MW426270   0.479   3.846   0.420 -0.0784 -0.4141 -0.1595
 6625SOL     OW26271   5.349   1.233   2.110 -0.5476 -0.2473 -0.1547
 6625SOL    HW226272   5.324   1.219   2.201  1.4522 -1.7477  0.2329
 6625SOL    HW326273   5.308   1.161   2.062  1.0728 -1.4259  0.1408
 6625SOL    MW426274   5.340   1.222   2.116  0.0142  0.0501 -0.0663
 6626SOL     OW26275   0.915   2.950   1.502 -0.1053 -0.2933  0.7631
 6626SOL    HW226276   0.850   2.924   1.436 -1.7621 -0.4876  2.3764
 6626SOL    HW326277   0.952   2.868   1.533 -0.9816 -0.3881  1.6247
 6626SOL    MW426278   0.911   2.936   1.498 -0.1975 -0.6494 -0.3275
 6627SOL     OW26279   1.084   0.358   4.368  0.0430 -0.0245  0.9617
 6627SOL    HW226280   1.137   0.329   4.443 -0.9834 -1.3511  1.2231
 6627SOL    HW326281   1.116   0.306   4.294  0.1206  0.2693  0.7892
 6627SOL    MW426282   1.095   0.347   4.368  0.1517  0.4227 -0.1190
 6628SOL     OW26283   2.795   5.300   1.348  0.7726  0.4339  0.0252
 6628SOL    HW226284   2.838   5.382   1.327  0.1046  0.1797 -2.6851
 6628SOL    HW326285   2.713   5.302   1.298 -0.0709 -1.1678  1.2236
 6628SOL    MW426286   2.790   5.311   1.339 -0.2990 -0.1853  0.0418
 6629SOL     OW26287   4.696   1.756   4.559  0.5048  0.4688  0.4590
 6629SOL    HW226288   4.776   1.790   4.600  0.5325  0.5303  0.3563
 6629SOL    HW326289   4.625   1.786   4.615  0.6882 -1.3981  1.7678
 6629SOL    MW426290   4.697   1.764   4.571 -0.1955  0.0145  0.0548
 6630SOL     OW26291   3.607   6.099   2.556  0.2208  0.2852 -0.3236
 6630SOL    HW226292   3.687   6.150   2.549  0.1793  0.2973 -0.7362
 6630SOL    HW326293   3.584   6.103   2.649  1.0252 -0.2246 -0.0926
 6630SOL    MW426294   3.615   6.106   2.567  0.4687 -0.7597  0.0790
 6631SOL     OW26295   1.729   0.963   0.861 -0.4893  0.3112 -0.2231
 6631SOL    HW226296   1.762   0.874   0.877  1.0320  0.2601 -2.9515
 6631SOL    HW326297   1.806   1.019   0.870 -1.2244  1.2436  0.4427
 6631SOL    MW426298   1.743   0.959   0.864  0.3496  0.1868  0.4205
 6632SOL     OW26299   5.682   1.193   0.308 -0.3058  0.3204  0.1976
 6632SOL    HW226300   5.725   1.118   0.267  1.7218  0.7400  1.4446
 6632SOL    HW326301   5.720   1.198   0.396 -1.2909  2.0808  0.5779
 6632SOL    MW426302   5.692   1.184   0.314 -0.0324  0.1864 -0.0015
 6633SOL     OW26303   5.781   4.816   5.500 -0.0005  0.1080 -0.0875
 6633SOL    HW226304   5.688   4.823   5.521  0.3749  0.6572  1.4791
 6633SOL    HW326305   5.787   4.736   5.447 -1.3404 -0.0246 -0.0741
 6633SOL    MW426306   5.770   4.806   5.496  0.0264  0.2456  0.3051
 6634SOL     OW26307   0.027   0.306   0.290 -0.1266  0.3841  0.0953
 6634SOL    HW226308  -0.011   0.393   0.274  1.2198  0.8066 -0.9813
 6634SOL    HW326309   0.103   0.322   0.345 -0.9894 -0.3667  1.5590
 6634SOL    MW426310   0.032   0.320   0.295 -0.7267  0.9009 -0.8224
 6635SOL     OW26311   5.410   3.804   4.689 -0.2837 -0.1232 -0.5110
 6635SOL    HW226312   5.495   3.773   4.656  0.1512  1.1159 -0.6144
 6635SOL    HW326313   5.433   3.872   4.753 -1.1711  2.1252 -2.4242
 6635SOL    MW426314   5.424   3.809   4.693 -0.0064 -0.2269  0.4205
 6636SOL     OW26315   4.596   0.276   4.382 -0.4482  0.2387 -0.0219
 6636SOL    HW226316   4.617   0.242   4.295 -0.3349 -0.1932  0.1690
 6636SOL    HW326317   4.641   0.360   4.387  1.0369 -0.5270  0.2713
 6636SOL    MW426318   4.605   0.282   4.371 -0.0294  0.0044  0.4863
 6637SOL     OW26319   2.154   0.357   5.704  0.4821  0.5583 -0.4257
 6637SOL    HW226320   2.075   0.410   5.714  0.2134 -0.0197  0.6357
 6637SOL    HW326321   2.127   0.269   5.731  1.6483  0.4958  0.5873
 6637SOL    MW426322   2.140   0.353   5.709 -0.0399 -0.7417  0.3132
 6638SOL     OW26323   2.034   1.835   2.637 -0.7447  0.0589  0.5387
 6638SOL    HW226324   1.985   1.789   2.569  1.6658  0.6619 -1.7964
 6638SOL    HW326325   2.086   1.766   2.679 -1.5150 -0.1664  1.1515
 6638SOL    MW426326   2.035   1.820   2.634  0.3300  0.2253 -0.1703
 6639SOL     OW26327   5.395   2.814   5.663  0.5025 -0.2970 -0.3909
 6639SOL    HW226328   5.335   2.853   5.599 -1.4164  0.2412  1.6370
 6639SOL    HW326329   5.434   2.889   5.707  0.9829 -0.6651 -0.1902
 6639SOL    MW426330   5.392   2.829   5.660 -0.8374  0.2185  0.2753
 6640SOL     OW26331   0.424   1.626   6.411  0.6610  0.1007 -0.5452
 6640SOL    HW226332   0.444   1.661   6.324 -0.7510  0.1368 -0.8751
 6640SOL    HW326333   0.334   1.654   6.428  1.0012  0.3242  1.0487
 6640SOL    MW426334   0.415   1.634   6.402 -0.5879 -0.1136  0.0306
 6641SOL     OW26335   1.128   1.959   0.613 -0.0662  0.0609 -0.1978
 6641SOL    HW226336   1.069   1.985   0.543 -0.0771  1.9500  0.4453
 6641SOL    HW326337   1.073   1.960   0.692  0.7549  1.7630  0.3935
 6641SOL    MW426338   1.113   1.963   0.614 -0.9339  0.3070  0.0651
 6642SOL     OW26339   1.671   1.293   2.801  0.3885 -0.1815 -0.1175
 6642SOL    HW226340   1.611   1.318   2.731  1.3499  0.1175 -0.8582
 6642SOL    HW326341   1.757   1.324   2.772  0.4947  2.2055  2.2957
 6642SOL    MW426342   1.675   1.301   2.788 -0.1428  0.7397 -0.3646
 6643SOL     OW26343   5.472   6.221   5.211  0.0484 -0.4512  0.9733
 6643SOL    HW226344   5.563   6.211   5.241  0.0458  0.1841  1.2021
 6643SOL    HW326345   5.477   6.215   5.116  0.1700 -1.6224  1.0399
 6643SOL    MW426346   5.485   6.219   5.202 -0.2960  0.4018 -0.2448
 6644SOL     OW26347   5.330   3.941   4.107 -0.3720  0.0403 -0.5188
 6644SOL    HW226348   5.289   3.865   4.150  1.9783 -1.0486 -0.0474
 6644SOL    HW326349   5.384   3.980   4.175  0.0575  0.9117 -1.3458
 6644SOL    MW426350   5.331   3.936   4.122 -0.2325  0.2898  0.1472
 6645SOL     OW26351   2.663   4.934   5.948 -0.0590  0.0052  0.6820
 6645SOL    HW226352   2.728   5.004   5.959 -0.6340  1.1139 -2.0816
 6645SOL    HW326353   2.684   4.896   5.863 -1.6193 -1.1763  0.7887
 6645SOL    MW426354   2.675   4.938   5.938 -0.0042  0.2393 -0.3393
 6646SOL     OW26355   4.043   3.301   1.740 -0.0658  0.3344 -0.0616
 6646SOL    HW226356   4.114   3.260   1.790 -1.0253  0.0564  1.1146
 6646SOL    HW326357   4.067   3.394   1.737  0.7017  0.1418 -0.3096
 6646SOL    MW426358   4.056   3.308   1.746 -0.6744  0.6709  0.4807
 6647SOL     OW26359   4.733   6.321   2.146 -0.4166  0.4490 -0.3858
 6647SOL    HW226360   4.707   6.381   2.076  0.2394  1.7487  0.4459
 6647SOL    HW326361   4.802   6.267   2.108 -0.8421  0.3830 -1.0746
 6647SOL    MW426362   4.738   6.322   2.132  0.2407  0.3761 -0.5369
 6648SOL     OW26363   0.149   1.410   0.231  0.3554  0.4884  0.3374
 6648SOL    HW226364   0.056   1.390   0.237  0.7763 -2.6395 -1.2166
 6648SOL    HW326365   0.159   1.454   0.146  0.2631  0.9195  0.5529
 6648SOL    MW426366   0.138   1.413   0.220 -0.4292  0.0204 -1.4687
 6649SOL     OW26367   5.320   3.950   3.310  0.1116  0.4184 -0.3837
 6649SOL    HW226368   5.355   4.022   3.362 -1.1134 -0.1363  1.3094
 6649SOL    HW326369   5.397   3.909   3.271  1.0598  1.0794  0.7288
 6649SOL    MW426370   5.335   3.954   3.311 -0.1507  0.5172  0.2967
 6650SOL     OW26371   4.796   4.139   1.648 -0.0647  0.1825  0.3529
 6650SOL    HW226372   4.770   4.059   1.694  1.6272 -1.7157 -1.7603
 6650SOL    HW326373   4.774   4.123   1.557  0.3214  2.1505 -0.1403
 6650SOL    MW426374   4.790   4.126   1.642 -1.1247  0.4555 -0.2964
 6651SOL     OW26375   4.955   2.938   0.364 -0.2214  0.1491 -0.1165
 6651SOL    HW226376   4.899   2.972   0.434  1.4018  1.7230  0.4818
 6651SOL    HW326377   5.014   2.876   0.408  0.2719  0.5311 -0.2333
 6651SOL    MW426378   4.955   2.934   0.379 -0.6535 -0.6454 -0.7126
 6652SOL     OW26379   1.568   4.738   5.371 -0.1461 -0.0218  0.2871
 6652SOL    HW226380   1.523   4.696   5.445 -0.1346 -2.5296 -1.0086
 6652SOL    HW326381   1.640   4.678   5.351  0.4367  1.1153 -1.1481
 6652SOL    MW426382   1.572   4.724   5.378  0.3691  0.4916 -0.5039
 6653SOL     OW26383   1.148   5.507   0.374 -0.2292  0.0131 -0.1159
 6653SOL    HW226384   1.218   5.443   0.363  0.3895  0.4314  1.1927
 6653SOL    HW326385   1.102   5.479   0.453 -0.7097  0.5067 -0.2143
 6653SOL    MW426386   1.151   5.495   0.383 -0.3684 -0.0715  0.1924
 6654SOL     OW26387   2.998   6.323   2.524  0.2515 -0.1564 -0.3828
 6654SOL    HW226388   2.974   6.233   2.502 -0.1574  0.4961 -2.8858
 6654SOL    HW326389   3.070   6.314   2.587 -1.2239 -2.1741  1.1622
 6654SOL    MW426390   3.005   6.310   2.529  0.0183 -0.3561 -0.0001
 6655SOL     OW26391   1.894   1.402   2.663  0.1933  0.3865 -0.5940
 6655SOL    HW226392   1.932   1.339   2.601 -0.3976 -0.4674 -0.1025
 6655SOL    HW326393   1.961   1.414   2.730 -0.4563 -1.2994  0.4009
 6655SOL    MW426394   1.908   1.395   2.663 -0.0899 -0.5889  0.0163
 6656SOL     OW26395   5.929   1.612   3.661 -0.2144 -0.6982  0.0552
 6656SOL    HW226396   5.992   1.681   3.679  1.0055 -0.9219 -2.7154
 6656SOL    HW326397   5.846   1.658   3.644 -0.2643 -0.2255  1.4794
 6656SOL    MW426398   5.926   1.627   3.661  0.6203 -0.1109  0.1387
 6657SOL     OW26399   6.393   3.401   1.373  0.2482 -0.1128 -0.1928
 6657SOL    HW226400   6.389   3.426   1.465 -0.6765  1.6044 -0.6548
 6657SOL    HW326401   6.400   3.485   1.326  1.1085 -0.9712 -1.6682
 6657SOL    MW426402   6.393   3.416   1.379 -0.2246  0.8119 -0.0111
 6658SOL     OW26403   1.796   5.886   3.668  0.2036 -0.7690  0.1093
 6658SOL    HW226404   1.874   5.883   3.725  0.3786  0.9739  0.0343
 6658SOL    HW326405   1.816   5.825   3.597 -0.4706 -3.8503  2.3767
 6658SOL    MW426406   1.809   5.878   3.666  0.5648 -0.3157 -0.6807
 6659SOL     OW26407   1.126   5.209   3.029 -0.4102  0.0270 -0.3131
 6659SOL    HW226408   1.046   5.155   3.024 -0.4291 -0.1075  1.1807
 6659SOL    HW326409   1.170   5.179   3.108 -1.1065  3.1426  1.3682
 6659SOL    MW426410   1.121   5.198   3.039  0.0858  0.1659 -0.2827
 6660SOL     OW26411   0.760   1.332   2.585  0.0468  0.3528  0.2002
 6660SOL    HW226412   0.734   1.346   2.494  1.0282  2.5818  0.1933
 6660SOL    HW326413   0.791   1.241   2.587  0.6061  0.4390 -1.8602
 6660SOL    MW426414   0.761   1.322   2.573 -0.3119  0.2204 -0.7827
 6661SOL     OW26415   3.921   1.952   1.332 -0.5015 -0.3931  0.0294
 6661SOL    HW226416   3.871   1.933   1.412 -1.5211 -1.2761 -0.7877
 6661SOL    HW326417   3.914   1.873   1.280  0.1475  0.1764 -0.9617
 6661SOL    MW426418   3.914   1.939   1.336  0.8192 -0.2855 -0.6534
 6662SOL     OW26419   0.735   5.694   6.071 -0.0948  0.1165  0.1833
 6662SOL    HW226420   0.698   5.690   6.159  0.1633 -0.4793  0.2688
 6662SOL    HW326421   0.697   5.773   6.033 -0.3283  0.2958  0.7745
 6662SOL    MW426422   0.725   5.704   6.077  0.5020  0.1361  0.5832
 6663SOL     OW26423   3.390   5.001   5.015 -0.3628  0.3243  0.0222
 6663SOL    HW226424   3.423   4.956   4.937 -0.1917 -2.3494  1.5297
 6663SOL    HW326425   3.309   4.955   5.037  0.4933 -0.2097  2.3800
 6663SOL    MW426426   3.384   4.989   5.008  0.2833 -0.0722 -0.1854
 6664SOL     OW26427   0.331   2.125   2.666  0.1223 -0.3558 -0.5188
 6664SOL    HW226428   0.252   2.128   2.612  0.7219 -0.8143 -1.4489
 6664SOL    HW326429   0.353   2.217   2.681  0.0434 -0.2130 -1.2162
 6664SOL    MW426430   0.324   2.137   2.661  0.5744  0.9342 -0.0127
 6665SOL     OW26431   3.112   4.387   4.317  0.0014 -0.2507 -0.0438
 6665SOL    HW226432   3.062   4.339   4.383 -0.7208  2.2910  1.3693
 6665SOL    HW326433   3.048   4.408   4.248 -0.1123  0.1878  0.1927
 6665SOL    MW426434   3.097   4.383   4.316  0.5290  0.2526  0.2571
 6666SOL     OW26435   4.293   5.956   5.196  0.3796 -0.1835  0.0551
 6666SOL    HW226436   4.270   6.040   5.156 -2.7941 -0.3298  1.2331
 6666SOL    HW326437   4.250   5.891   5.141 -0.0116 -0.7231  0.9626
 6666SOL    MW426438   4.284   5.959   5.184  0.9775 -0.4185 -0.3142
 6667SOL     OW26439   2.924   1.559   1.811 -0.2151  0.4159 -0.6812
 6667SOL    HW226440   3.005   1.605   1.834  0.3593  0.0431 -1.8884
 6667SOL    HW326441   2.857   1.627   1.811 -0.0843  0.5848  1.1494
 6667SOL    MW426442   2.926   1.574   1.814  0.1778 -0.5642  0.2853
 6668SOL     OW26443   0.566   0.002   3.232  0.4241 -0.6711 -0.0152
 6668SOL    HW226444   0.517   0.041   3.159 -0.6031  1.1723  1.5580
 6668SOL    HW326445   0.500  -0.012   3.300  1.6546 -0.6335  1.2104
 6668SOL    MW426446   0.551   0.005   3.231  0.4046  0.2541 -0.3004
 6669SOL     OW26447   3.647   2.560   2.861 -0.2662  0.7098 -0.1350
 6669SOL    HW226448   3.633   2.653   2.878  0.7659  0.9651 -0.5965
 6669SOL    HW326449   3.568   2.518   2.894  0.0415  1.5392  1.8126
 6669SOL    MW426450   3.635   2.567   2.867  0.4585  0.2188 -0.0112
 6670SOL     OW26451   3.363   3.825   1.389 -0.4326 -0.2879 -0.1281
 6670SOL    HW226452   3.419   3.837   1.466  0.1715 -0.0890 -0.5916
 6670SOL    HW326453   3.333   3.914   1.368  1.0954 -0.0175 -1.3653
 6670SOL    MW426454   3.367   3.839   1.396 -0.8484 -0.1481 -0.3785
 6671SOL     OW26455   1.964   4.212   2.872  0.4713 -0.5984  0.1250
 6671SOL    HW226456   1.940   4.120   2.877 -1.6164 -0.3310 -2.7332
 6671SOL    HW326457   2.042   4.213   2.817  0.2903 -0.6478 -0.1349
 6671SOL    MW426458   1.971   4.200   2.865  0.6104 -0.7261  0.0174
 6672SOL     OW26459   5.700   5.444   0.346  0.0070  0.2409 -0.5916
 6672SOL    HW226460   5.614   5.458   0.305 -1.5896 -0.8441  2.1004
 6672SOL    HW326461   5.716   5.350   0.334  0.2238  0.2077 -0.0430
 6672SOL    MW426462   5.691   5.434   0.339  0.0816 -0.3530  0.5599
 6673SOL     OW26463   5.268   3.991   6.204  0.4896 -0.4591 -0.4585
 6673SOL    HW226464   5.205   3.931   6.245  0.0327  1.1136  1.2692
 6673SOL    HW326465   5.282   3.954   6.116 -2.4787 -1.1438 -0.7614
 6673SOL    MW426466   5.262   3.978   6.197 -0.9492  0.7882  0.2983
 6674SOL     OW26467   3.486   2.188   5.225  0.0452  0.0817  0.4155
 6674SOL    HW226468   3.398   2.194   5.187  1.2911 -0.3708 -2.9015
 6674SOL    HW326469   3.494   2.097   5.254  0.0671 -0.4810 -1.2437
 6674SOL    MW426470   3.475   2.177   5.224  0.1348  0.6183  0.4623
 6675SOL     OW26471   0.944   0.686   0.986  0.0884  0.3100  0.3179
 6675SOL    HW226472   1.014   0.681   0.921 -0.4296 -1.0384 -0.1817
 6675SOL    HW326473   0.961   0.767   1.034  2.7341 -0.6195  1.0793
 6675SOL    MW426474   0.955   0.696   0.984 -0.0290 -0.2055  0.1020
 6676SOL     OW26475   5.997   1.004   1.706  0.0371  0.5888 -0.0120
 6676SOL    HW226476   6.071   1.054   1.672 -0.6573  1.2678 -0.5664
 6676SOL    HW326477   5.984   0.934   1.642  0.7939 -0.1036  0.5848
 6676SOL    MW426478   6.005   1.001   1.693 -0.5345  0.1682 -0.2490
 6677SOL     OW26479   2.452   1.284   2.206 -0.1483  0.3386 -0.1281
 6677SOL    HW226480   2.477   1.374   2.188  2.0127 -0.0731  0.5520
 6677SOL    HW326481   2.500   1.232   2.141  1.1152 -0.5118  1.4155
 6677SOL    MW426482   2.461   1.289   2.195 -0.5095  0.2542 -0.4358
 6678SOL     OW26483   2.747   3.590   5.818  0.2698  0.1617 -0.4907
 6678SOL    HW226484   2.798   3.578   5.738  1.0081 -0.7522  0.0867
 6678SOL    HW326485   2.806   3.638   5.876  0.6084 -1.1137  0.2689
 6678SOL    MW426486   2.761   3.595   5.815  0.5333 -0.0919  0.2698
 6679SOL     OW26487   5.604   2.562   3.716 -0.3926 -0.0458  0.3891
 6679SOL    HW226488   5.517   2.575   3.753 -1.3655 -0.1418 -1.6824
 6679SOL    HW326489   5.593   2.491   3.652  0.5339  1.6083 -1.7720
 6679SOL    MW426490   5.591   2.554   3.712  0.3165 -0.2551  0.2499
 6680SOL     OW26491   0.639   1.339   5.243  0.0581 -0.5543 -0.0978
 6680SOL    HW226492   0.615   1.353   5.152  0.4275 -1.1672 -0.2964
 6680SOL    HW326493   0.606   1.416   5.289  0.0456 -0.1460 -0.7774
 6680SOL    MW426494   0.632   1.351   5.237  0.2505  0.1439 -0.0001
 6681SOL     OW26495   1.023   4.924   0.411  0.7035 -0.0385 -0.1416
 6681SOL    HW226496   1.006   4.975   0.332 -1.7872 -1.3699 -0.5752
 6681SOL    HW326497   1.078   4.981   0.465  1.1364  1.5446 -2.1349
 6681SOL    MW426498   1.028   4.938   0.408  0.4814  0.1342  0.4309
 6682SOL     OW26499   0.871   2.510   0.701  0.4336 -0.1234  0.3117
 6682SOL    HW226500   0.931   2.584   0.713  1.7678 -0.7513 -1.8597
 6682SOL    HW326501   0.912   2.439   0.750  1.9613 -0.7400 -1.7105
 6682SOL    MW426502   0.884   2.511   0.709  0.0765 -0.0363 -0.0135
 6683SOL     OW26503   2.234   1.889   0.615  0.0144 -0.8858  0.0875
 6683SOL    HW226504   2.172   1.905   0.687 -0.3675 -0.5446 -0.3123
 6683SOL    HW326505   2.320   1.907   0.654 -0.3564  2.3314 -0.3058
 6683SOL    MW426506   2.237   1.894   0.630  0.3117  0.5423  0.7265
 6684SOL     OW26507   3.685   3.029   4.406 -0.0852 -0.4786  0.2407
 6684SOL    HW226508   3.669   3.123   4.417 -1.7839 -0.6491 -0.4149
 6684SOL    HW326509   3.647   3.009   4.320 -0.5797 -1.9368  0.7800
 6684SOL    MW426510   3.678   3.039   4.396  0.0805  0.2473 -0.1228
 6685SOL     OW26511   0.474   5.910   4.044 -0.2766  0.0028  0.0946
 6685SOL    HW226512   0.388   5.869   4.054 -0.8898  1.2768  0.2474
 6685SOL    HW326513   0.509   5.912   4.133 -0.6417  0.6234  0.2302
 6685SOL    MW426514   0.467   5.905   4.057  0.1966 -0.1053  0.1719
 6686SOL     OW26515   3.761   2.785   3.338 -0.1180 -0.3542  0.8880
 6686SOL    HW226516   3.674   2.810   3.369 -0.2630  1.6577 -0.8841
 6686SOL    HW326517   3.744   2.718   3.272 -0.7638  2.1549 -1.7314
 6686SOL    MW426518   3.748   2.780   3.333  0.0316  0.2122 -0.5596
 6687SOL     OW26519   4.913   0.072   5.942 -0.4025 -0.2730  0.0451
 6687SOL    HW226520   4.902   0.047   6.034  1.5565  1.6600  0.8647
 6687SOL    HW326521   4.894  -0.009   5.893 -1.3460 -1.3818  2.1182
 6687SOL    MW426522   4.909   0.058   5.947 -0.0516  0.0445  0.5053
 6688SOL     OW26523   2.121   1.313   1.462  0.1172 -0.5687  0.0313
 6688SOL    HW226524   2.158   1.326   1.550  1.3195 -1.4863 -0.3134
 6688SOL    HW326525   2.033   1.280   1.478 -0.6061  1.5690  0.8810
 6688SOL    MW426526   2.114   1.310   1.476  0.4245 -0.1261  0.0918
 6689SOL     OW26527   0.339   0.276   2.408 -0.4398  0.4051 -0.4207
 6689SOL    HW226528   0.361   0.224   2.330  0.3192  0.0359  0.0301
 6689SOL    HW326529   0.250   0.305   2.392 -0.8719 -0.9984 -0.7200
 6689SOL    MW426530   0.330   0.273   2.395  0.1205 -0.0099 -0.3689
 6690SOL     OW26531   5.429   0.937   6.029  0.1189 -0.1066  0.0429
 6690SOL    HW226532   5.383   0.902   5.953  0.2492 -1.7298  0.6558
 6690SOL    HW326533   5.518   0.902   6.022  0.0506 -0.5398  1.0684
 6690SOL    MW426534   5.435   0.928   6.018 -0.2258 -1.2441 -0.4388
 6691SOL     OW26535   5.588   5.536   2.561  0.3721 -0.0463 -0.4792
 6691SOL    HW226536   5.672   5.508   2.523  0.1174 -1.1292 -0.2729
 6691SOL    HW326537   5.560   5.608   2.504  0.6442 -0.7610 -1.5591
 6691SOL    MW426538   5.596   5.542   2.548  0.3200 -0.2294  0.1236
 6692SOL     OW26539   5.856   3.228   5.712  0.4489  0.5182  0.0196
 6692SOL    HW226540   5.907   3.301   5.677  0.4206  0.3835 -0.3127
 6692SOL    HW326541   5.789   3.269   5.765 -0.7256  0.8637 -1.6457
 6692SOL    MW426542   5.854   3.243   5.714 -0.0585  0.2705 -0.0391
 6693SOL     OW26543   1.453   2.718   1.256 -0.2189  0.1744 -0.1648
 6693SOL    HW226544   1.473   2.628   1.281 -1.0052  0.4536  1.6960
 6693SOL    HW326545   1.459   2.719   1.161  0.3539 -1.7009 -0.1881
 6693SOL    MW426546   1.456   2.706   1.247  0.4389  0.2715 -0.1928
 6694SOL     OW26547   5.403   2.078   1.710  0.2369  0.1108  0.1525
 6694SOL    HW226548   5.351   2.089   1.630 -0.3826  0.1803  0.5536
 6694SOL    HW326549   5.431   2.167   1.732 -0.2078  0.1923  0.4078
 6694SOL    MW426550   5.400   2.091   1.703  0.0999  0.2813  0.1899
 6695SOL     OW26551   4.143   3.028   6.189 -0.3206 -0.1815  0.3083
 6695SOL    HW226552   4.127   2.958   6.252  0.1836 -2.2236 -1.7130
 6695SOL    HW326553   4.184   2.984   6.114 -0.4787  2.2053 -1.2751
 6695SOL    MW426554   4.147   3.013   6.188 -0.1988 -0.2348 -0.0913
 6696SOL     OW26555   1.248   5.375   5.788  0.3015 -0.3112 -0.2790
 6696SOL    HW226556   1.228   5.297   5.840  0.3208 -0.0057  0.1972
 6696SOL    HW326557   1.163   5.413   5.766  0.2423 -1.2426 -1.7317
 6696SOL    MW426558   1.234   5.370   5.792  0.4091 -0.4722 -0.4160
 6697SOL     OW26559   2.983   3.710   3.659 -0.0605  0.0211  0.4361
 6697SOL    HW226560   2.901   3.708   3.709  0.0646 -1.4419  0.6476
 6697SOL    HW326561   3.037   3.774   3.703 -0.3011 -0.5719  1.6349
 6697SOL    MW426562   2.979   3.718   3.671 -0.4136  0.2671 -0.3936
 6698SOL     OW26563   1.854   0.290   5.572 -0.2841 -0.1425  0.2134
 6698SOL    HW226564   1.861   0.374   5.526  1.4471 -0.9606 -1.0847
 6698SOL    HW326565   1.870   0.312   5.664  0.2235  0.9325 -0.1201
 6698SOL    MW426566   1.857   0.304   5.578  0.2540  0.4442  0.6242
 6699SOL     OW26567   4.339   4.116   4.484  0.5266  0.6251 -0.2856
 6699SOL    HW226568   4.427   4.087   4.510  0.7192 -0.4866 -1.9907
 6699SOL    HW326569   4.337   4.101   4.389 -0.6208  3.0312 -0.7227
 6699SOL    MW426570   4.351   4.110   4.475 -0.1799  0.1932 -0.5335
 6700SOL     OW26571   4.526   0.872   0.586  0.2729 -0.5807 -0.1691
 6700SOL    HW226572   4.606   0.882   0.638 -0.2131  0.0160  0.4736
 6700SOL    HW326573   4.455   0.879   0.650 -0.3032 -4.2398 -0.1716
 6700SOL    MW426574   4.527   0.874   0.601  0.2995 -0.4326  0.7005
 6701SOL     OW26575   3.898   4.288   0.216 -0.1140 -0.0171 -0.0306
 6701SOL    HW226576   3.904   4.292   0.121  1.5727 -2.3568 -0.1228
 6701SOL    HW326577   3.951   4.212   0.240 -1.5756 -0.3118  2.6902
 6701SOL    MW426578   3.906   4.278   0.207  0.2003 -0.0633 -0.2111
 6702SOL     OW26579   5.178   2.690   1.790  0.1411  0.0334  0.1161
 6702SOL    HW226580   5.094   2.735   1.795 -0.2446 -0.8466  2.7421
 6702SOL    HW326581   5.242   2.760   1.780 -0.8036  0.7732 -0.9518
 6702SOL    MW426582   5.176   2.705   1.789  0.3260  0.4683 -0.5930
 6703SOL     OW26583   0.634   1.748   1.092  1.0826  0.2553 -0.3510
 6703SOL    HW226584   0.658   1.780   1.006  3.3179  1.2252  0.5662
 6703SOL    HW326585   0.705   1.776   1.150 -0.5304  0.0426  1.9140
 6703SOL    MW426586   0.646   1.756   1.089  0.4184 -0.4222  0.2037
 6704SOL     OW26587   2.897   2.092   5.772 -0.0193  0.3229 -0.5149
 6704SOL    HW226588   2.848   2.086   5.690 -0.9824 -0.1667  0.0831
 6704SOL    HW326589   2.842   2.048   5.837  0.2885  1.5008  0.6017
 6704SOL    MW426590   2.883   2.085   5.770  0.4658 -0.2102 -0.1266
 6705SOL     OW26591   2.114   4.199   2.355 -0.1066  0.5026 -0.7384
 6705SOL    HW226592   2.063   4.129   2.314 -0.0803 -0.0134  0.1062
 6705SOL    HW326593   2.055   4.275   2.353 -1.8261 -0.6246  2.2167
 6705SOL    MW426594   2.099   4.200   2.349 -0.1056 -0.2419  0.6823
 6706SOL     OW26595   3.250   0.761   1.385  0.3163  0.3434  0.3984
 6706SOL    HW226596   3.279   0.754   1.294 -2.0956 -2.0883 -0.3150
 6706SOL    HW326597   3.292   0.686   1.428 -0.7081 -0.1457  0.5776
 6706SOL    MW426598   3.260   0.750   1.379  0.0865 -1.1678  0.1944
 6707SOL     OW26599   0.073   0.738   2.204  0.2141  0.2030 -0.5075
 6707SOL    HW226600   0.076   0.642   2.209 -0.1840 -0.0143 -3.0991
 6707SOL    HW326601   0.164   0.765   2.197  0.2369 -0.1944 -1.9763
 6707SOL    MW426602   0.085   0.729   2.204  0.7718 -0.0916  0.6200
 6708SOL     OW26603   3.803   2.682   6.108  0.1625 -0.9524 -0.1326
 6708SOL    HW226604   3.818   2.711   6.197  1.0685 -0.4600 -0.4404
 6708SOL    HW326605   3.818   2.759   6.054  0.7622 -1.5261 -0.8046
 6708SOL    MW426606   3.807   2.696   6.112  0.5533 -0.4008  0.3546
 6709SOL     OW26607   3.848   3.336   5.875 -0.1076  0.1507  0.6826
 6709SOL    HW226608   3.822   3.356   5.965 -2.5462 -2.2031  0.6471
 6709SOL    HW326609   3.766   3.312   5.832  0.9707  1.3634 -2.2638
 6709SOL    MW426610   3.834   3.335   5.881 -0.4672  0.0073  0.5831
 6710SOL     OW26611   1.459   0.553   4.111  0.0577  0.5404 -0.0225
 6710SOL    HW226612   1.376   0.548   4.159  0.7720 -0.2910  1.1653
 6710SOL    HW326613   1.434   0.548   4.019 -1.1149 -1.4673  0.3518
 6710SOL    MW426614   1.445   0.552   4.106  0.0086  0.3035 -0.7490
 6711SOL     OW26615   1.682   0.630   6.088  0.2076  0.3786 -0.0439
 6711SOL    HW226616   1.750   0.566   6.065 -1.1521 -0.8866 -0.6693
 6711SOL    HW326617   1.645   0.597   6.170 -1.7960 -0.7644 -1.3435
 6711SOL    MW426618   1.686   0.617   6.096 -0.1214  0.8287  0.3375
 6712SOL     OW26619   0.358   4.676   2.120  0.3736  0.0517 -0.7842
 6712SOL    HW226620   0.321   4.599   2.163  0.5850  0.0072 -0.6793
 6712SOL    HW326621   0.452   4.670   2.137  0.5402 -0.3092 -1.8177
 6712SOL    MW426622   0.366   4.665   2.128  0.0077  0.0277 -0.1564
 6713SOL     OW26623   6.087   6.300   2.083  0.6881  0.0538 -0.6712
 6713SOL    HW226624   6.137   6.318   2.162 -0.4513  1.0787 -0.1575
 6713SOL    HW326625   6.082   6.204   2.080  1.2086 -0.0148  0.1920
 6713SOL    MW426626   6.093   6.289   2.093  0.0498 -0.1100  0.3095
 6714SOL     OW26627   6.048   3.748   1.542 -0.2934  0.3254 -0.2625
 6714SOL    HW226628   6.030   3.670   1.489 -0.1492  0.7498 -0.9538
 6714SOL    HW326629   5.961   3.781   1.567 -0.3387 -1.1461  1.7001
 6714SOL    MW426630   6.034   3.742   1.538  0.3345 -0.0184 -0.5165
 6715SOL     OW26631   5.242   2.909   5.441 -0.2974  0.1318  0.0186
 6715SOL    HW226632   5.180   2.980   5.459 -0.9022  0.0311 -1.4962
 6715SOL    HW326633   5.309   2.949   5.387  0.2437 -0.0816  0.5250
 6715SOL    MW426634   5.242   2.923   5.436  0.0039 -0.1097  0.7912
 6716SOL     OW26635   2.894   2.513   0.661 -0.6702  0.1875 -0.3703
 6716SOL    HW226636   2.829   2.536   0.728  0.2410 -0.1608  0.6537
 6716SOL    HW326637   2.846   2.456   0.601 -1.1403 -0.6888  0.7836
 6716SOL    MW426638   2.879   2.509   0.662  0.7117 -0.5212  0.2801
 6717SOL     OW26639   3.584   3.286   2.660 -0.1994 -0.4398 -0.1729
 6717SOL    HW226640   3.627   3.347   2.720  0.9251  2.5415 -3.6158
 6717SOL    HW326641   3.654   3.227   2.633  0.5796  1.1399 -1.8509
 6717SOL    MW426642   3.599   3.286   2.664 -0.4347 -0.4764 -0.3317
 6718SOL     OW26643   3.014   5.240   0.189  0.7032 -0.1480  0.1873
 6718SOL    HW226644   2.959   5.269   0.262  1.0057 -0.7530  0.6594
 6718SOL    HW326645   2.952   5.198   0.129  0.5133  0.0018  0.2745
 6718SOL    MW426646   2.998   5.238   0.190 -0.2615 -0.0515 -0.5232
 6719SOL     OW26647   5.473   3.416   0.934 -0.6032 -0.0060 -0.0965
 6719SOL    HW226648   5.490   3.337   0.882  0.4358  0.6087 -0.7132
 6719SOL    HW326649   5.392   3.396   0.981  0.2061 -1.8977  0.6245
 6719SOL    MW426650   5.465   3.403   0.934 -0.1084  0.6040 -0.6033
 6720SOL     OW26651   3.907   3.193   6.192 -0.5725  0.2171  0.5070
 6720SOL    HW226652   3.844   3.157   6.130  1.0356 -0.5096 -0.8124
 6720SOL    HW326653   3.984   3.136   6.183 -0.3869 -0.1812  3.4957
 6720SOL    MW426654   3.909   3.181   6.182 -0.6902  0.0894  0.2536
 6721SOL     OW26655   4.507   3.487   5.422 -0.5796  0.8167 -0.6195
 6721SOL    HW226656   4.596   3.516   5.404  1.3717 -3.8371  0.1169
 6721SOL    HW326657   4.479   3.443   5.341  0.0954 -2.3448  0.7069
 6721SOL    MW426658   4.515   3.485   5.409 -0.0158  0.0814 -0.4513
 6722SOL     OW26659   0.092   6.254   2.466  0.0928  0.5186 -0.4031
 6722SOL    HW226660   0.155   6.285   2.402 -1.2315  1.3708 -1.3438
 6722SOL    HW326661   0.098   6.317   2.538 -0.8035  1.5496 -1.2035
 6722SOL    MW426662   0.101   6.266   2.467 -0.6505  0.2306  0.1955
 6723SOL     OW26663   4.382   0.008   2.088  0.8746 -0.2798  0.2342
 6723SOL    HW226664   4.406   0.017   1.995 -1.5577 -1.8331 -0.6319
 6723SOL    HW326665   4.289  -0.015   2.087  0.4507  0.8553  3.1474
 6723SOL    MW426666   4.373   0.006   2.075 -0.7748  0.5346  0.8933
 6724SOL     OW26667   3.736   4.371   1.095 -0.4066 -0.1927  0.3056
 6724SOL    HW226668   3.681   4.369   1.173 -0.8885 -2.3968 -0.0052
 6724SOL    HW326669   3.694   4.310   1.035  2.4492 -2.2632  0.1852
 6724SOL    MW426670   3.723   4.362   1.098  0.1157 -0.1108  0.0565
 6725SOL     OW26671   3.293   3.910   5.148  0.4147  0.1272  0.2154
 6725SOL    HW226672   3.333   3.959   5.220  1.6041 -2.8621  1.7670
 6725SOL    HW326673   3.240   3.843   5.190  0.3729 -1.1363 -1.6899
 6725SOL    MW426674   3.292   3.907   5.163 -0.7612  0.2211 -0.1217
 6726SOL     OW26675   4.913   5.081   5.609  0.3036  0.0985  0.0451
 6726SOL    HW226676   4.873   5.137   5.676  0.5969 -0.3184  0.5741
 6726SOL    HW326677   4.979   5.137   5.568  0.9918 -0.0123  0.9582
 6726SOL    MW426678   4.917   5.096   5.613 -0.1497 -0.0459 -0.1920
 6727SOL     OW26679   1.032   1.458   3.236 -0.0076  0.0242 -0.1903
 6727SOL    HW226680   1.026   1.549   3.207 -1.1722 -0.1927 -0.7017
 6727SOL    HW326681   1.065   1.410   3.160 -0.9960 -0.2205 -0.4762
 6727SOL    MW426682   1.035   1.464   3.222  0.1806 -0.1492 -0.3896
 6728SOL     OW26683   3.836   5.732   6.341 -0.0637 -0.2723 -0.1690
 6728SOL    HW226684   3.741   5.730   6.352 -0.1490  0.7466 -0.5911
 6728SOL    HW326685   3.868   5.779   6.419 -0.1409  1.5555 -1.1895
 6728SOL    MW426686   3.828   5.738   6.353  0.1680  0.1230  0.0082
 6729SOL     OW26687   2.575   1.308   1.709  0.5606  0.4323 -0.1064
 6729SOL    HW226688   2.562   1.311   1.615 -1.0514 -2.5754 -0.1076
 6729SOL    HW326689   2.501   1.357   1.746  0.9437  1.2218 -0.3726
 6729SOL    MW426690   2.563   1.315   1.702  0.0358 -0.0498 -0.0226
 6730SOL     OW26691   1.866   4.765   0.808  0.2530 -0.0319  0.5708
 6730SOL    HW226692   1.834   4.808   0.887 -1.0553  0.6845 -0.3067
 6730SOL    HW326693   1.788   4.754   0.754  0.7952 -2.1726  0.1182
 6730SOL    MW426694   1.851   4.769   0.812 -0.2592 -0.1373  0.2382
 6731SOL     OW26695   4.164   1.847   3.619  0.2328 -0.2371 -0.5738
 6731SOL    HW226696   4.208   1.925   3.587 -1.0501  1.0058  0.5785
 6731SOL    HW326697   4.208   1.775   3.575  2.2280  1.0493 -0.7949
 6731SOL    MW426698   4.176   1.848   3.609 -0.2518 -0.1806  0.3939
 6732SOL     OW26699   6.262   0.212   1.746  0.2069 -0.0370  0.3681
 6732SOL    HW226700   6.178   0.183   1.781  0.5649 -0.3813  0.9712
 6732SOL    HW326701   6.281   0.293   1.794  0.4832 -0.2666  0.6555
 6732SOL    MW426702   6.254   0.219   1.757 -0.2143 -0.4239  0.5507
 6733SOL     OW26703   3.062   6.395   5.936 -0.0659  0.1312  0.3528
 6733SOL    HW226704   3.060   6.342   5.856  0.7727  1.5735 -0.6710
 6733SOL    HW326705   2.971   6.399   5.965 -0.1806 -1.6801  0.3654
 6733SOL    MW426706   3.050   6.389   5.930  0.6184  0.4154  0.1688
 6734SOL     OW26707   6.273   1.954   5.805  0.9913 -0.2506  0.1852
 6734SOL    HW226708   6.231   2.001   5.733 -0.0704 -0.0326  0.9208
 6734SOL    HW326709   6.278   1.863   5.775 -0.2283 -0.3269  0.1466
 6734SOL    MW426710   6.268   1.948   5.792 -0.1210  0.8710 -0.0744
 6735SOL     OW26711   2.824   3.556   3.972 -0.1048 -0.6499  0.4362
 6735SOL    HW226712   2.852   3.466   3.956  1.7743 -0.4604  2.2328
 6735SOL    HW326713   2.882   3.588   4.041  0.6658  2.6248 -1.4784
 6735SOL    MW426714   2.835   3.549   3.979 -0.0634 -0.0530  0.2572
 6736SOL     OW26715   4.041   3.158   2.059 -0.1655 -0.3572 -0.0872
 6736SOL    HW226716   4.087   3.180   2.140 -1.6134 -0.4988  0.7912
 6736SOL    HW326717   3.976   3.092   2.085 -2.4666  1.5049 -0.8090
 6736SOL    MW426718   4.039   3.152   2.073 -0.2680 -0.1506  0.0924
 6737SOL     OW26719   3.996   5.532   1.025  0.2867 -0.2519 -0.1638
 6737SOL    HW226720   4.074   5.557   1.075  0.3588 -1.6805  0.4949
 6737SOL    HW326721   4.029   5.503   0.941  0.2815  0.9079 -0.5825
 6737SOL    MW426722   4.010   5.532   1.021 -0.2770 -0.1767  0.4421
 6738SOL     OW26723   3.838   6.324   3.619  0.0503  0.1702 -0.4758
 6738SOL    HW226724   3.842   6.230   3.633  0.5387  0.2977  0.2677
 6738SOL    HW326725   3.745   6.344   3.614 -0.0495 -0.3991 -0.9842
 6738SOL    MW426726   3.826   6.315   3.620  0.2917  0.1695  0.3564
 6739SOL     OW26727   3.239   3.659   5.542 -0.5493  0.0270 -0.3116
 6739SOL    HW226728   3.294   3.737   5.533 -1.8155  0.9675 -0.1826
 6739SOL    HW326729   3.188   3.656   5.461 -0.7102 -0.5078 -0.1961
 6739SOL    MW426730   3.239   3.669   5.530  0.4811  0.4883  0.5637
 6740SOL     OW26731   0.448   2.421   6.403  0.7153 -0.0805 -0.0996
 6740SOL    HW226732   0.406   2.340   6.373  1.1561  0.1766 -1.4681
 6740SOL    HW326733   0.512   2.392   6.467 -0.2948 -0.6495  0.6931
 6740SOL    MW426734   0.451   2.406   6.407 -0.7321  0.2798  0.1898
 6741SOL     OW26735   4.107   5.903   3.158  0.3603 -0.2715  0.3544
 6741SOL    HW226736   4.166   5.848   3.209  1.7876 -0.3895 -1.3014
 6741SOL    HW326737   4.076   5.969   3.220  3.0587  0.4012  1.1303
 6741SOL    MW426738   4.111   5.905   3.173  0.1906 -0.6489  0.1141
 6742SOL     OW26739   3.549   1.988   1.417 -0.2699  0.0210  0.2299
 6742SOL    HW226740   3.489   1.925   1.376 -0.8479 -0.7106  2.0688
 6742SOL    HW326741   3.498   2.026   1.488  0.6193  1.3759  0.1692
 6742SOL    MW426742   3.534   1.985   1.421 -0.4050  0.0532 -0.0825
 6743SOL     OW26743   2.808   6.175   5.852 -0.1237 -0.5907  0.2489
 6743SOL    HW226744   2.716   6.150   5.856 -0.0565 -0.7022  1.4189
 6743SOL    HW326745   2.824   6.191   5.759 -1.5974  0.4991  0.1415
 6743SOL    MW426746   2.798   6.174   5.840 -0.0146 -0.5834  0.5379
 6744SOL     OW26747   5.757   2.595   3.345  0.0357 -0.4508 -0.5007
 6744SOL    HW226748   5.845   2.598   3.382 -0.0081 -0.6738 -0.3753
 6744SOL    HW326749   5.717   2.518   3.385 -0.5692  0.2257  0.2257
 6744SOL    MW426750   5.763   2.585   3.355  0.1906 -0.0270  0.4211
 6745SOL     OW26751   3.725   5.842   3.360 -0.0808 -0.2157 -0.1192
 6745SOL    HW226752   3.705   5.749   3.350 -1.1161 -0.2701  1.8951
 6745SOL    HW326753   3.654   5.876   3.415  0.2790  1.7711 -0.8208
 6745SOL    MW426754   3.713   5.834   3.366  0.2867  0.1678 -0.6831
 6746SOL     OW26755   0.541   2.481   5.332 -0.0011  0.1938 -0.1790
 6746SOL    HW226756   0.595   2.538   5.386 -0.7577  2.1256 -1.3777
 6746SOL    HW326757   0.460   2.471   5.381 -0.1308  0.7397 -0.2798
 6746SOL    MW426758   0.537   2.487   5.345 -0.8298 -0.7455 -0.6754
 6747SOL     OW26759   5.471   1.551   1.387  0.0541  0.0972 -0.6081
 6747SOL    HW226760   5.400   1.488   1.377 -0.3475  0.7327 -2.0346
 6747SOL    HW326761   5.461   1.585   1.476 -1.6203  0.4004 -0.8757
 6747SOL    MW426762   5.460   1.547   1.397  0.3520  0.5621 -1.0284
 6748SOL     OW26763   1.532   1.698   2.476  0.2524  0.0378 -0.7005
 6748SOL    HW226764   1.584   1.667   2.402  1.2314  0.2583 -0.1141
 6748SOL    HW326765   1.549   1.792   2.480 -0.5607  0.2032 -0.7710
 6748SOL    MW426766   1.541   1.706   2.467 -0.4437 -0.0919 -0.1915
 6749SOL     OW26767   1.547   1.234   6.229 -0.2615 -0.7829  0.0892
 6749SOL    HW226768   1.515   1.144   6.232 -0.5816 -0.7193 -1.1096
 6749SOL    HW326769   1.642   1.225   6.216 -0.1853 -0.9451  0.7307
 6749SOL    MW426770   1.556   1.221   6.228 -0.5244 -0.3305  0.4608
 6750SOL     OW26771   1.149   0.888   1.474  0.2506  0.2431 -0.0638
 6750SOL    HW226772   1.194   0.811   1.439  0.6171  0.8008 -0.8463
 6750SOL    HW326773   1.215   0.957   1.474 -0.8658  1.4463 -2.4811
 6750SOL    MW426774   1.164   0.887   1.470  0.3008  0.5198  0.0217
 6751SOL     OW26775   5.587   4.350   0.370 -0.1976  0.7294  0.3545
 6751SOL    HW226776   5.532   4.411   0.321 -0.3579  2.0205  2.0205
 6751SOL    HW326777   5.599   4.392   0.455  4.7387  1.3459 -0.3592
 6751SOL    MW426778   5.581   4.363   0.375 -0.0111 -0.1069 -0.8342
 6752SOL     OW26779   0.218   2.003   5.523  0.1753 -0.4271  0.2692
 6752SOL    HW226780   0.286   1.940   5.501  0.2475 -0.8002  1.4872
 6752SOL    HW326781   0.227   2.017   5.617  0.5869  1.8970 -0.0460
 6752SOL    MW426782   0.228   1.997   5.532 -0.2645  0.5507  0.7363
 6753SOL     OW26783   1.699   3.784   1.008  0.9153 -0.2718 -0.3702
 6753SOL    HW226784   1.704   3.864   1.059  0.1260  0.3327 -1.1847
 6753SOL    HW326785   1.715   3.812   0.918  1.0257 -1.0982 -0.6184
 6753SOL    MW426786   1.701   3.798   1.003  0.1603 -0.7553 -0.0506
 6754SOL     OW26787   2.285   4.149   6.297 -0.3431  0.1105 -0.4635
 6754SOL    HW226788   2.323   4.095   6.228  0.2091 -0.7882  0.5274
 6754SOL    HW326789   2.344   4.224   6.304 -0.4271  0.2259 -1.0013
 6754SOL    MW426790   2.298   4.152   6.289  0.4630  0.3434 -1.2718
 6755SOL     OW26791   2.797   0.924   6.242 -0.1155 -0.0124 -0.0664
 6755SOL    HW226792   2.712   0.921   6.198  1.0882 -0.4117 -2.5405
 6755SOL    HW326793   2.859   0.892   6.176  2.3075  2.5999  0.7634
 6755SOL    MW426794   2.794   0.919   6.227 -0.1398 -0.1912 -0.2026
 6756SOL     OW26795   3.171   0.766   2.133 -0.4158 -0.8483 -0.4975
 6756SOL    HW226796   3.077   0.782   2.133 -0.7329 -2.1721  2.0367
 6756SOL    HW326797   3.211   0.852   2.142 -1.4327 -0.3493 -0.7026
 6756SOL    MW426798   3.164   0.779   2.134 -0.2558 -0.6959  0.5586
 6757SOL     OW26799   0.809   1.129   3.752  0.2208  0.0664 -0.4094
 6757SOL    HW226800   0.840   1.081   3.676  0.8229 -0.6458  0.2599
 6757SOL    HW326801   0.716   1.106   3.759  0.9552 -3.0897  1.2865
 6757SOL    MW426802   0.801   1.119   3.743 -0.0245 -0.1997  0.1193
 6758SOL     OW26803   1.994   5.117   3.071  0.7672 -0.1555 -0.2298
 6758SOL    HW226804   2.089   5.112   3.079  0.9769 -1.4252 -2.7091
 6758SOL    HW326805   1.964   5.027   3.083  0.0894 -0.1067 -1.3905
 6758SOL    MW426806   2.002   5.105   3.074 -0.5146  0.0213  0.7326
 6759SOL     OW26807   2.941   1.570   4.812  0.3121  0.3156 -0.2176
 6759SOL    HW226808   2.930   1.536   4.723 -2.6074  0.0113  0.1294
 6759SOL    HW326809   3.025   1.536   4.841  1.5789  0.8217 -2.9924
 6759SOL    MW426810   2.950   1.561   4.804 -0.0301  0.2764 -0.0214
 6760SOL     OW26811   2.317   3.855   1.358  0.0227 -0.5736  0.6967
 6760SOL    HW226812   2.318   3.769   1.402  1.9783 -1.4765 -0.9500
 6760SOL    HW326813   2.409   3.880   1.353 -0.0745 -0.5048 -2.7470
 6760SOL    MW426814   2.329   3.847   1.363 -0.1580  0.4677  0.1109
 6761SOL     OW26815   0.145   5.489   3.518 -0.0184  0.5743  0.1101
 6761SOL    HW226816   0.172   5.565   3.569 -0.0308 -1.0104  2.6560
 6761SOL    HW326817   0.227   5.446   3.493  0.0185 -0.3394  1.6314
 6761SOL    MW426818   0.159   5.493   3.521 -0.3712 -0.7905  0.0049
 6762SOL     OW26819   1.703   1.796   5.361 -0.6408  0.1346 -0.2084
 6762SOL    HW226820   1.672   1.874   5.408 -1.4840 -0.8237  0.8881
 6762SOL    HW326821   1.672   1.809   5.271 -1.5137  0.6694  0.1545
 6762SOL    MW426822   1.695   1.808   5.355 -0.1689  0.6045 -0.1050
 6763SOL     OW26823   0.740   3.513   5.606  0.6468  0.1155 -0.6568
 6763SOL    HW226824   0.741   3.427   5.649  0.5624  1.1795  1.6398
 6763SOL    HW326825   0.702   3.496   5.520 -1.0083 -1.8961  0.3710
 6763SOL    MW426826   0.735   3.499   5.601 -0.0028  0.0530  0.2509
 6764SOL     OW26827   3.417   0.172   5.726 -0.2709  0.0992 -0.0469
 6764SOL    HW226828   3.418   0.142   5.816 -0.8509 -2.5027 -0.8308
 6764SOL    HW326829   3.326   0.199   5.710 -0.5057 -0.7772 -0.2331
 6764SOL    MW426830   3.405   0.172   5.736  0.3632 -0.1877  0.4230
 6765SOL     OW26831   5.568   4.425   4.664 -0.0638  0.4303 -0.3606
 6765SOL    HW226832   5.578   4.376   4.746  0.5023  0.6697 -0.2874
 6765SOL    HW326833   5.552   4.515   4.691 -2.5485  0.0919 -0.4559
 6765SOL    MW426834   5.567   4.430   4.678 -0.2200 -0.1127 -0.6465
 6766SOL     OW26835   1.556   2.060   1.875  0.2338 -0.1078 -0.0069
 6766SOL    HW226836   1.647   2.055   1.845 -0.2955 -1.3735 -1.5063
 6766SOL    HW326837   1.504   2.056   1.795 -1.2325 -2.8751  0.9406
 6766SOL    MW426838   1.562   2.059   1.861  0.3691 -0.2149  0.3535
 6767SOL     OW26839   1.290   0.950   5.382  0.0998  0.5637 -0.1986
 6767SOL    HW226840   1.247   1.025   5.424  2.0329  0.5427  2.0182
 6767SOL    HW326841   1.295   0.884   5.451  1.6513 -0.2407 -1.0435
 6767SOL    MW426842   1.285   0.951   5.397  0.5032 -0.1386 -0.2368
 6768SOL     OW26843   1.308   5.612   2.618 -0.0231 -0.0589  0.0302
 6768SOL    HW226844   1.289   5.633   2.527 -0.1792 -0.4107 -0.0196
 6768SOL    HW326845   1.340   5.522   2.617 -0.7095 -0.3193  0.3979
 6768SOL    MW426846   1.310   5.603   2.606 -0.4327 -0.3521 -0.5099
 6769SOL     OW26847   5.969   3.146   3.630  0.4382 -0.7424 -0.5126
 6769SOL    HW226848   6.001   3.157   3.720  0.1224  1.8056 -0.6463
 6769SOL    HW326849   5.942   3.234   3.603 -2.1998 -1.9142 -2.0912
 6769SOL    MW426850   5.969   3.159   3.638 -0.5075  0.1302 -0.0110
 6770SOL     OW26851   5.643   5.983   3.235  0.0100 -0.1346  0.0401
 6770SOL    HW226852   5.592   6.027   3.303  0.6225  2.2037 -0.9197
 6770SOL    HW326853   5.714   5.940   3.282  1.0538  2.3537  0.8429
 6770SOL    MW426854   5.645   5.983   3.250 -0.3620 -0.1071 -0.1837
 6771SOL     OW26855   5.085   2.588   5.065  0.5512  0.6223 -0.0784
 6771SOL    HW226856   5.176   2.597   5.039  0.2562  1.0434 -0.9865
 6771SOL    HW326857   5.044   2.536   4.996  0.1098  0.3887  0.3475
 6771SOL    MW426858   5.091   2.583   5.053 -0.6771 -0.4628  0.0287
 6772SOL     OW26859   0.365   3.941   3.462  0.1687  0.4065 -0.4889
 6772SOL    HW226860   0.403   3.853   3.461  1.3285  0.8876 -0.3931
 6772SOL    HW326861   0.318   3.948   3.379  0.3133 -0.1938 -0.6261
 6772SOL    MW426862   0.364   3.930   3.451  0.1232  0.2301 -0.6036
 6773SOL     OW26863   0.108   4.147   5.786  0.4399 -0.2679  0.1096
 6773SOL    HW226864   0.153   4.223   5.824 -0.4672 -0.2612  1.2484
 6773SOL    HW326865   0.067   4.105   5.861 -0.7787 -0.7187 -0.7890
 6773SOL    MW426866   0.109   4.151   5.801 -0.2218 -0.2934  0.3996
 6774SOL     OW26867   0.680   2.465   0.935 -0.2366 -0.4264  0.3798
 6774SOL    HW226868   0.728   2.457   0.852 -0.4056 -1.8007  0.3962
 6774SOL    HW326869   0.702   2.385   0.983 -1.6395 -0.5429  0.8666
 6774SOL    MW426870   0.690   2.453   0.930 -0.4018  0.3366 -0.4294
 6775SOL     OW26871   0.184   0.058   3.985  0.0671  0.1248 -0.0337
 6775SOL    HW226872   0.198  -0.017   3.927 -1.4852 -0.0720 -0.1981
 6775SOL    HW326873   0.089   0.067   3.990  0.2185  1.7691  0.4056
 6775SOL    MW426874   0.173   0.049   3.978  0.3825  0.3059  0.6168
 6776SOL     OW26875   4.853   3.702   2.448  0.6049 -0.6965 -0.4631
 6776SOL    HW226876   4.936   3.689   2.401  2.4771  0.5992  2.2691
 6776SOL    HW326877   4.858   3.641   2.522  0.1789  0.9542  0.9796
 6776SOL    MW426878   4.865   3.692   2.451  0.3713  0.8047 -0.1767
 6777SOL     OW26879   0.633   1.475   0.884 -0.0486  0.1601 -0.2927
 6777SOL    HW226880   0.616   1.529   0.806  0.9558  0.6874 -0.1708
 6777SOL    HW326881   0.662   1.538   0.950  0.6014 -0.4664  0.0265
 6777SOL    MW426882   0.635   1.491   0.882  0.2639 -0.3407 -0.2158
 6778SOL     OW26883   0.605   0.414   5.146 -0.5285  0.1492 -0.1935
 6778SOL    HW226884   0.518   0.430   5.111 -0.9888 -0.7966  0.4636
 6778SOL    HW326885   0.646   0.355   5.083  0.8244  2.9320 -2.1253
 6778SOL    MW426886   0.599   0.408   5.133 -0.1574 -0.0761  0.8984
 6779SOL     OW26887   5.575   5.328   3.332  0.2864 -0.2274 -0.2372
 6779SOL    HW226888   5.587   5.302   3.424  1.4433  2.4738  0.4840
 6779SOL    HW326889   5.484   5.356   3.327  0.1728 -0.5380  0.0410
 6779SOL    MW426890   5.565   5.328   3.344  0.4289 -0.5815  0.3301
 6780SOL     OW26891   4.761   4.077   2.618  0.0234  0.3342  0.0163
 6780SOL    HW226892   4.702   4.144   2.651  0.6961  1.3334 -0.7347
 6780SOL    HW326893   4.807   4.120   2.545  1.1845 -0.6203  0.1583
 6780SOL    MW426894   4.760   4.092   2.612  0.4210  0.3852 -0.0436
 6781SOL     OW26895   2.293   0.196   1.934  0.7123  0.2935 -0.2459
 6781SOL    HW226896   2.366   0.238   1.887  1.6298 -1.0059 -0.0208
 6781SOL    HW326897   2.265   0.125   1.877 -1.6010  1.8006 -1.1584
 6781SOL    MW426898   2.299   0.192   1.920 -0.2433  0.4316 -0.1314
 6782SOL     OW26899   5.775   1.918   3.853 -0.0659  0.5784  0.2986
 6782SOL    HW226900   5.795   1.909   3.946  1.5083 -1.0840 -0.1717
 6782SOL    HW326901   5.851   1.882   3.807 -1.2953  0.2789 -1.6330
 6782SOL    MW426902   5.787   1.912   3.859  0.1280 -0.0164  0.5041
 6783SOL     OW26903   1.456   1.053   0.829  0.1689 -0.2004 -0.0795
 6783SOL    HW226904   1.543   1.016   0.848  0.1361 -0.2062  0.0595
 6783SOL    HW326905   1.433   1.017   0.744 -0.3492 -1.4127  0.5483
 6783SOL    MW426906   1.464   1.043   0.821  0.1544  0.0620 -0.3076
 6784SOL     OW26907   5.582   1.489   0.246 -0.5470  0.3787  0.4627
 6784SOL    HW226908   5.510   1.439   0.285 -1.6065 -0.0082 -1.8062
 6784SOL    HW326909   5.542   1.534   0.172  1.6736 -0.4653 -1.3701
 6784SOL    MW426910   5.567   1.489   0.241 -0.0895 -0.5225  0.1253
 6785SOL     OW26911   3.412   4.042   5.354 -0.4005  0.4170  0.6345
 6785SOL    HW226912   3.433   3.974   5.418  0.3359 -0.4316 -0.4370
 6785SOL    HW326913   3.370   4.112   5.404 -0.5145 -0.5200  1.8950
 6785SOL    MW426914   3.409   4.042   5.369  0.0101  0.0877  0.5009
 6786SOL     OW26915   3.888   3.891   5.764 -0.2899  0.0124  0.0778
 6786SOL    HW226916   3.893   3.867   5.857  1.1859  0.2002  0.0665
 6786SOL    HW326917   3.887   3.808   5.718 -2.5605 -0.1320  0.2781
 6786SOL    MW426918   3.888   3.877   5.770  0.0828  0.7682 -0.2421
 6787SOL     OW26919   4.784   0.951   1.866 -0.0713 -0.9934 -0.0097
 6787SOL    HW226920   4.699   0.914   1.892 -0.1637  0.6903  2.4152
 6787SOL    HW326921   4.795   1.028   1.923  1.9427  0.3215 -2.0149
 6787SOL    MW426922   4.774   0.956   1.877 -0.1463  0.1224 -0.0198
 6788SOL     OW26923   0.353   1.329   0.696  0.1036 -0.0081 -0.4083
 6788SOL    HW226924   0.306   1.246   0.686  1.0821 -0.8217  1.2684
 6788SOL    HW326925   0.445   1.307   0.682  0.4106  0.7149  0.3828
 6788SOL    MW426926   0.359   1.316   0.693  0.1447  0.3735  0.4204
 6789SOL     OW26927   1.217   5.644   4.466 -0.0911  0.5581  0.3986
 6789SOL    HW226928   1.201   5.550   4.471  2.3940  0.1352  2.6562
 6789SOL    HW326929   1.143   5.684   4.511 -1.0868 -0.2992 -0.4492
 6789SOL    MW426930   1.205   5.637   4.472 -0.1712  0.4753  0.5720
 6790SOL     OW26931   3.772   1.452   0.712  0.5286 -0.1081 -0.6265
 6790SOL    HW226932   3.720   1.445   0.792  0.5416 -1.1888 -0.6961
 6790SOL    HW326933   3.781   1.546   0.697  1.2945  0.1392  1.1504
 6790SOL    MW426934   3.767   1.463   0.721  0.3503 -0.7497  0.4868
 6791SOL     OW26935   2.630   2.214   1.784 -0.2476  0.5683 -0.7446
 6791SOL    HW226936   2.600   2.299   1.753 -1.8708  0.1094 -0.5509
 6791SOL    HW326937   2.725   2.217   1.776 -0.3480  2.0154 -1.7091
 6791SOL    MW426938   2.638   2.225   1.779  0.0273  0.6158 -0.1349
 6792SOL     OW26939   2.294   0.849   5.026  0.0449  0.3434  0.6454
 6792SOL    HW226940   2.356   0.918   5.000  0.3224  0.4033  1.4546
 6792SOL    HW326941   2.348   0.781   5.065 -0.1414 -0.6861 -0.7822
 6792SOL    MW426942   2.309   0.850   5.028 -0.1371 -0.2754  0.0291
 6793SOL     OW26943   0.124   3.243   0.119  0.2589  0.5967 -0.3970
 6793SOL    HW226944   0.144   3.248   0.212  1.1339  0.3569 -0.5620
 6793SOL    HW326945   0.206   3.213   0.078 -0.5990 -1.0270 -1.0322
 6793SOL    MW426946   0.138   3.240   0.126  0.1888 -0.2874 -0.1074
 6794SOL     OW26947   2.013   5.798   6.033  0.1923  0.0725 -0.3343
 6794SOL    HW226948   1.971   5.747   5.964 -0.8430  0.7020 -0.1854
 6794SOL    HW326949   1.957   5.784   6.110  0.0957  1.1559 -0.2031
 6794SOL    MW426950   2.000   5.789   6.034  0.2635  0.1552  0.0801
 6795SOL     OW26951   1.630   3.604   0.399 -0.4381  0.1565  0.2473
 6795SOL    HW226952   1.718   3.569   0.402 -0.4146  0.2067  0.1590
 6795SOL    HW326953   1.596   3.592   0.487  0.2584  1.6740  0.7514
 6795SOL    MW426954   1.637   3.598   0.411  0.4011 -0.6192 -0.0980
 6796SOL     OW26955   2.319   4.627   1.855 -0.3015 -0.4890  0.1450
 6796SOL    HW226956   2.384   4.571   1.812 -0.4648 -0.9516  0.4865
 6796SOL    HW326957   2.353   4.638   1.944  0.7536  1.6170 -0.4664
 6796SOL    MW426958   2.332   4.621   1.861 -0.4352  0.0891 -0.0981
 6797SOL     OW26959   1.386   4.484   3.469  0.1811  0.7784  0.7394
 6797SOL    HW226960   1.462   4.514   3.420  0.4686 -0.2646  0.5169
 6797SOL    HW326961   1.415   4.483   3.560  0.9608 -1.0352  0.5161
 6797SOL    MW426962   1.400   4.488   3.475  0.7340 -0.1248  0.1446
 6798SOL     OW26963   2.003   2.221   0.179  0.5806  0.6053  0.1812
 6798SOL    HW226964   2.044   2.151   0.230  2.4081  1.6398  0.2165
 6798SOL    HW326965   2.067   2.244   0.112 -0.8600  0.8198 -1.2041
 6798SOL    MW426966   2.017   2.215   0.177 -0.8985 -0.2124 -0.0684
 6799SOL     OW26967   3.717   1.140   4.676 -0.0713  0.0112 -0.2611
 6799SOL    HW226968   3.646   1.076   4.682 -1.4406  1.5702  1.1908
 6799SOL    HW326969   3.687   1.202   4.610 -0.4897  1.1175  0.9281
 6799SOL    MW426970   3.703   1.140   4.668 -0.0306 -0.0909  0.6106
 6800SOL     OW26971   4.798   0.405   3.320  0.0109  0.0082  0.5971
 6800SOL    HW226972   4.826   0.486   3.362  0.9354  0.2285 -0.3966
 6800SOL    HW326973   4.702   0.409   3.320  0.0444  1.4251 -0.0229
 6800SOL    MW426974   4.789   0.416   3.325 -0.5437  0.5165  0.2604
 6801SOL     OW26975   0.921   1.991   5.479 -0.2707 -0.4848  0.3132
 6801SOL    HW226976   0.983   2.001   5.407  0.2747  0.3335  0.8741
 6801SOL    HW326977   0.845   1.948   5.440 -1.5461  3.1037 -1.7208
 6801SOL    MW426978   0.919   1.987   5.464  0.0335  0.0043  0.0860
 6802SOL     OW26979   2.079   6.077   2.944  0.0212  0.4651 -0.5663
 6802SOL    HW226980   2.042   6.052   2.860  0.4871  0.1482 -0.6848
 6802SOL    HW326981   2.028   6.153   2.972  0.3007  1.0010 -1.4653
 6802SOL    MW426982   2.068   6.084   2.937  0.1827 -0.2836 -0.3784
 6803SOL     OW26983   4.427   2.495   3.984  0.0015 -0.3217 -0.0840
 6803SOL    HW226984   4.509   2.499   4.034  0.5620 -0.6036 -0.9692
 6803SOL    HW326985   4.454   2.486   3.893 -1.0205 -0.7588 -0.3604
 6803SOL    MW426986   4.441   2.495   3.979 -0.1075 -0.2662 -0.5464
 6804SOL     OW26987   0.466   4.702   0.459 -0.5514  0.0824 -0.3976
 6804SOL    HW226988   0.560   4.718   0.463 -0.5689  0.2789 -0.7369
 6804SOL    HW326989   0.446   4.655   0.540 -0.2560  0.5541 -0.0433
 6804SOL    MW426990   0.476   4.698   0.470 -0.3277 -0.1471 -0.5458
 6805SOL     OW26991   0.301   5.049   5.894  0.1971 -0.1134 -0.3649
 6805SOL    HW226992   0.322   4.969   5.846 -0.9605 -1.1386  0.7547
 6805SOL    HW326993   0.236   5.021   5.959 -0.1181  1.7143  0.1507
 6805SOL    MW426994   0.295   5.035   5.896  0.1270  0.2794  0.0611
 6806SOL     OW26995   0.715   6.128   2.715 -0.0828 -0.0574 -0.0350
 6806SOL    HW226996   0.778   6.058   2.696  1.1093  1.0392 -0.2274
 6806SOL    HW326997   0.767   6.208   2.715 -1.5985  0.9852 -0.9735
 6806SOL    MW426998   0.730   6.129   2.712  0.4721  0.0852 -0.0482
 6807SOL     OW26999   3.234   1.385   2.359  0.5104 -0.2398 -0.4809
 6807SOL    HW227000   3.193   1.309   2.399  1.5192 -1.1807 -1.1611
 6807SOL    HW327001   3.171   1.415   2.294  0.3146 -0.8272 -0.5703
 6807SOL    MW427002   3.221   1.379   2.356 -0.1557  0.2227  0.3612
 6808SOL     OW27003   0.154   1.486   4.106  0.1211 -0.6976  0.0229
 6808SOL    HW227004   0.192   1.422   4.167  1.4308  0.5864  0.6089
 6808SOL    HW327005   0.078   1.521   4.153  0.4969 -0.4838  0.4805
 6808SOL    MW427006   0.149   1.482   4.120 -0.3713 -0.4854 -0.0082
 6809SOL     OW27007   0.271   4.164   4.164 -0.2119  0.0899 -0.2497
 6809SOL    HW227008   0.274   4.247   4.212  0.4734 -0.0583 -0.0359
 6809SOL    HW327009   0.252   4.098   4.231  0.0691 -0.0327 -0.2922
 6809SOL    MW427010   0.269   4.166   4.179  0.8488  0.6540  0.0810
 6810SOL     OW27011   5.950   1.993   0.212 -0.1426  0.5904  0.1114
 6810SOL    HW227012   5.889   1.943   0.266  0.9665 -1.1522 -0.1888
 6810SOL    HW327013   5.965   2.074   0.262 -0.1494 -0.4132  1.8008
 6810SOL    MW427014   5.944   1.997   0.226  0.0552 -0.1857 -0.0722
 6811SOL     OW27015   2.378   4.431   3.121 -0.6458  0.5040 -0.0345
 6811SOL    HW227016   2.470   4.427   3.094 -0.7546  2.4850 -0.8228
 6811SOL    HW327017   2.366   4.354   3.178  1.4998  0.2671  0.1555
 6811SOL    MW427018   2.388   4.420   3.125  0.2649  0.0356  0.4133
 6812SOL     OW27019   1.452   0.194   0.689  0.0226 -0.6416  0.2010
 6812SOL    HW227020   1.439   0.164   0.779  0.7350  0.6883  0.7623
 6812SOL    HW327021   1.543   0.175   0.669  0.1200 -0.0897  0.0943
 6812SOL    MW427022   1.462   0.187   0.698 -0.2804  0.0489  0.5890
 6813SOL     OW27023   0.970   2.454   2.017  0.3481  0.3136 -0.1882
 6813SOL    HW227024   0.970   2.432   2.110 -0.6997  0.8627 -0.0422
 6813SOL    HW327025   1.034   2.524   2.009  1.2847 -0.5026 -0.0958
 6813SOL    MW427026   0.978   2.460   2.028 -0.3104  0.2623  0.0192
 6814SOL     OW27027   1.782   3.575   3.306 -0.2665 -0.1093  0.0645
 6814SOL    HW227028   1.766   3.633   3.380 -0.5891 -0.3507  0.1870
 6814SOL    HW327029   1.821   3.496   3.344 -1.7080 -0.8114  0.1806
 6814SOL    MW427030   1.785   3.572   3.321  0.3252 -0.1753  0.3001
 6815SOL     OW27031   0.433   5.086   3.148  0.8326  0.4384  0.1752
 6815SOL    HW227032   0.527   5.099   3.155  0.7373  2.7821 -1.6436
 6815SOL    HW327033   0.419   5.059   3.057 -0.1905 -1.2875  0.7790
 6815SOL    MW427034   0.443   5.084   3.137  0.3278 -0.0024  0.3289
 6816SOL     OW27035   3.954   4.601   4.833  0.5368  0.1271  0.0268
 6816SOL    HW227036   3.988   4.512   4.830  1.9204  0.6532 -0.7229
 6816SOL    HW327037   4.028   4.654   4.864 -0.0252  1.1095 -0.2663
 6816SOL    MW427038   3.968   4.597   4.837 -0.5354 -0.0761 -0.0673
 6817SOL     OW27039   5.079   1.276   4.934  0.0096  0.2767  0.1539
 6817SOL    HW227040   5.119   1.319   4.858 -0.5649  0.0401 -0.2913
 6817SOL    HW327041   5.076   1.183   4.910  0.6549  0.0693  0.8454
 6817SOL    MW427042   5.084   1.269   4.921 -0.1633 -0.1657 -0.3723
 6818SOL     OW27043   6.312   4.392   5.446 -0.0167 -0.3423 -0.2965
 6818SOL    HW227044   6.307   4.297   5.433 -1.0068 -0.1503 -1.4820
 6818SOL    HW327045   6.360   4.402   5.528  1.2624 -1.8346 -0.8075
 6818SOL    MW427046   6.318   4.381   5.455 -0.3675 -0.4119  0.2720
 6819SOL     OW27047   1.350   6.222   5.211 -0.2296 -0.0496 -0.2716
 6819SOL    HW227048   1.267   6.206   5.256  1.1148  0.1241  2.5159
 6819SOL    HW327049   1.354   6.317   5.200 -0.4473 -0.0690 -0.5256
 6819SOL    MW427050   1.340   6.232   5.216 -0.0563 -0.2937 -0.0650
 6820SOL     OW27051   1.947   2.483   2.297  0.0567  0.4618 -0.2415
 6820SOL    HW227052   1.986   2.556   2.345  0.8796 -1.0590  1.5485
 6820SOL    HW327053   1.971   2.498   2.206  2.1013  1.2947  0.3833
 6820SOL    MW427054   1.955   2.494   2.291 -0.0087 -0.2985 -0.2735
 6821SOL     OW27055   0.668   4.614   6.418  0.3275  0.2482 -0.0425
 6821SOL    HW227056   0.574   4.626   6.409  0.1662  0.3702  1.5076
 6821SOL    HW327057   0.691   4.662   6.498  1.5956 -0.2896 -0.0575
 6821SOL    MW427058   0.659   4.622   6.427 -0.5183  0.0782 -0.4358
 6822SOL     OW27059   1.283   4.077   4.299 -0.1047 -0.1512 -0.3478
 6822SOL    HW227060   1.345   4.150   4.297  1.0177 -1.1019 -1.5073
 6822SOL    HW327061   1.215   4.103   4.237 -0.0054  0.1559 -0.3317
 6822SOL    MW427062   1.282   4.090   4.291 -0.3165  0.7235 -0.3010
 6823SOL     OW27063   4.799   3.864   2.229  0.0955 -0.7205 -0.3239
 6823SOL    HW227064   4.866   3.924   2.262 -1.0754  0.3028  0.3243
 6823SOL    HW327065   4.784   3.803   2.301  0.9438 -1.5032 -0.8014
 6823SOL    MW427066   4.806   3.864   2.243  0.2521  0.2702 -0.0548
 6824SOL     OW27067   4.465   5.461   3.897  0.4392 -0.1469 -0.5571
 6824SOL    HW227068   4.459   5.381   3.845 -1.6219  0.0705 -0.7115
 6824SOL    HW327069   4.375   5.492   3.905  1.0581  1.5177  0.5243
 6824SOL    MW427070   4.453   5.454   3.891 -0.3640 -0.9997  0.1609
 6825SOL     OW27071   0.357   2.158   0.237  0.0462  0.1101 -0.6195
 6825SOL    HW227072   0.419   2.180   0.307  0.3845  0.0692 -0.9032
 6825SOL    HW327073   0.305   2.237   0.225 -1.7560 -0.6593  1.4349
 6825SOL    MW427074   0.358   2.171   0.245 -0.2140 -0.2647  0.1978
 6826SOL     OW27075   0.717   0.980   4.365 -0.1682 -0.3838  0.2617
 6826SOL    HW227076   0.689   0.894   4.396 -0.2932 -0.1631  0.7721
 6826SOL    HW327077   0.812   0.980   4.376 -0.2279 -0.2582  0.7582
 6826SOL    MW427078   0.725   0.968   4.370  0.7570 -0.0807 -0.0049
 6827SOL     OW27079   2.974   3.083   5.329  0.0332  0.6001  0.4394
 6827SOL    HW227080   3.005   3.001   5.291 -0.2943  0.3841  0.6442
 6827SOL    HW327081   3.048   3.143   5.317  0.1561  0.3700 -0.0022
 6827SOL    MW427082   2.988   3.080   5.322  0.3574  0.5836  0.0143
 6828SOL     OW27083   6.194   6.201   3.194  0.0571  0.2955 -0.1832
 6828SOL    HW227084   6.183   6.109   3.219 -0.8654  0.3899 -0.2429
 6828SOL    HW327085   6.125   6.247   3.240  1.0320  1.0947  0.5077
 6828SOL    MW427086   6.184   6.195   3.203  0.4890 -0.0401  0.5700
 6829SOL     OW27087   4.788   1.768   0.553  0.6667  0.2131 -0.2679
 6829SOL    HW227088   4.719   1.805   0.498 -0.8608  1.1210  2.1217
 6829SOL    HW327089   4.741   1.712   0.615  2.1102  0.5818  1.2115
 6829SOL    MW427090   4.772   1.765   0.554 -0.3533 -0.2919 -0.5624
 6830SOL     OW27091   3.065   0.059   6.398 -0.4440 -0.0170  0.3970
 6830SOL    HW227092   3.065   0.043   6.493  2.9012  1.7479  0.8190
 6830SOL    HW327093   3.048  -0.027   6.360 -0.4513 -1.0632  2.5807
 6830SOL    MW427094   3.063   0.045   6.406 -0.4976  0.1382  0.3935
 6831SOL     OW27095   4.050   0.784   2.772 -0.0517 -0.5974  0.1273
 6831SOL    HW227096   3.972   0.828   2.739  0.4541 -0.6326 -1.1865
 6831SOL    HW327097   4.111   0.855   2.792  0.5346 -0.6497 -1.3910
 6831SOL    MW427098   4.048   0.799   2.770 -0.0965  0.3228 -0.3735
 6832SOL     OW27099   5.214   4.522   4.777  0.2286  0.5465  0.1876
 6832SOL    HW227100   5.247   4.529   4.687 -1.2449 -1.8132 -0.6475
 6832SOL    HW327101   5.169   4.604   4.792  1.9047  1.6643 -0.5872
 6832SOL    MW427102   5.212   4.533   4.767  0.0636  0.0811  0.1316
 6833SOL     OW27103   1.015   1.598   0.743 -0.0691 -0.0250  0.2219
 6833SOL    HW227104   1.033   1.665   0.809 -1.0112  0.9729 -0.5078
 6833SOL    HW327105   1.039   1.516   0.786  0.1910  0.6784  1.4819
 6833SOL    MW427106   1.021   1.596   0.757 -0.0068 -0.1207 -0.3111
 6834SOL     OW27107   5.813   1.131   3.472  0.8498 -0.2505  0.5154
 6834SOL    HW227108   5.870   1.059   3.442  0.3775 -1.2849  1.9769
 6834SOL    HW327109   5.872   1.206   3.477  1.2858 -0.3916 -1.4007
 6834SOL    MW427110   5.829   1.131   3.468  0.4855  0.2917 -0.1046
 6835SOL     OW27111   1.391   5.861   5.891 -0.6543  0.0939 -0.4810
 6835SOL    HW227112   1.480   5.864   5.925 -0.5239  1.1301 -0.8649
 6835SOL    HW327113   1.390   5.788   5.830 -0.1877 -0.1852 -0.1583
 6835SOL    MW427114   1.403   5.852   5.888 -0.0127 -0.2157  0.7179
 6836SOL     OW27115   2.891   1.551   3.403 -0.1241 -0.1762 -0.0931
 6836SOL    HW227116   2.968   1.500   3.427  0.8742 -0.0279 -2.6875
 6836SOL    HW327117   2.864   1.593   3.485  1.3673 -1.7431  1.2831
 6836SOL    MW427118   2.897   1.550   3.417  0.0250  0.0714  0.6216
 6837SOL     OW27119   5.205   3.009   3.402 -0.1745 -0.1443 -0.4738
 6837SOL    HW227120   5.192   2.940   3.467  0.1702 -0.1198 -0.3775
 6837SOL    HW327121   5.296   3.037   3.414 -0.6097  1.0589  0.2008
 6837SOL    MW427122   5.216   3.003   3.412  0.6355  0.8127 -0.8821
 6838SOL     OW27123   1.008   2.092   1.360 -0.5099  0.4955 -0.8378
 6838SOL    HW227124   1.027   2.148   1.285 -0.1754  0.3836 -0.8406
 6838SOL    HW327125   0.920   2.118   1.388  0.3218  2.3111  0.2915
 6838SOL    MW427126   0.999   2.103   1.354  0.0600 -0.1652 -0.1576
 6839SOL     OW27127   2.787   4.796   5.445  0.4175 -0.0228  0.1625
 6839SOL    HW227128   2.735   4.858   5.496  0.7794  0.6872 -0.3148
 6839SOL    HW327129   2.863   4.846   5.416  1.6106 -1.1542  1.2135
 6839SOL    MW427130   2.790   4.811   5.448  0.8236  0.4682 -0.7936
 6840SOL     OW27131   6.274   2.241   4.072 -0.6618  0.1469  0.2678
 6840SOL    HW227132   6.349   2.182   4.061  0.7985  1.9647 -0.1055
 6840SOL    HW327133   6.197   2.186   4.056  0.6892 -1.2271 -2.0096
 6840SOL    MW427134   6.274   2.226   4.068  0.2329 -0.4425 -0.1389
 6841SOL     OW27135   1.581   5.884   4.227 -0.3609  0.0578 -0.0392
 6841SOL    HW227136   1.641   5.906   4.156 -1.2294 -0.9342 -1.1139
 6841SOL    HW327137   1.631   5.826   4.285 -0.0461 -0.1613 -0.5274
 6841SOL    MW427138   1.595   5.879   4.225  0.2077  0.2846  0.1142
 6842SOL     OW27139   3.903   5.857   0.135 -0.4387  0.0052 -0.5186
 6842SOL    HW227140   3.984   5.903   0.113  0.3337 -0.4980  1.0936
 6842SOL    HW327141   3.837   5.925   0.141 -0.0891  0.4612 -1.5655
 6842SOL    MW427142   3.905   5.872   0.132  0.2332  0.4837  0.0055
 6843SOL     OW27143   5.757   6.311   4.069  0.4139  0.0673 -0.4765
 6843SOL    HW227144   5.793   6.231   4.031  1.0337  0.2986 -0.3799
 6843SOL    HW327145   5.780   6.380   4.006  0.1860  0.2264 -0.3864
 6843SOL    MW427146   5.764   6.310   4.055  0.1231  0.2734 -0.2987
 6844SOL     OW27147   4.143   0.207   1.897  0.3675 -0.0853  0.2913
 6844SOL    HW227148   4.126   0.276   1.960 -0.3530 -0.8699  0.9870
 6844SOL    HW327149   4.076   0.218   1.830  1.5221  1.1403 -0.7089
 6844SOL    MW427150   4.132   0.217   1.896  0.2584 -0.9674 -0.0711
 6845SOL     OW27151   0.688   6.250   5.334 -0.4867 -0.4991 -0.7077
 6845SOL    HW227152   0.660   6.300   5.258 -0.2939 -0.5095 -0.7880
 6845SOL    HW327153   0.729   6.172   5.297  0.8572  0.1360 -0.6510
 6845SOL    MW427154   0.690   6.246   5.319 -0.4080  0.3400 -0.0905
 6846SOL     OW27155   6.139   3.548   2.468  0.2843 -0.0124  0.0968
 6846SOL    HW227156   6.077   3.493   2.421  0.2771  0.3329 -0.2995
 6846SOL    HW327157   6.225   3.518   2.440  0.3082 -0.4865  0.6413
 6846SOL    MW427158   6.142   3.537   2.458 -0.3582 -0.4522 -0.1955
 6847SOL     OW27159   2.134   4.075   0.074  0.1160  0.1376 -0.4226
 6847SOL    HW227160   2.158   4.128   0.150 -1.2273 -0.5966  0.5578
 6847SOL    HW327161   2.192   4.106   0.004  0.3591  1.8809  0.4858
 6847SOL    MW427162   2.145   4.086   0.075 -0.3488 -0.2398 -0.2327
 6848SOL     OW27163   4.786   3.071   4.958  0.5374  0.1599 -0.1968
 6848SOL    HW227164   4.704   3.022   4.950  0.4919  0.1535  0.2703
 6848SOL    HW327165   4.853   3.004   4.972  0.4486  0.2315  0.6337
 6848SOL    MW427166   4.784   3.055   4.959  0.0565 -0.1129  0.8994
 6849SOL     OW27167   5.006   1.373   3.037 -0.3153  0.0180 -0.5042
 6849SOL    HW227168   5.051   1.292   3.063  0.2076  0.5468  0.2691
 6849SOL    HW327169   4.934   1.382   3.099 -0.0083  0.4568 -0.2025
 6849SOL    MW427170   5.003   1.363   3.049  0.4385 -0.4551  0.6891
 6850SOL     OW27171   6.288   2.549   0.342  0.3236  0.5959 -0.2923
 6850SOL    HW227172   6.320   2.632   0.377 -1.3079  0.8967  0.5329
 6850SOL    HW327173   6.316   2.484   0.406 -0.1627  0.7707  0.0955
 6850SOL    MW427174   6.296   2.551   0.355 -0.2334 -0.3266  0.1749
 6851SOL     OW27175   5.207   3.674   3.807  0.3994  0.3631  0.1768
 6851SOL    HW227176   5.238   3.658   3.718 -1.0653  0.3055 -0.3506
 6851SOL    HW327177   5.266   3.740   3.842  1.0370  0.3314 -0.8118
 6851SOL    MW427178   5.219   3.681   3.800  0.5033  0.5180  0.1498
 6852SOL     OW27179   4.533   5.067   1.457  0.0523 -0.1337 -0.0596
 6852SOL    HW227180   4.567   5.073   1.368  1.5929 -1.1611  0.4170
 6852SOL    HW327181   4.441   5.043   1.446  0.6465 -2.1070 -1.4067
 6852SOL    MW427182   4.525   5.064   1.443  0.0306  0.7552  1.1613
 6853SOL     OW27183   2.885   1.443   1.060 -0.3582  0.3384  0.2817
 6853SOL    HW227184   2.894   1.523   1.007 -0.5621  1.2604  1.6027
 6853SOL    HW327185   2.795   1.414   1.042 -0.3418  0.4977 -0.0764
 6853SOL    MW427186   2.874   1.450   1.050  0.3290  0.1557  0.8226
 6854SOL     OW27187   2.105   4.891   1.188  0.2925 -0.4110 -0.0782
 6854SOL    HW227188   2.090   4.804   1.223  1.3112 -0.6907 -0.3050
 6854SOL    HW327189   2.194   4.913   1.215 -0.4457  1.1806  1.2408
 6854SOL    MW427190   2.115   4.883   1.196 -0.1899  0.2510  0.2050
 6855SOL     OW27191   2.236   1.381   6.212 -0.6312  0.0308  0.1247
 6855SOL    HW227192   2.155   1.412   6.173 -1.5734 -2.0373  0.3063
 6855SOL    HW327193   2.216   1.369   6.304  0.4352  1.1814  0.5307
 6855SOL    MW427194   2.223   1.384   6.219 -0.0417 -0.3322 -0.2873
 6856SOL     OW27195   0.432   1.107   0.986 -0.2286  0.4890  0.0689
 6856SOL    HW227196   0.409   1.197   1.008  1.3422  0.5607  1.5814
 6856SOL    HW327197   0.526   1.102   1.001  0.0019 -0.9832 -1.5692
 6856SOL    MW427198   0.441   1.118   0.991  0.2431 -0.6848  0.0638
 6857SOL     OW27199   2.406   1.977   6.371  0.3610  0.2748 -0.1496
 6857SOL    HW227200   2.444   2.025   6.444  2.3012 -2.5836  0.8944
 6857SOL    HW327201   2.314   1.965   6.394  0.4150  1.3986  0.6812
 6857SOL    MW427202   2.399   1.981   6.383  0.6434  0.3697 -0.6477
 6858SOL     OW27203   6.318   2.286   5.512  0.4456  0.2229 -0.5572
 6858SOL    HW227204   6.266   2.209   5.534  1.6984 -1.0935 -1.9721
 6858SOL    HW327205   6.377   2.298   5.586 -0.2627  0.3156  0.0085
 6858SOL    MW427206   6.319   2.277   5.524 -0.2757 -0.2884  0.4292
 6859SOL     OW27207   0.773   2.981   1.736  0.1445  0.6056 -0.0774
 6859SOL    HW227208   0.806   3.056   1.786 -0.1491  1.0406 -0.5281
 6859SOL    HW327209   0.837   2.968   1.666 -0.3721  1.1388 -0.6584
 6859SOL    MW427210   0.786   2.989   1.734  0.2083 -0.3981 -0.1427
 6860SOL     OW27211   5.905   0.346   4.184  0.1497 -0.7220 -0.7323
 6860SOL    HW227212   5.954   0.290   4.124 -0.1981 -1.1936 -0.5799
 6860SOL    HW327213   5.838   0.387   4.130  0.1867 -0.7163 -0.7740
 6860SOL    MW427214   5.903   0.344   4.169 -0.0778 -0.3926 -0.0494
 6861SOL     OW27215   0.994   3.330   5.860  0.2287  0.3519 -0.0821
 6861SOL    HW227216   1.061   3.360   5.800  0.0316  1.4015  0.2026
 6861SOL    HW327217   0.981   3.403   5.921  1.3864 -1.1485  2.0942
 6861SOL    MW427218   1.001   3.344   5.860 -0.1196 -0.4994  0.1776
 6862SOL     OW27219   2.211   6.141   0.866  0.0367 -1.0785  0.3920
 6862SOL    HW227220   2.298   6.164   0.897 -0.0920  0.8428 -0.4812
 6862SOL    HW327221   2.168   6.101   0.942  1.0757 -0.3310  1.4084
 6862SOL    MW427222   2.217   6.139   0.880 -0.2556 -0.1177  0.3386
 6863SOL     OW27223   1.408   2.388   1.720 -0.2050 -0.4887 -0.3598
 6863SOL    HW227224   1.322   2.391   1.678 -0.2261  1.4724 -0.2472
 6863SOL    HW327225   1.390   2.359   1.810 -0.4422 -2.2317 -0.9160
 6863SOL    MW427226   1.394   2.384   1.727 -0.8903 -0.4553 -0.0988
 6864SOL     OW27227   5.973   1.425   0.486  0.0378  0.2282  0.2260
 6864SOL    HW227228   5.973   1.452   0.578  0.5463 -1.9290  0.9049
 6864SOL    HW327229   6.043   1.476   0.446 -1.9256  3.2751  0.2871
 6864SOL    MW427230   5.982   1.435   0.493  0.2140  0.2458  0.3921
 6865SOL     OW27231   0.410   2.691   3.427 -0.3227  0.0779 -0.0408
 6865SOL    HW227232   0.419   2.596   3.435 -1.4919 -0.0378  0.0485
 6865SOL    HW327233   0.331   2.713   3.478 -0.8896  0.8984 -1.2121
 6865SOL    MW427234   0.401   2.682   3.435  0.1282  0.0213  0.2108
 6866SOL     OW27235   5.562   0.050   5.825 -0.7603  0.3339  0.2942
 6866SOL    HW227236   5.612   0.012   5.752 -1.8475  1.0931 -0.8911
 6866SOL    HW327237   5.588   0.142   5.826 -1.5874  0.5795  0.1149
 6866SOL    MW427238   5.572   0.057   5.816  0.1631 -0.1460 -0.6890
 6867SOL     OW27239   4.260   5.437   5.936  0.6917  0.4586  0.1078
 6867SOL    HW227240   4.302   5.515   5.900 -0.3724  0.9284 -0.1528
 6867SOL    HW327241   4.181   5.470   5.978 -0.4526 -0.6024 -1.1233
 6867SOL    MW427242   4.255   5.452   5.936 -0.3903 -0.4985 -0.2623
 6868SOL     OW27243   0.287   4.705   5.498  0.3593 -0.0167 -0.1193
 6868SOL    HW227244   0.277   4.787   5.452  0.3250 -0.6546 -1.2812
 6868SOL    HW327245   0.235   4.642   5.448  3.2990 -1.5940 -1.5230
 6868SOL    MW427246   0.279   4.707   5.485 -0.0936 -0.0538  0.0369
 6869SOL     OW27247   2.052   4.649   2.821 -0.1499 -0.6036 -0.7862
 6869SOL    HW227248   2.016   4.640   2.733  1.6078  0.1890 -1.6382
 6869SOL    HW327249   2.123   4.585   2.824 -0.5199 -0.9799  0.2553
 6869SOL    MW427250   2.057   4.640   2.810 -0.3528 -0.4697 -0.1844
 6870SOL     OW27251   4.306   5.280   2.218  0.2391  0.2937  0.3463
 6870SOL    HW227252   4.295   5.226   2.296  0.3649  1.7932  1.4448
 6870SOL    HW327253   4.220   5.279   2.176 -0.2873  0.7653  1.3838
 6870SOL    MW427254   4.293   5.273   2.223  0.5055  0.1971 -0.5073
 6871SOL     OW27255   3.849   2.302   6.424 -0.2455  0.0493  0.3490
 6871SOL    HW227256   3.763   2.271   6.453  0.8268 -2.3088  1.2811
 6871SOL    HW327257   3.854   2.392   6.456 -2.6358  0.5164 -0.4046
 6871SOL    MW427258   3.838   2.310   6.432 -0.7764  0.2632  0.2385
 6872SOL     OW27259   5.335   0.228   1.100  0.0631  0.0465 -0.3016
 6872SOL    HW227260   5.412   0.193   1.055  0.1472 -0.7039  0.3911
 6872SOL    HW327261   5.369   0.262   1.183 -0.4822 -1.3867  0.5517
 6872SOL    MW427262   5.350   0.228   1.105  0.1139 -0.0086  0.0118
 6873SOL     OW27263   2.482   0.694   2.840  0.1322  0.0893 -0.5459
 6873SOL    HW227264   2.449   0.641   2.913  0.1952 -0.6435 -1.0430
 6873SOL    HW327265   2.440   0.656   2.763  1.5424 -0.3802 -1.1146
 6873SOL    MW427266   2.472   0.682   2.840  0.7130 -0.2470 -0.5749
 6874SOL     OW27267   2.815   2.205   6.352 -0.1782  0.3763 -0.3094
 6874SOL    HW227268   2.827   2.297   6.377  1.5692  0.5615 -1.6675
 6874SOL    HW327269   2.874   2.156   6.410 -0.2342  0.2376 -0.3679
 6874SOL    MW427270   2.824   2.211   6.363 -0.0917  0.1259  0.5180
 6875SOL     OW27271   5.250   3.343   3.013  0.7857  0.7653 -0.1399
 6875SOL    HW227272   5.229   3.330   2.921  0.1185 -1.2676  0.2412
 6875SOL    HW327273   5.303   3.267   3.037 -1.5044 -0.3859  1.8060
 6875SOL    MW427274   5.254   3.331   3.004 -0.6828 -0.0834  0.0043
 6876SOL     OW27275   4.623   0.676   1.208 -0.1469 -0.0190 -0.1321
 6876SOL    HW227276   4.642   0.593   1.252 -0.7175 -0.1111 -0.0625
 6876SOL    HW327277   4.611   0.739   1.279 -1.9616 -0.3547 -0.1132
 6876SOL    MW427278   4.624   0.674   1.223  0.4338 -0.4989 -0.4448
 6877SOL     OW27279   3.871   5.876   0.614 -0.3819 -0.0409 -0.1542
 6877SOL    HW227280   3.928   5.824   0.557 -0.9127 -1.8708  0.9197
 6877SOL    HW327281   3.915   5.874   0.699 -1.0689  0.2070  0.2072
 6877SOL    MW427282   3.885   5.869   0.617  0.4605  0.1633  0.2301
 6878SOL     OW27283   3.113   0.683   4.915  0.0582  0.1240  0.2042
 6878SOL    HW227284   3.201   0.667   4.882  0.8968  1.6587  1.5379
 6878SOL    HW327285   3.127   0.732   4.996 -2.0548  1.9251 -0.4323
 6878SOL    MW427286   3.127   0.687   4.921  0.4553  0.4569 -0.4457
 6879SOL     OW27287   2.227   2.545   3.713  0.2744 -0.0823  0.2174
 6879SOL    HW227288   2.220   2.483   3.640 -1.3262 -0.6231  0.7892
 6879SOL    HW327289   2.318   2.538   3.741  0.5800 -0.8584 -0.8642
 6879SOL    MW427290   2.238   2.536   3.707 -0.2503 -0.7225 -0.2263
 6880SOL     OW27291   2.230   6.255   3.778 -0.2049 -0.6718 -0.2855
 6880SOL    HW227292   2.155   6.202   3.750  0.2448 -2.4466  1.5997
 6880SOL    HW327293   2.214   6.341   3.740 -1.7404 -1.7540 -2.2791
 6880SOL    MW427294   2.218   6.259   3.770 -0.2870  0.1407 -0.0246
 6881SOL     OW27295   2.880   6.286   4.739  0.5091  0.0814  0.0788
 6881SOL    HW227296   2.841   6.304   4.653 -0.0655 -1.1217  0.0665
 6881SOL    HW327297   2.968   6.254   4.718  0.1206 -0.8933 -0.1200
 6881SOL    MW427298   2.886   6.284   4.725 -0.4308 -0.1153  0.8275
 6882SOL     OW27299   4.537   5.153   2.928  0.1008 -0.2105 -0.5382
 6882SOL    HW227300   4.607   5.129   2.867 -0.0122 -0.2191 -0.6648
 6882SOL    HW327301   4.548   5.248   2.939 -0.1548 -0.1328 -0.9215
 6882SOL    MW427302   4.548   5.162   2.921  0.4554 -0.5565  0.3120
 6883SOL     OW27303   1.529   4.038   2.296  0.4758  0.0193 -0.1133
 6883SOL    HW227304   1.438   4.029   2.323 -0.3791  0.0001 -2.7537
 6883SOL    HW327305   1.558   3.948   2.279  0.6827  0.0972 -0.1793
 6883SOL    MW427306   1.521   4.025   2.297 -0.0147  0.2530 -0.2590
 6884SOL     OW27307   3.757   0.110  -0.005  0.0994 -0.0598  1.1026
 6884SOL    HW227308   3.845   0.080   0.015  0.5086  1.2453  1.3504
 6884SOL    HW327309   3.717   0.125   0.081  0.2783  1.1036  0.9997
 6884SOL    MW427310   3.763   0.108   0.009  0.0718 -0.1639  0.5248
 6885SOL     OW27311   0.794   3.444   3.213 -0.1555  0.4816  0.0010
 6885SOL    HW227312   0.800   3.486   3.298  2.0342  0.1949  0.0488
 6885SOL    HW327313   0.882   3.451   3.177 -0.8775 -0.0012 -1.9592
 6885SOL    MW427314   0.806   3.450   3.220 -0.5565 -0.0471  0.7287
 6886SOL     OW27315   3.025   1.151   5.072  0.1294  0.3389  0.4087
 6886SOL    HW227316   2.942   1.194   5.092 -0.4681 -0.1009 -0.9959
 6886SOL    HW327317   3.032   1.156   4.976  1.2648 -0.4715  0.4309
 6886SOL    MW427318   3.015   1.158   5.062 -0.2216 -0.2024 -0.2467
 6887SOL     OW27319   3.874   6.068   1.352 -0.7471 -0.2449  0.0158
 6887SOL    HW227320   3.823   6.101   1.278 -0.8845  0.0854  0.2568
 6887SOL    HW327321   3.965   6.068   1.320 -0.9948 -1.9981 -0.8484
 6887SOL    MW427322   3.879   6.072   1.338  0.2418 -0.2647  0.1302
 6888SOL     OW27323   2.322   5.747   5.415  0.5838 -0.4553  0.6508
 6888SOL    HW227324   2.251   5.811   5.402 -0.1351 -1.2605  0.5078
 6888SOL    HW327325   2.398   5.787   5.373  0.2531  0.4899  0.9214
 6888SOL    MW427326   2.322   5.761   5.408 -0.1870  0.1688 -0.4788
 6889SOL     OW27327   2.942   2.853   2.501 -0.1593  0.6536 -0.2055
 6889SOL    HW227328   2.977   2.937   2.531 -0.2264  0.9420 -0.9092
 6889SOL    HW327329   2.998   2.787   2.543 -0.1304  1.0456  0.3803
 6889SOL    MW427330   2.954   2.855   2.510  0.3070 -0.1350 -0.2512
 6890SOL     OW27331   4.281   0.204   0.698  0.2748 -0.6342 -0.1127
 6890SOL    HW227332   4.304   0.297   0.690  1.6096 -0.9349 -0.0539
 6890SOL    HW327333   4.243   0.181   0.614 -0.5883  0.0938  0.0635
 6890SOL    MW427334   4.279   0.213   0.686  0.1406 -0.4576  0.5380
 6891SOL     OW27335   0.362   3.524   2.282 -0.4751  0.2773 -0.0647
 6891SOL    HW227336   0.357   3.438   2.323 -1.8265  0.2741 -0.1909
 6891SOL    HW327337   0.304   3.518   2.206  0.4414  0.8977 -0.8427
 6891SOL    MW427338   0.353   3.512   2.277 -1.2314  0.6187  0.1421
 6892SOL     OW27339   2.220   5.360   1.032  0.2428 -0.3614 -0.0654
 6892SOL    HW227340   2.271   5.366   0.952  0.9729  0.6936  0.4531
 6892SOL    HW327341   2.164   5.283   1.020  2.3821 -1.9348 -0.3860
 6892SOL    MW427342   2.219   5.351   1.020  0.5217 -0.4524 -0.4592
 6893SOL     OW27343   5.205   2.472   1.615 -0.3981 -0.3201  0.2413
 6893SOL    HW227344   5.274   2.493   1.552  1.0910 -0.9379  1.5853
 6893SOL    HW327345   5.216   2.537   1.684 -1.8831  0.2310 -0.0160
 6893SOL    MW427346   5.216   2.483   1.616 -0.4340 -0.5528 -0.5013
 6894SOL     OW27347   1.651   1.840   5.757  0.5598  0.0578  0.3227
 6894SOL    HW227348   1.562   1.814   5.777  0.0242  1.7355  0.2829
 6894SOL    HW327349   1.642   1.913   5.695  1.8500  1.6245  1.8551
 6894SOL    MW427350   1.638   1.846   5.752 -0.2183  0.4271 -0.7103
 6895SOL     OW27351   6.123   4.406   1.564 -0.4454  0.0461 -0.2272
 6895SOL    HW227352   6.140   4.334   1.624 -1.6823  0.3119  0.4894
 6895SOL    HW327353   6.201   4.461   1.570  0.0437 -0.6635  0.0606
 6895SOL    MW427354   6.135   4.404   1.573  0.2203 -0.4142  0.4813
 6896SOL     OW27355   3.269   5.297   1.711  0.3452 -0.5273 -0.5845
 6896SOL    HW227356   3.355   5.318   1.674 -0.3074 -1.0704 -2.5181
 6896SOL    HW327357   3.206   5.326   1.644 -0.8342 -2.7424 -0.5159
 6896SOL    MW427358   3.272   5.304   1.697 -0.3495 -0.5375  0.1273
 6897SOL     OW27359   5.340   1.640   2.508 -0.1794  0.4059 -0.0484
 6897SOL    HW227360   5.408   1.674   2.451 -1.1099 -0.1963 -1.5586
 6897SOL    HW327361   5.305   1.564   2.462 -0.4025 -0.6126  1.7174
 6897SOL    MW427362   5.344   1.635   2.495 -0.2028 -0.1402 -0.8049
 6898SOL     OW27363   1.570   1.361   4.629 -0.7229 -0.0542  0.1598
 6898SOL    HW227364   1.528   1.374   4.544 -1.9770 -0.1664  0.7378
 6898SOL    HW327365   1.539   1.435   4.682  1.9707  1.4171 -0.1490
 6898SOL    MW427366   1.560   1.373   4.625 -0.1732  0.3020  0.2058
 6899SOL     OW27367   0.221   1.088   2.214 -0.1611 -0.0734  0.3122
 6899SOL    HW227368   0.195   1.179   2.231  3.5840  1.0048  1.2467
 6899SOL    HW327369   0.216   1.079   2.119  1.0344  1.7329  0.0347
 6899SOL    MW427370   0.217   1.099   2.204 -0.3395 -0.1435  0.2824
 6900SOL     OW27371   1.117   0.019   0.730 -0.0714 -0.3929  0.3809
 6900SOL    HW227372   1.199  -0.027   0.749  0.0171 -0.6417 -0.5811
 6900SOL    HW327373   1.049  -0.035   0.771 -0.0807 -1.9903 -1.6218
 6900SOL    MW427374   1.119   0.006   0.738  0.2484 -0.5027  0.0361
 6901SOL     OW27375   6.042   4.499   1.034  0.0474  0.1225 -0.0780
 6901SOL    HW227376   6.101   4.491   1.108 -1.2786  0.9626  1.1127
 6901SOL    HW327377   6.011   4.409   1.019  0.7353 -0.1370  0.0225
 6901SOL    MW427378   6.046   4.486   1.042  0.1590  0.0841  0.4330
 6902SOL     OW27379   5.155   5.858   5.491  0.4246  0.0510  0.0459
 6902SOL    HW227380   5.242   5.883   5.460  0.9748  0.3094  1.6928
 6902SOL    HW327381   5.150   5.895   5.579 -1.7508  0.8988 -0.3668
 6902SOL    MW427382   5.166   5.867   5.499  0.2180 -0.4876  0.1982
 6903SOL     OW27383   4.719   4.424   1.713  0.3849  0.0428  0.0257
 6903SOL    HW227384   4.761   4.429   1.799  2.1129  0.9425 -0.8122
 6903SOL    HW327385   4.738   4.336   1.682 -1.0233 -0.6026  0.9019
 6903SOL    MW427386   4.727   4.413   1.721 -0.0557 -0.1805  0.1930
 6904SOL     OW27387   3.912   5.853   0.891  0.0713  0.8264  0.1896
 6904SOL    HW227388   3.843   5.819   0.948 -0.2147  0.1634 -0.5390
 6904SOL    HW327389   3.922   5.944   0.918 -0.1048  0.5449  1.2505
 6904SOL    MW427390   3.904   5.861   0.902  0.1661  0.1620 -0.0469
 6905SOL     OW27391   6.305   4.538   2.053 -0.0488 -0.4130 -0.3301
 6905SOL    HW227392   6.380   4.481   2.074  0.5389  0.4855  0.0904
 6905SOL    HW327393   6.346   4.620   2.024 -0.8289  0.7913  1.7712
 6905SOL    MW427394   6.320   4.541   2.052 -0.5043  0.4777 -0.0580
 6906SOL     OW27395   1.527   5.088   0.957  0.1542  0.9064 -0.5611
 6906SOL    HW227396   1.433   5.084   0.939 -0.1782  0.1916  1.0941
 6906SOL    HW327397   1.533   5.142   1.037  0.7682 -1.7565  1.3187
 6906SOL    MW427398   1.515   5.095   0.965 -0.2301 -0.1853 -0.8157
 6907SOL     OW27399   2.478   0.142   5.465 -0.0117 -0.1111  0.3436
 6907SOL    HW227400   2.407   0.188   5.420  0.4883  1.0391  0.6690
 6907SOL    HW327401   2.437   0.102   5.541 -0.7482 -1.5459 -0.7777
 6907SOL    MW427402   2.464   0.143   5.469 -0.0571 -0.4080 -0.3982
 6908SOL     OW27403   4.748   0.895   0.760 -0.0236 -0.4006 -0.0242
 6908SOL    HW227404   4.677   0.873   0.821 -1.1764  0.3290 -1.0489
 6908SOL    HW327405   4.810   0.945   0.813 -0.8635 -0.0321  0.6315
 6908SOL    MW427406   4.747   0.899   0.775 -0.6384 -0.2816  0.2727
 6909SOL     OW27407   4.255   4.042   6.426  0.1849  0.4856 -0.2813
 6909SOL    HW227408   4.330   3.982   6.424 -1.4811 -1.7157 -1.2816
 6909SOL    HW327409   4.294   4.129   6.434  2.7362 -0.6989  1.9188
 6909SOL    MW427410   4.270   4.045   6.427 -0.3514 -0.3568 -0.1274
 6910SOL     OW27411   5.909   1.444   6.122  0.1225  0.0051 -0.2308
 6910SOL    HW227412   5.843   1.447   6.191 -0.7134  1.1088 -1.0600
 6910SOL    HW327413   5.889   1.365   6.073  0.6747 -0.7473  0.7085
 6910SOL    MW427414   5.898   1.434   6.125  0.0575 -0.4665  0.2213
 6911SOL     OW27415   0.218   3.905   1.005 -0.2673  0.0011  0.0478
 6911SOL    HW227416   0.232   3.997   1.028  0.2572  0.4984 -2.0882
 6911SOL    HW327417   0.212   3.904   0.910  0.3726 -2.2681 -0.0392
 6911SOL    MW427418   0.219   3.917   0.996 -0.3391  0.1404  0.0043
 6912SOL     OW27419   0.849   0.334   0.249 -0.4783 -0.0625  0.0258
 6912SOL    HW227420   0.861   0.352   0.342 -1.0179 -3.4038  0.8873
 6912SOL    HW327421   0.761   0.296   0.243  0.6021 -2.6246 -1.2691
 6912SOL    MW427422   0.839   0.331   0.261 -0.6110 -0.0830  0.0209
 6913SOL     OW27423   5.650   2.450   0.628  0.1828  0.4171 -0.1584
 6913SOL    HW227424   5.689   2.365   0.649 -0.4112  0.1413 -0.1301
 6913SOL    HW327425   5.715   2.493   0.573  0.7225  0.1654  0.2668
 6913SOL    MW427426   5.664   2.444   0.624  0.2652 -0.0077  0.2171
 6914SOL     OW27427   0.212   0.481   3.618  0.4203 -0.3885 -0.2638
 6914SOL    HW227428   0.178   0.500   3.531 -0.7004  0.7714  0.3971
 6914SOL    HW327429   0.274   0.410   3.604  0.3103 -0.1883 -2.0106
 6914SOL    MW427430   0.216   0.474   3.605 -0.2026 -0.3442  0.2268
 6915SOL     OW27431   2.259   1.893   1.567 -0.1469 -0.1904  0.0359
 6915SOL    HW227432   2.330   1.828   1.569 -0.2640 -0.3127  0.2721
 6915SOL    HW327433   2.303   1.977   1.575 -0.0625 -0.2926  0.6534
 6915SOL    MW427434   2.274   1.895   1.568  0.2072  0.1998 -0.0310
 6916SOL     OW27435   1.828   6.156   3.532 -0.4878  0.1729 -0.0160
 6916SOL    HW227436   1.918   6.166   3.502 -0.3987  1.9780  0.6975
 6916SOL    HW327437   1.825   6.070   3.574  1.2379  0.5738  1.0149
 6916SOL    MW427438   1.839   6.146   3.533 -0.5744 -0.1292 -0.5811
 6917SOL     OW27439   3.513   3.254   4.977 -0.0819 -0.6857  0.3365
 6917SOL    HW227440   3.594   3.223   5.017  0.3717  0.4359  0.3218
 6917SOL    HW327441   3.513   3.348   4.993 -0.5756 -0.4266 -1.0902
 6917SOL    MW427442   3.523   3.262   4.984 -0.6725 -0.0863 -0.3432
 6918SOL     OW27443   6.264   5.039   5.373 -0.1772  0.6546 -0.0562
 6918SOL    HW227444   6.189   4.998   5.416  0.4167  0.9767  1.3782
 6918SOL    HW327445   6.339   4.983   5.398  0.0476  0.1716 -1.6915
 6918SOL    MW427446   6.264   5.026   5.382  0.3114  0.8394 -0.1559
 6919SOL     OW27447   2.965   3.978   4.613 -0.1801 -0.6192  0.2079
 6919SOL    HW227448   2.999   3.977   4.702  0.3736 -0.0139  0.0146
 6919SOL    HW327449   3.033   3.935   4.561  0.0279  0.0423 -0.0877
 6919SOL    MW427450   2.978   3.972   4.618 -0.3672  0.0341 -0.4906
 6920SOL     OW27451   5.820   5.840   4.670 -0.5456  0.6241 -0.0378
 6920SOL    HW227452   5.873   5.832   4.591 -0.7287 -2.6795  0.0300
 6920SOL    HW327453   5.882   5.864   4.739  0.1158  0.7233 -0.6562
 6920SOL    MW427454   5.835   5.842   4.669  0.4032  0.0738 -0.1767
 6921SOL     OW27455   5.969   0.774   3.655  0.4394 -0.1340 -0.2437
 6921SOL    HW227456   6.018   0.693   3.644  3.9629  1.7268  0.4941
 6921SOL    HW327457   5.925   0.765   3.740 -0.8934 -1.9712 -1.0660
 6921SOL    MW427458   5.969   0.762   3.665 -0.4471 -0.1502  0.1931
 6922SOL     OW27459   1.746   4.913   0.333 -0.3751  0.5412 -0.0346
 6922SOL    HW227460   1.728   4.973   0.405 -1.0193  0.3329 -0.0119
 6922SOL    HW327461   1.659   4.883   0.305 -0.0252 -0.9257  0.4082
 6922SOL    MW427462   1.732   4.917   0.339 -0.0574  0.1719 -0.7139
 6923SOL     OW27463   2.560   5.249   4.312  0.8995  0.0588 -0.0729
 6923SOL    HW227464   2.548   5.344   4.309  0.4810  0.0302  0.5918
 6923SOL    HW327465   2.598   5.227   4.227 -0.4189  0.6201 -0.8346
 6923SOL    MW427466   2.564   5.259   4.300 -0.1231 -0.1142 -0.3602
 6924SOL     OW27467   2.592   5.056   0.599 -0.1902 -0.6641 -0.3045
 6924SOL    HW227468   2.597   4.982   0.659  1.5464  1.1143  1.9232
 6924SOL    HW327469   2.676   5.054   0.552 -0.8645 -1.0766 -1.5490
 6924SOL    MW427470   2.604   5.046   0.601  0.1889  0.2049  0.1096
 6925SOL     OW27471   2.517   2.572   4.433 -0.8347 -0.2925  0.0638
 6925SOL    HW227472   2.583   2.537   4.373 -0.8811 -0.3543  0.0478
 6925SOL    HW327473   2.460   2.497   4.452 -1.0698 -0.1722 -0.1559
 6925SOL    MW427474   2.518   2.557   4.427  0.0813  0.0534 -0.2448
 6926SOL     OW27475   5.461   4.062   4.306 -0.5936 -0.3472  0.2778
 6926SOL    HW227476   5.536   4.010   4.335 -0.3016  0.3074  0.7129
 6926SOL    HW327477   5.499   4.136   4.260 -0.9992 -0.3216 -0.0286
 6926SOL    MW427478   5.476   4.065   4.304  0.6376 -0.2113 -0.1784
 6927SOL     OW27479   6.217   4.605   4.598 -0.0423 -0.2539 -0.2965
 6927SOL    HW227480   6.249   4.535   4.655 -1.6824 -1.9676 -1.3683
 6927SOL    HW327481   6.296   4.640   4.557  0.9043 -0.7983  0.9849
 6927SOL    MW427482   6.232   4.600   4.600 -0.3903 -0.2223  0.2295
 6928SOL     OW27483   5.868   0.025   2.698  0.3762 -0.4598  0.0432
 6928SOL    HW227484   5.949   0.074   2.714  0.1796 -0.0663 -0.1478
 6928SOL    HW327485   5.896  -0.066   2.693  0.4867 -0.6340  2.5152
 6928SOL    MW427486   5.882   0.020   2.699 -0.0422  0.3240  0.3301
 6929SOL     OW27487   2.592   3.995   0.752 -0.0585  0.4597  0.7545
 6929SOL    HW227488   2.682   3.963   0.758 -0.3355 -0.8485 -1.1059
 6929SOL    HW327489   2.549   3.959   0.830  0.5727 -0.6047  0.6394
 6929SOL    MW427490   2.598   3.986   0.763  0.2351 -0.1266 -0.2154
 6930SOL     OW27491   5.894   2.312   1.080  0.2517  0.0112 -0.1902
 6930SOL    HW227492   5.949   2.387   1.104  0.0946 -0.4113  1.6113
 6930SOL    HW327493   5.868   2.274   1.164 -3.0536  0.3558 -0.9486
 6930SOL    MW427494   5.898   2.317   1.094  0.3369  0.1988 -0.2073
 6931SOL     OW27495   3.683   2.449   2.555  0.6367 -0.0481  0.6324
 6931SOL    HW227496   3.733   2.451   2.474 -0.7088  0.7367 -0.1995
 6931SOL    HW327497   3.625   2.524   2.550 -1.2467 -1.4074  1.1721
 6931SOL    MW427498   3.682   2.459   2.544  0.4910 -0.1297  0.2626
 6932SOL     OW27499   2.072   3.912   6.234 -0.0369  0.9160  0.4909
 6932SOL    HW227500   2.112   3.999   6.235  2.0794 -0.0033  1.6357
 6932SOL    HW327501   1.996   3.921   6.291  0.0151  2.0657  0.4097
 6932SOL    MW427502   2.067   3.925   6.242 -0.5461 -0.5123  0.0257
 6933SOL     OW27503   2.172   4.080   3.232  0.1447 -0.0318  0.2160
 6933SOL    HW227504   2.202   4.042   3.149  0.3659 -1.2383  0.8355
 6933SOL    HW327505   2.142   4.168   3.208  0.1505 -0.3810 -1.1527
 6933SOL    MW427506   2.172   4.087   3.218 -0.2065 -0.1765 -0.5314
 6934SOL     OW27507   3.101   2.255   2.851 -0.3073  0.0129 -0.3350
 6934SOL    HW227508   3.097   2.212   2.766  2.1582  1.1845 -1.1395
 6934SOL    HW327509   3.022   2.308   2.856 -0.5903 -0.2392 -1.7920
 6934SOL    MW427510   3.090   2.256   2.841  0.4329  0.1460 -0.0563
 6935SOL     OW27511   2.436   1.306   5.170 -0.3504  0.8318 -0.7703
 6935SOL    HW227512   2.438   1.236   5.104 -0.0490  1.2284 -1.1899
 6935SOL    HW327513   2.345   1.308   5.201 -0.1023 -0.5985  0.1805
 6935SOL    MW427514   2.424   1.297   5.165  0.3663 -0.5195  0.7978
 6936SOL     OW27515   0.829   6.046   5.154 -0.4466  0.2507 -0.2646
 6936SOL    HW227516   0.912   6.089   5.174  0.2812 -0.6270 -1.2658
 6936SOL    HW327517   0.796   6.092   5.077 -0.2224 -0.2345 -0.6598
 6936SOL    MW427518   0.835   6.057   5.147  0.2435 -0.7062 -0.5427
 6937SOL     OW27519   1.126   5.960   4.456 -0.2729 -0.1632  0.1054
 6937SOL    HW227520   1.043   5.972   4.411  0.9658  1.8310 -1.8566
 6937SOL    HW327521   1.185   5.924   4.390  0.2953 -2.3670  1.6841
 6937SOL    MW427522   1.123   5.957   4.441  0.1503 -0.0005 -0.1605
 6938SOL     OW27523   5.753   5.631   5.547  0.1233 -0.4826 -0.3005
 6938SOL    HW227524   5.657   5.623   5.552  0.1891 -0.5845  1.1868
 6938SOL    HW327525   5.784   5.541   5.535  0.0064 -0.3203 -2.2471
 6938SOL    MW427526   5.744   5.618   5.546 -0.1254 -0.4185  0.1136
 6939SOL     OW27527   3.653   1.338   3.681 -0.3089  0.0781 -0.1490
 6939SOL    HW227528   3.682   1.248   3.668  0.4749  0.1058  1.2553
 6939SOL    HW327529   3.703   1.389   3.617 -0.1422 -0.3806 -0.3857
 6939SOL    MW427530   3.663   1.333   3.671 -0.4986 -0.5465  0.1875
 6940SOL     OW27531   2.077   1.603   0.981  0.0988 -0.0241  0.3546
 6940SOL    HW227532   1.990   1.606   0.942  0.1920  1.7323  0.2179
 6940SOL    HW327533   2.073   1.531   1.044 -1.0730 -0.7212 -0.4785
 6940SOL    MW427534   2.065   1.594   0.984 -0.1552  0.0435  0.4003
 6941SOL     OW27535   2.014   2.929   4.655 -0.1885 -0.0826  0.0895
 6941SOL    HW227536   2.036   2.984   4.731  0.8343 -0.0758 -0.2036
 6941SOL    HW327537   1.951   2.866   4.689  0.1604 -0.0001  0.9149
 6941SOL    MW427538   2.009   2.928   4.669  0.2954  0.0615 -0.3031
 6942SOL     OW27539   3.149   5.094   2.262  0.2812 -0.3639 -0.2927
 6942SOL    HW227540   3.125   5.003   2.247  1.4511 -0.5361 -1.2602
 6942SOL    HW327541   3.230   5.090   2.312  0.5577  0.1429 -0.6941
 6942SOL    MW427542   3.156   5.082   2.267  0.3792  0.2917  0.7826
 6943SOL     OW27543   5.112   0.783   2.015 -0.5016 -0.1684  0.3006
 6943SOL    HW227544   5.037   0.731   2.045 -0.0447 -1.0117  0.0124
 6943SOL    HW327545   5.188   0.733   2.044 -0.0510 -0.2866 -1.0447
 6943SOL    MW427546   5.112   0.770   2.023 -0.0869  0.3835  0.4354
 6944SOL     OW27547   4.509   3.389   3.849  0.0757  0.5913 -0.1449
 6944SOL    HW227548   4.486   3.480   3.870 -0.6674  0.3464  0.1513
 6944SOL    HW327549   4.543   3.393   3.760  0.7539  1.2642  0.1245
 6944SOL    MW427550   4.510   3.402   3.840 -0.4977  0.0555  0.3614
 6945SOL     OW27551   3.095   1.940   5.657 -0.0746 -0.3403  0.1855
 6945SOL    HW227552   3.022   1.999   5.675  1.0823  0.8485  1.2595
 6945SOL    HW327553   3.136   1.975   5.578  1.7465  1.5956  1.8409
 6945SOL    MW427554   3.091   1.952   5.649 -0.3182 -0.1759 -0.3671
 6946SOL     OW27555   5.371   4.049   2.320 -0.3165  0.0122  0.1499
 6946SOL    HW227556   5.295   4.107   2.313 -0.0198  0.2823 -1.0338
 6946SOL    HW327557   5.442   4.096   2.277 -0.1437 -1.3196 -1.1304
 6946SOL    MW427558   5.370   4.063   2.314 -0.4730 -0.3205 -0.2263
 6947SOL     OW27559   2.407   2.006   5.058 -0.3209  0.4841  0.2410
 6947SOL    HW227560   2.316   2.037   5.059 -0.9196 -1.1650  0.1590
 6947SOL    HW327561   2.405   1.924   5.108  1.3959  1.0710  1.3788
 6947SOL    MW427562   2.395   1.999   5.065 -0.2361 -0.3783 -0.3955
 6948SOL     OW27563   4.112   0.319   4.799 -0.0879 -0.2897  0.2066
 6948SOL    HW227564   4.180   0.265   4.838  0.2098 -0.9069 -1.1063
 6948SOL    HW327565   4.056   0.257   4.752 -0.5967  0.3831 -0.0939
 6948SOL    MW427566   4.113   0.304   4.798  0.5511  0.5631 -0.3690
 6949SOL     OW27567   4.377   1.013   3.435 -0.1137 -0.0342  0.0251
 6949SOL    HW227568   4.468   0.993   3.412  0.2838  0.5355  0.9818
 6949SOL    HW327569   4.374   1.109   3.437 -0.1507 -0.0229  2.0206
 6949SOL    MW427570   4.389   1.023   3.432 -0.2613 -0.1433  0.2491
 6950SOL     OW27571   3.353   1.116   1.177  1.1673  0.5112  0.2067
 6950SOL    HW227572   3.275   1.062   1.165  1.3681  0.5404 -1.4222
 6950SOL    HW327573   3.422   1.054   1.201  0.1928  0.7359  4.3613
 6950SOL    MW427574   3.352   1.101   1.178 -0.5907  0.2705 -0.1278
 6951SOL     OW27575   1.837   3.289   4.770  0.3783  0.2450  0.1007
 6951SOL    HW227576   1.898   3.332   4.710  0.3152 -1.5083 -1.3032
 6951SOL    HW327577   1.750   3.308   4.735  0.1897  1.3074  1.1101
 6951SOL    MW427578   1.834   3.297   4.757  0.2818  0.5473 -0.7973
 6952SOL     OW27579   2.617   1.344   4.113  0.0691  0.3512 -0.6932
 6952SOL    HW227580   2.695   1.298   4.081  0.4140 -0.3148  1.0083
 6952SOL    HW327581   2.613   1.322   4.206 -1.2127  1.7413 -0.3914
 6952SOL    MW427582   2.627   1.335   4.121 -0.3951  0.2939  0.2392
 6953SOL     OW27583   4.063   4.422   3.057  0.2147 -0.9848 -0.2719
 6953SOL    HW227584   4.059   4.416   2.962 -0.7674  0.1234 -0.3218
 6953SOL    HW327585   4.146   4.379   3.080  0.7064 -0.8361 -1.6598
 6953SOL    MW427586   4.074   4.415   3.048  0.4867  0.3618 -0.1173
 6954SOL     OW27587   2.987   4.315   0.142 -0.0281 -0.7399  0.4048
 6954SOL    HW227588   2.939   4.310   0.059  1.8629  1.5283 -0.9480
 6954SOL    HW327589   2.954   4.241   0.193 -1.3935 -2.1285 -2.2736
 6954SOL    MW427590   2.976   4.305   0.138  0.2813  0.1985 -0.0104
 6955SOL     OW27591   3.713   6.011   3.111  0.2528  0.4113 -0.4685
 6955SOL    HW227592   3.776   5.977   3.174  1.4570  0.7196 -1.4507
 6955SOL    HW327593   3.662   5.935   3.084  0.0719  0.1863  0.4715
 6955SOL    MW427594   3.715   5.997   3.116  0.1638  0.1844 -0.0070
 6956SOL     OW27595   3.609   4.814   5.090 -0.0130 -0.0095 -0.2389
 6956SOL    HW227596   3.657   4.759   5.029  0.3702 -0.8517  0.7834
 6956SOL    HW327597   3.540   4.855   5.037 -2.2418 -3.7240 -0.6140
 6956SOL    MW427598   3.606   4.812   5.075  0.0763 -0.0067  0.7580
 6957SOL     OW27599   5.583   4.260   5.728 -0.0096 -0.5815  0.1692
 6957SOL    HW227600   5.646   4.332   5.733 -1.3924  0.6331  0.6462
 6957SOL    HW327601   5.597   4.210   5.809 -0.3754  0.3117  0.7989
 6957SOL    MW427602   5.594   4.263   5.739  0.0283  0.4807  0.1149
 6958SOL     OW27603   4.565   3.460   0.234 -0.3024 -0.1663 -0.3229
 6958SOL    HW227604   4.495   3.504   0.186  0.4535 -0.3034 -1.6020
 6958SOL    HW327605   4.580   3.379   0.185 -0.5152 -1.0416  1.0235
 6958SOL    MW427606   4.558   3.455   0.221 -0.0532  0.5852  0.2480
 6959SOL     OW27607   4.960   3.039   2.518  0.4607  0.0543 -0.1892
 6959SOL    HW227608   4.943   3.099   2.591  0.9847 -0.4814  0.3895
 6959SOL    HW327609   4.882   3.045   2.463  0.0209  0.4021  0.4595
 6959SOL    MW427610   4.948   3.048   2.521 -0.5568  0.0859 -0.0490
 6960SOL     OW27611   3.681   1.900   5.702  0.2221 -0.5546  0.6260
 6960SOL    HW227612   3.742   1.962   5.663  0.2591 -1.2474 -0.4686
 6960SOL    HW327613   3.736   1.826   5.727 -0.1369 -1.1581 -0.3131
 6960SOL    MW427614   3.697   1.898   5.700  0.1763 -0.2742  0.1318
 6961SOL     OW27615   1.060   3.442   0.530 -0.6863 -0.4648 -0.2592
 6961SOL    HW227616   1.063   3.521   0.475 -0.3036 -0.9522 -0.9547
 6961SOL    HW327617   1.006   3.467   0.605 -1.3232  0.1815 -0.9141
 6961SOL    MW427618   1.053   3.456   0.532 -0.1631 -0.0162 -0.1521
 6962SOL     OW27619   3.841   4.537   5.188 -0.6330  0.2583 -0.1927
 6962SOL    HW227620   3.936   4.544   5.200 -0.4578 -1.4529 -0.2152
 6962SOL    HW327621   3.829   4.454   5.141 -2.1366  0.4338 -0.1774
 6962SOL    MW427622   3.852   4.527   5.183 -0.1975 -0.3461 -0.1561
 6963SOL     OW27623   4.597   3.071   0.503 -0.1486  0.0968  0.0083
 6963SOL    HW227624   4.572   3.012   0.432  1.4236  0.9718 -1.3359
 6963SOL    HW327625   4.598   3.158   0.463 -0.5220  0.7972  1.4602
 6963SOL    MW427626   4.594   3.075   0.489 -0.5447 -0.4592  0.1599
 6964SOL     OW27627   6.232   6.287   0.455 -0.4071  0.1876  0.0942
 6964SOL    HW227628   6.241   6.380   0.433  0.3386  0.0606 -0.1426
 6964SOL    HW327629   6.292   6.273   0.528 -1.0722  0.0556  0.6227
 6964SOL    MW427630   6.241   6.297   0.462  0.1039  0.7303 -0.2922
 6965SOL     OW27631   2.174   0.386   6.249  0.4126  0.3586  0.0322
 6965SOL    HW227632   2.153   0.358   6.338 -2.7377  0.6033 -0.5235
 6965SOL    HW327633   2.123   0.328   6.193  2.5781 -0.0007 -1.7213
 6965SOL    MW427634   2.165   0.375   6.254  0.0534 -0.0430  0.2296
 6966SOL     OW27635   4.065   5.188   2.066 -0.2209 -0.1506 -0.1775
 6966SOL    HW227636   4.024   5.211   1.982  0.8449 -2.6485 -1.5005
 6966SOL    HW327637   4.064   5.092   2.067  2.7407 -0.2668  1.1252
 6966SOL    MW427638   4.060   5.178   2.055  0.6961 -0.2070 -0.7519
 6967SOL     OW27639   3.418   6.292  -0.003  0.2970  0.1488  0.3788
 6967SOL    HW227640   3.426   6.286   0.092 -0.0838  0.8744  0.4654
 6967SOL    HW327641   3.333   6.252  -0.022 -0.2266  1.1714  0.4928
 6967SOL    MW427642   3.408   6.286   0.007 -0.7687  0.3442 -0.1575
 6968SOL     OW27643   4.041   2.052   2.042  0.3405  0.0870 -0.1508
 6968SOL    HW227644   3.991   1.971   2.040  1.3734 -0.5681 -0.6310
 6968SOL    HW327645   4.096   2.048   1.963 -0.0058  1.5361 -0.5104
 6968SOL    MW427646   4.042   2.041   2.031  0.6051  0.4406  0.5201
 6969SOL     OW27647   2.482   2.511   3.841 -0.3244 -0.3802  0.3780
 6969SOL    HW227648   2.477   2.515   3.937  1.5418 -1.1294  0.5459
 6969SOL    HW327649   2.520   2.595   3.816  0.3270 -0.6708  0.3953
 6969SOL    MW427650   2.486   2.523   3.850  0.4205  0.2504  0.6096
 6970SOL     OW27651   4.980   1.582   2.023 -0.2971  0.1151 -0.2989
 6970SOL    HW227652   5.059   1.547   1.982 -0.4953 -0.3247 -0.3117
 6970SOL    HW327653   4.952   1.652   1.964 -0.4497 -0.3623 -0.8013
 6970SOL    MW427654   4.987   1.587   2.009  0.6345  0.5465 -0.3082
 6971SOL     OW27655   3.800   6.383   1.845 -0.2501  0.1463 -0.0916
 6971SOL    HW227656   3.844   6.309   1.887 -1.4709 -1.2259 -1.0889
 6971SOL    HW327657   3.717   6.392   1.893 -0.0716  0.9477  0.0812
 6971SOL    MW427658   3.795   6.374   1.857 -0.1939 -0.3268  0.1891
 6972SOL     OW27659   5.094   6.115   6.390  0.0686  0.0186  0.5685
 6972SOL    HW227660   5.071   6.054   6.320 -0.5459 -1.1069  1.7012
 6972SOL    HW327661   5.175   6.080   6.427  0.1855  0.3822  0.6535
 6972SOL    MW427662   5.101   6.102   6.386 -0.3193 -0.1916  0.1876
 6973SOL     OW27663   5.209   0.005   5.191 -0.1139 -1.0151  0.0682
 6973SOL    HW227664   5.237   0.096   5.206  0.7872 -1.4467  1.2117
 6973SOL    HW327665   5.254  -0.021   5.111  0.1023 -0.6455  0.0655
 6973SOL    MW427666   5.219   0.013   5.183  0.0935 -0.3584 -0.2400
 6974SOL     OW27667   3.982   1.615   3.352  0.1404 -0.7883 -0.7149
 6974SOL    HW227668   3.898   1.646   3.386 -1.1430 -3.8952 -0.6588
 6974SOL    HW327669   4.006   1.678   3.285 -0.8040  1.6882  1.1045
 6974SOL    MW427670   3.974   1.627   3.348 -0.2201 -0.1672 -0.5507
 6975SOL     OW27671   5.486   2.381   2.691  0.2094  0.3710 -0.3112
 6975SOL    HW227672   5.545   2.441   2.736 -2.2245  1.9698  1.0179
 6975SOL    HW327673   5.464   2.426   2.609  0.6779 -0.1466 -0.7304
 6975SOL    MW427674   5.491   2.395   2.686 -0.5152  0.2063 -0.8540
 6976SOL     OW27675   1.980   2.413   2.900 -0.3413  0.0126  0.1903
 6976SOL    HW227676   1.905   2.430   2.843  0.8194 -1.1788 -1.8077
 6976SOL    HW327677   1.958   2.332   2.945  0.2464 -1.1009 -1.4338
 6976SOL    MW427678   1.967   2.405   2.899  0.2124 -0.6269 -0.3365
 6977SOL     OW27679   5.912   0.816   2.400  0.1154 -0.2108 -0.5331
 6977SOL    HW227680   5.907   0.732   2.353  1.6906  0.1122 -1.3608
 6977SOL    HW327681   5.893   0.794   2.491  0.4802 -1.4721 -0.7436
 6977SOL    MW427682   5.909   0.802   2.406  0.2235  0.0952  0.4301
 6978SOL     OW27683   0.996   3.963   3.700 -0.0923 -0.2367  0.7069
 6978SOL    HW227684   1.025   3.951   3.790  0.5511  1.6909  0.7971
 6978SOL    HW327685   0.931   4.033   3.704  0.8558  0.7618 -0.4597
 6978SOL    MW427686   0.991   3.971   3.712  0.4161 -0.0128  0.8576
 6979SOL     OW27687   2.535   1.919   1.791 -0.2107 -0.0429 -0.6082
 6979SOL    HW227688   2.564   1.932   1.881  1.8388 -2.6510 -0.7787
 6979SOL    HW327689   2.562   1.999   1.745  2.2929 -0.2675  0.3313
 6979SOL    MW427690   2.543   1.932   1.797 -0.2424  0.2019  0.3598
 6980SOL     OW27691   0.565   5.806   4.578 -0.3982 -0.7351  0.2702
 6980SOL    HW227692   0.560   5.882   4.636 -1.2421  0.0840 -0.8375
 6980SOL    HW327693   0.503   5.743   4.615 -1.8591  0.2658 -0.3935
 6980SOL    MW427694   0.556   5.807   4.591  0.3999 -0.4863  0.0963
 6981SOL     OW27695   6.232   0.349   3.996  0.4854 -0.0491  0.1506
 6981SOL    HW227696   6.284   0.332   4.075  0.9735 -1.6889 -0.4905
 6981SOL    HW327697   6.291   0.328   3.924 -1.0842 -2.0953 -0.6002
 6981SOL    MW427698   6.247   0.344   3.997 -0.7669  0.0035 -0.7142
 6982SOL     OW27699   5.516   0.367   1.573 -0.0818 -0.4555 -0.1202
 6982SOL    HW227700   5.476   0.284   1.598 -0.7704  0.5230  2.3270
 6982SOL    HW327701   5.510   0.369   1.477 -0.2277 -3.0947 -0.2311
 6982SOL    MW427702   5.510   0.356   1.563  0.1634  0.0348  0.3323
 6983SOL     OW27703   0.087   2.302   1.302 -0.0618 -0.5427  0.0836
 6983SOL    HW227704   0.083   2.398   1.303 -2.0119 -0.5837 -0.4947
 6983SOL    HW327705   0.134   2.279   1.382  1.9932  0.9256 -0.6214
 6983SOL    MW427706   0.093   2.312   1.313 -0.2494 -0.2725  0.3244
 6984SOL     OW27707   5.801   2.894   3.937 -0.0570 -0.6341  0.5306
 6984SOL    HW227708   5.781   2.910   3.845  0.2664 -0.0780  0.5523
 6984SOL    HW327709   5.894   2.870   3.938  1.0801  3.1164  1.0671
 6984SOL    MW427710   5.811   2.893   3.925  0.3297  0.1167 -0.3552
 6985SOL     OW27711   3.322   4.425   2.215 -0.8133  0.1359  0.5926
 6985SOL    HW227712   3.278   4.411   2.132 -2.0158  2.0778  0.8551
 6985SOL    HW327713   3.385   4.495   2.198 -0.1750 -0.3139  1.0312
 6985SOL    MW427714   3.325   4.432   2.202 -0.1048  0.1055 -0.6660
 6986SOL     OW27715   2.918   4.886   6.155 -0.0745 -0.1588 -0.0788
 6986SOL    HW227716   2.998   4.882   6.103  1.0279  0.3440  1.4742
 6986SOL    HW327717   2.849   4.858   6.096  1.2557 -0.6650 -1.4628
 6986SOL    MW427718   2.920   4.882   6.141  0.3686 -0.2908 -0.3282
 6987SOL     OW27719   5.402   6.183   5.795  0.0449  0.5133 -0.4498
 6987SOL    HW227720   5.383   6.256   5.855  1.0123 -0.4366  1.0730
 6987SOL    HW327721   5.445   6.224   5.720  1.9673  1.3960  1.0528
 6987SOL    MW427722   5.405   6.198   5.793  0.0111 -0.0624  0.2740
 6988SOL     OW27723   2.119   3.694   0.479 -0.0787  0.0792  0.0846
 6988SOL    HW227724   2.152   3.742   0.403 -2.7773  1.3288 -0.4277
 6988SOL    HW327725   2.025   3.714   0.481 -0.6898 -2.4545  1.9203
 6988SOL    MW427726   2.111   3.703   0.469 -0.2414  0.0728  0.1582
 6989SOL     OW27727   3.737   3.083   3.570 -0.1294 -0.0376 -0.5330
 6989SOL    HW227728   3.739   3.179   3.577  0.1005 -0.0374 -0.5939
 6989SOL    HW327729   3.693   3.054   3.649  0.2933  0.0885 -0.2487
 6989SOL    MW427730   3.731   3.092   3.581 -0.0474 -0.3740 -0.1744
 6990SOL     OW27731   1.373   6.179   4.018 -0.3279 -0.2904  0.4372
 6990SOL    HW227732   1.420   6.150   4.096  0.3131 -0.1789  0.0996
 6990SOL    HW327733   1.433   6.240   3.975 -1.9862  2.2846  1.5912
 6990SOL    MW427734   1.387   6.183   4.023  0.0486 -0.0541  0.3560
 6991SOL     OW27735   5.689   0.370   0.861 -0.7279 -0.5242  0.2057
 6991SOL    HW227736   5.691   0.400   0.770 -0.6668  0.0197  0.3805
 6991SOL    HW327737   5.618   0.420   0.901 -0.2250 -0.1586  0.6571
 6991SOL    MW427738   5.680   0.381   0.854 -0.3734  0.2740 -0.5842
 6992SOL     OW27739   0.180   5.747   1.749 -0.7373  0.2804  0.3210
 6992SOL    HW227740   0.222   5.700   1.677 -1.2844 -0.3278  0.3805
 6992SOL    HW327741   0.106   5.691   1.773 -0.9669  0.8210  0.8932
 6992SOL    MW427742   0.176   5.733   1.743 -0.6652 -0.5928 -0.0756
 6993SOL     OW27743   5.625   1.810   1.513 -0.3700 -0.6887 -0.5535
 6993SOL    HW227744   5.575   1.847   1.440  0.7660 -0.3920 -1.2055
 6993SOL    HW327745   5.581   1.844   1.592 -1.3260 -0.6268 -1.0987
 6993SOL    MW427746   5.612   1.820   1.514 -0.1735  0.5841  0.0820
 6994SOL     OW27747   4.067   5.680   4.127  0.1585 -0.2630 -0.6225
 6994SOL    HW227748   4.149   5.719   4.157 -0.2471  0.8425 -0.8994
 6994SOL    HW327749   4.048   5.612   4.191  1.5877 -0.9492 -0.8783
 6994SOL    MW427750   4.076   5.676   4.139  0.1438  0.3121  0.4458
 6995SOL     OW27751   4.189   6.118   4.785 -0.1700  0.7356  0.2005
 6995SOL    HW227752   4.275   6.094   4.821  0.2355  0.7996 -0.6932
 6995SOL    HW327753   4.130   6.050   4.818  0.7379 -0.9127 -1.3590
 6995SOL    MW427754   4.193   6.106   4.794  0.1188 -0.7120  0.6166
 6996SOL     OW27755   5.530   4.376   5.105 -0.5299  0.1156 -0.6527
 6996SOL    HW227756   5.535   4.351   5.197 -0.6758 -3.0904 -1.3955
 6996SOL    HW327757   5.437   4.393   5.090 -0.3853  1.5218 -0.0376
 6996SOL    MW427758   5.518   4.375   5.115  0.3273 -0.2742 -0.1105
 6997SOL     OW27759   4.811   6.215   6.075  0.3797  0.6686  0.1133
 6997SOL    HW227760   4.814   6.125   6.043 -1.1194  1.3498 -2.1484
 6997SOL    HW327761   4.736   6.255   6.030  0.3544  2.7746  1.8349
 6997SOL    MW427762   4.801   6.209   6.065  0.2331 -0.0052 -0.2619
 6998SOL     OW27763   3.435   5.139   5.259 -0.1348 -0.2585  0.2817
 6998SOL    HW227764   3.423   5.079   5.185 -1.2298 -0.2428  0.4352
 6998SOL    HW327765   3.522   5.118   5.293 -0.3256 -1.4518  0.0632
 6998SOL    MW427766   3.445   5.128   5.253 -0.7618 -0.6475  0.7996
 6999SOL     OW27767   3.201   6.209   0.674  0.0383 -0.1505  0.2753
 6999SOL    HW227768   3.143   6.252   0.611 -0.4528  0.5883  1.2067
 6999SOL    HW327769   3.261   6.158   0.620 -1.7046 -1.2517 -0.7080
 6999SOL    MW427770   3.201   6.208   0.658 -0.0689 -0.3191  0.5865
 7000SOL     OW27771   1.702   5.662   3.190 -0.2279 -0.0261 -0.2791
 7000SOL    HW227772   1.609   5.676   3.206 -0.3559 -1.1701  0.0613
 7000SOL    HW327773   1.734   5.746   3.157 -1.0668  0.8268  1.0022
 7000SOL    MW427774   1.694   5.675   3.188  0.1090  0.3046  0.3620
 7001SOL     OW27775   4.002   5.980   4.112  0.1234  0.1238 -0.7934
 7001SOL    HW227776   4.021   6.066   4.149 -0.0072 -0.4386  0.6625
 7001SOL    HW327777   4.069   5.923   4.148 -0.8684 -0.7344 -0.2457
 7001SOL    MW427778   4.013   5.984   4.121 -0.7042 -0.1830 -0.2873
 7002SOL     OW27779   3.537   5.232   4.900 -0.1573 -0.0402 -0.7415
 7002SOL    HW227780   3.485   5.157   4.930  0.3614  0.2569  0.9828
 7002SOL    HW327781   3.622   5.222   4.942  0.5979  0.4893 -2.0578
 7002SOL    MW427782   3.541   5.221   4.909 -0.2270 -0.4470  0.5894
 7003SOL     OW27783   5.867   5.567   3.105 -0.6181  0.3518  0.5003
 7003SOL    HW227784   5.825   5.568   3.019 -1.1459  0.2536  0.7473
 7003SOL    HW327785   5.959   5.585   3.087 -0.4386 -1.1646 -0.2384
 7003SOL    MW427786   5.874   5.570   3.091  0.3725 -0.0565  0.5574
 7004SOL     OW27787   4.466   2.999   2.244  0.2499 -0.1744  0.2489
 7004SOL    HW227788   4.474   3.073   2.184  0.8110 -1.1428 -0.8824
 7004SOL    HW327789   4.460   3.040   2.331  1.1582  1.1711 -0.2973
 7004SOL    MW427790   4.466   3.015   2.248  0.0750  0.2856 -0.0988
 7005SOL     OW27791   3.456   3.149   1.058  0.2758  0.6304 -0.3510
 7005SOL    HW227792   3.520   3.172   1.125 -1.2041  0.8914  1.0327
 7005SOL    HW327793   3.457   3.225   0.999  0.8211  0.8936 -0.0192
 7005SOL    MW427794   3.465   3.162   1.059  0.6687 -0.8005  0.0256
 7006SOL     OW27795   6.143   0.590   1.673 -0.4493 -0.1776 -0.7990
 7006SOL    HW227796   6.055   0.553   1.674 -1.1839  1.4696 -1.1543
 7006SOL    HW327797   6.136   0.670   1.725  1.2608 -0.8447  0.5511
 7006SOL    MW427798   6.130   0.596   1.680 -0.5969  0.1914 -0.1713
 7007SOL     OW27799   4.536   2.192   4.878 -0.8075  0.4898 -0.3537
 7007SOL    HW227800   4.449   2.167   4.909 -0.4547 -0.7323 -0.3000
 7007SOL    HW327801   4.583   2.110   4.869 -0.1915  0.9907 -2.0804
 7007SOL    MW427802   4.531   2.178   4.881 -0.6714 -0.2120 -0.3224
 7008SOL     OW27803   3.608   1.437   1.396 -0.5534 -0.4182 -0.0641
 7008SOL    HW227804   3.541   1.425   1.328 -0.4411 -2.9627  0.1989
 7008SOL    HW327805   3.573   1.507   1.451 -1.9767 -0.2415 -1.1339
 7008SOL    MW427806   3.594   1.445   1.394  1.1685  0.1863  0.3604
 7009SOL     OW27807   1.744   2.707   3.418 -0.0805  0.4502  0.0660
 7009SOL    HW227808   1.816   2.681   3.476 -0.2903  0.4313  0.3210
 7009SOL    HW327809   1.684   2.633   3.421  0.1783  0.2038 -0.6307
 7009SOL    MW427810   1.746   2.694   3.426 -0.4806 -0.1917 -0.1405
 7010SOL     OW27811   4.908   1.928   4.663 -0.4044  0.6265 -0.3670
 7010SOL    HW227812   4.955   1.938   4.747  0.8428 -0.9667 -0.8350
 7010SOL    HW327813   4.845   2.000   4.663  1.0976  2.0449  0.9374
 7010SOL    MW427814   4.906   1.939   4.674 -0.4575  0.9604 -0.1671
 7011SOL     OW27815   4.288   5.400   0.921 -0.0633 -0.3465  0.4017
 7011SOL    HW227816   4.299   5.402   1.016 -2.6430  1.3599  0.7772
 7011SOL    HW327817   4.234   5.323   0.905  0.5132 -0.7309  0.2723
 7011SOL    MW427818   4.282   5.390   0.932  0.2011 -0.5143  0.3440
 7012SOL     OW27819   3.710   6.293   3.031 -0.7167 -0.0481  0.0931
 7012SOL    HW227820   3.704   6.348   3.109 -0.9592 -0.7083  0.5607
 7012SOL    HW327821   3.701   6.204   3.065 -1.3303 -0.3202 -0.7487
 7012SOL    MW427822   3.708   6.288   3.046 -0.1153 -0.3036  0.2162
 7013SOL     OW27823   0.056   4.078   4.824  0.0078 -0.0311  0.5149
 7013SOL    HW227824   0.073   4.075   4.730  2.2229 -0.7441  0.8840
 7013SOL    HW327825   0.114   4.148   4.856 -0.9345  0.4001  1.3240
 7013SOL    MW427826   0.066   4.087   4.816 -0.2499 -0.1506  0.4512
 7014SOL     OW27827   6.342   3.752   4.203  0.7437 -0.2740  1.0369
 7014SOL    HW227828   6.405   3.684   4.179  0.1564 -1.2183  2.0950
 7014SOL    HW327829   6.349   3.759   4.299 -0.9073 -0.5660  1.2118
 7014SOL    MW427830   6.351   3.744   4.213 -0.0498 -0.9052 -0.2347
 7015SOL     OW27831   5.375   1.722   1.975  0.1914  0.1802  0.2681
 7015SOL    HW227832   5.437   1.673   2.030  0.2878 -0.3686 -0.3217
 7015SOL    HW327833   5.428   1.755   1.903 -0.1824 -0.2193 -0.1946
 7015SOL    MW427834   5.390   1.720   1.973 -0.0365  0.3452  0.2216
 7016SOL     OW27835   3.802   2.624   1.240  0.6631 -0.6460  0.6747
 7016SOL    HW227836   3.888   2.660   1.216  0.5771 -0.3478  0.8180
 7016SOL    HW327837   3.816   2.529   1.242  1.3228 -0.5481  1.9508
 7016SOL    MW427838   3.816   2.616   1.237  0.1810  0.2200  0.6166
 7017SOL     OW27839   0.912   3.255   5.240 -0.1674 -0.6530 -0.6275
 7017SOL    HW227840   0.996   3.209   5.246  0.2108  0.2077  2.1887
 7017SOL    HW327841   0.914   3.318   5.311 -2.4854  0.7063 -1.6381
 7017SOL    MW427842   0.923   3.257   5.250 -0.2458 -0.2266 -0.1669
 7018SOL     OW27843   1.838   1.775   4.572 -0.7312  0.2733  0.3976
 7018SOL    HW227844   1.853   1.847   4.634 -0.8556  0.9130 -0.3037
 7018SOL    HW327845   1.924   1.733   4.564 -0.3892  1.0280 -0.0218
 7018SOL    MW427846   1.851   1.779   4.579 -0.1671 -0.3638  0.1792
 7019SOL     OW27847   2.275   0.449   1.462  0.2065  0.1132 -0.1901
 7019SOL    HW227848   2.337   0.497   1.407  0.2018  1.1314  0.6669
 7019SOL    HW327849   2.325   0.373   1.493  0.5070  0.0536 -0.8040
 7019SOL    MW427850   2.290   0.445   1.459  0.0695  0.3678 -0.3054
 7020SOL     OW27851   3.614   3.776   1.999 -0.2406 -1.2192 -0.3410
 7020SOL    HW227852   3.537   3.741   2.044 -0.1390  1.7946  2.5009
 7020SOL    HW327853   3.671   3.808   2.069  1.4318  0.9260 -2.5080
 7020SOL    MW427854   3.611   3.775   2.014 -0.0041  0.5348  0.1501
 7021SOL     OW27855   3.974   4.780   1.848  0.3031 -0.2118 -0.2627
 7021SOL    HW227856   3.977   4.686   1.861  0.7621 -0.3363 -1.1717
 7021SOL    HW327857   3.956   4.816   1.935  1.6627 -1.0483  0.3982
 7021SOL    MW427858   3.972   4.773   1.861 -0.2322 -0.0639 -0.6453
 7022SOL     OW27859   3.126   4.576   3.278  0.3699 -0.3265  0.4341
 7022SOL    HW227860   3.149   4.589   3.186 -0.8136  0.7884  0.2597
 7022SOL    HW327861   3.207   4.549   3.320  0.8989 -0.9991 -0.9607
 7022SOL    MW427862   3.140   4.574   3.271  0.9099 -0.1644 -0.1291
 7023SOL     OW27863   5.353   1.899   5.003  0.1186 -0.3203  0.0830
 7023SOL    HW227864   5.387   1.987   5.019  2.0583 -1.0667  0.3203
 7023SOL    HW327865   5.428   1.841   5.019 -0.7041 -1.9096 -1.5191
 7023SOL    MW427866   5.367   1.903   5.008  0.3385 -0.1290 -0.0240
 7024SOL     OW27867   3.513   5.628   4.968 -0.3601 -0.4171 -0.3217
 7024SOL    HW227868   3.535   5.546   5.011  0.2741 -1.7780 -3.0082
 7024SOL    HW327869   3.454   5.673   5.029 -0.6908 -2.8424  1.2541
 7024SOL    MW427870   3.508   5.623   4.981  0.4697 -0.4766  0.4365
 7025SOL     OW27871   5.651   4.612   5.028  0.1183  0.2346  0.1036
 7025SOL    HW227872   5.615   4.525   5.041  0.0233  0.2786  0.1346
 7025SOL    HW327873   5.634   4.659   5.109  0.5997  0.1341  0.2669
 7025SOL    MW427874   5.644   4.607   5.040 -0.2717 -0.2124  0.3401
 7026SOL     OW27875   3.263   6.077   6.213  0.2251  0.3748 -0.4132
 7026SOL    HW227876   3.169   6.058   6.218 -0.1386  2.2069  0.7650
 7026SOL    HW327877   3.269   6.154   6.157  1.0904 -0.0264 -0.8821
 7026SOL    MW427878   3.251   6.084   6.206 -0.0276 -0.4188  0.7684
 7027SOL     OW27879   1.391   0.026   2.999  0.4001  0.7675  0.7540
 7027SOL    HW227880   1.439   0.042   3.080  1.3511 -0.1240  0.3863
 7027SOL    HW327881   1.455   0.037   2.929 -0.5222  1.9958  0.0620
 7027SOL    MW427882   1.405   0.029   3.001 -0.3903 -0.0960  0.6742
 7028SOL     OW27883   1.214   0.423   1.674 -0.1044  0.2017  0.3004
 7028SOL    HW227884   1.143   0.406   1.736 -0.8537  0.0007 -0.5988
 7028SOL    HW327885   1.180   0.395   1.589 -0.0588  2.7633 -0.6529
 7028SOL    MW427886   1.200   0.417   1.671  0.0617  0.3460 -0.0454
 7029SOL     OW27887   5.262   0.379   3.286 -0.2504 -0.3580  0.1387
 7029SOL    HW227888   5.281   0.329   3.206 -0.7527  1.4007 -1.1399
 7029SOL    HW327889   5.192   0.330   3.328 -0.1598 -1.1875 -0.6425
 7029SOL    MW427890   5.255   0.366   3.281  0.2318  0.4522 -0.0848
 7030SOL     OW27891   5.564   5.862   0.275 -0.1337 -0.2057  0.3719
 7030SOL    HW227892   5.481   5.895   0.239  0.0360 -1.0277 -0.8713
 7030SOL    HW327893   5.625   5.867   0.201  1.8838  3.3005  2.0260
 7030SOL    MW427894   5.561   5.867   0.260 -0.6747 -0.2751  0.0812
 7031SOL     OW27895   2.912   4.788   2.803 -1.0116 -0.4999  0.0202
 7031SOL    HW227896   2.871   4.832   2.728 -1.8473 -1.2796 -0.0026
 7031SOL    HW327897   2.866   4.824   2.879 -0.8032 -0.3865  0.0923
 7031SOL    MW427898   2.900   4.799   2.803  0.2274  0.0128  0.7463
 7032SOL     OW27899   4.406   1.525   5.760  0.0068  0.3500  0.2463
 7032SOL    HW227900   4.326   1.517   5.708 -0.0038 -2.8732  0.5431
 7032SOL    HW327901   4.376   1.521   5.851  0.3729  1.3915  0.4260
 7032SOL    MW427902   4.392   1.523   5.765 -0.0691 -1.1772  0.7165
 7033SOL     OW27903   2.451   4.615   2.533 -0.2826  0.1176  0.8110
 7033SOL    HW227904   2.437   4.672   2.609  0.5598  0.7258  0.5269
 7033SOL    HW327905   2.366   4.573   2.519 -1.5108  2.6437 -0.0385
 7033SOL    MW427906   2.438   4.617   2.541 -0.3119 -0.5066  0.1707
 7034SOL     OW27907   0.006   2.881   3.177  0.1779 -0.1865 -0.4475
 7034SOL    HW227908  -0.013   2.816   3.109 -0.2093 -0.7329  0.1738
 7034SOL    HW327909  -0.046   2.853   3.252  0.8086  0.2614  0.1645
 7034SOL    MW427910  -0.004   2.869   3.178 -0.2075  0.1457 -0.3738
 7035SOL     OW27911   2.829   4.888   4.445  0.3381  0.1962 -0.2513
 7035SOL    HW227912   2.813   4.893   4.351  1.6548 -1.0889 -0.5844
 7035SOL    HW327913   2.872   4.803   4.457  0.1170  0.2986  1.5307
 7035SOL    MW427914   2.832   4.877   4.434 -0.1640  0.8186 -0.2716
 7036SOL     OW27915   6.195   3.568   3.777 -0.0891  0.5359  0.6270
 7036SOL    HW227916   6.259   3.500   3.796  0.1940  0.1728 -1.4307
 7036SOL    HW327917   6.246   3.648   3.767  0.4117 -0.0785 -2.8845
 7036SOL    MW427918   6.210   3.569   3.778  0.1829  0.0580 -0.2158
 7037SOL     OW27919   5.522   3.634   5.224  0.0966  0.1012 -0.4955
 7037SOL    HW227920   5.603   3.674   5.254 -0.1901 -0.9161  1.8958
 7037SOL    HW327921   5.487   3.696   5.160  3.2631  0.0170 -2.5411
 7037SOL    MW427922   5.528   3.647   5.220 -0.0301 -0.4084 -0.1179
 7038SOL     OW27923   2.554   3.625   0.547 -0.8158 -0.3651 -0.2921
 7038SOL    HW227924   2.528   3.537   0.522  0.3030 -0.9755  0.6056
 7038SOL    HW327925   2.575   3.669   0.465  0.0062 -1.4086 -0.6562
 7038SOL    MW427926   2.553   3.619   0.533  0.0804 -0.1506 -0.4929
 7039SOL     OW27927   1.751   2.268   0.764 -0.1581  0.2318 -0.3908
 7039SOL    HW227928   1.687   2.198   0.780  0.5650 -0.2125  0.6391
 7039SOL    HW327929   1.768   2.263   0.670 -1.0427 -0.1636 -0.5437
 7039SOL    MW427930   1.745   2.258   0.754  0.0246  0.1584  0.5297
 7040SOL     OW27931   1.454   2.630   3.642 -0.6156 -0.5187  0.2795
 7040SOL    HW227932   1.459   2.711   3.692  1.8872 -1.7631  2.3017
 7040SOL    HW327933   1.429   2.657   3.554  0.1379  2.4270  0.8729
 7040SOL    MW427934   1.451   2.644   3.637 -0.1889 -0.3549  0.0978
 7041SOL     OW27935   5.263   0.893   4.175 -0.3239 -0.3722 -0.4494
 7041SOL    HW227936   5.275   0.984   4.203  0.1595 -0.6416  0.2472
 7041SOL    HW327937   5.171   0.874   4.191 -0.1295 -0.4160  0.6503
 7041SOL    MW427938   5.253   0.902   4.180 -0.0415  0.2976  0.0320
 7042SOL     OW27939   1.386   5.265   4.025 -0.1653  0.1984  0.4125
 7042SOL    HW227940   1.393   5.359   4.009  0.5431  0.4316  1.9396
 7042SOL    HW327941   1.409   5.224   3.942  0.8788  1.3515  0.1135
 7042SOL    MW427942   1.390   5.272   4.012  0.3079 -0.3332  0.2427
 7043SOL     OW27943   1.111   2.862   0.349 -0.2376  0.4373 -0.6932
 7043SOL    HW227944   1.171   2.813   0.405 -0.4354 -0.8950 -1.6066
 7043SOL    HW327945   1.103   2.947   0.392 -1.2227 -0.8426  1.9277
 7043SOL    MW427946   1.118   2.867   0.362 -0.2259 -0.2449 -0.0407
 7044SOL     OW27947   0.233   1.248   4.221  0.3106 -0.0924  0.9684
 7044SOL    HW227948   0.164   1.182   4.212  1.0500 -0.5817 -1.8627
 7044SOL    HW327949   0.313   1.204   4.191  0.9921  1.8296 -0.2046
 7044SOL    MW427950   0.235   1.233   4.216 -0.2748  0.2608  0.1609
 7045SOL     OW27951   1.662   4.224   1.459  0.9592 -0.6327 -0.5124
 7045SOL    HW227952   1.624   4.150   1.506  0.6706  0.6297  1.3894
 7045SOL    HW327953   1.601   4.243   1.389  0.3539 -1.3687 -0.1900
 7045SOL    MW427954   1.649   4.217   1.456 -0.3086  0.2264  0.3094
 7046SOL     OW27955   0.099   6.155   6.261  0.2564 -0.1895 -0.4758
 7046SOL    HW227956   0.012   6.178   6.228 -0.0196  0.4466  0.6468
 7046SOL    HW327957   0.159   6.197   6.200 -0.2381  2.5646  0.7895
 7046SOL    MW427958   0.095   6.164   6.248  0.0449 -0.1831  0.0789
 7047SOL     OW27959   0.775   2.102   6.032 -0.5995  0.2154 -0.8632
 7047SOL    HW227960   0.827   2.025   6.010 -0.3814  0.1376 -0.1209
 7047SOL    HW327961   0.821   2.175   5.992 -0.4188  0.0379 -0.9789
 7047SOL    MW427962   0.788   2.101   6.024  0.2655 -0.1936  0.1220
 7048SOL     OW27963   1.289   2.704   1.704  0.0328 -0.2147 -0.0870
 7048SOL    HW227964   1.383   2.713   1.691  0.0617 -1.2786 -0.7175
 7048SOL    HW327965   1.268   2.618   1.668 -0.6431 -1.4301  2.8383
 7048SOL    MW427966   1.298   2.694   1.698 -0.3587  0.5702 -0.0191
 7049SOL     OW27967   1.570   6.121   4.870 -0.0186 -0.0552 -0.3104
 7049SOL    HW227968   1.545   6.035   4.835 -0.9046  0.1344 -0.1475
 7049SOL    HW327969   1.568   6.110   4.965  1.4323 -0.2895 -0.2813
 7049SOL    MW427970   1.567   6.108   4.878  0.2447  0.3536 -0.2780
 7050SOL     OW27971   2.309   6.108   5.632 -0.1065  0.2263 -0.2304
 7050SOL    HW227972   2.247   6.057   5.580 -0.1796 -0.8117  0.8387
 7050SOL    HW327973   2.254   6.157   5.693  0.1034 -0.3585  0.4287
 7050SOL    MW427974   2.293   6.108   5.633 -0.0597 -0.1713  0.4136
 7051SOL     OW27975   0.584   0.424   2.499 -0.4024 -0.2084  0.0608
 7051SOL    HW227976   0.653   0.401   2.437 -0.4978  1.8028 -0.8569
 7051SOL    HW327977   0.506   0.380   2.466 -0.0841 -0.5642 -0.2316
 7051SOL    MW427978   0.583   0.415   2.486  0.4255  0.7203  0.0073
 7052SOL     OW27979   6.374   4.498   0.966 -0.0013  0.2085 -0.2186
 7052SOL    HW227980   6.371   4.410   0.930 -1.1460  0.2973 -0.3798
 7052SOL    HW327981   6.434   4.492   1.041  1.9008 -0.1217 -1.6756
 7052SOL    MW427982   6.382   4.486   0.971  0.7793 -0.0866  0.6959
 7053SOL     OW27983   2.932   2.915   6.355  0.0524  0.2555 -0.1768
 7053SOL    HW227984   2.990   2.912   6.431  0.2700 -0.3376 -0.3681
 7053SOL    HW327985   2.891   3.002   6.360 -1.1517 -0.3473  1.5145
 7053SOL    MW427986   2.934   2.926   6.366 -0.0333  0.1119 -0.0585
 7054SOL     OW27987   0.449   3.304   2.451 -0.2281 -0.3523  0.0933
 7054SOL    HW227988   0.510   3.350   2.508  1.1005 -1.8649 -0.0496
 7054SOL    HW327989   0.396   3.250   2.510  0.4926 -1.1783  0.0003
 7054SOL    MW427990   0.450   3.303   2.466  0.2074 -0.0472 -1.0594
 7055SOL     OW27991   4.880   2.234   4.774 -0.4398 -0.4149 -0.1987
 7055SOL    HW227992   4.865   2.163   4.837  0.6745 -2.3492 -1.9964
 7055SOL    HW327993   4.827   2.211   4.698  0.2357  0.5011 -0.9691
 7055SOL    MW427994   4.871   2.222   4.773 -0.1009 -0.0698  0.0164
 7056SOL     OW27995   1.571   1.467   4.112  0.1658 -0.1656  0.4803
 7056SOL    HW227996   1.513   1.394   4.091  1.0530 -1.0129  0.9155
 7056SOL    HW327997   1.513   1.543   4.116 -0.6632 -0.7111 -0.7081
 7056SOL    MW427998   1.556   1.467   4.110  0.9075  0.0689  0.2198
 7057SOL     OW27999   5.279   3.547   2.548 -0.0166  0.2066 -0.6058
 7057SOL    HW228000   5.348   3.611   2.566  0.1302  0.3224 -1.5378
 7057SOL    HW328001   5.199   3.589   2.579  0.5284 -0.8416  2.7023
 7057SOL    MW428002   5.278   3.561   2.555 -0.6033 -0.2533  0.1459
 7058SOL     OW28003   3.359   6.023   5.624 -0.1230 -0.6828 -0.0076
 7058SOL    HW228004   3.395   6.016   5.535 -0.1909  2.1721 -0.3504
 7058SOL    HW328005   3.435   6.020   5.681  0.0113 -1.5519 -0.2208
 7058SOL    MW428006   3.374   6.022   5.620 -0.3306  0.1727 -0.4546
 7059SOL     OW28007   1.724   3.807   4.705 -0.2834 -0.5540  0.0670
 7059SOL    HW228008   1.692   3.842   4.622 -0.2270 -1.0661 -0.1730
 7059SOL    HW328009   1.820   3.808   4.696 -0.2922 -1.2077 -0.1244
 7059SOL    MW428010   1.733   3.812   4.693 -0.1227 -0.0359  0.0873
 7060SOL     OW28011   1.509   4.813   3.472  0.1219  0.3941 -0.3296
 7060SOL    HW228012   1.497   4.880   3.404  1.4317  0.9131 -0.0853
 7060SOL    HW328013   1.537   4.736   3.424 -2.0159 -0.2324 -0.6846
 7060SOL    MW428014   1.511   4.812   3.457  0.4145  0.3262  0.0014
 7061SOL     OW28015   0.264   3.868   6.195  0.2828 -0.7117  0.5640
 7061SOL    HW228016   0.332   3.801   6.186  3.0447  1.8683  0.8482
 7061SOL    HW328017   0.309   3.951   6.180 -3.3433  1.0810 -1.7440
 7061SOL    MW428018   0.279   3.870   6.192 -0.2408 -0.7377  0.4315
 7062SOL     OW28019   2.631   1.707   3.261  0.0261 -0.1551  0.3602
 7062SOL    HW228020   2.664   1.674   3.177 -0.5002 -0.1187  0.1330
 7062SOL    HW328021   2.709   1.736   3.308  0.3950 -0.7621  0.1414
 7062SOL    MW428022   2.645   1.706   3.256 -0.1580 -0.7911 -0.2459
 7063SOL     OW28023   0.165   3.796   2.915 -0.3676  0.1242 -0.1742
 7063SOL    HW228024   0.069   3.804   2.913 -0.6091 -2.1781  0.1467
 7063SOL    HW328025   0.182   3.730   2.983  1.5428  1.3256  0.6009
 7063SOL    MW428026   0.154   3.788   2.924  0.2588 -0.1231  0.0794
 7064SOL     OW28027   4.038   2.386   5.061 -0.1083  0.2081 -0.0369
 7064SOL    HW228028   4.029   2.482   5.065  0.6456  0.3258 -0.8945
 7064SOL    HW328029   3.955   2.353   5.095  0.6336  1.1321  3.0151
 7064SOL    MW428030   4.026   2.395   5.066 -0.3130 -0.3759 -0.0057
 7065SOL     OW28031   2.204   4.871   5.454  0.4357  0.1178  0.6291
 7065SOL    HW228032   2.286   4.834   5.487  0.9517  0.0151 -0.7053
 7065SOL    HW328033   2.200   4.959   5.492  0.0825 -0.6138  2.3988
 7065SOL    MW428034   2.214   4.878   5.464  0.0223 -0.0670  0.1702
 7066SOL     OW28035   3.794   4.492   1.745  0.0252  0.5748 -0.4766
 7066SOL    HW228036   3.747   4.533   1.673 -1.6197  0.1133  0.2734
 7066SOL    HW328037   3.759   4.536   1.823  2.0409  1.3367  0.0577
 7066SOL    MW428038   3.783   4.504   1.746  0.5116  0.4168 -0.4915
 7067SOL     OW28039   1.636   3.826   2.098  0.3544  0.9095 -0.0767
 7067SOL    HW228040   1.643   3.892   2.029  1.5364  1.7485  0.7997
 7067SOL    HW328041   1.724   3.821   2.135 -0.2234  0.3889  1.2867
 7067SOL    MW428042   1.648   3.834   2.094  0.1822 -0.4919  0.3648
 7068SOL     OW28043   4.959   4.353   0.043  0.2321  0.1128 -0.5341
 7068SOL    HW228044   4.951   4.374   0.136  1.9585 -1.0136 -0.0723
 7068SOL    HW328045   5.002   4.430   0.005 -0.4596  0.5667 -0.4224
 7068SOL    MW428046   4.964   4.366   0.050  0.1739  0.6893 -0.2522
 7069SOL     OW28047   5.972   1.975   1.741  0.4677 -0.4444  0.5560
 7069SOL    HW228048   5.957   1.993   1.649  1.1834 -0.2505  0.4695
 7069SOL    HW328049   6.008   1.886   1.743  0.6663 -0.3644  0.6219
 7069SOL    MW428050   5.975   1.965   1.729  0.0020 -0.2378  0.7389
 7070SOL     OW28051   4.782   3.692   5.007  0.1038 -0.2039 -0.0115
 7070SOL    HW228052   4.698   3.731   5.034 -0.3507  0.1750 -1.8641
 7070SOL    HW328053   4.756   3.618   4.951  1.0165 -0.7590  0.2827
 7070SOL    MW428054   4.767   3.687   5.003  0.8798 -0.3491 -0.3130
 7071SOL     OW28055   3.154   2.680   2.659 -0.1840  0.1640 -0.0899
 7071SOL    HW228056   3.104   2.710   2.736  0.3213  1.9280 -0.3965
 7071SOL    HW328057   3.160   2.585   2.670 -1.2404  0.2247  1.3728
 7071SOL    MW428058   3.148   2.672   2.671 -0.1995 -0.0557 -0.6764
 7072SOL     OW28059   6.072   4.074   4.204 -0.4756  0.1035 -0.1083
 7072SOL    HW228060   6.017   4.132   4.151 -0.0121  0.6177 -0.0373
 7072SOL    HW328061   6.049   3.986   4.175 -2.9842  0.1396  1.4686
 7072SOL    MW428062   6.062   4.070   4.193 -0.4293 -0.3390  0.3300
 7073SOL     OW28063   2.940   3.126   5.944  0.0088  0.6982 -0.2713
 7073SOL    HW228064   2.931   3.082   5.859 -1.5669  0.4313 -0.0044
 7073SOL    HW328065   2.943   3.219   5.922 -5.1484  1.1135 -0.5826
 7073SOL    MW428066   2.939   3.132   5.930  0.7486  0.3394 -0.1657
 7074SOL     OW28067   4.796   5.871   1.050 -0.1019 -0.2520 -0.6372
 7074SOL    HW228068   4.710   5.902   1.022 -0.8655 -0.6057  1.1329
 7074SOL    HW328069   4.854   5.886   0.975 -1.5585  0.6140 -1.6247
 7074SOL    MW428070   4.792   5.877   1.037 -0.1064  0.6289  0.5022
 7075SOL     OW28071   2.054   2.959   2.220 -0.3291 -0.2044  0.2515
 7075SOL    HW228072   2.062   2.894   2.151  0.6228  0.7496 -0.5852
 7075SOL    HW328073   1.967   2.944   2.258  0.3121 -2.6922  0.9040
 7075SOL    MW428074   2.043   2.949   2.216 -0.0357  0.0073  0.2498
 7076SOL     OW28075   1.382   1.426   3.829  0.0639 -0.0685  0.0924
 7076SOL    HW228076   1.341   1.512   3.832 -0.3485 -0.2701  0.3640
 7076SOL    HW328077   1.425   1.417   3.914  0.8717  0.2349 -0.2777
 7076SOL    MW428078   1.382   1.436   3.841  0.1712 -0.1473  0.4131
 7077SOL     OW28079   0.578   6.248   0.862  0.7822  0.0035 -0.1672
 7077SOL    HW228080   0.605   6.261   0.953 -0.4500 -1.6745  0.4792
 7077SOL    HW328081   0.599   6.157   0.843  1.1272  0.3600 -1.6268
 7077SOL    MW428082   0.585   6.238   0.872  0.0878  0.1880  0.0529
 7078SOL     OW28083   1.038   2.652   2.425  0.1429  0.2908 -0.3110
 7078SOL    HW228084   1.039   2.649   2.520  3.5715 -2.7632 -0.2001
 7078SOL    HW328085   0.950   2.624   2.400 -0.2947 -0.5109  1.9580
 7078SOL    MW428086   1.027   2.648   2.434 -0.2898  0.1979  0.6685
 7079SOL     OW28087   2.559   4.553   3.879  0.5376 -0.0032 -0.8559
 7079SOL    HW228088   2.506   4.533   3.802  1.0909 -1.1187 -0.9649
 7079SOL    HW328089   2.631   4.490   3.876  2.3716  2.0197 -1.1925
 7079SOL    MW428090   2.562   4.542   3.869  0.0364  0.4340 -0.7087
 7080SOL     OW28091   1.668   0.950   3.904  0.4297 -0.3297  0.6674
 7080SOL    HW228092   1.678   0.855   3.899 -0.4252 -0.4974  1.8392
 7080SOL    HW328093   1.584   0.964   3.948 -0.7455  0.9956 -1.7906
 7080SOL    MW428094   1.658   0.939   3.909  0.7805  0.3218  0.2051
 7081SOL     OW28095   0.157   2.647   0.743 -0.0668 -0.1763 -0.0192
 7081SOL    HW228096   0.211   2.587   0.691 -0.4334 -1.7093  1.2859
 7081SOL    HW328097   0.067   2.622   0.722 -0.3266  1.7702 -1.5006
 7081SOL    MW428098   0.153   2.636   0.733 -0.1883 -0.4174 -0.4001
 7082SOL     OW28099   0.867   1.006   5.774  0.1228  0.0798 -0.6122
 7082SOL    HW228100   0.894   0.930   5.825 -0.0187  0.5363  0.1697
 7082SOL    HW328101   0.820   1.061   5.837 -1.3347 -0.0027 -1.5817
 7082SOL    MW428102   0.864   1.003   5.789 -0.2885 -0.4751  0.1557
 7083SOL     OW28103   0.147   0.423   2.992 -0.0928 -0.3617 -0.7501
 7083SOL    HW228104   0.093   0.492   3.032  1.1131  1.7972 -2.6271
 7083SOL    HW328105   0.222   0.469   2.955  1.0130 -2.7665 -1.7496
 7083SOL    MW428106   0.150   0.438   2.993 -0.4526 -0.2071 -0.4353
 7084SOL     OW28107   3.995   5.952   4.929  0.3395  0.1341 -0.4394
 7084SOL    HW228108   3.922   5.953   4.867  0.5205 -2.1323 -0.7837
 7084SOL    HW328109   3.956   5.977   5.013 -0.6374 -0.1323 -0.8005
 7084SOL    MW428110   3.980   5.956   4.932 -0.6050 -0.3282  0.0851
 7085SOL     OW28111   5.992   6.023   1.151 -0.3093 -0.1885 -0.0037
 7085SOL    HW228112   5.912   5.996   1.106 -0.4533  0.3770 -0.0911
 7085SOL    HW328113   6.056   6.035   1.081  0.1424 -1.5911  0.1429
 7085SOL    MW428114   5.990   6.021   1.136 -0.4861 -0.4632  0.0830
 7086SOL     OW28115   3.480   0.288   2.858  0.5093 -0.2150 -0.1567
 7086SOL    HW228116   3.487   0.200   2.894  1.0858  0.0067  0.2785
 7086SOL    HW328117   3.548   0.292   2.790  0.2416 -0.2221 -0.4299
 7086SOL    MW428118   3.490   0.277   2.854 -0.0882  0.2674 -0.4482
 7087SOL     OW28119   3.467   5.861   5.874 -0.2009 -0.1989 -0.3986
 7087SOL    HW228120   3.507   5.879   5.959 -1.9236 -0.6982  0.5838
 7087SOL    HW328121   3.536   5.818   5.823  0.5085 -1.0149  1.1879
 7087SOL    MW428122   3.481   5.858   5.878 -0.4224  0.1006  0.2728
 7088SOL     OW28123   2.079   5.538   2.508 -0.9076  0.1603 -0.0678
 7088SOL    HW228124   2.096   5.505   2.420 -0.1817 -1.0585  0.5114
 7088SOL    HW328125   2.088   5.462   2.565  0.2353  1.2311  1.2528
 7088SOL    MW428126   2.082   5.524   2.504  0.0672  0.4808  0.1443
 7089SOL     OW28127   2.910   3.358   4.275  0.0303  0.0130  1.2557
 7089SOL    HW228128   2.916   3.361   4.370 -1.1779 -1.0628  1.3977
 7089SOL    HW328129   2.981   3.300   4.248  1.6225  1.8464  1.2961
 7089SOL    MW428130   2.920   3.350   4.284  0.1197 -0.0370  0.2491
 7090SOL     OW28131   0.243   1.142   1.559 -0.0136 -0.7215  0.0067
 7090SOL    HW228132   0.313   1.102   1.507  1.5924  2.7160 -0.8055
 7090SOL    HW328133   0.286   1.166   1.641 -0.2170  1.2164 -0.4022
 7090SOL    MW428134   0.258   1.140   1.563  0.6950 -0.5033  0.4913
 7091SOL     OW28135   5.164   2.077   1.909  0.1480 -0.0058  0.2549
 7091SOL    HW228136   5.132   2.165   1.890 -1.2891 -0.6634 -0.4728
 7091SOL    HW328137   5.253   2.076   1.875 -0.4459  0.6093 -1.3758
 7091SOL    MW428138   5.171   2.088   1.902 -0.3167  0.0182 -0.1883
 7092SOL     OW28139   1.686   3.562   1.683 -0.2080  0.5166  0.1260
 7092SOL    HW228140   1.680   3.572   1.778 -1.8822  0.9551  0.0030
 7092SOL    HW328141   1.738   3.483   1.670 -0.1084  0.3537  1.4001
 7092SOL    MW428142   1.692   3.553   1.694  0.1593  0.4680 -0.0310
 7093SOL     OW28143   0.319   5.995   4.837 -0.3071 -0.1456 -0.1289
 7093SOL    HW228144   0.326   5.942   4.916  0.6044  0.8844  0.5116
 7093SOL    HW328145   0.266   5.942   4.777 -0.4283 -1.2430  0.9096
 7093SOL    MW428146   0.313   5.981   4.839 -0.6118 -0.2294  0.4400
 7094SOL     OW28147   2.315   3.681   4.680 -0.6726  0.2643  1.4268
 7094SOL    HW228148   2.349   3.611   4.736 -1.7244 -1.0937  0.4402
 7094SOL    HW328149   2.319   3.644   4.592  0.6821  2.2405  0.5870
 7094SOL    MW428150   2.320   3.667   4.676 -0.2436 -0.4830 -0.3569
 7095SOL     OW28151   3.432   5.296   4.099  0.0660  0.3273 -0.1889
 7095SOL    HW228152   3.451   5.212   4.139  0.7548  0.1826 -0.7917
 7095SOL    HW328153   3.508   5.314   4.044 -0.7532  0.6242 -1.2484
 7095SOL    MW428154   3.445   5.288   4.097  0.0841 -0.3428  0.2224
 7096SOL     OW28155   0.918   1.843   2.457  0.1117 -0.6973  0.4703
 7096SOL    HW228156   0.957   1.926   2.430 -0.5110 -0.8900 -1.1772
 7096SOL    HW328157   0.852   1.867   2.522 -0.2201  0.1361 -0.1578
 7096SOL    MW428158   0.914   1.857   2.462 -0.2359 -0.3138 -0.0782
 7097SOL     OW28159   0.045   5.160   1.806  0.1256 -0.1247 -0.0719
 7097SOL    HW228160  -0.034   5.187   1.853 -0.1480  2.1949 -1.6841
 7097SOL    HW328161   0.015   5.098   1.740  0.1442 -1.4804  1.1477
 7097SOL    MW428162   0.031   5.155   1.804 -0.4511  0.2301 -0.3153
 7098SOL     OW28163   1.459   0.509   3.824 -0.3289 -0.0313  0.1082
 7098SOL    HW228164   1.531   0.571   3.815 -0.9691  0.8394  0.7541
 7098SOL    HW328165   1.500   0.423   3.821  0.5286  0.4014 -1.2308
 7098SOL    MW428166   1.474   0.506   3.823 -0.4301 -0.2884  0.0035
 7099SOL     OW28167   5.558   3.982   0.821 -0.0652 -0.6338  0.1663
 7099SOL    HW228168   5.603   4.066   0.824 -0.1103 -0.5769 -0.5939
 7099SOL    HW328169   5.598   3.936   0.747 -0.3798 -1.0866  0.2743
 7099SOL    MW428170   5.569   3.987   0.812 -0.5206  0.1375  0.4309
 7100SOL     OW28171   2.393   1.777   5.230 -0.4233  0.2748 -0.4264
 7100SOL    HW228172   2.418   1.693   5.191 -0.3038  0.4843 -0.8066
 7100SOL    HW328173   2.298   1.779   5.225 -0.6495 -0.9759  1.9499
 7100SOL    MW428174   2.384   1.766   5.224 -0.3686 -0.2482 -0.0147
 7101SOL     OW28175   2.334   1.850   5.722 -0.0655 -0.5049  0.5092
 7101SOL    HW228176   2.377   1.832   5.638 -1.5340 -0.5454 -0.2713
 7101SOL    HW328177   2.297   1.938   5.711 -0.7480 -0.7351  0.9015
 7101SOL    MW428178   2.335   1.859   5.709  0.5070 -0.5170  0.6045
 7102SOL     OW28179   3.098   4.177   5.914 -0.7919 -0.3811 -0.3431
 7102SOL    HW228180   3.046   4.223   5.848  0.8686 -1.5818 -2.6314
 7102SOL    HW328181   3.185   4.216   5.907 -0.1156 -1.8015 -0.2231
 7102SOL    MW428182   3.102   4.188   5.904  0.0940 -0.4946  0.2245
 7103SOL     OW28183   5.686   1.046   4.731 -1.1598 -0.0196  0.0595
 7103SOL    HW228184   5.629   0.988   4.681 -0.1104  0.5468 -1.9144
 7103SOL    HW328185   5.641   1.059   4.815 -2.0193 -2.6559  0.0989
 7103SOL    MW428186   5.673   1.040   4.736 -0.5325 -0.4233  0.0627
 7104SOL     OW28187   6.131   6.413   5.000  0.1370 -0.4064  0.2922
 7104SOL    HW228188   6.036   6.398   4.998 -0.0602  0.5709 -2.4953
 7104SOL    HW328189   6.169   6.330   4.972  0.0482 -0.5207  0.5082
 7104SOL    MW428190   6.124   6.400   4.996 -0.4319  0.4324 -0.0157
 7105SOL     OW28191   0.133   5.492   4.363 -0.3078  0.2650 -0.5911
 7105SOL    HW228192   0.227   5.498   4.342 -0.2523  2.1242  0.0655
 7105SOL    HW328193   0.121   5.400   4.387  1.8189  0.3773  1.3031
 7105SOL    MW428194   0.144   5.480   4.363 -0.4566  0.7181 -0.2040
 7106SOL     OW28195   3.117   1.411   2.678  0.1929  0.1017  0.2486
 7106SOL    HW228196   3.174   1.348   2.634  0.1957  0.3034 -0.0404
 7106SOL    HW328197   3.132   1.396   2.771 -0.6371 -1.0935  0.2147
 7106SOL    MW428198   3.126   1.401   2.684  0.4281 -0.0791  0.1330
 7107SOL     OW28199   1.885   1.673   0.237  0.3909  0.0662  0.3048
 7107SOL    HW228200   1.823   1.737   0.203 -0.8393 -0.4192  1.5311
 7107SOL    HW328201   1.948   1.725   0.288  0.7128  0.5042 -0.5156
 7107SOL    MW428202   1.885   1.689   0.239  0.9841  0.2428 -0.0937
 7108SOL     OW28203   2.804   1.046   4.377  0.2819 -0.3846  0.1970
 7108SOL    HW228204   2.862   1.038   4.302 -1.1044 -0.8245 -0.8718
 7108SOL    HW328205   2.749   0.967   4.373  0.3049 -0.5152  1.7964
 7108SOL    MW428206   2.804   1.034   4.367 -0.7096  0.4002 -0.7273
 7109SOL     OW28207   1.446   6.393   6.228 -0.2606  0.5292  0.8189
 7109SOL    HW228208   1.368   6.418   6.179  0.9202  2.5086 -0.1956
 7109SOL    HW328209   1.441   6.444   6.309 -1.3784 -1.5048  2.1357
 7109SOL    MW428210   1.435   6.403   6.232  0.9501 -0.4172  0.4680
 7110SOL     OW28211   0.737   3.601   1.181  0.3818  0.3475  0.5090
 7110SOL    HW228212   0.778   3.639   1.259  1.7931 -0.4353  0.1850
 7110SOL    HW328213   0.807   3.599   1.116  0.4555 -2.9179  0.5490
 7110SOL    MW428214   0.752   3.606   1.183 -0.1077  0.0254  1.4175
 7111SOL     OW28215   3.396   1.819   6.037  0.0851 -0.1935  0.8798
 7111SOL    HW228216   3.337   1.868   5.980 -0.5894 -1.0646  0.8034
 7111SOL    HW328217   3.451   1.885   6.079 -1.4349  0.7136  1.5060
 7111SOL    MW428218   3.396   1.834   6.035 -0.1895 -0.1586  0.1456
 7112SOL     OW28219   5.005   1.752   3.663  0.1082 -0.5169 -0.8160
 7112SOL    HW228220   5.093   1.788   3.667  0.4503 -1.3162 -0.9493
 7112SOL    HW328221   4.963   1.798   3.591  0.9937 -1.3502 -1.9170
 7112SOL    MW428222   5.011   1.763   3.654 -0.4420 -0.5997 -0.4971
 7113SOL     OW28223   6.227   3.184   4.376 -0.2377  0.0672 -0.3729
 7113SOL    HW228224   6.205   3.160   4.466 -0.9348  0.6737 -0.3743
 7113SOL    HW328225   6.319   3.158   4.366 -0.7743 -2.0509 -0.2108
 7113SOL    MW428226   6.236   3.178   4.387 -0.3123  0.0561 -0.4142
 7114SOL     OW28227   0.749   0.561   5.589 -0.0631 -0.0205  0.0912
 7114SOL    HW228228   0.660   0.569   5.557 -0.2287 -0.8559  0.3043
 7114SOL    HW328229   0.798   0.527   5.514  0.2652  1.2432 -0.2865
 7114SOL    MW428230   0.744   0.557   5.575  0.1386 -0.4538  0.5391
 7115SOL     OW28231   0.778   3.948   2.475  0.4848  0.3174  0.3706
 7115SOL    HW228232   0.767   4.039   2.504 -1.1741  0.1178  0.4742
 7115SOL    HW328233   0.741   3.947   2.386  0.1825 -0.3240  0.5027
 7115SOL    MW428234   0.772   3.960   2.467  0.5753  0.4189 -0.5751
 7116SOL     OW28235   0.404   6.034   3.014 -0.0840  0.5405  0.8739
 7116SOL    HW228236   0.399   6.056   2.921  2.4236 -1.2253  0.2206
 7116SOL    HW328237   0.336   5.969   3.028  0.0179  0.2555  0.0774
 7116SOL    MW428238   0.395   6.028   3.004  0.4724  0.5922  0.0979
 7117SOL     OW28239   0.733   4.985   6.210 -0.2559 -0.5654 -0.0340
 7117SOL    HW228240   0.827   4.973   6.196  0.1841  1.1265  1.1858
 7117SOL    HW328241   0.716   5.076   6.188 -1.8061 -1.0560 -1.0363
 7117SOL    MW428242   0.743   4.995   6.205 -0.0110  0.4655  0.2007
 7118SOL     OW28243   0.242   5.769   4.061  0.0518  0.4346 -0.1550
 7118SOL    HW228244   0.248   5.757   4.156 -0.3350 -0.0728 -0.1913
 7118SOL    HW328245   0.217   5.684   4.027 -0.3675  0.7533 -0.6625
 7118SOL    MW428246   0.240   5.757   4.069  0.3915  0.1319  0.4699
 7119SOL     OW28247   5.095   5.259   4.301 -0.4420  0.3071 -0.0205
 7119SOL    HW228248   5.055   5.272   4.214  0.3796 -0.9294 -0.6031
 7119SOL    HW328249   5.184   5.232   4.283 -0.9220 -2.3364  1.1276
 7119SOL    MW428250   5.101   5.257   4.287 -0.4861 -0.0196 -0.1298
 7120SOL     OW28251   6.127   4.208   5.161 -0.2381 -0.0566 -0.5995
 7120SOL    HW228252   6.142   4.282   5.101  0.2534  1.3683  1.1786
 7120SOL    HW328253   6.050   4.234   5.211  0.2231 -0.5107  0.3734
 7120SOL    MW428254   6.119   4.221   5.160 -0.6776 -0.0259  0.1426
 7121SOL     OW28255   3.230   2.131   3.084 -0.0861 -0.1878  0.0405
 7121SOL    HW228256   3.216   2.200   3.018  0.5209 -1.0264 -0.9957
 7121SOL    HW328257   3.253   2.054   3.033  1.6491 -0.5480  1.3008
 7121SOL    MW428258   3.231   2.130   3.068  0.0189 -0.0155 -0.0970
 7122SOL     OW28259   4.265   0.879   5.507  0.2940 -0.4159 -0.3020
 7122SOL    HW228260   4.331   0.818   5.475  0.4255 -0.0584 -0.7249
 7122SOL    HW328261   4.197   0.824   5.545  0.4440 -0.8254 -0.6225
 7122SOL    MW428262   4.265   0.864   5.508  0.3526  0.6478 -0.3162
 7123SOL     OW28263   2.376   1.787   3.262  0.9108  0.0526 -0.2865
 7123SOL    HW228264   2.339   1.706   3.295 -0.7032  0.9458  0.1904
 7123SOL    HW328265   2.470   1.768   3.251  0.6982 -1.6143  0.5222
 7123SOL    MW428266   2.384   1.774   3.265  0.2101  0.4334 -0.6614
 7124SOL     OW28267   2.594   0.944   1.111 -0.0626 -0.5554  0.2442
 7124SOL    HW228268   2.527   0.907   1.169  0.5423  0.4004  1.6233
 7124SOL    HW328269   2.670   0.955   1.168  0.7049  0.0349 -0.8625
 7124SOL    MW428270   2.595   0.940   1.127  0.9737 -0.2202 -0.5856
 7125SOL     OW28271   6.206   0.129   6.177  0.1698 -0.8237  0.1315
 7125SOL    HW228272   6.115   0.117   6.204  0.5384 -1.5393  1.1362
 7125SOL    HW328273   6.238   0.201   6.232  0.2873 -0.7508 -0.0302
 7125SOL    MW428274   6.198   0.137   6.188  0.3965 -0.4250  0.0562
 7126SOL     OW28275   3.647   4.244   6.162  0.1167 -0.1618  0.6051
 7126SOL    HW228276   3.554   4.227   6.145  0.4868 -0.3896 -1.3968
 7126SOL    HW328277   3.669   4.185   6.234 -0.6765 -2.0838 -0.6565
 7126SOL    MW428278   3.638   4.234   6.169  0.1663 -0.1843  0.0507
 7127SOL     OW28279   6.059   1.840   3.750  0.7311 -0.3070 -0.3139
 7127SOL    HW228280   6.131   1.828   3.812  0.5967  0.3055 -0.0323
 7127SOL    HW328281   6.081   1.922   3.704 -0.9003  1.1337  1.3483
 7127SOL    MW428282   6.072   1.849   3.752 -0.7242  0.4466 -0.0762
 7128SOL     OW28283   2.894   2.995   4.141 -0.1862  0.4710  0.0308
 7128SOL    HW228284   2.932   3.074   4.102 -3.4791  1.8491 -0.6637
 7128SOL    HW328285   2.939   2.986   4.225  1.0168  2.4691 -0.3311
 7128SOL    MW428286   2.905   3.005   4.147 -0.4127  0.2424 -0.0832
 7129SOL     OW28287   5.534   0.049   5.297  0.2936 -0.1050 -0.0541
 7129SOL    HW228288   5.453   0.030   5.250 -0.6497  0.3969  1.3325
 7129SOL    HW328289   5.570  -0.036   5.319  0.0439 -0.3263 -0.4955
 7129SOL    MW428290   5.528   0.036   5.293  0.3579  0.0071 -0.2148
 7130SOL     OW28291   1.816   1.238   6.181  0.1997  0.1919  0.3285
 7130SOL    HW228292   1.849   1.326   6.167  0.1232  0.2486  0.5095
 7130SOL    HW328293   1.825   1.195   6.095  1.4190 -0.0264  0.5492
 7130SOL    MW428294   1.822   1.244   6.167  0.4495 -0.4037  0.5758
 7131SOL     OW28295   5.868   2.709   4.838  0.1087 -0.3749  0.6422
 7131SOL    HW228296   5.872   2.725   4.744  0.8308 -1.5819  0.4583
 7131SOL    HW328297   5.959   2.696   4.864 -0.2858 -2.5844  1.0360
 7131SOL    MW428298   5.880   2.710   4.829 -0.1065 -0.2554 -0.8405
 7132SOL     OW28299   0.847   3.028   5.949 -0.3517  0.0515  0.7686
 7132SOL    HW228300   0.877   3.050   6.038  0.5517  0.7364  0.3083
 7132SOL    HW328301   0.915   3.062   5.892 -0.1463 -1.7856 -0.1296
 7132SOL    MW428302   0.860   3.035   5.953  0.2832  0.0782 -0.4416
 7133SOL     OW28303   0.562   4.765   4.500  0.0903  0.0376  0.3632
 7133SOL    HW228304   0.473   4.801   4.498  0.3351  0.6155 -0.5789
 7133SOL    HW328305   0.592   4.783   4.589 -0.5983  0.1719  0.5782
 7133SOL    MW428306   0.554   4.772   4.512 -0.3052 -0.3389 -0.9414
 7134SOL     OW28307   1.139   5.513   0.820 -0.8069 -0.1892 -0.3183
 7134SOL    HW228308   1.106   5.458   0.891 -0.2985 -0.2363 -0.1132
 7134SOL    HW328309   1.116   5.602   0.846 -1.1534 -0.2596 -0.3867
 7134SOL    MW428310   1.132   5.517   0.833 -0.3138  0.4351 -0.3786
 7135SOL     OW28311   0.419   5.826   2.638  0.2203  0.1855 -0.3948
 7135SOL    HW228312   0.493   5.796   2.585 -0.9225  0.8986 -2.4649
 7135SOL    HW328313   0.377   5.745   2.668  0.4754 -0.2400 -1.1724
 7135SOL    MW428314   0.423   5.811   2.635  0.5272 -0.7594 -0.6553
 7136SOL     OW28315   4.361   4.584   2.546 -0.7007 -0.0579  0.3685
 7136SOL    HW228316   4.275   4.574   2.506 -0.6914  0.4512  0.2038
 7136SOL    HW328317   4.343   4.610   2.636 -0.7450 -3.0045  1.2868
 7136SOL    MW428318   4.347   4.586   2.553 -0.6392 -0.0722  0.2974
 7137SOL     OW28319   0.963   0.599   0.633 -0.2931  0.5122 -0.3260
 7137SOL    HW228320   0.920   0.627   0.552  1.2225  1.3957 -0.8663
 7137SOL    HW328321   1.056   0.615   0.618  0.0136  0.9898  1.7016
 7137SOL    MW428322   0.970   0.605   0.621 -0.1709  0.0385 -0.1107
 7138SOL     OW28323   2.456   5.928   5.860  0.2499  0.1010  0.1666
 7138SOL    HW228324   2.460   6.022   5.843  0.8058 -0.2372 -1.9714
 7138SOL    HW328325   2.416   5.891   5.781 -0.9275 -1.3877  1.3847
 7138SOL    MW428326   2.451   5.936   5.847 -0.1069  0.2741  0.2412
 7139SOL     OW28327   5.677   0.962   6.325  0.0297  0.7717 -0.6286
 7139SOL    HW228328   5.609   0.897   6.338  1.4698 -0.8575 -0.8644
 7139SOL    HW328329   5.718   0.938   6.241  1.6389  0.9600  0.0569
 7139SOL    MW428330   5.674   0.950   6.315 -0.5308  0.1922 -0.4410
 7140SOL     OW28331   5.952   0.437   6.078  0.5610 -0.4336 -0.1744
 7140SOL    HW228332   5.976   0.515   6.127 -0.5523 -0.3252  0.2393
 7140SOL    HW328333   6.026   0.422   6.019  1.7566 -0.3552  1.2601
 7140SOL    MW428334   5.965   0.446   6.076 -0.5147 -0.4241 -0.1182
 7141SOL     OW28335   1.291   1.247   5.107  0.0245 -0.5074 -0.0332
 7141SOL    HW228336   1.238   1.208   5.038  0.9520  0.2080 -1.1930
 7141SOL    HW328337   1.228   1.294   5.161 -0.5083  1.1182 -1.9187
 7141SOL    MW428338   1.276   1.248   5.105 -0.1030 -0.6174  0.2436
 7142SOL     OW28339   2.618   3.159   2.288 -0.1881 -0.3087 -0.1082
 7142SOL    HW228340   2.673   3.237   2.294 -2.0733  1.0446  0.4386
 7142SOL    HW328341   2.626   3.130   2.197  0.7678  0.3379 -0.2439
 7142SOL    MW428342   2.627   3.165   2.277  0.2164 -0.3966  0.3921
 7143SOL     OW28343   3.492   3.925   2.806 -0.0372 -0.4348  0.0224
 7143SOL    HW228344   3.543   3.908   2.885 -0.3332  0.6616  0.4793
 7143SOL    HW328345   3.419   3.864   2.810  0.1689 -0.6591  0.3961
 7143SOL    MW428346   3.489   3.915   2.817  0.8579  0.1289 -0.3048
 7144SOL     OW28347   0.773   0.417   1.787 -0.1753 -0.1891 -0.3942
 7144SOL    HW228348   0.695   0.388   1.834  0.1586  1.4192  1.2804
 7144SOL    HW328349   0.846   0.395   1.845  0.2383  2.0174  0.0385
 7144SOL    MW428350   0.772   0.410   1.801 -0.0552 -0.0386  0.0716
 7145SOL     OW28351   4.958   0.794   3.662 -0.6625 -0.0226 -0.2135
 7145SOL    HW228352   5.047   0.819   3.639 -0.2061  0.4800  1.8486
 7145SOL    HW328353   4.932   0.731   3.595  1.6758 -1.0706 -0.2459
 7145SOL    MW428354   4.966   0.789   3.650  0.0506 -0.3738  0.0798
 7146SOL     OW28355   1.107   3.618   3.275 -0.6987  0.3673 -0.2807
 7146SOL    HW228356   1.040   3.680   3.248 -0.8017  0.1477 -0.5281
 7146SOL    HW328357   1.105   3.550   3.208 -0.1720  0.4027 -0.3370
 7146SOL    MW428358   1.098   3.617   3.263  0.0711  0.2018  0.0603
 7147SOL     OW28359   5.615   2.166   1.983  0.2802 -0.1165  0.0022
 7147SOL    HW228360   5.709   2.168   2.003  0.1841  2.7219  0.6439
 7147SOL    HW328361   5.573   2.168   2.069 -0.3359  0.3135 -0.3071
 7147SOL    MW428362   5.622   2.167   1.997 -0.2130 -0.7672  0.1090
 7148SOL     OW28363   5.912   3.535   3.364 -0.1151 -0.3136  0.2868
 7148SOL    HW228364   5.974   3.489   3.308  3.9407  1.9405  2.4824
 7148SOL    HW328365   5.913   3.626   3.332  0.1186  0.4125  2.2223
 7148SOL    MW428366   5.920   3.541   3.352 -1.2160 -0.1263  0.2205
 7149SOL     OW28367   0.612   4.250   6.174  0.1635  0.1331  0.1954
 7149SOL    HW228368   0.559   4.277   6.250  0.7891  0.6889  0.4478
 7149SOL    HW328369   0.590   4.314   6.106  0.2248  0.1343  0.1763
 7149SOL    MW428370   0.602   4.262   6.175 -0.5496 -0.1688 -0.5448
 7150SOL     OW28371   0.285   3.631   2.667  0.4155 -0.1115  0.3145
 7150SOL    HW228372   0.217   3.671   2.722 -1.5111 -1.2075 -1.1576
 7150SOL    HW328373   0.243   3.619   2.582  2.6793 -0.3015 -0.8406
 7150SOL    MW428374   0.270   3.635   2.663 -0.1989  0.0362 -0.4567
 7151SOL     OW28375   2.815   1.291   1.857 -0.0004  0.5192 -0.8198
 7151SOL    HW228376   2.849   1.374   1.888 -0.9846 -0.1212  2.3066
 7151SOL    HW328377   2.741   1.314   1.801  0.8082  1.7384 -1.4246
 7151SOL    MW428378   2.810   1.305   1.854 -0.0822 -0.4786  0.1962
 7152SOL     OW28379   1.538   2.171   5.914  0.0641 -0.0195 -0.2074
 7152SOL    HW228380   1.597   2.120   5.970 -1.5884 -0.1074  1.5899
 7152SOL    HW328381   1.457   2.178   5.965 -0.5009  2.6225 -1.2695
 7152SOL    MW428382   1.535   2.165   5.928 -0.4107 -0.2109  0.1311
 7153SOL     OW28383   4.093   1.893   4.315  0.0043 -0.4777  0.5024
 7153SOL    HW228384   4.080   1.942   4.395 -0.3139 -0.7110  0.5932
 7153SOL    HW328385   4.185   1.865   4.319  0.8484  1.8431 -0.5305
 7153SOL    MW428386   4.104   1.896   4.326  0.7916  0.4679 -0.3392
 7154SOL     OW28387   4.060   2.159   3.411  0.8532 -0.3550 -0.0267
 7154SOL    HW228388   4.009   2.100   3.355  0.5858  0.2784 -0.4542
 7154SOL    HW328389   4.008   2.167   3.491 -0.3518  1.2203 -0.9010
 7154SOL    MW428390   4.047   2.152   3.414  0.5172  0.4079  0.0068
 7155SOL     OW28391   6.229   4.351   0.271 -0.4100 -0.0512  0.3911
 7155SOL    HW228392   6.153   4.381   0.321 -2.0709  0.7551 -2.4102
 7155SOL    HW328393   6.243   4.261   0.300 -3.0772 -0.5499  0.3416
 7155SOL    MW428394   6.221   4.343   0.281 -0.0108  1.0782  0.0041
 7156SOL     OW28395   0.562   0.485   0.036 -0.0954 -0.1309 -0.2801
 7156SOL    HW228396   0.480   0.481   0.085  1.7110  0.0915  3.0511
 7156SOL    HW328397   0.568   0.575   0.005 -0.6079  0.1338  0.3836
 7156SOL    MW428398   0.552   0.496   0.038  0.1654 -0.2155  0.4170
 7157SOL     OW28399   0.455   5.147   4.587  0.1694  0.1811  0.3963
 7157SOL    HW228400   0.434   5.102   4.669  0.4404  0.2474  0.5023
 7157SOL    HW328401   0.550   5.150   4.585  0.1572  0.4462  0.2203
 7157SOL    MW428402   0.465   5.141   4.597  0.1198  0.1002 -0.2201
 7158SOL     OW28403   1.089   3.386   6.248  0.1804  0.1302  0.3857
 7158SOL    HW228404   1.131   3.364   6.331 -0.4407 -1.4193  0.3262
 7158SOL    HW328405   0.997   3.403   6.271  0.4403  1.7897  0.2837
 7158SOL    MW428406   1.082   3.385   6.262 -0.3015  0.4720  0.0961
 7159SOL     OW28407   3.318   6.051   1.987 -0.0876 -0.2161 -0.4628
 7159SOL    HW228408   3.395   6.062   1.932 -0.1634 -0.6572 -0.6633
 7159SOL    HW328409   3.295   6.140   2.014 -1.3759  0.2811 -2.9412
 7159SOL    MW428410   3.325   6.064   1.983 -0.8880 -0.3475 -0.3068
 7160SOL     OW28411   0.934   0.361   1.579  0.5074  0.0479  0.4296
 7160SOL    HW228412   0.866   0.374   1.645  0.6381  0.0088  0.5738
 7160SOL    HW328413   0.915   0.275   1.542 -0.8535  0.9812 -1.1166
 7160SOL    MW428414   0.923   0.351   1.583  0.0020 -0.3589 -0.1280
 7161SOL     OW28415   1.482   2.501   4.649  0.0832 -0.1975 -0.4733
 7161SOL    HW228416   1.473   2.596   4.643  0.9884 -0.1140 -0.6992
 7161SOL    HW328417   1.429   2.476   4.725  0.3378  0.5703 -0.0336
 7161SOL    MW428418   1.474   2.510   4.658  0.1696 -0.3612  0.4590
 7162SOL     OW28419   2.682   2.038   6.080 -0.0689 -0.4193 -0.2509
 7162SOL    HW228420   2.772   2.063   6.101  0.3121  0.2215 -2.4726
 7162SOL    HW328421   2.658   1.977   6.150  2.2691 -1.0509  0.0869
 7162SOL    MW428422   2.691   2.033   6.092  0.0946  0.3248 -0.1516
 7163SOL     OW28423   2.440   3.414   1.572  0.3675  0.9035 -0.1012
 7163SOL    HW228424   2.414   3.379   1.657  0.1433  0.5561 -0.3112
 7163SOL    HW328425   2.435   3.339   1.513 -2.6128  1.7584 -1.1279
 7163SOL    MW428426   2.436   3.399   1.575 -0.7044 -0.4096  0.3275
 7164SOL     OW28427   5.954   4.632   1.389 -0.2598 -0.0235 -0.2636
 7164SOL    HW228428   6.022   4.697   1.405  0.2343 -0.6364  0.1816
 7164SOL    HW328429   5.912   4.661   1.308 -0.4276  1.1541  0.2238
 7164SOL    MW428430   5.957   4.644   1.380  0.5008  0.5110 -0.0183
 7165SOL     OW28431   4.459   3.560   4.813  0.0340  0.1528 -0.9266
 7165SOL    HW228432   4.410   3.591   4.890  0.4216 -0.9788 -0.2032
 7165SOL    HW328433   4.420   3.609   4.740 -0.6904  0.8835 -0.0919
 7165SOL    MW428434   4.447   3.571   4.814 -0.3012  0.1923 -0.3263
 7166SOL     OW28435   2.666   0.578   6.234 -0.1298  0.3358  0.1668
 7166SOL    HW228436   2.603   0.638   6.194  0.0236  0.4806  0.1430
 7166SOL    HW328437   2.626   0.553   6.318 -0.3625  0.1826  0.0140
 7166SOL    MW428438   2.652   0.582   6.240  0.2114  0.1092 -0.0910
 7167SOL     OW28439   2.343   1.768   2.976 -0.0124 -0.2559 -0.1826
 7167SOL    HW228440   2.364   1.860   2.965  1.3403 -0.6198 -0.8069
 7167SOL    HW328441   2.348   1.753   3.070 -0.6342  0.3840 -0.0390
 7167SOL    MW428442   2.346   1.778   2.987  0.4831 -0.0844  0.0409
 7168SOL     OW28443   5.050   5.801   3.346 -0.8144  0.3300  0.1619
 7168SOL    HW228444   5.136   5.766   3.368 -1.3935 -0.9359  0.4454
 7168SOL    HW328445   5.069   5.869   3.280  0.3582 -0.1777 -0.0573
 7168SOL    MW428446   5.064   5.806   3.340 -0.3395 -0.1177 -0.2484
 7169SOL     OW28447   0.549   0.071   5.214 -0.1915  0.3830 -0.2989
 7169SOL    HW228448   0.468   0.082   5.164 -1.3830  1.0044  1.6538
 7169SOL    HW328449   0.520   0.048   5.302  1.8253 -0.5968  0.1716
 7169SOL    MW428450   0.534   0.070   5.219  0.0795  0.1627 -0.5066
 7170SOL     OW28451   0.887   2.974   3.375  0.4903  0.2388  0.3257
 7170SOL    HW228452   0.814   2.918   3.348 -2.6749  2.9471  2.4830
 7170SOL    HW328453   0.910   3.023   3.296 -0.1819 -0.4925 -0.3401
 7170SOL    MW428454   0.880   2.973   3.361  0.0818  0.0862  0.8305
 7171SOL     OW28455   5.310   1.084   5.084 -0.1816  0.4932  0.2752
 7171SOL    HW228456   5.250   1.038   5.024  2.3035 -1.0316 -1.2350
 7171SOL    HW328457   5.336   1.017   5.147 -0.3918  1.2717  1.2146
 7171SOL    MW428458   5.306   1.069   5.085  0.5992  0.1062  0.5500
 7172SOL     OW28459   6.022   4.182   3.645 -0.6588 -0.3342 -0.0058
 7172SOL    HW228460   6.049   4.091   3.659 -0.9028 -0.4788 -0.4709
 7172SOL    HW328461   5.932   4.176   3.614 -0.7037  0.0725  0.0454
 7172SOL    MW428462   6.014   4.169   3.643  0.1499  0.2426 -1.1890
 7173SOL     OW28463   1.581   2.054   0.776 -0.2130 -0.4378 -0.4027
 7173SOL    HW228464   1.605   1.965   0.802 -0.3124 -0.2919  0.1882
 7173SOL    HW328465   1.486   2.054   0.776 -0.2123 -0.3172 -0.3620
 7173SOL    MW428466   1.572   2.042   0.779  0.2573 -0.0528  0.1059
 7174SOL     OW28467   3.870   4.429   2.331  0.9842  0.0107  0.1922
 7174SOL    HW228468   3.849   4.412   2.423  1.9080  0.6391  0.5348
 7174SOL    HW328469   3.964   4.447   2.331  0.5214  2.8549 -0.4428
 7174SOL    MW428470   3.879   4.429   2.343  0.9895 -0.3516 -0.1737
 7175SOL     OW28471   2.835   1.330   5.213 -0.1690 -0.5873  0.3830
 7175SOL    HW228472   2.909   1.322   5.273 -0.1097 -1.3352  0.2109
 7175SOL    HW328473   2.762   1.287   5.257 -0.4170 -0.1664  0.3956
 7175SOL    MW428474   2.835   1.323   5.227  0.3678  0.6099  0.8957
 7176SOL     OW28475   2.336   4.249   0.529 -0.4500 -0.2148  0.3925
 7176SOL    HW228476   2.321   4.322   0.589 -1.5033 -0.2142  0.1352
 7176SOL    HW328477   2.296   4.173   0.572 -2.3057  0.0126 -0.8122
 7176SOL    MW428478   2.329   4.248   0.543 -0.4498 -0.1787 -0.3738
 7177SOL     OW28479   4.861   5.293   2.624 -0.1741 -0.1900 -0.0206
 7177SOL    HW228480   4.806   5.295   2.546 -0.5902 -0.3883  0.2634
 7177SOL    HW328481   4.847   5.378   2.665 -1.6006 -0.8353  0.9440
 7177SOL    MW428482   4.852   5.304   2.620 -0.1708  0.0326 -0.1236
 7178SOL     OW28483   3.964   0.628   6.212  0.7324 -0.4752 -0.3790
 7178SOL    HW228484   3.946   0.584   6.295  0.4677  1.4832  0.6623
 7178SOL    HW328485   3.924   0.572   6.146  0.4161 -1.7783  0.8628
 7178SOL    MW428486   3.956   0.615   6.214  0.1568 -0.1223  0.5517
 7179SOL     OW28487   0.876   5.906   4.296 -0.1878 -0.3062 -0.1596
 7179SOL    HW228488   0.835   5.874   4.377  1.0153 -0.5859  0.3583
 7179SOL    HW328489   0.871   5.833   4.236 -1.0388 -0.1158 -0.3421
 7179SOL    MW428490   0.870   5.892   4.299  0.9140  0.1800 -0.1039
 7180SOL     OW28491   2.635   5.053   3.298  0.4743  0.6380  0.4303
 7180SOL    HW228492   2.704   5.008   3.346 -0.4563 -0.1387  1.0849
 7180SOL    HW328493   2.652   5.032   3.206  1.0857  0.4288  0.5872
 7180SOL    MW428494   2.646   5.044   3.292 -0.1957  0.1958  0.5229
 7181SOL     OW28495   0.770   4.403   0.136 -0.2759  0.5836 -0.1844
 7181SOL    HW228496   0.765   4.331   0.073 -1.8933  0.2311  0.2839
 7181SOL    HW328497   0.736   4.479   0.089 -2.6564  0.0546  0.5455
 7181SOL    MW428498   0.765   4.403   0.122  0.1652 -0.0638 -0.2527
 7182SOL     OW28499   6.027   1.378   1.071  0.4749  0.4657  0.2510
 7182SOL    HW228500   5.963   1.445   1.048  1.7131  1.8241  0.6329
 7182SOL    HW328501   6.058   1.402   1.158  1.0603 -0.5065  0.3316
 7182SOL    MW428502   6.023   1.390   1.079  0.6872 -0.6265  0.0847
 7183SOL     OW28503   3.928   0.524   5.589 -0.3185 -0.0297 -0.0471
 7183SOL    HW228504   3.886   0.464   5.650  2.2396 -0.5387  1.3899
 7183SOL    HW328505   3.945   0.603   5.641  1.7106 -0.3915 -0.0729
 7183SOL    MW428506   3.925   0.526   5.604 -0.3245  0.0701  0.2265
 7184SOL     OW28507   2.075   3.738   1.091  0.2275  0.4011 -0.3992
 7184SOL    HW228508   2.078   3.811   1.154  0.1068 -0.4615  0.6301
 7184SOL    HW328509   2.008   3.680   1.125  0.1300 -0.0687 -1.3658
 7184SOL    MW428510   2.067   3.740   1.104  0.0397  0.5742  0.6497
 7185SOL     OW28511   5.290   0.341   5.963 -0.1535  0.4940 -0.2486
 7185SOL    HW228512   5.274   0.409   5.898  0.4576  1.1644  0.2911
 7185SOL    HW328513   5.207   0.333   6.011  0.0526  1.5380  0.3056
 7185SOL    MW428514   5.277   0.349   5.961  0.1290 -0.7547 -0.8459
 7186SOL     OW28515   4.058   0.335   3.044 -0.2308  0.5751  0.3090
 7186SOL    HW228516   3.976   0.336   3.094  0.3059 -0.7824  1.2929
 7186SOL    HW328517   4.081   0.427   3.034 -2.3398  1.0513 -0.8251
 7186SOL    MW428518   4.050   0.347   3.049 -0.4107  0.0344 -0.3408
 7187SOL     OW28519   2.820   2.124   2.401 -0.0464  0.3141  0.1115
 7187SOL    HW228520   2.733   2.086   2.412 -0.1598  0.1637 -1.1627
 7187SOL    HW328521   2.816   2.168   2.317  0.4316  2.2115  1.0254
 7187SOL    MW428522   2.808   2.125   2.392 -0.2940 -0.3109 -0.5818
 7188SOL     OW28523   1.323   1.690   3.780  0.3551  0.3396 -0.0880
 7188SOL    HW228524   1.365   1.763   3.826 -2.2479  2.8873 -1.4314
 7188SOL    HW328525   1.229   1.709   3.785 -0.3361 -1.9459 -2.1503
 7188SOL    MW428526   1.316   1.702   3.787  0.0207  0.2251 -0.0500
 7189SOL     OW28527   4.369   0.464   1.806  0.5267 -0.3972  0.1976
 7189SOL    HW228528   4.389   0.377   1.770 -1.5435 -1.0097  0.4001
 7189SOL    HW328529   4.406   0.462   1.894  2.2430 -0.2950 -0.4745
 7189SOL    MW428530   4.377   0.452   1.813 -0.1337  0.3455 -0.3489
 7190SOL     OW28531   3.636   3.314   4.436 -0.2377  0.2802  0.0266
 7190SOL    HW228532   3.653   3.397   4.391  2.1295 -0.0118  0.2737
 7190SOL    HW328533   3.599   3.341   4.520  1.3132  1.1831  0.4629
 7190SOL    MW428534   3.633   3.329   4.441 -0.1006  0.6022 -0.1007
 7191SOL     OW28535   2.000   3.817   5.037 -0.3570 -0.2865  0.0790
 7191SOL    HW228536   2.035   3.794   4.951 -1.1196 -0.5306 -0.1700
 7191SOL    HW328537   2.077   3.816   5.095 -0.0572 -1.6061 -0.2988
 7191SOL    MW428538   2.015   3.814   5.033  0.2109 -1.0222  0.0861
 7192SOL     OW28539   3.799   3.489   3.229 -0.2892 -0.1980  0.0946
 7192SOL    HW228540   3.749   3.535   3.296 -1.1722  0.6533 -1.1018
 7192SOL    HW328541   3.836   3.413   3.274 -1.3417  0.0293  1.3943
 7192SOL    MW428542   3.798   3.485   3.244 -0.0859  0.1303 -0.8102
 7193SOL     OW28543   3.137   0.008   5.517  0.6457  0.0369  0.2066
 7193SOL    HW228544   3.220   0.027   5.472  0.5483 -0.7652 -0.3447
 7193SOL    HW328545   3.076   0.074   5.484  0.9883  0.4543  0.3959
 7193SOL    MW428546   3.140   0.019   5.507 -0.4963  0.6279  0.2195
 7194SOL     OW28547   5.615   1.545   3.321  0.4550 -0.0515 -0.1983
 7194SOL    HW228548   5.547   1.502   3.269 -0.5462 -0.7393  1.6234
 7194SOL    HW328549   5.645   1.617   3.266 -3.4776  1.8633 -0.0956
 7194SOL    MW428550   5.610   1.549   3.307 -0.5114 -0.4775  0.4418
 7195SOL     OW28551   4.072   1.742   3.093  0.2550 -0.0681  0.1901
 7195SOL    HW228552   4.161   1.761   3.064  0.3543  0.6151  0.8892
 7195SOL    HW328553   4.040   1.677   3.032  1.1887 -0.2176 -0.1571
 7195SOL    MW428554   4.080   1.736   3.081 -0.2126 -0.0266 -0.3573
 7196SOL     OW28555   1.164   5.793   2.787  0.2021 -0.2508 -0.0350
 7196SOL    HW228556   1.218   5.746   2.724  1.3909  0.9035  0.0610
 7196SOL    HW328557   1.099   5.838   2.733 -0.9378 -1.9207 -0.1257
 7196SOL    MW428558   1.162   5.793   2.771  0.3615  0.0107 -0.3925
 7197SOL     OW28559   1.869   3.344   4.096  0.0477  0.3023  0.3344
 7197SOL    HW228560   1.864   3.304   4.182 -2.5168 -1.7256 -0.5957
 7197SOL    HW328561   1.781   3.381   4.082  0.9366  2.1448 -0.7337
 7197SOL    MW428562   1.857   3.344   4.105 -0.2448 -0.8119  0.0242
 7198SOL     OW28563   1.914   5.836   0.542 -0.5479 -0.4881  0.6608
 7198SOL    HW228564   1.840   5.828   0.603 -1.5962 -1.1977 -0.6268
 7198SOL    HW328565   1.891   5.910   0.486  0.1482 -0.1652  0.7942
 7198SOL    MW428566   1.901   5.845   0.542 -0.1008 -0.3245  0.0687
 7199SOL     OW28567   5.691   0.434   5.973  0.4631  0.3452 -0.1651
 7199SOL    HW228568   5.772   0.453   6.021  1.0109  1.2850 -1.4155
 7199SOL    HW328569   5.634   0.507   5.992  0.4953  0.4683 -0.5314
 7199SOL    MW428570   5.695   0.446   5.982  0.5186  0.0947 -0.5205
 7200SOL     OW28571   0.685   0.920   2.303  0.6131  0.0033  0.2294
 7200SOL    HW228572   0.642   0.835   2.311 -1.3149  0.9839  0.8204
 7200SOL    HW328573   0.617   0.984   2.323  2.0014  1.7116 -0.2236
 7200SOL    MW428574   0.670   0.917   2.307 -0.2515 -0.3441 -0.3966
 7201SOL     OW28575   1.738   1.614   4.844 -0.3579 -0.3299  0.1310
 7201SOL    HW228576   1.781   1.558   4.779  3.3019  1.6052  0.6103
 7201SOL    HW328577   1.769   1.581   4.928 -3.0013 -1.1891  0.8741
 7201SOL    MW428578   1.748   1.602   4.847  0.2887  0.4708 -0.4313
 7202SOL     OW28579   2.559   1.737   4.281 -0.0737 -0.1220  0.4363
 7202SOL    HW228580   2.502   1.814   4.277  0.6347  0.3661 -0.5312
 7202SOL    HW328581   2.514   1.671   4.227 -0.3774 -0.1927  0.7708
 7202SOL    MW428582   2.545   1.738   4.273 -0.3278 -0.2404 -0.2665
 7203SOL     OW28583   3.467   4.619   5.217  0.2455 -0.2173  0.0080
 7203SOL    HW228584   3.515   4.613   5.299 -0.7731  0.5995  0.6972
 7203SOL    HW328585   3.514   4.685   5.166  0.9838 -0.8573 -0.1539
 7203SOL    MW428586   3.479   4.627   5.221  0.7415  0.2531 -0.5397
 7204SOL     OW28587   6.201   0.114   2.964  0.6928 -0.5002 -0.0358
 7204SOL    HW228588   6.245   0.199   2.951 -0.2568 -0.2324 -1.9172
 7204SOL    HW328589   6.269   0.050   2.945  0.4375 -0.0883 -2.8316
 7204SOL    MW428590   6.216   0.117   2.959 -0.1162  0.0865  0.1537
 7205SOL     OW28591   3.264   5.350   5.517  0.1747 -0.3125 -0.2339
 7205SOL    HW228592   3.313   5.393   5.447  1.8079 -0.8958  0.5109
 7205SOL    HW328593   3.260   5.258   5.491  0.2202 -0.4188  0.1312
 7205SOL    MW428594   3.270   5.344   5.504  0.1351 -0.4679  0.3299
 7206SOL     OW28595   2.771   1.421   2.282  0.7215 -0.1949  0.5086
 7206SOL    HW228596   2.746   1.511   2.303  0.9744 -0.1384  0.5683
 7206SOL    HW328597   2.796   1.383   2.367  2.4693  0.2566  0.2380
 7206SOL    MW428598   2.771   1.428   2.296  0.4301  0.2587 -0.5931
 7207SOL     OW28599   2.246   1.333   2.764 -0.2710  0.2305 -0.3793
 7207SOL    HW228600   2.339   1.310   2.755 -0.1771  0.4336  0.0353
 7207SOL    HW328601   2.208   1.260   2.811 -0.0279  0.7786  0.6995
 7207SOL    MW428602   2.253   1.321   2.769 -0.4157  0.5113 -0.0125
 7208SOL     OW28603   5.583   3.492   2.351  0.0716  0.7817  0.1263
 7208SOL    HW228604   5.501   3.450   2.325  0.0395  1.1220 -0.3318
 7208SOL    HW328605   5.643   3.473   2.279  0.0139  1.6460 -0.1555
 7208SOL    MW428606   5.580   3.484   2.338 -0.0646  0.1122  0.7379
 7209SOL     OW28607   4.752   5.060   1.922  0.3147  0.0565  0.2894
 7209SOL    HW228608   4.709   4.998   1.863 -0.3598  1.5861 -0.8994
 7209SOL    HW328609   4.740   5.022   2.009 -3.8456  0.5021  0.1177
 7209SOL    MW428610   4.744   5.046   1.926  0.1072  0.2745 -0.1769
 7210SOL     OW28611   5.185   6.176   3.512  0.3881 -0.2963  0.0015
 7210SOL    HW228612   5.260   6.139   3.465 -0.5684 -0.7881 -1.2101
 7210SOL    HW328613   5.135   6.099   3.540  0.2436  0.0315  0.6571
 7210SOL    MW428614   5.188   6.161   3.510 -0.1592 -0.4834  0.9364
 7211SOL     OW28615   2.120   1.185   5.921  0.5663  0.2089 -0.3146
 7211SOL    HW228616   2.087   1.141   6.000  0.6586 -0.7755 -0.8062
 7211SOL    HW328617   2.132   1.276   5.948 -2.1423  0.5731  0.0400
 7211SOL    MW428618   2.117   1.191   5.935  0.5038 -0.1164 -0.2930
 7212SOL     OW28619   2.607   3.901   1.358  0.2274  0.4946 -0.3672
 7212SOL    HW228620   2.657   3.918   1.278  1.1984  1.6816  0.4561
 7212SOL    HW328621   2.626   3.810   1.379  0.7664  0.4719 -0.9377
 7212SOL    MW428622   2.616   3.891   1.350 -0.9742 -0.2970  0.7233
 7213SOL     OW28623   2.624   1.964   2.502 -0.5403 -0.0392  0.3767
 7213SOL    HW228624   2.616   1.906   2.578 -1.6508 -1.1224 -0.5339
 7213SOL    HW328625   2.561   2.034   2.518  0.6979  0.8838  1.4092
 7213SOL    MW428626   2.615   1.965   2.514 -0.5150 -0.3582  0.3481
 7214SOL     OW28627   6.111   5.767   0.467  0.1060  0.0212 -0.2169
 7214SOL    HW228628   6.179   5.825   0.500  1.5280 -1.9656  0.5512
 7214SOL    HW328629   6.056   5.749   0.543  0.8660 -1.2019  0.0575
 7214SOL    MW428630   6.113   5.772   0.481  0.0500 -0.0406 -0.4746
 7215SOL     OW28631   4.920   2.619   2.538 -0.4488  0.3570 -0.0501
 7215SOL    HW228632   4.927   2.656   2.626  1.0802  3.1004 -1.1855
 7215SOL    HW328633   4.945   2.527   2.548 -1.4220  0.2992  2.5178
 7215SOL    MW428634   4.924   2.612   2.550  0.6285  0.2557 -0.6809
 7216SOL     OW28635   1.884   4.881   2.403  0.0194  0.0023 -0.2222
 7216SOL    HW228636   1.807   4.899   2.348 -1.0586  1.1335  1.5556
 7216SOL    HW328637   1.931   4.965   2.406  0.1079 -0.0680  0.4977
 7216SOL    MW428638   1.880   4.895   2.396 -0.0925  0.1993 -0.1178
 7217SOL     OW28639   5.911   5.044   6.368  0.0254  0.1076  0.0123
 7217SOL    HW228640   5.931   5.124   6.416 -1.3243  1.3000 -1.3285
 7217SOL    HW328641   5.994   5.021   6.325 -0.1136  2.1694 -1.5049
 7217SOL    MW428642   5.925   5.051   6.369 -0.2953 -0.6286 -0.0676
 7218SOL     OW28643   2.393   4.741   2.766 -0.6776  0.2598  0.1789
 7218SOL    HW228644   2.466   4.734   2.827 -0.9603  0.5012  0.5502
 7218SOL    HW328645   2.359   4.829   2.779 -0.7760  0.2969 -0.2940
 7218SOL    MW428646   2.398   4.752   2.776 -0.1694  0.4888 -0.5330
 7219SOL     OW28647   2.681   2.901   2.135 -0.4982  0.0590  0.5942
 7219SOL    HW228648   2.761   2.854   2.159 -1.0576 -1.0193  0.3875
 7219SOL    HW328649   2.621   2.883   2.207 -1.1311 -0.5776 -0.0792
 7219SOL    MW428650   2.684   2.893   2.148  0.0607  0.0860 -0.0339
 7220SOL     OW28651   2.750   0.461   1.336  0.1917  0.5517  0.6310
 7220SOL    HW228652   2.782   0.424   1.418  0.6012  3.4595  1.8859
 7220SOL    HW328653   2.815   0.527   1.311 -0.3041  0.2717 -1.6782
 7220SOL    MW428654   2.763   0.465   1.343 -0.4440 -0.0434  0.0627
 7221SOL     OW28655   0.664   0.358   6.264  0.5312  0.4404  0.5401
 7221SOL    HW228656   0.634   0.408   6.340  0.1202  0.5187  0.3286
 7221SOL    HW328657   0.591   0.362   6.202  1.3301  1.4174 -0.3678
 7221SOL    MW428658   0.650   0.365   6.266 -0.0909 -0.0446 -0.3640
 7222SOL     OW28659   0.165   5.541   3.892  0.5324  0.1116  0.0110
 7222SOL    HW228660   0.086   5.493   3.868  0.6797  0.6327 -1.6717
 7222SOL    HW328661   0.225   5.474   3.925  0.1515 -0.6172 -0.7484
 7222SOL    MW428662   0.162   5.526   3.893  0.0900  0.4256  0.3805
 7223SOL     OW28663   4.059   2.594   3.920 -0.6514  0.4021 -0.5719
 7223SOL    HW228664   4.043   2.573   4.012 -1.6340  1.5046 -0.4805
 7223SOL    HW328665   4.028   2.684   3.909 -0.6844  0.2434 -2.0107
 7223SOL    MW428666   4.053   2.603   3.931 -0.0551 -0.1643 -0.1213
 7224SOL     OW28667   2.503   0.322   2.412 -0.2469  0.2244  0.0961
 7224SOL    HW228668   2.456   0.314   2.495 -0.1652  2.3724  0.4076
 7224SOL    HW328669   2.443   0.288   2.346 -1.0836  0.2977  0.8109
 7224SOL    MW428670   2.489   0.316   2.414  0.0331  0.2517  0.1514
 7225SOL     OW28671   4.937   2.223   5.119 -0.5310 -0.5282 -0.4243
 7225SOL    HW228672   4.853   2.268   5.117 -0.4148 -0.3440 -1.8565
 7225SOL    HW328673   4.989   2.265   5.051  0.6845 -0.7239  0.3505
 7225SOL    MW428674   4.933   2.234   5.110 -0.2776 -0.0057  0.3864
 7226SOL     OW28675   5.211   0.048   3.136 -0.5505  0.0661 -0.0779
 7226SOL    HW228676   5.247   0.000   3.061 -3.0056 -1.9229 -0.0968
 7226SOL    HW328677   5.138   0.098   3.101  0.2016  1.6387  0.4907
 7226SOL    MW428678   5.206   0.048   3.122  0.2907 -0.8804  0.1897
 7227SOL     OW28679   5.655   4.810   2.180  0.2935 -0.9699 -0.1344
 7227SOL    HW228680   5.703   4.728   2.166 -1.3375 -1.6645 -2.2293
 7227SOL    HW328681   5.641   4.844   2.092 -1.7739 -0.0501  0.5046
 7227SOL    MW428682   5.660   4.803   2.166 -0.5562 -0.5319  0.3071
 7228SOL     OW28683   2.686   1.700   1.188 -0.4383 -0.0054  0.4855
 7228SOL    HW228684   2.776   1.668   1.176 -0.9885 -1.0184 -1.3032
 7228SOL    HW328685   2.682   1.725   1.280  1.7967  0.4521  0.5200
 7228SOL    MW428686   2.697   1.699   1.199 -0.1782  0.4109  0.3050
 7229SOL     OW28687   0.038   5.098   1.384 -0.0338 -0.2073  0.0572
 7229SOL    HW228688   0.112   5.077   1.327 -0.5262  1.4864 -1.3400
 7229SOL    HW328689  -0.031   5.125   1.323 -1.2516 -0.1877  1.3978
 7229SOL    MW428690   0.038   5.099   1.368  0.3409 -0.0877 -0.2754
 7230SOL     OW28691   4.123   5.875   5.395  0.2078  0.2792  0.1028
 7230SOL    HW228692   4.186   5.906   5.330  0.8530 -0.5387  0.3200
 7230SOL    HW328693   4.126   5.780   5.388  0.3549  0.1719  1.3792
 7230SOL    MW428694   4.132   5.867   5.385  0.0565 -0.6423 -0.3965
 7231SOL     OW28695   3.902   3.884   1.485  0.4406 -0.1990  0.6009
 7231SOL    HW228696   3.902   3.890   1.580  0.6830 -1.3122  0.6863
 7231SOL    HW328697   3.836   3.947   1.456  0.2059 -0.0212  1.5137
 7231SOL    MW428698   3.893   3.893   1.494  0.1030  0.0637 -0.0098
 7232SOL     OW28699   2.476   6.264   1.276  0.4201 -0.0523 -0.2877
 7232SOL    HW228700   2.545   6.198   1.278 -0.5373 -1.0793 -0.4768
 7232SOL    HW328701   2.515   6.339   1.230  1.3943 -0.6178 -0.3920
 7232SOL    MW428702   2.490   6.265   1.270  0.8771 -0.1613  0.2509
 7233SOL     OW28703   3.393   2.739   1.262  0.0736 -0.4712 -0.0479
 7233SOL    HW228704   3.385   2.808   1.327 -0.4722  0.8944 -1.4907
 7233SOL    HW328705   3.319   2.680   1.278 -0.6365  0.4081 -0.0586
 7233SOL    MW428706   3.382   2.740   1.272  0.2702  0.2892  0.1652
 7234SOL     OW28707   5.803   4.753   2.612 -0.6306  0.0537 -0.2389
 7234SOL    HW228708   5.798   4.688   2.543 -0.3700  0.7160 -0.8910
 7234SOL    HW328709   5.897   4.766   2.627 -0.5935  1.7601 -1.5676
 7234SOL    MW428710   5.815   4.746   2.605 -0.3597 -0.5031 -0.1033
 7235SOL     OW28711   6.067   3.282   1.995 -0.5727  0.1808 -0.0094
 7235SOL    HW228712   6.002   3.227   2.040 -1.1991  1.4510  0.7110
 7235SOL    HW328713   6.027   3.304   1.911 -0.3924 -0.3117 -0.2276
 7235SOL    MW428714   6.053   3.277   1.990 -0.3357 -0.0562 -0.3642
 7236SOL     OW28715   2.089   6.125   1.818  0.1297  0.1035  0.2162
 7236SOL    HW228716   2.168   6.124   1.873  0.8989  2.1088 -0.7303
 7236SOL    HW328717   2.122   6.111   1.730 -0.7394 -0.2623 -0.0578
 7236SOL    MW428718   2.104   6.123   1.814  1.0743 -0.8643  0.0273
 7237SOL     OW28719   5.488   3.200   1.823  0.1833 -0.2268 -0.1016
 7237SOL    HW228720   5.521   3.288   1.842 -0.4299  0.0295 -0.2130
 7237SOL    HW328721   5.510   3.184   1.731 -1.9183  0.8244 -0.8395
 7237SOL    MW428722   5.495   3.209   1.814  0.3396 -0.2306  0.4550
 7238SOL     OW28723   2.433   5.194   5.059 -0.3106 -0.6205 -0.3208
 7238SOL    HW228724   2.349   5.224   5.025 -0.4596 -1.3562 -0.6098
 7238SOL    HW328725   2.414   5.110   5.100  0.4083 -1.1363 -1.0101
 7238SOL    MW428726   2.420   5.187   5.060  0.6282  0.2829 -0.0501
 7239SOL     OW28727   3.129   3.608   1.752  0.1119  0.2418  0.3596
 7239SOL    HW228728   3.116   3.697   1.720 -3.5105  0.0414  0.7805
 7239SOL    HW328729   3.119   3.553   1.674  1.3697  0.1419  0.2578
 7239SOL    MW428730   3.126   3.613   1.738  0.4970  0.0504 -0.2015
 7240SOL     OW28731   2.030   4.461   2.187  0.5432 -0.3718  0.4165
 7240SOL    HW228732   2.121   4.431   2.182  0.6381 -0.2367  1.1537
 7240SOL    HW328733   2.030   4.524   2.260 -0.1089 -0.2635  0.3248
 7240SOL    MW428734   2.042   4.465   2.196 -0.0407 -0.0977 -0.2346
 7241SOL     OW28735   3.444   6.182   5.903 -0.0180 -0.0119 -0.3852
 7241SOL    HW228736   3.406   6.096   5.919  0.4379  0.0708  1.3492
 7241SOL    HW328737   3.397   6.240   5.963  0.3662  0.7666 -0.8158
 7241SOL    MW428738   3.433   6.178   5.913  0.4932  0.0166 -0.3414
 7242SOL     OW28739   1.748   2.472   4.636 -0.3594 -0.0301 -0.2148
 7242SOL    HW228740   1.659   2.474   4.671  0.5718 -2.7146  2.8386
 7242SOL    HW328741   1.738   2.488   4.543 -3.4843  4.6580  0.5494
 7242SOL    MW428742   1.735   2.474   4.629 -0.3231 -0.2055  0.4536
 7243SOL     OW28743   4.934   3.284   3.037 -0.2057  0.2172 -0.3729
 7243SOL    HW228744   4.888   3.254   3.116  1.1058  0.1356  0.3829
 7243SOL    HW328745   4.934   3.208   2.979 -1.5809  0.4127 -0.6728
 7243SOL    MW428746   4.928   3.270   3.040  0.3030  0.5642 -0.4906
 7244SOL     OW28747   1.246   2.947   6.373 -0.0352  0.3207 -0.3006
 7244SOL    HW228748   1.152   2.950   6.392 -0.2218 -1.4572 -0.7898
 7244SOL    HW328749   1.284   2.894   6.443  0.3891 -0.1415 -0.8694
 7244SOL    MW428750   1.239   2.941   6.385  0.0180  0.4469 -0.0671
 7245SOL     OW28751   1.354   1.878   4.941  0.1047  0.2498  0.7093
 7245SOL    HW228752   1.442   1.901   4.909  1.2115 -2.1827  1.6950
 7245SOL    HW328753   1.334   1.944   5.006  1.9756 -0.0066  1.6200
 7245SOL    MW428754   1.363   1.889   4.945  0.3187 -0.1399  0.0995
 7246SOL     OW28755   5.392   0.440   4.778  0.6631  0.1691 -0.0982
 7246SOL    HW228756   5.318   0.480   4.825  2.1725  0.8145  1.8598
 7246SOL    HW328757   5.401   0.492   4.699 -1.2762 -0.2547 -0.6604
 7246SOL    MW428758   5.383   0.452   4.774  0.2655  0.8168 -0.0257
 7247SOL     OW28759   0.634   1.664   1.426 -0.5514  0.1302  0.2194
 7247SOL    HW228760   0.679   1.659   1.510 -1.8560 -1.8025  0.8714
 7247SOL    HW328761   0.640   1.576   1.390 -0.1431  0.8842 -1.6909
 7247SOL    MW428762   0.641   1.652   1.432 -0.1319  0.0677  0.5497
 7248SOL     OW28763   1.838   5.265   0.783  0.8732 -0.1736 -0.1879
 7248SOL    HW228764   1.886   5.183   0.777 -0.1549 -0.7645 -0.6650
 7248SOL    HW328765   1.869   5.317   0.709  1.8950  0.0853  0.4077
 7248SOL    MW428766   1.848   5.261   0.773 -0.0066  0.1322 -0.2707
 7249SOL     OW28767   2.806   5.011   0.357 -0.0830 -0.3518  0.4982
 7249SOL    HW228768   2.769   5.051   0.278 -0.1936 -0.1872  0.6329
 7249SOL    HW328769   2.786   4.918   0.349  2.9302 -0.9656 -1.3951
 7249SOL    MW428770   2.799   5.004   0.346  0.1801  0.1493 -0.0991
 7250SOL     OW28771   1.723   3.991   1.196  0.2314  0.0265  1.0916
 7250SOL    HW228772   1.769   4.074   1.212 -0.3120  0.3779  0.8851
 7250SOL    HW328773   1.671   3.978   1.275 -1.6246  1.2037  0.1408
 7250SOL    MW428774   1.722   4.000   1.209 -0.0348  0.4734  0.7807
 7251SOL     OW28775   0.147   5.868   6.158 -0.2890 -0.1983 -0.5165
 7251SOL    HW228776   0.104   5.814   6.225  0.3892  0.6431  0.6450
 7251SOL    HW328777   0.129   5.958   6.185 -1.2445  0.1918 -2.3242
 7251SOL    MW428778   0.139   5.873   6.171 -0.0413  0.3896  0.0242
 7252SOL     OW28779   1.760   2.459   0.254  0.3415 -0.6080  0.0279
 7252SOL    HW228780   1.682   2.513   0.269  1.0627  0.7059 -0.8180
 7252SOL    HW328781   1.761   2.397   0.327  0.8158  2.0584  2.4207
 7252SOL    MW428782   1.749   2.458   0.266 -0.3978 -0.3779 -0.6202
 7253SOL     OW28783   0.242   1.997   1.390  0.2433 -0.2470  0.5691
 7253SOL    HW228784   0.261   1.908   1.417  0.2969 -0.0776  1.0999
 7253SOL    HW328785   0.262   1.999   1.296 -0.9405 -1.1203  0.2681
 7253SOL    MW428786   0.247   1.986   1.381 -0.3924  0.0820 -0.3319
 7254SOL     OW28787   5.699   6.301   3.383 -0.4529  0.2139  0.0832
 7254SOL    HW228788   5.697   6.374   3.445 -1.7312  1.0726 -0.9199
 7254SOL    HW328789   5.615   6.306   3.337  0.0242 -1.0386 -0.9809
 7254SOL    MW428790   5.688   6.311   3.385  0.2953  0.6244  0.0257
 7255SOL     OW28791   5.604   4.543   5.555  0.2925 -0.2703  0.4073
 7255SOL    HW228792   5.585   4.567   5.645 -0.0714  1.6396 -0.1312
 7255SOL    HW328793   5.699   4.534   5.551  0.5412  1.7473  0.5599
 7255SOL    MW428794   5.614   4.545   5.566  0.7923 -0.6078  0.1290
 7256SOL     OW28795   5.891   1.011   2.140  0.0790  0.1848 -0.5548
 7256SOL    HW228796   5.821   0.998   2.077 -1.4570  0.8722  0.9266
 7256SOL    HW328797   5.884   0.935   2.199 -0.6080  1.1482  0.6379
 7256SOL    MW428798   5.881   0.999   2.140 -0.4420  0.0768 -0.7047
 7257SOL     OW28799   5.039   2.530   0.757 -0.3839  0.2292 -0.0872
 7257SOL    HW228800   5.095   2.545   0.833  0.2367  1.0686 -0.6793
 7257SOL    HW328801   5.033   2.616   0.715 -0.7370 -0.2122 -0.9642
 7257SOL    MW428802   5.046   2.544   0.761  0.1862  0.2299 -0.0334
 7258SOL     OW28803   5.823   2.521   2.218  0.2014  0.6797 -0.1973
 7258SOL    HW228804   5.903   2.469   2.211 -1.5570 -2.2737 -0.2919
 7258SOL    HW328805   5.850   2.610   2.196  3.4633 -0.1163  0.0245
 7258SOL    MW428806   5.837   2.526   2.214  0.1409  0.0453  0.1152
 7259SOL     OW28807   2.423   6.057   3.525 -0.1605  1.1374 -0.4645
 7259SOL    HW228808   2.465   6.050   3.611 -1.4064  1.4377  0.1974
 7259SOL    HW328809   2.432   5.970   3.486 -0.2177  0.7901  0.2799
 7259SOL    MW428810   2.430   6.045   3.532 -0.7482 -0.5168 -0.3884
 7260SOL     OW28811   1.006   3.086   3.795  0.5272  0.1419  0.2692
 7260SOL    HW228812   0.988   3.134   3.875  2.1339  0.3043  0.5613
 7260SOL    HW328813   0.952   3.007   3.802 -1.6971  1.5745  0.0409
 7260SOL    MW428814   0.997   3.082   3.807 -0.1628  0.2860 -0.1245
 7261SOL     OW28815   1.556   5.671   2.866  0.0323  0.1096 -0.3210
 7261SOL    HW228816   1.645   5.645   2.887  0.6384  1.1088 -1.5024
 7261SOL    HW328817   1.558   5.694   2.773 -1.6419 -0.5842 -0.5724
 7261SOL    MW428818   1.568   5.671   2.856 -0.0085  0.0966 -0.4007
 7262SOL     OW28819   5.880   1.046   0.748 -0.9253  0.0530  0.1250
 7262SOL    HW228820   5.832   1.025   0.668 -0.4574  0.5022 -0.2821
 7262SOL    HW328821   5.940   1.116   0.723  1.8794 -2.2255 -0.0910
 7262SOL    MW428822   5.882   1.052   0.734 -0.4927 -0.1470 -0.3176
 7263SOL     OW28823   0.863   0.277   0.972  0.2282  0.1830 -0.1662
 7263SOL    HW228824   0.789   0.218   0.984 -0.1319  0.9783  1.8708
 7263SOL    HW328825   0.853   0.310   0.883 -0.9833 -0.8773 -0.4529
 7263SOL    MW428826   0.852   0.273   0.962  0.4782  0.5271  0.1638
 7264SOL     OW28827   0.332   6.363   4.284 -0.0017 -0.6315  0.2965
 7264SOL    HW228828   0.246   6.403   4.273  0.9825  1.3534 -0.8655
 7264SOL    HW328829   0.317   6.269   4.274 -1.8127 -0.2279 -1.4665
 7264SOL    MW428830   0.319   6.356   4.281 -0.3475 -0.2819 -0.4833
 7265SOL     OW28831   1.096   3.018   5.811 -0.0805 -0.3534  0.3738
 7265SOL    HW228832   1.173   2.983   5.856 -0.9459 -2.0343  0.6254
 7265SOL    HW328833   1.118   3.013   5.718  0.2844 -0.3948  0.4616
 7265SOL    MW428834   1.109   3.013   5.804  0.0221  0.2799  0.1929
 7266SOL     OW28835   1.131   1.296   4.210  0.2862  0.0481  0.0771
 7266SOL    HW228836   1.135   1.388   4.238 -0.7717  0.6362 -1.5412
 7266SOL    HW328837   1.217   1.279   4.173  0.9150 -0.0338  1.5030
 7266SOL    MW428838   1.143   1.306   4.209  0.4711 -0.3836  0.2221
 7267SOL     OW28839   4.372   0.786   1.719 -0.2653 -0.0634 -0.2610
 7267SOL    HW228840   4.321   0.716   1.678  0.1136 -0.9131  0.6698
 7267SOL    HW328841   4.419   0.828   1.647 -1.0118 -0.3298 -0.9119
 7267SOL    MW428842   4.371   0.782   1.704  0.0899  0.1254  0.0078
 7268SOL     OW28843   2.235   3.459   4.201  0.2092 -0.8685 -0.1874
 7268SOL    HW228844   2.305   3.421   4.148  1.0756 -0.2444  0.4878
 7268SOL    HW328845   2.162   3.397   4.192  1.5016 -2.6137  0.7313
 7268SOL    MW428846   2.234   3.446   4.193 -0.3319  0.0492  0.0970
 7269SOL     OW28847   0.209   2.973   5.043  0.5119  0.1581  0.0918
 7269SOL    HW228848   0.269   2.934   5.106 -0.4942 -0.8131  0.4819
 7269SOL    HW328849   0.180   3.054   5.084 -0.8299 -0.8964  1.3430
 7269SOL    MW428850   0.213   2.979   5.056  0.1132  0.2621 -0.1355
 7270SOL     OW28851   0.596   5.496   0.266 -0.4412  0.6704  0.1211
 7270SOL    HW228852   0.505   5.507   0.293 -0.7584 -1.6524  0.2002
 7270SOL    HW328853   0.643   5.475   0.346 -0.4748 -1.3539 -0.3459
 7270SOL    MW428854   0.590   5.495   0.280  0.0058  0.4301  0.1658
 7271SOL     OW28855   3.333   1.199   5.175  0.3448 -0.0753  0.2121
 7271SOL    HW228856   3.369   1.139   5.241  1.8719 -0.4347 -0.8986
 7271SOL    HW328857   3.398   1.269   5.170 -1.1462  1.4325  1.0852
 7271SOL    MW428858   3.347   1.200   5.183  0.2861 -0.0568 -0.5401
 7272SOL     OW28859   0.242   5.762   0.866  0.1709  0.2204 -0.2026
 7272SOL    HW228860   0.225   5.840   0.918 -0.8038  0.5043 -0.9374
 7272SOL    HW328861   0.202   5.690   0.916  2.8299 -0.2169  1.5496
 7272SOL    MW428862   0.235   5.763   0.879  0.1174  0.4216  0.2059
 7273SOL     OW28863   2.662   6.013   3.392 -0.2584  0.0621 -0.3322
 7273SOL    HW228864   2.570   6.033   3.412 -1.1465 -2.3531 -1.5579
 7273SOL    HW328865   2.660   5.982   3.301  2.0977  1.5909 -1.0139
 7273SOL    MW428866   2.649   6.012   3.382 -0.4887  0.3528 -0.4389
 7274SOL     OW28867   5.347   4.258   4.572  0.2476 -0.1506  0.1343
 7274SOL    HW228868   5.406   4.324   4.608  0.7584 -1.6130  2.1393
 7274SOL    HW328869   5.370   4.254   4.479  0.9356  1.6872  0.1703
 7274SOL    MW428870   5.358   4.266   4.565 -0.9977 -0.1885  0.2967
 7275SOL     OW28871   4.507   1.854   1.441 -0.1598 -0.3868 -0.4088
 7275SOL    HW228872   4.444   1.784   1.418  1.0764 -1.4329 -0.7305
 7275SOL    HW328873   4.587   1.829   1.396  0.5626  0.8134  0.1810
 7275SOL    MW428874   4.509   1.841   1.432 -0.1890 -0.4635  0.1072
 7276SOL     OW28875   6.278   5.530   0.731  0.5248 -0.4346 -0.1061
 7276SOL    HW228876   6.312   5.466   0.669  1.0062 -2.1756  1.8397
 7276SOL    HW328877   6.188   5.546   0.702  0.4589 -1.8589 -0.7935
 7276SOL    MW428878   6.271   5.523   0.719  0.2507  0.1820  0.1587
 7277SOL     OW28879   0.608   6.304   5.756 -0.0577 -0.2375 -0.4115
 7277SOL    HW228880   0.685   6.335   5.709  0.0774  3.1712  1.6647
 7277SOL    HW328881   0.535   6.352   5.716 -0.3633  0.2386  0.6653
 7277SOL    MW428882   0.608   6.315   5.745  0.3239  0.3162  0.0149
 7278SOL     OW28883   1.318   1.778   1.681 -0.0162  0.5064  0.1776
 7278SOL    HW228884   1.308   1.696   1.730 -0.9880  1.4370  1.6132
 7278SOL    HW328885   1.230   1.796   1.647  0.2763  0.7598 -0.4454
 7278SOL    MW428886   1.305   1.769   1.683  0.7587 -0.3335  0.2998
 7279SOL     OW28887   2.741   0.215   0.566 -0.0512  0.5274 -0.2615
 7279SOL    HW228888   2.806   0.157   0.605  0.4179 -0.0217 -1.7794
 7279SOL    HW328889   2.774   0.303   0.582  0.3534  0.2944  0.1810
 7279SOL    MW428890   2.754   0.219   0.573  0.3464  0.3075 -0.4454
 7280SOL     OW28891   6.131   0.775   1.904 -0.2133  0.1532 -0.4367
 7280SOL    HW228892   6.071   0.841   1.869  1.1377  1.8753  0.3547
 7280SOL    HW328893   6.217   0.817   1.902  0.4884 -1.0542  1.3891
 7280SOL    MW428894   6.134   0.789   1.899 -0.6955 -0.7351 -0.4526
 7281SOL     OW28895   4.002   2.716   2.841 -0.0360  0.1819  0.5573
 7281SOL    HW228896   3.962   2.782   2.898  2.3950  0.7761  1.6739
 7281SOL    HW328897   4.057   2.766   2.781  0.4166 -0.7102  0.2116
 7281SOL    MW428898   4.004   2.731   2.841  0.6016 -0.1864  0.2903
 7282SOL     OW28899   1.616   2.105   3.611 -0.2838  0.0777 -0.0997
 7282SOL    HW228900   1.642   2.014   3.623 -0.0545  0.0945 -0.4600
 7282SOL    HW328901   1.555   2.103   3.537  0.0221  0.2679 -0.3596
 7282SOL    MW428902   1.611   2.093   3.603 -0.0877  0.2529  0.4370
 7283SOL     OW28903   3.767   2.711   0.965  0.4483 -0.4263  0.0055
 7283SOL    HW228904   3.789   2.682   1.053  0.9007 -0.6826 -0.1869
 7283SOL    HW328905   3.839   2.679   0.911 -0.3822 -1.2572 -0.6380
 7283SOL    MW428906   3.779   2.703   0.969  0.1896 -0.2942  0.1977
 7284SOL     OW28907   5.799   5.164   0.324  0.5044  0.1201  0.6898
 7284SOL    HW228908   5.812   5.132   0.414 -0.5755  3.2696  2.0970
 7284SOL    HW328909   5.888   5.178   0.290  0.9178 -0.5203  1.4780
 7284SOL    MW428910   5.812   5.161   0.331 -0.8318  0.5450  0.3456
 7285SOL     OW28911   6.334   3.154   2.796  0.2426 -0.3301  0.4115
 7285SOL    HW228912   6.332   3.079   2.736  1.4455 -0.3721  0.4023
 7285SOL    HW328913   6.302   3.120   2.879  0.8637 -0.8761  0.4282
 7285SOL    MW428914   6.329   3.140   2.799 -0.2898 -0.1576 -0.6444
 7286SOL     OW28915   3.770   1.247   2.260 -0.3475 -0.7485 -0.1173
 7286SOL    HW228916   3.819   1.319   2.301 -0.4598  0.5555 -2.1169
 7286SOL    HW328917   3.828   1.214   2.192 -0.5896 -2.1219  0.3100
 7286SOL    MW428918   3.784   1.252   2.257 -0.3759  0.1618 -0.4804
 7287SOL     OW28919   5.902   1.695   5.352 -0.1311 -0.0565  0.0635
 7287SOL    HW228920   5.839   1.732   5.414 -1.7667  0.2031 -1.6588
 7287SOL    HW328921   5.978   1.752   5.358  0.1509 -0.5574  2.4342
 7287SOL    MW428922   5.904   1.707   5.361 -0.1074 -0.3564  0.1755
 7288SOL     OW28923   3.599   3.628   3.401  0.0959 -0.6570 -0.0311
 7288SOL    HW228924   3.665   3.672   3.455  1.7707 -2.1100 -0.8032
 7288SOL    HW328925   3.589   3.685   3.325 -0.8837  0.4470  0.8821
 7288SOL    MW428926   3.607   3.641   3.398  0.2780 -0.5704  0.1642
 7289SOL     OW28927   4.255   3.825   5.243  0.6490 -0.0310  0.4968
 7289SOL    HW228928   4.319   3.766   5.205 -0.3522  0.4810 -2.1995
 7289SOL    HW328929   4.170   3.788   5.219 -0.0082  1.8877 -0.3940
 7289SOL    MW428930   4.252   3.813   5.235  0.6504  0.2074 -0.1574
 7290SOL     OW28931   0.443   6.110   1.163 -0.0649 -0.3451 -0.0684
 7290SOL    HW228932   0.485   6.023   1.167  1.2295  0.2660  0.2861
 7290SOL    HW328933   0.516   6.171   1.157 -0.8661  0.8277  1.4168
 7290SOL    MW428934   0.459   6.106   1.163 -0.8541  0.6564  0.2196
 7291SOL     OW28935   4.344   2.657   5.838  0.3352  0.5558 -1.0969
 7291SOL    HW228936   4.375   2.613   5.760  0.4608 -0.6475 -0.3900
 7291SOL    HW328937   4.301   2.588   5.890 -2.5828  1.8836 -1.5101
 7291SOL    MW428938   4.342   2.642   5.835  0.2362  0.1047  0.2548
 7292SOL     OW28939   1.982   0.956   3.357  0.4629  0.6489  0.2298
 7292SOL    HW228940   1.942   0.872   3.381  1.0065  0.6525  1.2030
 7292SOL    HW328941   2.008   0.945   3.266  1.0291 -0.4510  0.5016
 7292SOL    MW428942   1.980   0.943   3.348 -0.4037  0.4291  0.7555
 7293SOL     OW28943   1.866   5.338   5.876 -0.3976  0.1307 -0.6013
 7293SOL    HW228944   1.802   5.405   5.902 -0.0627  0.2609 -0.1095
 7293SOL    HW328945   1.827   5.256   5.906 -0.4843  0.1772 -0.5836
 7293SOL    MW428946   1.852   5.336   5.883 -0.2777  0.4082 -0.2104
 7294SOL     OW28947   0.397   3.189   1.665 -0.4981  0.1085 -0.2577
 7294SOL    HW228948   0.336   3.197   1.592 -0.4714  0.4325 -0.2453
 7294SOL    HW328949   0.481   3.221   1.629 -0.3642 -0.2222 -0.2405
 7294SOL    MW428950   0.400   3.194   1.650  0.5963 -0.4788  0.3667
 7295SOL     OW28951   0.315   5.982   0.678 -0.0424 -0.5281 -0.4984
 7295SOL    HW228952   0.368   5.970   0.757  1.8390 -0.8382 -1.7570
 7295SOL    HW328953   0.251   5.910   0.681 -0.3737 -0.2141  0.9842
 7295SOL    MW428954   0.313   5.971   0.689 -0.0110  0.3312 -0.3235
 7296SOL     OW28955   4.961   0.414   1.943  0.7393 -0.1869 -0.4147
 7296SOL    HW228956   4.942   0.486   2.003 -0.1333 -1.2504  0.6331
 7296SOL    HW328957   5.056   0.408   1.942  0.7806 -0.7622  1.6901
 7296SOL    MW428958   4.971   0.423   1.951  0.2458 -0.3428  0.0170
 7297SOL     OW28959   1.633   6.082   0.311  0.3465  0.6314 -0.7078
 7297SOL    HW228960   1.624   6.178   0.313  0.3226  0.6231  1.0489
 7297SOL    HW328961   1.589   6.053   0.391  0.5836 -0.8348 -1.0972
 7297SOL    MW428962   1.626   6.091   0.322  0.2216  0.2811 -0.5339
 7298SOL     OW28963   2.648   5.166   0.171  0.0942 -0.6784 -0.1418
 7298SOL    HW228964   2.571   5.157   0.228 -1.2320  0.9554 -1.5559
 7298SOL    HW328965   2.612   5.192   0.086  2.1360 -1.3370 -1.2676
 7298SOL    MW428966   2.633   5.168   0.168 -0.4063 -0.5125  0.7639
 7299SOL     OW28967   0.121   4.999   6.074  0.3836 -0.5362 -0.5515
 7299SOL    HW228968   0.169   4.966   6.151 -0.1857  0.4956  0.2746
 7299SOL    HW328969   0.072   4.923   6.042  0.2617 -0.8667  0.3899
 7299SOL    MW428970   0.121   4.984   6.080  0.2158 -0.3467  0.7873
 7300SOL     OW28971   3.981   4.588   3.427  0.1122  0.0644  0.2188
 7300SOL    HW228972   3.897   4.555   3.459 -0.9912  0.5848 -1.9479
 7300SOL    HW328973   4.032   4.509   3.407  0.6181 -0.2702  2.4861
 7300SOL    MW428974   3.977   4.573   3.429 -0.1923  0.0466 -0.5480
 7301SOL     OW28975   3.986   5.141   6.155 -0.4009 -0.1981 -0.0261
 7301SOL    HW228976   4.021   5.161   6.068  1.6977 -0.0909  0.7681
 7301SOL    HW328977   3.948   5.054   6.147 -0.1595 -0.2180 -1.0348
 7301SOL    MW428978   3.986   5.132   6.142 -0.0911  0.2366 -0.2168
 7302SOL     OW28979   2.770   5.558   0.925  0.0478  0.1430 -0.3423
 7302SOL    HW228980   2.866   5.556   0.922  0.1275 -1.4256  1.2522
 7302SOL    HW328981   2.744   5.572   0.834  1.7825 -0.6664 -1.0201
 7302SOL    MW428982   2.780   5.559   0.912  0.5209  0.1337 -0.4087
 7303SOL     OW28983   4.974   5.574   1.647  0.0738  0.1031  0.4315
 7303SOL    HW228984   4.973   5.668   1.628 -0.8409  0.2196  0.9969
 7303SOL    HW328985   4.899   5.560   1.705 -0.1073 -1.0685 -0.0588
 7303SOL    MW428986   4.964   5.584   1.652 -0.4129  0.3655 -0.1006
 7304SOL     OW28987   1.921   1.774   5.715 -0.6738  0.4403  0.5617
 7304SOL    HW228988   1.946   1.698   5.769 -0.4394  0.4788  0.5080
 7304SOL    HW328989   1.826   1.774   5.717 -0.6693  0.8911  1.6161
 7304SOL    MW428990   1.912   1.764   5.722  0.4899 -0.3696  0.5031
 7305SOL     OW28991   2.882   0.480   0.568  0.2297 -0.1278  0.1671
 7305SOL    HW228992   2.918   0.488   0.480  0.3254 -0.9362  0.1272
 7305SOL    HW328993   2.854   0.569   0.591  0.5352  0.1521 -0.5326
 7305SOL    MW428994   2.883   0.493   0.559  0.1980  0.3173  0.6425
 7306SOL     OW28995   3.608   2.816   2.932  0.4284 -0.2131 -0.2240
 7306SOL    HW228996   3.531   2.796   2.880  0.9204 -0.4088 -0.8893
 7306SOL    HW328997   3.575   2.867   3.006 -0.1493  1.0867 -1.3235
 7306SOL    MW428998   3.594   2.820   2.935 -0.0410  0.2944 -0.3641
 7307SOL     OW28999   3.746   4.075   2.295  0.5357 -0.1266  0.0475
 7307SOL    HW229000   3.805   4.004   2.271  0.7697  0.3379 -0.7542
 7307SOL    HW329001   3.770   4.096   2.386  2.1455  0.5733 -0.5026
 7307SOL    MW429002   3.757   4.069   2.304 -0.4652  0.4180  0.4066
 7308SOL     OW29003   3.383   2.638   5.095 -0.4955  0.0278 -0.3042
 7308SOL    HW229004   3.376   2.655   5.189 -0.8127  1.3029 -0.5522
 7308SOL    HW329005   3.460   2.581   5.087 -0.8109 -0.5873  0.7744
 7308SOL    MW429006   3.392   2.632   5.106  0.3179  0.3594 -0.1018
 7309SOL     OW29007   0.823   0.689   3.812  0.2215 -0.8410  0.0586
 7309SOL    HW229008   0.792   0.631   3.881  0.0821 -0.6777  0.1364
 7309SOL    HW329009   0.764   0.671   3.738  0.5602 -1.2306 -0.1183
 7309SOL    MW429010   0.811   0.679   3.811  0.8498  0.5459  0.1003
 7310SOL     OW29011   3.684   4.766   3.815  0.0361 -0.2652 -0.0639
 7310SOL    HW229012   3.651   4.682   3.784  0.3734 -0.4939  0.1751
 7310SOL    HW329013   3.726   4.745   3.899  0.2517  0.1146 -0.0731
 7310SOL    MW429014   3.685   4.752   3.822 -0.2236  0.0207 -0.3699
 7311SOL     OW29015   2.141   2.759   3.848 -0.7111  0.1997 -0.2625
 7311SOL    HW229016   2.163   2.675   3.808  0.0215  0.8445 -1.2618
 7311SOL    HW329017   2.192   2.761   3.929  0.7758  0.4713 -1.1727
 7311SOL    MW429018   2.150   2.748   3.853 -0.1198  0.3228 -0.9429
 7312SOL     OW29019   3.801   6.274   4.920  0.3299 -0.0510  0.3198
 7312SOL    HW229020   3.868   6.320   4.971  0.8521  0.6686 -0.9601
 7312SOL    HW329021   3.733   6.253   4.983  1.3630 -0.0236  1.4873
 7312SOL    MW429022   3.801   6.277   4.935  0.4059 -0.4155  0.2773
 7313SOL     OW29023   6.202   2.401   3.472 -0.1861  0.1452  0.0738
 7313SOL    HW229024   6.246   2.401   3.387 -1.2117  2.6153 -0.5394
 7313SOL    HW329025   6.273   2.403   3.536  0.6123  1.1270 -0.8155
 7313SOL    MW429026   6.217   2.401   3.469  0.6301 -0.1785 -0.5897
 7314SOL     OW29027   1.481   5.362   3.294 -0.0417  0.1546 -0.1567
 7314SOL    HW229028   1.388   5.341   3.283 -0.1688  1.4029 -1.7538
 7314SOL    HW329029   1.523   5.331   3.214  0.7695  0.4083  0.1583
 7314SOL    MW429030   1.474   5.356   3.282  0.6272 -0.5217 -0.5538
 7315SOL     OW29031   0.413   3.737   0.024 -0.2708 -0.1715  0.3405
 7315SOL    HW229032   0.395   3.830   0.034  0.3476 -0.1917  1.8237
 7315SOL    HW329033   0.342   3.693   0.072 -0.7697 -0.5009 -0.6562
 7315SOL    MW429034   0.401   3.743   0.032 -0.2244 -0.0742 -0.0094
 7316SOL     OW29035   1.927   6.325   2.706 -0.6008 -0.2429 -0.3981
 7316SOL    HW229036   1.877   6.249   2.677 -0.2981 -1.0448  1.0998
 7316SOL    HW329037   2.013   6.315   2.664 -0.6910 -0.4999 -0.5213
 7316SOL    MW429038   1.932   6.314   2.697 -0.2461 -0.5919  0.0148
 7317SOL     OW29039   2.427   2.742   0.535 -0.0105 -0.1291 -0.2188
 7317SOL    HW229040   2.372   2.818   0.514  0.9708  0.6457 -0.1054
 7317SOL    HW329041   2.426   2.689   0.456 -0.7424 -0.0254 -0.2865
 7317SOL    MW429042   2.420   2.745   0.522 -0.5734  0.1639 -0.0943
 7318SOL     OW29043   2.658   5.160   4.074 -0.2981 -0.1771 -0.4393
 7318SOL    HW229044   2.670   5.074   4.114 -0.3118  0.2783  0.5506
 7318SOL    HW329045   2.565   5.165   4.054 -0.9877  0.8860  2.5461
 7318SOL    MW429046   2.647   5.150   4.076  0.1633  0.6651  0.1091
 7319SOL     OW29047   0.426   2.832   6.405 -0.0527  0.1890 -0.6781
 7319SOL    HW229048   0.495   2.868   6.460 -1.3297 -0.1628  1.2206
 7319SOL    HW329049   0.374   2.907   6.378  0.3481  0.3144 -1.1294
 7319SOL    MW429050   0.428   2.846   6.408  0.3860  0.1524 -0.1687
 7320SOL     OW29051   1.876   5.033   1.174  0.1563  0.0609 -0.5223
 7320SOL    HW229052   1.874   5.101   1.241  0.2836  0.9115 -1.3556
 7320SOL    HW329053   1.952   4.979   1.196 -0.2964 -0.1804  0.4873
 7320SOL    MW429054   1.886   5.034   1.186  0.8731 -0.0536  0.3408
 7321SOL     OW29055   0.076   5.258   4.720 -0.9001 -0.1698 -0.1498
 7321SOL    HW229056   0.094   5.289   4.809 -0.9808 -3.2683  1.0686
 7321SOL    HW329057  -0.018   5.272   4.708 -1.0494 -0.5253  0.5911
 7321SOL    MW429058   0.066   5.264   4.730 -0.3548 -0.2211 -0.2748
 7322SOL     OW29059   2.620   4.190   0.516  0.2639  0.5801  0.7145
 7322SOL    HW229060   2.526   4.209   0.525  0.0178 -0.6145  0.8564
 7322SOL    HW329061   2.634   4.113   0.570  0.6608 -1.1917 -1.7311
 7322SOL    MW429062   2.609   4.182   0.524 -0.0024 -0.1616 -0.6882
 7323SOL     OW29063   2.312   2.991   1.763  0.5316  0.4283  0.1955
 7323SOL    HW229064   2.329   2.932   1.691 -0.7770 -0.1328  0.3241
 7323SOL    HW329065   2.329   2.939   1.842  0.6755  0.6324  0.3011
 7323SOL    MW429066   2.316   2.976   1.764 -0.0667  0.3941  0.0422
 7324SOL     OW29067   1.749   1.690   1.994 -0.2799  0.2249 -0.8202
 7324SOL    HW229068   1.726   1.669   2.085 -1.6089 -3.2531 -1.8181
 7324SOL    HW329069   1.842   1.665   1.987 -1.0642 -3.1141 -1.1818
 7324SOL    MW429070   1.758   1.684   2.005 -0.5589  0.8908  0.2745
 7325SOL     OW29071   4.248   1.312   6.246 -0.0781  0.2474 -0.5637
 7325SOL    HW229072   4.296   1.264   6.178 -1.6029 -0.5720 -1.1048
 7325SOL    HW329073   4.204   1.244   6.297  0.1206  0.9238  0.5539
 7325SOL    MW429074   4.248   1.297   6.244  0.7602  0.2326 -0.1034
 7326SOL     OW29075   1.999   6.268   5.570  0.3563  0.3733  0.0262
 7326SOL    HW229076   2.019   6.238   5.482 -0.4475 -0.0981 -0.0099
 7326SOL    HW329077   1.927   6.330   5.559  0.3946  0.4742  0.3239
 7326SOL    MW429078   1.992   6.272   5.557  0.6843 -0.0091 -0.2334
 7327SOL     OW29079   3.666   5.987   2.120  0.4853 -0.0328 -0.1237
 7327SOL    HW229080   3.595   5.959   2.177  1.3715 -0.3307  0.8559
 7327SOL    HW329081   3.625   6.046   2.057 -0.6837 -0.4718  0.2084
 7327SOL    MW429082   3.651   5.991   2.119 -0.3584 -0.2755  0.5984
 7328SOL     OW29083   3.196   0.701   3.406  0.1768  0.2184  0.5794
 7328SOL    HW229084   3.265   0.767   3.393 -0.1100  0.8286  2.0075
 7328SOL    HW329085   3.148   0.731   3.483  0.0582 -1.6879  1.2983
 7328SOL    MW429086   3.199   0.714   3.415 -0.2430  0.6991 -0.2755
 7329SOL     OW29087   3.142   1.197   1.816 -0.1549 -0.0934  0.2919
 7329SOL    HW229088   3.107   1.109   1.799  1.8238 -0.6071 -1.6255
 7329SOL    HW329089   3.236   1.182   1.830  0.9574  1.9239 -3.6042
 7329SOL    MW429090   3.150   1.183   1.815 -0.2524  0.7242 -0.5974
 7330SOL     OW29091   6.113   3.194   3.228 -0.5401  0.4486  0.2498
 7330SOL    HW229092   6.139   3.203   3.319  0.0770  0.3533  0.0892
 7330SOL    HW329093   6.067   3.110   3.225  2.4362 -1.3135 -0.1458
 7330SOL    MW429094   6.110   3.184   3.239 -0.9794  0.1895 -0.1253
 7331SOL     OW29095   1.554   1.643   6.102  0.1729 -0.2589  0.1769
 7331SOL    HW229096   1.594   1.729   6.092 -0.2025  0.3774  3.2669
 7331SOL    HW329097   1.548   1.609   6.012  0.8501  2.6509 -1.0840
 7331SOL    MW429098   1.559   1.650   6.088  0.0487  0.0594 -0.2253
 7332SOL     OW29099   0.366   3.790   1.320 -0.3648  0.1503  0.2859
 7332SOL    HW229100   0.427   3.720   1.343 -0.3870 -0.0514 -0.2561
 7332SOL    HW329101   0.299   3.788   1.388  0.4257  0.6191  1.1084
 7332SOL    MW429102   0.365   3.781   1.332 -0.0607 -0.2664 -0.6058
 7333SOL     OW29103   4.195   0.569   2.977 -0.3970 -0.5730 -0.1001
 7333SOL    HW229104   4.136   0.626   3.026 -0.4619 -0.9491  0.2733
 7333SOL    HW329105   4.220   0.619   2.900 -1.3507 -0.4732 -0.3521
 7333SOL    MW429106   4.190   0.583   2.973 -0.9245 -0.5507 -0.5186
 7334SOL     OW29107   0.199   3.220   1.335 -0.5539 -0.4798 -0.2359
 7334SOL    HW229108   0.276   3.273   1.313 -1.0204 -0.7322 -2.8122
 7334SOL    HW329109   0.130   3.284   1.353 -0.3296 -0.2468 -0.1966
 7334SOL    MW429110   0.200   3.236   1.335 -0.4370 -0.1987  0.0578
 7335SOL     OW29111   4.687   0.924   2.496 -0.0379  0.1780  1.0959
 7335SOL    HW229112   4.705   0.997   2.555 -0.9710  1.2599  0.1004
 7335SOL    HW329113   4.723   0.847   2.540  0.1303  1.0974  2.6136
 7335SOL    MW429114   4.694   0.923   2.509  0.2197 -0.6402 -0.4694
 7336SOL     OW29115   5.535   3.251   3.135  0.0743  0.4059  0.1854
 7336SOL    HW229116   5.534   3.293   3.221  0.4225  0.8349 -0.0163
 7336SOL    HW329117   5.507   3.161   3.152 -3.7503  1.4429  0.2227
 7336SOL    MW429118   5.531   3.245   3.149 -0.6752 -0.3477 -0.2171
 7337SOL     OW29119   1.707   6.282   3.733  0.5572 -1.0473 -0.0522
 7337SOL    HW229120   1.644   6.211   3.747  0.9811 -2.0344 -2.5825
 7337SOL    HW329121   1.760   6.252   3.659  2.1992  0.9814  0.2188
 7337SOL    MW429122   1.706   6.269   3.726  1.0140 -0.7142  0.5219
 7338SOL     OW29123   1.519   2.262   1.483  0.1217  0.4714  0.4006
 7338SOL    HW229124   1.478   2.296   1.562  0.0708 -0.1166  0.6319
 7338SOL    HW329125   1.453   2.207   1.443 -0.4560  2.0805 -0.9636
 7338SOL    MW429126   1.505   2.259   1.488 -0.4605  0.6795  0.0275
 7339SOL     OW29127   2.132   1.517   3.806  0.1920  0.2346  0.0571
 7339SOL    HW229128   2.108   1.451   3.742  2.0805  1.0425 -1.5548
 7339SOL    HW329129   2.078   1.593   3.783 -0.3672 -0.0077  0.5302
 7339SOL    MW429130   2.122   1.518   3.795  0.1735  0.2288  0.1572
 7340SOL     OW29131   6.079   4.272   2.741  0.7756 -0.5017 -0.4504
 7340SOL    HW229132   5.998   4.314   2.713  0.9216 -0.8678 -1.4731
 7340SOL    HW329133   6.105   4.218   2.667  1.4623 -1.1206  0.2200
 7340SOL    MW429134   6.072   4.270   2.728 -0.1328  0.3807  0.3569
 7341SOL     OW29135   4.320   0.262   2.183  0.2511 -0.5107 -0.0724
 7341SOL    HW229136   4.324   0.234   2.274 -1.5677 -0.4580  0.0657
 7341SOL    HW329137   4.319   0.181   2.133  2.7425 -0.5466 -0.2035
 7341SOL    MW429138   4.320   0.248   2.188 -0.0638  0.4763  0.2128
 7342SOL     OW29139   1.663   5.858   5.934 -0.0930 -0.0452 -0.6502
 7342SOL    HW229140   1.667   5.940   5.886  2.0903 -0.0768 -0.6080
 7342SOL    HW329141   1.672   5.883   6.026 -2.3683 -0.1435 -0.3372
 7342SOL    MW429142   1.664   5.872   5.940  0.0933  0.4962  0.2195
 7343SOL     OW29143   4.184   2.492   5.385  0.1310 -0.0794  0.0055
 7343SOL    HW229144   4.224   2.436   5.451 -0.0707 -1.9815 -1.4102
 7343SOL    HW329145   4.253   2.506   5.320 -0.2567  0.0771 -0.3829
 7343SOL    MW429146   4.198   2.487   5.385 -0.1064 -0.2322  0.0231
 7344SOL     OW29147   2.938   0.455   3.466  0.4302  0.0173 -0.3163
 7344SOL    HW229148   2.979   0.452   3.380  0.1724 -0.2575 -0.4284
 7344SOL    HW329149   2.968   0.375   3.510  1.0244  0.4354  0.0632
 7344SOL    MW429150   2.948   0.444   3.461 -0.1427 -0.1304 -0.2659
 7345SOL     OW29151   3.121   2.753   4.124  0.4733  0.6721  0.8012
 7345SOL    HW229152   3.190   2.688   4.114 -1.1382 -1.0598  0.3954
 7345SOL    HW329153   3.066   2.720   4.195 -1.4485  0.5300 -0.6609
 7345SOL    MW429154   3.123   2.740   4.132 -0.3098 -0.0990  0.0225
 7346SOL     OW29155   3.422   0.139   6.032  0.3369  0.2549 -0.0110
 7346SOL    HW229156   3.328   0.154   6.042 -0.0560 -0.5638 -2.0061
 7346SOL    HW329157   3.454   0.122   6.121 -1.7521 -1.3429  0.5059
 7346SOL    MW429158   3.414   0.139   6.045  0.0805  0.1986 -0.5028
 7347SOL     OW29159   4.217   0.023   3.751  0.0918  0.0874  0.0492
 7347SOL    HW229160   4.168   0.026   3.669  1.5290  3.4688 -0.8716
 7347SOL    HW329161   4.307   0.006   3.725  0.9182  3.1173  0.5510
 7347SOL    MW429162   4.222   0.021   3.737  0.0895  0.3228 -0.6899
 7348SOL     OW29163   0.367   1.272   3.753 -0.1752 -0.4358  0.2625
 7348SOL    HW229164   0.410   1.187   3.758  1.2245  0.2633  0.4804
 7348SOL    HW329165   0.373   1.296   3.660  0.3811 -0.1146  0.3756
 7348SOL    MW429166   0.373   1.264   3.741 -0.0100  0.5133 -0.6115
 7349SOL     OW29167   4.566   3.111   0.766 -0.3053  0.3697 -0.2256
 7349SOL    HW229168   4.471   3.104   0.775 -0.3080  0.4133 -0.2234
 7349SOL    HW329169   4.581   3.108   0.672 -0.3365  0.7266 -0.2440
 7349SOL    MW429170   4.555   3.110   0.755 -0.3927  0.0547  0.2060
 7350SOL     OW29171   5.474   2.935   1.383  0.0637 -0.4059  0.1211
 7350SOL    HW229172   5.527   2.961   1.459 -1.2230  0.6180  0.7291
 7350SOL    HW329173   5.402   2.884   1.421  0.8259 -2.2030 -0.7411
 7350SOL    MW429174   5.471   2.932   1.398  0.0574  0.2807  0.1404
 7351SOL     OW29175   1.280   0.753   5.575 -0.1710  0.1767  0.1855
 7351SOL    HW229176   1.347   0.688   5.556 -0.2309  0.1694 -0.0039
 7351SOL    HW329177   1.297   0.780   5.665 -0.4997 -0.5227  0.4625
 7351SOL    MW429178   1.291   0.748   5.584  0.5340 -0.0603  0.2506
 7352SOL     OW29179   2.405   0.136   3.461 -0.1421 -0.1856 -0.5117
 7352SOL    HW229180   2.315   0.159   3.484 -0.6245 -0.0681 -2.3850
 7352SOL    HW329181   2.427   0.193   3.387  1.5797 -0.0464  0.0467
 7352SOL    MW429182   2.396   0.147   3.454 -0.0530  0.5295 -0.0233
 7353SOL     OW29183   3.283   1.733   4.238  0.3062 -0.5119 -0.4478
 7353SOL    HW229184   3.266   1.698   4.325  0.0880 -0.2402 -0.3821
 7353SOL    HW329185   3.224   1.685   4.180 -1.0060  0.7095 -0.1685
 7353SOL    MW429186   3.273   1.722   4.242  0.0929  1.0108 -0.3787
 7354SOL     OW29187   5.806   4.935   4.347 -0.4272 -0.0245  0.1981
 7354SOL    HW229188   5.809   4.843   4.372  1.4867  0.2310  1.0532
 7354SOL    HW329189   5.836   4.936   4.256  1.2542 -0.1252  0.7136
 7354SOL    MW429190   5.811   4.923   4.338  0.2561  0.5087  0.4584
 7355SOL     OW29191   6.179   1.142   4.069 -0.6082 -1.1264 -0.1737
 7355SOL    HW229192   6.262   1.120   4.110 -0.1601  1.8934  0.7868
 7355SOL    HW329193   6.113   1.123   4.137 -0.1627  0.9517  0.9229
 7355SOL    MW429194   6.181   1.137   4.084  1.1497  0.3553 -0.2278
 7356SOL     OW29195   1.010   3.349   2.808  0.2185 -0.6510 -0.2092
 7356SOL    HW229196   0.926   3.335   2.851 -0.0049  2.9654  0.8150
 7356SOL    HW329197   0.996   3.422   2.749  2.3992 -0.6698 -0.8590
 7356SOL    MW429198   0.997   3.357   2.806 -0.2962  0.2388  0.3015
 7357SOL     OW29199   0.487   4.026   3.783  0.4835  0.3032  0.5368
 7357SOL    HW229200   0.418   3.981   3.832  0.8202  0.3756  1.0811
 7357SOL    HW329201   0.541   3.955   3.748  0.4858  0.2620  0.6232
 7357SOL    MW429202   0.485   4.010   3.785  0.3812 -0.4901 -0.0610
 7358SOL     OW29203   5.672   2.803   5.219 -0.1174 -0.4881  0.1115
 7358SOL    HW229204   5.620   2.871   5.261  0.4937 -0.2475  0.4977
 7358SOL    HW329205   5.751   2.796   5.273  0.4500 -0.5271 -0.6957
 7358SOL    MW429206   5.676   2.811   5.231  0.1989 -0.0983 -0.3738
 7359SOL     OW29207   5.984   3.483   4.180  0.1378 -0.1316  0.4983
 7359SOL    HW229208   6.077   3.468   4.163  0.1209 -0.5963  0.8104
 7359SOL    HW329209   5.940   3.450   4.102  0.1274 -1.3904  1.0168
 7359SOL    MW429210   5.990   3.477   4.167  0.2657  0.3466  0.5295
 7360SOL     OW29211   3.103   5.163   4.975  0.4173  0.3242 -0.6032
 7360SOL    HW229212   3.107   5.120   4.890  0.1128  0.4185 -0.6670
 7360SOL    HW329213   3.010   5.179   4.990  0.4945  0.6131 -0.4062
 7360SOL    MW429214   3.091   5.160   4.966 -0.7657 -0.1758 -0.3379
 7361SOL     OW29215   4.508   0.527   4.113  1.0368  0.3485 -1.1431
 7361SOL    HW229216   4.570   0.595   4.140  1.1393 -0.0469 -0.3420
 7361SOL    HW329217   4.561   0.447   4.108  0.4421 -0.1962  0.5068
 7361SOL    MW429218   4.523   0.526   4.116  0.1798 -0.7858  0.3143
 7362SOL     OW29219   1.875   4.874   3.404  0.0665  0.1272  0.0693
 7362SOL    HW229220   1.872   4.784   3.436 -1.3693 -0.2490 -1.0338
 7362SOL    HW329221   1.854   4.928   3.481  0.7820 -0.4629  0.6952
 7362SOL    MW429222   1.872   4.870   3.419  0.2552 -0.6802 -0.5856
 7363SOL     OW29223   6.215   3.717   5.616  0.2380  0.1967 -0.6232
 7363SOL    HW229224   6.278   3.647   5.599  0.1102 -0.3992  1.1694
 7363SOL    HW329225   6.160   3.719   5.538  0.9404 -0.9438 -1.1704
 7363SOL    MW429226   6.216   3.708   5.603 -0.0867 -0.6700 -0.3068
 7364SOL     OW29227   5.088   0.996   4.939 -0.3951  0.2764  0.2747
 7364SOL    HW229228   5.064   0.952   4.857  0.2213 -1.1596  0.8432
 7364SOL    HW329229   5.028   0.960   5.004  0.3028  0.0605  0.8060
 7364SOL    MW429230   5.077   0.985   4.937  1.1052  0.2466  0.6252
 7365SOL     OW29231   2.019   4.024   2.087 -0.2791 -0.7649  0.3709
 7365SOL    HW229232   2.050   3.999   2.000 -0.2866 -1.1396  0.4709
 7365SOL    HW329233   1.946   4.083   2.071  1.6609  1.7634  0.1109
 7365SOL    MW429234   2.014   4.028   2.074 -0.8695  0.5845 -0.3197
 7366SOL     OW29235   2.135   0.193   2.767 -0.0021  0.2841 -0.5089
 7366SOL    HW229236   2.041   0.207   2.762 -0.1515 -0.8043 -0.9057
 7366SOL    HW329237   2.145   0.099   2.776  1.0749  0.3145 -1.2204
 7366SOL    MW429238   2.124   0.183   2.768  0.0948 -0.1628  0.1733
 7367SOL     OW29239   4.512   0.723   2.890 -0.5952  0.7511  0.0509
 7367SOL    HW229240   4.600   0.724   2.926 -0.3941 -1.3316 -0.2840
 7367SOL    HW329241   4.455   0.721   2.967 -0.3921  1.8816  0.2625
 7367SOL    MW429242   4.516   0.723   2.905 -0.5731 -0.0954  0.5373
 7368SOL     OW29243   4.299   2.130   4.599 -0.6530  0.1301 -0.5159
 7368SOL    HW229244   4.216   2.084   4.585 -1.4297  1.0246  0.9382
 7368SOL    HW329245   4.329   2.152   4.511 -0.8905 -1.9804 -1.2011
 7368SOL    MW429246   4.292   2.127   4.586  0.3043 -0.1095  0.3605
 7369SOL     OW29247   2.536   5.751   4.885  0.6509  0.4639 -0.0098
 7369SOL    HW229248   2.478   5.754   4.809 -1.0080  1.2901  1.2302
 7369SOL    HW329249   2.510   5.671   4.931  1.3162  0.2154 -0.0659
 7369SOL    MW429250   2.525   5.741   4.881  0.2683  0.3106  0.0786
 7370SOL     OW29251   2.817   4.565   5.940 -0.0978  0.3903  0.2325
 7370SOL    HW229252   2.750   4.535   5.879 -0.0012  0.5863  0.0290
 7370SOL    HW329253   2.868   4.629   5.891  1.4678 -1.1801 -0.2922
 7370SOL    MW429254   2.815   4.569   5.926 -0.1727  0.2317  0.6258
 7371SOL     OW29255   2.274   4.173   1.982  0.0820  0.1840  0.4157
 7371SOL    HW229256   2.312   4.163   1.895  0.4159  0.1360  0.5659
 7371SOL    HW329257   2.182   4.193   1.966  0.0075 -0.4218  0.0662
 7371SOL    MW429258   2.267   4.174   1.968  0.5241 -0.3004  0.0247
 7372SOL     OW29259   2.175   0.122   3.670  0.2671 -0.0054 -0.1286
 7372SOL    HW229260   2.097   0.176   3.658 -0.1841 -0.9626 -1.7586
 7372SOL    HW329261   2.234   0.177   3.722 -1.7360  0.4714  1.8085
 7372SOL    MW429262   2.172   0.136   3.675 -0.0143 -0.0161 -0.2334
 7373SOL     OW29263   2.411   5.423   0.820 -0.1072  0.4777 -0.1187
 7373SOL    HW229264   2.351   5.422   0.745 -0.3722  2.4269  0.0186
 7373SOL    HW329265   2.496   5.443   0.783 -0.0602  0.4904 -0.0044
 7373SOL    MW429266   2.414   5.425   0.805 -0.0772  0.1272 -0.1097
 7374SOL     OW29267   0.866   6.339   0.807 -0.3481 -0.7007  0.3298
 7374SOL    HW229268   0.903   6.297   0.885  0.3938  0.0394  0.3967
 7374SOL    HW329269   0.772   6.345   0.825 -0.0921  0.1503  1.5227
 7374SOL    MW429270   0.859   6.334   0.820 -0.3769  0.1804  0.0440
 7375SOL     OW29271   0.204   3.725   5.016 -0.3799  0.6239 -0.0555
 7375SOL    HW229272   0.231   3.674   4.939 -3.6641  1.1104 -1.6743
 7375SOL    HW329273   0.161   3.662   5.073 -1.0334  0.8747 -0.2647
 7375SOL    MW429274   0.202   3.710   5.013  0.1227 -0.0246 -0.7048
 7376SOL     OW29275   2.854   1.387   2.822  0.6158 -0.1863  0.5166
 7376SOL    HW229276   2.768   1.372   2.782  0.9744  1.8939 -1.2298
 7376SOL    HW329277   2.837   1.452   2.890  0.5660 -1.1398  1.4469
 7376SOL    MW429278   2.840   1.394   2.826 -0.3071  0.2818 -0.1931
 7377SOL     OW29279   4.715   1.495   5.950  0.5510 -0.4555  0.0819
 7377SOL    HW229280   4.658   1.517   6.023 -0.4033 -0.5757 -0.6013
 7377SOL    HW329281   4.691   1.405   5.927 -0.3894  0.1276 -1.4242
 7377SOL    MW429282   4.704   1.486   5.956 -0.1067 -0.4887 -0.1770
 7378SOL     OW29283   2.455   4.123   4.820 -0.3952  0.1585  0.3948
 7378SOL    HW229284   2.393   4.062   4.779  1.1425 -1.2009 -0.0571
 7378SOL    HW329285   2.458   4.097   4.912 -0.0001 -0.2444  0.2734
 7378SOL    MW429286   2.448   4.111   4.826 -0.1955 -0.0149  0.0459
 7379SOL     OW29287   2.385   5.010   4.840  0.0476 -0.3061  0.0358
 7379SOL    HW229288   2.361   4.957   4.764 -0.5154  0.2625 -0.2013
 7379SOL    HW329289   2.326   4.981   4.909 -2.5007  2.0681 -0.9350
 7379SOL    MW429290   2.374   4.999   4.839  0.1034 -0.2493  0.0314
 7380SOL     OW29291   3.280   6.317   6.084  0.1231  0.0533  0.4291
 7380SOL    HW229292   3.331   6.398   6.086 -0.2582  0.2884  1.1960
 7380SOL    HW329293   3.203   6.339   6.030 -0.6477  0.6430  1.6990
 7380SOL    MW429294   3.276   6.331   6.077 -0.9612  0.1830  0.2156
 7381SOL     OW29295   3.045   3.570   6.345 -0.2937  0.2264 -0.0867
 7381SOL    HW229296   3.139   3.588   6.345 -0.1586 -0.4501 -0.2818
 7381SOL    HW329297   3.007   3.645   6.391  0.4357  0.0496  0.8518
 7381SOL    MW429298   3.053   3.582   6.351 -0.1513  0.0069  0.4214
 7382SOL     OW29299   3.694   2.238   5.640  0.2452  0.7690  0.1634
 7382SOL    HW229300   3.669   2.307   5.578 -0.6243  1.2026  0.9801
 7382SOL    HW329301   3.612   2.208   5.677  0.6502 -0.4303  0.1385
 7382SOL    MW429302   3.680   2.243   5.636  0.1198  0.0839  0.0798
 7383SOL     OW29303   2.270   0.937   2.102 -0.6386 -0.0630 -0.1715
 7383SOL    HW229304   2.311   0.967   2.183  0.7456 -0.5941 -0.6362
 7383SOL    HW329305   2.314   0.987   2.033 -2.1116  0.7137 -0.5904
 7383SOL    MW429306   2.282   0.947   2.104 -0.8743  0.1000  0.1016
 7384SOL     OW29307   2.731   2.526   5.652 -0.6414  0.4342  0.1372
 7384SOL    HW229308   2.737   2.517   5.557 -1.6912 -0.9562  0.1682
 7384SOL    HW329309   2.786   2.456   5.686 -1.2749  0.1256  0.5344
 7384SOL    MW429310   2.739   2.516   5.644 -0.2158  0.2895  0.1917
 7385SOL     OW29311   3.068   3.215   2.133  0.1486 -0.8531  0.2410
 7385SOL    HW229312   3.083   3.298   2.088 -3.5327  0.6944  1.4401
 7385SOL    HW329313   3.152   3.192   2.171  2.0520  0.6114 -2.6797
 7385SOL    MW429314   3.081   3.223   2.132  0.1185 -0.1269  0.4900
 7386SOL     OW29315   3.184   0.789   2.567 -0.3636  0.2441  0.0038
 7386SOL    HW229316   3.123   0.768   2.638 -2.8256 -0.2037 -2.0710
 7386SOL    HW329317   3.181   0.713   2.509  1.4620  0.6341 -0.6905
 7386SOL    MW429318   3.176   0.776   2.568  0.6508 -0.3228 -0.0717
 7387SOL     OW29319   5.180   6.082   0.902  0.5094 -0.3162 -0.4371
 7387SOL    HW229320   5.156   6.175   0.896 -0.2352 -0.4082  0.8923
 7387SOL    HW329321   5.276   6.082   0.896  0.5637  0.6117  0.1801
 7387SOL    MW429322   5.190   6.095   0.900 -0.5920 -0.5727 -0.4366
 7388SOL     OW29323   1.716   3.836   0.715  0.0030 -0.5435 -0.6221
 7388SOL    HW229324   1.658   3.762   0.698 -1.7032  0.6466 -0.2197
 7388SOL    HW329325   1.658   3.911   0.725  1.6875  0.9160 -1.1859
 7388SOL    MW429326   1.701   3.836   0.714  0.3075  0.4694  0.1815
 7389SOL     OW29327   1.044   2.911   4.688 -0.4515 -0.4763  0.0590
 7389SOL    HW229328   1.037   2.991   4.636 -0.9516 -0.4277  0.1888
 7389SOL    HW329329   1.117   2.927   4.748 -1.7591  0.7123  1.4496
 7389SOL    MW429330   1.053   2.924   4.689 -0.1179 -0.1727  0.5488
 7390SOL     OW29331   4.427   4.390   5.617  0.0032  0.3696 -0.2996
 7390SOL    HW229332   4.398   4.472   5.578  1.0095  0.8285 -0.1134
 7390SOL    HW329333   4.370   4.323   5.578 -1.6251  1.2748  0.4468
 7390SOL    MW429334   4.416   4.392   5.607  0.1663 -0.1786  0.2318
 7391SOL     OW29335   2.445   0.615   4.012 -0.5914 -0.2221 -0.0258
 7391SOL    HW229336   2.484   0.633   3.927  0.9182 -1.0781  0.4362
 7391SOL    HW329337   2.442   0.519   4.017 -2.5363 -0.1889  0.0963
 7391SOL    MW429338   2.450   0.605   4.002  0.1644 -0.6260 -0.1814
 7392SOL     OW29339   6.387   0.373   3.681  0.4581  0.4264 -0.6375
 7392SOL    HW229340   6.359   0.360   3.590  1.3425 -2.2383 -0.6208
 7392SOL    HW329341   6.477   0.405   3.674  0.2427  1.0336 -0.6841
 7392SOL    MW429342   6.395   0.376   3.668  0.7120 -0.2653 -0.5923
 7393SOL     OW29343   3.401   1.240   3.936  0.3566  0.2034  0.4630
 7393SOL    HW229344   3.491   1.206   3.928  0.5582  0.5718  1.0935
 7393SOL    HW329345   3.406   1.329   3.900 -0.2721 -0.5546 -1.6253
 7393SOL    MW429346   3.414   1.247   3.930 -0.3133  0.2509  0.4035
 7394SOL     OW29347   2.141   3.159   0.019  0.5306  0.5373  0.1258
 7394SOL    HW229348   2.074   3.156   0.088  1.2177 -0.1958  0.7898
 7394SOL    HW329349   2.138   3.071  -0.021 -0.8156  1.3671 -1.7565
 7394SOL    MW429350   2.131   3.147   0.023 -0.2431  0.0702 -0.0830
 7395SOL     OW29351   0.475   4.464   0.986  0.6344 -0.0497  0.1282
 7395SOL    HW229352   0.468   4.525   1.060  1.1740 -0.0973  0.2259
 7395SOL    HW329353   0.389   4.468   0.944  0.0548 -0.5785  1.1963
 7395SOL    MW429354   0.463   4.473   0.990 -0.1653  0.8380  0.6766
 7396SOL     OW29355   5.776   5.654   0.156  0.2671 -0.1519 -0.1308
 7396SOL    HW229356   5.752   5.595   0.228  1.7369  2.0110  2.3076
 7396SOL    HW329357   5.868   5.677   0.173  0.1377  1.8269 -1.6839
 7396SOL    MW429358   5.785   5.649   0.168 -0.6398  0.0860 -0.2746
 7397SOL     OW29359   5.422   2.513   3.100  0.3847 -0.1948  0.5296
 7397SOL    HW229360   5.389   2.577   3.164  0.4940 -0.2577  0.6488
 7397SOL    HW329361   5.506   2.550   3.071 -0.1991  0.4176 -0.4388
 7397SOL    MW429362   5.429   2.526   3.105  0.1881 -0.1122 -0.4793
 7398SOL     OW29363   0.616   3.234   1.119 -0.6365 -0.2570  0.2342
 7398SOL    HW229364   0.698   3.210   1.076  0.2590 -1.4607  2.4295
 7398SOL    HW329365   0.560   3.158   1.109 -1.4446  0.4830 -1.0710
 7398SOL    MW429366   0.620   3.221   1.112 -0.1447 -0.4673  1.3770
 7399SOL     OW29367   2.299   3.270   2.179  0.3305  0.1170  0.4013
 7399SOL    HW229368   2.377   3.298   2.131  1.2334 -1.9305  0.5787
 7399SOL    HW329369   2.237   3.246   2.110  0.6046 -0.1649  0.2470
 7399SOL    MW429370   2.301   3.270   2.164 -0.8845  0.3158 -0.2388
 7400SOL     OW29371   4.331   4.887   5.373  0.3021 -0.1762 -0.0101
 7400SOL    HW229372   4.279   4.965   5.394 -0.0476 -0.4686  0.2200
 7400SOL    HW329373   4.306   4.823   5.440  1.1436 -0.2377  0.2573
 7400SOL    MW429374   4.321   4.889   5.385  0.2408 -0.4128 -0.5279
 7401SOL     OW29375   0.272   0.011   5.893  0.1842  0.4621 -0.7007
 7401SOL    HW229376   0.197  -0.018   5.842 -0.2818  0.4329 -0.0097
 7401SOL    HW329377   0.326   0.060   5.831 -0.2662  0.2445 -1.2682
 7401SOL    MW429378   0.269   0.014   5.878 -0.1802  0.0613  0.6447
 7402SOL     OW29379   3.623   1.928   2.077  0.8300 -0.8058  0.0070
 7402SOL    HW229380   3.684   1.976   2.020 -0.0572 -1.8124 -1.9164
 7402SOL    HW329381   3.558   1.993   2.102  0.2464 -0.6903 -1.6622
 7402SOL    MW429382   3.623   1.943   2.073  0.1487 -0.6126  0.2843
 7403SOL     OW29383   2.011   2.513   5.461 -0.1580 -0.6413 -0.0748
 7403SOL    HW229384   1.995   2.603   5.433  1.0775 -0.6479 -0.8777
 7403SOL    HW329385   1.943   2.462   5.416  1.2956 -0.5438 -2.5567
 7403SOL    MW429386   2.000   2.518   5.451 -0.3308 -0.1569  0.1406
 7404SOL     OW29387   3.668   3.288   0.697  0.1170 -0.4109 -0.0829
 7404SOL    HW229388   3.763   3.299   0.707  0.2010  0.0927 -1.2705
 7404SOL    HW329389   3.658   3.240   0.615 -0.6943  0.7852 -0.7128
 7404SOL    MW429390   3.679   3.283   0.687  0.2747 -0.1941 -0.3057
 7405SOL     OW29391   2.140   0.806   1.203 -0.0014 -0.2483 -0.1837
 7405SOL    HW229392   2.112   0.716   1.220  0.6626 -1.0353 -2.7512
 7405SOL    HW329393   2.090   0.832   1.125 -1.9005  2.5304  1.7488
 7405SOL    MW429394   2.129   0.798   1.195  0.5588  0.0653 -0.5775
 7406SOL     OW29395   6.359   5.840   3.242 -0.1701  0.5296  0.4451
 7406SOL    HW229396   6.407   5.893   3.306  2.8958 -1.3312 -0.1134
 7406SOL    HW329397   6.270   5.876   3.243  0.5646  2.6440  3.3642
 7406SOL    MW429398   6.353   5.851   3.251  0.7836  0.7029 -0.4842
 7407SOL     OW29399   4.457   1.645   3.208 -0.5239  0.2952 -0.1410
 7407SOL    HW229400   4.407   1.696   3.143 -3.6408 -1.2526  0.8192
 7407SOL    HW329401   4.410   1.659   3.290  0.7541 -1.1770  0.8896
 7407SOL    MW429402   4.444   1.653   3.210  0.4080 -0.5395 -0.0214
 7408SOL     OW29403   2.769   4.399   3.526  0.4547 -0.4901  0.2647
 7408SOL    HW229404   2.820   4.407   3.445  1.3677 -0.8213  0.7892
 7408SOL    HW329405   2.803   4.320   3.568 -0.2275 -0.4963  0.8189
 7408SOL    MW429406   2.781   4.390   3.521 -0.0326 -0.1681 -0.4580
 7409SOL     OW29407   5.391   2.135   3.660 -0.8235 -0.1148  0.4355
 7409SOL    HW229408   5.321   2.198   3.674 -0.8606  0.0697 -0.5274
 7409SOL    HW329409   5.471   2.182   3.684 -0.8696  0.2412 -0.0929
 7409SOL    MW429410   5.392   2.149   3.665 -0.4911  0.1370 -0.0437
 7410SOL     OW29411   6.217   0.544   5.915  0.1639  0.4535 -0.0054
 7410SOL    HW229412   6.309   0.562   5.937  0.0878 -1.0519  1.7738
 7410SOL    HW329413   6.215   0.449   5.897 -0.3010  1.0713 -4.3331
 7410SOL    MW429414   6.229   0.533   5.916 -0.1781 -0.3455  0.3470
 7411SOL     OW29415   5.919   5.591   6.349  0.2607  0.2852  0.0520
 7411SOL    HW229416   5.940   5.684   6.336  0.3343  0.2880  0.1974
 7411SOL    HW329417   5.868   5.589   6.430  0.1696  0.2108 -0.0070
 7411SOL    MW429418   5.915   5.603   6.358 -0.0823 -0.0162 -0.0870
 7412SOL     OW29419   4.844   0.137   1.998  0.3535 -0.0484  0.6651
 7412SOL    HW229420   4.903   0.096   1.934 -0.3695 -1.1119  0.6613
 7412SOL    HW329421   4.876   0.227   2.005  1.5760 -0.4213  0.1818
 7412SOL    MW429422   4.856   0.143   1.990 -0.1803 -0.5351 -0.0363
 7413SOL     OW29423   3.546   4.492   5.457 -0.5722  0.0153  0.1803
 7413SOL    HW229424   3.483   4.427   5.488 -0.4831 -0.7456 -1.1579
 7413SOL    HW329425   3.628   4.443   5.447 -0.2115  0.5969  0.2759
 7413SOL    MW429426   3.549   4.477   5.459  0.1181  0.6394  0.0478
 7414SOL     OW29427   0.408   3.018   0.994  0.1887  0.1834  0.1852
 7414SOL    HW229428   0.329   3.005   1.047 -0.1914 -0.3041 -0.4867
 7414SOL    HW329429   0.376   3.028   0.904  0.7731  1.7468  0.1186
 7414SOL    MW429430   0.393   3.017   0.989 -0.3071 -0.6239  0.2447
 7415SOL     OW29431   4.937   0.950   2.912 -0.1024  0.2603 -0.1568
 7415SOL    HW229432   4.903   0.861   2.911 -1.1569  0.6297  0.6880
 7415SOL    HW329433   4.902   0.990   2.833 -0.7044  0.2883  0.1139
 7415SOL    MW429434   4.928   0.944   2.902 -0.0957 -0.0271  0.5634
 7416SOL     OW29435   1.557   3.080   0.454 -0.3204 -0.2335 -0.5555
 7416SOL    HW229436   1.575   3.110   0.365  1.5791 -0.0451 -0.1546
 7416SOL    HW329437   1.623   3.124   0.508 -1.3929 -0.3936  0.9418
 7416SOL    MW429438   1.568   3.090   0.449 -0.0742 -0.2849  0.0940
 7417SOL     OW29439   5.490   2.376   5.385 -0.4312  0.1011  0.2194
 7417SOL    HW229440   5.475   2.443   5.451  1.2457  0.5273  0.2151
 7417SOL    HW329441   5.521   2.424   5.308  1.0007 -0.6642  0.2807
 7417SOL    MW429442   5.492   2.391   5.384 -0.1031 -0.4608  0.1960
 7418SOL     OW29443   4.882   2.491   3.131 -0.5589 -0.9833 -0.5211
 7418SOL    HW229444   4.930   2.543   3.066 -0.7651  0.2324  0.2783
 7418SOL    HW329445   4.789   2.505   3.108 -0.6711  0.1352  0.5055
 7418SOL    MW429446   4.876   2.500   3.119  0.3531  0.4787 -0.3656
 7419SOL     OW29447   5.207   1.325   3.811  0.4646 -0.4728  0.5406
 7419SOL    HW229448   5.126   1.359   3.772  0.8683 -1.8302 -1.6720
 7419SOL    HW329449   5.272   1.394   3.794  0.1151 -0.0276  0.9806
 7419SOL    MW429450   5.205   1.339   3.803  0.6879  0.0786  0.3963
 7420SOL     OW29451   5.627   3.661   3.959  0.1637 -0.3500 -0.3517
 7420SOL    HW229452   5.698   3.643   3.896  0.1621  0.3800 -0.5728
 7420SOL    HW329453   5.558   3.599   3.936  0.3330 -0.3752 -0.7991
 7420SOL    MW429454   5.628   3.651   3.948  0.2767 -0.3613  0.2039
 7421SOL     OW29455   4.331   0.992   2.564  0.0712  0.4650 -0.0095
 7421SOL    HW229456   4.251   1.021   2.522  1.0539  1.5210 -1.2269
 7421SOL    HW329457   4.356   0.912   2.517 -1.1390 -0.8703  1.5051
 7421SOL    MW429458   4.324   0.985   2.552 -0.1187 -0.2423  0.3337
 7422SOL     OW29459   5.640   0.114   2.486 -0.0867  0.3286  0.5092
 7422SOL    HW229460   5.709   0.072   2.539 -0.4279  0.3084  0.9433
 7422SOL    HW329461   5.574   0.046   2.473  0.7187 -0.1583 -1.3246
 7422SOL    MW429462   5.641   0.100   2.492  0.7135 -0.5297  0.1071
 7423SOL     OW29463   5.436   6.175   4.379  0.0435  1.0796 -0.2880
 7423SOL    HW229464   5.468   6.262   4.354  1.0030  0.8167 -0.0340
 7423SOL    HW329465   5.363   6.158   4.320  2.0238  0.5955 -2.8142
 7423SOL    MW429466   5.431   6.184   4.368  0.1417 -0.6750  0.3513
 7424SOL     OW29467   5.545   4.619   1.456 -0.0948  0.4544  0.1513
 7424SOL    HW229468   5.516   4.706   1.427  0.2280  0.2128 -0.9349
 7424SOL    HW329469   5.493   4.558   1.404 -0.0463 -0.0131  0.6383
 7424SOL    MW429470   5.534   4.622   1.446  0.2195 -0.2743  0.2811
 7425SOL     OW29471   4.962   5.632   2.362 -0.0070  0.2257 -0.0102
 7425SOL    HW229472   5.011   5.572   2.419 -1.7931 -1.7052 -0.3519
 7425SOL    HW329473   4.893   5.666   2.419 -0.2245  0.3539 -0.3546
 7425SOL    MW429474   4.959   5.628   2.377  0.0133  0.2706  0.0313
 7426SOL     OW29475   3.279   4.619   3.871 -0.1123  0.5991 -0.4287
 7426SOL    HW229476   3.293   4.710   3.842 -0.3044  0.3820 -1.2486
 7426SOL    HW329477   3.185   4.605   3.858 -0.2227  0.5223  0.4306
 7426SOL    MW429478   3.269   4.629   3.865  0.2783  0.1229  0.2382
 7427SOL     OW29479   3.937   1.786   1.952  0.1104 -0.2873  0.1217
 7427SOL    HW229480   4.018   1.747   1.921  0.5453  0.5589  0.1761
 7427SOL    HW329481   3.910   1.730   2.025  0.7841 -0.4291  0.2693
 7427SOL    MW429482   3.944   1.774   1.958  0.0409 -0.2921 -0.3869
 7428SOL     OW29483   1.192   3.141   5.122 -0.3395 -0.5087 -0.0983
 7428SOL    HW229484   1.232   3.097   5.197  0.0547  0.4594  0.2698
 7428SOL    HW329485   1.200   3.078   5.050 -0.7478 -1.4643  0.6580
 7428SOL    MW429486   1.198   3.127   5.123  0.0045  0.2524  0.0535
 7429SOL     OW29487   3.640   3.909   3.296 -0.1234 -0.1438 -0.6063
 7429SOL    HW229488   3.710   3.957   3.341 -0.4120  1.3990 -1.7368
 7429SOL    HW329489   3.563   3.920   3.352  0.5756 -2.2237  0.8740
 7429SOL    MW429490   3.639   3.917   3.309 -0.0999 -0.4616 -0.7900
 7430SOL     OW29491   1.099   3.166   6.090 -0.7490 -0.0441  0.1719
 7430SOL    HW229492   1.097   3.240   6.150  2.8994  0.8165 -0.5520
 7430SOL    HW329493   1.069   3.202   6.007  2.0160  1.0669 -0.4511
 7430SOL    MW429494   1.095   3.180   6.087 -0.0285 -0.1331 -0.1755
 7431SOL     OW29495   4.514   0.233   5.435  0.1492 -0.4616  0.3622
 7431SOL    HW229496   4.451   0.197   5.373 -0.2993  0.3387  0.3542
 7431SOL    HW329497   4.463   0.288   5.494  0.7454 -0.2929  0.7381
 7431SOL    MW429498   4.499   0.235   5.435 -0.0115  0.2947 -0.2883
 7432SOL     OW29499   1.671   3.420   0.160  0.3838  0.1890  0.4935
 7432SOL    HW229500   1.641   3.492   0.216  0.2805 -0.0190  0.7090
 7432SOL    HW329501   1.763   3.438   0.145  0.6309 -0.2098  1.4436
 7432SOL    MW429502   1.679   3.432   0.166 -0.8528  0.1041 -0.6586
 7433SOL     OW29503   5.060   2.694   5.334 -0.2600  0.0216 -0.2178
 7433SOL    HW229504   5.092   2.662   5.249  0.4467 -0.2165  0.1295
 7433SOL    HW329505   5.121   2.764   5.357  1.3269 -1.8088  1.4354
 7433SOL    MW429506   5.072   2.699   5.326 -0.4869  0.2283  0.2445
 7434SOL     OW29507   2.135   4.503   2.507 -0.4129  0.0868 -0.8535
 7434SOL    HW229508   2.179   4.433   2.554 -1.4900  1.8385  3.1809
 7434SOL    HW329509   2.048   4.470   2.488 -0.7993  0.1286  0.7210
 7434SOL    MW429510   2.129   4.490   2.511 -0.8800  0.1143  0.1442
 7435SOL     OW29511   3.044   2.839   1.776  0.2507  0.3667  0.3112
 7435SOL    HW229512   3.130   2.879   1.789 -0.1907  0.8910  1.9037
 7435SOL    HW329513   2.986   2.888   1.835 -1.0897 -0.1548 -0.5199
 7435SOL    MW429514   3.047   2.851   1.786  0.4854 -0.3842 -0.0255
 7436SOL     OW29515   3.614   2.204   1.623 -0.3892 -0.0997 -0.2796
 7436SOL    HW229516   3.623   2.275   1.686 -1.3469 -0.2024 -0.0193
 7436SOL    HW329517   3.684   2.143   1.646 -0.0190  0.4030 -0.0477
 7436SOL    MW429518   3.625   2.205   1.634 -0.8825  0.1982  0.7375
 7437SOL     OW29519   1.123   5.213   3.962  0.1140 -0.0924 -0.5564
 7437SOL    HW229520   1.130   5.232   3.869  0.6011  2.3646 -0.0931
 7437SOL    HW329521   1.203   5.251   4.000 -1.3473  1.4767  1.1611
 7437SOL    MW429522   1.135   5.221   3.955  1.1241 -0.2247 -0.0899
 7438SOL     OW29523   5.687   0.273   0.420 -0.3232 -0.4235  0.2761
 7438SOL    HW229524   5.665   0.356   0.380  0.3737 -0.3908 -0.0537
 7438SOL    HW329525   5.623   0.262   0.490 -1.5779 -0.5079 -0.8647
 7438SOL    MW429526   5.676   0.282   0.424  0.3886  0.3128  0.2333
 7439SOL     OW29527   1.556   1.095   1.941  0.1020 -0.1076  0.2203
 7439SOL    HW229528   1.600   1.013   1.919 -0.6423 -1.2565  2.6919
 7439SOL    HW329529   1.506   1.075   2.020  1.6825  3.2915  2.2788
 7439SOL    MW429530   1.555   1.081   1.949  0.3610  0.0270  0.2350
 7440SOL     OW29531   2.951   3.357   5.767 -0.5054 -0.7220 -0.4306
 7440SOL    HW229532   2.878   3.363   5.706 -0.5858 -0.6582 -0.3273
 7440SOL    HW329533   2.978   3.448   5.782 -0.2783 -0.7554 -0.6209
 7440SOL    MW429534   2.945   3.370   5.761 -0.1432  0.2943  0.0552
 7441SOL     OW29535   5.487   0.449   4.290  1.0046  0.4840  0.0242
 7441SOL    HW229536   5.448   0.366   4.263 -0.2861 -0.0082  2.9583
 7441SOL    HW329537   5.434   0.516   4.246  0.0948 -0.2392 -0.0090
 7441SOL    MW429538   5.475   0.447   4.281 -0.5776  0.1342 -0.5459
 7442SOL     OW29539   1.919   0.705   5.108 -0.3580 -0.4462 -0.5899
 7442SOL    HW229540   1.960   0.696   5.194 -1.7034 -1.0903  0.0146
 7442SOL    HW329541   1.941   0.624   5.063  0.1750 -0.1961 -0.7902
 7442SOL    MW429542   1.927   0.693   5.113  0.1101 -0.6899  0.2882
 7443SOL     OW29543   1.165   1.722   4.031 -0.5679 -0.6546  0.1098
 7443SOL    HW229544   1.071   1.726   4.014 -0.9532 -0.3902  2.1316
 7443SOL    HW329545   1.196   1.811   4.011 -1.4339  0.3590  2.8895
 7443SOL    MW429546   1.156   1.735   4.026  0.2447 -0.2427 -0.4250
 7444SOL     OW29547   3.966   1.229   1.645 -0.1075  0.4029  0.2435
 7444SOL    HW229548   4.029   1.292   1.611  1.2154  0.1069  2.0138
 7444SOL    HW329549   3.925   1.191   1.567  2.0136  0.4872 -0.9757
 7444SOL    MW429550   3.969   1.232   1.630  0.2436  0.2023 -0.2426
 7445SOL     OW29551   4.689   5.150   0.011  0.5746  0.0484 -0.3398
 7445SOL    HW229552   4.754   5.209  -0.027  1.6528 -1.5765 -1.1567
 7445SOL    HW329553   4.647   5.109  -0.065  0.4911 -0.9008  0.2018
 7445SOL    MW429554   4.692   5.152  -0.004  0.0506  0.3847  0.4085
 7446SOL     OW29555   3.667   4.607   2.270 -0.0264  0.3343  0.1240
 7446SOL    HW229556   3.734   4.541   2.286 -0.8614 -0.2467  1.4555
 7446SOL    HW329557   3.633   4.628   2.357 -0.7034  1.5383 -0.4017
 7446SOL    MW429558   3.671   4.601   2.284  0.0548 -0.6030  0.1446
 7447SOL     OW29559   2.950   6.024   4.183 -0.1064  0.2212  0.2548
 7447SOL    HW229560   2.915   6.108   4.212  1.9784  1.0720  0.4791
 7447SOL    HW329561   2.999   6.045   4.104 -1.0401 -1.1236 -0.7214
 7447SOL    MW429562   2.952   6.038   4.176 -0.0016  0.2930  0.3944
 7448SOL     OW29563   1.681   2.700   4.034 -0.4407  0.0410  0.0591
 7448SOL    HW229564   1.705   2.767   4.097 -1.1392  1.0058 -0.6692
 7448SOL    HW329565   1.755   2.698   3.973 -0.2542 -0.1188  0.2889
 7448SOL    MW429566   1.694   2.709   4.034  0.0897 -0.2106  0.2888
 7449SOL     OW29567   4.943   1.579   6.360 -0.1772  0.0538 -0.3668
 7449SOL    HW229568   4.886   1.531   6.419 -0.3486 -1.3984 -1.6332
 7449SOL    HW329569   4.902   1.664   6.349 -2.4290 -1.1132 -1.6291
 7449SOL    MW429570   4.930   1.584   6.366 -0.7340  0.2788  0.1195
 7450SOL     OW29571   4.224   5.617   5.354  0.9370 -0.4240  0.8002
 7450SOL    HW229572   4.176   5.561   5.414  1.9865  0.0766  2.1642
 7450SOL    HW329573   4.169   5.622   5.276  0.0181 -1.9247  1.3108
 7450SOL    MW429574   4.211   5.610   5.352 -0.0680 -0.3208 -1.0152
 7451SOL     OW29575   5.810   6.305   4.498  0.7606  0.1585  0.0564
 7451SOL    HW229576   5.810   6.393   4.460  1.2912  1.0050  1.9079
 7451SOL    HW329577   5.813   6.246   4.423 -2.2658  1.6086 -1.3770
 7451SOL    MW429578   5.810   6.309   4.483  0.1604  0.5302  0.0778
 7452SOL     OW29579   4.165   0.146   0.414  0.1833  0.0034  0.2627
 7452SOL    HW229580   4.086   0.132   0.466  0.5869 -0.5751  0.7426
 7452SOL    HW329581   4.181   0.062   0.370  0.9650 -0.1440  0.7981
 7452SOL    MW429582   4.157   0.133   0.415  0.5355  0.2783 -0.1301
 7453SOL     OW29583   3.741   2.331   0.558 -0.5370  0.0462 -0.0009
 7453SOL    HW229584   3.764   2.261   0.620 -1.7086  1.8746  2.7023
 7453SOL    HW329585   3.721   2.285   0.477  0.3490 -2.5934  1.1353
 7453SOL    MW429586   3.741   2.316   0.556 -0.0727 -0.4038 -0.1941
 7454SOL     OW29587   4.412   2.872   0.957 -0.1580  0.2880 -0.4712
 7454SOL    HW229588   4.359   2.794   0.945  0.1308 -0.0790  0.5472
 7454SOL    HW329589   4.451   2.862   1.044  0.3733  1.2684 -0.5778
 7454SOL    MW429590   4.410   2.861   0.967 -0.5001  0.1359  0.3431
 7455SOL     OW29591   0.453   2.845   4.244 -0.3658 -0.4803 -0.2437
 7455SOL    HW229592   0.488   2.906   4.309 -1.9688 -1.4063  1.5609
 7455SOL    HW329593   0.479   2.884   4.160  0.4140  1.5928  0.8631
 7455SOL    MW429594   0.461   2.859   4.241  0.2652 -0.6709  0.2499
 7456SOL     OW29595   1.034   6.124   2.910 -0.2776 -0.1066  0.5504
 7456SOL    HW229596   0.957   6.098   2.960 -0.2077  0.2187  0.8287
 7456SOL    HW329597   1.014   6.095   2.820  0.6490 -2.9704  1.1579
 7456SOL    MW429598   1.021   6.117   2.904 -0.1378 -0.6817 -0.1208
 7457SOL     OW29599   5.385   4.499   1.698  0.1236  0.0712 -0.3313
 7457SOL    HW229600   5.417   4.566   1.638 -1.6758 -0.0363 -1.4876
 7457SOL    HW329601   5.290   4.506   1.693 -0.1463 -2.8799 -0.8705
 7457SOL    MW429602   5.377   4.509   1.690 -0.4166 -0.1830  0.1728
 7458SOL     OW29603   5.418   0.579   4.530 -0.1400 -0.1091  0.2821
 7458SOL    HW229604   5.452   0.512   4.470  2.9883  0.3905  1.2902
 7458SOL    HW329605   5.326   0.586   4.508  0.1782 -2.1946 -2.2871
 7458SOL    MW429606   5.411   0.571   4.519 -0.4512 -0.4572  0.1027
 7459SOL     OW29607   3.148   2.612   1.628  0.2911 -0.4528  0.0657
 7459SOL    HW229608   3.122   2.540   1.687  1.0806 -1.1938 -0.4635
 7459SOL    HW329609   3.122   2.691   1.675 -0.3052 -1.0673  0.8180
 7459SOL    MW429610   3.141   2.613   1.642 -0.7902  0.8333 -0.6030
 7460SOL     OW29611   2.243   5.548   4.335  0.0213  0.0054  0.2609
 7460SOL    HW229612   2.338   5.535   4.336 -0.2160 -2.2072 -0.3355
 7460SOL    HW329613   2.208   5.463   4.308 -2.1823  0.4991  1.3660
 7460SOL    MW429614   2.251   5.535   4.331  0.5876  0.3758 -0.7837
 7461SOL     OW29615   0.974   5.537   5.407 -0.2371  0.1632 -0.3016
 7461SOL    HW229616   0.942   5.552   5.318 -0.3607 -0.0984 -0.3035
 7461SOL    HW329617   1.024   5.456   5.402 -0.7123 -0.1574 -0.0243
 7461SOL    MW429618   0.976   5.528   5.395 -0.1927  0.4229 -0.1680
 7462SOL     OW29619   2.445   3.053   4.472  0.4658 -0.5665 -0.7772
 7462SOL    HW229620   2.424   2.972   4.424  0.9695 -1.5221  0.5539
 7462SOL    HW329621   2.502   3.101   4.413 -0.7078 -0.6592 -2.0402
 7462SOL    MW429622   2.450   3.048   4.458 -0.2288  0.2204 -0.7895
 7463SOL     OW29623   3.065   2.495   0.258 -0.1702  0.1164  0.1610
 7463SOL    HW229624   3.109   2.556   0.199  0.8257  1.1123  1.8534
 7463SOL    HW329625   3.065   2.412   0.211  2.5161  0.3560 -0.4058
 7463SOL    MW429626   3.071   2.492   0.244 -0.3410 -0.3404 -0.0896
 7464SOL     OW29627   0.748   5.786   3.309  0.6367  0.1332 -0.0897
 7464SOL    HW229628   0.758   5.691   3.311  1.7481  0.1471 -2.2518
 7464SOL    HW329629   0.817   5.819   3.367  2.3447 -0.3383 -1.7582
 7464SOL    MW429630   0.758   5.778   3.317 -0.4456 -0.0209 -1.0066
 7465SOL     OW29631   5.572   0.865   3.945  0.1444 -0.6605 -0.0644
 7465SOL    HW229632   5.581   0.959   3.961  0.4676 -1.0316  2.2995
 7465SOL    HW329633   5.658   0.838   3.911  0.1117 -0.1425 -0.5660
 7465SOL    MW429634   5.585   0.874   3.943  0.1242  0.3556 -0.4694
 7466SOL     OW29635   0.646   3.767   0.187  0.0605 -0.1183 -0.2002
 7466SOL    HW229636   0.576   3.770   0.121  0.1876  2.6493 -0.3202
 7466SOL    HW329637   0.606   3.803   0.266  0.8754 -0.1307  0.2294
 7466SOL    MW429638   0.631   3.772   0.189  0.2603 -0.3707  0.1136
 7467SOL     OW29639   2.517   5.465   3.922  0.6404 -0.7639 -0.1244
 7467SOL    HW229640   2.601   5.419   3.919  2.2395  1.9963 -2.0053
 7467SOL    HW329641   2.483   5.458   3.832 -0.8067 -1.1959  0.4336
 7467SOL    MW429642   2.524   5.458   3.909  0.6469 -0.1487 -0.1329
 7468SOL     OW29643   4.215   4.615   6.170  0.2724  0.6847 -0.4633
 7468SOL    HW229644   4.125   4.646   6.174  0.3803  0.9101  1.2997
 7468SOL    HW329645   4.211   4.525   6.201  0.6005  0.5501 -0.8006
 7468SOL    MW429646   4.203   4.608   6.175 -0.4778 -0.0331 -0.5053
 7469SOL     OW29647   0.890   4.935   3.977 -0.5910  0.5595 -0.5954
 7469SOL    HW229648   0.819   4.877   4.007  0.7126 -0.7691  0.0276
 7469SOL    HW329649   0.966   4.878   3.971  0.7671  2.2520  0.0540
 7469SOL    MW429650   0.890   4.920   3.980 -0.1712 -0.6127  0.4536
 7470SOL     OW29651   1.385   2.723   2.173  0.5264 -0.3887  0.4467
 7470SOL    HW229652   1.430   2.774   2.105 -0.1691  0.0313  0.2836
 7470SOL    HW329653   1.294   2.720   2.143  1.0008 -4.3805 -1.2081
 7470SOL    MW429654   1.379   2.729   2.160  0.1384  0.2417 -0.2065
 7471SOL     OW29655   2.071   4.119   1.692 -0.3199  0.0435  0.0087
 7471SOL    HW229656   2.039   4.197   1.738  0.5293  1.0336 -1.0344
 7471SOL    HW329657   2.165   4.118   1.709  0.2371  1.0389 -2.4288
 7471SOL    MW429658   2.079   4.130   1.700  0.2296  0.3194  0.3294
 7472SOL     OW29659   6.059   6.278   6.020 -0.8065  0.2706  0.1894
 7472SOL    HW229660   6.086   6.219   5.950 -2.3134 -0.9464  0.5645
 7472SOL    HW329661   6.020   6.353   5.975 -0.1031  0.3674 -0.2744
 7472SOL    MW429662   6.057   6.280   6.005 -0.3710  0.6154  0.3504
 7473SOL     OW29663   1.025   1.780   3.400  0.6876  0.2487  0.3231
 7473SOL    HW229664   0.932   1.801   3.412  0.8591 -0.0662  2.5015
 7473SOL    HW329665   1.034   1.768   3.305 -1.1331  1.8767 -0.1316
 7473SOL    MW429666   1.014   1.781   3.389 -0.2245  0.5139  0.4008
 7474SOL     OW29667   4.743   4.087   6.176 -0.3174 -0.1357 -0.0978
 7474SOL    HW229668   4.668   4.093   6.117  1.0879  0.9471 -1.8593
 7474SOL    HW329669   4.766   4.177   6.196 -0.0496 -0.4707  1.1912
 7474SOL    MW429670   4.736   4.099   6.171  0.1896 -0.2080 -0.2465
 7475SOL     OW29671   4.880   6.197   3.179  0.4142  0.3739  0.3109
 7475SOL    HW229672   4.926   6.251   3.242  0.1929  0.6575  0.2289
 7475SOL    HW329673   4.884   6.247   3.097  0.8954 -0.0890  0.0403
 7475SOL    MW429674   4.887   6.210   3.176 -0.2505  0.0852 -0.2600
 7476SOL     OW29675   5.951   5.907   4.901 -0.4049  0.1016  0.4215
 7476SOL    HW229676   6.031   5.865   4.931 -0.6932 -1.3736 -0.7515
 7476SOL    HW329677   5.891   5.900   4.975 -0.0887 -0.5830  0.6196
 7476SOL    MW429678   5.954   5.901   4.914  0.1923  0.4716 -0.0781
 7477SOL     OW29679   1.682   6.418   0.623  0.3675  0.2908  0.2248
 7477SOL    HW229680   1.663   6.424   0.716  1.8443 -2.0878  0.7628
 7477SOL    HW329681   1.603   6.381   0.584  0.0427  0.5436  0.6402
 7477SOL    MW429682   1.669   6.414   0.630  0.2582 -0.6511 -0.5129
 7478SOL     OW29683   0.872   1.796   4.295  0.1489 -0.0917 -0.0531
 7478SOL    HW229684   0.873   1.886   4.329 -1.0382 -0.1016  0.0552
 7478SOL    HW329685   0.864   1.741   4.374  1.2918 -0.3340 -0.0845
 7478SOL    MW429686   0.871   1.801   4.310  0.2622 -0.0568 -0.0560
 7479SOL     OW29687   6.090   0.585   3.456  0.4184  0.7285 -0.2588
 7479SOL    HW229688   6.178   0.619   3.470  0.4336  0.3713  0.6430
 7479SOL    HW329689   6.054   0.637   3.385  1.7716  0.1138 -1.4447
 7479SOL    MW429690   6.097   0.596   3.448  0.3929  0.0350 -0.0893
 7480SOL     OW29691   1.766   5.131   5.077 -0.5183 -0.4311  0.2087
 7480SOL    HW229692   1.759   5.155   4.984  0.5323 -0.2588  0.1622
 7480SOL    HW329693   1.859   5.113   5.090 -0.4887  0.5135  1.4761
 7480SOL    MW429694   1.778   5.132   5.066 -0.2526  0.4207 -0.0530
 7481SOL     OW29695   5.237   1.746   4.808 -0.2401 -0.1598  0.5433
 7481SOL    HW229696   5.258   1.795   4.728 -3.7811  1.8370  0.6173
 7481SOL    HW329697   5.275   1.798   4.879  0.7552 -0.5789  0.3301
 7481SOL    MW429698   5.245   1.759   4.807 -0.8605  0.4430  0.3301
 7482SOL     OW29699   3.962   6.110   3.311  0.4761  0.3970 -0.1580
 7482SOL    HW229700   3.933   6.076   3.395 -1.8477  0.7040 -0.7705
 7482SOL    HW329701   4.010   6.190   3.333  1.2435 -0.3441  0.9430
 7482SOL    MW429702   3.965   6.116   3.325  0.0225 -0.4555 -0.0803
 7483SOL     OW29703   1.647   4.877   2.276 -0.8313 -0.3012  0.0202
 7483SOL    HW229704   1.644   4.807   2.341 -2.7913  0.3194  0.7035
 7483SOL    HW329705   1.700   4.843   2.204 -1.2501 -2.2370  0.5870
 7483SOL    MW429706   1.653   4.864   2.275  0.4068  0.4684 -0.4189
 7484SOL     OW29707   5.665   0.440   4.077 -0.5845 -0.5598 -0.1147
 7484SOL    HW229708   5.620   0.442   3.992 -0.4516  0.5221 -0.1734
 7484SOL    HW329709   5.598   0.463   4.141 -0.1840  0.9481 -0.1909
 7484SOL    MW429710   5.650   0.443   4.074  0.3437 -0.3890 -0.5281
 7485SOL     OW29711   4.392   6.087   5.535 -0.4539 -0.0941  0.0178
 7485SOL    HW229712   4.310   6.135   5.522 -0.8461 -0.4797  1.0390
 7485SOL    HW329713   4.458   6.142   5.492 -0.9614  1.1285  0.7422
 7485SOL    MW429714   4.390   6.101   5.527  0.1376 -0.2449 -0.0891
 7486SOL     OW29715   0.787   0.662   3.386 -0.3310  0.0559 -0.2884
 7486SOL    HW229716   0.875   0.697   3.397 -0.1103 -1.0394  2.3329
 7486SOL    HW329717   0.800   0.571   3.359 -0.6071 -0.3042  0.7516
 7486SOL    MW429718   0.800   0.655   3.384 -0.8037 -0.1116  1.0119
 7487SOL     OW29719   4.664   5.301   1.512 -0.0855  0.6001 -0.7194
 7487SOL    HW229720   4.680   5.349   1.430  0.1861 -1.2639 -1.8200
 7487SOL    HW329721   4.626   5.218   1.484 -1.4303  0.5029  1.1835
 7487SOL    MW429722   4.661   5.296   1.497  0.0286 -0.1175  0.3508
 7488SOL     OW29723   4.740   1.442   2.082 -0.0599 -0.3482  0.3260
 7488SOL    HW229724   4.824   1.486   2.071  0.4912 -1.0219  1.6637
 7488SOL    HW329725   4.758   1.350   2.059 -0.5317 -0.4232  0.2452
 7488SOL    MW429726   4.754   1.435   2.077 -0.5648  0.4477 -0.1691
 7489SOL     OW29727   5.722   2.994   3.348  0.2975 -0.7555 -0.3632
 7489SOL    HW229728   5.677   3.009   3.265 -0.6819  0.4047  0.3392
 7489SOL    HW329729   5.677   2.919   3.386 -0.6730  0.0153  0.0534
 7489SOL    MW429730   5.710   2.986   3.342 -0.4170  0.6330 -0.0125
 7490SOL     OW29731   2.386   1.005   3.195  0.9150  0.8294  0.0867
 7490SOL    HW229732   2.451   0.988   3.262 -0.0479 -0.6831  0.6997
 7490SOL    HW329733   2.330   0.927   3.196  0.9060  0.7194 -2.5093
 7490SOL    MW429734   2.387   0.992   3.204 -0.1020 -0.0056 -0.1736
 7491SOL     OW29735   2.089   2.918   3.203  0.0804 -0.2698 -0.0281
 7491SOL    HW229736   2.110   2.872   3.284 -1.0227 -1.4409 -0.3696
 7491SOL    HW329737   1.994   2.906   3.193 -0.0697  1.2558 -0.6523
 7491SOL    MW429738   2.079   2.910   3.212 -0.6004 -0.2678  0.8153
 7492SOL     OW29739   4.611   5.592   1.089  0.1182  0.2379  0.3522
 7492SOL    HW229740   4.599   5.670   1.035 -0.8505  0.0571  0.2856
 7492SOL    HW329741   4.659   5.531   1.033  0.5716  0.6530  0.2830
 7492SOL    MW429742   4.616   5.594   1.075  0.2927 -0.6722  0.4164
 7493SOL     OW29743   1.175   5.796   3.348 -0.4830 -0.3516 -0.0694
 7493SOL    HW229744   1.184   5.852   3.425  0.1555 -0.4090 -0.0921
 7493SOL    HW329745   1.261   5.754   3.339 -0.1853  0.5070 -1.4744
 7493SOL    MW429746   1.188   5.798   3.357 -0.0755 -0.1047  0.3558
 7494SOL     OW29747   0.976   1.268   0.288  0.1632 -0.3782 -0.8016
 7494SOL    HW229748   1.041   1.241   0.223  1.0443 -0.1737 -0.0158
 7494SOL    HW329749   1.022   1.265   0.371 -1.1217 -1.2233 -0.0824
 7494SOL    MW429750   0.990   1.264   0.290 -0.4141 -0.5189 -0.4771
 7495SOL     OW29751   3.360   4.733   4.615 -0.4873 -0.0576 -0.5403
 7495SOL    HW229752   3.396   4.671   4.679  2.7672  2.5655  0.4576
 7495SOL    HW329753   3.362   4.685   4.532 -0.2502 -1.9812  0.5099
 7495SOL    MW429754   3.365   4.719   4.612  0.2454 -0.0354  0.3852
 7496SOL     OW29755   0.024   6.180   3.898  0.2165  0.1391 -0.1602
 7496SOL    HW229756   0.028   6.091   3.862  1.1597 -0.9623  2.4663
 7496SOL    HW329757   0.030   6.168   3.993 -0.2618  2.9944  0.3136
 7496SOL    MW429758   0.025   6.167   3.906 -0.0002  0.1783  0.1903
 7497SOL     OW29759   2.260   4.993   6.154 -0.0159  0.0544 -0.3765
 7497SOL    HW229760   2.337   5.048   6.138  0.7221 -0.7121  0.4326
 7497SOL    HW329761   2.220   5.030   6.232  1.4247 -1.4848  1.1754
 7497SOL    MW429762   2.265   5.005   6.162 -0.2972 -0.2532 -0.2440
 7498SOL     OW29763   4.644   0.717   6.246  0.1469 -0.2665  0.2130
 7498SOL    HW229764   4.675   0.664   6.172  1.4246  0.6110  0.0933
 7498SOL    HW329765   4.574   0.771   6.210  0.8618  0.2644 -0.4121
 7498SOL    MW429766   4.639   0.717   6.232 -0.2536 -0.2139 -0.5206
 7499SOL     OW29767   1.832   2.947   1.085 -0.2411  0.9653  0.1738
 7499SOL    HW229768   1.838   2.852   1.072  0.1086  0.9802  0.2023
 7499SOL    HW329769   1.764   2.975   1.024 -0.3469  0.6943  0.1656
 7499SOL    MW429770   1.824   2.938   1.075  0.0070  0.1647  0.2550
 7500SOL     OW29771   0.480   3.681   3.474 -0.0690 -0.0691  0.5038
 7500SOL    HW229772   0.528   3.691   3.392 -0.3786  2.3618  0.5384
 7500SOL    HW329773   0.462   3.587   3.480  0.8001 -0.4484 -1.7091
 7500SOL    MW429774   0.484   3.670   3.464 -0.6510 -0.0034 -0.3720
 7501SOL     OW29775   4.309   2.645   3.431 -0.4238 -0.4305 -0.6337
 7501SOL    HW229776   4.255   2.566   3.436 -0.4796 -0.3280  2.2352
 7501SOL    HW329777   4.398   2.614   3.450 -0.4536  0.1653  0.5505
 7501SOL    MW429778   4.314   2.630   3.434 -0.0331  0.7936 -0.1808
 7502SOL     OW29779   1.415   1.466   3.177  0.0271  1.1379  0.3205
 7502SOL    HW229780   1.428   1.515   3.096  2.9980 -0.5615 -0.3832
 7502SOL    HW329781   1.468   1.513   3.242  1.7347 -0.1926 -0.0214
 7502SOL    MW429782   1.424   1.479   3.175  0.1617  0.5891  0.4920
 7503SOL     OW29783   1.416   0.979   4.033 -0.1038  0.4530 -0.2039
 7503SOL    HW229784   1.430   0.927   4.112 -0.3071 -0.8523 -1.0108
 7503SOL    HW329785   1.362   0.924   3.976 -0.5303  1.6375 -0.9982
 7503SOL    MW429786   1.410   0.965   4.036  0.4227  0.1185  0.2627
 7504SOL     OW29787   2.502   5.001   2.886  0.2088 -0.0213  0.7453
 7504SOL    HW229788   2.499   5.065   2.958 -0.8600 -0.5179  1.1685
 7504SOL    HW329789   2.591   4.968   2.887 -0.0262 -0.7477  2.5283
 7504SOL    MW429790   2.513   5.005   2.896  0.5915 -0.8531  0.0671
 7505SOL     OW29791   4.204   3.703   3.744 -0.6011 -0.0072  0.0135
 7505SOL    HW229792   4.297   3.700   3.720 -0.5520 -2.3716  0.2251
 7505SOL    HW329793   4.160   3.662   3.670 -0.9958 -2.5829  1.5567
 7505SOL    MW429794   4.211   3.697   3.731 -0.3106 -0.4707 -0.0104
 7506SOL     OW29795   3.027   2.947   1.511  0.0987 -0.6767 -0.3841
 7506SOL    HW229796   3.122   2.957   1.506  0.2484 -1.0906  1.1206
 7506SOL    HW329797   3.011   2.919   1.601 -1.5249  0.1995 -0.3709
 7506SOL    MW429798   3.038   2.945   1.522 -0.1463  0.0587 -0.0484
 7507SOL     OW29799   1.222   3.410   3.952  0.0974  0.1824 -0.2050
 7507SOL    HW229800   1.211   3.423   4.046 -0.5967  0.0820 -0.2613
 7507SOL    HW329801   1.265   3.490   3.921  2.0919 -0.5735  0.4643
 7507SOL    MW429802   1.226   3.423   3.960 -0.2717  0.7456  0.3464
 7508SOL     OW29803   6.337   1.596   4.819  0.1446  0.5847 -0.1612
 7508SOL    HW229804   6.411   1.542   4.846 -0.0469  0.7359  0.6873
 7508SOL    HW329805   6.268   1.574   4.882 -1.2599 -1.1451 -2.1254
 7508SOL    MW429806   6.337   1.586   4.831  0.4144  0.4971  0.2172
 7509SOL     OW29807   0.205   0.302   4.764 -0.0314  0.3166  0.6842
 7509SOL    HW229808   0.112   0.312   4.746  0.2359  0.9841 -0.4500
 7509SOL    HW329809   0.213   0.217   4.807 -1.0397 -0.2099 -0.1438
 7509SOL    MW429810   0.194   0.292   4.767  0.0256  0.0060  0.1981
 7510SOL     OW29811   5.549   6.184   6.366  0.4245 -0.5425  0.1948
 7510SOL    HW229812   5.637   6.198   6.403  0.1800 -1.7215  1.2912
 7510SOL    HW329813   5.514   6.272   6.353  1.7725 -0.0510 -0.2859
 7510SOL    MW429814   5.556   6.197   6.369  0.0071 -0.9525  0.1942
 7511SOL     OW29815   3.779   1.402   1.741 -0.1681 -0.1897 -0.3348
 7511SOL    HW229816   3.754   1.379   1.830  0.3328  0.0127 -0.1349
 7511SOL    HW329817   3.848   1.340   1.719 -1.3823 -1.2634 -1.1765
 7511SOL    MW429818   3.785   1.391   1.750  0.0658 -0.0038 -0.2000
 7512SOL     OW29819   0.138   4.762   0.892  0.3158 -0.3229 -0.1145
 7512SOL    HW229820   0.066   4.743   0.832 -0.0336 -0.6374  0.3974
 7512SOL    HW329821   0.095   4.786   0.974  0.7987 -1.0617  0.3614
 7512SOL    MW429822   0.123   4.763   0.895  0.1007  0.4342 -0.2700
 7513SOL     OW29823   4.254   5.653   0.620 -0.8211 -0.0144 -0.1964
 7513SOL    HW229824   4.251   5.607   0.536 -0.8434 -0.7351  0.1889
 7513SOL    HW329825   4.326   5.611   0.668  0.8730  2.0635 -0.7901
 7513SOL    MW429826   4.263   5.641   0.615  0.3234 -0.2076  0.1596
 7514SOL     OW29827   6.403   6.382   2.856 -0.1906  0.0077 -0.2119
 7514SOL    HW229828   6.437   6.433   2.783  2.9338  2.1797  2.4440
 7514SOL    HW329829   6.457   6.304   2.858  0.8718  0.7238  0.6105
 7514SOL    MW429830   6.415   6.379   2.847  0.3217 -0.1182  0.0077
 7515SOL     OW29831   2.188   0.822   4.754 -0.1433 -0.4985  0.2552
 7515SOL    HW229832   2.219   0.837   4.843 -1.4988  0.4849  0.5856
 7515SOL    HW329833   2.093   0.833   4.759 -0.1941  0.0730 -1.3976
 7515SOL    MW429834   2.180   0.826   4.766  0.6486  0.0686 -0.1183
 7516SOL     OW29835   5.001   4.561   2.319  0.5848  0.5699 -0.6753
 7516SOL    HW229836   5.084   4.586   2.358  0.6059 -0.0731 -0.2869
 7516SOL    HW329837   5.024   4.504   2.245  0.4852 -0.0904 -0.2102
 7516SOL    MW429838   5.015   4.557   2.314  0.5318  0.0437  0.2330
 7517SOL     OW29839   1.408   0.355   1.284  0.4790 -0.2075  0.3078
 7517SOL    HW229840   1.459   0.328   1.208 -0.8115 -0.0613 -0.6388
 7517SOL    HW329841   1.420   0.449   1.290 -0.1104 -0.0944 -0.2462
 7517SOL    MW429842   1.416   0.364   1.275  0.2028  0.4654 -0.2743
 7518SOL     OW29843   1.706   5.488   1.403 -0.0941 -0.1836  0.3381
 7518SOL    HW229844   1.724   5.395   1.387  0.7712  0.1392 -0.7317
 7518SOL    HW329845   1.787   5.522   1.439 -0.7651 -0.0448  1.7914
 7518SOL    MW429846   1.719   5.480   1.406 -0.0571 -0.4173 -0.1475
 7519SOL     OW29847   2.106   4.941   2.734 -0.1043 -0.3002  0.2514
 7519SOL    HW229848   2.164   4.951   2.659 -1.2162  1.4357 -0.4264
 7519SOL    HW329849   2.037   4.881   2.703 -0.2611 -0.0283  0.0768
 7519SOL    MW429850   2.104   4.934   2.720 -0.3622 -0.3848  0.1043
 7520SOL     OW29851   4.662   2.598   5.075  0.1468 -0.1702  0.3506
 7520SOL    HW229852   4.717   2.660   5.122  0.2737  0.9808 -1.2347
 7520SOL    HW329853   4.580   2.596   5.125  1.0954 -0.8617  1.9566
 7520SOL    MW429854   4.658   2.606   5.088 -0.7782  0.1408  0.1476
 7521SOL     OW29855   2.756   3.130   0.204  0.3724 -0.6469 -0.6249
 7521SOL    HW229856   2.831   3.130   0.264 -0.4654 -1.5294  0.4797
 7521SOL    HW329857   2.716   3.217   0.216  0.2203 -0.8079  0.1137
 7521SOL    MW429858   2.761   3.142   0.214 -0.1815  0.4794 -0.2624
 7522SOL     OW29859   5.950   4.885   3.605  0.2813  0.0021 -0.5551
 7522SOL    HW229860   6.009   4.920   3.538  0.3195 -1.0393 -1.0896
 7522SOL    HW329861   5.962   4.790   3.600 -0.6521 -0.1640  0.0678
 7522SOL    MW429862   5.960   4.877   3.595 -0.1338 -0.4065 -0.0410
 7523SOL     OW29863   4.094   0.647   4.154  0.1856  0.1992 -0.1657
 7523SOL    HW229864   4.139   0.620   4.233  1.2169 -1.6127 -1.2945
 7523SOL    HW329865   4.153   0.623   4.083 -1.1100  0.8859 -1.5501
 7523SOL    MW429866   4.108   0.640   4.155 -0.1904  0.6134  0.0557
 7524SOL     OW29867   0.501   2.569   3.850  0.2238  0.0106  0.1965
 7524SOL    HW229868   0.462   2.499   3.798  1.4393  0.3843 -1.2810
 7524SOL    HW329869   0.578   2.529   3.890  1.5311  0.7107 -1.5004
 7524SOL    MW429870   0.506   2.555   3.848 -0.3177 -0.3350  0.0038
 7525SOL     OW29871   1.425   5.858   3.045  0.5618 -0.1196 -0.3869
 7525SOL    HW229872   1.450   5.804   2.970 -0.6679  0.6066 -1.3650
 7525SOL    HW329873   1.384   5.935   3.006 -1.3689 -0.3562  1.0601
 7525SOL    MW429874   1.423   5.861   3.030 -0.2882  0.4308  0.5612
 7526SOL     OW29875   0.102   6.383   5.496  0.4110  0.1645  0.2032
 7526SOL    HW229876   0.072   6.314   5.437  0.5526 -0.6383  1.0463
 7526SOL    HW329877   0.091   6.346   5.584  1.0720  0.9861  0.6462
 7526SOL    MW429878   0.096   6.369   5.500  0.2880  0.3294 -0.0215
 7527SOL     OW29879   1.135   2.484   1.026 -0.0105  0.5908 -0.2229
 7527SOL    HW229880   1.071   2.549   0.999 -0.1875  0.5095 -0.0026
 7527SOL    HW329881   1.204   2.489   0.960  1.3130  2.8765  1.2121
 7527SOL    MW429882   1.135   2.493   1.013  0.8889  0.3613 -0.0244
 7528SOL     OW29883   5.634   3.054   1.090  0.5874  0.1127 -0.3869
 7528SOL    HW229884   5.539   3.062   1.102  0.8798  2.6775  0.9391
 7528SOL    HW329885   5.646   3.056   0.995 -0.6957 -0.7265 -0.5950
 7528SOL    MW429886   5.623   3.056   1.079 -0.0180 -0.1983  0.0974
 7529SOL     OW29887   5.876   2.195   2.074  0.6190 -0.0242 -0.0911
 7529SOL    HW229888   5.875   2.204   2.169  1.4028 -1.7655  0.1155
 7529SOL    HW329889   5.968   2.180   2.052  0.3775 -0.1112 -1.0804
 7529SOL    MW429890   5.888   2.194   2.083  0.3249 -0.7847  0.1219
 7530SOL     OW29891   1.016   3.949   0.824 -0.0303 -0.2622 -0.2245
 7530SOL    HW229892   1.057   3.906   0.749 -0.1570  0.9173 -0.9942
 7530SOL    HW329893   0.935   3.900   0.838 -0.7779  0.4130 -1.8631
 7530SOL    MW429894   1.011   3.937   0.816 -0.1866  0.2066 -0.4605
 7531SOL     OW29895   0.158   3.301   0.646  0.4106 -0.0881 -0.5808
 7531SOL    HW229896   0.153   3.387   0.688 -0.6717 -0.9340  1.1393
 7531SOL    HW329897   0.239   3.262   0.678  0.3351 -0.1508 -0.4664
 7531SOL    MW429898   0.168   3.307   0.655  0.0127 -0.2275  0.1351
 7532SOL     OW29899   6.095   5.422   3.852  0.3971  0.5365  0.2344
 7532SOL    HW229900   6.055   5.342   3.817  0.4904  0.8023 -0.5051
 7532SOL    HW329901   6.070   5.423   3.944  0.7904 -0.5900  0.3678
 7532SOL    MW429902   6.086   5.412   3.859 -0.5146  0.1149 -0.1896
 7533SOL     OW29903   1.851   4.843   5.091 -0.1372  0.3557  0.1077
 7533SOL    HW229904   1.790   4.911   5.065  1.3349  1.8275  0.3509
 7533SOL    HW329905   1.884   4.871   5.176  0.3774 -0.7455  0.2910
 7533SOL    MW429906   1.848   4.856   5.099  0.1067 -0.6230 -0.0220
 7534SOL     OW29907   4.234   5.580   0.342 -0.0185 -0.2100 -0.6555
 7534SOL    HW229908   4.186   5.497   0.348 -0.1077 -0.1653 -0.7446
 7534SOL    HW329909   4.264   5.583   0.251 -0.0309 -0.1348 -0.6567
 7534SOL    MW429910   4.232   5.569   0.330 -0.1964  0.1696  0.1071
 7535SOL     OW29911   0.245   4.270   4.865 -0.7758 -0.1535  0.7044
 7535SOL    HW229912   0.332   4.239   4.840 -1.3183 -1.5869  0.4766
 7535SOL    HW329913   0.239   4.358   4.829  0.2496 -0.3867 -0.0701
 7535SOL    MW429914   0.255   4.277   4.857  0.1003 -0.3448  0.4370
 7536SOL     OW29915   2.634   3.091   1.890  0.3441 -0.9407  0.0312
 7536SOL    HW229916   2.606   3.015   1.940 -0.3130 -1.0946 -0.5571
 7536SOL    HW329917   2.595   3.079   1.803 -1.2291  0.9120  0.4127
 7536SOL    MW429918   2.625   3.080   1.885 -0.0125  0.2933 -0.4894
 7537SOL     OW29919   2.630   2.979   0.684  0.0187  0.0926  0.3024
 7537SOL    HW229920   2.649   2.888   0.704  0.7323  0.3104  0.6405
 7537SOL    HW329921   2.675   3.029   0.753 -1.9197  0.6226  1.2553
 7537SOL    MW429922   2.638   2.974   0.696  0.3133 -0.4029 -0.0813
 7538SOL     OW29923   3.477   5.688   3.611 -0.4640 -0.6942  0.6639
 7538SOL    HW229924   3.532   5.644   3.675  1.9344 -1.3637 -1.6843
 7538SOL    HW329925   3.526   5.766   3.585 -2.0451  0.3542  0.6317
 7538SOL    MW429926   3.490   5.693   3.616  0.3715  0.1117 -0.1238
 7539SOL     OW29927   1.665   3.444   5.559 -0.1646 -0.4289 -0.4695
 7539SOL    HW229928   1.759   3.461   5.558 -0.2846  0.3702  0.0650
 7539SOL    HW329929   1.657   3.349   5.560  0.6196 -0.5167 -1.3953
 7539SOL    MW429930   1.676   3.434   5.559 -0.1488  0.0986  0.5582
 7540SOL     OW29931   0.758   5.064   3.782  0.1894  0.6698 -0.0398
 7540SOL    HW229932   0.801   5.030   3.861 -4.0721 -0.1694  2.2068
 7540SOL    HW329933   0.786   5.155   3.777  3.2223 -0.1357  0.3295
 7540SOL    MW429934   0.767   5.072   3.791 -0.1123 -0.9434  0.1528
 7541SOL     OW29935   6.309   3.884   2.916  0.1856 -0.1777  0.2414
 7541SOL    HW229936   6.227   3.868   2.962  0.1498 -1.0353 -0.1011
 7541SOL    HW329937   6.283   3.895   2.824  0.5770 -2.0287 -0.1311
 7541SOL    MW429938   6.295   3.883   2.910 -0.1251  0.1813 -0.1263
 7542SOL     OW29939   2.419   5.524   0.146  0.1680 -0.3028  0.0280
 7542SOL    HW229940   2.483   5.536   0.216  1.0600 -1.0896 -0.6113
 7542SOL    HW329941   2.366   5.450   0.175  1.0880 -1.1874 -0.4875
 7542SOL    MW429942   2.420   5.516   0.159 -0.0189  0.2915 -0.5937
 7543SOL     OW29943   1.613   0.451   3.058 -0.0733 -0.3542 -0.0967
 7543SOL    HW229944   1.557   0.528   3.067 -0.6077 -0.6187 -0.9480
 7543SOL    HW329945   1.574   0.403   2.985  2.1239  0.2001 -1.7316
 7543SOL    MW429946   1.601   0.455   3.049 -0.0160 -0.0200  0.1273
 7544SOL     OW29947   2.326   4.823   3.583 -0.1204  0.1561  0.2403
 7544SOL    HW229948   2.397   4.805   3.644 -0.2074  0.8195  0.5419
 7544SOL    HW329949   2.358   4.894   3.527  0.5729 -1.4880 -1.5501
 7544SOL    MW429950   2.339   4.830   3.584 -0.3481  0.5761 -0.2611
 7545SOL     OW29951   0.959   5.376   1.546  0.1716 -0.5425  0.5840
 7545SOL    HW229952   1.049   5.404   1.533  0.2803  0.3661  2.7690
 7545SOL    HW329953   0.911   5.458   1.560 -0.4531 -1.1225  2.1089
 7545SOL    MW429954   0.964   5.391   1.546 -0.3936  0.0537  0.0652
 7546SOL     OW29955   4.091   0.799   0.353  0.4797  0.3296 -0.4260
 7546SOL    HW229956   3.999   0.786   0.376  0.4569 -0.5811 -0.9800
 7546SOL    HW329957   4.109   0.889   0.378  0.4078 -0.4517  3.0614
 7546SOL    MW429958   4.081   0.809   0.360  0.5039 -0.4722 -0.2985
 7547SOL     OW29959   3.513   3.451   2.418 -0.5345 -0.1475 -0.1541
 7547SOL    HW229960   3.417   3.450   2.419 -0.5706  1.2274  1.5938
 7547SOL    HW329961   3.538   3.411   2.501  0.4320 -0.5183 -0.6089
 7547SOL    MW429962   3.503   3.445   2.429  0.0727  1.3006  0.0316
 7548SOL     OW29963   5.642   3.328   4.542 -0.0791 -0.6810 -0.1953
 7548SOL    HW229964   5.561   3.376   4.559 -0.2323 -1.6551  2.2014
 7548SOL    HW329965   5.619   3.270   4.469 -0.8328  0.5833 -1.0138
 7548SOL    MW429966   5.628   3.326   4.535 -0.4327 -0.5475 -0.0325
 7549SOL     OW29967   5.958   0.489   5.724  0.3539  0.5951 -0.2825
 7549SOL    HW229968   5.900   0.505   5.649  0.4595  0.0506 -0.4854
 7549SOL    HW329969   5.954   0.570   5.775  0.3001  0.9854 -0.8896
 7549SOL    MW429970   5.950   0.502   5.720  0.0067 -0.1765  0.3798
 7550SOL     OW29971   3.857   6.134   4.666  0.0385  0.6583 -0.5672
 7550SOL    HW229972   3.859   6.187   4.745  0.4257  1.0950 -0.8603
 7550SOL    HW329973   3.862   6.197   4.594 -1.1107  0.3180 -0.9641
 7550SOL    MW429974   3.858   6.149   4.667  0.2627 -0.8289  0.5891
 7551SOL     OW29975   5.235   1.210   5.950  0.3236 -0.1547 -0.0421
 7551SOL    HW229976   5.319   1.255   5.959 -0.3087  1.3422 -1.2512
 7551SOL    HW329977   5.179   1.272   5.903 -0.4352 -2.4130 -2.3457
 7551SOL    MW429978   5.238   1.224   5.945 -0.0626  0.0432 -0.3917
 7552SOL     OW29979   5.160   5.085   2.567 -0.0437  0.7415 -0.0395
 7552SOL    HW229980   5.072   5.051   2.585  0.2857  0.2365  0.6946
 7552SOL    HW329981   5.219   5.018   2.603  0.6531  0.7374 -1.1486
 7552SOL    MW429982   5.156   5.071   2.574  0.0852 -1.0338 -0.4607
 7553SOL     OW29983   2.125   2.361   3.542 -0.4701  0.0172  0.6352
 7553SOL    HW229984   2.047   2.343   3.594 -0.0273 -1.3009  0.9031
 7553SOL    HW329985   2.092   2.374   3.453 -0.9500 -1.5002  0.5584
 7553SOL    MW429986   2.111   2.360   3.537 -0.0400 -0.0381 -0.3738
 7554SOL     OW29987   0.963   1.467   1.078  0.4514  0.7985  0.1219
 7554SOL    HW229988   0.870   1.471   1.101 -0.3222  1.7503 -2.8236
 7554SOL    HW329989   0.979   1.374   1.063 -0.4363  0.7754 -0.7816
 7554SOL    MW429990   0.953   1.455   1.079 -0.2097 -0.1679  0.0271
 7555SOL     OW29991   5.465   6.353   2.418  0.0656 -0.0046  0.9563
 7555SOL    HW229992   5.403   6.426   2.423 -0.4723 -0.3744 -0.0681
 7555SOL    HW329993   5.493   6.351   2.327 -1.0551 -1.9860  0.6068
 7555SOL    MW429994   5.461   6.363   2.407  1.0866  0.3584 -0.5955
 7556SOL     OW29995   3.179   0.195   1.777  0.0842 -0.2936 -0.2162
 7556SOL    HW229996   3.186   0.275   1.830 -0.4845  0.3651 -1.0910
 7556SOL    HW329997   3.133   0.133   1.834 -0.7597  0.4894 -0.0019
 7556SOL    MW429998   3.174   0.198   1.792 -0.5639 -0.0529 -0.1534
 7557SOL     OW29999   3.925   3.867   0.629  0.0218  0.1180  0.5105
 7557SOL    HW230000   3.918   3.840   0.721 -0.8022 -2.0070 -0.1187
 7557SOL    HW330001   3.852   3.822   0.585 -0.3344  2.0240 -1.0079
 7557SOL    MW430002   3.914   3.858   0.635 -0.3708  0.6802 -0.3216
 7558SOL     OW30003   2.421   3.229   2.813 -0.0566  0.4405 -0.0586
 7558SOL    HW230004   2.344   3.180   2.784  0.0632  2.3955 -4.4682
 7558SOL    HW330005   2.491   3.163   2.814 -0.5951 -0.2578 -2.3069
 7558SOL    MW430006   2.420   3.214   2.809  0.0991  0.5198 -0.7885
 7559SOL     OW30007   1.809   5.695   0.095 -0.3771 -0.1300 -0.1485
 7559SOL    HW230008   1.903   5.703   0.108 -0.4121 -0.6951  0.4892
 7559SOL    HW330009   1.780   5.784   0.075  0.2009  0.1479  0.2254
 7559SOL    MW430010   1.817   5.708   0.094 -0.1168  0.2861 -0.1761
 7560SOL     OW30011   0.989   1.163   3.271  0.4000 -0.4840  0.7254
 7560SOL    HW230012   1.073   1.132   3.305  0.8804 -0.1835 -0.1336
 7560SOL    HW330013   0.992   1.258   3.283  1.2983 -0.1438 -1.5468
 7560SOL    MW430014   1.001   1.172   3.277  0.5872 -0.3885  0.2121
 7561SOL     OW30015   2.565   0.728   3.299  0.2771 -0.0073 -0.2135
 7561SOL    HW230016   2.594   0.799   3.355 -1.6846  3.1166 -2.8075
 7561SOL    HW330017   2.635   0.719   3.234  0.4074 -0.2904 -0.0358
 7561SOL    MW430018   2.578   0.736   3.298  1.6233  0.5397 -0.0068
 7562SOL     OW30019   1.417   4.644   2.751 -0.0678 -0.3420 -0.0302
 7562SOL    HW230020   1.334   4.628   2.706 -0.5298  0.9619  0.3259
 7562SOL    HW330021   1.419   4.579   2.822 -1.7921  0.9149  1.2514
 7562SOL    MW430022   1.407   4.633   2.755  0.3486  0.2010  0.6116
 7563SOL     OW30023   6.313   0.603   4.081 -0.4153 -0.2759 -0.2796
 7563SOL    HW230024   6.285   0.545   4.011 -0.6036 -0.5507  0.0207
 7563SOL    HW330025   6.330   0.687   4.038  1.4428 -0.9716 -1.0030
 7563SOL    MW430026   6.312   0.607   4.066 -0.0661  0.2324 -0.0015
 7564SOL     OW30027   1.789   0.684   4.379  0.4770 -0.5102 -0.0381
 7564SOL    HW230028   1.852   0.611   4.378 -0.4510 -1.3676 -1.8845
 7564SOL    HW330029   1.706   0.642   4.403 -0.0473 -0.0501 -1.0310
 7564SOL    MW430030   1.786   0.669   4.382  0.6130 -0.2173 -0.5783
 7565SOL     OW30031   2.118   2.336   6.002  0.1616  0.1348  0.5407
 7565SOL    HW230032   2.079   2.266   5.950 -0.9014  0.1062  1.3427
 7565SOL    HW330033   2.169   2.291   6.069 -1.0393  0.0913  1.4497
 7565SOL    MW430034   2.120   2.321   6.004 -0.4311  0.6753  0.1090
 7566SOL     OW30035   0.417   2.354   0.899  0.9615  0.6074  0.2186
 7566SOL    HW230036   0.465   2.436   0.912 -0.2773  1.2353  1.0231
 7566SOL    HW330037   0.378   2.336   0.984 -1.5754  1.0235 -0.7814
 7566SOL    MW430038   0.418   2.363   0.912 -0.3090  0.6414 -0.6094
 7567SOL     OW30039   5.168   6.162   1.593  0.2035 -0.3411 -0.2694
 7567SOL    HW230040   5.133   6.186   1.678 -0.4137  0.8645 -0.8471
 7567SOL    HW330041   5.093   6.127   1.544  0.7409 -1.9497 -0.0277
 7567SOL    MW430042   5.153   6.160   1.597 -0.4085 -0.4624 -0.2941
 7568SOL     OW30043   2.321   5.247   3.423 -0.8078  0.1093 -0.0474
 7568SOL    HW230044   2.290   5.293   3.345 -2.0359 -0.1717  0.2566
 7568SOL    HW330045   2.354   5.164   3.389 -1.7899 -0.2199 -0.2283
 7568SOL    MW430046   2.321   5.242   3.408 -0.6957  0.1361  0.4845
 7569SOL     OW30047   1.838   6.173   1.948  0.0822 -0.2307  0.4547
 7569SOL    HW230048   1.773   6.106   1.928  0.3081 -0.7417  1.3725
 7569SOL    HW330049   1.920   6.138   1.911  0.3313 -0.7838  1.4950
 7569SOL    MW430050   1.840   6.159   1.940  0.2395 -0.1985 -0.1235
 7570SOL     OW30051   6.011   1.762   5.047 -0.3697 -0.2245 -0.1981
 7570SOL    HW230052   6.094   1.721   5.023 -0.0757  0.9189 -1.3051
 7570SOL    HW330053   5.977   1.709   5.118  0.9557 -1.1557 -0.2196
 7570SOL    MW430054   6.018   1.750   5.053  0.4557  0.1728  0.2946
 7571SOL     OW30055   2.065   0.580   1.915 -0.3332  0.4578  0.1967
 7571SOL    HW230056   2.050   0.485   1.918 -1.6403  0.6663  1.3900
 7571SOL    HW330057   2.125   0.597   1.988 -0.2073  0.5633  0.0688
 7571SOL    MW430058   2.071   0.570   1.925  0.4625 -0.7193 -0.3834
 7572SOL     OW30059   1.551   0.069   3.216 -0.1064 -0.1888 -0.7053
 7572SOL    HW230060   1.611  -0.002   3.241  0.5606  0.5095 -0.2886
 7572SOL    HW330061   1.537   0.118   3.297  0.0611  0.6146 -1.1517
 7572SOL    MW430062   1.557   0.066   3.230  0.2328 -0.1222  0.5187
 7573SOL     OW30063   5.101   4.764   4.818  0.6068  0.2950 -0.5141
 7573SOL    HW230064   5.011   4.749   4.846  0.9967 -0.1629  0.5464
 7573SOL    HW330065   5.102   4.854   4.786 -0.3094  0.1736 -0.9155
 7573SOL    MW430066   5.089   4.774   4.817 -0.1854 -0.0286  0.2561
 7574SOL     OW30067   0.047   3.839   6.358 -0.5392  0.3013  0.1772
 7574SOL    HW230068   0.123   3.847   6.301 -0.4689 -0.2214  0.1871
 7574SOL    HW330069   0.081   3.853   6.447 -0.7561  1.7126  0.0502
 7574SOL    MW430070   0.061   3.842   6.363 -0.0934 -0.2085  0.3406
 7575SOL     OW30071   3.209   2.044   4.456  0.1772 -0.4291  0.1740
 7575SOL    HW230072   3.299   2.013   4.441  0.2839 -0.0217 -0.0366
 7575SOL    HW330073   3.169   1.975   4.509  0.4231 -0.9192 -0.2621
 7575SOL    MW430074   3.216   2.031   4.461  0.9337 -0.0747  0.1386
 7576SOL     OW30075   2.663   4.952   1.225 -0.3440  0.6140 -0.0089
 7576SOL    HW230076   2.682   4.958   1.131 -0.4798  0.3425 -0.0542
 7576SOL    HW330077   2.727   4.890   1.258  0.6917  1.8487  0.3572
 7576SOL    MW430078   2.674   4.945   1.217 -0.2462 -0.0651 -0.4329
 7577SOL     OW30079   4.599   0.484   1.977  0.1163  0.4324  0.5822
 7577SOL    HW230080   4.610   0.418   2.045 -2.5655 -0.5641  0.1777
 7577SOL    HW330081   4.607   0.436   1.894 -2.7855  0.2619  0.2758
 7577SOL    MW430082   4.601   0.469   1.975  0.3076 -0.1041 -0.1082
 7578SOL     OW30083   5.685   1.349   3.764  0.1059  0.2151 -0.0328
 7578SOL    HW230084   5.668   1.333   3.671  0.9465 -1.1570  0.0116
 7578SOL    HW330085   5.604   1.389   3.797 -0.3949  0.2385 -1.2482
 7578SOL    MW430086   5.672   1.352   3.756  0.6809 -0.0613 -0.5363
 7579SOL     OW30087   1.869   4.157   3.481 -0.8665  0.5015 -0.5683
 7579SOL    HW230088   1.835   4.125   3.398  2.5343 -0.6266 -1.7160
 7579SOL    HW330089   1.913   4.239   3.459  1.5442 -0.6327 -0.3961
 7579SOL    MW430090   1.870   4.163   3.467 -0.1039 -0.3304  0.8913
 7580SOL     OW30091   4.466   2.024   2.932 -0.2162 -0.3158  0.4617
 7580SOL    HW230092   4.459   2.064   3.019  0.7821  0.9901 -0.0289
 7580SOL    HW330093   4.558   2.032   2.909 -0.8345  1.6223 -1.7068
 7580SOL    MW430094   4.477   2.030   2.940 -0.4625  1.2117 -0.3849
 7581SOL     OW30095   5.481   0.833   2.307  0.2792 -0.4051  0.1710
 7581SOL    HW230096   5.531   0.805   2.384  0.0398  0.2500  0.5680
 7581SOL    HW330097   5.467   0.926   2.320 -2.1115 -0.7602  0.6873
 7581SOL    MW430098   5.486   0.841   2.319 -0.0563  0.6114  0.1310
 7582SOL     OW30099   4.931   0.148   4.824 -0.7072 -0.1351  0.3780
 7582SOL    HW230100   4.925   0.064   4.870 -0.8179  0.2185  1.0171
 7582SOL    HW330101   4.842   0.183   4.827 -0.6993 -0.0728 -0.0448
 7582SOL    MW430102   4.918   0.141   4.831  0.3609  0.0505  0.9334
 7583SOL     OW30103   1.723   2.358   2.423  0.0487 -0.1437  0.6060
 7583SOL    HW230104   1.753   2.293   2.487 -0.7511  0.7898  1.9767
 7583SOL    HW330105   1.802   2.380   2.374  1.2026  0.6144  2.6606
 7583SOL    MW430106   1.738   2.352   2.425 -0.2557  0.1166  0.0888
 7584SOL     OW30107   1.010   0.567   0.172 -0.2856  0.1382 -0.4903
 7584SOL    HW230108   0.955   0.495   0.200 -0.0740  0.4234  0.6863
 7584SOL    HW330109   1.035   0.545   0.082  1.6987 -2.4628  0.5716
 7584SOL    MW430110   1.006   0.555   0.164  0.0004 -0.0568  0.0245
 7585SOL     OW30111   0.021   0.032   1.511  0.1251 -0.6526 -0.0143
 7585SOL    HW230112   0.006   0.125   1.490 -1.2108 -0.8870 -0.1248
 7585SOL    HW330113   0.077   0.001   1.439  0.3595 -0.0099 -0.1196
 7585SOL    MW430114   0.027   0.040   1.498  0.2010  0.5239  0.6359
 7586SOL     OW30115   4.543   4.207   3.255 -0.2483  0.0759 -0.4886
 7586SOL    HW230116   4.556   4.126   3.205 -1.1840 -0.3919  0.0013
 7586SOL    HW330117   4.593   4.194   3.335 -1.0553 -0.3728 -0.0453
 7586SOL    MW430118   4.552   4.194   3.259  0.1166  0.5335 -0.2683
 7587SOL     OW30119   4.887   3.453   6.165  0.2949 -0.0860 -0.2549
 7587SOL    HW230120   4.809   3.495   6.200 -2.1802 -2.2724 -2.6109
 7587SOL    HW330121   4.881   3.467   6.070  2.8180 -0.3041 -0.5017
 7587SOL    MW430122   4.876   3.460   6.157 -0.7126 -0.2991  0.1673
 7588SOL     OW30123   3.021   2.676   5.727 -0.1081 -0.4793 -0.0496
 7588SOL    HW230124   3.067   2.663   5.810 -1.4410 -2.7819  0.4203
 7588SOL    HW330125   2.938   2.630   5.738 -0.5051 -0.4939 -2.5158
 7588SOL    MW430126   3.016   2.668   5.740 -0.1473 -0.1735  0.9175
 7589SOL     OW30127   4.467   6.360   5.367  0.2750 -0.3416 -0.2302
 7589SOL    HW230128   4.408   6.409   5.310  0.7542 -0.3386 -0.7408
 7589SOL    HW330129   4.469   6.410   5.449 -1.7631 -1.2739  0.4366
 7589SOL    MW430130   4.460   6.373   5.370  0.4154  0.0981 -0.7674
 7590SOL     OW30131   3.286   2.564   4.586  0.0408 -0.1777 -0.1658
 7590SOL    HW230132   3.276   2.617   4.665  0.0333 -1.3161  0.6188
 7590SOL    HW330133   3.356   2.606   4.537 -0.5948  1.0894 -0.0232
 7590SOL    MW430134   3.294   2.576   4.590 -0.4046 -0.2023 -0.4780
 7591SOL     OW30135   1.322   5.021   4.193  0.3877  0.7048  0.0695
 7591SOL    HW230136   1.343   4.959   4.123 -2.5347  1.3140 -1.4856
 7591SOL    HW330137   1.330   5.107   4.151  0.3540  1.1806  1.0248
 7591SOL    MW430138   1.326   5.024   4.178 -0.2336  0.9016 -0.0118
 7592SOL     OW30139   2.502   1.556   2.065 -0.0429  0.1069  0.2594
 7592SOL    HW230140   2.582   1.602   2.090  2.2579 -2.8694 -0.9742
 7592SOL    HW330141   2.505   1.553   1.969 -1.1177 -0.8693  0.2411
 7592SOL    MW430142   2.513   1.561   2.056  0.0278  0.0260 -0.6418
 7593SOL     OW30143   0.813   5.996   3.119 -0.6113 -0.0715 -0.1649
 7593SOL    HW230144   0.765   5.928   3.166 -1.5213  1.0811  0.6045
 7593SOL    HW330145   0.748   6.063   3.099  0.2886  0.6458 -0.8113
 7593SOL    MW430146   0.798   5.996   3.122 -0.8422  0.1424 -0.3273
 7594SOL     OW30147   0.611   0.731   1.361  0.6847  0.3336 -0.0800
 7594SOL    HW230148   0.576   0.671   1.427  0.2302  1.1827  0.4702
 7594SOL    HW330149   0.578   0.697   1.277 -0.0580  0.1512  0.2783
 7594SOL    MW430150   0.602   0.719   1.358  0.0160  0.2611  0.1288
 7595SOL     OW30151   0.507   4.330   0.228  0.3043  0.1088  0.0028
 7595SOL    HW230152   0.601   4.349   0.231  0.1455  0.9137  0.0556
 7595SOL    HW330153   0.494   4.289   0.143  0.7632 -0.3494  0.1475
 7595SOL    MW430154   0.518   4.327   0.217 -0.4613  0.0339 -0.0533
 7596SOL     OW30155   2.138   2.877   6.371 -0.1611 -0.3297 -0.0164
 7596SOL    HW230156   2.211   2.847   6.426  0.0248  1.3763  0.7552
 7596SOL    HW330157   2.060   2.861   6.425 -0.3906 -2.0876 -0.8120
 7596SOL    MW430158   2.137   2.871   6.386  0.2135 -0.4905 -0.2732
 7597SOL     OW30159   1.617   4.549   3.925 -0.0710 -0.1696 -0.3969
 7597SOL    HW230160   1.605   4.533   4.019  0.3402  0.2226 -0.2792
 7597SOL    HW330161   1.660   4.634   3.920 -0.3250 -0.0688 -0.9532
 7597SOL    MW430162   1.621   4.558   3.937 -0.1184  0.7669  0.4701
 7598SOL     OW30163   0.594   3.891   5.639  0.1813  0.1827  0.1000
 7598SOL    HW230164   0.615   3.942   5.717  0.7930 -0.4687  0.3713
 7598SOL    HW330165   0.672   3.898   5.584  0.4778 -0.8555  0.3628
 7598SOL    MW430166   0.607   3.899   5.642  0.1411  0.7326 -0.2393
 7599SOL     OW30167   3.141   1.385   1.083 -0.4173 -0.2027  0.1054
 7599SOL    HW230168   3.142   1.370   1.178  1.8287  0.4653  0.2542
 7599SOL    HW330169   3.049   1.399   1.062 -1.1899 -2.1938  1.8586
 7599SOL    MW430170   3.129   1.385   1.093  0.4685  0.0122 -0.0857
 7600SOL     OW30171   5.191   5.364   3.096 -0.4997  0.2037 -0.1045
 7600SOL    HW230172   5.194   5.459   3.091 -1.3019  0.3354  1.2468
 7600SOL    HW330173   5.178   5.335   3.006 -0.7694  1.4013 -0.4695
 7600SOL    MW430174   5.190   5.372   3.084  0.0641 -0.0181  0.8509
 7601SOL     OW30175   4.633   3.368   2.241  0.7030 -0.3795 -0.2361
 7601SOL    HW230176   4.550   3.387   2.283 -0.6675 -2.4972 -1.7516
 7601SOL    HW330177   4.650   3.443   2.185  0.1022  0.3128  0.4875
 7601SOL    MW430178   4.624   3.380   2.239  0.4649  0.1616 -0.0047
 7602SOL     OW30179   2.629   0.514   5.173  0.4960 -0.2250  0.2461
 7602SOL    HW230180   2.672   0.494   5.257  0.0127  0.0710  0.5692
 7602SOL    HW330181   2.700   0.543   5.116  0.7678  0.0019  0.6930
 7602SOL    MW430182   2.644   0.515   5.177  0.3998  0.0841 -0.2574
 7603SOL     OW30183   1.632   1.805   0.980 -0.2552  0.2550  0.1916
 7603SOL    HW230184   1.538   1.787   0.985 -0.1231 -0.8269 -0.6794
 7603SOL    HW330185   1.671   1.740   1.038  0.0336 -0.3280 -0.6297
 7603SOL    MW430186   1.624   1.794   0.988 -0.1485  0.7661  0.2396
 7604SOL     OW30187   2.618   1.416   0.521  0.3743 -0.3746  0.1095
 7604SOL    HW230188   2.694   1.416   0.580  2.9504  0.2453 -2.9512
 7604SOL    HW330189   2.566   1.492   0.548  2.2578  0.7802  0.6414
 7604SOL    MW430190   2.621   1.426   0.532 -0.2957 -0.0478 -0.3365
 7605SOL     OW30191   5.039   0.750   1.715  0.2521  0.5602 -0.3048
 7605SOL    HW230192   5.052   0.771   1.808  1.7245  1.7770 -0.7615
 7605SOL    HW330193   4.954   0.789   1.694  0.3249  1.0623  0.3047
 7605SOL    MW430194   5.029   0.758   1.725 -0.3396 -0.2732 -0.2523
 7606SOL     OW30195   1.444   0.871   5.147 -0.0237 -0.1782  0.7674
 7606SOL    HW230196   1.392   0.860   5.227  1.8984 -0.3797  2.0653
 7606SOL    HW330197   1.474   0.962   5.150  2.3244 -0.9071  1.8088
 7606SOL    MW430198   1.441   0.882   5.158 -0.0600  0.8505 -0.1172
 7607SOL     OW30199   5.893   0.876   4.163 -0.0139 -0.1618  0.3224
 7607SOL    HW230200   5.976   0.845   4.199  0.6521  0.4979 -0.5948
 7607SOL    HW330201   5.829   0.809   4.188  0.2643  0.5310  3.2212
 7607SOL    MW430202   5.896   0.863   4.171  0.6605  0.4648 -0.1482
 7608SOL     OW30203   4.941   0.299   5.157  0.5695 -0.1758 -0.1114
 7608SOL    HW230204   4.946   0.203   5.152  0.0507 -0.1599 -1.1707
 7608SOL    HW330205   4.856   0.317   5.197  0.6274 -0.1639  0.0049
 7608SOL    MW430206   4.931   0.288   5.162  0.5210 -0.2582 -0.2087
 7609SOL     OW30207   1.251   3.738   2.748  0.3110 -0.1356  0.3344
 7609SOL    HW230208   1.246   3.748   2.843 -0.7479  2.1335  0.1221
 7609SOL    HW330209   1.331   3.786   2.724 -0.1220  0.4406  0.0036
 7609SOL    MW430210   1.261   3.746   2.757  0.6080  0.0218  0.2438
 7610SOL     OW30211   2.522   4.718   4.479 -0.5115  0.5691  0.0661
 7610SOL    HW230212   2.447   4.659   4.489 -0.2399  0.2868  0.4771
 7610SOL    HW330213   2.569   4.710   4.562 -0.6471  1.6171  0.2520
 7610SOL    MW430214   2.518   4.709   4.491  0.3034 -0.1171  0.0059
 7611SOL     OW30215   3.708   3.375   3.582 -0.3675 -0.4100  0.4798
 7611SOL    HW230216   3.649   3.374   3.657 -0.3154 -1.1040  0.5250
 7611SOL    HW330217   3.658   3.415   3.511 -0.1940  0.8625  1.0478
 7611SOL    MW430218   3.694   3.380   3.582  0.4925 -0.1972  0.5284
 7612SOL     OW30219   5.180   1.526   0.088  0.0693  0.1208 -0.3015
 7612SOL    HW230220   5.144   1.475   0.161 -0.3373  1.9730  0.8409
 7612SOL    HW330221   5.104   1.572   0.051  0.4446 -0.0024 -1.2486
 7612SOL    MW430222   5.165   1.525   0.093 -0.8329  0.2150 -0.0274
 7613SOL     OW30223   0.232   2.797   4.379  0.4510 -0.0637  0.1883
 7613SOL    HW230224   0.158   2.804   4.318  0.9411 -2.0785 -0.7009
 7613SOL    HW330225   0.309   2.811   4.325  0.8225 -0.0284  0.7229
 7613SOL    MW430226   0.232   2.800   4.364 -0.0467  0.0223 -0.1806
 7614SOL     OW30227   4.090   4.483   5.277  0.4780  0.0666  0.3840
 7614SOL    HW230228   4.138   4.536   5.214  1.4894 -1.1531  0.0934
 7614SOL    HW330229   4.082   4.398   5.236 -2.6303  0.3848  0.1054
 7614SOL    MW430230   4.095   4.479   5.264 -0.0455 -0.4107 -0.0459
 7615SOL     OW30231   0.350   5.065   2.891 -0.0051 -0.3383  0.0174
 7615SOL    HW230232   0.426   5.040   2.838 -0.3416 -1.5126  0.0819
 7615SOL    HW330233   0.340   5.159   2.875  1.3735 -0.1937 -0.1015
 7615SOL    MW430234   0.359   5.074   2.882 -0.1630  0.2703 -0.9032
 7616SOL     OW30235   3.015   0.922   1.828  0.3535 -0.0293 -0.1255
 7616SOL    HW230236   2.940   0.958   1.781 -1.0371 -0.5758  1.5709
 7616SOL    HW330237   2.989   0.925   1.920  1.9048 -1.4265  0.4006
 7616SOL    MW430238   3.002   0.927   1.834 -0.2010 -0.5645  0.3755
 7617SOL     OW30239   0.988   3.240   4.009  0.1185 -0.4651  0.0703
 7617SOL    HW230240   1.070   3.270   3.971 -0.3047  0.3982 -0.2010
 7617SOL    HW330241   1.013   3.181   4.079  0.9568 -0.5554 -0.3014
 7617SOL    MW430242   1.002   3.236   4.013 -0.2746  0.1086  0.3605
 7618SOL     OW30243   2.870   6.233   5.597  0.6229 -0.5727 -0.4117
 7618SOL    HW230244   2.789   6.242   5.546  1.2636 -0.4249 -1.4394
 7618SOL    HW330245   2.938   6.218   5.531  1.5761  0.1942  0.3676
 7618SOL    MW430246   2.868   6.232   5.581 -0.2079  0.6738  0.5235
 7619SOL     OW30247   6.037   4.683   2.028 -0.4339  0.7198  0.0245
 7619SOL    HW230248   5.994   4.658   1.946 -1.0203  0.8678  0.2807
 7619SOL    HW330249   6.125   4.645   2.021 -0.6240  0.3524 -0.4803
 7619SOL    MW430250   6.043   4.675   2.016 -0.2306  0.3346  0.2822
 7620SOL     OW30251   1.661   1.332   2.215  0.4194 -0.3869 -0.6762
 7620SOL    HW230252   1.688   1.275   2.288  1.2327  2.1156  1.1322
 7620SOL    HW330253   1.740   1.344   2.163  0.8176  0.6675  0.1314
 7620SOL    MW430254   1.675   1.326   2.218  0.0329  0.2714 -0.2220
 7621SOL     OW30255   3.410   6.291   3.260  0.1227  0.0017  0.6152
 7621SOL    HW230256   3.491   6.334   3.287 -1.1647  3.6208 -0.6396
 7621SOL    HW330257   3.345   6.319   3.324 -0.5573 -1.1969  0.4802
 7621SOL    MW430258   3.412   6.300   3.272  0.1756  0.6635 -0.1195
 7622SOL     OW30259   3.101   3.224   3.666 -0.2053  0.0190  0.2111
 7622SOL    HW230260   3.185   3.179   3.655 -0.0635  0.3315  0.0013
 7622SOL    HW330261   3.040   3.154   3.692  0.3229 -0.0414  1.3429
 7622SOL    MW430262   3.104   3.208   3.668  0.2403 -0.2783 -0.0282
 7623SOL     OW30263   1.776   2.741   1.511  0.1877 -0.2492 -0.4545
 7623SOL    HW230264   1.747   2.804   1.445 -2.7939 -2.7013 -1.7285
 7623SOL    HW330265   1.821   2.673   1.462  1.7143 -0.1035  0.6696
 7623SOL    MW430266   1.778   2.741   1.496 -1.1767  0.1493 -0.5255
 7624SOL     OW30267   4.607   4.457   2.097 -0.1541  0.1034  0.1068
 7624SOL    HW230268   4.576   4.458   2.187 -0.9859  0.1658 -0.1755
 7624SOL    HW330269   4.672   4.528   2.094 -0.3014  0.2635  0.5861
 7624SOL    MW430270   4.612   4.467   2.108 -0.5019 -0.2556 -0.4047
 7625SOL     OW30271   0.904   4.032   3.297  0.2664  0.5441  0.0496
 7625SOL    HW230272   0.855   4.113   3.288 -1.6918 -0.6486 -0.7764
 7625SOL    HW330273   0.960   4.028   3.220  0.6845  1.2907  0.3102
 7625SOL    MW430274   0.905   4.042   3.286 -0.1414 -0.2094  0.2956
 7626SOL     OW30275   2.422   0.855   1.313 -0.1779  0.8162 -0.7801
 7626SOL    HW230276   2.446   0.835   1.404 -0.8986  1.0907 -0.5231
 7626SOL    HW330277   2.336   0.815   1.302 -0.1469  0.8928 -1.3088
 7626SOL    MW430278   2.414   0.847   1.324 -0.9074 -0.1522  0.1919
 7627SOL     OW30279   4.165   4.550   2.354 -0.0389  0.4279  0.1031
 7627SOL    HW230280   4.108   4.625   2.371 -0.1158  0.9572 -2.1765
 7627SOL    HW330281   4.213   4.574   2.275  1.8593 -0.8724  0.7773
 7627SOL    MW430282   4.164   4.563   2.346 -0.1942 -0.1099  0.9139
 7628SOL     OW30283   4.423   0.289   4.780 -0.1398  0.2299 -0.5990
 7628SOL    HW230284   4.497   0.323   4.830 -1.6506  1.0802  1.1896
 7628SOL    HW330285   4.406   0.202   4.818 -1.5534  1.0483  0.7779
 7628SOL    MW430286   4.430   0.282   4.792  0.3888 -0.6885 -0.4645
 7629SOL     OW30287   3.986   1.280   2.784 -0.3149  0.0344  0.7290
 7629SOL    HW230288   3.934   1.201   2.800  0.8821 -1.8134 -3.2326
 7629SOL    HW330289   4.064   1.268   2.839 -0.1754 -1.5743  0.2320
 7629SOL    MW430290   3.989   1.268   2.794 -0.2615 -0.1318  0.1936
 7630SOL     OW30291   4.299   2.853   0.532 -0.0464 -0.5254  0.4894
 7630SOL    HW230292   4.304   2.792   0.458  1.0319  0.4665 -0.2819
 7630SOL    HW330293   4.205   2.863   0.548 -0.3370 -0.0897 -1.3150
 7630SOL    MW430294   4.287   2.846   0.524  0.3460  0.5346  0.9393
 7631SOL     OW30295   0.919   5.460   4.014  0.5283  0.5273 -0.1373
 7631SOL    HW230296   0.919   5.368   4.040  1.8450  0.7141  0.5687
 7631SOL    HW330297   0.996   5.498   4.057  0.2738  1.8538 -0.7977
 7631SOL    MW430298   0.929   5.453   4.023  0.5711 -0.4594  0.7944
 7632SOL     OW30299   5.825   2.621   4.110  0.1979 -0.3717 -0.4507
 7632SOL    HW230300   5.859   2.655   4.027  1.7769  1.2462  0.8025
 7632SOL    HW330301   5.903   2.596   4.159 -0.7702 -2.3164  0.1832
 7632SOL    MW430302   5.840   2.622   4.105  0.3695  0.6200 -0.0003
 7633SOL     OW30303   3.574   1.429   2.570  0.3155  0.0940 -0.1744
 7633SOL    HW230304   3.629   1.482   2.628 -0.5178  0.3518  0.4059
 7633SOL    HW330305   3.510   1.388   2.628  0.7377 -1.3065 -0.6656
 7633SOL    MW430306   3.573   1.431   2.585  0.0235  0.0241  0.5995
 7634SOL     OW30307   1.627   4.943   3.088 -0.6343  0.5241 -0.0702
 7634SOL    HW230308   1.707   4.903   3.122  0.7288  2.1859 -1.1102
 7634SOL    HW330309   1.579   4.971   3.166  0.3632  0.4865  0.5821
 7634SOL    MW430310   1.631   4.942   3.103 -0.5310  0.0150  0.3482
 7635SOL     OW30311   5.622   2.967   0.578 -0.3625 -0.4292  0.1447
 7635SOL    HW230312   5.683   2.981   0.651 -1.1679  1.5396  0.4938
 7635SOL    HW330313   5.554   2.911   0.614 -0.1939 -0.3573  0.5799
 7635SOL    MW430314   5.621   2.961   0.592  0.2766 -0.3589 -0.6376
 7636SOL     OW30315   3.250   0.281   0.673  0.0795  0.5173 -0.1521
 7636SOL    HW230316   3.292   0.327   0.599  0.5056  0.5042  0.0788
 7636SOL    HW330317   3.189   0.345   0.708  1.9046  1.5952  1.2638
 7636SOL    MW430318   3.248   0.296   0.668 -0.8637 -0.2002 -0.3396
 7637SOL     OW30319   6.198   3.130   3.500  0.0598  0.4241  0.5368
 7637SOL    HW230320   6.267   3.178   3.546  0.1318  0.0823  0.7929
 7637SOL    HW330321   6.127   3.124   3.564  0.5597 -0.9760  0.9996
 7637SOL    MW430322   6.198   3.136   3.515 -0.6474  0.3402 -0.4847
 7638SOL     OW30323   1.950   5.329   3.888 -0.3045 -0.2575 -0.2328
 7638SOL    HW230324   1.948   5.371   3.974 -1.6978 -1.1130  0.1911
 7638SOL    HW330325   2.030   5.276   3.889  0.1846  0.4723  0.1623
 7638SOL    MW430326   1.960   5.327   3.900 -0.5036 -0.1263 -0.3704
 7639SOL     OW30327   1.020   0.138   0.117  0.4295 -0.5330  0.4786
 7639SOL    HW230328   0.950   0.156   0.054  0.7388  1.0856  0.5616
 7639SOL    HW330329   1.000   0.195   0.192  2.6330  1.1461 -0.1251
 7639SOL    MW430330   1.008   0.148   0.119  0.1717 -0.0774 -0.7400
 7640SOL     OW30331   5.287   3.086   2.610 -0.4181 -0.3819  0.5828
 7640SOL    HW230332   5.217   3.055   2.668 -1.3682  1.4446  0.4513
 7640SOL    HW330333   5.253   3.074   2.522 -0.3149 -0.0359  0.4963
 7640SOL    MW430334   5.273   3.080   2.606 -0.0445 -1.1565 -0.0987
 7641SOL     OW30335   5.243   3.752   2.876  0.6086  0.1632  0.0298
 7641SOL    HW230336   5.281   3.786   2.795 -1.4379  0.8526 -0.7223
 7641SOL    HW330337   5.154   3.726   2.851  0.3066 -0.6851  1.8244
 7641SOL    MW430338   5.236   3.753   2.862  0.2748 -0.5126  0.2735
 7642SOL     OW30339   2.192   2.662   0.689  0.2274  0.2678 -0.0892
 7642SOL    HW230340   2.174   2.753   0.712 -1.5083  0.7234 -2.8214
 7642SOL    HW330341   2.268   2.667   0.631 -0.5325  0.1513 -1.1251
 7642SOL    MW430342   2.200   2.675   0.684  0.4657 -0.5213 -0.4516
 7643SOL     OW30343   1.494   1.399   1.989  0.0706 -0.1782  0.0125
 7643SOL    HW230344   1.495   1.304   1.983  1.2206 -0.1571 -0.5602
 7643SOL    HW330345   1.561   1.420   2.054  0.4287  0.2419 -0.4728
 7643SOL    MW430346   1.503   1.389   1.997  0.1807 -0.1011  0.5257
 7644SOL     OW30347   4.125   0.193   3.955 -0.4518 -0.9338  0.7913
 7644SOL    HW230348   4.198   0.202   4.015  0.5733 -1.2567 -0.3596
 7644SOL    HW330349   4.153   0.125   3.893 -1.3699 -0.4615 -0.1723
 7644SOL    MW430350   4.138   0.185   3.954  0.2220 -0.4253  0.2853
 7645SOL     OW30351   1.817   4.360   3.889  0.1639 -0.5628 -0.1184
 7645SOL    HW230352   1.759   4.434   3.907  0.2155 -0.5761  0.1080
 7645SOL    HW330353   1.875   4.357   3.965  0.6348 -0.3863 -0.4709
 7645SOL    MW430354   1.817   4.369   3.901  0.5870  0.7268  0.1033
 7646SOL     OW30355   0.070   5.805   1.359 -0.4718 -0.4708  0.1561
 7646SOL    HW230356   0.039   5.715   1.366 -0.8628 -0.2955  0.7456
 7646SOL    HW330357   0.032   5.837   1.277 -0.2562 -0.8700 -0.0997
 7646SOL    MW430358   0.061   5.797   1.349  0.0994  0.6973  0.0348
 7647SOL     OW30359   0.868   6.195   0.548  0.3601  0.4286 -0.6355
 7647SOL    HW230360   0.947   6.142   0.560  0.8350  1.0855 -0.8055
 7647SOL    HW330361   0.857   6.242   0.631 -1.7177 -2.0643  0.6323
 7647SOL    MW430362   0.877   6.194   0.560 -0.2512 -0.1576  0.3000
 7648SOL     OW30363   4.026   1.315   2.481 -0.1758  0.1774 -0.2763
 7648SOL    HW230364   4.003   1.277   2.566 -0.7005 -0.2627 -0.6017
 7648SOL    HW330365   4.057   1.240   2.429  1.7746  0.7101  0.0485
 7648SOL    MW430366   4.027   1.300   2.485  0.2700  1.0690 -0.2898
 7649SOL     OW30367   3.198   0.427   1.977 -0.5473 -0.7101 -0.2935
 7649SOL    HW230368   3.123   0.446   2.034 -0.1697  0.0723 -0.0474
 7649SOL    HW330369   3.257   0.374   2.030  0.0000  0.3688  0.2099
 7649SOL    MW430370   3.196   0.422   1.991 -0.0533 -0.5967 -0.0350
 7650SOL     OW30371   4.886   5.570   3.417  0.0218  0.0712 -0.0843
 7650SOL    HW230372   4.891   5.518   3.337  0.3056 -0.3803  0.2208
 7650SOL    HW330373   4.923   5.655   3.394  1.6823 -0.5922 -0.0062
 7650SOL    MW430374   4.891   5.575   3.404  0.1431  0.3016 -0.1937
 7651SOL     OW30375   0.992   6.125   5.608  0.1957 -0.1374 -0.6836
 7651SOL    HW230376   1.086   6.110   5.603  0.4611 -0.1794  2.2729
 7651SOL    HW330377   0.954   6.038   5.609  0.5021 -0.3122  1.6897
 7651SOL    MW430378   0.999   6.112   5.608 -0.0383  0.2814 -0.0621
 7652SOL     OW30379   1.129   4.233   5.130 -0.3729 -0.3161  0.0301
 7652SOL    HW230380   1.058   4.181   5.093  0.0529  0.3687 -1.8493
 7652SOL    HW330381   1.207   4.181   5.114 -0.1110  0.2621 -0.6207
 7652SOL    MW430382   1.130   4.219   5.123 -0.1076  0.1825  0.7639
 7653SOL     OW30383   1.991   2.145   3.737  0.2621  0.4097  0.2936
 7653SOL    HW230384   1.975   2.110   3.824  1.6167 -1.7068 -0.2412
 7653SOL    HW330385   1.990   2.069   3.679 -0.1532  1.7023 -1.4991
 7653SOL    MW430386   1.989   2.130   3.741  0.3902  0.5111 -0.9097
 7654SOL     OW30387   2.773   0.616   2.904  0.0978 -0.0516  0.7176
 7654SOL    HW230388   2.684   0.648   2.896  0.4989  0.9441  0.1321
 7654SOL    HW330389   2.763   0.526   2.937 -1.1126 -0.0195  0.4798
 7654SOL    MW430390   2.760   0.608   2.907  0.0269 -0.0843 -0.0211
 7655SOL     OW30391   2.660   1.796   1.456 -0.6794 -0.1790  0.2074
 7655SOL    HW230392   2.704   1.761   1.533  0.7158  0.4527 -0.2645
 7655SOL    HW330393   2.645   1.888   1.477 -0.5078 -0.0609 -0.1801
 7655SOL    MW430394   2.664   1.803   1.469 -0.1052  0.0530  0.1839
 7656SOL     OW30395   0.541   2.626   6.272  0.6712  0.4049 -0.4614
 7656SOL    HW230396   0.503   2.547   6.311  1.9282 -0.3813 -0.7824
 7656SOL    HW330397   0.504   2.698   6.323 -1.5605 -0.2599 -1.0180
 7656SOL    MW430398   0.531   2.625   6.284  0.1830 -0.3663 -0.4053
 7657SOL     OW30399   1.696   2.978   3.472 -0.3028  0.2722 -0.2056
 7657SOL    HW230400   1.697   2.981   3.567 -0.3347  0.5226 -0.2131
 7657SOL    HW330401   1.707   2.885   3.451  3.1637  0.4822  0.0275
 7657SOL    MW430402   1.698   2.966   3.482  0.2766 -0.8930  0.0284
 7658SOL     OW30403   0.433   3.426   2.766  0.1607 -0.0815 -0.1055
 7658SOL    HW230404   0.388   3.496   2.720 -1.3215 -0.5544  0.5609
 7658SOL    HW330405   0.505   3.402   2.709 -0.0170  1.1563 -0.8981
 7658SOL    MW430406   0.437   3.432   2.753 -0.2749  0.3592 -0.0710
 7659SOL     OW30407   0.512   4.936   4.004 -0.2264  0.3633 -0.0360
 7659SOL    HW230408   0.476   4.956   3.917 -1.5674  1.0195  0.6396
 7659SOL    HW330409   0.454   4.867   4.038 -0.1547  0.6257  0.6231
 7659SOL    MW430410   0.500   4.930   3.997 -0.1801  0.0360 -1.4038
 7660SOL     OW30411   4.877   5.627   6.147 -0.1190 -1.1045 -0.2377
 7660SOL    HW230412   4.951   5.609   6.205 -0.5999 -2.8850 -0.1026
 7660SOL    HW330413   4.800   5.610   6.201 -0.6028 -0.7522 -0.8136
 7660SOL    MW430414   4.877   5.622   6.162 -0.2667 -0.4645  0.3512
 7661SOL     OW30415   1.484   3.836   5.035 -0.3657  0.3688  0.1736
 7661SOL    HW230416   1.452   3.827   5.125  0.2441  2.1042  0.5997
 7661SOL    HW330417   1.576   3.860   5.045 -0.1938  0.2034 -0.9314
 7661SOL    MW430418   1.492   3.838   5.048  0.2392 -0.0207  0.1493
 7662SOL     OW30419   3.255   5.506   3.095  0.5514  0.2059 -0.2300
 7662SOL    HW230420   3.256   5.580   3.156  1.9553  1.0885 -1.2605
 7662SOL    HW330421   3.280   5.545   3.011  2.3158 -1.6132 -0.6063
 7662SOL    MW430422   3.258   5.521   3.092  0.8352  0.0080  0.1559
 7663SOL     OW30423   2.449   1.563   3.828 -0.2800  0.0744 -0.3325
 7663SOL    HW230424   2.363   1.521   3.834 -1.4017  2.1022 -1.3179
 7663SOL    HW330425   2.495   1.535   3.907 -1.6086 -1.5200 -0.0706
 7663SOL    MW430426   2.444   1.554   3.839 -0.2824 -0.1254 -0.3011
 7664SOL     OW30427   6.383   3.348   3.660  0.2704  0.2445 -0.1820
 7664SOL    HW230428   6.473   3.331   3.686  0.1752  0.0189 -0.0003
 7664SOL    HW330429   6.391   3.405   3.584  0.5530  0.7508  0.2212
 7664SOL    MW430430   6.396   3.353   3.653 -0.2499 -0.2654 -0.1024
 7665SOL     OW30431   4.825   1.984   4.255  0.1979  0.3526 -0.1608
 7665SOL    HW230432   4.914   2.006   4.225  0.8927 -0.3861  1.2698
 7665SOL    HW330433   4.771   2.057   4.225  1.7002  1.9913  0.9510
 7665SOL    MW430434   4.830   1.996   4.247  0.1830  0.6978 -1.0971
 7666SOL     OW30435   5.724   2.239   2.478  0.1979  0.6186 -0.0257
 7666SOL    HW230436   5.728   2.334   2.491 -1.0004  0.5828  0.7829
 7666SOL    HW330437   5.671   2.207   2.551  0.8750 -0.7250 -0.0873
 7666SOL    MW430438   5.717   2.247   2.489 -0.5083 -0.5907  0.0192
 7667SOL     OW30439   5.602   3.428   3.353 -0.1640 -0.1619 -0.4380
 7667SOL    HW230440   5.686   3.464   3.325  0.3113 -1.7455 -1.1605
 7667SOL    HW330441   5.566   3.494   3.413  1.5807  0.5310 -0.1108
 7667SOL    MW430442   5.608   3.442   3.357 -0.2744  0.9588  0.8480
 7668SOL     OW30443   6.180   3.852   2.339 -0.1766 -0.1318  0.0399
 7668SOL    HW230444   6.136   3.772   2.365 -0.7676  0.4000  0.7101
 7668SOL    HW330445   6.123   3.890   2.272  0.4429 -0.5952 -0.7771
 7668SOL    MW430446   6.167   3.847   2.333 -0.0127  0.5204 -0.1516
 7669SOL     OW30447   1.385   5.073   2.190 -0.6209  0.5567 -0.3660
 7669SOL    HW230448   1.330   5.055   2.113  0.9442  0.5415 -1.5332
 7669SOL    HW330449   1.371   4.998   2.248  0.3956 -0.9824 -1.9997
 7669SOL    MW430450   1.376   5.061   2.187  0.4110  1.0997  0.3666
 7670SOL     OW30451   0.232   0.627   6.384 -0.0423  0.2933 -0.4952
 7670SOL    HW230452   0.284   0.701   6.414  0.8348 -0.7675  0.7506
 7670SOL    HW330453   0.151   0.632   6.436  0.0282  0.3560 -0.3915
 7670SOL    MW430454   0.228   0.637   6.395  0.2782  0.4147  0.1514
 7671SOL     OW30455   4.873   1.944   5.126  0.4654  0.4309  0.0469
 7671SOL    HW230456   4.907   2.033   5.128 -0.7003  0.8890  0.0800
 7671SOL    HW330457   4.919   1.903   5.053  1.0579  1.0398  0.0698
 7671SOL    MW430458   4.884   1.950   5.116 -0.3245 -0.0716 -0.4234
 7672SOL     OW30459   1.506   5.002   5.105  0.3591 -0.3840 -0.8187
 7672SOL    HW230460   1.577   4.972   5.162 -0.7495  1.1060  1.5419
 7672SOL    HW330461   1.489   5.092   5.133  0.0008  0.6251 -3.9030
 7672SOL    MW430462   1.513   5.010   5.117 -0.2417  0.6723 -0.1353
 7673SOL     OW30463   3.802   2.564   5.618  0.2119 -0.5519 -0.1091
 7673SOL    HW230464   3.757   2.554   5.702  0.2913  0.3374  0.0452
 7673SOL    HW330465   3.887   2.602   5.641  0.7120 -1.4004 -0.4829
 7673SOL    MW430466   3.807   2.568   5.633  0.4650  0.3675  0.0177
 7674SOL     OW30467   5.113   0.808   3.137 -0.1880 -0.5079 -0.1564
 7674SOL    HW230468   5.037   0.838   3.187  0.8939 -1.9812  2.5704
 7674SOL    HW330469   5.180   0.875   3.153  0.3907 -1.3505  1.0372
 7674SOL    MW430470   5.112   0.821   3.145 -0.1330 -0.3998 -1.0338
 7675SOL     OW30471   2.099   5.921   5.559  0.5345 -0.0899 -0.0131
 7675SOL    HW230472   2.109   5.853   5.625 -0.3867  0.5029  0.7697
 7675SOL    HW330473   2.005   5.940   5.557  0.8143  1.4349  0.0955
 7675SOL    MW430474   2.088   5.915   5.567 -0.1557 -0.0035  0.0464
 7676SOL     OW30475   2.479   4.285   1.077 -0.9667 -0.4992 -0.0374
 7676SOL    HW230476   2.542   4.244   1.136 -0.0906  0.6479 -0.1506
 7676SOL    HW330477   2.467   4.374   1.111 -2.5081 -0.6609 -0.0476
 7676SOL    MW430478   2.485   4.291   1.089  0.0823 -0.0537  0.3825
 7677SOL     OW30479   3.162   4.762   5.594 -0.0108  0.2286  0.4787
 7677SOL    HW230480   3.179   4.670   5.574  0.2770 -0.0171  1.7683
 7677SOL    HW330481   3.239   4.791   5.642 -0.8054  0.6731  1.5323
 7677SOL    MW430482   3.174   4.754   5.598 -0.4503 -0.5405 -0.2788
 7678SOL     OW30483   3.844   4.300   3.220 -0.4228 -0.2331  0.0404
 7678SOL    HW230484   3.890   4.355   3.156 -0.7853  0.0765  0.0450
 7678SOL    HW330485   3.846   4.212   3.182  2.1164 -0.7153  1.0204
 7678SOL    MW430486   3.851   4.296   3.207 -0.3590  0.4982  0.0371
 7679SOL     OW30487   0.964   4.884   2.903 -0.0325 -0.4004 -0.2601
 7679SOL    HW230488   1.003   4.893   2.816  0.5014 -0.9143 -0.0770
 7679SOL    HW330489   1.036   4.858   2.960 -0.0530  1.3955  0.6640
 7679SOL    MW430490   0.978   4.882   2.899 -0.7056 -1.1615 -0.2374
 7680SOL     OW30491   1.353   3.140   0.637  0.9421  0.5695  0.5992
 7680SOL    HW230492   1.268   3.140   0.592  1.1889 -1.3073  0.0602
 7680SOL    HW330493   1.417   3.130   0.567  1.5508  0.9101  1.0995
 7680SOL    MW430494   1.350   3.139   0.622 -0.7799 -0.4319  0.2163
 7681SOL     OW30495   3.535   2.838   3.494 -0.6149  0.0880  0.0311
 7681SOL    HW230496   3.497   2.765   3.543 -1.0121  1.8794  2.5641
 7681SOL    HW330497   3.605   2.872   3.551 -0.0966  1.3691 -1.3029
 7681SOL    MW430498   3.539   2.833   3.508  0.1420  0.5134 -0.1555
 7682SOL     OW30499   3.700   4.579   4.949  0.1154  0.0072  0.1166
 7682SOL    HW230500   3.726   4.541   5.033 -0.6748  1.9736  1.3036
 7682SOL    HW330501   3.781   4.583   4.898  0.2171 -3.4637 -0.2462
 7682SOL    MW430502   3.714   4.574   4.953  0.8248  0.6621 -0.3763
 7683SOL     OW30503   4.937   2.799   4.459  0.5289 -0.5367 -0.2738
 7683SOL    HW230504   4.878   2.853   4.512  1.9373 -0.4484  1.2909
 7683SOL    HW330505   4.950   2.720   4.512 -0.9666 -2.1887 -2.2155
 7683SOL    MW430506   4.931   2.795   4.473  0.0414  0.6058  0.2915
 7684SOL     OW30507   1.758   4.116   2.428  0.5997 -0.5015 -0.0856
 7684SOL    HW230508   1.682   4.093   2.375  1.1267 -1.0463 -0.6250
 7684SOL    HW330509   1.721   4.145   2.511 -0.2620  1.0116 -0.9626
 7684SOL    MW430510   1.743   4.117   2.432  0.1260 -0.2304  0.6546
 7685SOL     OW30511   2.979   6.139   5.341  0.6112  1.0786 -0.1863
 7685SOL    HW230512   2.950   6.196   5.269 -1.6942 -0.5594 -0.6678
 7685SOL    HW330513   3.018   6.063   5.297 -0.5484  0.2035  0.2400
 7685SOL    MW430514   2.980   6.136   5.325  0.0965  0.3160 -0.2767
 7686SOL     OW30515   1.573   1.422   0.600  0.0082  0.0906  0.2808
 7686SOL    HW230516   1.560   1.408   0.694 -0.6218  2.4282  0.5910
 7686SOL    HW330517   1.659   1.383   0.582 -0.2589 -1.2119  1.5898
 7686SOL    MW430518   1.583   1.415   0.610  0.3394  0.2088  0.0770
 7687SOL     OW30519   2.346   4.633   1.325 -0.4183 -0.0925  0.3757
 7687SOL    HW230520   2.271   4.632   1.385  0.7387  1.4262  1.9811
 7687SOL    HW330521   2.378   4.724   1.329  1.0053 -0.4999 -0.8929
 7687SOL    MW430522   2.340   4.645   1.334  0.5508 -0.4314 -0.0420
 7688SOL     OW30523   2.241   3.956   4.113  0.5047  0.3616 -0.2356
 7688SOL    HW230524   2.212   3.870   4.084  0.0264  0.5581 -0.3598
 7688SOL    HW330525   2.162   3.998   4.148  0.8140  0.5977  0.1998
 7688SOL    MW430526   2.227   3.950   4.114 -0.4129 -0.1206 -0.5763
 7689SOL     OW30527   3.076   5.081   4.716 -0.6028 -0.4319  0.5165
 7689SOL    HW230528   3.112   4.993   4.712  0.3509 -0.0720  0.8282
 7689SOL    HW330529   3.069   5.109   4.625 -0.5660 -0.6878  0.4345
 7689SOL    MW430530   3.080   5.073   4.704  0.2866 -0.1470  0.0063
 7690SOL     OW30531   2.495   3.356   0.536 -0.0212  0.2529  0.5835
 7690SOL    HW230532   2.434   3.313   0.475  1.2593 -0.0920 -0.5169
 7690SOL    HW330533   2.448   3.357   0.619 -1.7073  0.4189 -0.3048
 7690SOL    MW430534   2.480   3.350   0.539  0.3123  0.4764  0.4911
 7691SOL     OW30535   2.711   2.713   5.971  0.0164  0.0221 -0.0958
 7691SOL    HW230536   2.678   2.772   6.039 -1.0301  0.1246 -0.6663
 7691SOL    HW330537   2.641   2.709   5.907  0.2484 -1.4923 -0.3037
 7691SOL    MW430538   2.698   2.720   5.972  0.1580 -0.2083  0.9052
 7692SOL     OW30539   5.086   0.846   6.301 -0.3964 -0.3361 -0.0422
 7692SOL    HW230540   5.120   0.846   6.391 -0.1540  2.2483 -0.0673
 7692SOL    HW330541   4.992   0.833   6.312 -0.3089 -0.5248  0.5359
 7692SOL    MW430542   5.078   0.844   6.314  0.0757 -0.0264  0.3198
 7693SOL     OW30543   5.294   1.005   3.207  0.3045  0.1333 -0.1135
 7693SOL    HW230544   5.348   1.070   3.252 -0.4152  0.8476 -0.2629
 7693SOL    HW330545   5.251   1.054   3.137 -0.4412 -0.4489 -0.0745
 7693SOL    MW430546   5.295   1.020   3.204  1.0942  0.7932  0.3170
 7694SOL     OW30547   4.988   2.126   3.023  0.2390 -0.9756 -0.3138
 7694SOL    HW230548   4.908   2.111   2.973  0.6774 -0.8471 -1.0788
 7694SOL    HW330549   5.010   2.041   3.061  0.4103 -1.3019 -1.1255
 7694SOL    MW430550   4.981   2.113   3.021 -0.1812 -0.1459  0.2471
 7695SOL     OW30551   1.575   2.258   0.062  0.3858 -0.4161  0.2042
 7695SOL    HW230552   1.638   2.204   0.016 -0.3081 -1.1366  0.0673
 7695SOL    HW330553   1.597   2.247   0.155  0.2609 -0.9296  0.1757
 7695SOL    MW430554   1.586   2.250   0.068  0.7396  0.2094  0.2866
 7696SOL     OW30555   0.845   3.156   3.581  0.0271  0.3313  0.3324
 7696SOL    HW230556   0.842   3.085   3.518 -0.5230  0.8414 -0.2266
 7696SOL    HW330557   0.911   3.128   3.645  0.4599 -0.2721 -0.3571
 7696SOL    MW430558   0.854   3.143   3.581 -0.0682  0.0894  0.3951
 7697SOL     OW30559   5.462   5.603   4.701 -0.0347 -0.7304 -0.0810
 7697SOL    HW230560   5.369   5.618   4.716  0.2787  0.5088  0.8223
 7697SOL    HW330561   5.505   5.681   4.737  1.3994 -1.6483  0.2826
 7697SOL    MW430562   5.455   5.615   4.708 -0.1354  0.2849 -0.8172
 7698SOL     OW30563   1.289   5.155   6.213 -0.2776  0.5262  0.4470
 7698SOL    HW230564   1.252   5.151   6.125 -0.2632  2.2181  0.3497
 7698SOL    HW330565   1.219   5.188   6.268 -0.5094 -1.1826  1.2357
 7698SOL    MW430566   1.275   5.158   6.209 -0.2760 -0.4444  0.1264
 7699SOL     OW30567   0.095   2.333   2.092 -0.3649  0.3390  0.2999
 7699SOL    HW230568   0.166   2.313   2.154  0.1693  0.9537 -0.0989
 7699SOL    HW330569   0.082   2.427   2.100 -2.9749 -0.0617  2.2910
 7699SOL    MW430570   0.103   2.342   2.101 -0.1370 -0.1684  0.1858
 7700SOL     OW30571   1.834   6.239   0.076 -0.3377 -0.4197 -0.3614
 7700SOL    HW230572   1.881   6.275   0.151 -0.0886  1.4733 -1.3660
 7700SOL    HW330573   1.883   6.160   0.053  1.2432  0.4770 -0.2187
 7700SOL    MW430574   1.847   6.233   0.083 -0.2357 -0.2710 -0.3463
 7701SOL     OW30575   1.426   3.617   1.599  0.1443 -0.3706 -0.2402
 7701SOL    HW230576   1.358   3.633   1.665 -0.0024 -0.3413 -0.3956
 7701SOL    HW330577   1.509   3.628   1.646  0.0969  2.1573 -0.6046
 7701SOL    MW430578   1.428   3.621   1.614 -0.4013  0.1815 -0.6997
 7702SOL     OW30579   0.349   0.496   5.068 -0.4802 -0.1313 -0.0843
 7702SOL    HW230580   0.259   0.476   5.094 -0.3335 -0.8616 -0.1281
 7702SOL    HW330581   0.341   0.532   4.980 -0.8374  0.9403  0.3678
 7702SOL    MW430582   0.336   0.498   5.060  0.2967  0.3454 -0.6178
 7703SOL     OW30583   0.133   5.600   4.622 -0.1376 -0.2741  0.5880
 7703SOL    HW230584   0.058   5.562   4.668  0.0906 -1.7188 -0.1663
 7703SOL    HW330585   0.129   5.562   4.534  1.2916 -0.1315  0.4342
 7703SOL    MW430586   0.123   5.590   4.616 -0.0101  0.8625  0.1758
 7704SOL     OW30587   1.743   2.046   1.095 -0.3014  0.0043 -0.5441
 7704SOL    HW230588   1.816   2.081   1.044  0.6145 -1.4451 -0.3036
 7704SOL    HW330589   1.715   1.969   1.045  0.1722 -1.0514  0.7626
 7704SOL    MW430590   1.749   2.040   1.082 -0.4165 -0.2224  0.3453
 7705SOL     OW30591   2.201   4.247   1.007 -0.2654  0.1039 -0.6354
 7705SOL    HW230592   2.146   4.223   1.082 -1.2894  0.4779 -1.2452
 7705SOL    HW330593   2.288   4.259   1.044 -0.4080 -1.2822  0.2342
 7705SOL    MW430594   2.205   4.245   1.022 -0.4595 -0.2578 -0.3677
 7706SOL     OW30595   5.233   1.569   4.043 -0.2080  0.1686 -0.4740
 7706SOL    HW230596   5.291   1.509   4.090 -1.6616  0.2006  1.5035
 7706SOL    HW330597   5.230   1.647   4.099 -0.9669  0.7496 -1.3030
 7706SOL    MW430598   5.240   1.572   4.057  0.0778  0.3107 -0.4593
 7707SOL     OW30599   2.143   2.277   2.703 -0.3150 -0.1698  0.3156
 7707SOL    HW230600   2.130   2.331   2.625  0.1574 -1.5722 -0.7715
 7707SOL    HW330601   2.073   2.304   2.763 -0.6263  0.9937 -0.5480
 7707SOL    MW430602   2.132   2.288   2.701 -0.0498  0.4264  0.5468
 7708SOL     OW30603   6.403   0.844   1.978  0.2347  0.4544 -0.5129
 7708SOL    HW230604   6.466   0.832   1.906 -0.8646 -2.5083 -1.1590
 7708SOL    HW330605   6.447   0.808   2.054  0.6548  1.7908 -0.0981
 7708SOL    MW430606   6.417   0.837   1.978  0.2928  0.1547 -0.3815
 7709SOL     OW30607   6.185   4.150   5.806  0.0853  0.1460  0.2134
 7709SOL    HW230608   6.251   4.176   5.870 -0.2743 -1.1828  1.1725
 7709SOL    HW330609   6.102   4.177   5.846 -0.0339  0.9810 -0.5638
 7709SOL    MW430610   6.183   4.157   5.820 -0.2254 -0.0365  0.3351
 7710SOL     OW30611   3.293   2.918   1.448 -0.5088  0.0954 -0.4036
 7710SOL    HW230612   3.300   3.006   1.411  0.8334  0.0825 -0.2459
 7710SOL    HW330613   3.335   2.925   1.534  1.2626 -1.0798 -1.1151
 7710SOL    MW430614   3.299   2.931   1.455  0.1711  0.0800  0.8446
 7711SOL     OW30615   5.182   0.638   3.371 -0.0614  0.1389  0.2409
 7711SOL    HW230616   5.215   0.549   3.369 -0.0243  0.0785  1.9872
 7711SOL    HW330617   5.203   0.674   3.285  1.2242 -1.0641  0.0298
 7711SOL    MW430618   5.189   0.631   3.359  0.0930 -0.6253  0.6619
 7712SOL     OW30619   6.155   5.734   4.701  0.3020  0.2269  0.0556
 7712SOL    HW230620   6.183   5.708   4.613 -0.2089  0.7416 -0.2596
 7712SOL    HW330621   6.205   5.813   4.720 -1.1691  1.3553 -0.6518
 7712SOL    MW430622   6.166   5.741   4.692 -0.6545 -0.1840 -0.3580
 7713SOL     OW30623   4.323   0.131   5.256  0.3745  0.1555  0.3220
 7713SOL    HW230624   4.293   0.128   5.165 -1.6827  0.8353  0.9278
 7713SOL    HW330625   4.243   0.128   5.308  1.5115 -0.1825  2.1245
 7713SOL    MW430626   4.309   0.130   5.250 -0.2199  0.0934  0.1461
 7714SOL     OW30627   4.192   2.213   5.241 -0.9033 -0.0584 -0.0024
 7714SOL    HW230628   4.134   2.288   5.228  0.3449  1.1490  1.0566
 7714SOL    HW330629   4.276   2.251   5.266  0.0803 -1.7854 -0.4539
 7714SOL    MW430630   4.196   2.228   5.242 -0.1587  0.0750  0.2034
 7715SOL     OW30631   0.174   6.062   5.616 -0.1783 -0.0407 -0.4904
 7715SOL    HW230632   0.221   6.037   5.696 -1.3693 -0.0520  0.2363
 7715SOL    HW330633   0.242   6.091   5.556  0.9131 -1.6063 -0.0813
 7715SOL    MW430634   0.189   6.062   5.619 -0.1418  0.6361 -0.0039
 7716SOL     OW30635   5.524   3.196   0.741  0.2156 -0.2174 -0.0633
 7716SOL    HW230636   5.545   3.250   0.664 -0.0245 -0.4936 -0.3255
 7716SOL    HW330637   5.564   3.111   0.723  0.3818 -0.2034  0.2379
 7716SOL    MW430638   5.532   3.192   0.728 -0.5689  0.2988  0.1185
 7717SOL     OW30639   3.056   1.639   0.679 -0.4802  0.3145  0.1804
 7717SOL    HW230640   2.975   1.613   0.636 -0.4073  2.0722 -1.1505
 7717SOL    HW330641   3.090   1.711   0.624  2.3603 -0.8513  0.2209
 7717SOL    MW430642   3.050   1.645   0.666 -0.3977  0.4766 -0.2985
 7718SOL     OW30643   1.935   3.606   4.180  0.4624  0.1838  0.0814
 7718SOL    HW230644   2.019   3.636   4.145  0.0180  0.4795 -0.7512
 7718SOL    HW330645   1.923   3.518   4.144  0.7173 -0.1275  0.7358
 7718SOL    MW430646   1.944   3.599   4.171  0.5077 -0.0899  0.4922
 7719SOL     OW30647   0.185   1.119   5.718 -0.2442  0.5633 -0.3942
 7719SOL    HW230648   0.123   1.093   5.786 -0.0583  0.4292 -0.2759
 7719SOL    HW330649   0.157   1.207   5.693 -2.1198 -0.4746 -2.2379
 7719SOL    MW430650   0.173   1.127   5.724 -0.2089 -0.1919 -0.2362
 7720SOL     OW30651   5.528   5.488   0.675 -0.4473  0.0738 -0.1651
 7720SOL    HW230652   5.519   5.570   0.626  1.0758  0.6741  0.4840
 7720SOL    HW330653   5.524   5.420   0.607  1.5244  0.8808 -1.1923
 7720SOL    MW430654   5.527   5.489   0.659  0.1695 -0.1626  0.1647
 7721SOL     OW30655   2.166   0.650   2.412  0.1267 -0.8348 -0.2252
 7721SOL    HW230656   2.173   0.736   2.455  0.1649 -0.7438 -0.4114
 7721SOL    HW330657   2.164   0.670   2.319 -0.8326 -0.9809 -0.2396
 7721SOL    MW430658   2.167   0.664   2.405 -0.1138 -0.5027  0.4555
 7722SOL     OW30659   3.757   3.891   0.218  0.1546 -0.0490 -0.0015
 7722SOL    HW230660   3.836   3.940   0.195  0.2366 -1.3911 -3.1787
 7722SOL    HW330661   3.686   3.954   0.208  0.5129  0.2124 -1.0828
 7722SOL    MW430662   3.758   3.906   0.214 -0.5350 -0.5862  0.1761
 7723SOL     OW30663   6.041   4.455   4.445 -0.2708  0.6867  0.0831
 7723SOL    HW230664   5.961   4.431   4.491 -0.0657 -0.7228 -0.2483
 7723SOL    HW330665   6.089   4.509   4.508  0.1772 -1.4704  1.7556
 7723SOL    MW430666   6.037   4.459   4.460 -0.8563  0.5372  0.3504
 7724SOL     OW30667   0.354   1.975   0.627  0.6455  0.3078 -0.7571
 7724SOL    HW230668   0.331   1.898   0.679  1.2672 -0.2311 -1.2626
 7724SOL    HW330669   0.400   2.032   0.689 -0.9761  0.9006 -0.0284
 7724SOL    MW430670   0.357   1.973   0.642 -0.9176  0.0064 -0.2411
 7725SOL     OW30671   5.960   5.992   5.394 -0.1365 -0.2843 -0.6268
 7725SOL    HW230672   5.935   6.053   5.325 -1.2854 -0.6260 -0.5479
 7725SOL    HW330673   5.956   5.906   5.352 -3.0163 -0.7382  0.3127
 7725SOL    MW430674   5.956   5.988   5.380 -0.3656  0.1357 -0.2237
 7726SOL     OW30675   1.374   1.485   6.202 -0.1649 -0.4695  0.5019
 7726SOL    HW230676   1.434   1.411   6.212 -0.3407 -0.6394  0.3035
 7726SOL    HW330677   1.429   1.558   6.174  0.0074 -0.5273  0.6881
 7726SOL    MW430678   1.389   1.485   6.200  0.5621 -0.3394  0.7519
 7727SOL     OW30679   3.820   0.408   1.915 -0.2570 -0.0802  0.0016
 7727SOL    HW230680   3.839   0.330   1.863  0.8103  1.5496 -2.2083
 7727SOL    HW330681   3.904   0.428   1.958 -0.9243 -0.9521  1.8172
 7727SOL    MW430682   3.834   0.400   1.914 -0.5458 -0.0571  0.3596
 7728SOL     OW30683   1.470   4.675   1.961  0.1831 -0.8409 -0.4634
 7728SOL    HW230684   1.403   4.716   2.015  0.6378  2.6544 -2.2780
 7728SOL    HW330685   1.429   4.666   1.874  1.3398 -0.6587 -1.0489
 7728SOL    MW430686   1.456   4.679   1.956 -0.1122 -0.3937  0.3821
 7729SOL     OW30687   1.418   3.998   4.727  0.1946 -0.0249 -0.2383
 7729SOL    HW230688   1.491   4.045   4.686  0.6869 -0.5054  0.0674
 7729SOL    HW330689   1.460   3.939   4.789 -0.4624 -0.3102 -0.0580
 7729SOL    MW430690   1.433   3.997   4.730 -0.3812 -0.2659 -0.0406
 7730SOL     OW30691   4.933   5.790   0.621  0.4193 -0.2727  0.4745
 7730SOL    HW230692   4.953   5.782   0.527  0.4403  3.2942  0.0360
 7730SOL    HW330693   4.883   5.710   0.641  1.1396 -1.5809 -2.3252
 7730SOL    MW430694   4.929   5.778   0.611  0.2667 -0.5984 -0.2197
 7731SOL     OW30695   2.007   5.179   2.778 -0.5627 -0.2442  0.1683
 7731SOL    HW230696   1.998   5.166   2.872 -0.2852 -0.4090  0.1702
 7731SOL    HW330697   2.066   5.110   2.749  0.7754  0.8514  0.1557
 7731SOL    MW430698   2.013   5.168   2.786 -0.0852  0.5781 -0.3136
 7732SOL     OW30699   2.993   3.228   1.439 -0.2708 -0.1663  0.6671
 7732SOL    HW230700   3.004   3.134   1.454  0.5082  0.0358  1.4353
 7732SOL    HW330701   2.906   3.248   1.472 -1.2581 -0.9578 -1.2943
 7732SOL    MW430702   2.983   3.218   1.445 -0.0740  0.5791 -0.3810
 7733SOL     OW30703   6.122   3.792   5.362 -0.1546 -0.2104 -0.1118
 7733SOL    HW230704   6.098   3.877   5.399 -0.5448  0.3676 -1.6303
 7733SOL    HW330705   6.157   3.813   5.275 -1.0352 -1.6617 -0.8498
 7733SOL    MW430706   6.124   3.806   5.355  0.5611  0.0750  0.7691
 7734SOL     OW30707   3.391   1.648   5.797 -0.2268  0.1779 -0.1712
 7734SOL    HW230708   3.390   1.716   5.865  1.5481 -1.2940  1.4388
 7734SOL    HW330709   3.399   1.697   5.715 -2.8462  2.0448  0.5254
 7734SOL    MW430710   3.392   1.664   5.795  0.2204 -0.3504 -0.3677
 7735SOL     OW30711   2.715   4.528   5.514 -0.3207  0.0443 -0.6522
 7735SOL    HW230712   2.734   4.619   5.491  0.4840  0.1737  0.4421
 7735SOL    HW330713   2.779   4.477   5.464  0.5262  0.2260  0.2314
 7735SOL    MW430714   2.726   4.533   5.504 -0.2452  0.2691 -0.1656
 7736SOL     OW30715   4.845   5.390   5.152 -0.3262  0.0138  0.2909
 7736SOL    HW230716   4.784   5.440   5.098 -0.7807 -0.8123  0.0244
 7736SOL    HW330717   4.842   5.301   5.116 -0.4782 -0.5057  1.5272
 7736SOL    MW430718   4.837   5.385   5.140 -0.5090 -0.4381  0.0919
 7737SOL     OW30719   4.536   1.928   5.143  0.1991 -0.4625 -0.3545
 7737SOL    HW230720   4.617   1.964   5.177  1.2896 -2.6678 -0.4360
 7737SOL    HW330721   4.561   1.844   5.103 -2.1236 -1.2753 -0.3039
 7737SOL    MW430722   4.550   1.921   5.142  0.4883 -0.7447 -0.1846
 7738SOL     OW30723   1.528   0.249   5.278 -0.5345 -0.4889  0.1838
 7738SOL    HW230724   1.525   0.324   5.218  0.4893 -0.2905  0.3702
 7738SOL    HW330725   1.549   0.287   5.363 -1.3672 -0.8436  0.5533
 7738SOL    MW430726   1.530   0.264   5.281  0.2496  0.0672  0.0058
 7739SOL     OW30727   0.265   0.950   3.898  0.1636  1.1753 -0.0960
 7739SOL    HW230728   0.310   0.886   3.843 -2.4111 -1.9520  1.1127
 7739SOL    HW330729   0.333   0.983   3.957  1.4370 -1.3270 -0.0266
 7739SOL    MW430730   0.280   0.946   3.899  0.4861 -0.1107  0.6683
 7740SOL     OW30731   4.572   1.441   5.379 -0.2362  0.7046 -0.3362
 7740SOL    HW230732   4.647   1.407   5.329 -0.4053  1.4020 -1.0891
 7740SOL    HW330733   4.500   1.382   5.356  0.2153 -0.3633  0.9000
 7740SOL    MW430734   4.572   1.428   5.369 -0.4605 -0.2221  0.2135
 7741SOL     OW30735   4.779   5.810   3.760 -0.0257 -0.2432 -0.1074
 7741SOL    HW230736   4.857   5.759   3.738  0.2657 -0.5768  1.5290
 7741SOL    HW330737   4.796   5.897   3.725  0.8762 -0.4474 -0.1972
 7741SOL    MW430738   4.791   5.815   3.753  0.0924  0.1035 -0.0985
 7742SOL     OW30739   0.351   2.847   5.313 -0.3283 -0.1716 -0.3927
 7742SOL    HW230740   0.373   2.836   5.405 -1.5154  1.1287  0.0738
 7742SOL    HW330741   0.256   2.843   5.310 -0.4296  1.6981 -1.2594
 7742SOL    MW430742   0.341   2.845   5.325 -0.3380  0.3322 -0.3595
 7743SOL     OW30743   2.973   5.552   6.060 -0.0657  0.5614 -0.2705
 7743SOL    HW230744   2.943   5.488   6.124 -0.2341  0.1183 -0.7866
 7743SOL    HW330745   3.055   5.516   6.027 -0.4825  0.2886 -1.0243
 7743SOL    MW430746   2.980   5.539   6.064 -0.0163 -0.2700 -0.2356
 7744SOL     OW30747   6.256   2.219   0.011 -0.5619 -0.2002 -0.2017
 7744SOL    HW230748   6.270   2.148   0.074 -0.6658 -0.1376 -0.1068
 7744SOL    HW330749   6.169   2.203  -0.024 -0.8737  0.2765  0.3378
 7744SOL    MW430750   6.247   2.207   0.015 -0.8605 -0.3530  0.4529
 7745SOL     OW30751   6.419   2.541   4.453  0.0278  0.3535 -0.0564
 7745SOL    HW230752   6.387   2.460   4.414 -1.4683 -0.2927  2.3112
 7745SOL    HW330753   6.506   2.554   4.415  0.1748 -2.1627 -0.7234
 7745SOL    MW430754   6.426   2.532   4.443 -0.1293  0.1496  0.0231
 7746SOL     OW30755   3.165   4.400   2.004  0.5360 -0.6543 -0.3613
 7746SOL    HW230756   3.105   4.328   2.023  0.8021 -0.8264 -0.1637
 7746SOL    HW330757   3.151   4.419   1.912 -0.1405 -0.3993 -0.2163
 7746SOL    MW430758   3.155   4.393   1.995  0.4831  0.4956  0.3638
 7747SOL     OW30759   4.101   0.074   6.325  0.6967 -0.0653 -0.2630
 7747SOL    HW230760   4.151   0.130   6.266  0.8950  0.9942  0.8567
 7747SOL    HW330761   4.080   0.131   6.399 -3.6863  0.1361 -1.3824
 7747SOL    MW430762   4.104   0.089   6.327  0.0119  0.2090 -0.5494
 7748SOL     OW30763   2.971   0.107   1.198  0.1009 -0.2690 -0.0517
 7748SOL    HW230764   3.016   0.094   1.282  2.0198 -0.2773 -1.0241
 7748SOL    HW330765   3.030   0.164   1.148 -2.2013  1.9289 -0.4979
 7748SOL    MW430766   2.985   0.113   1.203  0.1260 -0.6111 -0.4014
 7749SOL     OW30767   5.981   4.612   3.537 -0.0565 -0.3102 -0.3125
 7749SOL    HW230768   5.903   4.563   3.513 -1.2379  0.4390  1.7196
 7749SOL    HW330769   6.019   4.563   3.610 -0.3636  0.8873  0.6973
 7749SOL    MW430770   5.976   4.599   3.543 -0.1775 -0.5370  0.7063
 7750SOL     OW30771   5.332   4.118   0.712 -0.2574  0.0785  0.1970
 7750SOL    HW230772   5.261   4.154   0.766 -1.0306 -1.2615  0.1129
 7750SOL    HW330773   5.378   4.058   0.771 -0.0697 -0.1253 -0.1612
 7750SOL    MW430774   5.329   4.115   0.727 -0.3575 -0.4779  0.0574
 7751SOL     OW30775   6.135   0.974   2.434 -0.2525 -0.5087  0.0962
 7751SOL    HW230776   6.206   0.909   2.433  0.1406 -0.0816 -0.3287
 7751SOL    HW330777   6.057   0.925   2.410  0.2413 -0.6152 -1.4425
 7751SOL    MW430778   6.134   0.959   2.431 -0.4765  0.0129 -0.2862
 7752SOL     OW30779   4.034   3.265   0.112  0.2963 -0.1593 -0.1896
 7752SOL    HW230780   4.033   3.237   0.204  0.9311  1.4388  0.3507
 7752SOL    HW330781   3.959   3.220   0.072 -1.1424  0.5116  1.5791
 7752SOL    MW430782   4.024   3.255   0.119  0.4435 -0.1913  0.2048
 7753SOL     OW30783   4.315   3.116   0.839  0.7303 -0.0501  0.2874
 7753SOL    HW230784   4.257   3.095   0.766 -0.8093  0.9128  1.1668
 7753SOL    HW330785   4.327   3.033   0.885 -0.9337 -0.0620  0.7495
 7753SOL    MW430786   4.309   3.102   0.835  0.1227 -0.3897 -0.2922
 7754SOL     OW30787   3.863   0.441   6.415  0.5095 -0.4036  0.1957
 7754SOL    HW230788   3.949   0.404   6.435  0.0940 -0.7859  1.3277
 7754SOL    HW330789   3.812   0.368   6.381  1.5128  0.4109 -3.6249
 7754SOL    MW430790   3.868   0.427   6.413 -0.2983 -0.2310 -0.1663
 7755SOL     OW30791   2.133   4.879   0.890 -0.1344 -0.2730  0.2456
 7755SOL    HW230792   2.111   4.848   0.978  1.8174  0.0779  0.9004
 7755SOL    HW330793   2.201   4.818   0.860  3.0105  2.5274  1.1206
 7755SOL    MW430794   2.139   4.867   0.897 -0.3169 -0.1411 -0.1192
 7756SOL     OW30795   3.357   5.738   2.436 -0.6541 -0.1812 -0.5457
 7756SOL    HW230796   3.262   5.747   2.446 -0.8292 -0.5517 -1.7385
 7756SOL    HW330797   3.377   5.784   2.354 -0.1877 -2.2761 -1.6861
 7756SOL    MW430798   3.347   5.745   2.426 -0.4070 -0.4475 -0.5855
 7757SOL     OW30799   5.564   2.892   6.302 -0.1495 -0.3455  0.0013
 7757SOL    HW230800   5.510   2.968   6.279 -0.6381 -0.9997 -1.0881
 7757SOL    HW330801   5.592   2.857   6.218  1.9748 -0.0597  0.5351
 7757SOL    MW430802   5.560   2.898   6.287  0.0770 -0.0424  0.3326
 7758SOL     OW30803   2.234   0.085   6.007  0.2749  0.1919 -0.3935
 7758SOL    HW230804   2.181   0.014   5.971  0.7955  0.2573 -1.3223
 7758SOL    HW330805   2.301   0.041   6.060 -0.2350  0.0719  0.1610
 7758SOL    MW430806   2.236   0.070   6.009 -0.1362 -0.0390 -0.3806
 7759SOL     OW30807   1.424   4.193   5.079  0.3074 -0.3194 -0.0203
 7759SOL    HW230808   1.500   4.152   5.040  0.8941 -0.5921  1.3421
 7759SOL    HW330809   1.460   4.265   5.132 -0.3485 -0.5216  0.7259
 7759SOL    MW430810   1.439   4.197   5.081  0.7562 -0.6211  0.5983
 7760SOL     OW30811   0.417   4.835   2.526 -0.3385  0.6420  0.1146
 7760SOL    HW230812   0.354   4.866   2.461 -0.2653 -0.4099 -0.4773
 7760SOL    HW330813   0.368   4.771   2.578 -0.8341  2.5097  2.0778
 7760SOL    MW430814   0.402   4.831   2.524  0.4066  0.9379  0.3940
 7761SOL     OW30815   4.107   1.747   2.704  0.3580  0.2293  0.4132
 7761SOL    HW230816   4.202   1.756   2.702  0.3388  0.5012 -2.1259
 7761SOL    HW330817   4.077   1.787   2.623 -1.8236 -1.1092  0.4685
 7761SOL    MW430818   4.116   1.754   2.693 -0.1119 -0.4897 -0.1220
 7762SOL     OW30819   6.404   4.859   4.120 -0.2136 -0.4373 -0.7931
 7762SOL    HW230820   6.462   4.788   4.094  0.2099 -0.2687 -0.3139
 7762SOL    HW330821   6.416   4.926   4.052  1.4651  0.3245  0.1884
 7762SOL    MW430822   6.413   4.859   4.107 -0.0681  0.0649 -0.3538
 7763SOL     OW30823   2.928   2.134   6.107 -0.0106  0.1519 -0.0934
 7763SOL    HW230824   2.954   2.046   6.131 -0.1435  0.6754  2.2664
 7763SOL    HW330825   2.889   2.170   6.187  1.1928  2.7749 -0.5690
 7763SOL    MW430826   2.926   2.127   6.121 -0.0269 -0.4306 -1.0869
 7764SOL     OW30827   1.158   0.648   2.058 -0.3302  0.8177 -0.0089
 7764SOL    HW230828   1.243   0.651   2.103 -0.5356 -1.1706  0.5805
 7764SOL    HW330829   1.104   0.712   2.105  0.4446  1.1631  0.4324
 7764SOL    MW430830   1.162   0.657   2.070  0.1065  0.5546  0.0819
 7765SOL     OW30831   4.287   4.829   3.109 -0.0844 -0.2046  0.5401
 7765SOL    HW230832   4.203   4.785   3.117  0.2567 -0.8532  0.6736
 7765SOL    HW330833   4.322   4.800   3.025  1.4761 -2.6338  1.9104
 7765SOL    MW430834   4.281   4.819   3.099  0.2215  0.1434  0.2495
 7766SOL     OW30835   5.002   0.184   0.121 -0.3203  0.6277 -0.2130
 7766SOL    HW230836   4.941   0.217   0.054 -0.6305  1.1214  0.2989
 7766SOL    HW330837   4.946   0.136   0.182 -0.2987  1.5498  0.5612
 7766SOL    MW430838   4.986   0.182   0.120 -0.5559 -0.5641  0.1525
 7767SOL     OW30839   1.708   1.822   3.596 -0.4455  0.0504  0.9727
 7767SOL    HW230840   1.636   1.773   3.557 -0.6372  0.0721  1.2946
 7767SOL    HW330841   1.731   1.772   3.674 -0.8291  0.6177  1.4595
 7767SOL    MW430842   1.702   1.809   3.601 -0.7070 -0.5412 -0.4910
 7768SOL     OW30843   2.359   3.871   4.376 -0.2735 -0.1138 -0.4419
 7768SOL    HW230844   2.433   3.931   4.372  0.1609 -0.6253 -0.2231
 7768SOL    HW330845   2.292   3.912   4.321 -0.4569  1.1851  0.7108
 7768SOL    MW430846   2.360   3.884   4.368 -0.0288  0.1689 -0.3524
 7769SOL     OW30847   1.181   2.277   4.523  0.1044 -0.7628  0.2626
 7769SOL    HW230848   1.125   2.281   4.446 -0.3351 -2.0295  0.4947
 7769SOL    HW330849   1.265   2.311   4.494 -0.2472 -0.6097 -0.5894
 7769SOL    MW430850   1.184   2.282   4.509  0.3315  0.2846  0.3673
 7770SOL     OW30851   2.727   3.986   3.566  0.4335 -0.3173 -0.3064
 7770SOL    HW230852   2.739   3.909   3.620  0.7482 -0.5676 -0.7241
 7770SOL    HW330853   2.664   4.040   3.614 -0.1238 -1.0288 -0.2220
 7770SOL    MW430854   2.720   3.983   3.579 -0.1303 -0.1714  0.4559
 7771SOL     OW30855   6.282   0.380   3.420  0.2738  0.4881 -0.1959
 7771SOL    HW230856   6.199   0.426   3.412  0.5534  1.0185 -0.0801
 7771SOL    HW330857   6.276   0.309   3.356 -0.9382 -0.5228  0.9602
 7771SOL    MW430858   6.270   0.377   3.410 -0.0027  0.5624  0.6322
 7772SOL     OW30859   1.664   6.404   1.858  0.4246  0.0358 -0.2810
 7772SOL    HW230860   1.640   6.396   1.765 -1.5413 -0.4571  0.2110
 7772SOL    HW330861   1.667   6.314   1.890 -0.8987  0.2585  0.5553
 7772SOL    MW430862   1.661   6.391   1.850  0.2320 -0.1176 -0.0963
 7773SOL     OW30863   2.935   2.796   2.217  0.2692  0.1905 -0.5696
 7773SOL    HW230864   3.021   2.768   2.187  0.3472  2.0807 -2.3448
 7773SOL    HW330865   2.949   2.823   2.307  0.7260 -2.6888  0.3449
 7773SOL    MW430866   2.948   2.796   2.225  0.4412  0.5564 -0.0987
 7774SOL     OW30867   2.384   0.646   5.208 -0.2919 -0.7863 -0.2482
 7774SOL    HW230868   2.449   0.586   5.171  1.8297  0.6656  0.9020
 7774SOL    HW330869   2.435   0.703   5.266 -2.2792  1.7033 -0.7826
 7774SOL    MW430870   2.399   0.646   5.211  0.6285 -0.7151 -0.3370
 7775SOL     OW30871   5.530   1.381   4.886 -0.3466 -0.2124  0.3465
 7775SOL    HW230872   5.556   1.293   4.915 -1.6173 -0.2422  1.4929
 7775SOL    HW330873   5.610   1.433   4.892 -0.2062 -0.5868  2.5763
 7775SOL    MW430874   5.544   1.376   4.891  0.1781 -0.1941 -0.5881
 7776SOL     OW30875   1.061   2.579   4.300  0.3416  0.2806  0.4310
 7776SOL    HW230876   1.054   2.610   4.390 -0.7955 -2.2533  1.3306
 7776SOL    HW330877   0.991   2.626   4.253  1.6052  2.3931  0.5284
 7776SOL    MW430878   1.051   2.589   4.306 -0.3044 -0.0532 -0.0226
 7777SOL     OW30879   0.731   3.658   1.922 -0.1442 -0.1298 -0.6241
 7777SOL    HW230880   0.643   3.680   1.952  0.4026  0.2879  0.7824
 7777SOL    HW330881   0.777   3.629   2.001  1.2086  0.4322 -1.1566
 7777SOL    MW430882   0.726   3.657   1.936 -0.2784 -0.4066  0.0645
 7778SOL     OW30883   4.918   1.606   2.468 -1.0794 -0.2636  0.1887
 7778SOL    HW230884   4.986   1.612   2.400 -0.9222  0.7002  0.4136
 7778SOL    HW330885   4.855   1.544   2.432 -0.4013 -0.6910 -0.3085
 7778SOL    MW430886   4.919   1.599   2.454  0.3406  0.1100 -0.1719
 7779SOL     OW30887   6.272   2.474   4.892  0.3970 -0.1751 -0.1069
 7779SOL    HW230888   6.242   2.430   4.813 -1.5613 -0.1042  0.5574
 7779SOL    HW330889   6.214   2.549   4.902  2.1729  1.2604  0.0892
 7779SOL    MW430890   6.260   2.478   4.883 -0.6731 -0.0990 -0.2421
 7780SOL     OW30891   5.078   3.142   5.455  0.3957 -0.2467 -0.4798
 7780SOL    HW230892   5.147   3.207   5.458 -0.0245  0.1694  0.2449
 7780SOL    HW330893   5.016   3.168   5.523 -0.2197 -0.9005 -0.7708
 7780SOL    MW430894   5.079   3.154   5.464 -0.0699  0.0588 -0.6129
 7781SOL     OW30895   5.540   5.571   4.436 -0.2461  0.0285  0.2692
 7781SOL    HW230896   5.473   5.598   4.373  0.0571  2.6649  0.9660
 7781SOL    HW330897   5.505   5.597   4.521  0.5639 -0.9573  0.9360
 7781SOL    MW430898   5.527   5.578   4.439  0.1835  0.1112 -0.2407
 7782SOL     OW30899   5.368   5.179   4.253 -0.1886 -0.1804 -0.0464
 7782SOL    HW230900   5.405   5.212   4.336 -0.4349 -1.1416  0.4596
 7782SOL    HW330901   5.381   5.251   4.191 -2.2338  1.5614  1.4135
 7782SOL    MW430902   5.375   5.193   4.256  0.3158  0.6394 -0.4276
 7783SOL     OW30903   1.945  -0.014   1.986 -0.6354  0.0297  0.4599
 7783SOL    HW230904   2.029  -0.036   2.026 -1.4540  1.3752  3.1886
 7783SOL    HW330905   1.896  -0.096   1.986  0.4856 -0.6756 -0.7754
 7783SOL    MW430906   1.949  -0.028   1.991  0.1409 -0.3552  0.0887
 7784SOL     OW30907   0.282   1.586   5.455  0.4462  0.1435 -0.5865
 7784SOL    HW230908   0.205   1.641   5.472  1.4094  1.9700 -1.8065
 7784SOL    HW330909   0.258   1.533   5.379  0.7630  1.5969 -1.7489
 7784SOL    MW430910   0.268   1.586   5.447  0.1535 -0.7084  0.8181
 7785SOL     OW30911   2.141   1.901   6.385 -0.2018 -0.0420 -0.1262
 7785SOL    HW230912   2.123   1.815   6.422  0.1397 -0.0266  0.0758
 7785SOL    HW330913   2.157   1.884   6.292 -0.6085 -0.1343 -0.1815
 7785SOL    MW430914   2.141   1.888   6.377  0.3322  0.0965  0.0573
 7786SOL     OW30915   3.305   2.991   0.623 -0.1282  0.2628  0.3635
 7786SOL    HW230916   3.287   2.999   0.717 -0.7200  2.0327  0.1358
 7786SOL    HW330917   3.220   2.967   0.585  0.3361 -1.4873  0.3657
 7786SOL    MW430918   3.291   2.989   0.631  0.1226 -0.5933 -0.1858
 7787SOL     OW30919   0.217   2.752   1.311 -0.0098  0.1277  0.0433
 7787SOL    HW230920   0.198   2.834   1.266  2.1941  0.1498 -1.0247
 7787SOL    HW330921   0.196   2.684   1.246 -2.2010 -0.2379  1.0594
 7787SOL    MW430922   0.212   2.754   1.296  0.0243  0.0343 -0.0274
 7788SOL     OW30923   3.062   5.720   5.047 -0.4117  0.5638  0.1703
 7788SOL    HW230924   3.130   5.661   5.082 -1.2592 -1.0245 -0.7340
 7788SOL    HW330925   3.010   5.664   4.990 -1.4732  2.1567 -0.4723
 7788SOL    MW430926   3.064   5.704   5.044  0.2360 -0.7010 -0.3731
 7789SOL     OW30927   0.537   4.151   2.831 -0.5180 -0.1731 -0.0426
 7789SOL    HW230928   0.528   4.246   2.842 -1.0149  0.0891 -2.1672
 7789SOL    HW330929   0.595   4.142   2.755  0.3717 -1.6131  0.7773
 7789SOL    MW430930   0.543   4.163   2.823 -0.1839 -0.4255 -0.3462
 7790SOL     OW30931   0.779   4.003   0.166 -0.4285  0.4357  0.0569
 7790SOL    HW230932   0.734   3.919   0.172  1.0472 -0.3752  0.0212
 7790SOL    HW330933   0.773   4.040   0.255  0.9489 -0.8034  0.7032
 7790SOL    MW430934   0.772   3.997   0.179 -0.0392  0.5015 -0.3601
 7791SOL     OW30935   0.204   5.851   3.052 -0.0596  0.6559 -0.4054
 7791SOL    HW230936   0.127   5.908   3.049 -1.0617 -0.6666 -0.6202
 7791SOL    HW330937   0.207   5.818   3.141  0.5093  0.9891 -0.2896
 7791SOL    MW430938   0.194   5.854   3.063 -0.8840 -0.9982  0.7459
 7792SOL     OW30939   0.497   5.199   1.343  0.4608 -0.2683  0.0068
 7792SOL    HW230940   0.523   5.280   1.298  0.5597  1.2224  2.5743
 7792SOL    HW330941   0.476   5.226   1.432 -2.9506 -2.5372  0.0739
 7792SOL    MW430942   0.498   5.213   1.349 -0.6437 -0.4036 -0.4460
 7793SOL     OW30943   6.219   2.803   4.481 -0.1992 -0.0619 -0.3471
 7793SOL    HW230944   6.152   2.739   4.502 -1.3887  0.4839 -2.2533
 7793SOL    HW330945   6.295   2.750   4.456 -0.6656 -0.7136 -0.4059
 7793SOL    MW430946   6.221   2.787   4.480 -0.4544 -0.3328 -0.1410
 7794SOL     OW30947   2.269   5.273   4.620 -0.5318  0.2577  0.2418
 7794SOL    HW230948   2.199   5.214   4.650 -1.2623 -0.0201 -1.7999
 7794SOL    HW330949   2.346   5.246   4.669 -1.9560  1.0333  3.0899
 7794SOL    MW430950   2.270   5.261   4.630  0.4439 -0.1820 -0.2748
 7795SOL     OW30951   5.404   6.288   4.648  0.0009 -0.7206 -0.0701
 7795SOL    HW230952   5.408   6.229   4.572 -0.4509 -1.6030  0.5729
 7795SOL    HW330953   5.312   6.290   4.672  0.1512 -0.5163  0.5069
 7795SOL    MW430954   5.392   6.280   4.641 -0.5716 -0.5332 -0.2589
 7796SOL     OW30955   3.026   4.699   4.278  0.7804  0.4340 -0.0533
 7796SOL    HW230956   2.971   4.645   4.221  0.5814  1.9256 -1.3307
 7796SOL    HW330957   3.107   4.712   4.228  0.9801  0.9913  0.4018
 7796SOL    MW430958   3.030   4.694   4.264  0.5984 -0.1459 -0.6296
 7797SOL     OW30959   1.816   1.919   1.758  0.1823 -0.3944 -0.2711
 7797SOL    HW230960   1.776   1.832   1.767 -0.5160  0.1508  3.2328
 7797SOL    HW330961   1.793   1.946   1.669 -0.4409 -3.3448 -1.1186
 7797SOL    MW430962   1.807   1.911   1.748  0.4223  0.2366  0.2291
 7798SOL     OW30963   5.328   5.504   0.975  0.5169  0.4720 -0.2961
 7798SOL    HW230964   5.286   5.530   1.057 -0.1937  0.3005 -0.5913
 7798SOL    HW330965   5.336   5.585   0.925 -0.1303  0.3977 -0.5277
 7798SOL    MW430966   5.323   5.518   0.979 -0.3376 -0.3593  0.4899
 7799SOL     OW30967   0.093   3.543   4.253 -0.6805 -0.4761 -0.0285
 7799SOL    HW230968   0.168   3.507   4.206 -0.7095  2.5306 -2.8090
 7799SOL    HW330969   0.130   3.578   4.334  0.1293 -2.3840  0.4803
 7799SOL    MW430970   0.107   3.543   4.257 -0.1772  0.4058 -0.1260
 7800SOL     OW30971   5.100   6.143   2.783  0.1671  0.2091 -0.0099
 7800SOL    HW230972   5.040   6.115   2.713  1.5809  0.4173 -1.3666
 7800SOL    HW330973   5.058   6.219   2.821  0.2448  1.3186 -1.9869
 7800SOL    MW430974   5.086   6.149   2.779 -0.7673 -0.8008  0.1264
 7801SOL     OW30975   0.906   1.864   1.206 -0.2836 -0.0609 -0.4310
 7801SOL    HW230976   0.915   1.797   1.274  0.4157 -0.0571 -0.5217
 7801SOL    HW330977   0.988   1.912   1.208  0.7180 -1.5138 -2.8204
 7801SOL    MW430978   0.918   1.861   1.216 -0.5533 -0.1288 -0.0457
 7802SOL     OW30979   1.938   2.165   0.944 -0.2136 -0.3648 -0.4972
 7802SOL    HW230980   1.960   2.233   1.007 -0.2649 -0.1489 -0.7087
 7802SOL    HW330981   1.874   2.207   0.885 -1.1197 -0.9397  0.0491
 7802SOL    MW430982   1.932   2.179   0.944 -0.0358  0.7569  0.1788
 7803SOL     OW30983   3.814   6.391   4.450 -0.1959  0.0718 -0.5739
 7803SOL    HW230984   3.839   6.475   4.411 -2.7427  1.5594  0.7647
 7803SOL    HW330985   3.768   6.345   4.380  1.2171 -0.2684 -1.3153
 7803SOL    MW430986   3.811   6.396   4.435 -0.0121  0.2743 -0.3569
 7804SOL     OW30987   0.213   3.600   0.151 -0.1137  0.6130  0.5551
 7804SOL    HW230988   0.150   3.584   0.081  0.4500 -0.8576  0.3388
 7804SOL    HW330989   0.202   3.692   0.173 -2.6098  0.3322  0.7870
 7804SOL    MW430990   0.203   3.610   0.145  0.3457  0.1041  0.1572
 7805SOL     OW30991   3.919   0.926   4.763  0.0062 -0.0396  0.2270
 7805SOL    HW230992   3.841   0.981   4.752  0.3530  0.3542 -0.3582
 7805SOL    HW330993   3.974   0.949   4.688  0.9689  0.1658  0.9765
 7805SOL    MW430994   3.916   0.937   4.752 -0.1825 -0.1668 -0.4729
 7806SOL     OW30995   5.842   3.989   5.977 -0.4589  0.2132 -0.1625
 7806SOL    HW230996   5.842   3.961   5.886  0.5818  0.4150 -0.2439
 7806SOL    HW330997   5.886   4.075   5.976 -1.1153  0.5688  0.4301
 7806SOL    MW430998   5.848   3.997   5.965  0.1459 -0.0218  0.2176
 7807SOL     OW30999   2.152   5.120   3.857 -0.1611  0.1631 -0.5266
 7807SOL    HW231000   2.111   5.140   3.772  0.9487 -0.3280 -1.2034
 7807SOL    HW331001   2.122   5.031   3.877  1.3529 -0.6109 -1.5390
 7807SOL    MW431002   2.142   5.111   3.848 -0.0689  0.6070  1.1373
 7808SOL     OW31003   0.481   4.285   2.431 -0.0357  0.2092 -0.3536
 7808SOL    HW231004   0.551   4.321   2.376  1.3570  0.4324  1.4611
 7808SOL    HW331005   0.411   4.350   2.426  0.7319  1.0573 -0.5289
 7808SOL    MW431006   0.481   4.298   2.423  0.0668 -0.0810 -0.7300
 7809SOL     OW31007   4.850   0.293   6.358  0.1828  0.6820 -0.1960
 7809SOL    HW231008   4.769   0.281   6.408  0.0838 -0.5506 -0.6063
 7809SOL    HW331009   4.853   0.217   6.300  1.9699  0.3868  0.2489
 7809SOL    MW431010   4.840   0.281   6.357  0.4668 -0.6483  0.4854
 7810SOL     OW31011   4.520   0.013   4.821 -0.8406  0.4610 -0.3179
 7810SOL    HW231012   4.554   0.037   4.735  0.9886  0.2670  0.3103
 7810SOL    HW331013   4.559   0.076   4.881 -2.2023  0.6808  0.3803
 7810SOL    MW431014   4.529   0.024   4.818  0.5269 -0.0422 -0.1177
 7811SOL     OW31015   1.347   5.434   0.045 -0.1269  0.1986 -0.1719
 7811SOL    HW231016   1.414   5.500   0.058 -1.3266  1.5437 -0.5340
 7811SOL    HW331017   1.395   5.351   0.038  1.4663  1.1229 -0.5222
 7811SOL    MW431018   1.362   5.431   0.046  0.5479 -0.6049 -0.1351
 7812SOL     OW31019   0.701   3.060   5.219  0.1879  0.3915 -0.2488
 7812SOL    HW231020   0.755   3.137   5.204  0.0671  0.9891  2.0027
 7812SOL    HW331021   0.611   3.093   5.219 -0.1585 -0.3776 -2.6715
 7812SOL    MW431022   0.696   3.074   5.217  0.5417  0.4527 -0.2186
 7813SOL     OW31023   6.142   3.092   3.887 -0.6549 -0.0409 -0.0079
 7813SOL    HW231024   6.128   3.004   3.923 -2.8918  0.2881  0.0467
 7813SOL    HW331025   6.127   3.151   3.961  0.1791  0.4453 -0.2085
 7813SOL    MW431026   6.138   3.088   3.902  0.0057 -0.5577  0.2991
 7814SOL     OW31027   5.578   3.489   6.206 -0.6124  0.0043  0.1501
 7814SOL    HW231028   5.562   3.583   6.205  2.9212  0.7366 -1.3177
 7814SOL    HW331029   5.615   3.471   6.293 -2.0041 -0.2670  0.7243
 7814SOL    MW431030   5.581   3.499   6.217  0.4745  0.2196 -0.5675
 7815SOL     OW31031   3.951   5.737   5.943  0.2545  0.4879  1.0241
 7815SOL    HW231032   3.873   5.752   5.890  1.6221  0.1901 -1.2301
 7815SOL    HW331033   4.021   5.781   5.894  2.0686 -2.0455  1.1842
 7815SOL    MW431034   3.950   5.745   5.929 -0.1267  0.1380 -0.2311
 7816SOL     OW31035   0.117   3.060   1.983 -0.3747  0.7688 -0.4856
 7816SOL    HW231036   0.135   3.125   2.051  0.5138  1.3065 -1.1943
 7816SOL    HW331037   0.027   3.032   1.998 -0.0079  0.4374  1.2556
 7816SOL    MW431038   0.108   3.065   1.994  0.1217  0.6650  0.0993
 7817SOL     OW31039   2.494   4.452   1.712  0.0498 -0.4661  0.3633
 7817SOL    HW231040   2.490   4.445   1.617 -0.7211  1.0576  0.2687
 7817SOL    HW331041   2.560   4.519   1.729  1.0220 -1.5215  0.9737
 7817SOL    MW431042   2.502   4.460   1.702 -0.3372 -0.1525  0.0426
 7818SOL     OW31043   4.798   1.325   4.944 -0.9778  0.5147 -0.2446
 7818SOL    HW231044   4.807   1.419   4.932 -1.6129  0.8658  1.6382
 7818SOL    HW331045   4.888   1.291   4.938 -0.3255  1.6602  1.7697
 7818SOL    MW431046   4.811   1.333   4.942  0.9176  0.3706  0.7569
 7819SOL     OW31047   3.332   4.085   3.952 -0.0961  0.3583 -0.0992
 7819SOL    HW231048   3.390   4.131   3.892  1.6241  0.1634  1.3243
 7819SOL    HW331049   3.332   4.139   4.032 -1.3546  0.0049  0.1635
 7819SOL    MW431050   3.340   4.098   3.955  0.7333 -0.1313 -0.0609
 7820SOL     OW31051   2.489   5.401   5.999  0.1744  0.5259 -0.2425
 7820SOL    HW231052   2.582   5.422   6.010 -0.2689  3.1807 -0.7113
 7820SOL    HW331053   2.448   5.428   6.081 -0.2821  0.1718 -0.3510
 7820SOL    MW431054   2.496   5.407   6.011  0.0678  0.9902  0.4427
 7821SOL     OW31055   5.250   3.334   2.730  0.4376  0.2167  0.0469
 7821SOL    HW231056   5.274   3.248   2.696  0.3051  1.1746 -2.7332
 7821SOL    HW331057   5.267   3.394   2.657 -1.5225  2.2502  1.1399
 7821SOL    MW431058   5.256   3.331   2.716 -0.5278  0.6894 -0.3600
 7822SOL     OW31059   1.146   2.956   2.013  0.5678  0.5704  0.2170
 7822SOL    HW231060   1.158   2.963   1.918  1.9654  0.5812  0.3628
 7822SOL    HW331061   1.146   3.047   2.044 -1.3697  0.6424  0.1014
 7822SOL    MW431062   1.148   2.969   2.005  0.0306 -0.2124  0.1921
 7823SOL     OW31063   3.888   2.900   0.180 -0.2295 -0.0525 -0.0177
 7823SOL    HW231064   3.867   2.985   0.139  0.4515  0.6545  1.0661
 7823SOL    HW331065   3.977   2.882   0.151  0.0049  0.1175  0.5900
 7823SOL    MW431066   3.897   2.909   0.171 -0.3664  0.1001  0.0042
 7824SOL     OW31067   1.155   0.913   3.593  0.6838  0.4989 -0.0839
 7824SOL    HW231068   1.193   0.869   3.670  1.6872 -0.6441 -1.1953
 7824SOL    HW331069   1.231   0.940   3.541  0.0115  0.1888 -1.2524
 7824SOL    MW431070   1.170   0.911   3.597  0.2163  0.3237  0.0986
 7825SOL     OW31071   2.062   2.954   4.959 -0.6161 -0.1674  0.1318
 7825SOL    HW231072   2.003   2.967   5.033  0.7381  2.8599  0.8361
 7825SOL    HW331073   2.139   2.912   4.998 -0.0165  1.1730  0.4431
 7825SOL    MW431074   2.065   2.950   4.974 -0.2068  0.1550 -0.3769
 7826SOL     OW31075   6.318   4.724   0.794 -0.6363  0.2997 -0.2429
 7826SOL    HW231076   6.291   4.791   0.857  2.2572  1.4328 -0.0582
 7826SOL    HW331077   6.324   4.643   0.845 -0.0139  0.8310  0.5273
 7826SOL    MW431078   6.315   4.722   0.809  0.1815 -0.3154 -0.1104
 7827SOL     OW31079   5.721   0.320   4.671 -0.5413  0.1990  0.3248
 7827SOL    HW231080   5.754   0.338   4.582  0.9237  0.2449  0.8505
 7827SOL    HW331081   5.647   0.261   4.657 -1.2511  1.3284 -1.0169
 7827SOL    MW431082   5.715   0.315   4.657 -0.1582  0.2914 -0.2777
 7828SOL     OW31083   4.218   0.616   3.409 -0.3686 -0.4829 -0.0333
 7828SOL    HW231084   4.203   0.522   3.399 -1.5037 -0.3585  0.3174
 7828SOL    HW331085   4.179   0.637   3.493  1.0004  0.0925  0.4847
 7828SOL    MW431086   4.211   0.606   3.419  0.0924  0.3298 -0.4270
 7829SOL     OW31087   2.466   3.077   5.129 -0.4667  0.5278  0.0644
 7829SOL    HW231088   2.560   3.072   5.147 -0.3948 -0.8745 -0.5263
 7829SOL    HW331089   2.427   3.101   5.213  0.3282 -0.1450  0.6481
 7829SOL    MW431090   2.474   3.079   5.142 -0.4828  0.4133  0.0982
 7830SOL     OW31091   1.891   2.480   0.012 -0.2284  0.4765 -0.3194
 7830SOL    HW231092   1.853   2.470   0.099 -0.3638 -0.6155 -0.4899
 7830SOL    HW331093   1.972   2.429   0.014  0.6524  1.8041 -0.3330
 7830SOL    MW431094   1.897   2.472   0.023 -0.1196  0.0244 -0.4618
 7831SOL     OW31095   2.632   3.644   1.452 -0.1531 -0.1102 -0.6689
 7831SOL    HW231096   2.583   3.601   1.522 -1.9553  1.7708 -0.6940
 7831SOL    HW331097   2.715   3.668   1.493 -1.0964  0.7820  0.7839
 7831SOL    MW431098   2.637   3.641   1.467 -0.2392  0.1256 -0.4187
 7832SOL     OW31099   3.585   1.225   1.632 -0.2268  0.7902  0.2267
 7832SOL    HW231100   3.652   1.293   1.643  0.0439  0.5242  0.2349
 7832SOL    HW331101   3.524   1.261   1.568  1.2976  0.0090 -1.7520
 7832SOL    MW431102   3.586   1.239   1.625  0.9218 -0.4654 -0.1558
 7833SOL     OW31103   0.054   3.590   0.901  0.1026  0.1647  0.1888
 7833SOL    HW231104   0.084   3.609   0.990  0.2678  0.0258  0.1631
 7833SOL    HW331105   0.124   3.537   0.863 -0.0474  0.0778  0.0336
 7833SOL    MW431106   0.067   3.586   0.908 -0.1490 -0.0287 -0.1832
 7834SOL     OW31107   0.830   2.830   4.861 -0.1024  0.0373 -0.1076
 7834SOL    HW231108   0.900   2.876   4.814 -1.7129  1.6318 -1.0830
 7834SOL    HW331109   0.776   2.793   4.791  0.3614 -2.1858  0.6476
 7834SOL    MW431110   0.832   2.831   4.845  0.4040 -0.1928 -0.0975
 7835SOL     OW31111   5.743   2.936   3.685 -0.1032 -0.4565 -0.1236
 7835SOL    HW231112   5.693   2.912   3.607  0.4467  0.3409 -0.7398
 7835SOL    HW331113   5.777   3.023   3.665 -0.4262  0.0051  1.2429
 7835SOL    MW431114   5.741   2.945   3.672 -0.1511 -0.3041 -0.2016
 7836SOL     OW31115   0.213   1.507   3.423  0.3576  0.3039  0.4137
 7836SOL    HW231116   0.175   1.524   3.509 -0.1635  3.7505 -0.3537
 7836SOL    HW331117   0.143   1.465   3.373 -0.3716  1.0192  0.8147
 7836SOL    MW431118   0.199   1.503   3.428 -0.1748 -1.0295 -0.7373
 7837SOL     OW31119   1.984   3.197   5.873 -0.1218 -0.4013  0.6264
 7837SOL    HW231120   1.907   3.253   5.864  0.2824 -0.0685 -1.3070
 7837SOL    HW331121   2.054   3.256   5.899  0.2174 -0.0225 -1.0330
 7837SOL    MW431122   1.983   3.212   5.875  0.2923 -0.1121 -0.1040
 7838SOL     OW31123   5.729   1.037   2.389 -0.2538 -0.2303  0.1605
 7838SOL    HW231124   5.679   1.071   2.316  0.6965  1.5340  0.2694
 7838SOL    HW331125   5.798   0.985   2.349  0.1925  0.6324 -0.2205
 7838SOL    MW431126   5.732   1.035   2.374  0.2878  0.7364  0.6368
 7839SOL     OW31127   4.214   4.120   6.007 -0.1848 -0.2306  0.1267
 7839SOL    HW231128   4.191   4.183   5.939 -0.3132 -0.6733 -0.2449
 7839SOL    HW331129   4.197   4.166   6.089 -5.3399 -1.4267  0.0474
 7839SOL    MW431130   4.209   4.135   6.009  0.1080 -0.3854 -0.0181
 7840SOL     OW31131   3.025   4.382   6.111  0.0888 -0.0193  0.1260
 7840SOL    HW231132   3.049   4.320   6.042 -2.1206 -0.3227 -0.4475
 7840SOL    HW331133   2.951   4.431   6.074 -2.4924 -1.5119  2.8905
 7840SOL    MW431134   3.018   4.380   6.097 -0.1714 -0.3844  0.1774
 7841SOL     OW31135   4.968   4.900   2.626 -0.9349  0.1446  0.4409
 7841SOL    HW231136   4.968   4.862   2.539 -0.3617 -0.6301  0.7677
 7841SOL    HW331137   4.883   4.943   2.634 -1.8925 -1.6278  0.2999
 7841SOL    MW431138   4.957   4.901   2.616  0.5081  0.2027  0.2908
 7842SOL     OW31139   5.122   2.205   1.018 -0.0018 -0.7470  0.1100
 7842SOL    HW231140   5.110   2.185   0.925  0.1132 -0.5783  0.0579
 7842SOL    HW331141   5.065   2.143   1.063 -0.2582 -0.6565 -0.0870
 7842SOL    MW431142   5.113   2.194   1.011  0.3391 -0.3937  0.9119
 7843SOL     OW31143   4.757   4.142   1.380 -0.0431  0.0065 -0.1188
 7843SOL    HW231144   4.799   4.071   1.331  1.0094  0.0157  0.7579
 7843SOL    HW331145   4.675   4.157   1.332  0.6272 -0.4459 -1.4818
 7843SOL    MW431146   4.751   4.135   1.367  0.4268  1.1998 -0.1482
 7844SOL     OW31147   4.342   6.356   6.114 -0.3675  0.2017 -0.4565
 7844SOL    HW231148   4.273   6.314   6.062 -1.5746  2.0104 -0.4200
 7844SOL    HW331149   4.416   6.364   6.054 -1.0563  0.4796 -1.2876
 7844SOL    MW431150   4.343   6.351   6.099 -0.1842  0.0927 -0.1639
 7845SOL     OW31151   5.147   0.324   4.987  0.3789 -0.7207  0.0089
 7845SOL    HW231152   5.069   0.334   5.041  1.3099 -0.6771  1.4086
 7845SOL    HW331153   5.171   0.413   4.963  0.9473 -0.5781  1.0305
 7845SOL    MW431154   5.140   0.337   4.991  0.0779 -0.5926 -0.1441
 7846SOL     OW31155   3.771   1.640   4.209 -0.2480 -0.3070 -0.0827
 7846SOL    HW231156   3.695   1.590   4.180 -1.1496  0.6348  0.5872
 7846SOL    HW331157   3.822   1.578   4.262 -1.8439 -0.3110  1.5574
 7846SOL    MW431158   3.768   1.626   4.212 -0.1536  0.4951 -0.0896
 7847SOL     OW31159   0.602   6.201   3.090 -0.2464 -0.1223  0.4064
 7847SOL    HW231160   0.521   6.154   3.070 -1.1801  1.7671 -0.5888
 7847SOL    HW331161   0.577   6.262   3.160  0.5992 -0.2177  0.8061
 7847SOL    MW431162   0.588   6.203   3.096 -0.2745  0.3598 -0.1311
 7848SOL     OW31163   3.363   0.515   3.549 -0.3375  0.1086 -0.3633
 7848SOL    HW231164   3.315   0.505   3.631 -1.3515  0.1656 -0.9221
 7848SOL    HW331165   3.310   0.576   3.498  0.5161  0.4257 -0.8850
 7848SOL    MW431166   3.349   0.522   3.553 -0.2033  0.2079  0.2737
 7849SOL     OW31167   5.643   4.829   1.876  0.3613 -0.6784  0.3750
 7849SOL    HW231168   5.559   4.875   1.883 -0.0991 -1.4427 -0.0849
 7849SOL    HW331169   5.670   4.841   1.785  0.7492 -0.4495  0.5163
 7849SOL    MW431170   5.636   4.837   1.865  0.4047  0.1130  0.1457
 7850SOL     OW31171   1.414   3.756   0.956  0.0348  0.4615 -0.2748
 7850SOL    HW231172   1.424   3.836   0.905  0.5964 -0.5971 -1.8978
 7850SOL    HW331173   1.497   3.747   1.003 -0.1876  1.0385  0.2358
 7850SOL    MW431174   1.426   3.766   0.956  0.2891 -0.1786 -0.0795
 7851SOL     OW31175   1.541   1.381   1.270 -0.0908  0.2989  0.3392
 7851SOL    HW231176   1.577   1.293   1.258 -1.8026 -0.6497  1.6361
 7851SOL    HW331177   1.454   1.377   1.230 -0.8722  0.8120  1.8714
 7851SOL    MW431178   1.534   1.369   1.263  0.0947  0.3681  0.0852
 7852SOL     OW31179   3.821   0.513   1.320  0.1359 -0.1605  0.1297
 7852SOL    HW231180   3.821   0.446   1.388 -1.4546 -2.2357 -1.7672
 7852SOL    HW331181   3.894   0.571   1.343 -0.3304 -0.7050  3.5584
 7852SOL    MW431182   3.831   0.512   1.332 -0.4163 -0.2235  0.0170
 7853SOL     OW31183   5.481   3.970   6.384  0.5385  0.1765  0.1542
 7853SOL    HW231184   5.457   4.010   6.467  0.7390  0.5751  0.0213
 7853SOL    HW331185   5.409   3.990   6.325  1.0458  1.1360 -0.1662
 7853SOL    MW431186   5.469   3.978   6.387 -0.0915  0.5367  0.2056
 7854SOL     OW31187   3.982   0.007   5.028 -0.1892 -0.6928 -0.2315
 7854SOL    HW231188   3.982  -0.042   5.111 -0.8031 -2.3600 -1.1607
 7854SOL    HW331189   3.925   0.083   5.045 -0.6057 -1.2085  0.7747
 7854SOL    MW431190   3.974   0.010   5.041 -0.7643  0.9213 -0.4789
 7855SOL     OW31191   3.277   6.040   2.617  0.0254 -1.3130  0.1839
 7855SOL    HW231192   3.302   5.993   2.537 -0.7601 -1.1820 -0.1412
 7855SOL    HW331193   3.342   6.012   2.682  1.9002  0.0605 -0.9716
 7855SOL    MW431194   3.289   6.030   2.615 -0.3240  0.6989 -0.9542
 7856SOL     OW31195   1.195   2.763   1.359 -0.3994 -0.1278 -0.0498
 7856SOL    HW231196   1.283   2.737   1.331  0.5380  1.5344  1.1624
 7856SOL    HW331197   1.193   2.741   1.453 -1.0785  0.3406  0.0506
 7856SOL    MW431198   1.206   2.756   1.368  0.2764 -0.0329 -0.4744
 7857SOL     OW31199   2.216   0.233   5.431  0.4158 -0.1707 -0.5637
 7857SOL    HW231200   2.154   0.220   5.503 -1.3086  3.0753 -1.2621
 7857SOL    HW331201   2.261   0.314   5.451  1.4936 -0.3419 -2.0857
 7857SOL    MW431202   2.214   0.242   5.443 -0.5361 -0.3451 -0.1325
 7858SOL     OW31203   2.056   3.487   5.376 -0.5245  0.0521  0.3650
 7858SOL    HW231204   2.063   3.401   5.333  0.7026  0.8858 -1.2068
 7858SOL    HW331205   1.981   3.529   5.333 -1.2886 -0.3138  1.3184
 7858SOL    MW431206   2.047   3.481   5.364  0.7609 -0.0625  0.2632
 7859SOL     OW31207   5.163   6.365   0.880 -0.1608 -0.0131  0.2096
 7859SOL    HW231208   5.068   6.374   0.874 -0.4000 -1.5797  0.8991
 7859SOL    HW331209   5.181   6.368   0.974  0.3021 -0.9830  0.1670
 7859SOL    MW431210   5.153   6.367   0.892  0.3459  0.2783  0.3313
 7860SOL     OW31211   0.802   4.678   1.103 -0.1112 -0.5731 -0.1452
 7860SOL    HW231212   0.795   4.657   1.010 -0.1583  1.5467 -0.6666
 7860SOL    HW331213   0.788   4.773   1.108  1.9089 -0.2858  1.7893
 7860SOL    MW431214   0.799   4.688   1.092 -0.0480  0.0906 -0.4852
 7861SOL     OW31215   0.605   2.717   3.642 -0.2364  0.0798  0.2170
 7861SOL    HW231216   0.552   2.679   3.712 -1.3168 -0.8122 -1.0304
 7861SOL    HW331217   0.542   2.741   3.574  0.6525  2.1088  0.0432
 7861SOL    MW431218   0.590   2.715   3.642  0.3922 -0.1368 -0.0456
 7862SOL     OW31219   1.993   4.186   5.382 -0.1647  0.0937 -0.0878
 7862SOL    HW231220   1.910   4.142   5.365 -0.9589  1.2469  0.7057
 7862SOL    HW331221   2.036   4.189   5.296 -0.4601 -1.4187 -0.3212
 7862SOL    MW431222   1.988   4.180   5.368  0.5296 -0.0285 -0.0566
 7863SOL     OW31223   2.198   5.355   2.715  0.4830  0.1947 -0.0447
 7863SOL    HW231224   2.267   5.289   2.708  0.9613  0.6948 -0.2137
 7863SOL    HW331225   2.121   5.308   2.746  1.2815 -0.1355  1.5288
 7863SOL    MW431226   2.197   5.340   2.718 -0.1971  0.1661  0.2586
 7864SOL     OW31227   2.490   4.101   0.174 -0.3186  0.0834  0.2119
 7864SOL    HW231228   2.459   4.191   0.184  3.1945  1.2733  2.2594
 7864SOL    HW331229   2.474   4.060   0.258  1.6072  0.1561  0.6746
 7864SOL    MW431230   2.484   4.108   0.186  0.4368 -1.0786  0.0207
 7865SOL     OW31231   6.320   0.567   6.278  1.3895 -0.2760  0.2745
 7865SOL    HW231232   6.357   0.607   6.199 -0.5041 -0.5369 -0.8266
 7865SOL    HW331233   6.364   0.482   6.284  1.7135 -0.1641 -0.3753
 7865SOL    MW431234   6.331   0.561   6.268 -0.3471 -0.3191 -0.0686
 7866SOL     OW31235   6.132   1.202   3.574 -0.0822 -0.0163  0.1578
 7866SOL    HW231236   6.126   1.175   3.666  0.4487  1.0342  0.5136
 7866SOL    HW331237   6.055   1.257   3.560 -0.1094 -0.0954 -0.0022
 7866SOL    MW431238   6.121   1.206   3.584  0.1636 -0.0983 -0.1321
 7867SOL     OW31239   3.207   1.044   4.019  0.0157  0.1462 -0.0755
 7867SOL    HW231240   3.266   1.118   4.032  1.8603 -0.6381 -3.1958
 7867SOL    HW331241   3.256   0.968   4.048 -1.4860 -0.0801  2.1247
 7867SOL    MW431242   3.221   1.044   4.025 -0.1095  0.0224 -0.2641
 7868SOL     OW31243   4.446   1.524   0.632  0.3725 -0.7268  0.3651
 7868SOL    HW231244   4.378   1.536   0.565  2.2609 -1.0379 -1.7210
 7868SOL    HW331245   4.457   1.429   0.638  0.0482 -0.7152  1.3451
 7868SOL    MW431246   4.438   1.513   0.624  0.3557 -0.1649 -0.5986
 7869SOL     OW31247   2.404   2.384   5.937  0.3704 -0.0279 -0.1107
 7869SOL    HW231248   2.313   2.359   5.956 -0.1145  3.3713  3.3718
 7869SOL    HW331249   2.456   2.312   5.974 -0.9352 -0.1531  1.6518
 7869SOL    MW431250   2.399   2.371   5.945  0.2124 -0.2517  0.0714
 7870SOL     OW31251   1.660   5.487   5.084  0.7938  0.1432 -0.1140
 7870SOL    HW231252   1.660   5.425   5.158 -0.7652  1.2110  0.8550
 7870SOL    HW331253   1.680   5.433   5.008  0.3500 -1.4179  0.8136
 7870SOL    MW431254   1.662   5.471   5.084  0.5397  0.0821  0.1093
 7871SOL     OW31255   4.853   2.817   5.617 -0.4527 -0.5426 -0.8300
 7871SOL    HW231256   4.930   2.767   5.593  0.7832  0.5277  0.6722
 7871SOL    HW331257   4.841   2.800   5.711 -0.8229  0.8383 -0.5925
 7871SOL    MW431258   4.861   2.808   5.626  0.5694  0.1438  0.3152
 7872SOL     OW31259   4.386   1.275   3.389  0.5571  0.4770  0.1520
 7872SOL    HW231260   4.403   1.293   3.297  0.2920 -0.1486 -0.0262
 7872SOL    HW331261   4.320   1.339   3.414  1.6292  1.5803  0.3019
 7872SOL    MW431262   4.380   1.286   3.380 -0.3161 -0.2346 -0.2788
 7873SOL     OW31263   0.295   2.213   6.278 -0.1615 -0.1126 -0.0045
 7873SOL    HW231264   0.306   2.143   6.342  0.2419  1.3699  1.6257
 7873SOL    HW331265   0.200   2.217   6.263 -0.2116 -0.7989  0.0995
 7873SOL    MW431266   0.284   2.204   6.284  0.8306 -0.2767 -0.5884
 7874SOL     OW31267   3.219   1.782   3.579 -0.1911  0.2650 -0.1641
 7874SOL    HW231268   3.224   1.690   3.604  0.2391  0.2985 -0.1074
 7874SOL    HW331269   3.310   1.812   3.579 -0.3981  0.9732  0.8820
 7874SOL    MW431270   3.232   1.774   3.582  0.3496  0.2432  0.8313
 7875SOL     OW31271   1.244   2.497   2.824  0.8234  0.2680 -0.1736
 7875SOL    HW231272   1.279   2.450   2.748 -1.2531 -0.7286 -0.5791
 7875SOL    HW331273   1.255   2.437   2.897 -1.9597 -1.0998 -0.7165
 7875SOL    MW431274   1.250   2.483   2.823 -0.2060 -0.0739  0.0104
 7876SOL     OW31275   6.128   5.433   5.812 -0.2631  0.3147  0.3257
 7876SOL    HW231276   6.195   5.424   5.744  0.1452  1.4436  0.5560
 7876SOL    HW331277   6.059   5.373   5.786 -0.0931  0.6898 -1.0730
 7876SOL    MW431278   6.128   5.424   5.799 -0.2522 -0.5082 -0.4517
 7877SOL     OW31279   0.723   2.374   1.315  0.3095  0.3545  0.6617
 7877SOL    HW231280   0.652   2.315   1.341 -1.4844  1.8136 -0.6847
 7877SOL    HW331281   0.679   2.450   1.276  2.6254  0.9708 -0.9953
 7877SOL    MW431282   0.708   2.376   1.313  0.0444  0.9762  0.0671
 7878SOL     OW31283   6.401   2.442   3.664  0.1276  0.0178 -0.1862
 7878SOL    HW231284   6.335   2.396   3.716 -0.3284  1.6079  0.7169
 7878SOL    HW331285   6.426   2.518   3.718  0.7059  0.9282 -1.6640
 7878SOL    MW431286   6.396   2.446   3.678  0.4510  0.1704  0.0138
 7879SOL     OW31287   5.878   4.253   4.039  0.3629  0.3833 -0.4907
 7879SOL    HW231288   5.842   4.168   4.014  0.9571  0.1238 -0.5010
 7879SOL    HW331289   5.842   4.314   3.975 -1.7378  0.5316  0.7403
 7879SOL    MW431290   5.869   4.250   4.028 -0.1376  0.4859  0.6602
 7880SOL     OW31291   0.880   6.293   2.442  0.5285 -0.7848 -0.1197
 7880SOL    HW231292   0.883   6.306   2.537 -3.6295  0.6263 -0.0049
 7880SOL    HW331293   0.801   6.242   2.427 -0.7716  1.7792 -2.9758
 7880SOL    MW431294   0.870   6.288   2.453  0.6761 -0.1863  0.1174
 7881SOL     OW31295   5.072   6.003   3.162  0.5898  0.0055 -0.0293
 7881SOL    HW231296   5.010   6.073   3.144  1.3135  1.0344  1.2575
 7881SOL    HW331297   5.062   5.941   3.089 -0.3798  1.2200 -0.9564
 7881SOL    MW431298   5.063   6.004   3.150  0.1808  0.8127  0.1389
 7882SOL     OW31299   3.387   4.555   6.206 -0.2485  0.6333  0.0841
 7882SOL    HW231300   3.307   4.591   6.168  0.3886  1.4700 -0.4838
 7882SOL    HW331301   3.456   4.578   6.144  0.3790 -0.4800  0.3326
 7882SOL    MW431302   3.386   4.562   6.193 -0.1390  0.0241 -0.0796
 7883SOL     OW31303   5.906   4.947   2.164  0.7671  0.0104  0.1590
 7883SOL    HW231304   5.820   4.906   2.172 -0.0788  1.2460 -1.8163
 7883SOL    HW331305   5.902   5.023   2.222 -0.2901  1.2195 -1.4043
 7883SOL    MW431306   5.894   4.951   2.173 -0.1287 -0.9985  0.2023
 7884SOL     OW31307   0.546   4.443   4.663 -0.3152  0.2868  0.8775
 7884SOL    HW231308   0.507   4.357   4.676 -1.1200  0.5437  0.2901
 7884SOL    HW331309   0.525   4.492   4.742  0.3752 -0.1289  1.3266
 7884SOL    MW431310   0.538   4.438   4.675 -0.1084 -0.4934 -0.7327
 7885SOL     OW31311   2.776   4.777   0.174 -0.4203 -0.0662 -0.7839
 7885SOL    HW231312   2.734   4.701   0.212  1.2515 -1.0175 -0.7367
 7885SOL    HW331313   2.813   4.746   0.092  1.7357  0.2013  0.0138
 7885SOL    MW431314   2.775   4.763   0.168  0.1333  0.0952 -0.2730
 7886SOL     OW31315   1.955   4.630   1.676  0.3295 -0.2789 -0.4306
 7886SOL    HW231316   1.900   4.569   1.626  2.0080 -0.6298 -1.9939
 7886SOL    HW331317   1.977   4.582   1.756 -0.7906 -0.5242 -0.2557
 7886SOL    MW431318   1.951   4.616   1.680  0.0859  0.0803  0.4434
 7887SOL     OW31319   0.603   3.732   4.212 -0.9061  0.0474  0.9738
 7887SOL    HW231320   0.590   3.817   4.171 -0.1368 -1.0750 -1.8845
 7887SOL    HW331321   0.680   3.743   4.268  0.2051  0.9156 -0.6218
 7887SOL    MW431322   0.612   3.744   4.214  0.3349 -0.5918  0.2970
 7888SOL     OW31323   5.561   5.799   5.291 -0.1624  0.3820 -0.2876
 7888SOL    HW231324   5.532   5.708   5.302 -3.6593  1.1942 -1.4856
 7888SOL    HW331325   5.495   5.851   5.338 -0.5185  2.4366 -2.8203
 7888SOL    MW431326   5.548   5.794   5.299  0.0983 -0.0604 -0.8642
 7889SOL     OW31327   0.888   1.019   3.512 -0.2658 -0.1730 -0.9985
 7889SOL    HW231328   0.970   0.974   3.530 -0.1400  0.1879 -0.6380
 7889SOL    HW331329   0.911   1.087   3.449  0.2792  1.6525  1.0625
 7889SOL    MW431330   0.902   1.022   3.506  0.4529 -0.1637  0.5576
 7890SOL     OW31331   2.682   2.006   2.030 -0.2856  0.2766  0.0550
 7890SOL    HW231332   2.619   2.073   2.056 -0.7472  0.2180 -0.8828
 7890SOL    HW331333   2.660   1.930   2.084 -0.7174  0.4000  0.0568
 7890SOL    MW431334   2.671   2.005   2.041  0.2583  0.4864 -0.1178
 7891SOL     OW31335   2.820   0.471   3.809  0.5655 -0.1786  0.3089
 7891SOL    HW231336   2.901   0.516   3.783  0.1431 -0.4682 -1.6737
 7891SOL    HW331337   2.840   0.433   3.894  1.7658  1.6154  0.8902
 7891SOL    MW431338   2.833   0.472   3.817  0.2244 -0.0304  0.4015
 7892SOL     OW31339   3.338   2.555   3.998  0.2568  0.1026 -0.0911
 7892SOL    HW231340   3.418   2.504   4.007 -0.0628 -0.2469  0.8684
 7892SOL    HW331341   3.339   2.585   3.907  2.1023  1.1499  0.2191
 7892SOL    MW431342   3.349   2.552   3.987 -0.3519  0.0049 -0.4555
 7893SOL     OW31343   4.320   2.405   4.442  0.4656 -0.0147 -0.2031
 7893SOL    HW231344   4.378   2.481   4.437  0.4457  0.0096 -0.0589
 7893SOL    HW331345   4.297   2.387   4.351 -0.5261  0.9199 -0.1644
 7893SOL    MW431346   4.324   2.413   4.429 -0.3232  0.1484 -0.7082
 7894SOL     OW31347   2.196   6.333   2.159  0.1930  0.3336 -0.7308
 7894SOL    HW231348   2.204   6.248   2.116 -1.3349 -0.6952  0.8616
 7894SOL    HW331349   2.284   6.370   2.156  0.6852 -0.8806 -2.2850
 7894SOL    MW431350   2.209   6.326   2.153  0.2559 -0.6069  0.5082
 7895SOL     OW31351   2.713   5.866   5.953  0.5704 -0.3182  0.4242
 7895SOL    HW231352   2.708   5.859   6.048 -0.2635  0.0212  0.4134
 7895SOL    HW331353   2.625   5.892   5.926  1.0621  0.6449 -0.3439
 7895SOL    MW431354   2.701   5.869   5.962  0.2346 -0.2541  0.8891
 7896SOL     OW31355   0.824   3.779   6.340 -0.2341  0.1459 -0.5888
 7896SOL    HW231356   0.891   3.823   6.288  0.8070  0.9731  1.3479
 7896SOL    HW331357   0.821   3.690   6.305  2.3499 -0.0991 -0.3763
 7896SOL    MW431358   0.833   3.773   6.329 -0.0671 -0.3954 -0.6391
 7897SOL     OW31359   2.081   5.085   5.638  0.6683  0.9470  0.1455
 7897SOL    HW231360   2.152   5.142   5.667  0.6410  0.4737  1.1853
 7897SOL    HW331361   2.004   5.141   5.636  0.3125  0.6638  2.6716
 7897SOL    MW431362   2.081   5.100   5.642 -0.0209 -0.1299 -0.1433
 7898SOL     OW31363   5.772   1.890   3.426 -0.3241 -0.1347  0.4638
 7898SOL    HW231364   5.762   1.984   3.410 -1.5873 -0.5662 -1.6068
 7898SOL    HW331365   5.864   1.873   3.408 -0.2302  0.6121  0.1894
 7898SOL    MW431366   5.783   1.900   3.421 -0.0620 -0.3636  0.3669
 7899SOL     OW31367   4.113   0.912   1.037  0.0216 -0.4337 -0.3939
 7899SOL    HW231368   4.023   0.913   1.069  0.2466  3.1008  0.5743
 7899SOL    HW331369   4.166   0.935   1.114  1.5882 -0.7955 -1.3129
 7899SOL    MW431370   4.108   0.915   1.051 -0.0329 -0.0092  0.3390
 7900SOL     OW31371   1.706   5.187   0.192  0.2637 -0.4513 -0.2317
 7900SOL    HW231372   1.732   5.100   0.223  0.7098 -0.5575 -0.8955
 7900SOL    HW331373   1.729   5.246   0.263  0.1898 -0.8463  0.1215
 7900SOL    MW431374   1.712   5.183   0.205  0.7091  0.5538 -0.0071
 7901SOL     OW31375   0.404   0.302   1.478 -0.2266  0.0654  0.0512
 7901SOL    HW231376   0.335   0.346   1.428 -1.6666 -1.0858  0.9373
 7901SOL    HW331377   0.444   0.372   1.531 -0.0389  0.9166 -1.1792
 7901SOL    MW431378   0.400   0.317   1.479  0.1183  0.3849 -0.1169
 7902SOL     OW31379   4.734   1.437   0.095 -0.4500 -0.3629  0.1307
 7902SOL    HW231380   4.653   1.430   0.044  0.4417  0.2288 -1.4201
 7902SOL    HW331381   4.707   1.481   0.176 -1.6252  0.1150 -0.4990
 7902SOL    MW431382   4.719   1.442   0.099 -0.2474  0.2564 -0.0974
 7903SOL     OW31383   5.284   3.804   1.678 -0.1884  0.1339  0.8622
 7903SOL    HW231384   5.370   3.845   1.676  0.9130 -2.0635 -1.2014
 7903SOL    HW331385   5.226   3.871   1.641  1.6433 -0.1596 -2.9765
 7903SOL    MW431386   5.287   3.818   1.673  0.0858 -0.2018 -0.5282
 7904SOL     OW31387   1.580   2.197   3.872  0.2854  0.1678 -0.6037
 7904SOL    HW231388   1.495   2.240   3.880  0.6000  0.7409 -0.3131
 7904SOL    HW331389   1.587   2.175   3.779 -0.8096 -1.2091 -0.3963
 7904SOL    MW431390   1.570   2.199   3.860  0.3472 -0.1082  0.2840
 7905SOL     OW31391   3.857   2.023   5.532  0.6100  0.1671 -0.5354
 7905SOL    HW231392   3.824   2.106   5.568  0.3596 -0.2849  0.3048
 7905SOL    HW331393   3.812   2.014   5.448 -2.1879 -0.8656  0.9499
 7905SOL    MW431394   3.847   2.033   5.526 -0.1318 -0.5830  0.0620
 7906SOL     OW31395   3.872   3.465   6.168 -0.5359  0.1753 -0.4906
 7906SOL    HW231396   3.902   3.375   6.181 -0.7413 -0.0142 -1.2714
 7906SOL    HW331397   3.947   3.518   6.196 -0.7587 -0.1963  0.8923
 7906SOL    MW431398   3.886   3.460   6.173 -0.4654 -0.1206 -0.0592
 7907SOL     OW31399   3.980   4.661   1.164 -0.4611  0.4108  0.1052
 7907SOL    HW231400   3.916   4.670   1.235 -1.8745 -2.3478 -0.6887
 7907SOL    HW331401   3.984   4.567   1.147  3.1049  0.5762 -0.6116
 7907SOL    MW431402   3.972   4.650   1.171 -0.5142  0.2758 -0.0280
 7908SOL     OW31403   5.435   5.360   2.725 -0.0333  0.2704 -0.1777
 7908SOL    HW231404   5.493   5.426   2.689  0.5918 -1.0884 -1.7796
 7908SOL    HW331405   5.435   5.290   2.660 -1.5156 -0.8449  0.9546
 7908SOL    MW431406   5.442   5.360   2.712  0.1293  0.1600 -0.3404
 7909SOL     OW31407   1.371   5.509   5.108  0.8613  0.5731  0.0011
 7909SOL    HW231408   1.466   5.517   5.106  0.9768 -0.5499 -2.6143
 7909SOL    HW331409   1.355   5.417   5.126  0.3894  0.2264 -1.9418
 7909SOL    MW431410   1.381   5.498   5.110  0.4702  0.5568 -0.3042
 7910SOL     OW31411   4.664   1.617   0.803 -0.3736  0.4128  0.3141
 7910SOL    HW231412   4.614   1.688   0.843 -0.0299  0.5146  0.5664
 7910SOL    HW331413   4.605   1.580   0.737  0.7300  3.5337 -2.7747
 7910SOL    MW431414   4.650   1.622   0.799  0.3123  0.5163 -0.1885
 7911SOL     OW31415   5.431   3.835   3.863  0.4507  0.3042 -0.2423
 7911SOL    HW231416   5.496   3.781   3.907 -0.1845 -0.1739  0.1379
 7911SOL    HW331417   5.396   3.892   3.931  2.4606  2.6108 -1.0094
 7911SOL    MW431418   5.435   3.835   3.877 -0.2289 -0.2768  0.1594
 7912SOL     OW31419   3.383   2.249   4.236  0.1935 -0.2289 -0.4588
 7912SOL    HW231420   3.291   2.274   4.228  0.1639 -0.5205 -1.0328
 7912SOL    HW331421   3.393   2.173   4.180  0.9522  0.2347 -0.9783
 7912SOL    MW431422   3.372   2.242   4.227 -0.7389 -0.2631  0.0286
 7913SOL     OW31423   0.470   3.198   5.261 -0.2907  0.4919  0.0885
 7913SOL    HW231424   0.425   3.230   5.182  0.2506  0.0874 -0.3856
 7913SOL    HW331425   0.500   3.278   5.305 -1.6174  0.7846  0.5120
 7913SOL    MW431426   0.468   3.213   5.257 -0.3770 -0.5478  0.3358
 7914SOL     OW31427   6.056   3.858   6.081 -0.1429  0.5655 -0.5894
 7914SOL    HW231428   5.975   3.885   6.037  0.1469  0.3643 -1.2667
 7914SOL    HW331429   6.121   3.856   6.011  0.0692 -0.9404 -0.3792
 7914SOL    MW431430   6.054   3.862   6.066  0.1937  0.0617  0.4150
 7915SOL     OW31431   2.157   4.821   3.001  0.5272 -0.6156  0.0782
 7915SOL    HW231432   2.138   4.904   2.956  2.8820 -0.5209 -0.8902
 7915SOL    HW331433   2.125   4.754   2.941 -0.6831 -0.4519  0.5120
 7915SOL    MW431434   2.150   4.823   2.987  0.2693  0.4853 -0.1059
 7916SOL     OW31435   5.870   1.418   4.537  0.7906  0.1264 -0.8769
 7916SOL    HW231436   5.858   1.464   4.620  0.9204  0.9463 -1.3046
 7916SOL    HW331437   5.951   1.368   4.548  0.9264  0.4096 -0.5913
 7916SOL    MW431438   5.879   1.417   4.549  0.7677  0.3000 -0.4088
 7917SOL     OW31439   0.982   0.846   2.998  0.1036 -0.1755  0.1393
 7917SOL    HW231440   0.933   0.926   3.018  0.4556  0.3019 -0.8146
 7917SOL    HW331441   1.034   0.829   3.076  1.4624  1.6265 -0.3052
 7917SOL    MW431442   0.982   0.854   3.011  0.0960  0.0421  0.3432
 7918SOL     OW31443   6.266   0.832   1.381 -0.1754  0.2505  0.3759
 7918SOL    HW231444   6.321   0.867   1.451  0.3375 -1.1222  0.6923
 7918SOL    HW331445   6.322   0.836   1.303 -0.1098  0.1214  0.4161
 7918SOL    MW431446   6.281   0.837   1.380  0.0862  0.3570 -0.4626
 7919SOL     OW31447   5.782   5.160   2.346  0.3318  0.2290 -0.4233
 7919SOL    HW231448   5.687   5.150   2.348  0.3371  0.2460  0.1898
 7919SOL    HW331449   5.797   5.249   2.378  0.5938 -0.0629  0.2749
 7919SOL    MW431450   5.771   5.170   2.350  0.3761  0.0557  0.3017
 7920SOL     OW31451   2.602   4.280   0.843  0.6090  0.8208 -0.1112
 7920SOL    HW231452   2.541   4.281   0.917 -1.0271  1.7556 -1.4118
 7920SOL    HW331453   2.600   4.189   0.811 -0.6840  0.9813 -0.5592
 7920SOL    MW431454   2.594   4.268   0.849  0.3323  0.5736 -0.1851
 7921SOL     OW31455   6.205   5.379   1.025  0.1874 -0.2630 -0.3688
 7921SOL    HW231456   6.279   5.346   0.974  0.0624 -0.6279 -0.3168
 7921SOL    HW331457   6.131   5.377   0.964 -0.6041 -3.2977  0.5362
 7921SOL    MW431458   6.205   5.375   1.010  0.3283  1.0887  0.1764
 7922SOL     OW31459   0.016   5.677   6.299  0.0132  0.0147  0.5380
 7922SOL    HW231460   0.081   5.626   6.347  1.0151  2.4501  1.9336
 7922SOL    HW331461  -0.062   5.674   6.355 -0.0278 -0.2382  0.4674
 7922SOL    MW431462   0.014   5.670   6.313 -0.0556  0.0811 -0.1716
 7923SOL     OW31463   4.753   2.094   2.887  0.0686 -0.1595 -0.1283
 7923SOL    HW231464   4.796   2.085   2.802  0.4717 -0.1298  0.0692
 7923SOL    HW331465   4.705   2.176   2.881  0.1730 -0.1097 -0.2973
 7923SOL    MW431466   4.753   2.104   2.875 -0.1904  0.2115  0.6095
 7924SOL     OW31467   3.997   5.602   3.729  0.0540  0.1343  0.4814
 7924SOL    HW231468   3.974   5.648   3.649  1.9630 -1.0119 -0.8092
 7924SOL    HW331469   3.960   5.514   3.719 -1.4204  0.5530  1.8091
 7924SOL    MW431470   3.989   5.596   3.717  0.2636 -0.5752  0.1882
 7925SOL     OW31471   5.487   3.418   1.245 -0.3403 -0.1388  0.2427
 7925SOL    HW231472   5.489   3.513   1.260  0.1844  0.0245 -0.8077
 7925SOL    HW331473   5.417   3.405   1.182  1.0469 -0.1673 -1.3567
 7925SOL    MW431474   5.478   3.429   1.239 -0.6175  0.2135  0.3315
 7926SOL     OW31475   5.624   1.998   5.967  0.3397 -0.0920 -0.1835
 7926SOL    HW231476   5.571   2.028   5.893  0.3255  0.7151  0.1402
 7926SOL    HW331477   5.651   2.079   6.011  0.8701 -0.5415  0.3284
 7926SOL    MW431478   5.620   2.013   5.963 -0.8200  0.0713  0.3809
 7927SOL     OW31479   0.650   1.863   5.709  0.5456 -0.1311  0.1925
 7927SOL    HW231480   0.616   1.944   5.746 -1.8832 -0.6968 -0.6230
 7927SOL    HW331481   0.618   1.794   5.767  0.5159 -0.6790 -0.4588
 7927SOL    MW431482   0.641   1.864   5.722 -0.4989 -0.6063  0.7510
 7928SOL     OW31483   5.688   3.221   3.538 -0.2143 -0.1012  0.1253
 7928SOL    HW231484   5.688   3.305   3.491  3.0978  0.6140  1.1628
 7928SOL    HW331485   5.709   3.156   3.471  1.1193  0.4639 -0.0306
 7928SOL    MW431486   5.690   3.224   3.523  0.1514  0.9758  0.1134
 7929SOL     OW31487   5.474   6.366   4.063 -0.4079 -0.0564 -0.2368
 7929SOL    HW231488   5.453   6.457   4.043 -1.1095 -0.3027 -0.6475
 7929SOL    HW331489   5.569   6.365   4.075 -0.4424  0.7990  0.1514
 7929SOL    MW431490   5.484   6.378   4.062 -0.0946 -0.4314 -0.3465
 7930SOL     OW31491   3.810   3.505   5.307 -0.1340 -0.5984 -0.1384
 7930SOL    HW231492   3.829   3.510   5.213 -1.2893  0.4810 -0.3412
 7930SOL    HW331493   3.889   3.538   5.349 -0.0002 -0.0753 -0.7768
 7930SOL    MW431494   3.823   3.510   5.300  0.5188  0.2331  0.5587
 7931SOL     OW31495   6.065   5.044   4.760  0.0133  0.3942  0.0880
 7931SOL    HW231496   6.105   4.965   4.797 -0.9657 -0.1223  0.0848
 7931SOL    HW331497   6.089   5.114   4.822 -0.1950 -0.1493  0.7926
 7931SOL    MW431498   6.074   5.043   4.773 -0.8269  0.7219  0.5990
 7932SOL     OW31499   6.426   3.656   1.250  0.1735 -0.3733 -0.1891
 7932SOL    HW231500   6.403   3.732   1.197  0.9443  0.5417  0.7787
 7932SOL    HW331501   6.515   3.634   1.224  0.3684 -0.2398  0.3653
 7932SOL    MW431502   6.435   3.663   1.239  0.5715 -0.1257  0.0403
 7933SOL     OW31503   3.173   2.367   5.771  0.2767 -0.3629  0.3019
 7933SOL    HW231504   3.208   2.354   5.682 -3.0032 -0.2166 -1.1602
 7933SOL    HW331505   3.209   2.451   5.798 -0.0628  0.5062 -1.7116
 7933SOL    MW431506   3.182   2.376   5.763 -0.2767  0.8052  0.0268
 7934SOL     OW31507   3.597   4.450   2.770 -0.0101  0.2008 -0.5246
 7934SOL    HW231508   3.580   4.507   2.695  0.2451  1.9037  0.6657
 7934SOL    HW331509   3.636   4.507   2.835  3.2921 -1.9777 -0.3857
 7934SOL    MW431510   3.600   4.465   2.768 -0.7031 -0.0604 -0.3580
 7935SOL     OW31511   4.465   5.975   5.925  0.0620  0.0119 -0.4582
 7935SOL    HW231512   4.497   6.044   5.867  0.9035 -0.4257 -0.5270
 7935SOL    HW331513   4.454   6.019   6.010 -0.0334  0.3742 -0.6565
 7935SOL    MW431514   4.468   5.990   5.929  0.0027 -0.4253 -0.1249
 7936SOL     OW31515   0.636   1.666   1.951 -0.2019 -0.8576 -0.1764
 7936SOL    HW231516   0.554   1.622   1.972 -1.1294  0.7576 -0.2047
 7936SOL    HW331517   0.703   1.599   1.961 -1.2441 -1.6560  2.1599
 7936SOL    MW431518   0.634   1.651   1.955  0.2315  0.6214 -0.0119
 7937SOL     OW31519   0.107   2.376   5.691 -0.4278 -1.1803  0.1182
 7937SOL    HW231520   0.161   2.323   5.633  1.6749 -0.1574  1.0241
 7937SOL    HW331521   0.153   2.373   5.775 -0.8842  1.0936  0.4947
 7937SOL    MW431522   0.120   2.368   5.695 -0.7696  0.4154 -0.0496
 7938SOL     OW31523   1.079   4.385   1.131 -0.4528 -0.3819 -0.1051
 7938SOL    HW231524   1.136   4.319   1.171  0.5651 -0.5206 -1.7016
 7938SOL    HW331525   1.072   4.358   1.040 -2.6005  0.0042 -0.1002
 7938SOL    MW431526   1.086   4.373   1.125  0.1763 -0.0547  0.3646
 7939SOL     OW31527   0.977   3.189   1.786 -0.0977  1.0266 -0.3392
 7939SOL    HW231528   1.066   3.154   1.774 -0.1148  1.0810 -0.6152
 7939SOL    HW331529   0.954   3.226   1.701  0.1415  2.2368  0.1099
 7939SOL    MW431530   0.986   3.189   1.773  0.0754  0.1005 -0.0440
 7940SOL     OW31531   3.286   4.933   0.453  0.3118 -0.1135  0.6106
 7940SOL    HW231532   3.206   4.972   0.489 -0.5697 -1.0291 -0.2705
 7940SOL    HW331533   3.302   4.983   0.373  0.3639 -0.2178  0.5565
 7940SOL    MW431534   3.277   4.945   0.447 -0.2506  0.0435 -0.2158
 7941SOL     OW31535   5.442   5.535   0.252 -0.0203  0.3149  0.2420
 7941SOL    HW231536   5.467   5.597   0.183  0.2580 -0.9098 -0.7999
 7941SOL    HW331537   5.443   5.587   0.333  0.9345  1.4879 -0.4874
 7941SOL    MW431538   5.446   5.550   0.254 -0.0400 -0.4352 -0.2140
 7942SOL     OW31539   1.858   2.579   1.791  0.1584 -0.7102 -0.2383
 7942SOL    HW231540   1.793   2.513   1.767  0.6358 -0.7344 -1.5679
 7942SOL    HW331541   1.900   2.602   1.708  0.5106  0.7310  0.3133
 7942SOL    MW431542   1.855   2.573   1.777 -0.3541 -0.2008  0.1553
 7943SOL     OW31543   2.285   0.621   0.062 -0.3025  0.7561  0.4962
 7943SOL    HW231544   2.306   0.702   0.109 -1.0110  1.8115 -0.8815
 7943SOL    HW331545   2.200   0.640   0.021 -1.5948 -1.5326  1.9492
 7943SOL    MW431546   2.276   0.634   0.063  0.6568 -0.2136 -0.0530
 7944SOL     OW31547   4.007   0.834   5.910  0.5692 -0.6647 -0.8007
 7944SOL    HW231548   3.918   0.801   5.924  0.4518  0.1121  0.4301
 7944SOL    HW331549   4.064   0.761   5.931  0.2868 -0.3902  1.0692
 7944SOL    MW431550   4.003   0.820   5.915 -0.4348  0.4521 -0.1598
 7945SOL     OW31551   4.649   5.290   3.533 -0.4762  0.1180  0.0859
 7945SOL    HW231552   4.712   5.240   3.482 -1.7173 -0.6202 -0.7811
 7945SOL    HW331553   4.673   5.382   3.518  0.3601 -0.1473 -0.2476
 7945SOL    MW431554   4.660   5.296   3.524  0.1077 -0.0824  0.1050
 7946SOL     OW31555   2.875   5.344   3.292 -0.3714 -0.2914 -0.4963
 7946SOL    HW231556   2.971   5.352   3.296 -0.2078 -2.2654  0.7486
 7946SOL    HW331557   2.853   5.369   3.202  1.2051  0.9850 -0.5837
 7946SOL    MW431558   2.885   5.348   3.281  0.3267  0.4340  0.3394
 7947SOL     OW31559   2.365   6.312   4.289  0.4159  0.4714  0.2511
 7947SOL    HW231560   2.389   6.329   4.380 -0.4842 -1.6672  0.9777
 7947SOL    HW331561   2.443   6.270   4.251  0.3307  0.0974  0.4761
 7947SOL    MW431562   2.378   6.308   4.296  0.1815 -0.3164 -0.4728
 7948SOL     OW31563   3.081   5.715   1.458  0.5579  0.3302  0.6641
 7948SOL    HW231564   3.107   5.746   1.545 -0.2677  1.3456  0.5746
 7948SOL    HW331565   3.152   5.657   1.431  0.5132 -0.5733  2.2994
 7948SOL    MW431566   3.094   5.711   1.466 -0.7355 -0.2637  0.5365
 7949SOL     OW31567   1.695   3.569   4.407 -0.3482  0.0754  0.1008
 7949SOL    HW231568   1.775   3.612   4.438  0.3416 -0.7470 -0.5077
 7949SOL    HW331569   1.685   3.492   4.464 -1.2975  0.7141  0.8500
 7949SOL    MW431570   1.704   3.564   4.419 -0.8350 -0.0442  0.0111
 7950SOL     OW31571   3.162   0.753   5.191 -0.5230  0.3006 -0.3784
 7950SOL    HW231572   3.113   0.693   5.246 -1.9394  2.0541  0.3610
 7950SOL    HW331573   3.254   0.735   5.211 -0.9078 -1.4217 -0.0261
 7950SOL    MW431574   3.168   0.742   5.201 -0.2397 -0.0210  0.3974
 7951SOL     OW31575   4.527   1.734   4.879 -0.1248 -0.1146 -0.3125
 7951SOL    HW231576   4.579   1.654   4.877  0.2118  0.1078 -0.5238
 7951SOL    HW331577   4.440   1.705   4.907 -0.1473 -0.6377 -0.8966
 7951SOL    MW431578   4.522   1.719   4.882  0.0979 -0.6014 -0.0888
 7952SOL     OW31579   3.296   2.134   4.751  0.1998 -0.1684  0.2892
 7952SOL    HW231580   3.233   2.165   4.686  1.1609  0.8435 -0.1697
 7952SOL    HW331581   3.342   2.062   4.708  0.8889  0.5502 -0.1983
 7952SOL    MW431582   3.293   2.128   4.737  0.3484  0.5866  0.3710
 7953SOL     OW31583   4.198   3.409   5.553 -0.1530 -0.3386 -0.4026
 7953SOL    HW231584   4.146   3.331   5.539  0.7450 -0.9484 -0.4254
 7953SOL    HW331585   4.239   3.396   5.639  1.7191 -0.9322 -1.3301
 7953SOL    MW431586   4.197   3.397   5.562  0.5935  0.5857  0.3993
 7954SOL     OW31587   4.348   4.825   4.397  0.2589 -0.8069 -0.3335
 7954SOL    HW231588   4.322   4.835   4.306  1.2039 -0.3051 -0.5613
 7954SOL    HW331589   4.428   4.876   4.405 -1.2507  1.4915  1.4680
 7954SOL    MW431590   4.355   4.833   4.386  0.2980 -0.0397  0.2642
 7955SOL     OW31591   3.623   6.218   5.141 -0.3310 -0.3219  0.0810
 7955SOL    HW231592   3.606   6.155   5.211 -0.1482  0.2877  0.6820
 7955SOL    HW331593   3.543   6.269   5.135 -0.5056 -0.6507 -0.4562
 7955SOL    MW431594   3.610   6.216   5.150 -0.6273 -0.3358 -0.2240
 7956SOL     OW31595   3.263   5.434   0.813 -0.1731  0.1607 -0.0879
 7956SOL    HW231596   3.344   5.451   0.766 -0.2144  0.5723 -0.0118
 7956SOL    HW331597   3.196   5.427   0.744 -0.3450  1.3889 -0.0715
 7956SOL    MW431598   3.265   5.435   0.798 -0.2251  0.2731  0.1138
 7957SOL     OW31599   0.687   5.152   3.230 -0.0288  0.9054 -0.1262
 7957SOL    HW231600   0.684   5.084   3.298 -1.1183 -0.0056 -1.0375
 7957SOL    HW331601   0.758   5.126   3.172  0.5912  1.4250  0.3880
 7957SOL    MW431602   0.696   5.140   3.231  0.2567  0.3732  0.2212
 7958SOL     OW31603   5.895  -0.005   5.515  0.4698 -0.0759 -0.3326
 7958SOL    HW231604   5.822  -0.052   5.555 -0.9496  0.9274 -1.5992
 7958SOL    HW331605   5.909   0.071   5.571 -0.3633  0.4157 -0.7650
 7958SOL    MW431606   5.887  -0.002   5.527  0.4070 -0.0268  0.1739
 7959SOL     OW31607   6.194   2.681   2.129  0.4433 -0.2961 -0.0439
 7959SOL    HW231608   6.139   2.721   2.063  1.6829 -0.9318 -1.5135
 7959SOL    HW331609   6.282   2.711   2.109  1.0378 -1.6146  0.4411
 7959SOL    MW431610   6.198   2.690   2.118  0.0766 -0.4402  0.1725
 7960SOL     OW31611   4.544   2.483   0.753 -0.1649  0.4670  0.5495
 7960SOL    HW231612   4.619   2.483   0.812 -1.5316  2.8707  2.5057
 7960SOL    HW331613   4.531   2.576   0.731 -0.6642 -0.1960 -2.3643
 7960SOL    MW431614   4.552   2.496   0.758 -0.3559  0.4252  0.1306
 7961SOL     OW31615   0.113   4.642   5.855 -0.4848 -0.1991 -0.0551
 7961SOL    HW231616   0.127   4.588   5.932 -1.3587 -1.4173 -0.7210
 7961SOL    HW331617   0.193   4.694   5.847  0.4598 -1.5226  0.5077
 7961SOL    MW431618   0.126   4.642   5.864 -0.2175  0.9075 -0.5573
 7962SOL     OW31619   4.723   4.494   1.121 -0.1381  0.1603 -0.4392
 7962SOL    HW231620   4.687   4.405   1.115  0.6825 -0.1693 -0.6450
 7962SOL    HW331621   4.761   4.499   1.209  1.1712 -0.2498 -0.9422
 7962SOL    MW431622   4.724   4.483   1.132 -0.0091 -0.5884  0.0413
 7963SOL     OW31623   3.360   4.506   3.399 -0.0556  0.2039 -0.1004
 7963SOL    HW231624   3.342   4.509   3.493 -1.0834  1.5800 -0.3020
 7963SOL    HW331625   3.366   4.598   3.373  0.8734 -0.1654 -1.2728
 7963SOL    MW431626   3.358   4.518   3.408  0.1328 -0.0809 -0.4676
 7964SOL     OW31627   6.221   5.508   0.419 -0.0242 -0.7604 -0.2736
 7964SOL    HW231628   6.166   5.585   0.429 -1.1080 -1.4821 -0.5251
 7964SOL    HW331629   6.229   5.496   0.324 -0.5425 -1.4296 -0.2361
 7964SOL    MW431630   6.215   5.517   0.408  0.1868 -0.3105  0.8564
 7965SOL     OW31631   4.998   1.697   2.728 -0.3324  0.4856  0.3338
 7965SOL    HW231632   4.972   1.665   2.642  0.2401  1.4695 -0.2231
 7965SOL    HW331633   4.916   1.718   2.773 -0.6559 -0.5128  0.2414
 7965SOL    MW431634   4.984   1.696   2.723 -0.2605 -0.2357  0.1093
 7966SOL     OW31635   0.669   2.199   3.559 -0.0516  0.0658  0.0560
 7966SOL    HW231636   0.611   2.148   3.503 -1.6510 -0.0134  1.6886
 7966SOL    HW331637   0.638   2.183   3.648  2.6488 -0.1488  1.0644
 7966SOL    MW431638   0.657   2.190   3.563  0.1382 -0.1652  0.4659
 7967SOL     OW31639   6.273   2.705   1.419  0.3622  0.3079  0.0882
 7967SOL    HW231640   6.334   2.633   1.434 -0.3292 -0.5196 -0.9664
 7967SOL    HW331641   6.187   2.669   1.441 -0.1560  0.3503 -1.7317
 7967SOL    MW431642   6.270   2.691   1.424  0.0459 -0.4656  0.0338
 7968SOL     OW31643   6.336   3.722   6.152 -0.5675  0.3147  0.1037
 7968SOL    HW231644   6.243   3.715   6.173 -0.6796  1.3399 -0.0100
 7968SOL    HW331645   6.373   3.772   6.224 -0.2687  0.6733 -0.2945
 7968SOL    MW431646   6.328   3.727   6.164  0.0631 -0.3971 -0.8045
 7969SOL     OW31647   3.819   2.266   5.213  0.6846 -0.4106 -0.3992
 7969SOL    HW231648   3.842   2.281   5.305 -1.6013  1.1172 -0.0114
 7969SOL    HW331649   3.804   2.172   5.208  0.9750 -0.5434  0.7491
 7969SOL    MW431650   3.820   2.255   5.225  0.4030 -0.1547  0.3810
 7970SOL     OW31651   2.019   5.642   5.780 -0.4161 -0.0613  0.1676
 7970SOL    HW231652   1.962   5.673   5.710  0.9670 -1.2851 -1.5893
 7970SOL    HW331653   2.104   5.683   5.761  0.4416 -1.8272  0.0394
 7970SOL    MW431654   2.023   5.652   5.769  0.2661 -0.2313 -0.2575
 7971SOL     OW31655   0.471   6.062   3.818 -0.6787 -0.4208 -0.6736
 7971SOL    HW231656   0.468   6.033   3.909 -2.5728  0.6060 -0.3755
 7971SOL    HW331657   0.404   6.130   3.811  0.4462  0.5961 -2.4819
 7971SOL    MW431658   0.462   6.067   3.829 -0.3602 -0.0546  0.2010
 7972SOL     OW31659   1.480   1.651   5.498  0.2650  0.3158  0.0675
 7972SOL    HW231660   1.551   1.708   5.467 -0.3408  0.1144 -1.8625
 7972SOL    HW331661   1.402   1.688   5.457 -0.4691 -0.5873  0.6267
 7972SOL    MW431662   1.479   1.664   5.488  0.4190  0.2469  0.3554
 7973SOL     OW31663   2.723   6.185   2.472  0.6674 -0.4420  0.0789
 7973SOL    HW231664   2.653   6.188   2.407  0.2386 -1.9162  0.4393
 7973SOL    HW331665   2.687   6.231   2.548  0.0278 -1.2674  0.2939
 7973SOL    MW431666   2.709   6.191   2.474 -0.0312  0.3434 -0.3399
 7974SOL     OW31667   6.250   2.860   3.690  0.6969  0.0973  0.4067
 7974SOL    HW231668   6.262   2.953   3.709 -0.7726  0.5891 -0.8624
 7974SOL    HW331669   6.276   2.851   3.598  2.9626 -1.2355  1.0956
 7974SOL    MW431670   6.255   2.871   3.681  0.0431  0.3523 -0.0829
 7975SOL     OW31671   4.285   5.534   2.672 -0.1458 -0.1152  0.8019
 7975SOL    HW231672   4.239   5.457   2.704 -0.8885  0.5082  1.2560
 7975SOL    HW331673   4.286   5.523   2.577  0.7487 -1.2270  0.9058
 7975SOL    MW431674   4.279   5.522   2.664  0.0026 -0.0737 -0.0692
 7976SOL     OW31675   2.197   5.136   0.609 -0.0624  0.3315  0.2410
 7976SOL    HW231676   2.118   5.100   0.647 -0.2424  1.5739  1.0869
 7976SOL    HW331677   2.265   5.121   0.675  0.7234 -1.7595 -0.9351
 7976SOL    MW431678   2.196   5.130   0.623  0.0604  0.0150 -0.3292
 7977SOL     OW31679   0.363   6.112   5.404  0.2108  0.0427  0.0775
 7977SOL    HW231680   0.421   6.185   5.426 -0.9064  0.5108  1.5676
 7977SOL    HW331681   0.331   6.133   5.316  1.9155 -0.0187 -0.6055
 7977SOL    MW431682   0.366   6.124   5.395  0.1430 -0.1711  0.1386
 7978SOL     OW31683   0.894   6.159   3.343 -0.0939  0.1187  0.5851
 7978SOL    HW231684   0.892   6.231   3.279 -0.3793 -0.6449 -0.2803
 7978SOL    HW331685   0.895   6.080   3.290 -2.2855 -0.6071  1.5164
 7978SOL    MW431686   0.894   6.158   3.328 -0.3382 -0.0455  0.5339
 7979SOL     OW31687   5.734   1.036   5.759 -0.1728 -0.2604 -0.0063
 7979SOL    HW231688   5.703   0.946   5.747 -0.4900 -0.3274  1.1341
 7979SOL    HW331689   5.665   1.091   5.722 -0.5162 -0.4729  0.3033
 7979SOL    MW431690   5.721   1.031   5.753  0.4480 -0.2586 -0.8212
 7980SOL     OW31691   1.706   4.794   1.374  0.6212 -0.5756 -0.3343
 7980SOL    HW231692   1.690   4.715   1.322 -0.4561  1.0107 -2.5788
 7980SOL    HW331693   1.653   4.861   1.331  0.4598  1.0850  2.2991
 7980SOL    MW431694   1.697   4.792   1.361 -0.1814 -0.0390 -0.1482
 7981SOL     OW31695   3.205   5.621   2.826 -0.2405  0.0778  0.1512
 7981SOL    HW231696   3.128   5.615   2.770 -1.4901  1.5576  1.6224
 7981SOL    HW331697   3.278   5.596   2.768 -1.6521 -0.2573 -1.5904
 7981SOL    MW431698   3.205   5.617   2.811 -0.2611  0.3771 -0.3482
 7982SOL     OW31699   2.716   0.013   1.530 -0.0873 -0.3997 -1.0440
 7982SOL    HW231700   2.622   0.001   1.517  0.3721 -2.8768 -2.9173
 7982SOL    HW331701   2.756  -0.027   1.453  2.5364  0.1177 -0.0628
 7982SOL    MW431702   2.709   0.006   1.518  0.0808  0.5777  0.1998
 7983SOL     OW31703   1.817   0.882   6.124  0.0906  0.1518  0.7754
 7983SOL    HW231704   1.772   0.805   6.089  0.1430  0.8219 -0.8589
 7983SOL    HW331705   1.813   0.947   6.053  0.4347  1.5064  1.9398
 7983SOL    MW431706   1.810   0.881   6.110  0.1587  0.1387 -0.5170
 7984SOL     OW31707   5.004   4.391   3.639  0.0382 -0.0364 -0.2696
 7984SOL    HW231708   4.989   4.376   3.733 -0.7670 -0.1551 -0.4090
 7984SOL    HW331709   4.917   4.410   3.604  0.4171  0.5514 -0.9009
 7984SOL    MW431710   4.991   4.391   3.647  0.2518 -0.3645 -0.0513
 7985SOL     OW31711   5.051   5.406   5.916  0.2907  0.2877 -0.3335
 7985SOL    HW231712   4.967   5.367   5.940  1.5205 -1.6494  1.1195
 7985SOL    HW331713   5.033   5.499   5.906 -2.0209 -0.0910 -0.0874
 7985SOL    MW431714   5.038   5.413   5.918  0.3169 -0.3442 -0.2510
 7986SOL     OW31715   3.869   4.101   2.544  0.6646  0.3441  0.7132
 7986SOL    HW231716   3.957   4.062   2.543  1.0146  1.1028  0.8657
 7986SOL    HW331717   3.884   4.192   2.568 -0.1730  0.4844  0.7327
 7986SOL    MW431718   3.883   4.108   2.547 -0.0174 -0.0364 -0.0660
 7987SOL     OW31719   0.559   0.072   1.947  0.1123 -0.0381 -0.0951
 7987SOL    HW231720   0.467   0.044   1.948 -0.7508  2.5670  0.1541
 7987SOL    HW331721   0.590   0.055   2.036 -0.7703  0.9090  0.4113
 7987SOL    MW431722   0.551   0.066   1.959 -0.3182  0.5143  0.0803
 7988SOL     OW31723   4.535   5.918   3.958 -0.3954  0.3355  0.2343
 7988SOL    HW231724   4.471   5.851   3.935 -0.2867 -0.1704  1.3415
 7988SOL    HW331725   4.620   5.873   3.950 -0.0691  1.2611 -2.1491
 7988SOL    MW431726   4.538   5.903   3.954  0.4441  0.3546  0.2530
 7989SOL     OW31727   1.867   0.304   3.885  0.0536 -0.0498  0.0319
 7989SOL    HW231728   1.771   0.297   3.884  0.0929 -1.1587  1.5259
 7989SOL    HW331729   1.885   0.381   3.830 -1.7048  0.4421  0.0616
 7989SOL    MW431730   1.856   0.313   3.878 -0.4436  1.0579  0.5161
 7990SOL     OW31731   2.120   2.117   1.789  0.1312  0.0485 -0.1522
 7990SOL    HW231732   2.176   2.053   1.834 -1.0436 -1.6281 -0.9795
 7990SOL    HW331733   2.175   2.152   1.718  0.8587  0.1644  0.4517
 7990SOL    MW431734   2.135   2.113   1.786  0.3286 -0.1099 -0.1844
 7991SOL     OW31735   2.713   2.848   2.943 -0.3437  0.5989 -0.1594
 7991SOL    HW231736   2.655   2.783   2.983  0.3363 -0.0987 -0.2921
 7991SOL    HW331737   2.710   2.923   3.003  0.3561 -0.2889  1.0323
 7991SOL    MW431738   2.705   2.850   2.956  0.1626 -0.7338 -0.1154
 7992SOL     OW31739   0.187   0.021   0.430  0.0802  0.0958  0.6068
 7992SOL    HW231740   0.161  -0.055   0.481  1.3953 -0.9554 -0.2237
 7992SOL    HW331741   0.148   0.096   0.477 -0.0978 -0.9541  2.2219
 7992SOL    MW431742   0.179   0.021   0.443  0.4651  0.2053  0.2305
 7993SOL     OW31743   6.271   6.053   1.473  0.0396  0.4744  0.6113
 7993SOL    HW231744   6.361   6.028   1.498  0.0748 -0.6969 -0.5802
 7993SOL    HW331745   6.233   5.972   1.439 -0.3850  1.6877 -1.9910
 7993SOL    MW431746   6.278   6.039   1.472  0.4371 -0.1922  0.4931
 7994SOL     OW31747   6.147   1.828   2.022 -0.2193  0.2518 -0.0193
 7994SOL    HW231748   6.241   1.832   2.040 -0.1735  0.6800 -0.3463
 7994SOL    HW331749   6.114   1.762   2.083  0.8664 -2.7430 -2.4359
 7994SOL    MW431750   6.155   1.820   2.033 -0.6918 -0.0978  0.6658
 7995SOL     OW31751   2.227   2.867   5.570 -0.5195 -0.5091  0.5767
 7995SOL    HW231752   2.247   2.777   5.594  0.4114 -0.1642  1.1668
 7995SOL    HW331753   2.233   2.916   5.652  1.7285  0.5304 -0.1138
 7995SOL    MW431754   2.231   2.862   5.584  0.2510  0.0707 -0.2464
 7996SOL     OW31755   3.859   5.507   1.672  0.3375 -0.6442  0.1189
 7996SOL    HW231756   3.821   5.483   1.587  0.5127 -2.6640  0.5675
 7996SOL    HW331757   3.934   5.561   1.649 -0.5994  0.2934 -0.9246
 7996SOL    MW431758   3.864   5.511   1.657  0.2082  0.1963 -0.1030
 7997SOL     OW31759   4.787   4.869   5.113 -0.0537 -0.0510 -0.1520
 7997SOL    HW231760   4.867   4.824   5.140  0.3267 -1.5153 -3.3234
 7997SOL    HW331761   4.716   4.822   5.158  0.6826  0.1009  1.2371
 7997SOL    MW431762   4.788   4.857   5.123 -0.5593  0.7980 -0.4276
 7998SOL     OW31763   3.524   2.389   4.650  0.0919 -0.5773 -0.0052
 7998SOL    HW231764   3.511   2.322   4.717  0.1618 -0.1883  0.3983
 7998SOL    HW331765   3.436   2.417   4.626  0.0871 -0.0540  0.5978
 7998SOL    MW431766   3.511   2.383   4.656  0.3316  0.1330 -0.2293
 7999SOL     OW31767   3.784   1.091   3.661 -0.1733 -0.8307  0.3053
 7999SOL    HW231768   3.847   1.096   3.590 -0.2225 -0.5246  0.2838
 7999SOL    HW331769   3.742   1.005   3.650 -0.8455 -0.4041 -0.5945
 7999SOL    MW431770   3.787   1.080   3.651  0.7164  0.0029 -0.1946
 8000SOL     OW31771   0.869   0.828   5.500  0.4654 -0.3689 -0.5894
 8000SOL    HW231772   0.871   0.873   5.585  0.0492  0.2156 -0.8843
 8000SOL    HW331773   0.804   0.759   5.511 -1.1661  1.0283 -1.0671
 8000SOL    MW431774   0.861   0.825   5.513 -0.0506 -0.5099  0.4006
 8001SOL     OW31775   4.852   3.231   4.734 -0.0768  0.3256  0.4951
 8001SOL    HW231776   4.837   3.214   4.827  0.5399  2.8982  1.1424
 8001SOL    HW331777   4.768   3.216   4.692 -0.9883  1.4231  1.8649
 8001SOL    MW431778   4.839   3.227   4.740 -0.5373  0.1264 -0.2375
 8002SOL     OW31779   2.087   6.259   4.351  0.1617 -0.7293  0.6662
 8002SOL    HW231780   2.083   6.221   4.439  1.6337 -0.7957  0.7432
 8002SOL    HW331781   2.176   6.296   4.346 -0.0577 -0.3438 -0.6348
 8002SOL    MW431782   2.098   6.259   4.362 -0.2614  0.2228 -0.4021
 8003SOL     OW31783   0.066   5.946   3.735 -0.1260  0.2091  0.0334
 8003SOL    HW231784   0.139   5.887   3.755  0.0940 -0.2754 -1.9912
 8003SOL    HW331785  -0.012   5.895   3.755  0.0709  0.1239  0.6096
 8003SOL    MW431786   0.065   5.932   3.740  0.1353  0.4640 -0.4789
 8004SOL     OW31787   1.002   1.150   4.393  0.3892  0.7376  0.1708
 8004SOL    HW231788   1.049   1.198   4.324  1.1926 -0.6196 -0.2512
 8004SOL    HW331789   1.047   1.175   4.474  1.4077  0.0058 -0.1507
 8004SOL    MW431790   1.014   1.160   4.395 -0.3443  0.3804  0.3091
 8005SOL     OW31791   2.829   5.949   4.559  0.3977  0.2408 -0.0402
 8005SOL    HW231792   2.912   5.963   4.604  0.1265 -0.2189  0.6170
 8005SOL    HW331793   2.849   5.887   4.489  0.5884  0.0746  0.1636
 8005SOL    MW431794   2.842   5.943   4.555  0.1816 -0.2989 -0.0244
 8006SOL     OW31795   3.185   2.577   1.359 -0.6552  0.2419 -0.3573
 8006SOL    HW231796   3.222   2.491   1.378 -1.6046 -0.5220 -1.7179
 8006SOL    HW331797   3.182   2.622   1.443 -0.8796 -1.3742  0.5373
 8006SOL    MW431798   3.189   2.572   1.373  0.4107  0.0312 -0.6271
 8007SOL     OW31799   2.245   0.001   4.749  0.5308  0.7351  0.7571
 8007SOL    HW231800   2.300   0.061   4.800  1.6540  0.0205  0.4176
 8007SOL    HW331801   2.192   0.059   4.693  2.5816  1.4389 -0.5697
 8007SOL    MW431802   2.245   0.017   4.748  0.3596  0.3697 -0.6481
 8008SOL     OW31803   3.655   5.232   3.642 -0.3402  0.2907  0.0374
 8008SOL    HW231804   3.669   5.151   3.690 -1.1434  0.7435  1.0948
 8008SOL    HW331805   3.621   5.205   3.557 -0.4472 -0.4828  0.3262
 8008SOL    MW431806   3.652   5.218   3.638 -0.0515  0.5375 -0.0359
 8009SOL     OW31807   3.945   2.920   1.666 -0.3305 -0.0452 -0.0544
 8009SOL    HW231808   3.905   2.875   1.591 -1.7780 -0.3562  0.8586
 8009SOL    HW331809   3.893   2.891   1.742  0.9031  0.4855  1.0395
 8009SOL    MW431810   3.933   2.910   1.666  0.0674 -0.2127 -0.0010
 8010SOL     OW31811   4.212   3.091   1.852  0.7410  0.0934 -0.0608
 8010SOL    HW231812   4.224   3.004   1.815  2.1915  0.5565 -0.7184
 8010SOL    HW331813   4.133   3.083   1.906 -1.1623 -0.7762 -2.7274
 8010SOL    MW431814   4.203   3.078   1.854  0.0775 -0.2386  0.1943
 8011SOL     OW31815   0.175   3.893   3.656 -0.0423 -0.6222  0.1293
 8011SOL    HW231816   0.157   3.807   3.620  0.4041  0.5567 -3.2888
 8011SOL    HW331817   0.246   3.928   3.602 -1.5960  2.6517 -0.1050
 8011SOL    MW431818   0.182   3.886   3.644  0.0630 -0.1897  0.0910
 8012SOL     OW31819   3.521   0.828   6.063 -0.0361  0.0601 -0.4470
 8012SOL    HW231820   3.495   0.917   6.088 -0.2715  0.0799 -0.7522
 8012SOL    HW331821   3.615   0.835   6.045 -0.4822  0.8400 -2.9087
 8012SOL    MW431822   3.530   0.841   6.064  0.1711  0.1018  0.5877
 8013SOL     OW31823   3.689   3.651   6.018  0.7555  0.3717  0.0476
 8013SOL    HW231824   3.765   3.598   6.043  0.7990  0.5143  0.2185
 8013SOL    HW331825   3.617   3.589   6.013  0.3601  0.5885  2.2103
 8013SOL    MW431826   3.690   3.636   6.021 -0.2073 -0.4452 -0.3550
 8014SOL     OW31827   0.373   5.381   3.418 -0.9303 -0.3052 -0.4663
 8014SOL    HW231828   0.448   5.416   3.467 -0.9066 -0.2013 -0.5757
 8014SOL    HW331829   0.372   5.287   3.439 -0.1119 -0.5208 -1.3099
 8014SOL    MW431830   0.383   5.373   3.427  0.3746  0.3934 -0.1261
 8015SOL     OW31831   4.731   2.816   2.496 -0.3529  0.1842  0.3113
 8015SOL    HW231832   4.797   2.749   2.511 -2.1509 -1.6683  0.3686
 8015SOL    HW331833   4.743   2.878   2.568  2.3388  0.8411 -0.5893
 8015SOL    MW431834   4.741   2.816   2.507  0.3035  0.6883 -0.1404
 8016SOL     OW31835   0.875   5.202   1.299  0.3520  0.3437 -0.4243
 8016SOL    HW231836   0.819   5.126   1.315  0.2523  0.6481  0.8118
 8016SOL    HW331837   0.882   5.245   1.385 -0.4544  2.3166 -1.2868
 8016SOL    MW431838   0.868   5.198   1.313  0.1637  0.2464  0.2600
 8017SOL     OW31839   6.169   6.342   1.042 -0.4434  0.1042 -0.2281
 8017SOL    HW231840   6.209   6.280   1.103 -0.7604  0.9450  0.8718
 8017SOL    HW331841   6.118   6.400   1.098  0.3139  1.7180 -1.1504
 8017SOL    MW431842   6.168   6.341   1.058  0.2676 -0.4321 -0.3818
 8018SOL     OW31843   6.015   0.817   0.246  0.3138  0.3307  0.0080
 8018SOL    HW231844   5.994   0.725   0.260  2.2853 -0.1146  0.3578
 8018SOL    HW331845   6.027   0.825   0.152  0.9613  0.0262  0.0613
 8018SOL    MW431846   6.013   0.806   0.236  0.1258  0.3650  0.2839
 8019SOL     OW31847   5.369   0.873   0.406  0.0206  0.5731  0.0076
 8019SOL    HW231848   5.357   0.962   0.374 -0.7362  0.0702 -1.1707
 8019SOL    HW331849   5.434   0.836   0.346  0.5323  0.4082  0.6581
 8019SOL    MW431850   5.376   0.880   0.394 -0.1199 -0.3004  0.0703
 8020SOL     OW31851   4.813   6.292   5.390  0.6623 -0.5269  0.5394
 8020SOL    HW231852   4.782   6.348   5.318  2.1510  0.1484  0.3980
 8020SOL    HW331853   4.829   6.208   5.349  0.5149 -0.4420  0.3029
 8020SOL    MW431854   4.811   6.289   5.375  0.3234 -0.3107 -0.4145
 8021SOL     OW31855   4.089   0.251   2.515 -0.5981 -0.2181  0.0163
 8021SOL    HW231856   4.036   0.301   2.577 -0.3158 -1.2861  1.1505
 8021SOL    HW331857   4.155   0.314   2.484  0.7025 -0.2089  2.5660
 8021SOL    MW431858   4.091   0.266   2.519 -0.3357 -0.2140 -0.0184
 8022SOL     OW31859   3.984   1.130   0.382 -0.5779 -0.2109  0.1137
 8022SOL    HW231860   3.909   1.096   0.432 -1.0659  1.1623  0.3502
 8022SOL    HW331861   3.958   1.119   0.290 -1.2942  0.7017  0.1949
 8022SOL    MW431862   3.970   1.124   0.376 -0.4063  0.3734  0.1856
 8023SOL     OW31863   0.710   4.199   2.598  0.4810 -0.1627  0.0393
 8023SOL    HW231864   0.788   4.251   2.578 -0.6694  1.8553  0.4625
 8023SOL    HW331865   0.642   4.235   2.540 -0.7750 -0.0307  1.5370
 8023SOL    MW431866   0.711   4.211   2.587 -0.7207 -0.0196 -0.4422
 8024SOL     OW31867   5.925   3.777   4.985  1.3255  0.6711  0.3021
 8024SOL    HW231868   6.015   3.778   4.952  1.3248 -1.1723  0.1552
 8024SOL    HW331869   5.928   3.716   5.059  0.0375 -0.0496 -0.2176
 8024SOL    MW431870   5.937   3.769   4.991  0.9381  0.1833 -0.6691
 8025SOL     OW31871   4.999   6.421   2.406 -0.0061  0.2310  0.0144
 8025SOL    HW231872   4.921   6.467   2.376 -0.7378 -1.9287 -1.6668
 8025SOL    HW331873   5.019   6.359   2.336  1.5585 -1.2044  1.6200
 8025SOL    MW431874   4.991   6.419   2.393 -0.2065 -0.0730  0.2506
 8026SOL     OW31875   4.222   5.300   3.618  0.0504 -0.1020 -0.5037
 8026SOL    HW231876   4.176   5.223   3.586 -1.5464 -0.4622  2.3073
 8026SOL    HW331877   4.299   5.265   3.663  1.3524  0.2831 -2.3066
 8026SOL    MW431878   4.226   5.285   3.620  0.8117  0.2213  0.4209
 8027SOL     OW31879   0.629   0.343   4.208  0.0888  0.0493 -0.4927
 8027SOL    HW231880   0.565   0.273   4.213 -1.1291  1.2161  1.7093
 8027SOL    HW331881   0.707   0.308   4.251 -0.3560 -0.1311  0.1793
 8027SOL    MW431882   0.631   0.329   4.214 -0.5938 -0.3505  0.1569
 8028SOL     OW31883   1.144   6.038   3.477 -0.1759  0.0087  0.0385
 8028SOL    HW231884   1.129   6.107   3.413  1.6131 -1.6845 -2.4000
 8028SOL    HW331885   1.222   6.066   3.524 -0.4714  0.4296  0.2903
 8028SOL    MW431886   1.152   6.051   3.475  0.1212 -0.0740 -0.1239
 8029SOL     OW31887   6.398   0.030   0.191  0.3069 -0.2789 -0.0637
 8029SOL    HW231888   6.441  -0.042   0.145  1.5399  1.1394 -1.2342
 8029SOL    HW331889   6.462   0.057   0.257  0.6188  0.8715 -0.8168
 8029SOL    MW431890   6.413   0.024   0.193 -0.2931  0.3157  0.3173
 8030SOL     OW31891   0.168   5.001   3.198  0.1696  0.3228 -0.2252
 8030SOL    HW231892   0.240   5.061   3.179 -0.4898  0.9937 -0.6306
 8030SOL    HW331893   0.201   4.916   3.168  0.5742  0.7276 -0.9641
 8030SOL    MW431894   0.182   4.997   3.191  0.1262 -0.5509 -0.1963
 8031SOL     OW31895   1.697   3.099   2.036  0.6345  0.3970 -0.0228
 8031SOL    HW231896   1.609   3.112   2.073  0.8287  1.3103  0.1337
 8031SOL    HW331897   1.681   3.058   1.952 -0.0705  2.0944 -0.7721
 8031SOL    MW431898   1.683   3.095   2.030  0.1610 -0.4378 -0.0595
 8032SOL     OW31899   3.657   5.647   3.839 -0.1272 -0.1234 -0.0661
 8032SOL    HW231900   3.738   5.696   3.826 -0.8150  1.0851 -0.0339
 8032SOL    HW331901   3.621   5.682   3.921 -0.1558 -1.4202  0.5036
 8032SOL    MW431902   3.663   5.658   3.848 -0.0679 -0.0560  0.3196
 8033SOL     OW31903   0.145   5.179   0.129 -0.5203 -0.0423 -0.0147
 8033SOL    HW231904   0.132   5.274   0.124 -0.1739  0.1422  1.8386
 8033SOL    HW331905   0.240   5.168   0.138 -0.4967 -0.6250 -0.8256
 8033SOL    MW431906   0.156   5.190   0.129  0.3504 -0.0182 -0.1018
 8034SOL     OW31907   2.053   4.854   4.374 -0.2869  0.2982 -0.0374
 8034SOL    HW231908   1.989   4.922   4.353 -1.5592 -0.6706  0.5809
 8034SOL    HW331909   2.049   4.844   4.469  0.6632  0.0897 -0.0039
 8034SOL    MW431910   2.044   4.862   4.384  0.5846 -0.2445  0.3007
 8035SOL     OW31911   5.926   4.621   4.080  0.1809 -0.1184  0.0088
 8035SOL    HW231912   6.010   4.580   4.100 -0.3146 -2.1106 -1.6551
 8035SOL    HW331913   5.939   4.659   3.993 -0.2874  0.6363  0.2658
 8035SOL    MW431914   5.939   4.621   4.071 -0.5111  0.5808 -0.1489
 8036SOL     OW31915   5.845   1.630   1.393 -0.4750 -0.3181  0.3143
 8036SOL    HW231916   5.842   1.549   1.445 -1.0900 -1.1296 -0.9477
 8036SOL    HW331917   5.760   1.671   1.407 -0.5894 -0.4671  0.0564
 8036SOL    MW431918   5.834   1.625   1.402 -0.2060  0.4052  0.2026
 8037SOL     OW31919   1.147   1.691   5.787  0.4189 -0.7038  0.0032
 8037SOL    HW231920   1.235   1.706   5.752  1.8518  0.6955  3.7040
 8037SOL    HW331921   1.089   1.736   5.725  2.7977  2.3755 -0.2357
 8037SOL    MW431922   1.151   1.699   5.774 -0.1133  0.2267  0.2903
 8038SOL     OW31923   2.778   0.403   5.363  0.4629 -0.2692  0.0355
 8038SOL    HW231924   2.737   0.425   5.446 -2.1826  1.8215 -1.6545
 8038SOL    HW331925   2.815   0.316   5.377 -2.4414 -1.3028  2.5599
 8038SOL    MW431926   2.777   0.394   5.375  0.4954 -0.0273  0.0444
 8039SOL     OW31927   4.482   6.396   1.597 -0.5733 -0.2227 -0.4876
 8039SOL    HW231928   4.448   6.439   1.675 -0.4471 -0.5873 -0.2337
 8039SOL    HW331929   4.571   6.370   1.620 -0.4112 -0.0140 -0.8722
 8039SOL    MW431930   4.489   6.398   1.610 -0.0225  0.9234 -0.0178
 8040SOL     OW31931   5.643   2.217   3.755 -0.0525 -0.3967  0.4198
 8040SOL    HW231932   5.698   2.139   3.764  1.4775  0.5832 -0.0374
 8040SOL    HW331933   5.666   2.270   3.832  0.3014  0.3993 -0.2224
 8040SOL    MW431934   5.653   2.213   3.767 -0.6415  0.3100  0.3400
 8041SOL     OW31935   3.204   0.112   5.075  0.6370 -0.4048 -0.0739
 8041SOL    HW231936   3.192   0.183   5.138  0.4439 -2.1364  1.9949
 8041SOL    HW331937   3.225   0.155   4.993  0.1095  2.0286  0.9811
 8041SOL    MW431938   3.205   0.127   5.073 -0.2039 -0.3129  0.1813
 8042SOL     OW31939   2.688   4.462   2.455 -0.4036 -0.3233  0.0318
 8042SOL    HW231940   2.659   4.373   2.435 -0.8138 -0.4321  1.0511
 8042SOL    HW331941   2.613   4.502   2.499 -0.4625  0.7501 -0.9895
 8042SOL    MW431942   2.674   4.455   2.458  0.6376 -0.3695 -0.8470
 8043SOL     OW31943   3.827   5.843   4.676 -0.4707  0.7250 -0.1532
 8043SOL    HW231944   3.890   5.820   4.608 -0.3163  1.0743 -0.1296
 8043SOL    HW331945   3.823   5.938   4.674 -0.3625  0.7472  0.4167
 8043SOL    MW431946   3.835   5.852   4.667 -1.1200  0.2773  0.1947
 8044SOL     OW31947   1.016   2.699   5.004 -0.1779 -0.2537 -0.2917
 8044SOL    HW231948   0.978   2.664   5.085 -1.1821  1.7616  0.1836
 8044SOL    HW331949   0.942   2.737   4.957  0.2294 -2.1685 -2.6760
 8044SOL    MW431950   1.002   2.700   5.009  0.4347  0.2674 -0.2626
 8045SOL     OW31951   4.014   5.619   0.759  0.3212 -0.9174 -0.0494
 8045SOL    HW231952   4.105   5.649   0.757  0.5018 -1.4309  0.4675
 8045SOL    HW331953   3.967   5.686   0.808 -0.0286  0.5182 -2.1822
 8045SOL    MW431954   4.020   5.632   0.765  0.5909 -0.3210 -0.1903
 8046SOL     OW31955   1.975   0.659   0.259  0.6243 -0.1074 -0.3739
 8046SOL    HW231956   2.045   0.595   0.249  1.4335  0.5109  1.0480
 8046SOL    HW331957   1.935   0.639   0.344  0.5941  0.9774 -0.1180
 8046SOL    MW431958   1.979   0.648   0.269  0.9022  0.4367 -0.4120
 8047SOL     OW31959   4.852   2.851   5.205 -0.3276  0.5833 -0.2949
 8047SOL    HW231960   4.905   2.801   5.268 -0.5881 -0.0108 -0.5390
 8047SOL    HW331961   4.913   2.916   5.169 -0.3539  1.3928  1.0664
 8047SOL    MW431962   4.867   2.853   5.208 -0.1018  0.0924 -0.5558
 8048SOL     OW31963   5.164   1.241   2.371 -0.4668  0.4355 -0.0093
 8048SOL    HW231964   5.205   1.324   2.345 -0.2228  0.7998  1.4307
 8048SOL    HW331965   5.234   1.194   2.417 -0.3604 -0.9456 -1.4982
 8048SOL    MW431966   5.179   1.246   2.373 -0.0279 -0.0520 -0.5330
 8049SOL     OW31967   2.460   6.245   3.088  0.0033 -0.3475 -1.0936
 8049SOL    HW231968   2.466   6.277   3.179  1.6471 -1.5430 -0.7505
 8049SOL    HW331969   2.420   6.159   3.096  0.1239 -0.4413 -1.5055
 8049SOL    MW431970   2.455   6.238   3.101 -0.0893 -0.1592 -0.3266
 8050SOL     OW31971   3.637   0.300   6.080  0.4689  0.1068  0.3647
 8050SOL    HW231972   3.555   0.254   6.067 -0.1690  0.8338  1.5904
 8050SOL    HW331973   3.701   0.231   6.096  0.0060 -0.4424 -0.1362
 8050SOL    MW431974   3.635   0.285   6.081 -0.2480 -0.6334  0.1264
 8051SOL     OW31975   1.398   3.724   3.369 -0.2260  0.6053 -0.0473
 8051SOL    HW231976   1.445   3.773   3.302  0.4124  0.1556  0.0567
 8051SOL    HW331977   1.323   3.687   3.324  0.6993 -0.4756 -0.7632
 8051SOL    MW431978   1.395   3.726   3.354 -0.2033 -0.2838 -0.4764
 8052SOL     OW31979   6.051   6.369   4.637 -0.2332 -0.3268 -0.1531
 8052SOL    HW231980   5.971   6.341   4.593  0.0394 -0.0525 -0.8496
 8052SOL    HW331981   6.024   6.443   4.691 -0.5069 -0.4277 -0.1523
 8052SOL    MW431982   6.037   6.375   4.638 -0.1829  0.0529 -0.0420
 8053SOL     OW31983   3.565   5.693   6.386 -0.0591 -0.1670  0.3085
 8053SOL    HW231984   3.519   5.657   6.461  1.1260  0.3920  1.3259
 8053SOL    HW331985   3.526   5.780   6.373  1.3283  0.7458  1.8249
 8053SOL    MW431986   3.554   5.700   6.394 -0.0632 -0.1895  0.3904
 8054SOL     OW31987   0.006   5.791   2.572 -0.1363  0.1198  0.1860
 8054SOL    HW231988   0.057   5.841   2.509  1.5344 -0.9686  0.6073
 8054SOL    HW331989   0.068   5.770   2.642 -0.0034 -4.3835 -0.9631
 8054SOL    MW431990   0.021   5.794   2.573 -0.2086 -0.6191 -0.0147
 8055SOL     OW31991   1.770   4.532   5.416  0.3029  0.2842 -0.2452
 8055SOL    HW231992   1.816   4.467   5.469  0.5017 -0.9617 -1.8669
 8055SOL    HW331993   1.824   4.542   5.338 -0.7560  0.9132 -0.9213
 8055SOL    MW431994   1.783   4.525   5.413  0.4445  0.0097 -0.3266
 8056SOL     OW31995   2.253   1.459   4.397 -0.3689 -0.2157 -0.4167
 8056SOL    HW231996   2.326   1.470   4.457 -0.0979  1.3208 -0.9815
 8056SOL    HW331997   2.275   1.381   4.346  1.1400  0.5084 -0.9186
 8056SOL    MW431998   2.266   1.450   4.398 -0.2788 -0.3624  0.2986
 8057SOL     OW31999   2.681   0.398   3.370 -0.1123 -0.3693 -0.1236
 8057SOL    HW232000   2.770   0.417   3.399  0.2928 -0.9746 -0.9240
 8057SOL    HW332001   2.684   0.409   3.275 -1.4858  1.9026  0.0295
 8057SOL    MW432002   2.693   0.402   3.361 -0.3756  0.0308 -0.6309
 8058SOL     OW32003   4.828   6.255   1.060  0.1842 -0.8663 -0.6108
 8058SOL    HW232004   4.735   6.246   1.083  0.3349  0.6961  0.7434
 8058SOL    HW332005   4.828   6.259   0.964 -1.5567  2.2515 -0.6332
 8058SOL    MW432006   4.816   6.254   1.050  0.1461 -0.0356  0.0301
 8059SOL     OW32007   5.614   0.417   6.302 -0.4314  0.8750  0.7353
 8059SOL    HW232008   5.572   0.357   6.240 -0.9108  1.8001  0.1426
 8059SOL    HW332009   5.544   0.446   6.360  0.1182 -0.4240  2.1168
 8059SOL    MW432010   5.599   0.413   6.301  0.3736  0.6313  0.3942
 8060SOL     OW32011   0.058   3.276   2.592 -0.3456  0.1056 -0.3572
 8060SOL    HW232012   0.147   3.256   2.621 -0.3758  0.0470 -0.3049
 8060SOL    HW332013   0.002   3.245   2.663 -0.3489  1.1491  0.1126
 8060SOL    MW432014   0.062   3.269   2.605 -0.4240 -0.1058  0.6183
 8061SOL     OW32015   5.223   1.766   5.637 -0.1823 -0.3698 -0.5930
 8061SOL    HW232016   5.195   1.749   5.727 -0.1289  0.7645 -0.3524
 8061SOL    HW332017   5.314   1.735   5.635  0.1770  0.6094  0.0647
 8061SOL    MW432018   5.232   1.759   5.649 -0.2047  0.1429 -0.1722
 8062SOL     OW32019   3.384   1.548   2.179  0.3690  0.1011 -0.2221
 8062SOL    HW232020   3.372   1.478   2.243  1.7680  1.0257  1.1562
 8062SOL    HW332021   3.401   1.503   2.096 -1.8978 -1.1384 -0.0900
 8062SOL    MW432022   3.385   1.533   2.177 -0.1155  0.1340 -0.0123
 8063SOL     OW32023   1.498   2.888   4.248 -0.3156  0.4356  0.4542
 8063SOL    HW232024   1.441   2.812   4.243 -0.3637  0.4484  0.8048
 8063SOL    HW332025   1.574   2.858   4.297  0.0954  0.3496 -0.2238
 8063SOL    MW432026   1.501   2.874   4.254  0.2528 -0.0532  0.4476
 8064SOL     OW32027   4.526   2.644   4.728 -0.0813  0.0257 -0.0078
 8064SOL    HW232028   4.513   2.583   4.656  0.4154 -0.2152  0.0995
 8064SOL    HW332029   4.438   2.661   4.761 -0.2202 -0.7672  0.0658
 8064SOL    MW432030   4.513   2.638   4.723  0.1987  0.3376 -0.2874
 8065SOL     OW32031   1.433   5.498   6.062  0.1722 -0.4346  0.1863
 8065SOL    HW232032   1.433   5.561   6.134  0.4544  0.2552 -0.4155
 8065SOL    HW332033   1.487   5.426   6.094  0.5277 -0.0092  0.5555
 8065SOL    MW432034   1.440   5.497   6.076 -0.0212 -0.0166  0.2970
 8066SOL     OW32035   4.402   1.308   2.236  0.1711  0.2388  0.1245
 8066SOL    HW232036   4.466   1.276   2.299  0.6868 -0.2647 -0.6332
 8066SOL    HW332037   4.434   1.277   2.152 -0.0385  1.6112 -0.4980
 8066SOL    MW432038   4.415   1.300   2.233  0.1768 -0.1698 -0.2330
 8067SOL     OW32039   1.419   5.110   0.446  0.1270 -0.3846  0.0109
 8067SOL    HW232040   1.369   5.083   0.369 -1.7382 -0.9088  1.3305
 8067SOL    HW332041   1.440   5.202   0.430  0.2362 -0.6110 -1.3248
 8067SOL    MW432042   1.415   5.118   0.434  0.2501  0.3215 -0.2696
 8068SOL     OW32043   4.296   0.899   1.287  0.5928 -0.5272 -0.0794
 8068SOL    HW232044   4.335   0.941   1.364 -1.3964 -0.2210  0.8264
 8068SOL    HW332045   4.301   0.805   1.307  0.7707 -0.4881  0.0688
 8068SOL    MW432046   4.302   0.892   1.300 -0.0166  0.2335 -0.5721
 8069SOL     OW32047   0.135   5.450   3.043  0.2315 -1.0683 -0.1229
 8069SOL    HW232048   0.058   5.506   3.036 -0.5942 -2.2807 -1.5388
 8069SOL    HW332049   0.114   5.389   3.114 -0.3960 -1.7330 -0.8494
 8069SOL    MW432050   0.122   5.449   3.051 -0.0968 -0.7339  0.5872
 8070SOL     OW32051   5.706   5.712   1.186 -0.7454 -0.1783 -0.3165
 8070SOL    HW232052   5.757   5.633   1.168  0.5532  0.5758 -0.1040
 8070SOL    HW332053   5.737   5.741   1.272 -0.1133  1.3534 -1.0266
 8070SOL    MW432054   5.717   5.705   1.195  0.0899  0.2998 -0.4881
 8071SOL     OW32055   4.989   2.117   2.313 -0.2762 -0.0360 -0.0691
 8071SOL    HW232056   5.075   2.150   2.341 -1.0671  0.7401  1.6084
 8071SOL    HW332057   5.009   2.038   2.264  1.4022  0.0046  0.4651
 8071SOL    MW432058   5.003   2.111   2.311 -0.3498  0.1814  0.2886
 8072SOL     OW32059   6.178   0.630   0.495 -0.2857  0.3464  0.2591
 8072SOL    HW232060   6.152   0.721   0.512  0.1645  0.7274 -0.9809
 8072SOL    HW332061   6.240   0.609   0.565 -1.2231  0.6099  1.1963
 8072SOL    MW432062   6.182   0.639   0.506  0.0275 -0.3125 -0.0040
 8073SOL     OW32063   5.683   0.238   2.806  0.1736 -0.4091 -0.0629
 8073SOL    HW232064   5.595   0.209   2.780  0.6971 -0.8094 -1.4715
 8073SOL    HW332065   5.740   0.166   2.781  1.0262  0.2638 -0.0952
 8073SOL    MW432066   5.679   0.225   2.799  0.3392  0.1317 -0.5212
 8074SOL     OW32067   2.091   0.222   2.341  0.3401 -0.2778 -0.7402
 8074SOL    HW232068   2.089   0.142   2.393 -0.6292  0.8752  1.1069
 8074SOL    HW332069   2.010   0.220   2.290 -0.8279  0.4986  0.9721
 8074SOL    MW432070   2.080   0.211   2.341  0.5957 -0.0522 -0.5879
 8075SOL     OW32071   4.188   3.325   3.179  0.0312  0.0572  0.3891
 8075SOL    HW232072   4.111   3.321   3.235  0.7293  0.4988  1.4188
 8075SOL    HW332073   4.196   3.237   3.143 -0.4451 -0.2301  0.9681
 8075SOL    MW432074   4.179   3.313   3.181  0.2155  0.5919  0.5824
 8076SOL     OW32075   1.025   2.553   3.517 -0.1733 -0.4078  0.4300
 8076SOL    HW232076   1.036   2.624   3.454  1.2074 -1.1995 -0.2558
 8076SOL    HW332077   0.931   2.551   3.534 -0.3876  0.7759 -0.4695
 8076SOL    MW432078   1.014   2.562   3.511 -0.5849 -0.3056  0.3543
 8077SOL     OW32079   4.472   0.405   3.245 -0.0409 -0.2850  0.0565
 8077SOL    HW232080   4.456   0.383   3.153 -0.4519  1.6026 -0.3614
 8077SOL    HW332081   4.394   0.375   3.291 -0.0164 -0.8576 -0.2636
 8077SOL    MW432082   4.460   0.398   3.239 -0.2130 -0.5454 -0.5946
 8078SOL     OW32083   1.682   2.014   1.511 -0.4186 -0.0320  0.2740
 8078SOL    HW232084   1.632   2.095   1.503 -1.5072 -0.6389  0.5738
 8078SOL    HW332085   1.615   1.945   1.512  0.4827 -0.9398 -0.0723
 8078SOL    MW432086   1.666   2.016   1.510  0.3123 -0.2678  0.1987
 8079SOL     OW32087   5.009   3.067   0.627 -0.2092 -0.2461  0.6784
 8079SOL    HW232088   5.101   3.082   0.604 -0.6691 -0.1045 -1.2727
 8079SOL    HW332089   4.964   3.146   0.597 -1.1281 -0.8347  0.4686
 8079SOL    MW432090   5.015   3.079   0.620 -0.4223 -0.8147  0.2888
 8080SOL     OW32091   0.428   1.095   3.332 -0.0185  0.3436 -0.3474
 8080SOL    HW232092   0.357   1.039   3.301  0.3571  0.8079 -2.1453
 8080SOL    HW332093   0.391   1.140   3.408 -0.8543 -1.1208  0.1576
 8080SOL    MW432094   0.413   1.093   3.338 -0.1221  0.2164  0.1853
 8081SOL     OW32095   4.508   3.645   4.244  0.2056  0.5460 -0.0802
 8081SOL    HW232096   4.517   3.635   4.339 -1.1669  2.6755  0.3491
 8081SOL    HW332097   4.560   3.574   4.207  1.6806  0.3095  2.2501
 8081SOL    MW432098   4.516   3.635   4.252 -0.1760 -0.1229 -0.5477
 8082SOL     OW32099   0.145   5.313   1.562 -0.1490  0.2579 -0.1849
 8082SOL    HW232100   0.108   5.239   1.514 -0.4347 -1.5348  2.5438
 8082SOL    HW332101   0.088   5.386   1.540 -1.3816 -0.9259 -1.0973
 8082SOL    MW432102   0.132   5.313   1.553  0.1560 -0.4398  0.0390
 8083SOL     OW32103   4.087   1.032   2.386  0.2883 -0.3920 -0.1978
 8083SOL    HW232104   4.092   1.073   2.300  2.5858 -2.6868 -1.2653
 8083SOL    HW332105   4.043   0.948   2.370  0.5322 -0.7490  0.9044
 8083SOL    MW432106   4.082   1.026   2.373  0.0833  0.1355 -0.2571
 8084SOL     OW32107   4.839   3.437   1.746  0.5634 -0.4188  0.2198
 8084SOL    HW232108   4.746   3.431   1.725  0.2337 -1.0047  1.7013
 8084SOL    HW332109   4.868   3.518   1.706 -0.2718 -0.8687 -1.3640
 8084SOL    MW432110   4.831   3.447   1.738  0.1070  0.0055 -0.3221
 8085SOL     OW32111   2.946   1.616   4.267  0.4812  0.3940 -0.5329
 8085SOL    HW232112   2.926   1.695   4.317  3.6996  0.6454  0.5879
 8085SOL    HW332113   3.013   1.645   4.205  0.5216 -1.1320 -1.2247
 8085SOL    MW432114   2.952   1.631   4.265 -0.5423  0.0263 -0.1508
 8086SOL     OW32115   5.464   1.680   2.884 -0.2732 -0.5998 -0.0460
 8086SOL    HW232116   5.440   1.700   2.975  0.5557  0.9507 -0.1299
 8086SOL    HW332117   5.393   1.718   2.832 -0.3159 -0.7288 -0.0819
 8086SOL    MW432118   5.451   1.688   2.889 -0.2980 -0.5470  0.4032
 8087SOL     OW32119   5.170   5.196   0.951  0.1062  0.0394  0.4028
 8087SOL    HW232120   5.076   5.205   0.967  0.1156 -0.5271  0.8075
 8087SOL    HW332121   5.204   5.285   0.957 -0.0636  0.0035  2.5491
 8087SOL    MW432122   5.162   5.209   0.954  0.5601  0.4888 -0.4237
 8088SOL     OW32123   0.521   4.245   0.613  0.2232 -0.4329  0.6782
 8088SOL    HW232124   0.431   4.218   0.627  0.3031 -0.5604  0.9537
 8088SOL    HW332125   0.547   4.200   0.533 -0.5982  1.1927 -0.5544
 8088SOL    MW432126   0.513   4.236   0.604  0.3314  0.0122 -0.0330
 8089SOL     OW32127   0.702   1.073   5.320 -0.1013  0.4669 -0.0223
 8089SOL    HW232128   0.780   1.048   5.270  0.1852  0.0788  0.6120
 8089SOL    HW332129   0.675   1.156   5.281 -0.2974 -0.1588 -1.2928
 8089SOL    MW432130   0.709   1.080   5.308  0.4656 -0.2330 -0.1956
 8090SOL     OW32131   5.248   2.302   6.172  0.1877 -0.3209  0.3568
 8090SOL    HW232132   5.191   2.370   6.137  1.3558  1.3076  1.4944
 8090SOL    HW332133   5.333   2.345   6.182  0.4903 -1.3416  2.9386
 8090SOL    MW432134   5.252   2.317   6.169  0.0355  0.0139 -0.2719
 8091SOL     OW32135   4.620   5.616   2.856 -0.2569  0.4196 -0.0977
 8091SOL    HW232136   4.624   5.542   2.795 -0.0229  0.1517  0.2395
 8091SOL    HW332137   4.528   5.620   2.882 -0.2140  0.0418  0.1289
 8091SOL    MW432138   4.608   5.606   2.851 -0.2654  0.3820 -0.7505
 8092SOL     OW32139   1.732   3.009   3.774 -0.1548 -0.0776 -0.4080
 8092SOL    HW232140   1.738   3.048   3.862 -0.0652  1.5941 -1.1052
 8092SOL    HW332141   1.642   2.978   3.768 -0.2511  0.0668  0.1649
 8092SOL    MW432142   1.721   3.010   3.785 -0.9172  0.0120  0.6525
 8093SOL     OW32143   1.322   1.639   1.924 -0.1728  0.1014 -0.2324
 8093SOL    HW232144   1.376   1.560   1.925  0.5106  0.5538 -0.2173
 8093SOL    HW332145   1.384   1.710   1.940 -0.7545  0.6526 -0.3818
 8093SOL    MW432146   1.337   1.638   1.926 -0.6376 -0.1817 -0.0005
 8094SOL     OW32147   4.247   1.583   0.453  0.0338  0.3057  0.0093
 8094SOL    HW232148   4.161   1.551   0.478  0.5286 -1.6922 -0.6622
 8094SOL    HW332149   4.270   1.533   0.374  0.3178  3.3423 -2.0294
 8094SOL    MW432150   4.239   1.572   0.446 -0.0412 -0.1673  0.0103
 8095SOL     OW32151   0.847   3.912   4.792 -0.0525 -0.4186 -0.0012
 8095SOL    HW232152   0.865   3.835   4.846  0.0502 -1.7637 -1.8577
 8095SOL    HW332153   0.910   3.906   4.720 -1.0909  0.5369 -1.0206
 8095SOL    MW432154   0.858   3.901   4.790  0.6250 -0.4727 -0.3123
 8096SOL     OW32155   0.938   2.424   2.948 -0.0475 -0.3243 -0.3848
 8096SOL    HW232156   0.990   2.393   3.022  1.2443  2.6685  0.0941
 8096SOL    HW332157   0.997   2.415   2.873 -0.5181 -1.1709 -0.6643
 8096SOL    MW432158   0.953   2.418   2.948 -0.0715 -0.0834 -0.1179
 8097SOL     OW32159   5.504   5.697   0.482 -0.0395  0.0240 -0.0297
 8097SOL    HW232160   5.523   5.751   0.406 -1.0218  0.8426  0.2859
 8097SOL    HW332161   5.415   5.722   0.508  0.0787 -0.6211  1.0642
 8097SOL    MW432162   5.495   5.707   0.475  0.0925 -0.9881 -0.1384
 8098SOL     OW32163   6.189   3.431   0.031  0.5611  0.3441 -0.5315
 8098SOL    HW232164   6.209   3.363   0.096  1.2345  1.4919  0.5271
 8098SOL    HW332165   6.272   3.479   0.022  0.2798  0.6216 -1.7469
 8098SOL    MW432166   6.203   3.429   0.039  0.7664  0.4454  0.3926
 8099SOL     OW32167   5.230   6.352   3.731 -0.1657  0.0002  0.4113
 8099SOL    HW232168   5.223   6.320   3.641  2.1709  0.9607 -0.1670
 8099SOL    HW332169   5.302   6.302   3.769 -0.6267  0.1489  1.5288
 8099SOL    MW432170   5.239   6.341   3.724 -0.1120 -0.9750 -0.1052
 8100SOL     OW32171   1.643   5.190   1.701 -0.0302 -0.1175 -0.0771
 8100SOL    HW232172   1.619   5.097   1.699 -1.3009  0.1975 -0.4897
 8100SOL    HW332173   1.562   5.235   1.725 -0.3051  1.1312 -2.9543
 8100SOL    MW432174   1.629   5.184   1.704  0.0620 -0.8110 -0.3216
 8101SOL     OW32175   2.257   3.989   0.905  0.0204 -0.0260 -0.2801
 8101SOL    HW232176   2.171   3.947   0.897  0.0104  0.0303 -0.4768
 8101SOL    HW332177   2.238   4.081   0.917  0.0055 -0.2165  1.3921
 8101SOL    MW432178   2.243   3.995   0.905 -0.0137 -0.4945 -0.4713
 8102SOL     OW32179   1.758   4.548   1.233 -0.5331  0.2718 -0.3675
 8102SOL    HW232180   1.749   4.465   1.187 -1.4249  0.9898 -1.5701
 8102SOL    HW332181   1.850   4.572   1.222 -0.3405 -0.4003 -0.2652
 8102SOL    MW432182   1.769   4.541   1.225  0.1703 -0.3945 -0.3744
 8103SOL     OW32183   0.499   0.047   0.028  0.0163  0.5566 -0.4433
 8103SOL    HW232184   0.425   0.010   0.076  1.5448 -0.2545  1.3721
 8103SOL    HW332185   0.512  -0.013  -0.046  0.9182 -1.2293  1.0959
 8103SOL    MW432186   0.491   0.035   0.024 -0.3685  0.3355 -0.1820
 8104SOL     OW32187   6.386   0.054   5.975  0.1226 -0.0213  0.4064
 8104SOL    HW232188   6.326   0.043   6.048 -0.7272  2.0225  0.1041
 8104SOL    HW332189   6.436   0.133   5.996  0.5031  0.0870 -0.7899
 8104SOL    MW432190   6.385   0.063   5.987  0.4265  0.2969 -1.2834
 8105SOL     OW32191   0.136   2.299   3.827  0.3206  0.3168  0.2700
 8105SOL    HW232192   0.107   2.208   3.830 -0.6914  0.6496  1.3205
 8105SOL    HW332193   0.093   2.335   3.750  2.8058 -0.7163 -1.7317
 8105SOL    MW432194   0.126   2.292   3.817 -0.3929  0.5100 -0.4490
 8106SOL     OW32195   3.805   3.315   2.034 -0.3970 -0.2283  0.0853
 8106SOL    HW232196   3.775   3.304   1.943 -1.0233  1.1085  0.1059
 8106SOL    HW332197   3.890   3.270   2.036 -0.4033 -0.3485 -1.1420
 8106SOL    MW432198   3.812   3.308   2.022  0.1253 -0.3523 -0.8371
 8107SOL     OW32199   3.612   0.553   3.278  0.0071 -0.1601  0.3273
 8107SOL    HW232200   3.531   0.576   3.234 -0.8951 -0.2637  1.8798
 8107SOL    HW332201   3.644   0.635   3.314  1.4656  0.1867 -1.5719
 8107SOL    MW432202   3.606   0.566   3.277  1.2243  0.4748 -0.1299
 8108SOL     OW32203   2.748   2.450   6.050  0.6219 -0.3345  0.5576
 8108SOL    HW232204   2.780   2.402   5.974  1.0019  0.4675  0.2060
 8108SOL    HW332205   2.741   2.541   6.020  0.6367 -0.0370  1.4369
 8108SOL    MW432206   2.751   2.456   6.036 -0.2599 -0.4796 -0.6119
 8109SOL     OW32207   6.199   3.756   1.965  0.1770 -0.2820  0.3293
 8109SOL    HW232208   6.191   3.707   2.047  1.3689  0.9085  1.1939
 8109SOL    HW332209   6.148   3.836   1.980  0.5024 -0.0044 -0.0432
 8109SOL    MW432210   6.191   3.760   1.978 -0.2561  0.6195 -0.6347
 8110SOL     OW32211   4.896   3.836   4.074 -0.0285 -0.2399  0.1249
 8110SOL    HW232212   4.895   3.903   4.005 -0.9985 -1.6760 -1.3297
 8110SOL    HW332213   4.837   3.870   4.141  0.9756  1.2126  0.3236
 8110SOL    MW432214   4.888   3.849   4.074 -0.2646  0.5551 -0.0411
 8111SOL     OW32215   5.048   1.596   1.270  0.3083 -0.0397  0.7982
 8111SOL    HW232216   4.998   1.654   1.213  1.0583  1.8445  1.9748
 8111SOL    HW332217   5.077   1.525   1.213 -2.1971 -0.2691 -0.2839
 8111SOL    MW432218   5.045   1.594   1.255  0.5533  0.3051  0.0321
 8112SOL     OW32219   3.269   5.113   0.235 -0.1111  0.2293  0.2833
 8112SOL    HW232220   3.181   5.150   0.234  0.2799  1.1981 -0.6540
 8112SOL    HW332221   3.323   5.180   0.276  0.6262  0.8037 -1.5046
 8112SOL    MW432222   3.264   5.127   0.240 -0.2824 -0.0349  0.1109
 8113SOL     OW32223   4.208   2.526   3.708 -0.0508 -0.0877 -0.4290
 8113SOL    HW232224   4.150   2.541   3.783  0.3031 -0.5630 -0.0528
 8113SOL    HW332225   4.159   2.558   3.632 -0.7467 -0.3677 -0.0995
 8113SOL    MW432226   4.194   2.532   3.708 -0.3297 -0.4102  0.2065
 8114SOL     OW32227   5.754   4.142   3.547 -0.1531  0.3927  0.1484
 8114SOL    HW232228   5.789   4.097   3.470  1.2060 -0.4372  1.2108
 8114SOL    HW332229   5.722   4.073   3.604  0.3163  0.8808  1.0238
 8114SOL    MW432230   5.754   4.127   3.544  0.7285  0.3033 -0.4657
 8115SOL     OW32231   1.516   5.023   1.313 -0.3950 -0.2560 -0.1815
 8115SOL    HW232232   1.557   5.097   1.267 -0.3276 -0.8252 -1.0678
 8115SOL    HW332233   1.441   5.001   1.259  0.5457 -1.9250 -0.8865
 8115SOL    MW432234   1.512   5.030   1.300 -0.1603  0.1430 -0.1755
 8116SOL     OW32235   3.707   1.428   2.025  0.0862  0.4757 -0.1454
 8116SOL    HW232236   3.692   1.363   2.093 -0.5953  2.0408  1.2793
 8116SOL    HW332237   3.626   1.429   1.974  0.2399 -0.0435 -0.4004
 8116SOL    MW432238   3.695   1.420   2.027 -0.0717  0.5282 -0.2789
 8117SOL     OW32239   3.620   0.628   4.567  0.0389 -0.3333 -0.1411
 8117SOL    HW232240   3.633   0.543   4.524  0.9874  0.0652 -0.6824
 8117SOL    HW332241   3.682   0.629   4.639 -1.3311 -0.8671  1.0944
 8117SOL    MW432242   3.630   0.617   4.571 -0.0868 -0.4302 -0.3175
 8118SOL     OW32243   0.899   0.779   2.002 -0.6681  0.1439  0.3869
 8118SOL    HW232244   0.936   0.752   1.918  2.3853 -0.4519  1.7720
 8118SOL    HW332245   0.868   0.868   1.987  1.4874  0.7372 -0.9767
 8118SOL    MW432246   0.900   0.787   1.989 -0.1565 -0.7452  0.1740
 8119SOL     OW32247   1.632   2.652   1.981 -0.1631  0.4867  0.3923
 8119SOL    HW232248   1.569   2.712   1.941 -0.3203  0.1759  0.1710
 8119SOL    HW332249   1.692   2.629   1.910 -2.4387 -2.8012 -0.6941
 8119SOL    MW432250   1.631   2.657   1.966 -0.3760 -0.0844  0.4815
 8120SOL     OW32251   4.874   6.192   0.781 -0.5803  0.0552 -0.0963
 8120SOL    HW232252   4.836   6.107   0.804 -0.6687 -0.0734 -0.6897
 8120SOL    HW332253   4.811   6.230   0.719 -1.2265  1.1455  1.1601
 8120SOL    MW432254   4.860   6.186   0.776 -0.0222  0.1092  0.4842
 8121SOL     OW32255   6.259   2.872   3.387  0.3452 -0.1620  0.2822
 8121SOL    HW232256   6.259   2.966   3.407  0.9112  0.2552 -1.5214
 8121SOL    HW332257   6.167   2.852   3.371  0.2588  0.1689  0.3393
 8121SOL    MW432258   6.247   2.882   3.388 -0.1172  0.4259  0.2692
 8122SOL     OW32259   2.623   2.284   2.218  0.3295  0.3260 -0.9959
 8122SOL    HW232260   2.570   2.256   2.143  0.6531  1.0820 -1.5198
 8122SOL    HW332261   2.634   2.378   2.206  2.6240  0.0786 -1.4792
 8122SOL    MW432262   2.618   2.292   2.206 -0.0222  0.0598  0.2871
 8123SOL     OW32263   1.597   6.081   5.171 -0.6712  0.9344  0.4858
 8123SOL    HW232264   1.507   6.112   5.183 -0.8765  0.7968 -0.5735
 8123SOL    HW332265   1.594   5.990   5.199 -1.2992  0.4185 -1.1320
 8123SOL    MW432266   1.584   6.073   5.176  0.4478  0.0346  0.1000
 8124SOL     OW32267   4.313   3.152   0.181  0.0047 -0.0586 -0.0088
 8124SOL    HW232268   4.401   3.178   0.154  0.1774 -1.5448 -0.9827
 8124SOL    HW332269   4.254   3.211   0.134  0.4553  2.3602  2.2340
 8124SOL    MW432270   4.317   3.163   0.172 -0.3593  0.8345 -0.4242
 8125SOL     OW32271   1.288   1.204   2.653 -0.0226 -0.2449  0.3534
 8125SOL    HW232272   1.196   1.231   2.650  0.0129  0.2192  2.1890
 8125SOL    HW332273   1.337   1.282   2.626 -0.1231 -0.0759  0.6550
 8125SOL    MW432274   1.282   1.218   2.649  0.3196 -0.4151  0.4575
 8126SOL     OW32275   5.203   3.325   3.543  0.2750  0.3176 -0.6125
 8126SOL    HW232276   5.248   3.408   3.556 -0.6979  0.7776 -0.1440
 8126SOL    HW332277   5.160   3.334   3.458 -1.3195  1.0022  0.2387
 8126SOL    MW432278   5.203   3.337   3.534  0.0377 -0.0027  0.2607
 8127SOL     OW32279   6.163   2.040   5.556  0.5751  0.1145  0.2282
 8127SOL    HW232280   6.069   2.055   5.543  0.5730  2.7200  2.3520
 8127SOL    HW332281   6.179   1.954   5.517 -2.4872 -0.0389 -0.9953
 8127SOL    MW432282   6.153   2.031   5.549 -0.3048 -0.4889 -0.2992
 8128SOL     OW32283   6.225   2.918   1.778 -0.3827 -0.6103  0.5969
 8128SOL    HW232284   6.297   2.863   1.748  1.0177  0.8718  1.1067
 8128SOL    HW332285   6.248   2.942   1.868 -2.1495 -1.1013  1.2297
 8128SOL    MW432286   6.237   2.914   1.786 -0.0870 -0.0667  0.5103
 8129SOL     OW32287   5.408   1.758   3.878  0.7569 -0.1436 -0.3996
 8129SOL    HW232288   5.497   1.753   3.915  0.0015 -1.4251  1.3953
 8129SOL    HW332289   5.358   1.694   3.929 -1.3373  0.9400 -1.0137
 8129SOL    MW432290   5.413   1.749   3.889 -0.2448 -0.6761  0.1961
 8130SOL     OW32291   4.270   3.097   4.359 -0.1586  0.2354 -0.5737
 8130SOL    HW232292   4.251   3.035   4.429  1.0811  1.6896  1.1220
 8130SOL    HW332293   4.188   3.101   4.308 -0.3812 -2.4960 -0.5934
 8130SOL    MW432294   4.256   3.089   4.361  0.0002  0.3106 -0.0947
 8131SOL     OW32295   5.952   0.162   4.747 -0.6486  0.5039  0.7128
 8131SOL    HW232296   6.015   0.212   4.799  1.3890  0.1159 -1.1998
 8131SOL    HW332297   5.877   0.220   4.737  0.9850  2.6216 -0.1163
 8131SOL    MW432298   5.951   0.176   4.752 -0.5870  0.0792  0.0216
 8132SOL     OW32299   3.619   0.559   3.884 -0.0944  0.4973  0.6558
 8132SOL    HW232300   3.633   0.533   3.793 -1.4525  0.6234  0.3834
 8132SOL    HW332301   3.706   0.574   3.918  0.4207  1.0704 -0.8203
 8132SOL    MW432302   3.632   0.558   3.876 -0.1119  0.2602 -0.1460
 8133SOL     OW32303   4.660   1.213   6.031 -0.1133 -0.1045 -0.6226
 8133SOL    HW232304   4.661   1.126   5.991 -0.6860 -0.4505  0.0854
 8133SOL    HW332305   4.737   1.214   6.088  0.6131  0.3316 -1.5706
 8133SOL    MW432306   4.670   1.202   6.033  1.1280  0.0193 -0.3356
 8134SOL     OW32307   3.530   0.947   4.705 -0.0773  0.5541  0.0604
 8134SOL    HW232308   3.519   0.927   4.612  1.0921 -1.3311  0.2670
 8134SOL    HW332309   3.458   1.006   4.726 -2.1512 -1.2716 -1.4145
 8134SOL    MW432310   3.519   0.952   4.696  0.7767 -0.3540  0.2306
 8135SOL     OW32311   5.046   0.064   1.825 -0.1760 -0.3468  0.0270
 8135SOL    HW232312   5.066  -0.029   1.823 -3.0773 -1.1796  2.0469
 8135SOL    HW332313   4.998   0.081   1.744  1.4882 -0.2164 -0.9754
 8135SOL    MW432314   5.042   0.054   1.814  0.5108  0.3279 -0.3326
 8136SOL     OW32315   2.684   3.390   0.224 -0.1064  0.3061  0.2908
 8136SOL    HW232316   2.693   3.424   0.135 -1.2064  1.4544  0.5900
 8136SOL    HW332317   2.763   3.420   0.269  0.7190 -0.7426 -0.4178
 8136SOL    MW432318   2.695   3.399   0.219 -0.6908 -0.2071  0.0609
 8137SOL     OW32319   3.797   5.341   5.853  0.5757  0.0227 -0.4717
 8137SOL    HW232320   3.732   5.409   5.873  0.4585  0.3435 -1.8092
 8137SOL    HW332321   3.745   5.262   5.836  0.5810  0.0666 -0.7038
 8137SOL    MW432322   3.782   5.340   5.853  0.4504 -0.3424 -0.2315
 8138SOL     OW32323   4.388   0.137   6.275 -0.6374 -0.1464  0.6304
 8138SOL    HW232324   4.357   0.138   6.365 -1.8693 -0.8251  0.2464
 8138SOL    HW332325   4.369   0.049   6.244 -2.6763  0.7866 -1.0590
 8138SOL    MW432326   4.381   0.126   6.283  0.4597 -0.0178 -0.1027
 8139SOL     OW32327   0.240   1.940   2.879  0.0494 -0.5008  0.0315
 8139SOL    HW232328   0.237   2.001   2.806  0.2650 -1.5267 -0.8585
 8139SOL    HW332329   0.185   1.981   2.946  0.0286  0.5647 -0.6075
 8139SOL    MW432330   0.232   1.953   2.878  0.0733  0.2980 -0.1584
 8140SOL     OW32331   4.682   3.008   1.520  0.0661  0.4665  0.3326
 8140SOL    HW232332   4.595   3.030   1.554  0.1286  1.2288  0.0232
 8140SOL    HW332333   4.739   3.078   1.552 -0.2877  2.5332 -3.0812
 8140SOL    MW432334   4.678   3.020   1.529  0.1874 -0.2673  0.1488
 8141SOL     OW32335   4.626   3.579   6.332 -0.0352  0.0902 -0.3326
 8141SOL    HW232336   4.603   3.638   6.260 -0.0411 -0.9688 -1.2393
 8141SOL    HW332337   4.592   3.494   6.304  2.1143 -0.8767 -0.2154
 8141SOL    MW432338   4.618   3.575   6.319 -0.6682 -0.5404  0.5703
 8142SOL     OW32339   0.132   0.673   5.684 -0.3391  0.0039  0.2259
 8142SOL    HW232340   0.075   0.609   5.641  2.7025 -1.7379 -1.5974
 8142SOL    HW332341   0.161   0.629   5.764 -1.6479  1.0042  1.3023
 8142SOL    MW432342   0.128   0.658   5.689 -0.3517  0.0186 -0.6004
 8143SOL     OW32343   2.856   3.952   4.038 -0.4707 -0.4547 -0.4086
 8143SOL    HW232344   2.774   3.903   4.046 -1.1033  0.7046  0.8257
 8143SOL    HW332345   2.838   4.035   4.083  1.2206  0.0397 -0.5730
 8143SOL    MW432346   2.843   3.957   4.045  0.0866 -0.3726  0.1121
 8144SOL     OW32347   5.899   0.464   2.550 -0.6505  0.1389  0.5548
 8144SOL    HW232348   5.836   0.496   2.615 -0.7705  0.5375  0.2452
 8144SOL    HW332349   5.974   0.523   2.559 -0.1198 -0.6247  1.2513
 8144SOL    MW432350   5.900   0.476   2.560  0.2957 -0.4296 -0.1621
 8145SOL     OW32351   5.085   4.034   1.604  0.1973  0.7222  0.1282
 8145SOL    HW232352   5.097   4.090   1.527 -0.1489  2.2597  1.1591
 8145SOL    HW332353   4.992   4.044   1.626  0.3877  0.6339  1.0005
 8145SOL    MW432354   5.074   4.042   1.596  0.8524  0.2707  0.7452
 8146SOL     OW32355   3.005   2.777   2.868  0.0961  0.0635  0.2996
 8146SOL    HW232356   3.044   2.720   2.934  0.8565  0.0102 -0.1778
 8146SOL    HW332357   2.912   2.781   2.891 -0.0683 -1.6809  0.1371
 8146SOL    MW432358   2.998   2.770   2.880 -0.0110 -1.0360  0.3115
 8147SOL     OW32359   5.409   5.662   2.377 -0.0872  0.0475  0.1030
 8147SOL    HW232360   5.413   5.577   2.335 -1.6153 -0.3220  0.6295
 8147SOL    HW332361   5.470   5.717   2.328  0.6544 -1.2459 -0.4594
 8147SOL    MW432362   5.417   5.658   2.365  0.2464 -0.0534  0.3938
 8148SOL     OW32363   0.625   0.136   1.053  0.7913 -0.1910  0.2611
 8148SOL    HW232364   0.554   0.140   0.989  0.4262 -2.4565  0.4342
 8148SOL    HW332365   0.604   0.206   1.116  0.5659  1.3485 -1.4231
 8148SOL    MW432366   0.613   0.146   1.053  0.1578  0.0524 -0.3527
 8149SOL     OW32367   2.641   1.306   3.732 -0.1719  0.5295  0.3198
 8149SOL    HW232368   2.729   1.270   3.744  0.0791  0.4373 -1.5747
 8149SOL    HW332369   2.584   1.248   3.782  0.6456 -0.3803  0.2137
 8149SOL    MW432370   2.645   1.294   3.740  0.1401 -0.5906 -0.4840
 8150SOL     OW32371   6.055   1.028   2.693 -0.5214  0.5071 -0.5529
 8150SOL    HW232372   6.102   1.044   2.611 -0.8348  1.1696 -0.6098
 8150SOL    HW332373   6.116   1.057   2.761  0.2496 -1.1894 -0.4461
 8150SOL    MW432374   6.070   1.034   2.691 -0.2349 -0.0256  0.4627
 8151SOL     OW32375   6.085   0.257   1.532  0.5170 -0.2261 -0.1652
 8151SOL    HW232376   6.020   0.199   1.572 -1.2200  1.4238 -0.4508
 8151SOL    HW332377   6.161   0.251   1.589 -0.5976 -0.7156  1.3329
 8151SOL    MW432378   6.086   0.248   1.545 -0.3907  0.2322  0.1372
 8152SOL     OW32379   5.999   4.707   0.855  0.1489 -0.0628  0.4726
 8152SOL    HW232380   6.011   4.625   0.902 -1.3049 -0.3895  0.3403
 8152SOL    HW332381   5.906   4.728   0.868  0.1724  0.8250 -0.6418
 8152SOL    MW432382   5.988   4.699   0.863 -0.2206  0.3916  0.1879
 8153SOL     OW32383   0.507   5.168   5.572  0.1164  0.2326  0.8693
 8153SOL    HW232384   0.503   5.190   5.479 -1.6354  0.1835  0.9047
 8153SOL    HW332385   0.577   5.103   5.578 -0.2410 -0.3395 -0.5538
 8153SOL    MW432386   0.516   5.162   5.561 -0.3412  0.9148  0.0024
 8154SOL     OW32387   4.865   5.778   4.645  0.2531  0.3589  0.0369
 8154SOL    HW232388   4.786   5.724   4.648  0.1318  0.5520  0.4281
 8154SOL    HW332389   4.852   5.844   4.714  0.8397  0.2708  0.2401
 8154SOL    MW432390   4.853   5.780   4.655  0.0606  0.1709  0.2512
 8155SOL     OW32391   5.382   4.434   3.870 -0.1153  0.1137  0.1259
 8155SOL    HW232392   5.437   4.459   3.943 -0.4944 -0.2004  0.5295
 8155SOL    HW332393   5.421   4.476   3.794  0.7473 -0.2061  0.3843
 8155SOL    MW432394   5.394   4.443   3.870  0.1581 -0.2704 -0.1384
 8156SOL     OW32395   1.103   1.912   5.256  0.2566 -0.3031 -0.2178
 8156SOL    HW232396   1.120   1.826   5.218  2.0114  0.1966 -0.6557
 8156SOL    HW332397   1.048   1.956   5.191 -0.6936 -1.0824  0.0327
 8156SOL    MW432398   1.098   1.906   5.242 -0.0130  0.6615  0.4836
 8157SOL     OW32399   5.317   2.002   5.344 -0.4762 -0.3921  0.0549
 8157SOL    HW232400   5.407   2.023   5.370  0.2480 -1.9751 -1.0575
 8157SOL    HW332401   5.296   2.068   5.278 -0.1417 -0.0165  0.3160
 8157SOL    MW432402   5.327   2.014   5.338  0.3172  0.2959 -0.2908
 8158SOL     OW32403   5.132   5.478   0.331 -0.4082  0.4213 -0.3377
 8158SOL    HW232404   5.128   5.396   0.381 -2.6996 -0.5193 -1.8908
 8158SOL    HW332405   5.183   5.537   0.386 -0.7659 -1.2832  1.9759
 8158SOL    MW432406   5.138   5.475   0.345 -0.4402  0.4462 -0.0201
 8159SOL     OW32407   1.874   5.886   3.143 -0.4388  0.0356 -0.4421
 8159SOL    HW232408   1.925   5.924   3.072 -0.1642  0.5677  0.0281
 8159SOL    HW332409   1.795   5.940   3.147 -0.8511 -0.5237 -0.8923
 8159SOL    MW432410   1.870   5.898   3.135 -0.1206  0.1176  0.0071
 8160SOL     OW32411   1.871   0.673   0.512  0.2429  0.0019 -0.1333
 8160SOL    HW232412   1.780   0.667   0.540  0.2536 -1.0624 -0.2894
 8160SOL    HW332413   1.914   0.599   0.555  0.6181 -0.6352 -1.5356
 8160SOL    MW432414   1.865   0.662   0.521  0.4173  0.1354  0.0013
 8161SOL     OW32415   5.520   1.839   1.774  0.0929  0.3473 -0.2519
 8161SOL    HW232416   5.603   1.843   1.822 -0.0656  1.9131 -0.0458
 8161SOL    HW332417   5.499   1.931   1.756 -1.6490 -0.0189 -0.2129
 8161SOL    MW432418   5.528   1.852   1.778 -0.0754  0.1730 -0.2037
 8162SOL     OW32419   6.048   0.869   0.575  0.3413  0.5895 -0.1566
 8162SOL    HW232420   6.090   0.954   0.570  1.2401  0.0873 -1.4142
 8162SOL    HW332421   5.955   0.889   0.585  0.7404  1.7055  1.8531
 8162SOL    MW432422   6.041   0.883   0.576  0.3878  0.1889  0.1928
 8163SOL     OW32423   0.034   5.175   0.395  0.0016  0.0765  0.2279
 8163SOL    HW232424   0.065   5.096   0.439  1.9779  0.7352  0.1002
 8163SOL    HW332425   0.062   5.165   0.304  0.3429  0.9612  0.2268
 8163SOL    MW432426   0.042   5.163   0.389 -0.1846 -0.0124 -0.8385
 8164SOL     OW32427   3.155   1.859   0.074 -0.1120 -0.7102  0.0655
 8164SOL    HW232428   3.125   1.792   0.135 -1.1464 -0.8059 -0.5166
 8164SOL    HW332429   3.185   1.810  -0.003  0.0563 -0.5454  0.0259
 8164SOL    MW432430   3.155   1.844   0.072 -0.3658  0.0329 -0.5910
 8165SOL     OW32431   3.343   4.847   5.779  0.2353 -0.2688  0.2352
 8165SOL    HW232432   3.432   4.812   5.767  0.3929  0.6278 -1.7404
 8165SOL    HW332433   3.357   4.940   5.797 -0.2917  0.1552 -1.3769
 8165SOL    MW432434   3.357   4.855   5.780 -0.2927  0.6530  0.4020
 8166SOL     OW32435   0.482   4.066   5.851  0.4971  0.1550  0.2258
 8166SOL    HW232436   0.406   4.067   5.909  0.3249  0.1313 -0.0026
 8166SOL    HW332437   0.465   4.134   5.787  0.6176  0.0734  0.1060
 8166SOL    MW432438   0.470   4.075   5.850 -0.1797  0.3244 -0.6780
 8167SOL     OW32439   1.188   0.622   1.356  0.1840 -0.3046  0.3943
 8167SOL    HW232440   1.208   0.608   1.264  1.0612 -0.6494  0.6311
 8167SOL    HW332441   1.094   0.603   1.363 -0.0597  0.4480 -0.5537
 8167SOL    MW432442   1.178   0.618   1.345 -0.1528 -0.0188  0.5455
 8168SOL     OW32443   2.215   2.321   1.940 -0.1745  0.0079  0.1675
 8168SOL    HW232444   2.271   2.311   2.017 -2.1557 -1.6100  1.5114
 8168SOL    HW332445   2.192   2.232   1.915 -2.0685  0.5835 -0.3398
 8168SOL    MW432446   2.219   2.308   1.947  0.4174  0.4518  0.2024
 8169SOL     OW32447   0.045   6.076   3.018 -0.0504  0.6107 -0.6026
 8169SOL    HW232448  -0.041   6.061   2.980 -0.1008 -1.0568  0.0667
 8169SOL    HW332449   0.034   6.151   3.076 -0.2601  2.4329 -2.8633
 8169SOL    MW432450   0.032   6.084   3.021  0.0024 -0.4861 -0.3322
 8170SOL     OW32451   5.692   2.219   4.619  0.4409 -0.1067 -0.3432
 8170SOL    HW232452   5.605   2.253   4.636  1.6127  2.5667  0.9010
 8170SOL    HW332453   5.726   2.195   4.705  0.9693 -1.1217 -0.8121
 8170SOL    MW432454   5.685   2.220   4.632  0.3134 -0.6181 -0.2149
 8171SOL     OW32455   4.561   2.816   0.349  0.4827 -0.0690 -0.7811
 8171SOL    HW232456   4.495   2.748   0.360 -0.4959  1.0757  0.9203
 8171SOL    HW332457   4.631   2.793   0.410  0.3046  0.2653 -0.4489
 8171SOL    MW432458   4.561   2.804   0.358  0.3241 -0.0409 -0.1170
 8172SOL     OW32459   2.680   1.745   2.140  0.5834 -0.3252  0.1097
 8172SOL    HW232460   2.769   1.743   2.104  0.2991 -0.6299 -0.5922
 8172SOL    HW332461   2.690   1.713   2.230  1.6587  2.5654  1.1362
 8172SOL    MW432462   2.693   1.741   2.147 -0.5774 -0.3389 -0.3446
 8173SOL     OW32463   5.730   2.804   0.288  0.0601 -0.0232 -0.0757
 8173SOL    HW232464   5.725   2.860   0.211 -0.1172  1.0234  0.6705
 8173SOL    HW332465   5.683   2.853   0.356 -1.0142 -1.5400  0.3412
 8173SOL    MW432466   5.723   2.818   0.287 -0.0750 -0.4590  0.0401
 8174SOL     OW32467   3.346   2.024   4.035  0.1272 -0.0288 -0.2509
 8174SOL    HW232468   3.272   2.048   4.091 -0.9642 -0.8924 -1.2693
 8174SOL    HW332469   3.313   1.951   3.982  1.9495 -0.8863 -0.2491
 8174SOL    MW432470   3.332   2.018   4.035  0.1115 -0.3882 -0.1366
 8175SOL     OW32471   4.261   6.234   5.145 -0.9831  0.3564 -0.3687
 8175SOL    HW232472   4.247   6.295   5.072 -1.7444  0.5012 -0.1137
 8175SOL    HW332473   4.196   6.259   5.210 -0.6310 -0.0874  0.1614
 8175SOL    MW432474   4.250   6.245   5.144 -0.7868  0.3025  0.3429
 8176SOL     OW32475   6.406   4.660   1.350  0.4508 -0.0298 -0.2678
 8176SOL    HW232476   6.469   4.603   1.307 -0.8756 -0.9948 -1.0240
 8176SOL    HW332477   6.407   4.740   1.298  1.9500  0.4784  0.4928
 8176SOL    MW432478   6.414   4.663   1.338  0.7728  0.6248 -0.5119
 8177SOL     OW32479   3.385   3.210   4.343  0.2429 -0.2561 -0.1317
 8177SOL    HW232480   3.378   3.157   4.422 -1.4357 -0.7072 -0.5422
 8177SOL    HW332481   3.431   3.289   4.371  0.6750 -0.8997  1.0246
 8177SOL    MW432482   3.390   3.213   4.357 -0.0202 -0.1128 -0.5899
 8178SOL     OW32483   3.427   1.904   4.679  0.0279 -0.3715 -0.2031
 8178SOL    HW232484   3.427   1.886   4.585 -0.1779 -2.6124  0.1479
 8178SOL    HW332485   3.512   1.944   4.697 -1.1550  3.1968 -1.7620
 8178SOL    MW432486   3.438   1.907   4.669 -0.2770  0.2209  0.0639
 8179SOL     OW32487   1.883   4.355   5.578  0.5780  0.4578 -0.2131
 8179SOL    HW232488   1.937   4.301   5.520  0.4949 -0.1613  0.2739
 8179SOL    HW332489   1.940   4.427   5.602  0.6450  0.6799 -0.9891
 8179SOL    MW432490   1.898   4.357   5.573  0.1286  0.4898  0.5016
 8180SOL     OW32491   4.545   4.280   2.625  0.0687 -0.1996  0.3183
 8180SOL    HW232492   4.476   4.221   2.595 -1.9643  0.9786  2.3703
 8180SOL    HW332493   4.563   4.337   2.550 -0.4839 -1.1289 -0.5405
 8180SOL    MW432494   4.538   4.280   2.611  0.1404  0.2475  0.3446
 8181SOL     OW32495   0.521   5.945   0.856 -0.6568  0.4312 -0.1227
 8181SOL    HW232496   0.596   5.976   0.908 -1.4908  0.9746  0.7978
 8181SOL    HW332497   0.510   5.853   0.883  1.3027 -0.5285 -2.2436
 8181SOL    MW432498   0.530   5.937   0.866  0.3284 -0.1353  0.4837
 8182SOL     OW32499   1.444   1.328   1.542 -0.2284  0.1675 -0.1790
 8182SOL    HW232500   1.431   1.238   1.512 -1.2895  0.6660 -1.2642
 8182SOL    HW332501   1.475   1.375   1.465  0.1775  0.7748  0.3455
 8182SOL    MW432502   1.447   1.322   1.528 -0.3538 -0.2045  0.1056
 8183SOL     OW32503   2.359   5.803   3.289  0.0486 -0.1084 -0.6036
 8183SOL    HW232504   2.391   5.719   3.257 -1.4579 -1.1529  0.4851
 8183SOL    HW332505   2.265   5.801   3.271 -0.4413  0.2696  1.6145
 8183SOL    MW432506   2.351   5.792   3.282  0.0295 -0.4760 -0.7335
 8184SOL     OW32507   1.542   3.686   2.450 -0.8415 -0.3461 -0.0431
 8184SOL    HW232508   1.584   3.655   2.370  2.4759  2.0607  0.5476
 8184SOL    HW332509   1.563   3.620   2.515  0.0486 -0.3073 -0.2798
 8184SOL    MW432510   1.550   3.673   2.448 -0.1073 -0.8424  0.4653
 8185SOL     OW32511   5.164   5.955   1.842  0.4342  0.2745  0.0524
 8185SOL    HW232512   5.211   5.926   1.921 -1.1425 -0.4462  0.7766
 8185SOL    HW332513   5.153   6.049   1.854 -1.6450 -0.1041  1.8234
 8185SOL    MW432514   5.169   5.964   1.854  0.2178  0.3428 -0.2543
 8186SOL     OW32515   4.878   3.245   1.524  0.0129  0.2213  0.0448
 8186SOL    HW232516   4.815   3.293   1.471 -0.5391 -0.3957  0.1229
 8186SOL    HW332517   4.886   3.296   1.604 -1.4468 -0.3883  0.6131
 8186SOL    MW432518   4.870   3.258   1.527 -0.0081 -0.0521  0.0026
 8187SOL     OW32519   0.307   4.490   0.323  0.1199  0.4139  0.0864
 8187SOL    HW232520   0.384   4.444   0.289  0.5140  2.3472 -1.8724
 8187SOL    HW332521   0.333   4.520   0.410  1.2986  0.3405 -0.2229
 8187SOL    MW432522   0.320   4.488   0.330 -0.3818  0.2202  0.4821
 8188SOL     OW32523   2.534   2.934   6.423  0.4606 -0.1503  0.3511
 8188SOL    HW232524   2.491   2.872   6.482  0.8226  0.9046  1.7977
 8188SOL    HW332525   2.496   3.019   6.448  0.6597  0.3264 -0.9339
 8188SOL    MW432526   2.523   2.937   6.434 -0.1106  0.0145 -0.3400
 8189SOL     OW32527   2.567   2.193   4.674 -0.8320  0.1967  0.2918
 8189SOL    HW232528   2.630   2.264   4.689  2.2120 -1.7953 -1.7237
 8189SOL    HW332529   2.521   2.218   4.594 -0.8569  0.5762  0.4235
 8189SOL    MW432530   2.569   2.206   4.666 -0.4680  0.1684  0.5899
 8190SOL     OW32531   2.599   5.720   4.480 -0.0761  0.0319  0.5251
 8190SOL    HW232532   2.528   5.724   4.544 -0.2915  0.6781  0.2550
 8190SOL    HW332533   2.577   5.787   4.415 -0.5527 -1.5120 -0.9659
 8190SOL    MW432534   2.587   5.730   4.480 -0.2186  0.0354 -0.2070
 8191SOL     OW32535   4.178   0.984   1.730 -0.0108  0.2149  0.5934
 8191SOL    HW232536   4.246   0.917   1.727 -0.0628  0.1718 -2.9126
 8191SOL    HW332537   4.102   0.944   1.688 -0.6417  1.8637  0.0894
 8191SOL    MW432538   4.177   0.970   1.724  0.3811 -0.4652  0.2410
 8192SOL     OW32539   0.750   0.722   0.805 -0.1735  0.4160  0.1408
 8192SOL    HW232540   0.787   0.678   0.728  0.5248  1.2808 -0.0316
 8192SOL    HW332541   0.812   0.705   0.875 -1.3401 -1.2791  0.8232
 8192SOL    MW432542   0.763   0.714   0.804  0.4817  0.1233 -0.4559
 8193SOL     OW32543   0.442   5.833   5.296 -0.0135  0.2003 -0.4621
 8193SOL    HW232544   0.522   5.821   5.246  0.0982  0.1046 -0.2645
 8193SOL    HW332545   0.455   5.917   5.342 -0.3921  0.6161 -1.1005
 8193SOL    MW432546   0.455   5.843   5.296  0.3862  0.6121 -0.8812
 8194SOL     OW32547   4.303   3.718   1.580 -0.1925  0.3160  0.6098
 8194SOL    HW232548   4.346   3.750   1.660 -2.7652  0.2313  2.1407
 8194SOL    HW332549   4.266   3.797   1.540 -1.4167  0.0306  1.1383
 8194SOL    MW432550   4.304   3.733   1.585 -0.4575  0.4923  0.4473
 8195SOL     OW32551   3.866   1.600   2.165 -0.8016  0.6552 -0.8090
 8195SOL    HW232552   3.798   1.609   2.233 -1.0865  0.2671 -1.0440
 8195SOL    HW332553   3.823   1.554   2.093  0.2786 -1.5455 -0.1399
 8195SOL    MW432554   3.851   1.595   2.165 -0.0744  0.2060 -0.4294
 8196SOL     OW32555   1.136   2.716   3.110 -0.5961 -0.5598  0.3824
 8196SOL    HW232556   1.211   2.676   3.065 -2.4976 -2.3461 -1.3846
 8196SOL    HW332557   1.121   2.798   3.062 -0.9171 -1.1276 -0.5188
 8196SOL    MW432558   1.144   2.722   3.097  0.7519 -0.0807 -0.0273
 8197SOL     OW32559   5.763   5.169   6.096 -0.4749 -0.1913  0.1703
 8197SOL    HW232560   5.749   5.202   6.184 -0.6065 -1.5622  0.6876
 8197SOL    HW332561   5.825   5.097   6.107  1.0604  0.8345 -1.1112
 8197SOL    MW432562   5.770   5.164   6.109  0.7295 -0.5691  0.3688
 8198SOL     OW32563   2.422   5.440   2.046  0.0927 -0.2201 -0.0760
 8198SOL    HW232564   2.402   5.346   2.047  0.3224 -0.2629  0.8661
 8198SOL    HW332565   2.491   5.449   1.980 -0.6594 -0.5540 -0.9247
 8198SOL    MW432566   2.429   5.429   2.037 -0.7401  0.2957  0.0830
 8199SOL     OW32567   5.164   1.179   4.435  0.2835 -0.1929  0.5585
 8199SOL    HW232568   5.070   1.163   4.444  0.4206 -0.8557  0.9111
 8199SOL    HW332569   5.183   1.163   4.343  0.2351 -1.1391  0.7039
 8199SOL    MW432570   5.154   1.174   4.424 -0.0370 -0.1734 -0.5195
 8200SOL     OW32571   5.885   5.442   0.568 -0.3316  0.6689 -0.1372
 8200SOL    HW232572   5.878   5.516   0.629  1.5102  1.7140 -1.0810
 8200SOL    HW332573   5.807   5.448   0.514 -2.3411 -0.6504  2.4017
 8200SOL    MW432574   5.874   5.453   0.569 -0.4250  0.0641 -0.2102
 8201SOL     OW32575   2.809   3.560   1.799  0.1003 -0.5929  0.4073
 8201SOL    HW232576   2.827   3.469   1.776  1.9942 -0.2249  0.1974
 8201SOL    HW332577   2.855   3.611   1.731 -1.3393  0.5294  0.2264
 8201SOL    MW432578   2.818   3.555   1.787  0.0731 -0.5551  0.1412
 8202SOL     OW32579   0.763   5.120   4.519  0.6004  0.2390 -0.4893
 8202SOL    HW232580   0.827   5.061   4.560  0.0237  1.0762  1.7539
 8202SOL    HW332581   0.723   5.066   4.450  2.3603 -0.8964 -0.7180
 8202SOL    MW432582   0.766   5.105   4.515 -0.5824 -0.1082  0.3884
 8203SOL     OW32583   1.384   5.649   5.706  0.0908 -0.1390 -0.2975
 8203SOL    HW232584   1.320   5.680   5.642 -0.6160  0.5503  0.7074
 8203SOL    HW332585   1.338   5.580   5.754  0.3666 -0.1548 -0.0555
 8203SOL    MW432586   1.369   5.644   5.704 -0.4372  0.1327  0.3919
 8204SOL     OW32587   0.314   3.106   5.504 -0.3820 -0.2976  0.0910
 8204SOL    HW232588   0.354   3.122   5.418 -1.4164 -1.2168 -0.5943
 8204SOL    HW332589   0.329   3.013   5.520 -1.9542 -0.5947 -0.0443
 8204SOL    MW432590   0.322   3.096   5.495  0.5201  0.0700 -0.1142
 8205SOL     OW32591   1.844   5.592   0.417  0.4642  0.1078  0.4096
 8205SOL    HW232592   1.834   5.684   0.439  1.9748  0.4886 -0.3592
 8205SOL    HW332593   1.935   5.584   0.387  0.5459 -1.7469  1.0385
 8205SOL    MW432594   1.855   5.603   0.416  0.4427  0.2547  0.7310
 8206SOL     OW32595   3.172   2.700   2.130 -0.3046 -0.4640  0.1875
 8206SOL    HW232596   3.212   2.701   2.217  0.2141  0.2350 -0.0564
 8206SOL    HW332597   3.222   2.635   2.081  0.2617  0.1038  0.0105
 8206SOL    MW432598   3.184   2.692   2.135  0.6117  0.3078 -0.0969
 8207SOL     OW32599   2.314   6.010   3.095  0.0172  0.0638  0.1092
 8207SOL    HW232600   2.229   6.011   3.051  0.1549  3.4234 -0.3367
 8207SOL    HW332601   2.304   5.944   3.165 -3.2952  1.0124  0.7064
 8207SOL    MW432602   2.302   6.001   3.099  0.1151 -0.2124 -0.2177
 8208SOL     OW32603   3.656   2.943   1.282 -0.0667  0.3493 -0.2004
 8208SOL    HW232604   3.687   2.969   1.195  0.2062 -0.4504 -0.3438
 8208SOL    HW332605   3.572   2.901   1.265 -0.3351  0.7927 -0.0008
 8208SOL    MW432606   3.649   2.941   1.268 -0.5973 -0.3410  0.4921
 8209SOL     OW32607   2.896   5.812   1.808  0.8334 -0.0082  0.2355
 8209SOL    HW232608   2.945   5.835   1.887  1.9055 -0.4316 -0.2937
 8209SOL    HW332609   2.903   5.717   1.802  0.5087 -0.0070 -0.2248
 8209SOL    MW432610   2.903   5.802   1.818  0.6769 -0.3278 -0.0707
 8210SOL     OW32611   0.795   4.326   5.474  0.1456  0.0679 -0.3844
 8210SOL    HW232612   0.835   4.389   5.412  0.7713 -0.6652 -0.7445
 8210SOL    HW332613   0.745   4.267   5.418  0.1550 -0.1921 -0.1156
 8210SOL    MW432614   0.794   4.327   5.458 -0.2053  0.5252 -0.3752
 8211SOL     OW32615   4.230   1.731   0.879  0.6328  0.2011 -0.1946
 8211SOL    HW232616   4.299   1.784   0.918 -1.0458  0.4675  2.7413
 8211SOL    HW332617   4.248   1.642   0.910  0.3384  0.0600 -0.4207
 8211SOL    MW432618   4.241   1.726   0.888 -0.1372  0.6065 -0.3634
 8212SOL     OW32619   3.772   6.370   5.401 -0.3537  0.4916 -0.2465
 8212SOL    HW232620   3.743   6.437   5.338  1.1254  0.2359 -1.2350
 8212SOL    HW332621   3.696   6.312   5.409  0.1105 -0.8107 -3.6480
 8212SOL    MW432622   3.758   6.372   5.394  0.4721 -0.0210 -0.2241
 8213SOL     OW32623   3.510   1.149   2.889  0.1125 -0.0199  0.1368
 8213SOL    HW232624   3.495   1.236   2.928 -1.4301 -0.4340  0.5607
 8213SOL    HW332625   3.602   1.150   2.862 -0.2349  2.3436 -1.3339
 8213SOL    MW432626   3.520   1.161   2.890  0.2964 -0.4021  0.1570
 8214SOL     OW32627   5.684   5.299   6.310  0.2184 -0.5552  0.1657
 8214SOL    HW232628   5.614   5.245   6.346 -0.5409 -0.2595 -0.8222
 8214SOL    HW332629   5.639   5.374   6.272  1.1471  0.0422  0.2134
 8214SOL    MW432630   5.669   5.302   6.310 -0.0400  0.3340 -0.3391
 8215SOL     OW32631   1.823   3.607   6.156  0.0900 -0.5517  0.1990
 8215SOL    HW232632   1.755   3.583   6.219  0.2309 -2.8245 -0.4300
 8215SOL    HW332633   1.784   3.592   6.070  0.7631 -0.0466 -0.2121
 8215SOL    MW432634   1.809   3.602   6.153 -0.0463 -0.1231  0.0994
 8216SOL     OW32635   4.831   1.160   2.056 -0.3983 -0.5920  0.0251
 8216SOL    HW232636   4.925   1.171   2.041 -0.2078 -2.0336 -0.0255
 8216SOL    HW332637   4.826   1.099   2.130 -1.3180  1.0547  1.3827
 8216SOL    MW432638   4.843   1.153   2.064 -0.6732 -0.1746  1.0815
 8217SOL     OW32639   5.832   2.450   1.917  0.5530 -0.3174 -0.4491
 8217SOL    HW232640   5.814   2.357   1.900 -2.4707  0.1595 -0.4661
 8217SOL    HW332641   5.789   2.468   2.000  0.1695  1.2710 -0.9497
 8217SOL    MW432642   5.824   2.440   1.926  0.0619 -0.6135 -0.0434
 8218SOL     OW32643   0.357   5.465   1.001  0.1697 -0.2008  0.6569
 8218SOL    HW232644   0.446   5.442   0.973  0.5035  0.3994  1.2166
 8218SOL    HW332645   0.368   5.541   1.057 -0.8008  0.4723 -0.0376
 8218SOL    MW432646   0.371   5.472   1.005  0.5023 -0.9878  0.7799
 8219SOL     OW32647   5.579   5.624   3.440 -0.6057 -0.4671  0.0938
 8219SOL    HW232648   5.583   5.541   3.392  1.2391 -0.2934 -0.1134
 8219SOL    HW332649   5.542   5.600   3.525 -0.6445 -1.3966 -0.1660
 8219SOL    MW432650   5.574   5.610   3.445 -0.0055 -0.6072  0.4070
 8220SOL     OW32651   3.694   2.028   4.367 -0.1677 -0.1272  0.6715
 8220SOL    HW232652   3.764   2.042   4.303 -1.1123 -1.5818 -0.7701
 8220SOL    HW332653   3.655   2.114   4.380  1.0059  0.4517  0.4451
 8220SOL    MW432654   3.698   2.041   4.360  0.6663 -0.7821 -0.5449
 8221SOL     OW32655   1.867   5.072   4.356  0.1722 -0.2102  0.5980
 8221SOL    HW232656   1.899   5.161   4.366  1.1433 -0.6055  1.2162
 8221SOL    HW332657   1.773   5.081   4.341 -0.0070  0.8468  2.1702
 8221SOL    MW432658   1.859   5.085   4.355  0.7991 -0.4096 -0.6908
 8222SOL     OW32659   3.625   6.084   6.362 -0.3310 -0.3985  0.1049
 8222SOL    HW232660   3.564   6.155   6.381 -2.3393 -1.7080 -1.1869
 8222SOL    HW332661   3.694   6.125   6.310 -2.0652  0.4416 -1.6482
 8222SOL    MW432662   3.626   6.099   6.358 -0.6453 -0.2078 -0.0844
 8223SOL     OW32663   2.551   6.031   3.772 -0.4207 -0.5522 -0.0609
 8223SOL    HW232664   2.627   6.089   3.765  0.7820 -1.6035  2.6291
 8223SOL    HW332665   2.501   6.066   3.846 -1.2838 -1.2464 -0.2946
 8223SOL    MW432666   2.554   6.043   3.781  0.0678  0.6152 -0.4952
 8224SOL     OW32667   1.592   2.956   3.084 -0.3458 -0.4919  0.4245
 8224SOL    HW232668   1.683   2.944   3.110  0.0687 -0.2099 -0.8292
 8224SOL    HW332669   1.557   2.868   3.077 -0.6424 -0.5728  2.4149
 8224SOL    MW432670   1.599   2.943   3.087  0.1396  0.7856 -0.5846
 8225SOL     OW32671   3.562   0.632   2.244 -0.4435  0.0360 -0.4093
 8225SOL    HW232672   3.550   0.717   2.286 -0.9229 -0.4043  0.3666
 8225SOL    HW332673   3.474   0.592   2.245  0.3204 -1.8319  2.2452
 8225SOL    MW432674   3.549   0.638   2.250  0.4842  0.2406  0.0924
 8226SOL     OW32675   6.107   3.596   1.769  0.3014 -0.3557 -0.2198
 8226SOL    HW232676   6.108   3.656   1.694  2.3818  0.6908  0.5764
 8226SOL    HW332677   6.115   3.652   1.846 -2.6916 -1.3346  0.9446
 8226SOL    MW432678   6.108   3.611   1.769 -0.7193  0.4796 -0.5054
 8227SOL     OW32679   6.264   5.760   3.733 -0.3814 -0.5948 -0.4776
 8227SOL    HW232680   6.188   5.785   3.680  1.0250  0.4613 -2.1150
 8227SOL    HW332681   6.284   5.670   3.705 -1.8399 -1.4535  1.0390
 8227SOL    MW432682   6.257   5.751   3.722  0.1983 -0.0424 -0.0118
 8228SOL     OW32683   3.675   1.444   5.814 -0.1724  0.0962  0.2710
 8228SOL    HW232684   3.717   1.360   5.834  1.2839  0.8279  0.4503
 8228SOL    HW332685   3.600   1.421   5.759  0.1916 -1.3177  0.3255
 8228SOL    MW432686   3.671   1.430   5.810  0.1223  0.3807  0.1511
 8229SOL     OW32687   4.834   4.827   1.338 -0.1571 -0.5730  0.3088
 8229SOL    HW232688   4.837   4.916   1.373  0.8852  0.0043 -1.1611
 8229SOL    HW332689   4.911   4.785   1.375 -0.7412 -0.9425  1.1387
 8229SOL    MW432690   4.845   4.833   1.348 -0.0662 -0.0693 -0.0793
 8230SOL     OW32691   2.149   4.373   3.407  0.6147 -0.3354 -0.3621
 8230SOL    HW232692   2.164   4.465   3.386  1.9747 -0.3997  0.1831
 8230SOL    HW332693   2.072   4.348   3.357  0.8104  0.8373 -1.2726
 8230SOL    MW432694   2.141   4.382   3.398 -0.4339 -0.5204 -0.0003
 8231SOL     OW32695   5.721   4.953   0.726 -0.2296 -0.0368 -0.6656
 8231SOL    HW232696   5.805   4.985   0.691  1.0792  0.7224  2.7844
 8231SOL    HW332697   5.677   5.032   0.757 -0.4391 -0.8037  1.0564
 8231SOL    MW432698   5.726   4.968   0.725 -0.5913  0.0424  0.5787
 8232SOL     OW32699   0.500   1.412   1.654  0.2137 -0.3767  0.4905
 8232SOL    HW232700   0.452   1.383   1.576 -0.3634 -0.0909  0.7314
 8232SOL    HW332701   0.582   1.363   1.651  0.0073 -0.7032 -0.0577
 8232SOL    MW432702   0.504   1.402   1.643 -0.2831 -0.0391 -0.7566
 8233SOL     OW32703   3.455   0.901   0.120  0.2029 -0.1515  0.7329
 8233SOL    HW232704   3.498   0.846   0.054  1.0932  2.2100 -0.7520
 8233SOL    HW332705   3.517   0.902   0.194  1.4569  0.9492 -0.2864
 8233SOL    MW432706   3.469   0.894   0.121  0.5294 -0.1726 -0.2470
 8234SOL     OW32707   5.103   5.422   2.499  0.1545  0.8761  0.4862
 8234SOL    HW232708   5.170   5.446   2.563  1.6458 -1.1982 -0.1907
 8234SOL    HW332709   5.038   5.372   2.550  0.1719  1.1561  0.7843
 8234SOL    MW432710   5.103   5.418   2.514  0.2193 -0.2394  0.0044
 8235SOL     OW32711   5.906   2.817   5.413  0.6015  0.1759  0.1565
 8235SOL    HW232712   5.905   2.908   5.442 -2.5415 -0.2310  1.7154
 8235SOL    HW332713   5.964   2.773   5.475  0.3947  0.7605  0.7779
 8235SOL    MW432714   5.914   2.823   5.425  0.1654 -0.1395  0.2865
 8236SOL     OW32715   3.697   4.516   6.305 -0.2071  0.7972  0.5378
 8236SOL    HW232716   3.687   4.455   6.232  0.1715 -0.2724  1.3597
 8236SOL    HW332717   3.620   4.500   6.360 -0.7524  1.9515  0.1569
 8236SOL    MW432718   3.685   4.506   6.303  0.1201 -0.6704  0.0114
 8237SOL     OW32719   4.917   4.968   4.067 -0.7729 -0.0380  0.1042
 8237SOL    HW232720   4.865   4.915   4.006 -1.7072  1.3588 -0.3776
 8237SOL    HW332721   4.868   5.050   4.073 -0.2398  0.1648  2.1068
 8237SOL    MW432722   4.903   4.972   4.060 -0.2236 -0.0887  0.5899
 8238SOL     OW32723   0.168   3.666   2.408  0.1852  0.0102 -0.0137
 8238SOL    HW232724   0.116   3.712   2.342  0.1844  0.4888  0.3125
 8238SOL    HW332725   0.237   3.622   2.359  1.3134  1.8689 -0.1987
 8238SOL    MW432726   0.170   3.666   2.393 -0.6347 -0.0407  0.0114
 8239SOL     OW32727   4.766   2.197   0.542 -0.3477  0.0153 -0.4793
 8239SOL    HW232728   4.838   2.137   0.522 -0.1534 -0.2857  1.0326
 8239SOL    HW332729   4.712   2.149   0.605 -0.9735  0.8917 -0.3338
 8239SOL    MW432730   4.768   2.183   0.548 -0.3811  0.8860 -0.4928
 8240SOL     OW32731   1.292   0.994   6.095 -0.3369 -0.1607  0.6977
 8240SOL    HW232732   1.213   1.009   6.146 -0.5731 -0.5170  0.4396
 8240SOL    HW332733   1.357   0.966   6.159  0.2782  2.3974  1.2975
 8240SOL    MW432734   1.290   0.992   6.110  0.2803  0.1258  0.1624
 8241SOL     OW32735   4.611   0.474   4.888 -0.2511 -0.2635  0.1240
 8241SOL    HW232736   4.675   0.507   4.951  0.6659 -1.1451 -0.3140
 8241SOL    HW332737   4.531   0.523   4.907  0.2104  0.0121  1.4732
 8241SOL    MW432738   4.609   0.485   4.899 -0.9246 -0.4879  0.5217
 8242SOL     OW32739   3.227   1.427   1.704  0.1206 -0.9664  0.1394
 8242SOL    HW232740   3.197   1.500   1.758  0.6952 -0.2978 -0.4284
 8242SOL    HW332741   3.174   1.352   1.733  0.3077 -0.5926  1.5144
 8242SOL    MW432742   3.216   1.427   1.715  0.5612 -0.2050  0.3669
 8243SOL     OW32743   5.516   1.642   1.115  1.1200 -0.0073 -0.2332
 8243SOL    HW232744   5.495   1.607   1.202  0.2826  0.1980 -0.3507
 8243SOL    HW332745   5.433   1.671   1.080  1.4286 -0.2266 -1.1753
 8243SOL    MW432746   5.502   1.641   1.122 -0.0836 -0.4007 -0.0044
 8244SOL     OW32747   2.783   0.930   1.280  0.4678  0.4687 -0.2029
 8244SOL    HW232748   2.744   0.870   1.344 -1.1986  0.2559 -1.3611
 8244SOL    HW332749   2.833   0.873   1.222 -0.3791  0.2891 -0.7710
 8244SOL    MW432750   2.785   0.915   1.281  0.8443 -0.3170 -0.4027
 8245SOL     OW32751   1.996   2.965   1.819 -0.6349 -0.8121  0.8429
 8245SOL    HW232752   2.044   3.035   1.864 -1.1118  1.6653 -2.1187
 8245SOL    HW332753   2.029   2.968   1.729 -3.4523 -1.7342 -0.3383
 8245SOL    MW432754   2.007   2.975   1.813 -0.2879 -0.2782  0.0049
 8246SOL     OW32755   5.280   6.385   1.458  0.0837  0.0651  0.7702
 8246SOL    HW232756   5.223   6.317   1.494  0.4556 -0.1140  1.0271
 8246SOL    HW332757   5.360   6.338   1.433  0.3391  0.4088  0.9421
 8246SOL    MW432758   5.283   6.369   1.459 -0.0910 -0.5364 -0.2063
 8247SOL     OW32759   4.316   5.037   1.126 -0.2217  0.7074  0.0625
 8247SOL    HW232760   4.351   4.956   1.089  2.1041  1.5396  0.2301
 8247SOL    HW332761   4.319   5.023   1.221  0.6652  1.1313  0.1103
 8247SOL    MW432762   4.321   5.025   1.134 -0.2586 -0.1603 -0.2921
 8248SOL     OW32763   5.087   2.243   0.166  0.2265 -0.1387 -0.3379
 8248SOL    HW232764   5.078   2.148   0.165  1.5372 -0.2696 -0.3278
 8248SOL    HW332765   5.001   2.275   0.138 -0.0043 -1.3378 -1.0753
 8248SOL    MW432766   5.074   2.235   0.162  0.8590  0.7714 -0.3686
 8249SOL     OW32767   4.273   1.067   5.828  0.2938 -0.2160  0.6860
 8249SOL    HW232768   4.315   1.100   5.908  1.3808 -0.1440  0.1022
 8249SOL    HW332769   4.330   1.096   5.757 -1.1006  0.4180 -0.1983
 8249SOL    MW432770   4.286   1.075   5.829  0.1898  0.0895 -0.0073
 8250SOL     OW32771   2.468   5.136   0.365 -0.5100 -0.0269  0.0350
 8250SOL    HW232772   2.466   5.231   0.377 -1.1031  0.0161 -0.3655
 8250SOL    HW332773   2.500   5.102   0.449 -0.8141  0.4930  0.3660
 8250SOL    MW432774   2.472   5.144   0.377  0.2709  0.3007  0.1488
 8251SOL     OW32775   2.974   4.605   3.606  0.3722  0.4268 -0.4219
 8251SOL    HW232776   2.971   4.696   3.579  0.7398  0.3663 -0.6760
 8251SOL    HW332777   2.891   4.568   3.577  0.0815  0.7614 -0.0164
 8251SOL    MW432778   2.963   4.612   3.599 -0.2059  0.2341  0.5193
 8252SOL     OW32779   1.223   5.155   0.881  0.7270  0.5854 -0.0429
 8252SOL    HW232780   1.179   5.104   0.949 -1.0323 -0.9094 -2.1613
 8252SOL    HW332781   1.182   5.126   0.799  2.4784  2.5613 -1.7299
 8252SOL    MW432782   1.211   5.145   0.879  0.2060 -0.1330  0.3425
 8253SOL     OW32783   5.367   1.336   1.753 -0.3425 -0.2234  0.0018
 8253SOL    HW232784   5.429   1.410   1.754  0.1358 -0.5670 -1.3618
 8253SOL    HW332785   5.352   1.319   1.660  0.5261 -2.6414  0.2388
 8253SOL    MW432786   5.373   1.344   1.741  0.2764  0.6666 -0.2794
 8254SOL     OW32787   4.737   2.423   5.636  0.4151 -0.0438 -0.3915
 8254SOL    HW232788   4.712   2.332   5.619  1.4862  0.0713 -3.1291
 8254SOL    HW332789   4.795   2.419   5.712 -1.3016 -1.3094  0.9315
 8254SOL    MW432790   4.741   2.411   5.644  0.2558 -0.0532  0.3602
 8255SOL     OW32791   0.853   4.365   4.869 -0.1038  0.3523 -0.1667
 8255SOL    HW232792   0.776   4.384   4.815  1.3261  2.3043 -1.6478
 8255SOL    HW332793   0.926   4.364   4.807  1.2719  0.0714  1.4006
 8255SOL    MW432794   0.853   4.367   4.854  0.2171 -0.4983  0.0969
 8256SOL     OW32795   2.933   0.820   2.438  0.0104  0.3230  0.5103
 8256SOL    HW232796   3.006   0.843   2.496  0.3583 -2.4616  1.3435
 8256SOL    HW332797   2.858   0.866   2.473  0.8380  1.0956  1.3078
 8256SOL    MW432798   2.933   0.829   2.450  0.0669  0.2464 -0.2330
 8257SOL     OW32799   2.650   2.060   3.201  0.1122  0.1473  0.3035
 8257SOL    HW232800   2.686   1.990   3.256 -0.2606  0.0192  0.3836
 8257SOL    HW332801   2.588   2.106   3.257 -0.1631  0.1087  0.0335
 8257SOL    MW432802   2.647   2.057   3.216  0.0499  0.2704 -0.3894
 8258SOL     OW32803   5.562   4.933   4.604  0.1119 -0.0037  0.3256
 8258SOL    HW232804   5.506   4.894   4.537  0.3044 -0.0543  0.1968
 8258SOL    HW332805   5.642   4.958   4.558  0.7007 -1.0635  0.7624
 8258SOL    MW432806   5.565   4.931   4.589  0.7815 -0.1448 -0.2234
 8259SOL     OW32807   1.816   0.199   1.784  0.3622  0.5650  0.1005
 8259SOL    HW232808   1.900   0.222   1.823  0.7313  0.1627 -0.4353
 8259SOL    HW332809   1.778   0.134   1.842  1.5232 -1.0492 -0.8786
 8259SOL    MW432810   1.822   0.194   1.797 -0.2278  0.0815  0.6796
 8260SOL     OW32811   3.669   1.570   3.468 -0.2623  0.1367  0.0491
 8260SOL    HW232812   3.634   1.589   3.381  1.6780 -0.1487 -0.8450
 8260SOL    HW332813   3.612   1.619   3.527 -1.7998  0.1365 -1.3305
 8260SOL    MW432814   3.657   1.579   3.464 -0.0091  0.1291 -0.0880
 8261SOL     OW32815   5.040   0.666   0.956  0.1716 -0.0891 -0.3836
 8261SOL    HW232816   5.081   0.581   0.942  0.1794  0.1022 -1.5963
 8261SOL    HW332817   4.947   0.646   0.968  0.0494 -0.2262 -1.4471
 8261SOL    MW432818   5.033   0.652   0.956  0.0915  0.5483 -0.5845
 8262SOL     OW32819   1.949   4.911   5.325 -0.5490  0.0656  0.3264
 8262SOL    HW232820   1.887   4.921   5.397 -0.3945  2.0818  0.2170
 8262SOL    HW332821   2.028   4.875   5.366 -1.2338 -1.0477  0.7200
 8262SOL    MW432822   1.951   4.907   5.340  1.1143 -0.3516  0.6384
 8263SOL     OW32823   5.764   3.489   0.731 -0.0947  0.2914  0.2069
 8263SOL    HW232824   5.814   3.407   0.739 -0.9603 -0.3548 -0.8148
 8263SOL    HW332825   5.747   3.515   0.822  0.0833 -0.7268  0.5455
 8263SOL    MW432826   5.769   3.482   0.744 -0.3868 -0.4090  0.2453
 8264SOL     OW32827   5.594   1.194   0.636 -1.0548  0.3652  0.3070
 8264SOL    HW232828   5.506   1.212   0.669 -1.4428  0.1840 -0.6093
 8264SOL    HW332829   5.630   1.281   0.616 -0.8911  0.4626  0.9904
 8264SOL    MW432830   5.587   1.208   0.637  0.0084  0.1640  0.0159
 8265SOL     OW32831   3.880   5.251   4.013 -0.4839 -0.1733 -0.0594
 8265SOL    HW232832   3.870   5.257   4.108  0.6655  1.3601  0.0023
 8265SOL    HW332833   3.809   5.304   3.978  0.6805  1.5458  0.0625
 8265SOL    MW432834   3.869   5.259   4.021  0.1766 -0.0760 -0.0021
 8266SOL     OW32835   5.909   4.636   6.097 -0.4198  0.1003  0.0553
 8266SOL    HW232836   5.994   4.678   6.093 -0.3363 -0.1052 -0.4844
 8266SOL    HW332837   5.855   4.694   6.150  0.8656 -1.2303  3.0490
 8266SOL    MW432838   5.913   4.649   6.103 -0.5144 -0.1092 -0.0805
 8267SOL     OW32839   4.486   1.858   1.789 -0.0790 -0.3083 -0.3482
 8267SOL    HW232840   4.513   1.783   1.842 -0.7172 -0.9018 -0.8431
 8267SOL    HW332841   4.556   1.922   1.801  0.6609 -1.1236 -0.2083
 8267SOL    MW432842   4.499   1.857   1.798 -0.7206 -0.1625  0.7984
 8268SOL     OW32843   3.757   5.358   4.485  0.1541 -0.7474 -0.4592
 8268SOL    HW232844   3.689   5.336   4.550  0.0696 -1.8990 -0.9125
 8268SOL    HW332845   3.719   5.430   4.434 -1.1867 -2.0489 -1.3686
 8268SOL    MW432846   3.743   5.365   4.487 -0.2589  0.1309 -0.0234
 8269SOL     OW32847   6.260   5.748   1.996  0.3214 -0.1223 -0.2935
 8269SOL    HW232848   6.170   5.722   1.975 -0.2697  0.5040  1.3136
 8269SOL    HW332849   6.270   5.833   1.953  0.3978 -0.5102 -1.0585
 8269SOL    MW432850   6.249   5.756   1.987 -0.2189  0.0259  0.5423
 8270SOL     OW32851   2.726   5.283   1.620  0.6081  0.0702 -0.7488
 8270SOL    HW232852   2.741   5.284   1.525  0.3429  0.2110 -0.7887
 8270SOL    HW332853   2.665   5.211   1.634 -1.7741  1.9285 -1.0536
 8270SOL    MW432854   2.720   5.274   1.609  0.5858 -0.3163 -0.6288
 8271SOL     OW32855   5.964   3.602   5.209 -0.3429  0.0776 -0.0293
 8271SOL    HW232856   6.022   3.659   5.259  0.6820 -0.8616 -0.0965
 8271SOL    HW332857   6.021   3.562   5.143 -1.0309 -0.9710 -0.0140
 8271SOL    MW432858   5.979   3.604   5.207  0.2342  0.1246  0.1298
 8272SOL     OW32859   2.584   6.258   2.719  0.3938 -0.1667 -0.3021
 8272SOL    HW232860   2.510   6.198   2.727  0.6199 -0.4024  0.1022
 8272SOL    HW332861   2.556   6.337   2.764 -0.8640  1.0010 -2.9719
 8272SOL    MW432862   2.571   6.260   2.726 -0.2520 -0.7605 -0.5867
 8273SOL     OW32863   0.378   5.594   2.408  0.2585  0.2679 -0.7262
 8273SOL    HW232864   0.329   5.617   2.329  1.4939  0.1027 -1.5629
 8273SOL    HW332865   0.469   5.592   2.380  0.8990  1.7805  1.0511
 8273SOL    MW432866   0.383   5.597   2.394  0.1533  0.3682 -0.0734
 8274SOL     OW32867   1.184   2.228   4.036  0.5236  0.4239  0.0625
 8274SOL    HW232868   1.251   2.270   3.983 -0.6399 -0.2622 -2.1005
 8274SOL    HW332869   1.207   2.135   4.034 -0.7859  0.0758 -1.3219
 8274SOL    MW432870   1.196   2.221   4.029 -0.8335  0.0588  0.6747
 8275SOL     OW32871   0.238   0.320   0.885 -0.2268  0.3320 -0.1996
 8275SOL    HW232872   0.290   0.239   0.879 -1.2950 -0.3887 -0.0426
 8275SOL    HW332873   0.150   0.294   0.858 -0.2159  1.8462 -1.8225
 8275SOL    MW432874   0.233   0.306   0.881 -0.3381  0.3629  0.4269
 8276SOL     OW32875   6.199   0.297   5.110 -0.0988  0.1788 -0.0476
 8276SOL    HW232876   6.238   0.314   5.024 -1.3823 -0.7168 -0.8453
 8276SOL    HW332877   6.206   0.202   5.121  1.6839  0.4568  1.6831
 8276SOL    MW432878   6.205   0.286   5.100  0.2527 -0.9407  0.0311
 8277SOL     OW32879   0.594   4.143   0.021  0.0945 -0.2819  0.4760
 8277SOL    HW232880   0.598   4.076  -0.047 -1.7049 -0.3614  0.3968
 8277SOL    HW332881   0.651   4.109   0.091  0.6116 -1.0178 -0.2792
 8277SOL    MW432882   0.602   4.130   0.022  0.1644 -0.0924 -0.3779
 8278SOL     OW32883   3.377   5.125   2.407 -0.0245  0.0955  0.4887
 8278SOL    HW232884   3.443   5.094   2.345  1.1306  1.6076  0.9019
 8278SOL    HW332885   3.420   5.119   2.492 -0.2713  1.3989  0.7293
 8278SOL    MW432886   3.392   5.120   2.410  0.0211 -0.2109  0.0889
 8279SOL     OW32887   5.966   2.808   2.492 -0.2423  0.1430  0.3508
 8279SOL    HW232888   6.054   2.806   2.454 -0.5623  2.1081 -0.6596
 8279SOL    HW332889   5.917   2.743   2.443  0.1410  0.4946 -0.5272
 8279SOL    MW432890   5.971   2.799   2.481  0.1467  0.4624 -0.0151
 8280SOL     OW32891   0.828   2.057   2.650  0.3662  0.2372 -0.5007
 8280SOL    HW232892   0.738   2.064   2.617  0.7185  1.4572 -1.2885
 8280SOL    HW332893   0.818   2.032   2.742 -0.7385 -0.5215 -0.8022
 8280SOL    MW432894   0.815   2.055   2.658  0.0210 -0.3271 -0.0547
 8281SOL     OW32895   4.796   4.807   5.557  0.0825  0.0247  0.2379
 8281SOL    HW232896   4.846   4.884   5.581 -1.5412  1.3850 -0.5191
 8281SOL    HW332897   4.730   4.839   5.496 -1.3967 -1.7308  0.7958
 8281SOL    MW432898   4.794   4.821   5.552 -0.0832 -0.3016  0.0187
 8282SOL     OW32899   5.437   1.230   6.247 -0.0850 -0.3897 -0.1683
 8282SOL    HW232900   5.361   1.288   6.249  1.2252  1.4240 -0.7162
 8282SOL    HW332901   5.504   1.277   6.297  0.4495 -2.3446  1.0705
 8282SOL    MW432902   5.435   1.244   6.254 -0.2946  0.5327 -0.7022
 8283SOL     OW32903   1.141   3.805   1.029  0.0439 -0.2522  0.3941
 8283SOL    HW232904   1.223   3.796   0.980  1.5349 -0.5592  2.7340
 8283SOL    HW332905   1.095   3.877   0.986  2.4940  1.3118  0.1450
 8283SOL    MW432906   1.146   3.814   1.017  0.4443  0.5836  0.0177
 8284SOL     OW32907   0.432   2.650   5.118 -0.2460  0.0163 -0.1702
 8284SOL    HW232908   0.426   2.569   5.169 -1.0379 -0.2956 -0.7495
 8284SOL    HW332909   0.395   2.717   5.175 -0.1072 -0.1233  0.0876
 8284SOL    MW432910   0.427   2.648   5.132  0.4945  0.0720 -0.0169
 8285SOL     OW32911   0.741   2.162   1.524 -0.3669  0.5337  0.2697
 8285SOL    HW232912   0.774   2.127   1.607 -2.5869  1.3956  1.5989
 8285SOL    HW332913   0.692   2.090   1.485 -1.9552  1.0089  1.2891
 8285SOL    MW432914   0.739   2.148   1.530 -0.5540 -0.3027 -0.1636
 8286SOL     OW32915   2.059   1.209   2.501 -0.0630 -0.1821  0.5377
 8286SOL    HW232916   2.151   1.202   2.523 -0.0158 -0.9955  0.1371
 8286SOL    HW332917   2.057   1.203   2.405 -0.4115  1.3907  0.4086
 8286SOL    MW432918   2.071   1.207   2.491 -1.1934 -0.3359  0.3459
 8287SOL     OW32919   6.074   0.163   3.688 -0.1644  0.2745  0.3424
 8287SOL    HW232920   6.141   0.107   3.648 -2.0607 -0.8478 -1.4365
 8287SOL    HW332921   6.090   0.155   3.782  2.5150  0.5001 -0.0297
 8287SOL    MW432922   6.085   0.154   3.695  0.3686  0.2390 -0.0720
 8288SOL     OW32923   4.212   3.299   1.028 -0.7547  0.5774 -0.1004
 8288SOL    HW232924   4.237   3.228   0.970 -0.4664  0.2896  0.3770
 8288SOL    HW332925   4.168   3.256   1.102 -0.1266  0.8470  0.4357
 8288SOL    MW432926   4.209   3.284   1.030  0.0408 -0.1552 -0.7527
 8289SOL     OW32927   4.790   4.473   5.830 -0.3347  0.1953  0.7229
 8289SOL    HW232928   4.768   4.566   5.833  0.2996  0.3801 -0.0425
 8289SOL    HW332929   4.831   4.455   5.915  0.4009  0.8455  0.5113
 8289SOL    MW432930   4.793   4.483   5.842  0.2728 -0.6938  0.1871
 8290SOL     OW32931   1.380   2.509   2.338 -0.3017  1.0558 -0.1499
 8290SOL    HW232932   1.313   2.452   2.300  1.5074 -0.0297 -1.9183
 8290SOL    HW332933   1.379   2.587   2.283 -0.2311  1.1063 -0.0800
 8290SOL    MW432934   1.371   2.512   2.326 -0.3184  0.5632 -0.3099
 8291SOL     OW32935   4.186   5.930   6.160 -0.1757  0.0858  0.1401
 8291SOL    HW232936   4.112   5.977   6.121 -0.0225  0.0950 -0.1401
 8291SOL    HW332937   4.257   5.994   6.162  0.1198 -0.2151 -0.5048
 8291SOL    MW432938   4.186   5.945   6.155  0.0535  0.1841  0.6074
 8292SOL     OW32939   4.342   1.559   6.017  0.4415 -0.0180 -0.2204
 8292SOL    HW232940   4.402   1.529   6.084  0.1291 -1.3464 -0.5097
 8292SOL    HW332941   4.349   1.655   6.019  0.8206 -0.0613  1.3229
 8292SOL    MW432942   4.351   1.568   6.026  0.3084 -0.4477  0.1350
 8293SOL     OW32943   2.905   4.932   2.141 -0.1535 -0.4309  0.2275
 8293SOL    HW232944   2.960   4.855   2.157  1.0745  0.5335  0.7384
 8293SOL    HW332945   2.835   4.924   2.206  0.0863 -0.9950  0.4295
 8293SOL    MW432946   2.903   4.920   2.151 -0.1491 -0.3234 -0.3311
 8294SOL     OW32947   1.464   3.085   3.297  0.2287  0.7509  0.0460
 8294SOL    HW232948   1.505   3.054   3.216 -0.3703  1.4663 -0.5388
 8294SOL    HW332949   1.538   3.102   3.356  0.7731  1.7508 -0.8968
 8294SOL    MW432950   1.480   3.083   3.294  0.0747 -0.5065 -0.4035
 8295SOL     OW32951   3.419   3.586   1.774 -0.1957  0.2385 -0.2561
 8295SOL    HW232952   3.327   3.563   1.783  0.2771 -1.9274 -0.4691
 8295SOL    HW332953   3.465   3.523   1.829  1.1668  1.4628  0.0715
 8295SOL    MW432954   3.413   3.575   1.782  0.6017  0.3240 -0.2786
 8296SOL     OW32955   5.718   1.319   0.905 -0.0059  0.1137  0.2294
 8296SOL    HW232956   5.747   1.272   0.983 -0.8459  0.8166  0.9897
 8296SOL    HW332957   5.669   1.254   0.855 -1.5552  0.2464  1.4952
 8296SOL    MW432958   5.715   1.304   0.908 -0.4670  0.2951 -0.4071
 8297SOL     OW32959   4.648   4.088   0.044 -0.0070 -0.0347  0.5773
 8297SOL    HW232960   4.646   4.177   0.078  2.5941 -0.5109  2.2137
 8297SOL    HW332961   4.653   4.098  -0.051 -4.1609  1.3833  0.2834
 8297SOL    MW432962   4.648   4.101   0.036  0.5302  0.1094  0.3651
 8298SOL     OW32963   0.691   4.369   2.228  0.3740 -0.0441  0.0014
 8298SOL    HW232964   0.632   4.337   2.160  0.8219 -0.8123 -0.0445
 8298SOL    HW332965   0.689   4.464   2.220  2.4445 -0.0941 -2.9050
 8298SOL    MW432966   0.683   4.377   2.218  0.0043  0.3262 -0.6794
 8299SOL     OW32967   4.141   2.941   1.198  0.0966  0.0022  0.0480
 8299SOL    HW232968   4.232   2.917   1.217 -0.3854 -0.7598  1.5465
 8299SOL    HW332969   4.102   2.860   1.165  0.6696  1.0483 -3.7671
 8299SOL    MW432970   4.148   2.927   1.196  0.1121 -1.1044 -0.2178
 8300SOL     OW32971   2.820   3.126   0.862 -0.5440 -0.0475  0.1516
 8300SOL    HW232972   2.835   3.141   0.956 -2.3256 -1.3752  0.7033
 8300SOL    HW332973   2.810   3.213   0.825  0.1859  0.5035  1.1854
 8300SOL    MW432974   2.821   3.139   0.870 -0.4074 -0.0208  0.4936
 8301SOL     OW32975   0.327   4.936   0.739  0.2516  0.4000  0.6607
 8301SOL    HW232976   0.400   4.881   0.765 -0.1765 -0.5100  0.0140
 8301SOL    HW332977   0.251   4.895   0.781 -0.2813 -0.4167 -1.0239
 8301SOL    MW432978   0.326   4.923   0.748 -0.3370 -0.2831  0.0275
 8302SOL     OW32979   2.835   1.058   1.654 -0.7801  0.2640 -0.2955
 8302SOL    HW232980   2.838   1.135   1.711  0.3485  0.7353 -0.9532
 8302SOL    HW332981   2.876   1.087   1.573 -0.4458 -1.0026 -0.6021
 8302SOL    MW432982   2.841   1.072   1.651 -0.1287  0.0338  0.1349
 8303SOL     OW32983   0.467   5.872   3.376 -0.2328  0.1258 -0.8992
 8303SOL    HW232984   0.543   5.844   3.326  0.1912 -1.5441  0.5659
 8303SOL    HW332985   0.487   5.847   3.466 -2.1572  0.3919 -0.3479
 8303SOL    MW432986   0.479   5.865   3.381 -0.3094 -0.3990 -0.3286
 8304SOL     OW32987   2.973   2.455   1.274  0.8790 -0.3329 -0.2763
 8304SOL    HW232988   3.044   2.510   1.308  1.9971 -0.1010 -2.7427
 8304SOL    HW332989   3.013   2.406   1.202 -1.2760 -0.8189 -1.2300
 8304SOL    MW432990   2.988   2.456   1.269 -0.4137  0.4524  1.0079
 8305SOL     OW32991   2.408   0.286   2.693  0.3199 -0.2422 -0.2280
 8305SOL    HW232992   2.315   0.269   2.710 -0.1087 -0.6611 -2.6799
 8305SOL    HW332993   2.453   0.211   2.731 -0.3624 -0.2757  0.5528
 8305SOL    MW432994   2.402   0.274   2.700 -0.2486 -0.7294 -0.2941
 8306SOL     OW32995   4.336   1.794   3.010  0.1973  0.4331  0.4480
 8306SOL    HW232996   4.334   1.732   2.936  1.9826  0.6547  0.1679
 8306SOL    HW332997   4.380   1.871   2.975 -3.2607  2.6013  0.3301
 8306SOL    MW432998   4.341   1.796   2.995  0.3108  0.6055 -0.0751
 8307SOL     OW32999   0.364   5.402   5.037  0.3699  0.2233  0.4056
 8307SOL    HW233000   0.400   5.491   5.040 -1.1338  0.8462  1.8336
 8307SOL    HW333001   0.441   5.346   5.025  1.2052  1.7465 -2.3755
 8307SOL    MW433002   0.379   5.407   5.036  0.6698  0.5379 -0.1633
 8308SOL     OW33003   2.071   0.547   1.308 -0.7508 -0.1103  0.0553
 8308SOL    HW233004   2.140   0.499   1.352 -1.1531 -0.2398  0.5560
 8308SOL    HW333005   2.050   0.495   1.230  1.5738  1.2808 -1.6138
 8308SOL    MW433006   2.077   0.534   1.303 -0.3306 -0.5224 -0.2855
 8309SOL     OW33007   3.188   6.265   5.088  0.4657  0.0724 -0.0995
 8309SOL    HW233008   3.093   6.278   5.091  0.3866 -0.2293 -1.0589
 8309SOL    HW333009   3.225   6.353   5.090  0.1009  0.2683 -1.3624
 8309SOL    MW433010   3.180   6.278   5.089 -0.2323  1.0724 -0.5549
 8310SOL     OW33011   1.730   2.501   0.937  0.4310 -0.1577  0.1777
 8310SOL    HW233012   1.773   2.430   0.889 -0.3074 -0.6036  0.1771
 8310SOL    HW333013   1.640   2.500   0.906  0.0999 -0.0439  1.1298
 8310SOL    MW433014   1.724   2.492   0.926  0.0339  0.0315 -0.1734
 8311SOL     OW33015   1.301   4.003   2.479  0.6351  0.0320 -0.0006
 8311SOL    HW233016   1.356   3.938   2.524  1.4604  1.3449  0.9580
 8311SOL    HW333017   1.283   4.069   2.546  1.2617  1.6686 -1.3724
 8311SOL    MW433018   1.306   4.003   2.494 -0.3523  0.0353  0.4212
 8312SOL     OW33019   5.286   4.220   1.048 -0.1345  0.8263 -0.2851
 8312SOL    HW233020   5.327   4.202   1.133 -1.5175 -0.7867  0.0900
 8312SOL    HW333021   5.355   4.264   0.998  1.8769 -1.1636  0.5361
 8312SOL    MW433022   5.301   4.223   1.053 -0.3108  0.2189  0.0799
 8313SOL     OW33023   3.636   5.241   0.050 -0.3846  0.8551  0.2395
 8313SOL    HW233024   3.658   5.295  -0.026 -1.6858 -0.9125 -1.4859
 8313SOL    HW333025   3.555   5.196   0.025  0.0175 -0.9921  2.0336
 8313SOL    MW433026   3.628   5.242   0.037  0.5029 -0.7131  0.5369
 8314SOL     OW33027   0.589   0.941   6.084 -0.2122 -0.3898 -0.0124
 8314SOL    HW233028   0.508   0.983   6.055  0.4385  1.0377  0.1516
 8314SOL    HW333029   0.585   0.853   6.046 -3.5818 -1.7873  3.0861
 8314SOL    MW433030   0.578   0.935   6.075 -0.4513 -0.1184 -0.8941
 8315SOL     OW33031   5.300   2.722   6.100 -0.4284 -0.1623  0.7008
 8315SOL    HW233032   5.276   2.739   6.191  1.1215 -0.5116  1.2071
 8315SOL    HW333033   5.268   2.798   6.052 -0.7591  0.2976  1.6289
 8315SOL    MW433034   5.293   2.734   6.106 -0.2065 -0.6780  1.0360
 8316SOL     OW33035   4.121   4.206   1.833  0.0969 -0.1558  0.6114
 8316SOL    HW233036   4.031   4.175   1.847 -0.3782  1.2530  0.8564
 8316SOL    HW333037   4.166   4.186   1.915 -0.2676  0.0181  0.8566
 8316SOL    MW433038   4.115   4.199   1.846  0.2874  0.0437 -0.7304
 8317SOL     OW33039   3.033   5.399   0.646  0.2934  0.4731 -0.5256
 8317SOL    HW233040   2.941   5.395   0.619 -0.0987  1.9411  0.5058
 8317SOL    HW333041   3.082   5.404   0.564 -0.3719 -2.1434 -1.1890
 8317SOL    MW433042   3.027   5.399   0.632  0.6173 -0.5396 -0.3529
 8318SOL     OW33043   3.281   4.899   3.137 -0.3014 -0.0958 -0.3418
 8318SOL    HW233044   3.230   4.830   3.095 -0.2287  0.7565 -1.8871
 8318SOL    HW333045   3.329   4.854   3.207 -1.1948 -1.3755 -0.5231
 8318SOL    MW433046   3.281   4.884   3.141  0.5865  0.2810  0.2098
 8319SOL     OW33047   1.716   1.360   1.596  0.1828 -0.3740  0.9110
 8319SOL    HW233048   1.627   1.329   1.578  0.0324  0.1956  0.6549
 8319SOL    HW333049   1.772   1.305   1.541  0.0454 -1.0759  1.4469
 8319SOL    MW433050   1.711   1.349   1.587 -0.1611 -0.1170  0.4671
 8320SOL     OW33051   5.068   5.415   3.904 -0.0208 -0.1968 -0.2498
 8320SOL    HW233052   5.033   5.401   3.816 -1.6722  0.9403  0.1858
 8320SOL    HW333053   4.991   5.422   3.960  0.9819 -2.4143  1.5850
 8320SOL    MW433054   5.053   5.414   3.899  0.4285 -0.9025  0.1848
 8321SOL     OW33055   3.566   2.828   2.235  1.2756 -0.2686  0.7117
 8321SOL    HW233056   3.584   2.744   2.194 -0.3319 -0.3130  0.0232
 8321SOL    HW333057   3.646   2.880   2.220  1.4171 -0.9010 -0.8812
 8321SOL    MW433058   3.579   2.824   2.228 -0.1752 -0.4395  0.0897
 8322SOL     OW33059   6.093   2.592   3.937 -0.7971  0.4840 -0.0745
 8322SOL    HW233060   6.167   2.619   3.883  0.0309 -0.6941  0.4316
 8322SOL    HW333061   6.031   2.553   3.875 -0.4290  0.3295 -0.3502
 8322SOL    MW433062   6.095   2.590   3.922 -0.8783  0.9000 -0.1279
 8323SOL     OW33063   2.755   3.150   4.587  0.1743 -0.0382 -0.2730
 8323SOL    HW233064   2.842   3.183   4.610  0.2731  0.1745 -0.9264
 8323SOL    HW333065   2.699   3.228   4.588  0.1325 -0.0637 -0.5017
 8323SOL    MW433066   2.759   3.165   4.590  0.2904  0.0124 -0.0322
 8324SOL     OW33067   1.212   4.132   0.509 -0.4318 -0.7244 -0.0632
 8324SOL    HW233068   1.284   4.170   0.560 -1.0570 -0.9095  0.9697
 8324SOL    HW333069   1.253   4.107   0.426  0.2735  1.0071 -0.2887
 8324SOL    MW433070   1.227   4.134   0.505  0.2835  0.2275  0.4435
 8325SOL     OW33071   6.316   1.711   0.906  0.2598 -0.7421  0.4118
 8325SOL    HW233072   6.239   1.742   0.954 -0.8399 -2.0524 -0.4290
 8325SOL    HW333073   6.337   1.783   0.846 -0.0670 -0.2056  0.9329
 8325SOL    MW433074   6.309   1.725   0.904 -0.0894 -0.4026 -0.5491
 8326SOL     OW33075   2.447   4.205   5.464  0.3969  0.4611  0.8260
 8326SOL    HW233076   2.456   4.175   5.555 -0.7092  0.2977  0.8967
 8326SOL    HW333077   2.385   4.144   5.425  0.3878  0.9075  0.1217
 8326SOL    MW433078   2.440   4.193   5.471  0.1993  0.4945 -0.1965
 8327SOL     OW33079   3.353   4.558   1.499  0.0144  0.7173 -0.2707
 8327SOL    HW233080   3.319   4.562   1.409  1.3054  1.0352 -0.7555
 8327SOL    HW333081   3.439   4.517   1.490  0.1648  0.7794  0.8286
 8327SOL    MW433082   3.360   4.553   1.486  0.3167  0.3257  0.3535
 8328SOL     OW33083   0.519   5.741   5.813 -0.2443  0.1211  0.8590
 8328SOL    HW233084   0.434   5.717   5.850 -0.2340 -1.9529 -0.3180
 8328SOL    HW333085   0.529   5.686   5.736  1.2582  1.8498 -0.2749
 8328SOL    MW433086   0.509   5.731   5.808 -0.1845  0.1114  0.2586
 8329SOL     OW33087   0.754   5.462   0.538 -0.3781 -0.9449 -0.4288
 8329SOL    HW233088   0.739   5.371   0.563 -1.4956 -0.7168 -0.2032
 8329SOL    HW333089   0.760   5.510   0.621 -2.7207 -0.3940 -0.5105
 8329SOL    MW433090   0.753   5.457   0.552  0.4028 -0.1867  0.3590
 8330SOL     OW33091   3.343   0.008   0.645  0.1907 -0.0669 -0.1708
 8330SOL    HW233092   3.278   0.078   0.646 -0.5512 -0.7264 -0.7454
 8330SOL    HW333093   3.292  -0.072   0.661  0.7312 -0.6937 -1.4816
 8330SOL    MW433094   3.328   0.007   0.647  0.8263  0.3451 -0.6494
 8331SOL     OW33095   3.174   2.334   6.261 -0.3645  0.5554  0.5967
 8331SOL    HW233096   3.179   2.302   6.171  1.0729  0.2009  0.7714
 8331SOL    HW333097   3.156   2.427   6.252  0.7457  0.7192 -0.1080
 8331SOL    MW433098   3.172   2.342   6.248  0.8878  0.1654 -0.1576
 8332SOL     OW33099   4.796   0.714   2.937  0.0704 -0.0566  0.2781
 8332SOL    HW233100   4.828   0.722   3.026  1.7776  0.8501 -0.3722
 8332SOL    HW333101   4.783   0.619   2.925  1.4921 -0.3653  0.9470
 8332SOL    MW433102   4.798   0.702   2.947 -0.1715  0.4817 -0.0223
 8333SOL     OW33103   6.259   4.806   5.638 -0.3714  0.2694 -0.5565
 8333SOL    HW233104   6.333   4.788   5.580  0.0862  0.9466 -0.1899
 8333SOL    HW333105   6.185   4.821   5.578 -0.3180 -0.8184 -0.9125
 8333SOL    MW433106   6.259   4.806   5.622  0.3266  0.0048 -0.4243
 8334SOL     OW33107   5.916   5.296   1.516  0.3783 -0.2381  0.0199
 8334SOL    HW233108   5.882   5.285   1.604  2.6765  3.1054  1.5604
 8334SOL    HW333109   6.004   5.259   1.519  1.3258  1.8293 -0.0458
 8334SOL    MW433110   5.923   5.290   1.528 -0.2991 -0.4847  0.0197
 8335SOL     OW33111   5.019   6.276   1.258 -0.1244 -0.0090 -0.0324
 8335SOL    HW233112   5.080   6.341   1.223  0.3608 -0.8711 -0.8460
 8335SOL    HW333113   4.954   6.264   1.189 -0.8441  0.3982  0.5565
 8335SOL    MW433114   5.019   6.283   1.244  0.0076 -0.0398 -0.4619
 8336SOL     OW33115   3.292   3.141   1.300 -0.2620 -1.0999  0.2231
 8336SOL    HW233116   3.329   3.124   1.214  0.2812  0.6929  0.0559
 8336SOL    HW333117   3.211   3.189   1.283  1.3450  2.0685  0.6307
 8336SOL    MW433118   3.286   3.145   1.287  0.4233  0.0168 -0.2587
 8337SOL     OW33119   1.263   3.056   1.321 -0.1007  0.2515 -0.4104
 8337SOL    HW233120   1.227   2.967   1.319 -1.5288  0.7609  1.0319
 8337SOL    HW333121   1.187   3.113   1.322  0.7871  1.4732  0.0697
 8337SOL    MW433122   1.248   3.051   1.321  0.1649 -0.3210 -0.0840
 8338SOL     OW33123   4.096   6.247   6.401 -0.4805 -0.4880 -0.4086
 8338SOL    HW233124   4.031   6.232   6.332 -0.2054  0.0925 -0.8040
 8338SOL    HW333125   4.124   6.337   6.388 -0.0631 -0.5307  0.1635
 8338SOL    MW433126   4.091   6.257   6.390  0.1164 -0.0628 -0.1865
 8339SOL     OW33127   4.262   2.239   1.519 -0.0526 -0.0683  0.5703
 8339SOL    HW233128   4.170   2.262   1.512 -0.1052 -0.2630  0.6135
 8339SOL    HW333129   4.296   2.295   1.589 -0.8416 -2.0856  2.7032
 8339SOL    MW433130   4.254   2.249   1.527  0.4753  0.0697 -0.6069
 8340SOL     OW33131   5.350   1.053   1.848 -0.0683 -0.3613  0.0747
 8340SOL    HW233132   5.364   1.143   1.819 -0.0012  0.1924  1.7321
 8340SOL    HW333133   5.256   1.048   1.868 -0.4773 -1.2524 -1.8048
 8340SOL    MW433134   5.339   1.064   1.847 -0.8355 -0.3033  0.3861
 8341SOL     OW33135   5.860   3.723   2.317 -0.1001 -0.0154 -0.1303
 8341SOL    HW233136   5.814   3.717   2.233  0.8239  1.2950 -0.7494
 8341SOL    HW333137   5.851   3.814   2.344 -0.3798 -0.4106  1.2172
 8341SOL    MW433138   5.853   3.734   2.310 -0.1871  0.0416 -0.1297
 8342SOL     OW33139   4.330   1.283   5.340  0.6725 -0.4357 -0.1526
 8342SOL    HW233140   4.312   1.313   5.251 -2.7323 -2.4343 -0.2923
 8342SOL    HW333141   4.341   1.188   5.332  0.7492 -0.5980  1.4969
 8342SOL    MW433142   4.329   1.275   5.327 -0.1296  0.6152  0.0160
 8343SOL     OW33143   4.813   0.729   5.567  0.6398 -0.2272 -0.2240
 8343SOL    HW233144   4.883   0.779   5.610 -0.0285  1.1344 -0.6590
 8343SOL    HW333145   4.747   0.718   5.636  0.9517 -0.8571 -0.0218
 8343SOL    MW433146   4.813   0.734   5.582 -0.3058  0.3234 -0.3770
 8344SOL     OW33147   0.923   0.152   4.653 -0.1793  0.1948  0.4942
 8344SOL    HW233148   0.883   0.237   4.638 -0.4943  0.1521  1.0840
 8344SOL    HW333149   0.851   0.095   4.678  0.2000  0.0485  1.2873
 8344SOL    MW433150   0.908   0.156   4.654  0.1466 -0.9801 -0.2359
 8345SOL     OW33151   3.057   0.128   4.210  0.1820 -0.0544  0.0822
 8345SOL    HW233152   3.075   0.062   4.144  0.3188  1.0990 -1.0667
 8345SOL    HW333153   3.096   0.209   4.176  1.0812  0.3919  1.9953
 8345SOL    MW433154   3.065   0.130   4.197 -0.0160 -0.7694 -0.2740
 8346SOL     OW33155   3.484   1.012   0.799  0.5260  0.5298  0.5469
 8346SOL    HW233156   3.429   1.090   0.789  0.4125  0.4761  0.7415
 8346SOL    HW333157   3.557   1.040   0.854  0.2863  0.4046  0.9361
 8346SOL    MW433158   3.486   1.026   0.805 -0.2036 -0.4348 -0.2341
 8347SOL     OW33159   5.568   5.949   4.314  0.0323 -0.4444  0.3340
 8347SOL    HW233160   5.521   6.023   4.352 -0.7198 -0.9287  0.3625
 8347SOL    HW333161   5.504   5.907   4.255  0.6688 -0.6534 -0.2182
 8347SOL    MW433162   5.553   5.953   4.311 -0.3857  0.5995  0.1421
 8348SOL     OW33163   5.303   2.240   0.529 -0.0099  0.3350 -0.2881
 8348SOL    HW233164   5.210   2.257   0.540 -0.0110 -0.6923  1.6081
 8348SOL    HW333165   5.307   2.163   0.472 -0.3291  0.1146 -0.0107
 8348SOL    MW433166   5.291   2.232   0.523  0.5788  0.7141 -0.5835
 8349SOL     OW33167   1.142   2.664   1.964  0.6802  0.2861  0.6316
 8349SOL    HW233168   1.134   2.760   1.967  0.8589  0.2836  1.4372
 8349SOL    HW333169   1.216   2.647   1.907  1.4008  0.6753  1.4375
 8349SOL    MW433170   1.150   2.674   1.957  0.1841 -0.6135  0.1831
 8350SOL     OW33171   4.974   0.687   2.354 -0.6083 -0.0458 -0.5507
 8350SOL    HW233172   4.913   0.722   2.419 -0.4130 -0.6722 -0.0275
 8350SOL    HW333173   4.957   0.593   2.354  1.8237 -0.5593  1.1619
 8350SOL    MW433174   4.964   0.679   2.362 -0.7396 -0.4742 -0.1021
 8351SOL     OW33175   4.333   1.654   3.474  0.3390 -0.5582 -0.0418
 8351SOL    HW233176   4.411   1.647   3.530  0.3139  0.2883  0.1205
 8351SOL    HW333177   4.282   1.576   3.495  1.0085 -0.9827  0.0603
 8351SOL    MW433178   4.337   1.643   3.484  0.3324  0.5542 -0.1429
 8352SOL     OW33179   4.260   1.159   3.854 -0.1148 -0.2176  0.1131
 8352SOL    HW233180   4.291   1.105   3.926  0.8095  1.2693  0.8693
 8352SOL    HW333181   4.170   1.128   3.838  0.7666 -2.7849 -0.3384
 8352SOL    MW433182   4.252   1.147   3.861 -0.6614 -0.0703  0.2972
 8353SOL     OW33183   0.114   5.986   1.565  0.0928  0.2780 -0.1579
 8353SOL    HW233184   0.125   5.933   1.643 -1.4711  1.2785  0.7906
 8353SOL    HW333185   0.101   5.923   1.494 -0.4186 -0.6113  0.7089
 8353SOL    MW433186   0.114   5.971   1.566 -0.2721  0.4904  0.0962
 8354SOL     OW33187   1.066   2.307   3.214 -0.3747 -0.3944  0.3951
 8354SOL    HW233188   0.976   2.328   3.240 -1.9359 -1.6480 -3.3192
 8354SOL    HW333189   1.068   2.211   3.212  0.3902 -0.3746 -1.3586
 8354SOL    MW433190   1.054   2.297   3.217 -0.3172 -0.7278 -0.2609
 8355SOL     OW33191   4.522   5.364   3.170 -0.0512 -0.7350  0.3586
 8355SOL    HW233192   4.523   5.272   3.196  1.5630 -0.8606 -0.0579
 8355SOL    HW333193   4.459   5.405   3.230  2.1019 -1.3449  3.2916
 8355SOL    MW433194   4.513   5.357   3.182 -0.2707 -0.0820 -0.0898
 8356SOL     OW33195   5.527   6.054   0.649  0.3263 -0.0550  0.2139
 8356SOL    HW233196   5.543   5.981   0.709 -1.1216 -1.2015 -0.6923
 8356SOL    HW333197   5.610   6.066   0.602  1.1847  0.2430  1.7502
 8356SOL    MW433198   5.540   6.046   0.651 -0.2328 -0.6686 -0.2749
 8357SOL     OW33199   4.777   6.069   3.667  0.1830 -0.1574  0.1627
 8357SOL    HW233200   4.734   6.098   3.747 -0.3989 -0.9934  0.1676
 8357SOL    HW333201   4.755   6.135   3.601 -1.9209 -1.0327 -0.0789
 8357SOL    MW433202   4.768   6.082   3.669  0.1905  0.3766 -0.2243
 8358SOL     OW33203   2.882   2.751   0.499  0.0369  0.1587 -0.8939
 8358SOL    HW233204   2.837   2.742   0.414 -3.5723  1.3805  0.6740
 8358SOL    HW333205   2.821   2.712   0.562  0.5679  3.0371  1.6177
 8358SOL    MW433206   2.868   2.745   0.496  0.3231 -0.0436  0.1420
 8359SOL     OW33207   5.488   4.595   3.586 -0.0697  0.6052 -0.1595
 8359SOL    HW233208   5.437   4.523   3.550 -0.9707  0.7047  0.8644
 8359SOL    HW333209   5.504   4.653   3.511 -2.1837  0.9829 -0.3823
 8359SOL    MW433210   5.483   4.593   3.571 -0.2256  0.7647  0.4987
 8360SOL     OW33211   4.615   5.139   1.208 -0.2546 -0.1833 -0.3735
 8360SOL    HW233212   4.584   5.124   1.118 -0.5761  0.4661 -0.3729
 8360SOL    HW333213   4.681   5.208   1.199 -0.8258  0.4195 -0.0194
 8360SOL    MW433214   4.620   5.146   1.195 -0.7236 -0.3734 -0.1373
 8361SOL     OW33215   3.238   1.737   6.253  0.8119  0.3308  0.0997
 8361SOL    HW233216   3.202   1.653   6.225  2.6829 -0.0037 -1.4674
 8361SOL    HW333217   3.287   1.769   6.177  1.5174  2.0469  1.2213
 8361SOL    MW433218   3.240   1.730   6.239  0.1900 -0.3692  0.2503
 8362SOL     OW33219   1.083   0.327   4.031 -0.1206 -0.3257  0.4448
 8362SOL    HW233220   1.118   0.251   4.077  3.1534  0.6175 -0.1755
 8362SOL    HW333221   1.035   0.290   3.957 -0.9712 -1.7537  1.6371
 8362SOL    MW433222   1.081   0.312   4.027  0.8369 -0.0355  0.6664
 8363SOL     OW33223   1.333   3.420   3.526  0.3194 -0.1479 -0.3223
 8363SOL    HW233224   1.413   3.389   3.484  0.1442 -1.3592  0.1886
 8363SOL    HW333225   1.341   3.391   3.617 -0.1582  0.7858  0.0262
 8363SOL    MW433226   1.344   3.412   3.532 -0.6351 -0.0712  0.1081
 8364SOL     OW33227   1.824  -0.006   2.924  0.0716  0.0330 -0.0828
 8364SOL    HW233228   1.874  -0.031   2.847  1.2981  0.3857  0.5648
 8364SOL    HW333229   1.840  -0.077   2.987 -1.1785 -0.4157 -0.2382
 8364SOL    MW433230   1.833  -0.019   2.922  0.0954  0.0798 -0.4035
 8365SOL     OW33231   4.231   5.283   4.158 -0.0091  0.4705 -0.2216
 8365SOL    HW233232   4.318   5.323   4.160  0.6208 -0.8479  0.0956
 8365SOL    HW333233   4.214   5.269   4.065  0.3528  0.2515 -0.2584
 8365SOL    MW433234   4.241   5.286   4.146 -0.2470 -0.2227 -0.2284
 8366SOL     OW33235   6.257   2.726   5.825  0.2696  0.8508  0.0881
 8366SOL    HW233236   6.216   2.646   5.857 -0.3328  0.6068 -1.2026
 8366SOL    HW333237   6.277   2.776   5.904 -0.3826 -0.0673  0.8673
 8366SOL    MW433238   6.254   2.722   5.839  0.1641  0.0867  0.7828
 8367SOL     OW33239   0.289   2.823   2.007 -0.2634 -0.3055  0.1312
 8367SOL    HW233240   0.378   2.836   2.041 -1.0257  0.5064  2.0013
 8367SOL    HW333241   0.257   2.912   1.991 -0.3335 -0.6334 -1.8056
 8367SOL    MW433242   0.297   2.837   2.010 -0.0897  0.4442 -0.2702
 8368SOL     OW33243   2.247   4.004   0.584  0.2226 -0.1655  0.0773
 8368SOL    HW233244   2.255   3.978   0.676  1.0075  1.3207  0.4457
 8368SOL    HW333245   2.155   4.031   0.574  0.2440  0.0772  0.5335
 8368SOL    MW433246   2.236   4.004   0.595  0.0328 -0.1211 -0.2506
 8369SOL     OW33247   0.228   3.613   1.121  0.4786  0.2044 -0.2630
 8369SOL    HW233248   0.295   3.680   1.135  0.4678  0.0026  0.7772
 8369SOL    HW333249   0.277   3.534   1.101  0.5268  0.1962 -0.1082
 8369SOL    MW433250   0.243   3.612   1.120  0.3696  0.0311 -0.5235
 8370SOL     OW33251   6.217   1.214   2.354 -0.6935 -0.2211 -0.2008
 8370SOL    HW233252   6.274   1.234   2.429  0.3153  1.6214 -1.3685
 8370SOL    HW333253   6.174   1.132   2.377  2.1534 -1.5283  0.9561
 8370SOL    MW433254   6.219   1.206   2.367 -0.2433 -0.9915 -0.6179
 8371SOL     OW33255   4.591   4.697   1.447  0.8482 -0.5910 -0.4776
 8371SOL    HW233256   4.663   4.746   1.407  0.4588  1.0625  0.7033
 8371SOL    HW333257   4.569   4.748   1.526 -0.1945 -2.2269  0.3371
 8371SOL    MW433258   4.598   4.710   1.452 -0.1671 -0.1300 -0.2203
 8372SOL     OW33259   4.488   0.232   0.997 -0.3970  0.0012  0.0711
 8372SOL    HW233260   4.488   0.149   0.950 -0.2227  0.0738 -0.0582
 8372SOL    HW333261   4.428   0.218   1.070  0.1846 -0.4836  0.4709
 8372SOL    MW433262   4.480   0.219   1.001 -0.7090  0.1548 -0.2357
 8373SOL     OW33263   0.386   5.276   5.337 -0.0379  0.0884 -0.3290
 8373SOL    HW233264   0.296   5.273   5.370  0.0784 -0.2590 -0.0398
 8373SOL    HW333265   0.401   5.368   5.316 -0.8735 -0.0245 -1.5215
 8373SOL    MW433266   0.376   5.288   5.339  0.6214  0.5532  0.1093
 8374SOL     OW33267   2.568   5.913   5.294 -0.0330  0.0112  0.3059
 8374SOL    HW233268   2.657   5.910   5.328 -0.3060 -1.4141  0.9893
 8374SOL    HW333269   2.528   5.988   5.338  0.9879  1.0896 -0.5179
 8374SOL    MW433270   2.574   5.923   5.304  0.5652  0.0245 -0.2050
 8375SOL     OW33271   5.993   0.762   1.061  0.5799 -0.0912  0.1997
 8375SOL    HW233272   5.914   0.742   1.011  1.4756 -1.1710 -0.8440
 8375SOL    HW333273   6.062   0.770   0.995  1.5896 -0.4346  1.1801
 8375SOL    MW433274   5.992   0.760   1.046 -0.1907  0.4340  0.0018
 8376SOL     OW33275   5.380   3.665   0.813 -0.0766  0.0288 -0.5268
 8376SOL    HW233276   5.405   3.573   0.817 -2.8071 -0.8416 -1.1788
 8376SOL    HW333277   5.397   3.690   0.722  0.4825  0.1093 -0.4002
 8376SOL    MW433278   5.385   3.656   0.802  0.2319 -0.0571 -0.3289
 8377SOL     OW33279   3.533   0.000   1.918 -0.3390 -0.0207 -0.2301
 8377SOL    HW233280   3.449  -0.032   1.952 -0.6409  0.6494 -0.3177
 8377SOL    HW333281   3.509   0.053   1.842  0.3689 -2.0662 -1.9721
 8377SOL    MW433282   3.519   0.003   1.913  0.0993  0.1898  0.3062
 8378SOL     OW33283   3.067   5.329   5.718 -0.1017  0.2312  0.3502
 8378SOL    HW233284   3.135   5.330   5.651 -0.9070  0.2359 -0.4961
 8378SOL    HW333285   3.022   5.413   5.706 -1.1279 -0.3567 -0.0455
 8378SOL    MW433286   3.070   5.340   5.708  0.1014  0.0856 -0.5553
 8379SOL     OW33287   2.951   1.217   3.638 -0.1760  0.3005  0.2432
 8379SOL    HW233288   3.020   1.160   3.671  0.0901  1.5545  1.9674
 8379SOL    HW333289   2.903   1.162   3.576  0.9860 -1.2974  0.6780
 8379SOL    MW433290   2.954   1.202   3.634 -0.1536  0.5869 -0.9304
 8380SOL     OW33291   2.478   4.662   0.491 -0.1328  0.1513  0.0776
 8380SOL    HW233292   2.437   4.591   0.540  0.0357 -1.0570 -1.4377
 8380SOL    HW333293   2.432   4.741   0.519  0.2054 -0.3920  2.4135
 8380SOL    MW433294   2.467   4.663   0.501 -0.0286  0.2300 -0.1514
 8381SOL     OW33295   0.575   2.779   1.504  0.3449  0.1240  0.3188
 8381SOL    HW233296   0.645   2.825   1.458  0.7975  0.2166  1.0943
 8381SOL    HW333297   0.545   2.840   1.570  0.0602 -0.2122  0.5064
 8381SOL    MW433298   0.580   2.793   1.506  0.2198  0.5731 -0.3273
 8382SOL     OW33299   5.482  -0.003   6.237  0.2451  0.4772  0.2050
 8382SOL    HW233300   5.482   0.088   6.210 -0.8094  0.1822 -0.8825
 8382SOL    HW333301   5.441  -0.050   6.164 -2.0811 -0.4642  1.9792
 8382SOL    MW433302   5.477   0.003   6.224 -0.2004 -0.9784  0.3647
 8383SOL     OW33303   4.518   2.624   4.425 -0.2641  0.5089  0.6221
 8383SOL    HW233304   4.512   2.694   4.360 -2.2768 -0.0239  0.1435
 8383SOL    HW333305   4.612   2.605   4.432  0.3654  3.3156  0.8985
 8383SOL    MW433306   4.530   2.631   4.417  0.2812 -0.3908  0.4026
 8384SOL     OW33307   2.236   1.077   1.626 -0.6531  0.1677 -0.3856
 8384SOL    HW233308   2.149   1.040   1.615  0.2177 -1.3461 -3.2135
 8384SOL    HW333309   2.296   1.008   1.598  1.3635  1.7832 -0.3575
 8384SOL    MW433310   2.232   1.063   1.621  0.0490  0.0900 -0.6203
 8385SOL     OW33311   6.400   4.558   4.272 -0.0719  0.2446 -0.2995
 8385SOL    HW233312   6.466   4.589   4.210  0.2886  0.2715  0.0932
 8385SOL    HW333313   6.435   4.476   4.306  1.6443  2.0621  2.7454
 8385SOL    MW433314   6.413   4.552   4.268  0.0770 -0.6313  0.0653
 8386SOL     OW33315   0.427   2.405   3.446 -0.1014  0.4601 -0.2089
 8386SOL    HW233316   0.418   2.399   3.541 -0.0262 -1.1452 -0.2696
 8386SOL    HW333317   0.503   2.351   3.425  0.0216  0.9771 -1.1615
 8386SOL    MW433318   0.436   2.397   3.456 -0.4429 -0.0777  1.1590
 8387SOL     OW33319   5.942   2.833   0.608  0.3572  0.2585  0.3231
 8387SOL    HW233320   5.917   2.747   0.576 -1.6094  0.2850  1.6344
 8387SOL    HW333321   6.018   2.817   0.664 -0.6718 -0.8080  1.4564
 8387SOL    MW433322   5.949   2.820   0.611  0.3505  0.4143 -0.0411
 8388SOL     OW33323   3.753   0.506   2.420 -0.3351 -0.5584  0.1904
 8388SOL    HW233324   3.688   0.541   2.359 -0.0985  0.5253  0.5390
 8388SOL    HW333325   3.818   0.463   2.364  0.1648  0.8945 -0.3769
 8388SOL    MW433326   3.753   0.505   2.404 -0.5078 -0.3868 -0.6770
 8389SOL     OW33327   2.839   1.160   0.194 -0.3480  0.4084  0.2280
 8389SOL    HW233328   2.862   1.174   0.102  0.0559  0.0892  0.2769
 8389SOL    HW333329   2.856   1.244   0.237  0.2020  0.3414  0.1533
 8389SOL    MW433330   2.844   1.173   0.188 -0.0502 -0.3555  0.1764
 8390SOL     OW33331   1.208   3.688   0.153 -0.0586  0.2539  0.1937
 8390SOL    HW233332   1.114   3.687   0.168 -0.0629 -0.6916  0.1495
 8390SOL    HW333333   1.220   3.746   0.078 -0.5549  0.6822  0.4347
 8390SOL    MW433334   1.197   3.696   0.145  0.2258  0.1127 -0.2476
 8391SOL     OW33335   3.481   0.423   5.084 -0.1370  0.4738 -0.0228
 8391SOL    HW233336   3.544   0.411   5.155  0.8453  1.9053 -0.6164
 8391SOL    HW333337   3.398   0.391   5.120  0.2100  1.6844  1.9967
 8391SOL    MW433338   3.478   0.418   5.098 -0.1793 -0.2432 -0.0589
 8392SOL     OW33339   5.139   5.100   6.271 -0.3118 -0.3507  0.3184
 8392SOL    HW233340   5.121   5.155   6.347  1.7272 -0.2555  0.7814
 8392SOL    HW333341   5.193   5.028   6.306  2.5224  0.8465 -1.3268
 8392SOL    MW433342   5.144   5.098   6.286  0.4621  0.5688 -0.4877
 8393SOL     OW33343   3.505   0.671   0.424 -0.5472  0.3899  0.4460
 8393SOL    HW233344   3.440   0.662   0.355  0.0644 -0.8148 -0.0072
 8393SOL    HW333345   3.531   0.763   0.422  0.2506  0.1773 -1.6784
 8393SOL    MW433346   3.500   0.682   0.415 -0.0568 -0.5951  0.3049
 8394SOL     OW33347   1.382   1.695   0.959  0.5214 -0.0077  0.1319
 8394SOL    HW233348   1.402   1.610   0.998  2.9440 -0.9102 -2.6504
 8394SOL    HW333349   1.287   1.696   0.950  0.4387 -2.6239 -0.0937
 8394SOL    MW433350   1.372   1.684   0.963  0.1171 -0.6440 -0.4634
 8395SOL     OW33351   5.539   1.540   1.699  0.0115 -0.0584  0.3577
 8395SOL    HW233352   5.616   1.497   1.662  0.8852 -0.5173  2.5430
 8395SOL    HW333353   5.570   1.627   1.724  0.6287 -1.0301  3.4501
 8395SOL    MW433354   5.553   1.546   1.697 -0.0331 -0.2582  0.5566
 8396SOL     OW33355   3.838   0.096   6.148  0.2680 -0.0323  0.4101
 8396SOL    HW233356   3.845   0.084   6.243  1.5883 -0.4449  0.2757
 8396SOL    HW333357   3.796   0.016   6.117 -0.5052  0.2577  0.6663
 8396SOL    MW433358   3.833   0.084   6.157  0.1891  0.4016  0.2805
 8397SOL     OW33359   2.598   1.970   5.346 -0.0349  0.1456 -0.5868
 8397SOL    HW233360   2.654   1.943   5.273  0.9718 -1.7034  0.7963
 8397SOL    HW333361   2.509   1.959   5.312  0.4136 -0.5808 -1.5898
 8397SOL    MW433362   2.593   1.965   5.332 -0.2316 -0.4301  0.7120
 8398SOL     OW33363   2.196   1.342   2.078 -0.2336  0.0454  0.0198
 8398SOL    HW233364   2.290   1.349   2.098 -0.1376  0.4226 -0.5439
 8398SOL    HW333365   2.187   1.385   1.993 -0.5050 -2.1091 -1.1166
 8398SOL    MW433366   2.207   1.349   2.069  0.1358 -0.0001 -0.3647
 8399SOL     OW33367   5.216  -0.003   0.259  0.3321  0.9791  0.2290
 8399SOL    HW233368   5.285   0.049   0.218  1.0448 -0.6253 -0.6996
 8399SOL    HW333369   5.149  -0.013   0.192  1.3381 -1.3464 -0.5439
 8399SOL    MW433370   5.217   0.002   0.245 -0.2019 -0.2933 -0.1196
 8400SOL     OW33371   0.650   1.755   3.036  0.1522  0.1911 -0.2384
 8400SOL    HW233372   0.664   1.761   2.941  0.2358  0.5223 -0.2075
 8400SOL    HW333373   0.652   1.661   3.055 -0.9807  0.0637 -0.7222
 8400SOL    MW433374   0.652   1.743   3.026  1.0193 -0.0244  0.3762
 8401SOL     OW33375   3.376   2.227   0.752  0.1585 -0.8450 -0.0654
 8401SOL    HW233376   3.425   2.233   0.670 -0.4415  0.7628 -0.3337
 8401SOL    HW333377   3.286   2.249   0.728 -0.2575 -1.4624  0.8444
 8401SOL    MW433378   3.370   2.231   0.738 -0.1021 -0.1132  0.3961
 8402SOL     OW33379   1.694   5.086   0.535  0.0836  0.1632  0.2816
 8402SOL    HW233380   1.739   5.157   0.490 -0.7241  0.5988  0.1500
 8402SOL    HW333381   1.602   5.097   0.512 -0.3022  0.1697  1.7075
 8402SOL    MW433382   1.688   5.097   0.526  0.3307  0.8336  0.6475
 8403SOL     OW33383   4.716   2.317   1.127 -0.1527 -0.0523  0.1155
 8403SOL    HW233384   4.788   2.326   1.189 -0.8939 -0.4956  1.0895
 8403SOL    HW333385   4.664   2.397   1.139 -1.4416 -1.0487  1.6584
 8403SOL    MW433386   4.718   2.329   1.137  0.2944  0.7160 -0.0279
 8404SOL     OW33387   4.031   0.812   5.621  0.2522 -0.6818  0.0653
 8404SOL    HW233388   3.946   0.836   5.585  0.2667  0.1258  0.5256
 8404SOL    HW333389   4.026   0.840   5.712  1.2257 -0.0594 -0.0633
 8404SOL    MW433390   4.019   0.819   5.628 -0.7885 -0.0532 -0.0754
 8405SOL     OW33391   1.495   4.192   3.200 -0.0405  0.3114 -0.7508
 8405SOL    HW233392   1.469   4.201   3.292 -0.9275 -1.4429 -0.7949
 8405SOL    HW333393   1.531   4.278   3.177  0.9197  0.5568  1.4447
 8405SOL    MW433394   1.496   4.204   3.209 -0.3021 -0.4542 -0.4494
 8406SOL     OW33395   0.005   0.666   6.048  0.7167 -0.8793 -0.0462
 8406SOL    HW233396   0.007   0.750   6.001  0.2470 -0.7240  0.2074
 8406SOL    HW333397   0.096   0.652   6.074  1.3717 -1.8771 -2.5421
 8406SOL    MW433398   0.018   0.675   6.045  0.2982 -0.8041  0.2610
 8407SOL     OW33399   0.335   3.901   5.504  0.5420  0.0934 -0.4325
 8407SOL    HW233400   0.279   3.898   5.582  0.8310 -1.5193 -0.2500
 8407SOL    HW333401   0.424   3.903   5.539  0.6588  0.2747 -0.7355
 8407SOL    MW433402   0.339   3.901   5.519 -0.2796  0.0614 -0.4392
 8408SOL     OW33403   4.018   6.055   2.421  0.2336  0.2554  0.1871
 8408SOL    HW233404   4.098   6.073   2.372  1.1589 -1.1185  1.1111
 8408SOL    HW333405   4.023   6.113   2.497  0.8166 -0.4473  0.6990
 8408SOL    MW433406   4.029   6.065   2.425  0.5453  0.6630  0.3878
 8409SOL     OW33407   1.460   3.128   5.791  0.0846  0.1503  0.0527
 8409SOL    HW233408   1.507   3.048   5.765  1.7077  0.3519  2.0540
 8409SOL    HW333409   1.413   3.103   5.871 -0.2101  0.9375  0.1289
 8409SOL    MW433410   1.460   3.114   5.799 -0.0957 -0.6274  0.0956
 8410SOL     OW33411   3.706   4.046   3.856 -0.0638  0.6318 -0.3461
 8410SOL    HW233412   3.729   3.962   3.815  2.2096  2.1708 -2.5491
 8410SOL    HW333413   3.742   4.040   3.945 -1.0360 -1.1184 -0.0190
 8410SOL    MW433414   3.714   4.034   3.862 -0.0975 -0.7872 -0.2994
 8411SOL     OW33415   1.207   5.154   3.304  0.0927  0.2649  0.2313
 8411SOL    HW233416   1.169   5.234   3.341  0.7701  0.4861  0.4509
 8411SOL    HW333417   1.187   5.087   3.369 -2.8506 -0.3543 -1.1454
 8411SOL    MW433418   1.199   5.156   3.318 -0.1839  0.4706 -0.2879
 8412SOL     OW33419   1.251   3.892   1.261  0.1335 -0.2420  0.5731
 8412SOL    HW233420   1.216   3.853   1.341  0.4347 -0.2304  0.7097
 8412SOL    HW333421   1.201   3.851   1.190  0.1813 -0.5870  0.7398
 8412SOL    MW433422   1.240   3.882   1.262 -0.7047 -0.5078  0.8998
 8413SOL     OW33423   2.078   1.190   0.456  0.1275 -1.0605 -0.3464
 8413SOL    HW233424   2.053   1.253   0.523 -1.7619 -2.2754  0.1796
 8413SOL    HW333425   2.122   1.120   0.505 -0.2223 -1.4101 -0.5297
 8413SOL    MW433426   2.080   1.189   0.472  0.0433  1.1983 -0.2404
 8414SOL     OW33427   5.186   0.616   4.928 -0.2622  0.5388 -0.2837
 8414SOL    HW233428   5.103   0.612   4.881 -0.2654 -1.6237 -0.1949
 8414SOL    HW333429   5.161   0.635   5.018 -0.7239 -0.5860 -0.1620
 8414SOL    MW433430   5.172   0.618   4.934 -0.0386  0.3835 -0.3219
 8415SOL     OW33431   2.454   2.755   5.837 -0.5523  0.1092  0.0737
 8415SOL    HW233432   2.368   2.714   5.830 -1.3608  1.1093  2.7965
 8415SOL    HW333433   2.486   2.760   5.747 -2.4566 -2.0736 -0.8191
 8415SOL    MW433434   2.447   2.750   5.824 -0.0344  0.1892 -0.3304
 8416SOL     OW33435   3.084   2.842   5.297  0.4245 -0.0517  0.2494
 8416SOL    HW233436   3.130   2.802   5.370 -1.0152 -1.7683  0.2604
 8416SOL    HW333437   3.023   2.775   5.266 -1.3941  1.7766 -0.3853
 8416SOL    MW433438   3.082   2.828   5.302 -0.3902 -0.6092 -0.3598
 8417SOL     OW33439   1.577   5.593   6.418  0.0651  0.0585 -0.3928
 8417SOL    HW233440   1.618   5.508   6.407  0.4615  0.1503  0.3137
 8417SOL    HW333441   1.639   5.643   6.471 -0.0227  0.8893 -1.0535
 8417SOL    MW433442   1.590   5.589   6.424 -0.5587 -0.0222  0.7741
 8418SOL     OW33443   6.280   5.037   5.779  0.0986  0.1417 -0.4288
 8418SOL    HW233444   6.357   5.088   5.754  0.5475 -0.9200 -1.3263
 8418SOL    HW333445   6.286   4.957   5.726 -1.6662  0.0661 -0.5725
 8418SOL    MW433446   6.291   5.033   5.769  0.4671  0.1687  0.0660
 8419SOL     OW33447   3.741   0.350   4.756  0.7861 -0.3840 -0.0205
 8419SOL    HW233448   3.752   0.300   4.837 -1.2316 -0.3080  0.3623
 8419SOL    HW333449   3.810   0.417   4.760  2.7808 -2.3374  0.0252
 8419SOL    MW433450   3.752   0.352   4.768 -0.5472  0.1599  0.5116
 8420SOL     OW33451   2.402   5.049   4.105 -0.5643  0.3933  0.2590
 8420SOL    HW233452   2.342   4.975   4.116  0.4410 -0.2904  1.3432
 8420SOL    HW333453   2.434   5.068   4.193  0.4940  1.0148 -0.2330
 8420SOL    MW433454   2.398   5.042   4.118  0.1086  0.2954  0.2098
 8421SOL     OW33455   3.601   3.867   0.842 -0.1238 -0.3722  0.8348
 8421SOL    HW233456   3.570   3.931   0.906  1.0098 -0.1271  1.1644
 8421SOL    HW333457   3.692   3.851   0.866  0.3527 -0.2367 -0.7517
 8421SOL    MW433458   3.609   3.873   0.854  0.0543 -0.5546  0.0103
 8422SOL     OW33459   2.623   1.361   6.199  0.3169  0.1869  0.2379
 8422SOL    HW233460   2.582   1.421   6.261  0.7192 -0.4792  1.1765
 8422SOL    HW333461   2.621   1.276   6.243  2.8596  0.1617  0.4218
 8422SOL    MW433462   2.617   1.357   6.213 -0.3689  0.1569 -0.0717
 8423SOL     OW33463   6.331   5.590   6.045 -0.4490  0.1318 -0.8420
 8423SOL    HW233464   6.385   5.620   6.118 -0.3842  0.9198 -1.2017
 8423SOL    HW333465   6.274   5.665   6.025 -1.3496 -0.5178 -0.7808
 8423SOL    MW433466   6.330   5.604   6.052  0.2913 -0.1402 -0.1327
 8424SOL     OW33467   5.191   1.371   6.291  0.4864 -0.0815  0.0297
 8424SOL    HW233468   5.131   1.401   6.223  1.1628 -0.3521 -0.7048
 8424SOL    HW333469   5.185   1.437   6.359  2.5262  2.2541 -1.8541
 8424SOL    MW433470   5.182   1.383   6.291  0.0024 -0.2598 -0.3665
 8425SOL     OW33471   3.127   1.171   6.338  0.2578 -0.1554  0.3643
 8425SOL    HW233472   3.164   1.084   6.355 -0.2092 -0.7950 -1.6724
 8425SOL    HW333473   3.200   1.231   6.357  0.6548 -0.9690  1.5729
 8425SOL    MW433474   3.142   1.168   6.343  0.0803 -0.5568 -0.2470
 8426SOL     OW33475   5.212   4.623   2.529  0.1167  0.0092 -0.1168
 8426SOL    HW233476   5.196   4.631   2.623 -1.5333 -0.2618 -0.3565
 8426SOL    HW333477   5.283   4.685   2.512  1.2889 -0.8123  1.5014
 8426SOL    MW433478   5.219   4.632   2.539  0.1110  0.7697  0.1620
 8427SOL     OW33479   3.884   5.439   2.559  0.0248  0.2397 -0.1182
 8427SOL    HW233480   3.954   5.476   2.505  0.5928 -1.2924 -0.5103
 8427SOL    HW333481   3.807   5.439   2.502  0.1136  0.4602 -0.2394
 8427SOL    MW433482   3.884   5.444   2.544  0.1718 -0.0174  0.2889
 8428SOL     OW33483   2.558   3.015   4.761 -0.3237 -0.1540  0.0968
 8428SOL    HW233484   2.526   2.930   4.790  0.4843 -0.4632  0.0882
 8428SOL    HW333485   2.546   3.014   4.666  0.9292 -0.7992 -0.0726
 8428SOL    MW433486   2.552   3.004   4.753  0.0693 -0.0375 -0.1330
 8429SOL     OW33487   4.969   4.394   6.052  0.2384  0.0832 -0.1460
 8429SOL    HW233488   5.041   4.457   6.044  0.9179 -0.5234  0.8886
 8429SOL    HW333489   5.012   4.308   6.047 -0.4866 -0.2922 -0.0744
 8429SOL    MW433490   4.984   4.391   6.050  0.3205  0.2970  0.5198
 8430SOL     OW33491   0.631   5.942   6.026  0.3670  0.1726  0.1335
 8430SOL    HW233492   0.690   6.002   6.071  0.9890 -0.3048 -0.0230
 8430SOL    HW333493   0.645   5.961   5.933  1.9694 -1.4372 -0.0235
 8430SOL    MW433494   0.641   5.952   6.020  0.3916 -0.0828 -0.1690
 8431SOL     OW33495   4.296   1.529   0.027  0.0158  0.1546 -0.3420
 8431SOL    HW233496   4.283   1.484  -0.057  0.2477 -0.7829  0.1078
 8431SOL    HW333497   4.209   1.563   0.048 -0.3401 -0.6901 -0.3712
 8431SOL    MW433498   4.283   1.527   0.018 -0.2382  0.7948 -0.6599
 8432SOL     OW33499   4.666   5.379   5.356  0.1758 -0.2284 -0.2075
 8432SOL    HW233500   4.748   5.385   5.307  0.0476  1.3658 -0.2652
 8432SOL    HW333501   4.648   5.468   5.386 -0.4924 -0.8888  1.5523
 8432SOL    MW433502   4.674   5.392   5.354 -0.2637  0.0110 -0.4289
 8433SOL     OW33503   3.179   1.063   0.614 -0.3796 -0.6774  0.7365
 8433SOL    HW233504   3.203   0.995   0.676 -1.7634 -1.7995  0.0893
 8433SOL    HW333505   3.149   1.136   0.668  0.4109 -0.8336  1.4085
 8433SOL    MW433506   3.179   1.064   0.629 -0.2756  0.0834  0.3806
 8434SOL     OW33507   3.625   3.829   3.033 -0.3970  0.5364  0.8650
 8434SOL    HW233508   3.572   3.753   3.057 -0.5252  0.7759  1.3527
 8434SOL    HW333509   3.647   3.870   3.117  1.2086  0.0055  0.7337
 8434SOL    MW433510   3.621   3.825   3.047 -0.1824 -0.2107  0.1344
 8435SOL     OW33511   4.676   2.319   5.105  0.2791 -0.1233 -0.2161
 8435SOL    HW233512   4.680   2.415   5.102 -0.3664 -0.0939 -2.7742
 8435SOL    HW333513   4.605   2.297   5.044 -0.6495 -2.2111  1.4980
 8435SOL    MW433514   4.667   2.329   5.096  0.5181  0.6259  0.0151
 8436SOL     OW33515   5.368   4.757   4.928  0.7374  0.0165 -0.7787
 8436SOL    HW233516   5.386   4.845   4.960 -0.5533  0.5105 -1.3333
 8436SOL    HW333517   5.281   4.764   4.888  0.8620 -1.3768 -1.3308
 8436SOL    MW433518   5.359   4.770   4.927  0.2876 -0.0334 -0.1438
 8437SOL     OW33519   0.356   1.629   4.475 -0.0219  0.6182  0.2646
 8437SOL    HW233520   0.416   1.685   4.524  2.1273 -0.0208 -1.4989
 8437SOL    HW333521   0.313   1.687   4.413 -1.2287  1.0522  1.4455
 8437SOL    MW433522   0.358   1.644   4.473  0.4209 -0.4668 -0.0162
 8438SOL     OW33523   4.132   6.215   0.581 -0.1664 -0.3605 -0.5802
 8438SOL    HW233524   4.126   6.148   0.649  2.2694 -0.1168 -0.0460
 8438SOL    HW333525   4.226   6.222   0.563 -0.2110  3.4145 -0.0876
 8438SOL    MW433526   4.144   6.207   0.588 -0.1862  0.5620 -0.1675
 8439SOL     OW33527   0.101   3.231   5.118  0.7567  0.3940  0.0447
 8439SOL    HW233528   0.118   3.288   5.193 -1.6220  1.0945  0.1306
 8439SOL    HW333529   0.125   3.284   5.042 -1.1261  1.4875  0.1394
 8439SOL    MW433530   0.107   3.246   5.118 -0.0369 -0.4377  0.0860
 8440SOL     OW33531   3.524   3.939   0.581  0.1806  0.3353 -0.0836
 8440SOL    HW233532   3.556   3.867   0.526  2.3684  1.7830 -0.8535
 8440SOL    HW333533   3.561   3.921   0.667 -0.1685 -0.0140 -0.0054
 8440SOL    MW433534   3.533   3.927   0.585  0.1780  0.3518 -0.2432
 8441SOL     OW33535   5.807   4.028   2.041 -0.0280 -0.1189  0.4674
 8441SOL    HW233536   5.756   4.103   2.070  1.6735  1.1226  0.3845
 8441SOL    HW333537   5.828   4.047   1.949 -0.1661 -1.0474  0.2271
 8441SOL    MW433538   5.803   4.040   2.033  0.4822  0.4809 -0.3795
 8442SOL     OW33539   0.747   5.430   2.555 -0.0132  0.2176 -0.1254
 8442SOL    HW233540   0.796   5.348   2.558 -0.6247 -0.2034 -0.9965
 8442SOL    HW333541   0.728   5.451   2.646  1.8547  0.4591  0.2567
 8442SOL    MW433542   0.751   5.422   2.567 -0.1661  0.6690  0.3096
 8443SOL     OW33543   6.389   1.851   2.866  0.2707  0.6074 -0.2154
 8443SOL    HW233544   6.341   1.781   2.910 -0.0113  0.0698 -1.3359
 8443SOL    HW333545   6.460   1.874   2.927 -1.1071  1.1106  1.2726
 8443SOL    MW433546   6.392   1.845   2.880  0.0721 -0.6938  0.3226
 8444SOL     OW33547   5.610   4.253   4.893  0.4060  0.3461 -0.2201
 8444SOL    HW233548   5.579   4.293   4.974 -0.9386 -1.6574  0.3219
 8444SOL    HW333549   5.672   4.186   4.921  0.4762  0.1158 -0.9023
 8444SOL    MW433550   5.614   4.249   4.907 -0.1775  0.6260  0.0517
 8445SOL     OW33551   3.475   2.916   5.465 -0.0000 -0.4358 -0.4008
 8445SOL    HW233552   3.455   2.912   5.558 -0.1922 -1.8512 -0.4701
 8445SOL    HW333553   3.541   2.848   5.451 -1.1835 -1.4386 -1.5365
 8445SOL    MW433554   3.481   2.906   5.475  0.3785  0.1895  0.3053
 8446SOL     OW33555   0.071   1.577   6.426 -0.3627  0.2022  0.1763
 8446SOL    HW233556  -0.019   1.549   6.443  0.0399 -2.7148 -1.6400
 8446SOL    HW333557   0.099   1.522   6.352  3.6094 -0.6176  2.0118
 8446SOL    MW433558   0.063   1.566   6.418 -0.3824 -0.1284  0.3286
 8447SOL     OW33559   4.183   5.280   0.062 -0.1013  0.7054  0.7370
 8447SOL    HW233560   4.172   5.202   0.007 -0.1557  1.1772  0.0642
 8447SOL    HW333561   4.103   5.284   0.114  0.0923  0.0701  1.0884
 8447SOL    MW433562   4.171   5.270   0.062 -0.1762  0.0947  0.3933
 8448SOL     OW33563   4.140   4.577   3.850 -0.8263 -0.1290 -0.0971
 8448SOL    HW233564   4.230   4.610   3.856 -0.4887 -0.7162 -1.6196
 8448SOL    HW333565   4.096   4.638   3.791 -1.0267 -0.6677 -0.5128
 8448SOL    MW433566   4.146   4.590   3.843  0.2608  0.1275  0.4332
 8449SOL     OW33567   0.880   5.026   0.676 -0.4765 -0.1614 -0.0551
 8449SOL    HW233568   0.818   4.962   0.711 -1.6326  2.2714  2.7688
 8449SOL    HW333569   0.966   4.984   0.684 -1.2950 -1.7683  0.5795
 8449SOL    MW433570   0.883   5.012   0.682 -0.8435  0.2259  0.5470
 8450SOL     OW33571   6.072   1.229   4.580  0.2584 -0.1948  0.1150
 8450SOL    HW233572   6.154   1.277   4.596  0.5681 -0.6263 -0.1507
 8450SOL    HW333573   6.048   1.194   4.665  0.2420  0.1045  0.2344
 8450SOL    MW433574   6.080   1.231   4.593  0.2562 -0.5216  0.9092
 8451SOL     OW33575   5.054  -0.002   0.495  0.6063  0.3264 -0.1798
 8451SOL    HW233576   5.031  -0.087   0.533 -0.7640  0.2748 -1.0611
 8451SOL    HW333577   5.110  -0.024   0.421  0.6955  0.2281 -0.0838
 8451SOL    MW433578   5.058  -0.016   0.490 -0.1615 -0.6215  0.1164
 8452SOL     OW33579   2.176   2.072   0.392  0.2763 -0.4743  0.7141
 8452SOL    HW233580   2.261   2.062   0.435  0.5714  3.8496  1.5705
 8452SOL    HW333581   2.113   2.058   0.463  0.3429 -1.4948  0.5856
 8452SOL    MW433582   2.179   2.069   0.407  0.0274 -0.7887  0.4363
 8453SOL     OW33583   3.496   3.427   0.326 -0.5451 -0.0368 -0.3081
 8453SOL    HW233584   3.589   3.446   0.310 -0.7385  0.4716 -0.8802
 8453SOL    HW333585   3.473   3.481   0.401 -0.6550  0.7084 -0.8648
 8453SOL    MW433586   3.505   3.436   0.334  0.4063  0.3845  0.0395
 8454SOL     OW33587   1.408   5.150   4.611  0.4404  0.3306 -0.3424
 8454SOL    HW233588   1.348   5.092   4.565 -0.6758 -0.1407  1.5682
 8454SOL    HW333589   1.370   5.159   4.699  2.9860  0.3289  0.8502
 8454SOL    MW433590   1.395   5.144   4.617 -0.3053 -1.0989 -0.4147
 8455SOL     OW33591   3.744   5.423   1.418 -0.1747 -0.7516  0.1105
 8455SOL    HW233592   3.654   5.448   1.438  0.6599  1.7327  1.1066
 8455SOL    HW333593   3.760   5.457   1.330  0.2189  0.0970  0.5043
 8455SOL    MW433594   3.735   5.431   1.409 -0.1070  0.2384 -0.0454
 8456SOL     OW33595   2.399   4.839   1.663  0.3981 -0.0922  0.0985
 8456SOL    HW233596   2.387   4.792   1.745 -0.9087 -0.2319 -0.1505
 8456SOL    HW333597   2.325   4.812   1.609 -0.6775  2.5787  0.0947
 8456SOL    MW433598   2.387   4.829   1.667  0.5830  0.1679  0.0468
 8457SOL     OW33599   1.839   0.023   2.433  0.1458  0.0320 -0.3368
 8457SOL    HW233600   1.768  -0.014   2.380 -1.9769  3.4580 -0.1944
 8457SOL    HW333601   1.806   0.019   2.522  0.4980  0.8544 -0.1638
 8457SOL    MW433602   1.825   0.018   2.437  0.1517 -0.5883  0.0917
 8458SOL     OW33603   5.330   1.069   0.029 -0.3271 -0.5182 -0.0811
 8458SOL    HW233604   5.368   1.105  -0.051 -0.3407 -3.6502 -1.6910
 8458SOL    HW333605   5.240   1.101   0.030  0.3971  1.6774  0.1990
 8458SOL    MW433606   5.323   1.078   0.019 -0.2633 -0.5010 -0.1599
 8459SOL     OW33607   2.960   5.533   1.823  0.4489  0.4789 -0.0976
 8459SOL    HW233608   2.914   5.484   1.891  0.4427 -0.1137 -0.5240
 8459SOL    HW333609   3.053   5.520   1.842  0.4465  0.4056 -0.1361
 8459SOL    MW433610   2.967   5.525   1.834 -0.0191 -0.2510 -0.0475
 8460SOL     OW33611   0.225   4.196   5.532 -0.3420 -0.2017 -0.0323
 8460SOL    HW233612   0.172   4.159   5.603 -1.1078 -1.3491 -1.1595
 8460SOL    HW333613   0.301   4.139   5.527 -0.6930 -0.6284 -0.6551
 8460SOL    MW433614   0.228   4.184   5.541  0.3528 -0.3873  0.0881
 8461SOL     OW33615   4.500   4.085   1.708 -0.2817  0.1982  0.4601
 8461SOL    HW233616   4.557   4.033   1.764  0.2485  0.7848  0.4738
 8461SOL    HW333617   4.474   4.159   1.762  0.9322  1.2259 -0.3195
 8461SOL    MW433618   4.504   4.088   1.722 -0.1610 -0.0202 -0.3328
 8462SOL     OW33619   2.197   1.842   4.096 -0.0301  0.0306  0.1930
 8462SOL    HW233620   2.237   1.836   4.009  0.6072  0.1497  0.4715
 8462SOL    HW333621   2.203   1.753   4.131 -0.2879 -0.0174  0.1203
 8462SOL    MW433622   2.203   1.830   4.089  0.5539  0.2957 -0.5671
 8463SOL     OW33623   1.086   6.133   4.947  0.1078  0.0354  1.5064
 8463SOL    HW233624   1.050   6.209   4.993 -0.9166 -0.1548  1.0524
 8463SOL    HW333625   1.022   6.115   4.878  1.0583 -0.3564  0.6975
 8463SOL    MW433626   1.073   6.141   4.944  0.1584  0.4586  0.1049
 8464SOL     OW33627   4.567   2.845   5.505  0.3161 -0.2299 -0.3263
 8464SOL    HW233628   4.651   2.824   5.546 -0.7077 -3.2945  0.4046
 8464SOL    HW333629   4.506   2.781   5.540 -2.7651  2.7426  0.2849
 8464SOL    MW433630   4.570   2.834   5.515 -0.0087  0.4296  0.0509
 8465SOL     OW33631   2.443   3.039   5.745  0.5334  0.6760  0.1991
 8465SOL    HW233632   2.446   2.956   5.792 -0.8532 -0.0142 -0.8427
 8465SOL    HW333633   2.394   3.098   5.802 -0.4978  0.0666 -0.0273
 8465SOL    MW433634   2.437   3.035   5.758 -0.0748 -0.6345  0.1060
 8466SOL     OW33635   3.187   5.312   3.689  0.6626  0.0044 -0.7461
 8466SOL    HW233636   3.183   5.295   3.783 -2.2604  1.2939 -0.5220
 8466SOL    HW333637   3.212   5.404   3.683 -1.7501  0.7087 -1.0228
 8466SOL    MW433638   3.190   5.322   3.700 -0.0462  0.1709  0.3554
 8467SOL     OW33639   5.368   2.868   0.250 -0.1415 -0.0370  0.6016
 8467SOL    HW233640   5.296   2.855   0.311  0.4472  2.0334  1.8331
 8467SOL    HW333641   5.420   2.938   0.288  0.2878  1.3762 -2.2833
 8467SOL    MW433642   5.366   2.875   0.263  0.4873 -0.3208 -0.2033
 8468SOL     OW33643   5.948   5.340   0.876  0.7233  0.0652  0.1087
 8468SOL    HW233644   5.901   5.366   0.796 -1.3144  1.8481  1.7376
 8468SOL    HW333645   5.930   5.246   0.884  1.6222 -0.3385 -1.8634
 8468SOL    MW433646   5.939   5.331   0.866  0.6262 -0.1449 -0.7321
 8469SOL     OW33647   0.143   4.908   3.843 -0.3380 -0.1727 -0.1746
 8469SOL    HW233648   0.205   4.841   3.814  0.2907  1.9896 -4.5125
 8469SOL    HW333649   0.058   4.877   3.811 -0.9083 -0.9792  1.9103
 8469SOL    MW433650   0.140   4.895   3.835 -0.0491  0.1507  0.0074
 8470SOL     OW33651   1.747   3.604   5.893  0.4514  0.2426  0.5014
 8470SOL    HW233652   1.705   3.664   5.831  1.6836  1.2981  0.6328
 8470SOL    HW333653   1.805   3.551   5.839 -0.6661 -0.9042  0.3818
 8470SOL    MW433654   1.749   3.605   5.878 -0.0517 -0.0456 -0.6381
 8471SOL     OW33655   3.954   2.263   2.602 -0.0127  0.5444  0.1985
 8471SOL    HW233656   3.900   2.184   2.601  1.0892 -0.2772  1.6205
 8471SOL    HW333657   3.892   2.334   2.623 -0.9625  0.0350 -0.7978
 8471SOL    MW433658   3.939   2.262   2.605  0.4225 -0.0580 -0.0597
 8472SOL     OW33659   4.145   5.217   3.903 -0.4661 -0.2334 -0.3757
 8472SOL    HW233660   4.061   5.250   3.935 -0.5539 -1.2150  0.4776
 8472SOL    HW333661   4.166   5.272   3.828 -0.9898  1.2048  0.4766
 8472SOL    MW433662   4.137   5.229   3.898  0.0512  0.3079  0.3684
 8473SOL     OW33663   1.025   4.459   2.755 -0.0810 -0.5614 -0.0915
 8473SOL    HW233664   1.029   4.447   2.850 -0.2508  0.4321  0.0514
 8473SOL    HW333665   0.931   4.467   2.736  0.0379  1.1484 -0.0735
 8473SOL    MW433666   1.013   4.458   2.765  0.2374 -0.1319  0.4589
 8474SOL     OW33667   5.832   6.187   1.316  0.0968  0.0296 -0.1745
 8474SOL    HW233668   5.770   6.128   1.359  0.6436 -0.8586 -0.5807
 8474SOL    HW333669   5.881   6.131   1.256  0.0250  1.0726 -1.2274
 8474SOL    MW433670   5.830   6.172   1.314 -0.0376  0.1371  0.2410
 8475SOL     OW33671   0.362   5.547   2.693  0.1320 -0.0531  0.1919
 8475SOL    HW233672   0.337   5.533   2.602 -3.6710 -0.7227  1.1361
 8475SOL    HW333673   0.337   5.466   2.737  0.7890  0.6855  2.0117
 8475SOL    MW433674   0.355   5.535   2.687 -0.6677 -0.4138  0.2581
 8476SOL     OW33675   0.213   2.757   3.599  0.0844 -0.7388 -0.0009
 8476SOL    HW233676   0.178   2.846   3.604 -0.1203 -0.8020 -0.3072
 8476SOL    HW333677   0.274   2.752   3.672 -0.9685 -0.8126  0.8969
 8476SOL    MW433678   0.216   2.768   3.609  0.0533  0.5457  0.1888
 8477SOL     OW33679   5.645   0.942   1.931  0.1831  0.4107 -0.1340
 8477SOL    HW233680   5.643   1.015   1.869  0.9843  1.5492  1.1298
 8477SOL    HW333681   5.653   0.864   1.876 -0.6440  1.2586 -1.5204
 8477SOL    MW433682   5.646   0.942   1.916  0.1946  0.7455 -0.1475
 8478SOL     OW33683   1.020   4.234   1.748  0.1074 -0.6667 -0.2453
 8478SOL    HW233684   1.087   4.234   1.817  1.3854 -2.2921 -1.4140
 8478SOL    HW333685   0.975   4.318   1.759  1.1429 -0.2959  1.7095
 8478SOL    MW433686   1.023   4.245   1.759 -0.3569 -0.0504 -0.0965
 8479SOL     OW33687   2.428   4.653   2.116  0.4043 -0.4561 -0.3070
 8479SOL    HW233688   2.422   4.723   2.180  3.9150 -0.6907  0.4590
 8479SOL    HW333689   2.371   4.584   2.151  0.8015  0.1172  1.5768
 8479SOL    MW433690   2.419   4.653   2.129  0.1021  0.1853  0.1205
 8480SOL     OW33691   5.158   4.686   5.728 -0.2541  0.1451 -0.0388
 8480SOL    HW233692   5.146   4.743   5.804  0.5880 -0.1723  0.3510
 8480SOL    HW333693   5.151   4.744   5.653  1.6235  0.9794  0.3828
 8480SOL    MW433694   5.155   4.701   5.728  0.6903 -0.6788  0.1208
 8481SOL     OW33695   3.724   1.694   2.714  0.1095 -0.2899  0.4259
 8481SOL    HW233696   3.785   1.642   2.662  0.6082 -1.0485  1.7203
 8481SOL    HW333697   3.657   1.722   2.652  1.3882 -0.0275 -0.8835
 8481SOL    MW433698   3.723   1.691   2.699 -1.1073 -0.5653 -0.0106
 8482SOL     OW33699   3.297   5.055   6.106  0.4333  1.0332  0.1059
 8482SOL    HW233700   3.252   5.001   6.040  2.6324  0.3725 -0.9682
 8482SOL    HW333701   3.360   4.995   6.146 -0.6237  1.5231  2.6578
 8482SOL    MW433702   3.300   5.040   6.102 -0.3805 -0.8673  0.4212
 8483SOL     OW33703   1.915   3.818   5.610  0.2875  0.0609 -0.0717
 8483SOL    HW233704   1.930   3.874   5.686 -1.6276 -1.0878  1.2649
 8483SOL    HW333705   1.837   3.854   5.568  0.2647 -0.3746 -0.4212
 8483SOL    MW433706   1.906   3.830   5.615  0.0933 -0.2870 -0.4346
 8484SOL     OW33707   1.264   2.677   5.638 -0.1184  0.8419 -0.1287
 8484SOL    HW233708   1.357   2.666   5.623 -0.2424  1.2493 -1.2730
 8484SOL    HW333709   1.258   2.728   5.719  0.5592 -2.0943  1.9149
 8484SOL    MW433710   1.275   2.682   5.647 -0.9509  0.5028  0.0915
 8485SOL     OW33711   1.412   0.066   5.665  0.0967  0.2864 -0.2873
 8485SOL    HW233712   1.354   0.125   5.712  2.9079  2.2386  1.0373
 8485SOL    HW333713   1.468   0.124   5.613  0.2258 -1.5394 -2.3110
 8485SOL    MW433714   1.412   0.081   5.665  0.2000 -0.5227  0.7428
 8486SOL     OW33715   2.541   2.134   5.611  0.3325 -0.0462 -0.0097
 8486SOL    HW233716   2.534   2.229   5.621  3.1196  0.3622 -1.1830
 8486SOL    HW333717   2.523   2.117   5.519  2.1500 -0.3475 -0.3295
 8486SOL    MW433718   2.537   2.144   5.600  0.2818 -0.4761  0.0636
 8487SOL     OW33719   3.106   4.273   3.427  0.3100  0.8058 -0.4070
 8487SOL    HW233720   3.118   4.179   3.431 -0.7110  0.6827  0.0648
 8487SOL    HW333721   3.155   4.307   3.501 -0.6810  0.4746  0.4335
 8487SOL    MW433722   3.114   4.265   3.437  0.1314  0.2544  0.5843
 8488SOL     OW33723   3.140   5.267   1.381 -0.5695 -0.2738 -0.4193
 8488SOL    HW233724   3.132   5.327   1.306 -1.5161 -1.8142 -1.6167
 8488SOL    HW333725   3.077   5.301   1.445 -0.6622  0.3501 -0.8256
 8488SOL    MW433726   3.130   5.280   1.379  0.1013  0.1768 -0.3545
 8489SOL     OW33727   2.182   2.785   3.418 -0.0498 -0.4767 -0.0292
 8489SOL    HW233728   2.227   2.723   3.361 -0.0990 -0.4143 -0.1367
 8489SOL    HW333729   2.112   2.734   3.459 -1.8379  0.0983 -2.1633
 8489SOL    MW433730   2.179   2.770   3.416  0.4557  0.4166 -0.1087
 8490SOL     OW33731   4.617   3.200   5.536 -0.4005  0.0418  0.3435
 8490SOL    HW233732   4.586   3.290   5.529 -0.3406  0.0385  0.0344
 8490SOL    HW333733   4.584   3.170   5.621 -0.9134  0.1657  0.1904
 8490SOL    MW433734   4.608   3.208   5.546  0.4725  0.0053  0.7985
 8491SOL     OW33735   6.308   2.714   0.010  0.1912 -0.0371 -0.4338
 8491SOL    HW233736   6.311   2.748   0.100  1.1327 -0.7144 -0.1846
 8491SOL    HW333737   6.316   2.619   0.021 -2.2759 -0.3652 -1.1184
 8491SOL    MW433738   6.310   2.706   0.024 -0.3252  0.1005  0.2656
 8492SOL     OW33739   4.258   5.855   4.208 -0.0364  0.8628 -0.3031
 8492SOL    HW233740   4.320   5.890   4.143  0.6793  1.0838  0.4802
 8492SOL    HW333741   4.313   5.809   4.271 -0.6946  0.9012  0.3084
 8492SOL    MW433742   4.274   5.853   4.208  0.1036  0.5958  0.8451
 8493SOL     OW33743   5.285   3.083   0.585 -0.7541 -1.0785  0.6218
 8493SOL    HW233744   5.326   2.996   0.587 -3.0074 -2.2016  2.0724
 8493SOL    HW333745   5.340   3.137   0.642  0.7406 -1.4764 -0.3826
 8493SOL    MW433746   5.297   3.078   0.593  0.1522 -0.2730  0.3536
 8494SOL     OW33747   3.816   5.234   4.987  0.0034 -0.3950 -0.2201
 8494SOL    HW233748   3.873   5.311   4.994  0.0986 -0.4936  0.0987
 8494SOL    HW333749   3.856   5.169   5.045  1.0095 -1.3625 -1.9209
 8494SOL    MW433750   3.829   5.236   4.996 -0.5250  0.7266 -0.1808
 8495SOL     OW33751   1.228   0.568   5.262 -0.0921 -0.3432  0.4973
 8495SOL    HW233752   1.247   0.569   5.168 -0.7765 -2.0263  0.3194
 8495SOL    HW333753   1.177   0.648   5.276 -0.3325 -0.2742 -0.6412
 8495SOL    MW433754   1.224   0.579   5.251  0.5081 -0.5737 -0.1611
 8496SOL     OW33755   2.403   3.483   3.121 -0.2508 -0.0347 -0.1030
 8496SOL    HW233756   2.393   3.389   3.105  0.3691 -0.0341 -0.5433
 8496SOL    HW333757   2.409   3.522   3.033 -0.6096  0.4303  0.0734
 8496SOL    MW433758   2.403   3.476   3.107  0.0629  0.1611 -0.2521
 8497SOL     OW33759   5.086   1.932   6.328 -0.2521 -0.2018  0.3950
 8497SOL    HW233760   5.061   2.012   6.281  0.2689  0.0011  0.4516
 8497SOL    HW333761   5.064   1.950   6.419  3.4119  1.5018  1.1497
 8497SOL    MW433762   5.080   1.945   6.334 -0.2779 -0.3071  0.2997
 8498SOL     OW33763   5.182   0.659   6.126 -0.0924 -0.2689 -0.0977
 8498SOL    HW233764   5.155   0.730   6.184  1.1099  0.6224 -0.5981
 8498SOL    HW333765   5.134   0.583   6.159 -0.0171  0.3610  1.6024
 8498SOL    MW433766   5.172   0.658   6.138  0.4170  0.3338  0.1475
 8499SOL     OW33767   2.753   4.908   4.153  0.0017  0.0417  0.2920
 8499SOL    HW233768   2.815   4.909   4.080 -0.9992  2.4267 -0.6438
 8499SOL    HW333769   2.720   4.818   4.156 -0.0355 -0.0945 -2.3386
 8499SOL    MW433770   2.757   4.896   4.144  0.8755 -0.2300  0.1616
 8500SOL     OW33771   1.308   5.885   1.214 -0.1356 -0.4287  0.0811
 8500SOL    HW233772   1.373   5.820   1.237 -0.3313 -1.2606 -1.5924
 8500SOL    HW333773   1.224   5.843   1.234 -0.2308  0.2349  1.2117
 8500SOL    MW433774   1.305   5.871   1.220 -0.5196  0.3852 -0.1629
 8501SOL     OW33775   0.523   4.830   6.106  0.2725  0.2354  0.1525
 8501SOL    HW233776   0.595   4.882   6.143  1.1070 -0.0825 -0.9558
 8501SOL    HW333777   0.512   4.864   6.017 -2.1082  1.4021  0.8173
 8501SOL    MW433778   0.531   4.841   6.099  0.5136 -0.6953  0.7430
 8502SOL     OW33779   6.402   6.217   4.911  0.2800 -0.1408  0.4861
 8502SOL    HW233780   6.365   6.173   4.987  0.3016 -1.2651 -0.1307
 8502SOL    HW333781   6.465   6.279   4.946 -0.5026  0.1456  1.4327
 8502SOL    MW433782   6.405   6.220   4.925 -0.6016 -0.6365  0.8643
 8503SOL     OW33783   1.204   0.779   2.622 -0.3774  0.0439 -0.0398
 8503SOL    HW233784   1.222   0.822   2.705 -1.0552  0.7705 -0.2612
 8503SOL    HW333785   1.262   0.702   2.622  0.0618  0.3606  0.8288
 8503SOL    MW433786   1.214   0.774   2.633  0.1560 -0.5663 -0.5027
 8504SOL     OW33787   5.294   3.834   1.940 -0.1802 -0.2981 -0.7411
 8504SOL    HW233788   5.212   3.799   1.973  0.7616 -2.1519 -0.2379
 8504SOL    HW333789   5.289   3.824   1.845 -0.2426 -1.1095 -0.6546
 8504SOL    MW433790   5.283   3.828   1.931 -0.0879  0.6471  0.3746
 8505SOL     OW33791   6.101   5.936   3.244 -0.3537 -0.0888 -0.0378
 8505SOL    HW233792   6.054   5.926   3.327 -0.4762  0.4296 -0.0446
 8505SOL    HW333793   6.049   5.886   3.181 -0.8496  0.3999 -0.0251
 8505SOL    MW433794   6.088   5.928   3.246  0.4765  0.5566 -0.3158
 8506SOL     OW33795   6.081   1.719   1.133 -0.1362 -0.3849  0.4006
 8506SOL    HW233796   6.130   1.639   1.150  1.0111 -0.4393 -2.6196
 8506SOL    HW333797   5.991   1.689   1.119  0.4369 -1.3678 -1.6134
 8506SOL    MW433798   6.075   1.704   1.133 -0.1738 -0.2950 -0.1555
 8507SOL     OW33799   2.723   4.525   1.289  0.1326 -0.2107 -0.5060
 8507SOL    HW233800   2.764   4.610   1.308 -1.4714  1.0911 -2.3730
 8507SOL    HW333801   2.796   4.466   1.271  1.2690  1.2032 -0.7465
 8507SOL    MW433802   2.738   4.529   1.289  0.1285 -0.1608 -0.7355
 8508SOL     OW33803   3.839   6.344   2.552 -0.0539 -0.3623 -0.6206
 8508SOL    HW233804   3.841   6.407   2.624  2.2972 -3.0062  1.9060
 8508SOL    HW333805   3.876   6.391   2.478  1.1577  1.4079  0.9987
 8508SOL    MW433806   3.844   6.359   2.552 -0.7748  0.3318  0.5687
 8509SOL     OW33807   3.237   5.286   6.232  0.0541  0.4178 -0.1165
 8509SOL    HW233808   3.301   5.356   6.218  0.4143  0.2521  0.6250
 8509SOL    HW333809   3.256   5.221   6.165  0.2762  0.6429 -0.2708
 8509SOL    MW433810   3.248   5.287   6.222  0.0876 -0.2173 -0.0108
 8510SOL     OW33811   1.173   2.169   2.643  0.1690  0.0704 -0.3931
 8510SOL    HW233812   1.101   2.233   2.646 -0.0654 -0.1897 -0.3752
 8510SOL    HW333813   1.159   2.122   2.561  1.3471  1.1867 -1.2682
 8510SOL    MW433814   1.161   2.171   2.633 -0.3849 -0.5630  0.6089
 8511SOL     OW33815   1.061   2.737   6.234  0.0823 -0.7511  0.4550
 8511SOL    HW233816   1.025   2.756   6.148 -2.9882 -0.6578  1.6189
 8511SOL    HW333817   1.131   2.801   6.245 -1.6543  1.5143 -0.7166
 8511SOL    MW433818   1.065   2.748   6.224  0.6021 -0.3707  0.0669
 8512SOL     OW33819   6.234   3.208   1.231  0.3588  0.1624 -0.2119
 8512SOL    HW233820   6.274   3.274   1.288  0.0345  0.3043 -0.1468
 8512SOL    HW333821   6.266   3.124   1.263  2.2503  0.3658 -1.4188
 8512SOL    MW433822   6.243   3.206   1.243 -0.2374  0.7983 -0.5321
 8513SOL     OW33823   2.594   1.394   0.990 -0.2766  0.4986  0.7486
 8513SOL    HW233824   2.548   1.310   0.994  1.9081 -0.7458  1.3177
 8513SOL    HW333825   2.537   1.455   1.037 -1.2666 -0.9943  1.5770
 8513SOL    MW433826   2.581   1.391   0.997 -0.3815 -0.1110  0.2473
 8514SOL     OW33827   4.581   3.570   5.852  0.2785  0.4090 -0.2818
 8514SOL    HW233828   4.507   3.520   5.885  0.8039  1.1611  2.2274
 8514SOL    HW333829   4.544   3.628   5.785 -0.9417 -0.8170 -0.7001
 8514SOL    MW433830   4.567   3.571   5.847  0.5633 -0.1563 -0.0144
 8515SOL     OW33831   5.817   5.081   5.349  0.1882  0.0379  0.0490
 8515SOL    HW233832   5.795   5.000   5.396  0.9938  0.1892  0.7057
 8515SOL    HW333833   5.861   5.136   5.414 -0.9473  1.2972 -0.1983
 8515SOL    MW433834   5.820   5.077   5.364 -0.3395  0.2953  0.0990
 8516SOL     OW33835   5.402   5.767   6.081 -0.2599  0.8376 -0.2429
 8516SOL    HW233836   5.485   5.782   6.037 -0.7111  2.0656 -0.7459
 8516SOL    HW333837   5.376   5.854   6.112  0.1847  0.0050  2.7575
 8516SOL    MW433838   5.410   5.781   6.079  0.6810  0.5698  0.2966
 8517SOL     OW33839   5.962   5.133   4.498  0.3376 -0.8121 -0.3828
 8517SOL    HW233840   5.926   5.120   4.586  1.0922 -0.2251  0.0343
 8517SOL    HW333841   5.930   5.059   4.447  0.0873 -1.2944  0.4589
 8517SOL    MW433842   5.953   5.122   4.503 -0.2940 -0.5053 -0.1436
 8518SOL     OW33843   6.354   2.511   4.107  0.3718 -0.1499  0.6093
 8518SOL    HW233844   6.366   2.416   4.105  0.3821 -0.1377 -0.0645
 8518SOL    HW333845   6.310   2.532   4.025 -0.3365  0.3377  1.1061
 8518SOL    MW433846   6.350   2.501   4.096  0.0051  0.1847  0.2208
 8519SOL     OW33847   3.421   3.113   3.908  0.0667  0.3462  0.3509
 8519SOL    HW233848   3.457   3.099   3.996 -1.5217  0.4989  1.0588
 8519SOL    HW333849   3.335   3.071   3.910 -0.2477  0.8787 -0.9418
 8519SOL    MW433850   3.415   3.106   3.920 -0.8786 -0.8960  0.3016
 8520SOL     OW33851   1.823   0.712   2.580 -0.1308  0.2196  0.0669
 8520SOL    HW233852   1.800   0.641   2.520 -0.2306 -0.1954  0.5884
 8520SOL    HW333853   1.746   0.721   2.637  0.5586 -0.4245  1.1177
 8520SOL    MW433854   1.810   0.704   2.580  0.2182  0.7690  0.4943
 8521SOL     OW33855   0.766   2.314   4.585 -0.2113  0.0501  0.0294
 8521SOL    HW233856   0.734   2.225   4.575 -0.5967 -0.0077  1.5648
 8521SOL    HW333857   0.844   2.306   4.641 -0.3946  0.6822  0.3932
 8521SOL    MW433858   0.772   2.302   4.591 -0.2700  0.0477 -0.2520
 8522SOL     OW33859   5.219   0.402   2.615  0.3826  0.4692 -0.5225
 8522SOL    HW233860   5.149   0.426   2.554  0.3060  1.3062 -0.1185
 8522SOL    HW333861   5.199   0.312   2.640 -1.5806  1.2528  0.9540
 8522SOL    MW433862   5.207   0.393   2.610  0.1672 -0.1093 -0.5257
 8523SOL     OW33863   4.918   5.567   2.733 -0.0791  0.1211 -0.3248
 8523SOL    HW233864   4.875   5.649   2.711  0.5475  0.3594 -0.6820
 8523SOL    HW333865   5.010   5.590   2.743 -0.2602 -0.0303  2.2908
 8523SOL    MW433866   4.924   5.581   2.731 -0.4500  0.0760 -0.4167
 8524SOL     OW33867   4.573   1.641   1.979  0.4591  0.4756 -0.1567
 8524SOL    HW233868   4.630   1.575   2.018 -0.5712 -0.9418 -0.9733
 8524SOL    HW333869   4.489   1.630   2.022 -1.0304 -1.8362 -3.2302
 8524SOL    MW433870   4.570   1.631   1.990  0.5313  0.2845 -0.1677
 8525SOL     OW33871   1.733   0.695   0.114  0.0881  0.4650 -0.5135
 8525SOL    HW233872   1.741   0.777   0.064  0.8545  2.4059  2.5305
 8525SOL    HW333873   1.822   0.674   0.140 -0.3931  0.2015  1.0002
 8525SOL    MW433874   1.746   0.703   0.111  0.0165  0.1475  0.1440
 8526SOL     OW33875   4.346   1.051   1.525 -0.3089  0.4857 -0.3546
 8526SOL    HW233876   4.271   1.025   1.579 -0.2756  0.5450 -0.2796
 8526SOL    HW333877   4.335   1.145   1.512  0.9321  0.9387  1.5105
 8526SOL    MW433878   4.334   1.060   1.530  0.7748  0.5855 -0.0224
 8527SOL     OW33879   0.143   3.626   3.594  0.3860  0.2689 -0.1594
 8527SOL    HW233880   0.086   3.606   3.519 -0.1591  1.9136 -0.2237
 8527SOL    HW333881   0.223   3.576   3.578  0.4076  0.8433 -2.0275
 8527SOL    MW433882   0.146   3.616   3.582  0.2848 -0.0180  0.3171
 8528SOL     OW33883   4.518   3.381   5.165  0.4920  0.2979  0.5196
 8528SOL    HW233884   4.610   3.398   5.148  0.7420 -1.3520  0.0702
 8528SOL    HW333885   4.514   3.289   5.191 -0.9988  0.3916  0.7531
 8528SOL    MW433886   4.530   3.371   5.166  0.0513 -0.6611  0.6261
 8529SOL     OW33887   1.442   5.130   3.775 -0.9806  0.3953 -0.2200
 8529SOL    HW233888   1.443   5.185   3.697 -0.6947 -0.2235 -0.6626
 8529SOL    HW333889   1.534   5.126   3.803 -1.0732  0.5716  0.1264
 8529SOL    MW433890   1.454   5.137   3.769  0.8941 -0.2782 -0.0048
 8530SOL     OW33891   0.926   1.812   5.690 -0.3920  0.9081  0.1060
 8530SOL    HW233892   0.831   1.821   5.701 -0.2035  1.1096  2.0231
 8530SOL    HW333893   0.950   1.881   5.628 -1.4674  1.0043 -0.2151
 8530SOL    MW433894   0.917   1.822   5.684 -0.3987 -0.2432 -0.1766
 8531SOL     OW33895   0.380   4.398   5.381  0.2816  0.5568  0.1570
 8531SOL    HW233896   0.320   4.383   5.309  2.4461 -1.1662 -1.4362
 8531SOL    HW333897   0.346   4.343   5.452 -1.6230  1.9332  0.3874
 8531SOL    MW433898   0.368   4.388   5.381 -0.7344 -0.3965  0.3004
 8532SOL     OW33899   2.207   0.645   1.643  0.3522  0.4950  0.0599
 8532SOL    HW233900   2.220   0.580   1.574 -0.2106 -0.2653  0.6511
 8532SOL    HW333901   2.175   0.595   1.717  1.0144  1.2907  0.9079
 8532SOL    MW433902   2.204   0.630   1.644 -0.6221  0.5447 -0.0465
 8533SOL     OW33903   4.774   0.859   3.847  0.5748 -0.2108  0.4337
 8533SOL    HW233904   4.712   0.900   3.786 -0.9944 -3.0406 -0.0462
 8533SOL    HW333905   4.860   0.876   3.808 -0.0020  1.8550 -0.1133
 8533SOL    MW433906   4.777   0.867   3.834  0.4333 -0.0996  0.3059
 8534SOL     OW33907   5.048   2.343   0.523  0.2505  0.1129 -0.0868
 8534SOL    HW233908   4.979   2.390   0.475 -2.0195 -2.4059  0.4081
 8534SOL    HW333909   5.038   2.373   0.614  0.0562  0.0447 -0.0840
 8534SOL    MW433910   5.037   2.353   0.529  0.1934 -0.4800 -0.1961
 8535SOL     OW33911   5.547   5.904   2.683 -0.2606 -0.0453  0.7014
 8535SOL    HW233912   5.482   5.949   2.737 -0.7951 -3.2266  2.9871
 8535SOL    HW333913   5.628   5.909   2.734 -0.6355 -2.5765  1.7021
 8535SOL    MW433914   5.549   5.910   2.697  0.1276 -0.4079  0.0203
 8536SOL     OW33915   2.398   3.696   3.693 -0.3567  0.4435  0.2844
 8536SOL    HW233916   2.398   3.778   3.743  1.0818  1.2258 -0.9161
 8536SOL    HW333917   2.383   3.723   3.602  0.5792 -0.5528 -0.2001
 8536SOL    MW433918   2.396   3.710   3.687 -0.4542 -0.4562 -0.0799
 8537SOL     OW33919   3.943   3.909   5.475 -0.2925 -0.0363  0.4568
 8537SOL    HW233920   3.991   3.976   5.427 -1.9187  0.2134 -0.9498
 8537SOL    HW333921   3.936   3.943   5.564 -0.1221  1.1467  0.0348
 8537SOL    MW433922   3.948   3.922   5.480  0.2311  0.3230 -0.2536
 8538SOL     OW33923   5.575   3.936   3.659 -0.2062 -0.2486 -0.3756
 8538SOL    HW233924   5.524   3.906   3.734 -0.4191 -0.3292 -0.5516
 8538SOL    HW333925   5.523   4.008   3.623 -0.8929 -1.2273 -1.3880
 8538SOL    MW433926   5.561   3.942   3.664 -0.5021 -0.0648  0.3532
 8539SOL     OW33927   1.586   5.264   3.053  0.0488 -0.1595  0.2342
 8539SOL    HW233928   1.535   5.303   2.982  0.3307 -0.8020 -0.3273
 8539SOL    HW333929   1.592   5.171   3.031 -0.3306 -0.4709  1.3902
 8539SOL    MW433930   1.580   5.257   3.041 -0.2056  0.1202 -0.8688
 8540SOL     OW33931   3.180   4.864   0.077 -0.2903 -0.1905  0.2646
 8540SOL    HW233932   3.149   4.948   0.112 -0.4943 -0.2706  0.2769
 8540SOL    HW333933   3.138   4.798   0.132 -0.3752 -0.3099  0.0582
 8540SOL    MW433934   3.170   4.867   0.089  0.2518 -0.3354 -0.6022
 8541SOL     OW33935   4.502   1.779   3.749  0.6106 -0.2039  0.0532
 8541SOL    HW233936   4.429   1.821   3.794  0.4361 -0.6743  0.2123
 8541SOL    HW333937   4.528   1.842   3.682  0.9587  0.5609  0.8910
 8541SOL    MW433938   4.496   1.793   3.746 -0.2588  0.6438  0.5930
 8542SOL     OW33939   0.275   3.837   4.116 -0.4088  0.2568  0.4536
 8542SOL    HW233940   0.192   3.878   4.091  0.1478  1.8394  1.0594
 8542SOL    HW333941   0.304   3.885   4.193  0.0994 -1.6115  1.4895
 8542SOL    MW433942   0.268   3.849   4.123  0.0524  0.4934 -0.2083
 8543SOL     OW33943   4.773   1.995   1.769 -0.1694 -0.4409  0.3562
 8543SOL    HW233944   4.781   2.039   1.684  1.6206 -0.1911  0.6273
 8543SOL    HW333945   4.805   2.058   1.833 -0.4551 -1.0332  1.1044
 8543SOL    MW433946   4.778   2.009   1.766  0.3963 -0.1571  0.2597
 8544SOL     OW33947   4.393   2.183   2.703  0.4502 -0.0620  0.2677
 8544SOL    HW233948   4.390   2.112   2.767  0.3823  1.2020  1.7273
 8544SOL    HW333949   4.426   2.142   2.623 -0.8597 -2.0088  0.6498
 8544SOL    MW433950   4.397   2.169   2.701  0.4101  0.7456  0.0255
 8545SOL     OW33951   2.927   3.146   0.420 -0.3082  0.3377  0.0110
 8545SOL    HW233952   2.975   3.068   0.447 -1.6495 -0.8026 -0.7387
 8545SOL    HW333953   2.876   3.171   0.498 -1.3079 -0.6974 -0.2805
 8545SOL    MW433954   2.926   3.139   0.434  0.2164  0.5457 -0.4003
 8546SOL     OW33955   2.139   2.156   4.642 -0.2644  0.3470  0.0548
 8546SOL    HW233956   2.086   2.234   4.652  0.8217  1.1185 -0.0132
 8546SOL    HW333957   2.152   2.148   4.547  1.6915  1.5640  0.1594
 8546SOL    MW433958   2.134   2.165   4.631  0.4118 -0.0501 -0.3560
 8547SOL     OW33959   0.562   4.057   0.857  0.1983 -0.1981  0.5001
 8547SOL    HW233960   0.505   4.070   0.781 -0.5859 -0.2717  1.0617
 8547SOL    HW333961   0.530   3.976   0.896 -0.0545  0.3507  1.4588
 8547SOL    MW433962   0.550   4.048   0.852  0.1005  0.1316 -0.1351
 8548SOL     OW33963   0.231   5.889   5.125 -0.5638 -0.5642  0.7526
 8548SOL    HW233964   0.307   5.886   5.183 -0.0303  0.3979  0.1324
 8548SOL    HW333965   0.244   5.815   5.066 -0.7633 -1.1430  1.4172
 8548SOL    MW433966   0.243   5.879   5.125 -0.2910 -0.0081  0.2648
 8549SOL     OW33967   0.683   2.440   6.099 -0.2247  0.1673 -0.2745
 8549SOL    HW233968   0.766   2.397   6.117 -0.0117  0.1035 -1.3237
 8549SOL    HW333969   0.667   2.495   6.176 -1.0802 -2.5934  1.6554
 8549SOL    MW433970   0.692   2.442   6.111 -0.3297  0.3416  0.4564
 8550SOL     OW33971   3.446   5.576   2.695 -0.1249 -0.4778 -0.2351
 8550SOL    HW233972   3.489   5.656   2.664 -0.5063  0.5149  1.6414
 8550SOL    HW333973   3.426   5.527   2.615 -0.2442  1.4896 -1.4754
 8550SOL    MW433974   3.449   5.580   2.681 -0.0187 -0.2887  0.3894
 8551SOL     OW33975   5.115   5.093   3.796  0.2762  0.2996 -0.2393
 8551SOL    HW233976   5.128   5.074   3.889  1.4239  0.2892 -0.3841
 8551SOL    HW333977   5.020   5.095   3.785  0.0773 -1.7543  0.5360
 8551SOL    MW433978   5.104   5.090   3.807  0.1806  0.3231  0.3816
 8552SOL     OW33979   5.038   5.702   3.841  0.1899  0.0467 -0.1021
 8552SOL    HW233980   5.054   5.609   3.855 -2.1757 -0.4593 -0.3733
 8552SOL    HW333981   5.113   5.732   3.788  0.4957 -1.9026 -0.8418
 8552SOL    MW433982   5.050   5.694   3.836  0.2448 -0.4797 -0.3412
 8553SOL     OW33983   3.523   3.061   6.259  0.3078 -0.1357  0.2310
 8553SOL    HW233984   3.429   3.080   6.259  0.5668  1.5327 -1.8703
 8553SOL    HW333985   3.533   2.992   6.325 -2.4268 -0.6223  0.2764
 8553SOL    MW433986   3.512   3.054   6.268  0.2019  0.0920 -0.4746
 8554SOL     OW33987   6.190   3.861   0.133 -1.1661 -0.2220 -0.3804
 8554SOL    HW233988   6.198   3.943   0.084 -1.6485 -0.7804 -1.4223
 8554SOL    HW333989   6.124   3.811   0.086 -0.3791 -1.5033 -0.1721
 8554SOL    MW433990   6.182   3.865   0.120  0.5699 -0.5838  0.3098
 8555SOL     OW33991   1.787   5.930   4.635 -0.4774  0.4367 -0.4025
 8555SOL    HW233992   1.825   5.842   4.635  0.5003  0.8389  0.4250
 8555SOL    HW333993   1.787   5.956   4.727 -2.3003  0.6823 -0.4202
 8555SOL    MW433994   1.792   5.922   4.647  0.0678 -0.1542 -0.2933
 8556SOL     OW33995   0.037   5.262   3.211 -0.1809  0.3207 -0.0849
 8556SOL    HW233996   0.066   5.171   3.204 -1.3112  0.0025 -0.8024
 8556SOL    HW333997  -0.055   5.260   3.188  0.0994  1.8612 -1.5060
 8556SOL    MW433998   0.029   5.250   3.207  0.6499 -0.6263 -0.7787
 8557SOL     OW33999   3.411   4.400   4.550  0.2416  0.1388 -1.1318
 8557SOL    HW234000   3.391   4.467   4.486 -1.5365 -0.9164 -1.7400
 8557SOL    HW334001   3.433   4.449   4.630 -0.2560  1.4336 -1.7634
 8557SOL    MW434002   3.411   4.415   4.552  0.1161  0.4409  0.5694
 8558SOL     OW34003   4.101   0.409   5.395 -0.5264 -0.3364  0.0114
 8558SOL    HW234004   4.050   0.449   5.466  2.4260  3.2213  0.4620
 8558SOL    HW334005   4.059   0.438   5.315 -0.6603  0.4953  0.3700
 8558SOL    MW434006   4.089   0.418   5.394 -0.5646  0.3926 -0.2323
 8559SOL     OW34007   6.333   2.103   2.405  0.3899 -0.0673  0.3805
 8559SOL    HW234008   6.303   2.121   2.495  0.8189  0.0085  0.5107
 8559SOL    HW334009   6.287   2.167   2.351 -0.1954 -0.3863  0.4884
 8559SOL    MW434010   6.323   2.114   2.410 -0.6685 -0.5584  0.3630
 8560SOL     OW34011   3.807   4.683   0.047 -0.4484  0.0021 -0.6868
 8560SOL    HW234012   3.774   4.615  -0.012 -0.4135  0.2084 -0.9488
 8560SOL    HW334013   3.733   4.741   0.060 -0.9078 -0.8559  0.6940
 8560SOL    MW434014   3.793   4.681   0.041 -0.1299 -0.3550  0.3510
 8561SOL     OW34015   1.312   2.778   0.151 -0.5100 -0.5841 -0.0218
 8561SOL    HW234016   1.271   2.707   0.103 -1.0597  1.0273 -2.0809
 8561SOL    HW334017   1.242   2.811   0.209 -1.8524  1.2130 -2.4703
 8561SOL    MW434018   1.297   2.773   0.152 -0.2824  0.3265 -0.3950
 8562SOL     OW34019   1.248   0.456   5.960  0.0824 -0.0760  0.2903
 8562SOL    HW234020   1.263   0.488   5.871 -0.5815 -1.5998 -0.4024
 8562SOL    HW334021   1.277   0.528   6.016 -0.1690  1.2051 -1.1571
 8562SOL    MW434022   1.254   0.470   5.955  0.2533 -0.6163 -0.0035
 8563SOL     OW34023   4.203   2.677   4.378  0.1009  0.2855  0.0140
 8563SOL    HW234024   4.142   2.649   4.310  1.5638 -1.0702 -0.8286
 8563SOL    HW334025   4.212   2.600   4.435  0.5483  0.6721  0.4735
 8563SOL    MW434026   4.196   2.663   4.377 -0.3729 -0.5846 -0.1386
 8564SOL     OW34027   5.078   1.896   3.137  0.0299 -0.2345  0.0576
 8564SOL    HW234028   5.061   1.805   3.110 -0.2792  0.0744 -0.8080
 8564SOL    HW334029   5.033   1.904   3.221 -0.7886 -0.6005 -0.3319
 8564SOL    MW434030   5.070   1.885   3.145 -0.0431  0.3973  0.2027
 8565SOL     OW34031   0.363   1.520   5.811  0.2357  0.0859 -0.1592
 8565SOL    HW234032   0.406   1.434   5.811 -0.6483 -0.3701 -0.0277
 8565SOL    HW334033   0.434   1.582   5.829  1.2544 -0.4065 -2.2391
 8565SOL    MW434034   0.378   1.517   5.814 -0.7042 -0.3299 -0.1980
 8566SOL     OW34035   5.160   3.989   3.683 -0.4019 -0.1117  0.4919
 8566SOL    HW234036   5.196   3.917   3.632  0.5442  1.3406 -0.9967
 8566SOL    HW334037   5.079   4.013   3.637 -1.6978 -1.3220  2.0196
 8566SOL    MW434038   5.154   3.983   3.670 -0.0621 -0.4266 -0.2834
 8567SOL     OW34039   3.909   0.191   1.749  0.0286 -0.3344 -0.3275
 8567SOL    HW234040   3.889   0.226   1.662 -0.3880 -0.3100 -0.2240
 8567SOL    HW334041   3.861   0.109   1.754  0.2522 -0.4581 -0.2160
 8567SOL    MW434042   3.900   0.185   1.738 -0.6545 -0.6318  0.0420
 8568SOL     OW34043   6.011   2.959   0.099 -0.1780  0.1678 -0.0832
 8568SOL    HW234044   6.013   2.875   0.053  0.6978  1.3631 -2.3525
 8568SOL    HW334045   5.970   2.939   0.183 -1.2042 -2.2708 -1.0743
 8568SOL    MW434046   6.005   2.945   0.104  0.1816 -0.4036  0.4204
 8569SOL     OW34047   6.171   1.562   0.385 -0.2545  0.1539  0.4743
 8569SOL    HW234048   6.105   1.619   0.345  0.1494  0.6007  0.4371
 8569SOL    HW334049   6.250   1.615   0.388  0.2966 -0.6027 -0.1122
 8569SOL    MW434050   6.173   1.576   0.380 -0.1505 -0.5257 -0.1511
 8570SOL     OW34051   6.311   0.960   4.735 -0.0553  0.0632  0.0021
 8570SOL    HW234052   6.339   0.886   4.788  0.3466 -1.4744 -2.2501
 8570SOL    HW334053   6.317   1.035   4.794  0.2837 -1.5487  2.1245
 8570SOL    MW434054   6.315   0.960   4.750  0.3824  0.3250 -0.2112
 8571SOL     OW34055   0.151   6.130   0.500 -0.3012 -0.4099 -0.6496
 8571SOL    HW234056   0.063   6.100   0.522  0.4945 -2.5588 -0.2169
 8571SOL    HW334057   0.207   6.095   0.569  0.9627  0.7042 -1.0557
 8571SOL    MW434058   0.147   6.122   0.512  0.2034  0.1651  0.1025
 8572SOL     OW34059   3.415   5.097   5.841  0.9660  0.5591 -0.3788
 8572SOL    HW234060   3.449   5.119   5.927 -1.2243  1.9051  0.2105
 8572SOL    HW334061   3.418   5.179   5.792 -1.5972  0.8558 -0.1763
 8572SOL    MW434062   3.420   5.111   5.846 -0.2827  0.0804  1.0062
 8573SOL     OW34063   4.523   6.377   2.579 -0.4401  0.1331  0.0886
 8573SOL    HW234064   4.463   6.303   2.568  1.6864 -1.9789  1.8246
 8573SOL    HW334065   4.606   6.346   2.544  0.2397  2.1791 -0.2371
 8573SOL    MW434066   4.526   6.363   2.573  0.1770  0.5446  0.1665
 8574SOL     OW34067   2.361   0.869   0.224  0.8213 -0.1738  0.2616
 8574SOL    HW234068   2.439   0.922   0.208  0.5447  0.6434  1.4673
 8574SOL    HW334069   2.289   0.924   0.194  0.4047  0.8423  2.8641
 8574SOL    MW434070   2.362   0.884   0.218  0.5254  0.0641  0.3333
 8575SOL     OW34071   2.822   4.141   1.463 -0.3428  0.2358 -0.2942
 8575SOL    HW234072   2.753   4.119   1.525  1.1056  0.2578  1.4478
 8575SOL    HW334073   2.860   4.222   1.499 -0.1844  0.8963 -1.8791
 8575SOL    MW434074   2.818   4.149   1.476 -0.1433  0.0702 -0.1058
 8576SOL     OW34075   3.699   0.161   0.721  0.3172 -0.0171  0.9561
 8576SOL    HW234076   3.636   0.108   0.770 -0.7765  2.2555  2.2026
 8576SOL    HW334077   3.646   0.228   0.678  1.5853 -0.1089 -0.8777
 8576SOL    MW434078   3.684   0.163   0.722 -0.4685 -0.4355 -0.5070
 8577SOL     OW34079   1.343   2.719   2.499  0.2430 -0.4175  0.3289
 8577SOL    HW234080   1.346   2.633   2.457 -0.1809 -0.5275  0.5248
 8577SOL    HW334081   1.284   2.771   2.445 -0.5563 -0.6563  0.9557
 8577SOL    MW434082   1.336   2.714   2.486 -0.3112  0.5546  0.5193
 8578SOL     OW34083   5.067   6.341   6.199 -0.4859  0.0453 -0.0644
 8578SOL    HW234084   5.054   6.298   6.115  1.1450 -0.3772 -0.1175
 8578SOL    HW334085   5.086   6.270   6.261 -5.0790 -0.1193  1.5497
 8578SOL    MW434086   5.067   6.326   6.196 -0.0891 -0.3743  0.0619
 8579SOL     OW34087   5.928   6.363   3.657 -0.0698  0.7523 -0.3784
 8579SOL    HW234088   5.969   6.276   3.664  0.0103  0.8181 -0.0170
 8579SOL    HW334089   5.999   6.424   3.673 -0.8169  0.8634  3.5870
 8579SOL    MW434090   5.943   6.359   3.660  0.0708  0.5354  0.4142
 8580SOL     OW34091   6.424   1.806   1.242 -0.2386  0.2220  0.0050
 8580SOL    HW234092   6.475   1.799   1.161  0.2149  0.7105  0.2478
 8580SOL    HW334093   6.387   1.894   1.239  1.5149  1.0515  1.3375
 8580SOL    MW434094   6.425   1.817   1.231 -0.4668 -0.1378 -0.0636
 8581SOL     OW34095   0.635   5.147   4.102  0.4330  0.5554  0.1493
 8581SOL    HW234096   0.640   5.204   4.026 -0.0972 -0.1366 -0.4180
 8581SOL    HW334097   0.577   5.076   4.075  0.3601  0.2222  1.1490
 8581SOL    MW434098   0.628   5.145   4.089  0.0982  0.0986 -0.1281
 8582SOL     OW34099   0.910   2.318   6.228 -0.2050  0.5835  0.2245
 8582SOL    HW234100   0.990   2.335   6.178 -0.4776 -0.2385 -0.5161
 8582SOL    HW334101   0.928   2.237   6.276 -0.8743 -0.0938 -0.6194
 8582SOL    MW434102   0.923   2.309   6.227  0.8220  0.1476  0.5713
 8583SOL     OW34103   4.044   4.737   3.656  0.1015  0.4882  0.4198
 8583SOL    HW234104   4.046   4.673   3.585 -0.4225  0.4701  0.4148
 8583SOL    HW334105   4.127   4.783   3.649 -0.5156  1.4502 -1.0902
 8583SOL    MW434106   4.055   4.734   3.646  0.2331 -0.0736  0.1518
 8584SOL     OW34107   3.662   0.103   4.633  0.1187 -0.4032 -0.3549
 8584SOL    HW234108   3.695   0.192   4.646 -2.2060  0.2972  1.4001
 8584SOL    HW334109   3.724   0.064   4.572  3.6239  1.0225  1.9626
 8584SOL    MW434110   3.675   0.110   4.626 -0.0698  0.2070  0.1332
 8585SOL     OW34111   4.514   6.015   3.487  0.0864  0.0112 -0.1638
 8585SOL    HW234112   4.532   5.935   3.536  1.8895  1.5060  1.8147
 8585SOL    HW334113   4.419   6.024   3.491 -0.1246 -1.8492 -0.1664
 8585SOL    MW434114   4.504   6.005   3.494  0.2040  0.3398 -0.2904
 8586SOL     OW34115   5.847   5.423   2.442  0.0622 -0.5077 -0.4490
 8586SOL    HW234116   5.868   5.470   2.361  0.4623 -1.7330 -1.0943
 8586SOL    HW334117   5.884   5.477   2.512 -1.7441  1.4297 -0.9048
 8586SOL    MW434118   5.855   5.436   2.440 -0.0555  0.2646 -0.5775
 8587SOL     OW34119   2.030   5.048   4.606 -0.0126 -0.6029  0.2470
 8587SOL    HW234120   1.985   5.047   4.522  1.2051  0.0364 -0.4538
 8587SOL    HW334121   1.982   5.113   4.658  0.8046  1.0354 -0.9361
 8587SOL    MW434122   2.018   5.057   4.601 -0.5039  0.3218  0.1775
 8588SOL     OW34123   0.233   2.694   4.655  0.0861 -0.1351 -0.3898
 8588SOL    HW234124   0.229   2.723   4.564  0.5454  2.3804  0.3274
 8588SOL    HW334125   0.289   2.758   4.698 -0.0973 -1.2854  1.6708
 8588SOL    MW434126   0.240   2.706   4.649  0.6064 -0.4684  0.3887
 8589SOL     OW34127   6.348   0.397   4.725 -0.2830  0.7618 -1.2217
 8589SOL    HW234128   6.321   0.311   4.758  2.0694 -0.4367 -2.1749
 8589SOL    HW334129   6.321   0.398   4.634  1.2070  0.2501 -1.7047
 8589SOL    MW434130   6.341   0.386   4.717  0.1613 -0.0354  0.2503
 8590SOL     OW34131   4.777   3.707   0.091 -0.2047 -0.1869 -0.2024
 8590SOL    HW234132   4.724   3.675   0.017  1.9079  1.1431 -2.4431
 8590SOL    HW334133   4.821   3.630   0.125  0.8026 -0.5257 -2.1173
 8590SOL    MW434134   4.775   3.693   0.086 -0.4223 -0.6057  0.0123
 8591SOL     OW34135   1.788   2.450   2.742 -0.7774 -0.0574  0.1959
 8591SOL    HW234136   1.732   2.515   2.783 -2.2972 -1.4827  0.4514
 8591SOL    HW334137   1.821   2.493   2.663 -0.6758  1.4600  1.0413
 8591SOL    MW434138   1.785   2.464   2.737  0.2162  0.3360  0.1176
 8592SOL     OW34139   2.340   5.728   4.670 -0.2878  0.0284 -0.7162
 8592SOL    HW234140   2.293   5.645   4.680  1.2964 -0.9542 -1.0599
 8592SOL    HW334141   2.278   5.794   4.702 -0.5791 -1.5519  2.4148
 8592SOL    MW434142   2.326   5.726   4.676  0.5584 -0.3712 -0.0774
 8593SOL     OW34143   0.197   2.160   0.472 -0.2307  0.6043  0.7311
 8593SOL    HW234144   0.235   2.130   0.390 -0.6775  0.9322  0.4044
 8593SOL    HW334145   0.225   2.095   0.537 -0.4442 -0.0223  0.2004
 8593SOL    MW434146   0.206   2.148   0.470 -0.4247  0.1833 -0.0493
 8594SOL     OW34147   5.317   0.132   5.586 -0.3909  0.0191  0.0616
 8594SOL    HW234148   5.352   0.043   5.576 -1.4670 -0.4287  0.1176
 8594SOL    HW334149   5.282   0.134   5.675  0.4704  0.8228  0.3962
 8594SOL    MW434150   5.317   0.120   5.596 -0.4283  0.0667  0.4289
 8595SOL     OW34151   6.090   2.276   2.494 -0.8803 -0.9105 -0.0509
 8595SOL    HW234152   6.042   2.309   2.570  0.0167 -0.5700  0.3843
 8595SOL    HW334153   6.047   2.316   2.419  0.1218  1.2607  0.4486
 8595SOL    MW434154   6.078   2.286   2.494  0.5314  0.5704 -0.4475
 8596SOL     OW34155   2.153   3.490   5.830 -0.0212  0.3875 -0.3970
 8596SOL    HW234156   2.218   3.560   5.836 -0.0182  0.4530 -1.0469
 8596SOL    HW334157   2.096   3.516   5.757 -0.4134  0.0346 -0.2242
 8596SOL    MW434158   2.154   3.503   5.821 -0.2853  0.7422  0.6591
 8597SOL     OW34159   0.989   0.925   4.202 -0.1622  0.1135 -0.1453
 8597SOL    HW234160   1.017   0.974   4.280 -0.3599 -0.3257  0.2092
 8597SOL    HW334161   1.028   0.972   4.129  1.3494 -0.3534  0.3152
 8597SOL    MW434162   0.998   0.937   4.203 -0.3183 -0.7010  0.3417
 8598SOL     OW34163   5.462   2.453   1.374 -0.3849 -0.0021  0.1207
 8598SOL    HW234164   5.467   2.540   1.335  2.4625 -0.7619 -1.4796
 8598SOL    HW334165   5.546   2.442   1.419 -0.0431 -2.4580 -0.9922
 8598SOL    MW434166   5.474   2.463   1.375 -0.0547  0.7418  0.1666
 8599SOL     OW34167   3.578   5.513   5.952  0.5601  0.2295 -0.1842
 8599SOL    HW234168   3.535   5.538   6.034  0.8491 -1.3017  0.4796
 8599SOL    HW334169   3.510   5.466   5.903  1.8425 -4.4746  1.9391
 8599SOL    MW434170   3.563   5.510   5.956  0.0451  0.3772  0.3560
 8600SOL     OW34171   4.996   5.684   5.870 -0.4188 -0.2917  0.5541
 8600SOL    HW234172   5.087   5.710   5.855  0.3446 -2.9424  0.2352
 8600SOL    HW334173   4.982   5.703   5.963 -0.5959  2.8772  0.0175
 8600SOL    MW434174   5.006   5.690   5.881  0.1999  0.5651 -0.2009
 8601SOL     OW34175   6.007   5.882   3.537  0.3574  0.8639 -0.2163
 8601SOL    HW234176   5.966   5.800   3.512  0.5344  0.8707 -0.5411
 8601SOL    HW334177   5.936   5.946   3.538  0.2295  0.7155 -0.0114
 8601SOL    MW434178   5.993   5.880   3.534 -0.1317 -0.4781  0.7476
 8602SOL     OW34179   4.317   5.320   1.231 -0.0122  0.3559 -0.0234
 8602SOL    HW234180   4.353   5.238   1.196  1.0797  0.6887  0.2941
 8602SOL    HW334181   4.383   5.351   1.293 -0.5419  1.3361  0.0688
 8602SOL    MW434182   4.331   5.313   1.235 -0.3997 -0.1370 -1.2904
 8603SOL     OW34183   1.282   3.872   6.032  0.4050 -0.4864 -0.5047
 8603SOL    HW234184   1.269   3.784   6.068  0.7906 -0.6944 -0.8596
 8603SOL    HW334185   1.194   3.905   6.017  0.2243 -0.2178  1.0396
 8603SOL    MW434186   1.269   3.864   6.035  0.2246  0.2970  0.4051
 8604SOL     OW34187   1.084   3.119   0.530 -0.8817  0.3549 -0.4458
 8604SOL    HW234188   1.055   3.209   0.547 -1.6471  0.2508 -1.1275
 8604SOL    HW334189   1.052   3.070   0.606 -0.7088  0.6102 -0.2070
 8604SOL    MW434190   1.076   3.124   0.542 -0.4407  0.2709  0.7505
 8605SOL     OW34191   3.987   2.599   0.103 -0.4910 -0.2167 -0.2940
 8605SOL    HW234192   4.021   2.549   0.178 -0.3969 -0.7482 -0.6859
 8605SOL    HW334193   4.045   2.576   0.030 -0.4495  0.4667 -0.4848
 8605SOL    MW434194   3.999   2.589   0.103  0.2351 -0.2097 -0.6929
 8606SOL     OW34195   6.005   5.039   5.796 -0.2551 -0.0406 -0.0419
 8606SOL    HW234196   6.100   5.041   5.808 -0.0438 -0.8922 -1.2967
 8606SOL    HW334197   5.986   4.949   5.769 -1.4782  0.0062  0.5757
 8606SOL    MW434198   6.015   5.027   5.794 -0.0144 -0.1886  0.4384
 8607SOL     OW34199   2.942   4.231   4.440 -0.7498  0.0893 -0.1120
 8607SOL    HW234200   2.870   4.285   4.475 -0.4949  0.5732 -0.3310
 8607SOL    HW334201   2.943   4.154   4.497 -0.2257  0.9479  1.1024
 8607SOL    MW434202   2.933   4.228   4.452  0.7001 -0.0397  0.2345
 8608SOL     OW34203   4.263   6.223   2.889 -0.0131 -0.0113 -0.0306
 8608SOL    HW234204   4.235   6.135   2.862 -1.4804  0.2787  0.4485
 8608SOL    HW334205   4.197   6.250   2.953  1.5893  0.5933  1.4606
 8608SOL    MW434206   4.251   6.215   2.894  0.0737  0.2670 -0.7309
 8609SOL     OW34207   4.126   2.222   2.803 -0.5284 -0.1781  0.4288
 8609SOL    HW234208   4.063   2.248   2.736 -0.3119  0.7115  0.5594
 8609SOL    HW334209   4.210   2.218   2.757 -0.3760  0.4523  0.6429
 8609SOL    MW434210   4.129   2.225   2.788 -0.0112 -0.3506 -0.1011
 8610SOL     OW34211   0.765   2.548   5.856  0.3839 -0.4270 -0.0286
 8610SOL    HW234212   0.712   2.516   5.929 -0.3684  0.0394 -0.3591
 8610SOL    HW334213   0.702   2.564   5.786  0.9439  0.2611 -0.3877
 8610SOL    MW434214   0.749   2.546   5.856  0.5326 -0.3723  0.5641
 8611SOL     OW34215   2.875   4.390   3.260 -0.7381  0.1201 -0.1063
 8611SOL    HW234216   2.880   4.384   3.164  0.0261 -2.7580  0.0303
 8611SOL    HW334217   2.965   4.408   3.287 -0.9693  1.0149  0.0890
 8611SOL    MW434218   2.887   4.392   3.251  0.0552 -0.0642 -0.7798
 8612SOL     OW34219   1.258   0.262   6.294 -0.4273  0.6709 -0.3960
 8612SOL    HW234220   1.336   0.272   6.240  0.8571 -0.8538  1.0546
 8612SOL    HW334221   1.220   0.179   6.266 -0.0730  0.1536  0.6112
 8612SOL    MW434222   1.264   0.252   6.283  0.5579  0.1357  0.3931
 8613SOL     OW34223   5.038   0.495   3.076  0.0711  0.3661 -0.6909
 8613SOL    HW234224   5.116   0.459   3.034  1.1223  1.0536  0.6155
 8613SOL    HW334225   5.059   0.587   3.090 -0.3011  0.1890  1.1902
 8613SOL    MW434226   5.051   0.503   3.072  0.0972 -0.4556  0.4204
 8614SOL     OW34227   1.827   5.302   0.423 -0.0915 -0.0067 -0.5741
 8614SOL    HW234228   1.900   5.264   0.373  0.4861  0.9925 -0.5161
 8614SOL    HW334229   1.844   5.396   0.423 -0.8525  0.1469  0.2956
 8614SOL    MW434230   1.839   5.309   0.416 -1.0626 -0.0422 -0.2781
 8615SOL     OW34231   5.295   0.393   2.991 -0.0960 -0.2924  0.6134
 8615SOL    HW234232   5.365   0.328   2.995  1.1914  0.9287 -1.0169
 8615SOL    HW334233   5.337   0.472   2.958 -2.2005  0.5247 -0.2836
 8615SOL    MW434234   5.310   0.395   2.987 -0.1823  0.3579 -0.6924
 8616SOL     OW34235   0.624   4.239   3.545 -0.3230 -0.0121  0.1330
 8616SOL    HW234236   0.562   4.312   3.540 -1.1468 -0.7241 -0.6105
 8616SOL    HW334237   0.597   4.181   3.473  0.6701 -0.7635  0.3522
 8616SOL    MW434238   0.612   4.241   3.535 -0.5041  0.1209  0.1240
 8617SOL     OW34239   5.701   0.345   3.049 -0.3390 -0.0782  0.0437
 8617SOL    HW234240   5.711   0.269   3.106 -0.2394 -0.6061 -0.6583
 8617SOL    HW334241   5.665   0.309   2.968 -1.0023  0.7365 -0.0391
 8617SOL    MW434242   5.698   0.330   3.046 -0.0050 -0.4607 -0.0095
 8618SOL     OW34243   4.097   1.055   5.369 -0.4162  0.4631  0.3159
 8618SOL    HW234244   4.149   0.994   5.421 -1.9213 -1.1971 -0.0201
 8618SOL    HW334245   4.112   1.029   5.278  1.3225  2.6326 -0.0886
 8618SOL    MW434246   4.106   1.043   5.364  0.5067 -0.3826  0.6778
 8619SOL     OW34247   4.238   5.740   3.332  0.3793  0.6713 -0.1190
 8619SOL    HW234248   4.256   5.801   3.403  0.9361 -0.0495  0.3754
 8619SOL    HW334249   4.322   5.732   3.286  0.3426  0.1963 -0.1085
 8619SOL    MW434250   4.251   5.747   3.335 -0.6833  0.1116  0.3506
 8620SOL     OW34251   0.607   4.016   3.332  0.1597 -0.0934  0.3683
 8620SOL    HW234252   0.519   4.007   3.368 -0.4870  1.7575 -0.6165
 8620SOL    HW334253   0.664   3.968   3.393 -1.5792 -1.9602  0.6254
 8620SOL    MW434254   0.603   4.008   3.345 -0.2494  0.0311  0.7665
 8621SOL     OW34255   1.184   1.453   4.789  0.5111  0.1381 -0.2041
 8621SOL    HW234256   1.135   1.494   4.860  1.0210 -0.3120  0.4263
 8621SOL    HW334257   1.276   1.474   4.809  0.6949 -0.4160 -0.4450
 8621SOL    MW434258   1.190   1.462   4.801 -0.3971 -0.0443 -0.3765
 8622SOL     OW34259   0.979   3.570   1.027  0.5428 -0.1248 -0.2578
 8622SOL    HW234260   1.036   3.521   1.086  1.1957 -0.5234 -1.1986
 8622SOL    HW334261   1.024   3.653   1.013 -1.2591  1.4478  2.5045
 8622SOL    MW434262   0.992   3.575   1.033  0.1989  0.5968  0.8502
 8623SOL     OW34263   1.251   2.072   2.913  0.4656  0.2277 -0.3662
 8623SOL    HW234264   1.309   2.000   2.887  1.0019  0.5650 -0.1054
 8623SOL    HW334265   1.220   2.108   2.830 -0.9832 -1.2268 -0.5103
 8623SOL    MW434266   1.254   2.067   2.898 -0.5618  0.0219  0.2434
 8624SOL     OW34267   3.295   1.877   2.959  0.5156  0.0633  0.2037
 8624SOL    HW234268   3.247   1.812   2.909 -0.8197  0.6259  0.6919
 8624SOL    HW334269   3.386   1.869   2.929 -0.0336 -0.3875 -1.4511
 8624SOL    MW434270   3.301   1.868   2.948  0.2096  0.1566 -0.9584
 8625SOL     OW34271   5.281   5.623   3.100  0.0606  0.0828  0.2116
 8625SOL    HW234272   5.233   5.695   3.060  0.1760  0.1477  0.1877
 8625SOL    HW334273   5.360   5.614   3.047 -0.2328 -0.4518 -0.1366
 8625SOL    MW434274   5.285   5.631   3.088 -0.0168  0.8004  0.1700
 8626SOL     OW34275   6.376   0.190   2.372  0.1149  0.3359  0.1749
 8626SOL    HW234276   6.337   0.147   2.296  0.0203  2.5395 -1.1099
 8626SOL    HW334277   6.301   0.226   2.420  0.2758  0.3137  0.4450
 8626SOL    MW434278   6.361   0.189   2.368 -0.1149 -0.0891 -0.3030
 8627SOL     OW34279   2.615   0.820   4.325  0.3509  0.0523  0.6476
 8627SOL    HW234280   2.546   0.845   4.387 -1.0599 -1.0052 -0.4272
 8627SOL    HW334281   2.609   0.725   4.321 -0.4512  0.1546 -2.0124
 8627SOL    MW434282   2.605   0.811   4.333  0.4430 -0.2527  0.0557
 8628SOL     OW34283   2.948   3.706   4.720  0.4265  0.8231  0.2532
 8628SOL    HW234284   2.978   3.786   4.762  0.3448  0.2233  1.4819
 8628SOL    HW334285   3.024   3.674   4.672  0.5761  1.4054  0.0904
 8628SOL    MW434286   2.962   3.712   4.719 -0.5117  0.2420 -0.3346
 8629SOL     OW34287   3.215   5.388   0.442 -0.4134 -0.2574 -0.1486
 8629SOL    HW234288   3.218   5.435   0.358  0.5174 -0.4363 -0.2265
 8629SOL    HW334289   3.296   5.414   0.486 -0.6022 -0.6553  0.4349
 8629SOL    MW434290   3.226   5.398   0.437  0.6519 -0.7249 -0.1693
 8630SOL     OW34291   6.261   2.861   0.240  0.3860  0.1090  0.8175
 8630SOL    HW234292   6.301   2.932   0.189  0.6413 -0.9166 -0.4521
 8630SOL    HW334293   6.167   2.868   0.221  0.3564  0.3545  1.0373
 8630SOL    MW434294   6.254   2.871   0.231  0.4155 -0.6646 -0.4977
 8631SOL     OW34295   3.137   5.871   5.330  0.2607 -0.6623  0.2074
 8631SOL    HW234296   3.135   5.846   5.423 -0.1543 -0.5324  0.2344
 8631SOL    HW334297   3.053   5.840   5.295 -1.8870  3.5174  0.9742
 8631SOL    MW434298   3.125   5.863   5.338 -0.4012 -0.0974 -0.2657
 8632SOL     OW34299   3.660   5.450   2.890  0.8637  0.0307  0.2359
 8632SOL    HW234300   3.607   5.493   2.823 -0.5494 -1.0095  0.6337
 8632SOL    HW334301   3.596   5.420   2.955  1.9537 -1.2161  0.7700
 8632SOL    MW434302   3.644   5.452   2.890  0.5204 -0.0437 -0.4396
 8633SOL     OW34303   4.302   2.762   5.176  0.3890 -0.2788  0.0998
 8633SOL    HW234304   4.387   2.780   5.216  0.8380 -0.5577 -0.6906
 8633SOL    HW334305   4.283   2.839   5.122 -0.8742  0.7170  1.8721
 8633SOL    MW434306   4.311   2.774   5.174 -0.0395  0.3548  0.3889
 8634SOL     OW34307   3.236   4.557   1.237  0.0882 -0.5474  0.3083
 8634SOL    HW234308   3.144   4.531   1.228  0.0798 -0.5446  0.3832
 8634SOL    HW334309   3.235   4.652   1.228 -0.0175 -0.4674  1.0910
 8634SOL    MW434310   3.224   4.566   1.235 -0.1301 -0.1894  0.4199
 8635SOL     OW34311   4.454   0.231   1.511  0.7711  0.4624  0.3847
 8635SOL    HW234312   4.490   0.236   1.422 -1.3824 -0.1886 -0.5731
 8635SOL    HW334313   4.488   0.148   1.545  2.4223  1.1765  0.5984
 8635SOL    MW434314   4.463   0.221   1.503 -0.6415  0.6418  0.2549
 8636SOL     OW34315   3.687   0.162   5.277  0.3404  0.0991 -0.1601
 8636SOL    HW234316   3.607   0.123   5.241 -0.0156  0.2796  0.4136
 8636SOL    HW334317   3.655   0.230   5.335  0.8310 -1.0714  1.5573
 8636SOL    MW434318   3.672   0.166   5.280 -0.2309  0.6470 -0.6467
 8637SOL     OW34319   3.588   0.193   0.199 -0.3271 -0.0093 -0.0292
 8637SOL    HW234320   3.540   0.137   0.261 -1.2104  0.9737  0.1994
 8637SOL    HW334321   3.532   0.270   0.188  0.1455  0.1372 -1.5343
 8637SOL    MW434322   3.574   0.196   0.206  0.7158 -0.1632  0.3069
 8638SOL     OW34323   2.278   4.009   4.633 -0.9179 -0.0943 -0.2575
 8638SOL    HW234324   2.317   3.933   4.590  2.4645  1.5963 -0.5260
 8638SOL    HW334325   2.243   4.062   4.561  0.6252  0.5674 -0.5647
 8638SOL    MW434326   2.279   4.006   4.618  0.4185 -0.1931  0.3634
 8639SOL     OW34327   2.471   6.414   0.594 -0.3867 -0.4330 -0.4873
 8639SOL    HW234328   2.527   6.347   0.554  1.3888  1.7178 -1.8380
 8639SOL    HW334329   2.489   6.493   0.544 -3.1534  0.8822  0.4063
 8639SOL    MW434330   2.481   6.415   0.582 -0.7297  0.2135  0.0701
 8640SOL     OW34331   4.954   6.297   5.748 -0.2022  0.1414  0.0994
 8640SOL    HW234332   5.020   6.311   5.680  1.2109 -1.2645  1.0907
 8640SOL    HW334333   4.912   6.214   5.724 -0.5462  0.2662  0.2770
 8640SOL    MW434334   4.957   6.288   5.736 -0.1560  0.5049  0.3443
 8641SOL     OW34335   4.457   5.151   3.375  0.1004  0.2385 -0.0276
 8641SOL    HW234336   4.372   5.171   3.415 -0.2547 -0.4743 -0.4042
 8641SOL    HW334337   4.520   5.196   3.431 -0.5877  1.7185 -0.3837
 8641SOL    MW434338   4.454   5.159   3.388  0.5126  0.1903 -0.5098
 8642SOL     OW34339   5.587   1.247   3.069  0.4933  0.3450 -0.0194
 8642SOL    HW234340   5.643   1.305   3.017  2.0166 -0.0720  1.0906
 8642SOL    HW334341   5.522   1.305   3.109  1.7937  1.2695  0.8212
 8642SOL    MW434342   5.586   1.262   3.067 -0.4774  0.1195 -0.0458
 8643SOL     OW34343   5.942   0.839   5.462  0.0933 -0.9644 -0.2148
 8643SOL    HW234344   6.017   0.780   5.464  1.4902  0.5634 -2.6159
 8643SOL    HW334345   5.867   0.783   5.447  0.8776 -2.4051  0.9472
 8643SOL    MW434346   5.942   0.824   5.461  0.1007 -0.2243 -0.0242
 8644SOL     OW34347   6.179   0.040   5.725 -0.5447 -0.1758  0.5874
 8644SOL    HW234348   6.165   0.106   5.658  0.3412 -0.1060  0.4509
 8644SOL    HW334349   6.163   0.086   5.808  2.2871  0.9137  0.6357
 8644SOL    MW434350   6.175   0.055   5.727 -1.0283 -0.2165  0.1627
 8645SOL     OW34351   2.559   3.877   2.080  0.1215  0.4750  0.2019
 8645SOL    HW234352   2.629   3.929   2.121  2.6999 -2.2326 -0.4409
 8645SOL    HW334353   2.589   3.863   1.990 -0.9776 -1.2487  0.0706
 8645SOL    MW434354   2.572   3.882   2.074  0.0066  0.0510  0.1335
 8646SOL     OW34355   5.091   1.592   3.404 -0.0341  0.3799 -0.4568
 8646SOL    HW234356   5.164   1.537   3.431 -0.3767 -0.2958 -0.8905
 8646SOL    HW334357   5.081   1.654   3.476 -0.6461 -1.1178  0.8271
 8646SOL    MW434358   5.099   1.593   3.417 -0.0409  0.1299  0.2005
 8647SOL     OW34359   3.401   6.421   5.450 -0.3157 -0.4248 -0.3794
 8647SOL    HW234360   3.355   6.339   5.429 -0.0912 -0.6654  0.0542
 8647SOL    HW334361   3.453   6.400   5.527  1.4910 -0.5299 -1.5514
 8647SOL    MW434362   3.402   6.407   5.457  0.4411 -0.0440 -0.3870
 8648SOL     OW34363   2.860   1.330   2.532 -0.3595 -0.0811  0.0763
 8648SOL    HW234364   2.920   1.353   2.603 -1.9547 -1.1386  1.8673
 8648SOL    HW334365   2.901   1.254   2.489  0.7879  0.7822 -0.4241
 8648SOL    MW434366   2.874   1.323   2.536 -0.3143  0.2122 -0.1273
 8649SOL     OW34367   2.734   5.605   5.903 -0.3301 -0.4388 -0.1309
 8649SOL    HW234368   2.773   5.589   5.988  1.6590  0.1331 -0.8820
 8649SOL    HW334369   2.703   5.695   5.906  1.9016  0.3924 -0.7525
 8649SOL    MW434370   2.735   5.615   5.914  0.0476 -0.4621 -0.4962
 8650SOL     OW34371   6.374   2.296   0.477  0.0414  0.1281  0.0784
 8650SOL    HW234372   6.311   2.229   0.452 -0.2354 -0.4258  2.0664
 8650SOL    HW334373   6.459   2.252   0.471 -0.0688 -0.1644  0.5958
 8650SOL    MW434374   6.377   2.281   0.473  0.8706 -0.2330 -0.0286
 8651SOL     OW34375   4.079   0.430   2.065 -0.0683  0.3341  0.6491
 8651SOL    HW234376   4.043   0.386   2.142  0.1345  0.7761  1.0031
 8651SOL    HW334377   4.164   0.463   2.093  0.6140 -0.6630 -0.1724
 8651SOL    MW434378   4.085   0.429   2.079  0.2785 -0.1609  0.2640
 8652SOL     OW34379   1.617   5.379   1.985 -0.4063 -0.2937  0.2970
 8652SOL    HW234380   1.615   5.385   1.890  1.4050 -1.3603  0.1483
 8652SOL    HW334381   1.598   5.467   2.016 -0.1613  0.2435 -1.0658
 8652SOL    MW434382   1.614   5.391   1.977  0.5556  0.1656 -0.0602
 8653SOL     OW34383   3.564   5.953   6.116 -0.0651  1.0850 -0.3633
 8653SOL    HW234384   3.522   6.006   6.183  0.5378 -0.5191  1.3641
 8653SOL    HW334385   3.653   5.939   6.148  0.2689  0.3311 -1.5392
 8653SOL    MW434386   3.570   5.958   6.129 -0.2994 -0.1155 -0.2273
 8654SOL     OW34387   0.844   5.085   5.291 -0.1437 -0.6057  0.0339
 8654SOL    HW234388   0.894   5.159   5.325  1.0843 -0.0628 -2.6651
 8654SOL    HW334389   0.770   5.125   5.245  0.5074 -0.9948 -1.4175
 8654SOL    MW434390   0.841   5.100   5.289 -0.4718  0.6727  0.2496
 8655SOL     OW34391   6.251   1.057   2.879 -0.0744 -0.3741 -0.0795
 8655SOL    HW234392   6.315   1.106   2.932 -0.8599 -0.3841  0.9220
 8655SOL    HW334393   6.270   0.965   2.898  0.0505 -0.3981 -0.3186
 8655SOL    MW434394   6.262   1.051   2.889 -0.1489 -0.0688 -0.4514
 8656SOL     OW34395   0.905   0.614   6.261 -0.8381 -0.0156 -0.3136
 8656SOL    HW234396   0.897   0.573   6.175 -2.8648 -1.4803  0.4941
 8656SOL    HW334397   0.992   0.586   6.292  0.4229  1.4641 -2.2619
 8656SOL    MW434398   0.916   0.605   6.254  0.6496 -0.2880 -0.0679
 8657SOL     OW34399   6.272   1.450   4.588 -0.3300  0.3178 -0.2611
 8657SOL    HW234400   6.346   1.431   4.531 -0.3568  1.5632 -0.7561
 8657SOL    HW334401   6.309   1.506   4.657 -0.8319  1.1463 -0.6472
 8657SOL    MW434402   6.287   1.455   4.590 -0.0880 -0.7604 -0.1742
 8658SOL     OW34403   5.975   0.718   5.888 -0.5610 -0.2791 -0.1594
 8658SOL    HW234404   6.058   0.681   5.918 -1.6627 -0.7009  2.5796
 8658SOL    HW334405   5.993   0.812   5.880  0.0938 -0.3222  0.7005
 8658SOL    MW434406   5.988   0.726   5.891  0.2093  0.2523 -0.9060
 8659SOL     OW34407   3.329   4.393   5.080  0.4878 -0.3033 -0.8813
 8659SOL    HW234408   3.399   4.335   5.050 -0.0576 -1.8198  0.6121
 8659SOL    HW334409   3.369   4.443   5.151  0.2958 -0.5685 -0.5857
 8659SOL    MW434410   3.344   4.392   5.085  0.3476  0.1661  0.0531
 8660SOL     OW34411   5.451   1.506   5.318  0.2695  0.4733  0.7939
 8660SOL    HW234412   5.418   1.464   5.239 -1.2707 -0.3473  1.8228
 8660SOL    HW334413   5.386   1.574   5.338  1.2948  1.5218  0.6886
 8660SOL    MW434414   5.438   1.510   5.310 -0.3675 -0.6681  0.3037
 8661SOL     OW34415   0.411   5.018   4.833 -0.4157  0.3945 -0.4894
 8661SOL    HW234416   0.453   5.079   4.894  1.3982  0.1719 -1.4463
 8661SOL    HW334417   0.318   5.020   4.857 -0.1852  2.4164  0.4539
 8661SOL    MW434418   0.404   5.027   4.844 -0.0339  0.0918  0.5953
 8662SOL     OW34419   6.406   2.966   4.646 -0.4140  0.4615  0.5904
 8662SOL    HW234420   6.420   2.925   4.731  0.9691 -0.0533  0.1410
 8662SOL    HW334421   6.347   2.906   4.600  0.4127 -0.2935  0.4808
 8662SOL    MW434422   6.400   2.953   4.651 -0.0237  0.5116 -0.2881
 8663SOL     OW34423   4.690   2.450   2.545  0.1533 -0.5318 -0.3917
 8663SOL    HW234424   4.699   2.382   2.478  3.6126 -0.4286 -0.2209
 8663SOL    HW334425   4.762   2.511   2.528 -1.0164  1.4808  1.2957
 8663SOL    MW434426   4.701   2.449   2.534 -0.1710  0.3320  0.2631
 8664SOL     OW34427   0.164   4.293   3.943 -0.2627  0.2953 -0.1887
 8664SOL    HW234428   0.191   4.246   4.021 -0.0381  0.1216 -0.3709
 8664SOL    HW334429   0.068   4.293   3.947 -0.3853 -2.2545 -1.3854
 8664SOL    MW434430   0.155   4.287   3.954 -0.1451 -0.3704  0.8229
 8665SOL     OW34431   4.510   2.136   1.400  0.5278  0.5398 -0.2957
 8665SOL    HW234432   4.513   2.040   1.406  0.4326  0.3636 -2.3249
 8665SOL    HW334433   4.438   2.161   1.459 -0.3356 -0.7690 -0.7430
 8665SOL    MW434434   4.501   2.126   1.409 -0.3690  0.3732 -0.1833
 8666SOL     OW34435   0.854   3.395   5.004  0.6866  0.6935  0.0238
 8666SOL    HW234436   0.895   3.348   5.077 -0.0741  0.2103  0.1533
 8666SOL    HW334437   0.769   3.424   5.039 -1.0663 -2.1112 -1.4621
 8666SOL    MW434438   0.848   3.392   5.018  0.2731 -0.2870 -0.3551
 8667SOL     OW34439   5.416   5.957   4.605  0.1252  0.2879  0.0133
 8667SOL    HW234440   5.374   5.993   4.527  0.5427 -0.0423 -0.3731
 8667SOL    HW334441   5.485   6.020   4.626  1.4024 -0.6444 -1.1544
 8667SOL    MW434442   5.420   5.970   4.597 -0.6911 -0.3651 -0.3531
 8668SOL     OW34443   2.993   2.074   2.627  0.0907 -0.4054  0.2784
 8668SOL    HW234444   3.059   2.009   2.603 -0.0419 -1.0487  1.6034
 8668SOL    HW334445   2.929   2.069   2.556 -0.0665 -1.9399  0.5001
 8668SOL    MW434446   2.993   2.065   2.614 -0.8260 -0.0152  0.3024
 8669SOL     OW34447   1.700   4.365   1.025 -0.2631  0.3813  0.9139
 8669SOL    HW234448   1.752   4.402   0.953 -0.8722  1.0662  0.8156
 8669SOL    HW334449   1.669   4.281   0.991 -0.0068  0.4039  0.6196
 8669SOL    MW434450   1.703   4.359   1.011  0.0858  0.0148  0.1798
 8670SOL     OW34451   4.458   1.551   1.180 -0.2796 -0.5855 -0.2601
 8670SOL    HW234452   4.413   1.604   1.245  0.2097 -1.6594  1.0039
 8670SOL    HW334453   4.392   1.534   1.112 -1.3170 -0.8153  0.7733
 8670SOL    MW434454   4.443   1.555   1.179 -0.6264  0.2862 -0.2091
 8671SOL     OW34455   0.392   4.305   3.774 -0.6421  0.0864  0.1750
 8671SOL    HW234456   0.430   4.218   3.759 -0.2158  0.2662  0.2176
 8671SOL    HW334457   0.313   4.287   3.826  0.2190 -0.1623  1.4291
 8671SOL    MW434458   0.386   4.291   3.779 -0.1335  0.1848 -0.7292
 8672SOL     OW34459   3.932   5.274   1.829  0.2142 -0.3455 -0.4189
 8672SOL    HW234460   3.841   5.257   1.853  0.7157 -2.7542  0.0538
 8672SOL    HW334461   3.926   5.336   1.756 -1.8798 -1.6892 -1.4904
 8672SOL    MW434462   3.919   5.280   1.823  0.5972 -0.0350 -0.2663
 8673SOL     OW34463   3.409   2.646   6.359  0.2087  0.5761  0.0203
 8673SOL    HW234464   3.379   2.670   6.271 -0.9073 -0.7736 -0.0188
 8673SOL    HW334465   3.331   2.653   6.413  0.7025  0.6170  0.7343
 8673SOL    MW434466   3.395   2.650   6.354 -0.3551  0.1886 -0.5488
 8674SOL     OW34467   2.431   1.555   4.140  0.0189  0.0608  0.3144
 8674SOL    HW234468   2.347   1.515   4.117  0.1914  1.0115 -2.2936
 8674SOL    HW334469   2.492   1.482   4.147 -0.5615 -0.4666 -0.0736
 8674SOL    MW434470   2.428   1.540   4.138  0.3773 -0.3326  0.1985
 8675SOL     OW34471   3.501   5.357   1.578 -0.1070 -0.0829  0.7024
 8675SOL    HW234472   3.465   5.408   1.505  3.2437 -1.0605 -1.8799
 8675SOL    HW334473   3.519   5.271   1.540 -1.0346 -1.7108  3.5980
 8675SOL    MW434474   3.498   5.352   1.563 -0.2464 -0.0479  0.1356
 8676SOL     OW34475   3.310   5.403   2.508 -0.0109  0.1115  0.1288
 8676SOL    HW234476   3.261   5.358   2.577 -0.1713  0.3452  0.1695
 8676SOL    HW334477   3.340   5.333   2.450 -2.2796  0.0869 -1.1543
 8676SOL    MW434478   3.307   5.388   2.509  0.2199  0.1876  0.2351
 8677SOL     OW34479   3.284   2.142   1.192 -0.1708  0.0052 -0.0131
 8677SOL    HW234480   3.217   2.188   1.140 -0.5035  0.6072  0.9297
 8677SOL    HW334481   3.364   2.149   1.139 -0.5301  0.4921 -0.5058
 8677SOL    MW434482   3.286   2.149   1.178 -0.3025  0.1716 -0.1152
 8678SOL     OW34483   3.258   1.029   2.215 -0.4434  0.3393  0.3963
 8678SOL    HW234484   3.338   1.058   2.172 -0.4205 -1.5821 -0.9634
 8678SOL    HW334485   3.188   1.079   2.173 -0.2977 -0.6598 -1.0805
 8678SOL    MW434486   3.259   1.039   2.204  0.1686  0.6835  0.0010
 8679SOL     OW34487   1.804   0.955   0.511 -0.1585  0.0241  0.0542
 8679SOL    HW234488   1.778   0.973   0.601  0.6188 -0.6728  0.4353
 8679SOL    HW334489   1.866   0.882   0.518  0.0154  0.0487 -1.0287
 8679SOL    MW434490   1.809   0.948   0.524 -0.4289  0.3524 -0.4050
 8680SOL     OW34491   1.486   0.961   6.299  0.0341  0.3267  0.0548
 8680SOL    HW234492   1.426   0.915   6.357 -1.1263  1.2021 -0.4074
 8680SOL    HW334493   1.573   0.929   6.324 -0.7240 -3.2535 -1.2048
 8680SOL    MW434494   1.490   0.950   6.310  0.9691  0.0901 -0.1639
 8681SOL     OW34495   3.174   5.439   1.165 -0.0077  0.5023 -0.1665
 8681SOL    HW234496   3.225   5.488   1.230  1.0381 -0.5416 -0.1684
 8681SOL    HW334497   3.234   5.371   1.135 -1.0387 -0.0359 -1.0305
 8681SOL    MW434498   3.189   5.437   1.170  0.4127  0.0466  0.0403
 8682SOL     OW34499   0.267   4.750   4.970  0.2116  0.0083 -0.0776
 8682SOL    HW234500   0.275   4.774   5.063  0.2016 -0.2243 -0.0179
 8682SOL    HW334501   0.185   4.791   4.943  0.9208  1.2972 -0.3607
 8682SOL    MW434502   0.257   4.759   4.979  0.5739 -0.6082  0.3259
 8683SOL     OW34503   6.274   4.094   0.349 -0.2774  0.2495 -0.0191
 8683SOL    HW234504   6.339   4.064   0.285 -0.5509  0.9105 -0.6097
 8683SOL    HW334505   6.286   4.035   0.424  0.0720 -0.5100 -0.6551
 8683SOL    MW434506   6.284   4.082   0.350  0.1182 -0.4427 -0.2142
 8684SOL     OW34507   4.047   2.701   5.719  0.1288 -0.4532 -0.3284
 8684SOL    HW234508   4.129   2.696   5.768  0.6166 -1.2417 -1.1858
 8684SOL    HW334509   4.073   2.726   5.631 -0.3402 -2.2124 -1.0191
 8684SOL    MW434510   4.061   2.703   5.714 -0.0998 -0.1662 -0.6378
 8685SOL     OW34511   5.749   4.341   4.268  0.1807 -0.2052  0.0659
 8685SOL    HW234512   5.800   4.301   4.197  1.5024 -0.3817  1.0903
 8685SOL    HW334513   5.774   4.293   4.346  1.2794  2.0853  1.2224
 8685SOL    MW434514   5.759   4.330   4.269 -0.1220  0.3662 -0.0094
 8686SOL     OW34515   2.234   4.803   4.142  0.1272 -0.0890 -0.0675
 8686SOL    HW234516   2.304   4.738   4.137  1.0101  0.8173  0.2009
 8686SOL    HW334517   2.208   4.802   4.234 -0.8068 -1.0147 -0.3247
 8686SOL    MW434518   2.240   4.794   4.154 -0.2529  0.1314  0.5050
 8687SOL     OW34519   2.280   6.127   1.586 -0.7246  0.5452  0.5043
 8687SOL    HW234520   2.363   6.090   1.615 -0.5503 -0.9012 -1.5697
 8687SOL    HW334521   2.250   6.067   1.517 -3.6436  0.8640  1.3648
 8687SOL    MW434522   2.287   6.115   1.580  0.0014 -0.2151 -0.4175
 8688SOL     OW34523   2.048   1.848   2.222  0.1669 -1.0455 -0.0969
 8688SOL    HW234524   2.024   1.915   2.158 -1.5380 -0.8559  0.6867
 8688SOL    HW334525   2.135   1.818   2.195  0.1950  0.2237 -1.4886
 8688SOL    MW434526   2.056   1.853   2.210  0.5307 -0.1218  0.1909
 8689SOL     OW34527   4.526   1.731   5.442  0.2014 -0.1592 -0.1653
 8689SOL    HW234528   4.433   1.741   5.419  0.7968  4.1330 -1.7139
 8689SOL    HW334529   4.553   1.650   5.400 -2.6383 -1.1423 -0.3159
 8689SOL    MW434530   4.517   1.722   5.434 -0.6081 -0.3527 -0.0974
 8690SOL     OW34531   1.534   4.943   1.630  0.1326  0.3417 -0.0187
 8690SOL    HW234532   1.561   4.960   1.539 -0.6258  0.0862 -0.2989
 8690SOL    HW334533   1.604   4.888   1.665  1.2172  1.7039  0.0436
 8690SOL    MW434534   1.547   4.938   1.623 -0.2865 -0.3946  0.1979
 8691SOL     OW34535   2.066   0.842   5.884 -0.6452 -1.0530  0.1510
 8691SOL    HW234536   2.088   0.759   5.925  0.5080 -2.8965 -3.6637
 8691SOL    HW334537   2.147   0.870   5.841 -1.9751 -0.1576 -1.9727
 8691SOL    MW434538   2.080   0.835   5.883 -0.5557 -0.0517  0.4568
 8692SOL     OW34539   4.875   4.725   0.160  0.3360 -0.4447 -0.0067
 8692SOL    HW234540   4.780   4.723   0.144  0.5313 -0.7236 -1.1916
 8692SOL    HW334541   4.914   4.730   0.073  1.4235 -0.5283  0.4640
 8692SOL    MW434542   4.867   4.725   0.146 -0.0700  0.3163 -0.1227
 8693SOL     OW34543   2.874   1.778   5.155 -0.0673  0.1001  0.0901
 8693SOL    HW234544   2.826   1.697   5.137 -0.4423  0.4007 -0.2987
 8693SOL    HW334545   2.911   1.803   5.070 -0.9495  0.9621 -0.0535
 8693SOL    MW434546   2.873   1.771   5.141 -0.1270 -0.3657 -0.1190
 8694SOL     OW34547   1.629   3.954   4.444  0.0224  0.0128  0.2514
 8694SOL    HW234548   1.607   3.900   4.368 -2.9122  0.0793  0.9040
 8694SOL    HW334549   1.616   4.044   4.414 -0.9722  0.0459  0.7179
 8694SOL    MW434550   1.624   3.959   4.430 -0.2917 -0.0037  0.5757
 8695SOL     OW34551   6.194   0.447   0.850 -0.7256  0.3964  0.1546
 8695SOL    HW234552   6.168   0.475   0.938 -1.4373 -1.7450  0.7001
 8695SOL    HW334553   6.113   0.451   0.799 -0.5224  0.7200 -0.1424
 8695SOL    MW434554   6.180   0.451   0.855 -0.2641 -0.5616 -0.3395
 8696SOL     OW34555   3.888   4.936   5.191  0.0618 -0.4837 -0.7443
 8696SOL    HW234556   3.950   4.951   5.119  1.1224 -1.3849 -0.0473
 8696SOL    HW334557   3.822   4.878   5.153 -0.4546  0.5838 -1.5310
 8696SOL    MW434558   3.888   4.931   5.176  0.2557  0.2568  0.4766
 8697SOL     OW34559   0.638   1.451   2.786 -0.5820 -0.4296 -0.2115
 8697SOL    HW234560   0.683   1.402   2.717 -2.7449  0.1749 -2.1733
 8697SOL    HW334561   0.686   1.429   2.866  1.6868 -1.6214 -1.7879
 8697SOL    MW434562   0.650   1.442   2.787  0.7497  0.7043 -0.7966
 8698SOL     OW34563   1.902   2.771   0.056  0.3383 -0.5452  0.1347
 8698SOL    HW234564   1.837   2.831   0.018 -0.1024 -0.7334  0.5721
 8698SOL    HW334565   1.867   2.684   0.037  0.8653 -0.6591 -0.3091
 8698SOL    MW434566   1.889   2.767   0.048  0.4608  0.3141 -0.4013
 8699SOL     OW34567   0.577   4.619   5.297  0.2300  0.9917 -0.0960
 8699SOL    HW234568   0.494   4.577   5.319  0.1082  2.9401  4.1009
 8699SOL    HW334569   0.620   4.558   5.237 -2.9257 -1.4946 -0.0665
 8699SOL    MW434570   0.572   4.605   5.292 -0.1800  0.0866  0.0550
 8700SOL     OW34571   2.249   4.383   5.100  0.6586  0.1133  0.1801
 8700SOL    HW234572   2.223   4.463   5.146 -1.6866 -0.5944  0.2195
 8700SOL    HW334573   2.261   4.411   5.009 -3.8168  0.0521 -0.6605
 8700SOL    MW434574   2.247   4.397   5.094 -0.0397 -0.1045 -0.7310
 8701SOL     OW34575   4.493   3.722   0.878 -0.1266 -0.4263  0.1874
 8701SOL    HW234576   4.399   3.739   0.875  0.1046  0.9630 -2.9896
 8701SOL    HW334577   4.511   3.703   0.971 -3.0596  1.8422  1.3764
 8701SOL    MW434578   4.483   3.722   0.890 -0.3513 -0.4261 -0.5682
 8702SOL     OW34579   1.618   1.476   0.113  0.6623 -0.0429 -0.6173
 8702SOL    HW234580   1.552   1.410   0.092  0.6624 -0.2592  0.0283
 8702SOL    HW334581   1.572   1.539   0.169  1.4768 -1.2857  1.5751
 8702SOL    MW434582   1.603   1.475   0.118  0.4698 -0.1934  0.4371
 8703SOL     OW34583   5.655   6.099   4.654  0.4373  0.5454 -0.1608
 8703SOL    HW234584   5.700   6.168   4.606 -1.1753  2.3820  0.8081
 8703SOL    HW334585   5.710   6.021   4.644  1.4107  1.4931 -2.8012
 8703SOL    MW434586   5.668   6.098   4.647  0.6442 -0.1506  0.1427
 8704SOL     OW34587   4.116   4.339   5.837 -0.1181 -0.4661  0.2483
 8704SOL    HW234588   4.070   4.325   5.755 -1.2349  2.3761  0.2559
 8704SOL    HW334589   4.185   4.402   5.815  0.5708 -0.8668  1.1967
 8704SOL    MW434590   4.119   4.346   5.824 -0.4866  0.4657  0.3328
 8705SOL     OW34591   2.886   6.399   3.951 -0.6848 -0.1683 -0.2040
 8705SOL    HW234592   2.973   6.425   3.919  0.1116 -0.7658  1.4099
 8705SOL    HW334593   2.826   6.459   3.906  0.5279  0.1836 -1.4402
 8705SOL    MW434594   2.890   6.411   3.941  0.0992  0.3943  0.0150
 8706SOL     OW34595   0.850   1.483   1.935  0.9146 -0.3727  0.0894
 8706SOL    HW234596   0.900   1.545   1.883  1.0758  0.9417  1.7359
 8706SOL    HW334597   0.911   1.454   2.003 -0.2095  0.4708  1.5026
 8706SOL    MW434598   0.865   1.487   1.937  0.1428 -0.5328 -0.0664
 8707SOL     OW34599   6.346   1.002   3.571 -0.0897  0.7156 -0.0262
 8707SOL    HW234600   6.272   1.061   3.556 -0.6045  0.7503  2.2549
 8707SOL    HW334601   6.347   0.989   3.666  1.7957 -0.6593 -0.1814
 8707SOL    MW434602   6.336   1.008   3.582 -0.2413  0.3287  0.4711
 8708SOL     OW34603   1.932   3.861   3.589  0.1636  1.0006 -0.0497
 8708SOL    HW234604   1.961   3.932   3.532  0.7654  1.6664  1.0620
 8708SOL    HW334605   1.992   3.863   3.663 -1.0125  0.6013  0.9437
 8708SOL    MW434606   1.943   3.870   3.591  0.1138  0.1079 -0.4071
 8709SOL     OW34607   1.438   4.215   2.772  0.1587 -0.3184  0.1899
 8709SOL    HW234608   1.435   4.143   2.834 -0.9795  0.5049  1.1362
 8709SOL    HW334609   1.357   4.207   2.722 -0.4614  0.8419  0.9626
 8709SOL    MW434610   1.427   4.205   2.773 -0.4515 -0.3079  0.1142
 8710SOL     OW34611   3.153   4.428   2.871 -0.4931  0.1803 -0.5121
 8710SOL    HW234612   3.216   4.356   2.871  0.0543  0.5353 -3.4368
 8710SOL    HW334613   3.076   4.393   2.914  0.7959 -1.1280  0.8318
 8710SOL    MW434614   3.151   4.414   2.876  0.2678  0.3446 -0.3333
 8711SOL     OW34615   3.328   5.700   4.768 -0.1896 -0.1142  0.4981
 8711SOL    HW234616   3.277   5.628   4.732 -0.6822  0.4579  0.0257
 8711SOL    HW334617   3.391   5.658   4.826 -0.2575 -0.9470 -0.0107
 8711SOL    MW434618   3.329   5.685   4.771  1.1522  0.2103  0.0011
 8712SOL     OW34619   4.131   1.771   4.713 -0.4965  0.4093 -0.3262
 8712SOL    HW234620   4.059   1.744   4.656 -0.2236 -0.1994 -0.3863
 8712SOL    HW334621   4.204   1.715   4.689 -0.1837  0.5920  0.1712
 8712SOL    MW434622   4.131   1.760   4.702 -0.1864  0.0396  0.2094
 8713SOL     OW34623   2.487   2.399   1.349 -0.2073  0.0882 -0.0776
 8713SOL    HW234624   2.503   2.389   1.443  1.7363 -0.8117 -0.4675
 8713SOL    HW334625   2.479   2.494   1.337  1.1481  0.3412  0.7723
 8713SOL    MW434626   2.488   2.410   1.360  0.0715  0.1206 -0.3950
 8714SOL     OW34627   2.435   5.460   6.293  0.2211 -0.3220  0.2118
 8714SOL    HW234628   2.419   5.386   6.352 -0.2065 -0.1448  0.3179
 8714SOL    HW334629   2.368   5.524   6.315  0.2007 -0.1577 -0.3098
 8714SOL    MW434630   2.424   5.458   6.304  0.1381 -0.0462 -0.2780
 8715SOL     OW34631   5.427   1.102   2.387  0.1159 -0.0360  0.1023
 8715SOL    HW234632   5.445   1.186   2.429 -1.4042 -0.3185  1.4126
 8715SOL    HW334633   5.385   1.050   2.455 -0.0882 -1.4333 -1.0487
 8715SOL    MW434634   5.424   1.106   2.402 -0.5559  0.3190  0.3537
 8716SOL     OW34635   4.294   4.291   3.159  0.3716 -0.5451 -0.1618
 8716SOL    HW234636   4.250   4.214   3.122 -0.3504 -0.1162 -0.2005
 8716SOL    HW334637   4.371   4.254   3.204 -0.1064 -1.3144  0.0467
 8716SOL    MW434638   4.299   4.276   3.160 -0.0337 -0.7087  0.3598
 8717SOL     OW34639   0.348   3.873   5.224  0.0240  0.9657  0.7602
 8717SOL    HW234640   0.335   3.882   5.318  0.4921 -0.2725  0.9739
 8717SOL    HW334641   0.270   3.826   5.194 -0.8955  2.7761  0.2357
 8717SOL    MW434642   0.336   3.868   5.233 -0.6027 -0.0834 -0.1531
 8718SOL     OW34643   0.087   2.815   5.345 -0.4877 -0.5037  0.0766
 8718SOL    HW234644   0.028   2.870   5.292 -1.3985 -1.1418  0.4028
 8718SOL    HW334645   0.035   2.792   5.422  1.4815  2.1550  2.3878
 8718SOL    MW434646   0.072   2.819   5.348  0.0913  0.3565  0.1543
 8719SOL     OW34647   0.012   1.370   5.412 -0.6846 -0.1916  0.0687
 8719SOL    HW234648  -0.005   1.280   5.441 -2.2849  0.0890  0.0921
 8719SOL    HW334649  -0.069   1.417   5.432 -0.5072  0.8619 -1.5026
 8719SOL    MW434650  -0.001   1.364   5.419 -0.0582  0.1152 -0.3904
 8720SOL     OW34651   6.036   5.548   4.892  0.2321 -0.0451 -0.5543
 8720SOL    HW234652   6.012   5.469   4.844  0.9645 -0.2971 -0.5159
 8720SOL    HW334653   6.036   5.617   4.826 -0.0376 -0.1418 -0.6601
 8720SOL    MW434654   6.033   5.547   4.877  0.6480  0.7961 -0.0832
 8721SOL     OW34655   5.432   5.080   3.807 -0.0660  0.3497  0.3256
 8721SOL    HW234656   5.407   5.040   3.890 -0.2303  0.0175  0.1204
 8721SOL    HW334657   5.390   5.025   3.740  0.3108  0.4352  0.0141
 8721SOL    MW434658   5.423   5.067   3.809 -0.3905 -0.7314  0.0979
 8722SOL     OW34659   1.841   1.416   4.631  0.1373 -0.2486 -0.3060
 8722SOL    HW234660   1.842   1.449   4.541 -1.3518  0.3034 -0.1490
 8722SOL    HW334661   1.752   1.383   4.643  0.9546 -2.4088  0.2564
 8722SOL    MW434662   1.830   1.416   4.621  0.1615  0.2121  0.7607
 8723SOL     OW34663   6.024   4.999   1.668 -0.1191 -0.5284  0.1864
 8723SOL    HW234664   5.931   4.996   1.644 -0.0612 -1.6394  0.0498
 8723SOL    HW334665   6.024   4.998   1.764 -0.2475  0.0367  0.2006
 8723SOL    MW434666   6.011   4.999   1.678  0.6805 -0.0566 -0.3241
 8724SOL     OW34667   4.646   4.126   0.341 -0.1005 -0.4219 -0.2017
 8724SOL    HW234668   4.638   4.046   0.289  0.6012 -0.4225 -0.3155
 8724SOL    HW334669   4.623   4.099   0.430 -0.7238 -0.5515 -0.3951
 8724SOL    MW434670   4.642   4.112   0.346 -0.4006 -0.3813 -0.2722
 8725SOL     OW34671   1.173   5.416   3.375 -0.1852 -0.0605 -0.0245
 8725SOL    HW234672   1.189   5.471   3.452 -0.8319  0.0737  0.0237
 8725SOL    HW334673   1.105   5.463   3.326 -0.1071 -0.3766 -0.4363
 8725SOL    MW434674   1.166   5.430   3.379  0.6662  0.3643  0.0999
 8726SOL     OW34675   5.464   3.793   1.050  0.1482 -0.3585 -0.3076
 8726SOL    HW234676   5.535   3.843   1.011  0.0271 -0.1919 -0.3183
 8726SOL    HW334677   5.432   3.736   0.979 -0.7326  0.6621 -0.7591
 8726SOL    MW434678   5.469   3.792   1.035  0.5736 -0.5796  0.1161
 8727SOL     OW34679   2.369   4.963   3.337  0.1154 -0.5718 -0.3246
 8727SOL    HW234680   2.369   4.874   3.302 -0.0159 -0.0644 -1.6661
 8727SOL    HW334681   2.460   4.992   3.331  0.2499 -0.7835  0.5822
 8727SOL    MW434682   2.381   4.955   3.332  0.6858 -0.5187  0.6451
 8728SOL     OW34683   3.101   2.187   3.345 -0.4905  0.0350 -0.1026
 8728SOL    HW234684   3.152   2.147   3.274 -0.5241 -1.0053  0.4430
 8728SOL    HW334685   3.147   2.269   3.364  0.7327 -0.6599  0.0699
 8728SOL    MW434686   3.114   2.192   3.338 -0.6148 -0.3159 -0.6942
 8729SOL     OW34687   1.443   3.401   5.731 -0.2462  0.6200 -0.3391
 8729SOL    HW234688   1.521   3.417   5.677 -0.8123  0.6319 -1.1694
 8729SOL    HW334689   1.446   3.308   5.751  0.1229  0.6720 -0.1328
 8729SOL    MW434690   1.454   3.391   5.726 -0.3520  0.0070 -0.1763
 8730SOL     OW34691   4.950   1.842   5.865 -0.1729 -0.1545 -0.0834
 8730SOL    HW234692   4.888   1.858   5.936 -0.4831 -1.6262 -0.0019
 8730SOL    HW334693   4.902   1.787   5.803  1.1852 -1.7279  0.2082
 8730SOL    MW434694   4.935   1.837   5.866  0.0779 -0.2333 -0.4374
 8731SOL     OW34695   1.240   3.812   6.348  0.1254 -0.7699  0.4152
 8731SOL    HW234696   1.212   3.892   6.305  1.1063  0.1243  1.3832
 8731SOL    HW334697   1.207   3.741   6.292 -0.8808  0.2926 -0.3669
 8731SOL    MW434698   1.232   3.813   6.335 -0.1794  0.1476  0.2246
 8732SOL     OW34699   0.297   4.858   5.244  0.4534 -0.7916  0.4735
 8732SOL    HW234700   0.392   4.853   5.248  0.4351 -0.5670  1.3191
 8732SOL    HW334701   0.279   4.945   5.210  0.5364  0.2635  2.9370
 8732SOL    MW434702   0.307   4.869   5.240 -0.5694 -0.6697 -0.7645
 8733SOL     OW34703   1.284   5.792   3.636 -0.1666  0.6107 -0.4428
 8733SOL    HW234704   1.368   5.824   3.601  0.7758  1.1911  2.1105
 8733SOL    HW334705   1.267   5.848   3.711 -1.5519 -1.1400  0.6262
 8733SOL    MW434706   1.293   5.804   3.641  0.8839  0.3499 -0.9195
 8734SOL     OW34707   3.371   4.273   6.089  0.3091  0.6425 -0.1786
 8734SOL    HW234708   3.365   4.316   6.004 -0.4771  0.1438 -0.3859
 8734SOL    HW334709   3.358   4.344   6.153  0.8622  1.0094 -0.4598
 8734SOL    MW434710   3.369   4.288   6.087  0.1697  0.5791 -0.5313
 8735SOL     OW34711   1.135   4.485   6.295 -0.0191  0.6322  0.2628
 8735SOL    HW234712   1.164   4.497   6.205  2.8885 -0.7514  0.8906
 8735SOL    HW334713   1.070   4.415   6.290 -0.7499  1.3553 -0.8387
 8735SOL    MW434714   1.131   4.477   6.283 -0.0097  0.2197  0.5018
 8736SOL     OW34715   5.721   3.772   2.068  0.1270 -0.0481 -0.0604
 8736SOL    HW234716   5.786   3.732   2.010 -0.6120 -0.6783 -0.4743
 8736SOL    HW334717   5.740   3.865   2.065  1.0732 -0.2268 -0.0974
 8736SOL    MW434718   5.732   3.779   2.060  0.4281  0.5216 -0.5847
 8737SOL     OW34719   1.511   3.987   1.657  0.3621 -0.1090  0.0778
 8737SOL    HW234720   1.542   3.924   1.592 -2.3195 -0.2425 -1.1741
 8737SOL    HW334721   1.441   4.035   1.614  1.0023  2.4473  1.6557
 8737SOL    MW434722   1.506   3.985   1.643 -0.3906 -0.0991 -0.0904
 8738SOL     OW34723   1.648   1.910   6.125  1.0882  0.2006 -0.1534
 8738SOL    HW234724   1.674   1.935   6.213  1.2503 -0.3994 -0.0269
 8738SOL    HW334725   1.563   1.952   6.112  1.8416  1.7441 -0.3718
 8738SOL    MW434726   1.640   1.919   6.135  0.1536 -0.2126  0.4068
 8739SOL     OW34727   0.545   1.614   3.449 -0.1305  0.3272  0.2447
 8739SOL    HW234728   0.623   1.571   3.414 -1.3460 -0.3565 -1.7633
 8739SOL    HW334729   0.565   1.627   3.542  2.4145  0.3233 -0.2294
 8739SOL    MW434730   0.558   1.610   3.457 -0.5285 -0.3591  0.5128
 8740SOL     OW34731   4.496   2.752   0.702  0.0431 -0.3348  0.1445
 8740SOL    HW234732   4.478   2.791   0.788 -0.5075  0.7022 -0.4219
 8740SOL    HW334733   4.434   2.795   0.643  1.2454 -0.1140 -0.9986
 8740SOL    MW434734   4.486   2.763   0.705  0.4429 -0.2946 -0.4481
 8741SOL     OW34735   5.994   6.275   1.565  0.3392 -0.2862  0.3218
 8741SOL    HW234736   6.065   6.310   1.510  0.7034  1.0613  1.5833
 8741SOL    HW334737   5.943   6.220   1.506  1.2795  0.3215 -1.1138
 8741SOL    MW434738   5.997   6.272   1.550  0.1661 -0.0173  0.4680
 8742SOL     OW34739   5.974   1.153   6.303 -0.6520  0.2695 -0.6842
 8742SOL    HW234740   6.015   1.186   6.383  0.3209 -0.6518 -0.7767
 8742SOL    HW334741   6.045   1.151   6.239 -0.9677 -0.7550 -1.0252
 8742SOL    MW434742   5.989   1.157   6.305  0.0285 -0.6260  0.0110
 8743SOL     OW34743   4.706   2.775   3.843  0.1531  0.0257 -0.4723
 8743SOL    HW234744   4.697   2.851   3.901 -0.7090 -0.2185 -0.2663
 8743SOL    HW334745   4.631   2.782   3.784 -0.6939 -1.3530  0.3765
 8743SOL    MW434746   4.695   2.786   3.843 -0.7484  0.3844 -0.5541
 8744SOL     OW34747   4.162   6.241   5.491 -0.0833  0.0785 -0.0689
 8744SOL    HW234748   4.200   6.295   5.560 -0.7410  1.5869 -0.8359
 8744SOL    HW334749   4.126   6.304   5.428  2.7312 -1.1016 -3.1599
 8744SOL    MW434750   4.162   6.256   5.492 -0.1819 -0.0911  0.6503
 8745SOL     OW34751   3.208   1.839   3.865  0.3525 -0.0653  0.3620
 8745SOL    HW234752   3.221   1.806   3.776  0.2272  0.6573  0.0681
 8745SOL    HW334753   3.130   1.894   3.859  1.1386  1.1336  0.5925
 8745SOL    MW434754   3.199   1.842   3.852 -0.5497  0.1289  0.2200
 8746SOL     OW34755   2.054   0.103   5.760  0.3927  0.2320  0.1937
 8746SOL    HW234756   2.014   0.040   5.820  0.5354  1.2434  1.3739
 8746SOL    HW334757   1.997   0.103   5.683  0.8885 -2.0187 -0.2643
 8746SOL    MW434758   2.041   0.094   5.757  0.4302 -0.1688 -0.2094
 8747SOL     OW34759   3.809   0.293   5.763 -0.2361  0.5896 -0.4050
 8747SOL    HW234760   3.718   0.322   5.762 -0.0282  1.2718 -0.4183
 8747SOL    HW334761   3.806   0.199   5.746 -0.9232  0.6415 -0.5571
 8747SOL    MW434762   3.797   0.284   5.761  1.0528  0.0880 -0.7815
 8748SOL     OW34763   1.973   1.459   3.362 -0.3146 -0.6049 -0.8249
 8748SOL    HW234764   1.942   1.524   3.299  0.4056  0.7545  0.1691
 8748SOL    HW334765   1.913   1.385   3.352 -1.7923  0.6109 -1.2684
 8748SOL    MW434766   1.961   1.457   3.352 -0.2039 -0.3889  0.6288
 8749SOL     OW34767   2.047   3.448   3.317  0.0256 -0.4370 -0.1542
 8749SOL    HW234768   2.091   3.504   3.253 -0.6165 -1.0407 -1.1483
 8749SOL    HW334769   2.113   3.383   3.342  0.0168 -0.7249 -0.8696
 8749SOL    MW434770   2.062   3.447   3.312  0.1747  0.2367  0.0977
 8750SOL     OW34771   1.446   1.270   3.600 -0.1235 -0.0593 -0.4677
 8750SOL    HW234772   1.465   1.186   3.642 -0.5099  0.1636  0.1590
 8750SOL    HW334773   1.440   1.332   3.672  0.5842  0.6024 -0.9544
 8750SOL    MW434774   1.448   1.267   3.615  0.4461  0.2673 -0.1932
 8751SOL     OW34775   5.405   4.495   2.014  0.3465 -0.1686 -0.4866
 8751SOL    HW234776   5.336   4.429   2.007  0.0696 -0.0062  0.5207
 8751SOL    HW334777   5.411   4.533   1.927 -0.4140 -0.6165 -0.7459
 8751SOL    MW434778   5.396   4.491   2.002 -0.6564 -0.6142 -0.4122
 8752SOL     OW34779   2.978   2.642   3.882 -0.4182  0.5014 -0.1677
 8752SOL    HW234780   3.027   2.586   3.942  1.1908 -0.0916 -1.9414
 8752SOL    HW334781   2.915   2.583   3.840 -0.2016  0.4876 -0.4748
 8752SOL    MW434782   2.976   2.627   3.884  0.2722 -0.1533  0.4536
 8753SOL     OW34783   0.937   3.764   4.144  0.1963  0.5723  0.7060
 8753SOL    HW234784   0.892   3.784   4.226 -0.3229  0.0589  0.5529
 8753SOL    HW334785   0.867   3.740   4.084  0.4082  2.3275 -0.3318
 8753SOL    MW434786   0.921   3.764   4.147  0.0929  0.1686  0.5024
 8754SOL     OW34787   6.349   1.256   2.601  0.3721  0.0660 -0.3183
 8754SOL    HW234788   6.389   1.173   2.627 -1.8624 -0.4578  1.8157
 8754SOL    HW334789   6.423   1.316   2.590  1.9233 -1.7182 -0.0366
 8754SOL    MW434790   6.364   1.253   2.603  0.3028  0.8118  0.5775
 8755SOL     OW34791   0.375   1.822   3.102 -0.0397 -0.0712  0.7571
 8755SOL    HW234792   0.460   1.798   3.067 -1.3014 -2.7463 -0.8106
 8755SOL    HW334793   0.324   1.849   3.026 -1.8562 -2.8490  0.8195
 8755SOL    MW434794   0.379   1.822   3.087  0.5302 -0.1818  0.8129
 8756SOL     OW34795   3.330   1.821   3.229  0.4072  0.3324  0.8079
 8756SOL    HW234796   3.242   1.791   3.252  0.0523  1.5912  1.1660
 8756SOL    HW334797   3.327   1.836   3.134  0.6274 -0.8342  0.6021
 8756SOL    MW434798   3.318   1.819   3.219  0.2205 -0.0842 -0.3614
 8757SOL     OW34799   5.549   2.155   6.361 -0.0709 -0.1861 -0.0081
 8757SOL    HW234800   5.552   2.233   6.306  0.4432  1.4294  2.1774
 8757SOL    HW334801   5.484   2.098   6.318  0.4876  0.8259 -2.3683
 8757SOL    MW434802   5.540   2.158   6.348 -0.3726  0.5842 -0.3302
 8758SOL     OW34803   0.338   2.500   4.931  0.2518 -0.1293 -0.5581
 8758SOL    HW234804   0.377   2.414   4.948 -1.1588 -0.7306 -0.1642
 8758SOL    HW334805   0.373   2.556   5.000 -0.2384 -0.8833  0.3331
 8758SOL    MW434806   0.348   2.496   4.943 -0.0388  0.7101 -0.6695
 8759SOL     OW34807   4.481   2.964   3.073 -0.2230  0.7679 -0.0527
 8759SOL    HW234808   4.410   3.015   3.035 -0.4309 -0.0020 -0.7263
 8759SOL    HW334809   4.445   2.875   3.080  0.9368  0.1832 -1.1770
 8759SOL    MW434810   4.467   2.959   3.069 -0.8151 -0.3111 -0.2438
 8760SOL     OW34811   3.833   2.178   5.926 -0.1424 -0.1365 -0.2774
 8760SOL    HW234812   3.861   2.184   6.017  0.7460 -0.0769 -0.5478
 8760SOL    HW334813   3.879   2.101   5.892 -0.7443 -0.3725 -0.5863
 8760SOL    MW434814   3.843   2.168   5.933  0.4493  0.0039  0.1925
 8761SOL     OW34815   3.053   3.471   5.381 -0.0488  0.5863 -0.2026
 8761SOL    HW234816   3.067   3.539   5.315 -1.4773  0.1053 -1.0284
 8761SOL    HW334817   3.114   3.402   5.358 -2.3814 -0.7890 -2.7767
 8761SOL    MW434818   3.063   3.471   5.369 -0.0299 -0.7151  0.1355
 8762SOL     OW34819   2.986   4.098   2.465 -0.3335  0.0553  0.5181
 8762SOL    HW234820   3.053   4.099   2.396  0.7363  0.2794  1.5356
 8762SOL    HW334821   2.930   4.025   2.442  0.1242 -0.0005 -0.4876
 8762SOL    MW434822   2.988   4.089   2.453  0.5378 -0.2408 -0.2646
 8763SOL     OW34823   2.531   2.227   0.360 -0.4140 -0.5609 -0.5677
 8763SOL    HW234824   2.449   2.235   0.409  0.3203 -0.9558  0.7994
 8763SOL    HW334825   2.505   2.226   0.268 -1.7902  1.1654 -0.2511
 8763SOL    MW434826   2.517   2.228   0.355  0.4305 -0.4758  0.2949
 8764SOL     OW34827   3.207   2.230   2.102 -0.2417  0.6701 -0.2948
 8764SOL    HW234828   3.122   2.256   2.138 -0.4452  0.8417 -0.8752
 8764SOL    HW334829   3.185   2.174   2.027  0.1842 -0.4181  0.3813
 8764SOL    MW434830   3.193   2.226   2.097  0.6595 -0.0348 -0.0220
 8765SOL     OW34831   4.577   2.997   6.052 -0.3030  0.8710  0.0934
 8765SOL    HW234832   4.598   2.927   6.114 -1.0284  0.0610 -0.5555
 8765SOL    HW334833   4.663   3.027   6.021  0.0281  0.5618  0.6813
 8765SOL    MW434834   4.591   2.992   6.056 -0.0398  0.1975 -0.3004
 8766SOL     OW34835   2.001   2.125   5.861 -0.2884  0.0216 -0.0103
 8766SOL    HW234836   1.962   2.051   5.905 -1.5846  0.6586 -0.0419
 8766SOL    HW334837   2.080   2.090   5.819  1.3270 -0.5151  3.1634
 8766SOL    MW434838   2.006   2.111   5.861  0.1538  0.2460  0.3640
 8767SOL     OW34839   0.704   1.378   1.174 -0.3976 -0.2088  0.5805
 8767SOL    HW234840   0.709   1.293   1.130  0.6822  0.4476 -0.6393
 8767SOL    HW334841   0.748   1.364   1.259  0.7971 -0.6106 -0.0758
 8767SOL    MW434842   0.711   1.365   1.180  0.7109  0.0846 -0.1306
 8768SOL     OW34843   4.297   5.634   4.803 -0.6317  0.3172  0.2366
 8768SOL    HW234844   4.293   5.560   4.864  0.2446 -0.9100 -1.1274
 8768SOL    HW334845   4.241   5.607   4.729  2.1976 -0.5114 -1.7727
 8768SOL    MW434846   4.289   5.620   4.801  0.0899 -0.2061  0.0071
 8769SOL     OW34847   5.367   3.457   0.141 -0.4127  0.5089 -0.0010
 8769SOL    HW234848   5.399   3.367   0.133 -0.4222  0.4030  1.0571
 8769SOL    HW334849   5.361   3.473   0.235  0.5585  1.9646 -0.1513
 8769SOL    MW434850   5.370   3.447   0.152  0.5791 -0.2621  0.5191
 8770SOL     OW34851   6.200   6.401   1.421  0.4874 -0.1744  0.3044
 8770SOL    HW234852   6.294   6.415   1.426  0.2085  1.9498  0.4771
 8770SOL    HW334853   6.171   6.455   1.348 -0.1109 -4.1754 -2.7910
 8770SOL    MW434854   6.208   6.410   1.412  0.1695  0.0891 -0.5610
 8771SOL     OW34855   2.189   3.813   0.192  0.2085 -0.0600 -0.1173
 8771SOL    HW234856   2.167   3.899   0.155  2.2285  0.7789  0.5081
 8771SOL    HW334857   2.265   3.829   0.248  2.9782 -2.7986 -2.7020
 8771SOL    MW434858   2.196   3.826   0.195  0.2704 -0.0271 -0.2175
 8772SOL     OW34859   4.261   3.923   2.735  0.1011 -0.3749 -0.3419
 8772SOL    HW234860   4.228   3.876   2.811 -2.2878  1.1063 -0.3686
 8772SOL    HW334861   4.342   3.965   2.766 -0.4638 -0.3584  1.1833
 8772SOL    MW434862   4.268   3.923   2.749  0.2828  0.1864  0.2312
 8773SOL     OW34863   1.950   6.355   0.317  0.1471  0.5041 -0.4980
 8773SOL    HW234864   1.943   6.337   0.410  0.8784  1.1493 -0.3057
 8773SOL    HW334865   2.040   6.332   0.295 -0.0030  0.4120 -1.0344
 8773SOL    MW434866   1.961   6.349   0.326 -0.0396  0.6436 -0.0823
 8774SOL     OW34867   0.798   4.072   0.688  0.2605  0.2244  0.0070
 8774SOL    HW234868   0.729   4.059   0.753  0.6758  0.9154  0.5978
 8774SOL    HW334869   0.876   4.033   0.727  0.8400  1.8441  0.5505
 8774SOL    MW434870   0.799   4.065   0.702  0.0724 -0.3326 -0.2802
 8775SOL     OW34871   4.079   4.525   0.487  0.1401 -0.0261 -0.1678
 8775SOL    HW234872   4.063   4.537   0.393 -0.7751  0.3312  0.0153
 8775SOL    HW334873   4.114   4.609   0.516  0.8043 -0.2692 -0.2616
 8775SOL    MW434874   4.081   4.538   0.479 -0.3410  0.6047 -0.8245
 8776SOL     OW34875   2.898   0.185   2.148  0.2840  0.5546  0.5662
 8776SOL    HW234876   2.899   0.257   2.085  0.7375  1.4833  1.5971
 8776SOL    HW334877   2.974   0.200   2.203  0.4041 -0.7490  0.7940
 8776SOL    MW434878   2.908   0.196   2.147  0.5044  0.3892  0.2791
 8777SOL     OW34879   6.345   2.903   0.739  0.1493 -0.7779  0.5438
 8777SOL    HW234880   6.260   2.861   0.754 -1.3017  0.4879 -3.0442
 8777SOL    HW334881   6.383   2.856   0.665  1.5274  0.1538  0.6078
 8777SOL    MW434882   6.339   2.891   0.732 -0.0968  0.2648 -0.7776
 8778SOL     OW34883   6.029   3.157   1.384 -0.3839  0.0516  0.1134
 8778SOL    HW234884   6.100   3.184   1.326 -1.4841  3.9081  0.2437
 8778SOL    HW334885   6.069   3.149   1.470  0.6718 -2.6506 -0.5340
 8778SOL    MW434886   6.043   3.160   1.388 -0.1496  0.1806  0.5343
 8779SOL     OW34887   5.486   5.221   0.555 -0.2820 -0.0199  0.2556
 8779SOL    HW234888   5.404   5.189   0.592  0.9002 -1.0948  2.1396
 8779SOL    HW334889   5.469   5.229   0.461 -3.4340  2.8200  0.9186
 8779SOL    MW434890   5.473   5.218   0.547  0.6331 -0.1821 -0.1339
 8780SOL     OW34891   5.448   6.318   3.273  0.4337  0.1332 -0.1636
 8780SOL    HW234892   5.385   6.388   3.293  0.1092  0.7854 -3.0127
 8780SOL    HW334893   5.396   6.253   3.226  1.3573 -0.5946 -0.1897
 8780SOL    MW434894   5.433   6.319   3.269 -0.3081 -0.1191 -0.8030
 8781SOL     OW34895   0.302   0.344   4.500 -1.1957  0.5687  0.3221
 8781SOL    HW234896   0.280   0.321   4.590 -0.3216  0.4368  0.5074
 8781SOL    HW334897   0.280   0.265   4.450  1.8473 -0.8298  0.9688
 8781SOL    MW434898   0.296   0.330   4.505 -0.1913  0.1362 -0.3745
 8782SOL     OW34899   4.235   3.073   2.999 -0.1161 -0.3137  0.1066
 8782SOL    HW234900   4.171   3.008   3.024 -0.9565 -0.4684 -2.1941
 8782SOL    HW334901   4.222   3.085   2.905  1.7739  1.2532 -0.0319
 8782SOL    MW434902   4.225   3.066   2.990 -0.1922  0.0795  0.6094
 8783SOL     OW34903   4.840   2.699   1.332  0.1832  0.6024 -0.0355
 8783SOL    HW234904   4.885   2.783   1.329  0.6144  0.3415 -1.9348
 8783SOL    HW334905   4.787   2.698   1.252  1.4252 -1.5639 -0.9170
 8783SOL    MW434906   4.839   2.710   1.321 -0.6348 -0.6621  0.1812
 8784SOL     OW34907   2.736   2.702   4.736  0.3094  0.3520 -0.4416
 8784SOL    HW234908   2.644   2.714   4.761  0.9229  2.4535  1.0216
 8784SOL    HW334909   2.741   2.610   4.710 -2.3072  0.3059 -1.1039
 8784SOL    MW434910   2.725   2.691   4.736  1.0087 -0.0852  0.4149
 8785SOL     OW34911   0.339   5.607   0.339 -0.3052  0.3534 -0.5070
 8785SOL    HW234912   0.373   5.681   0.389  2.7103 -0.4638 -1.1253
 8785SOL    HW334913   0.244   5.610   0.352 -0.2360  3.7988  0.1357
 8785SOL    MW434914   0.331   5.617   0.347 -0.0359  0.2866 -0.1962
 8786SOL     OW34915   2.727   1.774   5.645 -0.0643  0.3494  0.0921
 8786SOL    HW234916   2.763   1.844   5.590 -0.0989 -0.7039 -1.3492
 8786SOL    HW334917   2.688   1.819   5.720 -0.6577  1.9143 -1.1037
 8786SOL    MW434918   2.727   1.789   5.648 -0.4868  0.1973  0.0028
 8787SOL     OW34919   3.025   5.601   0.908 -0.2022  0.4758 -0.3305
 8787SOL    HW234920   3.050   5.650   0.987 -2.3148 -1.9981  2.0487
 8787SOL    HW334921   3.087   5.529   0.904 -0.7426  0.0082 -0.3254
 8787SOL    MW434922   3.037   5.598   0.918  0.0827  0.5088 -0.2127
 8788SOL     OW34923   0.150   0.568   4.440 -0.4367 -0.7041 -0.5118
 8788SOL    HW234924   0.186   0.595   4.356 -1.0143 -1.5378 -1.0557
 8788SOL    HW334925   0.177   0.476   4.449  0.5805 -0.3017  0.7623
 8788SOL    MW434926   0.158   0.559   4.430  0.2422  0.3171  0.2466
 8789SOL     OW34927   1.097   2.379   0.452 -0.4887  0.5512  0.1129
 8789SOL    HW234928   1.021   2.428   0.419  0.2481  0.6221 -1.5692
 8789SOL    HW334929   1.172   2.435   0.432 -0.0431  1.6972  3.9823
 8789SOL    MW434930   1.097   2.393   0.445 -0.1145 -0.3291 -0.0541
 8790SOL     OW34931   2.002   3.921   4.413 -0.5668  0.9293 -0.0766
 8790SOL    HW234932   2.034   4.006   4.443  0.5170  0.6342 -0.3456
 8790SOL    HW334933   1.984   3.934   4.320  2.6837  0.1084 -0.9684
 8790SOL    MW434934   2.004   3.934   4.405  0.2222  0.2744 -0.5254
 8791SOL     OW34935   4.570   5.448   2.625 -0.6309  0.3347 -0.0251
 8791SOL    HW234936   4.481   5.476   2.648 -1.3058 -1.8342  0.2131
 8791SOL    HW334937   4.558   5.365   2.579  1.2508  0.3276 -0.5708
 8791SOL    MW434938   4.556   5.441   2.622 -0.6396  0.1329 -0.5944
 8792SOL     OW34939   3.797   1.204   5.909  0.2028 -0.5814  0.0760
 8792SOL    HW234940   3.888   1.221   5.885  0.0021  0.0360 -0.2763
 8792SOL    HW334941   3.800   1.185   6.002  0.6008  0.2292  0.2395
 8792SOL    MW434942   3.809   1.204   5.918  0.4380  0.0781  0.1858
 8793SOL     OW34943   0.240   1.871   6.044 -0.4458 -0.1883 -0.4190
 8793SOL    HW234944   0.227   1.779   6.018 -0.9575 -0.7551  1.6947
 8793SOL    HW334945   0.165   1.891   6.101 -0.4071  1.6035 -0.9346
 8793SOL    MW434946   0.228   1.861   6.048  0.1204 -0.4219 -0.2618
 8794SOL     OW34947   3.223   5.853   2.973 -0.4432 -0.2230  0.0271
 8794SOL    HW234948   3.298   5.905   2.945 -0.2496  0.1857  1.2343
 8794SOL    HW334949   3.225   5.776   2.917  1.1706 -0.4528  0.3576
 8794SOL    MW434950   3.233   5.850   2.962  0.2016 -0.5253 -0.1605
 8795SOL     OW34951   1.820   3.058   4.509  0.6355  0.8538 -0.3103
 8795SOL    HW234952   1.900   3.039   4.557 -0.0365 -0.2579  0.4448
 8795SOL    HW334953   1.794   2.973   4.472  0.6273  1.5039 -1.8663
 8795SOL    MW434954   1.827   3.044   4.511 -0.1223 -0.2678  0.0389
 8796SOL     OW34955   5.155   1.765   1.463 -0.1933  0.1064 -0.7233
 8796SOL    HW234956   5.092   1.838   1.467 -0.5100 -0.2038  0.5143
 8796SOL    HW334957   5.118   1.705   1.399 -0.8702  0.2075 -0.4368
 8796SOL    MW434958   5.142   1.767   1.455  0.0192  0.0132 -0.2626
 8797SOL     OW34959   4.922   0.468   0.528  0.0885 -0.2589 -0.3149
 8797SOL    HW234960   4.959   0.440   0.444  2.1879 -1.9293  1.0781
 8797SOL    HW334961   4.942   0.562   0.533 -1.7723  0.3469 -2.4387
 8797SOL    MW434962   4.930   0.477   0.518  0.5717  0.2637  0.3063
 8798SOL     OW34963   5.949   6.239   0.409 -0.2791  0.2257  0.0219
 8798SOL    HW234964   5.915   6.259   0.496  0.3499  0.3132  0.2535
 8798SOL    HW334965   6.044   6.246   0.418 -0.1833 -0.2645 -0.5480
 8798SOL    MW434966   5.957   6.243   0.422  0.4922  0.1166 -0.1387
 8799SOL     OW34967   4.281   5.556   2.366 -0.3129  0.0589  0.3415
 8799SOL    HW234968   4.304   5.471   2.329  0.6623  0.3413  0.2738
 8799SOL    HW334969   4.340   5.618   2.324 -1.0226  0.7870  0.3758
 8799SOL    MW434970   4.291   5.553   2.356 -0.4307  0.3102  0.2878
 8800SOL     OW34971   5.252   1.884   3.655  0.3075  0.4315 -0.1343
 8800SOL    HW234972   5.310   1.837   3.715  0.6464  0.3684 -0.5052
 8800SOL    HW334973   5.297   1.966   3.638  0.2534  0.4134 -0.3665
 8800SOL    MW434974   5.266   1.888   3.661  0.0203  0.1941 -0.0484
 8801SOL     OW34975   3.983   0.263   5.974  0.0600 -0.6803 -0.4642
 8801SOL    HW234976   3.915   0.259   5.907 -0.1986 -0.6961 -0.2009
 8801SOL    HW334977   3.961   0.192   6.034 -0.8744  0.5834  0.7467
 8801SOL    MW434978   3.971   0.253   5.973  0.4076  0.0624 -0.2539
 8802SOL     OW34979   4.962   2.271   5.400 -0.2571  0.1374 -0.4263
 8802SOL    HW234980   4.924   2.357   5.383  0.6914  0.8753  0.9402
 8802SOL    HW334981   4.980   2.234   5.314 -0.0639  1.6084 -1.0437
 8802SOL    MW434982   4.960   2.278   5.387  0.3123 -0.5282 -0.2125
 8803SOL     OW34983   5.342   4.249   5.591  0.2985 -0.1419 -0.1095
 8803SOL    HW234984   5.412   4.285   5.644 -0.3181  0.4839  0.2978
 8803SOL    HW334985   5.261   4.273   5.637 -0.1703 -1.3601 -0.2477
 8803SOL    MW434986   5.340   4.257   5.604  0.4216 -0.7411  0.0103
 8804SOL     OW34987   0.227   4.369   5.877 -0.0890 -0.3416 -0.2909
 8804SOL    HW234988   0.313   4.412   5.881 -0.4463  0.4216 -0.6517
 8804SOL    HW334989   0.215   4.331   5.964  1.9890 -3.2035 -1.0654
 8804SOL    MW434990   0.237   4.369   5.889  0.2555  0.1043  0.0848
 8805SOL     OW34991   1.939   2.073   0.575 -0.0670  0.0137 -0.1072
 8805SOL    HW234992   1.875   2.036   0.515  0.1747  1.3800 -1.2519
 8805SOL    HW334993   1.946   2.009   0.646 -0.4411 -1.5950 -1.4735
 8805SOL    MW434994   1.932   2.060   0.577  0.4759  0.6691  0.5918
 8806SOL     OW34995   3.077   1.299   0.749 -0.1261 -0.0555 -0.0594
 8806SOL    HW234996   2.988   1.313   0.716  0.7432  1.8386 -1.8187
 8806SOL    HW334997   3.114   1.387   0.757  1.6436 -0.7975  0.4587
 8806SOL    MW434998   3.070   1.312   0.745  0.1061 -0.3870 -0.0120
 8807SOL     OW34999   4.323   1.785   4.017 -0.3052 -0.5865  0.1175
 8807SOL    HW235000   4.311   1.776   4.112  0.3332 -0.9023  0.1744
 8807SOL    HW335001   4.408   1.827   4.007 -0.2174 -0.8640 -0.3257
 8807SOL    MW435002   4.332   1.789   4.028  0.0129  0.1511 -0.5440
 8808SOL     OW35003   0.504   1.789   4.631  0.2793  0.2463  0.4050
 8808SOL    HW235004   0.484   1.823   4.718  0.0120  0.6136  0.1984
 8808SOL    HW335005   0.552   1.859   4.588 -0.6620  0.5473 -0.1802
 8808SOL    MW435006   0.508   1.802   4.637 -0.2791  0.2969 -0.0631
 8809SOL     OW35007   3.640   4.914   5.965 -0.1311 -0.1356 -0.5264
 8809SOL    HW235008   3.733   4.899   5.979  0.1421 -0.4717 -2.4107
 8809SOL    HW335009   3.618   4.988   6.021  1.2371 -0.1030 -0.0033
 8809SOL    MW435010   3.649   4.922   5.974  0.0603 -0.4015  0.0943
 8810SOL     OW35011   2.793   0.788   5.249 -0.1461  0.4793 -0.0604
 8810SOL    HW235012   2.840   0.868   5.273  2.2771 -1.0413  0.7133
 8810SOL    HW335013   2.800   0.784   5.153  0.6803  0.6820 -0.0189
 8810SOL    MW435014   2.800   0.798   5.239  0.3384  0.3852 -0.0409
 8811SOL     OW35015   4.526   4.591   3.013 -0.0835 -0.1034 -0.2198
 8811SOL    HW235016   4.589   4.539   3.062 -1.0181  0.8042  2.0486
 8811SOL    HW335017   4.577   4.662   2.975  0.7471 -1.1525 -1.1642
 8811SOL    MW435018   4.541   4.593   3.014  0.3109  0.0339  0.9744
 8812SOL     OW35019   2.558   4.713   6.055 -0.0497  0.8888 -0.4746
 8812SOL    HW235020   2.579   4.805   6.040 -2.7272  1.6289 -0.3250
 8812SOL    HW335021   2.511   4.712   6.138  1.8116 -0.9913  0.6544
 8812SOL    MW435022   2.554   4.725   6.064  0.1478 -0.6008 -0.3611
 8813SOL     OW35023   0.175   2.566   2.812  0.2618 -0.0618 -0.1771
 8813SOL    HW235024   0.162   2.497   2.876  1.1935 -0.1875 -0.1126
 8813SOL    HW335025   0.262   2.600   2.830 -1.2191  3.1268  1.6715
 8813SOL    MW435026   0.185   2.561   2.823  0.1462 -0.3325 -0.3834
 8814SOL     OW35027   0.755   3.988   3.978 -0.2437 -0.4026  0.1713
 8814SOL    HW235028   0.767   4.053   3.908 -0.4588  0.5190  0.9685
 8814SOL    HW335029   0.677   4.017   4.024  0.3855 -0.5015  1.3266
 8814SOL    MW435030   0.746   4.001   3.975  0.0269  0.1580 -0.3246
 8815SOL     OW35031   0.676   3.303   6.170  0.1783  0.2998  0.1863
 8815SOL    HW235032   0.671   3.305   6.074 -0.3240  1.7377  0.2248
 8815SOL    HW335033   0.586   3.315   6.199  0.1226 -1.4545  0.8672
 8815SOL    MW435034   0.664   3.305   6.161 -0.0973 -0.8226 -0.0438
 8816SOL     OW35035   0.046   4.107   1.762 -0.4623 -0.3732 -0.0630
 8816SOL    HW235036   0.062   4.201   1.755  0.0584 -0.4921 -0.4958
 8816SOL    HW335037   0.013   4.082   1.676  1.1714 -0.9212 -0.5628
 8816SOL    MW435038   0.043   4.116   1.750  0.1236 -0.5595  0.2025
 8817SOL     OW35039   4.477   0.546   1.566 -0.0100  0.4453 -0.0468
 8817SOL    HW235040   4.464   0.465   1.518  1.7712  0.4685 -0.6591
 8817SOL    HW335041   4.443   0.529   1.653  0.2541 -0.9365 -0.1973
 8817SOL    MW435042   4.471   0.533   1.571 -0.0995 -0.0897 -0.7101
 8818SOL     OW35043   4.937   0.035   5.169  0.0575 -0.3313 -0.4906
 8818SOL    HW235044   4.925  -0.023   5.094  0.5506  0.0850 -0.8979
 8818SOL    HW335045   5.031   0.032   5.187  0.0660  0.2360 -0.4273
 8818SOL    MW435046   4.948   0.027   5.162 -0.1855 -0.4307  0.4227
 8819SOL     OW35047   1.840   2.007   4.727  0.3347 -0.3643 -0.2384
 8819SOL    HW235048   1.874   2.088   4.766 -1.1615  0.6976 -1.0277
 8819SOL    HW335049   1.774   1.977   4.790 -2.5720  1.7145 -2.0086
 8819SOL    MW435050   1.836   2.014   4.741 -0.0401  0.3341 -0.0354
 8820SOL     OW35051   0.333   1.806   3.369 -0.1927 -0.4133 -0.0281
 8820SOL    HW235052   0.377   1.725   3.395 -0.0908 -0.6815 -0.9781
 8820SOL    HW335053   0.338   1.806   3.273 -1.3904  0.0447 -0.1061
 8820SOL    MW435054   0.339   1.795   3.360  0.3039 -0.2320 -0.0949
 8821SOL     OW35055   4.416   2.518   5.195 -0.1000  0.6950 -0.6051
 8821SOL    HW235056   4.394   2.462   5.120 -1.2817  0.3111 -0.0047
 8821SOL    HW335057   4.374   2.602   5.176  1.4507  1.3234 -1.3817
 8821SOL    MW435058   4.407   2.521   5.183 -0.1208 -0.0703  0.1459
 8822SOL     OW35059   1.285   4.897   4.961  0.8442 -0.3843  1.0285
 8822SOL    HW235060   1.283   4.805   4.936  2.5001  0.2605 -1.9150
 8822SOL    HW335061   1.367   4.907   5.011  1.2877 -0.3240  0.3078
 8822SOL    MW435062   1.296   4.886   4.964  0.8845  0.3654  0.0368
 8823SOL     OW35063   1.852   0.016   6.345  0.0258  1.2345  0.0647
 8823SOL    HW235064   1.841  -0.054   6.409  0.3079 -0.8770 -2.0604
 8823SOL    HW335065   1.773   0.070   6.354 -0.4232  0.3894  1.4507
 8823SOL    MW435066   1.840   0.014   6.355  0.6332  0.7216  0.6084
 8824SOL     OW35067   5.250   2.326   5.598 -0.2735  0.1691 -0.2795
 8824SOL    HW235068   5.295   2.247   5.629 -1.3024 -0.1386  0.4954
 8824SOL    HW335069   5.310   2.398   5.618 -0.2091 -0.2058  0.9465
 8824SOL    MW435070   5.264   2.325   5.605 -0.0935 -0.6526 -0.0313
 8825SOL     OW35071   2.516   5.542   4.267  0.2629  0.1661  0.0264
 8825SOL    HW235072   2.529   5.604   4.338 -0.3548  0.6378 -0.2629
 8825SOL    HW335073   2.527   5.594   4.187 -1.9705  0.3162 -0.2380
 8825SOL    MW435074   2.519   5.557   4.266  0.0238  0.2509 -0.2187
 8826SOL     OW35075   4.352   3.008   5.010 -0.1868 -0.8452 -0.1656
 8826SOL    HW235076   4.278   3.033   4.953 -1.4845 -1.7462  1.0525
 8826SOL    HW335077   4.414   2.965   4.951 -0.6399 -0.1045 -1.2139
 8826SOL    MW435078   4.350   3.005   4.995  0.2504 -0.0329  0.3409
 8827SOL     OW35079   6.195   4.800   1.768  0.5160 -0.2665  0.1536
 8827SOL    HW235080   6.180   4.865   1.699  0.1529 -0.7149 -0.1971
 8827SOL    HW335081   6.121   4.740   1.761  1.1850 -1.1014  0.0244
 8827SOL    MW435082   6.183   4.801   1.758 -0.3893 -0.3048 -0.3002
 8828SOL     OW35083   4.596   5.438   0.124 -0.2033 -0.3205 -0.2989
 8828SOL    HW235084   4.601   5.460   0.031 -1.1775 -0.1023 -0.3033
 8828SOL    HW335085   4.529   5.370   0.129 -1.0138  0.5118  0.3882
 8828SOL    MW435086   4.588   5.432   0.112 -0.0111 -0.2267  0.3011
 8829SOL     OW35087   3.403   2.454   2.993 -0.2665 -0.2588 -0.6783
 8829SOL    HW235088   3.407   2.372   3.043  0.1383 -0.4311 -0.9907
 8829SOL    HW335089   3.330   2.502   3.032  0.9720  0.2753  1.1084
 8829SOL    MW435090   3.394   2.449   3.005  0.0029  0.1277 -0.0710
 8830SOL     OW35091   6.038   4.091   2.532 -0.8645 -0.2645  0.4531
 8830SOL    HW235092   6.106   4.034   2.568 -1.1623 -0.8018  0.1885
 8830SOL    HW335093   5.990   4.034   2.471 -0.1311  0.7184 -1.0946
 8830SOL    MW435094   6.041   4.076   2.529  0.2646  0.0374 -0.2686
 8831SOL     OW35095   0.097   1.339   1.969  0.3689  0.3957 -0.1825
 8831SOL    HW235096   0.080   1.335   2.063 -0.3189  1.0065 -0.2736
 8831SOL    HW335097   0.055   1.261   1.933 -0.1203  0.6130 -0.0884
 8831SOL    MW435098   0.090   1.329   1.977 -0.1057 -0.1418 -0.7245
 8832SOL     OW35099   4.696   1.883   2.101 -0.2349 -0.2456  0.2825
 8832SOL    HW235100   4.670   1.821   2.033  0.2555 -2.5932  2.0728
 8832SOL    HW335101   4.792   1.883   2.098 -0.2058 -0.3768  0.9165
 8832SOL    MW435102   4.705   1.875   2.092 -0.1778 -0.1562  0.3605
 8833SOL     OW35103   2.177   3.168   3.300  0.2450 -0.5913  0.5081
 8833SOL    HW235104   2.211   3.195   3.215  1.0715  0.1128  1.0374
 8833SOL    HW335105   2.134   3.084   3.284 -0.8924  0.2082 -0.8655
 8833SOL    MW435106   2.176   3.160   3.287 -0.3254  0.6935  0.3613
 8834SOL     OW35107   4.645   5.857   0.569 -0.2331 -0.1058  0.1614
 8834SOL    HW235108   4.584   5.794   0.532 -1.9898  0.9733  1.0856
 8834SOL    HW335109   4.700   5.805   0.628 -3.4911 -0.5549  3.1846
 8834SOL    MW435110   4.644   5.842   0.572  0.6133  0.4605  0.5882
 8835SOL     OW35111   3.081   5.776   3.868  0.4090  0.0168  0.5259
 8835SOL    HW235112   3.075   5.854   3.923 -0.6327 -0.8300  1.6816
 8835SOL    HW335113   2.997   5.730   3.882  0.0669 -0.2236 -1.8046
 8835SOL    MW435114   3.069   5.780   3.877  0.0600  0.5211 -0.2578
 8836SOL     OW35115   0.964   1.173   1.034 -0.4583  0.5841 -0.2853
 8836SOL    HW235116   1.008   1.124   1.104 -1.7954  0.9323  0.8392
 8836SOL    HW335117   1.015   1.152   0.955  0.4946 -0.6102  0.5992
 8836SOL    MW435118   0.977   1.164   1.033  0.3204  0.3113 -0.3301
 8837SOL     OW35119   4.274   5.129   2.445  0.1291  0.0885  0.2837
 8837SOL    HW235120   4.185   5.150   2.473  0.3333  0.6798  0.5018
 8837SOL    HW335121   4.269   5.037   2.418 -0.9792  0.5871 -1.4091
 8837SOL    MW435122   4.261   5.120   2.445 -0.7290  0.1030 -0.1624
 8838SOL     OW35123   1.455   0.175   4.741 -0.3151 -0.2076  0.3973
 8838SOL    HW235124   1.495   0.175   4.654 -1.4086  0.1769 -0.1283
 8838SOL    HW335125   1.443   0.082   4.762 -0.3409 -0.2934  0.0008
 8838SOL    MW435126   1.459   0.163   4.732 -0.6166  0.5388 -0.0953
 8839SOL     OW35127   4.197   2.030   6.317  0.1115 -0.0951  0.3923
 8839SOL    HW235128   4.133   2.066   6.378 -0.0030 -0.8689  0.7430
 8839SOL    HW335129   4.240   1.959   6.366 -0.3256 -1.0728 -0.5809
 8839SOL    MW435130   4.195   2.025   6.332 -1.0539 -0.1903  0.1251
 8840SOL     OW35131   0.690   0.407   3.197 -0.1946  0.0484  0.0327
 8840SOL    HW235132   0.658   0.427   3.110  0.0150  0.6883  0.1008
 8840SOL    HW335133   0.614   0.418   3.255 -0.5784 -1.3060 -0.1788
 8840SOL    MW435134   0.676   0.411   3.193 -0.1984  0.0668 -0.0890
 8841SOL     OW35135   2.738   1.538   3.033  0.2497 -0.7930  0.2304
 8841SOL    HW235136   2.667   1.534   2.970  0.2733 -1.0684  0.2209
 8841SOL    HW335137   2.725   1.461   3.089  0.0460 -0.3875  0.7535
 8841SOL    MW435138   2.727   1.528   3.032 -0.3447 -0.4993 -1.1781
 8842SOL     OW35139   2.018   5.640   4.841 -0.4324  0.0024  0.1587
 8842SOL    HW235140   1.986   5.664   4.928 -0.8812  0.7222 -0.1871
 8842SOL    HW335141   2.059   5.720   4.809  0.4745 -0.5077  0.0350
 8842SOL    MW435142   2.019   5.654   4.848 -0.2243  0.2116  0.0621
 8843SOL     OW35143   5.083   0.687   3.909 -0.7757 -0.2831  0.3074
 8843SOL    HW235144   5.023   0.695   3.835 -1.4921  1.1881  1.0064
 8843SOL    HW335145   5.152   0.751   3.890  1.4874 -2.9269 -1.2170
 8843SOL    MW435146   5.084   0.697   3.897  0.4743  0.8908 -0.2287
 8844SOL     OW35147   3.013   4.607   3.889  0.2356  0.3921  0.0056
 8844SOL    HW235148   2.986   4.694   3.917  1.0796  0.4714  0.6420
 8844SOL    HW335149   2.994   4.604   3.796  0.6152  1.4249 -0.1145
 8844SOL    MW435150   3.007   4.618   3.881  0.4425 -0.4027 -0.6985
 8845SOL     OW35151   4.998   5.884   0.865 -0.8512  0.5589  0.1053
 8845SOL    HW235152   5.071   5.945   0.877  0.3997 -1.1015  1.2923
 8845SOL    HW335153   4.982   5.884   0.771  2.0762 -0.5497 -0.4973
 8845SOL    MW435154   5.005   5.892   0.855 -0.4384  0.0021  0.1474
 8846SOL     OW35155   1.821   5.566   2.927  0.3893 -0.1107 -0.1252
 8846SOL    HW235156   1.791   5.488   2.880  0.6727 -0.4232  0.2120
 8846SOL    HW335157   1.791   5.552   3.017  0.9162 -0.0835  0.0525
 8846SOL    MW435158   1.813   5.554   2.933  0.6567  0.1695 -0.3215
 8847SOL     OW35159   4.657   6.252   3.521  0.3364  0.1713  0.3222
 8847SOL    HW235160   4.606   6.171   3.529  1.4521 -0.3828  2.6234
 8847SOL    HW335161   4.611   6.315   3.576  1.9796 -0.3294  2.4081
 8847SOL    MW435162   4.644   6.249   3.529 -0.2804 -0.2790  0.2895
 8848SOL     OW35163   5.729   2.816   1.640  0.1351 -0.3873  0.1332
 8848SOL    HW235164   5.763   2.872   1.570 -0.5026 -0.5060 -0.2823
 8848SOL    HW335165   5.638   2.800   1.615  0.2225 -1.3522  0.4155
 8848SOL    MW435166   5.721   2.821   1.628  0.2294  0.1858  0.3210
 8849SOL     OW35167   0.072   3.223   3.344  0.1670  0.1763  0.3137
 8849SOL    HW235168   0.020   3.203   3.265 -0.1748 -0.8777  0.7814
 8849SOL    HW335169   0.160   3.239   3.311 -0.5688  2.8739 -0.5993
 8849SOL    MW435170   0.076   3.222   3.329 -0.4420  0.2018  0.3968
 8850SOL     OW35171   6.157   1.475   6.211  0.4259 -0.3762 -0.7064
 8850SOL    HW235172   6.182   1.563   6.184 -2.1130  0.8768  0.6138
 8850SOL    HW335173   6.071   1.461   6.171  1.2346 -2.8032 -1.8393
 8850SOL    MW435174   6.149   1.485   6.202  0.2166  0.7742  0.2959
 8851SOL     OW35175   2.186   3.577   5.044  0.1239 -0.1789 -0.5460
 8851SOL    HW235176   2.190   3.625   5.126  0.2949 -0.0418 -0.6348
 8851SOL    HW335177   2.094   3.553   5.034  0.0383  0.1386 -0.5079
 8851SOL    MW435178   2.175   3.580   5.053 -0.1713 -0.5039 -0.2002
 8852SOL     OW35179   0.545   0.410   4.742  0.2764  0.2154 -0.0300
 8852SOL    HW235180   0.512   0.492   4.778  0.8906  0.1874  0.6125
 8852SOL    HW335181   0.513   0.343   4.803  1.1369  0.1433  0.3475
 8852SOL    MW435182   0.536   0.412   4.755  0.2223  0.2568 -0.7336
 8853SOL     OW35183   1.705   1.441   5.837 -0.4871  0.0388  0.3082
 8853SOL    HW235184   1.686   1.362   5.787  1.9732 -1.4072  1.4310
 8853SOL    HW335185   1.637   1.503   5.812 -2.2834 -2.2799 -0.9353
 8853SOL    MW435186   1.694   1.438   5.827  0.1967  0.3984  0.4469
 8854SOL     OW35187   1.907   4.211   1.238 -0.3717 -0.2042 -0.0512
 8854SOL    HW235188   1.852   4.245   1.308 -1.1062 -1.3175 -0.0581
 8854SOL    HW335189   1.981   4.170   1.283  0.0752  0.6215 -0.0127
 8854SOL    MW435190   1.910   4.210   1.253  0.1460 -0.3026 -0.3796
 8855SOL     OW35191   3.811   0.437   3.132 -0.4064  0.2495  0.2418
 8855SOL    HW235192   3.752   0.463   3.202 -0.6535 -0.6674  0.3948
 8855SOL    HW335193   3.806   0.507   3.067 -0.3251  1.0086  1.0501
 8855SOL    MW435194   3.803   0.450   3.132  0.3238 -0.1575 -0.0995
 8856SOL     OW35195   6.428   0.865   5.846 -0.0429 -0.2671 -0.0151
 8856SOL    HW235196   6.490   0.819   5.789  0.7828 -1.0201  1.4220
 8856SOL    HW335197   6.351   0.878   5.792  0.6986 -0.9471 -1.3015
 8856SOL    MW435198   6.426   0.861   5.832  0.6374  0.9337  0.1140
 8857SOL     OW35199   2.034   3.421   2.500 -0.1995  0.4252 -0.3995
 8857SOL    HW235200   2.020   3.339   2.547  0.3990  0.2543 -0.5093
 8857SOL    HW335201   2.125   3.417   2.471 -0.0963  1.2279 -0.2112
 8857SOL    MW435202   2.044   3.410   2.502  0.4025 -1.0138  0.1749
 8858SOL     OW35203   1.213   1.881   1.204 -0.0270 -0.2317 -0.0753
 8858SOL    HW235204   1.268   1.804   1.211 -0.9769 -1.0212 -0.9217
 8858SOL    HW335205   1.263   1.942   1.150  0.2262 -0.7398 -0.4246
 8858SOL    MW435206   1.227   1.879   1.198  0.0557  0.6061  0.1933
 8859SOL     OW35207   6.094   1.172   3.063 -0.0265 -0.3572 -0.1216
 8859SOL    HW235208   6.130   1.116   2.994  1.5804 -0.7238  0.9737
 8859SOL    HW335209   6.005   1.139   3.076  0.1240 -1.1814 -1.0546
 8859SOL    MW435210   6.087   1.160   3.055 -0.0545  0.1260  1.1345
 8860SOL     OW35211   3.066   0.902   4.685 -0.2612 -0.7270  0.3247
 8860SOL    HW235212   3.064   0.834   4.752  1.3162  0.5546  1.7555
 8860SOL    HW335213   3.142   0.881   4.631  0.3425 -0.0410  0.8836
 8860SOL    MW435214   3.076   0.891   4.687  0.1086 -0.1785 -0.9401
 8861SOL     OW35215   3.765   3.315   1.760 -0.4203 -0.1604  0.3604
 8861SOL    HW235216   3.771   3.408   1.779 -0.8007  0.2234 -1.2851
 8861SOL    HW335217   3.856   3.287   1.747 -0.3026 -0.0494  0.9133
 8861SOL    MW435218   3.778   3.323   1.761 -0.1403  0.3471  0.3572
 8862SOL     OW35219   4.639   5.612   4.644  0.4129 -0.2901  0.0456
 8862SOL    HW235220   4.618   5.518   4.643  0.7974 -0.3769 -0.1054
 8862SOL    HW335221   4.564   5.653   4.686  0.2959 -0.6822  0.2225
 8862SOL    MW435222   4.627   5.605   4.649  0.0920  0.2017  0.3159
 8863SOL     OW35223   5.949   2.129   0.875  0.1853 -0.0319  0.1264
 8863SOL    HW235224   5.878   2.144   0.813  1.3749  0.6989 -1.1170
 8863SOL    HW335225   5.917   2.166   0.957 -1.9251 -2.1578  0.3561
 8863SOL    MW435226   5.936   2.136   0.878 -0.1840 -0.2468  0.2087
 8864SOL     OW35227   6.168   1.138   1.285  0.1566 -0.4474 -0.1171
 8864SOL    HW235228   6.245   1.095   1.323  0.2318 -0.4254 -0.2444
 8864SOL    HW335229   6.099   1.072   1.292 -0.1622 -0.0195  1.1953
 8864SOL    MW435230   6.169   1.123   1.291 -0.8197 -0.5625 -0.0731
 8865SOL     OW35231   4.335   5.133   6.126  0.2585  0.3554 -0.2125
 8865SOL    HW235232   4.372   5.219   6.144 -2.6567  2.0845 -1.6236
 8865SOL    HW335233   4.248   5.135   6.167 -0.2414 -1.5589 -1.0553
 8865SOL    MW435234   4.328   5.144   6.134 -0.1879 -0.0858 -0.0019
 8866SOL     OW35235   3.765   0.229   0.979  0.0745 -0.0103  0.0575
 8866SOL    HW235236   3.722   0.217   0.894 -0.8353 -1.2556  0.6697
 8866SOL    HW335237   3.758   0.144   1.022 -0.7278  0.9531  1.9471
 8866SOL    MW435238   3.758   0.217   0.973 -0.2185 -0.1981  0.1972
 8867SOL     OW35239   0.942   5.709   0.424  0.1813 -0.0558  0.0713
 8867SOL    HW235240   0.961   5.619   0.395  0.1108  0.3703 -1.4095
 8867SOL    HW335241   0.852   5.724   0.394  0.9342  1.2330 -1.6973
 8867SOL    MW435242   0.932   5.699   0.416  0.2277  0.5595  0.1579
 8868SOL     OW35243   0.285   6.098   4.342 -0.0278  0.3302  0.5247
 8868SOL    HW235244   0.267   6.005   4.357  0.7295  0.1828  0.5481
 8868SOL    HW335245   0.365   6.115   4.390  1.2903  0.3562 -1.5429
 8868SOL    MW435246   0.293   6.088   4.350  0.3658 -0.4672 -1.0646
 8869SOL     OW35247   5.348   1.998   4.024 -0.2019 -0.0898 -0.1528
 8869SOL    HW235248   5.377   1.932   3.961  0.9155 -0.6398  0.8877
 8869SOL    HW335249   5.429   2.040   4.054 -0.8577  1.4499 -0.4356
 8869SOL    MW435250   5.363   1.995   4.020  0.7742 -0.5890 -0.1050
 8870SOL     OW35251   5.274   5.518   5.009  0.6070 -0.4879  0.0668
 8870SOL    HW235252   5.218   5.528   5.085 -0.2640 -0.0745 -0.6143
 8870SOL    HW335253   5.356   5.561   5.033  1.0688 -2.0126  1.4737
 8870SOL    MW435254   5.277   5.525   5.022  0.3569  0.3669 -0.2359
 8871SOL     OW35255   6.032   2.746   1.901 -0.3182  0.1670 -0.1333
 8871SOL    HW235256   6.075   2.811   1.845  1.1689 -0.6349  0.0205
 8871SOL    HW335257   6.063   2.662   1.868 -1.0998 -0.4107  0.5576
 8871SOL    MW435258   6.042   2.743   1.889  0.0410  0.4163 -0.4118
 8872SOL     OW35259   3.590   4.640   6.032  0.6911 -0.5643  0.0690
 8872SOL    HW235260   3.600   4.733   6.012 -0.5788 -0.5384 -0.5374
 8872SOL    HW335261   3.637   4.595   5.962  0.4141 -0.3824 -0.2411
 8872SOL    MW435262   3.597   4.646   6.020 -0.0586 -0.3590 -0.5141
 8873SOL     OW35263   2.802   5.503   3.063  0.0205  0.1497 -0.4790
 8873SOL    HW235264   2.864   5.470   2.998  0.4368 -1.2866  0.6005
 8873SOL    HW335265   2.716   5.485   3.025  0.2378  1.0646 -1.4542
 8873SOL    MW435266   2.799   5.497   3.049 -0.1496 -0.0721 -0.2919
 8874SOL     OW35267   1.668   1.623   1.210  0.4463  0.3799  0.2889
 8874SOL    HW235268   1.744   1.631   1.268  0.4230  0.0638  0.3613
 8874SOL    HW335269   1.634   1.536   1.227  1.5507 -0.4644 -1.5655
 8874SOL    MW435270   1.673   1.613   1.220 -0.0905 -0.5493  0.7659
 8875SOL     OW35271   1.657   0.405   0.953 -0.0903  0.1122 -0.4554
 8875SOL    HW235272   1.593   0.346   0.993 -0.4245 -0.8003 -2.2640
 8875SOL    HW335273   1.604   0.471   0.909  0.2577  0.5314 -0.2543
 8875SOL    MW435274   1.641   0.406   0.953  0.1865 -0.5768  0.1131
 8876SOL     OW35275   0.367   0.828   2.148  0.7706 -0.0604  0.3047
 8876SOL    HW235276   0.415   0.760   2.102 -0.2441 -0.2270 -0.5516
 8876SOL    HW335277   0.333   0.885   2.079 -1.0855 -0.5146  0.7737
 8876SOL    MW435278   0.369   0.827   2.133 -0.0232 -0.1901  0.5257
 8877SOL     OW35279   4.822   6.013   3.365  0.5631 -0.1623  0.0867
 8877SOL    HW235280   4.853   6.077   3.301  0.5676 -0.8477 -0.6189
 8877SOL    HW335281   4.737   6.047   3.394  0.7246  0.3371 -0.0185
 8877SOL    MW435282   4.815   6.026   3.361  0.0343  0.0551 -0.1576
 8878SOL     OW35283   2.557   4.514   5.869  0.7677  0.0085 -0.1247
 8878SOL    HW235284   2.487   4.542   5.809  1.2700 -0.5892 -1.0103
 8878SOL    HW335285   2.557   4.580   5.938 -1.4090 -0.5628  0.4925
 8878SOL    MW435286   2.548   4.526   5.870  0.0561  0.4862 -0.3236
 8879SOL     OW35287   5.481   1.622   3.539 -0.3987 -0.2866  0.0195
 8879SOL    HW235288   5.546   1.673   3.587 -1.0621 -0.7349  1.4663
 8879SOL    HW335289   5.533   1.562   3.485  0.4452 -1.0692  1.6009
 8879SOL    MW435290   5.497   1.621   3.538 -0.1755  0.4818 -0.2114
 8880SOL     OW35291   1.411   4.075   3.999 -0.0414  0.7832  0.0425
 8880SOL    HW235292   1.394   3.993   4.046 -0.3874  0.6207 -0.3514
 8880SOL    HW335293   1.500   4.066   3.966 -0.0540  0.5914  0.0597
 8880SOL    MW435294   1.420   4.063   4.001  0.3164  0.0482 -0.3726
 8881NA      NA35295   4.213   5.765   2.804  0.0737  0.1072  0.0051
 8882NA      NA35296   1.080   3.510   3.484  0.1067 -0.0586  0.0455
 8883NA      NA35297   3.747   5.182   1.323 -0.1055  0.3503  0.0077
 8884NA      NA35298   1.080   5.909   0.325 -0.1276 -0.3020 -0.0738
 8885NA      NA35299   4.900   4.333   5.659 -0.1999 -0.3397  0.3202
 8886NA      NA35300   5.016   2.227   5.632  0.0242 -0.2849  0.3803
 8887NA      NA35301   3.564   2.690   0.806  0.0347  0.3911 -0.0436
   6.42840   6.42840   6.42840
